System
40344
    1TMC1    C1    1   1.392   2.321  11.669
    1TMC1    C2    2   1.267   2.369  11.615
    1TMC1    C3    3   1.260   2.507  11.602
    1TMC1    C4    4   1.494   2.409  11.699
    1TMC1    C5    5   1.470   2.540  11.674
    1TMC1    C6    6   1.354   2.589  11.630
    1TMC1     C    7   1.407   2.180  11.700
    1TMC1     O    8   1.307   2.112  11.718
    1TMC1     H    9   1.189   2.302  11.580
    1TMC1    H1   10   1.592   2.379  11.736
    1TMC1    H2   11   1.340   2.695  11.611
    1TMC1    C7   12   1.584   2.628  11.702
    1TMC1    C8   13   1.146   2.565  11.528
    1TMC1    O1   14   1.684   2.582  11.758
    1TMC1    O2   15   1.161   2.672  11.467
    1TMC1    O3   16   1.598   2.690  11.583
    1TMC1    H3   17   1.519   2.722  11.536
    1TMC1    O5   18   1.029   2.532  11.591
    1TMC1    H5   19   1.029   2.449  11.642
    2MPD2     C   20   1.730   1.800  11.854
    2MPD2    C1   21   1.594   1.796  11.845
    2MPD2    C2   22   1.526   1.905  11.775
    2MPD2    C3   23   1.596   2.014  11.746
    2MPD2    C4   24   1.731   2.022  11.757
    2MPD2    C5   25   1.795   1.912  11.805
    2MPD2     H   26   1.419   1.910  11.759
    2MPD2    H1   27   1.787   2.098  11.704
    2MPD2    H2   28   1.785   1.718  11.898
    2MPD2    H3   29   1.902   1.908  11.793
    2MPD2     N   30   1.543   2.141  11.706
    2MPD2    H5   31   1.615   2.208  11.682
    2MPD2    N1   32   1.511   1.694  11.899
    2MPD2    H7   33   1.411   1.707  11.888
    3TMC1    C1   34   1.018   3.021  10.872
    3TMC1    C2   35   0.985   3.091  10.759
    3TMC1    C3   36   1.082   3.116  10.666
    3TMC1    C4   37   1.142   2.967  10.885
    3TMC1    C5   38   1.235   2.989  10.789
    3TMC1    C6   39   1.207   3.068  10.678
    3TMC1     C   40   0.917   2.945  10.935
    3TMC1     O   41   0.941   2.832  10.967
    3TMC1     H   42   0.889   3.143  10.757
    3TMC1    H1   43   1.171   2.914  10.975
    3TMC1    H2   44   1.287   3.093  10.610
    3TMC1    C7   45   1.362   3.020  10.851
    3TMC1    C8   46   1.068   3.228  10.579
    3TMC1    O1   47   1.390   3.038  10.966
    3TMC1    O2   48   0.992   3.320  10.604
    3TMC1    O3   49   1.450   2.978  10.762
    3TMC1    H3   50   1.411   2.950  10.676
    3TMC1    O5   51   1.131   3.203  10.459
    3TMC1    H5   52   1.144   3.107  10.442
    4MPD2     C   53   0.448   2.911  11.167
    4MPD2    C1   54   0.495   3.039  11.162
    4MPD2    C2   55   0.609   3.062  11.087
    4MPD2    C3   56   0.687   2.968  11.026
    4MPD2    C4   57   0.661   2.837  11.059
    4MPD2    C5   58   0.538   2.812  11.126
    4MPD2     H   59   0.643   3.165  11.090
    4MPD2    H1   60   0.708   2.755  11.006
    4MPD2    H2   61   0.367   2.877  11.230
    4MPD2    H3   62   0.494   2.712  11.126
    4MPD2     N   63   0.802   3.021  10.959
    4MPD2    H5   64   0.815   3.121  10.971
    4MPD2    N1   65   0.441   3.139  11.241
    4MPD2    H7   66   0.495   3.225  11.247
    5TCq1    O1   67   2.026   4.434  12.569
    5TCq1    C1   68   1.992   4.387  12.448
    5TCq1    O2   69   2.073   4.347  12.363
    5TCq1    C2   70   1.866   4.449  12.413
    5TCq1    C3   71   1.762   4.450  12.502
    5TCq1    C4   72   1.661   4.530  12.464
    5TCq1    C5   73   1.652   4.601  12.349
    5TCq1    C6   74   1.755   4.585  12.265
    5TCq1    C7   75   1.863   4.506  12.290
    5TCq1    C8   76   1.750   4.629  12.122
    5TCq1    O4   77   1.816   4.568  12.038
    5TCq1    C9   78   1.555   4.540  12.566
    5TCq1    O5   79   1.578   4.524  12.686
    5TCq1    O6   80   1.437   4.567  12.508
    5TCq1    H1   81   1.958   4.483  12.619
    5TCq1    H2   82   1.768   4.408  12.602
    5TCq1    H3   83   1.575   4.672  12.321
    5TCq1    H4   84   1.945   4.500  12.220
    6MPD2     C   85   1.557   0.104  11.976
    6MPD2    C1   86   1.620   4.784  11.974
    6MPD2    C2   87   1.615   4.708  11.858
    6MPD2    C3   88   1.556   4.764  11.738
    6MPD2    C4   89   1.503   0.085  11.744
    6MPD2    C5   90   1.509   0.159  11.863
    6MPD2     H   91   1.646   4.606  11.871
    6MPD2    H1   92   1.481   0.138  11.652
    6MPD2    H2   93   1.569   0.161  12.068
    6MPD2    H3   94   1.483   0.264  11.859
    6MPD2     N   95   1.545   4.683  11.628
    6MPD2    H5   96   1.595   4.595  11.636
    6MPD2    N1   97   1.662   4.736  12.098
    6MPD2    H7   98   1.624   4.788  12.177
    7TCq1    O1   99   3.656   4.030  13.550
    7TCq1    C1  100   3.524   4.011  13.580
    7TCq1    O2  101   3.443   4.101  13.590
    7TCq1    C2  102   3.478   3.872  13.611
    7TCq1    C3  103   3.351   3.854  13.651
    7TCq1    C4  104   3.298   3.728  13.661
    7TCq1    C5  105   3.376   3.614  13.628
    7TCq1    C6  106   3.494   3.633  13.571
    7TCq1    C7  107   3.547   3.762  13.574
    7TCq1    C8  108   3.583   3.520  13.534
    7TCq1    O4  109   3.534   3.408  13.540
    7TCq1    C9  110   3.152   3.730  13.669
    7TCq1    O5  111   3.085   3.829  13.655
    7TCq1    O6  112   3.113   3.614  13.720
    7TCq1    H1  113   3.706   3.963  13.601
    7TCq1    H2  114   3.290   3.943  13.657
    7TCq1    H3  115   3.339   3.512  13.630
    7TCq1    H4  116   3.650   3.776  13.542
    8MPD2     C  117   4.059   3.344  13.562
    8MPD2    C1  118   3.946   3.283  13.605
    8MPD2    C2  119   3.830   3.358  13.580
    8MPD2    C3  120   3.832   3.485  13.517
    8MPD2    C4  121   3.956   3.543  13.494
    8MPD2    C5  122   4.062   3.467  13.525
    8MPD2     H  123   3.738   3.304  13.601
    8MPD2    H1  124   3.965   3.650  13.474
    8MPD2    H2  125   4.155   3.299  13.588
    8MPD2    H3  126   4.158   3.516  13.515
    8MPD2     N  127   3.714   3.564  13.506
    8MPD2    H5  128   3.722   3.665  13.502
    8MPD2    N1  129   3.950   3.157  13.661
    8MPD2    H7  130   4.042   3.122  13.686
    9TMC1    C1  131   1.400   3.143  11.473
    9TMC1    C2  132   1.280   3.117  11.412
    9TMC1    C3  133   1.266   3.154  11.283
    9TMC1    C4  134   1.510   3.216  11.415
    9TMC1    C5  135   1.497   3.232  11.279
    9TMC1    C6  136   1.373   3.213  11.219
    9TMC1     C  137   1.426   3.069  11.594
    9TMC1     O  138   1.531   3.093  11.644
    9TMC1     H  139   1.203   3.050  11.448
    9TMC1    H1  140   1.609   3.219  11.459
    9TMC1    H2  141   1.353   3.251  11.120
    9TMC1    C7  142   1.609   3.258  11.195
    9TMC1    C8  143   1.146   3.118  11.203
    9TMC1    O1  144   1.716   3.285  11.241
    9TMC1    O2  145   1.090   3.007  11.207
    9TMC1    O3  146   1.595   3.153  11.111
    9TMC1    H3  147   1.502   3.129  11.087
    9TMC1    O5  148   1.108   3.221  11.124
    9TMC1    H5  149   1.157   3.302  11.150
   10MPD2     C  150   1.445   2.923  11.852
   10MPD2    C1  151   1.334   2.924  11.768
   10MPD2    C2  152   1.225   2.845  11.800
   10MPD2    C3  153   1.219   2.764  11.906
   10MPD2    C4  154   1.334   2.755  11.980
   10MPD2    C5  155   1.442   2.825  11.946
   10MPD2     H  156   1.139   2.838  11.735
   10MPD2    H1  157   1.339   2.685  12.062
   10MPD2    H2  158   1.538   2.978  11.846
   10MPD2    H3  159   1.526   2.803  12.012
   10MPD2     N  160   1.112   2.676  11.939
   10MPD2    H5  161   1.134   2.599  12.002
   10MPD2    N1  162   1.331   2.989  11.639
   10MPD2    H7  163   1.242   2.993  11.590
   11TCq1    O1  164   2.658   2.265  14.567
   11TCq1    C1  165   2.535   2.219  14.552
   11TCq1    O2  166   2.498   2.135  14.468
   11TCq1    C2  167   2.442   2.270  14.652
   11TCq1    C3  168   2.502   2.314  14.774
   11TCq1    C4  169   2.409   2.343  14.878
   11TCq1    C5  170   2.275   2.337  14.864
   11TCq1    C6  171   2.223   2.286  14.747
   11TCq1    C7  172   2.305   2.250  14.642
   11TCq1    C8  173   2.087   2.236  14.748
   11TCq1    O4  174   2.012   2.280  14.837
   11TCq1    C9  175   2.464   2.377  15.007
   11TCq1    O5  176   2.569   2.446  15.016
   11TCq1    O6  177   2.430   2.270  15.081
   11TCq1    H1  178   2.649   2.349  14.616
   11TCq1    H2  179   2.605   2.291  14.796
   11TCq1    H3  180   2.215   2.352  14.953
   11TCq1    H4  181   2.279   2.208  14.545
   12MPD2     C  182   1.827   2.155  14.648
   12MPD2    C1  183   1.942   2.100  14.599
   12MPD2    C2  184   1.932   2.003  14.500
   12MPD2    C3  185   1.808   1.969  14.450
   12MPD2    C4  186   1.695   2.027  14.500
   12MPD2    C5  187   1.708   2.114  14.598
   12MPD2     H  188   2.025   1.964  14.459
   12MPD2    H1  189   1.599   1.999  14.460
   12MPD2    H2  190   1.827   2.228  14.728
   12MPD2    H3  191   1.613   2.160  14.622
   12MPD2     N  192   1.786   1.869  14.350
   12MPD2    H5  193   1.694   1.860  14.307
   12MPD2    N1  194   2.070   2.138  14.643
   12MPD2    H7  195   2.149   2.095  14.595
   13TCq1    O1  196   1.801   3.051  11.691
   13TCq1    C1  197   1.899   3.035  11.598
   13TCq1    O2  198   2.019   3.030  11.619
   13TCq1    C2  199   1.853   3.027  11.459
   13TCq1    C3  200   1.943   3.059  11.364
   13TCq1    C4  201   1.909   3.029  11.237
   13TCq1    C5  202   1.794   2.966  11.201
   13TCq1    C6  203   1.705   2.935  11.300
   13TCq1    C7  204   1.733   2.966  11.430
   13TCq1    C8  205   1.581   2.867  11.276
   13TCq1    O4  206   1.512   2.839  11.378
   13TCq1    C9  207   1.986   3.102  11.135
   13TCq1    O5  208   2.109   3.127  11.146
   13TCq1    O6  209   1.888   3.166  11.062
   13TCq1    H1  210   1.710   3.060  11.655
   13TCq1    H2  211   2.043   3.087  11.395
   13TCq1    H3  212   1.776   2.928  11.101
   13TCq1    H4  213   1.684   2.919  11.515
   14MPD2     C  214   1.460   2.714  10.972
   14MPD2    C1  215   1.448   2.758  11.099
   14MPD2    C2  216   1.332   2.745  11.168
   14MPD2    C3  217   1.224   2.678  11.104
   14MPD2    C4  218   1.237   2.625  10.974
   14MPD2    C5  219   1.360   2.636  10.916
   14MPD2     H  220   1.328   2.785  11.268
   14MPD2    H1  221   1.152   2.573  10.930
   14MPD2    H2  222   1.544   2.733  10.907
   14MPD2    H3  223   1.375   2.612  10.811
   14MPD2     N  224   1.111   2.672  11.185
   14MPD2    H5  225   1.117   2.710  11.279
   14MPD2    N1  226   1.556   2.833  11.147
   14MPD2    H7  227   1.616   2.863  11.071
   15TCq1    O1  228   3.123   0.357  19.552
   15TCq1    C1  229   3.064   0.474  19.574
   15TCq1    O2  230   3.064   0.518  19.691
   15TCq1    C2  231   3.004   0.541  19.459
   15TCq1    C3  232   2.934   0.656  19.485
   15TCq1    C4  233   2.918   0.757  19.389
   15TCq1    C5  234   2.954   0.730  19.259
   15TCq1    C6  235   3.011   0.605  19.234
   15TCq1    C7  236   3.040   0.511  19.330
   15TCq1    C8  237   3.095   0.599  19.118
   15TCq1    O4  238   3.126   0.711  19.073
   15TCq1    C9  239   2.841   0.882  19.415
   15TCq1    O5  240   2.824   0.961  19.325
   15TCq1    O6  241   2.848   0.923  19.547
   15TCq1    H1  242   3.114   0.311  19.466
   15TCq1    H2  243   2.915   0.659  19.592
   15TCq1    H3  244   2.937   0.803  19.181
   15TCq1    H4  245   3.096   0.421  19.308
   16MPD2     C  246   3.154   0.344  18.864
   16MPD2    C1  247   3.190   0.451  18.942
   16MPD2    C2  248   3.310   0.524  18.915
   16MPD2    C3  249   3.374   0.489  18.800
   16MPD2    C4  250   3.343   0.376  18.731
   16MPD2    C5  251   3.238   0.294  18.768
   16MPD2     H  252   3.335   0.616  18.966
   16MPD2    H1  253   3.411   0.344  18.652
   16MPD2    H2  254   3.066   0.287  18.893
   16MPD2    H3  255   3.198   0.206  18.719
   16MPD2     N  256   3.477   0.577  18.760
   16MPD2    H5  257   3.511   0.648  18.825
   16MPD2    N1  258   3.108   0.476  19.053
   16MPD2    H7  259   3.049   0.401  19.086
   17TMC1    C1  260   1.282   1.994  11.351
   17TMC1    C2  261   1.350   1.914  11.440
   17TMC1    C3  262   1.328   1.774  11.418
   17TMC1    C4  263   1.229   1.941  11.235
   17TMC1    C5  264   1.238   1.811  11.208
   17TMC1    C6  265   1.285   1.721  11.299
   17TMC1     C  266   1.328   2.134  11.324
   17TMC1     O  267   1.237   2.219  11.317
   17TMC1     H  268   1.392   1.959  11.529
   17TMC1    H1  269   1.181   2.010  11.167
   17TMC1    H2  270   1.273   1.616  11.275
   17TMC1    C7  271   1.155   1.772  11.092
   17TMC1    C8  272   1.397   1.683  11.511
   17TMC1    O1  273   1.082   1.674  11.091
   17TMC1    O2  274   1.363   1.666  11.625
   17TMC1    O3  275   1.229   1.823  10.988
   17TMC1    H3  276   1.313   1.867  11.014
   17TMC1    O5  277   1.448   1.592  11.427
   17TMC1    H5  278   1.474   1.609  11.334
   18MPD2     C  279   1.474   2.391  11.313
   18MPD2    C1  280   1.530   2.273  11.339
   18MPD2    C2  281   1.665   2.263  11.373
   18MPD2    C3  282   1.746   2.372  11.375
   18MPD2    C4  283   1.686   2.495  11.355
   18MPD2    C5  284   1.557   2.501  11.320
   18MPD2     H  285   1.707   2.163  11.380
   18MPD2    H1  286   1.733   2.592  11.359
   18MPD2    H2  287   1.374   2.402  11.273
   18MPD2    H3  288   1.514   2.599  11.302
   18MPD2     N  289   1.886   2.365  11.391
   18MPD2    H5  290   1.938   2.451  11.378
   18MPD2    N1  291   1.454   2.158  11.346
   18MPD2    H7  292   1.508   2.074  11.364
   19TMC2    C1  293   3.092   2.100  14.222
   19TMC2    C2  294   3.021   2.216  14.197
   19TMC2    C3  295   2.886   2.223  14.220
   19TMC2    C4  296   3.025   1.989  14.258
   19TMC2    C5  297   2.884   1.996  14.280
   19TMC2    C6  298   2.816   2.116  14.263
   19TMC2     C  299   3.240   2.110  14.201
   19TMC2     O  300   3.282   2.198  14.132
   19TMC2     H  301   3.079   2.306  14.181
   19TMC2    H1  302   3.082   1.897  14.265
   19TMC2    H2  303   2.712   2.135  14.287
   19TMC2    C7  304   2.806   1.892  14.343
   19TMC2    C8  305   2.813   2.344  14.235
   19TMC2    O1  306   2.879   1.805  14.383
   19TMC2    O2  307   2.697   2.351  14.192
   19TMC2    O5  308   2.899   2.442  14.284
   19TMC2    H5  309   2.968   2.418  14.350
   20MPD2     C  310   3.537   2.085  14.220
   20MPD2    C1  311   3.450   1.999  14.283
   20MPD2    C2  312   3.501   1.905  14.367
   20MPD2    C3  313   3.640   1.901  14.387
   20MPD2    C4  314   3.721   1.991  14.331
   20MPD2    C5  315   3.672   2.084  14.241
   20MPD2     H  316   3.429   1.843  14.418
   20MPD2    H1  317   3.828   1.980  14.343
   20MPD2    H2  318   3.514   2.168  14.155
   20MPD2    H3  319   3.740   2.148  14.187
   20MPD2     N  320   3.698   1.805  14.472
   20MPD2    H5  321   3.796   1.813  14.497
   20MPD2    N1  322   3.314   2.015  14.278
   20MPD2    H7  323   3.257   1.945  14.325
   21TMC2    C1  324   0.377   2.286  14.373
   21TMC2    C2  325   0.483   2.200  14.354
   21TMC2    C3  326   0.537   2.140  14.462
   21TMC2    C4  327   0.303   2.286  14.485
   21TMC2    C5  328   0.346   2.218  14.593
   21TMC2    C6  329   0.465   2.144  14.585
   21TMC2     C  330   0.359   2.377  14.269
   21TMC2     O  331   0.368   2.332  14.156
   21TMC2     H  332   0.550   2.204  14.269
   21TMC2    H1  333   0.224   2.359  14.495
   21TMC2    H2  334   0.508   2.102  14.675
   21TMC2    C7  335   0.329   2.281  14.725
   21TMC2    C8  336   0.619   2.022  14.446
   21TMC2    O1  337   0.408   2.245  14.813
   21TMC2    O2  338   0.672   1.960  14.539
   21TMC2    O5  339   0.571   1.957  14.337
   21TMC2    H5  340   0.493   1.986  14.285
   22MPD2     C  341   0.419   2.729  14.621
   22MPD2    C1  342   0.499   2.626  14.590
   22MPD2    C2  343   0.463   2.559  14.477
   22MPD2    C3  344   0.349   2.582  14.406
   22MPD2    C4  345   0.264   2.684  14.442
   22MPD2    C5  346   0.301   2.755  14.561
   22MPD2     H  347   0.518   2.475  14.437
   22MPD2    H1  348   0.176   2.714  14.387
   22MPD2    H2  349   0.439   2.792  14.708
   22MPD2    H3  350   0.246   2.837  14.604
   22MPD2     N  351   0.305   2.494  14.300
   22MPD2    H5  352   0.243   2.544  14.237
   22MPD2    N1  353   0.608   2.576  14.668
   22MPD2    H7  354   0.649   2.491  14.630
   23TMC2    C1  355   1.540   3.643  14.453
   23TMC2    C2  356   1.568   3.781  14.454
   23TMC2    C3  357   1.462   3.865  14.442
   23TMC2    C4  358   1.415   3.598  14.445
   23TMC2    C5  359   1.317   3.685  14.414
   23TMC2    C6  360   1.334   3.818  14.427
   23TMC2     C  361   1.621   3.555  14.532
   23TMC2     O  362   1.564   3.463  14.586
   23TMC2     H  363   1.662   3.832  14.473
   23TMC2    H1  364   1.399   3.492  14.430
   23TMC2    H2  365   1.250   3.881  14.400
   23TMC2    C7  366   1.181   3.628  14.420
   23TMC2    C8  367   1.486   4.006  14.443
   23TMC2    O1  368   1.182   3.517  14.468
   23TMC2    O2  369   1.592   4.064  14.411
   23TMC2    O5  370   1.443   4.021  14.577
   23TMC2    H5  371   1.369   3.962  14.600
   24MPD2     C  372   2.087   3.403  14.675
   24MPD2    C1  373   1.970   3.401  14.753
   24MPD2    C2  374   1.856   3.464  14.699
   24MPD2    C3  375   1.868   3.518  14.573
   24MPD2    C4  376   1.982   3.512  14.501
   24MPD2    C5  377   2.096   3.454  14.548
   24MPD2     H  378   1.761   3.464  14.750
   24MPD2    H1  379   1.985   3.558  14.402
   24MPD2    H2  380   2.173   3.351  14.716
   24MPD2    H3  381   2.182   3.446  14.482
   24MPD2     N  382   1.754   3.580  14.506
   24MPD2    H5  383   1.780   3.637  14.427
   24MPD2    N1  384   1.955   3.336  14.874
   24MPD2    H7  385   1.880   3.370  14.934
   25TMC2    C1  386   0.975   0.945  12.202
   25TMC2    C2  387   1.044   0.981  12.311
   25TMC2    C3  388   1.017   1.104  12.370
   25TMC2    C4  389   0.878   1.022  12.146
   25TMC2    C5  390   0.851   1.132  12.218
   25TMC2    C6  391   0.917   1.177  12.325
   25TMC2     C  392   1.023   0.834  12.122
   25TMC2     O  393   1.135   0.794  12.150
   25TMC2     H  394   1.130   0.917  12.329
   25TMC2    H1  395   0.826   1.004  12.053
   25TMC2    H2  396   0.882   1.273  12.363
   25TMC2    C7  397   0.799   1.240  12.134
   25TMC2    C8  398   1.068   1.136  12.496
   25TMC2    O1  399   0.861   1.346  12.148
   25TMC2    O2  400   1.099   1.248  12.529
   25TMC2    O5  401   1.108   1.021  12.550
   25TMC2    H5  402   1.054   0.950  12.509
   26MPD2     C  403   1.013   0.457  11.804
   26MPD2    C1  404   0.884   0.463  11.848
   26MPD2    C2  405   0.852   0.567  11.939
   26MPD2    C3  406   0.949   0.668  11.972
   26MPD2    C4  407   1.070   0.656  11.922
   26MPD2    C5  408   1.104   0.555  11.842
   26MPD2     H  409   0.750   0.579  11.973
   26MPD2    H1  410   1.146   0.732  11.938
   26MPD2    H2  411   1.043   0.379  11.734
   26MPD2    H3  412   1.207   0.551  11.808
   26MPD2     N  413   0.919   0.775  12.058
   26MPD2    H5  414   0.824   0.803  12.082
   26MPD2    N1  415   0.791   0.367  11.803
   26MPD2    H7  416   0.819   0.301  11.731
   27TMC2    C1  417   4.549   3.180  12.480
   27TMC2    C2  418   4.475   3.287  12.444
   27TMC2    C3  419   4.533   3.374  12.352
   27TMC2    C4  420   4.677   3.163  12.426
   27TMC2    C5  421   4.735   3.255  12.340
   27TMC2    C6  422   4.656   3.359  12.304
   27TMC2     C  423   4.513   3.101  12.594
   27TMC2     O  424   4.572   2.998  12.625
   27TMC2     H  425   4.371   3.312  12.463
   27TMC2    H1  426   4.742   3.096  12.481
   27TMC2    H2  427   4.692   3.431  12.232
   27TMC2    C7  428   0.063   3.291  12.378
   27TMC2    C8  429   4.461   3.491  12.311
   27TMC2    O1  430   0.135   3.209  12.430
   27TMC2    O2  431   4.490   3.569  12.216
   27TMC2    O5  432   4.414   3.540  12.431
   27TMC2    H5  433   4.443   3.488  12.509
   28MPD2     C  434   4.123   2.933  12.878
   28MPD2    C1  435   4.108   3.071  12.866
   28MPD2    C2  436   4.200   3.147  12.789
   28MPD2    C3  437   4.311   3.084  12.735
   28MPD2    C4  438   4.332   2.954  12.769
   28MPD2    C5  439   4.238   2.881  12.834
   28MPD2     H  440   4.171   3.250  12.772
   28MPD2    H1  441   4.424   2.904  12.741
   28MPD2    H2  442   4.051   2.872  12.931
   28MPD2    H3  443   4.263   2.780  12.863
   28MPD2     N  444   4.394   3.153  12.646
   28MPD2    H5  445   4.370   3.249  12.622
   28MPD2    N1  446   3.982   3.115  12.909
   28MPD2    H7  447   3.925   3.049  12.962
   29TMC2    C1  448   3.765   0.799  14.625
   29TMC2    C2  449   3.757   0.798  14.763
   29TMC2    C3  450   3.805   0.909  14.824
   29TMC2    C4  451   3.810   0.907  14.553
   29TMC2    C5  452   3.861   1.013  14.628
   29TMC2    C6  453   3.857   1.015  14.761
   29TMC2     C  454   3.756   0.679  14.552
   29TMC2     O  455   3.790   0.579  14.618
   29TMC2     H  456   3.709   0.722  14.824
   29TMC2    H1  457   3.819   0.906  14.445
   29TMC2    H2  458   3.894   1.101  14.816
   29TMC2    C7  459   3.928   1.117  14.556
   29TMC2    C8  460   3.817   0.910  14.963
   29TMC2    O1  461   3.896   1.135  14.439
   29TMC2    O2  462   3.823   0.804  15.024
   29TMC2    O5  463   3.789   1.032  15.022
   29TMC2    H5  464   3.769   1.100  14.954
   30MPD2     C  465   3.603   0.417  14.132
   30MPD2    C1  466   3.703   0.388  14.221
   30MPD2    C2  467   3.727   0.475  14.326
   30MPD2    C3  468   3.662   0.594  14.343
   30MPD2    C4  469   3.564   0.624  14.254
   30MPD2    C5  470   3.528   0.530  14.159
   30MPD2     H  471   3.816   0.451  14.385
   30MPD2    H1  472   3.505   0.715  14.251
   30MPD2    H2  473   3.563   0.349  14.057
   30MPD2    H3  474   3.449   0.566  14.093
   30MPD2     N  475   3.692   0.693  14.434
   30MPD2    H5  476   3.657   0.787  14.413
   30MPD2    N1  477   3.779   0.268  14.216
   30MPD2    H7  478   3.855   0.273  14.284
   31TMC2    C1  479   1.445   4.229  15.685
   31TMC2    C2  480   1.315   4.250  15.709
   31TMC2    C3  481   1.276   4.289  15.832
   31TMC2    C4  482   1.534   4.244  15.785
   31TMC2    C5  483   1.489   4.282  15.910
   31TMC2    C6  484   1.361   4.292  15.942
   31TMC2     C  485   1.484   4.228  15.547
   31TMC2     O  486   1.401   4.263  15.460
   31TMC2     H  487   1.241   4.239  15.631
   31TMC2    H1  488   1.640   4.246  15.765
   31TMC2    H2  489   1.335   4.326  16.042
   31TMC2    C7  490   1.586   4.278  16.015
   31TMC2    C8  491   1.138   4.285  15.864
   31TMC2    O1  492   1.687   4.212  15.998
   31TMC2    O2  493   1.100   4.220  15.961
   31TMC2    O5  494   1.068   4.387  15.802
   31TMC2    H5  495   1.114   4.429  15.726
   32MPD2     C  496   1.894   4.325  15.252
   32MPD2    C1  497   1.768   4.360  15.232
   32MPD2    C2  498   1.658   4.304  15.307
   32MPD2    C3  499   1.694   4.215  15.413
   32MPD2    C4  500   1.825   4.176  15.425
   32MPD2    C5  501   1.918   4.226  15.342
   32MPD2     H  502   1.556   4.332  15.285
   32MPD2    H1  503   1.860   4.106  15.499
   32MPD2    H2  504   1.980   4.367  15.201
   32MPD2    H3  505   2.023   4.200  15.354
   32MPD2     N  506   1.610   4.179  15.528
   32MPD2    H5  507   1.649   4.119  15.600
   32MPD2    N1  508   1.760   4.447  15.120
   32MPD2    H7  509   1.837   4.481  15.064
   33TMC2    C1  510   1.909   2.333  10.459
   33TMC2    C2  511   1.790   2.265  10.463
   33TMC2    C3  512   1.672   2.319  10.411
   33TMC2    C4  513   1.912   2.461  10.409
   33TMC2    C5  514   1.800   2.521  10.373
   33TMC2    C6  515   1.674   2.452  10.361
   33TMC2     C  516   1.995   2.319  10.580
   33TMC2     O  517   1.950   2.289  10.690
   33TMC2     H  518   1.786   2.162  10.498
   33TMC2    H1  519   2.002   2.520  10.392
   33TMC2    H2  520   1.582   2.500  10.332
   33TMC2    C7  521   1.802   2.663  10.330
   33TMC2    C8  522   1.579   2.220  10.363
   33TMC2    O1  523   1.891   2.728  10.376
   33TMC2    O2  524   1.502   2.247  10.274
   33TMC2    O5  525   1.560   2.119  10.457
   33TMC2    H5  526   1.606   2.152  10.537
   34MPD2     C  527   2.461   2.379  10.807
   34MPD2    C1  528   2.335   2.371  10.856
   34MPD2    C2  529   2.223   2.376  10.772
   34MPD2    C3  530   2.234   2.377  10.637
   34MPD2    C4  531   2.364   2.389  10.580
   34MPD2    C5  532   2.473   2.394  10.672
   34MPD2     H  533   2.123   2.379  10.813
   34MPD2    H1  534   2.379   2.382  10.473
   34MPD2    H2  535   2.549   2.372  10.869
   34MPD2    H3  536   2.573   2.397  10.630
   34MPD2     N  537   2.125   2.361  10.549
   34MPD2    H5  538   2.153   2.356  10.452
   34MPD2    N1  539   2.321   2.343  10.995
   34MPD2    H7  540   2.404   2.332  11.052
   35TMC2    C1  541   2.897   3.752  11.941
   35TMC2    C2  542   2.795   3.843  11.909
   35TMC2    C3  543   2.661   3.801  11.931
   35TMC2    C4  544   2.872   3.639  12.013
   35TMC2    C5  545   2.744   3.614  12.051
   35TMC2    C6  546   2.637   3.690  12.010
   35TMC2     C  547   3.029   3.783  11.889
   35TMC2     O  548   3.033   3.871  11.808
   35TMC2     H  549   2.814   3.938  11.860
   35TMC2    H1  550   2.947   3.569  12.047
   35TMC2    H2  551   2.537   3.670  12.047
   35TMC2    C7  552   2.722   3.473  12.065
   35TMC2    C8  553   2.562   3.886  11.868
   35TMC2    O1  554   2.614   3.428  12.031
   35TMC2    O2  555   2.598   3.982  11.805
   35TMC2    O5  556   2.462   3.802  11.840
   35TMC2    H5  557   2.434   3.720  11.887
   36MPD2     C  558   3.541   3.804  11.924
   36MPD2    C1  559   3.493   3.709  12.018
   36MPD2    C2  560   3.357   3.683  12.027
   36MPD2    C3  561   3.271   3.758  11.953
   36MPD2    C4  562   3.321   3.857  11.865
   36MPD2    C5  563   3.461   3.869  11.841
   36MPD2     H  564   3.319   3.596  12.078
   36MPD2    H1  565   3.253   3.920  11.809
   36MPD2    H2  566   3.648   3.821  11.916
   36MPD2    H3  567   3.496   3.930  11.759
   36MPD2     N  568   3.132   3.722  11.954
   36MPD2    H5  569   3.106   3.644  12.013
   36MPD2    N1  570   3.590   3.627  12.093
   36MPD2    H7  571   3.686   3.623  12.061
   37TMC2    C1  572   0.879   3.188  12.422
   37TMC2    C2  573   0.777   3.106  12.380
   37TMC2    C3  574   0.769   3.089  12.248
   37TMC2    C4  575   0.955   3.272  12.336
   37TMC2    C5  576   0.923   3.265  12.200
   37TMC2    C6  577   0.837   3.167  12.152
   37TMC2     C  578   0.865   3.227  12.554
   37TMC2     O  579   0.755   3.222  12.599
   37TMC2     H  580   0.717   3.041  12.442
   37TMC2    H1  581   1.015   3.346  12.388
   37TMC2    H2  582   0.789   3.179  12.056
   37TMC2    C7  583   0.985   3.353  12.103
   37TMC2    C8  584   0.701   2.971  12.205
   37TMC2    O1  585   1.036   3.459  12.149
   37TMC2    O2  586   0.616   2.914  12.270
   37TMC2    O5  587   0.741   2.931  12.088
   37TMC2    H5  588   0.817   2.986  12.060
   38MPD2     C  589   0.986   3.391  13.022
   38MPD2    C1  590   1.108   3.387  12.949
   38MPD2    C2  591   1.098   3.346  12.815
   38MPD2    C3  592   0.980   3.301  12.764
   38MPD2    C4  593   0.873   3.306  12.838
   38MPD2    C5  594   0.871   3.351  12.967
   38MPD2     H  595   1.182   3.338  12.747
   38MPD2    H1  596   0.776   3.261  12.817
   38MPD2    H2  597   0.995   3.401  13.129
   38MPD2    H3  598   0.776   3.368  13.016
   38MPD2     N  599   0.977   3.252  12.626
   38MPD2    H5  600   1.061   3.251  12.570
   38MPD2    N1  601   1.231   3.399  13.015
   38MPD2    H7  602   1.316   3.361  12.974
   39TMC2    C1  603   3.594   0.623  19.246
   39TMC2    C2  604   3.523   0.742  19.230
   39TMC2    C3  605   3.591   0.861  19.213
   39TMC2    C4  606   3.732   0.617  19.246
   39TMC2    C5  607   3.799   0.734  19.210
   39TMC2    C6  608   3.729   0.854  19.199
   39TMC2     C  609   3.509   0.500  19.265
   39TMC2     O  610   3.391   0.512  19.300
   39TMC2     H  611   3.415   0.745  19.231
   39TMC2    H1  612   3.787   0.526  19.269
   39TMC2    H2  613   3.773   0.942  19.154
   39TMC2    C7  614   3.923   0.746  19.299
   39TMC2    C8  615   3.517   0.986  19.200
   39TMC2    O1  616   3.925   0.669  19.396
   39TMC2    O2  617   3.410   0.998  19.138
   39TMC2    O5  618   3.603   1.085  19.242
   39TMC2    H5  619   3.680   1.038  19.279
   40MPD2     C  620   3.567   0.226  19.026
   40MPD2    C1  621   3.500   0.290  19.128
   40MPD2    C2  622   3.384   0.225  19.185
   40MPD2    C3  623   3.332   0.108  19.132
   40MPD2    C4  624   3.411   0.049  19.027
   40MPD2    C5  625   3.517   0.116  18.967
   40MPD2     H  626   3.327   0.282  19.257
   40MPD2    H1  627   3.369   4.769  18.974
   40MPD2    H2  628   3.652   0.266  18.971
   40MPD2    H3  629   3.578   0.072  18.889
   40MPD2     N  630   3.211   0.041  19.175
   40MPD2    H5  631   3.195   4.751  19.143
   40MPD2    N1  632   3.559   0.413  19.176
   40MPD2    H7  633   3.651   0.436  19.140
   41TMC2    C1  634   2.595   3.676  13.957
   41TMC2    C2  635   2.505   3.751  14.025
   41TMC2    C3  636   2.463   3.872  13.974
   41TMC2    C4  637   2.654   3.711  13.838
   41TMC2    C5  638   2.607   3.827  13.792
   41TMC2    C6  639   2.517   3.909  13.853
   41TMC2     C  640   2.641   3.553  14.020
   41TMC2     O  641   2.710   3.483  13.951
   41TMC2     H  642   2.456   3.721  14.117
   41TMC2    H1  643   2.733   3.651  13.795
   41TMC2    H2  644   2.487   4.004  13.810
   41TMC2    C7  645   2.682   3.897  13.695
   41TMC2    C8  646   2.323   3.899  14.002
   41TMC2    O1  647   2.730   4.006  13.727
   41TMC2    O2  648   2.233   3.817  14.015
   41TMC2    O5  649   2.309   4.037  14.019
   41TMC2    H5  650   2.396   4.082  14.006
   42MPD2     C  651   2.690   3.319  14.188
   42MPD2    C1  652   2.624   3.436  14.234
   42MPD2    C2  653   2.586   3.433  14.368
   42MPD2    C3  654   2.601   3.319  14.450
   42MPD2    C4  655   2.672   3.206  14.399
   42MPD2    C5  656   2.718   3.212  14.273
   42MPD2     H  657   2.538   3.519  14.413
   42MPD2    H1  658   2.680   3.111  14.451
   42MPD2    H2  659   2.744   3.317  14.094
   42MPD2    H3  660   2.780   3.135  14.229
   42MPD2     N  661   2.560   3.307  14.588
   42MPD2    H5  662   2.585   3.219  14.631
   42MPD2    N1  663   2.601   3.549  14.151
   42MPD2    H7  664   2.555   3.630  14.192
   43TMC2    C1  665   3.876   1.877  19.230
   43TMC2    C2  666   3.744   1.918  19.221
   43TMC2    C3  667   3.705   2.027  19.304
   43TMC2    C4  668   3.953   1.945  19.321
   43TMC2    C5  669   3.908   2.046  19.401
   43TMC2    C6  670   3.780   2.086  19.398
   43TMC2     C  671   3.946   1.797  19.125
   43TMC2     O  672   4.071   1.790  19.123
   43TMC2     H  673   3.675   1.870  19.153
   43TMC2    H1  674   4.058   1.916  19.322
   43TMC2    H2  675   3.745   2.174  19.450
   43TMC2    C7  676   4.004   2.124  19.482
   43TMC2    C8  677   3.577   2.080  19.265
   43TMC2    O1  678   4.122   2.129  19.446
   43TMC2    O2  679   3.542   2.062  19.153
   43TMC2    O5  680   3.505   2.115  19.368
   43TMC2    H5  681   3.557   2.132  19.449
   44MPD2     C  682   3.997   1.569  18.681
   44MPD2    C1  683   4.072   1.672  18.729
   44MPD2    C2  684   4.027   1.735  18.845
   44MPD2    C3  685   3.906   1.704  18.906
   44MPD2    C4  686   3.828   1.606  18.851
   44MPD2    C5  687   3.873   1.537  18.739
   44MPD2     H  688   4.089   1.813  18.889
   44MPD2    H1  689   3.727   1.586  18.885
   44MPD2    H2  690   4.017   1.507  18.595
   44MPD2    H3  691   3.827   1.457  18.683
   44MPD2     N  692   3.860   1.751  19.028
   44MPD2    H5  693   3.761   1.737  19.050
   44MPD2    N1  694   4.194   1.717  18.669
   44MPD2    H7  695   4.242   1.798  18.707
   45TMC2    C1  696   0.247   3.669   9.852
   45TMC2    C2  697   0.351   3.668   9.763
   45TMC2    C3  698   0.454   3.763   9.771
   45TMC2    C4  699   0.243   3.759   9.958
   45TMC2    C5  700   0.353   3.841   9.968
   45TMC2    C6  701   0.458   3.846   9.874
   45TMC2     C  702   0.133   3.580   9.822
   45TMC2     O  703   0.162   3.493   9.746
   45TMC2     H  704   0.353   3.599   9.679
   45TMC2    H1  705   0.156   3.760  10.023
   45TMC2    H2  706   0.534   3.922   9.892
   45TMC2    C7  707   0.339   3.968  10.036
   45TMC2    C8  708   0.553   3.767   9.667
   45TMC2    O1  709   0.266   3.967  10.136
   45TMC2    O2  710   0.630   3.860   9.650
   45TMC2    O5  711   0.571   3.638   9.622
   45TMC2    H5  712   0.529   3.570   9.679
   46MPD2     C  713   4.684   3.442   9.870
   46MPD2    C1  714   4.695   3.579   9.842
   46MPD2    C2  715   4.583   3.647   9.797
   46MPD2    C3  716   4.464   3.587   9.768
   46MPD2    C4  717   4.454   3.454   9.788
   46MPD2    C5  718   4.555   3.391   9.847
   46MPD2     H  719   4.601   3.754   9.792
   46MPD2    H1  720   4.368   3.393   9.764
   46MPD2    H2  721   4.773   3.390   9.902
   46MPD2    H3  722   4.547   3.284   9.862
   46MPD2     N  723   4.352   3.677   9.736
   46MPD2    H5  724   4.379   3.775   9.737
   46MPD2    N1  725   0.013   3.644   9.854
   46MPD2    H7  726   0.017   3.744   9.874
   47TMC2    C1  727   1.658   0.075   9.218
   47TMC2    C2  728   1.716   0.010   9.116
   47TMC2    C3  729   1.647   4.727   9.045
   47TMC2    C4  730   1.525   0.068   9.238
   47TMC2    C5  731   1.453   4.781   9.171
   47TMC2    C6  732   1.514   4.703   9.074
   47TMC2     C  733   1.738   0.119   9.330
   47TMC2     O  734   1.691   0.198   9.415
   47TMC2     H  735   1.818   0.027   9.082
   47TMC2    H1  736   1.480   0.120   9.322
   47TMC2    H2  737   1.467   4.617   9.028
   47TMC2    C7  738   1.312   4.781   9.184
   47TMC2    C8  739   1.721   4.632   8.968
   47TMC2    O1  740   1.255   4.680   9.142
   47TMC2    O2  741   1.843   4.618   8.981
   47TMC2    O5  742   1.660   4.634   8.849
   47TMC2    H5  743   1.567   4.664   8.857
   48MPD2     C  744   1.984   0.168   9.495
   48MPD2    C1  745   1.953   0.051   9.436
   48MPD2    C2  746   2.037   4.748   9.469
   48MPD2    C3  747   2.145   4.751   9.552
   48MPD2    C4  748   2.171   0.067   9.613
   48MPD2    C5  749   2.088   0.174   9.585
   48MPD2     H  750   2.002   4.651   9.436
   48MPD2    H1  751   2.254   0.081   9.681
   48MPD2    H2  752   1.925   0.258   9.481
   48MPD2    H3  753   2.105   0.275   9.623
   48MPD2     N  754   2.226   4.636   9.570
   48MPD2    H5  755   2.221   4.565   9.498
   48MPD2    N1  756   1.846   0.034   9.349
   48MPD2    H7  757   1.854   4.761   9.285
   49TMC2    C1  758   0.904   2.017  10.680
   49TMC2    C2  759   0.982   2.081  10.582
   49TMC2    C3  760   0.950   2.061  10.451
   49TMC2    C4  761   0.795   1.936  10.653
   49TMC2    C5  762   0.764   1.928  10.520
   49TMC2    C6  763   0.839   1.986  10.414
   49TMC2     C  764   0.933   2.051  10.817
   49TMC2     O  765   0.993   2.156  10.836
   49TMC2     H  766   1.063   2.148  10.608
   49TMC2    H1  767   0.723   1.911  10.730
   49TMC2    H2  768   0.810   1.970  10.311
   49TMC2    C7  769   0.638   1.856  10.484
   49TMC2    C8  770   1.014   2.138  10.349
   49TMC2    O1  771   0.599   1.874  10.369
   49TMC2    O2  772   0.947   2.197  10.267
   49TMC2    O5  773   1.125   2.192  10.405
   49TMC2    H5  774   1.176   2.115  10.439
   50MPD2     C  775   0.913   2.110  11.121
   50MPD2    C1  776   0.876   1.994  11.051
   50MPD2    C2  777   0.829   1.885  11.133
   50MPD2    C3  778   0.811   1.903  11.268
   50MPD2    C4  779   0.845   2.017  11.331
   50MPD2    C5  780   0.902   2.118  11.260
   50MPD2     H  781   0.807   1.789  11.089
   50MPD2    H1  782   0.827   2.022  11.438
   50MPD2    H2  783   0.948   2.198  11.068
   50MPD2    H3  784   0.933   2.206  11.314
   50MPD2     N  785   0.764   1.806  11.363
   50MPD2    H5  786   0.768   1.832  11.461
   50MPD2    N1  787   0.873   1.965  10.909
   50MPD2    H7  788   0.836   1.876  10.877
   51TMC2    C1  789   0.955   0.606  19.527
   51TMC2    C2  790   1.019   0.700  19.603
   51TMC2    C3  791   0.974   0.830  19.595
   51TMC2    C4  792   0.854   0.644  19.440
   51TMC2    C5  793   0.821   0.774  19.430
   51TMC2    C6  794   0.875   0.874  19.506
   51TMC2     C  795   1.018   0.472  19.522
   51TMC2     O  796   1.101   0.437  19.605
   51TMC2     H  797   1.114   0.674  19.648
   51TMC2    H1  798   0.809   0.572  19.373
   51TMC2    H2  799   0.848   0.977  19.484
   51TMC2    C7  800   0.735   0.828  19.319
   51TMC2    C8  801   1.014   0.925  19.694
   51TMC2    O1  802   0.672   0.932  19.347
   51TMC2    O2  803   0.981   1.043  19.675
   51TMC2    O5  804   1.008   0.866  19.809
   51TMC2    H5  805   1.016   0.768  19.812
   52MPD2     C  806   1.113   0.037  19.284
   52MPD2    C1  807   1.150   0.075  19.410
   52MPD2    C2  808   1.110   0.198  19.451
   52MPD2    C3  809   1.029   0.280  19.368
   52MPD2    C4  810   0.993   0.240  19.239
   52MPD2    C5  811   1.042   0.121  19.195
   52MPD2     H  812   1.147   0.230  19.547
   52MPD2    H1  813   0.949   0.307  19.167
   52MPD2    H2  814   1.136   4.745  19.242
   52MPD2    H3  815   1.022   0.095  19.092
   52MPD2     N  816   0.987   0.412  19.410
   52MPD2    H5  817   0.940   0.466  19.338
   52MPD2    N1  818   1.228   4.804  19.499
   52MPD2    H7  819   1.220   0.040  19.592
   53TMC2    C1  820   1.267   3.892  11.685
   53TMC2    C2  821   1.245   3.995  11.598
   53TMC2    C3  822   1.291   4.113  11.640
   53TMC2    C4  823   1.345   3.906  11.802
   53TMC2    C5  824   1.394   4.026  11.839
   53TMC2    C6  825   1.366   4.132  11.756
   53TMC2     C  826   1.228   3.758  11.647
   53TMC2     O  827   1.211   3.730  11.529
   53TMC2     H  828   1.175   3.984  11.516
   53TMC2    H1  829   1.355   3.815  11.860
   53TMC2    H2  830   1.397   4.232  11.782
   53TMC2    C7  831   1.353   4.044  11.979
   53TMC2    C8  832   1.288   4.212  11.543
   53TMC2    O1  833   1.236   4.043  12.003
   53TMC2    O2  834   1.329   4.328  11.561
   53TMC2    O5  835   1.307   4.156  11.420
   53TMC2    H5  836   1.304   4.058  11.427
   54MPD2     C  837   1.117   3.492  11.615
   54MPD2    C1  838   1.138   3.554  11.739
   54MPD2    C2  839   1.099   3.496  11.859
   54MPD2    C3  840   1.038   3.372  11.860
   54MPD2    C4  841   1.027   3.304  11.743
   54MPD2    C5  842   1.072   3.362  11.626
   54MPD2     H  843   1.113   3.554  11.949
   54MPD2    H1  844   0.987   3.203  11.739
   54MPD2    H2  845   1.140   3.538  11.519
   54MPD2    H3  846   1.046   3.313  11.533
   54MPD2     N  847   0.981   3.306  11.972
   54MPD2    H5  848   0.958   3.208  11.962
   54MPD2    N1  849   1.201   3.678  11.758
   54MPD2    H7  850   1.193   3.718  11.850
   55TMC2    C1  851   2.348   1.324  18.142
   55TMC2    C2  852   2.330   1.308  18.004
   55TMC2    C3  853   2.307   1.177  17.961
   55TMC2    C4  854   2.333   1.222  18.231
   55TMC2    C5  855   2.301   1.096  18.190
   55TMC2    C6  856   2.289   1.071  18.051
   55TMC2     C  857   2.305   1.449  18.208
   55TMC2     O  858   2.268   1.440  18.322
   55TMC2     H  859   2.356   1.395  17.945
   55TMC2    H1  860   2.364   1.237  18.333
   55TMC2    H2  861   2.269   0.978  18.001
   55TMC2    C7  862   2.190   1.030  18.257
   55TMC2    C8  863   2.294   1.135  17.822
   55TMC2    O1  864   2.109   0.963  18.190
   55TMC2    O2  865   2.364   1.049  17.777
   55TMC2    O5  866   2.270   1.251  17.762
   55TMC2    H5  867   2.206   1.301  17.818
   56MPD2     C  868   2.280   1.804  18.086
   56MPD2    C1  869   2.252   1.688  18.161
   56MPD2    C2  870   2.161   1.704  18.267
   56MPD2    C3  871   2.107   1.824  18.304
   56MPD2    C4  872   2.143   1.937  18.230
   56MPD2    C5  873   2.230   1.925  18.123
   56MPD2     H  874   2.119   1.611  18.305
   56MPD2    H1  875   2.113   2.040  18.243
   56MPD2    H2  876   2.358   1.795  18.011
   56MPD2    H3  877   2.249   2.015  18.065
   56MPD2     N  878   2.013   1.829  18.409
   56MPD2    H5  879   1.985   1.746  18.460
   56MPD2    N1  880   2.312   1.565  18.133
   56MPD2    H7  881   2.376   1.553  18.055
   57TMC2    C1  882   1.463   2.356  13.913
   57TMC2    C2  883   1.507   2.249  13.993
   57TMC2    C3  884   1.640   2.219  13.964
   57TMC2    C4  885   1.533   2.420  13.819
   57TMC2    C5  886   1.659   2.375  13.798
   57TMC2    C6  887   1.715   2.271  13.867
   57TMC2     C  888   1.318   2.388  13.938
   57TMC2     O  889   1.277   2.502  13.924
   57TMC2     H  890   1.449   2.190  14.062
   57TMC2    H1  891   1.489   2.487  13.746
   57TMC2    H2  892   1.810   2.221  13.853
   57TMC2    C7  893   1.737   2.408  13.682
   57TMC2    C8  894   1.710   2.120  14.044
   57TMC2    O1  895   1.730   2.523  13.640
   57TMC2    O2  896   1.770   2.032  13.989
   57TMC2    O5  897   1.649   2.108  14.165
   57TMC2    H5  898   1.615   2.197  14.190
   58MPD2     C  899   0.896   2.279  14.205
   58MPD2    C1  900   0.961   2.405  14.191
   58MPD2    C2  901   1.079   2.410  14.116
   58MPD2    C3  902   1.132   2.287  14.060
   58MPD2    C4  903   1.066   2.169  14.091
   58MPD2    C5  904   0.949   2.164  14.162
   58MPD2     H  905   1.110   2.510  14.088
   58MPD2    H1  906   1.103   2.072  14.059
   58MPD2    H2  907   0.815   2.257  14.274
   58MPD2    H3  908   0.896   2.071  14.182
   58MPD2     N  909   1.256   2.286  13.990
   58MPD2    H5  910   1.291   2.195  13.964
   58MPD2    N1  911   0.890   2.522  14.226
   58MPD2    H7  912   0.943   2.608  14.216
   59TMC2    C1  913   3.720   2.693  12.983
   59TMC2    C2  914   3.704   2.568  13.049
   59TMC2    C3  915   3.626   2.471  12.978
   59TMC2    C4  916   3.657   2.718  12.865
   59TMC2    C5  917   3.575   2.623  12.811
   59TMC2    C6  918   3.557   2.499  12.864
   59TMC2     C  919   3.798   2.802  13.031
   59TMC2     O  920   3.814   2.899  12.965
   59TMC2     H  921   3.739   2.563  13.152
   59TMC2    H1  922   3.678   2.812  12.814
   59TMC2    H2  923   3.483   2.429  12.827
   59TMC2    C7  924   3.503   2.646  12.685
   59TMC2    C8  925   3.603   2.345  13.038
   59TMC2    O1  926   3.478   2.543  12.622
   59TMC2    O2  927   3.514   2.272  13.001
   59TMC2    O5  928   3.716   2.297  13.094
   59TMC2    H5  929   3.784   2.367  13.097
   60MPD2     C  930   3.905   3.002  13.220
   60MPD2    C1  931   3.947   2.869  13.221
   60MPD2    C2  932   4.041   2.822  13.309
   60MPD2    C3  933   4.108   2.913  13.380
   60MPD2    C4  934   4.077   3.052  13.375
   60MPD2    C5  935   3.974   3.100  13.294
   60MPD2     H  936   4.060   2.716  13.322
   60MPD2    H1  937   4.131   3.121  13.437
   60MPD2    H2  938   3.809   3.032  13.180
   60MPD2    H3  939   3.935   3.201  13.298
   60MPD2     N  940   4.216   2.875  13.467
   60MPD2    H5  941   4.260   2.949  13.521
   60MPD2    N1  942   3.873   2.772  13.140
   60MPD2    H7  943   3.893   2.674  13.161
   61TMC2    C1  944   3.001   3.708  15.251
   61TMC2    C2  945   3.051   3.604  15.326
   61TMC2    C3  946   3.109   3.631  15.449
   61TMC2    C4  947   3.017   3.840  15.297
   61TMC2    C5  948   3.077   3.861  15.420
   61TMC2    C6  949   3.129   3.754  15.489
   61TMC2     C  950   2.940   3.682  15.120
   61TMC2     O  951   2.944   3.564  15.081
   61TMC2     H  952   3.047   3.501  15.293
   61TMC2    H1  953   2.972   3.927  15.250
   61TMC2    H2  954   3.202   3.770  15.569
   61TMC2    C7  955   3.086   3.997  15.470
   61TMC2    C8  956   3.215   3.536  15.495
   61TMC2    O1  957   3.043   4.090  15.402
   61TMC2    O2  958   3.229   3.494  15.610
   61TMC2    O5  959   3.315   3.599  15.427
   61TMC2    H5  960   3.295   3.618  15.332
   62MPD2     C  961   2.781   3.700  14.866
   62MPD2    C1  962   2.843   3.801  14.930
   62MPD2    C2  963   2.830   3.930  14.886
   62MPD2    C3  964   2.752   3.969  14.775
   62MPD2    C4  965   2.698   3.855  14.709
   62MPD2    C5  966   2.712   3.725  14.750
   62MPD2     H  967   2.877   4.008  14.944
   62MPD2    H1  968   2.645   3.872  14.616
   62MPD2    H2  969   2.788   3.598  14.903
   62MPD2    H3  970   2.666   3.643  14.696
   62MPD2     N  971   2.737   4.103  14.713
   62MPD2    H5  972   2.685   4.114  14.627
   62MPD2    N1  973   2.900   3.795  15.057
   62MPD2    H7  974   2.906   3.884  15.105
   63TMC2    C1  975   2.172   4.775  10.706
   63TMC2    C2  976   2.287   4.702  10.691
   63TMC2    C3  977   2.338   4.667  10.568
   63TMC2    C4  978   2.105   0.018  10.597
   63TMC2    C5  979   2.165   4.795  10.473
   63TMC2    C6  980   2.277   4.715  10.456
   63TMC2     C  981   2.093   4.735  10.817
   63TMC2     O  982   1.996   4.794  10.857
   63TMC2     H  983   2.348   4.693  10.780
   63TMC2    H1  984   2.013   0.073  10.611
   63TMC2    H2  985   2.289   4.665  10.360
   63TMC2    C7  986   2.079   0.016  10.358
   63TMC2    C8  987   2.466   4.608  10.559
   63TMC2    O1  988   1.959   0.013  10.383
   63TMC2    O2  989   2.521   4.550  10.652
   63TMC2    O5  990   2.538   4.674  10.463
   63TMC2    H5  991   2.481   4.719  10.397
   64MPD2     C  992   1.914   4.338  11.061
   64MPD2    C1  993   2.046   4.303  11.021
   64MPD2    C2  994   2.122   4.401  10.965
   64MPD2    C3  995   2.064   4.529  10.945
   64MPD2    C4  996   1.941   4.561  11.004
   64MPD2    C5  997   1.869   4.470  11.067
   64MPD2     H  998   2.217   4.379  10.916
   64MPD2    H1  999   1.894   4.659  11.000
   64MPD2    H2 1000   1.844   4.262  11.095
   64MPD2    H3 1001   1.766   4.492  11.092
   64MPD2     N 1002   2.135   4.614  10.857
   64MPD2    H5 1003   2.218   4.580  10.809
   64MPD2    N1 1004   2.095   4.169  11.020
   64MPD2    H7 1005   2.190   4.152  10.989
   65TMC2    C1 1006   3.967   3.557  15.750
   65TMC2    C2 1007   4.018   3.543  15.623
   65TMC2    C3 1008   3.968   3.639  15.540
   65TMC2    C4 1009   3.882   3.661  15.790
   65TMC2    C5 1010   3.839   3.754  15.695
   65TMC2    C6 1011   3.883   3.737  15.570
   65TMC2     C 1012   3.965   3.449  15.842
   65TMC2     O 1013   3.945   3.474  15.963
   65TMC2     H 1014   4.074   3.455  15.593
   65TMC2    H1 1015   3.844   3.657  15.891
   65TMC2    H2 1016   3.845   3.811  15.501
   65TMC2    C7 1017   3.809   3.886  15.732
   65TMC2    C8 1018   3.998   3.626  15.395
   65TMC2    O1 1019   3.821   3.972  15.646
   65TMC2    O2 1020   4.050   3.523  15.361
   65TMC2    O5 1021   4.039   3.745  15.343
   65TMC2    H5 1022   4.026   3.828  15.394
   66MPD2     C 1023   3.908   3.203  16.006
   66MPD2    C1 1024   3.933   3.208  15.869
   66MPD2    C2 1025   3.939   3.086  15.811
   66MPD2    C3 1026   3.912   2.967  15.875
   66MPD2    C4 1027   3.892   2.964  16.008
   66MPD2    C5 1028   3.884   3.082  16.070
   66MPD2     H 1029   3.975   3.092  15.708
   66MPD2    H1 1030   3.882   2.871  16.063
   66MPD2    H2 1031   3.886   3.292  16.063
   66MPD2    H3 1032   3.851   3.081  16.174
   66MPD2     N 1033   3.917   2.835  15.818
   66MPD2    H5 1034   3.881   2.757  15.872
   66MPD2    N1 1035   3.950   3.323  15.789
   66MPD2    H7 1036   3.948   3.306  15.689
   67TMC2    C1 1037   4.105   2.807  14.617
   67TMC2    C2 1038   4.036   2.921  14.647
   67TMC2    C3 1039   4.085   2.998  14.755
   67TMC2    C4 1040   4.227   2.784  14.666
   67TMC2    C5 1041   4.271   2.860  14.772
   67TMC2    C6 1042   4.196   2.960  14.821
   67TMC2     C 1043   4.050   2.702  14.540
   67TMC2     O 1044   4.114   2.600  14.537
   67TMC2     H 1045   3.947   2.952  14.593
   67TMC2    H1 1046   4.287   2.702  14.629
   67TMC2    H2 1047   4.243   3.014  14.903
   67TMC2    C7 1048   4.387   2.804  14.849
   67TMC2    C8 1049   4.023   3.125  14.789
   67TMC2    O1 1050   4.467   2.728  14.795
   67TMC2    O2 1051   3.942   3.195  14.731
   67TMC2    O5 1052   4.027   3.126  14.926
   67TMC2    H5 1053   4.047   3.037  14.963
   68MPD2     C 1054   3.862   2.518  14.399
   68MPD2    C1 1055   3.823   2.639  14.461
   68MPD2    C2 1056   3.683   2.681  14.459
   68MPD2    C3 1057   3.585   2.605  14.391
   68MPD2    C4 1058   3.626   2.497  14.319
   68MPD2    C5 1059   3.759   2.448  14.333
   68MPD2     H 1060   3.654   2.778  14.498
   68MPD2    H1 1061   3.555   2.451  14.252
   68MPD2    H2 1062   3.962   2.476  14.399
   68MPD2    H3 1063   3.792   2.351  14.297
   68MPD2     N 1064   3.450   2.650  14.375
   68MPD2    H5 1065   3.395   2.619  14.295
   68MPD2    N1 1066   3.918   2.730  14.507
   68MPD2    H7 1067   3.884   2.818  14.547
   69TMC2    C1 1068   1.312   4.159  12.862
   69TMC2    C2 1069   1.188   4.117  12.830
   69TMC2    C3 1070   1.145   4.124  12.700
   69TMC2    C4 1071   1.405   4.171  12.765
   69TMC2    C5 1072   1.360   4.170  12.634
   69TMC2    C6 1073   1.228   4.150  12.600
   69TMC2     C 1074   1.359   4.092  12.984
   69TMC2     O 1075   1.298   3.996  13.030
   69TMC2     H 1076   1.119   4.100  12.912
   69TMC2    H1 1077   1.512   4.167  12.786
   69TMC2    H2 1078   1.201   4.141  12.495
   69TMC2    C7 1079   1.464   4.206  12.544
   69TMC2    C8 1080   1.023   4.046  12.672
   69TMC2    O1 1081   1.582   4.171  12.555
   69TMC2    O2 1082   0.992   3.970  12.764
   69TMC2    O5 1083   0.974   4.072  12.548
   69TMC2    H5 1084   1.026   4.146  12.510
   70MPD2     C 1085   1.662   4.210  13.178
   70MPD2    C1 1086   1.548   4.134  13.143
   70MPD2    C2 1087   1.517   4.031  13.227
   70MPD2    C3 1088   1.594   4.002  13.336
   70MPD2    C4 1089   1.702   4.073  13.363
   70MPD2    C5 1090   1.740   4.177  13.282
   70MPD2     H 1091   1.434   3.967  13.198
   70MPD2    H1 1092   1.760   4.052  13.453
   70MPD2    H2 1093   1.695   4.292  13.115
   70MPD2    H3 1094   1.831   4.235  13.292
   70MPD2     N 1095   1.559   3.901  13.434
   70MPD2    H5 1096   1.619   3.892  13.515
   70MPD2    N1 1097   1.473   4.156  13.025
   70MPD2    H7 1098   1.503   4.232  12.965
   71TMC2    C1 1099   3.101   4.237  19.370
   71TMC2    C2 1100   3.121   4.340  19.466
   71TMC2    C3 1101   3.015   4.386  19.536
   71TMC2    C4 1102   2.969   4.199  19.343
   71TMC2    C5 1103   2.861   4.257  19.411
   71TMC2    C6 1104   2.887   4.346  19.514
   71TMC2     C 1105   3.208   4.226  19.269
   71TMC2     O 1106   3.170   4.227  19.150
   71TMC2     H 1107   3.221   4.380  19.483
   71TMC2    H1 1108   2.955   4.134  19.257
   71TMC2    H2 1109   2.814   4.359  19.593
   71TMC2    C7 1110   2.721   4.200  19.431
   71TMC2    C8 1111   3.039   4.499  19.624
   71TMC2    O1 1112   2.700   4.093  19.387
   71TMC2    O2 1113   3.151   4.532  19.657
   71TMC2    O5 1114   2.944   4.593  19.605
   71TMC2    H5 1115   2.877   4.556  19.544
   72MPD2     C 1116   3.680   4.368  19.139
   72MPD2    C1 1117   3.568   4.369  19.063
   72MPD2    C2 1118   3.447   4.315  19.115
   72MPD2    C3 1119   3.443   4.274  19.248
   72MPD2    C4 1120   3.556   4.289  19.321
   72MPD2    C5 1121   3.670   4.329  19.272
   72MPD2     H 1122   3.355   4.316  19.057
   72MPD2    H1 1123   3.558   4.279  19.428
   72MPD2    H2 1124   3.774   4.411  19.104
   72MPD2    H3 1125   3.757   4.335  19.337
   72MPD2     N 1126   3.331   4.241  19.320
   72MPD2    H5 1127   3.348   4.236  19.420
   72MPD2    N1 1128   3.552   4.443  18.941
   72MPD2    H7 1129   3.459   4.441  18.901
   73TMC2    C1 1130   3.076   1.383  14.266
   73TMC2    C2 1131   3.025   1.448  14.377
   73TMC2    C3 1132   3.076   1.414  14.499
   73TMC2    C4 1133   3.188   1.300  14.274
   73TMC2    C5 1134   3.250   1.287  14.394
   73TMC2    C6 1135   3.188   1.337  14.506
   73TMC2     C 1136   3.076   1.473  14.158
   73TMC2     O 1137   3.191   1.472  14.110
   73TMC2     H 1138   2.955   1.531  14.370
   73TMC2    H1 1139   3.234   1.256  14.187
   73TMC2    H2 1140   3.249   1.334  14.596
   73TMC2    C7 1141   3.390   1.311  14.380
   73TMC2    C8 1142   3.072   1.523  14.597
   73TMC2    O1 1143   3.462   1.289  14.478
   73TMC2    O2 1144   3.173   1.566  14.656
   73TMC2    O5 1145   2.954   1.585  14.588
   73TMC2    H5 1146   2.883   1.537  14.540
   74MPD2     C 1147   2.896   1.842  13.880
   74MPD2    C1 1148   3.021   1.796  13.902
   74MPD2    C2 1149   3.037   1.678  13.968
   74MPD2    C3 1150   2.933   1.624  14.035
   74MPD2    C4 1151   2.807   1.671  14.018
   74MPD2    C5 1152   2.790   1.783  13.943
   74MPD2     H 1153   3.134   1.630  13.964
   74MPD2    H1 1154   2.721   1.624  14.064
   74MPD2    H2 1155   2.884   1.939  13.833
   74MPD2    H3 1156   2.689   1.817  13.923
   74MPD2     N 1157   2.946   1.516  14.115
   74MPD2    H5 1158   2.865   1.477  14.162
   74MPD2    N1 1159   3.125   1.863  13.836
   74MPD2    H7 1160   3.102   1.951  13.791
   75TMC2    C1 1161   3.245   2.738  14.436
   75TMC2    C2 1162   3.162   2.783  14.534
   75TMC2    C3 1163   3.069   2.869  14.501
   75TMC2    C4 1164   3.225   2.769  14.300
   75TMC2    C5 1165   3.127   2.860  14.273
   75TMC2    C6 1166   3.051   2.914  14.373
   75TMC2     C 1167   3.385   2.712  14.474
   75TMC2     O 1168   3.414   2.736  14.591
   75TMC2     H 1169   3.179   2.752  14.636
   75TMC2    H1 1170   3.298   2.743  14.225
   75TMC2    H2 1171   2.968   2.980  14.352
   75TMC2    C7 1172   3.098   2.900  14.138
   75TMC2    C8 1173   3.005   2.938  14.601
   75TMC2    O1 1174   3.129   2.817  14.048
   75TMC2    O2 1175   2.956   3.049  14.583
   75TMC2    O5 1176   2.962   2.837  14.687
   75TMC2    H5 1177   2.987   2.746  14.660
   76TMC2    C1 1178   2.281   3.203  12.293
   76TMC2    C2 1179   2.181   3.128  12.235
   76TMC2    C3 1180   2.209   3.000  12.213
   76TMC2    C4 1181   2.400   3.143  12.322
   76TMC2    C5 1182   2.414   3.011  12.296
   76TMC2    C6 1183   2.319   2.932  12.242
   76TMC2     C 1184   2.267   3.348  12.276
   76TMC2     O 1185   2.161   3.391  12.226
   76TMC2     H 1186   2.088   3.177  12.208
   76TMC2    H1 1187   2.481   3.197  12.371
   76TMC2    H2 1188   2.337   2.827  12.223
   76TMC2    C7 1189   2.528   2.937  12.347
   76TMC2    C8 1190   2.099   2.913  12.171
   76TMC2    O1 1191   2.557   2.830  12.299
   76TMC2    O2 1192   2.093   2.792  12.189
   76TMC2    O5 1193   2.015   2.993  12.105
   76TMC2    H5 1194   2.049   3.085  12.097
   77MPD2     C 1195   2.456   3.830  12.264
   77MPD2    C1 1196   2.336   3.781  12.215
   77MPD2    C2 1197   2.303   3.650  12.224
   77MPD2    C3 1198   2.392   3.563  12.287
   77MPD2    C4 1199   2.512   3.609  12.335
   77MPD2    C5 1200   2.541   3.743  12.327
   77MPD2     H 1201   2.208   3.612  12.187
   77MPD2    H1 1202   2.585   3.546  12.385
   77MPD2    H2 1203   2.497   3.930  12.261
   77MPD2    H3 1204   2.629   3.784  12.374
   77MPD2     N 1205   2.377   3.420  12.299
   77MPD2    H5 1206   2.456   3.365  12.332
   77MPD2    N1 1207   2.241   3.872  12.162
   77MPD2    H7 1208   2.149   3.833  12.146
   78TMC2    C1 1209   3.734   3.961  19.455
   78TMC2    C2 1210   3.810   3.907  19.558
   78TMC2    C3 1211   3.942   3.932  19.551
   78TMC2    C4 1212   3.789   4.011  19.336
   78TMC2    C5 1213   3.927   4.020  19.329
   78TMC2    C6 1214   4.006   3.991  19.440
   78TMC2     C 1215   3.588   3.942  19.475
   78TMC2     O 1216   3.515   3.917  19.383
   78TMC2     H 1217   3.787   3.845  19.644
   78TMC2    H1 1218   3.728   4.025  19.248
   78TMC2    H2 1219   4.112   4.015  19.439
   78TMC2    C7 1220   3.986   4.107  19.228
   78TMC2    C8 1221   4.025   3.853  19.648
   78TMC2    O1 1222   3.913   4.173  19.154
   78TMC2    O2 1223   3.983   3.763  19.715
   78TMC2    O5 1224   4.127   3.932  19.682
   78TMC2    H5 1225   4.115   4.029  19.669
   79MPD1     C 1226   3.246   3.805  19.839
   79MPD1    C1 1227   3.248   3.778  19.703
   79MPD1    C2 1228   3.344   3.829  19.622
   79MPD1    C3 1229   3.450   3.886  19.683
   79MPD1    C4 1230   3.455   3.906  19.826
   79MPD1    C5 1231   3.352   3.870  19.905
   79MPD1     H 1232   3.351   3.821  19.514
   79MPD1    H1 1233   3.545   3.952  19.864
   79MPD1    H2 1234   3.165   3.762  19.897
   79MPD1    H3 1235   3.343   3.890  20.011
   79MPD1     N 1236   3.570   3.931  19.616
   79MPD1    H5 1237   3.647   3.970  19.669
   79MPD1    N1 1238   3.135   3.724  19.650
   79MPD1    H6 1239   3.142   3.679  19.559
   79MPD1    H7 1240   3.104   3.648  19.711
   80TMC2    C1 1241   1.504   2.990  12.308
   80TMC2    C2 1242   1.523   3.090  12.215
   80TMC2    C3 1243   1.404   3.139  12.156
   80TMC2    C4 1244   1.387   2.945  12.350
   80TMC2    C5 1245   1.273   2.996  12.291
   80TMC2    C6 1246   1.278   3.095  12.199
   80TMC2     C 1247   1.620   2.976  12.398
   80TMC2     O 1248   1.731   2.980  12.347
   80TMC2     H 1249   1.611   3.152  12.203
   80TMC2    H1 1250   1.376   2.867  12.425
   80TMC2    H2 1251   1.193   3.155  12.171
   80TMC2    C7 1252   1.143   2.931  12.315
   80TMC2    C8 1253   1.397   3.262  12.087
   80TMC2    O1 1254   1.064   2.943  12.224
   80TMC2    O2 1255   1.336   3.359  12.124
   80TMC2    O5 1256   1.474   3.253  11.975
   80TMC2    H5 1257   1.536   3.177  11.981
   81MPD2     C 1258   1.796   2.953  12.634
   81MPD2    C1 1259   1.664   2.995  12.638
   81MPD2    C2 1260   1.619   3.061  12.744
   81MPD2    C3 1261   1.697   3.070  12.855
   81MPD2    C4 1262   1.821   3.015  12.862
   81MPD2    C5 1263   1.874   2.961  12.748
   81MPD2     H 1264   1.518   3.100  12.750
   81MPD2    H1 1265   1.880   3.021  12.953
   81MPD2    H2 1266   1.841   2.904  12.549
   81MPD2    H3 1267   1.975   2.923  12.748
   81MPD2     N 1268   1.658   3.125  12.974
   81MPD2    H5 1269   1.727   3.128  13.048
   81MPD2    N1 1270   1.578   2.978  12.530
   81MPD2    H7 1271   1.483   2.982  12.565
   82TMC2    C1 1272   4.208   2.629  11.381
   82TMC2    C2 1273   4.294   2.706  11.451
   82TMC2    C3 1274   4.373   2.631  11.541
   82TMC2    C4 1275   4.182   2.502  11.406
   82TMC2    C5 1276   4.254   2.445  11.503
   82TMC2    C6 1277   4.341   2.509  11.577
   82TMC2     C 1278   4.115   2.711  11.305
   82TMC2     O 1279   4.030   2.650  11.241
   82TMC2     H 1280   4.342   2.786  11.396
   82TMC2    H1 1281   4.112   2.445  11.346
   82TMC2    H2 1282   4.404   2.460  11.651
   82TMC2    C7 1283   4.215   2.308  11.555
   82TMC2    C8 1284   4.511   2.666  11.574
   82TMC2    O1 1285   4.243   2.286  11.672
   82TMC2    O2 1286   4.601   2.580  11.587
   82TMC2    O5 1287   4.538   2.796  11.582
   82TMC2    H5 1288   4.463   2.856  11.600
   83MPD2     C 1289   3.779   3.090  11.353
   83MPD2    C1 1290   3.804   3.004  11.251
   83MPD2    C2 1291   3.923   2.931  11.249
   83MPD2    C3 1292   4.000   2.919  11.367
   83MPD2    C4 1293   3.972   2.998  11.476
   83MPD2    C5 1294   3.857   3.083  11.471
   83MPD2     H 1295   3.954   2.874  11.161
   83MPD2    H1 1296   4.037   2.996  11.562
   83MPD2    H2 1297   3.696   3.159  11.349
   83MPD2    H3 1298   3.832   3.148  11.554
   83MPD2     N 1299   4.106   2.828  11.375
   83MPD2    H5 1300   4.164   2.840  11.457
   83MPD2    N1 1301   3.715   2.997  11.149
   83MPD2    H7 1302   3.636   3.061  11.148
   84TMC2    C1 1303   0.474   1.524  11.540
   84TMC2    C2 1304   0.536   1.507  11.658
   84TMC2    C3 1305   0.667   1.537  11.662
   84TMC2    C4 1306   0.538   1.574  11.431
   84TMC2    C5 1307   0.670   1.620  11.449
   84TMC2    C6 1308   0.736   1.605  11.569
   84TMC2     C 1309   0.339   1.577  11.553
   84TMC2     O 1310   0.305   1.609  11.663
   84TMC2     H 1311   0.483   1.448  11.731
   84TMC2    H1 1312   0.479   1.612  11.347
   84TMC2    H2 1313   0.838   1.640  11.580
   84TMC2    C7 1314   0.727   1.682  11.332
   84TMC2    C8 1315   0.729   1.549  11.789
   84TMC2    O1 1316   0.700   1.627  11.225
   84TMC2    O2 1317   0.734   1.465  11.875
   84TMC2    O5 1318   0.760   1.681  11.801
   84TMC2    H5 1319   0.715   1.743  11.741
   85TMC2    C1 1320   1.209   4.705  15.990
   85TMC2    C2 1321   1.073   4.741  15.983
   85TMC2    C3 1322   1.041   0.028  15.890
   85TMC2    C4 1323   1.303   4.742  15.900
   85TMC2    C5 1324   1.261   0.033  15.816
   85TMC2    C6 1325   1.135   0.084  15.809
   85TMC2     C 1326   1.239   4.600  16.088
   85TMC2     O 1327   1.357   4.574  16.096
   85TMC2     H 1328   1.002   4.720  16.062
   85TMC2    H1 1329   1.405   4.716  15.925
   85TMC2    H2 1330   1.101   0.151  15.730
   85TMC2    C7 1331   1.360   0.085  15.731
   85TMC2    C8 1332   0.922   0.104  15.919
   85TMC2    O1 1333   1.463   0.025  15.729
   85TMC2    O2 1334   0.903   0.215  15.878
   85TMC2    O5 1335   0.833   0.005  15.932
   85TMC2    H5 1336   0.868   4.719  15.925
   86MPD2     C 1337   1.141   4.217  16.434
   86MPD2    C1 1338   1.035   4.227  16.353
   86MPD2    C2 1339   1.031   4.325  16.261
   86MPD2    C3 1340   1.138   4.416  16.235
   86MPD2    C4 1341   1.239   4.412  16.328
   86MPD2    C5 1342   1.244   4.313  16.423
   86MPD2     H 1343   0.945   4.328  16.196
   86MPD2    H1 1344   1.310   4.493  16.316
   86MPD2    H2 1345   1.160   4.148  16.516
   86MPD2    H3 1346   1.332   4.308  16.487
   86MPD2     N 1347   1.131   4.513  16.127
   86MPD2    H5 1348   1.045   4.512  16.074
   86MPD2    N1 1349   0.928   4.131  16.359
   86MPD2    H7 1350   0.859   4.140  16.285
   87TMC2    C1 1351   3.510   2.570  18.918
   87TMC2    C2 1352   3.592   2.585  19.030
   87TMC2    C3 1353   3.574   2.684  19.124
   87TMC2    C4 1354   3.420   2.669  18.886
   87TMC2    C5 1355   3.407   2.765  18.988
   87TMC2    C6 1356   3.483   2.781  19.100
   87TMC2     C 1357   3.569   2.492  18.810
   87TMC2     O 1358   3.576   2.538  18.697
   87TMC2     H 1359   3.675   2.517  19.048
   87TMC2    H1 1360   3.358   2.660  18.797
   87TMC2    H2 1361   3.466   2.866  19.166
   87TMC2    C7 1362   3.284   2.844  18.982
   87TMC2    C8 1363   3.706   2.730  19.167
   87TMC2    O1 1364   3.286   2.945  19.055
   87TMC2    O2 1365   3.807   2.710  19.100
   87TMC2    O5 1366   3.679   2.843  19.245
   87TMC2    H5 1367   3.585   2.848  19.273
   88MPD2     C 1368   2.944   2.756  18.933
   88MPD2    C1 1369   3.052   2.838  18.940
   88MPD2    C2 1370   3.037   2.971  18.918
   88MPD2    C3 1371   2.916   3.030  18.891
   88MPD2    C4 1372   2.804   2.954  18.888
   88MPD2    C5 1373   2.822   2.817  18.904
   88MPD2     H 1374   3.127   3.029  18.904
   88MPD2    H1 1375   2.708   2.994  18.861
   88MPD2    H2 1376   2.959   2.648  18.936
   88MPD2    H3 1377   2.737   2.750  18.896
   88MPD2     N 1378   2.900   3.168  18.878
   88MPD2    H5 1379   2.808   3.206  18.860
   88MPD2    N1 1380   3.180   2.775  18.938
   88MPD2    H7 1381   3.184   2.677  18.914
   89TMC2    C1 1382   4.604   1.309  19.283
   89TMC2    C2 1383   4.522   1.414  19.239
   89TMC2    C3 1384   4.580   1.529  19.209
   89TMC2    C4 1385   4.741   1.331  19.292
   89TMC2    C5 1386   4.795   1.444  19.237
   89TMC2    C6 1387   4.715   1.548  19.208
   89TMC2     C 1388   4.537   1.186  19.335
   89TMC2     O 1389   4.617   1.122  19.400
   89TMC2     H 1390   4.415   1.401  19.242
   89TMC2    H1 1391   0.004   1.250  19.318
   89TMC2    H2 1392   4.755   1.645  19.179
   89TMC2    C7 1393   0.138   1.476  19.256
   89TMC2    C8 1394   4.489   1.641  19.167
   89TMC2    O1 1395   0.198   1.422  19.349
   89TMC2    O2 1396   4.388   1.666  19.227
   89TMC2    O5 1397   4.524   1.670  19.042
   89TMC2    H5 1398   4.617   1.653  19.017
   90MPD2     C 1399   4.188   0.808  19.424
   90MPD2    C1 1400   4.133   0.891  19.325
   90MPD2    C2 1401   4.204   1.007  19.286
   90MPD2    C3 1402   4.329   1.039  19.346
   90MPD2    C4 1403   4.373   0.950  19.441
   90MPD2    C5 1404   4.305   0.838  19.484
   90MPD2     H 1405   4.147   1.075  19.225
   90MPD2    H1 1406   4.468   0.962  19.492
   90MPD2    H2 1407   4.137   0.716  19.451
   90MPD2    H3 1408   4.358   0.780  19.558
   90MPD2     N 1409   4.408   1.150  19.294
   90MPD2    H5 1410   4.376   1.202  19.213
   90MPD2    N1 1411   4.007   0.852  19.266
   90MPD2    H7 1412   3.978   0.911  19.189
   91TMC2    C1 1413   1.022   0.648  16.542
   91TMC2    C2 1414   1.068   0.705  16.652
   91TMC2    C3 1415   0.977   0.708  16.761
   91TMC2    C4 1416   0.893   0.600  16.531
   91TMC2    C5 1417   0.823   0.590  16.650
   91TMC2    C6 1418   0.859   0.640  16.773
   91TMC2     C 1419   1.108   0.631  16.423
   91TMC2     O 1420   1.058   0.580  16.324
   91TMC2     H 1421   1.171   0.734  16.673
   91TMC2    H1 1422   0.856   0.561  16.437
   91TMC2    H2 1423   0.792   0.644  16.858
   91TMC2    C7 1424   0.707   0.500  16.652
   91TMC2    C8 1425   1.008   0.794  16.879
   91TMC2    O1 1426   0.670   0.462  16.762
   91TMC2    O2 1427   0.947   0.797  16.986
   91TMC2    O5 1428   1.078   0.894  16.823
   91TMC2    H5 1429   1.115   0.867  16.736
   92MPD2     C 1430   1.317   0.601  16.218
   92MPD2    C1 1431   1.338   0.649  16.348
   92MPD2    C2 1432   1.464   0.685  16.384
   92MPD2    C3 1433   1.569   0.655  16.297
   92MPD2    C4 1434   1.539   0.613  16.174
   92MPD2    C5 1435   1.417   0.586  16.128
   92MPD2     H 1436   1.481   0.730  16.482
   92MPD2    H1 1437   1.618   0.597  16.102
   92MPD2    H2 1438   1.224   0.559  16.183
   92MPD2    H3 1439   1.397   0.546  16.029
   92MPD2     N 1440   1.700   0.696  16.337
   92MPD2    H5 1441   1.706   0.762  16.413
   92MPD2    N1 1442   1.234   0.666  16.443
   92MPD2    H7 1443   1.256   0.721  16.526
   93TMC2    C1 1444   3.235   0.939  14.128
   93TMC2    C2 1445   3.222   0.901  14.261
   93TMC2    C3 1446   3.332   0.924  14.340
   93TMC2    C4 1447   3.354   0.999  14.089
   93TMC2    C5 1448   3.458   1.016  14.171
   93TMC2    C6 1449   3.454   0.973  14.296
   93TMC2     C 1450   3.151   0.876  14.028
   93TMC2     O 1451   3.211   0.867  13.922
   93TMC2     H 1452   3.135   0.854  14.305
   93TMC2    H1 1453   3.370   1.015  13.983
   93TMC2    H2 1454   3.531   0.989  14.371
   93TMC2    C7 1455   3.593   1.030  14.123
   93TMC2    C8 1456   3.330   0.876  14.475
   93TMC2    O1 1457   3.678   0.954  14.171
   93TMC2    O2 1458   3.435   0.867  14.537
   93TMC2    O5 1459   3.221   0.923  14.537
   93TMC2    H5 1460   3.144   0.939  14.478
   94MPD2     C 1461   2.945   0.804  13.842
   94MPD2    C1 1462   2.918   0.809  13.974
   94MPD2    C2 1463   2.783   0.781  14.021
   94MPD2    C3 1464   2.679   0.746  13.932
   94MPD2    C4 1465   2.716   0.745  13.800
   94MPD2    C5 1466   2.844   0.764  13.754
   94MPD2     H 1467   2.752   0.793  14.125
   94MPD2    H1 1468   2.644   0.718  13.723
   94MPD2    H2 1469   3.034   0.832  13.788
   94MPD2    H3 1470   2.865   0.759  13.648
   94MPD2     N 1471   2.545   0.726  13.958
   94MPD2    H5 1472   2.487   0.679  13.889
   94MPD2    N1 1473   3.020   0.838  14.064
   94MPD2    H7 1474   2.983   0.851  14.158
   95TMC2    C1 1475   3.138   2.812  15.884
   95TMC2    C2 1476   3.166   2.933  15.930
   95TMC2    C3 1477   3.088   3.034  15.885
   95TMC2    C4 1478   3.036   2.784  15.795
   95TMC2    C5 1479   2.956   2.887  15.753
   95TMC2    C6 1480   2.974   3.011  15.809
   95TMC2     C 1481   3.251   2.717  15.901
   95TMC2     O 1482   3.358   2.769  15.914
   95TMC2     H 1483   3.244   2.936  16.005
   95TMC2    H1 1484   3.035   2.686  15.749
   95TMC2    H2 1485   2.920   3.099  15.776
   95TMC2    C7 1486   2.865   2.874  15.651
   95TMC2    C8 1487   3.119   3.170  15.919
   95TMC2    O1 1488   2.813   2.977  15.608
   95TMC2    O2 1489   3.027   3.253  15.920
   95TMC2    O5 1490   3.243   3.170  15.981
   95TMC2    H5 1491   3.287   3.086  15.956
   96MPD2     C 1492   3.425   2.253  15.909
   96MPD2    C1 1493   3.494   2.370  15.903
   96MPD2    C2 1494   3.426   2.488  15.917
   96MPD2    C3 1495   3.285   2.483  15.921
   96MPD2    C4 1496   3.223   2.361  15.933
   96MPD2    C5 1497   3.294   2.248  15.937
   96MPD2     H 1498   3.483   2.579  15.904
   96MPD2    H1 1499   3.115   2.366  15.942
   96MPD2    H2 1500   3.471   2.159  15.880
   96MPD2    H3 1501   3.262   2.144  15.940
   96MPD2     N 1502   3.204   2.591  15.911
   96MPD2    H5 1503   3.105   2.572  15.902
   96MPD2    N1 1504   3.631   2.367  15.851
   96MPD2    H7 1505   3.676   2.279  15.829
   97TMC2    C1 1506   0.191   0.344  18.407
   97TMC2    C2 1507   0.154   0.268  18.295
   97TMC2    C3 1508   0.166   0.327  18.171
   97TMC2    C4 1509   0.226   0.476  18.389
   97TMC2    C5 1510   0.234   0.530  18.267
   97TMC2    C6 1511   0.204   0.456  18.153
   97TMC2     C 1512   0.218   0.284  18.541
   97TMC2     O 1513   0.261   0.367  18.623
   97TMC2     H 1514   0.124   0.163  18.297
   97TMC2    H1 1515   0.266   0.540  18.466
   97TMC2    H2 1516   0.197   0.495  18.052
   97TMC2    C7 1517   0.307   0.659  18.254
   97TMC2    C8 1518   0.152   0.260  18.049
   97TMC2    O1 1519   0.358   0.713  18.350
   97TMC2    O2 1520   0.087   0.305  17.957
   97TMC2    O5 1521   0.270   0.196  18.044
   97TMC2    H5 1522   0.309   0.175  18.132
   98MPD2     C 1523   0.246   4.693  18.865
   98MPD2    C1 1524   0.278   0.020  18.885
   98MPD2    C2 1525   0.277   0.107  18.777
   98MPD2    C3 1526   0.210   0.064  18.660
   98MPD2    C4 1527   0.166   4.743  18.646
   98MPD2    C5 1528   0.183   4.657  18.746
   98MPD2     H 1529   0.315   0.208  18.772
   98MPD2    H1 1530   0.126   4.702  18.554
   98MPD2    H2 1531   0.278   4.612  18.928
   98MPD2    H3 1532   0.163   4.554  18.721
   98MPD2     N 1533   0.193   0.147  18.549
   98MPD2    H5 1534   0.163   0.095  18.468
   98MPD2    N1 1535   0.340   0.044  19.010
   98MPD2    H7 1536   0.334   4.776  19.080
   99TMC2    C1 1537   3.766   2.754  19.985
   99TMC2    C2 1538   3.794   2.859  20.064
   99TMC2    C3 1539   3.694   2.947  20.103
   99TMC2    C4 1540   3.645   2.738  19.921
   99TMC2    C5 1541   3.552   2.837  19.955
   99TMC2    C6 1542   3.571   2.936  20.045
   99TMC2     C 1543   3.885   2.684  19.938
   99TMC2     O 1544   3.991   2.739  19.950
   99TMC2     H 1545   3.894   2.874  20.103
   99TMC2    H1 1546   3.623   2.658  19.851
   99TMC2    H2 1547   3.487   3.003  20.064
   99TMC2    C7 1548   3.422   2.834  19.888
   99TMC2    C8 1549   3.713   2.983  20.242
   99TMC2    O1 1550   3.359   2.935  19.887
   99TMC2    O2 1551   3.813   2.960  20.309
   99TMC2    O5 1552   3.600   3.017  20.302
   99TMC2    H5 1553   3.525   3.033  20.240
  100MPD2     C 1554   4.081   2.523  19.794
  100MPD2    C1 1555   3.953   2.485  19.805
  100MPD2    C2 1556   3.908   2.377  19.732
  100MPD2    C3 1557   3.991   2.322  19.636
  100MPD2    C4 1558   4.113   2.370  19.616
  100MPD2    C5 1559   4.159   2.470  19.700
  100MPD2     H 1560   3.811   2.335  19.758
  100MPD2    H1 1561   4.185   2.344  19.539
  100MPD2    H2 1562   4.127   2.612  19.836
  100MPD2    H3 1563   4.254   2.520  19.685
  100MPD2     N 1564   3.944   2.205  19.578
  100MPD2    H5 1565   3.850   2.179  19.607
  100MPD2    N1 1566   3.860   2.559  19.883
  100MPD2    H7 1567   3.766   2.523  19.885
  101TMC2    C1 1568   0.045   3.561  13.138
  101TMC2    C2 1569   4.755   3.659  13.144
  101TMC2    C3 1570   4.788   3.780  13.111
  101TMC2    C4 1571   0.174   3.587  13.111
  101TMC2    C5 1572   0.212   3.714  13.088
  101TMC2    C6 1573   0.112   3.809  13.077
  101TMC2     C 1574   0.002   3.427  13.164
  101TMC2     O 1575   4.698   3.407  13.223
  101TMC2     H 1576   4.656   3.632  13.181
  101TMC2    H1 1577   0.249   3.513  13.086
  101TMC2    H2 1578   0.135   3.913  13.057
  101TMC2    C7 1579   0.339   3.732  13.040
  101TMC2    C8 1580   4.685   3.865  13.072
  101TMC2    O1 1581   0.424   3.653  13.071
  101TMC2    O2 1582   4.574   3.861  13.128
  101TMC2    O5 1583   4.711   3.917  12.952
  101TMC2    H5 1584   4.792   3.901  12.899
  102MPD2     C 1585   0.173   3.113  13.087
  102MPD2    C1 1586   0.082   3.192  13.148
  102MPD2    C2 1587   4.800   3.139  13.247
  102MPD2    C3 1588   0.005   3.010  13.290
  102MPD2    C4 1589   0.103   2.930  13.233
  102MPD2    C5 1590   0.186   2.983  13.136
  102MPD2     H 1591   4.736   3.202  13.308
  102MPD2    H1 1592   0.130   2.838  13.283
  102MPD2    H2 1593   0.243   3.142  13.010
  102MPD2    H3 1594   0.269   2.925  13.099
  102MPD2     N 1595   4.731   2.963  13.395
  102MPD2    H5 1596   4.667   3.030  13.436
  102MPD2    N1 1597   0.092   3.334  13.121
  102MPD2    H7 1598   0.165   3.363  13.056
  103TMC2    C1 1599   2.963   3.357  12.883
  103TMC2    C2 1600   3.093   3.386  12.846
  103TMC2    C3 1601   3.147   3.492  12.913
  103TMC2    C4 1602   2.886   3.430  12.963
  103TMC2    C5 1603   2.942   3.536  13.021
  103TMC2    C6 1604   3.074   3.570  12.999
  103TMC2     C 1605   2.893   3.279  12.782
  103TMC2     O 1606   2.784   3.326  12.757
  103TMC2     H 1607   3.149   3.333  12.770
  103TMC2    H1 1608   2.783   3.403  12.986
  103TMC2    H2 1609   3.125   3.643  13.062
  103TMC2    C7 1610   2.866   3.607  13.124
  103TMC2    C8 1611   3.288   3.517  12.889
  103TMC2    O1 1612   2.768   3.546  13.168
  103TMC2    O2 1613   3.365   3.427  12.853
  103TMC2    O5 1614   3.307   3.650  12.916
  103TMC2    H5 1615   3.232   3.713  12.910
  104MPD2     C 1616   2.949   2.933  12.656
  104MPD2    C1 1617   2.888   3.059  12.663
  104MPD2    C2 1618   2.763   3.075  12.605
  104MPD2    C3 1619   2.708   2.977  12.518
  104MPD2    C4 1620   2.770   2.857  12.509
  104MPD2    C5 1621   2.889   2.836  12.580
  104MPD2     H 1622   2.714   3.172  12.603
  104MPD2    H1 1623   2.725   2.777  12.452
  104MPD2    H2 1624   3.046   2.913  12.701
  104MPD2    H3 1625   2.944   2.742  12.582
  104MPD2     N 1626   2.594   3.012  12.435
  104MPD2    H5 1627   2.552   3.101  12.461
  104MPD2    N1 1628   2.958   3.163  12.733
  104MPD2    H7 1629   3.046   3.142  12.779
  105TMC2    C1 1630   4.186   2.379  18.137
  105TMC2    C2 1631   4.104   2.481  18.083
  105TMC2    C3 1632   3.975   2.477  18.117
  105TMC2    C4 1633   4.140   2.283  18.220
  105TMC2    C5 1634   4.012   2.299  18.265
  105TMC2    C6 1635   3.930   2.392  18.210
  105TMC2     C 1636   4.328   2.365  18.109
  105TMC2     O 1637   4.382   2.258  18.132
  105TMC2     H 1638   4.139   2.554  18.010
  105TMC2    H1 1639   4.205   2.214  18.273
  105TMC2    H2 1640   3.826   2.405  18.237
  105TMC2    C7 1641   3.976   2.217  18.380
  105TMC2    C8 1642   3.890   2.593  18.088
  105TMC2    O1 1643   4.035   2.111  18.398
  105TMC2    O2 1644   3.798   2.625  18.162
  105TMC2    O5 1645   3.931   2.652  17.974
  105TMC2    H5 1646   4.005   2.605  17.930
  106MPD2     C 1647   4.762   2.521  17.905
  106MPD2    C1 1648   4.664   2.614  17.877
  106MPD2    C2 1649   4.536   2.597  17.924
  106MPD2    C3 1650   4.505   2.483  17.995
  106MPD2    C4 1651   4.610   2.401  18.029
  106MPD2    C5 1652   4.739   2.419  17.990
  106MPD2     H 1653   4.455   2.666  17.903
  106MPD2    H1 1654   4.593   2.307  18.080
  106MPD2    H2 1655   0.056   2.528  17.861
  106MPD2    H3 1656   0.002   2.337  18.011
  106MPD2     N 1657   4.371   2.471  18.032
  106MPD2    H5 1658   4.316   2.556  18.021
  106MPD2    N1 1659   4.669   2.716  17.779
  106MPD2    H7 1660   4.586   2.770  17.760
  107TMC2    C1 1661   0.021   2.295  11.671
  107TMC2    C2 1662   0.028   2.406  11.583
  107TMC2    C3 1663   4.786   2.387  11.455
  107TMC2    C4 1664   4.756   2.188  11.635
  107TMC2    C5 1665   4.715   2.173  11.507
  107TMC2    C6 1666   4.710   2.280  11.423
  107TMC2     C 1667   0.026   2.347  11.810
  107TMC2     O 1668   0.050   2.265  11.899
  107TMC2     H 1669   0.092   2.492  11.600
  107TMC2    H1 1670   4.742   2.109  11.708
  107TMC2    H2 1671   4.692   2.257  11.318
  107TMC2    C7 1672   4.700   2.045  11.442
  107TMC2    C8 1673   0.039   2.468  11.357
  107TMC2    O1 1674   4.611   2.028  11.358
  107TMC2    O2 1675   0.150   2.519  11.370
  107TMC2    O5 1676   4.728   2.540  11.313
  107TMC2    H5 1677   4.652   2.481  11.296
  108MPD2     C 1678   4.674   2.671  11.901
  108MPD2    C1 1679   4.730   2.545  11.927
  108MPD2    C2 1680   4.721   2.498  12.059
  108MPD2    C3 1681   4.675   2.583  12.165
  108MPD2    C4 1682   4.628   2.710  12.136
  108MPD2    C5 1683   4.622   2.748  12.006
  108MPD2     H 1684   4.746   2.395  12.082
  108MPD2    H1 1685   4.581   2.776  12.208
  108MPD2    H2 1686   4.690   2.709  11.801
  108MPD2    H3 1687   4.573   2.843  11.986
  108MPD2     N 1688   4.658   2.541  12.300
  108MPD2    H5 1689   4.632   2.614  12.365
  108MPD2    N1 1690   4.773   2.467  11.811
  108MPD2    H7 1691   4.758   2.508  11.720
  109TMC2    C1 1692   4.613   4.695  19.378
  109TMC2    C2 1693   4.729   4.674  19.303
  109TMC2    C3 1694   0.027   4.611  19.357
  109TMC2    C4 1695   4.601   4.646  19.508
  109TMC2    C5 1696   4.710   4.581  19.560
  109TMC2    C6 1697   0.015   4.555  19.481
  109TMC2     C 1698   4.513   4.797  19.341
  109TMC2     O 1699   4.517   0.030  19.222
  109TMC2     H 1700   4.724   4.702  19.198
  109TMC2    H1 1701   4.515   4.672  19.568
  109TMC2    H2 1702   0.103   4.525  19.535
  109TMC2    C7 1703   4.728   4.575  19.705
  109TMC2    C8 1704   0.157   4.582  19.286
  109TMC2    O1 1705   4.764   4.474  19.760
  109TMC2    O2 1706   0.263   4.534  19.337
  109TMC2    O5 1707   0.153   4.652  19.167
  109TMC2    H5 1708   0.066   4.683  19.135
  110MPD2     C 1709   4.031   0.159  19.337
  110MPD2    C1 1710   4.056   0.069  19.436
  110MPD2    C2 1711   4.184   0.052  19.483
  110MPD2    C3 1712   4.287   0.082  19.394
  110MPD2    C4 1713   4.260   0.157  19.278
  110MPD2    C5 1714   4.132   0.208  19.258
  110MPD2     H 1715   4.209   4.791  19.566
  110MPD2    H1 1716   4.339   0.193  19.213
  110MPD2    H2 1717   3.929   0.166  19.301
  110MPD2    H3 1718   4.110   0.258  19.165
  110MPD2     N 1719   4.405   0.009  19.424
  110MPD2    H5 1720   4.405   4.770  19.515
  110MPD2    N1 1721   3.948   4.795  19.472
  110MPD2    H7 1722   3.853   0.023  19.460
  111TMC2    C1 1723   0.031   4.027  12.029
  111TMC2    C2 1724   4.799   4.083  12.153
  111TMC2    C3 1725   0.069   4.045  12.266
  111TMC2    C4 1726   0.153   3.955  12.006
  111TMC2    C5 1727   0.214   3.923  12.121
  111TMC2    C6 1728   0.173   3.957  12.249
  111TMC2     C 1729   4.744   4.046  11.911
  111TMC2     O 1730   4.781   4.027  11.797
  111TMC2     H 1731   4.714   4.147  12.173
  111TMC2    H1 1732   0.186   3.905  11.916
  111TMC2    H2 1733   0.214   3.912  12.339
  111TMC2    C7 1734   0.317   3.825  12.123
  111TMC2    C8 1735   4.801   4.044  12.391
  111TMC2    O1 1736   0.327   3.757  12.226
  111TMC2    O2 1737   4.680   4.070  12.406
  111TMC2    O5 1738   0.089   4.054  12.487
  111TMC2    H5 1739   0.183   4.066  12.462
  112MPD2     C 1740   4.258   4.054  11.733
  112MPD2    C1 1741   4.378   4.067  11.664
  112MPD2    C2 1742   4.497   4.076  11.735
  112MPD2    C3 1743   4.501   4.081  11.875
  112MPD2    C4 1744   4.377   4.076  11.941
  112MPD2    C5 1745   4.259   4.062  11.869
  112MPD2     H 1746   4.586   4.094  11.676
  112MPD2    H1 1747   4.364   4.067  12.048
  112MPD2    H2 1748   4.165   4.030  11.683
  112MPD2    H3 1749   4.169   4.057  11.929
  112MPD2     N 1750   4.614   4.068  11.954
  112MPD2    H5 1751   4.607   4.090  12.052
  112MPD2    N1 1752   4.378   4.065  11.518
  112MPD2    H7 1753   4.469   4.085  11.478
  113TMC2    C1 1754   2.783   1.647  18.573
  113TMC2    C2 1755   2.739   1.699  18.450
  113TMC2    C3 1756   2.682   1.610  18.363
  113TMC2    C4 1757   2.762   1.515  18.608
  113TMC2    C5 1758   2.705   1.429  18.517
  113TMC2    C6 1759   2.656   1.474  18.395
  113TMC2     C 1760   2.845   1.747  18.661
  113TMC2     O 1761   2.883   1.858  18.625
  113TMC2     H 1762   2.771   1.796  18.413
  113TMC2    H1 1763   2.814   1.473  18.693
  113TMC2    H2 1764   2.618   1.400  18.326
  113TMC2    C7 1765   2.676   1.288  18.548
  113TMC2    C8 1766   2.673   1.640  18.216
  113TMC2    O1 1767   2.665   1.206  18.459
  113TMC2    O2 1768   2.662   1.553  18.133
  113TMC2    O5 1769   2.682   1.767  18.181
  113TMC2    H5 1770   2.647   1.829  18.248
  114MPD2     C 1771   3.027   1.821  19.129
  114MPD2    C1 1772   3.007   1.913  19.031
  114MPD2    C2 1773   2.954   1.875  18.911
  114MPD2    C3 1774   2.921   1.744  18.896
  114MPD2    C4 1775   2.930   1.655  19.002
  114MPD2    C5 1776   2.989   1.694  19.118
  114MPD2     H 1777   2.934   1.943  18.829
  114MPD2    H1 1778   2.892   1.554  18.995
  114MPD2    H2 1779   3.062   1.839  19.229
  114MPD2    H3 1780   2.997   1.632  19.207
  114MPD2     N 1781   2.871   1.688  18.779
  114MPD2    H5 1782   2.838   1.592  18.785
  114MPD2    N1 1783   3.025   2.046  19.063
  114MPD2    H7 1784   2.980   2.112  19.001
  115TMC2    C1 1785   3.662   4.486  17.841
  115TMC2    C2 1786   3.791   4.447  17.873
  115TMC2    C3 1787   3.891   4.540  17.865
  115TMC2    C4 1788   3.626   4.609  17.801
  115TMC2    C5 1789   3.730   4.697  17.790
  115TMC2    C6 1790   3.858   4.665  17.826
  115TMC2     C 1791   3.581   4.395  17.772
  115TMC2     O 1792   3.624   4.334  17.679
  115TMC2     H 1793   3.811   4.343  17.895
  115TMC2    H1 1794   3.527   4.628  17.763
  115TMC2    H2 1795   3.937   4.740  17.836
  115TMC2    C7 1796   3.688   0.028  17.791
  115TMC2    C8 1797   4.020   4.506  17.924
  115TMC2    O1 1798   3.565   0.038  17.797
  115TMC2    O2 1799   4.088   4.577  18.003
  115TMC2    O5 1800   4.047   4.381  17.879
  115TMC2    H5 1801   4.005   4.358  17.793
  116MPD2     C 1802   3.108   4.212  17.649
  116MPD2    C1 1803   3.238   4.171  17.611
  116MPD2    C2 1804   3.352   4.221  17.671
  116MPD2    C3 1805   3.337   4.324  17.762
  116MPD2    C4 1806   3.208   4.367  17.801
  116MPD2    C5 1807   3.101   4.309  17.745
  116MPD2     H 1808   3.450   4.184  17.644
  116MPD2    H1 1809   3.190   4.450  17.868
  116MPD2    H2 1810   3.026   4.178  17.586
  116MPD2    H3 1811   3.002   4.352  17.758
  116MPD2     N 1812   3.447   4.390  17.816
  116MPD2    H5 1813   3.420   4.445  17.897
  116MPD2    N1 1814   3.234   4.059  17.524
  116MPD2    H7 1815   3.143   4.040  17.482
  117TMC2    C1 1816   2.528   1.045  14.413
  117TMC2    C2 1817   2.643   0.970  14.404
  117TMC2    C3 1818   2.759   1.042  14.411
  117TMC2    C4 1819   2.522   1.177  14.454
  117TMC2    C5 1820   2.645   1.240  14.460
  117TMC2    C6 1821   2.766   1.175  14.440
  117TMC2     C 1822   2.406   0.975  14.420
  117TMC2     O 1823   2.392   0.893  14.512
  117TMC2     H 1824   2.653   0.862  14.398
  117TMC2    H1 1825   2.424   1.223  14.465
  117TMC2    H2 1826   2.850   1.241  14.422
  117TMC2    C7 1827   2.642   1.386  14.457
  117TMC2    C8 1828   2.881   0.968  14.390
  117TMC2    O1 1829   2.751   1.442  14.484
  117TMC2    O2 1830   2.873   0.872  14.314
  117TMC2    O5 1831   2.993   1.035  14.421
  117TMC2    H5 1832   2.987   1.109  14.486
  118MPD2     C 1833   2.389   1.594  14.291
  118MPD2    C1 1834   2.514   1.561  14.346
  118MPD2    C2 1835   2.612   1.663  14.349
  118MPD2    C3 1836   2.580   1.791  14.311
  118MPD2    C4 1837   2.449   1.819  14.280
  118MPD2    C5 1838   2.354   1.720  14.268
  118MPD2     H 1839   2.711   1.634  14.383
  118MPD2    H1 1840   2.425   1.924  14.269
  118MPD2    H2 1841   2.307   1.523  14.295
  118MPD2    H3 1842   2.251   1.739  14.240
  118MPD2     N 1843   2.674   1.898  14.309
  118MPD2    H5 1844   2.642   1.988  14.275
  118MPD2    N1 1845   2.532   1.428  14.386
  118MPD2    H7 1846   2.456   1.365  14.363
  119TMC2    C1 1847   0.888   2.494  13.797
  119TMC2    C2 1848   0.996   2.454  13.722
  119TMC2    C3 1849   0.976   2.362  13.622
  119TMC2    C4 1850   0.765   2.432  13.781
  119TMC2    C5 1851   0.754   2.324  13.692
  119TMC2    C6 1852   0.858   2.293  13.605
  119TMC2     C 1853   0.894   2.602  13.892
  119TMC2     O 1854   0.790   2.637  13.949
  119TMC2     H 1855   1.100   2.482  13.732
  119TMC2    H1 1856   0.677   2.465  13.835
  119TMC2    H2 1857   0.853   2.224  13.521
  119TMC2    C7 1858   0.626   2.305  13.634
  119TMC2    C8 1859   1.093   2.334  13.538
  119TMC2    O1 1860   0.624   2.288  13.509
  119TMC2    O2 1861   1.170   2.419  13.490
  119TMC2    O5 1862   1.112   2.206  13.558
  119TMC2    H5 1863   1.040   2.163  13.608
  120MPD2     C 1864   1.139   2.981  14.151
  120MPD2    C1 1865   1.003   2.949  14.149
  120MPD2    C2 1866   0.962   2.847  14.060
  120MPD2    C3 1867   1.051   2.783  13.973
  120MPD2    C4 1868   1.187   2.820  13.978
  120MPD2    C5 1869   1.225   2.916  14.068
  120MPD2     H 1870   0.855   2.835  14.041
  120MPD2    H1 1871   1.262   2.775  13.914
  120MPD2    H2 1872   1.184   3.066  14.203
  120MPD2    H3 1873   1.326   2.955  14.067
  120MPD2     N 1874   1.017   2.669  13.895
  120MPD2    H5 1875   1.085   2.634  13.828
  120MPD2    N1 1876   0.925   3.027  14.244
  120MPD2    H7 1877   0.968   3.114  14.272
  121TMC2    C1 1878   2.047   4.380  14.452
  121TMC2    C2 1879   2.048   4.255  14.499
  121TMC2    C3 1880   1.925   4.200  14.526
  121TMC2    C4 1881   1.936   4.456  14.434
  121TMC2    C5 1882   1.816   4.399  14.484
  121TMC2    C6 1883   1.808   4.264  14.517
  121TMC2     C 1884   2.180   4.426  14.416
  121TMC2     O 1885   2.269   4.364  14.471
  121TMC2     H 1886   2.135   4.192  14.515
  121TMC2    H1 1887   1.936   4.554  14.389
  121TMC2    H2 1888   1.711   4.224  14.545
  121TMC2    C7 1889   1.707   4.462  14.417
  121TMC2    C8 1890   1.935   4.055  14.565
  121TMC2    O1 1891   1.709   4.582  14.383
  121TMC2    O2 1892   2.036   3.995  14.599
  121TMC2    O5 1893   1.815   4.000  14.552
  121TMC2    H5 1894   1.744   4.046  14.502
  122MPD2     C 1895   2.425   4.568  14.329
  122MPD2    C1 1896   2.304   4.599  14.278
  122MPD2    C2 1897   2.286   4.710  14.192
  122MPD2    C3 1898   2.393   4.781  14.149
  122MPD2    C4 1899   2.506   4.762  14.215
  122MPD2    C5 1900   2.521   4.660  14.301
  122MPD2     H 1901   2.187   4.728  14.153
  122MPD2    H1 1902   2.598   0.008  14.189
  122MPD2    H2 1903   2.431   4.502  14.415
  122MPD2    H3 1904   2.613   4.644  14.355
  122MPD2     N 1905   2.398   0.068  14.041
  122MPD2    H5 1906   2.482   0.118  14.014
  122MPD2    N1 1907   2.186   4.526  14.320
  122MPD2    H7 1908   2.101   4.556  14.273
  123TMC2    C1 1909   0.764   3.081  10.198
  123TMC2    C2 1910   0.889   3.127  10.167
  123TMC2    C3 1911   0.918   3.142  10.036
  123TMC2    C4 1912   0.672   3.060  10.094
  123TMC2    C5 1913   0.706   3.084   9.962
  123TMC2    C6 1914   0.836   3.109   9.928
  123TMC2     C 1915   0.740   3.046  10.337
  123TMC2     O 1916   0.819   3.097  10.418
  123TMC2     H 1917   0.964   3.130  10.246
  123TMC2    H1 1918   0.568   3.050  10.125
  123TMC2    H2 1919   0.875   3.121   9.828
  123TMC2    C7 1920   0.609   3.080   9.855
  123TMC2    C8 1921   1.044   3.203  10.005
  123TMC2    O1 1922   0.625   3.176   9.780
  123TMC2    O2 1923   1.081   3.219   9.889
  123TMC2    O5 1924   1.053   3.301  10.094
  123TMC2    H5 1925   1.012   3.284  10.182
  124MPD2     C 1926   0.531   2.733  10.688
  124MPD2    C1 1927   0.508   2.680  10.560
  124MPD2    C2 1928   0.561   2.748  10.451
  124MPD2    C3 1929   0.627   2.868  10.465
  124MPD2    C4 1930   0.656   2.919  10.592
  124MPD2    C5 1931   0.609   2.846  10.701
  124MPD2     H 1932   0.534   2.711  10.353
  124MPD2    H1 1933   0.694   3.019  10.609
  124MPD2    H2 1934   0.483   2.698  10.778
  124MPD2    H3 1935   0.606   2.896  10.798
  124MPD2     N 1936   0.661   2.930  10.335
  124MPD2    H5 1937   0.644   2.881  10.248
  124MPD2    N1 1938   0.425   2.564  10.547
  124MPD2    H7 1939   0.383   2.537  10.635
  125TMC2    C1 1940   0.529   4.391   9.474
  125TMC2    C2 1941   0.621   4.288   9.462
  125TMC2    C3 1942   0.753   4.322   9.466
  125TMC2    C4 1943   0.564   4.517   9.497
  125TMC2    C5 1944   0.696   4.548   9.498
  125TMC2    C6 1945   0.787   4.452   9.497
  125TMC2     C 1946   0.396   4.367   9.514
  125TMC2     O 1947   0.341   4.445   9.589
  125TMC2     H 1948   0.587   4.186   9.452
  125TMC2    H1 1949   0.492   4.599   9.497
  125TMC2    H2 1950   0.892   4.479   9.500
  125TMC2    C7 1951   0.730   4.682   9.460
  125TMC2    C8 1952   0.850   4.214   9.464
  125TMC2    O1 1953   0.652   4.773   9.485
  125TMC2    O2 1954   0.831   4.115   9.389
  125TMC2    O5 1955   0.909   4.207   9.587
  125TMC2    H5 1956   0.882   4.287   9.637
  126MPD1     C 1957   4.752   4.146   9.392
  126MPD1    C1 1958   0.035   4.128   9.291
  126MPD1    C2 1959   0.167   4.149   9.316
  126MPD1    C3 1960   0.208   4.228   9.425
  126MPD1    C4 1961   0.113   4.255   9.529
  126MPD1    C5 1962   4.791   4.198   9.515
  126MPD1     H 1963   0.247   4.111   9.254
  126MPD1    H1 1964   0.138   4.308   9.621
  126MPD1    H2 1965   4.647   4.123   9.379
  126MPD1    H3 1966   4.722   4.201   9.599
  126MPD1     N 1967   0.336   4.277   9.419
  126MPD1    H5 1968   0.393   4.251   9.339
  126MPD1    N1 1969   0.002   4.051   9.179
  126MPD1    H6 1970   0.063   4.065   9.099
  126MPD1    H7 1971   4.707   4.056   9.158
  127TMC2    C1 1972   2.124   3.515  10.132
  127TMC2    C2 1973   2.205   3.478  10.236
  127TMC2    C3 1974   2.167   3.368  10.303
  127TMC2    C4 1975   2.005   3.460  10.105
  127TMC2    C5 1976   1.962   3.367  10.190
  127TMC2    C6 1977   2.039   3.323  10.286
  127TMC2     C 1978   2.178   3.625  10.049
  127TMC2     O 1979   2.249   3.708  10.110
  127TMC2     H 1980   2.297   3.532  10.255
  127TMC2    H1 1981   1.942   3.503  10.028
  127TMC2    H2 1982   1.991   3.261  10.361
  127TMC2    C7 1983   1.840   3.296  10.162
  127TMC2    C8 1984   2.243   3.343  10.425
  127TMC2    O1 1985   1.764   3.342  10.076
  127TMC2    O2 1986   2.344   3.401  10.447
  127TMC2    O5 1987   2.214   3.226  10.480
  127TMC2    H5 1988   2.158   3.174  10.418
  128MPD2     C 1989   2.133   3.663   9.687
  128MPD2    C1 1990   2.170   3.700   9.810
  128MPD2    C2 1991   2.243   3.819   9.824
  128MPD2    C3 1992   2.261   3.900   9.710
  128MPD2    C4 1993   2.231   3.849   9.589
  128MPD2    C5 1994   2.173   3.727   9.575
  128MPD2     H 1995   2.257   3.856   9.925
  128MPD2    H1 1996   2.255   3.906   9.500
  128MPD2    H2 1997   2.095   3.562   9.675
  128MPD2    H3 1998   2.141   3.680   9.483
  128MPD2     N 1999   2.302   4.037   9.732
  128MPD2    H5 2000   2.334   4.054   9.827
  128MPD2    N1 2001   2.138   3.613   9.919
  128MPD2    H7 2002   2.071   3.541   9.894
  129TMC2    C1 2003   0.390   4.144  19.447
  129TMC2    C2 2004   0.317   4.221  19.529
  129TMC2    C3 2005   0.286   4.177  19.657
  129TMC2    C4 2006   0.412   4.013  19.481
  129TMC2    C5 2007   0.371   3.966  19.607
  129TMC2    C6 2008   0.314   4.052  19.702
  129TMC2     C 2009   0.457   4.201  19.334
  129TMC2     O 2010   0.403   4.270  19.252
  129TMC2     H 2011   0.302   4.323  19.496
  129TMC2    H1 2012   0.459   3.941  19.415
  129TMC2    H2 2013   0.292   4.019  19.803
  129TMC2    C7 2014   0.352   3.819  19.622
  129TMC2    C8 2015   0.253   4.293  19.745
  129TMC2    O1 2016   0.367   3.751  19.522
  129TMC2    O2 2017   0.317   4.400  19.722
  129TMC2    O5 2018   0.246   4.244  19.871
  129TMC2    H5 2019   0.191   4.163  19.881
  130MPD2     C 2020   0.658   4.218  19.115
  130MPD2    C1 2021   0.688   4.210  19.252
  130MPD2    C2 2022   0.821   4.254  19.286
  130MPD2    C3 2023   0.911   4.295  19.190
  130MPD2    C4 2024   0.877   4.294  19.055
  130MPD2    C5 2025   0.744   4.269  19.019
  130MPD2     H 2026   0.848   4.254  19.391
  130MPD2    H1 2027   0.948   4.330  18.981
  130MPD2    H2 2028   0.563   4.184  19.078
  130MPD2    H3 2029   0.709   4.262  18.917
  130MPD2     N 2030   1.041   4.342  19.230
  130MPD2    H5 2031   1.060   4.357  19.328
  130MPD2    N1 2032   0.589   4.173  19.348
  130MPD2    H7 2033   0.616   4.155  19.444
  131TMC2    C1 2034   0.310   3.217  10.322
  131TMC2    C2 2035   0.301   3.279  10.444
  131TMC2    C3 2036   0.343   3.412  10.452
  131TMC2    C4 2037   0.380   3.275  10.225
  131TMC2    C5 2038   0.450   3.394  10.249
  131TMC2    C6 2039   0.421   3.473  10.359
  131TMC2     C 2040   0.283   3.083  10.311
  131TMC2     O 2041   0.316   3.016  10.407
  131TMC2     H 2042   0.258   3.223  10.526
  131TMC2    H1 2043   0.388   3.223  10.131
  131TMC2    H2 2044   0.488   3.551  10.394
  131TMC2    C7 2045   0.554   3.431  10.154
  131TMC2    C8 2046   0.338   3.482  10.580
  131TMC2    O1 2047   0.576   3.355  10.061
  131TMC2    O2 2048   0.387   3.593  10.611
  131TMC2    O5 2049   0.233   3.437  10.645
  131TMC2    H5 2050   0.177   3.381  10.588
  132MPD2     C 2051   0.074   2.931  10.049
  132MPD2    C1 2052   0.156   2.929  10.155
  132MPD2    C2 2053   0.172   2.811  10.227
  132MPD2    C3 2054   0.100   2.697  10.198
  132MPD2    C4 2055   0.011   2.703  10.094
  132MPD2    C5 2056   4.801   2.822  10.025
  132MPD2     H 2057   0.240   2.811  10.311
  132MPD2    H1 2058   4.756   2.617  10.067
  132MPD2    H2 2059   0.063   3.021   9.990
  132MPD2    H3 2060   4.720   2.812   9.953
  132MPD2     N 2061   0.123   2.578  10.271
  132MPD2    H5 2062   0.211   2.562  10.319
  132MPD2    N1 2063   0.221   3.052  10.186
  132MPD2    H7 2064   0.187   3.134  10.137
  133TMC2    C1 2065   4.594   4.479   9.261
  133TMC2    C2 2066   4.698   4.510   9.353
  133TMC2    C3 2067   0.011   4.554   9.299
  133TMC2    C4 2068   4.599   4.512   9.129
  133TMC2    C5 2069   4.719   4.563   9.086
  133TMC2    C6 2070   0.024   4.589   9.162
  133TMC2     C 2071   4.474   4.425   9.319
  133TMC2     O 2072   4.489   4.369   9.425
  133TMC2     H 2073   4.693   4.470   9.453
  133TMC2    H1 2074   4.520   4.480   9.062
  133TMC2    H2 2075   0.109   4.639   9.118
  133TMC2    C7 2076   4.749   4.557   8.937
  133TMC2    C8 2077   0.132   4.570   9.379
  133TMC2    O1 2078   0.057   4.534   8.904
  133TMC2    O2 2079   0.234   4.615   9.325
  133TMC2    O5 2080   0.102   4.595   9.507
  133TMC2    H5 2081   0.023   4.549   9.543
  134MPD2     C 2082   4.125   4.512   9.244
  134MPD2    C1 2083   4.226   4.433   9.296
  134MPD2    C2 2084   4.201   4.316   9.370
  134MPD2    C3 2085   4.070   4.272   9.392
  134MPD2    C4 2086   3.971   4.360   9.347
  134MPD2    C5 2087   4.001   4.479   9.282
  134MPD2     H 2088   4.281   4.253   9.407
  134MPD2    H1 2089   3.869   4.345   9.382
  134MPD2    H2 2090   4.147   4.602   9.187
  134MPD2    H3 2091   3.917   4.542   9.257
  134MPD2     N 2092   4.036   4.147   9.459
  134MPD2    H5 2093   3.939   4.138   9.488
  134MPD2    N1 2094   4.357   4.468   9.261
  134MPD2    H7 2095   4.357   4.539   9.189
  135TMC2    C1 2096   1.746   0.895  10.193
  135TMC2    C2 2097   1.665   0.994  10.246
  135TMC2    C3 2098   1.545   0.944  10.299
  135TMC2    C4 2099   1.711   0.762  10.172
  135TMC2    C5 2100   1.589   0.724  10.221
  135TMC2    C6 2101   1.512   0.810  10.297
  135TMC2     C 2102   1.869   0.945  10.141
  135TMC2     O 2103   1.921   1.036  10.203
  135TMC2     H 2104   1.702   1.096  10.251
  135TMC2    H1 2105   1.782   0.688  10.137
  135TMC2    H2 2106   1.411   0.778  10.320
  135TMC2    C7 2107   1.564   0.584  10.216
  135TMC2    C8 2108   1.445   1.037  10.335
  135TMC2    O1 2109   1.624   0.515  10.133
  135TMC2    O2 2110   1.367   1.012  10.425
  135TMC2    O5 2111   1.442   1.145  10.251
  135TMC2    H5 2112   1.483   1.115  10.167
  136MPD2     C 2113   2.139   0.956   9.995
  136MPD2    C1 2114   2.031   0.877   9.960
  136MPD2    C2 2115   2.040   0.790   9.855
  136MPD2    C3 2116   2.155   0.777   9.785
  136MPD2    C4 2117   2.265   0.843   9.827
  136MPD2    C5 2118   2.253   0.935   9.923
  136MPD2     H 2119   1.958   0.722   9.836
  136MPD2    H1 2120   2.363   0.834   9.780
  136MPD2    H2 2121   2.158   1.032  10.070
  136MPD2    H3 2122   2.341   0.994   9.944
  136MPD2     N 2123   2.174   0.699   9.668
  136MPD2    H5 2124   2.264   0.699   9.621
  136MPD2    N1 2125   1.907   0.873  10.027
  136MPD2    H7 2126   1.838   0.807   9.993
  137TMC2    C1 2127   1.592   4.373   9.682
  137TMC2    C2 2128   1.661   4.351   9.565
  137TMC2    C3 2129   1.638   4.430   9.464
  137TMC2    C4 2130   1.488   4.456   9.689
  137TMC2    C5 2131   1.471   4.543   9.588
  137TMC2    C6 2132   1.542   4.527   9.472
  137TMC2     C 2133   1.600   4.266   9.783
  137TMC2     O 2134   1.591   4.298   9.901
  137TMC2     H 2135   1.748   4.285   9.561
  137TMC2    H1 2136   1.450   4.477   9.789
  137TMC2    H2 2137   1.514   4.596   9.393
  137TMC2    C7 2138   1.380   4.649   9.606
  137TMC2    C8 2139   1.722   4.430   9.344
  137TMC2    O1 2140   1.402   4.757   9.550
  137TMC2    O2 2141   1.680   4.464   9.235
  137TMC2    O5 2142   1.853   4.441   9.384
  137TMC2    H5 2143   1.869   4.429   9.480
  138MPD2     C 2144   1.533   3.912   9.706
  138MPD2    C1 2145   1.553   4.026   9.783
  138MPD2    C2 2146   1.548   4.004   9.925
  138MPD2    C3 2147   1.519   3.883   9.983
  138MPD2    C4 2148   1.484   3.783   9.903
  138MPD2    C5 2149   1.484   3.800   9.769
  138MPD2     H 2150   1.581   4.089   9.983
  138MPD2    H1 2151   1.464   3.683   9.939
  138MPD2    H2 2152   1.540   3.915   9.598
  138MPD2    H3 2153   1.467   3.706   9.718
  138MPD2     N 2154   1.525   3.881  10.121
  138MPD2    H5 2155   1.570   3.961  10.166
  138MPD2    N1 2156   1.589   4.148   9.724
  138MPD2    H7 2157   1.579   4.151   9.623
  139TMC2    C1 2158   2.331   2.148  13.730
  139TMC2    C2 2159   2.407   2.212  13.634
  139TMC2    C3 2160   2.358   2.330  13.596
  139TMC2    C4 2161   2.220   2.191  13.787
  139TMC2    C5 2162   2.187   2.319  13.754
  139TMC2    C6 2163   2.248   2.381  13.652
  139TMC2     C 2164   2.371   2.015  13.750
  139TMC2     O 2165   2.459   1.977  13.677
  139TMC2     H 2166   2.495   2.171  13.586
  139TMC2    H1 2167   2.168   2.127  13.857
  139TMC2    H2 2168   2.233   2.488  13.644
  139TMC2    C7 2169   2.091   2.388  13.839
  139TMC2    C8 2170   2.433   2.403  13.500
  139TMC2    O1 2171   2.056   2.505  13.810
  139TMC2    O2 2172   2.555   2.382  13.481
  139TMC2    O5 2173   2.356   2.502  13.454
  139TMC2    H5 2174   2.412   2.569  13.410
  140MPD2     C 2175   2.207   1.718  13.890
  140MPD2    C1 2176   2.309   1.789  13.843
  140MPD2    C2 2177   2.433   1.733  13.830
  140MPD2    C3 2178   2.458   1.600  13.874
  140MPD2    C4 2179   2.355   1.528  13.931
  140MPD2    C5 2180   2.230   1.586  13.941
  140MPD2     H 2181   2.513   1.799  13.800
  140MPD2    H1 2182   2.355   1.426  13.966
  140MPD2    H2 2183   2.112   1.771  13.895
  140MPD2    H3 2184   2.147   1.521  13.966
  140MPD2     N 2185   2.577   1.537  13.832
  140MPD2    H5 2186   2.621   1.571  13.747
  140MPD2    N1 2187   2.280   1.928  13.809
  140MPD2    H7 2188   2.187   1.959  13.833
  141TMC2    C1 2189   2.460   3.352  14.798
  141TMC2    C2 2190   2.466   3.218  14.821
  141TMC2    C3 2191   2.457   3.174  14.950
  141TMC2    C4 2192   2.431   3.447  14.893
  141TMC2    C5 2193   2.423   3.400  15.024
  141TMC2    C6 2194   2.441   3.263  15.053
  141TMC2     C 2195   2.495   3.400  14.667
  141TMC2     O 2196   2.465   3.516  14.646
  141TMC2     H 2197   2.477   3.147  14.740
  141TMC2    H1 2198   2.427   3.553  14.869
  141TMC2    H2 2199   2.417   3.237  15.156
  141TMC2    C7 2200   2.469   3.475  15.137
  141TMC2    C8 2201   2.460   3.036  14.986
  141TMC2    O1 2202   2.497   3.418  15.244
  141TMC2    O2 2203   2.406   3.015  15.095
  141TMC2    O5 2204   2.581   2.988  14.945
  141TMC2    H5 2205   2.620   3.035  14.869
  142TMC2    C1 2206   0.824   2.437  10.467
  142TMC2    C2 2207   0.912   2.504  10.538
  142TMC2    C3 2208   0.964   2.615  10.480
  142TMC2    C4 2209   0.792   2.477  10.339
  142TMC2    C5 2210   0.857   2.584  10.281
  142TMC2    C6 2211   0.946   2.657  10.352
  142TMC2     C 2212   0.728   2.341  10.532
  142TMC2     O 2213   0.662   2.272  10.454
  142TMC2     H 2214   0.938   2.486  10.642
  142TMC2    H1 2215   0.722   2.422  10.277
  142TMC2    H2 2216   0.999   2.732  10.294
  142TMC2    C7 2217   0.805   2.646  10.154
  142TMC2    C8 2218   1.044   2.711  10.553
  142TMC2    O1 2219   0.866   2.736  10.103
  142TMC2    O2 2220   1.125   2.786  10.498
  142TMC2    O5 2221   0.969   2.750  10.655
  142TMC2    H5 2222   0.906   2.683  10.691
  143MPD2     C 2223   0.496   2.111  10.928
  143MPD2    C1 2224   0.471   2.085  10.794
  143MPD2    C2 2225   0.541   2.163  10.708
  143MPD2    C3 2226   0.643   2.261  10.754
  143MPD2    C4 2227   0.661   2.278  10.884
  143MPD2    C5 2228   0.580   2.209  10.973
  143MPD2     H 2229   0.524   2.140  10.603
  143MPD2    H1 2230   0.732   2.352  10.918
  143MPD2    H2 2231   0.437   2.057  11.001
  143MPD2    H3 2232   0.601   2.218  11.079
  143MPD2     N 2233   0.716   2.354  10.675
  143MPD2    H5 2234   0.786   2.411  10.721
  143MPD2    N1 2235   0.383   1.978  10.768
  143MPD2    H7 2236   0.362   1.920  10.848
  144TMC2    C1 2237   3.593   1.277  18.882
  144TMC2    C2 2238   3.700   1.201  18.851
  144TMC2    C3 2239   3.806   1.192  18.938
  144TMC2    C4 2240   3.588   1.349  19.001
  144TMC2    C5 2241   3.697   1.339  19.085
  144TMC2    C6 2242   3.810   1.268  19.051
  144TMC2     C 2243   3.476   1.259  18.799
  144TMC2     O 2244   3.453   1.156  18.737
  144TMC2     H 2245   3.675   1.130  18.774
  144TMC2    H1 2246   3.496   1.389  19.043
  144TMC2    H2 2247   3.902   1.271  19.110
  144TMC2    C7 2248   3.734   1.444  19.182
  144TMC2    C8 2249   3.897   1.072  18.938
  144TMC2    O1 2250   3.852   1.471  19.186
  144TMC2    O2 2251   3.952   1.039  19.042
  144TMC2    O5 2252   3.827   0.983  18.858
  144TMC2    H5 2253   3.840   1.017  18.767
  145MPD2     C 2254   3.127   1.514  18.524
  145MPD2    C1 2255   3.143   1.377  18.526
  145MPD2    C2 2256   3.238   1.330  18.612
  145MPD2    C3 2257   3.309   1.422  18.692
  145MPD2    C4 2258   3.295   1.560  18.686
  145MPD2    C5 2259   3.194   1.607  18.606
  145MPD2     H 2260   3.255   1.223  18.619
  145MPD2    H1 2261   3.348   1.634  18.745
  145MPD2    H2 2262   3.055   1.555  18.454
  145MPD2    H3 2263   3.179   1.714  18.612
  145MPD2     N 2264   3.419   1.387  18.784
  145MPD2    H5 2265   3.468   1.461  18.832
  145MPD2    N1 2266   3.072   1.289  18.436
  145MPD2    H7 2267   3.081   1.190  18.452
  146TMC2    C1 2268   4.339   4.560  12.377
  146TMC2    C2 2269   4.225   4.515  12.323
  146TMC2    C3 2270   4.236   4.448  12.200
  146TMC2    C4 2271   4.464   4.522  12.335
  146TMC2    C5 2272   4.464   4.440  12.219
  146TMC2    C6 2273   4.353   4.407  12.146
  146TMC2     C 2274   4.335   4.633  12.502
  146TMC2     O 2275   4.237   4.702  12.516
  146TMC2     H 2276   4.132   4.545  12.369
  146TMC2    H1 2277   4.550   4.577  12.373
  146TMC2    H2 2278   4.369   4.382  12.041
  146TMC2    C7 2279   4.597   4.395  12.176
  146TMC2    C8 2280   4.110   4.428  12.134
  146TMC2    O1 2281   4.610   4.343  12.070
  146TMC2    O2 2282   4.013   4.463  12.202
  146TMC2    O5 2283   4.109   4.415  11.999
  146TMC2    H5 2284   4.195   4.417  11.950
  147MPD2     C 2285   0.301   4.394  12.280
  147MPD2    C1 2286   0.228   4.418  12.394
  147MPD2    C2 2287   0.092   4.429  12.379
  147MPD2    C3 2288   0.021   4.411  12.264
  147MPD2    C4 2289   0.090   4.392  12.151
  147MPD2    C5 2290   0.230   4.378  12.164
  147MPD2     H 2291   0.028   4.459  12.462
  147MPD2    H1 2292   0.044   4.383  12.054
  147MPD2    H2 2293   0.408   4.381  12.293
  147MPD2    H3 2294   0.291   4.347  12.079
  147MPD2     N 2295   4.685   4.424  12.271
  147MPD2    H5 2296   4.646   4.447  12.362
  147MPD2    N1 2297   0.291   4.410  12.519
  147MPD2    H7 2298   0.390   4.393  12.505
  148TMC2    C1 2299   4.551   3.435  11.096
  148TMC2    C2 2300   4.611   3.536  11.159
  148TMC2    C3 2301   4.747   3.529  11.190
  148TMC2    C4 2302   4.611   3.320  11.083
  148TMC2    C5 2303   4.746   3.310  11.114
  148TMC2    C6 2304   0.014   3.416  11.165
  148TMC2     C 2305   4.409   3.461  11.059
  148TMC2     O 2306   4.355   3.566  11.088
  148TMC2     H 2307   4.556   3.628  11.178
  148TMC2    H1 2308   4.564   3.232  11.041
  148TMC2    H2 2309   0.114   3.397  11.202
  148TMC2    C7 2310   0.012   3.208  11.041
  148TMC2    C8 2311   0.006   3.632  11.255
  148TMC2    O1 2312   4.752   3.115  10.992
  148TMC2    O2 2313   0.130   3.633  11.278
  148TMC2    O5 2314   4.723   3.706  11.324
  148TMC2    H5 2315   4.634   3.675  11.296
  149MPD2     C 2316   4.151   3.474  10.891
  149MPD2    C1 2317   4.252   3.378  10.876
  149MPD2    C2 2318   4.241   3.299  10.759
  149MPD2    C3 2319   4.131   3.315  10.672
  149MPD2    C4 2320   4.039   3.411  10.695
  149MPD2    C5 2321   4.046   3.488  10.802
  149MPD2     H 2322   4.317   3.228  10.727
  149MPD2    H1 2323   3.962   3.431  10.622
  149MPD2    H2 2324   4.153   3.540  10.977
  149MPD2    H3 2325   3.972   3.566  10.810
  149MPD2     N 2326   4.113   3.235  10.555
  149MPD2    H5 2327   4.032   3.266  10.503
  149MPD2    N1 2328   4.366   3.369  10.965
  149MPD2    H7 2329   4.447   3.313  10.939
  150TMC2    C1 2330   1.769   2.535  12.503
  150TMC2    C2 2331   1.791   2.481  12.381
  150TMC2    C3 2332   1.902   2.521  12.314
  150TMC2    C4 2333   1.855   2.615  12.570
  150TMC2    C5 2334   1.969   2.645  12.503
  150TMC2    C6 2335   1.998   2.598  12.375
  150TMC2     C 2336   1.639   2.523  12.566
  150TMC2     O 2337   1.649   2.498  12.684
  150TMC2     H 2338   1.715   2.421  12.331
  150TMC2    H1 2339   1.841   2.653  12.670
  150TMC2    H2 2340   2.094   2.616  12.329
  150TMC2    C7 2341   2.064   2.728  12.566
  150TMC2    C8 2342   1.924   2.462  12.180
  150TMC2    O1 2343   2.079   2.836  12.513
  150TMC2    O2 2344   1.852   2.377  12.129
  150TMC2    O5 2345   1.981   2.559  12.102
  150TMC2    H5 2346   2.008   2.639  12.152
  151MPD2     C 2347   1.146   2.382  12.555
  151MPD2    C1 2348   1.187   2.419  12.433
  151MPD2    C2 2349   1.316   2.459  12.404
  151MPD2    C3 2350   1.404   2.485  12.511
  151MPD2    C4 2351   1.360   2.467  12.640
  151MPD2    C5 2352   1.230   2.417  12.655
  151MPD2     H 2353   1.348   2.482  12.303
  151MPD2    H1 2354   1.426   2.491  12.723
  151MPD2    H2 2355   1.048   2.344  12.580
  151MPD2    H3 2356   1.196   2.401  12.757
  151MPD2     N 2357   1.535   2.518  12.480
  151MPD2    H5 2358   1.551   2.545  12.383
  151MPD2    N1 2359   1.085   2.399  12.329
  151MPD2    H7 2360   0.997   2.355  12.356
  152TMC2    C1 2361   1.767   2.291  13.214
  152TMC2    C2 2362   1.846   2.184  13.182
  152TMC2    C3 2363   1.961   2.199  13.110
  152TMC2    C4 2364   1.795   2.416  13.167
  152TMC2    C5 2365   1.909   2.426  13.094
  152TMC2    C6 2366   2.002   2.327  13.066
  152TMC2     C 2367   1.626   2.273  13.248
  152TMC2     O 2368   1.562   2.377  13.276
  152TMC2     H 2369   1.829   2.080  13.207
  152TMC2    H1 2370   1.726   2.497  13.186
  152TMC2    H2 2371   2.091   2.336  13.006
  152TMC2    C7 2372   1.944   2.566  13.057
  152TMC2    C8 2373   2.064   2.101  13.081
  152TMC2    O1 2374   1.847   2.631  13.023
  152TMC2    O2 2375   2.185   2.126  13.080
  152TMC2    O5 2376   2.010   1.979  13.084
  152TMC2    H5 2377   1.913   1.973  13.072
  153MPD2     C 2378   1.401   1.975  13.275
  153MPD2    C1 2379   1.431   2.108  13.262
  153MPD2    C2 2380   1.331   2.195  13.231
  153MPD2    C3 2381   1.201   2.154  13.208
  153MPD2    C4 2382   1.174   2.018  13.229
  153MPD2    C5 2383   1.272   1.929  13.268
  153MPD2     H 2384   1.347   2.302  13.230
  153MPD2    H1 2385   1.075   1.981  13.203
  153MPD2    H2 2386   1.480   1.901  13.281
  153MPD2    H3 2387   1.244   1.826  13.288
  153MPD2     N 2388   1.109   2.254  13.163
  153MPD2    H5 2389   1.138   2.351  13.170
  153MPD2    N1 2390   1.577   2.145  13.261
  153MPD2    H7 2391   1.645   2.069  13.263
  154TMC2    C1 2392   3.297   2.009  18.286
  154TMC2    C2 2393   3.309   1.948  18.406
  154TMC2    C3 2394   3.440   1.933  18.461
  154TMC2    C4 2395   3.403   2.072  18.224
  154TMC2    C5 2396   3.530   2.065  18.288
  154TMC2    C6 2397   3.550   1.994  18.406
  154TMC2     C 2398   3.167   2.064  18.253
  154TMC2     O 2399   3.078   2.077  18.336
  154TMC2     H 2400   3.214   1.912  18.445
  154TMC2    H1 2401   3.390   2.117  18.126
  154TMC2    H2 2402   3.651   2.001  18.446
  154TMC2    C7 2403   3.645   2.097  18.202
  154TMC2    C8 2404   3.461   1.902  18.602
  154TMC2    O1 2405   3.741   2.023  18.217
  154TMC2    O2 2406   3.369   1.906  18.683
  154TMC2    O5 2407   3.565   1.821  18.625
  154TMC2    H5 2408   3.630   1.803  18.553
  155MPD2     C 2409   3.023   2.142  17.927
  155MPD2    C1 2410   3.048   2.161  18.060
  155MPD2    C2 2411   2.973   2.253  18.138
  155MPD2    C3 2412   2.853   2.300  18.085
  155MPD2    C4 2413   2.828   2.276  17.951
  155MPD2    C5 2414   2.914   2.206  17.871
  155MPD2     H 2415   2.999   2.275  18.240
  155MPD2    H1 2416   2.741   2.316  17.901
  155MPD2    H2 2417   3.093   2.094  17.859
  155MPD2    H3 2418   2.899   2.203  17.764
  155MPD2     N 2419   2.768   2.378  18.170
  155MPD2    H5 2420   2.788   2.392  18.269
  155MPD2    N1 2421   3.154   2.085  18.112
  155MPD2    H7 2422   3.215   2.036  18.049
  156TMC2    C1 2423   1.831   0.386  11.909
  156TMC2    C2 2424   1.865   0.291  11.810
  156TMC2    C3 2425   1.831   0.305  11.679
  156TMC2    C4 2426   1.770   0.500  11.867
  156TMC2    C5 2427   1.748   0.518  11.732
  156TMC2    C6 2428   1.778   0.425  11.637
  156TMC2     C 2429   1.877   0.393  12.044
  156TMC2     O 2430   1.828   0.483  12.113
  156TMC2     H 2431   1.915   0.199  11.840
  156TMC2    H1 2432   1.735   0.573  11.939
  156TMC2    H2 2433   1.749   0.443  11.534
  156TMC2    C7 2434   1.679   0.634  11.681
  156TMC2    C8 2435   1.851   0.191  11.592
  156TMC2    O1 2436   1.694   0.677  11.565
  156TMC2    O2 2437   1.910   0.092  11.635
  156TMC2    O5 2438   1.733   0.176  11.523
  156TMC2    H5 2439   1.675   0.252  11.503
  157MPD2     C 2440   2.162   0.230  12.198
  157MPD2    C1 2441   2.065   0.327  12.190
  157MPD2    C2 2442   2.058   0.432  12.285
  157MPD2    C3 2443   2.128   0.423  12.405
  157MPD2    C4 2444   2.220   0.321  12.421
  157MPD2    C5 2445   2.236   0.229  12.314
  157MPD2     H 2446   1.990   0.516  12.282
  157MPD2    H1 2447   2.289   0.312  12.505
  157MPD2    H2 2448   2.180   0.149  12.129
  157MPD2    H3 2449   2.312   0.156  12.336
  157MPD2     N 2450   2.103   0.517  12.505
  157MPD2    H5 2451   2.041   0.594  12.478
  157MPD2    N1 2452   1.987   0.320  12.074
  157MPD2    H7 2453   2.016   0.248  12.008
  158TMC2    C1 2454   2.253   3.528  13.748
  158TMC2    C2 2455   2.295   3.636  13.674
  158TMC2    C3 2456   2.205   3.727  13.637
  158TMC2    C4 2457   2.118   3.501  13.770
  158TMC2    C5 2458   2.029   3.600  13.721
  158TMC2    C6 2459   2.069   3.710  13.663
  158TMC2     C 2460   2.356   3.431  13.767
  158TMC2     O 2461   2.439   3.425  13.678
  158TMC2     H 2462   2.402   3.646  13.655
  158TMC2    H1 2463   2.092   3.408  13.818
  158TMC2    H2 2464   1.996   3.786  13.638
  158TMC2    C7 2465   1.899   3.612  13.788
  158TMC2    C8 2466   2.245   3.867  13.616
  158TMC2    O1 2467   1.824   3.704  13.758
  158TMC2    O2 2468   2.180   3.965  13.659
  158TMC2    O5 2469   2.367   3.863  13.562
  158TMC2    H5 2470   2.391   3.783  13.511
  159MPD2     C 2471   2.150   3.333  14.244
  159MPD2    C1 2472   2.219   3.224  14.194
  159MPD2    C2 2473   2.285   3.228  14.069
  159MPD2    C3 2474   2.280   3.344  13.995
  159MPD2    C4 2475   2.213   3.451  14.052
  159MPD2    C5 2476   2.144   3.452  14.175
  159MPD2     H 2477   2.331   3.141  14.022
  159MPD2    H1 2478   2.212   3.543  13.995
  159MPD2    H2 2479   2.088   3.326  14.333
  159MPD2    H3 2480   2.094   3.536  14.220
  159MPD2     N 2481   2.338   3.333  13.867
  159MPD2    H5 2482   2.402   3.256  13.854
  159MPD2    N1 2483   2.216   3.108  14.269
  159MPD2    H7 2484   2.160   3.113  14.353
  160TMC2    C1 2485   2.052   1.858  19.589
  160TMC2    C2 2486   1.984   1.780  19.677
  160TMC2    C3 2487   1.940   1.663  19.627
  160TMC2    C4 2488   2.071   1.832  19.455
  160TMC2    C5 2489   2.024   1.712  19.411
  160TMC2    C6 2490   1.961   1.620  19.495
  160TMC2     C 2491   2.074   1.985  19.641
  160TMC2     O 2492   2.125   1.985  19.755
  160TMC2     H 2493   1.973   1.811  19.781
  160TMC2    H1 2494   2.131   1.905  19.403
  160TMC2    H2 2495   1.908   1.533  19.459
  160TMC2    C7 2496   2.031   1.678  19.274
  160TMC2    C8 2497   1.903   1.569  19.725
  160TMC2    O1 2498   2.029   1.562  19.241
  160TMC2    O2 2499   1.939   1.454  19.711
  160TMC2    O5 2500   1.826   1.617  19.827
  160TMC2    H5 2501   1.797   1.707  19.799
  161MPD2     C 2502   2.075   2.269  19.718
  161MPD2    C1 2503   1.994   2.215  19.621
  161MPD2    C2 2504   1.889   2.290  19.566
  161MPD2    C3 2505   1.872   2.415  19.609
  161MPD2    C4 2506   1.961   2.474  19.697
  161MPD2    C5 2507   2.059   2.401  19.754
  161MPD2     H 2508   1.825   2.249  19.489
  161MPD2    H1 2509   1.937   2.569  19.745
  161MPD2    H2 2510   2.139   2.203  19.776
  161MPD2    H3 2511   2.120   2.435  19.836
  161MPD2     N 2512   1.761   2.506  19.574
  161MPD2    H5 2513   1.770   2.604  19.598
  161MPD2    N1 2514   2.017   2.082  19.573
  161MPD2    H7 2515   1.953   2.054  19.500
  162TMC2    C1 2516   4.423   3.955  18.788
  162TMC2    C2 2517   4.437   4.066  18.711
  162TMC2    C3 2518   4.551   4.086  18.654
  162TMC2    C4 2519   4.529   3.879  18.826
  162TMC2    C5 2520   4.649   3.897  18.750
  162TMC2    C6 2521   4.653   3.994  18.655
  162TMC2     C 2522   4.314   3.865  18.741
  162TMC2     O 2523   4.327   3.748  18.774
  162TMC2     H 2524   4.356   4.136  18.698
  162TMC2    H1 2525   4.507   3.798  18.895
  162TMC2    H2 2526   4.752   4.018  18.619
  162TMC2    C7 2527   4.769   3.828  18.781
  162TMC2    C8 2528   4.589   4.215  18.596
  162TMC2    O1 2529   0.051   3.849  18.699
  162TMC2    O2 2530   4.524   4.315  18.623
  162TMC2    O5 2531   4.645   4.185  18.477
  162TMC2    H5 2532   4.667   4.094  18.448
  163MPD2     C 2533   4.102   3.770  18.281
  163MPD2    C1 2534   4.196   3.700  18.353
  163MPD2    C2 2535   4.222   3.737  18.486
  163MPD2    C3 2536   4.179   3.855  18.538
  163MPD2    C4 2537   4.084   3.923  18.466
  163MPD2    C5 2538   4.038   3.875  18.346
  163MPD2     H 2539   4.299   3.689  18.545
  163MPD2    H1 2540   4.036   4.014  18.500
  163MPD2    H2 2541   4.071   3.748  18.180
  163MPD2    H3 2542   3.948   3.925  18.314
  163MPD2     N 2543   4.220   3.917  18.657
  163MPD2    H5 2544   4.180   4.009  18.674
  163MPD2    N1 2545   4.254   3.583  18.294
  163MPD2    H7 2546   4.238   3.553  18.198
  164TMC2    C1 2547   0.301   3.255  11.387
  164TMC2    C2 2548   0.395   3.352  11.400
  164TMC2    C3 2549   0.369   3.463  11.476
  164TMC2    C4 2550   0.177   3.272  11.445
  164TMC2    C5 2551   0.155   3.381  11.526
  164TMC2    C6 2552   0.247   3.480  11.537
  164TMC2     C 2553   0.318   3.135  11.301
  164TMC2     O 2554   0.225   3.062  11.277
  164TMC2     H 2555   0.487   3.350  11.343
  164TMC2    H1 2556   0.102   3.194  11.438
  164TMC2    H2 2557   0.224   3.575  11.584
  164TMC2    C7 2558   0.017   3.412  11.560
  164TMC2    C8 2559   0.444   3.586  11.456
  164TMC2    O1 2560   4.731   3.385  11.483
  164TMC2    O2 2561   0.496   3.626  11.352
  164TMC2    O5 2562   0.490   3.609  11.578
  164TMC2    H5 2563   0.479   3.528  11.632
  165TMC2    C1 2564   1.359   0.636  19.222
  165TMC2    C2 2565   1.360   0.499  19.235
  165TMC2    C3 2566   1.461   0.443  19.313
  165TMC2    C4 2567   1.433   0.716  19.298
  165TMC2    C5 2568   1.524   0.658  19.379
  165TMC2    C6 2569   1.546   0.525  19.377
  165TMC2     C 2570   1.232   0.698  19.187
  165TMC2     O 2571   1.194   0.783  19.260
  165TMC2     H 2572   1.282   0.436  19.194
  165TMC2    H1 2573   1.436   0.823  19.279
  165TMC2    H2 2574   1.627   0.484  19.436
  165TMC2    C7 2575   1.639   0.731  19.425
  165TMC2    C8 2576   1.464   0.299  19.332
  165TMC2    O1 2577   1.739   0.668  19.452
  165TMC2    O2 2578   1.486   0.224  19.237
  165TMC2    O5 2579   1.511   0.288  19.462
  165TMC2    H5 2580   1.476   0.369  19.505
  166MPD2     C 2581   0.754   0.566  19.060
  166MPD2    C1 2582   0.800   0.664  19.153
  166MPD2    C2 2583   0.940   0.681  19.157
  166MPD2    C3 2584   1.029   0.605  19.076
  166MPD2    C4 2585   0.978   0.510  18.990
  166MPD2    C5 2586   0.841   0.489  18.981
  166MPD2     H 2587   0.981   0.758  19.221
  166MPD2    H1 2588   1.039   0.460  18.916
  166MPD2    H2 2589   0.647   0.550  19.058
  166MPD2    H3 2590   0.803   0.411  18.916
  166MPD2     N 2591   1.168   0.611  19.094
  166MPD2    H5 2592   1.231   0.550  19.042
  166MPD2    N1 2593   0.700   0.735  19.223
  166MPD2    H7 2594   0.610   0.735  19.175
  167TMC2    C1 2595   4.547   3.249  12.996
  167TMC2    C2 2596   4.471   3.264  13.106
  167TMC2    C3 2597   4.431   3.160  13.189
  167TMC2    C4 2598   4.573   3.125  12.953
  167TMC2    C5 2599   4.537   3.019  13.038
  167TMC2    C6 2600   4.460   3.036  13.151
  167TMC2     C 2601   4.589   3.369  12.921
  167TMC2     O 2602   4.530   3.478  12.941
  167TMC2     H 2603   4.464   3.364  13.147
  167TMC2    H1 2604   4.623   3.102  12.860
  167TMC2    H2 2605   4.428   2.954  13.214
  167TMC2    C7 2606   4.570   2.881  13.006
  167TMC2    C8 2607   4.428   3.181  13.331
  167TMC2    O1 2608   4.553   2.806  13.104
  167TMC2    O2 2609   4.478   3.110  13.415
  167TMC2    O5 2610   4.344   3.286  13.357
  167TMC2    H5 2611   4.302   3.314  13.273
  168MPD2     C 2612   4.722   3.577  12.757
  168MPD2    C1 2613   4.734   3.440  12.740
  168MPD2    C2 2614   0.006   3.391  12.634
  168MPD2    C3 2615   0.034   3.478  12.534
  168MPD2    C4 2616   0.008   3.610  12.535
  168MPD2    C5 2617   4.756   3.657  12.646
  168MPD2     H 2618   0.025   3.285  12.628
  168MPD2    H1 2619   0.021   3.679  12.452
  168MPD2    H2 2620   4.672   3.628  12.839
  168MPD2    H3 2621   4.735   3.763  12.642
  168MPD2     N 2622   0.068   3.423  12.408
  168MPD2    H5 2623   0.064   3.484  12.327
  168MPD2    N1 2624   4.681   3.343  12.827
  168MPD2    H7 2625   4.722   3.253  12.807
  169MPD1     C 2626   2.003   3.635   9.056
  169MPD1    C1 2627   1.955   3.701   9.167
  169MPD1    C2 2628   1.895   3.626   9.271
  169MPD1    C3 2629   1.881   3.488   9.257
  169MPD1    C4 2630   1.908   3.424   9.136
  169MPD1    C5 2631   1.973   3.501   9.042
  169MPD1     H 2632   1.873   3.674   9.365
  169MPD1    H1 2633   1.888   3.318   9.125
  169MPD1    H2 2634   2.058   3.687   8.979
  169MPD1    H3 2635   2.015   3.453   8.954
  169MPD1     N 2636   1.835   3.422   9.372
  169MPD1    H5 2637   1.816   3.480   9.453
  169MPD1    N1 2638   1.997   3.834   9.187
  169MPD1    H6 2639   2.007   3.883   9.098
  169MPD1    H7 2640   1.928   3.882   9.244
  170MPD1     C 2641   0.891   0.632  13.167
  170MPD1    C1 2642   0.953   0.742  13.229
  170MPD1    C2 2643   0.892   0.794  13.347
  170MPD1    C3 2644   0.775   0.732  13.400
  170MPD1    C4 2645   0.715   0.633  13.324
  170MPD1    C5 2646   0.776   0.585  13.210
  170MPD1     H 2647   0.946   0.877  13.391
  170MPD1    H1 2648   0.620   0.586  13.344
  170MPD1    H2 2649   0.945   0.594  13.081
  170MPD1    H3 2650   0.733   0.497  13.164
  170MPD1     N 2651   0.729   0.785  13.520
  170MPD1    H5 2652   0.781   0.865  13.555
  170MPD1    N1 2653   1.080   0.782  13.185
  170MPD1    H6 2654   1.091   0.774  13.084
  170MPD1    H7 2655   1.101   0.879  13.206
  171MPD1     C 2656   4.051   1.952  15.559
  171MPD1    C1 2657   4.024   1.821  15.527
  171MPD1    C2 2658   4.075   1.721  15.607
  171MPD1    C3 2659   4.165   1.751  15.715
  171MPD1    C4 2660   4.177   1.885  15.741
  171MPD1    C5 2661   4.120   1.986  15.670
  171MPD1     H 2662   4.054   1.615  15.597
  171MPD1    H1 2663   4.237   1.906  15.829
  171MPD1    H2 2664   4.015   2.035  15.499
  171MPD1    H3 2665   4.123   2.087  15.709
  171MPD1     N 2666   4.219   1.655  15.800
  171MPD1    H5 2667   4.266   1.691  15.882
  171MPD1    N1 2668   3.943   1.787  15.413
  171MPD1    H6 2669   3.924   1.862  15.346
  171MPD1    H7 2670   3.929   1.695  15.373
  172MPD1     C 2671   3.432   0.788  17.768
  172MPD1    C1 2672   3.459   0.918  17.738
  172MPD1    C2 2673   3.441   1.016  17.839
  172MPD1    C3 2674   3.405   0.982  17.971
  172MPD1    C4 2675   3.382   0.847  17.996
  172MPD1    C5 2676   3.397   0.756  17.899
  172MPD1     H 2677   3.446   1.117  17.801
  172MPD1    H1 2678   3.362   0.810  18.096
  172MPD1    H2 2679   3.436   0.701  17.703
  172MPD1    H3 2680   3.388   0.651  17.927
  172MPD1     N 2681   3.358   1.072  18.068
  172MPD1    H5 2682   3.340   1.029  18.159
  172MPD1    N1 2683   3.453   0.963  17.605
  172MPD1    H6 2684   3.499   1.053  17.599
  172MPD1    H7 2685   3.499   0.895  17.545
  173MPD1     C 2686   4.531   1.437  14.417
  173MPD1    C1 2687   4.401   1.422  14.372
  173MPD1    C2 2688   4.345   1.294  14.363
  173MPD1    C3 2689   4.404   1.193  14.434
  173MPD1    C4 2690   4.526   1.208  14.502
  173MPD1    C5 2691   4.588   1.333  14.485
  173MPD1     H 2692   4.247   1.277  14.320
  173MPD1    H1 2693   4.590   1.130  14.542
  173MPD1    H2 2694   4.593   1.525  14.402
  173MPD1    H3 2695   4.689   1.339  14.524
  173MPD1     N 2696   4.340   1.069  14.422
  173MPD1    H5 2697   4.244   1.074  14.389
  173MPD1    N1 2698   4.349   1.519  14.289
  173MPD1    H6 2699   4.363   1.608  14.337
  173MPD1    H7 2700   4.249   1.504  14.279
  174MPD1     C 2701   0.111   0.555  14.657
  174MPD1    C1 2702   4.803   0.485  14.702
  174MPD1    C2 2703   4.698   0.482  14.620
  174MPD1    C3 2704   4.687   0.541  14.497
  174MPD1    C4 2705   4.792   0.617  14.459
  174MPD1    C5 2706   0.097   0.631  14.539
  174MPD1     H 2707   4.615   0.415  14.637
  174MPD1    H1 2708   4.786   0.671  14.365
  174MPD1    H2 2709   0.197   0.575  14.720
  174MPD1    H3 2710   0.178   0.701  14.517
  174MPD1     N 2711   4.567   0.552  14.424
  174MPD1    H5 2712   4.567   0.625  14.353
  174MPD1    N1 2713   0.005   0.396  14.812
  174MPD1    H6 2714   0.073   0.420  14.884
  174MPD1    H7 2715   4.716   0.380  14.848
  175MPD1     C 2716   3.156   1.785  15.674
  175MPD1    C1 2717   3.022   1.801  15.685
  175MPD1    C2 2718   2.974   1.842  15.806
  175MPD1    C3 2719   3.049   1.843  15.922
  175MPD1    C4 2720   3.183   1.814  15.913
  175MPD1    C5 2721   3.231   1.788  15.789
  175MPD1     H 2722   2.871   1.873  15.817
  175MPD1    H1 2723   3.254   1.813  15.995
  175MPD1    H2 2724   3.207   1.788  15.578
  175MPD1    H3 2725   3.338   1.773  15.785
  175MPD1     N 2726   2.999   1.860  16.055
  175MPD1    H5 2727   3.067   1.885  16.127
  175MPD1    N1 2728   2.947   1.826  15.573
  175MPD1    H6 2729   2.848   1.814  15.595
  175MPD1    H7 2730   2.972   1.770  15.491
  176MPD1     C 2731   4.689   3.383  17.302
  176MPD1    C1 2732   4.729   3.468  17.202
  176MPD1    C2 2733   4.712   3.601  17.227
  176MPD1    C3 2734   4.643   3.646  17.340
  176MPD1    C4 2735   4.606   3.558  17.442
  176MPD1    C5 2736   4.625   3.425  17.415
  176MPD1     H 2737   4.738   3.677  17.154
  176MPD1    H1 2738   4.553   3.586  17.532
  176MPD1    H2 2739   4.704   3.277  17.289
  176MPD1    H3 2740   4.599   3.356  17.494
  176MPD1     N 2741   4.631   3.780  17.349
  176MPD1    H5 2742   4.659   3.829  17.264
  176MPD1    N1 2743   0.012   3.429  17.099
  176MPD1    H6 2744   0.018   3.503  17.029
  176MPD1    H7 2745   4.781   3.345  17.053
  177MPD1     C 2746   2.916   4.144  10.285
  177MPD1    C1 2747   2.782   4.113  10.302
  177MPD1    C2 2748   2.689   4.148  10.207
  177MPD1    C3 2749   2.723   4.232  10.102
  177MPD1    C4 2750   2.853   4.272  10.091
  177MPD1    C5 2751   2.946   4.230  10.180
  177MPD1     H 2752   2.594   4.096  10.208
  177MPD1    H1 2753   2.878   4.337  10.008
  177MPD1    H2 2754   2.992   4.101  10.349
  177MPD1    H3 2755   3.047   4.269  10.169
  177MPD1     N 2756   2.625   4.267  10.003
  177MPD1    H5 2757   2.541   4.211  10.000
  177MPD1    N1 2758   2.746   3.995  10.376
  177MPD1    H6 2759   2.648   3.979  10.396
  177MPD1    H7 2760   2.799   3.982  10.462
  178MPD1     C 2761   0.760   0.062  18.006
  178MPD1    C1 2762   0.647   0.019  17.940
  178MPD1    C2 2763   0.656   4.736  17.834
  178MPD1    C3 2764   0.780   4.682  17.795
  178MPD1    C4 2765   0.887   4.718  17.873
  178MPD1    C5 2766   0.880   0.003  17.977
  178MPD1     H 2767   0.568   4.729  17.771
  178MPD1    H1 2768   0.987   4.680  17.854
  178MPD1    H2 2769   0.747   0.131  18.089
  178MPD1    H3 2770   0.964   0.042  18.032
  178MPD1     N 2771   0.797   4.619  17.671
  178MPD1    H5 2772   0.896   4.614  17.646
  178MPD1    N1 2773   0.521   0.075  17.966
  178MPD1    H6 2774   0.501   0.122  18.054
  178MPD1    H7 2775   0.439   0.018  17.945
  179MPD1     C 2776   0.602   2.998  15.827
  179MPD1    C1 2777   0.479   2.963  15.772
  179MPD1    C2 2778   0.438   2.835  15.790
  179MPD1    C3 2779   0.522   2.740  15.852
  179MPD1    C4 2780   0.650   2.776  15.894
  179MPD1    C5 2781   0.690   2.904  15.877
  179MPD1     H 2782   0.339   2.808  15.756
  179MPD1    H1 2783   0.710   2.697  15.938
  179MPD1    H2 2784   0.644   3.098  15.829
  179MPD1    H3 2785   0.793   2.924  15.903
  179MPD1     N 2786   0.475   2.612  15.885
  179MPD1    H5 2787   0.545   2.550  15.923
  179MPD1    N1 2788   0.385   3.056  15.734
  179MPD1    H6 2789   0.342   3.021  15.649
  179MPD1    H7 2790   0.433   3.142  15.710
  180MPD1     C 2791   0.207   4.122  14.822
  180MPD1    C1 2792   0.243   4.181  14.701
  180MPD1    C2 2793   0.146   4.233  14.618
  180MPD1    C3 2794   0.011   4.222  14.646
  180MPD1    C4 2795   4.776   4.166  14.769
  180MPD1    C5 2796   0.070   4.122  14.853
  180MPD1     H 2797   0.175   4.292  14.532
  180MPD1    H1 2798   4.672   4.166  14.801
  180MPD1    H2 2799   0.270   4.088  14.903
  180MPD1    H3 2800   0.040   4.082  14.950
  180MPD1     N 2801   4.731   4.281  14.549
  180MPD1    H5 2802   4.778   4.313  14.465
  180MPD1    N1 2803   0.380   4.173  14.660
  180MPD1    H6 2804   0.416   4.247  14.600
  180MPD1    H7 2805   0.443   4.149  14.737
  181MPD1     C 2806   1.804   1.435   9.752
  181MPD1    C1 2807   1.731   1.505   9.846
  181MPD1    C2 2808   1.758   1.492   9.978
  181MPD1    C3 2809   1.838   1.384  10.016
  181MPD1    C4 2810   1.902   1.302   9.927
  181MPD1    C5 2811   1.879   1.326   9.793
  181MPD1     H 2812   1.709   1.563  10.044
  181MPD1    H1 2813   1.973   1.223   9.949
  181MPD1    H2 2814   1.800   1.456   9.646
  181MPD1    H3 2815   1.934   1.270   9.718
  181MPD1     N 2816   1.869   1.361  10.155
  181MPD1    H5 2817   1.936   1.288  10.179
  181MPD1    N1 2818   1.645   1.615   9.809
  181MPD1    H6 2819   1.569   1.620   9.876
  181MPD1    H7 2820   1.600   1.611   9.718
  182MPD1     C 2821   2.322   0.298  19.401
  182MPD1    C1 2822   2.358   0.166  19.375
  182MPD1    C2 2823   2.379   0.139  19.240
  182MPD1    C3 2824   2.367   0.230  19.137
  182MPD1    C4 2825   2.320   0.350  19.171
  182MPD1    C5 2826   2.291   0.387  19.302
  182MPD1     H 2827   2.408   0.036  19.223
  182MPD1    H1 2828   2.310   0.425  19.093
  182MPD1    H2 2829   2.324   0.343  19.500
  182MPD1    H3 2830   2.255   0.488  19.320
  182MPD1     N 2831   2.405   0.204  19.004
  182MPD1    H5 2832   2.377   0.271  18.933
  182MPD1    N1 2833   2.377   0.059  19.474
  182MPD1    H6 2834   2.320   0.095  19.550
  182MPD1    H7 2835   2.354   4.770  19.442
  183MPD1     C 2836   2.845   0.671   8.992
  183MPD1    C1 2837   2.955   0.667   9.067
  183MPD1    C2 2838   2.977   0.756   9.172
  183MPD1    C3 2839   2.877   0.847   9.201
  183MPD1    C4 2840   2.753   0.834   9.139
  183MPD1    C5 2841   2.745   0.739   9.041
  183MPD1     H 2842   3.076   0.771   9.213
  183MPD1    H1 2843   2.664   0.892   9.160
  183MPD1    H2 2844   2.832   0.613   8.901
  183MPD1    H3 2845   2.648   0.732   8.993
  183MPD1     N 2846   2.905   0.948   9.301
  183MPD1    H5 2847   3.002   0.956   9.331
  183MPD1    N1 2848   3.066   0.590   9.022
  183MPD1    H6 2849   3.146   0.583   9.084
  183MPD1    H7 2850   3.037   0.500   8.985
  184MPD1     C 2851   1.818   3.609  10.516
  184MPD1    C1 2852   1.757   3.576  10.397
  184MPD1    C2 2853   1.803   3.642  10.288
  184MPD1    C3 2854   1.885   3.747  10.289
  184MPD1    C4 2855   1.939   3.789  10.411
  184MPD1    C5 2856   1.905   3.714  10.524
  184MPD1     H 2857   1.758   3.613  10.194
  184MPD1    H1 2858   1.999   3.878  10.425
  184MPD1    H2 2859   1.784   3.564  10.608
  184MPD1    H3 2860   1.946   3.745  10.620
  184MPD1     N 2861   1.920   3.825  10.180
  184MPD1    H5 2862   1.972   3.911  10.195
  184MPD1    N1 2863   1.681   3.461  10.390
  184MPD1    H6 2864   1.617   3.454  10.469
  184MPD1    H7 2865   1.621   3.467  10.308
  185MPD1     C 2866   1.806   4.131   9.128
  185MPD1    C1 2867   1.736   4.032   9.192
  185MPD1    C2 2868   1.761   4.014   9.334
  185MPD1    C3 2869   1.880   4.076   9.381
  185MPD1    C4 2870   1.957   4.150   9.303
  185MPD1    C5 2871   1.922   4.180   9.171
  185MPD1     H 2872   1.696   3.958   9.400
  185MPD1    H1 2873   2.054   4.191   9.328
  185MPD1    H2 2874   1.778   4.165   9.029
  185MPD1    H3 2875   1.986   4.245   9.112
  185MPD1     N 2876   1.931   4.059   9.513
  185MPD1    H5 2877   2.003   4.123   9.544
  185MPD1    N1 2878   1.619   3.980   9.131
  185MPD1    H6 2879   1.628   3.973   9.030
  185MPD1    H7 2880   1.577   3.899   9.176
  186MPD1     C 2881   0.956   2.454  16.036
  186MPD1    C1 2882   0.983   2.580  15.982
  186MPD1    C2 2883   0.960   2.687  16.061
  186MPD1    C3 2884   0.921   2.673  16.192
  186MPD1    C4 2885   0.902   2.546  16.245
  186MPD1    C5 2886   0.919   2.440  16.166
  186MPD1     H 2887   0.974   2.786  16.018
  186MPD1    H1 2888   0.870   2.534  16.348
  186MPD1    H2 2889   0.957   2.359  15.984
  186MPD1    H3 2890   0.909   2.340  16.207
  186MPD1     N 2891   0.866   2.784  16.260
  186MPD1    H5 2892   0.809   2.755  16.339
  186MPD1    N1 2893   1.006   2.597  15.846
  186MPD1    H6 2894   1.054   2.685  15.830
  186MPD1    H7 2895   1.048   2.513  15.807
  187MPD1     C 2896   4.426   0.387  18.311
  187MPD1    C1 2897   4.424   0.266  18.255
  187MPD1    C2 2898   4.489   0.244  18.135
  187MPD1    C3 2899   4.530   0.346  18.058
  187MPD1    C4 2900   4.522   0.470  18.116
  187MPD1    C5 2901   4.467   0.491  18.234
  187MPD1     H 2902   4.505   0.140  18.110
  187MPD1    H1 2903   4.579   0.551  18.072
  187MPD1    H2 2904   4.388   0.410  18.410
  187MPD1    H3 2905   4.467   0.593  18.271
  187MPD1     N 2906   4.592   0.336  17.929
  187MPD1    H5 2907   4.624   0.424  17.889
  187MPD1    N1 2908   4.385   0.162  18.330
  187MPD1    H6 2909   4.294   0.176  18.372
  187MPD1    H7 2910   4.374   0.075  18.278
  188MPD1     C 2911   4.785   0.144   9.117
  188MPD1    C1 2912   4.661   0.088   9.109
  188MPD1    C2 2913   4.585   0.065   9.216
  188MPD1    C3 2914   4.638   0.080   9.343
  188MPD1    C4 2915   4.772   0.119   9.361
  188MPD1    C5 2916   0.032   0.150   9.239
  188MPD1     H 2917   4.479   0.049   9.201
  188MPD1    H1 2918   0.009   0.142   9.459
  188MPD1    H2 2919   0.035   0.180   9.031
  188MPD1    H3 2920   0.134   0.181   9.258
  188MPD1     N 2921   4.555   0.047   9.450
  188MPD1    H5 2922   4.600   0.045   9.541
  188MPD1    N1 2923   4.608   0.076   8.984
  188MPD1    H6 2924   4.672   0.048   8.910
  188MPD1    H7 2925   4.522   0.022   8.978
  189MPD1     C 2926   1.482   0.749  18.786
  189MPD1    C1 2927   1.499   0.884  18.786
  189MPD1    C2 2928   1.413   0.964  18.710
  189MPD1    C3 2929   1.300   0.908  18.647
  189MPD1    C4 2930   1.284   0.771  18.663
  189MPD1    C5 2931   1.375   0.695  18.719
  189MPD1     H 2932   1.431   1.070  18.710
  189MPD1    H1 2933   1.199   0.721  18.619
  189MPD1    H2 2934   1.544   0.675  18.835
  189MPD1    H3 2935   1.360   0.588  18.723
  189MPD1     N 2936   1.204   0.989  18.578
  189MPD1    H5 2937   1.225   1.088  18.566
  189MPD1    N1 2938   1.612   0.938  18.845
  189MPD1    H6 2939   1.666   0.878  18.907
  189MPD1    H7 2940   1.631   1.033  18.878
  190MPD1     C 2941   4.793   3.839  15.545
  190MPD1    C1 2942   4.793   3.852  15.685
  190MPD1    C2 2943   0.099   3.911  15.745
  190MPD1    C3 2944   0.203   3.966  15.672
  190MPD1    C4 2945   0.198   3.944  15.535
  190MPD1    C5 2946   0.087   3.890  15.475
  190MPD1     H 2947   0.092   3.927  15.852
  190MPD1    H1 2948   0.287   3.963  15.476
  190MPD1    H2 2949   4.721   3.786  15.485
  190MPD1    H3 2950   0.088   3.878  15.367
  190MPD1     N 2951   0.313   4.022  15.743
  190MPD1    H5 2952   0.307   4.018  15.844
  190MPD1    N1 2953   4.691   3.782  15.748
  190MPD1    H6 2954   4.606   3.781  15.692
  190MPD1    H7 2955   4.679   3.829  15.838
  191MPD1     C 2956   0.084   1.051  13.046
  191MPD1    C1 2957   4.774   0.976  13.028
  191MPD1    C2 2958   4.698   0.989  12.916
  191MPD1    C3 2959   4.751   1.075  12.817
  191MPD1    C4 2960   0.057   1.153  12.835
  191MPD1    C5 2961   0.128   1.134  12.949
  191MPD1     H 2962   4.608   0.931  12.898
  191MPD1    H1 2963   0.089   1.236  12.773
  191MPD1    H2 2964   0.150   1.051  13.133
  191MPD1    H3 2965   0.221   1.189  12.964
  191MPD1     N 2966   4.670   1.093  12.701
  191MPD1    H5 2967   4.591   1.029  12.698
  191MPD1    N1 2968   4.722   0.903  13.136
  191MPD1    H6 2969   4.792   0.878  13.205
  191MPD1    H7 2970   4.667   0.822  13.106
  192MPD1     C 2971   4.093   1.794  12.648
  192MPD1    C1 2972   4.091   1.743  12.518
  192MPD1    C2 2973   4.196   1.663  12.476
  192MPD1    C3 2974   4.286   1.610  12.567
  192MPD1    C4 2975   4.276   1.645  12.701
  192MPD1    C5 2976   4.191   1.751  12.735
  192MPD1     H 2977   4.185   1.632  12.373
  192MPD1    H1 2978   4.347   1.605  12.772
  192MPD1    H2 2979   4.019   1.870  12.671
  192MPD1    H3 2980   4.189   1.792  12.835
  192MPD1     N 2981   4.381   1.512  12.527
  192MPD1    H5 2982   4.459   1.489  12.588
  192MPD1    N1 2983   4.005   1.806  12.426
  192MPD1    H6 2984   3.915   1.833  12.466
  192MPD1    H7 2985   3.988   1.739  12.351
  193MPD1     C 2986   4.056   1.243  16.304
  193MPD1    C1 2987   4.041   1.377  16.337
  193MPD1    C2 2988   4.121   1.447  16.430
  193MPD1    C3 2989   4.195   1.373  16.513
  193MPD1    C4 2990   4.197   1.236  16.498
  193MPD1    C5 2991   4.130   1.177  16.400
  193MPD1     H 2992   4.122   1.555  16.434
  193MPD1    H1 2993   4.252   1.175  16.570
  193MPD1    H2 2994   4.010   1.179  16.230
  193MPD1    H3 2995   4.126   1.069  16.405
  193MPD1     N 2996   4.267   1.431  16.617
  193MPD1    H5 2997   4.332   1.363  16.653
  193MPD1    N1 2998   3.967   1.454  16.244
  193MPD1    H6 2999   3.897   1.398  16.195
  193MPD1    H7 3000   3.912   1.522  16.298
  194MPD1     C 3001   1.868   4.197  17.036
  194MPD1    C1 3002   1.805   4.094  16.977
  194MPD1    C2 3003   1.855   3.970  16.995
  194MPD1    C3 3004   1.981   3.954  17.060
  194MPD1    C4 3005   2.050   4.062  17.112
  194MPD1    C5 3006   1.993   4.185  17.100
  194MPD1     H 3007   1.795   3.882  16.972
  194MPD1    H1 3008   2.146   4.048  17.159
  194MPD1    H2 3009   1.824   4.296  17.026
  194MPD1    H3 3010   2.047   4.274  17.131
  194MPD1     N 3011   2.040   3.826  17.065
  194MPD1    H5 3012   2.124   3.813  17.120
  194MPD1    N1 3013   1.672   4.120  16.941
  194MPD1    H6 3014   1.662   4.210  16.893
  194MPD1    H7 3015   1.633   4.057  16.872
  195MPD1     C 3016   4.286   0.991  18.105
  195MPD1    C1 3017   4.163   0.944  18.144
  195MPD1    C2 3018   4.127   0.813  18.110
  195MPD1    C3 3019   4.214   0.731  18.038
  195MPD1    C4 3020   4.331   0.787  17.993
  195MPD1    C5 3021   4.371   0.915  18.031
  195MPD1     H 3022   4.025   0.781  18.131
  195MPD1    H1 3023   4.390   0.726  17.925
  195MPD1    H2 3024   4.311   1.095  18.122
  195MPD1    H3 3025   4.464   0.965  18.006
  195MPD1     N 3026   4.189   0.591  18.005
  195MPD1    H5 3027   4.258   0.543  17.948
  195MPD1    N1 3028   4.082   1.020  18.232
  195MPD1    H6 3029   3.986   0.987  18.231
  195MPD1    H7 3030   4.076   1.121  18.219
  196MPD1     C 3031   3.006   4.164  18.383
  196MPD1    C1 3032   3.044   4.273  18.311
  196MPD1    C2 3033   3.137   4.362  18.363
  196MPD1    C3 3034   3.191   4.345  18.488
  196MPD1    C4 3035   3.149   4.236  18.558
  196MPD1    C5 3036   3.062   4.143  18.505
  196MPD1     H 3037   3.162   4.448  18.303
  196MPD1    H1 3038   3.199   4.212  18.651
  196MPD1    H2 3039   2.928   4.097  18.347
  196MPD1    H3 3040   3.057   4.047  18.555
  196MPD1     N 3041   3.284   4.428  18.552
  196MPD1    H5 3042   3.298   4.406  18.650
  196MPD1    N1 3043   2.999   4.292  18.176
  196MPD1    H6 3044   2.913   4.245  18.151
  196MPD1    H7 3045   2.995   4.384  18.135
  197MPD1     C 3046   3.272   2.495  17.962
  197MPD1    C1 3047   3.230   2.624  17.925
  197MPD1    C2 3048   3.192   2.636  17.794
  197MPD1    C3 3049   3.195   2.526  17.705
  197MPD1    C4 3050   3.222   2.400  17.744
  197MPD1    C5 3051   3.265   2.384  17.876
  197MPD1     H 3052   3.162   2.737  17.766
  197MPD1    H1 3053   3.219   2.318  17.673
  197MPD1    H2 3054   3.288   2.468  18.065
  197MPD1    H3 3055   3.280   2.285  17.917
  197MPD1     N 3056   3.143   2.545  17.571
  197MPD1    H5 3057   3.117   2.463  17.518
  197MPD1    N1 3058   3.187   2.713  18.019
  197MPD1    H6 3059   3.239   2.716  18.107
  197MPD1    H7 3060   3.198   2.807  17.982
  198MPD1     C 3061   0.470   0.048  15.307
  198MPD1    C1 3062   0.463   0.184  15.351
  198MPD1    C2 3063   0.384   0.212  15.457
  198MPD1    C3 3064   0.328   0.110  15.529
  198MPD1    C4 3065   0.342   4.783  15.493
  198MPD1    C5 3066   0.416   4.752  15.387
  198MPD1     H 3067   0.365   0.313  15.491
  198MPD1    H1 3068   0.302   4.703  15.555
  198MPD1    H2 3069   0.514   0.029  15.211
  198MPD1    H3 3070   0.435   4.647  15.368
  198MPD1     N 3071   0.240   0.151  15.640
  198MPD1    H5 3072   0.231   0.251  15.654
  198MPD1    N1 3073   0.515   0.283  15.272
  198MPD1    H6 3074   0.526   0.366  15.330
  198MPD1    H7 3075   0.602   0.256  15.228
  199MPD1     C 3076   2.288   1.650  10.153
  199MPD1    C1 3077   2.266   1.751  10.244
  199MPD1    C2 3078   2.148   1.827  10.236
  199MPD1    C3 3079   2.052   1.810  10.130
  199MPD1    C4 3080   2.074   1.706  10.040
  199MPD1    C5 3081   2.190   1.631  10.051
  199MPD1     H 3082   2.128   1.895  10.318
  199MPD1    H1 3083   2.005   1.680   9.960
  199MPD1    H2 3084   2.375   1.586  10.153
  199MPD1    H3 3085   2.211   1.547   9.986
  199MPD1     N 3086   1.948   1.900  10.106
  199MPD1    H5 3087   1.889   1.876  10.027
  199MPD1    N1 3088   2.346   1.760  10.357
  199MPD1    H6 3089   2.349   1.856  10.389
  199MPD1    H7 3090   2.441   1.724  10.344
  200MPD1     C 3091   0.773   1.709  15.304
  200MPD1    C1 3092   0.811   1.687  15.172
  200MPD1    C2 3093   0.944   1.716  15.141
  200MPD1    C3 3094   1.041   1.751  15.235
  200MPD1    C4 3095   1.003   1.744  15.368
  200MPD1    C5 3096   0.868   1.735  15.395
  200MPD1     H 3097   0.964   1.697  15.036
  200MPD1    H1 3098   1.081   1.761  15.441
  200MPD1    H2 3099   0.674   1.708  15.349
  200MPD1    H3 3100   0.835   1.727  15.498
  200MPD1     N 3101   1.174   1.741  15.184
  200MPD1    H5 3102   1.180   1.720  15.085
  200MPD1    N1 3103   0.713   1.674  15.070
  200MPD1    H6 3104   0.633   1.615  15.093
  200MPD1    H7 3105   0.763   1.645  14.986
  201MPD1     C 3106   3.460   1.195  13.659
  201MPD1    C1 3107   3.354   1.108  13.638
  201MPD1    C2 3108   3.381   0.978  13.681
  201MPD1    C3 3109   3.504   0.938  13.730
  201MPD1    C4 3110   3.607   1.028  13.744
  201MPD1    C5 3111   3.584   1.156  13.707
  201MPD1     H 3112   3.298   0.909  13.675
  201MPD1    H1 3113   3.698   1.003  13.797
  201MPD1    H2 3114   3.451   1.302  13.646
  201MPD1    H3 3115   3.658   1.229  13.740
  201MPD1     N 3116   3.519   0.799  13.752
  201MPD1    H5 3117   3.437   0.741  13.733
  201MPD1    N1 3118   3.228   1.151  13.608
  201MPD1    H6 3119   3.170   1.085  13.557
  201MPD1    H7 3120   3.229   1.235  13.549
  202MPD1     C 3121   2.887   0.079   9.282
  202MPD1    C1 3122   2.975   4.784   9.316
  202MPD1    C2 3123   3.062   0.006   9.421
  202MPD1    C3 3124   3.059   0.128   9.493
  202MPD1    C4 3125   2.967   0.220   9.460
  202MPD1    C5 3126   2.880   0.192   9.362
  202MPD1     H 3127   3.138   4.735   9.437
  202MPD1    H1 3128   2.949   0.312   9.514
  202MPD1    H2 3129   2.827   0.067   9.193
  202MPD1    H3 3130   2.811   0.268   9.329
  202MPD1     N 3131   3.137   0.157   9.608
  202MPD1    H5 3132   3.139   0.249   9.651
  202MPD1    N1 3133   3.000   4.671   9.235
  202MPD1    H6 3134   3.038   4.590   9.283
  202MPD1    H7 3135   2.920   4.651   9.176
  203MPD1     C 3136   2.424   1.377  12.801
  203MPD1    C1 3137   2.500   1.297  12.711
  203MPD1    C2 3138   2.535   1.168  12.745
  203MPD1    C3 3139   2.506   1.119  12.874
  203MPD1    C4 3140   2.438   1.200  12.963
  203MPD1    C5 3141   2.400   1.327  12.924
  203MPD1     H 3142   2.591   1.111  12.672
  203MPD1    H1 3143   2.403   1.161  13.058
  203MPD1    H2 3144   2.384   1.472  12.769
  203MPD1    H3 3145   2.338   1.387  12.989
  203MPD1     N 3146   2.546   0.987  12.903
  203MPD1    H5 3147   2.588   0.930  12.830
  203MPD1    N1 3148   2.516   1.337  12.579
  203MPD1    H6 3149   2.605   1.317  12.534
  203MPD1    H7 3150   2.507   1.439  12.570
  204MPD1     C 3151   1.728   2.296  18.356
  204MPD1    C1 3152   1.822   2.320  18.261
  204MPD1    C2 3153   1.862   2.213  18.180
  204MPD1    C3 3154   1.803   2.088  18.192
  204MPD1    C4 3155   1.702   2.062  18.288
  204MPD1    C5 3156   1.674   2.175  18.374
  204MPD1     H 3157   1.945   2.219  18.110
  204MPD1    H1 3158   1.643   1.971  18.299
  204MPD1    H2 3159   1.678   2.376  18.410
  204MPD1    H3 3160   1.581   2.178  18.429
  204MPD1     N 3161   1.846   1.983  18.102
  204MPD1    H5 3162   1.925   2.004  18.042
  204MPD1    N1 3163   1.896   2.434  18.261
  204MPD1    H6 3164   1.926   2.462  18.168
  204MPD1    H7 3165   1.849   2.513  18.304
  205MPD1     C 3166   2.230   0.894  16.901
  205MPD1    C1 3167   2.262   0.777  16.964
  205MPD1    C2 3168   2.200   0.758  17.089
  205MPD1    C3 3169   2.108   0.849  17.142
  205MPD1    C4 3170   2.074   0.958  17.074
  205MPD1    C5 3171   2.139   0.981  16.956
  205MPD1     H 3172   2.223   0.675  17.154
  205MPD1    H1 3173   1.992   1.020  17.107
  205MPD1    H2 3174   2.264   0.916  16.801
  205MPD1    H3 3175   2.116   1.065  16.893
  205MPD1     N 3176   2.054   0.829  17.266
  205MPD1    H5 3177   2.006   0.911  17.302
  205MPD1    N1 3178   2.313   0.664  16.899
  205MPD1    H6 3179   2.382   0.687  16.828
  205MPD1    H7 3180   2.364   0.605  16.965
  206MPD1     C 3181   2.610   4.127  17.067
  206MPD1    C1 3182   2.620   4.018  16.978
  206MPD1    C2 3183   2.501   3.967  16.923
  206MPD1    C3 3184   2.377   4.032  16.936
  206MPD1    C4 3185   2.375   4.145  17.013
  206MPD1    C5 3186   2.488   4.190  17.081
  206MPD1     H 3187   2.508   3.877  16.862
  206MPD1    H1 3188   2.290   4.211  17.021
  206MPD1    H2 3189   2.693   4.151  17.132
  206MPD1    H3 3190   2.482   4.272  17.152
  206MPD1     N 3191   2.260   3.980  16.881
  206MPD1    H5 3192   2.180   4.037  16.902
  206MPD1    N1 3193   2.738   3.952  16.966
  206MPD1    H6 3194   2.744   3.892  16.884
  206MPD1    H7 3195   2.819   4.014  16.959
  207MPD1     C 3196   4.285   1.595  10.292
  207MPD1    C1 3197   4.378   1.677  10.237
  207MPD1    C2 3198   4.501   1.696  10.295
  207MPD1    C3 3199   4.534   1.617  10.398
  207MPD1    C4 3200   4.433   1.534  10.462
  207MPD1    C5 3201   4.319   1.523  10.404
  207MPD1     H 3202   4.582   1.747  10.244
  207MPD1    H1 3203   4.448   1.473  10.550
  207MPD1    H2 3204   4.187   1.578  10.249
  207MPD1    H3 3205   4.247   1.450  10.438
  207MPD1     N 3206   4.650   1.638  10.482
  207MPD1    H5 3207   4.642   1.597  10.575
  207MPD1    N1 3208   4.353   1.742  10.110
  207MPD1    H6 3209   4.429   1.807  10.090
  207MPD1    H7 3210   4.259   1.766  10.079
  208MPD1     C 3211   2.702   0.231  17.372
  208MPD1    C1 3212   2.708   0.223  17.510
  208MPD1    C2 3213   2.621   0.140  17.573
  208MPD1    C3 3214   2.538   0.051  17.503
  208MPD1    C4 3215   2.531   0.058  17.366
  208MPD1    C5 3216   2.619   0.145  17.304
  208MPD1     H 3217   2.608   0.147  17.680
  208MPD1    H1 3218   2.476   4.791  17.306
  208MPD1    H2 3219   2.755   0.294  17.302
  208MPD1    H3 3220   2.626   0.142  17.196
  208MPD1     N 3221   2.457   4.766  17.585
  208MPD1    H5 3222   2.480   4.769  17.684
  208MPD1    N1 3223   2.774   0.326  17.581
  208MPD1    H6 3224   2.805   0.301  17.675
  208MPD1    H7 3225   2.851   0.377  17.539
  209MPD1     C 3226   0.151   0.367  11.523
  209MPD1    C1 3227   0.193   0.400  11.393
  209MPD1    C2 3228   0.257   0.522  11.379
  209MPD1    C3 3229   0.286   0.601  11.485
  209MPD1    C4 3230   0.269   0.546  11.612
  209MPD1    C5 3231   0.202   0.436  11.631
  209MPD1     H 3232   0.272   0.563  11.279
  209MPD1    H1 3233   0.309   0.589  11.703
  209MPD1    H2 3234   0.107   0.273  11.551
  209MPD1    H3 3235   0.193   0.392  11.730
  209MPD1     N 3236   0.339   0.733  11.461
  209MPD1    H5 3237   0.352   0.754  11.362
  209MPD1    N1 3238   0.147   0.327  11.280
  209MPD1    H6 3239   0.130   0.229  11.304
  209MPD1    H7 3240   0.207   0.330  11.198
  210MPD1     C 3241   1.120   1.451  11.498
  210MPD1    C1 3242   1.081   1.388  11.613
  210MPD1    C2 3243   0.956   1.327  11.613
  210MPD1    C3 3244   0.883   1.327  11.497
  210MPD1    C4 3245   0.926   1.395  11.384
  210MPD1    C5 3246   1.045   1.452  11.385
  210MPD1     H 3247   0.920   1.286  11.706
  210MPD1    H1 3248   0.880   1.392  11.286
  210MPD1    H2 3249   1.222   1.489  11.491
  210MPD1    H3 3250   1.082   1.490  11.290
  210MPD1     N 3251   0.762   1.252  11.474
  210MPD1    H5 3252   0.722   1.247  11.381
  210MPD1    N1 3253   1.174   1.389  11.718
  210MPD1    H6 3254   1.264   1.390  11.671
  210MPD1    H7 3255   1.159   1.296  11.755
  211MPD1     C 3256   2.615   0.351  16.772
  211MPD1    C1 3257   2.653   0.477  16.725
  211MPD1    C2 3258   2.561   0.555  16.660
  211MPD1    C3 3259   2.429   0.502  16.637
  211MPD1    C4 3260   2.404   0.370  16.670
  211MPD1    C5 3261   2.493   0.300  16.738
  211MPD1     H 3262   2.588   0.654  16.625
  211MPD1    H1 3263   2.309   0.319  16.654
  211MPD1    H2 3264   2.686   0.297  16.834
  211MPD1    H3 3265   2.478   0.195  16.762
  211MPD1     N 3266   2.338   0.571  16.550
  211MPD1    H5 3267   2.371   0.658  16.509
  211MPD1    N1 3268   2.778   0.535  16.763
  211MPD1    H6 3269   2.853   0.468  16.779
  211MPD1    H7 3270   2.802   0.598  16.686
  212MPD1     C 3271   1.568   3.952  16.679
  212MPD1    C1 3272   1.468   4.033  16.720
  212MPD1    C2 3273   1.372   3.980  16.801
  212MPD1    C3 3274   1.384   3.857  16.857
  212MPD1    C4 3275   1.489   3.779  16.826
  212MPD1    C5 3276   1.584   3.832  16.739
  212MPD1     H 3277   1.288   4.042  16.830
  212MPD1    H1 3278   1.516   3.683  16.868
  212MPD1    H2 3279   1.651   3.977  16.614
  212MPD1    H3 3280   1.670   3.773  16.709
  212MPD1     N 3281   1.288   3.794  16.946
  212MPD1    H5 3282   1.322   3.709  16.992
  212MPD1    N1 3283   1.452   4.156  16.650
  212MPD1    H6 3284   1.369   4.209  16.676
  212MPD1    H7 3285   1.537   4.212  16.656
  213MPD1     C 3286   4.792   4.253  15.671
  213MPD1    C1 3287   0.017   4.347  15.577
  213MPD1    C2 3288   4.715   4.417  15.521
  213MPD1    C3 3289   4.582   4.391  15.550
  213MPD1    C4 3290   4.552   4.295  15.643
  213MPD1    C5 3291   4.655   4.225  15.705
  213MPD1     H 3292   4.730   4.506  15.461
  213MPD1    H1 3293   4.448   4.272  15.667
  213MPD1    H2 3294   0.069   4.198  15.715
  213MPD1    H3 3295   4.635   4.139  15.769
  213MPD1     N 3296   4.479   4.459  15.470
  213MPD1    H5 3297   4.519   4.515  15.395
  213MPD1    N1 3298   0.145   4.395  15.574
  213MPD1    H6 3299   0.148   4.458  15.494
  213MPD1    H7 3300   0.210   4.322  15.547
  214MPD1     C 3301   3.468   4.214  15.499
  214MPD1    C1 3302   3.517   4.214  15.370
  214MPD1    C2 3303   3.641   4.279  15.344
  214MPD1    C3 3304   3.708   4.347  15.443
  214MPD1    C4 3305   3.654   4.347  15.574
  214MPD1    C5 3306   3.531   4.289  15.599
  214MPD1     H 3307   3.683   4.280  15.244
  214MPD1    H1 3308   3.718   4.405  15.640
  214MPD1    H2 3309   3.377   4.161  15.523
  214MPD1    H3 3310   3.497   4.303  15.701
  214MPD1     N 3311   3.840   4.401  15.422
  214MPD1    H5 3312   3.892   4.439  15.501
  214MPD1    N1 3313   3.462   4.120  15.278
  214MPD1    H6 3314   3.362   4.110  15.290
  214MPD1    H7 3315   3.484   4.138  15.180
  215MPD1     C 3316   4.485   0.098  11.067
  215MPD1    C1 3317   4.587   0.087  11.148
  215MPD1    C2 3318   4.649   0.199  11.199
  215MPD1    C3 3319   4.595   0.324  11.177
  215MPD1    C4 3320   4.481   0.331  11.102
  215MPD1    C5 3321   4.422   0.217  11.045
  215MPD1     H 3322   4.744   0.185  11.251
  215MPD1    H1 3323   4.447   0.429  11.071
  215MPD1    H2 3324   4.442   0.015  11.011
  215MPD1    H3 3325   4.340   0.228  10.975
  215MPD1     N 3326   4.661   0.439  11.234
  215MPD1    H5 3327   4.758   0.424  11.260
  215MPD1    N1 3328   4.647   4.762  11.149
  215MPD1    H6 3329   4.585   4.686  11.121
  215MPD1    H7 3330   4.681   4.726  11.238
  216MPD1     C 3331   1.411   3.773  17.267
  216MPD1    C1 3332   1.461   3.643  17.240
  216MPD1    C2 3333   1.408   3.538  17.304
  216MPD1    C3 3334   1.307   3.550  17.400
  216MPD1    C4 3335   1.267   3.675  17.437
  216MPD1    C5 3336   1.321   3.788  17.370
  216MPD1     H 3337   1.447   3.441  17.274
  216MPD1    H1 3338   1.200   3.690  17.520
  216MPD1    H2 3339   1.437   3.858  17.205
  216MPD1    H3 3340   1.288   3.885  17.405
  216MPD1     N 3341   1.258   3.429  17.462
  216MPD1    H5 3342   1.289   3.343  17.418
  216MPD1    N1 3343   1.540   3.619  17.123
  216MPD1    H6 3344   1.584   3.528  17.114
  216MPD1    H7 3345   1.616   3.687  17.122
  217MPD1     C 3346   1.669   0.265   8.800
  217MPD1    C1 3347   1.621   0.297   8.926
  217MPD1    C2 3348   1.716   0.328   9.020
  217MPD1    C3 3349   1.852   0.327   8.993
  217MPD1    C4 3350   1.899   0.289   8.871
  217MPD1    C5 3351   1.803   0.258   8.777
  217MPD1     H 3352   1.685   0.363   9.117
  217MPD1    H1 3353   2.005   0.278   8.851
  217MPD1    H2 3354   1.591   0.249   8.726
  217MPD1    H3 3355   1.846   0.226   8.682
  217MPD1     N 3356   1.956   0.364   9.086
  217MPD1    H5 3357   2.054   0.357   9.060
  217MPD1    N1 3358   1.491   0.346   8.942
  217MPD1    H6 3359   1.423   0.286   8.894
  217MPD1    H7 3360   1.464   0.356   9.039
  218MPD1     C 3361   3.810   1.496  13.056
  218MPD1    C1 3362   3.920   1.529  12.972
  218MPD1    C2 3363   3.986   1.424  12.911
  218MPD1    C3 3364   3.948   1.290  12.925
  218MPD1    C4 3365   3.840   1.268  13.010
  218MPD1    C5 3366   3.778   1.369  13.074
  218MPD1     H 3367   4.069   1.455  12.848
  218MPD1    H1 3368   3.812   1.170  13.049
  218MPD1    H2 3369   3.749   1.569  13.108
  218MPD1    H3 3370   3.709   1.340  13.152
  218MPD1     N 3371   4.024   1.195  12.863
  218MPD1    H5 3372   4.094   1.234  12.801
  218MPD1    N1 3373   3.986   1.655  12.975
  218MPD1    H6 3374   4.022   1.682  12.884
  218MPD1    H7 3375   3.920   1.725  13.009
  219MPD1     C 3376   4.434   1.070  11.988
  219MPD1    C1 3377   4.376   1.175  12.055
  219MPD1    C2 3378   4.315   1.131  12.174
  219MPD1    C3 3379   4.321   1.004  12.225
  219MPD1    C4 3380   4.392   0.911  12.159
  219MPD1    C5 3381   4.445   0.944  12.038
  219MPD1     H 3382   4.261   1.206  12.231
  219MPD1    H1 3383   4.400   0.808  12.195
  219MPD1    H2 3384   4.469   1.083  11.887
  219MPD1    H3 3385   4.490   0.866  11.979
  219MPD1     N 3386   4.269   0.975  12.357
  219MPD1    H5 3387   4.287   0.882  12.394
  219MPD1    N1 3388   4.349   1.302  12.001
  219MPD1    H6 3389   4.331   1.370  12.075
  219MPD1    H7 3390   4.422   1.333  11.937
  220MPD1     C 3391   4.045   2.071  10.303
  220MPD1    C1 3392   4.060   2.085  10.442
  220MPD1    C2 3393   4.077   1.977  10.522
  220MPD1    C3 3394   4.046   1.848  10.474
  220MPD1    C4 3395   4.015   1.829  10.342
  220MPD1    C5 3396   4.015   1.939  10.263
  220MPD1     H 3397   4.095   1.987  10.629
  220MPD1    H1 3398   4.001   1.728  10.306
  220MPD1    H2 3399   4.050   2.149  10.228
  220MPD1    H3 3400   4.009   1.918  10.157
  220MPD1     N 3401   4.049   1.749  10.571
  220MPD1    H5 3402   4.072   1.780  10.665
  220MPD1    N1 3403   4.084   2.215  10.485
  220MPD1    H6 3404   4.046   2.286  10.424
  220MPD1    H7 3405   4.058   2.227  10.583
  221MPD1     C 3406   1.433   0.049  16.504
  221MPD1    C1 3407   1.522   0.070  16.608
  221MPD1    C2 3408   1.652   0.029  16.589
  221MPD1    C3 3409   1.694   4.794  16.462
  221MPD1    C4 3410   1.601   4.789  16.359
  221MPD1    C5 3411   1.473   0.016  16.378
  221MPD1     H 3412   1.722   0.049  16.670
  221MPD1    H1 3413   1.631   4.764  16.258
  221MPD1    H2 3414   1.325   0.055  16.505
  221MPD1    H3 3415   1.404   0.021  16.295
  221MPD1     N 3416   1.819   4.736  16.433
  221MPD1    H5 3417   1.840   4.709  16.338
  221MPD1    N1 3418   1.467   0.114  16.729
  221MPD1    H6 3419   1.539   0.169  16.775
  221MPD1    H7 3420   1.378   0.163  16.733
  222MPD1     C 3421   0.690   3.467  17.885
  222MPD1    C1 3422   0.764   3.526  17.782
  222MPD1    C2 3423   0.785   3.662  17.797
  222MPD1    C3 3424   0.749   3.732  17.917
  222MPD1    C4 3425   0.676   3.663  18.014
  222MPD1    C5 3426   0.652   3.528  18.003
  222MPD1     H 3427   0.834   3.711  17.713
  222MPD1    H1 3428   0.645   3.718  18.103
  222MPD1    H2 3429   0.663   3.363  17.869
  222MPD1    H3 3430   0.604   3.467  18.078
  222MPD1     N 3431   0.751   3.871  17.926
  222MPD1    H5 3432   0.691   3.909  17.999
  222MPD1    N1 3433   0.781   3.462  17.656
  222MPD1    H6 3434   0.859   3.503  17.604
  222MPD1    H7 3435   0.780   3.360  17.655
  223MPD1     C 3436   0.183   4.660  18.088
  223MPD1    C1 3437   0.278   4.650  18.185
  223MPD1    C2 3438   0.395   4.580  18.157
  223MPD1    C3 3439   0.416   4.512  18.040
  223MPD1    C4 3440   0.321   4.531  17.940
  223MPD1    C5 3441   0.203   4.592  17.971
  223MPD1     H 3442   0.473   4.577  18.232
  223MPD1    H1 3443   0.330   4.492  17.840
  223MPD1    H2 3444   0.091   4.716  18.089
  223MPD1    H3 3445   0.133   4.594  17.888
  223MPD1     N 3446   0.534   4.435  18.018
  223MPD1    H5 3447   0.606   4.436  18.090
  223MPD1    N1 3448   0.259   4.724  18.303
  223MPD1    H6 3449   0.159   4.737  18.312
  223MPD1    H7 3450   0.297   4.675  18.383
  224MPD1     C 3451   2.275   0.747   9.151
  224MPD1    C1 3452   2.258   0.863   9.224
  224MPD1    C2 3453   2.336   0.877   9.338
  224MPD1    C3 3454   2.439   0.787   9.377
  224MPD1    C4 3455   2.462   0.678   9.293
  224MPD1    C5 3456   2.373   0.661   9.185
  224MPD1     H 3457   2.300   0.959   9.399
  224MPD1    H1 3458   2.534   0.600   9.312
  224MPD1    H2 3459   2.217   0.715   9.066
  224MPD1    H3 3460   2.389   0.570   9.128
  224MPD1     N 3461   2.515   0.801   9.494
  224MPD1    H5 3462   2.585   0.736   9.527
  224MPD1    N1 3463   2.155   0.950   9.187
  224MPD1    H6 3464   2.158   0.951   9.085
  224MPD1    H7 3465   2.178   1.046   9.212
  225MPD1     C 3466   4.212   2.160  12.981
  225MPD1    C1 3467   4.139   2.085  13.069
  225MPD1    C2 3468   4.011   2.039  13.037
  225MPD1    C3 3469   3.962   2.069  12.910
  225MPD1    C4 3470   4.029   2.156  12.825
  225MPD1    C5 3471   4.155   2.192  12.863
  225MPD1     H 3472   3.961   1.972  13.106
  225MPD1    H1 3473   3.984   2.172  12.728
  225MPD1    H2 3474   4.313   2.191  13.002
  225MPD1    H3 3475   4.207   2.264  12.801
  225MPD1     N 3476   3.839   2.013  12.868
  225MPD1    H5 3477   3.795   2.044  12.782
  225MPD1    N1 3478   4.213   2.033  13.174
  225MPD1    H6 3479   4.145   1.997  13.241
  225MPD1    H7 3480   4.267   2.094  13.235
  226MPD1     C 3481   1.973   1.292   9.244
  226MPD1    C1 3482   2.012   1.266   9.377
  226MPD1    C2 3483   2.019   1.375   9.465
  226MPD1    C3 3484   2.002   1.506   9.417
  226MPD1    C4 3485   1.968   1.531   9.285
  226MPD1    C5 3486   1.948   1.422   9.205
  226MPD1     H 3487   2.041   1.362   9.570
  226MPD1    H1 3488   1.955   1.630   9.244
  226MPD1    H2 3489   1.971   1.209   9.174
  226MPD1    H3 3490   1.906   1.430   9.105
  226MPD1     N 3491   2.022   1.613   9.507
  226MPD1    H5 3492   2.069   1.582   9.591
  226MPD1    N1 3493   2.025   1.135   9.433
  226MPD1    H6 3494   2.052   1.065   9.364
  226MPD1    H7 3495   2.076   1.119   9.520
  227MPD1     C 3496   1.644   2.536   9.584
  227MPD1    C1 3497   1.576   2.418   9.596
  227MPD1    C2 3498   1.646   2.304   9.625
  227MPD1    C3 3499   1.779   2.304   9.663
  227MPD1    C4 3500   1.836   2.430   9.677
  227MPD1    C5 3501   1.770   2.543   9.631
  227MPD1     H 3502   1.598   2.207   9.623
  227MPD1    H1 3503   1.928   2.452   9.730
  227MPD1    H2 3504   1.588   2.626   9.563
  227MPD1    H3 3505   1.816   2.641   9.643
  227MPD1     N 3506   1.843   2.181   9.695
  227MPD1    H5 3507   1.790   2.095   9.687
  227MPD1    N1 3508   1.440   2.403   9.558
  227MPD1    H6 3509   1.397   2.330   9.613
  227MPD1    H7 3510   1.382   2.483   9.584
  228MPD1     C 3511   1.100   4.576  12.675
  228MPD1    C1 3512   0.992   4.646  12.617
  228MPD1    C2 3513   0.865   4.599  12.640
  228MPD1    C3 3514   0.838   4.503  12.745
  228MPD1    C4 3515   0.947   4.433  12.803
  228MPD1    C5 3516   1.074   4.475  12.769
  228MPD1     H 3517   0.783   4.654  12.596
  228MPD1    H1 3518   0.937   4.360  12.883
  228MPD1    H2 3519   1.201   4.606  12.648
  228MPD1    H3 3520   1.158   4.427  12.818
  228MPD1     N 3521   0.703   4.487  12.774
  228MPD1    H5 3522   0.639   4.548  12.725
  228MPD1    N1 3523   1.022   4.743  12.517
  228MPD1    H6 3524   1.111   4.786  12.539
  228MPD1    H7 3525   0.949   0.008  12.504
  229MPD1     C 3526   0.428   3.192  14.602
  229MPD1    C1 3527   0.343   3.107  14.669
  229MPD1    C2 3528   0.375   3.081  14.799
  229MPD1    C3 3529   0.501   3.112  14.855
  229MPD1    C4 3530   0.590   3.181  14.777
  229MPD1    C5 3531   0.556   3.218  14.651
  229MPD1     H 3532   0.300   3.030  14.858
  229MPD1    H1 3533   0.691   3.202  14.811
  229MPD1    H2 3534   0.400   3.223  14.502
  229MPD1    H3 3535   0.621   3.276  14.587
  229MPD1     N 3536   0.543   3.066  14.982
  229MPD1    H5 3537   0.635   3.096  15.013
  229MPD1    N1 3538   0.207   3.090  14.620
  229MPD1    H6 3539   0.212   3.084  14.518
  229MPD1    H7 3540   0.163   3.003  14.648
  230MPD1     C 3541   1.087   3.076  15.799
  230MPD1    C1 3542   1.101   2.949  15.760
  230MPD1    C2 3543   1.007   2.893  15.678
  230MPD1    C3 3544   0.908   2.976  15.623
  230MPD1    C4 3545   0.902   3.111  15.657
  230MPD1    C5 3546   0.987   3.159  15.753
  230MPD1     H 3547   1.016   2.788  15.652
  230MPD1    H1 3548   0.834   3.176  15.603
  230MPD1    H2 3549   1.156   3.117  15.872
  230MPD1    H3 3550   0.995   3.266  15.772
  230MPD1     N 3551   0.831   2.917  15.514
  230MPD1    H5 3552   0.824   2.816  15.504
  230MPD1    N1 3553   1.194   2.865  15.824
  230MPD1    H6 3554   1.277   2.911  15.861
  230MPD1    H7 3555   1.221   2.782  15.772
  231MPD1     C 3556   3.500   4.624  15.972
  231MPD1    C1 3557   3.413   4.667  15.881
  231MPD1    C2 3558   3.448   4.670  15.747
  231MPD1    C3 3559   3.585   4.669  15.712
  231MPD1    C4 3560   3.670   4.635  15.811
  231MPD1    C5 3561   3.632   4.614  15.939
  231MPD1     H 3562   3.374   4.702  15.674
  231MPD1    H1 3563   3.777   4.648  15.798
  231MPD1    H2 3564   3.458   4.605  16.070
  231MPD1    H3 3565   3.714   4.598  16.008
  231MPD1     N 3566   3.631   4.704  15.584
  231MPD1    H5 3567   3.562   4.735  15.516
  231MPD1    N1 3568   3.273   4.673  15.914
  231MPD1    H6 3569   3.264   4.684  16.014
  231MPD1    H7 3570   3.219   4.744  15.864
  232MPD1     C 3571   0.607   2.694  18.427
  232MPD1    C1 3572   0.562   2.608  18.328
  232MPD1    C2 3573   0.499   2.495  18.370
  232MPD1    C3 3574   0.486   2.478  18.508
  232MPD1    C4 3575   0.531   2.564  18.604
  232MPD1    C5 3576   0.592   2.674  18.558
  232MPD1     H 3577   0.470   2.407  18.314
  232MPD1    H1 3578   0.517   2.542  18.709
  232MPD1    H2 3579   0.673   2.776  18.401
  232MPD1    H3 3580   0.637   2.740  18.631
  232MPD1     N 3581   0.418   2.359  18.545
  232MPD1    H5 3582   0.382   2.301  18.470
  232MPD1    N1 3583   0.616   2.607  18.203
  232MPD1    H6 3584   0.553   2.563  18.136
  232MPD1    H7 3585   0.630   2.701  18.165
  233MPD1     C 3586   1.919   0.265  17.963
  233MPD1    C1 3587   1.810   0.249  18.050
  233MPD1    C2 3588   1.807   0.321  18.170
  233MPD1    C3 3589   1.915   0.392  18.205
  233MPD1    C4 3590   2.034   0.392  18.128
  233MPD1    C5 3591   2.029   0.331  18.010
  233MPD1     H 3592   1.720   0.334  18.234
  233MPD1    H1 3593   2.123   0.447  18.155
  233MPD1    H2 3594   1.923   0.227  17.861
  233MPD1    H3 3595   2.109   0.322  17.938
  233MPD1     N 3596   1.919   0.479  18.312
  233MPD1    H5 3597   2.009   0.524  18.328
  233MPD1    N1 3598   1.692   0.192  18.004
  233MPD1    H6 3599   1.655   0.129  18.075
  233MPD1    H7 3600   1.717   0.135  17.923
  234MPD1     C 3601   3.142   4.000   9.719
  234MPD1    C1 3602   3.081   4.059   9.614
  234MPD1    C2 3603   3.060   4.194   9.623
  234MPD1    C3 3604   3.075   4.271   9.740
  234MPD1    C4 3605   3.120   4.204   9.853
  234MPD1    C5 3606   3.163   4.075   9.831
  234MPD1     H 3607   3.020   4.237   9.532
  234MPD1    H1 3608   3.127   4.231   9.958
  234MPD1    H2 3609   3.167   3.895   9.722
  234MPD1    H3 3610   3.199   4.033   9.924
  234MPD1     N 3611   3.029   4.405   9.749
  234MPD1    H5 3612   2.988   4.453   9.669
  234MPD1    N1 3613   3.066   3.999   9.486
  234MPD1    H6 3614   3.004   4.052   9.425
  234MPD1    H7 3615   3.024   3.908   9.504
  235MPD1     C 3616   4.632   1.866  10.924
  235MPD1    C1 3617   4.573   1.897  10.805
  235MPD1    C2 3618   4.629   1.996  10.731
  235MPD1    C3 3619   4.755   2.052  10.763
  235MPD1    C4 3620   0.024   1.998  10.871
  235MPD1    C5 3621   4.759   1.919  10.956
  235MPD1     H 3622   4.580   2.029  10.640
  235MPD1    H1 3623   0.128   2.020  10.891
  235MPD1    H2 3624   4.591   1.795  10.994
  235MPD1    H3 3625   0.016   1.893  11.042
  235MPD1     N 3626   4.797   2.154  10.675
  235MPD1    H5 3627   4.730   2.186  10.606
  235MPD1    N1 3628   4.438   1.855  10.765
  235MPD1    H6 3629   4.416   1.764  10.806
  235MPD1    H7 3630   4.415   1.854  10.666
  236MPD1     C 3631   3.618   3.501  10.051
  236MPD1    C1 3632   3.604   3.369  10.008
  236MPD1    C2 3633   3.709   3.283  10.041
  236MPD1    C3 3634   3.829   3.332  10.082
  236MPD1    C4 3635   3.841   3.465  10.118
  236MPD1    C5 3636   3.741   3.550  10.096
  236MPD1     H 3637   3.700   3.176  10.025
  236MPD1    H1 3638   3.936   3.510  10.146
  236MPD1    H2 3639   3.530   3.564  10.046
  236MPD1    H3 3640   3.762   3.655  10.115
  236MPD1     N 3641   3.943   3.257  10.113
  236MPD1    H5 3642   4.008   3.308  10.172
  236MPD1    N1 3643   3.472   3.319   9.979
  236MPD1    H6 3644   3.469   3.227   9.937
  236MPD1    H7 3645   3.405   3.381   9.935
  237MPD1     C 3646   4.269   1.067  15.318
  237MPD1    C1 3647   4.195   1.130  15.420
  237MPD1    C2 3648   4.062   1.096  15.441
  237MPD1    C3 3649   3.998   1.014  15.352
  237MPD1    C4 3650   4.068   0.973  15.237
  237MPD1    C5 3651   4.204   1.002  15.212
  237MPD1     H 3652   4.019   1.120  15.538
  237MPD1    H1 3653   4.020   0.910  15.163
  237MPD1    H2 3654   4.375   1.085  15.310
  237MPD1    H3 3655   4.259   0.955  15.132
  237MPD1     N 3656   3.861   0.977  15.370
  237MPD1    H5 3657   3.823   0.910  15.305
  237MPD1    N1 3658   4.263   1.206  15.512
  237MPD1    H6 3659   4.350   1.242  15.472
  237MPD1    H7 3660   4.202   1.277  15.552
  238MPD1     C 3661   0.905   0.189  14.978
  238MPD1    C1 3662   0.824   0.114  15.057
  238MPD1    C2 3663   0.727   0.038  14.998
  238MPD1    C3 3664   0.701   0.039  14.858
  238MPD1    C4 3665   0.779   0.124  14.783
  238MPD1    C5 3666   0.880   0.197  14.841
  238MPD1     H 3667   0.666   4.782  15.064
  238MPD1    H1 3668   0.751   0.135  14.679
  238MPD1    H2 3669   0.976   0.250  15.033
  238MPD1    H3 3670   0.938   0.264  14.779
  238MPD1     N 3671   0.596   4.778  14.788
  238MPD1    H5 3672   0.575   0.001  14.692
  238MPD1    N1 3673   0.856   0.102  15.196
  238MPD1    H6 3674   0.900   0.184  15.238
  238MPD1    H7 3675   0.780   0.074  15.257
  239MPD1     C 3676   0.830   0.462  15.149
  239MPD1    C1 3677   0.949   0.529  15.112
  239MPD1    C2 3678   0.935   0.631  15.018
  239MPD1    C3 3679   0.810   0.688  14.988
  239MPD1    C4 3680   0.695   0.630  15.042
  239MPD1    C5 3681   0.703   0.510  15.100
  239MPD1     H 3682   1.019   0.665  14.959
  239MPD1    H1 3683   0.597   0.674  15.028
  239MPD1    H2 3684   0.840   0.369  15.203
  239MPD1    H3 3685   0.611   0.453  15.108
  239MPD1     N 3686   0.790   0.793  14.885
  239MPD1    H5 3687   0.699   0.788  14.842
  239MPD1    N1 3688   1.065   0.456  15.143
  239MPD1    H6 3689   1.052   0.405  15.230
  239MPD1    H7 3690   1.152   0.509  15.149
  240MPD1     C 3691   4.679   0.907  13.703
  240MPD1    C1 3692   4.586   0.810  13.734
  240MPD1    C2 3693   4.616   0.696  13.814
  240MPD1    C3 3694   4.741   0.690  13.864
  240MPD1    C4 3695   0.029   0.785  13.834
  240MPD1    C5 3696   4.802   0.887  13.751
  240MPD1     H 3697   4.540   0.620  13.830
  240MPD1    H1 3698   0.125   0.792  13.883
  240MPD1    H2 3699   4.651   1.000  13.656
  240MPD1    H3 3700   0.079   0.957  13.737
  240MPD1     N 3701   4.778   0.583  13.952
  240MPD1    H5 3702   4.705   0.518  13.980
  240MPD1    N1 3703   4.454   0.830  13.685
  240MPD1    H6 3704   4.394   0.761  13.731
  240MPD1    H7 3705   4.429   0.926  13.709
  241MPD1     C 3706   0.508   0.311  14.870
  241MPD1    C1 3707   0.542   0.399  14.767
  241MPD1    C2 3708   0.458   0.397  14.659
  241MPD1    C3 3709   0.351   0.315  14.645
  241MPD1    C4 3710   0.311   0.237  14.757
  241MPD1    C5 3711   0.397   0.233  14.859
  241MPD1     H 3712   0.473   0.478  14.588
  241MPD1    H1 3713   0.223   0.174  14.754
  241MPD1    H2 3714   0.577   0.300  14.953
  241MPD1    H3 3715   0.374   0.168  14.943
  241MPD1     N 3716   0.261   0.321  14.533
  241MPD1    H5 3717   0.169   0.280  14.531
  241MPD1    N1 3718   0.638   0.502  14.778
  241MPD1    H6 3719   0.709   0.477  14.847
  241MPD1    H7 3720   0.683   0.509  14.687
  242MPD1     C 3721   4.632   3.408  16.218
  242MPD1    C1 3722   4.761   3.369  16.195
  242MPD1    C2 3723   0.028   3.417  16.088
  242MPD1    C3 3724   4.770   3.493  15.991
  242MPD1    C4 3725   4.644   3.535  16.012
  242MPD1    C5 3726   4.574   3.488  16.124
  242MPD1     H 3727   0.130   3.383  16.069
  242MPD1    H1 3728   4.593   3.598  15.940
  242MPD1    H2 3729   4.569   3.365  16.295
  242MPD1    H3 3730   4.468   3.508  16.135
  242MPD1     N 3731   0.030   3.538  15.873
  242MPD1    H5 3732   4.785   3.595  15.805
  242MPD1    N1 3733   0.030   3.299  16.295
  242MPD1    H6 3734   0.111   3.245  16.265
  242MPD1    H7 3735   4.780   3.236  16.353
  243MPD1     C 3736   1.167   2.318  18.430
  243MPD1    C1 3737   1.152   2.210  18.350
  243MPD1    C2 3738   1.251   2.181  18.252
  243MPD1    C3 3739   1.349   2.270  18.227
  243MPD1    C4 3740   1.356   2.386  18.309
  243MPD1    C5 3741   1.271   2.407  18.412
  243MPD1     H 3742   1.247   2.085  18.201
  243MPD1    H1 3743   1.436   2.459  18.296
  243MPD1    H2 3744   1.091   2.324  18.507
  243MPD1    H3 3745   1.283   2.490  18.481
  243MPD1     N 3746   1.427   2.238  18.117
  243MPD1    H5 3747   1.414   2.149  18.070
  243MPD1    N1 3748   1.054   2.117  18.386
  243MPD1    H6 3749   1.033   2.057  18.306
  243MPD1    H7 3750   0.976   2.163  18.432
  244MPD1     C 3751   1.600   1.450  17.953
  244MPD1    C1 3752   1.497   1.521  18.010
  244MPD1    C2 3753   1.495   1.653  17.984
  244MPD1    C3 3754   1.574   1.716  17.890
  244MPD1    C4 3755   1.665   1.640  17.821
  244MPD1    C5 3756   1.672   1.503  17.855
  244MPD1     H 3757   1.438   1.723  18.044
  244MPD1    H1 3758   1.736   1.675  17.747
  244MPD1    H2 3759   1.626   1.349  17.983
  244MPD1    H3 3760   1.747   1.447  17.802
  244MPD1     N 3761   1.569   1.859  17.875
  244MPD1    H5 3762   1.501   1.914  17.928
  244MPD1    N1 3763   1.433   1.464  18.118
  244MPD1    H6 3764   1.338   1.495  18.140
  244MPD1    H7 3765   1.426   1.366  18.091
  245MPD1     C 3766   3.923   2.107  13.468
  245MPD1    C1 3767   3.936   2.123  13.604
  245MPD1    C2 3768   3.904   2.238  13.664
  245MPD1    C3 3769   3.870   2.354  13.593
  245MPD1    C4 3770   3.859   2.341  13.456
  245MPD1    C5 3771   3.883   2.218  13.399
  245MPD1     H 3772   3.888   2.231  13.771
  245MPD1    H1 3773   3.839   2.425  13.390
  245MPD1    H2 3774   3.941   2.013  13.416
  245MPD1    H3 3775   3.886   2.199  13.292
  245MPD1     N 3776   3.852   2.477  13.662
  245MPD1    H5 3777   3.879   2.473  13.760
  245MPD1    N1 3778   3.941   2.004  13.677
  245MPD1    H6 3779   3.972   2.013  13.773
  245MPD1    H7 3780   4.009   1.943  13.632
  246MPD1     C 3781   4.603   4.627   8.465
  246MPD1    C1 3782   4.484   4.620   8.544
  246MPD1    C2 3783   4.495   4.622   8.681
  246MPD1    C3 3784   4.622   4.602   8.729
  246MPD1    C4 3785   4.735   4.603   8.650
  246MPD1    C5 3786   4.727   4.620   8.519
  246MPD1     H 3787   4.410   4.647   8.744
  246MPD1    H1 3788   0.035   4.603   8.678
  246MPD1    H2 3789   4.596   4.626   8.356
  246MPD1    H3 3790   0.007   4.616   8.452
  246MPD1     N 3791   4.639   4.592   8.872
  246MPD1    H5 3792   4.560   4.595   8.936
  246MPD1    N1 3793   4.362   4.628   8.482
  246MPD1    H6 3794   4.361   4.592   8.387
  246MPD1    H7 3795   4.288   4.580   8.532
  247MPD1     C 3796   2.527   2.609  15.360
  247MPD1    C1 3797   2.581   2.742  15.348
  247MPD1    C2 3798   2.678   2.782  15.438
  247MPD1    C3 3799   2.720   2.704  15.541
  247MPD1    C4 3800   2.668   2.578  15.553
  247MPD1    C5 3801   2.569   2.534  15.466
  247MPD1     H 3802   2.729   2.874  15.412
  247MPD1    H1 3803   2.702   2.525  15.641
  247MPD1    H2 3804   2.450   2.574  15.292
  247MPD1    H3 3805   2.527   2.436  15.488
  247MPD1     N 3806   2.818   2.739  15.637
  247MPD1    H5 3807   2.850   2.659  15.692
  247MPD1    N1 3808   2.564   2.826  15.240
  247MPD1    H6 3809   2.469   2.815  15.206
  247MPD1    H7 3810   2.581   2.926  15.249
  248MPD1     C 3811   3.848   2.329  17.809
  248MPD1    C1 3812   3.743   2.410  17.842
  248MPD1    C2 3813   3.671   2.354  17.944
  248MPD1    C3 3814   3.710   2.255  18.029
  248MPD1    C4 3815   3.826   2.193  17.999
  248MPD1    C5 3816   3.891   2.228  17.883
  248MPD1     H 3817   3.578   2.406  17.965
  248MPD1    H1 3818   3.855   2.106  18.057
  248MPD1    H2 3819   3.910   2.361  17.725
  248MPD1    H3 3820   3.976   2.172  17.848
  248MPD1     N 3821   3.625   2.215  18.135
  248MPD1    H5 3822   3.537   2.262  18.154
  248MPD1    N1 3823   3.692   2.505  17.753
  248MPD1    H6 3824   3.764   2.544  17.693
  248MPD1    H7 3825   3.650   2.582  17.806
  249MPD1     C 3826   0.357   1.434  10.539
  249MPD1    C1 3827   0.462   1.429  10.630
  249MPD1    C2 3828   0.546   1.538  10.635
  249MPD1    C3 3829   0.536   1.643  10.550
  249MPD1    C4 3830   0.434   1.632  10.461
  249MPD1    C5 3831   0.340   1.538  10.450
  249MPD1     H 3832   0.627   1.538  10.706
  249MPD1    H1 3833   0.422   1.714  10.391
  249MPD1    H2 3834   0.282   1.357  10.533
  249MPD1    H3 3835   0.255   1.552  10.384
  249MPD1     N 3836   0.628   1.745  10.567
  249MPD1    H5 3837   0.694   1.740  10.644
  249MPD1    N1 3838   0.471   1.329  10.725
  249MPD1    H6 3839   0.397   1.352  10.791
  249MPD1    H7 3840   0.558   1.324  10.777
  250MPD2     C 3841   2.239   1.120  13.243
  250MPD2    C1 3842   2.138   1.212  13.264
  250MPD2    C2 3843   2.009   1.183  13.222
  250MPD2    C3 3844   1.978   1.054  13.169
  250MPD2    C4 3845   2.078   0.963  13.156
  250MPD2    C5 3846   2.209   0.999  13.193
  250MPD2     H 3847   1.929   1.256  13.227
  250MPD2    H1 3848   2.054   0.861  13.129
  250MPD2    H2 3849   2.341   1.135  13.277
  250MPD2    H3 3850   2.285   0.922  13.186
  250MPD2     N 3851   1.855   1.023  13.120
  250MPD2    H5 3852   1.847   0.930  13.080
  250MPD2    N1 3853   2.175   1.330  13.339
  250MPD2    H7 3854   2.274   1.348  13.355
  251TMC3    C1 3855   2.151   1.547  13.443
  251TMC3    C2 3856   2.079   1.663  13.429
  251TMC3    C3 3857   2.152   1.778  13.446
  251TMC3    C4 3858   2.277   1.549  13.481
  251TMC3    C5 3859   2.350   1.658  13.503
  251TMC3    C6 3860   2.289   1.779  13.468
  251TMC3     C 3861   2.091   1.434  13.376
  251TMC3     O 3862   1.973   1.439  13.359
  251TMC3     H 3863   1.970   1.663  13.426
  251TMC3    H1 3864   2.315   1.453  13.513
  251TMC3    H2 3865   2.341   1.874  13.477
  251TMC3    C7 3866   2.493   1.642  13.516
  251TMC3    C8 3867   2.069   1.892  13.462
  251TMC3    O1 3868   2.540   1.528  13.516
  251TMC3    O2 3869   1.954   1.872  13.501
  252TMC3    C1 3870   1.787   3.251   9.517
  252TMC3    C2 3871   1.891   3.277   9.595
  252TMC3    C3 3872   1.902   3.205   9.715
  252TMC3    C4 3873   1.702   3.156   9.549
  252TMC3    C5 3874   1.725   3.081   9.658
  252TMC3    C6 3875   1.822   3.101   9.745
  252TMC3     C 3876   1.798   3.291   9.378
  252TMC3     O 3877   1.770   3.209   9.290
  252TMC3     H 3878   1.955   3.358   9.563
  252TMC3    H1 3879   1.624   3.134   9.477
  252TMC3    H2 3880   1.832   3.046   9.837
  252TMC3    C7 3881   1.622   2.995   9.693
  252TMC3    C8 3882   2.016   3.248   9.790
  252TMC3    O1 3883   1.510   3.014   9.648
  252TMC3    O2 3884   2.057   3.362   9.765
  253MPD2     C 3885   3.113   1.260  15.477
  253MPD2    C1 3886   2.984   1.306  15.509
  253MPD2    C2 3887   2.959   1.357  15.632
  253MPD2    C3 3888   3.067   1.374  15.715
  253MPD2    C4 3889   3.194   1.335  15.682
  253MPD2    C5 3890   3.217   1.284  15.567
  253MPD2     H 3891   2.858   1.384  15.659
  253MPD2    H1 3892   3.275   1.348  15.753
  253MPD2    H2 3893   3.139   1.222  15.379
  253MPD2    H3 3894   3.320   1.266  15.537
  253MPD2     N 3895   3.048   1.427  15.849
  253MPD2    H5 3896   3.128   1.420  15.911
  253MPD2    N1 3897   2.875   1.310  15.411
  253MPD2    H7 3898   2.781   1.319  15.448
  254TMC3    C1 3899   2.928   1.491  16.046
  254TMC3    C2 3900   2.804   1.525  16.096
  254TMC3    C3 3901   2.788   1.511  16.231
  254TMC3    C4 3902   3.029   1.436  16.126
  254TMC3    C5 3903   3.004   1.422  16.261
  254TMC3    C6 3904   2.883   1.450  16.310
  254TMC3     C 3905   2.927   1.472  15.902
  254TMC3     O 3906   2.825   1.514  15.845
  254TMC3     H 3907   2.725   1.565  16.034
  254TMC3    H1 3908   3.122   1.394  16.090
  254TMC3    H2 3909   2.868   1.425  16.415
  254TMC3    C7 3910   3.088   1.343  16.347
  254TMC3    C8 3911   2.677   1.579  16.296
  254TMC3    O1 3912   3.035   1.283  16.437
  254TMC3    O2 3913   2.689   1.578  16.420
  255MPD2     C 3914   0.980   4.188  10.733
  255MPD2    C1 3915   1.106   4.230  10.744
  255MPD2    C2 3916   1.210   4.136  10.725
  255MPD2    C3 3917   1.183   4.008  10.675
  255MPD2    C4 3918   1.051   3.972  10.662
  255MPD2    C5 3919   0.952   4.058  10.701
  255MPD2     H 3920   1.316   4.157  10.737
  255MPD2    H1 3921   1.018   3.880  10.615
  255MPD2    H2 3922   0.896   4.253  10.757
  255MPD2    H3 3923   0.851   4.020  10.685
  255MPD2     N 3924   1.295   3.917  10.648
  255MPD2    H5 3925   1.388   3.951  10.669
  255MPD2    N1 3926   1.124   4.365  10.793
  255MPD2    H7 3927   1.043   4.424  10.809
  256TMC3    C1 3928   1.232   4.580  10.810
  256TMC3    C2 3929   1.313   4.656  10.727
  256TMC3    C3 3930   1.267   4.775  10.689
  256TMC3    C4 3931   1.112   4.619  10.857
  256TMC3    C5 3932   1.064   4.739  10.813
  256TMC3    C6 3933   1.142   0.011  10.734
  256TMC3     C 3934   1.244   4.432  10.789
  256TMC3     O 3935   1.353   4.388  10.753
  256TMC3     H 3936   1.410   4.621  10.692
  256TMC3    H1 3937   1.057   4.560  10.928
  256TMC3    H2 3938   1.103   0.098  10.683
  256TMC3    C7 3939   0.925   4.714  10.780
  256TMC3    C8 3940   1.315   0.009  10.557
  256TMC3    O1 3941   0.884   4.599  10.773
  256TMC3    O2 3942   1.358   4.724  10.486
  257MPD2     C 3943   0.662   1.572  13.394
  257MPD2    C1 3944   0.606   1.473  13.314
  257MPD2    C2 3945   0.561   1.351  13.369
  257MPD2    C3 3946   0.556   1.338  13.505
  257MPD2    C4 3947   0.605   1.441  13.585
  257MPD2    C5 3948   0.657   1.551  13.527
  257MPD2     H 3949   0.533   1.273  13.300
  257MPD2    H1 3950   0.606   1.437  13.693
  257MPD2    H2 3951   0.718   1.658  13.358
  257MPD2    H3 3952   0.706   1.625  13.589
  257MPD2     N 3953   0.507   1.214  13.566
  257MPD2    H5 3954   0.471   1.152  13.494
  257MPD2    N1 3955   0.623   1.495  13.176
  257MPD2    H7 3956   0.658   1.586  13.145
  258TMC3    C1 3957   0.477   1.043  13.726
  258TMC3    C2 3958   0.551   0.961  13.642
  258TMC3    C3 3959   0.558   0.831  13.679
  258TMC3    C4 3960   0.437   0.999  13.855
  258TMC3    C5 3961   0.464   0.868  13.886
  258TMC3    C6 3962   0.517   0.778  13.799
  258TMC3     C 3963   0.488   1.186  13.696
  258TMC3     O 3964   0.496   1.265  13.792
  258TMC3     H 3965   0.591   0.993  13.546
  258TMC3    H1 3966   0.405   1.077  13.923
  258TMC3    H2 3967   0.515   0.671  13.816
  258TMC3    C7 3968   0.449   0.837  14.028
  258TMC3    C8 3969   0.623   0.738  13.585
  258TMC3    O1 3970   0.362   0.887  14.096
  258TMC3    O2 3971   0.572   0.629  13.566
  259MPD2     C 3972   4.054   2.560  18.565
  259MPD2    C1 3973   4.134   2.457  18.619
  259MPD2    C2 3974   4.263   2.445  18.576
  259MPD2    C3 3975   4.310   2.539  18.482
  259MPD2    C4 3976   4.216   2.619  18.415
  259MPD2    C5 3977   4.090   2.633  18.458
  259MPD2     H 3978   4.329   2.380  18.631
  259MPD2    H1 3979   4.254   2.687  18.340
  259MPD2    H2 3980   3.956   2.574  18.609
  259MPD2    H3 3981   4.025   2.707  18.411
  259MPD2     N 3982   4.446   2.547  18.460
  259MPD2    H5 3983   4.508   2.496  18.522
  259MPD2    N1 3984   4.086   2.386  18.733
  259MPD2    H7 3985   4.006   2.429  18.778
  260TMC3    C1 3986   4.651   2.641  18.414
  260TMC3    C2 3987   4.749   2.662  18.322
  260TMC3    C3 3988   0.078   2.656  18.356
  260TMC3    C4 3989   4.688   2.623  18.545
  260TMC3    C5 3990   0.012   2.604  18.584
  260TMC3    C6 3991   0.109   2.620  18.488
  260TMC3     C 3992   4.515   2.636  18.381
  260TMC3     O 3993   4.472   2.711  18.293
  260TMC3     H 3994   4.723   2.666  18.217
  260TMC3    H1 3995   4.611   2.626  18.621
  260TMC3    H2 3996   0.208   2.583  18.513
  260TMC3    C7 3997   0.032   2.474  18.651
  260TMC3    C8 3998   0.150   2.577  18.258
  260TMC3    O1 3999   0.109   2.394  18.592
  260TMC3    O2 4000   0.183   2.625  18.150
  261MPD2     C 4001   1.414   0.903  12.517
  261MPD2    C1 4002   1.450   1.006  12.605
  261MPD2    C2 4003   1.444   1.134  12.549
  261MPD2    C3 4004   1.405   1.153  12.417
  261MPD2    C4 4005   1.372   1.046  12.337
  261MPD2    C5 4006   1.375   0.921  12.393
  261MPD2     H 4007   1.467   1.221  12.610
  261MPD2    H1 4008   1.328   1.068  12.241
  261MPD2    H2 4009   1.425   0.800  12.547
  261MPD2    H3 4010   1.324   0.848  12.331
  261MPD2     N 4011   1.385   1.284  12.360
  261MPD2    H5 4012   1.432   1.363  12.404
  261MPD2    N1 4013   1.491   0.990  12.739
  261MPD2    H7 4014   1.537   1.068  12.785
  262TMC3    C1 4015   1.306   1.458  12.232
  262TMC3    C2 4016   1.186   1.493  12.163
  262TMC3    C3 4017   1.197   1.532  12.030
  262TMC3    C4 4018   1.425   1.481  12.170
  262TMC3    C5 4019   1.431   1.527  12.041
  262TMC3    C6 4020   1.317   1.540  11.961
  262TMC3     C 4021   1.298   1.319  12.259
  262TMC3     O 4022   1.201   1.264  12.208
  262TMC3     H 4023   1.087   1.470  12.202
  262TMC3    H1 4024   1.518   1.467  12.225
  262TMC3    H2 4025   1.326   1.561  11.855
  262TMC3    C7 4026   1.546   1.602  11.997
  262TMC3    C8 4027   1.108   1.634  11.995
  262TMC3    O1 4028   1.646   1.608  12.070
  262TMC3    O2 4029   1.054   1.690  12.088
  263MPD2     C 4030   2.292   0.832  12.192
  263MPD2    C1 4031   2.384   0.835  12.088
  263MPD2    C2 4032   2.381   0.937  11.988
  263MPD2    C3 4033   2.279   1.026  12.000
  263MPD2    C4 4034   2.179   1.017  12.092
  263MPD2    C5 4035   2.189   0.920  12.193
  263MPD2     H 4036   2.445   0.946  11.901
  263MPD2    H1 4037   2.092   1.081  12.091
  263MPD2    H2 4038   2.310   0.766  12.277
  263MPD2    H3 4039   2.118   0.925  12.275
  263MPD2     N 4040   2.267   1.115  11.892
  263MPD2    H5 4041   2.330   1.095  11.815
  263MPD2    N1 4042   2.479   0.734  12.079
  263MPD2    H7 4043   2.481   0.664  12.152
  264TMC3    C1 4044   2.215   1.290  11.767
  264TMC3    C2 4045   2.210   1.426  11.757
  264TMC3    C3 4046   2.236   1.479  11.638
  264TMC3    C4 4047   2.247   1.210  11.655
  264TMC3    C5 4048   2.276   1.278  11.536
  264TMC3    C6 4049   2.259   1.407  11.525
  264TMC3     C 4050   2.185   1.225  11.887
  264TMC3     O 4051   2.135   1.286  11.980
  264TMC3     H 4052   2.162   1.468  11.845
  264TMC3    H1 4053   2.224   1.104  11.649
  264TMC3    H2 4054   2.286   1.457  11.433
  264TMC3    C7 4055   2.388   1.224  11.461
  264TMC3    C8 4056   2.344   1.578  11.648
  264TMC3    O1 4057   2.425   1.277  11.355
  264TMC3    O2 4058   2.432   1.565  11.567
  265MPD2     C 4059   4.298   0.770  15.815
  265MPD2    C1 4060   4.317   0.886  15.741
  265MPD2    C2 4061   4.355   0.864  15.614
  265MPD2    C3 4062   4.381   0.739  15.563
  265MPD2    C4 4063   4.366   0.631  15.642
  265MPD2    C5 4064   4.327   0.650  15.768
  265MPD2     H 4065   4.378   0.953  15.557
  265MPD2    H1 4066   4.385   0.529  15.609
  265MPD2    H2 4067   4.274   0.784  15.920
  265MPD2    H3 4068   4.292   0.567  15.830
  265MPD2     N 4069   4.439   0.725  15.434
  265MPD2    H5 4070   4.425   0.635  15.390
  265MPD2    N1 4071   4.292   1.024  15.786
  265MPD2    H7 4072   4.311   1.102  15.725
  266TMC3    C1 4073   4.294   1.202  15.944
  266TMC3    C2 4074   4.333   1.238  16.068
  266TMC3    C3 4075   4.343   1.369  16.094
  266TMC3    C4 4076   4.258   1.296  15.851
  266TMC3    C5 4077   4.261   1.429  15.882
  266TMC3    C6 4078   4.291   1.464  16.011
  266TMC3     C 4079   4.269   1.057  15.917
  266TMC3     O 4080   4.244   0.987  16.014
  266TMC3     H 4081   4.359   1.165  16.143
  266TMC3    H1 4082   4.200   1.267  15.764
  266TMC3    H2 4083   4.282   1.570  16.033
  266TMC3    C7 4084   4.220   1.521  15.775
  266TMC3    C8 4085   4.437   1.401  16.200
  266TMC3    O1 4086   4.184   1.470  15.671
  266TMC3    O2 4087   4.527   1.319  16.217
  267MPD2     C 4088   1.300   2.783  18.221
  267MPD2    C1 4089   1.357   2.892  18.161
  267MPD2    C2 4090   1.272   2.958  18.068
  267MPD2    C3 4091   1.145   2.915  18.040
  267MPD2    C4 4092   1.097   2.801  18.090
  267MPD2    C5 4093   1.176   2.733  18.182
  267MPD2     H 4094   1.308   3.043  18.010
  267MPD2    H1 4095   1.006   2.760  18.047
  267MPD2    H2 4096   1.358   2.717  18.285
  267MPD2    H3 4097   1.138   2.640  18.225
  267MPD2     N 4098   1.066   2.973  17.937
  267MPD2    H5 4099   0.990   2.921  17.894
  267MPD2    N1 4100   1.489   2.931  18.182
  267MPD2    H7 4101   1.539   2.864  18.239
  268TMC3    C1 4102   1.689   3.039  18.176
  268TMC3    C2 4103   1.779   3.085  18.090
  268TMC3    C3 4104   1.913   3.056  18.111
  268TMC3    C4 4105   1.720   2.970  18.294
  268TMC3    C5 4106   1.855   2.955  18.319
  268TMC3    C6 4107   1.950   3.001  18.234
  268TMC3     C 4108   1.557   3.035  18.133
  268TMC3     O 4109   1.518   3.128  18.063
  268TMC3     H 4110   1.747   3.136  18.000
  268TMC3    H1 4111   1.643   2.954  18.368
  268TMC3    H2 4112   2.052   2.966  18.250
  268TMC3    C7 4113   1.901   2.882  18.439
  268TMC3    C8 4114   2.015   3.136  18.053
  268TMC3    O1 4115   2.015   2.835  18.436
  268TMC3    O2 4116   2.104   3.149  18.135
  269MPD2     C 4117   2.144   1.551  15.844
  269MPD2    C1 4118   2.042   1.618  15.915
  269MPD2    C2 4119   2.018   1.755  15.884
  269MPD2    C3 4120   2.099   1.815  15.790
  269MPD2    C4 4121   2.201   1.750  15.727
  269MPD2    C5 4122   2.229   1.620  15.759
  269MPD2     H 4123   1.939   1.808  15.936
  269MPD2    H1 4124   2.272   1.805  15.667
  269MPD2    H2 4125   2.177   1.449  15.862
  269MPD2    H3 4126   2.311   1.570  15.707
  269MPD2     N 4127   2.062   1.951  15.769
  269MPD2    H5 4128   1.980   1.994  15.810
  269MPD2    N1 4129   1.977   1.553  16.015
  269MPD2    H7 4130   2.006   1.457  16.029
  270TMC3    C1 4131   1.815   1.492  16.178
  270TMC3    C2 4132   1.686   1.460  16.168
  270TMC3    C3 4133   1.656   1.331  16.208
  270TMC3    C4 4134   1.901   1.416  16.246
  270TMC3    C5 4135   1.871   1.293  16.290
  270TMC3    C6 4136   1.739   1.252  16.287
  270TMC3     C 4137   1.866   1.605  16.091
  270TMC3     O 4138   1.804   1.705  16.088
  270TMC3     H 4139   1.618   1.510  16.099
  270TMC3    H1 4140   2.006   1.441  16.240
  270TMC3    H2 4141   1.711   1.152  16.315
  270TMC3    C7 4142   1.962   1.194  16.231
  270TMC3    C8 4143   1.587   1.242  16.117
  270TMC3    O1 4144   2.082   1.205  16.252
  270TMC3    O2 4145   1.629   1.126  16.113
  271MPD2     C 4146   1.350   1.522  14.350
  271MPD2    C1 4147   1.258   1.489  14.448
  271MPD2    C2 4148   1.128   1.533  14.434
  271MPD2    C3 4149   1.091   1.616  14.327
  271MPD2    C4 4150   1.185   1.635  14.224
  271MPD2    C5 4151   1.314   1.594  14.243
  271MPD2     H 4152   1.060   1.497  14.510
  271MPD2    H1 4153   1.152   1.684  14.133
  271MPD2    H2 4154   1.458   1.513  14.359
  271MPD2    H3 4155   1.391   1.602  14.167
  271MPD2     N 4156   0.962   1.668  14.301
  271MPD2    H5 4157   0.941   1.724  14.219
  271MPD2    N1 4158   1.284   1.397  14.548
  271MPD2    H7 4159   1.203   1.380  14.607
  272TMC3    C1 4160   1.376   1.199  14.636
  272TMC3    C2 4161   1.493   1.129  14.669
  272TMC3    C3 4162   1.496   1.048  14.773
  272TMC3    C4 4163   1.267   1.181  14.712
  272TMC3    C5 4164   1.271   1.095  14.820
  272TMC3    C6 4165   1.389   1.027  14.858
  272TMC3     C 4166   1.388   1.308  14.551
  272TMC3     O 4167   1.494   1.310  14.486
  272TMC3     H 4168   1.587   1.133  14.616
  272TMC3    H1 4169   1.170   1.221  14.688
  272TMC3    H2 4170   1.392   0.955  14.939
  272TMC3    C7 4171   1.179   1.130  14.926
  272TMC3    C8 4172   1.592   0.937  14.764
  272TMC3    O1 4173   1.079   1.192  14.896
  272TMC3    O2 4174   1.642   0.917  14.654
  273MPD2     C 4175   2.538   4.439  11.894
  273MPD2    C1 4176   2.659   4.486  11.854
  273MPD2    C2 4177   2.687   4.473  11.723
  273MPD2    C3 4178   2.598   4.424  11.627
  273MPD2    C4 4179   2.466   4.403  11.665
  273MPD2    C5 4180   2.438   4.411  11.799
  273MPD2     H 4181   2.776   4.522  11.688
  273MPD2    H1 4182   2.387   4.361  11.603
  273MPD2    H2 4183   2.510   4.427  11.998
  273MPD2    H3 4184   2.341   4.384  11.839
  273MPD2     N 4185   2.634   4.416  11.488
  273MPD2    H5 4186   2.561   4.413  11.417
  273MPD2    N1 4187   2.753   4.545  11.944
  273MPD2    H7 4188   2.745   4.519  12.042
  274TMC3    C1 4189   2.793   4.514  11.326
  274TMC3    C2 4190   2.683   4.561  11.253
  274TMC3    C3 4191   2.707   4.685  11.192
  274TMC3    C4 4192   2.900   4.601  11.350
  274TMC3    C5 4193   2.891   4.732  11.311
  274TMC3    C6 4194   2.803   4.772  11.212
  274TMC3     C 4195   2.765   4.430  11.449
  274TMC3     O 4196   2.866   4.401  11.511
  274TMC3     H 4197   2.600   4.504  11.213
  274TMC3    H1 4198   2.973   4.568  11.423
  274TMC3    H2 4199   2.790   0.071  11.183
  274TMC3    C7 4200   2.926   0.033  11.397
  274TMC3    C8 4201   2.620   4.717  11.086
  274TMC3    O1 4202   2.854   0.130  11.390
  274TMC3    O2 4203   2.505   4.672  11.095
  275MPD2     C 4204   2.753   1.986  14.769
  275MPD2    C1 4205   2.690   2.034  14.884
  275MPD2    C2 4206   2.556   2.002  14.908
  275MPD2    C3 4207   2.486   1.924  14.814
  275MPD2    C4 4208   2.554   1.863  14.708
  275MPD2    C5 4209   2.687   1.894  14.694
  275MPD2     H 4210   2.513   2.022  15.005
  275MPD2    H1 4211   2.514   1.800  14.630
  275MPD2    H2 4212   2.857   2.016  14.758
  275MPD2    H3 4213   2.744   1.856  14.610
  275MPD2     N 4214   2.349   1.891  14.834
  275MPD2    H5 4215   2.308   1.816  14.780
  275MPD2    N1 4216   2.749   2.137  14.970
  275MPD2    H7 4217   2.681   2.173  15.036
  276TMC3    C1 4218   2.892   2.272  15.087
  276TMC3    C2 4219   2.799   2.252  15.188
  276TMC3    C3 4220   2.838   2.289  15.315
  276TMC3    C4 4221   3.025   2.317  15.110
  276TMC3    C5 4222   3.064   2.323  15.240
  276TMC3    C6 4223   2.969   2.318  15.339
  276TMC3     C 4224   2.874   2.189  14.965
  276TMC3     O 4225   2.958   2.180  14.878
  276TMC3     H 4226   2.696   2.220  15.174
  276TMC3    H1 4227   3.093   2.332  15.027
  276TMC3    H2 4228   2.999   2.330  15.443
  276TMC3    C7 4229   3.204   2.318  15.272
  276TMC3    C8 4230   2.773   2.209  15.413
  276TMC3    O1 4231   3.228   2.355  15.386
  276TMC3    O2 4232   2.780   2.243  15.530
  277MPD2     C 4233   0.072   1.403  13.581
  277MPD2    C1 4234   4.740   1.394  13.577
  277MPD2    C2 4235   4.672   1.325  13.678
  277MPD2    C3 4236   4.736   1.261  13.780
  277MPD2    C4 4237   0.071   1.266  13.784
  277MPD2    C5 4238   0.139   1.332  13.682
  277MPD2     H 4239   4.565   1.309  13.685
  277MPD2    H1 4240   0.125   1.236  13.872
  277MPD2    H2 4241   0.130   1.458  13.507
  277MPD2    H3 4242   0.247   1.341  13.686
  277MPD2     N 4243   4.654   1.208  13.871
  277MPD2    H5 4244   4.554   1.218  13.857
  277MPD2    N1 4245   4.675   1.457  13.471
  277MPD2    H7 4246   4.729   1.530  13.425
  278TMC3    C1 4247   4.572   1.118  14.067
  278TMC3    C2 4248   4.556   0.983  14.099
  278TMC3    C3 4249   4.429   0.928  14.083
  278TMC3    C4 4250   4.465   1.191  14.033
  278TMC3    C5 4251   4.345   1.137  14.043
  278TMC3    C6 4252   4.318   1.003  14.054
  278TMC3     C 4253   4.692   1.157  13.996
  278TMC3     O 4254   4.800   1.099  14.027
  278TMC3     H 4255   4.639   0.914  14.112
  278TMC3    H1 4256   4.484   1.295  14.010
  278TMC3    H2 4257   4.218   0.961  14.049
  278TMC3    C7 4258   4.228   1.223  14.004
  278TMC3    C8 4259   4.440   0.781  14.072
  278TMC3    O1 4260   4.244   1.319  13.929
  278TMC3    O2 4261   4.529   0.716  14.120
  279MPD2     C 4262   3.649   0.881  18.273
  279MPD2    C1 4263   3.686   1.013  18.264
  279MPD2    C2 4264   3.762   1.059  18.155
  279MPD2    C3 4265   3.806   0.974  18.055
  279MPD2    C4 4266   3.765   0.836  18.067
  279MPD2    C5 4267   3.698   0.793  18.180
  279MPD2     H 4268   3.800   1.161  18.153
  279MPD2    H1 4269   3.788   0.772  17.983
  279MPD2    H2 4270   3.595   0.844  18.359
  279MPD2    H3 4271   3.674   0.687  18.186
  279MPD2     N 4272   3.867   1.015  17.937
  279MPD2    H5 4273   3.850   0.953  17.858
  279MPD2    N1 4274   3.621   1.088  18.358
  279MPD2    H7 4275   3.549   1.039  18.410
  280TMC3    C1 4276   3.499   1.288  18.376
  280TMC3    C2 4277   3.414   1.216  18.289
  280TMC3    C3 4278   3.346   1.279  18.190
  280TMC3    C4 4279   3.507   1.422  18.367
  280TMC3    C5 4280   3.430   1.481  18.275
  280TMC3    C6 4281   3.350   1.411  18.189
  280TMC3     C 4282   3.634   1.228  18.374
  280TMC3     O 4283   3.723   1.304  18.345
  280TMC3     H 4284   3.410   1.108  18.298
  280TMC3    H1 4285   3.578   1.467  18.436
  280TMC3    H2 4286   3.304   1.451  18.100
  280TMC3    C7 4287   3.491   1.594  18.209
  280TMC3    C8 4288   3.366   1.204  18.057
  280TMC3    O1 4289   3.600   1.637  18.252
  280TMC3    O2 4290   3.380   1.271  17.958
  281TMC3    C1 4291   2.725   1.361  13.784
  281TMC3    C2 4292   2.805   1.439  13.701
  281TMC3    C3 4293   2.850   1.387  13.579
  281TMC3    C4 4294   2.684   1.234  13.741
  281TMC3    C5 4295   2.726   1.187  13.618
  281TMC3    C6 4296   2.811   1.261  13.535
  281TMC3     C 4297   2.626   1.415  13.879
  281TMC3     O 4298   2.569   1.335  13.949
  281TMC3     H 4299   2.838   1.535  13.741
  281TMC3    H1 4300   2.607   1.182  13.796
  281TMC3    H2 4301   2.862   1.215  13.451
  281TMC3    C7 4302   2.650   1.080  13.551
  281TMC3    C8 4303   2.979   1.435  13.516
  281TMC3    O1 4304   2.706   1.015  13.466
  281TMC3    O2 4305   3.055   1.349  13.472
  282MPD2     C 4306   4.617   2.723  15.303
  282MPD2    C1 4307   4.501   2.794  15.326
  282MPD2    C2 4308   4.425   2.836  15.216
  282MPD2    C3 4309   4.464   2.810  15.087
  282MPD2    C4 4310   4.574   2.732  15.067
  282MPD2    C5 4311   4.650   2.694  15.171
  282MPD2     H 4312   4.330   2.885  15.229
  282MPD2    H1 4313   4.618   2.707  14.971
  282MPD2    H2 4314   4.684   2.675  15.374
  282MPD2    H3 4315   4.734   2.627  15.153
  282MPD2     N 4316   4.374   2.838  14.983
  282MPD2    H5 4317   4.281   2.872  15.007
  282MPD2    N1 4318   4.448   2.823  15.457
  282MPD2    H7 4319   4.379   2.897  15.465
  283TMC3    C1 4320   4.406   2.784  15.691
  283TMC3    C2 4321   4.391   2.915  15.723
  283TMC3    C3 4322   4.326   2.953  15.834
  283TMC3    C4 4323   4.349   2.686  15.767
  283TMC3    C5 4324   4.284   2.729  15.879
  283TMC3    C6 4325   4.276   2.859  15.916
  283TMC3     C 4326   4.473   2.748  15.571
  283TMC3     O 4327   4.528   2.640  15.565
  283TMC3     H 4328   4.432   2.992  15.659
  283TMC3    H1 4329   4.368   2.585  15.733
  283TMC3    H2 4330   4.221   2.888  16.005
  283TMC3    C7 4331   4.190   2.646  15.951
  283TMC3    C8 4332   4.295   3.092  15.863
  283TMC3    O1 4333   4.113   2.695  16.033
  283TMC3    O2 4334   4.232   3.109  15.968
  284MPD2     C 4335   2.236   2.373  12.097
  284MPD2    C1 4336   2.360   2.411  12.132
  284MPD2    C2 4337   2.437   2.338  12.221
  284MPD2    C3 4338   2.381   2.226  12.281
  284MPD2    C4 4339   2.254   2.184  12.241
  284MPD2    C5 4340   2.184   2.256  12.151
  284MPD2     H 4341   2.533   2.382  12.245
  284MPD2    H1 4342   2.212   2.090  12.276
  284MPD2    H2 4343   2.178   2.430  12.025
  284MPD2    H3 4344   2.090   2.226  12.107
  284MPD2     N 4345   2.461   2.130  12.349
  284MPD2    H5 4346   2.427   2.035  12.362
  284MPD2    N1 4347   2.425   2.524  12.080
  284MPD2    H7 4348   2.524   2.518  12.101
  285TMC3    C1 4349   2.489   2.681  11.934
  285TMC3    C2 4350   2.580   2.605  11.875
  285TMC3    C3 4351   2.692   2.661  11.818
  285TMC3    C4 4352   2.487   2.814  11.928
  285TMC3    C5 4353   2.600   2.868  11.872
  285TMC3    C6 4354   2.698   2.799  11.804
  285TMC3     C 4355   2.378   2.609  11.983
  285TMC3     O 4356   2.264   2.634  11.938
  285TMC3     H 4357   2.570   2.497  11.883
  285TMC3    H1 4358   2.412   2.873  11.979
  285TMC3    H2 4359   2.781   2.856  11.766
  285TMC3    C7 4360   2.638   2.984  11.949
  285TMC3    C8 4361   2.777   2.580  11.736
  285TMC3    O1 4362   2.569   3.083  11.929
  285TMC3    O2 4363   2.719   2.483  11.689
  286MPD2     C 4364   2.612   0.619  19.665
  286MPD2    C1 4365   2.582   0.617  19.533
  286MPD2    C2 4366   2.626   0.505  19.460
  286MPD2    C3 4367   2.675   0.387  19.528
  286MPD2    C4 4368   2.686   0.391  19.668
  286MPD2    C5 4369   2.679   0.515  19.727
  286MPD2     H 4370   2.610   0.498  19.353
  286MPD2    H1 4371   2.708   0.299  19.721
  286MPD2    H2 4372   2.606   0.708  19.727
  286MPD2    H3 4373   2.714   0.521  19.829
  286MPD2     N 4374   2.716   0.266  19.465
  286MPD2    H5 4375   2.745   0.193  19.528
  286MPD2    N1 4376   2.533   0.729  19.453
  286MPD2    H7 4377   2.523   0.722  19.352
  287TMC3    C1 4378   2.796   0.135  19.288
  287TMC3    C2 4379   2.760   0.078  19.169
  287TMC3    C3 4380   2.824   4.772  19.131
  287TMC3    C4 4381   2.909   0.097  19.356
  287TMC3    C5 4382   2.995   0.007  19.294
  287TMC3    C6 4383   2.943   4.730  19.194
  287TMC3     C 4384   2.728   0.257  19.326
  287TMC3     O 4385   2.704   0.336  19.240
  287TMC3     H 4386   2.671   0.114  19.118
  287TMC3    H1 4387   2.938   0.149  19.447
  287TMC3    H2 4388   2.993   4.650  19.141
  287TMC3    C7 4389   3.116   0.091  19.270
  287TMC3    C8 4390   2.823   4.736  18.990
  287TMC3    O1 4391   3.128   0.194  19.339
  287TMC3    O2 4392   2.838   4.619  18.959
  288TMC3    C1 4393   4.351   0.605  14.477
  288TMC3    C2 4394   4.251   0.589  14.567
  288TMC3    C3 4395   4.185   0.704  14.603
  288TMC3    C4 4396   4.386   0.726  14.421
  288TMC3    C5 4397   4.312   0.833  14.453
  288TMC3    C6 4398   4.213   0.826  14.546
  288TMC3     C 4399   4.451   0.502  14.467
  288TMC3     O 4400   4.426   0.396  14.525
  288TMC3     H 4401   4.246   0.493  14.616
  288TMC3    H1 4402   4.464   0.747  14.348
  288TMC3    H2 4403   4.160   0.916  14.577
  288TMC3    C7 4404   4.401   0.953  14.452
  288TMC3    C8 4405   4.137   0.712  14.744
  288TMC3    O1 4406   4.521   0.937  14.481
  288TMC3    O2 4407   4.116   0.818  14.792
  289MPD2     C 4408   4.607   4.771  14.518
  289MPD2    C1 4409   4.576   0.049  14.406
  289MPD2    C2 4410   4.459   0.033  14.337
  289MPD2    C3 4411   4.369   4.741  14.376
  289MPD2    C4 4412   4.402   4.650  14.474
  289MPD2    C5 4413   4.520   4.667  14.548
  289MPD2     H 4414   4.428   0.112  14.271
  289MPD2    H1 4415   4.338   4.567  14.503
  289MPD2    H2 4416   4.691   4.793  14.583
  289MPD2    H3 4417   4.541   4.595  14.626
  289MPD2     N 4418   4.243   4.713  14.314
  289MPD2    H5 4419   4.187   4.638  14.352
  289MPD2    N1 4420   4.662   0.156  14.373
  289MPD2    H7 4421   4.739   0.161  14.438
  290TMC3    C1 4422   4.041   4.759  14.202
  290TMC3    C2 4423   3.958   0.059  14.188
  290TMC3    C3 4424   3.828   0.038  14.161
  290TMC3    C4 4425   4.001   4.630  14.185
  290TMC3    C5 4426   3.870   4.611  14.154
  290TMC3    C6 4427   3.784   4.718  14.138
  290TMC3     C 4428   4.183   4.792  14.221
  290TMC3     O 4429   4.218   0.098  14.181
  290TMC3     H 4430   3.995   0.160  14.202
  290TMC3    H1 4431   4.077   4.553  14.186
  290TMC3    H2 4432   3.680   4.703  14.110
  290TMC3    C7 4433   3.808   4.480  14.161
  290TMC3    C8 4434   3.744   0.155  14.148
  290TMC3    O1 4435   3.703   4.478  14.092
  290TMC3    O2 4436   3.649   0.131  14.069
  291MPD2     C 4437   3.480   4.710  18.146
  291MPD2    C1 4438   3.593   4.635  18.174
  291MPD2    C2 4439   3.711   4.707  18.171
  291MPD2    C3 4440   3.707   0.045  18.154
  291MPD2    C4 4441   3.592   0.114  18.129
  291MPD2    C5 4442   3.481   0.039  18.114
  291MPD2     H 4443   3.804   4.652  18.183
  291MPD2    H1 4444   3.588   0.221  18.110
  291MPD2    H2 4445   3.378   4.673  18.140
  291MPD2    H3 4446   3.389   0.094  18.100
  291MPD2     N 4447   3.829   0.122  18.153
  291MPD2    H5 4448   3.826   0.224  18.145
  291MPD2    N1 4449   3.596   4.495  18.174
  291MPD2    H7 4450   3.684   4.453  18.204
  292TMC3    C1 4451   3.498   4.290  18.209
  292TMC3    C2 4452   3.537   4.274  18.337
  292TMC3    C3 4453   3.567   4.148  18.376
  292TMC3    C4 4454   3.472   4.186  18.121
  292TMC3    C5 4455   3.516   4.057  18.164
  292TMC3    C6 4456   3.560   4.040  18.291
  292TMC3     C 4457   3.475   4.423  18.154
  292TMC3     O 4458   3.379   4.441  18.071
  292TMC3     H 4459   3.541   4.353  18.412
  292TMC3    H1 4460   3.436   4.205  18.021
  292TMC3    H2 4461   3.599   3.943  18.320
  292TMC3    C7 4462   3.517   3.942  18.067
  292TMC3    C8 4463   3.562   4.114  18.515
  292TMC3    O1 4464   3.587   3.846  18.095
  292TMC3    O2 4465   3.616   4.196  18.590
  293MPD2     C 4466   0.802   1.163  12.731
  293MPD2    C1 4467   0.714   1.098  12.823
  293MPD2    C2 4468   0.734   1.116  12.960
  293MPD2    C3 4469   0.841   1.186  13.018
  293MPD2    C4 4470   0.929   1.242  12.927
  293MPD2    C5 4471   0.906   1.232  12.792
  293MPD2     H 4472   0.664   1.060  13.021
  293MPD2    H1 4473   1.017   1.297  12.959
  293MPD2    H2 4474   0.784   1.168  12.625
  293MPD2    H3 4475   0.967   1.281  12.716
  293MPD2     N 4476   0.859   1.193  13.161
  293MPD2    H5 4477   0.789   1.154  13.223
  293MPD2    N1 4478   0.604   1.020  12.762
  293MPD2    H7 4479   0.608   1.029  12.661
  294TMC3    C1 4480   0.377   0.946  12.752
  294TMC3    C2 4481   0.291   0.857  12.806
  294TMC3    C3 4482   0.193   0.802  12.731
  294TMC3    C4 4483   0.377   0.974  12.619
  294TMC3    C5 4484   0.287   0.906  12.542
  294TMC3    C6 4485   0.187   0.822  12.595
  294TMC3     C 4486   0.499   0.968  12.835
  294TMC3     O 4487   0.492   0.950  12.955
  294TMC3     H 4488   0.312   0.820  12.906
  294TMC3    H1 4489   0.446   1.049  12.581
  294TMC3    H2 4490   0.113   0.779  12.530
  294TMC3    C7 4491   0.286   0.939  12.403
  294TMC3    C8 4492   0.133   0.682  12.783
  294TMC3    O1 4493   0.192   0.903  12.340
  294TMC3    O2 4494   0.144   0.652  12.903
  295MPD2     C 4495   1.827   4.688  18.650
  295MPD2    C1 4496   1.706   4.746  18.662
  295MPD2    C2 4497   1.632   4.732  18.781
  295MPD2    C3 4498   1.668   4.631  18.871
  295MPD2    C4 4499   1.779   4.558  18.848
  295MPD2    C5 4500   1.855   4.582  18.737
  295MPD2     H 4501   1.536   4.783  18.790
  295MPD2    H1 4502   1.809   4.472  18.905
  295MPD2    H2 4503   1.879   4.688  18.555
  295MPD2    H3 4504   1.946   4.529  18.711
  295MPD2     N 4505   1.594   4.602  18.980
  295MPD2    H5 4506   1.619   4.514  19.023
  295MPD2    N1 4507   1.649   0.034  18.562
  295MPD2    H7 4508   1.552   0.063  18.570
  296TMC3    C1 4509   1.435   4.604  19.155
  296TMC3    C2 4510   1.398   4.687  19.256
  296TMC3    C3 4511   1.316   4.626  19.347
  296TMC3    C4 4512   1.361   4.489  19.128
  296TMC3    C5 4513   1.259   4.447  19.210
  296TMC3    C6 4514   1.240   4.508  19.335
  296TMC3     C 4515   1.479   4.673  19.033
  296TMC3     O 4516   1.429   4.783  19.006
  296TMC3     H 4517   1.447   4.779  19.282
  296TMC3    H1 4518   1.374   4.438  19.033
  296TMC3    H2 4519   1.172   4.469  19.410
  296TMC3    C7 4520   1.146   4.375  19.148
  296TMC3    C8 4521   1.296   4.684  19.481
  296TMC3    O1 4522   1.157   4.362  19.026
  296TMC3    O2 4523   1.353   4.615  19.562
  297MPD2     C 4524   3.297   1.728  16.636
  297MPD2    C1 4525   3.272   1.824  16.528
  297MPD2    C2 4526   3.374   1.902  16.492
  297MPD2    C3 4527   3.500   1.881  16.538
  297MPD2    C4 4528   3.521   1.782  16.634
  297MPD2    C5 4529   3.419   1.711  16.686
  297MPD2     H 4530   3.361   1.976  16.414
  297MPD2    H1 4531   3.614   1.776  16.689
  297MPD2    H2 4532   3.222   1.658  16.671
  297MPD2    H3 4533   3.428   1.631  16.758
  297MPD2     N 4534   3.599   1.982  16.503
  297MPD2    H5 4535   3.568   2.071  16.465
  297MPD2    N1 4536   3.146   1.846  16.479
  297MPD2    H7 4537   3.147   1.909  16.400
  298TMC3    C1 4538   2.926   1.839  16.441
  298TMC3    C2 4539   2.952   1.831  16.307
  298TMC3    C3 4540   2.845   1.868  16.231
  298TMC3    C4 4541   2.821   1.895  16.498
  298TMC3    C5 4542   2.718   1.940  16.416
  298TMC3    C6 4543   2.723   1.927  16.277
  298TMC3     C 4544   3.031   1.794  16.527
  298TMC3     O 4545   3.008   1.749  16.640
  298TMC3     H 4546   3.036   1.768  16.280
  298TMC3    H1 4547   2.817   1.911  16.605
  298TMC3    H2 4548   2.651   1.972  16.211
  298TMC3    C7 4549   2.597   1.993  16.488
  298TMC3    C8 4550   2.867   1.875  16.088
  298TMC3    O1 4551   2.605   1.994  16.611
  298TMC3    O2 4552   2.776   1.902  16.015
  299MPD2     C 4553   3.908   1.603  11.185
  299MPD2    C1 4554   3.923   1.675  11.068
  299MPD2    C2 4555   3.840   1.653  10.962
  299MPD2    C3 4556   3.727   1.572  10.978
  299MPD2    C4 4557   3.713   1.497  11.091
  299MPD2    C5 4558   3.799   1.516  11.194
  299MPD2     H 4559   3.857   1.701  10.866
  299MPD2    H1 4560   3.627   1.438  11.119
  299MPD2    H2 4561   3.981   1.605  11.265
  299MPD2    H3 4562   3.782   1.459  11.285
  299MPD2     N 4563   3.627   1.561  10.880
  299MPD2    H5 4564   3.558   1.494  10.913
  299MPD2    N1 4565   4.032   1.761  11.058
  299MPD2    H7 4566   4.095   1.767  11.138
  300TMC3    C1 4567   3.503   1.595  10.672
  300TMC3    C2 4568   3.484   1.685  10.567
  300TMC3    C3 4569   3.361   1.696  10.514
  300TMC3    C4 4570   3.406   1.514  10.718
  300TMC3    C5 4571   3.286   1.525  10.649
  300TMC3    C6 4572   3.261   1.613  10.552
  300TMC3     C 4573   3.617   1.629  10.758
  300TMC3     O 4574   3.681   1.725  10.718
  300TMC3     H 4575   3.559   1.759  10.540
  300TMC3    H1 4576   3.407   1.437  10.795
  300TMC3    H2 4577   3.169   1.606  10.495
  300TMC3    C7 4578   3.177   1.466  10.724
  300TMC3    C8 4579   3.327   1.832  10.491
  300TMC3    O1 4580   3.106   1.380  10.677
  300TMC3    O2 4581   3.414   1.915  10.470
  301MPD2     C 4582   1.440   3.144  18.919
  301MPD2    C1 4583   1.468   3.201  19.038
  301MPD2    C2 4584   1.515   3.119  19.136
  301MPD2    C3 4585   1.538   2.981  19.114
  301MPD2    C4 4586   1.527   2.935  18.985
  301MPD2    C5 4587   1.480   3.015  18.889
  301MPD2     H 4588   1.521   3.168  19.233
  301MPD2    H1 4589   1.560   2.835  18.958
  301MPD2    H2 4590   1.418   3.205  18.831
  301MPD2    H3 4591   1.458   2.973  18.792
  301MPD2     N 4592   1.566   2.892  19.220
  301MPD2    H5 4593   1.592   2.796  19.198
  301MPD2    N1 4594   1.449   3.338  19.072
  301MPD2    H7 4595   1.483   3.365  19.164
  302TMC3    C1 4596   1.501   2.783  19.419
  302TMC3    C2 4597   1.595   2.685  19.445
  302TMC3    C3 4598   1.549   2.571  19.511
  302TMC3    C4 4599   1.366   2.751  19.445
  302TMC3    C5 4600   1.326   2.643  19.521
  302TMC3    C6 4601   1.427   2.563  19.567
  302TMC3     C 4602   1.525   2.914  19.351
  302TMC3     O 4603   1.472   3.013  19.400
  302TMC3     H 4604   1.699   2.695  19.416
  302TMC3    H1 4605   1.298   2.834  19.427
  302TMC3    H2 4606   1.403   2.474  19.624
  302TMC3    C7 4607   1.229   2.557  19.451
  302TMC3    C8 4608   1.644   2.464  19.516
  302TMC3    O1 4609   1.262   2.440  19.434
  302TMC3    O2 4610   1.599   2.349  19.517
  303MPD2     C 4611   1.583   1.344  10.919
  303MPD2    C1 4612   1.454   1.298  10.963
  303MPD2    C2 4613   1.356   1.307  10.869
  303MPD2    C3 4614   1.373   1.341  10.738
  303MPD2    C4 4615   1.495   1.400  10.702
  303MPD2    C5 4616   1.590   1.402  10.793
  303MPD2     H 4617   1.259   1.260  10.879
  303MPD2    H1 4618   1.511   1.439  10.602
  303MPD2    H2 4619   1.674   1.332  10.978
  303MPD2    H3 4620   1.689   1.433  10.760
  303MPD2     N 4621   1.284   1.322  10.634
  303MPD2    H5 4622   1.305   1.369  10.547
  303MPD2    N1 4623   1.441   1.234  11.091
  303MPD2    H7 4624   1.520   1.195  11.141
  304TMC3    C1 4625   1.314   1.132  11.266
  304TMC3    C2 4626   1.199   1.147  11.333
  304TMC3    C3 4627   1.170   1.051  11.422
  304TMC3    C4 4628   1.397   1.018  11.279
  304TMC3    C5 4629   1.363   0.926  11.371
  304TMC3    C6 4630   1.250   0.944  11.450
  304TMC3     C 4631   1.316   1.203  11.138
  304TMC3     O 4632   1.208   1.250  11.108
  304TMC3     H 4633   1.127   1.227  11.320
  304TMC3    H1 4634   1.459   1.003  11.192
  304TMC3    H2 4635   1.218   0.871  11.524
  304TMC3    C7 4636   1.384   0.785  11.346
  304TMC3    C8 4637   1.030   1.015  11.415
  304TMC3    O1 4638   1.416   0.753  11.232
  304TMC3    O2 4639   0.995   1.007  11.296
  305MPD2     C 4640   4.597   3.346  14.162
  305MPD2    C1 4641   4.549   3.219  14.191
  305MPD2    C2 4642   4.522   3.135  14.086
  305MPD2    C3 4643   4.553   3.177  13.960
  305MPD2    C4 4644   4.600   3.302  13.926
  305MPD2    C5 4645   4.619   3.385  14.034
  305MPD2     H 4646   4.469   3.040  14.091
  305MPD2    H1 4647   4.623   3.339  13.828
  305MPD2    H2 4648   4.619   3.421  14.238
  305MPD2    H3 4649   4.668   3.475  13.999
  305MPD2     N 4650   4.543   3.091  13.850
  305MPD2    H5 4651   4.568   3.130  13.760
  305MPD2    N1 4652   4.545   3.180  14.330
  305MPD2    H7 4653   4.568   3.257  14.392
  306TMC3    C1 4654   4.583   3.047  14.520
  306TMC3    C2 4655   4.646   2.938  14.556
  306TMC3    C3 4656   4.704   2.937  14.684
  306TMC3    C4 4657   4.555   3.151  14.613
  306TMC3    C5 4658   4.612   3.135  14.741
  306TMC3    C6 4659   4.694   3.037  14.771
  306TMC3     C 4660   4.542   3.052  14.380
  306TMC3     O 4661   4.498   2.951  14.328
  306TMC3     H 4662   4.661   2.856  14.486
  306TMC3    H1 4663   4.487   3.233  14.594
  306TMC3    H2 4664   4.723   3.012  14.872
  306TMC3    C7 4665   4.541   3.189  14.854
  306TMC3    C8 4666   4.769   2.807  14.713
  306TMC3    O1 4667   4.419   3.192  14.855
  306TMC3    O2 4668   4.747   2.710  14.639
  307MPD2     C 4669   1.934   1.040  18.416
  307MPD2    C1 4670   2.049   1.083  18.464
  307MPD2    C2 4671   2.059   1.129  18.595
  307MPD2    C3 4672   1.950   1.140  18.672
  307MPD2    C4 4673   1.829   1.098  18.620
  307MPD2    C5 4674   1.825   1.058  18.490
  307MPD2     H 4675   2.149   1.169  18.640
  307MPD2    H1 4676   1.732   1.107  18.669
  307MPD2    H2 4677   1.916   1.004  18.315
  307MPD2    H3 4678   1.731   1.035  18.440
  307MPD2     N 4679   1.961   1.188  18.807
  307MPD2    H5 4680   2.052   1.176  18.849
  307MPD2    N1 4681   2.168   1.084  18.389
  307MPD2    H7 4682   2.243   1.132  18.437
  308TMC3    C1 4683   1.771   1.163  19.208
  308TMC3    C2 4684   1.746   1.283  19.249
  308TMC3    C3 4685   1.783   1.390  19.170
  308TMC3    C4 4686   1.845   1.149  19.100
  308TMC3    C5 4687   1.884   1.250  19.020
  308TMC3    C6 4688   1.844   1.376  19.048
  308TMC3     C 4689   1.651   1.084  19.186
  308TMC3     O 4690   1.661   0.969  19.155
  308TMC3     H 4691   1.696   1.295  19.344
  308TMC3    H1 4692   1.858   1.048  19.061
  308TMC3    H2 4693   1.862   1.469  18.995
  308TMC3    C7 4694   1.853   1.223  18.889
  308TMC3    C8 4695   1.698   1.510  19.198
  308TMC3    O1 4696   1.735   1.244  18.864
  308TMC3    O2 4697   1.608   1.496  19.281
  309MPD2     C 4698   1.317   1.320  17.614
  309MPD2    C1 4699   1.280   1.414  17.516
  309MPD2    C2 4700   1.178   1.507  17.542
  309MPD2    C3 4701   1.101   1.489  17.656
  309MPD2    C4 4702   1.136   1.388  17.743
  309MPD2    C5 4703   1.240   1.308  17.727
  309MPD2     H 4704   1.152   1.579  17.466
  309MPD2    H1 4705   1.072   1.376  17.830
  309MPD2    H2 4706   1.402   1.253  17.606
  309MPD2    H3 4707   1.280   1.229  17.788
  309MPD2     N 4708   0.975   1.557  17.669
  309MPD2    H5 4709   0.915   1.528  17.745
  309MPD2    N1 4710   1.339   1.427  17.384
  309MPD2    H7 4711   1.287   1.482  17.317
  310TMC3    C1 4712   1.485   1.385  17.203
  310TMC3    C2 4713   1.430   1.490  17.135
  310TMC3    C3 4714   1.481   1.529  17.011
  310TMC3    C4 4715   1.598   1.319  17.155
  310TMC3    C5 4716   1.660   1.378  17.047
  310TMC3    C6 4717   1.600   1.478  16.968
  310TMC3     C 4718   1.444   1.352  17.335
  310TMC3     O 4719   1.514   1.268  17.393
  310TMC3     H 4720   1.333   1.530  17.162
  310TMC3    H1 4721   1.656   1.250  17.216
  310TMC3    H2 4722   1.638   1.505  16.870
  310TMC3    C7 4723   1.747   1.293  16.978
  310TMC3    C8 4724   1.402   1.618  16.936
  310TMC3    O1 4725   1.753   1.171  16.995
  310TMC3    O2 4726   1.287   1.649  16.974
  311MPD2     C 4727   3.337   2.820  12.992
  311MPD2    C1 4728   3.326   2.928  13.075
  311MPD2    C2 4729   3.229   2.920  13.174
  311MPD2    C3 4730   3.151   2.810  13.191
  311MPD2    C4 4731   3.169   2.703  13.110
  311MPD2    C5 4732   3.254   2.708  13.005
  311MPD2     H 4733   3.216   3.004  13.241
  311MPD2    H1 4734   3.119   2.609  13.129
  311MPD2    H2 4735   3.412   2.823  12.913
  311MPD2    H3 4736   3.257   2.625  12.936
  311MPD2     N 4737   3.049   2.813  13.294
  311MPD2    H5 4738   3.041   2.901  13.344
  311MPD2    N1 4739   3.408   3.048  13.064
  311MPD2    H7 4740   3.400   3.112  13.143
  312TMC3    C1 4741   2.853   2.751  13.397
  312TMC3    C2 4742   2.729   2.717  13.336
  312TMC3    C3 4743   2.633   2.814  13.349
  312TMC3    C4 4744   2.866   2.860  13.476
  312TMC3    C5 4745   2.758   2.938  13.499
  312TMC3    C6 4746   2.645   2.927  13.421
  312TMC3     C 4747   2.963   2.707  13.320
  312TMC3     O 4748   2.954   2.593  13.279
  312TMC3     H 4749   2.730   2.626  13.277
  312TMC3    H1 4750   2.957   2.883  13.530
  312TMC3    H2 4751   2.567   3.000  13.439
  312TMC3    C7 4752   2.782   3.049  13.589
  312TMC3    C8 4753   2.503   2.775  13.297
  312TMC3    O1 4754   2.732   3.156  13.565
  312TMC3    O2 4755   2.486   2.655  13.291
  313MPD2     C 4756   2.465   2.155  11.606
  313MPD2    C1 4757   2.503   2.253  11.512
  313MPD2    C2 4758   2.599   2.231  11.414
  313MPD2    C3 4759   2.652   2.105  11.403
  313MPD2    C4 4760   2.622   2.010  11.496
  313MPD2    C5 4761   2.527   2.034  11.588
  313MPD2     H 4762   2.616   2.308  11.339
  313MPD2    H1 4763   2.665   1.911  11.483
  313MPD2    H2 4764   2.392   2.158  11.686
  313MPD2    H3 4765   2.494   1.954  11.653
  313MPD2     N 4766   2.711   2.082  11.276
  313MPD2    H5 4767   2.685   2.143  11.200
  313MPD2    N1 4768   2.448   2.385  11.505
  313MPD2    H7 4769   2.482   2.442  11.428
  314TMC3    C1 4770   2.309   2.572  11.554
  314TMC3    C2 4771   2.409   2.653  11.543
  314TMC3    C3 4772   2.381   2.781  11.505
  314TMC3    C4 4773   2.181   2.599  11.519
  314TMC3    C5 4774   2.158   2.726  11.466
  314TMC3    C6 4775   2.257   2.810  11.459
  314TMC3     C 4776   2.340   2.433  11.580
  314TMC3     O 4777   2.254   2.378  11.649
  314TMC3     H 4778   2.506   2.611  11.565
  314TMC3    H1 4779   2.096   2.532  11.526
  314TMC3    H2 4780   2.235   2.913  11.436
  314TMC3    C7 4781   2.066   2.718  11.353
  314TMC3    C8 4782   2.474   2.890  11.517
  314TMC3    O1 4783   1.975   2.636  11.359
  314TMC3    O2 4784   2.431   3.006  11.530
  315MPD2     C 4785   2.597   1.327  17.736
  315MPD2    C1 4786   2.704   1.365  17.819
  315MPD2    C2 4787   2.762   1.482  17.798
  315MPD2    C3 4788   2.729   1.562  17.689
  315MPD2    C4 4789   2.630   1.526  17.602
  315MPD2    C5 4790   2.558   1.409  17.627
  315MPD2     H 4791   2.846   1.513  17.859
  315MPD2    H1 4792   2.608   1.578  17.510
  315MPD2    H2 4793   2.540   1.237  17.758
  315MPD2    H3 4794   2.469   1.388  17.569
  315MPD2     N 4795   2.796   1.686  17.672
  315MPD2    H5 4796   2.880   1.706  17.726
  315MPD2    N1 4797   2.739   1.284  17.931
  315MPD2    H7 4798   2.814   1.320  17.990
  316TMC3    C1 4799   2.868   1.894  17.587
  316TMC3    C2 4800   2.996   1.872  17.627
  316TMC3    C3 4801   3.091   1.959  17.584
  316TMC3    C4 4802   2.835   1.990  17.496
  316TMC3    C5 4803   2.931   2.082  17.461
  316TMC3    C6 4804   3.059   2.063  17.506
  316TMC3     C 4805   2.768   1.786  17.587
  316TMC3     O 4806   2.671   1.800  17.511
  316TMC3     H 4807   3.021   1.780  17.678
  316TMC3    H1 4808   2.733   2.001  17.460
  316TMC3    H2 4809   3.139   2.133  17.490
  316TMC3    C7 4810   2.886   2.217  17.458
  316TMC3    C8 4811   3.208   1.975  17.668
  316TMC3    O1 4812   2.948   2.300  17.526
  316TMC3    O2 4813   3.276   2.073  17.649
  317MPD2     C 4814   4.404   4.803  12.722
  317MPD2    C1 4815   4.453   4.671  12.711
  317MPD2    C2 4816   4.523   4.621  12.817
  317MPD2    C3 4817   4.568   4.699  12.925
  317MPD2    C4 4818   4.519   0.021  12.931
  317MPD2    C5 4819   4.435   0.071  12.832
  317MPD2     H 4820   4.564   4.521  12.812
  317MPD2    H1 4821   4.533   0.087  13.017
  317MPD2    H2 4822   4.355   0.046  12.638
  317MPD2    H3 4823   4.403   0.174  12.847
  317MPD2     N 4824   4.648   4.637  13.022
  317MPD2    H5 4825   4.656   4.536  13.010
  317MPD2    N1 4826   4.434   4.604  12.588
  317MPD2    H7 4827   4.495   4.524  12.572
  318TMC3    C1 4828   4.747   4.603  13.229
  318TMC3    C2 4829   4.665   4.501  13.247
  318TMC3    C3 4830   4.703   4.396  13.333
  318TMC3    C4 4831   0.060   4.616  13.300
  318TMC3    C5 4832   0.098   4.512  13.383
  318TMC3    C6 4833   0.018   4.400  13.400
  318TMC3     C 4834   4.710   4.697  13.129
  318TMC3     O 4835   4.759   0.003  13.145
  318TMC3     H 4836   4.563   4.512  13.211
  318TMC3    H1 4837   0.120   4.706  13.293
  318TMC3    H2 4838   0.032   4.326  13.478
  318TMC3    C7 4839   0.221   4.536  13.462
  318TMC3    C8 4840   4.620   4.276  13.348
  318TMC3    O1 4841   0.239   4.654  13.482
  318TMC3    O2 4842   4.671   4.164  13.357
  319MPD2     C 4843   0.790   0.967  16.587
  319MPD2    C1 4844   0.676   0.954  16.664
  319MPD2    C2 4845   0.568   0.887  16.606
  319MPD2    C3 4846   0.568   0.837  16.480
  319MPD2    C4 4847   0.683   0.852  16.405
  319MPD2    C5 4848   0.791   0.914  16.461
  319MPD2     H 4849   0.475   0.887  16.662
  319MPD2    H1 4850   0.692   0.819  16.302
  319MPD2    H2 4851   0.882   1.009  16.623
  319MPD2    H3 4852   0.877   0.932  16.398
  319MPD2     N 4853   0.458   0.776  16.417
  319MPD2    H5 4854   0.456   0.782  16.315
  319MPD2    N1 4855   0.661   1.011  16.791
  319MPD2    H7 4856   0.572   0.997  16.838
  320TMC3    C1 4857   0.238   0.705  16.412
  320TMC3    C2 4858   0.208   0.804  16.316
  320TMC3    C3 4859   0.085   0.796  16.249
  320TMC3    C4 4860   0.151   0.601  16.443
  320TMC3    C5 4861   0.031   0.602  16.381
  320TMC3    C6 4862   4.804   0.692  16.281
  320TMC3     C 4863   0.359   0.719  16.489
  320TMC3     O 4864   0.348   0.707  16.609
  320TMC3     H 4865   0.268   0.894  16.306
  320TMC3    H1 4866   0.189   0.531  16.516
  320TMC3    H2 4867   4.704   0.688  16.239
  320TMC3    C7 4868   4.745   0.487  16.406
  320TMC3    C8 4869   0.050   0.910  16.165
  320TMC3    O1 4870   4.660   0.462  16.324
  320TMC3    O2 4871   0.117   1.012  16.178
  321TMC3    C1 4872   0.732   1.103  16.996
  321TMC3    C2 4873   0.653   1.017  17.059
  321TMC3    C3 4874   0.552   1.061  17.142
  321TMC3    C4 4875   0.746   1.236  17.038
  321TMC3    C5 4876   0.650   1.276  17.132
  321TMC3    C6 4877   0.552   1.191  17.174
  321TMC3     C 4878   0.764   1.077  16.859
  321TMC3     O 4879   0.853   1.144  16.809
  321TMC3     H 4880   0.667   0.913  17.031
  321TMC3    H1 4881   0.815   1.306  16.993
  321TMC3    H2 4882   0.479   1.233  17.242
  321TMC3    C7 4883   0.717   1.326  17.251
  321TMC3    C8 4884   0.527   0.987  17.260
  321TMC3    O1 4885   0.828   1.281  17.271
  321TMC3    O2 4886   0.524   1.062  17.355
  322MPD2     C 4887   4.206   2.497  13.761
  322MPD2    C1 4888   4.244   2.426  13.874
  322MPD2    C2 4889   4.282   2.297  13.864
  322MPD2    C3 4890   4.284   2.233  13.739
  322MPD2    C4 4891   4.249   2.306  13.625
  322MPD2    C5 4892   4.204   2.434  13.641
  322MPD2     H 4893   4.309   2.236  13.950
  322MPD2    H1 4894   4.256   2.250  13.532
  322MPD2    H2 4895   4.175   2.601  13.759
  322MPD2    H3 4896   4.167   2.482  13.552
  322MPD2     N 4897   4.341   2.109  13.742
  322MPD2    H5 4898   4.357   2.061  13.830
  322MPD2    N1 4899   4.256   2.502  13.992
  322MPD2    H7 4900   4.243   2.603  13.985
  323TMC3    C1 4901   4.329   2.538  14.216
  323TMC3    C2 4902   4.433   2.621  14.176
  323TMC3    C3 4903   4.532   2.644  14.274
  323TMC3    C4 4904   4.322   2.497  14.347
  323TMC3    C5 4905   4.414   2.540  14.441
  323TMC3    C6 4906   4.523   2.610  14.409
  323TMC3     C 4907   4.283   2.447  14.116
  323TMC3     O 4908   4.288   2.335  14.162
  323TMC3     H 4909   4.433   2.668  14.079
  323TMC3    H1 4910   4.233   2.441  14.375
  323TMC3    H2 4911   4.613   2.607  14.469
  323TMC3    C7 4912   4.452   2.434  14.538
  323TMC3    C8 4913   4.667   2.684  14.220
  323TMC3    O1 4914   4.413   2.323  14.507
  323TMC3    O2 4915   4.760   2.670  14.300
  324MPD2     C 4916   0.901   3.577  14.460
  324MPD2    C1 4917   0.953   3.663  14.361
  324MPD2    C2 4918   0.864   3.693  14.263
  324MPD2    C3 4919   0.728   3.646  14.271
  324MPD2    C4 4920   0.680   3.563  14.375
  324MPD2    C5 4921   0.777   3.525  14.468
  324MPD2     H 4922   0.894   3.750  14.176
  324MPD2    H1 4923   0.578   3.527  14.380
  324MPD2    H2 4924   0.963   3.533  14.538
  324MPD2    H3 4925   0.736   3.461  14.546
  324MPD2     N 4926   0.626   3.684  14.173
  324MPD2    H5 4927   0.532   3.650  14.193
  324MPD2    N1 4928   1.090   3.694  14.353
  324MPD2    H7 4929   1.122   3.765  14.288
  325TMC3    C1 4930   0.524   3.748  13.957
  325TMC3    C2 4931   0.419   3.677  13.991
  325TMC3    C3 4932   0.299   3.691  13.925
  325TMC3    C4 4933   0.510   3.856  13.872
  325TMC3    C5 4934   0.396   3.866  13.796
  325TMC3    C6 4935   0.285   3.791  13.831
  325TMC3     C 4936   0.636   3.757  14.055
  325TMC3     O 4937   0.742   3.806  14.013
  325TMC3     H 4938   0.432   3.590  14.054
  325TMC3    H1 4939   0.591   3.927  13.866
  325TMC3    H2 4940   0.193   3.810  13.776
  325TMC3    C7 4941   0.377   4.007  13.772
  325TMC3    C8 4942   0.200   3.584  13.937
  325TMC3    O1 4943   0.472   4.070  13.735
  325TMC3    O2 4944   0.209   3.501  14.027
  326MPD2     C 4945   2.405   0.640  11.319
  326MPD2    C1 4946   2.412   0.550  11.212
  326MPD2    C2 4947   2.534   0.495  11.174
  326MPD2    C3 4948   2.645   0.528  11.236
  326MPD2    C4 4949   2.641   0.614  11.342
  326MPD2    C5 4950   2.520   0.668  11.384
  326MPD2     H 4951   2.526   0.432  11.086
  326MPD2    H1 4952   2.729   0.650  11.394
  326MPD2    H2 4953   2.312   0.691  11.340
  326MPD2    H3 4954   2.529   0.731  11.472
  326MPD2     N 4955   2.778   0.480  11.203
  326MPD2    H5 4956   2.863   0.515  11.246
  326MPD2    N1 4957   2.307   0.522  11.121
  326MPD2    H7 4958   2.329   0.454  11.049
  327TMC3    C1 4959   2.098   0.507  11.013
  327TMC3    C2 4960   2.011   0.587  10.943
  327TMC3    C3 4961   2.006   0.579  10.811
  327TMC3    C4 4962   2.139   0.389  10.951
  327TMC3    C5 4963   2.127   0.384  10.816
  327TMC3    C6 4964   2.058   0.474  10.741
  327TMC3     C 4965   2.183   0.575  11.117
  327TMC3     O 4966   2.150   0.675  11.177
  327TMC3     H 4967   1.964   0.669  10.996
  327TMC3    H1 4968   2.186   0.308  11.006
  327TMC3    H2 4969   2.048   0.484  10.634
  327TMC3    C7 4970   2.231   0.310  10.744
  327TMC3    C8 4971   1.897   0.664  10.755
  327TMC3    O1 4972   2.241   0.322  10.622
  327TMC3    O2 4973   1.898   0.702  10.638
  328MPD2     C 4974   0.081   4.582  17.496
  328MPD2    C1 4975   0.031   4.507  17.396
  328MPD2    C2 4976   4.802   4.567  17.273
  328MPD2    C3 4977   0.002   4.702  17.261
  328MPD2    C4 4978   0.058   4.775  17.363
  328MPD2    C5 4979   0.096   4.712  17.478
  328MPD2     H 4980   4.766   4.505  17.192
  328MPD2    H1 4981   0.061   0.079  17.364
  328MPD2    H2 4982   0.101   4.549  17.597
  328MPD2    H3 4983   0.135   4.781  17.552
  328MPD2     N 4984   4.742   4.774  17.161
  328MPD2    H5 4985   4.750   0.070  17.174
  328MPD2    N1 4986   4.802   4.378  17.421
  328MPD2    H7 4987   0.012   4.349  17.517
  329TMC3    C1 4988   4.683   4.185  17.434
  329TMC3    C2 4989   4.590   4.241  17.522
  329TMC3    C3 4990   4.477   4.180  17.557
  329TMC3    C4 4991   4.662   4.059  17.384
  329TMC3    C5 4992   4.544   3.995  17.424
  329TMC3    C6 4993   4.460   4.050  17.515
  329TMC3     C 4994   4.752   4.278  17.345
  329TMC3     O 4995   4.720   4.265  17.227
  329TMC3     H 4996   4.604   4.341  17.562
  329TMC3    H1 4997   4.737   4.022  17.315
  329TMC3    H2 4998   4.368   3.996  17.531
  329TMC3    C7 4999   4.556   3.851  17.449
  329TMC3    C8 5000   4.354   4.249  17.591
  329TMC3    O1 5001   4.502   3.809  17.551
  329TMC3    O2 5002   4.254   4.207  17.537
  330TMC3    C1 5003   2.389   4.497   9.680
  330TMC3    C2 5004   2.321   4.383   9.638
  330TMC3    C3 5005   2.354   4.261   9.700
  330TMC3    C4 5006   2.491   4.487   9.767
  330TMC3    C5 5007   2.520   4.373   9.827
  330TMC3    C6 5008   2.456   4.257   9.789
  330TMC3     C 5009   2.336   4.629   9.659
  330TMC3     O 5010   2.365   4.705   9.749
  330TMC3     H 5011   2.236   4.391   9.572
  330TMC3    H1 5012   2.554   4.576   9.766
  330TMC3    H2 5013   2.496   4.160   9.816
  330TMC3    C7 5014   2.641   4.365   9.905
  330TMC3    C8 5015   2.302   4.136   9.642
  330TMC3    O1 5016   2.724   4.454   9.905
  330TMC3    O2 5017   2.250   4.136   9.533
  331MPD2     C 5018   1.087   2.983  13.598
  331MPD2    C1 5019   1.151   2.983  13.475
  331MPD2    C2 5020   1.103   2.899  13.375
  331MPD2    C3 5021   1.004   2.814  13.402
  331MPD2    C4 5022   0.956   2.793  13.535
  331MPD2    C5 5023   0.993   2.887  13.631
  331MPD2     H 5024   1.148   2.892  13.277
  331MPD2    H1 5025   0.871   2.731  13.562
  331MPD2    H2 5026   1.119   3.057  13.671
  331MPD2    H3 5027   0.956   2.875  13.733
  331MPD2     N 5028   0.951   2.734  13.293
  331MPD2    H5 5029   1.000   2.750  13.205
  331MPD2    N1 5030   1.253   3.081  13.447
  331MPD2    H7 5031   1.255   3.165  13.503
  332TMC3    C1 5032   0.849   2.553  13.182
  332TMC3    C2 5033   0.882   2.625  13.073
  332TMC3    C3 5034   0.935   2.548  12.974
  332TMC3    C4 5035   0.853   2.417  13.190
  332TMC3    C5 5036   0.909   2.345  13.092
  332TMC3    C6 5037   0.950   2.408  12.980
  332TMC3     C 5038   0.869   2.618  13.304
  332TMC3     O 5039   0.837   2.563  13.409
  332TMC3     H 5040   0.880   2.733  13.058
  332TMC3    H1 5041   0.828   2.366  13.283
  332TMC3    H2 5042   1.000   2.347  12.906
  332TMC3    C7 5043   0.977   2.228  13.131
  332TMC3    C8 5044   0.987   2.612  12.865
  332TMC3    O1 5045   0.920   2.122  13.104
  332TMC3    O2 5046   1.060   2.708  12.875
  333MPD2     C 5047   0.786   3.408  11.442
  333MPD2    C1 5048   0.819   3.351  11.313
  333MPD2    C2 5049   0.823   3.217  11.306
  333MPD2    C3 5050   0.779   3.135  11.403
  333MPD2    C4 5051   0.739   3.190  11.526
  333MPD2    C5 5052   0.746   3.326  11.552
  333MPD2     H 5053   0.856   3.161  11.219
  333MPD2    H1 5054   0.709   3.128  11.610
  333MPD2    H2 5055   0.793   3.514  11.459
  333MPD2    H3 5056   0.712   3.365  11.647
  333MPD2     N 5057   0.781   3.002  11.368
  333MPD2    H5 5058   0.821   2.976  11.278
  333MPD2    N1 5059   0.861   3.438  11.213
  333MPD2    H7 5060   0.905   3.526  11.238
  334TMC3    C1 5061   0.942   3.509  11.003
  334TMC3    C2 5062   1.021   3.465  10.904
  334TMC3    C3 5063   1.131   3.543  10.857
  334TMC3    C4 5064   0.939   3.643  11.044
  334TMC3    C5 5065   1.038   3.718  10.990
  334TMC3    C6 5066   1.134   3.671  10.902
  334TMC3     C 5067   0.874   3.403  11.078
  334TMC3     O 5068   0.832   3.304  11.021
  334TMC3     H 5069   1.023   3.360  10.877
  334TMC3    H1 5070   0.869   3.684  11.115
  334TMC3    H2 5071   1.216   3.737  10.874
  334TMC3    C7 5072   1.058   3.852  11.054
  334TMC3    C8 5073   1.257   3.472  10.829
  334TMC3    O1 5074   1.174   3.882  11.090
  334TMC3    O2 5075   1.246   3.352  10.790
  335TMC3    C1 5076   0.765   4.547  17.448
  335TMC3    C2 5077   0.709   4.453  17.369
  335TMC3    C3 5078   0.762   4.432  17.248
  335TMC3    C4 5079   0.874   4.628  17.412
  335TMC3    C5 5080   0.927   4.599  17.288
  335TMC3    C6 5081   0.871   4.508  17.206
  335TMC3     C 5082   0.703   4.576  17.579
  335TMC3     O 5083   0.586   4.546  17.598
  335TMC3     H 5084   0.630   4.389  17.407
  335TMC3    H1 5085   0.926   4.695  17.480
  335TMC3    H2 5086   0.907   4.477  17.109
  335TMC3    C7 5087   1.057   4.639  17.245
  335TMC3    C8 5088   0.686   4.365  17.146
  335TMC3    O1 5089   1.100   4.585  17.144
  335TMC3    O2 5090   0.705   4.400  17.029
  336MPD2     C 5091   0.502   2.105  16.471
  336MPD2    C1 5092   0.488   2.046  16.342
  336MPD2    C2 5093   0.503   1.912  16.325
  336MPD2    C3 5094   0.542   1.826  16.426
  336MPD2    C4 5095   0.569   1.885  16.555
  336MPD2    C5 5096   0.545   2.020  16.577
  336MPD2     H 5097   0.469   1.886  16.225
  336MPD2    H1 5098   0.592   1.821  16.639
  336MPD2    H2 5099   0.482   2.209  16.493
  336MPD2    H3 5100   0.555   2.061  16.677
  336MPD2     N 5101   0.555   1.685  16.410
  336MPD2    H5 5102   0.574   1.639  16.499
  336MPD2    N1 5103   0.439   2.119  16.229
  336MPD2    H7 5104   0.412   2.064  16.148
  337TMC3    C1 5105   0.353   2.277  16.097
  337TMC3    C2 5106   0.249   2.200  16.048
  337TMC3    C3 5107   0.185   2.238  15.930
  337TMC3    C4 5108   0.395   2.384  16.024
  337TMC3    C5 5109   0.338   2.413  15.904
  337TMC3    C6 5110   0.227   2.349  15.862
  337TMC3     C 5111   0.417   2.252  16.224
  337TMC3     O 5112   0.469   2.339  16.291
  337TMC3     H 5113   0.200   2.126  16.111
  337TMC3    H1 5114   0.463   2.456  16.069
  337TMC3    H2 5115   0.177   2.391  15.775
  337TMC3    C7 5116   0.347   2.554  15.865
  337TMC3    C8 5117   0.075   2.164  15.875
  337TMC3    O1 5118   0.250   2.598  15.802
  337TMC3    O2 5119   0.051   2.052  15.927
  338MPD2     C 5120   1.163   1.962  19.079
  338MPD2    C1 5121   1.058   1.940  18.983
  338MPD2    C2 5122   0.942   2.019  19.000
  338MPD2    C3 5123   0.925   2.105  19.103
  338MPD2    C4 5124   1.025   2.121  19.196
  338MPD2    C5 5125   1.138   2.048  19.183
  338MPD2     H 5126   0.872   2.014  18.917
  338MPD2    H1 5127   1.016   2.203  19.266
  338MPD2    H2 5128   1.262   1.919  19.073
  338MPD2    H3 5129   1.212   2.067  19.259
  338MPD2     N 5130   0.799   2.174  19.095
  338MPD2    H5 5131   0.735   2.147  19.021
  338MPD2    N1 5132   1.071   1.861  18.866
  338MPD2    H7 5133   0.984   1.845  18.817
  339TMC3    C1 5134   0.608   2.268  19.162
  339TMC3    C2 5135   0.575   2.211  19.044
  339TMC3    C3 5136   0.494   2.099  19.052
  339TMC3    C4 5137   0.538   2.236  19.279
  339TMC3    C5 5138   0.445   2.128  19.278
  339TMC3    C6 5139   0.424   2.060  19.165
  339TMC3     C 5140   0.756   2.270  19.178
  339TMC3     O 5141   0.806   2.305  19.282
  339TMC3     H 5142   0.616   2.252  18.952
  339TMC3    H1 5143   0.567   2.281  19.373
  339TMC3    H2 5144   0.355   1.977  19.163
  339TMC3    C7 5145   0.396   2.098  19.412
  339TMC3    C8 5146   0.505   2.014  18.937
  339TMC3    O1 5147   0.469   2.118  19.503
  339TMC3    O2 5148   0.538   2.078  18.838
  340MPD2     C 5149   0.641   0.053  10.366
  340MPD2    C1 5150   0.692   4.730  10.404
  340MPD2    C2 5151   0.751   4.711  10.531
  340MPD2    C3 5152   0.786   0.020  10.601
  340MPD2    C4 5153   0.732   0.138  10.561
  340MPD2    C5 5154   0.654   0.147  10.451
  340MPD2     H 5155   0.798   4.620  10.567
  340MPD2    H1 5156   0.759   0.227  10.616
  340MPD2    H2 5157   0.569   0.061  10.286
  340MPD2    H3 5158   0.612   0.244  10.429
  340MPD2     N 5159   0.873   0.018  10.714
  340MPD2    H5 5160   0.914   0.106  10.744
  340MPD2    N1 5161   0.672   4.624  10.314
  340MPD2    H7 5162   0.630   4.645  10.223
  341TMC3    C1 5163   0.708   4.416  10.206
  341TMC3    C2 5164   0.702   4.280  10.219
  341TMC3    C3 5165   0.721   4.204  10.107
  341TMC3    C4 5166   0.723   4.483  10.084
  341TMC3    C5 5167   0.729   4.404   9.972
  341TMC3    C6 5168   0.730   4.266   9.984
  341TMC3     C 5169   0.704   4.491  10.335
  341TMC3     O 5170   0.743   4.440  10.437
  341TMC3     H 5171   0.698   4.235  10.318
  341TMC3    H1 5172   0.725   4.591  10.074
  341TMC3    H2 5173   0.719   4.206   9.894
  341TMC3    C7 5174   0.813   4.465   9.862
  341TMC3    C8 5175   0.696   4.058  10.122
  341TMC3    O1 5176   0.872   4.381   9.796
  341TMC3    O2 5177   0.616   4.030  10.211
  342MPD2     C 5178   3.426   2.605  17.336
  342MPD2    C1 5179   3.493   2.591  17.453
  342MPD2    C2 5180   3.531   2.699  17.523
  342MPD2    C3 5181   3.491   2.827  17.474
  342MPD2    C4 5182   3.410   2.843  17.364
  342MPD2    C5 5183   3.384   2.731  17.290
  342MPD2     H 5184   3.579   2.700  17.620
  342MPD2    H1 5185   3.384   2.939  17.321
  342MPD2    H2 5186   3.397   2.520  17.277
  342MPD2    H3 5187   3.320   2.735  17.203
  342MPD2     N 5188   3.528   2.948  17.537
  342MPD2    H5 5189   3.473   3.031  17.516
  342MPD2    N1 5190   3.524   2.458  17.504
  342MPD2    H7 5191   3.576   2.453  17.591
  343TMC3    C1 5192   3.587   2.231  17.481
  343TMC3    C2 5193   3.723   2.257  17.483
  343TMC3    C3 5194   3.807   2.145  17.455
  343TMC3    C4 5195   3.536   2.106  17.444
  343TMC3    C5 5196   3.623   2.001  17.444
  343TMC3    C6 5197   3.754   2.015  17.449
  343TMC3     C 5198   3.493   2.337  17.446
  343TMC3     O 5199   3.425   2.310  17.347
  343TMC3     H 5200   3.761   2.357  17.500
  343TMC3    H1 5201   3.429   2.088  17.449
  343TMC3    H2 5202   3.822   1.931  17.439
  343TMC3    C7 5203   3.560   1.880  17.494
  343TMC3    C8 5204   3.951   2.170  17.421
  343TMC3    O1 5205   3.464   1.835  17.442
  343TMC3    O2 5206   4.002   2.262  17.485
  344MPD2     C 5207   4.217   2.526  11.008
  344MPD2    C1 5208   4.316   2.442  10.955
  344MPD2    C2 5209   4.398   2.494  10.852
  344MPD2    C3 5210   4.398   2.623  10.821
  344MPD2    C4 5211   4.302   2.712  10.881
  344MPD2    C5 5212   4.208   2.656  10.965
  344MPD2     H 5213   4.460   2.418  10.806
  344MPD2    H1 5214   4.301   2.819  10.862
  344MPD2    H2 5215   4.136   2.493  11.072
  344MPD2    H3 5216   4.133   2.721  11.007
  344MPD2     N 5217   4.493   2.677  10.732
  344MPD2    H5 5218   4.486   2.775  10.706
  344MPD2    N1 5219   4.301   2.301  10.970
  344MPD2    H7 5220   4.349   2.245  10.900
  345TMC3    C1 5221   4.689   2.696  10.607
  345TMC3    C2 5222   0.020   2.686  10.623
  345TMC3    C3 5223   0.087   2.800  10.606
  345TMC3    C4 5224   4.636   2.787  10.523
  345TMC3    C5 5225   4.714   2.893  10.485
  345TMC3    C6 5226   0.038   2.905  10.527
  345TMC3     C 5227   4.610   2.616  10.693
  345TMC3     O 5228   4.662   2.528  10.752
  345TMC3     H 5229   0.051   2.606  10.688
  345TMC3    H1 5230   4.527   2.791  10.522
  345TMC3    H2 5231   0.086   3.001  10.510
  345TMC3    C7 5232   4.657   2.994  10.400
  345TMC3    C8 5233   0.159   2.844  10.717
  345TMC3    O1 5234   4.718   3.096  10.379
  345TMC3    O2 5235   0.132   2.813  10.833
  346MPD2     C 5236   4.268   3.669  13.971
  346MPD2    C1 5237   4.369   3.750  13.923
  346MPD2    C2 5238   4.407   3.865  13.991
  346MPD2    C3 5239   4.332   3.908  14.094
  346MPD2    C4 5240   4.215   3.840  14.127
  346MPD2    C5 5241   4.191   3.714  14.075
  346MPD2     H 5242   4.497   3.916  13.959
  346MPD2    H1 5243   4.164   3.874  14.216
  346MPD2    H2 5244   4.250   3.571  13.928
  346MPD2    H3 5245   4.102   3.660  14.106
  346MPD2     N 5246   4.374   4.022  14.159
  346MPD2    H5 5247   4.456   4.069  14.123
  346MPD2    N1 5248   4.443   3.720  13.810
  346MPD2    H7 5249   4.519   3.782  13.781
  347TMC3    C1 5250   4.364   4.220  14.274
  347TMC3    C2 5251   4.444   4.244  14.165
  347TMC3    C3 5252   4.563   4.299  14.188
  347TMC3    C4 5253   4.404   4.242  14.405
  347TMC3    C5 5254   4.534   4.291  14.418
  347TMC3    C6 5255   4.616   4.314  14.317
  347TMC3     C 5256   4.305   4.090  14.262
  347TMC3     O 5257   4.223   4.050  14.345
  347TMC3     H 5258   4.405   4.222  14.066
  347TMC3    H1 5259   4.340   4.218  14.489
  347TMC3    H2 5260   4.719   4.346  14.328
  347TMC3    C7 5261   4.597   4.272  14.549
  347TMC3    C8 5262   4.652   4.244  14.093
  347TMC3    O1 5263   4.519   4.250  14.644
  347TMC3    O2 5264   4.627   4.136  14.043
  348MPD2     C 5265   3.026   3.898  12.376
  348MPD2    C1 5266   3.142   3.889  12.303
  348MPD2    C2 5267   3.145   3.967  12.182
  348MPD2    C3 5268   3.035   4.044  12.141
  348MPD2    C4 5269   2.923   4.047  12.219
  348MPD2    C5 5270   2.928   3.981  12.336
  348MPD2     H 5271   3.228   3.962  12.111
  348MPD2    H1 5272   2.838   4.110  12.194
  348MPD2    H2 5273   2.990   3.844  12.463
  348MPD2    H3 5274   2.838   3.980  12.397
  348MPD2     N 5275   3.043   4.101  12.006
  348MPD2    H5 5276   3.120   4.070  11.948
  348MPD2    N1 5277   3.243   3.794  12.342
  348MPD2    H7 5278   3.322   3.773  12.283
  349TMC3    C1 5279   3.328   3.603  12.436
  349TMC3    C2 5280   3.279   3.479  12.475
  349TMC3    C3 5281   3.316   3.373  12.405
  349TMC3    C4 5282   3.416   3.615  12.332
  349TMC3    C5 5283   3.451   3.505  12.262
  349TMC3    C6 5284   3.403   3.385  12.300
  349TMC3     C 5285   3.220   3.700  12.438
  349TMC3     O 5286   3.127   3.673  12.515
  349TMC3     H 5287   3.207   3.464  12.554
  349TMC3    H1 5288   3.472   3.708  12.326
  349TMC3    H2 5289   3.436   3.295  12.249
  349TMC3    C7 5290   3.566   3.514  12.170
  349TMC3    C8 5291   3.310   3.242  12.471
  349TMC3    O1 5292   3.645   3.424  12.195
  349TMC3    O2 5293   3.315   3.234  12.595
  350MPD2     C 5294   2.110   1.900  10.792
  350MPD2    C1 5295   2.199   1.853  10.696
  350MPD2    C2 5296   2.327   1.900  10.696
  350MPD2    C3 5297   2.373   1.984  10.786
  350MPD2    C4 5298   2.277   2.026  10.885
  350MPD2    C5 5299   2.146   1.988  10.890
  350MPD2     H 5300   2.407   1.862  10.633
  350MPD2    H1 5301   2.298   2.099  10.962
  350MPD2    H2 5302   2.006   1.872  10.805
  350MPD2    H3 5303   2.084   2.021  10.972
  350MPD2     N 5304   2.509   2.033  10.771
  350MPD2    H5 5305   2.554   1.993  10.689
  350MPD2    N1 5306   2.172   1.756  10.596
  350MPD2    H7 5307   2.247   1.727  10.534
  351TMC3    C1 5308   2.055   1.574  10.501
  351TMC3    C2 5309   2.171   1.505  10.476
  351TMC3    C3 5310   2.168   1.404  10.384
  351TMC3    C4 5311   1.931   1.541  10.446
  351TMC3    C5 5312   1.934   1.433  10.363
  351TMC3    C6 5313   2.057   1.362  10.324
  351TMC3     C 5314   2.052   1.691  10.583
  351TMC3     O 5315   1.944   1.734  10.624
  351TMC3     H 5316   2.265   1.549  10.505
  351TMC3    H1 5317   1.843   1.601  10.466
  351TMC3    H2 5318   2.059   1.271  10.265
  351TMC3    C7 5319   1.829   1.442  10.259
  351TMC3    C8 5320   2.289   1.364  10.314
  351TMC3    O1 5321   1.742   1.525  10.274
  351TMC3    O2 5322   2.281   1.317  10.196
  352MPD2     C 5323   0.741   3.913  18.700
  352MPD2    C1 5324   0.711   3.896  18.831
  352MPD2    C2 5325   0.813   3.856  18.915
  352MPD2    C3 5326   0.934   3.815  18.870
  352MPD2    C4 5327   0.953   3.825  18.732
  352MPD2    C5 5328   0.864   3.883  18.651
  352MPD2     H 5329   0.789   3.849  19.020
  352MPD2    H1 5330   1.047   3.791  18.690
  352MPD2    H2 5331   0.666   3.944  18.628
  352MPD2    H3 5332   0.892   3.896  18.547
  352MPD2     N 5333   1.036   3.764  18.949
  352MPD2    H5 5334   1.112   3.722  18.898
  352MPD2    N1 5335   0.583   3.920  18.879
  352MPD2    H7 5336   0.514   3.966  18.821
  353TMC3    C1 5337   1.159   3.673  19.143
  353TMC3    C2 5338   1.252   3.617  19.061
  353TMC3    C3 5339   1.304   3.501  19.102
  353TMC3    C4 5340   1.129   3.622  19.268
  353TMC3    C5 5341   1.159   3.487  19.285
  353TMC3    C6 5342   1.251   3.431  19.204
  353TMC3     C 5343   1.041   3.752  19.087
  353TMC3     O 5344   0.954   3.780  19.170
  353TMC3     H 5345   1.290   3.666  18.972
  353TMC3    H1 5346   1.058   3.662  19.340
  353TMC3    H2 5347   1.271   3.324  19.205
  353TMC3    C7 5348   1.037   3.405  19.279
  353TMC3    C8 5349   1.370   3.421  19.004
  353TMC3    O1 5350   1.022   3.334  19.180
  353TMC3    O2 5351   1.327   3.424  18.889
  354TMC3    C1 5352   2.371   0.143  13.829
  354TMC3    C2 5353   2.473   0.232  13.855
  354TMC3    C3 5354   2.585   0.238  13.778
  354TMC3    C4 5355   2.380   0.062  13.719
  354TMC3    C5 5356   2.499   0.058  13.642
  354TMC3    C6 5357   2.601   0.146  13.676
  354TMC3     C 5358   2.308   0.072  13.943
  354TMC3     O 5359   2.209   0.003  13.928
  354TMC3     H 5360   2.466   0.304  13.936
  354TMC3    H1 5361   2.305   4.797  13.682
  354TMC3    H2 5362   2.689   0.165  13.616
  354TMC3    C7 5363   2.487   0.028  13.503
  354TMC3    C8 5364   2.646   0.366  13.749
  354TMC3    O1 5365   2.376   0.042  13.455
  354TMC3    O2 5366   2.567   0.454  13.726
  355MPD2     C 5367   2.631   1.064  12.158
  355MPD2    C1 5368   2.722   0.990  12.080
  355MPD2    C2 5369   2.814   0.912  12.144
  355MPD2    C3 5370   2.805   0.892  12.281
  355MPD2    C4 5371   2.704   0.956  12.350
  355MPD2    C5 5372   2.626   1.050  12.293
  355MPD2     H 5373   2.904   0.877  12.094
  355MPD2    H1 5374   2.701   0.935  12.456
  355MPD2    H2 5375   2.562   1.136  12.116
  355MPD2    H3 5376   2.559   1.113  12.351
  355MPD2     N 5377   2.913   0.841  12.352
  355MPD2    H5 5378   2.926   0.871  12.448
  355MPD2    N1 5379   2.737   1.028  11.943
  355MPD2    H7 5380   2.694   1.115  11.913
  356TMC3    C1 5381   3.138   0.833  12.328
  356TMC3    C2 5382   3.212   0.883  12.231
  356TMC3    C3 5383   3.272   1.001  12.258
  356TMC3    C4 5384   3.149   0.870  12.460
  356TMC3    C5 5385   3.207   0.990  12.484
  356TMC3    C6 5386   3.279   1.051  12.383
  356TMC3     C 5387   3.018   0.771  12.293
  356TMC3     O 5388   3.015   0.693  12.198
  356TMC3     H 5389   3.202   0.828  12.138
  356TMC3    H1 5390   3.098   0.811  12.535
  356TMC3    H2 5391   3.320   1.148  12.409
  356TMC3    C7 5392   3.248   1.020  12.624
  356TMC3    C8 5393   3.327   1.057  12.133
  356TMC3    O1 5394   3.260   0.922  12.702
  356TMC3    O2 5395   3.269   1.018  12.032
  357MPD2     C 5396   2.563   0.561  18.324
  357MPD2    C1 5397   2.525   0.534  18.451
  357MPD2    C2 5398   2.412   0.596  18.496
  357MPD2    C3 5399   2.335   0.678  18.405
  357MPD2    C4 5400   2.370   0.693  18.274
  357MPD2    C5 5401   2.482   0.629  18.234
  357MPD2     H 5402   2.375   0.583  18.597
  357MPD2    H1 5403   2.315   0.764  18.212
  357MPD2    H2 5404   2.654   0.512  18.293
  357MPD2    H3 5405   2.521   0.649  18.135
  357MPD2     N 5406   2.219   0.742  18.437
  357MPD2    H5 5407   2.163   0.784  18.363
  357MPD2    N1 5408   2.590   0.423  18.513
  357MPD2    H7 5409   2.654   0.367  18.458
  358TMC3    C1 5410   2.569   0.250  18.664
  358TMC3    C2 5411   2.544   0.166  18.561
  358TMC3    C3 5412   2.477   0.054  18.599
  358TMC3    C4 5413   2.539   0.226  18.794
  358TMC3    C5 5414   2.493   0.100  18.823
  358TMC3    C6 5415   2.448   0.019  18.729
  358TMC3     C 5416   2.568   0.396  18.643
  358TMC3     O 5417   2.523   0.468  18.733
  358TMC3     H 5418   2.573   0.179  18.458
  358TMC3    H1 5419   2.579   0.289  18.873
  358TMC3    H2 5420   2.408   4.728  18.762
  358TMC3    C7 5421   2.455   0.085  18.961
  358TMC3    C8 5422   2.446   4.766  18.485
  358TMC3    O1 5423   2.482   4.777  19.011
  358TMC3    O2 5424   2.514   4.778  18.386
  359MPD2     C 5425   2.745   4.715  12.633
  359MPD2    C1 5426   2.729   4.631  12.526
  359MPD2    C2 5427   2.633   4.527  12.526
  359MPD2    C3 5428   2.550   4.520  12.639
  359MPD2    C4 5429   2.563   4.612  12.740
  359MPD2    C5 5430   2.656   4.705  12.743
  359MPD2     H 5431   2.620   4.470  12.435
  359MPD2    H1 5432   2.483   4.618  12.813
  359MPD2    H2 5433   2.822   4.791  12.631
  359MPD2    H3 5434   2.655   4.790  12.810
  359MPD2     N 5435   2.458   4.415  12.660
  359MPD2    H5 5436   2.424   4.408  12.756
  359MPD2    N1 5437   2.801   4.643  12.405
  359MPD2    H7 5438   2.762   4.595  12.325
  360TMC3    C1 5439   2.948   4.726  12.254
  360TMC3    C2 5440   3.082   4.758  12.240
  360TMC3    C3 5441   3.125   4.754  12.110
  360TMC3    C4 5442   2.880   4.666  12.152
  360TMC3    C5 5443   2.939   4.638  12.035
  360TMC3    C6 5444   3.063   4.689  12.010
  360TMC3     C 5445   2.906   4.725  12.389
  360TMC3     O 5446   2.978   4.785  12.470
  360TMC3     H 5447   3.134   0.023  12.304
  360TMC3    H1 5448   2.772   4.659  12.163
  360TMC3    H2 5449   3.119   4.686  11.917
  360TMC3    C7 5450   2.869   4.604  11.911
  360TMC3    C8 5451   3.253   0.016  12.087
  360TMC3    O1 5452   2.921   4.640  11.810
  360TMC3    O2 5453   3.262   0.127  12.131
  361MPD2     C 5454   4.486   2.813  16.811
  361MPD2    C1 5455   4.511   2.910  16.899
  361MPD2    C2 5456   4.615   2.909  16.990
  361MPD2    C3 5457   4.710   2.804  16.984
  361MPD2    C4 5458   4.700   2.709  16.884
  361MPD2    C5 5459   4.586   2.715  16.808
  361MPD2     H 5460   4.616   2.983  17.070
  361MPD2    H1 5461   4.765   2.622  16.882
  361MPD2    H2 5462   4.404   2.815  16.740
  361MPD2    H3 5463   4.564   2.641  16.731
  361MPD2     N 5464   0.013   2.794  17.068
  361MPD2    H5 5465   0.072   2.713  17.054
  361MPD2    N1 5466   4.412   3.011  16.918
  361MPD2    H7 5467   4.417   3.065  17.004
  362TMC3    C1 5468   4.228   3.157  16.863
  362TMC3    C2 5469   4.184   3.155  16.992
  362TMC3    C3 5470   4.093   3.247  17.025
  362TMC3    C4 5471   4.183   3.238  16.765
  362TMC3    C5 5472   4.102   3.335  16.806
  362TMC3    C6 5473   4.055   3.337  16.934
  362TMC3     C 5474   4.320   3.051  16.824
  362TMC3     O 5475   4.322   3.037  16.702
  362TMC3     H 5476   4.215   3.080  17.064
  362TMC3    H1 5477   4.225   3.244  16.666
  362TMC3    H2 5478   3.987   3.417  16.962
  362TMC3    C7 5479   4.027   3.423  16.714
  362TMC3    C8 5480   4.003   3.222  17.133
  362TMC3    O1 5481   3.973   3.521  16.759
  362TMC3    O2 5482   4.043   3.143  17.218
  363TMC3    C1 5483   2.856   1.086   9.486
  363TMC3    C2 5484   2.979   1.065   9.541
  363TMC3    C3 5485   3.006   1.141   9.652
  363TMC3    C4 5486   2.760   1.172   9.536
  363TMC3    C5 5487   2.796   1.249   9.648
  363TMC3    C6 5488   2.916   1.222   9.709
  363TMC3     C 5489   2.813   1.032   9.356
  363TMC3     O 5490   2.707   1.073   9.314
  363TMC3     H 5491   3.061   1.013   9.492
  363TMC3    H1 5492   2.667   1.195   9.484
  363TMC3    H2 5493   2.939   1.270   9.803
  363TMC3    C7 5494   2.710   1.361   9.675
  363TMC3    C8 5495   3.113   1.099   9.740
  363TMC3    O1 5496   2.598   1.359   9.634
  363TMC3    O2 5497   3.162   1.183   9.814
  364MPD2     C 5498   1.517   1.000  10.827
  364MPD2    C1 5499   1.633   1.004  10.750
  364MPD2    C2 5500   1.718   0.900  10.749
  364MPD2    C3 5501   1.706   0.791  10.833
  364MPD2    C4 5502   1.605   0.792  10.923
  364MPD2    C5 5503   1.508   0.897  10.922
  364MPD2     H 5504   1.815   0.910  10.701
  364MPD2    H1 5505   1.585   0.707  10.988
  364MPD2    H2 5506   1.431   1.065  10.819
  364MPD2    H3 5507   1.418   0.896  10.981
  364MPD2     N 5508   1.796   0.693  10.847
  364MPD2    H5 5509   1.792   0.636  10.931
  364MPD2    N1 5510   1.641   1.108  10.654
  364MPD2    H7 5511   1.564   1.173  10.647
  365TMC3    C1 5512   1.868   1.104  10.581
  365TMC3    C2 5513   1.935   1.016  10.504
  365TMC3    C3 5514   2.070   1.007  10.515
  365TMC3    C4 5515   1.931   1.182  10.666
  365TMC3    C5 5516   2.067   1.190  10.657
  365TMC3    C6 5517   2.143   1.094  10.590
  365TMC3     C 5518   1.731   1.140  10.555
  365TMC3     O 5519   1.709   1.236  10.479
  365TMC3     H 5520   1.881   0.965  10.425
  365TMC3    H1 5521   1.873   1.256  10.720
  365TMC3    H2 5522   2.251   1.093  10.592
  365TMC3    C7 5523   2.132   1.285  10.739
  365TMC3    C8 5524   2.130   0.912  10.422
  365TMC3    O1 5525   2.237   1.336  10.702
  365TMC3    O2 5526   2.236   0.938  10.369
  366MPD2     C 5527   0.137   1.079  15.500
  366MPD2    C1 5528   0.231   1.176  15.526
  366MPD2    C2 5529   0.364   1.155  15.503
  366MPD2    C3 5530   0.406   1.045  15.425
  366MPD2    C4 5531   0.307   0.949  15.392
  366MPD2    C5 5532   0.180   0.970  15.429
  366MPD2     H 5533   0.429   1.236  15.533
  366MPD2    H1 5534   0.342   0.864  15.334
  366MPD2    H2 5535   0.032   1.093  15.521
  366MPD2    H3 5536   0.104   0.903  15.392
  366MPD2     N 5537   0.538   1.056  15.363
  366MPD2    H5 5538   0.592   1.125  15.415
  366MPD2    N1 5539   0.186   1.296  15.580
  366MPD2    H7 5540   0.258   1.356  15.618
  367TMC3    C1 5541   0.059   1.493  15.611
  367TMC3    C2 5542   0.158   1.537  15.700
  367TMC3    C3 5543   0.185   1.671  15.698
  367TMC3    C4 5544   4.800   1.579  15.535
  367TMC3    C5 5545   0.004   1.712  15.554
  367TMC3    C6 5546   0.109   1.760  15.625
  367TMC3     C 5547   0.058   1.355  15.560
  367TMC3     O 5548   4.768   1.323  15.501
  367TMC3     H 5549   0.206   1.466  15.767
  367TMC3    H1 5550   4.728   1.536  15.467
  367TMC3    H2 5551   0.130   1.864  15.648
  367TMC3    C7 5552   4.721   1.808  15.487
  367TMC3    C8 5553   0.298   1.713  15.787
  367TMC3    O1 5554   4.764   1.918  15.490
  367TMC3    O2 5555   0.336   1.636  15.871
  368MPD2     C 5556   1.838   3.176  13.749
  368MPD2    C1 5557   1.820   3.275  13.655
  368MPD2    C2 5558   1.932   3.303  13.576
  368MPD2    C3 5559   2.054   3.248  13.600
  368MPD2    C4 5560   2.075   3.163  13.712
  368MPD2    C5 5561   1.961   3.126  13.780
  368MPD2     H 5562   1.910   3.374  13.497
  368MPD2    H1 5563   2.169   3.113  13.734
  368MPD2    H2 5564   1.756   3.146  13.813
  368MPD2    H3 5565   1.970   3.046  13.854
  368MPD2     N 5566   2.157   3.275  13.513
  368MPD2    H5 5567   2.252   3.245  13.530
  368MPD2    N1 5568   1.699   3.344  13.648
  368MPD2    H7 5569   1.623   3.313  13.709
  369TMC3    C1 5570   1.559   3.519  13.585
  369TMC3    C2 5571   1.559   3.645  13.529
  369TMC3    C3 5572   1.435   3.707  13.506
  369TMC3    C4 5573   1.443   3.454  13.617
  369TMC3    C5 5574   1.320   3.516  13.582
  369TMC3    C6 5575   1.311   3.644  13.530
  369TMC3     C 5576   1.683   3.454  13.564
  369TMC3     O 5577   1.749   3.500  13.470
  369TMC3     H 5578   1.655   3.695  13.520
  369TMC3    H1 5579   1.444   3.351  13.652
  369TMC3    H2 5580   1.219   3.694  13.503
  369TMC3    C7 5581   1.193   3.438  13.586
  369TMC3    C8 5582   1.441   3.823  13.421
  369TMC3    O1 5583   1.208   3.322  13.622
  369TMC3    O2 5584   1.343   3.845  13.357
  370TMC3    C1 5585   0.824   3.938  16.387
  370TMC3    C2 5586   0.759   3.862  16.475
  370TMC3    C3 5587   0.746   3.729  16.443
  370TMC3    C4 5588   0.873   3.889  16.275
  370TMC3    C5 5589   0.857   3.759  16.242
  370TMC3    C6 5590   0.798   3.672  16.331
  370TMC3     C 5591   0.906   4.034  16.452
  370TMC3     O 5592   0.943   4.029  16.566
  370TMC3     H 5593   0.730   3.908  16.569
  370TMC3    H1 5594   0.940   3.952  16.217
  370TMC3    H2 5595   0.782   3.565  16.318
  370TMC3    C7 5596   0.936   3.709  16.122
  370TMC3    C8 5597   0.727   3.641  16.554
  370TMC3    O1 5598   0.964   3.787  16.033
  370TMC3    O2 5599   0.732   3.518  16.541
  371TMC3    C1 5600   2.120   2.175  15.727
  371TMC3    C2 5601   2.095   2.200  15.858
  371TMC3    C3 5602   2.106   2.331  15.892
  371TMC3    C4 5603   2.148   2.269  15.631
  371TMC3    C5 5604   2.160   2.395  15.678
  371TMC3    C6 5605   2.140   2.425  15.805
  371TMC3     C 5606   2.127   2.035  15.685
  371TMC3     O 5607   2.176   2.006  15.575
  371TMC3     H 5608   2.073   2.122  15.931
  371TMC3    H1 5609   2.162   2.242  15.527
  371TMC3    H2 5610   2.121   2.525  15.842
  371TMC3    C7 5611   2.219   2.495  15.592
  371TMC3    C8 5612   2.106   2.372  16.025
  371TMC3    O1 5613   2.186   2.489  15.477
  371TMC3    O2 5614   2.171   2.302  16.103
  372MPD2     C 5615   1.644   3.555  13.952
  372MPD2    C1 5616   1.765   3.481  13.959
  372MPD2    C2 5617   1.756   3.366  14.041
  372MPD2    C3 5618   1.638   3.323  14.099
  372MPD2    C4 5619   1.521   3.396  14.077
  372MPD2    C5 5620   1.527   3.517  14.014
  372MPD2     H 5621   1.846   3.304  14.041
  372MPD2    H1 5622   1.426   3.365  14.120
  372MPD2    H2 5623   1.636   3.647  13.896
  372MPD2    H3 5624   1.437   3.578  14.004
  372MPD2     N 5625   1.648   3.192  14.146
  372MPD2    H5 5626   1.728   3.136  14.120
  372MPD2    N1 5627   1.888   3.511  13.888
  372MPD2    H7 5628   1.967   3.450  13.909
  373TMC3    C1 5629   1.575   2.990  14.252
  373TMC3    C2 5630   1.488   2.949  14.345
  373TMC3    C3 5631   1.466   2.818  14.365
  373TMC3    C4 5632   1.632   2.905  14.162
  373TMC3    C5 5633   1.607   2.770  14.176
  373TMC3    C6 5634   1.529   2.728  14.280
  373TMC3     C 5635   1.549   3.133  14.221
  373TMC3     O 5636   1.464   3.199  14.281
  373TMC3     H 5637   1.447   3.031  14.403
  373TMC3    H1 5638   1.687   2.947  14.079
  373TMC3    H2 5639   1.516   2.622  14.300
  373TMC3    C7 5640   1.702   2.684  14.105
  373TMC3    C8 5641   1.422   2.773  14.491
  373TMC3    O1 5642   1.751   2.721  13.999
  373TMC3    O2 5643   1.336   2.686  14.495
  374TMC3    C1 5644   1.917   3.915   9.955
  374TMC3    C2 5645   1.969   4.034   9.996
  374TMC3    C3 5646   1.994   4.125   9.902
  374TMC3    C4 5647   1.888   3.890   9.822
  374TMC3    C5 5648   1.934   3.985   9.732
  374TMC3    C6 5649   1.983   4.110   9.768
  374TMC3     C 5650   1.870   3.818  10.052
  374TMC3     O 5651   1.800   3.730  10.000
  374TMC3     H 5652   1.985   4.060  10.100
  374TMC3    H1 5653   1.865   3.791   9.786
  374TMC3    H2 5654   2.006   4.193   9.702
  374TMC3    C7 5655   1.898   3.957   9.599
  374TMC3    C8 5656   2.072   4.249   9.933
  374TMC3    O1 5657   1.836   3.851   9.574
  374TMC3    O2 5658   2.043   4.350   9.870
  375MPD2     C 5659   2.303   4.486  16.868
  375MPD2    C1 5660   2.185   4.440  16.809
  375MPD2    C2 5661   2.198   4.356  16.701
  375MPD2    C3 5662   2.328   4.321  16.651
  375MPD2    C4 5663   2.440   4.356  16.722
  375MPD2    C5 5664   2.431   4.446  16.827
  375MPD2     H 5665   2.108   4.324  16.650
  375MPD2    H1 5666   2.536   4.317  16.691
  375MPD2    H2 5667   2.286   4.551  16.954
  375MPD2    H3 5668   2.521   4.480  16.878
  375MPD2     N 5669   2.340   4.226  16.550
  375MPD2    H5 5670   2.429   4.176  16.545
  375MPD2    N1 5671   2.055   4.471  16.855
  375MPD2    H7 5672   1.987   4.419  16.802
  376TMC3    C1 5673   2.259   4.086  16.383
  376TMC3    C2 5674   2.337   3.985  16.440
  376TMC3    C3 5675   2.387   3.882  16.361
  376TMC3    C4 5676   2.229   4.082  16.255
  376TMC3    C5 5677   2.283   3.984  16.179
  376TMC3    C6 5678   2.362   3.880  16.229
  376TMC3     C 5679   2.249   4.212  16.449
  376TMC3     O 5680   2.143   4.275  16.432
  376TMC3     H 5681   2.369   3.993  16.543
  376TMC3    H1 5682   2.174   4.167  16.218
  376TMC3    H2 5683   2.433   3.824  16.170
  376TMC3    C7 5684   2.287   4.018  16.039
  376TMC3    C8 5685   2.526   3.856  16.391
  376TMC3    O1 5686   2.258   4.133  16.014
  376TMC3    O2 5687   2.608   3.873  16.305
  377MPD2     C 5688   0.654   3.982  12.730
  377MPD2    C1 5689   0.671   3.865  12.798
  377MPD2    C2 5690   0.571   3.822  12.880
  377MPD2    C3 5691   0.457   3.899  12.902
  377MPD2    C4 5692   0.445   4.020  12.839
  377MPD2    C5 5693   0.544   4.064  12.750
  377MPD2     H 5694   0.575   3.720  12.917
  377MPD2    H1 5695   0.349   4.070  12.842
  377MPD2    H2 5696   0.737   4.014  12.668
  377MPD2    H3 5697   0.541   4.153  12.687
  377MPD2     N 5698   0.338   3.839  12.957
  377MPD2    H5 5699   0.250   3.886  12.938
  377MPD2    N1 5700   0.787   3.790  12.771
  377MPD2    H7 5701   0.868   3.834  12.729
  378TMC3    C1 5702   0.891   3.587  12.433
  378TMC3    C2 5703   0.826   3.576  12.553
  378TMC3    C3 5704   0.896   3.615  12.663
  378TMC3    C4 5705   1.003   3.659  12.423
  378TMC3    C5 5706   1.065   3.701  12.536
  378TMC3    C6 5707   1.017   3.679  12.667
  378TMC3     C 5708   0.789   3.649  12.348
  378TMC3     O 5709   0.692   3.702  12.400
  378TMC3     H 5710   0.737   3.514  12.556
  378TMC3    H1 5711   1.044   3.683  12.325
  378TMC3    H2 5712   1.064   3.706  12.761
  378TMC3    C7 5713   1.188   3.772  12.536
  378TMC3    C8 5714   0.790   3.659  12.757
  378TMC3    O1 5715   1.261   3.766  12.637
  378TMC3    O2 5716   0.697   3.581  12.778
  379MPD2     C 5717   1.374   1.878  16.489
  379MPD2    C1 5718   1.276   1.802  16.552
  379MPD2    C2 5719   1.311   1.742  16.677
  379MPD2    C3 5720   1.434   1.754  16.733
  379MPD2    C4 5721   1.522   1.836  16.668
  379MPD2    C5 5722   1.499   1.892  16.547
  379MPD2     H 5723   1.237   1.682  16.729
  379MPD2    H1 5724   1.609   1.869  16.724
  379MPD2    H2 5725   1.348   1.922  16.393
  379MPD2    H3 5726   1.575   1.952  16.498
  379MPD2     N 5727   1.480   1.686  16.849
  379MPD2    H5 5728   1.580   1.694  16.865
  379MPD2    N1 5729   1.152   1.786  16.481
  379MPD2    H7 5730   1.153   1.842  16.397
  380TMC3    C1 5731   0.977   1.666  16.390
  380TMC3    C2 5732   0.996   1.555  16.312
  380TMC3    C3 5733   0.958   1.558  16.180
  380TMC3    C4 5734   0.905   1.772  16.346
  380TMC3    C5 5735   0.853   1.762  16.222
  380TMC3    C6 5736   0.873   1.656  16.140
  380TMC3     C 5737   1.069   1.676  16.502
  380TMC3     O 5738   1.077   1.583  16.574
  380TMC3     H 5739   1.048   1.473  16.359
  380TMC3    H1 5740   0.897   1.868  16.397
  380TMC3    H2 5741   0.871   1.659  16.031
  380TMC3    C7 5742   0.808   1.884  16.160
  380TMC3    C8 5743   1.069   1.543  16.088
  380TMC3    O1 5744   0.824   1.998  16.196
  380TMC3    O2 5745   1.043   1.529  15.974
  381TMC3    C1 5746   0.818   3.019  16.310
  381TMC3    C2 5747   0.889   3.134  16.320
  381TMC3    C3 5748   0.885   3.208  16.438
  381TMC3    C4 5749   0.765   2.971  16.424
  381TMC3    C5 5750   0.762   3.047  16.540
  381TMC3    C6 5751   0.807   3.178  16.545
  381TMC3     C 5752   0.877   2.915  16.221
  381TMC3     O 5753   0.943   2.970  16.137
  381TMC3     H 5754   0.940   3.170  16.232
  381TMC3    H1 5755   0.709   2.878  16.428
  381TMC3    H2 5756   0.805   3.232  16.639
  381TMC3    C7 5757   0.697   2.994  16.659
  381TMC3    C8 5758   1.012   3.275  16.459
  381TMC3    O1 5759   0.712   2.872  16.682
  381TMC3    O2 5760   1.103   3.213  16.403
  382MPD2     C 5761   0.184   0.826  17.182
  382MPD2    C1 5762   0.125   0.852  17.301
  382MPD2    C2 5763   0.071   0.742  17.374
  382MPD2    C3 5764   0.094   0.612  17.324
  382MPD2    C4 5765   0.167   0.589  17.208
  382MPD2    C5 5766   0.212   0.698  17.134
  382MPD2     H 5767   0.035   0.765  17.474
  382MPD2    H1 5768   0.187   0.491  17.166
  382MPD2    H2 5769   0.222   0.901  17.113
  382MPD2    H3 5770   0.272   0.678  17.046
  382MPD2     N 5771   0.037   0.498  17.392
  382MPD2    H5 5772   0.038   0.411  17.340
  382MPD2    N1 5773   0.104   0.981  17.353
  382MPD2    H7 5774   0.065   0.994  17.445
  383TMC3    C1 5775   4.715   0.382  17.562
  383TMC3    C2 5776   4.651   0.308  17.466
  383TMC3    C3 5777   4.585   0.195  17.510
  383TMC3    C4 5778   4.720   0.346  17.692
  383TMC3    C5 5779   4.651   0.235  17.725
  383TMC3    C6 5780   4.587   0.151  17.639
  383TMC3     C 5781   4.789   0.505  17.520
  383TMC3     O 5782   0.011   0.590  17.603
  383TMC3     H 5783   4.638   0.345  17.365
  383TMC3    H1 5784   4.779   0.403  17.763
  383TMC3    H2 5785   4.510   0.088  17.681
  383TMC3    C7 5786   4.600   0.217  17.861
  383TMC3    C8 5787   4.493   0.130  17.419
  383TMC3    O1 5788   4.575   0.099  17.890
  383TMC3    O2 5789   4.441   0.191  17.329
  384MPD2     C 5790   1.657   2.111  12.255
  384MPD2    C1 5791   1.692   2.092  12.384
  384MPD2    C2 5792   1.808   2.018  12.410
  384MPD2    C3 5793   1.878   1.957  12.300
  384MPD2    C4 5794   1.832   1.976  12.173
  384MPD2    C5 5795   1.726   2.060  12.147
  384MPD2     H 5796   1.835   2.000  12.513
  384MPD2    H1 5797   1.876   1.933  12.084
  384MPD2    H2 5798   1.574   2.177  12.230
  384MPD2    H3 5799   1.686   2.085  12.050
  384MPD2     N 5800   1.979   1.860  12.319
  384MPD2    H5 5801   2.015   1.808  12.239
  384MPD2    N1 5802   1.610   2.153  12.481
  384MPD2    H7 5803   1.517   2.180  12.453
  385TMC3    C1 5804   2.064   1.719  12.478
  385TMC3    C2 5805   2.001   1.620  12.413
  385TMC3    C3 5806   1.969   1.509  12.486
  385TMC3    C4 5807   2.091   1.707  12.611
  385TMC3    C5 5808   2.058   1.590  12.685
  385TMC3    C6 5809   1.995   1.488  12.620
  385TMC3     C 5810   2.047   1.850  12.436
  385TMC3     O 5811   2.067   1.931  12.524
  385TMC3     H 5812   1.978   1.636  12.309
  385TMC3    H1 5813   2.146   1.788  12.657
  385TMC3    H2 5814   1.979   1.393  12.670
  385TMC3    C7 5815   2.009   1.627  12.822
  385TMC3    C8 5816   1.902   1.394  12.419
  385TMC3    O1 5817   2.014   1.746  12.841
  385TMC3    O2 5818   1.862   1.304  12.493
  386TMC3    C1 5819   2.161   4.063  12.034
  386TMC3    C2 5820   2.186   4.140  11.920
  386TMC3    C3 5821   2.097   4.243  11.894
  386TMC3    C4 5822   2.052   4.082  12.107
  386TMC3    C5 5823   1.962   4.178  12.061
  386TMC3    C6 5824   1.982   4.270  11.960
  386TMC3     C 5825   2.272   3.993  12.097
  386TMC3     O 5826   2.386   4.029  12.068
  386TMC3     H 5827   2.283   4.139  11.870
  386TMC3    H1 5828   2.029   4.022  12.194
  386TMC3    H2 5829   1.907   4.341  11.926
  386TMC3    C7 5830   1.847   4.206  12.156
  386TMC3    C8 5831   2.087   4.281  11.756
  386TMC3    O1 5832   1.856   4.168  12.271
  386TMC3    O2 5833   2.049   4.389  11.725
  387MPD2     C 5834   3.953   4.299   9.788
  387MPD2    C1 5835   4.084   4.272   9.766
  387MPD2    C2 5836   4.137   4.152   9.806
  387MPD2    C3 5837   4.064   4.067   9.882
  387MPD2    C4 5838   3.930   4.095   9.907
  387MPD2    C5 5839   3.877   4.211   9.863
  387MPD2     H 5840   4.244   4.146   9.793
  387MPD2    H1 5841   3.874   4.027   9.969
  387MPD2    H2 5842   3.901   4.386   9.749
  387MPD2    H3 5843   3.775   4.229   9.896
  387MPD2     N 5844   4.137   3.965   9.941
  387MPD2    H5 5845   4.236   3.969   9.922
  387MPD2    N1 5846   4.165   4.361   9.690
  387MPD2    H7 5847   4.256   4.321   9.670
  388TMC3    C1 5848   4.275   4.557   9.668
  388TMC3    C2 5849   4.294   4.654   9.572
  388TMC3    C3 5850   4.411   4.721   9.570
  388TMC3    C4 5851   4.376   4.514   9.753
  388TMC3    C5 5852   4.500   4.563   9.724
  388TMC3    C6 5853   4.524   4.665   9.629
  388TMC3     C 5854   4.151   4.500   9.678
  388TMC3     O 5855   4.046   4.561   9.652
  388TMC3     H 5856   4.207   4.687   9.517
  388TMC3    H1 5857   4.350   4.447   9.834
  388TMC3    H2 5858   4.627   4.696   9.615
  388TMC3    C7 5859   4.617   4.484   9.762
  388TMC3    C8 5860   4.431   4.798   9.448
  388TMC3    O1 5861   4.718   4.489   9.688
  388TMC3    O2 5862   4.350   4.781   9.360
  389MPD2     C 5863   3.667   2.675  11.366
  389MPD2    C1 5864   3.599   2.562  11.337
  389MPD2    C2 5865   3.601   2.458  11.432
  389MPD2    C3 5866   3.683   2.472  11.541
  389MPD2    C4 5867   3.757   2.588  11.568
  389MPD2    C5 5868   3.748   2.690  11.478
  389MPD2     H 5869   3.548   2.367  11.410
  389MPD2    H1 5870   3.831   2.604  11.645
  389MPD2    H2 5871   3.677   2.764  11.305
  389MPD2    H3 5872   3.808   2.773  11.514
  389MPD2     N 5873   3.710   2.360  11.628
  389MPD2    H5 5874   3.784   2.371  11.696
  389MPD2    N1 5875   3.552   2.556  11.206
  389MPD2    H7 5876   3.567   2.639  11.149
  390TMC3    C1 5877   3.666   2.156  11.741
  390TMC3    C2 5878   3.605   2.036  11.740
  390TMC3    C3 5879   3.546   1.988  11.854
  390TMC3    C4 5880   3.689   2.223  11.856
  390TMC3    C5 5881   3.623   2.178  11.968
  390TMC3    C6 5882   3.547   2.057  11.973
  390TMC3     C 5883   3.653   2.232  11.621
  390TMC3     O 5884   3.580   2.183  11.536
  390TMC3     H 5885   3.592   1.979  11.649
  390TMC3    H1 5886   3.734   2.321  11.867
  390TMC3    H2 5887   3.508   2.020  12.068
  390TMC3    C7 5888   3.624   2.266  12.082
  390TMC3    C8 5889   3.452   1.883  11.846
  390TMC3    O1 5890   3.730   2.303  12.123
  390TMC3    O2 5891   3.448   1.818  11.739
  391MPD2     C 5892   2.494   4.094  11.464
  391MPD2    C1 5893   2.624   4.086  11.416
  391MPD2    C2 5894   2.653   4.117  11.287
  391MPD2    C3 5895   2.553   4.156  11.204
  391MPD2    C4 5896   2.422   4.165  11.255
  391MPD2    C5 5897   2.391   4.144  11.388
  391MPD2     H 5898   2.752   4.104  11.245
  391MPD2    H1 5899   2.342   4.207  11.196
  391MPD2    H2 5900   2.471   4.081  11.569
  391MPD2    H3 5901   2.293   4.147  11.432
  391MPD2     N 5902   2.584   4.193  11.077
  391MPD2    H5 5903   2.682   4.203  11.053
  391MPD2    N1 5904   2.728   4.056  11.510
  391MPD2    H7 5905   2.707   4.013  11.600
  392TMC3    C1 5906   2.559   4.200  10.832
  392TMC3    C2 5907   2.476   4.224  10.728
  392TMC3    C3 5908   2.533   4.266  10.609
  392TMC3    C4 5909   2.697   4.202  10.820
  392TMC3    C5 5910   2.748   4.231  10.696
  392TMC3    C6 5911   2.666   4.268  10.591
  392TMC3     C 5912   2.494   4.197  10.964
  392TMC3     O 5913   2.375   4.200  10.968
  392TMC3     H 5914   2.368   4.212  10.733
  392TMC3    H1 5915   2.762   4.187  10.905
  392TMC3    H2 5916   2.701   4.280  10.489
  392TMC3    C7 5917   2.887   4.272  10.693
  392TMC3    C8 5918   2.454   4.258  10.488
  392TMC3    O1 5919   2.947   4.273  10.798
  392TMC3    O2 5920   2.343   4.203  10.498
  393TMC3    C1 5921   2.230   2.307  11.199
  393TMC3    C2 5922   2.138   2.351  11.291
  393TMC3    C3 5923   2.097   2.261  11.395
  393TMC3    C4 5924   2.298   2.191  11.221
  393TMC3    C5 5925   2.248   2.107  11.316
  393TMC3    C6 5926   2.155   2.140  11.406
  393TMC3     C 5927   2.202   2.341  11.063
  393TMC3     O 5928   2.081   2.366  11.035
  393TMC3     H 5929   2.084   2.441  11.265
  393TMC3    H1 5930   2.382   2.169  11.156
  393TMC3    H2 5931   2.133   2.074  11.488
  393TMC3    C7 5932   2.308   1.971  11.327
  393TMC3    C8 5933   1.959   2.252  11.421
  393TMC3    O1 5934   2.255   1.898  11.414
  393TMC3    O2 5935   1.918   2.143  11.456
  394TMC3    C1 5936   3.421   2.497  11.025
  394TMC3    C2 5937   3.301   2.445  10.988
  394TMC3    C3 5938   3.277   2.444  10.853
  394TMC3    C4 5939   3.518   2.537  10.939
  394TMC3    C5 5940   3.492   2.532  10.806
  394TMC3    C6 5941   3.374   2.479  10.760
  394TMC3     C 5942   3.467   2.458  11.162
  394TMC3     O 5943   3.402   2.380  11.225
  394TMC3     H 5944   3.221   2.402  11.048
  394TMC3    H1 5945   3.616   2.579  10.955
  394TMC3    H2 5946   3.344   2.480  10.656
  394TMC3    C7 5947   3.581   2.592  10.709
  394TMC3    C8 5948   3.170   2.357  10.810
  394TMC3    O1 5949   3.660   2.675  10.751
  394TMC3    O2 5950   3.088   2.334  10.897
  395TMC3    C1 5951   2.816   4.232  14.904
  395TMC3    C2 5952   2.718   4.232  14.989
  395TMC3    C3 5953   2.742   4.273  15.119
  395TMC3    C4 5954   2.945   4.263  14.934
  395TMC3    C5 5955   2.965   4.312  15.059
  395TMC3    C6 5956   2.864   4.322  15.155
  395TMC3     C 5957   2.779   4.226  14.766
  395TMC3     O 5958   2.771   4.335  14.715
  395TMC3     H 5959   2.614   4.221  14.959
  395TMC3    H1 5960   3.023   4.249  14.861
  395TMC3    H2 5961   2.889   4.363  15.252
  395TMC3    C7 5962   3.099   4.360  15.105
  395TMC3    C8 5963   2.675   4.179  15.211
  395TMC3    O1 5964   3.092   4.462  15.173
  395TMC3    O2 5965   2.706   4.200  15.326
  396MPD2     C 5966   2.957   0.134  16.999
  396MPD2    C1 5967   3.005   0.184  17.112
  396MPD2    C2 5968   3.065   0.307  17.112
  396MPD2    C3 5969   3.078   0.380  16.996
  396MPD2    C4 5970   3.023   0.327  16.888
  396MPD2    C5 5971   2.966   0.205  16.884
  396MPD2     H 5972   3.120   0.348  17.197
  396MPD2    H1 5973   3.030   0.371  16.789
  396MPD2    H2 5974   2.908   0.037  17.002
  396MPD2    H3 5975   2.928   0.163  16.791
  396MPD2     N 5976   3.142   0.504  16.996
  396MPD2    H5 5977   3.173   0.547  17.083
  396MPD2    N1 5978   2.983   0.107  17.230
  396MPD2    H7 5979   2.943   0.015  17.215
  397TMC3    C1 5980   3.043   0.031  17.450
  397TMC3    C2 5981   3.171   4.799  17.440
  397TMC3    C3 5982   3.208   4.674  17.408
  397TMC3    C4 5983   2.943   4.745  17.437
  397TMC3    C5 5984   2.976   4.617  17.408
  397TMC3    C6 5985   3.107   4.584  17.382
  397TMC3     C 5986   3.038   0.141  17.354
  397TMC3     O 5987   3.109   0.233  17.390
  397TMC3     H 5988   3.253   0.065  17.442
  397TMC3    H1 5989   2.842   4.780  17.456
  397TMC3    H2 5990   3.137   4.481  17.362
  397TMC3    C7 5991   2.880   4.506  17.430
  397TMC3    C8 5992   3.320   4.664  17.314
  397TMC3    O1 5993   2.906   4.393  17.393
  397TMC3    O2 5994   3.307   4.578  17.227
  398MPD2     C 5995   1.136   1.652  18.296
  398MPD2    C1 5996   1.197   1.547  18.365
  398MPD2    C2 5997   1.318   1.581  18.434
  398MPD2    C3 5998   1.363   1.718  18.437
  398MPD2    C4 5999   1.289   1.815  18.374
  398MPD2    C5 6000   1.181   1.782  18.300
  398MPD2     H 6001   1.381   1.504  18.474
  398MPD2    H1 6002   1.331   1.915  18.373
  398MPD2    H2 6003   1.040   1.642  18.248
  398MPD2    H3 6004   1.125   1.863  18.254
  398MPD2     N 6005   1.478   1.744  18.510
  398MPD2    H5 6006   1.517   1.666  18.561
  398MPD2    N1 6007   1.149   1.415  18.359
  398MPD2    H7 6008   1.198   1.357  18.426
  399TMC3    C1 6009   0.991   1.234  18.323
  399TMC3    C2 6010   1.065   1.150  18.403
  399TMC3    C3 6011   1.000   1.062  18.488
  399TMC3    C4 6012   0.852   1.220  18.316
  399TMC3    C5 6013   0.790   1.122  18.397
  399TMC3    C6 6014   0.862   1.043  18.484
  399TMC3     C 6015   1.033   1.371  18.299
  399TMC3     O 6016   0.963   1.434  18.224
  399TMC3     H 6017   1.172   1.171  18.401
  399TMC3    H1 6018   0.796   1.283  18.248
  399TMC3    H2 6019   0.812   0.965  18.540
  399TMC3    C7 6020   0.680   1.046  18.346
  399TMC3    C8 6021   1.074   0.952  18.540
  399TMC3    O1 6022   0.641   0.959  18.419
  399TMC3    O2 6023   1.012   0.850  18.562
  400TMC3    C1 6024   4.581   0.019  16.989
  400TMC3    C2 6025   4.515   4.785  16.877
  400TMC3    C3 6026   4.452   0.064  16.794
  400TMC3    C4 6027   4.593   0.152  17.021
  400TMC3    C5 6028   4.559   0.236  16.915
  400TMC3    C6 6029   4.477   0.196  16.814
  400TMC3     C 6030   4.665   4.720  17.065
  400TMC3     O 6031   4.667   4.610  17.012
  400TMC3     H 6032   4.511   4.678  16.860
  400TMC3    H1 6033   4.669   0.190  17.087
  400TMC3    H2 6034   4.448   0.261  16.731
  400TMC3    C7 6035   4.593   0.376  16.934
  400TMC3    C8 6036   4.318   0.040  16.737
  400TMC3    O1 6037   4.609   0.446  16.834
  400TMC3    O2 6038   4.225   0.120  16.742
  401MPD2     C 6039   2.529   3.334  18.326
  401MPD2    C1 6040   2.623   3.267  18.401
  401MPD2    C2 6041   2.613   3.128  18.398
  401MPD2    C3 6042   2.530   3.057  18.316
  401MPD2    C4 6043   2.445   3.131  18.231
  401MPD2    C5 6044   2.447   3.263  18.241
  401MPD2     H 6045   2.680   3.066  18.456
  401MPD2    H1 6046   2.369   3.082  18.172
  401MPD2    H2 6047   2.527   3.442  18.326
  401MPD2    H3 6048   2.379   3.316  18.174
  401MPD2     N 6049   2.521   2.917  18.342
  401MPD2    H5 6050   2.579   2.885  18.418
  401MPD2    N1 6051   2.716   3.328  18.484
  401MPD2    H7 6052   2.778   3.269  18.539
  402TMC3    C1 6053   2.470   2.695  18.293
  402TMC3    C2 6054   2.489   2.658  18.428
  402TMC3    C3 6055   2.545   2.539  18.452
  402TMC3    C4 6056   2.489   2.609  18.186
  402TMC3    C5 6057   2.557   2.494  18.213
  402TMC3    C6 6058   2.589   2.465  18.345
  402TMC3     C 6059   2.458   2.829  18.259
  402TMC3     O 6060   2.410   2.850  18.150
  402TMC3     H 6061   2.460   2.729  18.505
  402TMC3    H1 6062   2.501   2.651  18.087
  402TMC3    H2 6063   2.646   2.374  18.362
  402TMC3    C7 6064   2.650   2.439  18.117
  402TMC3    C8 6065   2.584   2.491  18.588
  402TMC3    O1 6066   2.616   2.474  18.004
  402TMC3    O2 6067   2.689   2.429  18.596
  403MPD2     C 6068   1.449   1.596  13.452
  403MPD2    C1 6069   1.384   1.532  13.557
  403MPD2    C2 6070   1.443   1.524  13.682
  403MPD2    C3 6071   1.564   1.589  13.702
  403MPD2    C4 6072   1.619   1.665  13.604
  403MPD2    C5 6073   1.564   1.661  13.481
  403MPD2     H 6074   1.404   1.448  13.748
  403MPD2    H1 6075   1.719   1.704  13.622
  403MPD2    H2 6076   1.404   1.595  13.353
  403MPD2    H3 6077   1.609   1.705  13.392
  403MPD2     N 6078   1.626   1.586  13.829
  403MPD2    H5 6079   1.595   1.513  13.893
  403MPD2    N1 6080   1.260   1.469  13.514
  403MPD2    H7 6081   1.240   1.478  13.415
  404TMC3    C1 6082   1.040   1.400  13.548
  404TMC3    C2 6083   0.963   1.339  13.633
  404TMC3    C3 6084   0.892   1.232  13.573
  404TMC3    C4 6085   1.021   1.403  13.414
  404TMC3    C5 6086   0.952   1.292  13.358
  404TMC3    C6 6087   0.878   1.207  13.435
  404TMC3     C 6088   1.167   1.429  13.605
  404TMC3     O 6089   1.179   1.436  13.727
  404TMC3     H 6090   0.984   1.344  13.739
  404TMC3    H1 6091   1.073   1.472  13.349
  404TMC3    H2 6092   0.822   1.119  13.405
  404TMC3    C7 6093   0.957   1.275  13.210
  404TMC3    C8 6094   0.858   1.118  13.656
  404TMC3    O1 6095   1.041   1.344  13.157
  404TMC3    O2 6096   0.862   1.006  13.608
  405MPD2     C 6097   1.518   2.366  15.176
  405MPD2    C1 6098   1.470   2.271  15.092
  405MPD2    C2 6099   1.346   2.282  15.033
  405MPD2    C3 6100   1.263   2.387  15.067
  405MPD2    C4 6101   1.319   2.492  15.136
  405MPD2    C5 6102   1.448   2.485  15.182
  405MPD2     H 6103   1.299   2.205  14.973
  405MPD2    H1 6104   1.274   2.589  15.153
  405MPD2    H2 6105   1.615   2.350  15.223
  405MPD2    H3 6106   1.481   2.572  15.237
  405MPD2     N 6107   1.128   2.386  15.014
  405MPD2    H5 6108   1.120   2.322  14.936
  405MPD2    N1 6109   1.534   2.146  15.083
  405MPD2    H7 6110   1.603   2.116  15.151
  406TMC3    C1 6111   0.713   2.488  14.847
  406TMC3    C2 6112   0.709   2.367  14.784
  406TMC3    C3 6113   0.812   2.284  14.800
  406TMC3    C4 6114   0.801   2.516  14.946
  406TMC3    C5 6115   0.911   2.430  14.959
  406TMC3    C6 6116   0.912   2.316  14.889
  406TMC3     C 6117   0.629   2.596  14.801
  406TMC3     O 6118   0.599   2.693  14.870
  406TMC3     H 6119   0.621   2.333  14.731
  406TMC3    H1 6120   0.798   2.615  14.990
  406TMC3    H2 6121   0.999   2.251  14.893
  406TMC3    C7 6122   1.025   2.467  15.042
  406TMC3    C8 6123   0.838   2.202  14.683
  406TMC3    O1 6124   1.015   2.559  15.123
  406TMC3    O2 6125   0.808   2.244  14.565
  407MPD2     C 6126   3.513   3.810   9.861
  407MPD2    C1 6127   3.639   3.827   9.916
  407MPD2    C2 6128   3.650   3.872  10.043
  407MPD2    C3 6129   3.539   3.903  10.114
  407MPD2    C4 6130   3.413   3.896  10.062
  407MPD2    C5 6131   3.400   3.847   9.930
  407MPD2     H 6132   3.750   3.884  10.083
  407MPD2    H1 6133   3.328   3.932  10.119
  407MPD2    H2 6134   3.499   3.793   9.755
  407MPD2    H3 6135   3.304   3.847   9.881
  407MPD2     N 6136   3.547   3.957  10.246
  407MPD2    H5 6137   3.469   4.017  10.274
  407MPD2    N1 6138   3.760   3.798   9.845
  407MPD2    H7 6139   3.849   3.802   9.894
  408TMC3    C1 6140   3.908   3.817   9.675
  408TMC3    C2 6141   4.008   3.719   9.706
  408TMC3    C3 6142   4.139   3.749   9.681
  408TMC3    C4 6143   3.943   3.921   9.595
  408TMC3    C5 6144   4.072   3.936   9.550
  408TMC3    C6 6145   4.174   3.853   9.594
  408TMC3     C 6146   3.775   3.791   9.706
  408TMC3     O 6147   3.694   3.803   9.616
  408TMC3     H 6148   3.983   3.634   9.769
  408TMC3    H1 6149   3.869   3.999   9.583
  408TMC3    H2 6150   4.268   3.838   9.542
  408TMC3    C7 6151   4.127   4.049   9.478
  408TMC3    C8 6152   4.225   3.638   9.703
  408TMC3    O1 6153   4.250   4.045   9.469
  408TMC3    O2 6154   4.173   3.528   9.703
  409MPD2     C 6155   3.376   4.164  16.825
  409MPD2    C1 6156   3.428   4.166  16.946
  409MPD2    C2 6157   3.520   4.266  16.982
  409MPD2    C3 6158   3.568   4.353  16.881
  409MPD2    C4 6159   3.509   4.344  16.754
  409MPD2    C5 6160   3.421   4.247  16.727
  409MPD2     H 6161   3.569   4.276  17.078
  409MPD2    H1 6162   3.531   4.411  16.672
  409MPD2    H2 6163   3.317   4.080  16.789
  409MPD2    H3 6164   3.382   4.238  16.626
  409MPD2     N 6165   3.662   4.456  16.900
  409MPD2    H5 6166   3.664   4.524  16.825
  409MPD2    N1 6167   3.398   4.067  17.049
  409MPD2    H7 6168   3.436   4.078  17.142
  410TMC3    C1 6169   3.775   4.611  17.009
  410TMC3    C2 6170   3.904   4.629  17.051
  410TMC3    C3 6171   3.967   4.742  17.003
  410TMC3    C4 6172   3.722   4.701  16.915
  410TMC3    C5 6173   3.794   0.002  16.871
  410TMC3    C6 6174   3.923   0.029  16.914
  410TMC3     C 6175   3.722   4.481  17.018
  410TMC3     O 6176   3.741   4.409  17.120
  410TMC3     H 6177   3.937   4.586  17.145
  410TMC3    H1 6178   3.622   4.680  16.879
  410TMC3    H2 6179   3.990   0.100  16.868
  410TMC3    C7 6180   3.758   0.058  16.741
  410TMC3    C8 6181   4.089   4.774  17.071
  410TMC3    O1 6182   3.669   0.004  16.677
  410TMC3    O2 6183   4.125   0.083  17.091
  411MPD2     C 6184   3.725   0.209  14.588
  411MPD2    C1 6185   3.663   0.230  14.710
  411MPD2    C2 6186   3.577   0.131  14.757
  411MPD2    C3 6187   3.542   0.028  14.681
  411MPD2    C4 6188   3.608   0.000  14.566
  411MPD2    C5 6189   3.710   0.085  14.527
  411MPD2     H 6190   3.533   0.137  14.856
  411MPD2    H1 6191   3.594   4.707  14.522
  411MPD2    H2 6192   3.782   0.292  14.548
  411MPD2    H3 6193   3.774   0.051  14.446
  411MPD2     N 6194   3.448   4.732  14.716
  411MPD2    H5 6195   3.433   4.655  14.652
  411MPD2    N1 6196   3.677   0.359  14.768
  411MPD2    H7 6197   3.727   0.427  14.712
  412TMC3    C1 6198   3.265   4.630  14.816
  412TMC3    C2 6199   3.142   4.668  14.858
  412TMC3    C3 6200   3.030   4.613  14.805
  412TMC3    C4 6201   3.276   4.541  14.707
  412TMC3    C5 6202   3.164   4.482  14.666
  412TMC3    C6 6203   3.043   4.516  14.716
  412TMC3     C 6204   3.364   4.730  14.832
  412TMC3     O 6205   3.343   0.016  14.907
  412TMC3     H 6206   3.133   4.729  14.947
  412TMC3    H1 6207   3.372   4.496  14.684
  412TMC3    H2 6208   2.956   4.485  14.658
  412TMC3    C7 6209   3.173   4.381  14.558
  412TMC3    C8 6210   2.904   4.678  14.854
  412TMC3    O1 6211   3.086   4.294  14.568
  412TMC3    O2 6212   2.926   4.797  14.883
  413MPD2     C 6213   0.797   3.647  15.653
  413MPD2    C1 6214   0.716   3.556  15.588
  413MPD2    C2 6215   0.769   3.467  15.501
  413MPD2    C3 6216   0.905   3.462  15.473
  413MPD2    C4 6217   0.982   3.546  15.556
  413MPD2    C5 6218   0.930   3.637  15.643
  413MPD2     H 6219   0.716   3.399  15.436
  413MPD2    H1 6220   1.088   3.527  15.564
  413MPD2    H2 6221   0.761   3.730  15.713
  413MPD2    H3 6222   1.001   3.705  15.688
  413MPD2     N 6223   0.949   3.358  15.386
  413MPD2    H5 6224   0.876   3.304  15.341
  413MPD2    N1 6225   0.577   3.578  15.591
  413MPD2    H7 6226   0.549   3.642  15.666
  414TMC3    C1 6227   1.085   3.188  15.300
  414TMC3    C2 6228   1.151   3.084  15.355
  414TMC3    C3 6229   1.144   2.960  15.297
  414TMC3    C4 6230   1.030   3.184  15.177
  414TMC3    C5 6231   1.033   3.057  15.111
  414TMC3    C6 6232   1.074   2.951  15.180
  414TMC3     C 6233   1.081   3.312  15.375
  414TMC3     O 6234   1.180   3.346  15.439
  414TMC3     H 6235   1.208   3.106  15.445
  414TMC3    H1 6236   0.995   3.263  15.113
  414TMC3    H2 6237   1.065   2.850  15.140
  414TMC3    C7 6238   0.941   3.059  14.994
  414TMC3    C8 6239   1.204   2.840  15.349
  414TMC3    O1 6240   0.853   3.141  15.001
  414TMC3    O2 6241   1.157   2.732  15.318
  415TMC3    C1 6242   1.105   1.244  10.499
  415TMC3    C2 6243   1.154   1.324  10.397
  415TMC3    C3 6244   1.131   1.276  10.271
  415TMC3    C4 6245   1.032   1.132  10.481
  415TMC3    C5 6246   1.035   1.069  10.356
  415TMC3    C6 6247   1.083   1.147  10.251
  415TMC3     C 6248   1.157   1.261  10.628
  415TMC3     O 6249   1.101   1.203  10.723
  415TMC3     H 6250   1.204   1.417  10.419
  415TMC3    H1 6251   1.020   1.069  10.568
  415TMC3    H2 6252   1.088   1.110  10.148
  415TMC3    C7 6253   1.057   0.923  10.345
  415TMC3    C8 6254   1.138   1.363  10.156
  415TMC3    O1 6255   1.088   0.888  10.233
  415TMC3    O2 6256   1.052   1.339  10.069
  416MPD2     C 6257   3.155   0.196  11.832
  416MPD2    C1 6258   3.021   0.217  11.786
  416MPD2    C2 6259   2.978   0.156  11.669
  416MPD2    C3 6260   3.055   0.060  11.611
  416MPD2    C4 6261   3.176   0.021  11.668
  416MPD2    C5 6262   3.226   0.093  11.776
  416MPD2     H 6263   2.879   0.172  11.629
  416MPD2    H1 6264   3.241   4.750  11.626
  416MPD2    H2 6265   3.187   0.249  11.921
  416MPD2    H3 6266   3.324   0.072  11.817
  416MPD2     N 6267   3.022   4.800  11.488
  416MPD2    H5 6268   3.072   4.718  11.455
  416MPD2    N1 6269   2.946   0.313  11.864
  416MPD2    H7 6270   2.992   0.354  11.944
  417TMC3    C1 6271   2.759   0.417  11.954
  417TMC3    C2 6272   2.786   0.383  12.091
  417TMC3    C3 6273   2.754   0.485  12.179
  417TMC3    C4 6274   2.676   0.515  11.911
  417TMC3    C5 6275   2.639   0.604  12.007
  417TMC3    C6 6276   2.691   0.603  12.136
  417TMC3     C 6277   2.814   0.339  11.845
  417TMC3     O 6278   2.729   0.291  11.777
  417TMC3     H 6279   2.854   0.303  12.118
  417TMC3    H1 6280   2.659   0.531  11.805
  417TMC3    H2 6281   2.650   0.664  12.216
  417TMC3    C7 6282   2.547   0.707  11.965
  417TMC3    C8 6283   2.729   0.450  12.315
  417TMC3    O1 6284   2.534   0.738  11.846
  417TMC3    O2 6285   2.732   0.537  12.401
  418TMC3    C1 6286   1.875   1.923  18.572
  418TMC3    C2 6287   1.765   1.844  18.545
  418TMC3    C3 6288   1.651   1.864  18.622
  418TMC3    C4 6289   1.876   1.997  18.684
  418TMC3    C5 6290   1.773   1.998  18.768
  418TMC3    C6 6291   1.655   1.945  18.734
  418TMC3     C 6292   1.974   1.952  18.470
  418TMC3     O 6293   2.029   2.064  18.480
  418TMC3     H 6294   1.771   1.778  18.459
  418TMC3    H1 6295   1.947   2.078  18.695
  418TMC3    H2 6296   1.567   1.972  18.790
  418TMC3    C7 6297   1.784   2.084  18.883
  418TMC3    C8 6298   1.517   1.868  18.553
  418TMC3    O1 6299   1.874   2.165  18.876
  418TMC3    O2 6300   1.452   1.972  18.549
  419MPD2     C 6301   0.501   4.774  12.936
  419MPD2    C1 6302   0.369   4.784  12.889
  419MPD2    C2 6303   0.263   0.032  12.969
  419MPD2    C3 6304   0.292   0.078  13.098
  419MPD2    C4 6305   0.424   0.066  13.143
  419MPD2    C5 6306   0.524   0.009  13.062
  419MPD2     H 6307   0.162   0.044  12.932
  419MPD2    H1 6308   0.456   0.110  13.237
  419MPD2    H2 6309   0.580   4.748  12.866
  419MPD2    H3 6310   0.630   0.003  13.087
  419MPD2     N 6311   0.191   0.153  13.167
  419MPD2    H5 6312   0.108   0.173  13.112
  419MPD2    N1 6313   0.328   4.757  12.755
  419MPD2    H7 6314   0.229   4.777  12.741
  420TMC3    C1 6315   0.080   0.285  13.333
  420TMC3    C2 6316   4.781   0.310  13.238
  420TMC3    C3 6317   4.736   0.439  13.226
  420TMC3    C4 6318   0.126   0.391  13.409
  420TMC3    C5 6319   0.048   0.500  13.420
  420TMC3    C6 6320   4.771   0.536  13.318
  420TMC3     C 6321   0.195   0.206  13.292
  420TMC3     O 6322   0.286   0.207  13.372
  420TMC3     H 6323   4.749   0.228  13.175
  420TMC3    H1 6324   0.207   0.380  13.481
  420TMC3    H2 6325   4.713   0.627  13.306
  420TMC3    C7 6326   4.775   0.488  13.535
  420TMC3    C8 6327   4.617   0.477  13.144
  420TMC3    O1 6328   0.003   0.412  13.625
  420TMC3    O2 6329   4.603   0.595  13.123
  421TMC3    C1 6330   1.769   1.617  14.009
  421TMC3    C2 6331   1.779   1.708  14.112
  421TMC3    C3 6332   1.821   1.674  14.230
  421TMC3    C4 6333   1.808   1.490  14.016
  421TMC3    C5 6334   1.876   1.460  14.131
  421TMC3    C6 6335   1.871   1.539  14.240
  421TMC3     C 6336   1.727   1.663  13.879
  421TMC3     O 6337   1.767   1.772  13.837
  421TMC3     H 6338   1.745   1.810  14.098
  421TMC3    H1 6339   1.804   1.421  13.933
  421TMC3    H2 6340   1.923   1.516  14.332
  421TMC3    C7 6341   1.915   1.317  14.148
  421TMC3    C8 6342   1.881   1.777  14.305
  421TMC3    O1 6343   1.970   1.262  14.057
  421TMC3    O2 6344   1.984   1.756  14.366
  422TMC3    C1 6345   3.809   3.265  12.974
  422TMC3    C2 6346   3.778   3.378  13.047
  422TMC3    C3 6347   3.650   3.391  13.094
  422TMC3    C4 6348   3.711   3.177  12.927
  422TMC3    C5 6349   3.584   3.188  12.978
  422TMC3    C6 6350   3.554   3.296  13.058
  422TMC3     C 6351   3.949   3.251  12.922
  422TMC3     O 6352   4.021   3.351  12.912
  422TMC3     H 6353   3.853   3.453  13.067
  422TMC3    H1 6354   3.735   3.094  12.861
  422TMC3    H2 6355   3.452   3.299  13.094
  422TMC3    C7 6356   3.502   3.071  12.962
  422TMC3    C8 6357   3.607   3.524  13.136
  422TMC3    O1 6358   3.529   3.003  12.864
  422TMC3    O2 6359   3.689   3.618  13.117
  423MPD2     C 6360   0.151   4.272  18.544
  423MPD2    C1 6361   0.195   4.142  18.554
  423MPD2    C2 6362   0.228   4.062  18.448
  423MPD2    C3 6363   0.177   4.097  18.327
  423MPD2    C4 6364   0.129   4.225  18.307
  423MPD2    C5 6365   0.129   4.314  18.416
  423MPD2     H 6366   0.270   3.965  18.469
  423MPD2    H1 6367   0.079   4.261  18.218
  423MPD2    H2 6368   0.119   4.339  18.623
  423MPD2    H3 6369   0.104   4.415  18.385
  423MPD2     N 6370   0.187   4.013  18.212
  423MPD2    H5 6371   0.176   4.047  18.117
  423MPD2    N1 6372   0.228   4.094  18.681
  423MPD2    H7 6373   0.287   4.012  18.693
  424TMC3    C1 6374   0.215   4.055  18.902
  424TMC3    C2 6375   0.349   4.024  18.902
  424TMC3    C3 6376   0.391   3.954  19.010
  424TMC3    C4 6377   0.132   4.044  19.012
  424TMC3    C5 6378   0.185   3.980  19.119
  424TMC3    C6 6379   0.305   3.921  19.118
  424TMC3     C 6380   0.162   4.138  18.798
  424TMC3     O 6381   0.050   4.185  18.807
  424TMC3     H 6382   0.413   4.074  18.831
  424TMC3    H1 6383   0.025   4.065  19.009
  424TMC3    H2 6384   0.341   3.879  19.212
  424TMC3    C7 6385   0.126   3.999  19.248
  424TMC3    C8 6386   0.530   3.898  19.006
  424TMC3    O1 6387   0.160   3.928  19.337
  424TMC3    O2 6388   0.569   3.842  19.107
  425MPD2     C 6389   4.442   3.336  17.713
  425MPD2    C1 6390   4.406   3.239  17.625
  425MPD2    C2 6391   4.272   3.228  17.587
  425MPD2    C3 6392   4.179   3.307  17.656
  425MPD2    C4 6393   4.219   3.403  17.748
  425MPD2    C5 6394   4.354   3.416  17.781
  425MPD2     H 6395   4.243   3.150  17.518
  425MPD2    H1 6396   4.150   3.456  17.814
  425MPD2    H2 6397   4.544   3.347  17.751
  425MPD2    H3 6398   4.377   3.491  17.856
  425MPD2     N 6399   4.040   3.275  17.639
  425MPD2    H5 6400   4.022   3.186  17.594
  425MPD2    N1 6401   4.503   3.141  17.588
  425MPD2    H7 6402   4.588   3.148  17.643
  426TMC3    C1 6403   4.585   2.949  17.471
  426TMC3    C2 6404   4.565   2.858  17.365
  426TMC3    C3 6405   4.633   2.737  17.379
  426TMC3    C4 6406   4.659   2.917  17.581
  426TMC3    C5 6407   4.735   2.801  17.578
  426TMC3    C6 6408   4.718   2.706  17.481
  426TMC3     C 6409   4.490   3.050  17.479
  426TMC3     O 6410   4.406   3.041  17.392
  426TMC3     H 6411   4.520   2.887  17.271
  426TMC3    H1 6412   4.649   2.971  17.674
  426TMC3    H2 6413   4.780   2.617  17.475
  426TMC3    C7 6414   4.774   2.743  17.701
  426TMC3    C8 6415   4.585   2.627  17.299
  426TMC3    O1 6416   0.078   2.683  17.681
  426TMC3    O2 6417   4.659   2.531  17.294
  427MPD2     C 6418   2.655   0.177  15.117
  427MPD2    C1 6419   2.676   0.220  15.246
  427MPD2    C2 6420   2.593   0.313  15.302
  427MPD2    C3 6421   2.483   0.352  15.229
  427MPD2    C4 6422   2.460   0.307  15.100
  427MPD2    C5 6423   2.556   0.223  15.040
  427MPD2     H 6424   2.617   0.356  15.399
  427MPD2    H1 6425   2.369   0.338  15.049
  427MPD2    H2 6426   2.723   0.106  15.071
  427MPD2    H3 6427   2.544   0.197  14.936
  427MPD2     N 6428   2.384   0.447  15.279
  427MPD2    H5 6429   2.301   0.450  15.221
  427MPD2    N1 6430   2.779   0.163  15.326
  427MPD2    H7 6431   2.797   0.210  15.414
  428TMC3    C1 6432   2.911   0.005  15.428
  428TMC3    C2 6433   2.910   4.686  15.477
  428TMC3    C3 6434   3.005   4.651  15.571
  428TMC3    C4 6435   3.008   0.101  15.472
  428TMC3    C5 6436   3.090   0.069  15.579
  428TMC3    C6 6437   3.093   4.746  15.617
  428TMC3     C 6438   2.847   0.044  15.301
  428TMC3     O 6439   2.840   4.774  15.204
  428TMC3     H 6440   2.836   4.613  15.443
  428TMC3    H1 6441   3.025   0.193  15.417
  428TMC3    H2 6442   3.163   4.723  15.696
  428TMC3    C7 6443   3.206   0.145  15.614
  428TMC3    C8 6444   3.026   4.510  15.602
  428TMC3    O1 6445   3.247   0.129  15.728
  428TMC3    O2 6446   2.962   4.438  15.528
  429MPD2     C 6447   3.621   0.307  17.840
  429MPD2    C1 6448   3.744   0.268  17.793
  429MPD2    C2 6449   3.847   0.360  17.762
  429MPD2    C3 6450   3.825   0.493  17.761
  429MPD2    C4 6451   3.702   0.538  17.811
  429MPD2    C5 6452   3.603   0.445  17.840
  429MPD2     H 6453   3.943   0.323  17.728
  429MPD2    H1 6454   3.684   0.644  17.818
  429MPD2    H2 6455   3.548   0.234  17.872
  429MPD2    H3 6456   3.507   0.478  17.877
  429MPD2     N 6457   3.926   0.576  17.703
  429MPD2    H5 6458   4.002   0.531  17.654
  429MPD2    N1 6459   3.777   0.127  17.780
  429MPD2    H7 6460   3.875   0.108  17.762
  430TMC3    C1 6461   4.015   0.760  17.593
  430TMC3    C2 6462   3.978   0.864  17.515
  430TMC3    C3 6463   4.079   0.925  17.440
  430TMC3    C4 6464   4.144   0.719  17.600
  430TMC3    C5 6465   4.233   0.770  17.513
  430TMC3    C6 6466   4.202   0.876  17.430
  430TMC3     C 6467   3.914   0.707  17.685
  430TMC3     O 6468   3.825   0.782  17.714
  430TMC3     H 6469   3.877   0.901  17.504
  430TMC3    H1 6470   4.161   0.639  17.672
  430TMC3    H2 6471   4.263   0.909  17.347
  430TMC3    C7 6472   4.348   0.699  17.465
  430TMC3    C8 6473   4.030   0.966  17.307
  430TMC3    O1 6474   4.358   0.586  17.517
  430TMC3    O2 6475   3.941   0.898  17.260
  431MPD2     C 6476   4.760   0.442  12.772
  431MPD2    C1 6477   0.044   0.474  12.677
  431MPD2    C2 6478   0.059   0.393  12.568
  431MPD2    C3 6479   4.793   0.271  12.570
  431MPD2    C4 6480   4.693   0.246  12.661
  431MPD2    C5 6481   4.674   0.334  12.763
  431MPD2     H 6482   0.130   0.410  12.488
  431MPD2    H1 6483   4.634   0.155  12.656
  431MPD2    H2 6484   4.748   0.511  12.855
  431MPD2    H3 6485   4.596   0.300  12.830
  431MPD2     N 6486   0.019   0.162  12.481
  431MPD2    H5 6487   4.796   0.071  12.516
  431MPD2    N1 6488   0.120   0.596  12.677
  431MPD2    H7 6489   0.166   0.624  12.591
  432TMC3    C1 6490   0.194   0.036  12.380
  432TMC3    C2 6491   0.276   0.025  12.273
  432TMC3    C3 6492   0.400   4.787  12.298
  432TMC3    C4 6493   0.228   4.790  12.507
  432TMC3    C5 6494   0.357   4.740  12.524
  432TMC3    C6 6495   0.444   4.745  12.423
  432TMC3     C 6496   0.121   0.165  12.383
  432TMC3     O 6497   0.160   0.255  12.312
  432TMC3     H 6498   0.246   0.062  12.176
  432TMC3    H1 6499   0.165   4.805  12.595
  432TMC3    H2 6500   0.545   4.715  12.446
  432TMC3    C7 6501   0.417   4.733  12.651
  432TMC3    C8 6502   0.482   4.758  12.182
  432TMC3    O1 6503   0.536   4.709  12.656
  432TMC3    O2 6504   0.432   4.711  12.082
  433MPD2     C 6505   3.697   4.170  11.044
  433MPD2    C1 6506   3.658   4.080  11.141
  433MPD2    C2 6507   3.699   4.105  11.271
  433MPD2    C3 6508   3.770   4.217  11.306
  433MPD2    C4 6509   3.794   4.309  11.206
  433MPD2    C5 6510   3.755   4.290  11.080
  433MPD2     H 6511   3.679   4.036  11.352
  433MPD2    H1 6512   3.842   4.403  11.232
  433MPD2    H2 6513   3.662   4.155  10.943
  433MPD2    H3 6514   3.786   4.363  11.007
  433MPD2     N 6515   3.801   4.235  11.440
  433MPD2    H5 6516   3.765   4.174  11.512
  433MPD2    N1 6517   3.589   3.956  11.106
  433MPD2    H7 6518   3.592   3.929  11.008
  434TMC3    C1 6519   3.529   3.733  11.136
  434TMC3    C2 6520   3.591   3.645  11.217
  434TMC3    C3 6521   3.663   3.537  11.158
  434TMC3    C4 6522   3.518   3.716  11.002
  434TMC3    C5 6523   3.592   3.613  10.939
  434TMC3    C6 6524   3.661   3.517  11.019
  434TMC3     C 6525   3.541   3.865  11.195
  434TMC3     O 6526   3.509   3.880  11.310
  434TMC3     H 6527   3.610   3.670  11.321
  434TMC3    H1 6528   3.450   3.774  10.941
  434TMC3    H2 6529   3.736   3.448  10.982
  434TMC3    C7 6530   3.570   3.586  10.797
  434TMC3    C8 6531   3.750   3.452  11.239
  434TMC3    O1 6532   3.521   3.673  10.724
  434TMC3    O2 6533   3.733   3.463  11.362
  435MPD2     C 6534   1.179   3.939  15.624
  435MPD2    C1 6535   1.131   3.920  15.746
  435MPD2    C2 6536   1.224   3.868  15.842
  435MPD2    C3 6537   1.356   3.828  15.803
  435MPD2    C4 6538   1.392   3.853  15.672
  435MPD2    C5 6539   1.304   3.913  15.584
  435MPD2     H 6540   1.198   3.840  15.943
  435MPD2    H1 6541   1.494   3.847  15.637
  435MPD2    H2 6542   1.123   4.004  15.558
  435MPD2    H3 6543   1.334   3.947  15.486
  435MPD2     N 6544   1.441   3.772  15.897
  435MPD2    H5 6545   1.403   3.749  15.989
  435MPD2    N1 6546   1.004   3.957  15.795
  435MPD2    H7 6547   0.999   3.923  15.890
  436TMC3    C1 6548   0.651   4.094  15.976
  436TMC3    C2 6549   0.772   4.058  15.928
  436TMC3    C3 6550   0.777   4.034  15.794
  436TMC3    C4 6551   0.529   4.086  15.906
  436TMC3    C5 6552   0.542   4.070  15.772
  436TMC3    C6 6553   0.663   4.043  15.716
  436TMC3     C 6554   0.651   4.137  16.118
  436TMC3     O 6555   0.761   4.154  16.167
  436TMC3     H 6556   0.864   4.052  15.985
  436TMC3    H1 6557   0.434   4.112  15.952
  436TMC3    H2 6558   0.670   4.020  15.611
  436TMC3    C7 6559   0.430   4.059  15.678
  436TMC3    C8 6560   0.904   4.016  15.723
  436TMC3    O1 6561   0.460   4.092  15.561
  436TMC3    O2 6562   0.904   4.055  15.604
  437TMC3    C1 6563   4.613   1.175  12.483
  437TMC3    C2 6564   4.537   1.283  12.506
  437TMC3    C3 6565   4.516   1.365  12.401
  437TMC3    C4 6566   4.679   1.158  12.366
  437TMC3    C5 6567   4.664   1.250  12.269
  437TMC3    C6 6568   4.570   1.347  12.274
  437TMC3     C 6569   4.714   1.157  12.586
  437TMC3     O 6570   0.025   1.202  12.560
  437TMC3     H 6571   4.495   1.312  12.601
  437TMC3    H1 6572   4.751   1.077  12.354
  437TMC3    H2 6573   4.558   1.416  12.192
  437TMC3    C7 6574   4.775   1.294  12.203
  437TMC3    C8 6575   4.392   1.452  12.401
  437TMC3    O1 6576   4.758   1.368  12.109
  437TMC3    O2 6577   4.332   1.468  12.297
  438MPD2     C 6578   2.054   2.055  17.283
  438MPD2    C1 6579   2.089   1.920  17.304
  438MPD2    C2 6580   2.088   1.875  17.430
  438MPD2    C3 6581   2.059   1.954  17.537
  438MPD2    C4 6582   2.036   2.086  17.516
  438MPD2    C5 6583   2.030   2.135  17.392
  438MPD2     H 6584   2.121   1.772  17.438
  438MPD2    H1 6585   2.005   2.153  17.597
  438MPD2    H2 6586   2.045   2.102  17.185
  438MPD2    H3 6587   2.018   2.240  17.371
  438MPD2     N 6588   2.064   1.906  17.667
  438MPD2    H5 6589   2.059   1.978  17.738
  438MPD2    N1 6590   2.137   1.835  17.192
  438MPD2    H7 6591   2.161   1.739  17.214
  439TMC3    C1 6592   2.241   1.780  16.995
  439TMC3    C2 6593   2.228   1.750  16.861
  439TMC3    C3 6594   2.296   1.644  16.807
  439TMC3    C4 6595   2.333   1.706  17.072
  439TMC3    C5 6596   2.390   1.597  17.014
  439TMC3    C6 6597   2.361   1.554  16.885
  439TMC3     C 6598   2.150   1.871  17.059
  439TMC3     O 6599   2.095   1.960  16.996
  439TMC3     H 6600   2.178   1.822  16.797
  439TMC3    H1 6601   2.357   1.734  17.174
  439TMC3    H2 6602   2.421   1.471  16.848
  439TMC3    C7 6603   2.480   1.512  17.085
  439TMC3    C8 6604   2.333   1.639  16.667
  439TMC3    O1 6605   2.564   1.576  17.148
  439TMC3    O2 6606   2.424   1.563  16.644
  440MPD2     C 6607   0.637   2.268  15.243
  440MPD2    C1 6608   0.735   2.358  15.286
  440MPD2    C2 6609   0.858   2.311  15.323
  440MPD2    C3 6610   0.891   2.175  15.322
  440MPD2    C4 6611   0.790   2.093  15.283
  440MPD2    C5 6612   0.667   2.137  15.230
  440MPD2     H 6613   0.928   2.388  15.355
  440MPD2    H1 6614   0.805   1.985  15.279
  440MPD2    H2 6615   0.535   2.298  15.222
  440MPD2    H3 6616   0.589   2.072  15.192
  440MPD2     N 6617   1.018   2.120  15.363
  440MPD2    H5 6618   1.022   2.019  15.359
  440MPD2    N1 6619   0.721   2.500  15.292
  440MPD2    H7 6620   0.806   2.545  15.323
  441TMC3    C1 6621   1.242   2.119  15.429
  441TMC3    C2 6622   1.346   2.194  15.430
  441TMC3    C3 6623   1.434   2.184  15.532
  441TMC3    C4 6624   1.218   2.033  15.531
  441TMC3    C5 6625   1.308   2.017  15.630
  441TMC3    C6 6626   1.417   2.096  15.639
  441TMC3     C 6627   1.125   2.193  15.392
  441TMC3     O 6628   1.135   2.310  15.415
  441TMC3     H 6629   1.353   2.268  15.351
  441TMC3    H1 6630   1.123   1.983  15.544
  441TMC3    H2 6631   1.486   2.089  15.723
  441TMC3    C7 6632   1.276   1.911  15.724
  441TMC3    C8 6633   1.489   2.308  15.576
  441TMC3    O1 6634   1.161   1.861  15.710
  441TMC3    O2 6635   1.575   2.305  15.661
  442MPD2     C 6636   4.040   2.821  16.793
  442MPD2    C1 6637   3.913   2.804  16.740
  442MPD2    C2 6638   3.889   2.689  16.664
  442MPD2    C3 6639   3.986   2.587  16.651
  442MPD2    C4 6640   4.097   2.602  16.725
  442MPD2    C5 6641   4.133   2.719  16.784
  442MPD2     H 6642   3.791   2.678  16.619
  442MPD2    H1 6643   4.160   2.515  16.715
  442MPD2    H2 6644   4.067   2.915  16.840
  442MPD2    H3 6645   4.233   2.730  16.826
  442MPD2     N 6646   3.964   2.462  16.591
  442MPD2    H5 6647   4.053   2.413  16.591
  442MPD2    N1 6648   3.823   2.913  16.738
  442MPD2    H7 6649   3.735   2.906  16.689
  443TMC3    C1 6650   3.732   3.109  16.804
  443TMC3    C2 6651   3.691   3.143  16.685
  443TMC3    C3 6652   3.571   3.211  16.675
  443TMC3    C4 6653   3.658   3.133  16.918
  443TMC3    C5 6654   3.533   3.200  16.910
  443TMC3    C6 6655   3.489   3.230  16.784
  443TMC3     C 6656   3.841   3.022  16.816
  443TMC3     O 6657   3.902   3.026  16.923
  443TMC3     H 6658   3.758   3.136  16.600
  443TMC3    H1 6659   3.693   3.091  17.011
  443TMC3    H2 6660   3.386   3.260  16.768
  443TMC3    C7 6661   3.434   3.173  17.015
  443TMC3    C8 6662   3.513   3.185  16.544
  443TMC3    O1 6663   3.434   3.066  17.073
  443TMC3    O2 6664   3.590   3.138  16.460
  444MPD2     C 6665   4.226   2.176  17.320
  444MPD2    C1 6666   4.128   2.088  17.270
  444MPD2    C2 6667   4.161   1.985  17.175
  444MPD2    C3 6668   4.289   1.972  17.135
  444MPD2    C4 6669   4.378   2.074  17.174
  444MPD2    C5 6670   4.349   2.162  17.269
  444MPD2     H 6671   4.081   1.920  17.143
  444MPD2    H1 6672   4.474   2.092  17.127
  444MPD2    H2 6673   4.216   2.250  17.398
  444MPD2    H3 6674   4.422   2.232  17.307
  444MPD2     N 6675   4.327   1.867  17.035
  444MPD2    H5 6676   4.247   1.808  17.015
  444MPD2    N1 6677   3.996   2.089  17.319
  444MPD2    H7 6678   3.932   2.035  17.261
  445TMC3    C1 6679   4.465   1.705  16.935
  445TMC3    C2 6680   4.355   1.693  16.849
  445TMC3    C3 6681   4.371   1.602  16.748
  445TMC3    C4 6682   4.574   1.624  16.928
  445TMC3    C5 6683   4.581   1.527  16.831
  445TMC3    C6 6684   4.489   1.527  16.727
  445TMC3     C 6685   4.457   1.822  17.018
  445TMC3     O 6686   4.566   1.865  17.054
  445TMC3     H 6687   4.267   1.755  16.846
  445TMC3    H1 6688   4.657   1.636  16.997
  445TMC3    H2 6689   4.497   1.460  16.642
  445TMC3    C7 6690   4.710   1.463  16.810
  445TMC3    C8 6691   4.256   1.565  16.669
  445TMC3    O1 6692   0.008   1.489  16.875
  445TMC3    O2 6693   4.166   1.646  16.656
  446MPD2     C 6694   3.525   3.411  11.832
  446MPD2    C1 6695   3.476   3.501  11.738
  446MPD2    C2 6696   3.570   3.575  11.667
  446MPD2    C3 6697   3.704   3.569  11.692
  446MPD2    C4 6698   3.746   3.478  11.783
  446MPD2    C5 6699   3.659   3.401  11.849
  446MPD2     H 6700   3.527   3.646  11.597
  446MPD2    H1 6701   3.851   3.461  11.804
  446MPD2    H2 6702   3.456   3.349  11.890
  446MPD2    H3 6703   3.697   3.328  11.921
  446MPD2     N 6704   3.788   3.652  11.614
  446MPD2    H5 6705   3.739   3.721  11.558
  446MPD2    N1 6706   3.340   3.526  11.712
  446MPD2    H7 6707   3.329   3.588  11.633
  447TMC3    C1 6708   4.000   3.744  11.531
  447TMC3    C2 6709   3.962   3.740  11.397
  447TMC3    C3 6710   4.058   3.731  11.301
  447TMC3    C4 6711   4.136   3.751  11.565
  447TMC3    C5 6712   4.228   3.733  11.464
  447TMC3    C6 6713   4.189   3.742  11.332
  447TMC3     C 6714   3.925   3.658  11.621
  447TMC3     O 6715   4.002   3.589  11.687
  447TMC3     H 6716   3.860   3.711  11.375
  447TMC3    H1 6717   4.155   3.746  11.672
  447TMC3    H2 6718   4.264   3.717  11.257
  447TMC3    C7 6719   4.366   3.697  11.503
  447TMC3    C8 6720   4.017   3.735  11.162
  447TMC3    O1 6721   4.438   3.653  11.413
  447TMC3    O2 6722   3.898   3.749  11.142
  448TMC3    C1 6723   2.041   3.594  17.110
  448TMC3    C2 6724   2.032   3.473  17.060
  448TMC3    C3 6725   2.060   3.363  17.141
  448TMC3    C4 6726   2.097   3.612  17.235
  448TMC3    C5 6727   2.126   3.501  17.312
  448TMC3    C6 6728   2.109   3.375  17.260
  448TMC3     C 6729   1.978   3.705  17.037
  448TMC3     O 6730   1.882   3.681  16.963
  448TMC3     H 6731   2.012   3.459  16.954
  448TMC3    H1 6732   2.101   3.706  17.288
  448TMC3    H2 6733   2.127   3.282  17.313
  448TMC3    C7 6734   2.190   3.506  17.442
  448TMC3    C8 6735   2.047   3.228  17.087
  448TMC3    O1 6736   2.236   3.614  17.468
  448TMC3    O2 6737   2.125   3.138  17.119
  449MPD2     C 6738   3.738   1.608  14.146
  449MPD2    C1 6739   3.607   1.631  14.093
  449MPD2    C2 6740   3.500   1.558  14.128
  449MPD2    C3 6741   3.523   1.458  14.226
  449MPD2    C4 6742   3.642   1.438  14.292
  449MPD2    C5 6743   3.748   1.513  14.245
  449MPD2     H 6744   3.406   1.588  14.084
  449MPD2    H1 6745   3.655   1.362  14.367
  449MPD2    H2 6746   3.824   1.665  14.114
  449MPD2    H3 6747   3.845   1.478  14.281
  449MPD2     N 6748   3.401   1.394  14.271
  449MPD2    H5 6749   3.318   1.414  14.217
  449MPD2    N1 6750   3.562   1.746  14.017
  449MPD2    H7 6751   3.469   1.752  13.976
  450TMC3    C1 6752   3.577   1.937  13.890
  450TMC3    C2 6753   3.620   1.937  13.761
  450TMC3    C3 6754   3.522   1.938  13.665
  450TMC3    C4 6755   3.448   1.957  13.916
  450TMC3    C5 6756   3.351   1.940  13.824
  450TMC3    C6 6757   3.394   1.929  13.695
  450TMC3     C 6758   3.648   1.836  13.971
  450TMC3     O 6759   3.771   1.855  13.989
  450TMC3     H 6760   3.720   1.899  13.745
  450TMC3    H1 6761   3.417   1.944  14.019
  450TMC3    H2 6762   3.323   1.933  13.614
  450TMC3    C7 6763   3.260   1.834  13.862
  450TMC3    C8 6764   3.546   1.847  13.554
  450TMC3    O1 6765   3.316   1.736  13.899
  450TMC3    O2 6766   3.453   1.795  13.495
  451MPD2     C 6767   0.370   0.897  19.609
  451MPD2    C1 6768   0.338   0.863  19.478
  451MPD2    C2 6769   0.396   0.748  19.437
  451MPD2    C3 6770   0.484   0.668  19.512
  451MPD2    C4 6771   0.515   0.705  19.640
  451MPD2    C5 6772   0.467   0.825  19.682
  451MPD2     H 6773   0.362   0.716  19.339
  451MPD2    H1 6774   0.588   0.650  19.700
  451MPD2    H2 6775   0.328   0.984  19.658
  451MPD2    H3 6776   0.488   0.850  19.786
  451MPD2     N 6777   0.515   0.542  19.467
  451MPD2    H5 6778   0.552   0.481  19.539
  451MPD2    N1 6779   0.247   0.946  19.404
  451MPD2    H7 6780   0.201   1.021  19.457
  452TMC3    C1 6781   0.466   0.356  19.335
  452TMC3    C2 6782   0.396   0.294  19.434
  452TMC3    C3 6783   0.330   0.178  19.402
  452TMC3    C4 6784   0.480   0.302  19.210
  452TMC3    C5 6785   0.417   0.188  19.187
  452TMC3    C6 6786   0.347   0.112  19.278
  452TMC3     C 6787   0.482   0.497  19.343
  452TMC3     O 6788   0.463   0.553  19.234
  452TMC3     H 6789   0.376   0.351  19.525
  452TMC3    H1 6790   0.533   0.353  19.131
  452TMC3    H2 6791   0.262   0.053  19.247
  452TMC3    C7 6792   0.397   0.167  19.045
  452TMC3    C8 6793   0.232   0.118  19.491
  452TMC3    O1 6794   0.410   0.270  18.976
  452TMC3    O2 6795   0.223   4.798  19.495
  453TMC3    C1 6796   0.963   2.439  12.130
  453TMC3    C2 6797   0.938   2.328  12.055
  453TMC3    C3 6798   0.910   2.357  11.925
  453TMC3    C4 6799   0.944   2.566  12.093
  453TMC3    C5 6800   0.899   2.595  11.965
  453TMC3    C6 6801   0.886   2.483  11.878
  453TMC3     C 6802   1.090   2.441  12.194
  453TMC3     O 6803   1.177   2.490  12.122
  453TMC3     H 6804   0.993   2.243  12.094
  453TMC3    H1 6805   0.989   2.642  12.156
  453TMC3    H2 6806   0.859   2.493  11.773
  453TMC3    C7 6807   0.982   2.690  11.896
  453TMC3    C8 6808   0.964   2.266  11.825
  453TMC3    O1 6809   0.944   2.773  11.815
  453TMC3    O2 6810   0.995   2.308  11.717
  454MPD2     C 6811   0.247   1.709  16.438
  454MPD2    C1 6812   0.188   1.806  16.356
  454MPD2    C2 6813   0.154   1.927  16.409
  454MPD2    C3 6814   0.159   1.947  16.547
  454MPD2    C4 6815   0.204   1.844  16.629
  454MPD2    C5 6816   0.249   1.727  16.575
  454MPD2     H 6817   0.115   2.000  16.339
  454MPD2    H1 6818   0.208   1.848  16.738
  454MPD2    H2 6819   0.284   1.616  16.395
  454MPD2    H3 6820   0.277   1.645  16.640
  454MPD2     N 6821   0.099   2.067  16.614
  454MPD2    H5 6822   0.075   2.070  16.712
  454MPD2    N1 6823   0.177   1.785  16.218
  454MPD2    H7 6824   0.130   1.861  16.169
  455TMC3    C1 6825   4.724   2.207  16.590
  455TMC3    C2 6826   4.699   2.217  16.727
  455TMC3    C3 6827   4.585   2.177  16.777
  455TMC3    C4 6828   4.626   2.159  16.513
  455TMC3    C5 6829   4.510   2.114  16.571
  455TMC3    C6 6830   4.483   2.124  16.701
  455TMC3     C 6831   0.058   2.174  16.543
  455TMC3     O 6832   0.080   2.209  16.428
  455TMC3     H 6833   4.783   2.244  16.789
  455TMC3    H1 6834   4.638   2.141  16.406
  455TMC3    H2 6835   4.409   2.057  16.744
  455TMC3    C7 6836   4.465   1.985  16.527
  455TMC3    C8 6837   4.550   2.256  16.892
  455TMC3    O1 6838   4.349   1.955  16.506
  455TMC3    O2 6839   4.648   2.298  16.951
  456MPD2     C 6840   2.259   2.049  16.350
  456MPD2    C1 6841   2.358   2.054  16.446
  456MPD2    C2 6842   2.330   2.081  16.576
  456MPD2    C3 6843   2.202   2.126  16.602
  456MPD2    C4 6844   2.101   2.123  16.504
  456MPD2    C5 6845   2.130   2.071  16.380
  456MPD2     H 6846   2.406   2.079  16.654
  456MPD2    H1 6847   1.997   2.152  16.516
  456MPD2    H2 6848   2.277   2.016  16.249
  456MPD2    H3 6849   2.055   2.076  16.301
  456MPD2     N 6850   2.174   2.191  16.726
  456MPD2    H5 6851   2.251   2.186  16.792
  456MPD2    N1 6852   2.487   2.012  16.411
  456MPD2    H7 6853   2.502   1.996  16.312
  457TMC3    C1 6854   2.081   2.341  16.882
  457TMC3    C2 6855   2.042   2.475  16.867
  457TMC3    C3 6856   2.115   2.570  16.940
  457TMC3    C4 6857   2.181   2.297  16.966
  457TMC3    C5 6858   2.233   2.392  17.050
  457TMC3    C6 6859   2.206   2.527  17.036
  457TMC3     C 6860   2.055   2.256  16.763
  457TMC3     O 6861   1.949   2.272  16.700
  457TMC3     H 6862   1.966   2.500  16.794
  457TMC3    H1 6863   2.187   2.190  16.983
  457TMC3    H2 6864   2.253   2.596  17.105
  457TMC3    C7 6865   2.332   2.343  17.149
  457TMC3    C8 6866   2.076   2.702  16.950
  457TMC3    O1 6867   2.371   2.229  17.142
  457TMC3    O2 6868   2.157   2.772  17.006
  458MPD2     C 6869   0.454   1.451  12.259
  458MPD2    C1 6870   0.405   1.388  12.372
  458MPD2    C2 6871   0.277   1.329  12.381
  458MPD2    C3 6872   0.199   1.325  12.270
  458MPD2    C4 6873   0.247   1.378  12.147
  458MPD2    C5 6874   0.370   1.438  12.149
  458MPD2     H 6875   0.234   1.274  12.464
  458MPD2    H1 6876   0.191   1.376  12.055
  458MPD2    H2 6877   0.554   1.492  12.247
  458MPD2    H3 6878   0.410   1.472  12.054
  458MPD2     N 6879   0.077   1.261  12.279
  458MPD2    H5 6880   0.060   1.220  12.371
  458MPD2    N1 6881   0.489   1.407  12.486
  458MPD2    H7 6882   0.577   1.456  12.471
  459TMC3    C1 6883   0.561   1.406  12.709
  459TMC3    C2 6884   0.661   1.497  12.679
  459TMC3    C3 6885   0.733   1.560  12.781
  459TMC3    C4 6886   0.530   1.381  12.842
  459TMC3    C5 6887   0.607   1.447  12.940
  459TMC3    C6 6888   0.707   1.537  12.913
  459TMC3     C 6889   0.457   1.369  12.613
  459TMC3     O 6890   0.363   1.305  12.655
  459TMC3     H 6891   0.692   1.525  12.578
  459TMC3    H1 6892   0.434   1.337  12.865
  459TMC3    H2 6893   0.770   1.579  12.991
  459TMC3    C7 6894   0.561   1.419  13.079
  459TMC3    C8 6895   0.829   1.670  12.760
  459TMC3    O1 6896   0.484   1.326  13.093
  459TMC3    O2 6897   0.921   1.683  12.838
  460MPD2     C 6898   4.251   3.849  10.909
  460MPD2    C1 6899   4.127   3.824  10.961
  460MPD2    C2 6900   4.016   3.879  10.899
  460MPD2    C3 6901   4.031   3.967  10.797
  460MPD2    C4 6902   4.158   3.998  10.759
  460MPD2    C5 6903   4.264   3.936  10.812
  460MPD2     H 6904   3.918   3.864  10.943
  460MPD2    H1 6905   4.186   4.077  10.691
  460MPD2    H2 6906   4.338   3.798  10.948
  460MPD2    H3 6907   4.360   3.969  10.774
  460MPD2     N 6908   3.920   4.027  10.739
  460MPD2    H5 6909   3.831   3.984  10.764
  460MPD2    N1 6910   4.126   3.752  11.083
  460MPD2    H7 6911   4.211   3.707  11.115
  461TMC3    C1 6912   3.785   4.143  10.593
  461TMC3    C2 6913   3.743   4.031  10.522
  461TMC3    C3 6914   3.630   4.042  10.437
  461TMC3    C4 6915   3.736   4.266  10.569
  461TMC3    C5 6916   3.626   4.278  10.483
  461TMC3    C6 6917   3.581   4.167  10.415
  461TMC3     C 6918   3.915   4.130  10.649
  461TMC3     O 6919   4.004   4.207  10.611
  461TMC3     H 6920   3.786   3.935  10.546
  461TMC3    H1 6921   3.781   4.350  10.621
  461TMC3    H2 6922   3.489   4.180  10.361
  461TMC3    C7 6923   3.599   4.408  10.424
  461TMC3    C8 6924   3.658   3.957  10.322
  461TMC3    O1 6925   3.518   4.411  10.337
  461TMC3    O2 6926   3.771   3.911  10.300
  462TMC3    C1 6927   4.099   0.376  18.036
  462TMC3    C2 6928   4.183   0.318  17.947
  462TMC3    C3 6929   4.202   0.181  17.958
  462TMC3    C4 6930   4.027   0.304  18.126
  462TMC3    C5 6931   4.055   0.169  18.136
  462TMC3    C6 6932   4.146   0.104  18.056
  462TMC3     C 6933   4.081   0.521  18.045
  462TMC3     O 6934   3.978   0.563  18.100
  462TMC3     H 6935   4.214   0.375  17.860
  462TMC3    H1 6936   3.945   0.353  18.178
  462TMC3    H2 6937   4.152   4.801  18.061
  462TMC3    C7 6938   3.948   0.080  18.186
  462TMC3    C8 6939   4.211   0.121  17.823
  462TMC3    O1 6940   3.990   4.773  18.225
  462TMC3    O2 6941   4.156   0.176  17.732
  463MPD2     C 6942   0.251   3.368  19.857
  463MPD2    C1 6943   0.222   3.409  19.726
  463MPD2    C2 6944   0.257   3.540  19.705
  463MPD2    C3 6945   0.304   3.632  19.791
  463MPD2    C4 6946   0.341   3.592  19.919
  463MPD2    C5 6947   0.312   3.456  19.951
  463MPD2     H 6948   0.239   3.577  19.605
  463MPD2    H1 6949   0.388   3.643  20.002
  463MPD2    H2 6950   0.239   3.263  19.884
  463MPD2    H3 6951   0.340   3.421  20.049
  463MPD2     N 6952   0.323   3.769  19.750
  463MPD2    H5 6953   0.341   3.840  19.820
  463MPD2    N1 6954   0.180   3.332  19.609
  463MPD2    H7 6955   0.167   3.390  19.527
  464TMC3    C1 6956   0.069   3.165  19.472
  464TMC3    C2 6957   0.066   3.258  19.370
  464TMC3    C3 6958   0.003   3.200  19.255
  464TMC3    C4 6959   0.042   3.032  19.446
  464TMC3    C5 6960   4.788   2.986  19.328
  464TMC3    C6 6961   4.765   3.071  19.230
  464TMC3     C 6962   0.131   3.207  19.599
  464TMC3     O 6963   0.141   3.119  19.685
  464TMC3     H 6964   0.070   3.365  19.383
  464TMC3    H1 6965   0.074   2.951  19.510
  464TMC3    H2 6966   4.733   3.042  19.130
  464TMC3    C7 6967   0.010   2.858  19.274
  464TMC3    C8 6968   4.801   3.278  19.135
  464TMC3    O1 6969   0.131   2.834  19.250
  464TMC3    O2 6970   4.694   3.302  19.084
  465MPD2     C 6971   1.837   2.524  17.389
  465MPD2    C1 6972   1.774   2.397  17.390
  465MPD2    C2 6973   1.723   2.349  17.269
  465MPD2    C3 6974   1.738   2.426  17.153
  465MPD2    C4 6975   1.794   2.551  17.157
  465MPD2    C5 6976   1.844   2.598  17.274
  465MPD2     H 6977   1.680   2.250  17.262
  465MPD2    H1 6978   1.809   2.608  17.066
  465MPD2    H2 6979   1.875   2.565  17.483
  465MPD2    H3 6980   1.870   2.703  17.281
  465MPD2     N 6981   1.688   2.363  17.031
  465MPD2    H5 6982   1.639   2.274  17.038
  465MPD2    N1 6983   1.742   2.330  17.510
  465MPD2    H7 6984   1.676   2.254  17.502
  466TMC3    C1 6985   1.489   2.174  16.757
  466TMC3    C2 6986   1.448   2.243  16.643
  466TMC3    C3 6987   1.530   2.346  16.609
  466TMC3    C4 6988   1.589   2.224  16.845
  466TMC3    C5 6989   1.652   2.340  16.802
  466TMC3    C6 6990   1.627   2.404  16.682
  466TMC3     C 6991   1.380   2.122  16.828
  466TMC3     O 6992   1.405   2.122  16.948
  466TMC3     H 6993   1.350   2.232  16.599
  466TMC3    H1 6994   1.612   2.170  16.936
  466TMC3    H2 6995   1.688   2.490  16.654
  466TMC3    C7 6996   1.696   2.427  16.905
  466TMC3    C8 6997   1.470   2.426  16.508
  466TMC3    O1 6998   1.735   2.535  16.866
  466TMC3    O2 6999   1.491   2.394  16.393
  467TMC3    C1 7000   2.339   0.736  14.067
  467TMC3    C2 7001   2.280   0.732  13.944
  467TMC3    C3 7002   2.147   0.766  13.936
  467TMC3    C4 7003   2.270   0.746  14.183
  467TMC3    C5 7004   2.137   0.766  14.174
  467TMC3    C6 7005   2.075   0.783  14.053
  467TMC3     C 7006   2.484   0.737  14.083
  467TMC3     O 7007   2.534   0.766  14.192
  467TMC3     H 7008   2.335   0.733  13.851
  467TMC3    H1 7009   2.325   0.747  14.276
  467TMC3    H2 7010   1.979   0.831  14.046
  467TMC3    C7 7011   2.061   0.678  14.260
  467TMC3    C8 7012   2.114   0.853  13.827
  467TMC3    O1 7013   2.133   0.618  14.341
  467TMC3    O2 7014   2.118   0.971  13.860
  468MPD2     C 7015   0.924   4.328  11.165
  468MPD2    C1 7016   1.038   4.254  11.192
  468MPD2    C2 7017   1.048   4.124  11.162
  468MPD2    C3 7018   0.942   4.059  11.096
  468MPD2    C4 7019   0.827   4.129  11.071
  468MPD2    C5 7020   0.821   4.259  11.109
  468MPD2     H 7021   1.136   4.069  11.191
  468MPD2    H1 7022   0.741   4.079  11.029
  468MPD2    H2 7023   0.913   4.432  11.191
  468MPD2    H3 7024   0.726   4.309  11.094
  468MPD2     N 7025   0.953   3.929  11.043
  468MPD2    H5 7026   0.868   3.893  11.000
  468MPD2    N1 7027   1.153   4.322  11.243
  468MPD2    H7 7028   1.236   4.267  11.266
  469TMC3    C1 7029   1.312   4.485  11.289
  469TMC3    C2 7030   1.417   4.404  11.256
  469TMC3    C3 7031   1.539   4.431  11.308
  469TMC3    C4 7032   1.328   4.596  11.366
  469TMC3    C5 7033   1.451   4.612  11.420
  469TMC3    C6 7034   1.558   4.534  11.391
  469TMC3     C 7035   1.174   4.456  11.259
  469TMC3     O 7036   1.098   4.549  11.275
  469TMC3     H 7037   1.404   4.319  11.191
  469TMC3    H1 7038   1.245   4.663  11.386
  469TMC3    H2 7039   1.656   4.541  11.438
  469TMC3    C7 7040   1.462   4.718  11.523
  469TMC3    C8 7041   1.626   4.309  11.322
  469TMC3    O1 7042   1.379   0.001  11.513
  469TMC3    O2 7043   1.611   4.219  11.241
  470TMC3    C1 7044   3.454   4.587  18.573
  470TMC3    C2 7045   3.524   4.692  18.519
  470TMC3    C3 7046   3.638   4.734  18.579
  470TMC3    C4 7047   3.493   4.520  18.687
  470TMC3    C5 7048   3.604   4.576  18.749
  470TMC3    C6 7049   3.676   4.677  18.701
  470TMC3     C 7050   3.351   4.528  18.494
  470TMC3     O 7051   3.334   4.566  18.378
  470TMC3     H 7052   3.495   4.741  18.426
  470TMC3    H1 7053   3.450   4.427  18.721
  470TMC3    H2 7054   3.766   4.709  18.752
  470TMC3    C7 7055   3.653   4.513  18.876
  470TMC3    C8 7056   3.721   0.023  18.510
  470TMC3    O1 7057   3.771   4.530  18.901
  470TMC3    O2 7058   3.659   0.118  18.461
  471MPD2     C 7059   4.038   1.292  16.907
  471MPD2    C1 7060   3.988   1.167  16.920
  471MPD2    C2 7061   3.993   1.104  17.039
  471MPD2    C3 7062   4.045   1.161  17.156
  471MPD2    C4 7063   4.093   1.287  17.139
  471MPD2    C5 7064   4.087   1.353  17.015
  471MPD2     H 7065   3.955   1.003  17.035
  471MPD2    H1 7066   4.141   1.339  17.221
  471MPD2    H2 7067   4.045   1.334  16.807
  471MPD2    H3 7068   4.133   1.452  17.010
  471MPD2     N 7069   4.079   1.091  17.277
  471MPD2    H5 7070   4.119   1.149  17.350
  471MPD2    N1 7071   3.957   1.092  16.805
  471MPD2    H7 7072   3.931   0.996  16.825
  472TMC3    C1 7073   3.888   1.031  16.592
  472TMC3    C2 7074   3.816   1.072  16.486
  472TMC3    C3 7075   3.791   0.979  16.390
  472TMC3    C4 7076   3.943   0.908  16.610
  472TMC3    C5 7077   3.918   0.817  16.514
  472TMC3    C6 7078   3.832   0.849  16.416
  472TMC3     C 7079   3.920   1.145  16.683
  472TMC3     O 7080   3.899   1.258  16.649
  472TMC3     H 7081   3.761   1.165  16.487
  472TMC3    H1 7082   4.007   0.883  16.694
  472TMC3    H2 7083   3.827   0.786  16.328
  472TMC3    C7 7084   3.907   0.677  16.560
  472TMC3    C8 7085   3.656   0.977  16.349
  472TMC3    O1 7086   3.891   0.659  16.682
  472TMC3    O2 7087   3.636   1.052  16.256
  473MPD2     C 7088   3.792   2.952  14.294
  473MPD2    C1 7089   3.882   3.004  14.200
  473MPD2    C2 7090   3.942   3.122  14.242
  473MPD2    C3 7091   3.903   3.199  14.352
  473MPD2    C4 7092   3.811   3.155  14.440
  473MPD2    C5 7093   3.762   3.027  14.407
  473MPD2     H 7094   4.022   3.155  14.176
  473MPD2    H1 7095   3.767   3.210  14.522
  473MPD2    H2 7096   3.749   2.854  14.275
  473MPD2    H3 7097   3.680   2.986  14.466
  473MPD2     N 7098   3.956   3.330  14.376
  473MPD2    H5 7099   3.897   3.379  14.442
  473MPD2    N1 7100   3.933   2.931  14.084
  473MPD2    H7 7101   4.023   2.959  14.045
  474TMC3    C1 7102   4.096   3.507  14.388
  474TMC3    C2 7103   3.999   3.593  14.419
  474TMC3    C3 7104   4.038   3.721  14.451
  474TMC3    C4 7105   4.224   3.549  14.372
  474TMC3    C5 7106   4.264   3.678  14.397
  474TMC3    C6 7107   4.171   3.754  14.458
  474TMC3     C 7108   4.073   3.380  14.335
  474TMC3     O 7109   4.164   3.324  14.276
  474TMC3     H 7110   3.896   3.561  14.422
  474TMC3    H1 7111   4.303   3.481  14.343
  474TMC3    H2 7112   4.200   3.857  14.477
  474TMC3    C7 7113   4.402   3.697  14.427
  474TMC3    C8 7114   3.930   3.817  14.468
  474TMC3    O1 7115   4.482   3.657  14.345
  474TMC3    O2 7116   3.820   3.765  14.486
  475MPD2     C 7117   2.531   1.554  11.137
  475MPD2    C1 7118   2.561   1.654  11.045
  475MPD2    C2 7119   2.519   1.780  11.075
  475MPD2    C3 7120   2.444   1.811  11.190
  475MPD2    C4 7121   2.426   1.709  11.279
  475MPD2    C5 7122   2.465   1.583  11.248
  475MPD2     H 7123   2.532   1.856  10.998
  475MPD2    H1 7124   2.382   1.718  11.378
  475MPD2    H2 7125   2.563   1.452  11.122
  475MPD2    H3 7126   2.448   1.508  11.326
  475MPD2     N 7127   2.401   1.942  11.220
  475MPD2    H5 7128   2.420   2.020  11.157
  475MPD2    N1 7129   2.627   1.609  10.934
  475MPD2    H7 7130   2.619   1.511  10.909
  476TMC3    C1 7131   2.766   1.816  10.896
  476TMC3    C2 7132   2.734   1.923  10.821
  476TMC3    C3 7133   2.715   2.044  10.882
  476TMC3    C4 7134   2.791   1.830  11.031
  476TMC3    C5 7135   2.794   1.956  11.087
  476TMC3    C6 7136   2.751   2.060  11.014
  476TMC3     C 7137   2.707   1.693  10.850
  476TMC3     O 7138   2.746   1.660  10.736
  476TMC3     H 7139   2.720   1.916  10.714
  476TMC3    H1 7140   2.815   1.745  11.094
  476TMC3    H2 7141   2.758   2.161  11.055
  476TMC3    C7 7142   2.769   1.962  11.236
  476TMC3    C8 7143   2.576   2.086  10.877
  476TMC3    O1 7144   2.789   1.860  11.300
  476TMC3    O2 7145   2.527   2.122  10.985
  477MPD2     C 7146   0.057   3.292  11.975
  477MPD2    C1 7147   4.752   3.219  12.010
  477MPD2    C2 7148   4.774   3.097  12.067
  477MPD2    C3 7149   0.098   3.056  12.096
  477MPD2    C4 7150   0.204   3.138  12.064
  477MPD2    C5 7151   0.184   3.257  12.007
  477MPD2     H 7152   4.695   3.028  12.098
  477MPD2    H1 7153   0.304   3.100  12.086
  477MPD2    H2 7154   0.059   3.389  11.927
  477MPD2    H3 7155   0.266   3.316  11.968
  477MPD2     N 7156   0.112   2.934  12.157
  477MPD2    H5 7157   0.031   2.877  12.177
  477MPD2    N1 7158   4.628   3.278  11.985
  477MPD2    H7 7159   4.621   3.361  11.926
  478TMC3    C1 7160   4.387   3.297  11.977
  478TMC3    C2 7161   4.280   3.313  12.053
  478TMC3    C3 7162   4.162   3.353  11.986
  478TMC3    C4 7163   4.389   3.326  11.843
  478TMC3    C5 7164   4.267   3.350  11.782
  478TMC3    C6 7165   4.156   3.365  11.854
  478TMC3     C 7166   4.506   3.236  12.040
  478TMC3     O 7167   4.479   3.161  12.134
  478TMC3     H 7168   4.288   3.304  12.161
  478TMC3    H1 7169   4.471   3.286  11.785
  478TMC3    H2 7170   4.057   3.381  11.812
  478TMC3    C7 7171   4.261   3.318  11.642
  478TMC3    C8 7172   4.071   3.434  12.062
  478TMC3    O1 7173   4.354   3.254  11.592
  478TMC3    O2 7174   4.101   3.422  12.184
  479MPD2     C 7175   3.453   0.267  15.371
  479MPD2    C1 7176   3.410   0.231  15.498
  479MPD2    C2 7177   3.503   0.219  15.602
  479MPD2    C3 7178   3.633   0.257  15.586
  479MPD2    C4 7179   3.672   0.312  15.463
  479MPD2    C5 7180   3.586   0.301  15.358
  479MPD2     H 7181   3.457   0.183  15.692
  479MPD2    H1 7182   3.770   0.351  15.440
  479MPD2    H2 7183   3.391   0.280  15.283
  479MPD2    H3 7184   3.622   0.324  15.259
  479MPD2     N 7185   3.738   0.257  15.684
  479MPD2    H5 7186   3.830   0.269  15.645
  479MPD2    N1 7187   3.277   0.186  15.506
  479MPD2    H7 7188   3.229   0.181  15.417
  480TMC3    C1 7189   3.482   0.232  16.084
  480TMC3    C2 7190   3.401   0.332  16.037
  480TMC3    C3 7191   3.452   0.405  15.933
  480TMC3    C4 7192   3.575   0.178  15.998
  480TMC3    C5 7193   3.613   0.242  15.882
  480TMC3    C6 7194   3.557   0.364  15.862
  480TMC3     C 7195   3.426   0.120  16.162
  480TMC3     O 7196   3.508   0.034  16.195
  480TMC3     H 7197   3.321   0.381  16.092
  480TMC3    H1 7198   3.637   0.092  16.022
  480TMC3    H2 7199   3.606   0.438  15.799
  480TMC3    C7 7200   3.730   0.203  15.814
  480TMC3    C8 7201   3.358   0.499  15.875
  480TMC3    O1 7202   3.814   0.154  15.891
  480TMC3    O2 7203   3.254   0.516  15.935
  481MPD2     C 7204   0.160   0.105  14.040
  481MPD2    C1 7205   0.079   0.009  14.092
  481MPD2    C2 7206   0.118   4.757  14.211
  481MPD2    C3 7207   0.241   4.782  14.275
  481MPD2    C4 7208   0.323   0.073  14.215
  481MPD2    C5 7209   0.281   0.135  14.102
  481MPD2     H 7210   0.061   4.670  14.243
  481MPD2    H1 7211   0.425   0.094  14.246
  481MPD2    H2 7212   0.137   0.154  13.946
  481MPD2    H3 7213   0.362   0.195  14.061
  481MPD2     N 7214   0.284   4.719  14.396
  481MPD2    H5 7215   0.371   4.747  14.441
  481MPD2    N1 7216   4.762   4.795  14.022
  481MPD2    H7 7217   4.750   0.050  13.940
  482TMC3    C1 7218   4.563   4.692  13.954
  482TMC3    C2 7219   4.513   4.567  13.928
  482TMC3    C3 7220   4.389   4.550  13.879
  482TMC3    C4 7221   4.500   0.000  13.915
  482TMC3    C5 7222   4.372   4.789  13.866
  482TMC3    C6 7223   4.318   4.663  13.845
  482TMC3     C 7224   4.669   4.703  14.055
  482TMC3     O 7225   4.687   4.599  14.118
  482TMC3     H 7226   4.576   4.481  13.948
  482TMC3    H1 7227   4.539   0.097  13.944
  482TMC3    H2 7228   4.228   4.654  13.785
  482TMC3    C7 7229   4.313   0.094  13.787
  482TMC3    C8 7230   4.360   4.426  13.805
  482TMC3    O1 7231   4.201   0.087  13.743
  482TMC3    O2 7232   4.451   4.343  13.816
  483TMC3    C1 7233   2.815   3.474  18.635
  483TMC3    C2 7234   2.883   3.593  18.642
  483TMC3    C3 7235   2.986   3.606  18.731
  483TMC3    C4 7236   2.866   3.360  18.690
  483TMC3    C5 7237   2.970   3.375  18.776
  483TMC3    C6 7238   3.030   3.496  18.799
  483TMC3     C 7239   2.725   3.457  18.529
  483TMC3     O 7240   2.667   3.548  18.477
  483TMC3     H 7241   2.837   3.680  18.597
  483TMC3    H1 7242   2.818   3.263  18.686
  483TMC3    H2 7243   3.123   3.502  18.855
  483TMC3    C7 7244   3.005   3.264  18.866
  483TMC3    C8 7245   3.071   3.720  18.706
  483TMC3    O1 7246   3.108   3.265  18.928
  483TMC3    O2 7247   3.064   3.752  18.585
  484MPD2     C 7248   0.832   1.890  12.455
  484MPD2    C1 7249   0.871   1.845  12.578
  484MPD2    C2 7250   0.996   1.887  12.630
  484MPD2    C3 7251   1.074   1.979  12.565
  484MPD2    C4 7252   1.036   2.031  12.444
  484MPD2    C5 7253   0.911   1.992  12.398
  484MPD2     H 7254   1.029   1.852  12.727
  484MPD2    H1 7255   1.087   2.111  12.390
  484MPD2    H2 7256   0.743   1.856  12.405
  484MPD2    H3 7257   0.873   2.023  12.302
  484MPD2     N 7258   1.195   2.022  12.619
  484MPD2    H5 7259   1.265   2.063  12.558
  484MPD2    N1 7260   0.803   1.736  12.638
  484MPD2    H7 7261   0.713   1.710  12.597
  485TMC3    C1 7262   1.359   2.073  12.785
  485TMC3    C2 7263   1.419   2.026  12.903
  485TMC3    C3 7264   1.550   2.054  12.921
  485TMC3    C4 7265   1.426   2.146  12.695
  485TMC3    C5 7266   1.557   2.174  12.721
  485TMC3    C6 7267   1.614   2.139  12.834
  485TMC3     C 7268   1.226   2.025  12.755
  485TMC3     O 7269   1.165   1.990  12.854
  485TMC3     H 7270   1.373   1.961  12.976
  485TMC3    H1 7271   1.382   2.186  12.604
  485TMC3    H2 7272   1.714   2.165  12.867
  485TMC3    C7 7273   1.659   2.181  12.609
  485TMC3    C8 7274   1.641   1.951  12.979
  485TMC3    O1 7275   1.773   2.188  12.651
  485TMC3    O2 7276   1.759   1.979  12.959
  486MPD2     C 7277   3.426   0.751  13.318
  486MPD2    C1 7278   3.326   0.707  13.234
  486MPD2    C2 7279   3.252   0.795  13.157
  486MPD2    C3 7280   3.262   0.932  13.179
  486MPD2    C4 7281   3.351   0.972  13.262
  486MPD2    C5 7282   3.432   0.887  13.330
  486MPD2     H 7283   3.185   0.754  13.082
  486MPD2    H1 7284   3.385   1.072  13.284
  486MPD2    H2 7285   3.485   0.691  13.386
  486MPD2    H3 7286   3.499   0.927  13.404
  486MPD2     N 7287   3.190   1.032  13.097
  486MPD2    H5 7288   3.123   0.999  13.029
  486MPD2    N1 7289   3.318   0.566  13.235
  486MPD2    H7 7290   3.367   0.526  13.314
  487TMC3    C1 7291   3.219   0.352  13.219
  487TMC3    C2 7292   3.161   0.255  13.138
  487TMC3    C3 7293   3.168   0.127  13.187
  487TMC3    C4 7294   3.261   0.333  13.350
  487TMC3    C5 7295   3.256   0.202  13.388
  487TMC3    C6 7296   3.233   0.096  13.304
  487TMC3     C 7297   3.239   0.490  13.157
  487TMC3     O 7298   3.200   0.509  13.043
  487TMC3     H 7299   3.132   0.276  13.036
  487TMC3    H1 7300   3.279   0.411  13.423
  487TMC3    H2 7301   3.250   4.798  13.334
  487TMC3    C7 7302   3.208   0.190  13.521
  487TMC3    C8 7303   3.046   0.061  13.190
  487TMC3    O1 7304   3.265   0.256  13.606
  487TMC3    O2 7305   3.033   4.778  13.268
  488MPD2     C 7306   3.276   2.196  16.663
  488MPD2    C1 7307   3.282   2.334  16.641
  488MPD2    C2 7308   3.238   2.414  16.746
  488MPD2    C3 7309   3.192   2.361  16.866
  488MPD2    C4 7310   3.189   2.224  16.882
  488MPD2    C5 7311   3.240   2.145  16.782
  488MPD2     H 7312   3.233   2.521  16.729
  488MPD2    H1 7313   3.151   2.177  16.971
  488MPD2    H2 7314   3.278   2.134  16.574
  488MPD2    H3 7315   3.221   2.039  16.797
  488MPD2     N 7316   3.136   2.441  16.965
  488MPD2    H5 7317   3.134   2.541  16.950
  488MPD2    N1 7318   3.332   2.387  16.523
  488MPD2    H7 7319   3.300   2.483  16.509
  489TMC3    C1 7320   3.050   2.523  17.175
  489TMC3    C2 7321   3.003   2.642  17.109
  489TMC3    C3 7322   2.997   2.752  17.184
  489TMC3    C4 7323   3.060   2.523  17.309
  489TMC3    C5 7324   3.057   2.644  17.375
  489TMC3    C6 7325   3.026   2.762  17.315
  489TMC3     C 7326   3.094   2.403  17.098
  489TMC3     O 7327   3.112   2.295  17.150
  489TMC3     H 7328   2.977   2.644  17.003
  489TMC3    H1 7329   3.094   2.427  17.347
  489TMC3    H2 7330   3.027   2.859  17.363
  489TMC3    C7 7331   3.115   2.660  17.502
  489TMC3    C8 7332   3.022   2.871  17.106
  489TMC3    O1 7333   3.121   2.777  17.540
  489TMC3    O2 7334   3.083   2.859  17.004
  490MPD2     C 7335   4.143   1.766  17.569
  490MPD2    C1 7336   4.136   1.700  17.687
  490MPD2    C2 7337   4.197   1.753  17.798
  490MPD2    C3 7338   4.268   1.872  17.786
  490MPD2    C4 7339   4.276   1.931  17.664
  490MPD2    C5 7340   4.218   1.881  17.552
  490MPD2     H 7341   4.190   1.698  17.892
  490MPD2    H1 7342   4.336   2.020  17.650
  490MPD2    H2 7343   4.101   1.720  17.480
  490MPD2    H3 7344   4.226   1.929  17.455
  490MPD2     N 7345   4.339   1.939  17.884
  490MPD2    H5 7346   4.391   2.024  17.863
  490MPD2    N1 7347   4.071   1.574  17.706
  490MPD2    H7 7348   4.049   1.536  17.798
  491TMC3    C1 7349   3.956   1.367  17.634
  491TMC3    C2 7350   3.971   1.306  17.760
  491TMC3    C3 7351   3.900   1.190  17.783
  491TMC3    C4 7352   3.895   1.294  17.526
  491TMC3    C5 7353   3.834   1.175  17.555
  491TMC3    C6 7354   3.836   1.120  17.683
  491TMC3     C 7355   4.034   1.493  17.602
  491TMC3     O 7356   4.056   1.511  17.482
  491TMC3     H 7357   4.029   1.348  17.841
  491TMC3    H1 7358   3.898   1.341  17.428
  491TMC3    H2 7359   3.766   1.039  17.698
  491TMC3    C7 7360   3.714   1.141  17.478
  491TMC3    C8 7361   3.912   1.143  17.917
  491TMC3    O1 7362   3.704   1.028  17.434
  491TMC3    O2 7363   3.953   1.225  17.997
  492MPD2     C 7364   4.426   1.953  11.654
  492MPD2    C1 7365   4.354   1.862  11.579
  492MPD2    C2 7366   4.278   1.768  11.639
  492MPD2    C3 7367   4.273   1.759  11.779
  492MPD2    C4 7368   4.338   1.852  11.856
  492MPD2    C5 7369   4.412   1.951  11.796
  492MPD2     H 7370   4.219   1.703  11.575
  492MPD2    H1 7371   4.323   1.851  11.964
  492MPD2    H2 7372   4.480   2.032  11.602
  492MPD2    H3 7373   4.464   2.025  11.855
  492MPD2     N 7374   4.209   1.654  11.849
  492MPD2    H5 7375   4.211   1.650  11.950
  492MPD2    N1 7376   4.355   1.897  11.440
  492MPD2    H7 7377   4.410   1.980  11.420
  493TMC3    C1 7378   4.303   1.899  11.212
  493TMC3    C2 7379   4.327   2.038  11.205
  493TMC3    C3 7380   4.285   2.100  11.088
  493TMC3    C4 7381   4.248   1.826  11.109
  493TMC3    C5 7382   4.202   1.894  10.998
  493TMC3    C6 7383   4.217   2.030  10.990
  493TMC3     C 7384   4.300   1.823  11.340
  493TMC3     O 7385   4.229   1.723  11.342
  493TMC3     H 7386   4.347   2.105  11.287
  493TMC3    H1 7387   4.268   1.720  11.111
  493TMC3    H2 7388   4.187   2.084  10.901
  493TMC3    C7 7389   4.069   1.841  10.960
  493TMC3    C8 7390   4.259   2.241  11.089
  493TMC3    O1 7391   4.031   1.851  10.843
  493TMC3    O2 7392   4.244   2.300  11.195
  494TMC3    C1 7393   4.407   3.404  18.290
  494TMC3    C2 7394   4.483   3.316  18.360
  494TMC3    C3 7395   4.603   3.273  18.316
  494TMC3    C4 7396   4.455   3.451  18.173
  494TMC3    C5 7397   4.585   3.413  18.136
  494TMC3    C6 7398   4.657   3.326  18.205
  494TMC3     C 7399   4.318   3.489  18.371
  494TMC3     O 7400   4.321   3.473  18.492
  494TMC3     H 7401   4.460   3.296  18.465
  494TMC3    H1 7402   4.386   3.502  18.107
  494TMC3    H2 7403   4.762   3.312  18.182
  494TMC3    C7 7404   4.643   3.457  18.011
  494TMC3    C8 7405   4.694   3.207  18.410
  494TMC3    O1 7406   4.722   3.384  17.951
  494TMC3    O2 7407   0.011   3.221  18.391
  495TMC3    C1 7408   3.581   0.527  14.907
  495TMC3    C2 7409   3.494   0.577  14.816
  495TMC3    C3 7410   3.378   0.641  14.870
  495TMC3    C4 7411   3.574   0.557  15.038
  495TMC3    C5 7412   3.476   0.643  15.085
  495TMC3    C6 7413   3.374   0.685  14.997
  495TMC3     C 7414   3.622   0.391  14.891
  495TMC3     O 7415   3.606   0.319  14.989
  495TMC3     H 7416   3.479   0.520  14.726
  495TMC3    H1 7417   3.657   0.524  15.100
  495TMC3    H2 7418   3.291   0.747  15.027
  495TMC3    C7 7419   3.453   0.635  15.224
  495TMC3    C8 7420   3.254   0.653  14.800
  495TMC3    O1 7421   3.556   0.610  15.286
  495TMC3    O2 7422   3.158   0.714  14.850
  496MPD2     C 7423   0.443   0.892  15.740
  496MPD2    C1 7424   0.445   0.769  15.680
  496MPD2    C2 7425   0.361   0.670  15.713
  496MPD2    C3 7426   0.258   0.703  15.804
  496MPD2    C4 7427   0.249   0.820  15.865
  496MPD2    C5 7428   0.339   0.916  15.832
  496MPD2     H 7429   0.360   0.573  15.665
  496MPD2    H1 7430   0.176   0.836  15.943
  496MPD2    H2 7431   0.526   0.957  15.718
  496MPD2    H3 7432   0.324   1.020  15.861
  496MPD2     N 7433   0.167   0.604  15.849
  496MPD2    H5 7434   0.094   0.633  15.912
  496MPD2    N1 7435   0.551   0.752  15.581
  496MPD2    H7 7436   0.627   0.818  15.592
  497TMC3    C1 7437   0.092   0.388  15.882
  497TMC3    C2 7438   0.082   0.275  15.805
  497TMC3    C3 7439   0.128   0.150  15.841
  497TMC3    C4 7440   0.148   0.372  16.005
  497TMC3    C5 7441   0.190   0.249  16.040
  497TMC3    C6 7442   0.182   0.133  15.964
  497TMC3     C 7443   0.167   0.475  15.799
  497TMC3     O 7444   0.202   0.431  15.691
  497TMC3     H 7445   0.042   0.287  15.705
  497TMC3    H1 7446   0.153   0.458  16.071
  497TMC3    H2 7447   0.211   0.034  15.996
  497TMC3    C7 7448   0.240   0.232  16.170
  497TMC3    C8 7449   0.182   0.069  15.737
  497TMC3    O1 7450   0.217   0.123  16.217
  497TMC3    O2 7451   0.192   4.751  15.751
  498MPD2     C 7452   1.298   1.777   9.892
  498MPD2    C1 7453   1.381   1.764  10.006
  498MPD2    C2 7454   1.366   1.650  10.076
  498MPD2    C3 7455   1.274   1.553  10.051
  498MPD2    C4 7456   1.193   1.571   9.937
  498MPD2    C5 7457   1.205   1.683   9.865
  498MPD2     H 7458   1.411   1.655  10.175
  498MPD2    H1 7459   1.127   1.492   9.903
  498MPD2    H2 7460   1.291   1.863   9.827
  498MPD2    H3 7461   1.144   1.695   9.776
  498MPD2     N 7462   1.239   1.453  10.152
  498MPD2    H5 7463   1.309   1.439  10.225
  498MPD2    N1 7464   1.475   1.865  10.043
  498MPD2    H7 7465   1.542   1.846  10.117
  499TMC3    C1 7466   1.602   2.058  10.035
  499TMC3    C2 7467   1.704   1.995  10.105
  499TMC3    C3 7468   1.812   2.075  10.137
  499TMC3    C4 7469   1.603   2.188   9.993
  499TMC3    C5 7470   1.713   2.267  10.030
  499TMC3    C6 7471   1.809   2.209  10.096
  499TMC3     C 7472   1.482   1.988   9.986
  499TMC3     O 7473   1.393   2.048   9.928
  499TMC3     H 7474   1.697   1.890  10.132
  499TMC3    H1 7475   1.527   2.224   9.923
  499TMC3    H2 7476   1.896   2.270  10.116
  499TMC3    C7 7477   1.717   2.418  10.022
  499TMC3    C8 7478   1.926   2.013  10.180
  499TMC3    O1 7479   1.827   2.475  10.032
  499TMC3    O2 7480   1.990   2.064  10.271
  500MPD2     C 7481   3.015   2.759  11.067
  500MPD2    C1 7482   3.039   2.793  10.939
  500MPD2    C2 7483   2.939   2.788  10.847
  500MPD2    C3 7484   2.806   2.773  10.879
  500MPD2    C4 7485   2.776   2.759  11.011
  500MPD2    C5 7486   2.881   2.744  11.106
  500MPD2     H 7487   2.972   2.796  10.744
  500MPD2    H1 7488   2.671   2.754  11.036
  500MPD2    H2 7489   3.095   2.744  11.138
  500MPD2    H3 7490   2.866   2.712  11.209
  500MPD2     N 7491   2.699   2.765  10.783
  500MPD2    H5 7492   2.605   2.781  10.817
  500MPD2    N1 7493   3.165   2.827  10.885
  500MPD2    H7 7494   3.171   2.848  10.786
  501TMC3    C1 7495   3.397   2.890  10.896
  501TMC3    C2 7496   3.400   2.930  10.765
  501TMC3    C3 7497   3.528   2.959  10.720
  501TMC3    C4 7498   3.506   2.903  10.977
  501TMC3    C5 7499   3.626   2.953  10.927
  501TMC3    C6 7500   3.646   2.976  10.792
  501TMC3     C 7501   3.265   2.863  10.961
  501TMC3     O 7502   3.270   2.874  11.084
  501TMC3     H 7503   3.313   2.915  10.703
  501TMC3    H1 7504   3.503   2.857  11.076
  501TMC3    H2 7505   3.742   2.995  10.747
  501TMC3    C7 7506   3.741   2.953  11.018
  501TMC3    C8 7507   3.542   2.954  10.575
  501TMC3    O1 7508   3.849   2.918  10.968
  501TMC3    O2 7509   3.470   2.869  10.522
  502TMC3    C1 7510   2.738   1.270  15.234
  502TMC3    C2 7511   2.712   1.391  15.172
  502TMC3    C3 7512   2.601   1.458  15.212
  502TMC3    C4 7513   2.649   1.209  15.318
  502TMC3    C5 7514   2.543   1.289  15.356
  502TMC3    C6 7515   2.507   1.404  15.296
  502TMC3     C 7516   2.878   1.269  15.279
  502TMC3     O 7517   2.974   1.252  15.200
  502TMC3     H 7518   2.788   1.431  15.106
  502TMC3    H1 7519   2.680   1.121  15.373
  502TMC3    H2 7520   2.414   1.454  15.323
  502TMC3    C7 7521   2.475   1.247  15.482
  502TMC3    C8 7522   2.633   1.599  15.234
  502TMC3    O1 7523   2.552   1.180  15.553
  502TMC3    O2 7524   2.708   1.650  15.153
  503MPD2     C 7525   0.425   2.267  17.150
  503MPD2    C1 7526   0.427   2.311  17.284
  503MPD2    C2 7527   0.445   2.216  17.388
  503MPD2    C3 7528   0.468   2.083  17.364
  503MPD2    C4 7529   0.460   2.042  17.233
  503MPD2    C5 7530   0.452   2.134  17.132
  503MPD2     H 7531   0.434   2.251  17.490
  503MPD2    H1 7532   0.467   1.940  17.196
  503MPD2    H2 7533   0.415   2.326  17.059
  503MPD2    H3 7534   0.444   2.087  17.034
  503MPD2     N 7535   0.495   1.996  17.474
  503MPD2    H5 7536   0.521   2.035  17.564
  503MPD2    N1 7537   0.403   2.445  17.316
  503MPD2    H7 7538   0.397   2.469  17.415
  504TMC3    C1 7539   0.603   1.810  17.557
  504TMC3    C2 7540   0.557   1.815  17.685
  504TMC3    C3 7541   0.642   1.764  17.780
  504TMC3    C4 7542   0.722   1.747  17.521
  504TMC3    C5 7543   0.805   1.715  17.620
  504TMC3    C6 7544   0.764   1.718  17.751
  504TMC3     C 7545   0.527   1.864  17.455
  504TMC3     O 7546   0.531   1.797  17.347
  504TMC3     H 7547   0.466   1.866  17.715
  504TMC3    H1 7548   0.746   1.741  17.415
  504TMC3    H2 7549   0.835   1.677  17.822
  504TMC3    C7 7550   0.924   1.652  17.579
  504TMC3    C8 7551   0.576   1.727  17.897
  504TMC3    O1 7552   0.963   1.704  17.476
  504TMC3    O2 7553   0.462   1.691  17.886
  505MPD2     C 7554   0.682   0.655  11.547
  505MPD2    C1 7555   0.736   0.678  11.426
  505MPD2    C2 7556   0.824   0.791  11.412
  505MPD2    C3 7557   0.871   0.854  11.528
  505MPD2    C4 7558   0.808   0.830  11.646
  505MPD2    C5 7559   0.711   0.733  11.653
  505MPD2     H 7560   0.870   0.820  11.318
  505MPD2    H1 7561   0.828   0.880  11.740
  505MPD2    H2 7562   0.615   0.571  11.554
  505MPD2    H3 7563   0.672   0.711  11.751
  505MPD2     N 7564   0.982   0.950  11.529
  505MPD2    H5 7565   1.016   0.979  11.620
  505MPD2    N1 7566   0.703   0.594  11.313
  505MPD2    H7 7567   0.662   0.504  11.334
  506TMC3    C1 7568   0.776   0.485  11.130
  506TMC3    C2 7569   0.811   0.486  10.998
  506TMC3    C3 7570   0.897   0.388  10.948
  506TMC3    C4 7571   0.844   0.396  11.214
  506TMC3    C5 7572   0.928   0.300  11.160
  506TMC3    C6 7573   0.953   0.296  11.028
  506TMC3     C 7574   0.750   0.613  11.189
  506TMC3     O 7575   0.799   0.711  11.137
  506TMC3     H 7576   0.776   0.569  10.937
  506TMC3    H1 7577   0.845   0.399  11.322
  506TMC3    H2 7578   1.031   0.228  10.995
  506TMC3    C7 7579   1.031   0.263  11.257
  506TMC3    C8 7580   0.927   0.375  10.803
  506TMC3    O1 7581   1.016   0.170  11.331
  506TMC3    O2 7582   0.969   0.269  10.760
  507TMC3    C1 7583   1.402   1.765  15.147
  507TMC3    C2 7584   1.370   1.688  15.036
  507TMC3    C3 7585   1.399   1.731  14.911
  507TMC3    C4 7586   1.465   1.881  15.126
  507TMC3    C5 7587   1.511   1.915  15.004
  507TMC3    C6 7588   1.477   1.841  14.892
  507TMC3     C 7589   1.293   1.772  15.247
  507TMC3     O 7590   1.320   1.806  15.364
  507TMC3     H 7591   1.329   1.592  15.063
  507TMC3    H1 7592   1.477   1.944  15.214
  507TMC3    H2 7593   1.513   1.881  14.798
  507TMC3    C7 7594   1.509   2.060  14.976
  507TMC3    C8 7595   1.275   1.750  14.834
  507TMC3    O1 7596   1.464   2.084  14.866
  507TMC3    O2 7597   1.172   1.739  14.898
  508MPD2     C 7598   2.340   3.820  15.735
  508MPD2    C1 7599   2.347   3.927  15.820
  508MPD2    C2 7600   2.373   4.052  15.765
  508MPD2    C3 7601   2.379   4.072  15.634
  508MPD2    C4 7602   2.374   3.963  15.550
  508MPD2    C5 7603   2.357   3.840  15.601
  508MPD2     H 7604   2.376   4.144  15.823
  508MPD2    H1 7605   2.398   3.972  15.444
  508MPD2    H2 7606   2.315   3.722  15.773
  508MPD2    H3 7607   2.357   3.752  15.538
  508MPD2     N 7608   2.392   4.207  15.583
  508MPD2    H5 7609   2.399   4.281  15.652
  508MPD2    N1 7610   2.323   3.919  15.958
  508MPD2    H7 7611   2.315   3.826  15.998
  509TMC3    C1 7612   2.254   4.575  15.471
  509TMC3    C2 7613   2.362   4.638  15.533
  509TMC3    C3 7614   2.475   4.566  15.541
  509TMC3    C4 7615   2.259   4.444  15.419
  509TMC3    C5 7616   2.376   4.378  15.433
  509TMC3    C6 7617   2.485   4.435  15.496
  509TMC3     C 7618   2.121   4.635  15.493
  509TMC3     O 7619   2.024   4.578  15.457
  509TMC3     H 7620   2.356   4.734  15.583
  509TMC3    H1 7621   2.171   4.396  15.378
  509TMC3    H2 7622   2.576   4.378  15.506
  509TMC3    C7 7623   2.352   4.239  15.457
  509TMC3    C8 7624   2.581   4.604  15.632
  509TMC3    O1 7625   2.297   4.165  15.375
  509TMC3    O2 7626   2.655   4.522  15.685
  510MPD2     C 7627   0.007   0.959  14.620
  510MPD2    C1 7628   0.065   0.939  14.745
  510MPD2    C2 7629   0.204   0.943  14.756
  510MPD2    C3 7630   0.280   0.980  14.647
  510MPD2    C4 7631   0.216   1.010  14.529
  510MPD2    C5 7632   0.080   1.000  14.512
  510MPD2     H 7633   0.242   0.926  14.855
  510MPD2    H1 7634   0.264   1.032  14.434
  510MPD2    H2 7635   4.704   0.948  14.624
  510MPD2    H3 7636   0.032   1.025  14.418
  510MPD2     N 7637   0.422   0.980  14.659
  510MPD2    H5 7638   0.463   0.922  14.731
  510MPD2    N1 7639   4.786   0.917  14.855
  510MPD2    H7 7640   4.691   0.884  14.840
  511TMC3    C1 7641   4.701   0.837  15.051
  511TMC3    C2 7642   4.677   0.854  15.181
  511TMC3    C3 7643   4.566   0.791  15.235
  511TMC3    C4 7644   4.640   0.737  14.975
  511TMC3    C5 7645   4.537   0.668  15.036
  511TMC3    C6 7646   4.494   0.690  15.168
  511TMC3     C 7647   0.017   0.895  14.987
  511TMC3     O 7648   0.121   0.911  15.049
  511TMC3     H 7649   4.736   0.920  15.244
  511TMC3    H1 7650   4.686   0.706  14.881
  511TMC3    H2 7651   4.392   0.665  15.196
  511TMC3    C7 7652   4.466   0.566  14.951
  511TMC3    C8 7653   4.528   0.818  15.370
  511TMC3    O1 7654   4.488   0.587  14.832
  511TMC3    O2 7655   4.572   0.922  15.418
  512TMC3    C1 7656   3.623   0.589  13.774
  512TMC3    C2 7657   3.724   0.523  13.830
  512TMC3    C3 7658   3.772   0.405  13.781
  512TMC3    C4 7659   3.568   0.537  13.656
  512TMC3    C5 7660   3.619   0.421  13.597
  512TMC3    C6 7661   3.728   0.361  13.656
  512TMC3     C 7662   3.634   0.731  13.783
  512TMC3     O 7663   3.742   0.778  13.802
  512TMC3     H 7664   3.774   0.564  13.917
  512TMC3    H1 7665   3.494   0.586  13.594
  512TMC3    H2 7666   3.774   0.269  13.622
  512TMC3    C7 7667   3.569   0.383  13.469
  512TMC3    C8 7668   3.889   0.349  13.843
  512TMC3    O1 7669   3.521   0.468  13.397
  512TMC3    O2 7670   3.894   0.230  13.881
  513MPD2     C 7671   0.707   4.534  13.272
  513MPD2    C1 7672   0.841   4.514  13.261
  513MPD2    C2 7673   0.920   4.582  13.351
  513MPD2    C3 7674   0.867   4.688  13.434
  513MPD2    C4 7675   0.730   4.710  13.436
  513MPD2    C5 7676   0.652   4.623  13.364
  513MPD2     H 7677   1.027   4.571  13.364
  513MPD2    H1 7678   0.686   4.777  13.509
  513MPD2    H2 7679   0.638   4.485  13.204
  513MPD2    H3 7680   0.545   4.636  13.368
  513MPD2     N 7681   0.954   4.770  13.505
  513MPD2    H5 7682   1.051   4.753  13.483
  513MPD2    N1 7683   0.899   4.426  13.165
  513MPD2    H7 7684   0.836   4.365  13.113
  514TMC3    C1 7685   1.127   4.516  13.141
  514TMC3    C2 7686   1.093   4.638  13.093
  514TMC3    C3 7687   1.198   4.723  13.051
  514TMC3    C4 7688   1.263   4.472  13.139
  514TMC3    C5 7689   1.357   4.564  13.105
  514TMC3    C6 7690   1.324   4.693  13.070
  514TMC3     C 7691   1.033   4.405  13.132
  514TMC3     O 7692   1.081   4.300  13.088
  514TMC3     H 7693   0.991   4.665  13.068
  514TMC3    H1 7694   1.287   4.373  13.176
  514TMC3    H2 7695   1.405   4.764  13.059
  514TMC3    C7 7696   1.482   4.510  13.069
  514TMC3    C8 7697   1.166   0.056  13.037
  514TMC3    O1 7698   1.467   4.418  12.988
  514TMC3    O2 7699   1.070   0.102  13.097
  515MPD2     C 7700   3.765   1.943  15.156
  515MPD2    C1 7701   3.870   1.940  15.069
  515MPD2    C2 7702   3.973   2.028  15.084
  515MPD2    C3 7703   3.970   2.125  15.182
  515MPD2    C4 7704   3.865   2.116  15.272
  515MPD2    C5 7705   3.768   2.026  15.257
  515MPD2     H 7706   4.048   2.023  15.006
  515MPD2    H1 7707   3.854   2.193  15.347
  515MPD2    H2 7708   3.675   1.882  15.152
  515MPD2    H3 7709   3.681   2.036  15.320
  515MPD2     N 7710   4.059   2.237  15.192
  515MPD2    H5 7711   4.056   2.281  15.283
  515MPD2    N1 7712   3.870   1.851  14.962
  515MPD2    H7 7713   3.940   1.871  14.891
  516TMC3    C1 7714   3.819   1.661  14.831
  516TMC3    C2 7715   3.774   1.721  14.714
  516TMC3    C3 7716   3.713   1.636  14.623
  516TMC3    C4 7717   3.802   1.527  14.856
  516TMC3    C5 7718   3.741   1.447  14.764
  516TMC3    C6 7719   3.684   1.508  14.652
  516TMC3     C 7720   3.791   1.742  14.953
  516TMC3     O 7721   3.714   1.698  15.035
  516TMC3     H 7722   3.781   1.829  14.720
  516TMC3    H1 7723   3.830   1.493  14.955
  516TMC3    H2 7724   3.650   1.439  14.576
  516TMC3    C7 7725   3.688   1.319  14.815
  516TMC3    C8 7726   3.629   1.699  14.528
  516TMC3    O1 7727   3.748   1.256  14.903
  516TMC3    O2 7728   3.520   1.655  14.505
  517MPD2     C 7729   3.279   3.647  17.719
  517MPD2    C1 7730   3.405   3.635  17.777
  517MPD2    C2 7731   3.451   3.735  17.862
  517MPD2    C3 7732   3.368   3.844  17.888
  517MPD2    C4 7733   3.245   3.857  17.825
  517MPD2    C5 7734   3.202   3.758  17.743
  517MPD2     H 7735   3.554   3.721  17.893
  517MPD2    H1 7736   3.190   3.950  17.835
  517MPD2    H2 7737   3.251   3.575  17.644
  517MPD2    H3 7738   3.113   3.774  17.683
  517MPD2     N 7739   3.410   3.946  17.985
  517MPD2    H5 7740   3.344   4.022  18.001
  517MPD2    N1 7741   3.484   3.515  17.761
  517MPD2    H7 7742   3.568   3.513  17.818
  518TMC3    C1 7743   3.566   3.312  17.669
  518TMC3    C2 7744   3.544   3.175  17.662
  518TMC3    C3 7745   3.659   3.096  17.649
  518TMC3    C4 7746   3.696   3.372  17.664
  518TMC3    C5 7747   3.803   3.288  17.650
  518TMC3    C6 7748   3.786   3.151  17.646
  518TMC3     C 7749   3.453   3.397  17.700
  518TMC3     O 7750   3.341   3.357  17.668
  518TMC3     H 7751   3.448   3.129  17.681
  518TMC3    H1 7752   3.716   3.477  17.648
  518TMC3    H2 7753   3.868   3.083  17.625
  518TMC3    C7 7754   3.933   3.344  17.676
  518TMC3    C8 7755   3.651   2.959  17.597
  518TMC3    O1 7756   3.926   3.462  17.708
  518TMC3    O2 7757   3.751   2.888  17.598
  519MPD2     C 7758   0.106   1.999  14.704
  519MPD2    C1 7759   0.120   2.000  14.566
  519MPD2    C2 7760   0.216   1.911  14.509
  519MPD2    C3 7761   0.301   1.835  14.592
  519MPD2    C4 7762   0.290   1.846  14.730
  519MPD2    C5 7763   0.189   1.926  14.780
  519MPD2     H 7764   0.213   1.897  14.401
  519MPD2    H1 7765   0.350   1.787  14.798
  519MPD2    H2 7766   0.042   2.078  14.742
  519MPD2    H3 7767   0.167   1.934  14.886
  519MPD2     N 7768   0.397   1.742  14.542
  519MPD2    H5 7769   0.457   1.696  14.610
  519MPD2    N1 7770   0.035   2.081  14.481
  519MPD2    H7 7771   4.759   2.122  14.526
  520TMC3    C1 7772   0.503   1.609  14.374
  520TMC3    C2 7773   0.483   1.574  14.239
  520TMC3    C3 7774   0.590   1.594  14.159
  520TMC3    C4 7775   0.622   1.658  14.425
  520TMC3    C5 7776   0.724   1.667  14.335
  520TMC3    C6 7777   0.716   1.629  14.203
  520TMC3     C 7778   0.395   1.693  14.414
  520TMC3     O 7779   0.317   1.716  14.322
  520TMC3     H 7780   0.384   1.549  14.202
  520TMC3    H1 7781   0.638   1.676  14.531
  520TMC3    H2 7782   0.798   1.636  14.133
  520TMC3    C7 7783   0.855   1.652  14.391
  520TMC3    C8 7784   0.560   1.615  14.018
  520TMC3    O1 7785   0.861   1.610  14.507
  520TMC3    O2 7786   0.654   1.646  13.950
  521MPD2     C 7787   1.254   0.106  17.384
  521MPD2    C1 7788   1.227   4.804  17.303
  521MPD2    C2 7789   1.329   4.763  17.222
  521MPD2    C3 7790   1.451   0.021  17.214
  521MPD2    C4 7791   1.475   0.135  17.286
  521MPD2    C5 7792   1.373   0.174  17.372
  521MPD2     H 7793   1.320   4.668  17.171
  521MPD2    H1 7794   1.573   0.181  17.294
  521MPD2    H2 7795   1.184   0.138  17.460
  521MPD2    H3 7796   1.402   0.251  17.443
  521MPD2     N 7797   1.553   4.759  17.148
  521MPD2    H5 7798   1.534   4.665  17.114
  521MPD2    N1 7799   1.105   4.740  17.318
  521MPD2    H7 7800   1.037   4.773  17.385
  522TMC3    C1 7801   1.730   4.759  17.002
  522TMC3    C2 7802   1.852   4.704  17.025
  522TMC3    C3 7803   1.882   4.588  16.960
  522TMC3    C4 7804   1.643   4.698  16.921
  522TMC3    C5 7805   1.680   4.585  16.849
  522TMC3    C6 7806   1.798   4.529  16.872
  522TMC3     C 7807   1.670   0.021  17.115
  522TMC3     O 7808   1.707   0.139  17.137
  522TMC3     H 7809   1.916   4.740  17.106
  522TMC3    H1 7810   1.545   4.741  16.906
  522TMC3    H2 7811   1.819   4.426  16.845
  522TMC3    C7 7812   1.572   4.495  16.810
  522TMC3    C8 7813   2.026   4.557  16.956
  522TMC3    O1 7814   1.596   4.377  16.841
  522TMC3    O2 7815   2.094   4.601  17.048
  523MPD2     C 7816   3.774   4.723  10.469
  523MPD2    C1 7817   3.689   4.634  10.412
  523MPD2    C2 7818   3.611   4.675  10.304
  523MPD2    C3 7819   3.604   0.007  10.264
  523MPD2    C4 7820   3.676   0.095  10.334
  523MPD2    C5 7821   3.763   0.051  10.429
  523MPD2     H 7822   3.550   4.612  10.240
  523MPD2    H1 7823   3.693   0.199  10.307
  523MPD2    H2 7824   3.845   4.697  10.546
  523MPD2    H3 7825   3.831   0.122  10.475
  523MPD2     N 7826   3.535   0.060  10.151
  523MPD2    H5 7827   3.531   0.160  10.136
  523MPD2    N1 7828   3.693   4.500  10.461
  523MPD2    H7 7829   3.757   4.486  10.539
  524TMC3    C1 7830   3.394   0.089   9.976
  524TMC3    C2 7831   3.371   0.051   9.850
  524TMC3    C3 7832   3.312   0.139   9.764
  524TMC3    C4 7833   3.379   0.222  10.019
  524TMC3    C5 7834   3.305   0.304   9.939
  524TMC3    C6 7835   3.278   0.266   9.812
  524TMC3     C 7836   3.461   4.798  10.062
  524TMC3     O 7837   3.468   4.680  10.034
  524TMC3     H 7838   3.394   4.754   9.821
  524TMC3    H1 7839   3.365   0.240  10.125
  524TMC3    H2 7840   3.256   0.342   9.737
  524TMC3    C7 7841   3.344   0.446   9.968
  524TMC3    C8 7842   3.235   0.077   9.663
  524TMC3    O1 7843   3.416   0.460  10.067
  524TMC3    O2 7844   3.253   4.763   9.647
  525MPD2     C 7845   1.565   1.294  14.969
  525MPD2    C1 7846   1.687   1.292  15.015
  525MPD2    C2 7847   1.777   1.392  14.975
  525MPD2    C3 7848   1.740   1.484  14.872
  525MPD2    C4 7849   1.610   1.476  14.835
  525MPD2    C5 7850   1.521   1.392  14.891
  525MPD2     H 7851   1.880   1.387  15.008
  525MPD2    H1 7852   1.573   1.542  14.758
  525MPD2    H2 7853   1.495   1.216  14.998
  525MPD2    H3 7854   1.425   1.378  14.841
  525MPD2     N 7855   1.811   1.596  14.836
  525MPD2    H5 7856   1.762   1.667  14.783
  525MPD2    N1 7857   1.732   1.197  15.108
  525MPD2    H7 7858   1.818   1.216  15.158
  526TMC3    C1 7859   1.726   1.024  15.267
  526TMC3    C2 7860   1.646   0.988  15.376
  526TMC3    C3 7861   1.707   0.953  15.493
  526TMC3    C4 7862   1.859   1.022  15.270
  526TMC3    C5 7863   1.914   0.991  15.391
  526TMC3    C6 7864   1.841   0.960  15.500
  526TMC3     C 7865   1.663   1.079  15.148
  526TMC3     O 7866   1.559   1.035  15.109
  526TMC3     H 7867   1.540   0.985  15.357
  526TMC3    H1 7868   1.915   1.032  15.178
  526TMC3    H2 7869   1.884   0.930  15.595
  526TMC3    C7 7870   2.061   0.981  15.401
  526TMC3    C8 7871   1.643   0.978  15.625
  526TMC3    O1 7872   2.104   0.958  15.518
  526TMC3    O2 7873   1.701   0.946  15.725
  527MPD2     C 7874   4.610   4.241  19.558
  527MPD2    C1 7875   4.577   4.281  19.436
  527MPD2    C2 7876   4.662   4.247  19.333
  527MPD2    C3 7877   4.764   4.153  19.358
  527MPD2    C4 7878   4.784   4.109  19.488
  527MPD2    C5 7879   4.723   4.179  19.591
  527MPD2     H 7880   4.648   4.278  19.230
  527MPD2    H1 7881   0.069   4.052  19.513
  527MPD2    H2 7882   4.569   4.283  19.650
  527MPD2    H3 7883   4.734   4.163  19.697
  527MPD2     N 7884   0.042   4.106  19.244
  527MPD2    H5 7885   0.032   4.155  19.156
  527MPD2    N1 7886   4.465   4.356  19.405
  527MPD2    H7 7887   4.460   4.375  19.305
  528TMC3    C1 7888   4.268   4.492  19.414
  528TMC3    C2 7889   4.162   4.539  19.483
  528TMC3    C3 7890   4.060   4.593  19.418
  528TMC3    C4 7891   4.279   4.505  19.278
  528TMC3    C5 7892   4.164   4.548  19.209
  528TMC3    C6 7893   4.054   4.597  19.282
  528TMC3     C 7894   4.370   4.412  19.488
  528TMC3     O 7895   4.352   4.392  19.606
  528TMC3     H 7896   4.153   4.538  19.591
  528TMC3    H1 7897   4.367   4.470  19.225
  528TMC3    H2 7898   3.961   4.624  19.233
  528TMC3    C7 7899   4.175   4.575  19.064
  528TMC3    C8 7900   3.961   4.661  19.504
  528TMC3    O1 7901   4.125   4.678  19.016
  528TMC3    O2 7902   3.898   4.597  19.589
  529MPD2     C 7903   1.937   2.758  18.920
  529MPD2    C1 7904   1.976   2.685  18.809
  529MPD2    C2 7905   1.937   2.729  18.684
  529MPD2    C3 7906   1.854   2.836  18.672
  529MPD2    C4 7907   1.803   2.897  18.788
  529MPD2    C5 7908   1.842   2.856  18.913
  529MPD2     H 7909   1.964   2.678  18.592
  529MPD2    H1 7910   1.742   2.986  18.784
  529MPD2    H2 7911   1.963   2.734  19.022
  529MPD2    H3 7912   1.819   2.907  19.006
  529MPD2     N 7913   1.820   2.891  18.546
  529MPD2    H5 7914   1.758   2.971  18.546
  529MPD2    N1 7915   2.067   2.575  18.818
  529MPD2    H7 7916   2.124   2.556  18.737
  530TMC3    C1 7917   2.171   2.391  18.925
  530TMC3    C2 7918   2.255   2.367  19.029
  530TMC3    C3 7919   2.350   2.269  19.014
  530TMC3    C4 7920   2.184   2.326  18.809
  530TMC3    C5 7921   2.285   2.237  18.795
  530TMC3    C6 7922   2.369   2.210  18.895
  530TMC3     C 7923   2.083   2.503  18.940
  530TMC3     O 7924   2.040   2.524  19.053
  530TMC3     H 7925   2.233   2.408  19.127
  530TMC3    H1 7926   2.107   2.329  18.733
  530TMC3    H2 7927   2.446   2.135  18.879
  530TMC3    C7 7928   2.246   2.112  18.755
  530TMC3    C8 7929   2.345   2.172  19.127
  530TMC3    O1 7930   2.331   2.041  18.706
  530TMC3    O2 7931   2.242   2.161  19.196
  531MPD2     C 7932   1.687   0.101  13.340
  531MPD2    C1 7933   1.573   0.032  13.360
  531MPD2    C2 7934   1.544   4.721  13.289
  531MPD2    C3 7935   1.626   4.690  13.185
  531MPD2    C4 7936   1.748   4.756  13.163
  531MPD2    C5 7937   1.772   0.057  13.249
  531MPD2     H 7938   1.458   4.662  13.320
  531MPD2    H1 7939   1.806   4.744  13.072
  531MPD2    H2 7940   1.709   0.194  13.390
  531MPD2    H3 7941   1.856   0.121  13.223
  531MPD2     N 7942   1.597   4.594  13.090
  531MPD2    H5 7943   1.676   4.589  13.026
  531MPD2    N1 7944   1.487   0.077  13.460
  531MPD2    H7 7945   1.516   0.143  13.532
  532TMC3    C1 7946   1.270   0.111  13.553
  532TMC3    C2 7947   1.137   0.126  13.513
  532TMC3    C3 7948   1.053   0.139  13.618
  532TMC3    C4 7949   1.315   0.107  13.679
  532TMC3    C5 7950   1.219   0.128  13.771
  532TMC3    C6 7951   1.088   0.140  13.748
  532TMC3     C 7952   1.351   0.046  13.449
  532TMC3     O 7953   1.288   4.785  13.368
  532TMC3     H 7954   1.106   0.130  13.409
  532TMC3    H1 7955   1.419   0.086  13.704
  532TMC3    H2 7956   1.024   0.166  13.831
  532TMC3    C7 7957   1.263   0.159  13.904
  532TMC3    C8 7958   0.926   0.073  13.585
  532TMC3    O1 7959   1.209   0.248  13.962
  532TMC3    O2 7960   0.816   0.100  13.634
  533TMC3    C1 7961   1.980   1.753  14.824
  533TMC3    C2 7962   2.104   1.789  14.854
  533TMC3    C3 7963   2.132   1.908  14.915
  533TMC3    C4 7964   1.885   1.848  14.857
  533TMC3    C5 7965   1.917   1.956  14.940
  533TMC3    C6 7966   2.040   1.994  14.966
  533TMC3     C 7967   1.946   1.622  14.862
  533TMC3     O 7968   2.028   1.550  14.912
  533TMC3     H 7969   2.179   1.712  14.843
  533TMC3    H1 7970   1.781   1.832  14.829
  533TMC3    H2 7971   2.069   2.084  15.019
  533TMC3    C7 7972   1.832   1.939  15.056
  533TMC3    C8 7973   2.274   1.950  14.930
  533TMC3    O1 7974   1.790   1.824  15.072
  533TMC3    O2 7975   2.294   2.060  14.985
  534MPD2     C 7976   0.022   2.583  19.186
  534MPD2    C1 7977   4.710   2.651  19.220
  534MPD2    C2 7978   4.587   2.590  19.204
  534MPD2    C3 7979   4.578   2.450  19.184
  534MPD2    C4 7980   4.692   2.379  19.171
  534MPD2    C5 7981   0.004   2.449  19.152
  534MPD2     H 7982   4.498   2.643  19.235
  534MPD2    H1 7983   4.694   2.272  19.155
  534MPD2    H2 7984   0.124   2.619  19.191
  534MPD2    H3 7985   0.095   2.391  19.142
  534MPD2     N 7986   4.451   2.383  19.161
  534MPD2    H5 7987   4.450   2.282  19.153
  534MPD2    N1 7988   4.702   2.780  19.264
  534MPD2    H7 7989   4.613   2.820  19.290
  535TMC3    C1 7990   4.227   2.345  19.136
  535TMC3    C2 7991   4.108   2.357  19.192
  535TMC3    C3 7992   4.000   2.338  19.114
  535TMC3    C4 7993   4.243   2.300  19.006
  535TMC3    C5 7994   4.131   2.286  18.935
  535TMC3    C6 7995   4.013   2.313  18.982
  535TMC3     C 7996   4.330   2.430  19.189
  535TMC3     O 7997   4.300   2.528  19.254
  535TMC3     H 7998   4.113   2.395  19.293
  535TMC3    H1 7999   4.336   2.303  18.950
  535TMC3    H2 8000   3.924   2.313  18.921
  535TMC3    C7 8001   4.153   2.282  18.792
  535TMC3    C8 8002   3.871   2.364  19.168
  535TMC3    O1 8003   4.241   2.210  18.744
  535TMC3    O2 8004   3.779   2.312  19.104
  536MPD2     C 8005   3.507   1.260  16.606
  536MPD2    C1 8006   3.398   1.176  16.589
  536MPD2    C2 8007   3.293   1.201  16.495
  536MPD2    C3 8008   3.314   1.320  16.422
  536MPD2    C4 8009   3.433   1.395  16.432
  536MPD2    C5 8010   3.524   1.370  16.525
  536MPD2     H 8011   3.199   1.148  16.483
  536MPD2    H1 8012   3.453   1.481  16.369
  536MPD2    H2 8013   3.580   1.234  16.681
  536MPD2    H3 8014   3.615   1.427  16.539
  536MPD2     N 8015   3.220   1.368  16.326
  536MPD2    H5 8016   3.243   1.455  16.280
  536MPD2    N1 8017   3.375   1.077  16.683
  536MPD2    H7 8018   3.446   1.069  16.756
  537TMC3    C1 8019   3.263   0.911  16.806
  537TMC3    C2 8020   3.270   0.978  16.927
  537TMC3    C3 8021   3.268   0.897  17.043
  537TMC3    C4 8022   3.219   0.783  16.795
  537TMC3    C5 8023   3.227   0.704  16.905
  537TMC3    C6 8024   3.250   0.759  17.027
  537TMC3     C 8025   3.280   0.982  16.679
  537TMC3     O 8026   3.190   0.958  16.600
  537TMC3     H 8027   3.274   1.086  16.927
  537TMC3    H1 8028   3.179   0.745  16.702
  537TMC3    H2 8029   3.286   0.701  17.112
  537TMC3    C7 8030   3.174   0.573  16.880
  537TMC3    C8 8031   3.315   0.962  17.166
  537TMC3    O1 8032   3.167   0.527  16.768
  537TMC3    O2 8033   3.377   0.889  17.237
  538TMC3    C1 8034   4.305   4.095  11.294
  538TMC3    C2 8035   4.413   4.028  11.243
  538TMC3    C3 8036   4.442   4.055  11.114
  538TMC3    C4 8037   4.222   4.166  11.219
  538TMC3    C5 8038   4.260   4.192  11.087
  538TMC3    C6 8039   4.372   4.142  11.029
  538TMC3     C 8040   4.275   4.091  11.434
  538TMC3     O 8041   4.165   4.127  11.462
  538TMC3     H 8042   4.456   3.939  11.289
  538TMC3    H1 8043   4.138   4.223  11.257
  538TMC3    H2 8044   4.386   4.159  10.923
  538TMC3    C7 8045   4.191   4.300  11.022
  538TMC3    C8 8046   4.550   3.985  11.054
  538TMC3    O1 8047   4.085   4.325  11.075
  538TMC3    O2 8048   4.569   3.867  11.084
  539MPD2     C 8049   3.921   3.652  12.206
  539MPD2    C1 8050   3.950   3.652  12.068
  539MPD2    C2 8051   3.926   3.760  11.988
  539MPD2    C3 8052   3.886   3.874  12.046
  539MPD2    C4 8053   3.863   3.883  12.184
  539MPD2    C5 8054   3.879   3.768  12.264
  539MPD2     H 8055   3.945   3.750  11.882
  539MPD2    H1 8056   3.822   3.975  12.226
  539MPD2    H2 8057   3.935   3.572  12.277
  539MPD2    H3 8058   3.864   3.778  12.371
  539MPD2     N 8059   3.882   3.998  11.966
  539MPD2    H5 8060   3.862   4.081  12.020
  539MPD2    N1 8061   4.009   3.541  12.005
  539MPD2    H7 8062   4.036   3.558  11.909
  540TMC3    C1 8063   3.923   4.157  11.793
  540TMC3    C2 8064   3.939   4.181  11.660
  540TMC3    C3 8065   3.924   4.312  11.617
  540TMC3    C4 8066   3.882   4.259  11.871
  540TMC3    C5 8067   3.845   4.384  11.817
  540TMC3    C6 8068   3.864   4.411  11.683
  540TMC3     C 8069   3.926   4.020  11.842
  540TMC3     O 8070   3.959   3.937  11.759
  540TMC3     H 8071   3.958   4.104  11.587
  540TMC3    H1 8072   3.876   4.255  11.979
  540TMC3    H2 8073   3.834   4.504  11.637
  540TMC3    C7 8074   3.756   4.468  11.892
  540TMC3    C8 8075   3.892   4.327  11.485
  540TMC3    O1 8076   3.664   4.406  11.949
  540TMC3    O2 8077   3.963   4.406  11.425
  541MPD2     C 8078   2.978   0.471  13.639
  541MPD2    C1 8079   2.843   0.446  13.635
  541MPD2    C2 8080   2.771   0.487  13.524
  541MPD2    C3 8081   2.838   0.554  13.423
  541MPD2    C4 8082   2.968   0.588  13.433
  541MPD2    C5 8083   3.042   0.542  13.541
  541MPD2     H 8084   2.666   0.471  13.507
  541MPD2    H1 8085   3.001   0.656  13.355
  541MPD2    H2 8086   3.031   0.433  13.726
  541MPD2    H3 8087   3.150   0.545  13.550
  541MPD2     N 8088   2.780   0.582  13.299
  541MPD2    H5 8089   2.820   0.662  13.252
  541MPD2    N1 8090   2.782   0.363  13.728
  541MPD2    H7 8091   2.841   0.291  13.767
  542TMC3    C1 8092   2.613   0.584  13.134
  542TMC3    C2 8093   2.553   0.507  13.040
  542TMC3    C3 8094   2.500   0.570  12.927
  542TMC3    C4 8095   2.610   0.720  13.135
  542TMC3    C5 8096   2.552   0.780  13.025
  542TMC3    C6 8097   2.506   0.704  12.917
  542TMC3     C 8098   2.664   0.524  13.255
  542TMC3     O 8099   2.611   0.418  13.295
  542TMC3     H 8100   2.554   0.398  13.048
  542TMC3    H1 8101   2.651   0.779  13.217
  542TMC3    H2 8102   2.459   0.753  12.832
  542TMC3    C7 8103   2.535   0.927  13.030
  542TMC3    C8 8104   2.553   0.503  12.805
  542TMC3    O1 8105   2.504   0.981  13.136
  542TMC3    O2 8106   2.642   0.566  12.746
  543TMC3    C1 8107   2.039   1.750  17.845
  543TMC3    C2 8108   2.079   1.626  17.889
  543TMC3    C3 8109   2.018   1.565  17.990
  543TMC3    C4 8110   1.948   1.831  17.910
  543TMC3    C5 8111   1.900   1.771  18.027
  543TMC3    C6 8112   1.931   1.641  18.058
  543TMC3     C 8113   2.074   1.775  17.711
  543TMC3     O 8114   2.105   1.680  17.642
  543TMC3     H 8115   2.162   1.574  17.843
  543TMC3    H1 8116   1.906   1.926  17.879
  543TMC3    H2 8117   1.891   1.591  18.145
  543TMC3    C7 8118   1.811   1.848  18.111
  543TMC3    C8 8119   2.000   1.424  17.972
  543TMC3    O1 8120   1.741   1.790  18.194
  543TMC3    O2 8121   2.071   1.369  17.891
  544MPD2     C 8122   1.740   0.987  18.057
  544MPD2    C1 8123   1.827   1.022  17.960
  544MPD2    C2 8124   1.892   1.145  17.957
  544MPD2    C3 8125   1.856   1.236  18.055
  544MPD2    C4 8126   1.763   1.207  18.157
  544MPD2    C5 8127   1.714   1.078  18.160
  544MPD2     H 8128   1.964   1.173  17.881
  544MPD2    H1 8129   1.735   1.279  18.233
  544MPD2    H2 8130   1.680   0.897  18.051
  544MPD2    H3 8131   1.637   1.054  18.232
  544MPD2     N 8132   1.901   1.374  18.053
  544MPD2    H5 8133   1.844   1.433  18.114
  544MPD2    N1 8134   1.845   0.925  17.865
  544MPD2    H7 8135   1.798   0.837  17.887
  545TMC3    C1 8136   1.884   0.835  17.644
  545TMC3    C2 8137   1.969   0.837  17.534
  545TMC3    C3 8138   1.976   0.720  17.457
  545TMC3    C4 8139   1.799   0.726  17.672
  545TMC3    C5 8140   1.799   0.623  17.582
  545TMC3    C6 8141   1.884   0.617  17.477
  545TMC3     C 8142   1.909   0.942  17.742
  545TMC3     O 8143   1.985   1.033  17.707
  545TMC3     H 8144   2.026   0.927  17.514
  545TMC3    H1 8145   1.731   0.728  17.756
  545TMC3    H2 8146   1.879   0.535  17.406
  545TMC3    C7 8147   1.730   0.507  17.621
  545TMC3    C8 8148   2.046   0.709  17.332
  545TMC3    O1 8149   1.633   0.525  17.693
  545TMC3    O2 8150   2.061   0.597  17.279
  546MPD2     C 8151   3.548   1.492  17.819
  546MPD2    C1 8152   3.445   1.548  17.750
  546MPD2    C2 8153   3.469   1.659  17.671
  546MPD2    C3 8154   3.595   1.718  17.675
  546MPD2    C4 8155   3.700   1.652  17.738
  546MPD2    C5 8156   3.675   1.546  17.815
  546MPD2     H 8157   3.385   1.707  17.623
  546MPD2    H1 8158   3.798   1.699  17.730
  546MPD2    H2 8159   3.539   1.401  17.878
  546MPD2    H3 8160   3.752   1.506  17.880
  546MPD2     N 8161   3.634   1.826  17.591
  546MPD2    H5 8162   3.720   1.872  17.617
  546MPD2    N1 8163   3.322   1.472  17.745
  546MPD2    H7 8164   3.325   1.391  17.806
  547TMC3    C1 8165   3.114   1.389  17.668
  547TMC3    C2 8166   3.029   1.397  17.560
  547TMC3    C3 8167   2.952   1.283  17.544
  547TMC3    C4 8168   3.130   1.283  17.757
  547TMC3    C5 8169   3.053   1.176  17.730
  547TMC3    C6 8170   2.963   1.170  17.622
  547TMC3     C 8171   3.204   1.503  17.680
  547TMC3     O 8172   3.171   1.596  17.617
  547TMC3     H 8173   3.026   1.478  17.487
  547TMC3    H1 8174   3.177   1.286  17.854
  547TMC3    H2 8175   2.888   1.092  17.621
  547TMC3    C7 8176   3.044   1.077  17.833
  547TMC3    C8 8177   2.854   1.299  17.437
  547TMC3    O1 8178   3.050   1.117  17.948
  547TMC3    O2 8179   2.858   1.405  17.375
  548MPD2     C 8180   3.047   2.490  12.801
  548MPD2    C1 8181   3.025   2.390  12.897
  548MPD2    C2 8182   3.115   2.284  12.890
  548MPD2    C3 8183   3.212   2.269  12.788
  548MPD2    C4 8184   3.226   2.369  12.697
  548MPD2    C5 8185   3.150   2.487  12.708
  548MPD2     H 8186   3.110   2.215  12.973
  548MPD2    H1 8187   3.307   2.380  12.627
  548MPD2    H2 8188   2.983   2.577  12.788
  548MPD2    H3 8189   3.171   2.560  12.631
  548MPD2     N 8190   3.287   2.148  12.790
  548MPD2    H5 8191   3.264   2.088  12.869
  548MPD2    N1 8192   2.914   2.399  12.988
  548MPD2    H7 8193   2.853   2.476  12.963
  549TMC3    C1 8194   2.740   2.298  13.123
  549TMC3    C2 8195   2.653   2.372  13.057
  549TMC3    C3 8196   2.525   2.373  13.099
  549TMC3    C4 8197   2.701   2.206  13.216
  549TMC3    C5 8198   2.566   2.198  13.240
  549TMC3    C6 8199   2.472   2.282  13.188
  549TMC3     C 8200   2.883   2.309  13.086
  549TMC3     O 8201   2.955   2.222  13.135
  549TMC3     H 8202   2.682   2.438  12.977
  549TMC3    H1 8203   2.771   2.137  13.262
  549TMC3    H2 8204   2.365   2.268  13.199
  549TMC3    C7 8205   2.519   2.065  13.263
  549TMC3    C8 8206   2.430   2.453  13.019
  549TMC3    O1 8207   2.416   2.056  13.324
  549TMC3    O2 8208   2.317   2.413  12.999
  550TMC3    C1 8209   2.102   0.634  12.711
  550TMC3    C2 8210   2.050   0.595  12.830
  550TMC3    C3 8211   1.937   0.665  12.870
  550TMC3    C4 8212   2.049   0.732  12.635
  550TMC3    C5 8213   1.937   0.797  12.685
  550TMC3    C6 8214   1.879   0.760  12.800
  550TMC3     C 8215   2.158   0.520  12.634
  550TMC3     O 8216   2.221   0.434  12.691
  550TMC3     H 8217   2.092   0.519  12.895
  550TMC3    H1 8218   2.104   0.776  12.552
  550TMC3    H2 8219   1.785   0.804  12.830
  550TMC3    C7 8220   1.827   0.783  12.587
  550TMC3    C8 8221   1.876   0.649  13.004
  550TMC3    O1 8222   1.738   0.702  12.617
  550TMC3    O2 8223   1.846   0.750  13.065
  551TMC3    C1 8224   4.392   2.761  13.552
  551TMC3    C2 8225   4.505   2.756  13.475
  551TMC3    C3 8226   4.613   2.824  13.520
  551TMC3    C4 8227   4.385   2.834  13.666
  551TMC3    C5 8228   4.485   2.915  13.695
  551TMC3    C6 8229   4.600   2.907  13.629
  551TMC3     C 8230   4.273   2.757  13.466
  551TMC3     O 8231   4.265   2.661  13.390
  551TMC3     H 8232   4.516   2.705  13.380
  551TMC3    H1 8233   4.293   2.835  13.723
  551TMC3    H2 8234   4.684   2.960  13.673
  551TMC3    C7 8235   4.498   2.956  13.838
  551TMC3    C8 8236   4.722   2.834  13.430
  551TMC3    O1 8237   4.427   2.885  13.915
  551TMC3    O2 8238   4.747   2.729  13.373
  552MPD2     C 8239   1.246   0.053  14.262
  552MPD2    C1 8240   1.234   4.728  14.300
  552MPD2    C2 8241   1.301   4.676  14.405
  552MPD2    C3 8242   1.401   4.756  14.457
  552MPD2    C4 8243   1.428   0.076  14.398
  552MPD2    C5 8244   1.345   0.130  14.309
  552MPD2     H 8245   1.288   4.573  14.435
  552MPD2    H1 8246   1.516   0.131  14.429
  552MPD2    H2 8247   1.189   0.091  14.178
  552MPD2    H3 8248   1.373   0.224  14.263
  552MPD2     N 8249   1.473   4.726  14.574
  552MPD2    H5 8250   1.552   4.785  14.600
  552MPD2    N1 8251   1.147   4.642  14.230
  552MPD2    H7 8252   1.155   4.541  14.244
  553TMC3    C1 8253   0.986   4.556  14.063
  553TMC3    C2 8254   0.984   4.578  13.927
  553TMC3    C3 8255   1.013   4.475  13.837
  553TMC3    C4 8256   1.033   4.433  14.102
  553TMC3    C5 8257   1.052   4.329  14.011
  553TMC3    C6 8258   1.043   4.352  13.876
  553TMC3     C 8259   1.047   4.674  14.136
  553TMC3     O 8260   1.002   4.783  14.101
  553TMC3     H 8261   0.954   4.677  13.896
  553TMC3    H1 8262   1.042   4.410  14.207
  553TMC3    H2 8263   1.093   4.284  13.807
  553TMC3    C7 8264   1.121   4.212  14.058
  553TMC3    C8 8265   1.108   4.520  13.737
  553TMC3    O1 8266   1.070   4.108  14.026
  553TMC3    O2 8267   1.182   4.601  13.792
  554TMC3    C1 8268   2.986   4.187  11.801
  554TMC3    C2 8269   2.898   4.144  11.706
  554TMC3    C3 8270   2.946   4.069  11.606
  554TMC3    C4 8271   3.115   4.180  11.783
  554TMC3    C5 8272   3.167   4.113  11.676
  554TMC3    C6 8273   3.079   4.056  11.587
  554TMC3     C 8274   2.946   4.168  11.939
  554TMC3     O 8275   2.840   4.211  11.979
  554TMC3     H 8276   2.795   4.166  11.732
  554TMC3    H1 8277   3.178   4.228  11.857
  554TMC3    H2 8278   3.112   4.025  11.488
  554TMC3    C7 8279   3.288   4.169  11.619
  554TMC3    C8 8280   2.865   4.079  11.484
  554TMC3    O1 8281   3.319   4.110  11.518
  554TMC3    O2 8282   2.923   4.121  11.380
  555TMC3    C1 8283   2.053   3.235  15.065
  555TMC3    C2 8284   2.027   3.343  15.143
  555TMC3    C3 8285   2.064   3.325  15.272
  555TMC3    C4 8286   2.107   3.116  15.113
  555TMC3    C5 8287   2.130   3.104  15.246
  555TMC3    C6 8288   2.110   3.208  15.337
  555TMC3     C 8289   2.045   3.245  14.926
  555TMC3     O 8290   2.119   3.169  14.865
  555TMC3     H 8291   1.995   3.437  15.101
  555TMC3    H1 8292   2.121   3.026  15.053
  555TMC3    H2 8293   2.108   3.190  15.444
  555TMC3    C7 8294   2.177   2.978  15.304
  555TMC3    C8 8295   2.055   3.442  15.359
  555TMC3    O1 8296   2.153   2.866  15.261
  555TMC3    O2 8297   1.969   3.526  15.339
  556MPD2     C 8298   0.459   0.326  11.131
  556MPD2    C1 8299   0.453   0.201  11.186
  556MPD2    C2 8300   0.410   0.101  11.103
  556MPD2    C3 8301   0.400   0.116  10.968
  556MPD2    C4 8302   0.396   0.245  10.917
  556MPD2    C5 8303   0.435   0.346  11.000
  556MPD2     H 8304   0.405   0.003  11.149
  556MPD2    H1 8305   0.376   0.272  10.814
  556MPD2    H2 8306   0.471   0.418  11.187
  556MPD2    H3 8307   0.442   0.448  10.963
  556MPD2     N 8308   0.382   0.000  10.889
  556MPD2    H5 8309   0.396   4.713  10.930
  556MPD2    N1 8310   0.468   0.175  11.323
  556MPD2    H7 8311   0.445   0.082  11.356
  557TMC3    C1 8312   0.343   4.672  10.700
  557TMC3    C2 8313   0.379   4.658  10.572
  557TMC3    C3 8314   0.340   4.541  10.510
  557TMC3    C4 8315   0.273   4.580  10.771
  557TMC3    C5 8316   0.235   4.467  10.705
  557TMC3    C6 8317   0.260   4.450  10.574
  557TMC3     C 8318   0.369   4.804  10.751
  557TMC3     O 8319   0.355   0.087  10.672
  557TMC3     H 8320   0.439   4.731  10.520
  557TMC3    H1 8321   0.253   4.593  10.877
  557TMC3    H2 8322   0.196   4.383  10.518
  557TMC3    C7 8323   0.175   4.357  10.782
  557TMC3    C8 8324   0.337   4.543  10.366
  557TMC3    O1 8325   0.140   4.391  10.892
  557TMC3    O2 8326   0.350   4.654  10.308
  558TMC3    C1 8327   2.582   2.790  10.584
  558TMC3    C2 8328   2.465   2.749  10.647
  558TMC3    C3 8329   2.348   2.766  10.579
  558TMC3    C4 8330   2.582   2.852  10.460
  558TMC3    C5 8331   2.460   2.876  10.405
  558TMC3    C6 8332   2.340   2.832  10.461
  558TMC3     C 8333   2.713   2.784  10.649
  558TMC3     O 8334   2.815   2.772  10.578
  558TMC3     H 8335   2.468   2.681  10.732
  558TMC3    H1 8336   2.677   2.878  10.413
  558TMC3    H2 8337   2.246   2.877  10.431
  558TMC3    C7 8338   2.452   2.987  10.312
  558TMC3    C8 8339   2.222   2.756  10.650
  558TMC3    O1 8340   2.557   3.054  10.307
  558TMC3    O2 8341   2.108   2.760  10.601
  559MPD2     C 8342   2.725   3.857  11.022
  559MPD2    C1 8343   2.626   3.808  11.109
  559MPD2    C2 8344   2.664   3.769  11.236
  559MPD2    C3 8345   2.801   3.779  11.265
  559MPD2    C4 8346   2.893   3.841  11.184
  559MPD2    C5 8347   2.855   3.880  11.062
  559MPD2     H 8348   2.591   3.739  11.310
  559MPD2    H1 8349   2.997   3.853  11.213
  559MPD2    H2 8350   2.707   3.886  10.919
  559MPD2    H3 8351   2.921   3.922  10.986
  559MPD2     N 8352   2.840   3.722  11.389
  559MPD2    H5 8353   2.765   3.687  11.448
  559MPD2    N1 8354   2.491   3.807  11.064
  559MPD2    H7 8355   2.481   3.846  10.970
  560TMC3    C1 8356   2.968   3.627  11.564
  560TMC3    C2 8357   2.862   3.539  11.587
  560TMC3    C3 8358   2.881   3.438  11.673
  560TMC3    C4 8359   3.094   3.611  11.626
  560TMC3    C5 8360   3.105   3.499  11.709
  560TMC3    C6 8361   3.002   3.414  11.731
  560TMC3     C 8362   2.969   3.720  11.446
  560TMC3     O 8363   3.068   3.785  11.420
  560TMC3     H 8364   2.767   3.541  11.535
  560TMC3    H1 8365   3.168   3.689  11.613
  560TMC3    H2 8366   3.023   3.327  11.793
  560TMC3    C7 8367   3.236   3.452  11.758
  560TMC3    C8 8368   2.809   3.324  11.628
  560TMC3    O1 8369   3.233   3.362  11.841
  560TMC3    O2 8370   2.693   3.330  11.594
  561TMC3    C1 8371   0.884   2.626  11.245
  561TMC3    C2 8372   0.801   2.517  11.277
  561TMC3    C3 8373   0.708   2.545  11.366
  561TMC3    C4 8374   0.868   2.751  11.291
  561TMC3    C5 8375   0.765   2.770  11.378
  561TMC3    C6 8376   0.691   2.665  11.429
  561TMC3     C 8377   1.002   2.586  11.172
  561TMC3     O 8378   0.994   2.487  11.097
  561TMC3     H 8379   0.812   2.416  11.240
  561TMC3    H1 8380   0.932   2.829  11.252
  561TMC3    H2 8381   0.607   2.677  11.496
  561TMC3    C7 8382   0.732   2.899  11.434
  561TMC3    C8 8383   0.670   2.432  11.449
  561TMC3    O1 8384   0.693   2.895  11.550
  561TMC3    O2 8385   0.720   2.327  11.417
  562TMC3    C1 8386   2.115   3.887  16.723
  562TMC3    C2 8387   2.056   4.006  16.695
  562TMC3    C3 8388   1.950   4.005  16.609
  562TMC3    C4 8389   2.066   3.767  16.671
  562TMC3    C5 8390   1.947   3.769  16.601
  562TMC3    C6 8391   1.888   3.887  16.566
  562TMC3     C 8392   2.240   3.871  16.799
  562TMC3     O 8393   2.326   3.784  16.769
  562TMC3     H 8394   2.086   4.097  16.745
  562TMC3    H1 8395   2.118   3.679  16.705
  562TMC3    H2 8396   1.806   3.881  16.495
  562TMC3    C7 8397   1.893   3.648  16.543
  562TMC3    C8 8398   1.891   4.136  16.590
  562TMC3    O1 8399   1.816   3.662  16.451
  562TMC3    O2 8400   1.863   4.199  16.690
  563MPD2     C 8401   4.179   0.155  15.713
  563MPD2    C1 8402   4.216   0.186  15.842
  563MPD2    C2 8403   4.335   0.138  15.894
  563MPD2    C3 8404   4.407   0.043  15.822
  563MPD2    C4 8405   4.366   0.010  15.696
  563MPD2    C5 8406   4.254   0.063  15.642
  563MPD2     H 8407   4.368   0.163  15.994
  563MPD2    H1 8408   4.414   4.735  15.639
  563MPD2    H2 8409   4.076   0.167  15.682
  563MPD2    H3 8410   4.212   0.024  15.550
  563MPD2     N 8411   4.520   4.798  15.884
  563MPD2    H5 8412   4.522   0.020  15.982
  563MPD2    N1 8413   4.120   0.256  15.924
  563MPD2    H7 8414   4.026   0.271  15.888
  564TMC3    C1 8415   4.102   0.291  16.145
  564TMC3    C2 8416   3.986   0.223  16.144
  564TMC3    C3 8417   3.971   0.129  16.243
  564TMC3    C4 8418   4.194   0.278  16.245
  564TMC3    C5 8419   4.172   0.178  16.336
  564TMC3    C6 8420   4.053   0.112  16.349
  564TMC3     C 8421   4.159   0.345  16.019
  564TMC3     O 8422   4.270   0.395  16.029
  564TMC3     H 8423   3.912   0.237  16.066
  564TMC3    H1 8424   4.288   0.329  16.228
  564TMC3    H2 8425   4.049   0.022  16.409
  564TMC3    C7 8426   4.280   0.080  16.348
  564TMC3    C8 8427   3.930   4.803  16.196
  564TMC3    O1 8428   4.360   0.088  16.438
  564TMC3    O2 8429   3.886   4.714  16.273
  565TMC3    C1 8430   0.238   1.840  10.650
  565TMC3    C2 8431   0.251   1.748  10.755
  565TMC3    C3 8432   0.155   1.650  10.754
  565TMC3    C4 8433   0.139   1.841  10.554
  565TMC3    C5 8434   0.050   1.738  10.560
  565TMC3    C6 8435   0.058   1.640  10.657
  565TMC3     C 8436   0.312   1.959  10.651
  565TMC3     O 8437   0.315   2.020  10.546
  565TMC3     H 8438   0.319   1.748  10.839
  565TMC3    H1 8439   0.125   1.912  10.473
  565TMC3    H2 8440   4.787   1.563  10.668
  565TMC3    C7 8441   4.766   1.707  10.447
  565TMC3    C8 8442   0.173   1.536  10.851
  565TMC3    O1 8443   4.797   1.759  10.346
  565TMC3    O2 8444   0.227   1.560  10.959
  566MPD2     C 8445   1.804   3.021  14.720
  566MPD2    C1 8446   1.803   2.924  14.619
  566MPD2    C2 8447   1.685   2.877  14.578
  566MPD2    C3 8448   1.567   2.926  14.635
  566MPD2    C4 8449   1.566   3.011  14.739
  566MPD2    C5 8450   1.688   3.063  14.771
  566MPD2     H 8451   1.684   2.795  14.507
  566MPD2    H1 8452   1.475   3.056  14.777
  566MPD2    H2 8453   1.895   3.065  14.759
  566MPD2    H3 8454   1.674   3.136  14.850
  566MPD2     N 8455   1.440   2.870  14.590
  566MPD2    H5 8456   1.368   2.874  14.662
  566MPD2    N1 8457   1.920   2.882  14.561
  566MPD2    H7 8458   2.008   2.931  14.577
  567TMC3    C1 8459   2.032   2.761  14.385
  567TMC3    C2 8460   2.091   2.876  14.347
  567TMC3    C3 8461   2.221   2.879  14.318
  567TMC3    C4 8462   2.123   2.656  14.403
  567TMC3    C5 8463   2.258   2.661  14.391
  567TMC3    C6 8464   2.308   2.777  14.347
  567TMC3     C 8465   1.923   2.775  14.474
  567TMC3     O 8466   1.869   2.668  14.492
  567TMC3     H 8467   2.025   2.960  14.331
  567TMC3    H1 8468   2.081   2.558  14.421
  567TMC3    H2 8469   2.413   2.801  14.334
  567TMC3    C7 8470   2.327   2.629  14.509
  567TMC3    C8 8471   2.282   2.989  14.244
  567TMC3    O1 8472   2.440   2.669  14.518
  567TMC3    O2 8473   2.366   2.963  14.158
  568MPD2     C 8474   3.889   3.333  16.391
  568MPD2    C1 8475   3.945   3.420  16.483
  568MPD2    C2 8476   3.951   3.553  16.454
  568MPD2    C3 8477   3.905   3.610  16.347
  568MPD2    C4 8478   3.833   3.530  16.257
  568MPD2    C5 8479   3.825   3.391  16.285
  568MPD2     H 8480   3.998   3.610  16.533
  568MPD2    H1 8481   3.781   3.568  16.170
  568MPD2    H2 8482   3.879   3.227  16.413
  568MPD2    H3 8483   3.777   3.333  16.207
  568MPD2     N 8484   3.942   3.747  16.331
  568MPD2    H5 8485   4.013   3.787  16.391
  568MPD2    N1 8486   4.010   3.364  16.594
  568MPD2    H7 8487   4.034   3.266  16.592
  569TMC3    C1 8488   3.949   3.956  16.229
  569TMC3    C2 8489   3.966   4.010  16.354
  569TMC3    C3 8490   4.059   4.113  16.368
  569TMC3    C4 8491   4.021   3.994  16.118
  569TMC3    C5 8492   4.102   4.099  16.134
  569TMC3    C6 8493   4.111   4.168  16.254
  569TMC3     C 8494   3.900   3.821  16.226
  569TMC3     O 8495   3.835   3.791  16.129
  569TMC3     H 8496   3.898   3.977  16.433
  569TMC3    H1 8497   4.022   3.930  16.031
  569TMC3    H2 8498   4.174   4.255  16.270
  569TMC3    C7 8499   4.106   4.184  16.019
  569TMC3    C8 8500   4.020   4.224  16.453
  569TMC3    O1 8501   4.126   4.135  15.908
  569TMC3    O2 8502   3.901   4.227  16.490
  570TMC3    C1 8503   3.441   2.394  16.309
  570TMC3    C2 8504   3.560   2.357  16.256
  570TMC3    C3 8505   3.646   2.456  16.227
  570TMC3    C4 8506   3.402   2.527  16.310
  570TMC3    C5 8507   3.475   2.620  16.249
  570TMC3    C6 8508   3.606   2.587  16.224
  570TMC3     C 8509   3.398   2.312  16.427
  570TMC3     O 8510   3.440   2.197  16.434
  570TMC3     H 8511   3.594   2.255  16.250
  570TMC3    H1 8512   3.312   2.558  16.362
  570TMC3    H2 8513   3.676   2.661  16.186
  570TMC3    C7 8514   3.451   2.755  16.276
  570TMC3    C8 8515   3.789   2.438  16.200
  570TMC3    O1 8516   3.548   2.828  16.300
  570TMC3    O2 8517   3.863   2.521  16.251
  571MPD2     C 8518   1.364   4.344  17.740
  571MPD2    C1 8519   1.271   4.405  17.823
  571MPD2    C2 8520   1.310   4.512  17.904
  571MPD2    C3 8521   1.441   4.547  17.919
  571MPD2    C4 8522   1.536   4.480  17.847
  571MPD2    C5 8523   1.497   4.374  17.763
  571MPD2     H 8524   1.230   4.573  17.944
  571MPD2    H1 8525   1.644   4.487  17.859
  571MPD2    H2 8526   1.344   4.264  17.669
  571MPD2    H3 8527   1.569   4.320  17.703
  571MPD2     N 8528   1.476   4.645  18.010
  571MPD2    H5 8529   1.576   4.648  18.025
  571MPD2    N1 8530   1.137   4.355  17.822
  571MPD2    H7 8531   1.125   4.283  17.751
  572TMC3    C1 8532   1.459   0.040  18.144
  572TMC3    C2 8533   1.558   0.010  18.237
  572TMC3    C3 8534   1.585   0.090  18.348
  572TMC3    C4 8535   1.384   0.152  18.171
  572TMC3    C5 8536   1.409   0.228  18.279
  572TMC3    C6 8537   1.505   0.197  18.370
  572TMC3     C 8538   1.395   4.748  18.055
  572TMC3     O 8539   1.279   4.772  18.018
  572TMC3     H 8540   1.613   4.722  18.238
  572TMC3    H1 8541   1.308   0.186  18.101
  572TMC3    H2 8542   1.526   0.270  18.447
  572TMC3    C7 8543   1.343   0.365  18.286
  572TMC3    C8 8544   1.699   0.061  18.434
  572TMC3    O1 8545   1.229   0.367  18.238
  572TMC3    O2 8546   1.799   0.012  18.381
  573MPD2     C 8547   2.204   4.492  18.482
  573MPD2    C1 8548   2.304   4.568  18.430
  573MPD2    C2 8549   2.327   4.568  18.294
  573MPD2    C3 8550   2.247   4.480  18.215
  573MPD2    C4 8551   2.161   4.388  18.280
  573MPD2    C5 8552   2.146   4.392  18.413
  573MPD2     H 8553   2.392   4.642  18.249
  573MPD2    H1 8554   2.113   4.303  18.232
  573MPD2    H2 8555   2.178   4.484  18.587
  573MPD2    H3 8556   2.084   4.320  18.465
  573MPD2     N 8557   2.256   4.467  18.076
  573MPD2    H5 8558   2.202   4.389  18.041
  573MPD2    N1 8559   2.354   4.668  18.517
  573MPD2    H7 8560   2.309   4.685  18.606
  574TMC3    C1 8561   2.271   4.545  17.857
  574TMC3    C2 8562   2.133   4.543  17.838
  574TMC3    C3 8563   2.078   4.578  17.716
  574TMC3    C4 8564   2.351   4.597  17.757
  574TMC3    C5 8565   2.292   4.618  17.635
  574TMC3    C6 8566   2.160   4.602  17.610
  574TMC3     C 8567   2.312   4.561  17.992
  574TMC3     O 8568   2.388   4.652  18.024
  574TMC3     H 8569   2.064   4.537  17.921
  574TMC3    H1 8570   2.459   4.593  17.756
  574TMC3    H2 8571   2.129   4.648  17.516
  574TMC3    C7 8572   2.360   4.693  17.535
  574TMC3    C8 8573   1.939   4.626  17.724
  574TMC3    O1 8574   2.320   4.688  17.419
  574TMC3    O2 8575   1.863   4.578  17.811
  575TMC3    C1 8576   0.562   1.136  11.523
  575TMC3    C2 8577   0.515   1.019  11.571
  575TMC3    C3 8578   0.425   0.947  11.504
  575TMC3    C4 8579   0.511   1.187  11.404
  575TMC3    C5 8580   0.416   1.116  11.338
  575TMC3    C6 8581   0.365   0.995  11.388
  575TMC3     C 8582   0.695   1.177  11.569
  575TMC3     O 8583   0.727   1.150  11.682
  575TMC3     H 8584   0.572   0.969  11.648
  575TMC3    H1 8585   0.548   1.277  11.357
  575TMC3    H2 8586   0.279   0.941  11.351
  575TMC3    C7 8587   0.340   1.189  11.246
  575TMC3    C8 8588   0.373   0.828  11.559
  575TMC3    O1 8589   0.328   1.310  11.261
  575TMC3    O2 8590   0.370   0.822  11.681
  576MPD2     C 8591   0.026   2.519  12.776
  576MPD2    C1 8592   0.011   2.630  12.688
  576MPD2    C2 8593   4.748   2.738  12.740
  576MPD2    C3 8594   4.686   2.740  12.858
  576MPD2    C4 8595   4.696   2.635  12.939
  576MPD2    C5 8596   4.775   2.526  12.899
  576MPD2     H 8597   4.737   2.826  12.677
  576MPD2    H1 8598   4.643   2.617  13.032
  576MPD2    H2 8599   0.064   2.425  12.738
  576MPD2    H3 8600   4.784   2.442  12.967
  576MPD2     N 8601   4.632   2.861  12.894
  576MPD2    H5 8602   4.632   2.938  12.828
  576MPD2    N1 8603   0.070   2.641  12.557
  576MPD2    H7 8604   0.060   2.729  12.509
  577TMC3    C1 8605   0.196   2.589  12.371
  577TMC3    C2 8606   0.217   2.478  12.289
  577TMC3    C3 8607   0.257   2.497  12.161
  577TMC3    C4 8608   0.186   2.711  12.321
  577TMC3    C5 8609   0.224   2.727  12.193
  577TMC3    C6 8610   0.265   2.622  12.115
  577TMC3     C 8611   0.161   2.552  12.507
  577TMC3     O 8612   0.204   2.443  12.543
  577TMC3     H 8613   0.216   2.377  12.329
  577TMC3    H1 8614   0.181   2.799  12.384
  577TMC3    H2 8615   0.304   2.656  12.020
  577TMC3    C7 8616   0.226   2.858  12.139
  577TMC3    C8 8617   0.337   2.395  12.096
  577TMC3    O1 8618   0.327   2.873  12.072
  577TMC3    O2 8619   0.376   2.307  12.169
  578MPD2     C 8620   2.439   2.629  18.898
  578MPD2    C1 8621   2.522   2.550  18.821
  578MPD2    C2 8622   2.642   2.503  18.880
  578MPD2    C3 8623   2.668   2.527  19.014
  578MPD2    C4 8624   2.576   2.600  19.088
  578MPD2    C5 8625   2.465   2.647  19.029
  578MPD2     H 8626   2.713   2.442  18.826
  578MPD2    H1 8627   2.583   2.614  19.195
  578MPD2    H2 8628   2.350   2.673  18.856
  578MPD2    H3 8629   2.407   2.704  19.101
  578MPD2     N 8630   2.785   2.474  19.061
  578MPD2    H5 8631   2.831   2.412  18.996
  578MPD2    N1 8632   2.504   2.547  18.680
  578MPD2    H7 8633   2.417   2.594  18.658
  579TMC3    C1 8634   2.963   2.431  19.208
  579TMC3    C2 8635   3.059   2.493  19.280
  579TMC3    C3 8636   3.170   2.422  19.315
  579TMC3    C4 8637   2.970   2.295  19.172
  579TMC3    C5 8638   3.076   2.222  19.222
  579TMC3    C6 8639   3.179   2.287  19.289
  579TMC3     C 8640   2.841   2.499  19.188
  579TMC3     O 8641   2.824   2.598  19.255
  579TMC3     H 8642   3.068   2.600  19.295
  579TMC3    H1 8643   2.888   2.237  19.131
  579TMC3    H2 8644   3.263   2.226  19.319
  579TMC3    C7 8645   3.104   2.091  19.170
  579TMC3    C8 8646   3.281   2.494  19.362
  579TMC3    O1 8647   3.197   2.028  19.220
  579TMC3    O2 8648   3.269   2.606  19.404
  580TMC3    C1 8649   2.678   2.050  12.395
  580TMC3    C2 8650   2.799   2.075  12.331
  580TMC3    C3 8651   2.863   1.975  12.270
  580TMC3    C4 8652   2.638   1.916  12.405
  580TMC3    C5 8653   2.713   1.821  12.343
  580TMC3    C6 8654   2.812   1.849  12.260
  580TMC3     C 8655   2.586   2.161  12.397
  580TMC3     O 8656   2.648   2.268  12.406
  580TMC3     H 8657   2.821   2.179  12.310
  580TMC3    H1 8658   2.547   1.903  12.462
  580TMC3    H2 8659   2.853   1.778  12.188
  580TMC3    C7 8660   2.728   1.695  12.411
  580TMC3    C8 8661   2.956   2.020  12.158
  580TMC3    O1 8662   2.679   1.675  12.524
  580TMC3    O2 8663   2.931   1.969  12.052
  581MPD2     C 8664   0.505   1.386  14.733
  581MPD2    C1 8665   0.479   1.404  14.865
  581MPD2    C2 8666   0.352   1.447  14.906
  581MPD2    C3 8667   0.268   1.495  14.811
  581MPD2    C4 8668   0.297   1.475  14.679
  581MPD2    C5 8669   0.412   1.424  14.643
  581MPD2     H 8670   0.328   1.452  15.011
  581MPD2    H1 8671   0.231   1.499  14.597
  581MPD2    H2 8672   0.599   1.359  14.685
  581MPD2    H3 8673   0.440   1.418  14.538
  581MPD2     N 8674   0.144   1.538  14.855
  581MPD2    H5 8675   0.140   1.553  14.955
  581MPD2    N1 8676   0.576   1.360  14.950
  581MPD2    H7 8677   0.654   1.307  14.912
  582TMC3    C1 8678   0.676   1.300  15.156
  582TMC3    C2 8679   0.718   1.342  15.273
  582TMC3    C3 8680   0.766   1.243  15.347
  582TMC3    C4 8681   0.665   1.171  15.118
  582TMC3    C5 8682   0.698   1.074  15.207
  582TMC3    C6 8683   0.770   1.110  15.317
  582TMC3     C 8684   0.576   1.376  15.086
  582TMC3     O 8685   0.518   1.460  15.146
  582TMC3     H 8686   0.703   1.447  15.297
  582TMC3    H1 8687   0.607   1.129  15.036
  582TMC3    H2 8688   0.804   1.042  15.394
  582TMC3    C7 8689   0.578   1.004  15.243
  582TMC3    C8 8690   0.794   1.285  15.481
  582TMC3    O1 8691   0.515   0.933  15.163
  582TMC3    O2 8692   0.719   1.365  15.526
  583MPD2     C 8693   0.582   2.942  16.919
  583MPD2    C1 8694   0.561   3.061  16.852
  583MPD2    C2 8695   0.494   3.168  16.919
  583MPD2    C3 8696   0.458   3.156  17.046
  583MPD2    C4 8697   0.471   3.038  17.114
  583MPD2    C5 8698   0.534   2.939  17.046
  583MPD2     H 8699   0.496   3.266  16.872
  583MPD2    H1 8700   0.436   3.017  17.214
  583MPD2    H2 8701   0.624   2.849  16.883
  583MPD2    H3 8702   0.567   2.850  17.098
  583MPD2     N 8703   0.395   3.262  17.107
  583MPD2    H5 8704   0.370   3.342  17.049
  583MPD2    N1 8705   0.614   3.081  16.720
  583MPD2    H7 8706   0.597   3.169  16.671
  584TMC3    C1 8707   0.315   3.407  17.274
  584TMC3    C2 8708   0.335   3.510  17.191
  584TMC3    C3 8709   0.306   3.634  17.236
  584TMC3    C4 8710   0.255   3.428  17.396
  584TMC3    C5 8711   0.211   3.550  17.432
  584TMC3    C6 8712   0.232   3.653  17.348
  584TMC3     C 8713   0.357   3.274  17.240
  584TMC3     O 8714   0.338   3.192  17.326
  584TMC3     H 8715   0.388   3.500  17.096
  584TMC3    H1 8716   0.245   3.345  17.464
  584TMC3    H2 8717   0.180   3.747  17.360
  584TMC3    C7 8718   0.123   3.552  17.558
  584TMC3    C8 8719   0.308   3.740  17.140
  584TMC3    O1 8720   0.118   3.445  17.618
  584TMC3    O2 8721   0.293   3.719  17.019
  585MPD2     C 8722   4.597   2.258  18.824
  585MPD2    C1 8723   4.679   2.306  18.726
  585MPD2    C2 8724   4.679   2.241  18.606
  585MPD2    C3 8725   4.599   2.133  18.584
  585MPD2    C4 8726   4.526   2.081  18.685
  585MPD2    C5 8727   4.528   2.141  18.806
  585MPD2     H 8728   4.734   2.274  18.518
  585MPD2    H1 8729   4.470   1.990  18.664
  585MPD2    H2 8730   4.583   2.319  18.913
  585MPD2    H3 8731   4.452   2.116  18.880
  585MPD2     N 8732   4.577   2.079  18.452
  585MPD2    H5 8733   4.515   1.998  18.453
  585MPD2    N1 8734   4.741   2.433  18.738
  585MPD2    H7 8735   4.693   2.503  18.793
  586TMC3    C1 8736   4.611   2.028  18.218
  586TMC3    C2 8737   4.707   2.046  18.132
  586TMC3    C3 8738   4.708   1.994  18.009
  586TMC3    C4 8739   4.488   1.968  18.186
  586TMC3    C5 8740   4.487   1.925  18.056
  586TMC3    C6 8741   4.587   1.932  17.970
  586TMC3     C 8742   4.620   2.122  18.330
  586TMC3     O 8743   4.689   2.224  18.308
  586TMC3     H 8744   4.795   2.101  18.163
  586TMC3    H1 8745   4.405   1.957  18.255
  586TMC3    H2 8746   4.583   1.883  17.873
  586TMC3    C7 8747   4.364   1.876  18.002
  586TMC3    C8 8748   0.031   1.948  17.949
  586TMC3    O1 8749   4.289   1.808  18.073
  586TMC3    O2 8750   0.088   1.845  17.986
  587TMC3    C1 8751   1.932   0.689  16.360
  587TMC3    C2 8752   1.938   0.812  16.411
  587TMC3    C3 8753   2.057   0.844  16.474
  587TMC3    C4 8754   2.038   0.602  16.368
  587TMC3    C5 8755   2.152   0.639  16.426
  587TMC3    C6 8756   2.161   0.760  16.486
  587TMC3     C 8757   1.811   0.634  16.297
  587TMC3     O 8758   1.822   0.530  16.232
  587TMC3     H 8759   1.859   0.885  16.418
  587TMC3    H1 8760   2.034   0.500  16.332
  587TMC3    H2 8761   2.251   0.784  16.542
  587TMC3    C7 8762   2.214   0.531  16.508
  587TMC3    C8 8763   2.089   0.978  16.505
  587TMC3    O1 8764   2.136   0.438  16.530
  587TMC3    O2 8765   2.206   1.012  16.488
  588TMC3    C1 8766   4.191   3.788  10.089
  588TMC3    C2 8767   4.182   3.650  10.087
  588TMC3    C3 8768   4.297   3.577  10.096
  588TMC3    C4 8769   4.309   3.858  10.105
  588TMC3    C5 8770   4.425   3.779  10.114
  588TMC3    C6 8771   4.419   3.634  10.114
  588TMC3     C 8772   4.089   3.860  10.016
  588TMC3     O 8773   3.979   3.806  10.015
  588TMC3     H 8774   4.090   3.609  10.047
  588TMC3    H1 8775   4.293   3.962  10.131
  588TMC3    H2 8776   4.508   3.589  10.073
  588TMC3    C7 8777   4.547   3.853  10.108
  588TMC3    C8 8778   4.283   3.432  10.071
  588TMC3    O1 8779   4.647   3.786  10.104
  588TMC3    O2 8780   4.186   3.396  10.003
  589TMC3    C1 8781   3.656   0.660  18.625
  589TMC3    C2 8782   3.723   0.685  18.751
  589TMC3    C3 8783   3.860   0.678  18.746
  589TMC3    C4 8784   3.724   0.642  18.513
  589TMC3    C5 8785   3.860   0.624  18.516
  589TMC3    C6 8786   3.936   0.641  18.633
  589TMC3     C 8787   3.537   0.578  18.633
  589TMC3     O 8788   3.504   0.518  18.534
  589TMC3     H 8789   3.682   0.705  18.849
  589TMC3    H1 8790   3.680   0.604  18.422
  589TMC3    H2 8791   4.044   0.644  18.636
  589TMC3    C7 8792   3.899   0.511  18.436
  589TMC3    C8 8793   3.918   0.663  18.873
  589TMC3    O1 8794   3.816   0.458  18.366
  589TMC3    O2 8795   3.857   0.583  18.943
  590MPD2     C 8796   2.701   3.716  16.682
  590MPD2    C1 8797   2.673   3.811  16.585
  590MPD2    C2 8798   2.773   3.887  16.539
  590MPD2    C3 8799   2.900   3.878  16.598
  590MPD2    C4 8800   2.927   3.800  16.701
  590MPD2    C5 8801   2.828   3.712  16.740
  590MPD2     H 8802   2.747   3.959  16.463
  590MPD2    H1 8803   3.012   3.810  16.767
  590MPD2    H2 8804   2.626   3.651  16.726
  590MPD2    H3 8805   2.846   3.642  16.821
  590MPD2     N 8806   2.995   3.966  16.551
  590MPD2    H5 8807   2.965   4.035  16.483
  590MPD2    N1 8808   2.542   3.816  16.522
  590MPD2    H7 8809   2.459   3.787  16.573
  591TMC3    C1 8810   3.204   4.057  16.510
  591TMC3    C2 8811   3.313   4.014  16.435
  591TMC3    C3 8812   3.347   4.106  16.343
  591TMC3    C4 8813   3.133   4.176  16.491
  591TMC3    C5 8814   3.189   4.269  16.409
  591TMC3    C6 8815   3.294   4.231  16.329
  591TMC3     C 8816   3.128   3.960  16.582
  591TMC3     O 8817   3.190   3.867  16.631
  591TMC3     H 8818   3.363   3.919  16.449
  591TMC3    H1 8819   3.051   4.208  16.554
  591TMC3    H2 8820   3.310   4.279  16.233
  591TMC3    C7 8821   3.115   4.385  16.378
  591TMC3    C8 8822   3.447   4.062  16.249
  591TMC3    O1 8823   2.998   4.388  16.407
  591TMC3    O2 8824   3.466   3.940  16.230
  592MPD2     C 8825   3.572   1.418  11.854
  592MPD2    C1 8826   3.569   1.461  11.983
  592MPD2    C2 8827   3.524   1.380  12.092
  592MPD2    C3 8828   3.462   1.260  12.058
  592MPD2    C4 8829   3.459   1.227  11.926
  592MPD2    C5 8830   3.512   1.301  11.824
  592MPD2     H 8831   3.532   1.412  12.195
  592MPD2    H1 8832   3.416   1.133  11.894
  592MPD2    H2 8833   3.612   1.467  11.766
  592MPD2    H3 8834   3.522   1.268  11.721
  592MPD2     N 8835   3.398   1.179  12.159
  592MPD2    H5 8836   3.419   1.200  12.256
  592MPD2    N1 8837   3.622   1.593  11.995
  592MPD2    H7 8838   3.664   1.626  11.908
  593TMC3    C1 8839   3.725   1.772  12.098
  593TMC3    C2 8840   3.723   1.856  12.209
  593TMC3    C3 8841   3.814   1.958  12.209
  593TMC3    C4 8842   3.822   1.786  11.993
  593TMC3    C5 8843   3.903   1.897  12.001
  593TMC3    C6 8844   3.899   1.985  12.106
  593TMC3     C 8845   3.636   1.659  12.117
  593TMC3     O 8846   3.588   1.634  12.225
  593TMC3     H 8847   3.655   1.848  12.293
  593TMC3    H1 8848   3.828   1.711  11.916
  593TMC3    H2 8849   3.941   2.084  12.101
  593TMC3    C7 8850   3.973   1.951  11.885
  593TMC3    C8 8851   3.792   2.058  12.305
  593TMC3    O1 8852   4.046   2.051  11.906
  593TMC3    O2 8853   3.685   2.060  12.367
  594MPD2     C 8854   2.001   0.041  14.418
  594MPD2    C1 8855   2.007   0.049  14.556
  594MPD2    C2 8856   2.091   0.134  14.628
  594MPD2    C3 8857   2.167   0.222  14.555
  594MPD2    C4 8858   2.162   0.215  14.416
  594MPD2    C5 8859   2.094   0.114  14.349
  594MPD2     H 8860   2.101   0.141  14.735
  594MPD2    H1 8861   2.211   0.285  14.349
  594MPD2    H2 8862   1.933   4.777  14.371
  594MPD2    H3 8863   2.098   0.100  14.242
  594MPD2     N 8864   2.263   0.300  14.623
  594MPD2    H5 8865   2.261   0.297  14.725
  594MPD2    N1 8866   1.922   4.769  14.614
  594MPD2    H7 8867   1.869   4.705  14.555
  595TMC3    C1 8868   2.594   0.633  14.661
  595TMC3    C2 8869   2.534   0.534  14.589
  595TMC3    C3 8870   2.441   0.457  14.650
  595TMC3    C4 8871   2.555   0.648  14.791
  595TMC3    C5 8872   2.452   0.577  14.852
  595TMC3    C6 8873   2.395   0.479  14.782
  595TMC3     C 8874   2.731   0.663  14.637
  595TMC3     O 8875   2.773   0.751  14.711
  595TMC3     H 8876   2.562   0.510  14.487
  595TMC3    H1 8877   2.601   0.730  14.845
  595TMC3    H2 8878   2.306   0.431  14.819
  595TMC3    C7 8879   2.383   0.637  14.969
  595TMC3    C8 8880   2.371   0.360  14.563
  595TMC3    O1 8881   2.261   0.631  14.981
  595TMC3    O2 8882   2.413   0.334  14.450
  596MPD2     C 8883   1.231   3.120  17.107
  596MPD2    C1 8884   1.238   3.224  17.016
  596MPD2    C2 8885   1.289   3.196  16.886
  596MPD2    C3 8886   1.325   3.063  16.856
  596MPD2    C4 8887   1.322   2.964  16.957
  596MPD2    C5 8888   1.269   2.989  17.082
  596MPD2     H 8889   1.299   3.279  16.818
  596MPD2    H1 8890   1.364   2.868  16.928
  596MPD2    H2 8891   1.193   3.144  17.206
  596MPD2    H3 8892   1.281   2.913  17.159
  596MPD2     N 8893   1.376   3.033  16.725
  596MPD2    H5 8894   1.385   2.935  16.703
  596MPD2    N1 8895   1.195   3.357  17.039
  596MPD2    H7 8896   1.218   3.414  16.958
  597TMC3    C1 8897   1.071   3.533  17.140
  597TMC3    C2 8898   1.142   3.626  17.073
  597TMC3    C3 8899   1.101   3.753  17.071
  597TMC3    C4 8900   0.962   3.569  17.215
  597TMC3    C5 8901   0.935   3.703  17.216
  597TMC3    C6 8902   0.996   3.798  17.145
  597TMC3     C 8903   1.109   3.396  17.141
  597TMC3     O 8904   1.057   3.329  17.232
  597TMC3     H 8905   1.234   3.590  17.029
  597TMC3    H1 8906   0.889   3.503  17.261
  597TMC3    H2 8907   0.959   3.900  17.138
  597TMC3    C7 8908   0.845   3.738  17.330
  597TMC3    C8 8909   1.171   3.841  16.982
  597TMC3    O1 8910   0.784   3.645  17.385
  597TMC3    O2 8911   1.115   3.944  16.943
  598TMC3    C1 8912   4.247   4.507  15.398
  598TMC3    C2 8913   4.123   4.448  15.403
  598TMC3    C3 8914   4.041   4.475  15.298
  598TMC3    C4 8915   4.289   4.593  15.294
  598TMC3    C5 8916   4.191   4.619  15.199
  598TMC3    C6 8917   4.068   4.560  15.193
  598TMC3     C 8918   4.342   4.444  15.493
  598TMC3     O 8919   4.281   4.398  15.589
  598TMC3     H 8920   4.083   4.389  15.485
  598TMC3    H1 8921   4.388   4.638  15.292
  598TMC3    H2 8922   4.002   4.565  15.108
  598TMC3    C7 8923   4.215   4.707  15.080
  598TMC3    C8 8924   3.907   4.418  15.301
  598TMC3    O1 8925   4.160   4.674  14.975
  598TMC3    O2 8926   3.864   4.395  15.188
  599MPD2     C 8927   4.598   2.238  16.115
  599MPD2    C1 8928   4.537   2.113  16.118
  599MPD2    C2 8929   4.416   2.094  16.182
  599MPD2    C3 8930   4.357   2.209  16.242
  599MPD2    C4 8931   4.418   2.335  16.233
  599MPD2    C5 8932   4.540   2.343  16.173
  599MPD2     H 8933   4.359   2.002  16.178
  599MPD2    H1 8934   4.381   2.423  16.283
  599MPD2    H2 8935   4.694   2.249  16.066
  599MPD2    H3 8936   4.577   2.444  16.157
  599MPD2     N 8937   4.232   2.204  16.309
  599MPD2    H5 8938   4.209   2.293  16.351
  599MPD2    N1 8939   4.604   2.008  16.049
  599MPD2    H7 8940   4.695   2.030  16.011
  600TMC3    C1 8941   4.020   2.127  16.387
  600TMC3    C2 8942   3.930   2.028  16.408
  600TMC3    C3 8943   3.812   2.061  16.469
  600TMC3    C4 8944   3.989   2.255  16.421
  600TMC3    C5 8945   3.865   2.285  16.473
  600TMC3    C6 8946   3.770   2.188  16.495
  600TMC3     C 8947   4.144   2.096  16.319
  600TMC3     O 8948   4.148   1.987  16.262
  600TMC3     H 8949   3.960   1.924  16.403
  600TMC3    H1 8950   4.053   2.335  16.388
  600TMC3    H2 8951   3.674   2.199  16.545
  600TMC3    C7 8952   3.847   2.409  16.545
  600TMC3    C8 8953   3.733   1.951  16.520
  600TMC3    O1 8954   3.733   2.443  16.572
  600TMC3    O2 8955   3.789   1.845  16.548
  601MPD2     C 8956   1.346   0.880  18.275
  601MPD2    C1 8957   1.256   0.787  18.224
  601MPD2    C2 8958   1.281   0.661  18.246
  601MPD2    C3 8959   1.388   0.609  18.314
  601MPD2    C4 8960   1.471   0.699  18.374
  601MPD2    C5 8961   1.458   0.835  18.343
  601MPD2     H 8962   1.214   0.591  18.198
  601MPD2    H1 8963   1.561   0.674  18.429
  601MPD2    H2 8964   1.336   0.987  18.265
  601MPD2    H3 8965   1.519   0.911  18.391
  601MPD2     N 8966   1.427   0.467  18.323
  601MPD2    H5 8967   1.520   0.450  18.361
  601MPD2    N1 8968   1.141   0.831  18.149
  601MPD2    H7 8969   1.081   0.752  18.124
  602TMC3    C1 8970   0.981   0.951  18.030
  602TMC3    C2 8971   0.929   1.074  18.005
  602TMC3    C3 8972   0.820   1.088  17.924
  602TMC3    C4 8973   0.922   0.842  17.983
  602TMC3    C5 8974   0.813   0.863  17.902
  602TMC3    C6 8975   0.757   0.980  17.869
  602TMC3     C 8976   1.104   0.955  18.105
  602TMC3     O 8977   1.155   1.068  18.124
  602TMC3     H 8978   0.985   1.164  18.023
  602TMC3    H1 8979   0.965   0.742  17.990
  602TMC3    H2 8980   0.661   0.990  17.820
  602TMC3    C7 8981   0.788   0.753  17.803
  602TMC3    C8 8982   0.778   1.223  17.891
  602TMC3    O1 8983   0.813   0.636  17.828
  602TMC3    O2 8984   0.723   1.291  17.977
  603TMC3    C1 8985   4.696   0.653  11.320
  603TMC3    C2 8986   4.738   0.622  11.450
  603TMC3    C3 8987   4.781   0.727  11.536
  603TMC3    C4 8988   4.694   0.780  11.272
  603TMC3    C5 8989   4.736   0.880  11.350
  603TMC3    C6 8990   4.784   0.856  11.480
  603TMC3     C 8991   4.600   0.560  11.259
  603TMC3     O 8992   4.496   0.611  11.214
  603TMC3     H 8993   4.727   0.520  11.484
  603TMC3    H1 8994   4.663   0.800  11.170
  603TMC3    H2 8995   0.031   0.931  11.539
  603TMC3    C7 8996   4.726   1.009  11.291
  603TMC3    C8 8997   4.787   0.701  11.674
  603TMC3    O1 8998   0.007   1.083  11.339
  603TMC3    O2 8999   4.752   0.587  11.706
  604MPD2     C 9000   0.448   4.250  16.583
  604MPD2    C1 9001   0.348   4.212  16.499
  604MPD2    C2 9002   0.373   4.193  16.357
  604MPD2    C3 9003   0.501   4.189  16.312
  604MPD2    C4 9004   0.599   4.231  16.401
  604MPD2    C5 9005   0.568   4.267  16.529
  604MPD2     H 9006   0.289   4.179  16.290
  604MPD2    H1 9007   0.702   4.247  16.369
  604MPD2    H2 9008   0.429   4.272  16.688
  604MPD2    H3 9009   0.647   4.314  16.586
  604MPD2     N 9010   0.525   4.149  16.177
  604MPD2    H5 9011   0.439   4.124  16.130
  604MPD2    N1 9012   0.222   4.213  16.554
  604MPD2    H7 9013   0.217   4.253  16.647
  605TMC3    C1 9014   4.796   4.192  16.597
  605TMC3    C2 9015   0.054   4.219  16.718
  605TMC3    C3 9016   0.015   4.341  16.776
  605TMC3    C4 9017   4.691   4.266  16.543
  605TMC3    C5 9018   4.664   4.389  16.594
  605TMC3    C6 9019   4.733   4.422  16.713
  605TMC3     C 9020   0.101   4.169  16.499
  605TMC3     O 9021   0.074   4.109  16.396
  605TMC3     H 9022   0.130   4.153  16.755
  605TMC3    H1 9023   4.657   4.222  16.450
  605TMC3    H2 9024   4.749   4.527  16.734
  605TMC3    C7 9025   4.565   4.469  16.539
  605TMC3    C8 9026   0.131   4.398  16.849
  605TMC3    O1 9027   4.546   4.582  16.584
  605TMC3    O2 9028   0.230   4.330  16.833
  606TMC3    C1 9029   1.136   3.285  17.596
  606TMC3    C2 9030   1.075   3.260  17.717
  606TMC3    C3 9031   1.051   3.134  17.754
  606TMC3    C4 9032   1.156   3.178  17.510
  606TMC3    C5 9033   1.107   3.052  17.544
  606TMC3    C6 9034   1.053   3.024  17.667
  606TMC3     C 9035   1.170   3.420  17.566
  606TMC3     O 9036   1.118   3.513  17.636
  606TMC3     H 9037   1.064   3.340  17.790
  606TMC3    H1 9038   1.195   3.183  17.410
  606TMC3    H2 9039   1.039   2.924  17.706
  606TMC3    C7 9040   1.152   2.937  17.469
  606TMC3    C8 9041   1.088   3.100  17.890
  606TMC3    O1 9042   1.251   2.960  17.404
  606TMC3    O2 9043   1.149   3.193  17.943
  607MPD2     C 9044   3.641   0.940  11.918
  607MPD2    C1 9045   3.712   1.012  12.018
  607MPD2    C2 9046   3.696   0.972  12.150
  607MPD2    C3 9047   3.613   0.868  12.185
  607MPD2    C4 9048   3.529   0.812  12.089
  607MPD2    C5 9049   3.551   0.841  11.949
  607MPD2     H 9050   3.767   1.011  12.222
  607MPD2    H1 9051   3.457   0.733  12.109
  607MPD2    H2 9052   3.665   0.951  11.813
  607MPD2    H3 9053   3.486   0.793  11.877
  607MPD2     N 9054   3.619   0.841  12.323
  607MPD2    H5 9055   3.701   0.871  12.374
  607MPD2    N1 9056   3.795   1.127  11.993
  607MPD2    H7 9057   3.841   1.163  12.075
  608TMC3    C1 9058   3.903   1.312  11.926
  608TMC3    C2 9059   3.884   1.364  12.049
  608TMC3    C3 9060   3.952   1.467  12.089
  608TMC3    C4 9061   3.994   1.364  11.837
  608TMC3    C5 9062   4.075   1.473  11.886
  608TMC3    C6 9063   4.046   1.528  12.012
  608TMC3     C 9064   3.823   1.196  11.880
  608TMC3     O 9065   3.817   1.173  11.757
  608TMC3     H 9066   3.809   1.322  12.116
  608TMC3    H1 9067   4.014   1.326  11.738
  608TMC3    H2 9068   4.096   1.615  12.052
  608TMC3    C7 9069   4.154   1.546  11.791
  608TMC3    C8 9070   3.944   1.509  12.226
  608TMC3    O1 9071   4.150   1.509  11.672
  608TMC3    O2 9072   3.930   1.635  12.240
  609TMC3    C1 9073   2.125   0.572   9.482
  609TMC3    C2 9074   2.033   0.555   9.387
  609TMC3    C3 9075   2.056   0.464   9.286
  609TMC3    C4 9076   2.234   0.493   9.491
  609TMC3    C5 9077   2.256   0.398   9.391
  609TMC3    C6 9078   2.158   0.379   9.297
  609TMC3     C 9079   2.074   0.626   9.607
  609TMC3     O 9080   1.949   0.616   9.615
  609TMC3     H 9081   1.940   0.611   9.387
  609TMC3    H1 9082   2.288   0.495   9.585
  609TMC3    H2 9083   2.170   0.303   9.222
  609TMC3    C7 9084   2.373   0.305   9.403
  609TMC3    C8 9085   1.931   0.416   9.210
  609TMC3    O1 9086   2.446   0.336   9.501
  609TMC3    O2 9087   1.830   0.469   9.245
  610TMC3    C1 9088   4.082   0.998  12.782
  610TMC3    C2 9089   4.119   1.068  12.673
  610TMC3    C3 9090   4.202   1.009  12.581
  610TMC3    C4 9091   4.124   0.867  12.808
  610TMC3    C5 9092   4.210   0.811  12.718
  610TMC3    C6 9093   4.259   0.886  12.614
  610TMC3     C 9094   4.009   1.063  12.880
  610TMC3     O 9095   3.938   0.992  12.954
  610TMC3     H 9096   4.059   1.152  12.640
  610TMC3    H1 9097   4.090   0.815  12.897
  610TMC3    H2 9098   4.333   0.835  12.554
  610TMC3    C7 9099   4.298   0.700  12.772
  610TMC3    C8 9100   4.215   1.068  12.447
  610TMC3    O1 9101   4.419   0.718  12.763
  610TMC3    O2 9102   4.169   1.176  12.431
  611MPD2     C 9103   3.570   1.071  11.218
  611MPD2    C1 9104   3.527   1.133  11.102
  611MPD2    C2 9105   3.619   1.182  11.009
  611MPD2    C3 9106   3.749   1.174  11.046
  611MPD2    C4 9107   3.784   1.113  11.168
  611MPD2    C5 9108   3.701   1.059  11.258
  611MPD2     H 9109   3.597   1.215  10.908
  611MPD2    H1 9110   3.887   1.111  11.199
  611MPD2    H2 9111   3.495   1.040  11.290
  611MPD2    H3 9112   3.732   1.004  11.346
  611MPD2     N 9113   3.858   1.217  10.962
  611MPD2    H5 9114   3.949   1.205  11.007
  611MPD2    N1 9115   3.384   1.136  11.086
  611MPD2    H7 9116   3.331   1.078  11.150
  612TMC3    C1 9117   3.952   1.372  10.811
  612TMC3    C2 9118   4.060   1.388  10.894
  612TMC3    C3 9119   4.155   1.482  10.852
  612TMC3    C4 9120   3.939   1.446  10.698
  612TMC3    C5 9121   4.033   1.541  10.670
  612TMC3    C6 9122   4.140   1.564  10.746
  612TMC3     C 9123   3.841   1.293  10.849
  612TMC3     O 9124   3.741   1.314  10.781
  612TMC3     H 9125   4.057   1.355  10.998
  612TMC3    H1 9126   3.856   1.438  10.629
  612TMC3    H2 9127   4.220   1.624  10.705
  612TMC3    C7 9128   4.015   1.617  10.550
  612TMC3    C8 9129   4.286   1.485  10.919
  612TMC3    O1 9130   3.980   1.558  10.452
  612TMC3    O2 9131   4.348   1.592  10.900
  613MPD2     C 9132   2.889   3.338  16.643
  613MPD2    C1 9133   2.764   3.340  16.591
  613MPD2    C2 9134   2.659   3.268  16.643
  613MPD2    C3 9135   2.683   3.173  16.739
  613MPD2    C4 9136   2.809   3.177  16.799
  613MPD2    C5 9137   2.910   3.259  16.754
  613MPD2     H 9138   2.559   3.276  16.600
  613MPD2    H1 9139   2.826   3.101  16.875
  613MPD2    H2 9140   2.973   3.395  16.607
  613MPD2    H3 9141   3.009   3.254  16.797
  613MPD2     N 9142   2.597   3.062  16.770
  613MPD2    H5 9143   2.641   2.988  16.824
  613MPD2    N1 9144   2.756   3.411  16.467
  613MPD2    H7 9145   2.840   3.434  16.415
  614TMC3    C1 9146   2.635   3.426  16.265
  614TMC3    C2 9147   2.679   3.302  16.219
  614TMC3    C3 9148   2.613   3.242  16.112
  614TMC3    C4 9149   2.534   3.486  16.195
  614TMC3    C5 9150   2.486   3.432  16.079
  614TMC3    C6 9151   2.520   3.307  16.037
  614TMC3     C 9152   2.636   3.432  16.410
  614TMC3     O 9153   2.531   3.461  16.463
  614TMC3     H 9154   2.744   3.243  16.283
  614TMC3    H1 9155   2.495   3.582  16.227
  614TMC3    H2 9156   2.482   3.258  15.948
  614TMC3    C7 9157   2.376   3.500  16.019
  614TMC3    C8 9158   2.616   3.094  16.115
  614TMC3    O1 9159   2.318   3.588  16.081
  614TMC3    O2 9160   2.720   3.042  16.155
  615MPD2     C 9161   2.116   4.374  15.889
  615MPD2    C1 9162   2.009   4.439  15.949
  615MPD2    C2 9163   1.895   4.475  15.869
  615MPD2    C3 9164   1.889   4.437  15.740
  615MPD2    C4 9165   1.982   4.367  15.689
  615MPD2    C5 9166   2.099   4.342  15.759
  615MPD2     H 9167   1.816   4.537  15.909
  615MPD2    H1 9168   1.977   4.329  15.588
  615MPD2    H2 9169   2.198   4.325  15.940
  615MPD2    H3 9170   2.175   4.283  15.709
  615MPD2     N 9171   1.779   4.470  15.650
  615MPD2    H5 9172   1.789   4.440  15.554
  615MPD2    N1 9173   2.034   4.496  16.080
  615MPD2    H7 9174   1.974   4.568  16.118
  616TMC3    C1 9175   2.153   4.584  16.274
  616TMC3    C2 9176   2.279   4.608  16.330
  616TMC3    C3 9177   2.292   4.674  16.445
  616TMC3    C4 9178   2.038   4.610  16.339
  616TMC3    C5 9179   2.045   4.663  16.463
  616TMC3    C6 9180   2.173   4.694  16.514
  616TMC3     C 9181   2.157   4.501  16.153
  616TMC3     O 9182   2.264   4.449  16.128
  616TMC3     H 9183   2.363   4.603  16.262
  616TMC3    H1 9184   1.948   4.569  16.295
  616TMC3    H2 9185   2.182   4.752  16.605
  616TMC3    C7 9186   1.927   4.721  16.521
  616TMC3    C8 9187   2.342   0.002  16.427
  616TMC3    O1 9188   1.933   4.739  16.640
  616TMC3    O2 9189   2.254   0.090  16.436
  617MPD2     C 9190   0.221   2.700  13.848
  617MPD2    C1 9191   0.229   2.737  13.981
  617MPD2    C2 9192   0.113   2.755  14.052
  617MPD2    C3 9193   4.795   2.713  13.999
  617MPD2    C4 9194   4.784   2.680  13.863
  617MPD2    C5 9195   0.095   2.678  13.787
  617MPD2     H 9196   0.109   2.788  14.156
  617MPD2    H1 9197   4.688   2.663  13.817
  617MPD2    H2 9198   0.310   2.706  13.787
  617MPD2    H3 9199   0.085   2.660  13.681
  617MPD2     N 9200   4.678   2.707  14.080
  617MPD2    H5 9201   4.589   2.685  14.035
  617MPD2    N1 9202   0.358   2.761  14.036
  617MPD2    H7 9203   0.445   2.737  13.988
  618TMC3    C1 9204   0.515   2.799  14.188
  618TMC3    C2 9205   0.574   2.671  14.183
  618TMC3    C3 9206   0.695   2.653  14.243
  618TMC3    C4 9207   0.587   2.909  14.223
  618TMC3    C5 9208   0.721   2.889  14.253
  618TMC3    C6 9209   0.768   2.759  14.281
  618TMC3     C 9210   0.378   2.816  14.154
  618TMC3     O 9211   0.299   2.888  14.210
  618TMC3     H 9212   0.522   2.584  14.145
  618TMC3    H1 9213   0.543   3.008  14.218
  618TMC3    H2 9214   0.867   2.741  14.321
  618TMC3    C7 9215   0.798   3.000  14.304
  618TMC3    C8 9216   0.751   2.520  14.235
  618TMC3    O1 9217   0.736   3.069  14.382
  618TMC3    O2 9218   0.672   2.431  14.227
  619MPD2     C 9219   1.575   3.996  14.066
  619MPD2    C1 9220   1.546   4.088  13.963
  619MPD2    C2 9221   1.446   4.047  13.878
  619MPD2    C3 9222   1.367   3.932  13.889
  619MPD2    C4 9223   1.396   3.850  13.998
  619MPD2    C5 9224   1.504   3.881  14.079
  619MPD2     H 9225   1.428   4.126  13.805
  619MPD2    H1 9226   1.349   3.753  14.000
  619MPD2    H2 9227   1.657   4.009  14.136
  619MPD2    H3 9228   1.516   3.806  14.157
  619MPD2     N 9229   1.263   3.898  13.801
  619MPD2    H5 9230   1.203   3.822  13.830
  619MPD2    N1 9231   1.617   4.205  13.925
  619MPD2    H7 9232   1.606   4.240  13.831
  620TMC3    C1 9233   1.754   4.393  13.949
  620TMC3    C2 9234   1.717   4.442  13.823
  620TMC3    C3 9235   1.726   4.573  13.789
  620TMC3    C4 9236   1.791   4.481  14.044
  620TMC3    C5 9237   1.791   4.611  14.011
  620TMC3    C6 9238   1.760   4.661  13.886
  620TMC3     C 9239   1.709   4.265  14.004
  620TMC3     O 9240   1.738   4.226  14.114
  620TMC3     H 9241   1.666   4.371  13.759
  620TMC3    H1 9242   1.813   4.442  14.143
  620TMC3    H2 9243   1.756   4.769  13.879
  620TMC3    C7 9244   1.866   4.695  14.104
  620TMC3    C8 9245   1.623   4.613  13.701
  620TMC3    O1 9246   1.965   4.648  14.153
  620TMC3    O2 9247   1.539   4.692  13.746
  621MPD2     C 9248   1.778   4.264  10.690
  621MPD2    C1 9249   1.687   4.255  10.589
  621MPD2    C2 9250   1.642   4.370  10.523
  621MPD2    C3 9251   1.692   4.493  10.557
  621MPD2    C4 9252   1.785   4.503  10.655
  621MPD2    C5 9253   1.819   4.392  10.719
  621MPD2     H 9254   1.561   4.375  10.452
  621MPD2    H1 9255   1.829   4.594  10.694
  621MPD2    H2 9256   1.825   4.180  10.739
  621MPD2    H3 9257   1.893   4.403  10.798
  621MPD2     N 9258   1.648   4.609  10.479
  621MPD2    H5 9259   1.598   4.589  10.393
  621MPD2    N1 9260   1.638   4.132  10.544
  621MPD2    H7 9261   1.579   4.138  10.462
  622TMC3    C1 9262   1.595   3.904  10.522
  622TMC3    C2 9263   1.516   3.832  10.608
  622TMC3    C3 9264   1.418   3.746  10.558
  622TMC3    C4 9265   1.572   3.910  10.388
  622TMC3    C5 9266   1.490   3.815  10.339
  622TMC3    C6 9267   1.420   3.732  10.424
  622TMC3     C 9268   1.669   4.008  10.593
  622TMC3     O 9269   1.743   3.976  10.685
  622TMC3     H 9270   1.524   3.850  10.715
  622TMC3    H1 9271   1.625   3.978  10.322
  622TMC3    H2 9272   1.335   3.688  10.373
  622TMC3    C7 9273   1.490   3.778  10.200
  622TMC3    C8 9274   1.288   3.796  10.586
  622TMC3    O1 9275   1.439   3.679  10.158
  622TMC3    O2 9276   1.190   3.726  10.561
  623MPD2     C 9277   0.452   4.460  15.750
  623MPD2    C1 9278   0.366   4.445  15.856
  623MPD2    C2 9279   0.430   4.438  15.981
  623MPD2    C3 9280   0.568   4.466  15.983
  623MPD2    C4 9281   0.649   4.479  15.873
  623MPD2    C5 9282   0.588   4.475  15.760
  623MPD2     H 9283   0.375   4.436  16.074
  623MPD2    H1 9284   0.758   4.479  15.875
  623MPD2    H2 9285   0.407   4.475  15.652
  623MPD2    H3 9286   0.649   4.476  15.671
  623MPD2     N 9287   0.622   4.490  16.116
  623MPD2    H5 9288   0.562   4.467  16.195
  623MPD2    N1 9289   0.223   4.448  15.846
  623MPD2    H7 9290   0.183   4.488  15.762
  624TMC3    C1 9291   0.868   4.667  16.464
  624TMC3    C2 9292   0.760   4.655  16.548
  624TMC3    C3 9293   0.633   4.626  16.494
  624TMC3    C4 9294   0.857   4.629  16.335
  624TMC3    C5 9295   0.740   4.595  16.280
  624TMC3    C6 9296   0.629   4.581  16.364
  624TMC3     C 9297   0.995   4.656  16.524
  624TMC3     O 9298   1.088   4.674  16.443
  624TMC3     H 9299   0.767   4.683  16.653
  624TMC3    H1 9300   0.945   4.638  16.271
  624TMC3    H2 9301   0.531   4.552  16.329
  624TMC3    C7 9302   0.741   4.548  16.149
  624TMC3    C8 9303   0.514   4.615  16.579
  624TMC3    O1 9304   0.841   4.556  16.081
  624TMC3    O2 9305   0.417   4.548  16.541
  625MPD2     C 9306   1.199   1.097  18.955
  625MPD2    C1 9307   1.240   1.223  18.976
  625MPD2    C2 9308   1.350   1.245  19.060
  625MPD2    C3 9309   1.420   1.135  19.105
  625MPD2    C4 9310   1.383   1.010  19.075
  625MPD2    C5 9311   1.269   0.990  18.996
  625MPD2     H 9312   1.385   1.348  19.057
  625MPD2    H1 9313   1.439   0.922  19.105
  625MPD2    H2 9314   1.116   1.076  18.889
  625MPD2    H3 9315   1.240   0.888  18.972
  625MPD2     N 9316   1.539   1.165  19.179
  625MPD2    H5 9317   1.551   1.265  19.195
  625MPD2    N1 9318   1.183   1.336  18.912
  625MPD2    H7 9319   1.204   1.424  18.957
  626TMC3    C1 9320   1.065   1.467  18.752
  626TMC3    C2 9321   0.980   1.486  18.649
  626TMC3    C3 9322   0.951   1.612  18.609
  626TMC3    C4 9323   1.147   1.570  18.794
  626TMC3    C5 9324   1.131   1.692  18.744
  626TMC3    C6 9325   1.028   1.724  18.653
  626TMC3     C 9326   1.097   1.334  18.805
  626TMC3     O 9327   1.036   1.242  18.754
  626TMC3     H 9328   0.940   1.404  18.590
  626TMC3    H1 9329   1.214   1.562  18.880
  626TMC3    H2 9330   1.036   1.819  18.603
  626TMC3    C7 9331   1.185   1.794  18.826
  626TMC3    C8 9332   0.870   1.643  18.492
  626TMC3    O1 9333   1.292   1.785  18.885
  626TMC3    O2 9334   0.887   1.759  18.441
  627MPD2     C 9335   4.147   1.574  14.566
  627MPD2    C1 9336   4.215   1.499  14.658
  627MPD2    C2 9337   4.177   1.368  14.670
  627MPD2    C3 9338   4.066   1.310  14.598
  627MPD2    C4 9339   3.996   1.396  14.510
  627MPD2    C5 9340   4.041   1.525  14.496
  627MPD2     H 9341   4.235   1.317  14.746
  627MPD2    H1 9342   3.914   1.360  14.449
  627MPD2    H2 9343   4.180   1.677  14.558
  627MPD2    H3 9344   3.984   1.595  14.436
  627MPD2     N 9345   4.027   1.174  14.626
  627MPD2    H5 9346   4.064   1.140  14.714
  627MPD2    N1 9347   4.330   1.545  14.739
  627MPD2    H7 9348   4.378   1.476  14.795
  628TMC3    C1 9349   4.498   1.675  14.824
  628TMC3    C2 9350   4.599   1.585  14.800
  628TMC3    C3 9351   4.725   1.615  14.847
  628TMC3    C4 9352   4.525   1.800  14.879
  628TMC3    C5 9353   4.650   1.820  14.921
  628TMC3    C6 9354   4.749   1.735  14.908
  628TMC3     C 9355   4.373   1.675  14.749
  628TMC3     O 9356   4.321   1.778  14.719
  628TMC3     H 9357   4.586   1.499  14.735
  628TMC3    H1 9358   4.448   1.872  14.900
  628TMC3    H2 9359   0.047   1.767  14.923
  628TMC3    C7 9360   4.681   1.959  14.949
  628TMC3    C8 9361   0.035   1.557  14.775
  628TMC3    O1 9362   4.770   1.977  15.033
  628TMC3    O2 9363   0.020   1.548  14.653
  629MPD2     C 9364   2.712   0.350  16.395
  629MPD2    C1 9365   2.768   0.228  16.432
  629MPD2    C2 9366   2.686   0.110  16.435
  629MPD2    C3 9367   2.549   0.125  16.416
  629MPD2    C4 9368   2.502   0.251  16.384
  629MPD2    C5 9369   2.582   0.366  16.367
  629MPD2     H 9370   2.729   0.012  16.452
  629MPD2    H1 9371   2.394   0.263  16.377
  629MPD2    H2 9372   2.767   0.443  16.389
  629MPD2    H3 9373   2.548   0.462  16.330
  629MPD2     N 9374   2.475   0.010  16.404
  629MPD2    H5 9375   2.520   4.723  16.404
  629MPD2    N1 9376   2.905   0.221  16.454
  629MPD2    H7 9377   2.957   0.306  16.433
  630TMC3    C1 9378   3.106   0.141  16.548
  630TMC3    C2 9379   3.171   0.245  16.483
  630TMC3    C3 9380   3.294   0.281  16.534
  630TMC3    C4 9381   3.163   0.082  16.660
  630TMC3    C5 9382   3.284   0.115  16.704
  630TMC3    C6 9383   3.352   0.216  16.637
  630TMC3     C 9384   2.963   0.122  16.528
  630TMC3     O 9385   2.913   0.028  16.586
  630TMC3     H 9386   3.127   0.292  16.396
  630TMC3    H1 9387   3.113   4.800  16.702
  630TMC3    H2 9388   3.455   0.244  16.658
  630TMC3    C7 9389   3.328   0.056  16.824
  630TMC3    C8 9390   3.350   0.419  16.514
  630TMC3    O1 9391   3.280   4.753  16.859
  630TMC3    O2 9392   3.449   0.448  16.576
  631MPD2     C 9393   0.810   0.020  15.585
  631MPD2    C1 9394   0.895   0.104  15.522
  631MPD2    C2 9395   1.010   0.051  15.465
  631MPD2    C3 9396   1.041   4.726  15.472
  631MPD2    C4 9397   0.948   4.633  15.522
  631MPD2    C5 9398   0.837   4.686  15.593
  631MPD2     H 9399   1.095   0.114  15.439
  631MPD2    H1 9400   0.974   4.528  15.524
  631MPD2    H2 9401   0.727   0.058  15.643
  631MPD2    H3 9402   0.781   4.619  15.657
  631MPD2     N 9403   1.173   4.692  15.430
  631MPD2    H5 9404   1.227   4.766  15.388
  631MPD2    N1 9405   0.865   0.240  15.518
  631MPD2    H7 9406   0.788   0.277  15.574
  632TMC3    C1 9407   0.884   0.469  15.478
  632TMC3    C2 9408   0.750   0.483  15.468
  632TMC3    C3 9409   0.702   0.611  15.452
  632TMC3    C4 9410   0.972   0.571  15.458
  632TMC3    C5 9411   0.922   0.688  15.417
  632TMC3    C6 9412   0.789   0.715  15.419
  632TMC3     C 9413   0.937   0.333  15.459
  632TMC3     O 9414   1.032   0.318  15.381
  632TMC3     H 9415   0.676   0.406  15.490
  632TMC3    H1 9416   1.076   0.541  15.449
  632TMC3    H2 9417   0.750   0.813  15.397
  632TMC3    C7 9418   1.005   0.774  15.333
  632TMC3    C8 9419   0.562   0.643  15.494
  632TMC3    O1 9420   0.950   0.847  15.254
  632TMC3    O2 9421   0.491   0.548  15.477
  633MPD2     C 9422   0.742   2.812  17.479
  633MPD2    C1 9423   0.767   2.747  17.359
  633MPD2    C2 9424   0.758   2.609  17.359
  633MPD2    C3 9425   0.736   2.535  17.474
  633MPD2    C4 9426   0.712   2.602  17.586
  633MPD2    C5 9427   0.721   2.739  17.586
  633MPD2     H 9428   0.762   2.559  17.263
  633MPD2    H1 9429   0.692   2.555  17.681
  633MPD2    H2 9430   0.762   2.919  17.485
  633MPD2    H3 9431   0.702   2.801  17.672
  633MPD2     N 9432   0.741   2.393  17.487
  633MPD2    H5 9433   0.717   2.366  17.582
  633MPD2    N1 9434   0.805   2.803  17.236
  633MPD2    H7 9435   0.839   2.745  17.160
  634TMC3    C1 9436   0.871   2.973  17.096
  634TMC3    C2 9437   0.900   2.881  16.994
  634TMC3    C3 9438   0.954   2.922  16.874
  634TMC3    C4 9439   0.872   3.100  17.062
  634TMC3    C5 9440   0.914   3.142  16.935
  634TMC3    C6 9441   0.968   3.056  16.842
  634TMC3     C 9442   0.829   2.937  17.229
  634TMC3     O 9443   0.809   3.025  17.306
  634TMC3     H 9444   0.895   2.773  17.001
  634TMC3    H1 9445   0.853   3.170  17.142
  634TMC3    H2 9446   1.020   3.101  16.759
  634TMC3    C7 9447   0.892   3.277  16.900
  634TMC3    C8 9448   1.042   2.829  16.801
  634TMC3    O1 9449   0.960   3.320  16.802
  634TMC3    O2 9450   1.080   2.732  16.866
  635TMC3    C1 9451   0.905   4.313  17.882
  635TMC3    C2 9452   0.922   4.182  17.855
  635TMC3    C3 9453   0.821   4.100  17.874
  635TMC3    C4 9454   0.787   4.364  17.925
  635TMC3    C5 9455   0.681   4.281  17.926
  635TMC3    C6 9456   0.698   4.148  17.894
  635TMC3     C 9457   1.026   4.396  17.899
  635TMC3     O 9458   1.022   4.468  17.994
  635TMC3     H 9459   1.017   4.136  17.828
  635TMC3    H1 9460   0.774   4.470  17.940
  635TMC3    H2 9461   0.611   4.083  17.893
  635TMC3    C7 9462   0.554   4.340  17.915
  635TMC3    C8 9463   0.838   3.953  17.852
  635TMC3    O1 9464   0.471   4.303  17.830
  635TMC3    O2 9465   0.927   3.914  17.775
  636MPD2     C 9466   1.805   3.357  16.484
  636MPD2    C1 9467   1.918   3.401  16.549
  636MPD2    C2 9468   2.009   3.304  16.590
  636MPD2    C3 9469   1.992   3.168  16.548
  636MPD2    C4 9470   1.874   3.130  16.478
  636MPD2    C5 9471   1.787   3.227  16.454
  636MPD2     H 9472   2.102   3.326  16.641
  636MPD2    H1 9473   1.860   3.026  16.450
  636MPD2    H2 9474   1.739   3.435  16.447
  636MPD2    H3 9475   1.695   3.200  16.402
  636MPD2     N 9476   2.087   3.076  16.599
  636MPD2    H5 9477   2.154   3.113  16.666
  636MPD2    N1 9478   1.951   3.534  16.594
  636MPD2    H7 9479   2.034   3.550  16.651
  637TMC3    C1 9480   2.203   2.878  16.631
  637TMC3    C2 9481   2.269   2.952  16.725
  637TMC3    C3 9482   2.400   2.926  16.745
  637TMC3    C4 9483   2.264   2.778  16.560
  637TMC3    C5 9484   2.393   2.753  16.586
  637TMC3    C6 9485   2.464   2.818  16.685
  637TMC3     C 9486   2.097   2.940  16.559
  637TMC3     O 9487   2.043   2.876  16.470
  637TMC3     H 9488   2.226   3.029  16.787
  637TMC3    H1 9489   2.204   2.720  16.491
  637TMC3    H2 9490   2.572   2.812  16.689
  637TMC3    C7 9491   2.473   2.720  16.468
  637TMC3    C8 9492   2.467   3.051  16.721
  637TMC3    O1 9493   2.589   2.752  16.467
  637TMC3    O2 9494   2.399   3.127  16.648
  638MPD2     C 9495   1.823   2.153  15.356
  638MPD2    C1 9496   1.793   2.047  15.274
  638MPD2    C2 9497   1.746   1.937  15.343
  638MPD2    C3 9498   1.726   1.936  15.476
  638MPD2    C4 9499   1.755   2.043  15.550
  638MPD2    C5 9500   1.804   2.155  15.492
  638MPD2     H 9501   1.714   1.848  15.290
  638MPD2    H1 9502   1.726   2.048  15.654
  638MPD2    H2 9503   1.856   2.246  15.313
  638MPD2    H3 9504   1.832   2.242  15.551
  638MPD2     N 9505   1.667   1.819  15.534
  638MPD2    H5 9506   1.665   1.737  15.474
  638MPD2    N1 9507   1.824   2.048  15.138
  638MPD2    H7 9508   1.863   2.133  15.100
  639TMC3    C1 9509   1.620   1.643  15.667
  639TMC3    C2 9510   1.564   1.584  15.558
  639TMC3    C3 9511   1.589   1.451  15.534
  639TMC3    C4 9512   1.693   1.564  15.751
  639TMC3    C5 9513   1.709   1.428  15.725
  639TMC3    C6 9514   1.672   1.380  15.605
  639TMC3     C 9515   1.646   1.789  15.662
  639TMC3     O 9516   1.680   1.858  15.761
  639TMC3     H 9517   1.491   1.640  15.502
  639TMC3    H1 9518   1.747   1.599  15.839
  639TMC3    H2 9519   1.681   1.273  15.588
  639TMC3    C7 9520   1.823   1.359  15.782
  639TMC3    C8 9521   1.525   1.383  15.428
  639TMC3    O1 9522   1.821   1.345  15.902
  639TMC3    O2 9523   1.568   1.275  15.390
  640MPD2     C 9524   2.784   1.258  10.296
  640MPD2    C1 9525   2.682   1.219  10.211
  640MPD2    C2 9526   2.553   1.258  10.241
  640MPD2    C3 9527   2.528   1.341  10.353
  640MPD2    C4 9528   2.628   1.379  10.435
  640MPD2    C5 9529   2.759   1.338  10.404
  640MPD2     H 9530   2.475   1.229  10.173
  640MPD2    H1 9531   2.616   1.436  10.526
  640MPD2    H2 9532   2.885   1.231  10.269
  640MPD2    H3 9533   2.848   1.369  10.457
  640MPD2     N 9534   2.398   1.385  10.392
  640MPD2    H5 9535   2.393   1.431  10.483
  640MPD2    N1 9536   2.711   1.144  10.094
  640MPD2    H7 9537   2.802   1.099  10.095
  641TMC3    C1 9538   2.654   1.021   9.896
  641TMC3    C2 9539   2.757   0.929   9.918
  641TMC3    C3 9540   2.785   0.838   9.814
  641TMC3    C4 9541   2.577   1.012   9.785
  641TMC3    C5 9542   2.600   0.917   9.687
  641TMC3    C6 9543   2.710   0.832   9.698
  641TMC3     C 9544   2.630   1.137   9.984
  641TMC3     O 9545   2.537   1.209   9.954
  641TMC3     H 9546   2.814   0.934  10.010
  641TMC3    H1 9547   2.499   1.086   9.770
  641TMC3    H2 9548   2.725   0.757   9.621
  641TMC3    C7 9549   2.500   0.915   9.584
  641TMC3    C8 9550   2.869   0.724   9.839
  641TMC3    O1 9551   2.415   1.002   9.583
  641TMC3    O2 9552   2.862   0.634   9.756
  642TMC3    C1 9553   3.456   1.992  12.769
  642TMC3    C2 9554   3.583   2.020  12.812
  642TMC3    C3 9555   3.630   1.914  12.881
  642TMC3    C4 9556   3.379   1.875  12.793
  642TMC3    C5 9557   3.446   1.774  12.851
  642TMC3    C6 9558   3.566   1.792  12.911
  642TMC3     C 9559   3.396   2.113  12.712
  642TMC3     O 9560   3.458   2.187  12.636
  642TMC3     H 9561   3.641   2.107  12.784
  642TMC3    H1 9562   3.294   1.867  12.726
  642TMC3    H2 9563   3.618   1.714  12.966
  642TMC3    C7 9564   3.393   1.645  12.812
  642TMC3    C8 9565   3.759   1.925  12.934
  642TMC3    O1 9566   3.323   1.636  12.712
  642TMC3    O2 9567   3.781   1.856  13.034
  643TMC3    C1 9568   2.919   1.214  18.259
  643TMC3    C2 9569   2.820   1.247  18.168
  643TMC3    C3 9570   2.745   1.148  18.108
  643TMC3    C4 9571   2.932   1.086  18.307
  643TMC3    C5 9572   2.854   0.988  18.245
  643TMC3    C6 9573   2.767   1.019  18.138
  643TMC3     C 9574   2.986   1.327  18.331
  643TMC3     O 9575   2.978   1.434  18.280
  643TMC3     H 9576   2.805   1.354  18.154
  643TMC3    H1 9577   3.011   1.057  18.375
  643TMC3    H2 9578   2.696   0.944  18.106
  643TMC3    C7 9579   2.879   0.855  18.290
  643TMC3    C8 9580   2.687   1.167  17.978
  643TMC3    O1 9581   2.921   0.835  18.403
  643TMC3    O2 9582   2.614   1.086  17.921
  644MPD2     C 9583   2.792   1.646   9.868
  644MPD2    C1 9584   2.704   1.566   9.805
  644MPD2    C2 9585   2.569   1.591   9.787
  644MPD2    C3 9586   2.528   1.721   9.826
  644MPD2    C4 9587   2.623   1.809   9.879
  644MPD2    C5 9588   2.748   1.771   9.908
  644MPD2     H 9589   2.500   1.520   9.743
  644MPD2    H1 9590   2.593   1.908   9.910
  644MPD2    H2 9591   2.892   1.612   9.891
  644MPD2    H3 9592   2.822   1.834   9.955
  644MPD2     N 9593   2.396   1.746   9.802
  644MPD2    H5 9594   2.335   1.672   9.768
  644MPD2    N1 9595   2.767   1.446   9.757
  644MPD2    H7 9596   2.862   1.431   9.791
  645TMC3    C1 9597   2.206   1.883   9.759
  645TMC3    C2 9598   2.138   1.994   9.785
  645TMC3    C3 9599   2.024   2.018   9.711
  645TMC3    C4 9600   2.167   1.789   9.665
  645TMC3    C5 9601   2.054   1.818   9.597
  645TMC3    C6 9602   1.985   1.937   9.612
  645TMC3     C 9603   2.343   1.872   9.810
  645TMC3     O 9604   2.391   1.979   9.843
  645TMC3     H 9605   2.181   2.063   9.857
  645TMC3    H1 9606   2.226   1.704   9.631
  645TMC3    H2 9607   1.899   1.956   9.548
  645TMC3    C7 9608   2.019   1.746   9.478
  645TMC3    C8 9609   1.982   2.159   9.716
  645TMC3    O1 9610   1.962   1.810   9.389
  645TMC3    O2 9611   2.068   2.243   9.733
  646MPD2     C 9612   1.929   0.589  14.923
  646MPD2    C1 9613   1.879   0.648  15.037
  646MPD2    C2 9614   1.776   0.747  15.031
  646MPD2    C3 9615   1.722   0.781  14.907
  646MPD2    C4 9616   1.770   0.709  14.799
  646MPD2    C5 9617   1.873   0.622  14.806
  646MPD2     H 9618   1.735   0.790  15.122
  646MPD2    H1 9619   1.733   0.725  14.698
  646MPD2    H2 9620   2.010   0.517  14.923
  646MPD2    H3 9621   1.920   0.577  14.719
  646MPD2     N 9622   1.621   0.882  14.889
  646MPD2    H5 9623   1.581   0.929  14.969
  646MPD2    N1 9624   1.952   0.613  15.151
  646MPD2    H7 9625   2.042   0.566  15.147
  647TMC3    C1 9626   2.034   0.614  15.375
  647TMC3    C2 9627   2.005   0.613  15.511
  647TMC3    C3 9628   2.108   0.579  15.594
  647TMC3    C4 9629   2.167   0.591  15.327
  647TMC3    C5 9630   2.274   0.592  15.422
  647TMC3    C6 9631   2.241   0.588  15.555
  647TMC3     C 9632   1.923   0.644  15.284
  647TMC3     O 9633   1.816   0.695  15.323
  647TMC3     H 9634   1.902   0.617  15.545
  647TMC3    H1 9635   2.188   0.595  15.220
  647TMC3    H2 9636   2.314   0.567  15.632
  647TMC3    C7 9637   2.396   0.531  15.386
  647TMC3    C8 9638   2.099   0.455  15.664
  647TMC3    O1 9639   2.487   0.550  15.462
  647TMC3    O2 9640   2.197   0.385  15.669
  648TMC3    C1 9641   1.418   3.053  16.504
  648TMC3    C2 9642   1.497   2.940  16.508
  648TMC3    C3 9643   1.545   2.899  16.391
  648TMC3    C4 9644   1.393   3.116  16.389
  648TMC3    C5 9645   1.422   3.068  16.267
  648TMC3    C6 9646   1.502   2.952  16.270
  648TMC3     C 9647   1.392   3.122  16.623
  648TMC3     O 9648   1.388   3.245  16.619
  648TMC3     H 9649   1.540   2.906  16.601
  648TMC3    H1 9650   1.322   3.198  16.391
  648TMC3    H2 9651   1.524   2.895  16.181
  648TMC3    C7 9652   1.384   3.129  16.143
  648TMC3    C8 9653   1.632   2.785  16.408
  648TMC3    O1 9654   1.457   3.118  16.043
  648TMC3    O2 9655   1.648   2.746  16.523
  649TMC3    C1 9656   0.311   4.385  12.751
  649TMC3    C2 9657   0.442   4.425  12.758
  649TMC3    C3 9658   0.513   4.406  12.871
  649TMC3    C4 9659   0.245   4.324  12.855
  649TMC3    C5 9660   0.323   4.307  12.971
  649TMC3    C6 9661   0.460   4.338  12.975
  649TMC3     C 9662   0.227   4.399  12.637
  649TMC3     O 9663   0.108   4.405  12.661
  649TMC3     H 9664   0.490   4.468  12.671
  649TMC3    H1 9665   0.146   4.281  12.857
  649TMC3    H2 9666   0.524   4.314  13.059
  649TMC3    C7 9667   0.253   4.230  13.074
  649TMC3    C8 9668   0.654   4.401  12.865
  649TMC3    O1 9669   0.128   4.232  13.078
  649TMC3    O2 9670   0.717   4.325  12.940
  650TMC3    C1 9671   3.050   1.225  13.074
  650TMC3    C2 9672   3.008   1.344  13.126
  650TMC3    C3 9673   2.894   1.400  13.067
  650TMC3    C4 9674   2.987   1.164  12.968
  650TMC3    C5 9675   2.878   1.226  12.911
  650TMC3    C6 9676   2.828   1.347  12.954
  650TMC3     C 9677   3.169   1.162  13.141
  650TMC3     O 9678   3.230   1.238  13.218
  650TMC3     H 9679   3.033   1.376  13.227
  650TMC3    H1 9680   3.028   1.075  12.921
  650TMC3    H2 9681   2.739   1.394  12.914
  650TMC3    C7 9682   2.868   1.199  12.770
  650TMC3    C8 9683   2.837   1.515  13.123
  650TMC3    O1 9684   2.907   1.090  12.730
  650TMC3    O2 9685   2.911   1.602  13.160
  651MPD2     C 9686   1.541   3.367  10.786
  651MPD2    C1 9687   1.507   3.493  10.835
  651MPD2    C2 9688   1.614   3.563  10.884
  651MPD2    C3 9689   1.744   3.524  10.872
  651MPD2    C4 9690   1.769   3.403  10.812
  651MPD2    C5 9691   1.669   3.326  10.771
  651MPD2     H 9692   1.591   3.660  10.927
  651MPD2    H1 9693   1.870   3.366  10.802
  651MPD2    H2 9694   1.461   3.306  10.745
  651MPD2    H3 9695   1.689   3.233  10.718
  651MPD2     N 9696   1.840   3.610  10.931
  651MPD2    H5 9697   1.801   3.690  10.980
  651MPD2    N1 9698   1.371   3.541  10.862
  651MPD2    H7 9699   1.368   3.632  10.907
  652TMC3    C1 9700   2.255   3.785  11.050
  652TMC3    C2 9701   2.181   3.673  11.025
  652TMC3    C3 9702   2.051   3.695  10.986
  652TMC3    C4 9703   2.218   3.914  11.034
  652TMC3    C5 9704   2.089   3.928  10.990
  652TMC3    C6 9705   2.007   3.820  10.972
  652TMC3     C 9706   2.378   3.747  11.123
  652TMC3     O 9707   2.366   3.668  11.215
  652TMC3     H 9708   2.223   3.574  11.043
  652TMC3    H1 9709   2.279   4.002  11.051
  652TMC3    H2 9710   1.916   3.838  10.915
  652TMC3    C7 9711   2.022   4.051  11.030
  652TMC3    C8 9712   1.977   3.589  10.920
  652TMC3    O1 9713   1.900   4.045  11.034
  652TMC3    O2 9714   2.046   3.492  10.885
  653MPD2     C 9715   0.394   3.200  17.951
  653MPD2    C1 9716   0.340   3.271  17.855
  653MPD2    C2 9717   0.330   3.206  17.731
  653MPD2    C3 9718   0.348   3.070  17.716
  653MPD2    C4 9719   0.388   2.999  17.825
  653MPD2    C5 9720   0.415   3.061  17.935
  653MPD2     H 9721   0.290   3.254  17.642
  653MPD2    H1 9722   0.389   2.891  17.829
  653MPD2    H2 9723   0.431   3.248  18.041
  653MPD2    H3 9724   0.439   3.006  18.026
  653MPD2     N 9725   0.325   3.013  17.589
  653MPD2    H5 9726   0.303   3.066  17.505
  653MPD2    N1 9727   0.295   3.404  17.869
  653MPD2    H7 9728   0.288   3.445  17.776
  654TMC3    C1 9729   0.295   2.824  17.439
  654TMC3    C2 9730   0.202   2.890  17.363
  654TMC3    C3 9731   0.159   2.828  17.244
  654TMC3    C4 9732   0.348   2.701  17.407
  654TMC3    C5 9733   0.318   2.662  17.280
  654TMC3    C6 9734   0.227   2.719  17.198
  654TMC3     C 9735   0.334   2.874  17.572
  654TMC3     O 9736   0.368   2.782  17.642
  654TMC3     H 9737   0.139   2.971  17.398
  654TMC3    H1 9738   0.424   2.648  17.465
  654TMC3    H2 9739   0.209   2.674  17.101
  654TMC3    C7 9740   0.385   2.546  17.224
  654TMC3    C8 9741   0.049   2.880  17.169
  654TMC3    O1 9742   0.410   2.547  17.106
  654TMC3    O2 9743   0.006   2.994  17.191
  655MPD2     C 9744   1.949   3.085  15.854
  655MPD2    C1 9745   1.856   3.157  15.783
  655MPD2    C2 9746   1.827   3.125  15.653
  655MPD2    C3 9747   1.880   3.009  15.598
  655MPD2    C4 9748   1.971   2.941  15.674
  655MPD2    C5 9749   2.014   2.984  15.791
  655MPD2     H 9750   1.749   3.177  15.599
  655MPD2    H1 9751   2.025   2.851  15.646
  655MPD2    H2 9752   1.979   3.100  15.957
  655MPD2    H3 9753   2.096   2.938  15.846
  655MPD2     N 9754   1.842   2.949  15.472
  655MPD2    H5 9755   1.872   2.853  15.459
  655MPD2    N1 9756   1.774   3.258  15.852
  655MPD2    H7 9757   1.704   3.295  15.789
  656TMC3    C1 9758   1.693   3.411  16.014
  656TMC3    C2 9759   1.644   3.421  16.144
  656TMC3    C3 9760   1.579   3.538  16.180
  656TMC3    C4 9761   1.678   3.504  15.918
  656TMC3    C5 9762   1.613   3.618  15.964
  656TMC3    C6 9763   1.563   3.637  16.091
  656TMC3     C 9764   1.773   3.294  15.986
  656TMC3     O 9765   1.837   3.246  16.076
  656TMC3     H 9766   1.653   3.342  16.217
  656TMC3    H1 9767   1.728   3.502  15.822
  656TMC3    H2 9768   1.545   3.738  16.127
  656TMC3    C7 9769   1.559   3.709  15.862
  656TMC3    C8 9770   1.478   3.516  16.285
  656TMC3    O1 9771   1.627   3.714  15.760
  656TMC3    O2 9772   1.483   3.404  16.337
  657TMC3    C1 9773   0.635   2.719  15.245
  657TMC3    C2 9774   0.728   2.784  15.318
  657TMC3    C3 9775   0.731   2.922  15.305
  657TMC3    C4 9776   0.552   2.787  15.163
  657TMC3    C5 9777   0.563   2.922  15.152
  657TMC3    C6 9778   0.655   2.997  15.214
  657TMC3     C 9779   0.617   2.576  15.253
  657TMC3     O 9780   0.509   2.531  15.208
  657TMC3     H 9781   0.766   2.722  15.399
  657TMC3    H1 9782   0.483   2.727  15.106
  657TMC3    H2 9783   0.656   3.106  15.210
  657TMC3    C7 9784   0.473   2.982  15.061
  657TMC3    C8 9785   0.784   2.998  15.418
  657TMC3    O1 9786   0.367   2.923  15.047
  657TMC3    O2 9787   0.770   3.118  15.411
  658MPD2     C 9788   2.269   2.734  15.004
  658MPD2    C1 9789   2.141   2.724  14.954
  658MPD2    C2 9790   2.138   2.684  14.819
  658MPD2    C3 9791   2.250   2.645  14.746
  658MPD2    C4 9792   2.378   2.654  14.804
  658MPD2    C5 9793   2.383   2.690  14.937
  658MPD2     H 9794   2.045   2.687  14.763
  658MPD2    H1 9795   2.469   2.628  14.751
  658MPD2    H2 9796   2.282   2.742  15.111
  658MPD2    H3 9797   2.478   2.678  14.988
  658MPD2     N 9798   2.233   2.614  14.610
  658MPD2    H5 9799   2.140   2.618  14.571
  658MPD2    N1 9800   2.031   2.754  15.037
  658MPD2    H7 9801   2.057   2.788  15.129
  659TMC3    C1 9802   1.802   2.784  15.091
  659TMC3    C2 9803   1.830   2.849  15.210
  659TMC3    C3 9804   1.735   2.929  15.264
  659TMC3    C4 9805   1.677   2.789  15.039
  659TMC3    C5 9806   1.580   2.869  15.103
  659TMC3    C6 9807   1.607   2.942  15.213
  659TMC3     C 9808   1.896   2.741  14.995
  659TMC3     O 9809   1.854   2.673  14.907
  659TMC3     H 9810   1.932   2.845  15.246
  659TMC3    H1 9811   1.653   2.758  14.938
  659TMC3    H2 9812   1.532   3.010  15.251
  659TMC3    C7 9813   1.447   2.892  15.038
  659TMC3    C8 9814   1.773   3.015  15.373
  659TMC3    O1 9815   1.384   2.985  15.089
  659TMC3    O2 9816   1.730   3.131  15.373
  660MPD2     C 9817   0.096   1.994  12.834
  660MPD2    C1 9818   4.779   2.049  12.865
  660MPD2    C2 9819   4.719   2.004  12.983
  660MPD2    C3 9820   4.772   1.903  13.058
  660MPD2    C4 9821   0.090   1.857  13.024
  660MPD2    C5 9822   0.153   1.897  12.917
  660MPD2     H 9823   4.618   2.035  13.006
  660MPD2    H1 9824   0.139   1.777  13.080
  660MPD2    H2 9825   0.147   2.014  12.741
  660MPD2    H3 9826   0.246   1.849  12.887
  660MPD2     N 9827   4.703   1.838  13.169
  660MPD2    H5 9828   4.755   1.763  13.215
  660MPD2    N1 9829   4.732   2.154  12.779
  660MPD2    H7 9830   4.777   2.181  12.692
  661TMC3    C1 9831   4.570   2.306  12.690
  661TMC3    C2 9832   4.629   2.313  12.567
  661TMC3    C3 9833   4.592   2.402  12.477
  661TMC3    C4 9834   4.482   2.407  12.727
  661TMC3    C5 9835   4.439   2.491  12.625
  661TMC3    C6 9836   4.497   2.489  12.503
  661TMC3     C 9837   4.616   2.223  12.803
  661TMC3     O 9838   4.557   2.244  12.907
  661TMC3     H 9839   4.704   2.241  12.536
  661TMC3    H1 9840   4.419   2.399  12.815
  661TMC3    H2 9841   4.454   2.545  12.421
  661TMC3    C7 9842   4.292   2.500  12.623
  661TMC3    C8 9843   4.665   2.415  12.353
  661TMC3    O1 9844   4.246   2.554  12.726
  661TMC3    O2 9845   4.733   2.317  12.317
  662MPD2     C 9846   0.189   1.869  17.460
  662MPD2    C1 9847   0.165   1.784  17.569
  662MPD2    C2 9848   0.137   1.832  17.699
  662MPD2    C3 9849   0.112   1.969  17.718
  662MPD2    C4 9850   0.128   2.053  17.602
  662MPD2    C5 9851   0.163   2.000  17.478
  662MPD2     H 9852   0.145   1.765  17.784
  662MPD2    H1 9853   0.115   2.160  17.611
  662MPD2    H2 9854   0.190   1.833  17.358
  662MPD2    H3 9855   0.170   2.067  17.393
  662MPD2     N 9856   0.050   2.018  17.831
  662MPD2    H5 9857   4.803   2.104  17.816
  662MPD2    N1 9858   0.159   1.638  17.559
  662MPD2    H7 9859   0.126   1.590  17.642
  663TMC3    C1 9860   0.119   1.440  17.454
  663TMC3    C2 9861   0.015   1.432  17.543
  663TMC3    C3 9862   4.770   1.307  17.566
  663TMC3    C4 9863   0.167   1.345  17.377
  663TMC3    C5 9864   0.116   1.214  17.407
  663TMC3    C6 9865   0.019   1.197  17.503
  663TMC3     C 9866   0.183   1.565  17.444
  663TMC3     O 9867   0.224   1.603  17.334
  663TMC3     H 9868   4.777   1.508  17.608
  663TMC3    H1 9869   0.237   1.359  17.295
  663TMC3    H2 9870   4.779   1.099  17.514
  663TMC3    C7 9871   0.149   1.108  17.305
  663TMC3    C8 9872   4.650   1.281  17.645
  663TMC3    O1 9873   0.213   1.134  17.203
  663TMC3    O2 9874   4.589   1.177  17.617
  664MPD2     C 9875   2.656   4.348  17.537
  664MPD2    C1 9876   2.718   4.452  17.604
  664MPD2    C2 9877   2.697   4.471  17.739
  664MPD2    C3 9878   2.605   4.391  17.814
  664MPD2    C4 9879   2.555   4.280  17.749
  664MPD2    C5 9880   2.573   4.267  17.612
  664MPD2     H 9881   2.760   4.541  17.793
  664MPD2    H1 9882   2.485   4.208  17.791
  664MPD2    H2 9883   2.677   4.330  17.432
  664MPD2    H3 9884   2.531   4.175  17.571
  664MPD2     N 9885   2.605   4.405  17.952
  664MPD2    H5 9886   2.636   4.495  17.988
  664MPD2    N1 9887   2.801   4.542  17.536
  664MPD2    H7 9888   2.836   4.623  17.585
  665TMC3    C1 9889   2.593   4.348  18.177
  665TMC3    C2 9890   2.542   4.265  18.277
  665TMC3    C3 9891   2.610   4.267  18.395
  665TMC3    C4 9892   2.707   4.425  18.202
  665TMC3    C5 9893   2.757   4.431  18.329
  665TMC3    C6 9894   2.711   4.348  18.424
  665TMC3     C 9895   2.568   4.304  18.041
  665TMC3     O 9896   2.513   4.196  18.019
  665TMC3     H 9897   2.450   4.209  18.267
  665TMC3    H1 9898   2.757   4.479  18.123
  665TMC3    H2 9899   2.756   4.343  18.522
  665TMC3    C7 9900   2.787   4.569  18.365
  665TMC3    C8 9901   2.523   4.255  18.512
  665TMC3    O1 9902   2.819   4.652  18.278
  665TMC3    O2 9903   2.557   4.322  18.611
  666TMC3    C1 9904   1.652   0.037  10.411
  666TMC3    C2 9905   1.635   4.799  10.286
  666TMC3    C3 9906   1.662   0.067  10.182
  666TMC3    C4 9907   1.700   0.162  10.433
  666TMC3    C5 9908   1.722   0.240  10.328
  666TMC3    C6 9909   1.703   0.199  10.197
  666TMC3     C 9910   1.680   4.742  10.512
  666TMC3     O 9911   1.714   4.787  10.617
  666TMC3     H 9912   1.603   4.699  10.261
  666TMC3    H1 9913   1.719   0.199  10.533
  666TMC3    H2 9914   1.722   0.268  10.116
  666TMC3    C7 9915   1.807   0.349  10.358
  666TMC3    C8 9916   1.655   0.006  10.049
  666TMC3    O1 9917   1.808   0.390  10.475
  666TMC3    O2 9918   1.549   4.753  10.025
  667MPD2     C 9919   3.577   4.422  14.982
  667MPD2    C1 9920   3.499   4.499  15.067
  667MPD2    C2 9921   3.373   4.450  15.083
  667MPD2    C3 9922   3.327   4.334  15.028
  667MPD2    C4 9923   3.407   4.264  14.939
  667MPD2    C5 9924   3.530   4.311  14.915
  667MPD2     H 9925   3.309   4.516  15.142
  667MPD2    H1 9926   3.365   4.174  14.894
  667MPD2    H2 9927   3.678   4.456  14.963
  667MPD2    H3 9928   3.582   4.269  14.829
  667MPD2     N 9929   3.197   4.292  15.050
  667MPD2    H5 9930   3.164   4.213  14.994
  667MPD2    N1 9931   3.535   4.630  15.115
  667MPD2    H7 9932   3.469   4.670  15.181
  668TMC3    C1 9933   3.673   4.791  15.199
  668TMC3    C2 9934   3.784   0.069  15.165
  668TMC3    C3 9935   3.885   0.084  15.262
  668TMC3    C4 9936   3.672   4.734  15.322
  668TMC3    C5 9937   3.779   4.739  15.402
  668TMC3    C6 9938   3.878   0.019  15.385
  668TMC3     C 9939   3.647   4.711  15.086
  668TMC3     O 9940   3.741   4.678  15.014
  668TMC3     H 9941   3.778   0.126  15.073
  668TMC3    H1 9942   3.600   4.655  15.341
  668TMC3    H2 9943   3.962   0.028  15.453
  668TMC3    C7 9944   3.764   4.695  15.544
  668TMC3    C8 9945   3.955   0.209  15.258
  668TMC3    O1 9946   3.871   4.646  15.592
  668TMC3    O2 9947   4.011   0.235  15.365
  669TMC3    C1 9948   1.653   4.552  14.936
  669TMC3    C2 9949   1.553   4.539  14.846
  669TMC3    C3 9950   1.573   4.593  14.724
  669TMC3    C4 9951   1.766   4.631  14.910
  669TMC3    C5 9952   1.789   4.666  14.780
  669TMC3    C6 9953   1.678   4.671  14.692
  669TMC3     C 9954   1.639   4.480  15.058
  669TMC3     O 9955   1.523   4.453  15.090
  669TMC3     H 9956   1.456   4.498  14.870
  669TMC3    H1 9957   1.844   4.642  14.985
  669TMC3    H2 9958   1.704   4.690  14.589
  669TMC3    C7 9959   1.889   4.768  14.751
  669TMC3    C8 9960   1.466   4.605  14.645
  669TMC3    O1 9961   1.917   0.040  14.840
  669TMC3    O2 9962   1.376   4.522  14.642
  670MPD2     C 9963   0.320   2.352  13.591
  670MPD2    C1 9964   0.381   2.323  13.708
  670MPD2    C2 9965   0.303   2.302  13.826
  670MPD2    C3 9966   0.165   2.298  13.811
  670MPD2    C4 9967   0.111   2.328  13.683
  670MPD2    C5 9968   0.186   2.360  13.578
  670MPD2     H 9969   0.350   2.275  13.920
  670MPD2    H1 9970   0.004   2.315  13.668
  670MPD2    H2 9971   0.384   2.375  13.506
  670MPD2    H3 9972   0.150   2.397  13.482
  670MPD2     N 9973   0.082   2.279  13.929
  670MPD2    H5 9974   0.137   2.252  14.011
  670MPD2    N1 9975   0.522   2.325  13.729
  670MPD2    H7 9976   0.547   2.303  13.825
  671TMC3    C1 9977   4.708   2.282  14.077
  671TMC3    C2 9978   4.801   2.258  14.179
  671TMC3    C3 9979   4.750   2.178  14.280
  671TMC3    C4 9980   4.580   2.238  14.074
  671TMC3    C5 9981   4.547   2.153  14.176
  671TMC3    C6 9982   4.624   2.124  14.280
  671TMC3     C 9983   4.755   2.306  13.938
  671TMC3     O 9984   4.679   2.356  13.853
  671TMC3     H 9985   0.103   2.278  14.174
  671TMC3    H1 9986   4.525   2.247  13.981
  671TMC3    H2 9987   4.603   2.049  14.356
  671TMC3    C7 9988   4.483   2.040  14.120
  671TMC3    C8 9989   0.046   2.095  14.346
  671TMC3    O1 9990   4.500   2.014  14.000
  671TMC3    O2 9991   0.137   2.060  14.275
  672MPD2     C 9992   0.533   3.324  19.402
  672MPD2    C1 9993   0.605   3.294  19.289
  672MPD2    C2 9994   0.733   3.332  19.270
  672MPD2    C3 9995   0.799   3.407  19.365
  672MPD2    C4 9996   0.728   3.441  19.478
  672MPD2    C5 9997   0.594   3.409  19.495
  672MPD2     H 9998   0.780   3.299  19.178
  672MPD2    H1 9999   0.778   3.495  19.557
  672MPD2    H210000   0.430   3.291  19.409
  672MPD2    H310001   0.527   3.444  19.573
  672MPD2     N10002   0.944   3.440  19.372
  672MPD2    H510003   0.978   3.511  19.436
  672MPD2    N110004   0.569   3.203  19.193
  672MPD2    H710005   0.643   3.166  19.134
  673TMC3    C110006   0.452   3.034  19.091
  673TMC3    C210007   0.571   2.971  19.088
  673TMC3    C310008   0.594   2.876  18.988
  673TMC3    C410009   0.359   3.040  18.989
  673TMC3    C510010   0.381   2.940  18.898
  673TMC3    C610011   0.494   2.858  18.897
  673TMC3     C10012   0.446   3.148  19.183
  673TMC3     O10013   0.331   3.177  19.219
  673TMC3     H10014   0.626   2.961  19.181
  673TMC3    H110015   0.260   3.082  19.000
  673TMC3    H210016   0.488   2.772  18.832
  673TMC3    C710017   0.260   2.885  18.847
  673TMC3    C810018   0.694   2.771  18.995
  673TMC3    O110019   0.229   2.765  18.876
  673TMC3    O210020   0.660   2.670  18.936
  674MPD2     C10021   0.333   2.116  18.148
  674MPD2    C110022   0.252   2.107  18.259
  674MPD2    C210023   0.191   2.219  18.308
  674MPD2    C310024   0.209   2.334  18.241
  674MPD2    C410025   0.291   2.342  18.127
  674MPD2    C510026   0.353   2.231  18.084
  674MPD2     H10027   0.123   2.215  18.392
  674MPD2    H110028   0.300   2.440  18.083
  674MPD2    H210029   0.378   2.027  18.106
  674MPD2    H310030   0.420   2.239  17.999
  674MPD2     N10031   0.159   2.449  18.309
  674MPD2    H510032   0.111   2.433  18.397
  674MPD2    N110033   0.226   1.981  18.310
  674MPD2    H710034   0.245   1.910  18.240
  675TMC3    C110035   0.193   2.035  18.555
  675TMC3    C210036   0.122   2.001  18.668
  675TMC3    C310037   0.139   2.079  18.779
  675TMC3    C410038   0.291   2.132  18.562
  675TMC3    C510039   0.316   2.190  18.683
  675TMC3    C610040   0.235   2.176  18.789
  675TMC3     C10041   0.162   1.948  18.432
  675TMC3     O10042   0.104   1.840  18.460
  675TMC3     H10043   0.041   1.930  18.661
  675TMC3    H110044   0.364   2.133  18.482
  675TMC3    H210045   0.262   2.223  18.882
  675TMC3    C710046   0.390   2.317  18.674
  675TMC3    C810047   0.060   2.039  18.888
  675TMC3    O110048   0.410   2.372  18.780
  675TMC3    O210049   0.022   1.920  18.885
  676MPD2     C10050   3.455   0.856  11.531
  676MPD2    C110051   3.318   0.833  11.524
  676MPD2    C210052   3.270   0.734  11.447
  676MPD2    C310053   3.352   0.657  11.367
  676MPD2    C410054   3.490   0.674  11.382
  676MPD2    C510055   3.541   0.781  11.453
  676MPD2     H10056   3.162   0.728  11.435
  676MPD2    H110057   3.558   0.610  11.326
  676MPD2    H210058   3.499   0.935  11.592
  676MPD2    H310059   3.649   0.795  11.458
  676MPD2     N10060   3.306   0.553  11.281
  676MPD2    H510061   3.383   0.504  11.237
  676MPD2    N110062   3.221   0.910  11.586
  676MPD2    H710063   3.129   0.869  11.577
  677TMC3    C110064   3.128   1.089  11.714
  677TMC3    C210065   3.009   1.012  11.717
  677TMC3    C310066   2.899   1.070  11.775
  677TMC3    C410067   3.141   1.207  11.775
  677TMC3    C510068   3.027   1.260  11.832
  677TMC3    C610069   2.902   1.198  11.826
  677TMC3     C10070   3.240   1.037  11.639
  677TMC3     O10071   3.339   1.103  11.617
  677TMC3     H10072   2.985   0.918  11.669
  677TMC3    H110073   3.237   1.256  11.778
  677TMC3    H210074   2.821   1.259  11.864
  677TMC3    C710075   3.034   1.383  11.906
  677TMC3    C810076   2.822   0.968  11.854
  677TMC3    O110077   2.940   1.403  11.982
  677TMC3    O210078   2.858   0.852  11.856
  678MPD2     C10079   4.336   0.646  19.175
  678MPD2    C110080   4.351   0.754  19.095
  678MPD2    C210081   4.249   0.777  19.007
  678MPD2    C310082   4.132   0.702  18.998
  678MPD2    C410083   4.122   0.591  19.078
  678MPD2    C510084   4.229   0.564  19.161
  678MPD2     H10085   4.260   0.869  18.950
  678MPD2    H110086   4.037   0.524  19.076
  678MPD2    H210087   4.413   0.607  19.241
  678MPD2    H310088   4.215   0.472  19.217
  678MPD2     N10089   4.041   0.731  18.890
  678MPD2    H510090   4.076   0.795  18.820
  678MPD2    N110091   4.464   0.843  19.091
  678MPD2    H710092   4.462   0.927  19.036
  679TMC3    C110093   0.094   0.987  19.236
  679TMC3    C210094   4.794   0.902  19.239
  679TMC3    C310095   4.679   0.922  19.165
  679TMC3    C410096   0.102   1.049  19.116
  679TMC3    C510097   4.800   1.066  19.036
  679TMC3    C610098   4.682   1.007  19.062
  679TMC3     C10099   0.210   0.922  19.276
  679TMC3     O10100   0.231   0.829  19.199
  679TMC3     H10101   4.804   0.827  19.317
  679TMC3    H110102   0.190   1.104  19.084
  679TMC3    H210103   4.602   1.017  18.990
  679TMC3    C710104   4.797   1.185  18.944
  679TMC3    C810105   4.575   0.827  19.177
  679TMC3    O110106   4.685   1.230  18.922
  679TMC3    O210107   4.598   0.737  19.258
  680MPD2     C10108   4.115   4.087  13.520
  680MPD2    C110109   4.249   4.095  13.553
  680MPD2    C210110   4.296   4.213  13.612
  680MPD2    C310111   4.205   4.307  13.658
  680MPD2    C410112   4.069   4.298  13.621
  680MPD2    C510113   4.023   4.186  13.558
  680MPD2     H10114   4.403   4.214  13.631
  680MPD2    H110115   3.991   4.366  13.654
  680MPD2    H210116   4.074   4.004  13.464
  680MPD2    H310117   3.919   4.172  13.533
  680MPD2     N10118   4.244   4.420  13.735
  680MPD2    H510119   4.171   4.483  13.764
  680MPD2    N110120   4.347   4.003  13.511
  680MPD2    H710121   4.445   4.022  13.531
  681TMC3    C110122   4.439   3.797  13.444
  681TMC3    C210123   4.424   3.678  13.504
  681TMC3    C310124   4.506   3.647  13.608
  681TMC3    C410125   4.555   3.872  13.457
  681TMC3    C510126   4.645   3.831  13.560
  681TMC3    C610127   4.622   3.714  13.633
  681TMC3     C10128   4.318   3.877  13.454
  681TMC3     O10129   4.214   3.812  13.463
  681TMC3     H10130   4.324   3.637  13.515
  681TMC3    H110131   4.560   3.961  13.395
  681TMC3    H210132   4.690   3.679  13.709
  681TMC3    C710133   4.787   3.863  13.547
  681TMC3    C810134   4.428   3.617  13.725
  681TMC3    O110135   0.053   3.792  13.616
  681TMC3    O210136   4.340   3.535  13.712
  682MPD2     C10137   2.164   1.507  10.938
  682MPD2    C110138   2.096   1.391  10.963
  682MPD2    C210139   2.027   1.375  11.078
  682MPD2    C310140   2.049   1.458  11.186
  682MPD2    C410141   2.127   1.568  11.164
  682MPD2    C510142   2.189   1.591  11.043
  682MPD2     H10143   1.953   1.296  11.076
  682MPD2    H110144   2.160   1.629  11.247
  682MPD2    H210145   2.187   1.539  10.837
  682MPD2    H310146   2.243   1.684  11.033
  682MPD2     N10147   1.984   1.439  11.309
  682MPD2    H510148   1.974   1.513  11.379
  682MPD2    N110149   2.067   1.291  10.866
  682MPD2    H710150   2.000   1.218  10.885
  683TMC3    C110151   1.764   1.487  11.633
  683TMC3    C210152   1.633   1.440  11.617
  683TMC3    C310153   1.600   1.353  11.516
  683TMC3    C410154   1.857   1.448  11.539
  683TMC3    C510155   1.822   1.358  11.443
  683TMC3    C610156   1.692   1.308  11.429
  683TMC3     C10157   1.813   1.466  11.769
  683TMC3     O10158   1.908   1.528  11.817
  683TMC3     H10159   1.558   1.467  11.690
  683TMC3    H110160   1.956   1.482  11.566
  683TMC3    H210161   1.656   1.253  11.343
  683TMC3    C710162   1.914   1.331  11.343
  683TMC3    C810163   1.491   1.263  11.555
  683TMC3    O110164   1.883   1.226  11.283
  683TMC3    O210165   1.400   1.316  11.616
  684MPD2     C10166   4.782   4.804  16.546
  684MPD2    C110167   4.741   0.060  16.428
  684MPD2    C210168   4.730   0.199  16.421
  684MPD2    C310169   4.768   0.282  16.531
  684MPD2    C410170   0.004   0.218  16.648
  684MPD2    C510171   0.012   0.077  16.655
  684MPD2     H10172   4.716   0.248  16.325
  684MPD2    H110173   0.042   0.274  16.733
  684MPD2    H210174   4.794   4.697  16.561
  684MPD2    H310175   0.048   0.030  16.746
  684MPD2     N10176   4.784   0.421  16.523
  684MPD2    H510177   0.021   0.470  16.601
  684MPD2    N110178   4.740   4.789  16.304
  684MPD2    H710179   4.717   0.037  16.220
  685TMC3    C110180   4.748   4.606  16.151
  685TMC3    C210181   4.687   4.693  16.062
  685TMC3    C310182   4.700   4.655  15.931
  685TMC3    C410183   0.002   4.492  16.118
  685TMC3    C510184   0.027   4.469  15.986
  685TMC3    C610185   4.785   4.552  15.887
  685TMC3     C10186   4.774   4.656  16.285
  685TMC3     O10187   4.805   4.570  16.364
  685TMC3     H10188   4.622   4.776  16.086
  685TMC3    H110189   0.065   4.445  16.193
  685TMC3    H210190   4.795   4.527  15.782
  685TMC3    C710191   0.142   4.391  15.944
  685TMC3    C810192   4.607   4.702  15.834
  685TMC3    O110193   0.176   4.306  16.024
  685TMC3    O210194   4.618   4.670  15.714
  686MPD2     C10195   1.327   0.331  15.460
  686MPD2    C110196   1.385   0.222  15.528
  686MPD2    C210197   1.485   0.155  15.462
  686MPD2    C310198   1.503   0.173  15.323
  686MPD2    C410199   1.442   0.276  15.258
  686MPD2    C510200   1.365   0.363  15.335
  686MPD2     H10201   1.537   0.082  15.522
  686MPD2    H110202   1.446   0.288  15.150
  686MPD2    H210203   1.251   0.391  15.508
  686MPD2    H310204   1.327   0.451  15.284
  686MPD2     N10205   1.578   0.088  15.239
  686MPD2    H510206   1.595   0.107  15.141
  686MPD2    N110207   1.321   0.187  15.647
  686MPD2    H710208   1.245   0.241  15.686
  687TMC3    C110209   1.576   4.684  15.373
  687TMC3    C210210   1.439   4.674  15.370
  687TMC3    C310211   1.381   4.608  15.479
  687TMC3    C410212   1.655   4.614  15.464
  687TMC3    C510213   1.587   4.559  15.571
  687TMC3    C610214   1.450   4.557  15.580
  687TMC3     C10215   1.652   4.786  15.294
  687TMC3     O10216   1.754   4.741  15.249
  687TMC3     H10217   1.384   4.724  15.292
  687TMC3    H110218   1.760   4.640  15.469
  687TMC3    H210219   1.399   4.515  15.666
  687TMC3    C710220   1.663   4.529  15.690
  687TMC3    C810221   1.241   4.585  15.496
  687TMC3    O110222   1.627   4.565  15.798
  687TMC3    O210223   1.198   4.508  15.581
  688MPD2     C10224   0.566   4.063  17.619
  688MPD2    C110225   0.568   3.928  17.623
  688MPD2    C210226   0.666   3.863  17.541
  688MPD2    C310227   0.750   3.934  17.460
  688MPD2    C410228   0.739   4.072  17.454
  688MPD2    C510229   0.650   4.134  17.539
  688MPD2     H10230   0.682   3.757  17.553
  688MPD2    H110231   0.800   4.138  17.393
  688MPD2    H210232   0.496   4.116  17.683
  688MPD2    H310233   0.634   4.241  17.536
  688MPD2     N10234   0.834   3.870  17.356
  688MPD2    H510235   0.907   3.931  17.321
  688MPD2    N110236   0.486   3.849  17.705
  688MPD2    H710237   0.511   3.751  17.702
  689TMC3    C110238   0.322   3.820  17.884
  689TMC3    C210239   0.259   3.888  17.983
  689TMC3    C310240   0.207   3.811  18.084
  689TMC3    C410241   0.313   3.689  17.863
  689TMC3    C510242   0.258   3.619  17.969
  689TMC3    C610243   0.223   3.680  18.083
  689TMC3     C10244   0.378   3.903  17.772
  689TMC3     O10245   0.331   4.018  17.775
  689TMC3     H10246   0.283   3.993  17.994
  689TMC3    H110247   0.366   3.633  17.787
  689TMC3    H210248   0.177   3.621  18.162
  689TMC3    C710249   0.283   3.474  17.985
  689TMC3    C810250   0.184   3.873  18.210
  689TMC3    O110251   0.319   3.442  18.098
  689TMC3    O210252   0.175   3.807  18.312
  690MPD2     C10253   3.005   1.035  16.072
  690MPD2    C110254   2.972   0.937  15.975
  690MPD2    C210255   3.059   0.908  15.873
  690MPD2    C310256   3.181   0.969  15.864
  690MPD2    C410257   3.216   1.061  15.959
  690MPD2    C510258   3.132   1.095  16.060
  690MPD2     H10259   3.036   0.833  15.798
  690MPD2    H110260   3.303   1.124  15.948
  690MPD2    H210261   2.944   1.048  16.160
  690MPD2    H310262   3.167   1.174  16.126
  690MPD2     N10263   3.265   0.942  15.752
  690MPD2    H510264   3.221   0.901  15.671
  690MPD2    N110265   2.858   0.856  15.981
  690MPD2    H710266   2.857   0.779  15.916
  691TMC3    C110267   2.663   0.752  16.053
  691TMC3    C210268   2.533   0.780  16.064
  691TMC3    C310269   2.449   0.667  16.070
  691TMC3    C410270   2.724   0.636  16.045
  691TMC3    C510271   2.642   0.527  16.049
  691TMC3    C610272   2.507   0.541  16.059
  691TMC3     C10273   2.755   0.862  16.068
  691TMC3     O10274   2.706   0.959  16.122
  691TMC3     H10275   2.496   0.881  16.061
  691TMC3    H110276   2.831   0.626  16.028
  691TMC3    H210277   2.440   0.455  16.054
  691TMC3    C710278   2.702   0.402  16.040
  691TMC3    C810279   2.309   0.675  16.067
  691TMC3    O110280   2.823   0.403  16.066
  691TMC3    O210281   2.251   0.569  16.038
  692TMC3    C110282   4.661   1.794  15.971
  692TMC3    C210283   4.778   1.800  16.035
  692TMC3    C310284   0.051   1.688  16.048
  692TMC3    C410285   4.610   1.687  15.909
  692TMC3    C510286   4.689   1.574  15.924
  692TMC3    C610287   4.800   1.570  15.999
  692TMC3     C10288   4.557   1.883  16.019
  692TMC3     O10289   4.444   1.838  16.023
  692TMC3     H10290   0.004   1.894  16.080
  692TMC3    H110291   4.532   1.690  15.834
  692TMC3    H210292   0.060   1.484  15.997
  692TMC3    C710293   4.640   1.446  15.863
  692TMC3    C810294   0.150   1.667  16.158
  692TMC3    O110295   4.566   1.461  15.765
  692TMC3    O210296   0.154   1.556  16.212
  693MPD2     C10297   4.145   4.761  10.838
  693MPD2    C110298   4.052   4.663  10.859
  693MPD2    C210299   4.093   4.532  10.889
  693MPD2    C310300   4.231   4.505  10.897
  693MPD2    C410301   4.322   4.599  10.853
  693MPD2    C510302   4.282   4.728  10.831
  693MPD2     H10303   4.031   4.444  10.877
  693MPD2    H110304   4.428   4.594  10.873
  693MPD2    H210305   4.111   0.059  10.829
  693MPD2    H310306   4.357   4.803  10.808
  693MPD2     N10307   4.276   4.375  10.939
  693MPD2    H510308   4.373   4.348  10.923
  693MPD2    N110309   3.920   4.693  10.849
  693MPD2    H710310   3.890   4.789  10.837
  694TMC3    C110311   3.690   4.645  10.882
  694TMC3    C210312   3.592   4.577  10.825
  694TMC3    C310313   3.483   4.537  10.906
  694TMC3    C410314   3.689   4.679  11.017
  694TMC3    C510315   3.594   4.622  11.098
  694TMC3    C610316   3.490   4.555  11.043
  694TMC3     C10317   3.821   4.597  10.842
  694TMC3     O10318   3.826   4.491  10.785
  694TMC3     H10319   3.593   4.571  10.716
  694TMC3    H110320   3.770   4.740  11.056
  694TMC3    H210321   3.405   4.513  11.097
  694TMC3    C710322   3.605   4.629  11.237
  694TMC3    C810323   3.366   4.479  10.847
  694TMC3    O110324   3.691   4.703  11.282
  694TMC3    O210325   3.313   4.394  10.915
  695MPD2     C10326   0.443   1.669  13.745
  695MPD2    C110327   0.369   1.644  13.858
  695MPD2    C210328   0.240   1.651  13.841
  695MPD2    C310329   0.175   1.675  13.720
  695MPD2    C410330   0.254   1.680  13.606
  695MPD2    C510331   0.385   1.691  13.621
  695MPD2     H10332   0.177   1.656  13.929
  695MPD2    H110333   0.207   1.687  13.509
  695MPD2    H210334   0.551   1.660  13.745
  695MPD2    H310335   0.444   1.705  13.531
  695MPD2     N10336   0.037   1.695  13.714
  695MPD2    H510337   4.796   1.693  13.805
  695MPD2    N110338   0.422   1.629  13.987
  695MPD2    H710339   0.358   1.616  14.064
  696TMC3    C110340   4.628   1.768  13.660
  696TMC3    C210341   4.568   1.686  13.744
  696TMC3    C310342   4.445   1.719  13.792
  696TMC3    C410343   4.571   1.888  13.620
  696TMC3    C510344   4.450   1.919  13.671
  696TMC3    C610345   4.382   1.834  13.752
  696TMC3     C10346   4.762   1.749  13.613
  696TMC3     O10347   4.787   1.798  13.501
  696TMC3     H10348   4.618   1.600  13.786
  696TMC3    H110349   4.619   1.958  13.553
  696TMC3    H210350   4.283   1.859  13.790
  696TMC3    C710351   4.389   2.044  13.629
  696TMC3    C810352   4.369   1.602  13.823
  696TMC3    O110353   4.411   2.088  13.518
  696TMC3    O210354   4.399   1.508  13.751
  697MPD2     C10355   4.336   3.383  15.877
  697MPD2    C110356   4.348   3.316  15.762
  697MPD2    C210357   4.377   3.387  15.646
  697MPD2    C310358   4.380   3.526  15.640
  697MPD2    C410359   4.353   3.589  15.756
  697MPD2    C510360   4.331   3.523  15.874
  697MPD2     H10361   4.392   3.335  15.552
  697MPD2    H110362   4.335   3.694  15.771
  697MPD2    H210363   4.325   3.335  15.974
  697MPD2    H310364   4.323   3.577  15.968
  697MPD2     N10365   4.391   3.596  15.519
  697MPD2    H510366   4.393   3.540  15.434
  697MPD2    N110367   4.337   3.174  15.759
  697MPD2    H710368   4.357   3.130  15.670
  698TMC3    C110369   4.427   3.788  15.379
  698TMC3    C210370   4.458   3.921  15.391
  698TMC3    C310371   4.548   3.990  15.307
  698TMC3    C410372   4.496   3.715  15.289
  698TMC3    C510373   4.571   3.787  15.200
  698TMC3    C610374   4.605   3.918  15.205
  698TMC3     C10375   4.413   3.732  15.516
  698TMC3     O10376   4.411   3.821  15.603
  698TMC3     H10377   4.398   3.978  15.461
  698TMC3    H110378   4.479   3.612  15.259
  698TMC3    H210379   4.668   3.964  15.130
  698TMC3    C710380   4.549   3.739  15.063
  698TMC3    C810381   4.500   4.117  15.261
  698TMC3    O110382   4.434   3.697  15.041
  698TMC3    O210383   4.387   4.149  15.291
  699TMC3    C110384   4.533   1.780  13.311
  699TMC3    C210385   4.585   1.655  13.312
  699TMC3    C310386   4.498   1.554  13.351
  699TMC3    C410387   4.400   1.810  13.332
  699TMC3    C510388   4.314   1.699  13.364
  699TMC3    C610389   4.362   1.572  13.368
  699TMC3     C10390   4.592   1.886  13.231
  699TMC3     O10391   4.522   1.988  13.209
  699TMC3     H10392   4.692   1.639  13.311
  699TMC3    H110393   4.369   1.913  13.339
  699TMC3    H210394   4.299   1.495  13.411
  699TMC3    C710395   4.172   1.727  13.391
  699TMC3    C810396   4.552   1.448  13.437
  699TMC3    O110397   4.142   1.844  13.406
  699TMC3    O210398   4.470   1.360  13.465
  700TMC3    C110399   3.304   3.888  17.153
  700TMC3    C210400   3.349   3.759  17.142
  700TMC3    C310401   3.393   3.701  17.259
  700TMC3    C410402   3.278   3.944  17.269
  700TMC3    C510403   3.311   3.884  17.388
  700TMC3    C610404   3.373   3.762  17.383
  700TMC3     C10405   3.321   3.959  17.031
  700TMC3     O10406   3.300   3.901  16.926
  700TMC3     H10407   3.364   3.718  17.043
  700TMC3    H110408   3.249   4.049  17.272
  700TMC3    H210409   3.410   3.723  17.477
  700TMC3    C710410   3.335   3.975  17.498
  700TMC3    C810411   3.508   3.620  17.251
  700TMC3    O110412   3.437   3.949  17.570
  700TMC3    O210413   3.575   3.655  17.157
  701TMC3    C110414   3.826   2.473  15.769
  701TMC3    C210415   3.809   2.431  15.641
  701TMC3    C310416   3.862   2.500  15.533
  701TMC3    C410417   3.906   2.578  15.789
  701TMC3    C510418   3.959   2.652  15.686
  701TMC3    C610419   3.938   2.610  15.560
  701TMC3     C10420   3.706   2.482  15.849
  701TMC3     O10421   3.694   2.593  15.901
  701TMC3     H10422   3.743   2.349  15.616
  701TMC3    H110423   3.917   2.609  15.892
  701TMC3    H210424   3.973   2.673  15.479
  701TMC3    C710425   3.967   2.801  15.697
  701TMC3    C810426   3.825   2.473  15.392
  701TMC3    O110427   3.996   2.871  15.598
  701TMC3    O210428   3.903   2.524  15.311
  702MPD2     C10429   3.181   0.594  10.594
  702MPD2    C110430   3.095   0.613  10.696
  702MPD2    C210431   3.040   0.736  10.715
  702MPD2    C310432   3.069   0.844  10.636
  702MPD2    C410433   3.148   0.819  10.527
  702MPD2    C510434   3.197   0.698  10.508
  702MPD2     H10435   2.969   0.756  10.794
  702MPD2    H110436   3.186   0.899  10.465
  702MPD2    H210437   3.225   0.497  10.573
  702MPD2    H310438   3.256   0.676  10.420
  702MPD2     N10439   3.037   0.973  10.674
  702MPD2    H510440   3.096   1.042  10.629
  702MPD2    N110441   3.068   0.518  10.796
  702MPD2    H710442   3.002   0.544  10.869
  703TMC3    C110443   2.999   1.081  10.879
  703TMC3    C210444   2.945   1.057  11.000
  703TMC3    C310445   3.014   1.094  11.115
  703TMC3    C410446   3.124   1.136  10.874
  703TMC3    C510447   3.185   1.166  10.992
  703TMC3    C610448   3.129   1.154  11.113
  703TMC3     C10449   2.949   1.002  10.772
  703TMC3     O10450   2.842   0.953  10.794
  703TMC3     H10451   2.854   1.001  11.016
  703TMC3    H110452   3.180   1.142  10.781
  703TMC3    H210453   3.183   1.178  11.204
  703TMC3    C710454   3.326   1.194  10.982
  703TMC3    C810455   2.971   1.049  11.244
  703TMC3    O110456   3.368   1.225  10.870
  703TMC3    O210457   3.056   1.030  11.331
  704TMC3    C110458   1.370   3.390  13.202
  704TMC3    C210459   1.469   3.374  13.116
  704TMC3    C310460   1.550   3.263  13.122
  704TMC3    C410461   1.345   3.307  13.305
  704TMC3    C510462   1.415   3.188  13.304
  704TMC3    C610463   1.521   3.166  13.221
  704TMC3     C10464   1.249   3.445  13.144
  704TMC3     O10465   1.177   3.507  13.221
  704TMC3     H10466   1.486   3.453  13.044
  704TMC3    H110467   1.247   3.313  13.352
  704TMC3    H210468   1.566   3.068  13.215
  704TMC3    C710469   1.337   3.070  13.340
  704TMC3    C810470   1.553   3.215  12.990
  704TMC3    O110471   1.359   2.974  13.266
  704TMC3    O210472   1.464   3.256  12.918
  705MPD2     C10473   0.150   1.116  16.515
  705MPD2    C110474   0.203   1.225  16.580
  705MPD2    C210475   0.115   1.311  16.652
  705MPD2    C310476   4.788   1.270  16.669
  705MPD2    C410477   4.738   1.174  16.585
  705MPD2    C510478   0.017   1.093  16.515
  705MPD2     H10479   0.158   1.395  16.705
  705MPD2    H110480   4.633   1.148  16.579
  705MPD2    H210481   0.204   1.042  16.458
  705MPD2    H310482   4.778   1.021  16.446
  705MPD2     N10483   4.686   1.349  16.735
  705MPD2    H510484   4.589   1.322  16.720
  705MPD2    N110485   0.334   1.266  16.563
  705MPD2    H710486   0.376   1.332  16.628
  706TMC3    C110487   0.632   1.271  16.231
  706TMC3    C210488   0.612   1.406  16.201
  706TMC3    C310489   0.559   1.478  16.308
  706TMC3    C410490   0.609   1.215  16.355
  706TMC3    C510491   0.538   1.284  16.445
  706TMC3    C610492   0.513   1.417  16.423
  706TMC3     C10493   0.714   1.191  16.136
  706TMC3     O10494   0.770   1.087  16.180
  706TMC3     H10495   0.631   1.452  16.105
  706TMC3    H110496   0.627   1.108  16.367
  706TMC3    H210497   0.463   1.482  16.494
  706TMC3    C710498   0.418   1.214  16.467
  706TMC3    C810499   0.538   1.616  16.291
  706TMC3    O110500   0.401   1.140  16.376
  706TMC3    O210501   0.528   1.662  16.177
  707TMC3    C110502   2.021   0.770  18.560
  707TMC3    C210503   1.960   0.775  18.682
  707TMC3    C310504   1.849   0.690  18.704
  707TMC3    C410505   1.966   0.688  18.455
  707TMC3    C510506   1.857   0.605  18.492
  707TMC3    C610507   1.798   0.610  18.610
  707TMC3     C10508   2.170   0.762  18.564
  707TMC3     O10509   2.216   0.750  18.679
  707TMC3     H10510   2.007   0.825  18.766
  707TMC3    H110511   2.013   0.686  18.358
  707TMC3    H210512   1.721   0.541  18.643
  707TMC3    C710513   1.818   0.501  18.403
  707TMC3    C810514   1.829   0.663  18.849
  707TMC3    O110515   1.711   0.448  18.422
  707TMC3    O210516   1.841   0.753  18.926
  708MPD2     C10517   3.389   4.729  14.252
  708MPD2    C110518   3.291   4.744  14.345
  708MPD2    C210519   3.243   4.630  14.413
  708MPD2    C310520   3.301   4.507  14.392
  708MPD2    C410521   3.403   4.500  14.302
  708MPD2    C510522   3.450   4.608  14.235
  708MPD2     H10523   3.152   4.643  14.471
  708MPD2    H110524   3.467   4.413  14.295
  708MPD2    H210525   3.421   0.012  14.196
  708MPD2    H310526   3.534   4.598  14.167
  708MPD2     N10527   3.269   4.387  14.458
  708MPD2    H510528   3.302   4.303  14.412
  708MPD2    N110529   3.245   0.070  14.365
  708MPD2    H710530   3.299   0.139  14.313
  709TMC3    C110531   3.064   0.219  14.382
  709TMC3    C210532   3.024   0.202  14.252
  709TMC3    C310533   2.886   0.210  14.225
  709TMC3    C410534   2.977   0.264  14.471
  709TMC3    C510535   2.839   0.271  14.448
  709TMC3    C610536   2.796   0.246  14.320
  709TMC3     C10537   3.136   0.103  14.436
  709TMC3     O10538   3.061   0.038  14.504
  709TMC3     H10539   3.104   0.175  14.184
  709TMC3    H110540   3.018   0.263  14.572
  709TMC3    H210541   2.689   0.254  14.306
  709TMC3    C710542   2.751   0.275  14.565
  709TMC3    C810543   2.846   0.173  14.085
  709TMC3    O110544   2.806   0.301  14.672
  709TMC3    O210545   2.729   0.167  14.055
  710TMC3    C110546   4.376   1.716  18.499
  710TMC3    C210547   4.400   1.707  18.369
  710TMC3    C310548   4.528   1.688  18.324
  710TMC3    C410549   4.476   1.715  18.592
  710TMC3    C510550   4.600   1.700  18.544
  710TMC3    C610551   4.632   1.691  18.409
  710TMC3     C10552   4.247   1.660  18.546
  710TMC3     O10553   4.182   1.603  18.457
  710TMC3     H10554   4.312   1.702  18.306
  710TMC3    H110555   4.454   1.710  18.698
  710TMC3    H210556   4.735   1.693  18.374
  710TMC3    C710557   4.680   1.620  18.639
  710TMC3    C810558   4.545   1.630  18.190
  710TMC3    O110559   4.632   1.586  18.745
  710TMC3    O210560   4.664   1.630  18.154
  711TMC3    C110561   4.241   2.376  15.148
  711TMC3    C210562   4.217   2.421  15.277
  711TMC3    C310563   4.324   2.448  15.359
  711TMC3    C410564   4.367   2.358  15.101
  711TMC3    C510565   4.466   2.380  15.191
  711TMC3    C610566   4.451   2.443  15.313
  711TMC3     C10567   4.154   2.271  15.100
  711TMC3     O10568   4.188   2.203  15.005
  711TMC3     H10569   4.116   2.438  15.311
  711TMC3    H110570   4.394   2.308  15.009
  711TMC3    H210571   4.534   2.457  15.380
  711TMC3    C710572   4.530   2.246  15.223
  711TMC3    C810573   4.306   2.377  15.479
  711TMC3    O110574   4.617   2.242  15.307
  711TMC3    O210575   4.210   2.296  15.493
  712MPD2     C10576   0.441   3.403  13.708
  712MPD2    C110577   0.562   3.409  13.772
  712MPD2    C210578   0.655   3.500  13.737
  712MPD2    C310579   0.636   3.592  13.634
  712MPD2    C410580   0.515   3.592  13.572
  712MPD2    C510581   0.424   3.492  13.600
  712MPD2     H10582   0.748   3.491  13.793
  712MPD2    H110583   0.493   3.661  13.491
  712MPD2    H210584   0.364   3.327  13.719
  712MPD2    H310585   0.332   3.484  13.544
  712MPD2     N10586   0.732   3.691  13.607
  712MPD2    H510587   0.709   3.758  13.534
  712MPD2    N110588   0.599   3.300  13.863
  712MPD2    H710589   0.698   3.281  13.874
  713TMC3    C110590   0.907   3.847  13.650
  713TMC3    C210591   1.036   3.846  13.672
  713TMC3    C310592   1.102   3.953  13.628
  713TMC3    C410593   0.834   3.948  13.594
  713TMC3    C510594   0.904   4.059  13.549
  713TMC3    C610595   1.038   4.063  13.570
  713TMC3     C10596   0.838   3.725  13.688
  713TMC3     O10597   0.896   3.665  13.779
  713TMC3     H10598   1.088   3.755  13.702
  713TMC3    H110599   0.725   3.946  13.595
  713TMC3    H210600   1.091   4.154  13.541
  713TMC3    C710601   0.844   4.188  13.570
  713TMC3    C810602   1.228   3.979  13.691
  713TMC3    O110603   0.919   4.279  13.589
  713TMC3    O210604   1.296   4.066  13.638
  714MPD2     C10605   2.543   1.811  19.429
  714MPD2    C110606   2.644   1.903  19.402
  714MPD2    C210607   2.606   1.995  19.306
  714MPD2    C310608   2.482   2.018  19.259
  714MPD2    C410609   2.385   1.925  19.294
  714MPD2    C510610   2.419   1.820  19.372
  714MPD2     H10611   2.687   2.049  19.257
  714MPD2    H110612   2.281   1.929  19.266
  714MPD2    H210613   2.557   1.723  19.491
  714MPD2    H310614   2.342   1.746  19.386
  714MPD2     N10615   2.462   2.103  19.147
  714MPD2    H510616   2.544   2.136  19.098
  714MPD2    N110617   2.771   1.900  19.460
  714MPD2    H710618   2.799   1.818  19.513
  715TMC3    C110619   2.969   2.002  19.536
  715TMC3    C210620   3.054   1.893  19.505
  715TMC3    C310621   3.184   1.918  19.536
  715TMC3    C410622   3.009   2.124  19.581
  715TMC3    C510623   3.140   2.141  19.598
  715TMC3    C610624   3.231   2.039  19.578
  715TMC3     C10625   2.847   2.011  19.459
  715TMC3     O10626   2.813   2.128  19.445
  715TMC3     H10627   3.022   1.794  19.474
  715TMC3    H110628   2.938   2.198  19.616
  715TMC3    H210629   3.337   2.063  19.580
  715TMC3    C710630   3.195   2.260  19.649
  715TMC3    C810631   3.279   1.831  19.467
  715TMC3    O110632   3.317   2.261  19.665
  715TMC3    O210633   3.239   1.760  19.382
  716MPD2     C10634   3.038   0.612  10.157
  716MPD2    C110635   2.964   0.607  10.039
  716MPD2    C210636   2.939   0.482   9.990
  716MPD2    C310637   2.989   0.367  10.049
  716MPD2    C410638   3.072   0.373  10.164
  716MPD2    C510639   3.091   0.492  10.220
  716MPD2     H10640   2.860   0.468   9.917
  716MPD2    H110641   3.123   0.292  10.216
  716MPD2    H210642   3.068   0.707  10.198
  716MPD2    H310643   3.142   0.506  10.314
  716MPD2     N10644   2.945   0.247   9.991
  716MPD2    H510645   2.895   0.264   9.904
  716MPD2    N110646   2.917   0.725   9.970
  716MPD2    H710647   2.931   0.817  10.011
  717TMC3    C110648   2.970   0.028   9.923
  717TMC3    C210649   2.855   0.045   9.849
  717TMC3    C310650   2.827   4.754   9.753
  717TMC3    C410651   3.045   4.715   9.927
  717TMC3    C510652   3.002   4.620   9.834
  717TMC3    C610653   2.890   4.629   9.746
  717TMC3     C10654   2.993   0.122  10.031
  717TMC3     O10655   3.081   0.093  10.114
  717TMC3     H10656   2.788   0.128   9.865
  717TMC3    H110657   3.138   4.701   9.980
  717TMC3    H210658   2.844   4.549   9.689
  717TMC3    C710659   3.056   4.490   9.855
  717TMC3    C810660   2.709   4.789   9.670
  717TMC3    O110661   3.126   4.471   9.951
  717TMC3    O210662   2.657   0.093   9.695
  718MPD2     C10663   2.456   4.103  13.069
  718MPD2    C110664   2.346   4.041  13.015
  718MPD2    C210665   2.311   3.917  13.058
  718MPD2    C310666   2.391   3.853  13.153
  718MPD2    C410667   2.504   3.916  13.206
  718MPD2    C510668   2.532   4.048  13.169
  718MPD2     H10669   2.225   3.867  13.015
  718MPD2    H110670   2.570   3.870  13.278
  718MPD2    H210671   2.483   4.203  13.038
  718MPD2    H310672   2.622   4.095  13.207
  718MPD2     N10673   2.350   3.730  13.187
  718MPD2    H510674   2.283   3.696  13.118
  718MPD2    N110675   2.284   4.125  12.920
  718MPD2    H710676   2.320   4.217  12.896
  719TMC3    C110677   2.153   4.152  12.730
  719TMC3    C210678   2.125   4.039  12.647
  719TMC3    C310679   2.211   4.003  12.549
  719TMC3    C410680   2.247   4.240  12.699
  719TMC3    C510681   2.334   4.208  12.597
  719TMC3    C610682   2.312   4.092  12.523
  719TMC3     C10683   2.160   4.093  12.863
  719TMC3     O10684   2.084   4.005  12.888
  719TMC3     H10685   2.051   3.962  12.666
  719TMC3    H110686   2.243   4.334  12.753
  719TMC3    H210687   2.394   4.051  12.464
  719TMC3    C710688   2.440   4.308  12.569
  719TMC3    C810689   2.265   3.871  12.565
  719TMC3    O110690   2.490   4.285  12.456
  719TMC3    O210691   2.364   3.868  12.636
  720MPD2     C10692   0.506   0.756  14.306
  720MPD2    C110693   0.590   0.732  14.203
  720MPD2    C210694   0.721   0.695  14.230
  720MPD2    C310695   0.761   0.683  14.361
  720MPD2    C410696   0.677   0.684  14.464
  720MPD2    C510697   0.546   0.727  14.432
  720MPD2     H10698   0.803   0.695  14.159
  720MPD2    H110699   0.693   0.662  14.569
  720MPD2    H210700   0.401   0.780  14.292
  720MPD2    H310701   0.465   0.736  14.504
  720MPD2     N10702   0.902   0.655  14.384
  720MPD2    H510703   0.969   0.688  14.315
  720MPD2    N110704   0.560   0.773  14.071
  720MPD2    H710705   0.628   0.749  13.999
  721TMC3    C110706   1.092   0.654  14.521
  721TMC3    C210707   1.127   0.681  14.652
  721TMC3    C310708   1.255   0.720  14.684
  721TMC3    C410709   1.180   0.663  14.417
  721TMC3    C510710   1.307   0.700  14.457
  721TMC3    C610711   1.348   0.724  14.583
  721TMC3     C10712   0.958   0.607  14.499
  721TMC3     O10713   0.896   0.554  14.588
  721TMC3     H10714   1.059   0.669  14.736
  721TMC3    H110715   1.146   0.627  14.321
  721TMC3    H210716   1.452   0.736  14.609
  721TMC3    C710717   1.416   0.661  14.371
  721TMC3    C810718   1.321   0.679  14.811
  721TMC3    O110719   1.432   0.707  14.257
  721TMC3    O210720   1.422   0.614  14.800
  722MPD2     C10721   4.420   4.121  13.212
  722MPD2    C110722   4.391   4.243  13.272
  722MPD2    C210723   4.261   4.284  13.265
  722MPD2    C310724   4.155   4.209  13.214
  722MPD2    C410725   4.192   4.085  13.169
  722MPD2    C510726   4.321   4.056  13.154
  722MPD2     H10727   4.226   4.384  13.289
  722MPD2    H110728   4.117   4.018  13.129
  722MPD2    H210729   4.518   4.075  13.214
  722MPD2    H310730   4.349   3.967  13.099
  722MPD2     N10731   4.022   4.258  13.214
  722MPD2    H510732   4.003   4.353  13.244
  722MPD2    N110733   4.489   4.321  13.326
  722MPD2    H710734   4.456   4.409  13.363
  723TMC3    C110735   3.789   4.246  13.202
  723TMC3    C210736   3.676   4.164  13.228
  723TMC3    C310737   3.560   4.217  13.189
  723TMC3    C410738   3.768   4.374  13.153
  723TMC3    C510739   3.648   4.424  13.138
  723TMC3    C610740   3.545   4.339  13.147
  723TMC3     C10741   3.912   4.176  13.197
  723TMC3     O10742   3.902   4.056  13.204
  723TMC3     H10743   3.686   4.064  13.268
  723TMC3    H110744   3.857   4.433  13.132
  723TMC3    H210745   3.443   4.374  13.133
  723TMC3    C710746   3.613   4.551  13.093
  723TMC3    C810747   3.444   4.143  13.215
  723TMC3    O110748   3.544   4.562  12.992
  723TMC3    O210749   3.356   4.201  13.271
  724TMC3    C110750   0.138   2.316  10.578
  724TMC3    C210751   0.053   2.318  10.473
  724TMC3    C310752   0.108   2.361  10.349
  724TMC3    C410753   0.266   2.351  10.566
  724TMC3    C510754   0.316   2.381  10.442
  724TMC3    C610755   0.243   2.375  10.328
  724TMC3     C10756   0.106   2.230  10.695
  724TMC3     O10757   0.188   2.224  10.788
  724TMC3     H10758   4.751   2.326  10.487
  724TMC3    H110759   0.338   2.326  10.643
  724TMC3    H210760   0.280   2.413  10.234
  724TMC3    C710761   0.411   2.489  10.433
  724TMC3    C810762   0.040   2.467  10.277
  724TMC3    O110763   0.458   2.517  10.324
  724TMC3    O210764   4.723   2.459  10.266
  725TMC3    C110765   1.625   1.012  13.098
  725TMC3    C210766   1.612   0.975  12.969
  725TMC3    C310767   1.528   0.874  12.939
  725TMC3    C410768   1.567   0.946  13.197
  725TMC3    C510769   1.489   0.841  13.173
  725TMC3    C610770   1.462   0.803  13.039
  725TMC3     C10771   1.739   1.092  13.134
  725TMC3     O10772   1.717   1.196  13.195
  725TMC3     H10773   1.667   1.030  12.893
  725TMC3    H110774   1.582   0.981  13.299
  725TMC3    H210775   1.387   0.728  13.017
  725TMC3    C710776   1.433   0.761  13.282
  725TMC3    C810777   1.477   0.865  12.803
  725TMC3    O110778   1.366   0.838  13.354
  725TMC3    O210779   1.406   0.766  12.780
  726MPD2     C10780   3.896   2.483  10.315
  726MPD2    C110781   3.892   2.600  10.395
  726MPD2    C210782   3.787   2.610  10.489
  726MPD2    C310783   3.696   2.511  10.502
  726MPD2    C410784   3.716   2.388  10.438
  726MPD2    C510785   3.817   2.375  10.342
  726MPD2     H10786   3.772   2.699  10.549
  726MPD2    H110787   3.648   2.304  10.442
  726MPD2    H210788   3.983   2.482  10.250
  726MPD2    H310789   3.825   2.287  10.279
  726MPD2     N10790   3.588   2.504  10.601
  726MPD2    H510791   3.530   2.421  10.606
  726MPD2    N110792   3.991   2.706  10.385
  726MPD2    H710793   3.987   2.771  10.463
  727TMC3    C110794   4.124   2.854  10.290
  727TMC3    C210795   4.155   2.909  10.405
  727TMC3    C310796   4.115   3.037  10.423
  727TMC3    C410797   4.067   2.929  10.185
  727TMC3    C510798   4.031   3.057  10.208
  727TMC3    C610799   4.049   3.113  10.329
  727TMC3     C10800   4.079   2.716  10.287
  727TMC3     O10801   4.083   2.663  10.178
  727TMC3     H10802   4.192   2.852  10.489
  727TMC3    H110803   4.042   2.883  10.090
  727TMC3    H210804   3.989   3.201  10.351
  727TMC3    C710805   3.940   3.118  10.108
  727TMC3    C810806   4.145   3.100  10.551
  727TMC3    O110807   3.872   3.034  10.053
  727TMC3    O210808   4.209   3.040  10.635
  728TMC3    C110809   3.453   0.966  15.611
  728TMC3    C210810   3.586   0.965  15.598
  728TMC3    C310811   3.646   0.961  15.476
  728TMC3    C410812   3.371   0.986  15.498
  728TMC3    C510813   3.437   0.992  15.377
  728TMC3    C610814   3.568   0.961  15.362
  728TMC3     C10815   3.396   0.966  15.751
  728TMC3     O10816   3.467   1.002  15.845
  728TMC3     H10817   3.639   0.960  15.692
  728TMC3    H110818   3.263   0.999  15.490
  728TMC3    H210819   3.611   0.943  15.264
  728TMC3    C710820   3.360   0.994  15.255
  728TMC3    C810821   3.785   1.001  15.488
  728TMC3    O110822   3.250   0.945  15.245
  728TMC3    O210823   3.817   1.030  15.604
  729MPD2     C10824   1.051   2.020  16.714
  729MPD2    C110825   1.149   2.054  16.804
  729MPD2    C210826   1.125   2.051  16.944
  729MPD2    C310827   1.000   2.007  16.981
  729MPD2    C410828   0.906   1.972  16.885
  729MPD2    C510829   0.926   1.989  16.753
  729MPD2     H10830   1.200   2.083  17.016
  729MPD2    H110831   0.809   1.932  16.914
  729MPD2    H210832   1.067   2.023  16.607
  729MPD2    H310833   0.844   1.952  16.692
  729MPD2     N10834   0.965   2.000  17.116
  729MPD2    H510835   0.875   1.959  17.136
  729MPD2    N110836   1.270   2.092  16.757
  729MPD2    H710837   1.277   2.097  16.656
  730TMC3    C110838   0.977   2.033  17.348
  730TMC3    C210839   1.057   2.042  17.454
  730TMC3    C310840   1.016   2.120  17.562
  730TMC3    C410841   0.852   2.091  17.333
  730TMC3    C510842   0.812   2.174  17.441
  730TMC3    C610843   0.897   2.189  17.546
  730TMC3     C10844   1.050   2.020  17.221
  730TMC3     O10845   1.176   2.025  17.221
  730TMC3     H10846   1.146   1.981  17.463
  730TMC3    H110847   0.784   2.080  17.250
  730TMC3    H210848   0.867   2.243  17.635
  730TMC3    C710849   0.771   2.301  17.386
  730TMC3    C810850   1.133   2.204  17.591
  730TMC3    O110851   0.788   2.327  17.267
  730TMC3    O210852   1.246   2.153  17.574
  731MPD2     C10853   1.135   0.437  12.707
  731MPD2    C110854   1.214   0.342  12.651
  731MPD2    C210855   1.247   0.240  12.731
  731MPD2    C310856   1.210   0.228  12.868
  731MPD2    C410857   1.135   0.327  12.923
  731MPD2    C510858   1.104   0.432  12.837
  731MPD2     H10859   1.302   0.157  12.689
  731MPD2    H110860   1.104   0.332  13.027
  731MPD2    H210861   1.101   0.521  12.647
  731MPD2    H310862   1.055   0.525  12.867
  731MPD2     N10863   1.236   0.108  12.930
  731MPD2    H510864   1.303   0.046  12.885
  731MPD2    N110865   1.255   0.347  12.516
  731MPD2    H710866   1.243   0.438  12.473
  732TMC3    C110867   1.322   0.289  12.292
  732TMC3    C210868   1.272   0.204  12.197
  732TMC3    C310869   1.259   0.259  12.079
  732TMC3    C410870   1.376   0.415  12.274
  732TMC3    C510871   1.364   0.456  12.145
  732TMC3    C610872   1.306   0.383  12.040
  732TMC3     C10873   1.298   0.244  12.435
  732TMC3     O10874   1.280   0.126  12.456
  732TMC3     H10875   1.234   0.105  12.220
  732TMC3    H110876   1.429   0.458  12.358
  732TMC3    H210877   1.297   0.425  11.940
  732TMC3    C710878   1.449   0.561  12.103
  732TMC3    C810879   1.160   0.195  11.993
  732TMC3    O110880   1.459   0.580  11.979
  732TMC3    O210881   1.188   0.156  11.883
  733TMC3    C110882   2.270   3.336  13.318
  733TMC3    C210883   2.360   3.434  13.357
  733TMC3    C310884   2.418   3.506  13.256
  733TMC3    C410885   2.239   3.298  13.189
  733TMC3    C510886   2.314   3.364  13.090
  733TMC3    C610887   2.402   3.471  13.124
  733TMC3     C10888   2.143   3.333  13.389
  733TMC3     O10889   2.042   3.351  13.323
  733TMC3     H10890   2.364   3.473  13.458
  733TMC3    H110891   2.173   3.213  13.175
  733TMC3    H210892   2.437   3.536  13.044
  733TMC3    C710893   2.254   3.357  12.957
  733TMC3    C810894   2.423   3.651  13.281
  733TMC3    O110895   2.197   3.258  12.920
  733TMC3    O210896   2.466   3.691  13.388
  734MPD2     C10897   3.718   1.372  12.671
  734MPD2    C110898   3.766   1.256  12.605
  734MPD2    C210899   3.824   1.271  12.480
  734MPD2    C310900   3.858   1.398  12.432
  734MPD2    C410901   3.831   1.506  12.507
  734MPD2    C510902   3.765   1.494  12.629
  734MPD2     H10903   3.860   1.189  12.419
  734MPD2    H110904   3.841   1.605  12.464
  734MPD2    H210905   3.665   1.363  12.766
  734MPD2    H310906   3.733   1.580  12.686
  734MPD2     N10907   3.925   1.404  12.307
  734MPD2    H510908   3.957   1.313  12.277
  734MPD2    N110909   3.737   1.133  12.668
  734MPD2    H710910   3.704   1.128  12.764
  735TMC3    C110911   3.688   0.907  12.666
  735TMC3    C210912   3.590   0.882  12.577
  735TMC3    C310913   3.571   0.753  12.538
  735TMC3    C410914   3.753   0.800  12.720
  735TMC3    C510915   3.728   0.671  12.677
  735TMC3    C610916   3.631   0.639  12.590
  735TMC3     C10917   3.750   1.013  12.603
  735TMC3     O10918   3.805   0.982  12.500
  735TMC3     H10919   3.526   0.962  12.543
  735TMC3    H110920   3.835   0.832  12.783
  735TMC3    H210921   3.620   0.552  12.526
  735TMC3    C710922   3.835   0.582  12.698
  735TMC3    C810923   3.546   0.746  12.396
  735TMC3    O110924   3.945   0.621  12.743
  735TMC3    O210925   3.461   0.667  12.353
  736MPD2     C10926   3.824   0.221  12.650
  736MPD2    C110927   3.879   0.343  12.651
  736MPD2    C210928   4.017   0.353  12.637
  736MPD2    C310929   4.087   0.246  12.600
  736MPD2    C410930   4.032   0.122  12.607
  736MPD2    C510931   3.897   0.104  12.634
  736MPD2     H10932   4.057   0.454  12.636
  736MPD2    H110933   4.088   0.031  12.586
  736MPD2    H210934   3.716   0.214  12.650
  736MPD2    H310935   3.855   0.004  12.631
  736MPD2     N10936   4.217   0.245  12.562
  736MPD2    H510937   4.254   0.156  12.528
  736MPD2    N110938   3.794   0.454  12.655
  736MPD2    H710939   3.697   0.437  12.631
  737TMC3    C110940   4.429   0.342  12.493
  737TMC3    C210941   4.470   0.463  12.449
  737TMC3    C310942   4.533   0.466  12.325
  737TMC3    C410943   4.442   0.233  12.410
  737TMC3    C510944   4.505   0.242  12.286
  737TMC3    C610945   4.553   0.357  12.236
  737TMC3     C10946   4.289   0.362  12.533
  737TMC3     O10947   4.246   0.471  12.506
  737TMC3     H10948   4.461   0.561  12.496
  737TMC3    H110949   4.435   0.136  12.458
  737TMC3    H210950   4.570   0.370  12.129
  737TMC3    C710951   4.562   0.120  12.235
  737TMC3    C810952   4.588   0.597  12.287
  737TMC3    O110953   4.517   0.010  12.273
  737TMC3    O210954   4.598   0.681  12.375
  738MPD2     C10955   4.445   4.316  15.056
  738MPD2    C110956   4.571   4.282  15.099
  738MPD2    C210957   4.676   4.353  15.048
  738MPD2    C310958   4.663   4.446  14.946
  738MPD2    C410959   4.535   4.475  14.913
  738MPD2    C510960   4.426   4.412  14.967
  738MPD2     H10961   4.775   4.319  15.076
  738MPD2    H110962   4.523   4.547  14.833
  738MPD2    H210963   4.363   4.260  15.099
  738MPD2    H310964   4.325   4.435  14.935
  738MPD2     N10965   4.776   4.505  14.883
  738MPD2    H510966   4.763   4.569  14.806
  738MPD2    N110967   4.596   4.182  15.191
  738MPD2    H710968   4.694   4.155  15.196
  739TMC3    C110969   0.191   4.526  14.806
  739TMC3    C210970   0.150   4.563  14.682
  739TMC3    C310971   0.246   4.616  14.599
  739TMC3    C410972   0.308   4.570  14.866
  739TMC3    C510973   0.395   4.638  14.783
  739TMC3    C610974   0.372   4.655  14.648
  739TMC3     C10975   0.104   4.474  14.908
  739TMC3     O10976   0.156   4.424  15.010
  739TMC3     H10977   0.059   4.519  14.642
  739TMC3    H110978   0.329   4.553  14.971
  739TMC3    H210979   0.453   4.684  14.582
  739TMC3    C710980   0.523   4.678  14.848
  739TMC3    C810981   0.214   4.616  14.459
  739TMC3    O110982   0.553   4.613  14.949
  739TMC3    O210983   0.110   4.566  14.424
  740TMC3    C110984   0.652   1.007  14.586
  740TMC3    C210985   0.700   0.948  14.700
  740TMC3    C310986   0.839   0.931  14.714
  740TMC3    C410987   0.730   1.013  14.474
  740TMC3    C510988   0.868   0.995  14.493
  740TMC3    C610989   0.923   0.951  14.610
  740TMC3     C10990   0.512   1.038  14.569
  740TMC3     O10991   0.481   1.120  14.487
  740TMC3     H10992   0.649   0.955  14.795
  740TMC3    H110993   0.692   1.046  14.378
  740TMC3    H210994   1.031   0.941  14.616
  740TMC3    C710995   0.944   0.978  14.372
  740TMC3    C810996   0.892   0.867  14.830
  740TMC3    O110997   1.047   0.915  14.396
  740TMC3    O210998   1.009   0.873  14.851
  741TMC3    C110999   0.069   0.491  14.141
  741TMC3    C211000   4.768   0.403  14.149
  741TMC3    C311001   4.776   0.311  14.245
  741TMC3    C411002   0.172   0.481  14.228
  741TMC3    C511003   0.180   0.373  14.318
  741TMC3    C611004   0.074   0.288  14.334
  741TMC3     C11005   0.090   0.564  14.017
  741TMC3     O11006   0.202   0.611  13.993
  741TMC3     H11007   4.690   0.419  14.075
  741TMC3    H111008   0.257   0.542  14.200
  741TMC3    H211009   0.094   0.192  14.381
  741TMC3    C711010   0.289   0.383  14.413
  741TMC3    C811011   4.656   0.229  14.261
  741TMC3    O111012   0.395   0.421  14.372
  741TMC3    O211013   4.576   0.238  14.168
  742TMC3    C111014   0.179   3.535  15.697
  742TMC3    C211015   0.084   3.502  15.599
  742TMC3    C311016   0.133   3.500  15.468
  742TMC3    C411017   0.312   3.553  15.661
  742TMC3    C511018   0.348   3.564  15.534
  742TMC3    C611019   0.260   3.536  15.430
  742TMC3     C11020   0.158   3.500  15.835
  742TMC3     O11021   0.239   3.431  15.888
  742TMC3     H11022   4.785   3.498  15.631
  742TMC3    H111023   0.379   3.577  15.743
  742TMC3    H211024   0.297   3.548  15.329
  742TMC3    C711025   0.483   3.524  15.500
  742TMC3    C811026   0.056   3.441  15.359
  742TMC3    O111027   0.503   3.452  15.402
  742TMC3    O211028   0.091   3.472  15.247
  743MPD2     C11029   2.224   4.235  19.481
  743MPD2    C111030   2.270   4.352  19.431
  743MPD2    C211031   2.405   4.385  19.446
  743MPD2    C311032   2.494   4.281  19.471
  743MPD2    C411033   2.448   4.162  19.517
  743MPD2    C511034   2.312   4.144  19.528
  743MPD2     H11035   2.444   4.470  19.390
  743MPD2    H111036   2.511   4.077  19.543
  743MPD2    H211037   2.118   4.211  19.480
  743MPD2    H311038   2.273   4.050  19.566
  743MPD2     N11039   2.637   4.299  19.452
  743MPD2    H511040   2.668   4.394  19.435
  743MPD2    N111041   2.175   4.434  19.360
  743MPD2    H711042   2.078   4.402  19.353
  744TMC3    C111043   2.107   4.593  19.199
  744TMC3    C211044   2.107   4.728  19.172
  744TMC3    C311045   2.110   4.766  19.042
  744TMC3    C411046   2.104   4.500  19.098
  744TMC3    C511047   2.110   4.544  18.970
  744TMC3    C611048   2.106   4.678  18.940
  744TMC3     C11049   2.202   4.555  19.304
  744TMC3     O11050   2.301   4.622  19.302
  744TMC3     H11051   2.133   4.794  19.253
  744TMC3    H111052   2.120   4.394  19.116
  744TMC3    H211053   2.113   4.705  18.836
  744TMC3    C711054   2.177   4.457  18.877
  744TMC3    C811055   2.073   0.097  19.010
  744TMC3    O111056   2.261   4.516  18.809
  744TMC3    O211057   2.092   0.131  18.893
  745TMC3    C111058   0.534   3.076  13.914
  745TMC3    C211059   0.404   3.028  13.892
  745TMC3    C311060   0.378   2.976  13.768
  745TMC3    C411061   0.626   3.047  13.824
  745TMC3    C511062   0.600   2.995  13.703
  745TMC3    C611063   0.470   2.958  13.670
  745TMC3     C11064   0.511   3.215  13.928
  745TMC3     O11065   0.400   3.250  13.960
  745TMC3     H11066   0.326   3.033  13.966
  745TMC3    H111067   0.724   3.070  13.864
  745TMC3    H211068   0.431   2.932  13.572
  745TMC3    C711069   0.649   3.071  13.588
  745TMC3    C811070   0.246   3.010  13.712
  745TMC3    O111071   0.594   3.046  13.478
  745TMC3    O211072   0.215   2.982  13.597
  746TMC3    C111073   3.147   0.416  11.168
  746TMC3    C211074   3.198   0.411  11.036
  746TMC3    C311075   3.112   0.360  10.944
  746TMC3    C411076   3.019   0.380  11.198
  746TMC3    C511077   2.937   0.336  11.099
  746TMC3    C611078   2.989   0.311  10.970
  746TMC3     C11079   3.174   0.538  11.239
  746TMC3     O11080   3.069   0.598  11.276
  746TMC3     H11081   3.296   0.454  11.016
  746TMC3    H111082   2.982   0.404  11.297
  746TMC3    H211083   2.929   0.284  10.884
  746TMC3    C711084   2.802   0.386  11.106
  746TMC3    C811085   3.138   0.403  10.816
  746TMC3    O111086   2.733   0.334  11.023
  746TMC3    O211087   3.239   0.362  10.759
  747TMC3    C111088   0.525   0.215  11.545
  747TMC3    C211089   0.438   0.125  11.588
  747TMC3    C311090   0.413   0.123  11.720
  747TMC3    C411091   0.600   0.289  11.630
  747TMC3    C511092   0.589   0.265  11.766
  747TMC3    C611093   0.489   0.191  11.816
  747TMC3     C11094   0.524   0.262  11.412
  747TMC3     O11095   0.588   0.363  11.388
  747TMC3     H11096   0.371   0.081  11.515
  747TMC3    H111097   0.669   0.363  11.590
  747TMC3    H211098   0.490   0.176  11.923
  747TMC3    C711099   0.669   0.341  11.858
  747TMC3    C811100   0.296   0.047  11.767
  747TMC3    O111101   0.613   0.397  11.953
  747TMC3    O211102   0.267   4.756  11.695
  748MPD2     C11103   1.636   1.071  19.566
  748MPD2    C111104   1.693   0.962  19.500
  748MPD2    C211105   1.824   0.957  19.471
  748MPD2    C311106   1.909   1.063  19.497
  748MPD2    C411107   1.852   1.178  19.556
  748MPD2    C511108   1.717   1.177  19.587
  748MPD2     H11109   1.871   0.874  19.419
  748MPD2    H111110   1.905   1.271  19.568
  748MPD2    H211111   1.529   1.064  19.583
  748MPD2    H311112   1.676   1.269  19.628
  748MPD2     N11113   2.038   1.047  19.463
  748MPD2    H511114   2.070   0.954  19.438
  748MPD2    N111115   1.605   0.859  19.451
  748MPD2    H711116   1.506   0.882  19.445
  749TMC3    C111117   2.259   1.091  19.411
  749TMC3    C211118   2.302   0.983  19.485
  749TMC3    C311119   2.403   0.919  19.425
  749TMC3    C411120   2.313   1.140  19.301
  749TMC3    C511121   2.429   1.081  19.264
  749TMC3    C611122   2.471   0.969  19.322
  749TMC3     C11123   2.132   1.152  19.446
  749TMC3     O11124   2.112   1.270  19.422
  749TMC3     H11125   2.260   0.948  19.579
  749TMC3    H111126   2.269   1.224  19.249
  749TMC3    H211127   2.568   0.929  19.294
  749TMC3    C711128   2.486   1.100  19.134
  749TMC3    C811129   2.477   0.837  19.518
  749TMC3    O111130   2.427   1.187  19.074
  749TMC3    O211131   2.467   0.868  19.635
  750MPD2     C11132   3.113   2.646  11.612
  750MPD2    C111133   3.006   2.564  11.650
  750MPD2    C211134   3.010   2.425  11.629
  750MPD2    C311135   3.114   2.360  11.561
  750MPD2    C411136   3.225   2.441  11.529
  750MPD2    C511137   3.212   2.582  11.542
  750MPD2     H11138   2.927   2.362  11.660
  750MPD2    H111139   3.316   2.411  11.478
  750MPD2    H211140   3.120   2.753  11.628
  750MPD2    H311141   3.293   2.645  11.508
  750MPD2     N11142   3.122   2.222  11.530
  750MPD2    H511143   3.193   2.186  11.468
  750MPD2    N111144   2.905   2.627  11.721
  750MPD2    H711145   2.939   2.717  11.753
  751TMC3    C111146   3.078   1.985  11.592
  751TMC3    C211147   3.022   1.908  11.692
  751TMC3    C311148   2.987   1.777  11.670
  751TMC3    C411149   3.080   1.933  11.464
  751TMC3    C511150   3.046   1.800  11.444
  751TMC3    C611151   3.001   1.713  11.544
  751TMC3     C11152   3.057   2.129  11.607
  751TMC3     O11153   2.982   2.155  11.701
  751TMC3     H11154   3.018   1.946  11.794
  751TMC3    H111155   3.110   1.992  11.378
  751TMC3    H211156   2.957   1.615  11.528
  751TMC3    C711157   3.079   1.748  11.309
  751TMC3    C811158   2.861   1.742  11.734
  751TMC3    O111159   3.179   1.787  11.255
  751TMC3    O211160   2.826   1.624  11.738
  752TMC3    C111161   1.694   2.277  17.735
  752TMC3    C211162   1.673   2.146  17.708
  752TMC3    C311163   1.630   2.067  17.816
  752TMC3    C411164   1.647   2.330  17.849
  752TMC3    C511165   1.588   2.250  17.951
  752TMC3    C611166   1.590   2.112  17.935
  752TMC3     C11167   1.759   2.369  17.642
  752TMC3     O11168   1.818   2.468  17.689
  752TMC3     H11169   1.703   2.108  17.611
  752TMC3    H111170   1.652   2.437  17.862
  752TMC3    H211171   1.557   2.053  18.020
  752TMC3    C711172   1.522   2.318  18.057
  752TMC3    C811173   1.647   1.926  17.789
  752TMC3    O111174   1.535   2.440  18.064
  752TMC3    O211175   1.727   1.890  17.702
  753TMC3    C111176   3.888   2.937  13.691
  753TMC3    C211177   3.919   2.938  13.822
  753TMC3    C311178   3.902   2.818  13.885
  753TMC3    C411179   3.837   2.834  13.618
  753TMC3    C511180   3.827   2.715  13.687
  753TMC3    C611181   3.869   2.703  13.815
  753TMC3     C11182   3.848   3.066  13.641
  753TMC3     O11183   3.748   3.086  13.577
  753TMC3     H11184   3.931   3.033  13.874
  753TMC3    H111185   3.802   2.847  13.516
  753TMC3    H211186   3.849   2.617  13.877
  753TMC3    C711187   3.812   2.595  13.604
  753TMC3    C811188   3.870   2.827  14.024
  753TMC3    O111189   3.775   2.610  13.489
  753TMC3    O211190   3.785   2.748  14.048
  754MPD2     C11191   2.974   1.796  13.502
  754MPD2    C111192   2.919   1.674  13.499
  754MPD2    C211193   2.785   1.664  13.491
  754MPD2    C311194   2.704   1.770  13.512
  754MPD2    C411195   2.756   1.892  13.520
  754MPD2    C511196   2.893   1.907  13.512
  754MPD2     H11197   2.735   1.571  13.466
  754MPD2    H111198   2.694   1.981  13.518
  754MPD2    H211199   3.079   1.821  13.492
  754MPD2    H311200   2.941   2.004  13.521
  754MPD2     N11201   2.566   1.758  13.523
  754MPD2    H511202   2.510   1.840  13.546
  754MPD2    N111203   3.000   1.568  13.505
  754MPD2    H711204   3.098   1.590  13.489
  755MPD2     C11205   1.947   2.398  13.474
  755MPD2    C111206   1.883   2.285  13.532
  755MPD2    C211207   1.951   2.164  13.526
  755MPD2    C311208   2.065   2.148  13.450
  755MPD2    C411209   2.119   2.254  13.383
  755MPD2    C511210   2.062   2.380  13.402
  755MPD2     H11211   1.913   2.077  13.578
  755MPD2    H111212   2.212   2.253  13.328
  755MPD2    H211213   1.905   2.496  13.496
  755MPD2    H311214   2.115   2.465  13.361
  755MPD2     N11215   2.127   2.013  13.421
  755MPD2    H511216   2.215   2.011  13.369
  755MPD2    N111217   1.778   2.289  13.626
  755MPD2    H711218   1.752   2.203  13.674
  756MPD2     C11219   2.407   3.194  10.114
  756MPD2    C111220   2.318   3.089  10.132
  756MPD2    C211221   2.206   3.077  10.057
  756MPD2    C311222   2.178   3.166   9.952
  756MPD2    C411223   2.278   3.260   9.927
  756MPD2    C511224   2.391   3.271  10.008
  756MPD2     H11225   2.140   2.996  10.085
  756MPD2    H111226   2.275   3.323   9.839
  756MPD2    H211227   2.489   3.219  10.180
  756MPD2    H311228   2.459   3.355  10.000
  756MPD2     N11229   2.055   3.156   9.879
  756MPD2    H511230   2.010   3.067   9.897
  756MPD2    N111231   2.347   2.984  10.225
  756MPD2    H711232   2.281   2.910  10.245
  757MPD2     C11233   1.415   2.590   9.927
  757MPD2    C111234   1.552   2.576   9.940
  757MPD2    C211235   1.639   2.674   9.884
  757MPD2    C311236   1.588   2.783   9.817
  757MPD2    C411237   1.447   2.793   9.812
  757MPD2    C511238   1.367   2.692   9.855
  757MPD2     H11239   1.747   2.669   9.884
  757MPD2    H111240   1.387   2.878   9.781
  757MPD2    H211241   1.351   2.519   9.978
  757MPD2    H311242   1.262   2.718   9.847
  757MPD2     N11243   1.671   2.886   9.763
  757MPD2    H511244   1.772   2.872   9.765
  757MPD2    N111245   1.591   2.454   9.995
  757MPD2    H711246   1.518   2.385  10.004
  758MPD2     C11247   2.354   1.693  16.161
  758MPD2    C111248   2.447   1.655  16.258
  758MPD2    C211249   2.420   1.670  16.388
  758MPD2    C311250   2.296   1.708  16.434
  758MPD2    C411251   2.208   1.755  16.339
  758MPD2    C511252   2.228   1.725  16.205
  758MPD2     H11253   2.493   1.656  16.468
  758MPD2    H111254   2.113   1.798  16.367
  758MPD2    H211255   2.368   1.683  16.054
  758MPD2    H311256   2.166   1.763  16.125
  758MPD2     N11257   2.255   1.709  16.570
  758MPD2    H511258   2.176   1.763  16.603
  758MPD2    N111259   2.575   1.621  16.211
  758MPD2    H711260   2.585   1.602  16.112
  759MPD2     C11261   1.317   0.139  10.278
  759MPD2    C111262   1.324   0.205  10.403
  759MPD2    C211263   1.371   0.337  10.405
  759MPD2    C311264   1.419   0.396  10.288
  759MPD2    C411265   1.412   0.332  10.170
  759MPD2    C511266   1.359   0.207  10.169
  759MPD2     H11267   1.380   0.396  10.495
  759MPD2    H111268   1.439   0.385  10.080
  759MPD2    H211269   1.270   0.042  10.266
  759MPD2    H311270   1.354   0.144  10.081
  759MPD2     N11271   1.465   0.530  10.297
  759MPD2    H511272   1.435   0.581  10.379
  759MPD2    N111273   1.303   0.143  10.527
  759MPD2    H711274   1.304   0.204  10.607
  760MPD2     C11275   1.020   2.019  11.669
  760MPD2    C111276   1.010   2.023  11.805
  760MPD2    C211277   1.036   1.898  11.869
  760MPD2    C311278   1.071   1.779  11.797
  760MPD2    C411279   1.079   1.784  11.661
  760MPD2    C511280   1.058   1.907  11.599
  760MPD2     H11281   1.032   1.897  11.977
  760MPD2    H111282   1.089   1.691  11.607
  760MPD2    H211283   1.016   2.112  11.615
  760MPD2    H311284   1.066   1.906  11.491
  760MPD2     N11285   1.107   1.663  11.857
  760MPD2    H511286   1.145   1.591  11.796
  760MPD2    N111287   0.967   2.136  11.879
  760MPD2    H711288   0.936   2.128  11.975
  761MPD2     C11289   2.393   1.849  11.890
  761MPD2    C111290   2.428   1.754  11.799
  761MPD2    C211291   2.565   1.746  11.771
  761MPD2    C311292   2.655   1.839  11.825
  761MPD2    C411293   2.605   1.934  11.910
  761MPD2    C511294   2.476   1.942  11.953
  761MPD2     H11295   2.598   1.677  11.694
  761MPD2    H111296   2.676   2.005  11.952
  761MPD2    H211297   2.290   1.849  11.925
  761MPD2    H311298   2.438   2.023  12.014
  761MPD2     N11299   2.795   1.838  11.803
  761MPD2    H511300   2.850   1.910  11.848
  761MPD2    N111301   2.332   1.662  11.756
  761MPD2    H711302   2.242   1.661  11.803
  762MPD2     C11303   2.612   0.951  11.583
  762MPD2    C111304   2.566   1.047  11.494
  762MPD2    C211305   2.644   1.073  11.386
  762MPD2    C311306   2.762   1.008  11.364
  762MPD2    C411307   2.813   0.917  11.454
  762MPD2    C511308   2.731   0.893  11.563
  762MPD2     H11309   2.614   1.151  11.317
  762MPD2    H111310   2.902   0.857  11.434
  762MPD2    H211311   2.566   0.933  11.679
  762MPD2    H311312   2.760   0.813  11.630
  762MPD2     N11313   2.835   1.043  11.251
  762MPD2    H511314   2.779   1.092  11.182
  762MPD2    N111315   2.443   1.114  11.523
  762MPD2    H711316   2.406   1.080  11.611
  763MPD2     C11317   4.633   1.528  16.372
  763MPD2    C111318   4.513   1.588  16.345
  763MPD2    C211319   4.489   1.719  16.395
  763MPD2    C311320   4.590   1.769  16.481
  763MPD2    C411321   4.704   1.703  16.517
  763MPD2    C511322   4.729   1.589  16.446
  763MPD2     H11323   4.397   1.768  16.364
  763MPD2    H111324   4.775   1.742  16.589
  763MPD2    H211325   4.662   1.436  16.321
  763MPD2    H311326   0.010   1.532  16.479
  763MPD2     N11327   4.580   1.906  16.525
  763MPD2    H511328   4.655   1.966  16.556
  763MPD2    N111329   4.421   1.527  16.260
  763MPD2    H711330   4.339   1.581  16.237
  764MPD2     C11331   2.243   3.455  17.726
  764MPD2    C111332   2.145   3.393  17.657
  764MPD2    C211333   2.070   3.292  17.722
  764MPD2    C311334   2.082   3.266  17.857
  764MPD2    C411335   2.194   3.324  17.918
  764MPD2    C511336   2.270   3.419  17.859
  764MPD2     H11337   1.998   3.236  17.664
  764MPD2    H111338   2.214   3.306  18.023
  764MPD2    H211339   2.300   3.536  17.681
  764MPD2    H311340   2.342   3.475  17.918
  764MPD2     N11341   1.992   3.183  17.923
  764MPD2    H511342   1.915   3.151  17.865
  764MPD2    N111343   2.121   3.415  17.518
  764MPD2    H711344   2.036   3.366  17.489
  765MPD2     C11345   1.857   0.908  16.036
  765MPD2    C111346   1.944   0.989  16.100
  765MPD2    C211347   2.078   0.958  16.112
  765MPD2    C311348   2.125   0.841  16.068
  765MPD2    C411349   2.039   0.761  15.998
  765MPD2    C511350   1.905   0.790  15.981
  765MPD2     H11351   2.148   1.026  16.161
  765MPD2    H111352   2.072   0.674  15.942
  765MPD2    H211353   1.750   0.925  16.029
  765MPD2    H311354   1.842   0.722  15.925
  765MPD2     N11355   2.263   0.806  16.090
  765MPD2    H511356   2.328   0.867  16.137
  765MPD2    N111357   1.891   1.104  16.162
  765MPD2    H711358   1.791   1.122  16.155
  766MPD2     C11359   1.349   1.330  15.847
  766MPD2    C111360   1.442   1.255  15.908
  766MPD2    C211361   1.505   1.161  15.830
  766MPD2    C311362   1.463   1.138  15.700
  766MPD2    C411363   1.360   1.208  15.639
  766MPD2    C511364   1.306   1.302  15.723
  766MPD2     H11365   1.588   1.106  15.872
  766MPD2    H111366   1.318   1.193  15.540
  766MPD2    H211367   1.300   1.417  15.888
  766MPD2    H311368   1.226   1.360  15.679
  766MPD2     N11369   1.535   1.060  15.605
  766MPD2    H511370   1.527   1.082  15.506
  766MPD2    N111371   1.491   1.303  16.037
  766MPD2    H711372   1.451   1.387  16.076
  767MPD2     C11373   1.173   1.435  15.324
  767MPD2    C111374   1.302   1.382  15.315
  767MPD2    C211375   1.323   1.275  15.225
  767MPD2    C311376   1.217   1.227  15.148
  767MPD2    C411377   1.089   1.279  15.168
  767MPD2    C511378   1.064   1.386  15.250
  767MPD2     H11379   1.423   1.235  15.213
  767MPD2    H111380   1.011   1.231  15.110
  767MPD2    H211381   1.151   1.518  15.390
  767MPD2    H311382   0.969   1.437  15.259
  767MPD2     N11383   1.246   1.133  15.048
  767MPD2    H511384   1.336   1.088  15.059
  767MPD2    N111385   1.399   1.439  15.399
  767MPD2    H711386   1.371   1.514  15.462
  768MPD2     C11387   2.507   0.192  10.676
  768MPD2    C111388   2.429   0.162  10.787
  768MPD2    C211389   2.488   0.076  10.877
  768MPD2    C311390   2.623   0.044  10.876
  768MPD2    C411391   2.701   0.086  10.772
  768MPD2    C511392   2.645   0.153  10.674
  768MPD2     H11393   2.433   0.054  10.967
  768MPD2    H111394   2.807   0.062  10.773
  768MPD2    H211395   2.468   0.267  10.608
  768MPD2    H311396   2.710   0.190  10.596
  768MPD2     N11397   2.688   4.784  10.987
  768MPD2    H511398   2.789   4.787  10.992
  768MPD2    N111399   2.307   0.228  10.828
  768MPD2    H711400   2.274   0.216  10.923
  769MPD2     C11401   3.494   2.273  15.040
  769MPD2    C111402   3.428   2.307  15.159
  769MPD2    C211403   3.497   2.353  15.267
  769MPD2    C311404   3.635   2.374  15.264
  769MPD2    C411405   3.696   2.352  15.147
  769MPD2    C511406   3.628   2.299  15.042
  769MPD2     H11407   3.447   2.365  15.362
  769MPD2    H111408   3.803   2.365  15.138
  769MPD2    H211409   3.448   2.219  14.958
  769MPD2    H311410   3.685   2.273  14.954
  769MPD2     N11411   3.695   2.429  15.379
  769MPD2    H511412   3.635   2.438  15.460
  769MPD2    N111413   3.289   2.292  15.164
  769MPD2    H711414   3.249   2.258  15.077
  770MPD2     C11415   2.507   1.803  15.518
  770MPD2    C111416   2.574   1.773  15.400
  770MPD2    C211417   2.659   1.870  15.351
  770MPD2    C311418   2.668   1.993  15.414
  770MPD2    C411419   2.586   2.025  15.521
  770MPD2    C511420   2.508   1.925  15.573
  770MPD2     H11421   2.718   1.845  15.263
  770MPD2    H111422   2.583   2.126  15.560
  770MPD2    H211423   2.445   1.726  15.563
  770MPD2    H311424   2.458   1.939  15.668
  770MPD2     N11425   2.754   2.086  15.356
  770MPD2    H511426   2.797   2.062  15.267
  770MPD2    N111427   2.558   1.642  15.347
  770MPD2    H711428   2.498   1.570  15.386
  771MPD2     C11429   4.340   0.488  14.051
  771MPD2    C111430   4.277   0.601  14.007
  771MPD2    C211431   4.146   0.586  13.953
  771MPD2    C311432   4.095   0.460  13.936
  771MPD2    C411433   4.164   0.345  13.979
  771MPD2    C511434   4.283   0.363  14.040
  771MPD2     H11435   4.091   0.668  13.907
  771MPD2    H111436   4.125   0.246  13.958
  771MPD2    H211437   4.437   0.495  14.099
  771MPD2    H311438   4.334   0.283  14.093
  771MPD2     N11439   3.976   0.457  13.859
  771MPD2    H511440   3.950   0.546  13.819
  771MPD2    N111441   4.325   0.735  14.014
  771MPD2    H711442   4.262   0.802  13.971
  772MPD2     C11443   3.971   1.339  13.935
  772MPD2    C111444   3.980   1.223  14.011
  772MPD2    C211445   3.862   1.151  14.045
  772MPD2    C311446   3.737   1.210  14.018
  772MPD2    C411447   3.735   1.336  13.966
  772MPD2    C511448   3.849   1.399  13.921
  772MPD2     H11449   3.864   1.046  14.072
  772MPD2    H111450   3.647   1.395  13.945
  772MPD2    H211451   4.056   1.402  13.910
  772MPD2    H311452   3.836   1.499  13.882
  772MPD2     N11453   3.613   1.146  14.050
  772MPD2    H511454   3.533   1.205  14.032
  772MPD2    N111455   4.106   1.167  14.048
  772MPD2    H711456   4.102   1.087  14.109
  773MPD2     C11457   3.436   1.973  17.858
  773MPD2    C111458   3.322   1.889  17.868
  773MPD2    C211459   3.315   1.789  17.959
  773MPD2    C311460   3.415   1.762  18.041
  773MPD2    C411461   3.530   1.840  18.033
  773MPD2    C511462   3.538   1.942  17.945
  773MPD2     H11463   3.227   1.724  17.964
  773MPD2    H111464   3.620   1.828  18.093
  773MPD2    H211465   3.454   2.065  17.804
  773MPD2    H311466   3.629   2.001  17.957
  773MPD2     N11467   3.396   1.653  18.127
  773MPD2    H511468   3.306   1.606  18.133
  773MPD2    N111469   3.213   1.894  17.777
  773MPD2    H711470   3.133   1.835  17.798
  774MPD2     C11471   2.268   0.738  13.513
  774MPD2    C111472   2.234   0.840  13.610
  774MPD2    C211473   2.309   0.957  13.623
  774MPD2    C311474   2.423   0.977  13.550
  774MPD2    C411475   2.458   0.881  13.460
  774MPD2    C511476   2.381   0.767  13.446
  774MPD2     H11477   2.285   1.031  13.699
  774MPD2    H111478   2.548   0.882  13.399
  774MPD2    H211479   2.205   0.653  13.491
  774MPD2    H311480   2.410   0.690  13.376
  774MPD2     N11481   2.514   1.079  13.587
  774MPD2    H511482   2.477   1.139  13.661
  774MPD2    N111483   2.144   0.796  13.708
  774MPD2    H711484   2.120   0.698  13.703
  775MPD2     C11485   3.990   2.180  16.043
  775MPD2    C111486   3.956   2.305  16.075
  775MPD2    C211487   4.028   2.418  16.035
  775MPD2    C311488   4.151   2.401  15.979
  775MPD2    C411489   4.194   2.272  15.947
  775MPD2    C511490   4.111   2.169  15.983
  775MPD2     H11491   3.991   2.514  16.067
  775MPD2    H111492   4.295   2.266  15.908
  775MPD2    H211493   3.947   2.085  16.075
  775MPD2    H311494   4.151   2.069  15.971
  775MPD2     N11495   4.226   2.515  15.937
  775MPD2    H511496   4.319   2.497  15.901
  775MPD2    N111497   3.829   2.315  16.140
  775MPD2    H711498   3.764   2.238  16.135
  776MPD2     C11499   2.893   3.020  12.198
  776MPD2    C111500   2.811   3.059  12.107
  776MPD2    C211501   2.790   3.193  12.073
  776MPD2    C311502   2.841   3.280  12.157
  776MPD2    C411503   2.926   3.241  12.251
  776MPD2    C511504   2.958   3.114  12.268
  776MPD2     H11505   2.715   3.219  11.999
  776MPD2    H111506   2.968   3.326  12.304
  776MPD2    H211507   2.898   2.920  12.241
  776MPD2    H311508   3.025   3.079  12.346
  776MPD2     N11509   2.822   3.414  12.137
  776MPD2    H511510   2.885   3.471  12.192
  776MPD2    N111511   2.740   2.962  12.037
  776MPD2    H711512   2.765   2.866  12.058
  777MPD2     C11513   2.884   0.145  18.701
  777MPD2    C111514   2.837   0.035  18.770
  777MPD2    C211515   2.797   4.726  18.703
  777MPD2    C311516   2.816   4.723  18.563
  777MPD2    C411517   2.873   0.019  18.492
  777MPD2    C511518   2.902   0.134  18.560
  777MPD2     H11519   2.750   4.648  18.762
  777MPD2    H111520   2.903   0.006  18.388
  777MPD2    H211521   2.910   0.235  18.755
  777MPD2    H311522   2.944   0.217  18.503
  777MPD2     N11523   2.766   4.604  18.493
  777MPD2    H511524   2.723   4.531  18.549
  777MPD2    N111525   2.827   0.042  18.910
  777MPD2    H711526   2.841   0.134  18.949
  778MPD2     C11527   4.064   0.487  15.201
  778MPD2    C111528   4.040   0.389  15.106
  778MPD2    C211529   4.055   0.421  14.970
  778MPD2    C311530   4.093   0.549  14.934
  778MPD2    C411531   4.137   0.634  15.029
  778MPD2    C511532   4.127   0.605  15.163
  778MPD2     H11533   4.039   0.336  14.905
  778MPD2    H111534   4.176   0.730  14.997
  778MPD2    H211535   4.049   0.465  15.306
  778MPD2    H311536   4.156   0.674  15.242
  778MPD2     N11537   4.114   0.586  14.795
  778MPD2    H511538   4.095   0.513  14.727
  778MPD2    N111539   3.974   0.261  15.133
  778MPD2    H711540   3.963   0.207  15.049
  779MPD2     C11541   3.734   4.016  14.349
  779MPD2    C111542   3.870   4.043  14.364
  779MPD2    C211543   3.917   4.176  14.332
  779MPD2    C311544   3.834   4.270  14.272
  779MPD2    C411545   3.704   4.230  14.246
  779MPD2    C511546   3.655   4.109  14.282
  779MPD2     H11547   4.024   4.193  14.331
  779MPD2    H111548   3.643   4.293  14.181
  779MPD2    H211549   3.685   3.921  14.365
  779MPD2    H311550   3.554   4.086  14.250
  779MPD2     N11551   3.885   4.389  14.226
  779MPD2    H511552   3.975   4.416  14.262
  779MPD2    N111553   3.963   3.943  14.418
  779MPD2    H711554   4.060   3.971  14.414
  780MPD2     C11555   3.312   3.902  18.905
  780MPD2    C111556   3.263   3.854  18.791
  780MPD2    C211557   3.312   3.897  18.667
  780MPD2    C311558   3.419   3.980  18.663
  780MPD2    C411559   3.467   4.034  18.782
  780MPD2    C511560   3.399   4.006  18.894
  780MPD2     H11561   3.278   3.849  18.576
  780MPD2    H111562   3.553   4.099  18.785
  780MPD2    H211563   3.279   3.866  19.002
  780MPD2    H311564   3.429   4.051  18.988
  780MPD2     N11565   3.468   4.022  18.535
  780MPD2    H511566   3.429   3.985  18.449
  780MPD2    N111567   3.163   3.753  18.805
  780MPD2    H711568   3.151   3.711  18.896
  781MPD2     C11569   0.347   1.017  12.121
  781MPD2    C111570   0.430   1.043  12.228
  781MPD2    C211571   0.550   1.111  12.206
  781MPD2    C311572   0.581   1.146  12.076
  781MPD2    C411573   0.492   1.127  11.970
  781MPD2    C511574   0.375   1.065  11.993
  781MPD2     H11575   0.605   1.146  12.293
  781MPD2    H111576   0.516   1.171  11.873
  781MPD2    H211577   0.249   0.976  12.143
  781MPD2    H311578   0.298   1.052  11.917
  781MPD2     N11579   0.697   1.213  12.041
  781MPD2    H511580   0.704   1.262  11.952
  781MPD2    N111581   0.400   1.008  12.362
  781MPD2    H711582   0.472   1.027  12.430
  782MPD2     C11583   2.989   1.961  10.562
  782MPD2    C111584   3.130   1.963  10.553
  782MPD2    C211585   3.203   2.062  10.613
  782MPD2    C311586   3.135   2.174  10.655
  782MPD2    C411587   2.997   2.184  10.647
  782MPD2    C511588   2.927   2.078  10.597
  782MPD2     H11589   3.309   2.054  10.631
  782MPD2    H111590   2.938   2.262  10.693
  782MPD2    H211591   2.930   1.875  10.532
  782MPD2    H311592   2.820   2.083  10.581
  782MPD2     N11593   3.213   2.270  10.720
  782MPD2    H511594   3.314   2.269  10.715
  782MPD2    N111595   3.194   1.849  10.507
  782MPD2    H711596   3.132   1.770  10.492
  783MPD2     C11597   2.892   1.462  11.147
  783MPD2    C111598   2.993   1.559  11.165
  783MPD2    C211599   3.085   1.574  11.062
  783MPD2    C311600   3.067   1.506  10.941
  783MPD2    C411601   2.963   1.419  10.925
  783MPD2    C511602   2.872   1.400  11.026
  783MPD2     H11603   3.169   1.639  11.077
  783MPD2    H111604   2.945   1.369  10.831
  783MPD2    H211605   2.817   1.438  11.222
  783MPD2    H311606   2.788   1.332  11.016
  783MPD2     N11607   3.168   1.529  10.845
  783MPD2    H511608   3.234   1.605  10.858
  783MPD2    N111609   2.998   1.635  11.280
  783MPD2    H711610   2.923   1.633  11.348
  784MPD2     C11611   1.076   2.481  19.199
  784MPD2    C111612   1.070   2.606  19.259
  784MPD2    C211613   0.992   2.710  19.213
  784MPD2    C311614   0.897   2.680  19.118
  784MPD2    C411615   0.902   2.560  19.043
  784MPD2    C511616   0.997   2.461  19.091
  784MPD2     H11617   0.985   2.806  19.263
  784MPD2    H111618   0.834   2.541  18.961
  784MPD2    H211619   1.136   2.397  19.232
  784MPD2    H311620   1.006   2.366  19.040
  784MPD2     N11621   0.797   2.785  19.082
  784MPD2    H511622   0.824   2.879  19.108
  784MPD2    N111623   1.150   2.638  19.369
  784MPD2    H711624   1.133   2.731  19.405
  785MPD2     C11625   1.356   0.496  11.571
  785MPD2    C111626   1.345   0.570  11.458
  785MPD2    C211627   1.261   0.521  11.354
  785MPD2    C311628   1.200   0.400  11.372
  785MPD2    C411629   1.211   0.325  11.492
  785MPD2    C511630   1.292   0.379  11.591
  785MPD2     H11631   1.235   0.580  11.267
  785MPD2    H111632   1.169   0.226  11.502
  785MPD2    H211633   1.413   0.528  11.656
  785MPD2    H311634   1.310   0.316  11.678
  785MPD2     N11635   1.119   0.370  11.262
  785MPD2    H511636   1.110   0.435  11.184
  785MPD2    N111637   1.395   0.701  11.459
  785MPD2    H711638   1.420   0.732  11.552
  786MPD2     C11639   4.478   3.177  15.141
  786MPD2    C111640   4.597   3.233  15.091
  786MPD2    C211641   4.694   3.279  15.178
  786MPD2    C311642   4.671   3.291  15.315
  786MPD2    C411643   4.560   3.232  15.369
  786MPD2    C511644   4.470   3.172  15.282
  786MPD2     H11645   4.787   3.306  15.129
  786MPD2    H111646   4.537   3.221  15.474
  786MPD2    H211647   4.400   3.124  15.089
  786MPD2    H311648   4.381   3.124  15.320
  786MPD2     N11649   4.764   3.352  15.401
  786MPD2    H511650   4.755   3.331  15.500
  786MPD2    N111651   4.629   3.219  14.952
  786MPD2    H711652   4.727   3.233  14.930
  787MPD2     C11653   0.173   2.693  14.988
  787MPD2    C111654   0.117   2.695  14.863
  787MPD2    C211655   0.152   2.596  14.776
  787MPD2    C311656   0.232   2.490  14.814
  787MPD2    C411657   0.282   2.480  14.945
  787MPD2    C511658   0.253   2.584  15.027
  787MPD2     H11659   0.135   2.596  14.669
  787MPD2    H111660   0.341   2.395  14.976
  787MPD2    H211661   0.163   2.767  15.066
  787MPD2    H311662   0.298   2.590  15.125
  787MPD2     N11663   0.241   2.380  14.718
  787MPD2    H511664   0.199   2.391  14.626
  787MPD2    N111665   0.039   2.807  14.825
  787MPD2    H711666   0.034   2.880  14.896
  788MPD2     C11667   1.541   1.768  19.192
  788MPD2    C111668   1.658   1.747  19.120
  788MPD2    C211669   1.697   1.846  19.031
  788MPD2    C311670   1.634   1.969  19.033
  788MPD2    C411671   1.531   1.993  19.115
  788MPD2    C511672   1.478   1.891  19.187
  788MPD2     H11673   1.787   1.832  18.972
  788MPD2    H111674   1.487   2.092  19.109
  788MPD2    H211675   1.488   1.697  19.254
  788MPD2    H311676   1.384   1.908  19.238
  788MPD2     N11677   1.680   2.085  18.966
  788MPD2    H511678   1.630   2.169  18.995
  788MPD2    N111679   1.724   1.622  19.118
  788MPD2    H711680   1.805   1.618  19.057
  789MPD2     C11681   2.067   1.264  16.589
  789MPD2    C111682   1.989   1.166  16.635
  789MPD2    C211683   1.910   1.196  16.747
  789MPD2    C311684   1.908   1.327  16.797
  789MPD2    C411685   1.979   1.428  16.741
  789MPD2    C511686   2.070   1.389  16.645
  789MPD2     H11687   1.854   1.110  16.782
  789MPD2    H111688   1.969   1.529  16.777
  789MPD2    H211689   2.140   1.248  16.509
  789MPD2    H311690   2.133   1.460  16.591
  789MPD2     N11691   1.835   1.370  16.909
  789MPD2    H511692   1.856   1.461  16.949
  789MPD2    N111693   1.999   1.031  16.589
  789MPD2    H711694   1.917   0.981  16.624
  790MPD2     C11695   3.008   3.223  14.017
  790MPD2    C111696   3.002   3.087  14.014
  790MPD2    C211697   2.939   3.012  13.911
  790MPD2    C311698   2.894   3.073  13.805
  790MPD2    C411699   2.906   3.211  13.797
  790MPD2    C511700   2.965   3.282  13.900
  790MPD2     H11701   2.932   2.904  13.909
  790MPD2    H111702   2.873   3.264  13.708
  790MPD2    H211703   3.067   3.283  14.085
  790MPD2    H311704   2.975   3.390  13.902
  790MPD2     N11705   2.837   3.002  13.702
  790MPD2    H511706   2.832   2.901  13.715
  790MPD2    N111707   3.056   3.029  14.129
  790MPD2    H711708   3.086   3.085  14.208
  791MPD2     C11709   2.281   2.951  13.060
  791MPD2    C111710   2.318   2.858  13.153
  791MPD2    C211711   2.241   2.744  13.168
  791MPD2    C311712   2.127   2.725  13.098
  791MPD2    C411713   2.084   2.823  13.007
  791MPD2    C511714   2.158   2.942  13.004
  791MPD2     H11715   2.265   2.667  13.241
  791MPD2    H111716   1.990   2.817  12.953
  791MPD2    H211717   2.353   3.028  13.035
  791MPD2    H311718   2.113   3.014  12.937
  791MPD2     N11719   2.065   2.601  13.110
  791MPD2    H511720   2.117   2.529  13.159
  791MPD2    N111721   2.438   2.876  13.224
  791MPD2    H711722   2.481   2.967  13.209
  792MPD2     C11723   2.968   3.031  11.495
  792MPD2    C111724   2.857   3.099  11.552
  792MPD2    C211725   2.734   3.037  11.557
  792MPD2    C311726   2.718   2.914  11.495
  792MPD2    C411727   2.825   2.853  11.447
  792MPD2    C511728   2.950   2.905  11.446
  792MPD2     H11729   2.648   3.088  11.598
  792MPD2    H111730   2.821   2.755  11.401
  792MPD2    H211731   3.068   3.069  11.478
  792MPD2    H311732   3.031   2.861  11.390
  792MPD2     N11733   2.602   2.838  11.493
  792MPD2    H511734   2.607   2.744  11.457
  792MPD2    N111735   2.895   3.227  11.598
  792MPD2    H711736   2.993   3.254  11.588
  793MPD2     C11737   2.024   2.660  10.855
  793MPD2    C111738   2.142   2.726  10.883
  793MPD2    C211739   2.175   2.762  11.013
  793MPD2    C311740   2.083   2.740  11.112
  793MPD2    C411741   1.960   2.681  11.080
  793MPD2    C511742   1.936   2.633  10.957
  793MPD2     H11743   2.263   2.814  11.050
  793MPD2    H111744   1.880   2.652  11.148
  793MPD2    H211745   1.991   2.637  10.755
  793MPD2    H311746   1.848   2.576  10.930
  793MPD2     N11747   2.119   2.777  11.244
  793MPD2    H511748   2.212   2.812  11.259
  793MPD2    N111749   2.238   2.763  10.787
  793MPD2    H711750   2.327   2.805  10.811
  794MPD2     C11751   2.719   2.461  17.463
  794MPD2    C111752   2.689   2.344  17.399
  794MPD2    C211753   2.573   2.334  17.325
  794MPD2    C311754   2.497   2.446  17.308
  794MPD2    C411755   2.537   2.561  17.365
  794MPD2    C511756   2.645   2.572  17.447
  794MPD2     H11757   2.557   2.243  17.269
  794MPD2    H111758   2.477   2.650  17.349
  794MPD2    H211759   2.806   2.466  17.527
  794MPD2    H311760   2.669   2.666  17.496
  794MPD2     N11761   2.383   2.448  17.220
  794MPD2    H511762   2.323   2.527  17.241
  794MPD2    N111763   2.766   2.228  17.393
  794MPD2    H711764   2.738   2.146  17.341
  795MPD2     C11765   0.471   4.527  13.618
  795MPD2    C111766   0.426   4.424  13.539
  795MPD2    C211767   0.503   4.311  13.515
  795MPD2    C311768   0.629   4.308  13.569
  795MPD2    C411769   0.671   4.403  13.655
  795MPD2    C511770   0.588   4.504  13.688
  795MPD2     H11771   0.474   4.234  13.445
  795MPD2    H111772   0.772   4.406  13.695
  795MPD2    H211773   0.417   4.619  13.638
  795MPD2    H311774   0.634   4.580  13.750
  795MPD2     N11775   0.708   4.200  13.539
  795MPD2    H511776   0.660   4.121  13.497
  795MPD2    N111777   0.303   4.428  13.472
  795MPD2    H711778   0.261   4.340  13.443
  796MPD2     C11779   4.674   0.933  15.850
  796MPD2    C111780   4.724   0.979  15.972
  796MPD2    C211781   4.729   1.112  15.996
  796MPD2    C311782   4.692   1.201  15.898
  796MPD2    C411783   4.641   1.153  15.781
  796MPD2    C511784   4.629   1.017  15.753
  796MPD2     H11785   4.755   1.147  16.095
  796MPD2    H111786   4.604   1.227  15.711
  796MPD2    H211787   4.673   0.825  15.840
  796MPD2    H311788   4.576   0.979  15.667
  796MPD2     N11789   4.696   1.341  15.929
  796MPD2    H511790   4.737   1.359  16.021
  796MPD2    N111791   4.758   0.880  16.065
  796MPD2    H711792   4.724   0.785  16.055
  797MPD2     C11793   0.671   0.613  17.565
  797MPD2    C111794   0.692   0.747  17.575
  797MPD2    C211795   0.656   0.828  17.471
  797MPD2    C311796   0.609   0.776  17.353
  797MPD2    C411797   0.609   0.641  17.334
  797MPD2    C511798   0.639   0.567  17.443
  797MPD2     H11799   0.654   0.936  17.487
  797MPD2    H111800   0.574   0.591  17.244
  797MPD2    H211801   0.689   0.542  17.644
  797MPD2    H311802   0.624   0.460  17.429
  797MPD2     N11803   0.563   0.858  17.248
  797MPD2    H511804   0.549   0.808  17.160
  797MPD2    N111805   0.754   0.812  17.684
  797MPD2    H711806   0.761   0.911  17.666
  798MPD2     C11807   0.539   1.483  17.524
  798MPD2    C111808   0.636   1.408  17.467
  798MPD2    C211809   0.709   1.318  17.548
  798MPD2    C311810   0.692   1.321  17.682
  798MPD2    C411811   0.602   1.409  17.741
  798MPD2    C511812   0.525   1.484  17.660
  798MPD2     H11813   0.788   1.255  17.510
  798MPD2    H111814   0.584   1.404  17.847
  798MPD2    H211815   0.473   1.541  17.460
  798MPD2    H311816   0.441   1.544  17.696
  798MPD2     N11817   0.774   1.234  17.755
  798MPD2    H511818   0.827   1.164  17.703
  798MPD2    N111819   0.641   1.408  17.322
  798MPD2    H711820   0.564   1.456  17.277
  799MPD2     C11821   4.713   2.264  14.948
  799MPD2    C111822   4.633   2.186  14.858
  799MPD2    C211823   4.573   2.253  14.752
  799MPD2    C311824   4.587   2.389  14.736
  799MPD2    C411825   4.661   2.458  14.831
  799MPD2    C511826   4.716   2.399  14.937
  799MPD2     H11827   4.525   2.190  14.678
  799MPD2    H111828   4.659   2.566  14.826
  799MPD2    H211829   4.767   2.217  15.029
  799MPD2    H311830   4.771   2.468  15.000
  799MPD2     N11831   4.531   2.472  14.643
  799MPD2    H511832   4.546   2.572  14.653
  799MPD2    N111833   4.615   2.046  14.863
  799MPD2    H711834   4.563   2.001  14.788
  800MPD2     C11835   0.040   3.465  13.640
  800MPD2    C111836   0.082   3.458  13.773
  800MPD2    C211837   0.112   3.333  13.820
  800MPD2    C311838   0.115   3.222  13.737
  800MPD2    C411839   0.057   3.232  13.611
  800MPD2    C511840   0.018   3.350  13.561
  800MPD2     H11841   0.161   3.321  13.916
  800MPD2    H111842   0.052   3.146  13.546
  800MPD2    H211843   0.025   3.563  13.594
  800MPD2    H311844   4.794   3.365  13.458
  800MPD2     N11845   0.195   3.115  13.785
  800MPD2    H511846   0.243   3.147  13.869
  800MPD2    N111847   0.129   3.578  13.822
  800MPD2    H711848   0.126   3.658  13.760
  801MPD2     C11849   0.283   4.275  13.830
  801MPD2    C111850   0.217   4.167  13.867
  801MPD2    C211851   0.097   4.187  13.939
  801MPD2    C311852   0.058   4.317  13.980
  801MPD2    C411853   0.132   4.426  13.947
  801MPD2    C511854   0.245   4.398  13.867
  801MPD2     H11855   0.041   4.101  13.973
  801MPD2    H111856   0.116   4.530  13.973
  801MPD2    H211857   0.367   4.279  13.762
  801MPD2    H311858   0.298   4.482  13.824
  801MPD2     N11859   4.747   4.333  14.059
  801MPD2    H511860   4.736   4.430  14.088
  801MPD2    N111861   0.261   4.039  13.834
  801MPD2    H711862   0.197   3.967  13.867
  802MPD2     C11863   4.146   4.716  17.615
  802MPD2    C111864   4.235   4.700  17.721
  802MPD2    C211865   4.296   4.576  17.742
  802MPD2    C311866   4.275   4.469  17.656
  802MPD2    C411867   4.187   4.487  17.556
  802MPD2    C511868   4.123   4.609  17.536
  802MPD2     H11869   4.361   4.561  17.827
  802MPD2    H111870   4.183   4.411  17.478
  802MPD2    H211871   4.084   0.001  17.604
  802MPD2    H311872   4.059   4.621  17.450
  802MPD2     N11873   4.363   4.358  17.669
  802MPD2    H511874   4.443   4.359  17.732
  802MPD2    N111875   4.259   4.799  17.824
  802MPD2    H711876   4.296   4.765  17.912
  803MPD2     C11877   0.916   2.755  12.388
  803MPD2    C111878   1.030   2.760  12.453
  803MPD2    C211879   1.041   2.687  12.575
  803MPD2    C311880   0.940   2.610  12.621
  803MPD2    C411881   0.846   2.571  12.524
  803MPD2    C511882   0.825   2.659  12.420
  803MPD2     H11883   1.126   2.720  12.633
  803MPD2    H111884   0.770   2.497  12.547
  803MPD2    H211885   0.904   2.807  12.293
  803MPD2    H311886   0.745   2.643  12.349
  803MPD2     N11887   0.935   2.554  12.753
  803MPD2    H511888   0.865   2.481  12.764
  803MPD2    N111889   1.131   2.852  12.424
  803MPD2    H711890   1.206   2.860  12.492
  804MPD2     C11891   0.376   3.989  16.988
  804MPD2    C111892   0.405   3.964  17.125
  804MPD2    C211893   0.486   4.054  17.194
  804MPD2    C311894   0.541   4.158  17.114
  804MPD2    C411895   0.523   4.172  16.977
  804MPD2    C511896   0.445   4.079  16.916
  804MPD2     H11897   0.506   4.047  17.301
  804MPD2    H111898   0.562   4.253  16.916
  804MPD2    H211899   0.311   3.919  16.936
  804MPD2    H311900   0.434   4.091  16.808
  804MPD2     N11901   0.608   4.258  17.191
  804MPD2    H511902   0.610   4.233  17.290
  804MPD2    N111903   0.366   3.851  17.197
  804MPD2    H711904   0.406   3.841  17.289
  805MPD2     C11905   4.427   2.151  15.630
  805MPD2    C111906   4.476   2.280  15.638
  805MPD2    C211907   4.593   2.306  15.694
  805MPD2    C311908   4.676   2.211  15.756
  805MPD2    C411909   4.629   2.084  15.745
  805MPD2    C511910   4.510   2.059  15.684
  805MPD2     H11911   4.631   2.407  15.686
  805MPD2    H111912   4.677   1.995  15.785
  805MPD2    H211913   4.338   2.118  15.578
  805MPD2    H311914   4.466   1.960  15.688
  805MPD2     N11915   4.797   2.248  15.803
  805MPD2    H511916   0.011   2.348  15.800
  805MPD2    N111917   4.409   2.388  15.569
  805MPD2    H711918   4.472   2.466  15.552
  806MPD2     C11919   0.058   1.947  19.381
  806MPD2    C111920   0.162   2.033  19.342
  806MPD2    C211921   0.144   2.115  19.232
  806MPD2    C311922   0.055   2.080  19.135
  806MPD2    C411923   4.757   1.990  19.174
  806MPD2    C511924   4.749   1.937  19.302
  806MPD2     H11925   0.213   2.198  19.216
  806MPD2    H111926   4.668   1.976  19.114
  806MPD2    H211927   0.062   1.902  19.479
  806MPD2    H311928   4.665   1.880  19.340
  806MPD2     N11929   0.062   2.122  19.001
  806MPD2    H511930   0.126   2.198  18.982
  806MPD2    N111931   0.274   2.028  19.430
  806MPD2    H711932   0.264   1.975  19.516
  807MPD2     C11933   0.538   1.794  19.153
  807MPD2    C111934   0.447   1.796  19.045
  807MPD2    C211935   0.343   1.698  19.050
  807MPD2    C311936   0.309   1.628  19.164
  807MPD2    C411937   0.399   1.629  19.267
  807MPD2    C511938   0.518   1.708  19.257
  807MPD2     H11939   0.282   1.698  18.960
  807MPD2    H111940   0.381   1.569  19.355
  807MPD2    H211941   0.626   1.857  19.153
  807MPD2    H311942   0.592   1.713  19.336
  807MPD2     N11943   0.186   1.560  19.155
  807MPD2    H511944   0.123   1.588  19.080
  807MPD2    N111945   0.453   1.886  18.939
  807MPD2    H711946   0.425   1.852  18.848
  808MPD2     C11947   0.758   3.572   9.984
  808MPD2    C111948   0.705   3.624  10.097
  808MPD2    C211949   0.705   3.763  10.118
  808MPD2    C311950   0.775   3.840  10.027
  808MPD2    C411951   0.848   3.786   9.924
  808MPD2    C511952   0.842   3.648   9.907
  808MPD2     H11953   0.637   3.801  10.193
  808MPD2    H111954   0.903   3.839   9.848
  808MPD2    H211955   0.754   3.467   9.957
  808MPD2    H311956   0.887   3.600   9.821
  808MPD2     N11957   0.761   3.982  10.026
  808MPD2    H511958   0.821   4.027   9.958
  808MPD2    N111959   0.618   3.555  10.184
  808MPD2    H711960   0.589   3.601  10.270
  809MPD2     C11961   1.119   0.008   9.675
  809MPD2    C111962   1.143   4.679   9.696
  809MPD2    C211963   1.045   4.605   9.749
  809MPD2    C311964   0.934   4.670   9.803
  809MPD2    C411965   0.917   0.005   9.789
  809MPD2    C511966   1.012   0.071   9.729
  809MPD2     H11967   1.053   4.498   9.769
  809MPD2    H111968   0.833   0.054   9.838
  809MPD2    H211969   1.189   0.074   9.625
  809MPD2    H311970   1.003   0.177   9.709
  809MPD2     N11971   0.832   4.602   9.871
  809MPD2    H511972   0.776   4.662   9.931
  809MPD2    N111973   1.262   4.606   9.668
  809MPD2    H711974   1.265   4.507   9.689
  810MPD2     C11975   0.412   3.112  10.745
  810MPD2    C111976   0.296   3.041  10.765
  810MPD2    C211977   0.215   3.090  10.864
  810MPD2    C311978   0.236   3.206  10.931
  810MPD2    C411979   0.351   3.274  10.901
  810MPD2    C511980   0.439   3.229  10.811
  810MPD2     H11981   0.130   3.028  10.890
  810MPD2    H111982   0.361   3.367  10.954
  810MPD2    H211983   0.489   3.080  10.676
  810MPD2    H311984   0.528   3.286  10.785
  810MPD2     N11985   0.141   3.258  11.018
  810MPD2    H511986   0.177   3.344  11.058
  810MPD2    N111987   0.250   2.938  10.680
  810MPD2    H711988   0.297   2.935  10.590
  811MPD2     C11989   4.420   2.946  10.126
  811MPD2    C111990   4.499   3.020  10.215
  811MPD2    C211991   4.485   3.159  10.216
  811MPD2    C311992   4.393   3.216  10.129
  811MPD2    C411993   4.318   3.143  10.037
  811MPD2    C511994   4.340   3.010  10.032
  811MPD2     H11995   4.541   3.216  10.289
  811MPD2    H111996   4.248   3.186   9.966
  811MPD2    H211997   4.427   2.839  10.136
  811MPD2    H311998   4.266   2.951   9.978
  811MPD2     N11999   4.383   3.358  10.138
  811MPD2    H512000   4.438   3.408  10.208
  811MPD2    N112001   4.561   2.948  10.315
  811MPD2    H712002   4.548   2.848  10.306
  812MPD2     C12003   3.266   2.906  12.315
  812MPD2    C112004   3.315   2.997  12.407
  812MPD2    C212005   3.384   2.957  12.518
  812MPD2    C312006   3.416   2.822  12.539
  812MPD2    C412007   3.373   2.731  12.439
  812MPD2    C512008   3.292   2.773  12.336
  812MPD2     H12009   3.431   3.031  12.581
  812MPD2    H112010   3.385   2.623  12.433
  812MPD2    H212011   3.204   2.921  12.228
  812MPD2    H312012   3.258   2.705  12.257
  812MPD2     N12013   3.478   2.779  12.654
  812MPD2    H512014   3.516   2.846  12.720
  812MPD2    N112015   3.295   3.134  12.383
  812MPD2    H712016   3.275   3.162  12.287
  813MPD2     C12017   2.717   0.127  13.062
  813MPD2    C112018   2.809   0.116  13.160
  813MPD2    C212019   2.770   0.077  13.286
  813MPD2    C312020   2.641   0.040  13.311
  813MPD2    C412021   2.549   0.052  13.212
  813MPD2    C512022   2.583   0.101  13.087
  813MPD2     H12023   2.844   0.062  13.363
  813MPD2    H112024   2.443   0.048  13.236
  813MPD2    H212025   2.745   0.160  12.962
  813MPD2    H312026   2.504   0.115  13.014
  813MPD2     N12027   2.608   0.015  13.445
  813MPD2    H512028   2.687   0.012  13.509
  813MPD2    N112029   2.944   0.126  13.127
  813MPD2    H712030   2.962   0.186  13.047
  814MPD2     C12031   3.392   1.138  12.862
  814MPD2    C112032   3.349   1.211  12.753
  814MPD2    C212033   3.364   1.351  12.760
  814MPD2    C312034   3.416   1.407  12.881
  814MPD2    C412035   3.459   1.324  12.982
  814MPD2    C512036   3.452   1.188  12.969
  814MPD2     H12037   3.333   1.407  12.672
  814MPD2    H112038   3.497   1.369  13.073
  814MPD2    H212039   3.374   1.032  12.863
  814MPD2    H312040   3.481   1.123  13.051
  814MPD2     N12041   3.437   1.545  12.897
  814MPD2    H512042   3.474   1.588  12.981
  814MPD2    N112043   3.283   1.154  12.642
  814MPD2    H712044   3.242   1.214  12.572
  815MPD2     C12045   3.761   0.013  11.954
  815MPD2    C112046   3.707   4.696  11.946
  815MPD2    C212047   3.575   4.674  11.976
  815MPD2    C312048   3.488   4.770  12.017
  815MPD2    C412049   3.542   0.091  12.026
  815MPD2    C512050   3.682   0.112  12.006
  815MPD2     H12051   3.529   4.580  11.946
  815MPD2    H112052   3.485   0.177  12.058
  815MPD2    H212053   3.866   0.026  11.929
  815MPD2    H312054   3.712   0.216  12.012
  815MPD2     N12055   3.350   4.733  12.035
  815MPD2    H512056   3.321   4.636  12.024
  815MPD2    N112057   3.790   4.600  11.887
  815MPD2    H712058   3.877   4.636  11.849
  816MPD2     C12059   3.549   3.265  17.334
  816MPD2    C112060   3.581   3.386  17.285
  816MPD2    C212061   3.703   3.399  17.226
  816MPD2    C312062   3.792   3.295  17.216
  816MPD2    C412063   3.752   3.175  17.260
  816MPD2    C512064   3.623   3.153  17.310
  816MPD2     H12065   3.734   3.498  17.196
  816MPD2    H112066   3.809   3.087  17.232
  816MPD2    H212067   3.453   3.253  17.381
  816MPD2    H312068   3.599   3.051  17.334
  816MPD2     N12069   3.911   3.320  17.155
  816MPD2    H512070   3.920   3.410  17.109
  816MPD2    N112071   3.493   3.497  17.305
  816MPD2    H712072   3.409   3.479  17.359
  817MPD2     C12073   3.381   0.737   9.992
  817MPD2    C112074   3.281   0.677   9.911
  817MPD2    C212075   3.199   0.754   9.831
  817MPD2    C312076   3.207   0.891   9.842
  817MPD2    C412077   3.297   0.948   9.931
  817MPD2    C512078   3.390   0.873   9.991
  817MPD2     H12079   3.131   0.716   9.755
  817MPD2    H112080   3.311   1.055   9.926
  817MPD2    H212081   3.452   0.681  10.051
  817MPD2    H312082   3.467   0.932  10.037
  817MPD2     N12083   3.128   0.962   9.749
  817MPD2    H512084   3.086   0.896   9.685
  817MPD2    N112085   3.273   0.533   9.892
  817MPD2    H712086   3.192   0.498   9.842
  818MPD2     C12087   2.149   0.701  10.202
  818MPD2    C112088   2.071   0.694  10.318
  818MPD2    C212089   1.989   0.588  10.337
  818MPD2    C312090   1.979   0.487  10.241
  818MPD2    C412091   2.053   0.491  10.123
  818MPD2    C512092   2.136   0.599  10.111
  818MPD2     H12093   1.926   0.585  10.425
  818MPD2    H112094   2.035   0.421  10.041
  818MPD2    H212095   2.205   0.790  10.176
  818MPD2    H312096   2.185   0.612  10.016
  818MPD2     N12097   1.892   0.381  10.255
  818MPD2    H512098   1.890   0.317  10.177
  818MPD2    N112099   2.061   0.798  10.414
  818MPD2    H712100   1.983   0.776  10.475
  819MPD2     C12101   0.461   2.046  15.809
  819MPD2    C112102   0.451   1.908  15.822
  819MPD2    C212103   0.535   1.842  15.915
  819MPD2    C312104   0.638   1.915  15.977
  819MPD2    C412105   0.651   2.052  15.961
  819MPD2    C512106   0.559   2.118  15.881
  819MPD2     H12107   0.531   1.736  15.938
  819MPD2    H112108   0.725   2.111  16.013
  819MPD2    H212109   0.396   2.103  15.744
  819MPD2    H312110   0.566   2.226  15.888
  819MPD2     N12111   0.714   1.839  16.068
  819MPD2    H512112   0.678   1.745  16.081
  819MPD2    N112113   0.346   1.842  15.753
  819MPD2    H712114   0.302   1.902  15.685
  820MPD2     C12115   4.352   1.933  15.141
  820MPD2    C112116   4.447   2.012  15.203
  820MPD2    C212117   4.536   1.956  15.287
  820MPD2    C312118   4.536   1.816  15.311
  820MPD2    C412119   4.426   1.739  15.264
  820MPD2    C512120   4.336   1.800  15.177
  820MPD2     H12121   4.617   2.017  15.324
  820MPD2    H112122   4.399   1.641  15.301
  820MPD2    H212123   4.291   1.979  15.064
  820MPD2    H312124   4.251   1.744  15.139
  820MPD2     N12125   4.622   1.756  15.405
  820MPD2    H512126   4.598   1.658  15.418
  820MPD2    N112127   4.446   2.150  15.173
  820MPD2    H712128   4.372   2.182  15.111
  821MPD2     C12129   0.754   3.277  13.406
  821MPD2    C112130   0.818   3.246  13.522
  821MPD2    C212131   0.936   3.308  13.555
  821MPD2    C312132   0.976   3.420  13.480
  821MPD2    C412133   0.911   3.450  13.364
  821MPD2    C512134   0.806   3.372  13.324
  821MPD2     H12135   0.990   3.283  13.645
  821MPD2    H112136   0.943   3.538  13.309
  821MPD2    H212137   0.659   3.231  13.379
  821MPD2    H312138   0.759   3.397  13.230
  821MPD2     N12139   1.089   3.493  13.514
  821MPD2    H512140   1.098   3.575  13.454
  821MPD2    N112141   0.770   3.135  13.609
  821MPD2    H712142   0.824   3.116  13.693
  822MPD2     C12143   1.272   3.352  15.957
  822MPD2    C112144   1.227   3.313  16.081
  822MPD2    C212145   1.125   3.391  16.137
  822MPD2    C312146   1.083   3.509  16.074
  822MPD2    C412147   1.142   3.549  15.958
  822MPD2    C512148   1.229   3.466  15.896
  822MPD2     H12149   1.075   3.364  16.229
  822MPD2    H112150   1.113   3.637  15.900
  822MPD2    H212151   1.342   3.296  15.896
  822MPD2    H312152   1.269   3.491  15.798
  822MPD2     N12153   0.991   3.585  16.148
  822MPD2    H512154   0.976   3.559  16.245
  822MPD2    N112155   1.268   3.200  16.156
  822MPD2    H712156   1.231   3.199  16.251
  823MPD2     C12157   0.656   3.716  16.910
  823MPD2    C112158   0.704   3.644  16.802
  823MPD2    C212159   0.735   3.513  16.829
  823MPD2    C312160   0.732   3.454  16.952
  823MPD2    C412161   0.669   3.520  17.054
  823MPD2    C512162   0.640   3.650  17.033
  823MPD2     H12163   0.790   3.461  16.751
  823MPD2    H112164   0.661   3.488  17.157
  823MPD2    H212165   0.636   3.822  16.902
  823MPD2    H312166   0.597   3.706  17.116
  823MPD2     N12167   0.794   3.336  16.981
  823MPD2    H512168   0.778   3.292  17.071
  823MPD2    N112169   0.698   3.707  16.672
  823MPD2    H712170   0.675   3.806  16.666
  824MPD2     C12171   1.860   2.598  16.413
  824MPD2    C112172   1.809   2.656  16.297
  824MPD2    C212173   1.868   2.620  16.174
  824MPD2    C312174   1.967   2.525  16.172
  824MPD2    C412175   2.016   2.471  16.292
  824MPD2    C512176   1.956   2.509  16.411
  824MPD2     H12177   1.831   2.671  16.085
  824MPD2    H112178   2.094   2.399  16.312
  824MPD2    H212179   1.816   2.604  16.512
  824MPD2    H312180   1.999   2.472  16.503
  824MPD2     N12181   2.016   2.481  16.047
  824MPD2    H512182   1.973   2.510  15.959
  824MPD2    N112183   1.704   2.749  16.296
  824MPD2    H712184   1.698   2.792  16.204
  825MPD2     C12185   2.429   2.773  15.711
  825MPD2    C112186   2.341   2.716  15.626
  825MPD2    C212187   2.295   2.787  15.516
  825MPD2    C312188   2.325   2.926  15.501
  825MPD2    C412189   2.419   2.976  15.591
  825MPD2    C512190   2.473   2.902  15.688
  825MPD2     H12191   2.222   2.742  15.450
  825MPD2    H112192   2.444   3.082  15.591
  825MPD2    H212193   2.456   2.710  15.795
  825MPD2    H312194   2.537   2.952  15.760
  825MPD2     N12195   2.261   3.015  15.404
  825MPD2    H512196   2.293   3.111  15.414
  825MPD2    N112197   2.294   2.587  15.668
  825MPD2    H712198   2.338   2.539  15.745
  826MPD2     C12199   1.996   2.263  14.168
  826MPD2    C112200   1.985   2.350  14.058
  826MPD2    C212201   1.901   2.461  14.067
  826MPD2    C312202   1.842   2.498  14.188
  826MPD2    C412203   1.867   2.416  14.297
  826MPD2    C512204   1.942   2.302  14.288
  826MPD2     H12205   1.879   2.521  13.979
  826MPD2    H112206   1.818   2.443  14.390
  826MPD2    H212207   2.054   2.173  14.153
  826MPD2    H312208   1.952   2.236  14.373
  826MPD2     N12209   1.744   2.599  14.201
  826MPD2    H512210   1.701   2.618  14.291
  826MPD2    N112211   2.061   2.307  13.945
  826MPD2    H712212   2.112   2.220  13.957
  827MPD2     C12213   2.448   4.491  10.205
  827MPD2    C112214   2.413   4.377  10.274
  827MPD2    C212215   2.319   4.291  10.219
  827MPD2    C312216   2.248   4.322  10.102
  827MPD2    C412217   2.269   4.445  10.051
  827MPD2    C512218   2.365   4.523  10.103
  827MPD2     H12219   2.299   4.195  10.266
  827MPD2    H112220   2.210   4.481   9.967
  827MPD2    H212221   2.540   4.548  10.217
  827MPD2    H312222   2.378   4.619  10.054
  827MPD2     N12223   2.156   4.227  10.042
  827MPD2    H512224   2.154   4.134  10.083
  827MPD2    N112225   2.491   4.349  10.393
  827MPD2    H712226   2.564   4.413  10.422
  828MPD2     C12227   1.444   3.867  12.440
  828MPD2    C112228   1.330   3.877  12.373
  828MPD2    C212229   1.335   3.929  12.247
  828MPD2    C312230   1.453   3.969  12.183
  828MPD2    C412231   1.568   3.949  12.250
  828MPD2    C512232   1.567   3.893  12.378
  828MPD2     H12233   1.240   3.937  12.195
  828MPD2    H112234   1.664   3.964  12.202
  828MPD2    H212235   1.457   3.832  12.542
  828MPD2    H312236   1.664   3.871  12.421
  828MPD2     N12237   1.463   4.019  12.053
  828MPD2    H512238   1.557   4.045  12.025
  828MPD2    N112239   1.202   3.843  12.426
  828MPD2    H712240   1.125   3.859  12.362
  829MPD2     C12241   0.598   3.771  11.889
  829MPD2    C112242   0.531   3.771  12.009
  829MPD2    C212243   0.605   3.736  12.119
  829MPD2    C312244   0.729   3.678  12.109
  829MPD2    C412245   0.788   3.663  11.981
  829MPD2    C512246   0.721   3.722  11.876
  829MPD2     H12247   0.560   3.751  12.216
  829MPD2    H112248   0.887   3.626  11.961
  829MPD2    H212249   0.548   3.815  11.803
  829MPD2    H312250   0.759   3.707  11.775
  829MPD2     N12251   0.818   3.632  12.212
  829MPD2    H512252   0.909   3.593  12.190
  829MPD2    N112253   0.404   3.841  12.021
  829MPD2    H712254   0.396   3.921  11.959
  830MPD2     C12255   1.390   1.691  16.187
  830MPD2    C112256   1.284   1.662  16.101
  830MPD2    C212257   1.280   1.715  15.972
  830MPD2    C312258   1.388   1.792  15.924
  830MPD2    C412259   1.491   1.821  16.006
  830MPD2    C512260   1.488   1.770  16.137
  830MPD2     H12261   1.193   1.691  15.912
  830MPD2    H112262   1.571   1.886  15.973
  830MPD2    H212263   1.395   1.658  16.291
  830MPD2    H312264   1.566   1.798  16.206
  830MPD2     N12265   1.383   1.876  15.811
  830MPD2    H512266   1.468   1.931  15.805
  830MPD2    N112267   1.185   1.577  16.154
  830MPD2    H712268   1.193   1.553  16.252
  831MPD2     C12269   1.250   3.738  16.458
  831MPD2    C112270   1.291   3.616  16.402
  831MPD2    C212271   1.217   3.505  16.424
  831MPD2    C312272   1.096   3.512  16.495
  831MPD2    C412273   1.061   3.630  16.558
  831MPD2    C512274   1.144   3.739  16.549
  831MPD2     H12275   1.242   3.415  16.369
  831MPD2    H112276   0.975   3.620  16.624
  831MPD2    H212277   1.307   3.827  16.435
  831MPD2    H312278   1.118   3.833  16.597
  831MPD2     N12279   0.997   3.409  16.491
  831MPD2    H512280   0.909   3.432  16.537
  831MPD2    N112281   1.396   3.621  16.312
  831MPD2    H712282   1.410   3.709  16.264
  832MPD2     C12283   4.459   4.583  17.354
  832MPD2    C112284   4.409   4.712  17.350
  832MPD2    C212285   4.306   4.736  17.262
  832MPD2    C312286   4.258   4.639  17.180
  832MPD2    C412287   4.310   4.512  17.182
  832MPD2    C512288   4.415   4.488  17.269
  832MPD2     H12289   4.268   0.032  17.249
  832MPD2    H112290   4.274   4.429  17.122
  832MPD2    H212291   4.544   4.564  17.418
  832MPD2    H312292   4.467   4.393  17.278
  832MPD2     N12293   4.165   4.658  17.079
  832MPD2    H512294   4.127   4.588  17.017
  832MPD2    N112295   4.468   4.800  17.441
  832MPD2    H712296   4.538   4.753  17.497
  833MPD2     C12297   1.573   1.607  13.097
  833MPD2    C112298   1.641   1.709  13.038
  833MPD2    C212299   1.763   1.681  12.983
  833MPD2    C312300   1.814   1.552  12.974
  833MPD2    C412301   1.747   1.451  13.036
  833MPD2    C512302   1.632   1.482  13.100
  833MPD2     H12303   1.811   1.761  12.928
  833MPD2    H112304   1.788   1.351  13.029
  833MPD2    H212305   1.475   1.618  13.143
  833MPD2    H312306   1.589   1.400  13.156
  833MPD2     N12307   1.926   1.533  12.890
  833MPD2    H512308   1.947   1.435  12.875
  833MPD2    N112309   1.576   1.828  13.020
  833MPD2    H712310   1.478   1.836  13.045
  834MPD2     C12311   1.642   1.223  12.000
  834MPD2    C112312   1.731   1.319  11.962
  834MPD2    C212313   1.821   1.364  12.058
  834MPD2    C312314   1.805   1.334  12.195
  834MPD2    C412315   1.697   1.263  12.234
  834MPD2    C512316   1.625   1.205  12.137
  834MPD2     H12317   1.906   1.418  12.017
  834MPD2    H112318   1.659   1.247  12.334
  834MPD2    H212319   1.580   1.168  11.931
  834MPD2    H312320   1.557   1.125  12.163
  834MPD2     N12321   1.898   1.405  12.285
  834MPD2    H512322   1.962   1.474  12.249
  834MPD2    N112323   1.732   1.365  11.821
  834MPD2    H712324   1.656   1.328  11.764
  835MPD2     C12325   1.860   4.110  11.339
  835MPD2    C112326   1.833   4.221  11.415
  835MPD2    C212327   1.923   4.244  11.524
  835MPD2    C312328   2.022   4.157  11.562
  835MPD2    C412329   2.050   4.047  11.483
  835MPD2    C512330   1.966   4.030  11.370
  835MPD2     H12331   1.906   4.341  11.569
  835MPD2    H112332   2.138   3.987  11.503
  835MPD2    H212333   1.804   4.086  11.250
  835MPD2    H312334   1.993   3.959  11.293
  835MPD2     N12335   2.102   4.176  11.672
  835MPD2    H512336   2.156   4.100  11.712
  835MPD2    N112337   1.730   4.315  11.409
  835MPD2    H712338   1.721   4.375  11.491
  836MPD2     C12339   1.527   4.342  12.060
  836MPD2    C112340   1.620   4.296  12.143
  836MPD2    C212341   1.581   4.260  12.271
  836MPD2    C312342   1.455   4.302  12.317
  836MPD2    C412343   1.367   4.364  12.238
  836MPD2    C512344   1.398   4.371  12.100
  836MPD2     H12345   1.655   4.219  12.339
  836MPD2    H112346   1.265   4.390  12.263
  836MPD2    H212347   1.557   4.377  11.962
  836MPD2    H312348   1.333   4.425  12.033
  836MPD2     N12349   1.403   4.275  12.450
  836MPD2    H512350   1.303   4.294  12.458
  836MPD2    N112351   1.745   4.264  12.089
  836MPD2    H712352   1.764   4.283  11.991
  837MPD2     C12353   4.751   4.044   9.977
  837MPD2    C112354   4.625   4.077  10.023
  837MPD2    C212355   4.583   4.205   9.989
  837MPD2    C312356   4.661   4.293   9.915
  837MPD2    C412357   4.787   4.262   9.878
  837MPD2    C512358   0.025   4.135   9.902
  837MPD2     H12359   4.479   4.222  10.011
  837MPD2    H112360   0.046   4.337   9.833
  837MPD2    H212361   4.789   3.945   9.999
  837MPD2    H312362   0.125   4.109   9.871
  837MPD2     N12363   4.598   4.413   9.879
  837MPD2    H512364   4.519   4.433   9.939
  837MPD2    N112365   4.536   3.991  10.090
  837MPD2    H712366   4.445   4.032  10.108
  838MPD2     C12367   3.349   2.278  11.963
  838MPD2    C112368   3.377   2.253  12.098
  838MPD2    C212369   3.275   2.193  12.172
  838MPD2    C312370   3.150   2.162  12.116
  838MPD2    C412371   3.135   2.174  11.982
  838MPD2    C512372   3.227   2.239  11.911
  838MPD2     H12373   3.286   2.180  12.279
  838MPD2    H112374   3.054   2.132  11.923
  838MPD2    H212375   3.414   2.335  11.898
  838MPD2    H312376   3.212   2.247  11.804
  838MPD2     N12377   3.051   2.109  12.198
  838MPD2    H512378   3.064   2.121  12.298
  838MPD2    N112379   3.508   2.269  12.154
  838MPD2    H712380   3.521   2.282  12.254
  839MPD2     C12381   3.135   1.567  12.097
  839MPD2    C112382   3.177   1.559  11.970
  839MPD2    C212383   3.256   1.662  11.914
  839MPD2    C312384   3.289   1.771  11.997
  839MPD2    C412385   3.245   1.771  12.130
  839MPD2    C512386   3.170   1.672  12.177
  839MPD2     H12387   3.300   1.657  11.815
  839MPD2    H112388   3.281   1.852  12.193
  839MPD2    H212389   3.089   1.479  12.140
  839MPD2    H312390   3.150   1.674  12.284
  839MPD2     N12391   3.370   1.878  11.950
  839MPD2    H512392   3.381   1.955  12.015
  839MPD2    N112393   3.140   1.458  11.879
  839MPD2    H712394   3.185   1.453  11.788
  840MPD2     C12395   3.064   4.445  10.435
  840MPD2    C112396   3.051   4.385  10.554
  840MPD2    C212397   3.143   4.413  10.648
  840MPD2    C312398   3.244   4.491  10.623
  840MPD2    C412399   3.244   4.560  10.508
  840MPD2    C512400   3.168   4.526  10.402
  840MPD2     H12401   3.138   4.367  10.745
  840MPD2    H112402   3.325   4.630  10.488
  840MPD2    H212403   2.983   4.443  10.362
  840MPD2    H312404   3.174   4.577  10.306
  840MPD2     N12405   3.338   4.532  10.722
  840MPD2    H512406   3.390   4.618  10.709
  840MPD2    N112407   2.929   4.320  10.572
  840MPD2    H712408   2.866   4.329  10.493
  841MPD2     C12409   2.613   3.678  15.311
  841MPD2    C112410   2.567   3.709  15.184
  841MPD2    C212411   2.560   3.834  15.134
  841MPD2    C312412   2.619   3.937  15.213
  841MPD2    C412413   2.651   3.911  15.341
  841MPD2    C512414   2.658   3.785  15.384
  841MPD2     H12415   2.535   3.851  15.030
  841MPD2    H112416   2.688   3.987  15.410
  841MPD2    H212417   2.611   3.585  15.366
  841MPD2    H312418   2.698   3.771  15.484
  841MPD2     N12419   2.639   4.066  15.146
  841MPD2    H512420   2.633   4.066  15.045
  841MPD2    N112421   2.504   3.607  15.106
  841MPD2    H712422   2.475   3.643  15.016
  842MPD2     C12423   3.591   0.187  17.034
  842MPD2    C112424   3.497   0.096  16.994
  842MPD2    C212425   3.446   0.005  17.089
  842MPD2    C312426   3.488   0.011  17.220
  842MPD2    C412427   3.589   0.100  17.256
  842MPD2    C512428   3.645   0.181  17.163
  842MPD2     H12429   3.362   4.748  17.059
  842MPD2    H112430   3.617   0.120  17.358
  842MPD2    H212431   3.633   0.258  16.964
  842MPD2    H312432   3.715   0.260  17.189
  842MPD2     N12433   3.420   4.754  17.328
  842MPD2    H512434   3.434   4.792  17.421
  842MPD2    N112435   3.438   0.119  16.873
  842MPD2    H712436   3.462   0.205  16.823
  843MPD2     C12437   0.357   0.881  17.976
  843MPD2    C112438   0.390   0.820  18.087
  843MPD2    C212439   0.488   0.879  18.168
  843MPD2    C312440   0.534   1.009  18.141
  843MPD2    C412441   0.481   1.077  18.035
  843MPD2    C512442   0.404   1.011  17.944
  843MPD2     H12443   0.532   0.818  18.247
  843MPD2    H112444   0.514   1.174  18.000
  843MPD2    H212445   0.283   0.840  17.908
  843MPD2    H312446   0.365   1.068  17.862
  843MPD2     N12447   0.638   1.075  18.219
  843MPD2    H512448   0.667   1.160  18.172
  843MPD2    N112449   0.318   0.704  18.122
  843MPD2    H712450   0.253   0.665  18.055
  844MPD2     C12451   3.971   4.501  16.553
  844MPD2    C112452   4.094   4.450  16.540
  844MPD2    C212453   4.206   4.518  16.585
  844MPD2    C312454   4.195   4.646  16.637
  844MPD2    C412455   4.066   4.700  16.647
  844MPD2    C512456   3.952   4.622  16.614
  844MPD2     H12457   4.299   4.462  16.583
  844MPD2    H112458   4.046   4.797  16.690
  844MPD2    H212459   3.885   4.449  16.514
  844MPD2    H312460   3.851   4.661  16.616
  844MPD2     N12461   4.314   4.717  16.674
  844MPD2    H512462   4.402   4.667  16.672
  844MPD2    N112463   4.114   4.321  16.484
  844MPD2    H712464   4.209   4.286  16.487
  845MPD2     C12465   4.600   0.798  17.220
  845MPD2    C112466   4.504   0.714  17.276
  845MPD2    C212467   4.496   0.582  17.233
  845MPD2    C312468   4.567   0.546  17.115
  845MPD2    C412469   4.660   0.628  17.062
  845MPD2    C512470   4.674   0.752  17.119
  845MPD2     H12471   4.425   0.516  17.282
  845MPD2    H112472   4.732   0.604  16.985
  845MPD2    H212473   4.610   0.900  17.256
  845MPD2    H312474   4.756   0.807  17.075
  845MPD2     N12475   4.539   0.421  17.055
  845MPD2    H512476   4.477   0.350  17.093
  845MPD2    N112477   4.437   0.768  17.391
  845MPD2    H712478   4.434   0.869  17.389
  846MPD2     C12479   1.007   0.960  13.864
  846MPD2    C112480   0.911   1.061  13.891
  846MPD2    C212481   0.881   1.084  14.023
  846MPD2    C312482   0.934   1.005  14.126
  846MPD2    C412483   1.012   0.899  14.094
  846MPD2    C512484   1.043   0.875  13.962
  846MPD2     H12485   0.805   1.160  14.037
  846MPD2    H112486   1.052   0.819  14.156
  846MPD2    H212487   1.045   0.942  13.764
  846MPD2    H312488   1.095   0.785  13.933
  846MPD2     N12489   0.893   1.037  14.258
  846MPD2    H512490   0.809   1.091  14.277
  846MPD2    N112491   0.857   1.146  13.790
  846MPD2    H712492   0.817   1.235  13.818
  847MPD2     C12493   1.018   2.042  14.513
  847MPD2    C112494   1.001   2.021  14.643
  847MPD2    C212495   1.086   1.941  14.702
  847MPD2    C312496   1.190   1.873  14.637
  847MPD2    C412497   1.206   1.894  14.510
  847MPD2    C512498   1.113   1.977  14.450
  847MPD2     H12499   1.085   1.936  14.810
  847MPD2    H112500   1.291   1.857  14.454
  847MPD2    H212501   0.956   2.107  14.451
  847MPD2    H312502   1.128   1.998  14.344
  847MPD2     N12503   1.289   1.803  14.705
  847MPD2    H512504   1.367   1.779  14.644
  847MPD2    N112505   0.913   2.095  14.726
  847MPD2    H712506   0.928   2.081  14.825
  848MPD2     C12507   3.731   0.202  16.478
  848MPD2    C112508   3.791   0.251  16.595
  848MPD2    C212509   3.840   0.380  16.591
  848MPD2    C312510   3.836   0.455  16.474
  848MPD2    C412511   3.780   0.400  16.363
  848MPD2    C512512   3.714   0.281  16.365
  848MPD2     H12513   3.886   0.422  16.680
  848MPD2    H112514   3.777   0.458  16.272
  848MPD2    H212515   3.688   0.103  16.469
  848MPD2    H312516   3.657   0.249  16.279
  848MPD2     N12517   3.879   0.593  16.456
  848MPD2    H512518   3.874   0.635  16.363
  848MPD2    N112519   3.812   0.181  16.710
  848MPD2    H712520   3.865   0.225  16.785
  849MPD2     C12521   2.490   0.021  14.582
  849MPD2    C112522   2.604   0.085  14.618
  849MPD2    C212523   2.693   0.025  14.705
  849MPD2    C312524   2.677   4.697  14.755
  849MPD2    C412525   2.557   4.637  14.717
  849MPD2    C512526   2.468   4.701  14.638
  849MPD2     H12527   2.792   0.070  14.710
  849MPD2    H112528   2.532   4.535  14.746
  849MPD2    H212529   2.421   0.065  14.511
  849MPD2    H312530   2.373   4.652  14.618
  849MPD2     N12531   2.787   4.622  14.799
  849MPD2    H512532   2.766   4.523  14.805
  849MPD2    N112533   2.638   0.203  14.541
  849MPD2    H712534   2.581   0.221  14.459
  850MPD2     C12535   1.011   2.752  14.814
  850MPD2    C112536   1.048   2.869  14.878
  850MPD2    C212537   1.181   2.892  14.902
  850MPD2    C312538   1.274   2.784  14.901
  850MPD2    C412539   1.235   2.667  14.847
  850MPD2    C512540   1.112   2.657  14.791
  850MPD2     H12541   1.205   2.989  14.944
  850MPD2    H112542   1.312   2.591  14.834
  850MPD2    H212543   0.907   2.738  14.786
  850MPD2    H312544   1.087   2.570  14.731
  850MPD2     N12545   1.404   2.791  14.960
  850MPD2    H512546   1.470   2.717  14.938
  850MPD2    N112547   0.945   2.958  14.902
  850MPD2    H712548   0.860   2.938  14.849
  851MPD2     C12549   1.517   2.820  15.541
  851MPD2    C112550   1.405   2.775  15.475
  851MPD2    C212551   1.375   2.638  15.469
  851MPD2    C312552   1.463   2.548  15.521
  851MPD2    C412553   1.584   2.594  15.563
  851MPD2    C512554   1.600   2.725  15.600
  851MPD2     H12555   1.286   2.588  15.432
  851MPD2    H112556   1.663   2.533  15.604
  851MPD2    H212557   1.531   2.925  15.560
  851MPD2    H312558   1.688   2.755  15.656
  851MPD2     N12559   1.419   2.411  15.524
  851MPD2    H512560   1.329   2.386  15.484
  851MPD2    N112561   1.316   2.867  15.425
  851MPD2    H712562   1.340   2.964  15.439
  852MPD2     C12563   1.021   0.437  10.517
  852MPD2    C112564   0.966   0.527  10.609
  852MPD2    C212565   0.970   0.662  10.589
  852MPD2    C312566   1.019   0.707  10.469
  852MPD2    C412567   1.064   0.620  10.372
  852MPD2    C512568   1.076   0.481  10.395
  852MPD2     H12569   0.917   0.732  10.653
  852MPD2    H112570   1.108   0.656  10.280
  852MPD2    H212571   1.012   0.329  10.528
  852MPD2    H312572   1.098   0.419  10.309
  852MPD2     N12573   1.014   0.848  10.451
  852MPD2    H512574   0.985   0.896  10.536
  852MPD2    N112575   0.918   0.494  10.737
  852MPD2    H712576   0.894   0.575  10.794
  853MPD2     C12577   2.481   0.180  12.658
  853MPD2    C112578   2.544   0.300  12.673
  853MPD2    C212579   2.623   0.347  12.566
  853MPD2    C312580   2.632   0.271  12.447
  853MPD2    C412581   2.570   0.150  12.441
  853MPD2    C512582   2.493   0.110  12.545
  853MPD2     H12583   2.663   0.447  12.580
  853MPD2    H112584   2.557   0.103  12.344
  853MPD2    H212585   2.412   0.137  12.729
  853MPD2    H312586   2.447   0.012  12.540
  853MPD2     N12587   2.695   0.316  12.333
  853MPD2    H512588   2.714   0.256  12.254
  853MPD2    N112589   2.519   0.370  12.794
  853MPD2    H712590   2.451   0.332  12.859
  854MPD2     C12591   4.167   0.399  12.936
  854MPD2    C112592   4.258   0.494  12.910
  854MPD2    C212593   4.387   0.491  12.963
  854MPD2    C312594   4.413   0.380  13.050
  854MPD2    C412595   4.321   0.279  13.065
  854MPD2    C512596   4.197   0.283  13.008
  854MPD2     H12597   4.470   0.558  12.947
  854MPD2    H112598   4.328   0.194  13.132
  854MPD2    H212599   4.069   0.407  12.891
  854MPD2    H312600   4.122   0.208  13.030
  854MPD2     N12601   4.536   0.373  13.122
  854MPD2    H512602   4.555   0.286  13.172
  854MPD2    N112603   4.216   0.603  12.827
  854MPD2    H712604   4.118   0.609  12.800
  855MPD2     C12605   4.288   0.361  13.637
  855MPD2    C112606   4.402   0.292  13.670
  855MPD2    C212607   4.525   0.349  13.632
  855MPD2    C312608   4.537   0.475  13.563
  855MPD2    C412609   4.416   0.532  13.535
  855MPD2    C512610   4.297   0.477  13.573
  855MPD2     H12611   4.619   0.297  13.651
  855MPD2    H112612   4.411   0.625  13.480
  855MPD2    H212613   4.195   0.325  13.680
  855MPD2    H312614   4.207   0.524  13.535
  855MPD2     N12615   4.649   0.542  13.522
  855MPD2    H512616   4.633   0.623  13.463
  855MPD2    N112617   4.417   0.174  13.744
  855MPD2    H712618   4.509   0.152  13.781
  856MPD2     C12619   2.095   0.952  14.440
  856MPD2    C112620   2.167   1.046  14.368
  856MPD2    C212621   2.092   1.148  14.303
  856MPD2    C312622   1.947   1.154  14.319
  856MPD2    C412623   1.879   1.061  14.401
  856MPD2    C512624   1.953   0.954  14.452
  856MPD2     H12625   2.144   1.224  14.245
  856MPD2    H112626   1.772   1.054  14.411
  856MPD2    H212627   2.154   0.878  14.492
  856MPD2    H312628   1.911   0.877  14.516
  856MPD2     N12629   1.876   1.259  14.267
  856MPD2    H512630   1.779   1.276  14.290
  856MPD2    N112631   2.308   1.055  14.358
  856MPD2    H712632   2.328   1.134  14.299
  857MPD2     C12633   3.279   3.645  13.281
  857MPD2    C112634   3.405   3.652  13.213
  857MPD2    C212635   3.461   3.773  13.176
  857MPD2    C312636   3.404   3.892  13.209
  857MPD2    C412637   3.287   3.893  13.287
  857MPD2    C512638   3.232   3.773  13.324
  857MPD2     H12639   3.543   3.785  13.106
  857MPD2    H112640   3.242   3.986  13.320
  857MPD2    H212641   3.242   3.552  13.323
  857MPD2    H312642   3.143   3.781  13.386
  857MPD2     N12643   3.472   4.009  13.174
  857MPD2    H512644   3.552   4.004  13.112
  857MPD2    N112645   3.476   3.534  13.182
  857MPD2    H712646   3.419   3.452  13.200
  858MPD2     C12647   4.238   2.409  17.007
  858MPD2    C112648   4.376   2.397  17.000
  858MPD2    C212649   4.455   2.478  17.084
  858MPD2    C312650   4.389   2.563  17.168
  858MPD2    C412651   4.254   2.578  17.166
  858MPD2    C512652   4.179   2.504  17.085
  858MPD2     H12653   4.563   2.467  17.082
  858MPD2    H112654   4.202   2.643  17.235
  858MPD2    H212655   4.161   2.357  16.950
  858MPD2    H312656   4.071   2.514  17.082
  858MPD2     N12657   4.458   2.640  17.258
  858MPD2    H512658   4.398   2.710  17.301
  858MPD2    N112659   4.420   2.297  16.905
  858MPD2    H712660   4.339   2.258  16.858
  859MPD2     C12661   3.240   4.321  15.834
  859MPD2    C112662   3.170   4.346  15.718
  859MPD2    C212663   3.137   4.245  15.631
  859MPD2    C312664   3.164   4.115  15.666
  859MPD2    C412665   3.233   4.094  15.786
  859MPD2    C512666   3.280   4.195  15.864
  859MPD2     H12667   3.096   4.274  15.536
  859MPD2    H112668   3.267   3.994  15.810
  859MPD2    H212669   3.273   4.403  15.897
  859MPD2    H312670   3.347   4.186  15.948
  859MPD2     N12671   3.143   4.001  15.594
  859MPD2    H512672   3.171   3.911  15.632
  859MPD2    N112673   3.115   4.481  15.703
  859MPD2    H712674   3.152   4.548  15.769
  860MPD2     C12675   0.915   0.045  11.916
  860MPD2    C112676   0.931   0.100  12.039
  860MPD2    C212677   0.824   0.089  12.135
  860MPD2    C312678   0.716   0.011  12.109
  860MPD2    C412679   0.709   4.750  11.986
  860MPD2    C512680   0.803   4.776  11.893
  860MPD2     H12681   0.835   0.123  12.238
  860MPD2    H112682   0.630   4.682  11.955
  860MPD2    H212683   0.978   0.058  11.829
  860MPD2    H312684   0.792   4.736  11.793
  860MPD2     N12685   0.608   0.001  12.199
  860MPD2    H512686   0.641   0.034  12.289
  860MPD2    N112687   1.045   0.173  12.075
  860MPD2    H712688   1.054   0.206  12.171
  861MPD2     C12689   4.189   3.216  11.371
  861MPD2    C112690   4.121   3.317  11.441
  861MPD2    C212691   4.015   3.377  11.375
  861MPD2    C312692   3.977   3.346  11.246
  861MPD2    C412693   4.054   3.255  11.172
  861MPD2    C512694   4.155   3.196  11.240
  861MPD2     H12695   3.959   3.453  11.429
  861MPD2    H112696   4.019   3.224  11.075
  861MPD2    H212697   4.269   3.157  11.414
  861MPD2    H312698   4.212   3.113  11.198
  861MPD2     N12699   3.860   3.397  11.176
  861MPD2    H512700   3.862   3.370  11.078
  861MPD2    N112701   4.144   3.351  11.579
  861MPD2    H712702   4.079   3.416  11.623
  862MPD2     C12703   3.674   3.464  10.547
  862MPD2    C112704   3.621   3.394  10.650
  862MPD2    C212705   3.609   3.256  10.639
  862MPD2    C312706   3.638   3.189  10.524
  862MPD2    C412707   3.695   3.262  10.421
  862MPD2    C512708   3.709   3.397  10.433
  862MPD2     H12709   3.563   3.198  10.719
  862MPD2    H112710   3.722   3.205  10.333
  862MPD2    H212711   3.674   3.572  10.555
  862MPD2    H312712   3.730   3.459  10.347
  862MPD2     N12713   3.620   3.052  10.506
  862MPD2    H512714   3.652   3.022  10.415
  862MPD2    N112715   3.574   3.452  10.772
  862MPD2    H712716   3.558   3.391  10.852
  863MPD2     C12717   2.458   1.154  17.146
  863MPD2    C112718   2.508   1.278  17.163
  863MPD2    C212719   2.616   1.287  17.249
  863MPD2    C312720   2.665   1.181  17.324
  863MPD2    C412721   2.619   1.057  17.296
  863MPD2    C512722   2.518   1.038  17.207
  863MPD2     H12723   2.656   1.386  17.267
  863MPD2    H112724   2.664   0.965  17.332
  863MPD2    H212725   2.372   1.134  17.083
  863MPD2    H312726   2.481   0.940  17.182
  863MPD2     N12727   2.772   1.187  17.420
  863MPD2    H512728   2.782   1.105  17.479
  863MPD2    N112729   2.452   1.380  17.079
  863MPD2    H712730   2.366   1.352  17.033
  864MPD2     C12731   2.957   3.224  17.176
  864MPD2    C112732   3.030   3.113  17.142
  864MPD2    C212733   3.158   3.128  17.091
  864MPD2    C312734   3.211   3.255  17.066
  864MPD2    C412735   3.136   3.362  17.096
  864MPD2    C512736   3.012   3.346  17.153
  864MPD2     H12737   3.214   3.037  17.071
  864MPD2    H112738   3.165   3.466  17.086
  864MPD2    H212739   2.860   3.221  17.224
  864MPD2    H312740   2.948   3.427  17.185
  864MPD2     N12741   3.338   3.272  17.014
  864MPD2    H512742   3.368   3.363  16.981
  864MPD2    N112743   2.977   2.985  17.170
  864MPD2    H712744   2.905   2.975  17.241
  865MPD2     C12745   3.145   2.969  16.276
  865MPD2    C112746   3.271   2.919  16.316
  865MPD2    C212747   3.344   2.993  16.410
  865MPD2    C312748   3.296   3.111  16.467
  865MPD2    C412749   3.169   3.140  16.438
  865MPD2    C512750   3.100   3.081  16.335
  865MPD2     H12751   3.444   2.961  16.435
  865MPD2    H112752   3.135   3.234  16.480
  865MPD2    H212753   3.085   2.929  16.195
  865MPD2    H312754   3.002   3.124  16.314
  865MPD2     N12755   3.377   3.198  16.540
  865MPD2    H512756   3.333   3.259  16.608
  865MPD2    N112757   3.320   2.797  16.266
  865MPD2    H712758   3.254   2.729  16.230
  866MPD2     C12759   4.747   3.619  11.852
  866MPD2    C112760   4.719   3.563  11.728
  866MPD2    C212761   4.601   3.591  11.651
  866MPD2    C312762   4.509   3.677  11.707
  866MPD2    C412763   4.535   3.734  11.829
  866MPD2    C512764   4.649   3.703  11.897
  866MPD2     H12765   4.576   3.545  11.556
  866MPD2    H112766   4.460   3.798  11.874
  866MPD2    H212767   0.034   3.613  11.910
  866MPD2    H312768   4.664   3.748  11.995
  866MPD2     N12769   4.395   3.715  11.637
  866MPD2    H512770   4.341   3.790  11.679
  866MPD2    N112771   0.018   3.485  11.679
  866MPD2    H712772   0.106   3.477  11.730
  867MPD2     C12773   1.802   2.898  16.791
  867MPD2    C112774   1.896   2.871  16.890
  867MPD2    C212775   1.940   2.973  16.964
  867MPD2    C312776   1.886   3.098  16.951
  867MPD2    C412777   1.799   3.121  16.843
  867MPD2    C512778   1.749   3.020  16.774
  867MPD2     H12779   2.018   2.959  17.037
  867MPD2    H112780   1.753   3.219  16.833
  867MPD2    H212781   1.774   2.833  16.709
  867MPD2    H312782   1.693   3.044  16.685
  867MPD2     N12783   1.933   3.209  17.017
  867MPD2    H512784   1.875   3.290  16.995
  867MPD2    N112785   1.954   2.739  16.889
  867MPD2    H712786   1.896   2.667  16.847
  868MPD2     C12787   3.880   1.501  13.378
  868MPD2    C112788   3.947   1.620  13.404
  868MPD2    C212789   3.878   1.731  13.438
  868MPD2    C312790   3.742   1.721  13.454
  868MPD2    C412791   3.672   1.605  13.432
  868MPD2    C512792   3.744   1.492  13.391
  868MPD2     H12793   3.934   1.820  13.462
  868MPD2    H112794   3.566   1.590  13.451
  868MPD2    H212795   3.935   1.408  13.377
  868MPD2    H312796   3.696   1.395  13.384
  868MPD2     N12797   3.676   1.835  13.513
  868MPD2    H512798   3.736   1.906  13.555
  868MPD2    N112799   4.082   1.621  13.380
  868MPD2    H712800   4.115   1.532  13.344
  869MPD2     C12801   4.593   0.111  19.748
  869MPD2    C112802   4.694   0.017  19.717
  869MPD2    C212803   0.002   0.045  19.654
  869MPD2    C312804   0.025   0.174  19.613
  869MPD2    C412805   4.728   0.268  19.636
  869MPD2    C512806   4.612   0.241  19.698
  869MPD2     H12807   0.084   4.778  19.653
  869MPD2    H112808   4.746   0.371  19.610
  869MPD2    H212809   4.497   0.077  19.784
  869MPD2    H312810   4.543   0.324  19.709
  869MPD2     N12811   0.143   0.214  19.550
  869MPD2    H512812   0.150   0.311  19.520
  869MPD2    N112813   4.670   4.691  19.759
  869MPD2    H712814   4.611   4.686  19.842
  870MPD2     C12815   0.259   3.499  19.023
  870MPD2    C112816   0.129   3.470  19.052
  870MPD2    C212817   0.027   3.550  19.004
  870MPD2    C312818   0.055   3.659  18.918
  870MPD2    C412819   0.187   3.681  18.880
  870MPD2    C512820   0.289   3.607  18.936
  870MPD2     H12821   4.729   3.532  19.032
  870MPD2    H112822   0.219   3.767  18.822
  870MPD2    H212823   0.332   3.428  19.056
  870MPD2    H312824   0.392   3.629  18.914
  870MPD2     N12825   4.760   3.746  18.884
  870MPD2    H512826   4.678   3.753  18.943
  870MPD2    N112827   0.108   3.349  19.125
  870MPD2    H712828   0.190   3.305  19.165
  871MPD2     C12829   1.143   2.822  16.454
  871MPD2    C112830   1.151   2.795  16.589
  871MPD2    C212831   1.226   2.682  16.629
  871MPD2    C312832   1.295   2.605  16.532
  871MPD2    C412833   1.290   2.637  16.398
  871MPD2    C512834   1.218   2.748  16.361
  871MPD2     H12835   1.238   2.668  16.736
  871MPD2    H112836   1.339   2.573  16.325
  871MPD2    H212837   1.083   2.899  16.407
  871MPD2    H312838   1.210   2.764  16.254
  871MPD2     N12839   1.384   2.505  16.579
  871MPD2    H512840   1.377   2.495  16.680
  871MPD2    N112841   1.067   2.866  16.676
  871MPD2    H712842   1.012   2.938  16.632
  872MPD2     C12843   1.892   0.475  14.382
  872MPD2    C112844   1.845   0.588  14.319
  872MPD2    C212845   1.707   0.624  14.325
  872MPD2    C312846   1.625   0.546  14.408
  872MPD2    C412847   1.674   0.435  14.467
  872MPD2    C512848   1.805   0.398  14.458
  872MPD2     H12849   1.665   0.706  14.269
  872MPD2    H112850   1.606   0.370  14.520
  872MPD2    H212851   1.995   0.444  14.368
  872MPD2    H312852   1.841   0.310  14.510
  872MPD2     N12853   1.491   0.566  14.430
  872MPD2    H512854   1.449   0.509  14.502
  872MPD2    N112855   1.924   0.675  14.244
  872MPD2    H712856   1.879   0.747  14.188
  873MPD2     C12857   4.160   0.294  18.545
  873MPD2    C112858   4.037   0.326  18.496
  873MPD2    C212859   3.935   0.229  18.486
  873MPD2    C312860   3.960   0.098  18.533
  873MPD2    C412861   4.084   0.064  18.577
  873MPD2    C512862   4.182   0.162  18.583
  873MPD2     H12863   3.839   0.253  18.442
  873MPD2    H112864   4.100   4.768  18.612
  873MPD2    H212865   4.230   0.375  18.562
  873MPD2    H312866   4.273   0.131  18.632
  873MPD2     N12867   3.857   0.006  18.547
  873MPD2    H512868   3.886   4.720  18.582
  873MPD2    N112869   4.015   0.461  18.480
  873MPD2    H712870   4.088   0.517  18.522
  874MPD2     C12871   3.266   0.667  16.251
  874MPD2    C112872   3.320   0.622  16.369
  874MPD2    C212873   3.420   0.704  16.416
  874MPD2    C312874   3.471   0.814  16.363
  874MPD2    C412875   3.410   0.853  16.242
  874MPD2    C512876   3.311   0.776  16.189
  874MPD2     H12877   3.463   0.675  16.511
  874MPD2    H112878   3.448   0.939  16.188
  874MPD2    H212879   3.187   0.612  16.201
  874MPD2    H312880   3.277   0.800  16.089
  874MPD2     N12881   3.586   0.874  16.411
  874MPD2    H512882   3.623   0.835  16.497
  874MPD2    N112883   3.285   0.492  16.421
  874MPD2    H712884   3.200   0.458  16.377
  875MPD2     C12885   4.657   3.786  14.574
  875MPD2    C112886   4.540   3.744  14.632
  875MPD2    C212887   4.534   3.732  14.768
  875MPD2    C312888   4.651   3.754  14.847
  875MPD2    C412889   4.761   3.799  14.782
  875MPD2    C512890   4.758   3.819  14.650
  875MPD2     H12891   4.442   3.705  14.818
  875MPD2    H112892   0.054   3.809  14.829
  875MPD2    H212893   4.666   3.811  14.469
  875MPD2    H312894   0.041   3.853  14.596
  875MPD2     N12895   4.657   3.755  14.984
  875MPD2    H512896   4.744   3.778  15.031
  875MPD2    N112897   4.416   3.712  14.563
  875MPD2    H712898   4.329   3.705  14.615
  876MPD2     C12899   3.068   0.053  16.208
  876MPD2    C112900   3.205   0.026  16.219
  876MPD2    C212901   3.244   4.710  16.265
  876MPD2    C312902   3.150   4.616  16.304
  876MPD2    C412903   3.017   4.651  16.310
  876MPD2    C512904   2.977   4.768  16.249
  876MPD2     H12905   3.346   4.677  16.254
  876MPD2    H112906   2.936   4.590  16.347
  876MPD2    H212907   3.039   0.145  16.158
  876MPD2    H312908   2.871   4.785  16.236
  876MPD2     N12909   3.198   4.485  16.333
  876MPD2    H512910   3.297   4.464  16.331
  876MPD2    N112911   3.291   0.124  16.168
  876MPD2    H712912   3.249   0.201  16.117
  877MPD2     C12913   3.178   0.620  15.665
  877MPD2    C112914   3.300   0.571  15.636
  877MPD2    C212915   3.347   0.578  15.504
  877MPD2    C312916   3.277   0.637  15.400
  877MPD2    C412917   3.145   0.679  15.432
  877MPD2    C512918   3.102   0.668  15.563
  877MPD2     H12919   3.449   0.544  15.486
  877MPD2    H112920   3.081   0.723  15.356
  877MPD2    H212921   3.140   0.613  15.766
  877MPD2    H312922   2.997   0.687  15.584
  877MPD2     N12923   3.322   0.648  15.264
  877MPD2    H512924   3.256   0.681  15.194
  877MPD2    N112925   3.378   0.500  15.738
  877MPD2    H712926   3.464   0.456  15.708
  878MPD2     C12927   2.949   4.752  13.635
  878MPD2    C112928   3.037   0.054  13.653
  878MPD2    C212929   3.041   0.130  13.769
  878MPD2    C312930   2.948   0.106  13.870
  878MPD2    C412931   2.856   0.002  13.848
  878MPD2    C512932   2.854   4.741  13.733
  878MPD2     H12933   3.109   0.213  13.775
  878MPD2    H112934   2.794   4.765  13.926
  878MPD2    H212935   2.958   4.689  13.547
  878MPD2    H312936   2.785   4.657  13.735
  878MPD2     N12937   2.952   0.178  13.997
  878MPD2    H512938   3.035   0.234  14.016
  878MPD2    N112939   3.115   0.086  13.534
  878MPD2    H712940   3.096   0.037  13.448
  879MPD2     C12941   3.455   1.386  17.418
  879MPD2    C112942   3.518   1.267  17.393
  879MPD2    C212943   3.464   1.166  17.315
  879MPD2    C312944   3.340   1.188  17.259
  879MPD2    C412945   3.269   1.302  17.286
  879MPD2    C512946   3.333   1.397  17.371
  879MPD2     H12947   3.522   1.078  17.291
  879MPD2    H112948   3.171   1.325  17.244
  879MPD2    H212949   3.480   1.461  17.492
  879MPD2    H312950   3.273   1.482  17.401
  879MPD2     N12951   3.280   1.093  17.178
  879MPD2    H512952   3.199   1.120  17.123
  879MPD2    N112953   3.631   1.249  17.470
  879MPD2    H712954   3.670   1.333  17.510
  880MPD2     C12955   4.593   2.950  18.671
  880MPD2    C112956   4.680   3.044  18.606
  880MPD2    C212957   0.006   3.047  18.645
  880MPD2    C312958   0.057   2.974  18.745
  880MPD2    C412959   4.774   2.889  18.820
  880MPD2    C512960   4.643   2.881  18.781
  880MPD2     H12961   0.068   3.120  18.596
  880MPD2    H112962   4.799   2.834  18.911
  880MPD2    H212963   4.489   2.940  18.642
  880MPD2    H312964   4.581   2.814  18.840
  880MPD2     N12965   0.185   2.982  18.778
  880MPD2    H512966   0.239   3.060  18.743
  880MPD2    N112967   4.623   3.125  18.504
  880MPD2    H712968   4.530   3.107  18.467
  881MPD2     C12969   4.797   3.858  17.721
  881MPD2    C112970   0.018   3.721  17.709
  881MPD2    C212971   4.767   3.635  17.804
  881MPD2    C312972   4.685   3.677  17.909
  881MPD2    C412973   4.661   3.813  17.909
  881MPD2    C512974   4.704   3.900  17.810
  881MPD2     H12975   4.777   3.529  17.787
  881MPD2    H112976   4.589   3.858  17.976
  881MPD2    H212977   0.031   3.932  17.652
  881MPD2    H312978   4.678   4.005  17.820
  881MPD2     N12979   4.619   3.592  17.999
  881MPD2    H512980   4.565   3.635  18.073
  881MPD2    N112981   0.090   3.682  17.596
  881MPD2    H712982   0.106   3.753  17.526
  882MPD2     C12983   3.195   0.569  14.450
  882MPD2    C112984   3.156   0.599  14.580
  882MPD2    C212985   3.022   0.627  14.607
  882MPD2    C312986   2.931   0.604  14.508
  882MPD2    C412987   2.976   0.569  14.384
  882MPD2    C512988   3.108   0.566  14.352
  882MPD2     H12989   2.996   0.648  14.710
  882MPD2    H112990   2.900   0.551  14.309
  882MPD2    H212991   3.299   0.549  14.426
  882MPD2    H312992   3.140   0.552  14.249
  882MPD2     N12993   2.793   0.609  14.527
  882MPD2    H512994   2.733   0.581  14.450
  882MPD2    N112995   3.265   0.607  14.674
  882MPD2    H712996   3.354   0.575  14.637
  883MPD2     C12997   0.316   0.237  16.441
  883MPD2    C112998   0.365   0.326  16.352
  883MPD2    C212999   0.471   0.406  16.387
  883MPD2    C313000   0.529   0.403  16.517
  883MPD2    C413001   0.478   0.306  16.602
  883MPD2    C513002   0.373   0.230  16.561
  883MPD2     H13003   0.519   0.471  16.315
  883MPD2    H113004   0.512   0.287  16.703
  883MPD2    H213005   0.222   0.185  16.429
  883MPD2    H313006   0.332   0.166  16.637
  883MPD2     N13007   0.639   0.487  16.536
  883MPD2    H513008   0.677   0.539  16.457
  883MPD2    N113009   0.315   0.340  16.224
  883MPD2    H713010   0.341   0.415  16.161
  884MPD2     C13011   2.294   1.184  15.707
  884MPD2    C113012   2.262   1.264  15.597
  884MPD2    C213013   2.140   1.322  15.597
  884MPD2    C313014   2.042   1.289  15.686
  884MPD2    C413015   2.069   1.203  15.786
  884MPD2    C513016   2.199   1.160  15.802
  884MPD2     H13017   2.114   1.391  15.517
  884MPD2    H113018   1.989   1.161  15.846
  884MPD2    H213019   2.395   1.147  15.722
  884MPD2    H313020   2.225   1.094  15.884
  884MPD2     N13021   1.910   1.337  15.677
  884MPD2    H513022   1.901   1.389  15.590
  884MPD2    N113023   2.344   1.288  15.489
  884MPD2    H713024   2.305   1.340  15.411
  885MPD2     C13025   0.601   1.446  18.324
  885MPD2    C113026   0.706   1.540  18.342
  885MPD2    C213027   0.717   1.632  18.240
  885MPD2    C313028   0.634   1.626  18.118
  885MPD2    C413029   0.535   1.528  18.113
  885MPD2    C513030   0.526   1.437  18.214
  885MPD2     H13031   0.791   1.711  18.242
  885MPD2    H113032   0.485   1.507  18.019
  885MPD2    H213033   0.584   1.371  18.400
  885MPD2    H313034   0.465   1.348  18.202
  885MPD2     N13035   0.654   1.708  18.006
  885MPD2    H513036   0.745   1.753  18.008
  885MPD2    N113037   0.792   1.540  18.453
  885MPD2    H713038   0.782   1.461  18.516
  886MPD2     C13039   1.902   0.002  15.605
  886MPD2    C113040   2.024   0.045  15.563
  886MPD2    C213041   2.045   0.181  15.560
  886MPD2    C313042   1.948   0.272  15.609
  886MPD2    C413043   1.821   0.226  15.630
  886MPD2    C513044   1.807   0.091  15.637
  886MPD2     H13045   2.138   0.221  15.521
  886MPD2    H113046   1.732   0.277  15.665
  886MPD2    H213047   1.884   4.701  15.623
  886MPD2    H313048   1.711   0.054  15.673
  886MPD2     N13049   1.975   0.405  15.645
  886MPD2    H513050   1.899   0.472  15.648
  886MPD2    N113051   2.132   4.769  15.509
  886MPD2    H713052   2.226   0.002  15.509
  887MPD2     C13053   2.763   4.733  15.843
  887MPD2    C113054   2.661   4.798  15.775
  887MPD2    C213055   2.626   0.122  15.812
  887MPD2    C313056   2.689   0.193  15.909
  887MPD2    C413057   2.793   0.124  15.967
  887MPD2    C513058   2.827   4.798  15.945
  887MPD2     H13059   2.556   0.177  15.751
  887MPD2    H113060   2.846   0.163  16.053
  887MPD2    H213061   2.794   4.629  15.832
  887MPD2    H313062   2.906   4.751  16.002
  887MPD2     N13063   2.634   0.312  15.968
  887MPD2    H513064   2.552   0.352  15.924
  887MPD2    N113065   2.576   4.737  15.678
  887MPD2    H713066   2.509   4.791  15.623
  888MPD2     C13067   4.320   0.083  14.876
  888MPD2    C113068   4.310   0.113  15.014
  888MPD2    C213069   4.350   0.236  15.065
  888MPD2    C313070   4.375   0.335  14.974
  888MPD2    C413071   4.368   0.311  14.839
  888MPD2    C513072   4.351   0.184  14.792
  888MPD2     H13073   4.344   0.262  15.170
  888MPD2    H113074   4.376   0.390  14.766
  888MPD2    H213075   4.307   4.786  14.840
  888MPD2    H313076   4.351   0.165  14.685
  888MPD2     N13077   4.428   0.454  15.028
  888MPD2    H513078   4.440   0.463  15.129
  888MPD2    N113079   4.290   0.008  15.109
  888MPD2    H713080   4.317   0.020  15.206
  889MPD2     C13081   3.568   0.048  13.088
  889MPD2    C113082   3.600   4.780  13.199
  889MPD2    C213083   3.605   0.042  13.317
  889MPD2    C313084   3.579   0.181  13.325
  889MPD2    C413085   3.554   0.252  13.207
  889MPD2    C513086   3.559   0.185  13.090
  889MPD2     H13087   3.632   4.794  13.408
  889MPD2    H113088   3.534   0.358  13.201
  889MPD2    H213089   3.564   4.802  12.993
  889MPD2    H313090   3.549   0.246  13.001
  889MPD2     N13091   3.579   0.248  13.453
  889MPD2    H513092   3.619   0.194  13.530
  889MPD2    N113093   3.645   4.645  13.186
  889MPD2    H713094   3.682   4.612  13.275
  890MPD2     C13095   3.379   1.128  14.760
  890MPD2    C113096   3.480   1.188  14.830
  890MPD2    C213097   3.490   1.158  14.966
  890MPD2    C313098   3.395   1.085  15.028
  890MPD2    C413099   3.296   1.029  14.963
  890MPD2    C513100   3.292   1.044  14.829
  890MPD2     H13101   3.575   1.194  15.022
  890MPD2    H113102   3.235   0.959  15.018
  890MPD2    H213103   3.374   1.140  14.653
  890MPD2    H313104   3.227   0.982  14.769
  890MPD2     N13105   3.432   1.056  15.157
  890MPD2    H513106   3.509   1.117  15.184
  890MPD2    N113107   3.565   1.275  14.763
  890MPD2    H713108   3.536   1.315  14.675
  891MPD2     C13109   1.076   4.392  16.757
  891MPD2    C113110   1.098   4.514  16.690
  891MPD2    C213111   1.223   4.571  16.703
  891MPD2    C313112   1.325   4.494  16.763
  891MPD2    C413113   1.304   4.371  16.817
  891MPD2    C513114   1.176   4.320  16.815
  891MPD2     H13115   1.253   4.666  16.661
  891MPD2    H113116   1.381   4.305  16.854
  891MPD2    H213117   0.974   4.356  16.756
  891MPD2    H313118   1.147   4.224  16.856
  891MPD2     N13119   1.454   4.552  16.769
  891MPD2    H513120   1.457   4.652  16.750
  891MPD2    N113121   0.987   4.581  16.637
  891MPD2    H713122   0.895   4.541  16.654
  892MPD2     C13123   2.346   0.934  15.366
  892MPD2    C113124   2.255   0.906  15.266
  892MPD2    C213125   2.302   0.837  15.154
  892MPD2    C313126   2.430   0.793  15.143
  892MPD2    C413127   2.519   0.827  15.238
  892MPD2    C513128   2.475   0.905  15.340
  892MPD2     H13129   2.231   0.822  15.073
  892MPD2    H113130   2.620   0.787  15.240
  892MPD2    H213131   2.320   0.996  15.451
  892MPD2    H313132   2.547   0.931  15.417
  892MPD2     N13133   2.470   0.704  15.044
  892MPD2    H513134   2.569   0.680  15.046
  892MPD2    N113135   2.122   0.953  15.279
  892MPD2    H713136   2.066   0.956  15.194
  893MPD2     C13137   4.398   4.286  19.015
  893MPD2    C113138   4.277   4.348  19.032
  893MPD2    C213139   4.170   4.280  19.083
  893MPD2    C313140   4.205   4.155  19.140
  893MPD2    C413141   4.334   4.107  19.141
  893MPD2    C513142   4.431   4.172  19.077
  893MPD2     H13143   4.071   4.323  19.079
  893MPD2    H113144   4.365   4.021  19.200
  893MPD2    H213145   4.476   4.337  18.958
  893MPD2    H313146   4.534   4.137  19.082
  893MPD2     N13147   4.118   4.074  19.210
  893MPD2    H513148   4.147   3.986  19.251
  893MPD2    N113149   4.262   4.485  18.995
  893MPD2    H713150   4.315   4.513  18.913
  894MPD2     C13151   2.108   1.687  18.993
  894MPD2    C113152   2.056   1.795  19.064
  894MPD2    C213153   2.056   1.922  19.005
  894MPD2    C313154   2.126   1.942  18.886
  894MPD2    C413155   2.171   1.830  18.809
  894MPD2    C513156   2.161   1.705  18.868
  894MPD2     H13157   2.007   2.000  19.061
  894MPD2    H113158   2.207   1.840  18.707
  894MPD2    H213159   2.137   1.594  19.042
  894MPD2    H313160   2.203   1.628  18.804
  894MPD2     N13161   2.154   2.077  18.844
  894MPD2    H513162   2.098   2.145  18.895
  894MPD2    N113163   2.018   1.782  19.199
  894MPD2    H713164   1.985   1.863  19.249
  895MPD2     C13165   1.486   0.266  14.048
  895MPD2    C113166   1.476   0.134  14.011
  895MPD2    C213167   1.576   0.042  14.053
  895MPD2    C313168   1.692   0.088  14.118
  895MPD2    C413169   1.700   0.217  14.154
  895MPD2    C513170   1.603   0.306  14.116
  895MPD2     H13171   1.578   4.745  14.017
  895MPD2    H113172   1.784   0.253  14.213
  895MPD2    H213173   1.421   0.340  14.002
  895MPD2    H313174   1.616   0.413  14.127
  895MPD2     N13175   1.814   0.018  14.138
  895MPD2    H513176   1.886   0.069  14.188
  895MPD2    N113177   1.372   0.089  13.931
  895MPD2    H713178   1.382   0.006  13.873
  896MPD2     C13179   3.774   2.535  19.480
  896MPD2    C113180   3.761   2.453  19.369
  896MPD2    C213181   3.637   2.416  19.335
  896MPD2    C313182   3.524   2.470  19.397
  896MPD2    C413183   3.539   2.546  19.509
  896MPD2    C513184   3.665   2.580  19.552
  896MPD2     H13185   3.615   2.351  19.251
  896MPD2    H113186   3.452   2.577  19.566
  896MPD2    H213187   3.875   2.558  19.514
  896MPD2    H313188   3.670   2.643  19.640
  896MPD2     N13189   3.402   2.432  19.348
  896MPD2    H513190   3.401   2.363  19.274
  896MPD2    N113191   3.874   2.420  19.293
  896MPD2    H713192   3.959   2.456  19.335
  897MPD2     C13193   0.159   3.989  10.746
  897MPD2    C113194   0.116   4.119  10.770
  897MPD2    C213195   0.002   4.143  10.845
  897MPD2    C313196   4.736   4.039  10.900
  897MPD2    C413197   4.770   3.910  10.873
  897MPD2    C513198   0.082   3.884  10.799
  897MPD2     H13199   4.775   4.244  10.866
  897MPD2    H113200   4.710   3.828  10.911
  897MPD2    H213201   0.240   3.958  10.681
  897MPD2    H313202   0.103   3.780  10.778
  897MPD2     N13203   4.614   4.069  10.973
  897MPD2    H513204   4.592   4.168  10.971
  897MPD2    N113205   0.187   4.235  10.723
  897MPD2    H713206   0.255   4.214  10.651
  898MPD2     C13207   1.713   4.801  17.697
  898MPD2    C113208   1.835   0.033  17.648
  898MPD2    C213209   1.862   0.163  17.614
  898MPD2    C313210   1.766   0.255  17.633
  898MPD2    C413211   1.639   0.217  17.678
  898MPD2    C513212   1.616   0.089  17.704
  898MPD2     H13213   1.958   0.190  17.572
  898MPD2    H113214   1.552   0.281  17.682
  898MPD2    H213215   1.695   4.697  17.722
  898MPD2    H313216   1.516   0.053  17.725
  898MPD2     N13217   1.805   0.390  17.600
  898MPD2    H513218   1.893   0.408  17.554
  898MPD2    N113219   1.935   4.744  17.639
  898MPD2    H713220   2.021   4.781  17.601
  899MPD2     C13221   2.907   0.738  17.789
  899MPD2    C113222   2.957   0.845  17.861
  899MPD2    C213223   2.956   0.847  17.998
  899MPD2    C313224   2.884   0.750  18.064
  899MPD2    C413225   2.841   0.637  17.994
  899MPD2    C513226   2.855   0.629  17.857
  899MPD2     H13227   3.006   0.928  18.049
  899MPD2    H113228   2.799   0.552  18.046
  899MPD2    H213229   2.911   0.740  17.681
  899MPD2    H313230   2.816   0.544  17.803
  899MPD2     N13231   2.865   0.753  18.200
  899MPD2    H513232   2.855   0.659  18.237
  899MPD2    N113233   2.999   0.959  17.785
  899MPD2    H713234   3.003   0.948  17.684
  900MPD2     C13235   2.487   2.767  12.841
  900MPD2    C113236   2.417   2.653  12.883
  900MPD2    C213237   2.295   2.623  12.829
  900MPD2    C313238   2.235   2.713  12.738
  900MPD2    C413239   2.298   2.834  12.700
  900MPD2    C513240   2.422   2.855  12.760
  900MPD2     H13241   2.241   2.529  12.835
  900MPD2    H113242   2.271   2.914  12.634
  900MPD2    H213243   2.588   2.786  12.876
  900MPD2    H313244   2.483   2.940  12.733
  900MPD2     N13245   2.118   2.666  12.674
  900MPD2    H513246   2.075   2.578  12.700
  900MPD2    N113247   2.488   2.566  12.974
  900MPD2    H713248   2.579   2.597  13.008
  901MPD2     C13249   2.488   1.566  13.162
  901MPD2    C113250   2.617   1.610  13.151
  901MPD2    C213251   2.658   1.741  13.165
  901MPD2    C313252   2.562   1.833  13.189
  901MPD2    C413253   2.426   1.792  13.190
  901MPD2    C513254   2.395   1.659  13.173
  901MPD2     H13255   2.759   1.781  13.172
  901MPD2    H113256   2.353   1.872  13.200
  901MPD2    H213257   2.470   1.459  13.161
  901MPD2    H313258   2.292   1.629  13.186
  901MPD2     N13259   2.604   1.967  13.210
  901MPD2    H513260   2.704   1.982  13.206
  901MPD2    N113261   2.704   1.503  13.136
  901MPD2    H713262   2.669   1.411  13.111
  902MPD2     C13263   1.474   0.400  13.183
  902MPD2    C113264   1.514   0.531  13.203
  902MPD2    C213265   1.638   0.572  13.159
  902MPD2    C313266   1.721   0.481  13.096
  902MPD2    C413267   1.681   0.349  13.082
  902MPD2    C513268   1.554   0.310  13.118
  902MPD2     H13269   1.667   0.675  13.171
  902MPD2    H113270   1.751   0.272  13.054
  902MPD2    H213271   1.377   0.372  13.224
  902MPD2    H313272   1.525   0.206  13.111
  902MPD2     N13273   1.838   0.521  13.026
  902MPD2    H513274   1.891   0.452  12.973
  902MPD2    N113275   1.420   0.623  13.263
  902MPD2    H713276   1.336   0.579  13.301
  903MPD2     C13277   1.812   0.918  12.245
  903MPD2    C113278   1.778   0.834  12.346
  903MPD2    C213279   1.690   0.735  12.326
  903MPD2    C313280   1.624   0.718  12.209
  903MPD2    C413281   1.646   0.805  12.105
  903MPD2    C513282   1.743   0.902  12.123
  903MPD2     H13283   1.666   0.657  12.397
  903MPD2    H113284   1.601   0.797  12.007
  903MPD2    H213285   1.876   1.004  12.257
  903MPD2    H313286   1.763   0.978  12.048
  903MPD2     N13287   1.527   0.616  12.205
  903MPD2    H513288   1.518   0.567  12.294
  903MPD2    N113289   1.855   0.850  12.471
  903MPD2    H713290   1.927   0.920  12.486
  904MPD2     C13291   1.338   4.420  14.067
  904MPD2    C113292   1.314   4.328  14.167
  904MPD2    C213293   1.403   4.328  14.270
  904MPD2    C313294   1.513   4.412  14.284
  904MPD2    C413295   1.520   4.512  14.195
  904MPD2    C513296   1.439   4.506  14.084
  904MPD2     H13297   1.385   4.259  14.351
  904MPD2    H113298   1.600   4.585  14.202
  904MPD2    H213299   1.282   4.432  13.975
  904MPD2    H313300   1.441   4.575  14.001
  904MPD2     N13301   1.604   4.378  14.388
  904MPD2    H513302   1.588   4.289  14.434
  904MPD2    N113303   1.211   4.238  14.163
  904MPD2    H713304   1.223   4.158  14.224
  905MPD2     C13305   1.265   4.355  13.452
  905MPD2    C113306   1.250   4.447  13.557
  905MPD2    C213307   1.364   4.511  13.598
  905MPD2    C313308   1.485   4.482  13.538
  905MPD2    C413309   1.487   4.397  13.433
  905MPD2    C513310   1.381   4.329  13.387
  905MPD2     H13311   1.363   4.576  13.684
  905MPD2    H113312   1.580   4.353  13.398
  905MPD2    H213313   1.180   4.294  13.424
  905MPD2    H313314   1.390   4.257  13.307
  905MPD2     N13315   1.608   4.533  13.589
  905MPD2    H513316   1.692   4.491  13.551
  905MPD2    N113317   1.129   4.444  13.627
  905MPD2    H713318   1.061   4.373  13.604
  906MPD2     C13319   3.547   4.615  11.520
  906MPD2    C113320   3.517   4.511  11.437
  906MPD2    C213321   3.457   4.392  11.480
  906MPD2    C313322   3.404   4.391  11.607
  906MPD2    C413323   3.430   4.497  11.691
  906MPD2    C513324   3.502   4.612  11.650
  906MPD2     H13325   3.442   4.313  11.407
  906MPD2    H113326   3.397   4.496  11.794
  906MPD2    H213327   3.594   4.704  11.480
  906MPD2    H313328   3.520   4.699  11.712
  906MPD2     N13329   3.320   4.296  11.663
  906MPD2    H513330   3.279   4.322  11.752
  906MPD2    N113331   3.543   4.526  11.298
  906MPD2    H713332   3.510   4.451  11.237
  907MPD2     C13333   2.030   3.544  15.634
  907MPD2    C113334   2.140   3.479  15.595
  907MPD2    C213335   2.242   3.445  15.684
  907MPD2    C313336   2.235   3.489  15.809
  907MPD2    C413337   2.132   3.567  15.849
  907MPD2    C513338   2.030   3.590  15.761
  907MPD2     H13339   2.324   3.385  15.647
  907MPD2    H113340   2.119   3.604  15.950
  907MPD2    H213341   1.936   3.558  15.582
  907MPD2    H313342   1.948   3.643  15.807
  907MPD2     N13343   2.348   3.455  15.889
  907MPD2    H513344   2.417   3.388  15.858
  907MPD2    N113345   2.148   3.429  15.460
  907MPD2    H713346   2.232   3.375  15.440
  908MPD2     C13347   0.379   4.310   9.911
  908MPD2    C113348   0.363   4.212  10.008
  908MPD2    C213349   0.334   4.248  10.138
  908MPD2    C313350   0.341   4.383  10.173
  908MPD2    C413351   0.354   4.476  10.079
  908MPD2    C513352   0.374   4.439   9.951
  908MPD2     H13353   0.327   4.177  10.220
  908MPD2    H113354   0.356   4.583  10.095
  908MPD2    H213355   0.380   4.296   9.804
  908MPD2    H313356   0.392   4.509   9.870
  908MPD2     N13357   0.337   4.416  10.313
  908MPD2    H513358   0.320   4.342  10.380
  908MPD2    N113359   0.372   4.078   9.965
  908MPD2    H713360   0.408   4.065   9.871
  909MPD2     C13361   0.635   2.270  11.696
  909MPD2    C113362   0.554   2.373  11.661
  909MPD2    C213363   0.461   2.421  11.748
  909MPD2    C313364   0.447   2.370  11.878
  909MPD2    C413365   0.538   2.274  11.912
  909MPD2    C513366   0.630   2.220  11.820
  909MPD2     H13367   0.403   2.511  11.732
  909MPD2    H113368   0.536   2.235  12.013
  909MPD2    H213369   0.712   2.231  11.630
  909MPD2    H313370   0.704   2.148  11.853
  909MPD2     N13371   0.358   2.431  11.964
  909MPD2    H513372   0.292   2.492  11.915
  909MPD2    N113373   0.567   2.446  11.540
  909MPD2    H713374   0.505   2.523  11.520
  910MPD2     C13375   1.707   4.351  16.510
  910MPD2    C113376   1.762   4.258  16.417
  910MPD2    C213377   1.716   4.255  16.288
  910MPD2    C313378   1.627   4.352  16.248
  910MPD2    C413379   1.591   4.448  16.333
  910MPD2    C513380   1.631   4.458  16.464
  910MPD2     H13381   1.742   4.171  16.225
  910MPD2    H113382   1.524   4.524  16.295
  910MPD2    H213383   1.731   4.361  16.616
  910MPD2    H313384   1.584   4.534  16.526
  910MPD2     N13385   1.560   4.357  16.123
  910MPD2    H513386   1.503   4.439  16.104
  910MPD2    N113387   1.845   4.153  16.459
  910MPD2    H713388   1.876   4.086  16.389
  911MPD2     C13389   4.409   4.412  16.203
  911MPD2    C113390   4.443   4.479  16.322
  911MPD2    C213391   4.416   4.612  16.330
  911MPD2    C313392   4.344   4.675  16.230
  911MPD2    C413393   4.329   4.606  16.116
  911MPD2    C513394   4.364   4.478  16.096
  911MPD2     H13395   4.442   4.669  16.418
  911MPD2    H113396   4.281   4.648  16.028
  911MPD2    H213397   4.434   4.308  16.186
  911MPD2    H313398   4.342   4.430  16.001
  911MPD2     N13399   4.276   4.798  16.240
  911MPD2    H513400   4.235   0.031  16.155
  911MPD2    N113401   4.515   4.410  16.425
  911MPD2    H713402   4.548   4.315  16.413
  912MPD2     C13403   4.024   4.671  15.869
  912MPD2    C113404   3.992   4.661  16.002
  912MPD2    C213405   3.990   4.535  16.059
  912MPD2    C313406   4.044   4.425  15.987
  912MPD2    C413407   4.098   4.440  15.854
  912MPD2    C513408   4.090   4.568  15.801
  912MPD2     H13409   3.953   4.513  16.158
  912MPD2    H113410   4.142   4.360  15.796
  912MPD2    H213411   4.018   4.768  15.822
  912MPD2    H313412   4.124   4.578  15.699
  912MPD2     N13413   4.057   4.307  16.066
  912MPD2    H513414   4.028   4.301  16.163
  912MPD2    N113415   3.963   4.788  16.068
  912MPD2    H713416   3.982   0.071  16.020
  913MPD2     C13417   0.140   1.037  10.975
  913MPD2    C113418   0.200   1.141  11.048
  913MPD2    C213419   0.187   1.273  11.005
  913MPD2    C313420   0.121   1.298  10.884
  913MPD2    C413421   0.069   1.188  10.817
  913MPD2    C513422   0.087   1.062  10.855
  913MPD2     H13423   0.233   1.354  11.061
  913MPD2    H113424   0.020   1.208  10.722
  913MPD2    H213425   0.140   0.932  11.001
  913MPD2    H313426   0.036   0.982  10.802
  913MPD2     N13427   0.114   1.417  10.810
  913MPD2    H513428   0.083   1.403  10.715
  913MPD2    N113429   0.284   1.104  11.156
  913MPD2    H713430   0.301   1.005  11.147
  914MPD2     C13431   2.861   1.368  12.289
  914MPD2    C113432   2.833   1.479  12.370
  914MPD2    C213433   2.855   1.456  12.503
  914MPD2    C313434   2.857   1.327  12.561
  914MPD2    C413435   2.872   1.217  12.476
  914MPD2    C513436   2.882   1.245  12.341
  914MPD2     H13437   2.845   1.532  12.579
  914MPD2    H113438   2.894   1.116  12.508
  914MPD2    H213439   2.862   1.378  12.181
  914MPD2    H313440   2.912   1.166  12.273
  914MPD2     N13441   2.849   1.310  12.701
  914MPD2    H513442   2.835   1.395  12.755
  914MPD2    N113443   2.783   1.602  12.319
  914MPD2    H713444   2.774   1.613  12.219
  915MPD2     C13445   1.016   1.141  15.739
  915MPD2    C113446   0.905   1.211  15.693
  915MPD2    C213447   0.811   1.256  15.782
  915MPD2    C313448   0.831   1.222  15.914
  915MPD2    C413449   0.944   1.152  15.953
  915MPD2    C513450   1.045   1.123  15.870
  915MPD2     H13451   0.712   1.292  15.758
  915MPD2    H113452   0.967   1.126  16.056
  915MPD2    H213453   1.086   1.092  15.672
  915MPD2    H313454   1.133   1.069  15.903
  915MPD2     N13455   0.723   1.248  16.008
  915MPD2    H513456   0.645   1.306  15.980
  915MPD2    N113457   0.894   1.216  15.547
  915MPD2    H713458   0.954   1.158  15.489
  916MPD2     C13459   3.657   4.273  16.042
  916MPD2    C113460   3.607   4.155  16.090
  916MPD2    C213461   3.639   4.035  16.027
  916MPD2    C313462   3.713   4.027  15.910
  916MPD2    C413463   3.749   4.148  15.855
  916MPD2    C513464   3.720   4.264  15.919
  916MPD2     H13465   3.623   3.936  16.068
  916MPD2    H113466   3.801   4.156  15.761
  916MPD2    H213467   3.636   4.369  16.089
  916MPD2    H313468   3.765   4.353  15.877
  916MPD2     N13469   3.752   3.904  15.853
  916MPD2    H513470   3.744   3.823  15.913
  916MPD2    N113471   3.520   4.164  16.200
  916MPD2    H713472   3.503   4.258  16.234
  917MPD2     C13473   3.917   1.877  11.529
  917MPD2    C113474   3.976   1.939  11.640
  917MPD2    C213475   4.058   2.051  11.621
  917MPD2    C313476   4.064   2.105  11.493
  917MPD2    C413477   4.000   2.048  11.382
  917MPD2    C513478   3.931   1.935  11.406
  917MPD2     H13479   4.097   2.110  11.703
  917MPD2    H113480   4.011   2.088  11.282
  917MPD2    H213481   3.855   1.789  11.541
  917MPD2    H313482   3.885   1.879  11.325
  917MPD2     N13483   4.146   2.229  11.465
  917MPD2    H513484   4.152   2.268  11.371
  917MPD2    N113485   3.927   1.903  11.766
  917MPD2    H713486   3.859   1.828  11.771
  918MPD2     C13487   3.995   2.429  12.599
  918MPD2    C113488   4.100   2.379  12.520
  918MPD2    C213489   4.057   2.278  12.434
  918MPD2    C313490   3.923   2.240  12.411
  918MPD2    C413491   3.834   2.283  12.506
  918MPD2    C513492   3.864   2.378  12.595
  918MPD2     H13493   4.127   2.226  12.370
  918MPD2    H113494   3.731   2.250  12.511
  918MPD2    H213495   4.024   2.491  12.683
  918MPD2    H313496   3.784   2.420  12.655
  918MPD2     N13497   3.902   2.134  12.319
  918MPD2    H513498   3.981   2.100  12.264
  918MPD2    N113499   4.232   2.424  12.525
  918MPD2    H713500   4.290   2.372  12.461
  919MPD2     C13501   4.750   0.812  12.170
  919MPD2    C113502   4.696   0.706  12.095
  919MPD2    C213503   4.711   0.705  11.962
  919MPD2    C313504   4.774   0.813  11.892
  919MPD2    C413505   0.003   0.922  11.969
  919MPD2    C513506   4.805   0.913  12.104
  919MPD2     H13507   4.672   0.623  11.902
  919MPD2    H113508   0.047   1.009  11.921
  919MPD2    H213509   4.756   0.824  12.278
  919MPD2    H313510   0.049   0.988  12.165
  919MPD2     N13511   4.795   0.811  11.755
  919MPD2    H513512   0.007   0.903  11.714
  919MPD2    N113513   4.623   0.604  12.153
  919MPD2    H713514   4.589   0.529  12.093
  920MPD2     C13515   4.551   1.428  11.052
  920MPD2    C113516   4.451   1.333  11.038
  920MPD2    C213517   4.477   1.202  11.087
  920MPD2    C313518   4.601   1.176  11.150
  920MPD2    C413519   4.692   1.277  11.160
  920MPD2    C513520   4.668   1.399  11.107
  920MPD2     H13521   4.397   1.128  11.087
  920MPD2    H113522   4.794   1.260  11.194
  920MPD2    H213523   4.534   1.531  11.022
  920MPD2    H313524   4.745   1.473  11.088
  920MPD2     N13525   4.622   1.044  11.208
  920MPD2    H513526   4.554   0.973  11.183
  920MPD2    N113527   4.325   1.367  10.977
  920MPD2    H713528   4.248   1.301  10.982
  921MPD2     C13529   0.427   0.001  16.875
  921MPD2    C113530   0.419   4.704  16.780
  921MPD2    C213531   0.317   4.606  16.799
  921MPD2    C313532   0.216   4.618  16.893
  921MPD2    C413533   0.216   4.738  16.962
  921MPD2    C513534   0.320   0.019  16.956
  921MPD2     H13535   0.308   4.520  16.733
  921MPD2    H113536   0.138   4.763  17.032
  921MPD2    H213537   0.504   0.078  16.883
  921MPD2    H313538   0.324   0.103  17.023
  921MPD2     N13539   0.109   4.523  16.896
  921MPD2    H513540   0.024   4.558  16.937
  921MPD2    N113541   0.520   4.693  16.688
  921MPD2    H713542   0.598   4.757  16.696
  922MPD2     C13543   1.306   2.677  17.446
  922MPD2    C113544   1.178   2.689  17.489
  922MPD2    C213545   1.115   2.580  17.534
  922MPD2    C313546   1.166   2.447  17.534
  922MPD2    C413547   1.288   2.434  17.469
  922MPD2    C513548   1.357   2.545  17.430
  922MPD2     H13549   1.017   2.594  17.579
  922MPD2    H113550   1.342   2.340  17.457
  922MPD2    H213551   1.364   2.756  17.402
  922MPD2    H313552   1.453   2.534  17.381
  922MPD2     N13553   1.093   2.339  17.586
  922MPD2    H513554   1.000   2.353  17.626
  922MPD2    N113555   1.103   2.814  17.507
  922MPD2    H713556   1.023   2.808  17.568
  923MPD2     C13557   2.430   4.781   9.238
  923MPD2    C113558   2.432   0.064   9.342
  923MPD2    C213559   2.515   0.045   9.453
  923MPD2    C313560   2.608   4.751   9.447
  923MPD2    C413561   2.608   4.667   9.335
  923MPD2    C513562   2.529   4.692   9.227
  923MPD2     H13563   2.507   0.116   9.535
  923MPD2    H113564   2.690   4.597   9.323
  923MPD2    H213565   2.360   4.796   9.156
  923MPD2    H313566   2.536   4.619   9.147
  923MPD2     N13567   2.700   4.718   9.551
  923MPD2    H513568   2.774   4.652   9.531
  923MPD2    N113569   2.346   0.175   9.342
  923MPD2    H713570   2.273   0.175   9.271
  924MPD2     C13571   2.310   2.673  16.152
  924MPD2    C113572   2.403   2.722  16.241
  924MPD2    C213573   2.471   2.833  16.203
  924MPD2    C313574   2.437   2.919  16.097
  924MPD2    C413575   2.341   2.872  16.014
  924MPD2    C513576   2.280   2.750  16.039
  924MPD2     H13577   2.542   2.877  16.273
  924MPD2    H113578   2.315   2.919  15.920
  924MPD2    H213579   2.250   2.587  16.182
  924MPD2    H313580   2.194   2.721  15.981
  924MPD2     N13581   2.502   3.044  16.065
  924MPD2    H513582   2.441   3.101  16.007
  924MPD2    N113583   2.402   2.664  16.373
  924MPD2    H713584   2.333   2.595  16.398
  925MPD2     C13585   1.428   0.691  15.094
  925MPD2    C113586   1.307   0.739  15.048
  925MPD2    C213587   1.218   0.793  15.139
  925MPD2    C313588   1.244   0.778  15.274
  925MPD2    C413589   1.364   0.727  15.316
  925MPD2    C513590   1.464   0.697  15.228
  925MPD2     H13591   1.125   0.831  15.097
  925MPD2    H113592   1.381   0.731  15.423
  925MPD2    H213593   1.497   0.643  15.026
  925MPD2    H313594   1.561   0.660  15.260
  925MPD2     N13595   1.141   0.772  15.367
  925MPD2    H513596   1.161   0.727  15.456
  925MPD2    N113597   1.258   0.737  14.919
  925MPD2    H713598   1.168   0.778  14.898
  926MPD2     C13599   0.255   3.882  13.450
  926MPD2    C113600   0.151   3.965  13.404
  926MPD2    C213601   0.181   4.060  13.312
  926MPD2    C313602   0.312   4.084  13.266
  926MPD2    C413603   0.411   4.017  13.326
  926MPD2    C513604   0.382   3.918  13.414
  926MPD2     H13605   0.100   4.114  13.263
  926MPD2    H113606   0.516   4.032  13.305
  926MPD2    H213607   0.243   3.791  13.508
  926MPD2    H313608   0.464   3.865  13.459
  926MPD2     N13609   0.344   4.174  13.162
  926MPD2    H513610   0.442   4.171  13.135
  926MPD2    N113611   0.015   3.952  13.449
  926MPD2    H713612   4.749   4.023  13.433
  927MPD2     C13613   4.319   1.407  18.017
  927MPD2    C113614   4.437   1.469  18.044
  927MPD2    C213615   4.539   1.453  17.956
  927MPD2    C313616   4.525   1.381  17.839
  927MPD2    C413617   4.404   1.313  17.817
  927MPD2    C513618   4.302   1.331  17.909
  927MPD2     H13619   4.634   1.501  17.980
  927MPD2    H113620   4.404   1.235  17.742
  927MPD2    H213621   4.236   1.419  18.086
  927MPD2    H313622   4.208   1.277  17.901
  927MPD2     N13623   4.632   1.372  17.746
  927MPD2    H513624   4.713   1.430  17.764
  927MPD2    N113625   4.450   1.535  18.162
  927MPD2    H713626   4.370   1.527  18.224
  928MPD2     C13627   2.097   4.115  18.771
  928MPD2    C113628   2.174   4.231  18.778
  928MPD2    C213629   2.294   4.245  18.702
  928MPD2    C313630   2.317   4.154  18.605
  928MPD2    C413631   2.237   4.042  18.594
  928MPD2    C513632   2.125   4.025  18.675
  928MPD2     H13633   2.356   4.333  18.718
  928MPD2    H113634   2.247   3.971  18.513
  928MPD2    H213635   2.008   4.111  18.833
  928MPD2    H313636   2.064   3.936  18.668
  928MPD2     N13637   2.417   4.167  18.500
  928MPD2    H513638   2.432   4.092  18.433
  928MPD2    N113639   2.122   4.336  18.866
  928MPD2    H713640   2.049   4.315  18.934
  929MPD2     C13641   2.155   0.117  10.022
  929MPD2    C113642   2.088   0.052  10.119
  929MPD2    C213643   1.952   0.024  10.092
  929MPD2    C313644   1.879   0.082   9.984
  929MPD2    C413645   1.952   0.160   9.893
  929MPD2    C513646   2.087   0.170   9.917
  929MPD2     H13647   1.892   4.769  10.160
  929MPD2    H113648   1.907   0.205   9.805
  929MPD2    H213649   2.258   0.145  10.038
  929MPD2    H313650   2.152   0.220   9.846
  929MPD2     N13651   1.744   0.056   9.957
  929MPD2    H513652   1.703   0.074   9.866
  929MPD2    N113653   2.155   0.036  10.247
  929MPD2    H713654   2.254   0.055  10.255
  930MPD2     C13655   4.156   1.889  14.208
  930MPD2    C113656   4.280   1.902  14.148
  930MPD2    C213657   4.321   1.802  14.058
  930MPD2    C313658   4.233   1.708  14.012
  930MPD2    C413659   4.114   1.700  14.080
  930MPD2    C513660   4.076   1.793  14.175
  930MPD2     H13661   4.428   1.798  14.044
  930MPD2    H113662   4.043   1.622  14.053
  930MPD2    H213663   4.113   1.964  14.274
  930MPD2    H313664   3.975   1.790  14.214
  930MPD2     N13665   4.270   1.610  13.916
  930MPD2    H513666   4.211   1.528  13.927
  930MPD2    N113667   4.375   1.996  14.198
  930MPD2    H713668   4.351   2.046  14.283
  931MPD2     C13669   0.230   1.503  18.615
  931MPD2    C113670   0.101   1.514  18.664
  931MPD2    C213671   0.057   1.430  18.769
  931MPD2    C313672   0.152   1.338  18.819
  931MPD2    C413673   0.284   1.339  18.776
  931MPD2    C513674   0.325   1.425  18.678
  931MPD2     H13675   4.758   1.418  18.798
  931MPD2    H113676   0.355   1.269  18.818
  931MPD2    H213677   0.257   1.557  18.524
  931MPD2    H313678   0.424   1.419  18.633
  931MPD2     N13679   0.118   1.227  18.904
  931MPD2    H513680   0.200   1.176  18.934
  931MPD2    N113681   0.007   1.603  18.599
  931MPD2    H713682   0.049   1.652  18.520
  932MPD2     C13683   1.390   1.068  11.750
  932MPD2    C113684   1.499   1.042  11.667
  932MPD2    C213685   1.565   0.920  11.670
  932MPD2    C313686   1.521   0.813  11.754
  932MPD2    C413687   1.413   0.849  11.840
  932MPD2    C513688   1.347   0.966  11.837
  932MPD2     H13689   1.646   0.899  11.600
  932MPD2    H113690   1.380   0.772  11.908
  932MPD2    H213691   1.344   1.165  11.767
  932MPD2    H313692   1.267   0.985  11.908
  932MPD2     N13693   1.575   0.682  11.758
  932MPD2    H513694   1.535   0.628  11.834
  932MPD2    N113695   1.546   1.140  11.575
  932MPD2    H713696   1.622   1.109  11.515
  933MPD2     C13697   1.894   0.328  19.223
  933MPD2    C113698   1.928   0.272  19.104
  933MPD2    C213699   1.902   0.341  18.986
  933MPD2    C313700   1.844   0.460  18.992
  933MPD2    C413701   1.797   0.514  19.114
  933MPD2    C513702   1.826   0.441  19.230
  933MPD2     H13703   1.945   0.312  18.891
  933MPD2    H113704   1.753   0.613  19.112
  933MPD2    H213705   1.935   0.286  19.314
  933MPD2    H313706   1.808   0.492  19.324
  933MPD2     N13707   1.843   0.526  18.868
  933MPD2    H513708   1.870   0.468  18.789
  933MPD2    N113709   2.000   0.154  19.112
  933MPD2    H713710   2.013   0.098  19.196
  934MPD2     C13711   3.186   2.773  19.718
  934MPD2    C113712   3.273   2.673  19.771
  934MPD2    C213713   3.249   2.543  19.741
  934MPD2    C313714   3.136   2.500  19.678
  934MPD2    C413715   3.040   2.594  19.652
  934MPD2    C513716   3.067   2.729  19.674
  934MPD2     H13717   3.317   2.465  19.774
  934MPD2    H113718   2.947   2.561  19.607
  934MPD2    H213719   3.211   2.878  19.728
  934MPD2    H313720   2.993   2.808  19.667
  934MPD2     N13721   3.106   2.365  19.641
  934MPD2    H513722   3.010   2.346  19.614
  934MPD2    N113723   3.393   2.706  19.837
  934MPD2    H713724   3.447   2.625  19.868
  935MPD2     C13725   3.746   1.642  19.402
  935MPD2    C113726   3.626   1.606  19.337
  935MPD2    C213727   3.517   1.682  19.379
  935MPD2    C313728   3.519   1.779  19.475
  935MPD2    C413729   3.635   1.803  19.540
  935MPD2    C513730   3.744   1.733  19.502
  935MPD2     H13731   3.428   1.673  19.317
  935MPD2    H113732   3.639   1.874  19.621
  935MPD2    H213733   3.834   1.582  19.383
  935MPD2    H313734   3.836   1.774  19.541
  935MPD2     N13735   3.407   1.849  19.510
  935MPD2    H513736   3.420   1.907  19.593
  935MPD2    N113737   3.622   1.510  19.235
  935MPD2    H713738   3.531   1.474  19.207
  936MPD2     C13739   2.104   3.417  12.712
  936MPD2    C113740   2.205   3.493  12.762
  936MPD2    C213741   2.231   3.614  12.693
  936MPD2    C313742   2.157   3.653  12.581
  936MPD2    C413743   2.058   3.576  12.536
  936MPD2    C513744   2.031   3.455  12.598
  936MPD2     H13745   2.305   3.682  12.733
  936MPD2    H113746   1.997   3.602  12.450
  936MPD2    H213747   2.068   3.327  12.760
  936MPD2    H313748   1.947   3.390  12.576
  936MPD2     N13749   2.175   3.777  12.523
  936MPD2    H513750   2.099   3.803  12.461
  936MPD2    N113751   2.277   3.467  12.881
  936MPD2    H713752   2.335   3.545  12.910
  937MPD2     C13753   4.699   4.721  12.054
  937MPD2    C113754   4.726   0.052  12.068
  937MPD2    C213755   0.037   0.101  12.010
  937MPD2    C313756   0.116   0.026  11.924
  937MPD2    C413757   0.079   4.703  11.895
  937MPD2    C513758   4.777   4.650  11.967
  937MPD2     H13759   0.055   0.207  12.019
  937MPD2    H113760   0.131   4.624  11.844
  937MPD2    H213761   4.609   4.680  12.097
  937MPD2    H313762   4.747   4.551  11.936
  937MPD2     N13763   0.230   0.096  11.871
  937MPD2    H513764   0.250   0.188  11.909
  937MPD2    N113765   4.652   0.146  12.135
  937MPD2    H713766   4.669   0.243  12.114
  938MPD2     C13767   2.754   1.045  18.696
  938MPD2    C113768   2.667   1.139  18.738
  938MPD2    C213769   2.616   1.141  18.862
  938MPD2    C313770   2.639   1.034  18.951
  938MPD2    C413771   2.727   0.933  18.906
  938MPD2    C513772   2.791   0.942  18.784
  938MPD2     H13773   2.552   1.224  18.888
  938MPD2    H113774   2.761   0.853  18.971
  938MPD2    H213775   2.795   1.056  18.597
  938MPD2    H313776   2.855   0.865  18.743
  938MPD2     N13777   2.596   1.027  19.089
  938MPD2    H513778   2.636   0.947  19.138
  938MPD2    N113779   2.652   1.262  18.677
  938MPD2    H713780   2.626   1.346  18.728
  939MPD2     C13781   3.714   2.154  18.816
  939MPD2    C113782   3.692   2.283  18.773
  939MPD2    C213783   3.753   2.328  18.656
  939MPD2    C313784   3.823   2.233  18.573
  939MPD2    C413785   3.836   2.103  18.616
  939MPD2    C513786   3.784   2.064  18.733
  939MPD2     H13787   3.746   2.432  18.629
  939MPD2    H113788   3.877   2.028  18.551
  939MPD2    H213789   3.677   2.119  18.911
  939MPD2    H313790   3.794   1.964  18.774
  939MPD2     N13791   3.880   2.280  18.453
  939MPD2    H513792   3.875   2.376  18.422
  939MPD2    N113793   3.615   2.370  18.855
  939MPD2    H713794   3.590   2.333  18.947
  940MPD2     C13795   2.845   3.986  13.465
  940MPD2    C113796   2.784   3.863  13.464
  940MPD2    C213797   2.810   3.775  13.362
  940MPD2    C313798   2.883   3.815  13.253
  940MPD2    C413799   2.936   3.948  13.252
  940MPD2    C513800   2.914   4.032  13.356
  940MPD2     H13801   2.754   3.682  13.352
  940MPD2    H113802   2.993   3.985  13.167
  940MPD2    H213803   2.831   4.065  13.538
  940MPD2    H313804   2.955   4.132  13.361
  940MPD2     N13805   2.906   3.738  13.144
  940MPD2    H513806   2.975   3.771  13.078
  940MPD2    N113807   2.704   3.831  13.576
  940MPD2    H713808   2.662   3.739  13.566
  941MPD2     C13809   1.619   3.093  10.121
  941MPD2    C113810   1.736   3.064  10.185
  941MPD2    C213811   1.757   2.937  10.228
  941MPD2    C313812   1.669   2.836  10.206
  941MPD2    C413813   1.551   2.868  10.145
  941MPD2    C513814   1.526   2.994  10.098
  941MPD2     H13815   1.847   2.919  10.286
  941MPD2    H113816   1.474   2.794  10.126
  941MPD2    H213817   1.593   3.190  10.080
  941MPD2    H313818   1.433   3.018  10.047
  941MPD2     N13819   1.687   2.707  10.268
  941MPD2    H513820   1.622   2.634  10.240
  941MPD2    N113821   1.834   3.168  10.215
  941MPD2    H713822   1.910   3.135  10.272
  942MPD2     C13823   0.870   0.139   9.399
  942MPD2    C113824   0.920   0.012   9.378
  942MPD2    C213825   1.044   4.804   9.310
  942MPD2    C313826   1.123   0.110   9.279
  942MPD2    C413827   1.077   0.230   9.316
  942MPD2    C513828   0.946   0.247   9.361
  942MPD2     H13829   1.091   4.706   9.313
  942MPD2    H113830   1.147   0.312   9.306
  942MPD2    H213831   0.780   0.154   9.458
  942MPD2    H313832   0.936   0.347   9.403
  942MPD2     N13833   1.256   0.092   9.239
  942MPD2    H513834   1.321   0.167   9.260
  942MPD2    N113835   0.851   4.691   9.403
  942MPD2    H713836   0.896   4.606   9.372
  943MPD2     C13837   0.453   2.611  10.027
  943MPD2    C113838   0.580   2.673  10.042
  943MPD2    C213839   0.600   2.794   9.975
  943MPD2    C313840   0.494   2.856   9.913
  943MPD2    C413841   0.377   2.788   9.895
  943MPD2    C513842   0.358   2.666   9.953
  943MPD2     H13843   0.694   2.846   9.989
  943MPD2    H113844   0.298   2.833   9.835
  943MPD2    H213845   0.442   2.515  10.076
  943MPD2    H313846   0.264   2.613   9.937
  943MPD2     N13847   0.502   2.989   9.857
  943MPD2    H513848   0.430   3.010   9.789
  943MPD2    N113849   0.674   2.605  10.129
  943MPD2    H713850   0.634   2.540  10.195
  944MPD2     C13851   0.044   1.555  11.350
  944MPD2    C113852   0.137   1.616  11.423
  944MPD2    C213853   0.104   1.743  11.472
  944MPD2    C313854   4.795   1.811  11.440
  944MPD2    C413855   4.702   1.741  11.357
  944MPD2    C513856   4.730   1.617  11.323
  944MPD2     H13857   0.175   1.795  11.536
  944MPD2    H113858   4.614   1.798  11.326
  944MPD2    H213859   0.063   1.456  11.309
  944MPD2    H313860   4.644   1.571  11.275
  944MPD2     N13861   4.783   1.947  11.488
  944MPD2    H513862   0.056   1.988  11.540
  944MPD2    N113863   0.260   1.554  11.444
  944MPD2    H713864   0.288   1.475  11.387
  945TMC1    C113865   3.666   2.508  14.773
  945TMC1    C213866   3.524   2.495  14.747
  945TMC1    C313867   3.487   2.371  14.694
  945TMC1    C413868   3.762   2.422  14.741
  945TMC1    C513869   3.721   2.305  14.684
  945TMC1    C613870   3.586   2.282  14.652
  945TMC1     C13871   3.708   2.628  14.851
  945TMC1     O13872   3.799   2.611  14.931
  945TMC1     H13873   3.442   2.562  14.773
  945TMC1    H113874   3.865   2.449  14.760
  945TMC1    H213875   3.552   2.192  14.604
  945TMC1    C713876   3.826   2.200  14.691
  945TMC1    C813877   3.354   2.339  14.654
  945TMC1    O113878   3.941   2.228  14.656
  945TMC1    O213879   3.348   2.278  14.548
  945TMC1    O313880   3.773   2.077  14.683
  945TMC1    H313881   3.682   2.073  14.719
  945TMC1    O513882   3.264   2.431  14.689
  945TMC1    H513883   3.290   2.462  14.778
  946MPD2     C13884   3.649   3.116  15.012
  946MPD2    C113885   3.572   3.097  14.904
  946MPD2    C213886   3.554   2.975  14.845
  946MPD2    C313887   3.635   2.866  14.889
  946MPD2    C413888   3.716   2.891  15.000
  946MPD2    C513889   3.723   3.014  15.056
  946MPD2     H13890   3.474   2.967  14.772
  946MPD2    H113891   3.787   2.820  15.041
  946MPD2    H213892   3.656   3.214  15.059
  946MPD2    H313893   3.793   3.020  15.139
  946MPD2     N13894   3.630   2.739  14.823
  946MPD2    H513895   3.561   2.740  14.748
  946MPD2    N113896   3.520   3.211  14.839
  946MPD2    H713897   3.509   3.292  14.899
  947TMC2    C113898   3.454   3.361  14.679
  947TMC2    C213899   3.547   3.452  14.719
  947TMC2    C313900   3.533   3.579  14.661
  947TMC2    C413901   3.360   3.374  14.574
  947TMC2    C513902   3.363   3.497  14.517
  947TMC2    C613903   3.440   3.601  14.563
  947TMC2     C13904   3.490   3.222  14.705
  947TMC2     O13905   3.492   3.142  14.613
  947TMC2     H13906   3.609   3.427  14.804
  947TMC2    H113907   3.297   3.291  14.546
  947TMC2    H213908   3.455   3.690  14.503
  947TMC2    C713909   3.268   3.508  14.415
  947TMC2    C813910   3.614   3.696  14.691
  947TMC2    O113911   3.159   3.459  14.448
  947TMC2    O213912   3.573   3.808  14.678
  947TMC2    O513913   3.728   3.661  14.752
  947TMC2    H513914   3.759   3.578  14.709
  948TMC2    C113915   3.392   4.314  13.922
  948TMC2    C213916   3.524   4.354  13.896
  948TMC2    C313917   3.617   4.257  13.886
  948TMC2    C413918   3.352   4.183  13.925
  948TMC2    C513919   3.459   4.092  13.922
  948TMC2    C613920   3.592   4.124  13.914
  948TMC2     C13921   3.298   4.415  13.939
  948TMC2     O13922   3.341   4.524  13.980
  948TMC2     H13923   3.551   4.457  13.874
  948TMC2    H113924   3.250   4.152  13.945
  948TMC2    H213925   3.661   4.042  13.899
  948TMC2    C713926   3.437   3.963  13.977
  948TMC2    C813927   3.760   4.292  13.877
  948TMC2    O113928   3.534   3.904  14.024
  948TMC2    O213929   3.855   4.230  13.921
  948TMC2    O513930   3.771   4.375  13.771
  948TMC2    H513931   3.684   4.383  13.726
  949MPD2     C13932   2.814   4.505  14.024
  949MPD2    C113933   2.822   4.433  13.907
  949MPD2    C213934   2.946   4.386  13.872
  949MPD2    C313935   3.055   4.429  13.943
  949MPD2    C413936   3.047   4.519  14.047
  949MPD2    C513937   2.925   4.554  14.092
  949MPD2     H13938   2.953   4.315  13.790
  949MPD2    H113939   3.127   4.556  14.111
  949MPD2    H213940   2.716   4.528  14.064
  949MPD2    H313941   2.918   4.627  14.171
  949MPD2     N13942   3.176   4.377  13.895
  949MPD2    H513943   3.182   4.302  13.827
  949MPD2    N113944   2.709   4.405  13.835
  949MPD2    H713945   2.620   4.415  13.883
  950MPD1     C13946   1.700   0.969  13.526
  950MPD1    C113947   1.831   0.940  13.484
  950MPD1    C213948   1.877   0.816  13.468
  950MPD1    C313949   1.792   0.710  13.484
  950MPD1    C413950   1.664   0.736  13.533
  950MPD1    C513951   1.624   0.863  13.561
  950MPD1     H13952   1.979   0.805  13.435
  950MPD1    H113953   1.593   0.663  13.572
  950MPD1    H213954   1.671   1.073  13.531
  950MPD1    H313955   1.524   0.882  13.599
  950MPD1     N13956   1.832   0.576  13.466
  950MPD1    H513957   1.765   0.507  13.497
  950MPD1    N113958   1.915   1.048  13.462
  950MPD1    H613959   1.857   1.124  13.428
  950MPD1    H713960   1.985   1.022  13.393
  951MPD2     C13961   1.904   4.718  13.551
  951MPD2    C113962   1.996   4.732  13.650
  951MPD2    C213963   2.070   4.622  13.691
  951MPD2    C313964   2.062   4.503  13.619
  951MPD2    C413965   1.970   4.491  13.509
  951MPD2    C513966   1.896   4.601  13.482
  951MPD2     H13967   2.137   4.630  13.777
  951MPD2    H113968   1.957   4.395  13.460
  951MPD2    H213969   1.839   4.799  13.521
  951MPD2    H313970   1.836   4.600  13.392
  951MPD2     N13971   2.144   4.394  13.640
  951MPD2    H513972   2.139   4.310  13.583
  951MPD2    N113973   2.018   0.043  13.722
  951MPD2    H713974   2.063   0.035  13.813
  952TMC3    C113975   2.357   4.284  13.670
  952TMC3    C213976   2.480   4.304  13.730
  952TMC3    C313977   2.587   4.323  13.648
  952TMC3    C413978   2.347   4.267  13.535
  952TMC3    C513979   2.462   4.286  13.454
  952TMC3    C613980   2.579   4.306  13.513
  952TMC3     C13981   2.249   4.377  13.726
  952TMC3     O13982   2.289   4.455  13.815
  952TMC3     H13983   2.487   4.326  13.836
  952TMC3    H113984   2.255   4.249  13.481
  952TMC3    H213985   2.661   4.316  13.443
  952TMC3    C713986   2.434   4.390  13.361
  952TMC3    C813987   2.712   4.363  13.704
  952TMC3    O113988   2.518   4.477  13.343
  952TMC3    O213989   2.797   4.363  13.620
  953TMC3    C113990   1.940   0.389  13.399
  953TMC3    C213991   2.017   0.339  13.307
  953TMC3    C313992   2.076   0.222  13.342
  953TMC3    C413993   1.935   0.339  13.522
  953TMC3    C513994   1.988   0.215  13.550
  953TMC3    C613995   2.075   0.157  13.463
  953TMC3     C13996   1.935   0.533  13.383
  953TMC3     O13997   2.016   0.593  13.315
  953TMC3     H13998   2.000   0.385  13.211
  953TMC3    H113999   1.870   0.381  13.598
  953TMC3    H214000   2.133   0.068  13.485
  953TMC3    C714001   1.975   0.170  13.689
  953TMC3    C814002   2.114   0.148  13.220
  953TMC3    O114003   1.975   0.261  13.771
  953TMC3    O214004   2.059   0.169  13.113
  954MPD2     C14005   2.141   4.455  13.139
  954MPD2    C114006   2.242   4.485  13.229
  954MPD2    C214007   2.266   4.618  13.253
  954MPD2    C314008   2.185   4.715  13.194
  954MPD2    C414009   2.081   4.685  13.109
  954MPD2    C514010   2.063   4.556  13.082
  954MPD2     H14011   2.353   4.640  13.314
  954MPD2    H114012   2.025   4.762  13.057
  954MPD2    H214013   2.124   4.354  13.104
  954MPD2    H314014   2.009   4.528  12.993
  954MPD2     N14015   2.195   0.038  13.253
  954MPD2    H514016   2.263   0.042  13.328
  954MPD2    N114017   2.310   4.376  13.302
  954MPD2    H714018   2.254   4.291  13.301
  955MPD2     C14019   3.100   3.636  14.208
  955MPD2    C114020   3.228   3.676  14.238
  955MPD2    C214021   3.294   3.770  14.160
  955MPD2    C314022   3.240   3.827  14.049
  955MPD2    C414023   3.114   3.790  14.026
  955MPD2    C514024   3.045   3.694  14.096
  955MPD2     H14025   3.392   3.796  14.199
  955MPD2    H114026   3.059   3.828  13.941
  955MPD2    H214027   3.048   3.552  14.252
  955MPD2    H314028   2.945   3.666  14.065
  955MPD2     N14029   3.303   3.926  13.973
  955MPD2    H514030   3.232   3.985  13.932
  955MPD2    N114031   3.308   3.610  14.332
  955MPD2    H714032   3.404   3.633  14.354
  956MPD1     C14033   0.435   4.762  17.438
  956MPD1    C114034   0.511   0.067  17.470
  956MPD1    C214035   0.583   0.129  17.372
  956MPD1    C314036   0.601   0.061  17.257
  956MPD1    C414037   0.536   4.747  17.227
  956MPD1    C514038   0.449   4.697  17.321
  956MPD1     H14039   0.624   0.228  17.386
  956MPD1    H114040   0.555   4.702  17.130
  956MPD1    H214041   0.383   4.712  17.519
  956MPD1    H314042   0.388   4.611  17.297
  956MPD1     N14043   0.689   0.099  17.161
  956MPD1    H514044   0.704   0.027  17.091
  956MPD1    N114045   0.492   0.132  17.592
  956MPD1    H614046   0.468   0.070  17.670
  956MPD1    H714047   0.573   0.183  17.625
  957MPD1     C14048   1.569   0.552  17.221
  957MPD1    C114049   1.451   0.569  17.288
  957MPD1    C214050   1.339   0.510  17.226
  957MPD1    C314051   1.349   0.418  17.125
  957MPD1    C414052   1.472   0.390  17.075
  957MPD1    C514053   1.576   0.463  17.118
  957MPD1     H14054   1.238   0.534  17.257
  957MPD1    H114055   1.493   0.314  17.001
  957MPD1    H214056   1.656   0.610  17.249
  957MPD1    H314057   1.669   0.446  17.064
  957MPD1     N14058   1.226   0.360  17.090
  957MPD1    H514059   1.143   0.403  17.131
  957MPD1    N114060   1.436   0.674  17.381
  957MPD1    H614061   1.514   0.687  17.445
  957MPD1    H714062   1.350   0.668  17.436
  958TMC3    C114063   1.065   0.253  16.962
  958TMC3    C214064   1.025   0.221  16.838
  958TMC3    C314065   0.893   0.195  16.820
  958TMC3    C414066   0.981   0.254  17.068
  958TMC3    C514067   0.854   0.206  17.046
  958TMC3    C614068   0.803   0.184  16.922
  958TMC3     C14069   1.205   0.282  16.979
  958TMC3     O14070   1.278   0.259  16.879
  958TMC3     H14071   1.092   0.177  16.765
  958TMC3    H114072   1.012   0.266  17.171
  958TMC3    H214073   0.695   0.178  16.924
  958TMC3    C714074   0.765   0.212  17.161
  958TMC3    C814075   0.836   0.173  16.687
  958TMC3    O114076   0.756   0.313  17.229
  958TMC3    O214077   0.719   0.134  16.688
  959MPD1     C14078   0.768   0.239  16.174
  959MPD1    C114079   0.892   0.296  16.208
  959MPD1    C214080   0.936   0.283  16.344
  959MPD1    C314081   0.861   0.222  16.446
  959MPD1    C414082   0.738   0.174  16.405
  959MPD1    C514083   0.702   0.175  16.274
  959MPD1     H14084   1.032   0.326  16.369
  959MPD1    H114085   0.664   0.128  16.470
  959MPD1    H214086   0.716   0.249  16.079
  959MPD1    H314087   0.607   0.129  16.252
  959MPD1     N14088   0.907   0.219  16.578
  959MPD1    H514089   1.001   0.257  16.591
  959MPD1    N114090   0.969   0.366  16.113
  959MPD1    H614091   1.065   0.380  16.143
  959MPD1    H714092   0.978   0.322  16.022
  960TCq1    O114093   2.528   4.737  12.135
  960TCq1    C114094   2.595   0.034  12.081
  960TCq1    O214095   2.685   0.094  12.140
  960TCq1    C214096   2.504   0.089  11.985
  960TCq1    C314097   2.459   0.007  11.886
  960TCq1    C414098   2.382   0.065  11.790
  960TCq1    C514099   2.346   0.194  11.779
  960TCq1    C614100   2.417   0.277  11.863
  960TCq1    C714101   2.482   0.229  11.975
  960TCq1    C814102   2.349   0.405  11.890
  960TCq1    O414103   2.351   0.449  12.005
  960TCq1    C914104   2.329   4.779  11.685
  960TCq1    O514105   2.210   4.783  11.653
  960TCq1    O614106   2.437   4.758  11.605
  960TCq1    H114107   2.439   4.721  12.096
  960TCq1    H214108   2.479   4.706  11.879
  960TCq1    H314109   2.271   0.212  11.704
  960TCq1    H414110   2.520   0.289  12.058
  961MPD1     C14111   1.990   0.748  11.720
  961MPD1    C114112   2.030   0.661  11.619
  961MPD1    C214113   2.132   0.568  11.637
  961MPD1    C314114   2.191   0.554  11.762
  961MPD1    C414115   2.135   0.620  11.871
  961MPD1    C514116   2.044   0.719  11.847
  961MPD1     H14117   2.174   0.514  11.553
  961MPD1    H114118   2.178   0.609  11.969
  961MPD1    H214119   1.918   0.827  11.706
  961MPD1    H314120   2.000   0.767  11.934
  961MPD1     N14121   2.295   0.457  11.768
  961MPD1    H514122   2.317   0.404  11.684
  961MPD1    N114123   1.985   0.682  11.489
  961MPD1    H614124   1.997   0.598  11.433
  961MPD1    H714125   1.887   0.706  11.476
  962TMC1    C114126   0.791   1.364  19.374
  962TMC1    C214127   0.764   1.432  19.259
  962TMC1    C314128   0.818   1.381  19.142
  962TMC1    C414129   0.885   1.262  19.374
  962TMC1    C514130   0.950   1.229  19.255
  962TMC1    C614131   0.914   1.276  19.130
  962TMC1     C14132   0.672   1.341  19.455
  962TMC1     O14133   0.572   1.399  19.422
  962TMC1     H14134   0.681   1.501  19.266
  962TMC1    H114135   0.924   1.232  19.470
  962TMC1    H214136   0.961   1.253  19.035
  962TMC1    C714137   1.064   1.139  19.265
  962TMC1    C814138   0.754   1.427  19.015
  962TMC1    O114139   1.145   1.163  19.353
  962TMC1    O214140   0.781   1.379  18.909
  962TMC1    O314141   1.000   1.026  19.256
  962TMC1    H314142   0.941   1.009  19.180
  962TMC1    O514143   0.736   1.558  19.042
  962TMC1    H514144   0.744   1.580  19.137
  963MPD1     C14145   0.448   1.138  19.872
  963MPD1    C114146   0.570   1.074  19.859
  963MPD1    C214147   0.660   1.124  19.759
  963MPD1    C314148   0.611   1.208  19.661
  963MPD1    C414149   0.478   1.246  19.666
  963MPD1    C514150   0.400   1.219  19.774
  963MPD1     H14151   0.764   1.094  19.763
  963MPD1    H114152   0.434   1.311  19.591
  963MPD1    H214153   0.381   1.122  19.956
  963MPD1    H314154   0.297   1.252  19.771
  963MPD1     N14155   0.697   1.242  19.555
  963MPD1    H514156   0.795   1.214  19.561
  963MPD1    N114157   0.618   0.995  19.967
  963MPD1    H614158   0.537   0.942  19.999
  963MPD1    H714159   0.685   0.933  19.922
  964MPD1     C14160   3.373   4.548  12.403
  964MPD1    C114161   3.484   4.542  12.318
  964MPD1    C214162   3.565   4.650  12.302
  964MPD1    C314163   3.534   4.764  12.372
  964MPD1    C414164   3.424   4.777  12.453
  964MPD1    C514165   3.347   4.664  12.468
  964MPD1     H14166   3.654   4.659  12.241
  964MPD1    H114167   3.384   0.062  12.498
  964MPD1    H214168   3.306   4.466  12.424
  964MPD1    H314169   3.255   4.675  12.525
  964MPD1     N14170   3.623   0.073  12.353
  964MPD1    H514171   3.705   0.045  12.299
  964MPD1    N114172   3.502   4.431  12.233
  964MPD1    H614173   3.473   4.342  12.274
  964MPD1    H714174   3.602   4.423  12.211
  965MPD1     C14175   3.124   0.670  11.841
  965MPD1    C114176   3.073   0.615  11.723
  965MPD1    C214177   3.140   0.517  11.654
  965MPD1    C314178   3.267   0.479  11.683
  965MPD1    C414179   3.320   0.535  11.797
  965MPD1    C514180   3.249   0.628  11.876
  965MPD1     H14181   3.096   0.471  11.566
  965MPD1    H114182   3.414   0.499  11.837
  965MPD1    H214183   3.077   0.748  11.900
  965MPD1    H314184   3.296   0.640  11.973
  965MPD1     N14185   3.334   0.374  11.613
  965MPD1    H514186   3.421   0.333  11.647
  965MPD1    N114187   2.950   0.658  11.664
  965MPD1    H614188   2.900   0.718  11.729
  965MPD1    H714189   2.891   0.586  11.625
  966MPD1     C14190   3.013   4.669  10.817
  966MPD1    C114191   3.018   4.610  10.943
  966MPD1    C214192   3.107   4.671  11.031
  966MPD1    C314193   3.200   4.768  11.007
  966MPD1    C414194   3.202   0.009  10.877
  966MPD1    C514195   3.106   4.771  10.787
  966MPD1     H14196   3.115   4.625  11.128
  966MPD1    H114197   3.274   0.086  10.851
  966MPD1    H214198   2.941   4.627  10.747
  966MPD1    H314199   3.107   0.004  10.686
  966MPD1     N14200   3.274   0.006  11.118
  966MPD1    H514201   3.250   4.771  11.208
  966MPD1    N114202   2.928   4.512  10.987
  966MPD1    H614203   2.911   4.446  10.911
  966MPD1    H714204   2.966   4.453  11.060
  967MPD2     C14205   3.726   0.603  11.782
  967MPD2    C114206   3.822   0.620  11.882
  967MPD2    C214207   3.955   0.660  11.845
  967MPD2    C314208   3.980   0.686  11.715
  967MPD2    C414209   3.890   0.668  11.617
  967MPD2    C514210   3.764   0.627  11.651
  967MPD2     H14211   4.036   0.663  11.916
  967MPD2    H114212   3.914   0.673  11.511
  967MPD2    H214213   3.627   0.568  11.808
  967MPD2    H314214   3.694   0.617  11.569
  967MPD2     N14215   4.110   0.709  11.668
  967MPD2    H514216   4.124   0.702  11.568
  967MPD2    N114217   3.787   0.592  12.017
  967MPD2    H714218   3.859   0.615  12.084
  968TMC3    C114219   3.711   0.501  12.207
  968TMC3    C214220   3.630   0.409  12.265
  968TMC3    C314221   3.688   0.302  12.327
  968TMC3    C414222   3.847   0.489  12.235
  968TMC3    C514223   3.902   0.368  12.279
  968TMC3    C614224   3.825   0.271  12.328
  968TMC3     C14225   3.686   0.515  12.063
  968TMC3     O14226   3.604   0.444  12.008
  968TMC3     H14227   3.532   0.401  12.218
  968TMC3    H114228   3.913   0.570  12.207
  968TMC3    H214229   3.860   0.186  12.386
  968TMC3    C714230   4.035   0.348  12.222
  968TMC3    C814231   3.592   0.205  12.380
  968TMC3    O114232   4.105   0.443  12.196
  968TMC3    O214233   3.489   0.251  12.430
  969TMC3    C114234   3.389   0.213  11.449
  969TMC3    C214235   3.341   0.145  11.339
  969TMC3    C314236   3.433   0.128  11.235
  969TMC3    C414237   3.517   0.264  11.451
  969TMC3    C514238   3.602   0.238  11.347
  969TMC3    C614239   3.566   0.166  11.238
  969TMC3     C14240   3.284   0.297  11.509
  969TMC3     O14241   3.172   0.296  11.462
  969TMC3     H14242   3.239   0.112  11.328
  969TMC3    H114243   3.557   0.318  11.536
  969TMC3    H214244   3.633   0.153  11.154
  969TMC3    C714245   3.742   0.263  11.365
  969TMC3    C814246   3.384   0.085  11.104
  969TMC3    O114247   3.782   0.355  11.434
  969TMC3    O214248   3.451   0.137  11.013
  970MPD2     C14249   4.366   0.066  11.951
  970MPD2    C114250   4.348   0.201  11.947
  970MPD2    C214251   4.245   0.255  12.029
  970MPD2    C314252   4.176   0.170  12.114
  970MPD2    C414253   4.207   0.036  12.120
  970MPD2    C514254   4.292   4.788  12.026
  970MPD2     H14255   4.222   0.361  12.024
  970MPD2    H114256   4.157   4.768  12.182
  970MPD2    H214257   4.443   0.012  11.897
  970MPD2    H314258   4.324   4.685  12.021
  970MPD2     N14259   4.064   0.214  12.197
  970MPD2    H514260   3.991   0.149  12.222
  970MPD2    N114261   4.429   0.280  11.859
  970MPD2    H714262   4.481   0.242  11.781
  971TMC3    C114263   4.419   0.496  11.755
  971TMC3    C214264   4.390   0.433  11.639
  971TMC3    C314265   4.345   0.511  11.543
  971TMC3    C414266   4.403   0.628  11.773
  971TMC3    C514267   4.337   0.702  11.684
  971TMC3    C614268   4.317   0.645  11.562
  971TMC3     C14269   4.433   0.412  11.875
  971TMC3     O14270   4.432   0.473  11.977
  971TMC3     H14271   4.381   0.325  11.637
  971TMC3    H114272   4.407   0.669  11.873
  971TMC3    H214273   4.300   0.708  11.475
  971TMC3    C714274   4.212   0.753  11.743
  971TMC3    C814275   4.237   0.456  11.465
  971TMC3    O114276   4.204   0.813  11.853
  971TMC3    O214277   4.142   0.532  11.443
  972MPD2     C14278   4.231   0.122  11.313
  972MPD2    C114279   4.181   0.236  11.371
  972MPD2    C214280   4.044   0.248  11.375
  972MPD2    C314281   3.967   0.150  11.317
  972MPD2    C414282   4.014   0.042  11.253
  972MPD2    C514283   4.150   0.023  11.253
  972MPD2     H14284   4.012   0.339  11.424
  972MPD2    H114285   3.954   4.772  11.203
  972MPD2    H214286   4.338   0.107  11.309
  972MPD2    H314287   4.209   4.749  11.207
  972MPD2     N14288   3.821   0.166  11.311
  972MPD2    H514289   3.771   0.084  11.279
  972MPD2    N114290   4.269   0.328  11.429
  972MPD2    H714291   4.370   0.314  11.439
  973MPD1     C14292   3.874   4.135  16.978
  973MPD1    C114293   3.859   4.166  16.841
  973MPD1    C214294   3.776   4.084  16.770
  973MPD1    C314295   3.697   3.993  16.832
  973MPD1    C414296   3.700   3.970  16.970
  973MPD1    C514297   3.797   4.036  17.042
  973MPD1     H14298   3.781   4.090  16.661
  973MPD1    H114299   3.633   3.898  17.015
  973MPD1    H214300   3.953   4.168  17.045
  973MPD1    H314301   3.814   4.021  17.148
  973MPD1     N14302   3.611   3.906  16.762
  973MPD1    H514303   3.556   3.837  16.812
  973MPD1    N114304   3.951   4.249  16.776
  973MPD1    H614305   3.923   4.262  16.679
  973MPD1    H714306   3.962   4.338  16.824
  974TMC2    C114307   3.466   3.615  16.430
  974TMC2    C214308   3.388   3.542  16.514
  974TMC2    C314309   3.363   3.601  16.631
  974TMC2    C414310   3.535   3.730  16.458
  974TMC2    C514311   3.519   3.784  16.588
  974TMC2    C614312   3.436   3.714  16.676
  974TMC2     C14313   3.488   3.556  16.297
  974TMC2     O14314   3.465   3.437  16.284
  974TMC2     H14315   3.321   3.465  16.477
  974TMC2    H114316   3.606   3.780  16.394
  974TMC2    H214317   3.399   3.754  16.769
  974TMC2    C714318   3.591   3.900  16.623
  974TMC2    C814319   3.273   3.526  16.714
  974TMC2    O114320   3.631   3.969  16.532
  974TMC2    O214321   3.241   3.411  16.687
  974TMC2    O514322   3.198   3.626  16.771
  974TMC2    H514323   3.226   3.715  16.740
  975MPD1     C14324   3.468   3.591  15.783
  975MPD1    C114325   3.480   3.720  15.834
  975MPD1    C214326   3.485   3.737  15.972
  975MPD1    C314327   3.503   3.631  16.061
  975MPD1    C414328   3.503   3.503  16.001
  975MPD1    C514329   3.470   3.487  15.871
  975MPD1     H14330   3.473   3.841  15.999
  975MPD1    H114331   3.519   3.415  16.063
  975MPD1    H214332   3.434   3.576  15.681
  975MPD1    H314333   3.443   3.387  15.836
  975MPD1     N14334   3.507   3.655  16.199
  975MPD1    H514335   3.516   3.753  16.225
  975MPD1    N114336   3.475   3.836  15.760
  975MPD1    H614337   3.545   3.908  15.776
  975MPD1    H714338   3.464   3.832  15.659
  976TMC1    C114339   1.604   2.772  13.375
  976TMC1    C214340   1.536   2.773  13.493
  976TMC1    C314341   1.405   2.733  13.489
  976TMC1    C414342   1.557   2.714  13.264
  976TMC1    C514343   1.429   2.657  13.269
  976TMC1    C614344   1.352   2.665  13.383
  976TMC1     C14345   1.726   2.845  13.369
  976TMC1     O14346   1.738   2.918  13.273
  976TMC1     H14347   1.561   2.832  13.580
  976TMC1    H114348   1.601   2.722  13.165
  976TMC1    H214349   1.246   2.645  13.376
  976TMC1    C714350   1.356   2.620  13.148
  976TMC1    C814351   1.325   2.753  13.607
  976TMC1    O114352   1.286   2.518  13.129
  976TMC1    O214353   1.375   2.821  13.691
  976TMC1    O314354   1.322   2.749  13.117
  976TMC1    H314355   1.374   2.817  13.164
  976TMC1    O514356   1.272   2.630  13.628
  976TMC1    H514357   1.258   2.585  13.542
  977MPD2     C14358   1.999   2.935  13.377
  977MPD2    C114359   1.940   2.871  13.483
  977MPD2    C214360   2.015   2.839  13.599
  977MPD2    C314361   2.149   2.870  13.604
  977MPD2    C414362   2.207   2.934  13.495
  977MPD2    C514363   2.135   2.965  13.382
  977MPD2     H14364   1.971   2.788  13.684
  977MPD2    H114365   2.309   2.971  13.489
  977MPD2    H214366   1.953   2.941  13.279
  977MPD2    H314367   2.182   3.024  13.304
  977MPD2     N14368   2.225   2.849  13.717
  977MPD2    H514369   2.178   2.808  13.797
  977MPD2    N114370   1.811   2.821  13.475
  977MPD2    H714371   1.772   2.766  13.551
  978TCq1    O114372   2.627   2.932  14.165
  978TCq1    C114373   2.686   2.833  14.089
  978TCq1    O214374   2.781   2.760  14.125
  978TCq1    C214375   2.585   2.777  14.004
  978TCq1    C314376   2.536   2.657  14.050
  978TCq1    C414377   2.415   2.629  13.994
  978TCq1    C514378   2.352   2.691  13.895
  978TCq1    C614379   2.416   2.802  13.846
  978TCq1    C714380   2.533   2.846  13.899
  978TCq1    C814381   2.359   2.875  13.731
  978TCq1    O414382   2.437   2.945  13.671
  978TCq1    C914383   2.343   2.527  14.062
  978TCq1    O514384   2.231   2.551  14.106
  978TCq1    O614385   2.421   2.422  14.091
  978TCq1    H114386   2.544   2.961  14.121
  978TCq1    H214387   2.580   2.609  14.137
  978TCq1    H314388   2.261   2.649  13.854
  978TCq1    H414389   2.574   2.943  13.871
  979MPD2     C14390   1.428   4.080  15.152
  979MPD2    C114391   1.321   3.996  15.140
  979MPD2    C214392   1.319   3.899  15.044
  979MPD2    C314393   1.430   3.886  14.958
  979MPD2    C414394   1.540   3.970  14.975
  979MPD2    C514395   1.534   4.065  15.068
  979MPD2     H14396   1.236   3.829  15.037
  979MPD2    H114397   1.634   3.951  14.925
  979MPD2    H214398   1.431   4.148  15.236
  979MPD2    H314399   1.630   4.110  15.092
  979MPD2     N14400   1.454   3.776  14.871
  979MPD2    H514401   1.549   3.763  14.837
  979MPD2    N114402   1.210   4.015  15.222
  979MPD2    H714403   1.192   4.108  15.260
  980TMC3    C114404   0.988   3.975  15.292
  980TMC3    C214405   0.901   3.871  15.329
  980TMC3    C314406   0.769   3.879  15.305
  980TMC3    C414407   0.938   4.086  15.232
  980TMC3    C514408   0.800   4.092  15.215
  980TMC3    C614409   0.719   3.997  15.263
  980TMC3     C14410   1.106   3.918  15.232
  980TMC3     O14411   1.103   3.795  15.223
  980TMC3     H14412   0.936   3.787  15.389
  980TMC3    H114413   1.002   4.172  15.213
  980TMC3    H214414   0.613   4.018  15.253
  980TMC3    C714415   0.744   4.179  15.116
  980TMC3    C814416   0.724   3.771  15.222
  980TMC3    O114417   0.622   4.190  15.096
  980TMC3    O214418   0.606   3.775  15.198
  981TCq1    O114419   1.143   0.322  14.478
  981TCq1    C114420   1.236   0.301  14.577
  981TCq1    O214421   1.338   0.373  14.600
  981TCq1    C214422   1.195   0.196  14.670
  981TCq1    C314423   1.286   0.178  14.775
  981TCq1    C414424   1.276   0.063  14.849
  981TCq1    C514425   1.200   4.764  14.807
  981TCq1    C614426   1.122   4.777  14.692
  981TCq1    C714427   1.122   0.088  14.626
  981TCq1    C814428   1.025   4.682  14.662
  981TCq1    O414429   0.995   4.666  14.542
  981TCq1    C914430   1.379   0.034  14.941
  981TCq1    O514431   1.488   0.081  14.922
  981TCq1    O614432   1.337   4.773  15.049
  981TCq1    H114433   1.069   0.257  14.473
  981TCq1    H214434   1.355   0.256  14.805
  981TCq1    H314435   1.222   4.673  14.861
  981TCq1    H414436   1.073   0.086  14.529
  982MPD2     C14437   0.816   4.466  14.697
  982MPD2    C114438   0.926   4.489  14.787
  982MPD2    C214439   0.935   4.410  14.901
  982MPD2    C314440   0.832   4.327  14.940
  982MPD2    C414441   0.739   4.289  14.842
  982MPD2    C514442   0.723   4.367  14.730
  982MPD2     H14443   1.016   4.434  14.969
  982MPD2    H114444   0.661   4.215  14.858
  982MPD2    H214445   0.787   4.529  14.614
  982MPD2    H314446   0.638   4.342  14.668
  982MPD2     N14447   0.842   4.252  15.058
  982MPD2    H514448   0.935   4.236  15.095
  982MPD2    N114449   1.014   4.601  14.769
  982MPD2    H714450   1.059   4.624  14.857
  983TMC2    C114451   1.289   3.375  14.896
  983TMC2    C214452   1.389   3.362  14.993
  983TMC2    C314453   1.499   3.437  14.988
  983TMC2    C414454   1.305   3.470  14.805
  983TMC2    C514455   1.403   3.563  14.817
  983TMC2    C614456   1.518   3.534  14.897
  983TMC2     C14457   1.170   3.399  14.973
  983TMC2     O14458   1.188   3.424  15.094
  983TMC2     H14459   1.370   3.301  15.081
  983TMC2    H114460   1.216   3.502  14.751
  983TMC2    H214461   1.613   3.581  14.876
  983TMC2    C714462   1.354   3.692  14.839
  983TMC2    C814463   1.621   3.395  15.054
  983TMC2    O114464   1.229   3.708  14.839
  983TMC2    O214465   1.730   3.439  15.016
  983TMC2    O514466   1.602   3.273  15.098
  983TMC2    H514467   1.528   3.267  15.162
  984MPD2     C14468   0.696   3.588  15.004
  984MPD2    C114469   0.814   3.608  15.068
  984MPD2    C214470   0.931   3.545  15.028
  984MPD2    C314471   0.939   3.459  14.924
  984MPD2    C414472   0.821   3.448  14.847
  984MPD2    C514473   0.703   3.511  14.892
  984MPD2     H14474   1.015   3.571  15.092
  984MPD2    H114475   0.832   3.403  14.748
  984MPD2    H214476   0.602   3.642  15.018
  984MPD2    H314477   0.614   3.507  14.829
  984MPD2     N14478   1.059   3.397  14.892
  984MPD2    H514479   1.060   3.360  14.798
  984MPD2    N114480   0.829   3.701  15.174
  984MPD2    H714481   0.923   3.719  15.209
  985NH4     N114482   2.500   2.500   1.000
  985NH4     H214483   2.603   2.500   1.000
  985NH4     H314484   2.466   2.405   1.019
  985NH4     H414485   2.466   2.531   0.908
  985NH4     H514486   2.466   2.564   1.073
  986NA      NA14487   0.158   0.683   9.190
  987NA      NA14488   0.240   3.798  16.577
  988NA      NA14489   4.205   3.394  12.412
  989NA      NA14490   2.884   0.577  17.263
  990NA      NA14491   4.410   3.754   3.784
  991NA      NA14492   0.017   1.872   7.597
  992NA      NA14493   3.734   2.233   7.559
  993SOL     OW14494   0.225   0.275   0.996
  993SOL    HW114495   0.260   0.258   1.088
  993SOL    HW214496   0.137   0.230   0.984
  994SOL     OW14497   0.019   0.368   0.647
  994SOL    HW114498  -0.063   0.411   0.686
  994SOL    HW214499  -0.009   0.295   0.584
  995SOL     OW14500   0.569   1.275   1.165
  995SOL    HW114501   0.476   1.268   1.128
  995SOL    HW214502   0.580   1.364   1.209
  996SOL     OW14503   1.555   1.511   0.703
  996SOL    HW114504   1.498   1.495   0.784
  996SOL    HW214505   1.496   1.521   0.623
  997SOL     OW14506   0.768   1.144   1.023
  997SOL    HW114507   0.690   1.161   1.083
  997SOL    HW214508   0.802   1.231   0.987
  998SOL     OW14509   0.685   1.012   0.665
  998SOL    HW114510   0.754   0.996   0.735
  998SOL    HW214511   0.612   1.069   0.703
  999SOL     OW14512   0.335   1.435   1.061
  999SOL    HW114513   0.257   1.404   1.008
  999SOL    HW214514   0.393   1.493   1.004
 1000SOL     OW14515   1.603   0.447   0.737
 1000SOL    HW114516   1.529   0.493   0.687
 1000SOL    HW214517   1.654   0.515   0.790
 1001SOL     OW14518   0.231   1.713   0.483
 1001SOL    HW114519   0.265   1.790   0.537
 1001SOL    HW214520   0.275   1.713   0.393
 1002SOL     OW14521   1.127   1.341   1.690
 1002SOL    HW114522   1.174   1.341   1.778
 1002SOL    HW214523   1.079   1.254   1.679
 1003SOL     OW14524   0.122   0.643   0.563
 1003SOL    HW114525   0.077   0.555   0.580
 1003SOL    HW214526   0.121   0.697   0.647
 1004SOL     OW14527   0.113   0.737   1.597
 1004SOL    HW114528   0.201   0.724   1.642
 1004SOL    HW214529   0.100   0.834   1.575
 1005SOL     OW14530   0.613   1.365   0.726
 1005SOL    HW114531   0.564   1.278   0.735
 1005SOL    HW214532   0.590   1.408   0.639
 1006SOL     OW14533   1.293   1.228   1.423
 1006SOL    HW114534   1.330   1.155   1.365
 1006SOL    HW214535   1.345   1.233   1.508
 1007SOL     OW14536   0.809   0.004   0.502
 1007SOL    HW114537   0.849   0.095   0.493
 1007SOL    HW214538   0.709   0.012   0.508
 1008SOL     OW14539   1.187   1.792   1.616
 1008SOL    HW114540   1.211   1.852   1.540
 1008SOL    HW214541   1.194   1.697   1.586
 1009SOL     OW14542   0.317   0.251   1.801
 1009SOL    HW114543   0.388   0.322   1.807
 1009SOL    HW214544   0.229   0.290   1.829
 1010SOL     OW14545   1.281   0.345   0.944
 1010SOL    HW114546   1.195   0.295   0.931
 1010SOL    HW214547   1.343   0.291   1.000
 1011SOL     OW14548   1.576   1.662   0.307
 1011SOL    HW114549   1.665   1.708   0.310
 1011SOL    HW214550   1.555   1.638   0.212
 1012SOL     OW14551   1.394   0.469   1.674
 1012SOL    HW114552   1.374   0.512   1.762
 1012SOL    HW214553   1.472   0.407   1.683
 1013SOL     OW14554   1.041   0.701   0.429
 1013SOL    HW114555   1.067   0.697   0.525
 1013SOL    HW214556   0.956   0.650   0.415
 1014SOL     OW14557   0.076   0.811   0.789
 1014SOL    HW114558   0.175   0.799   0.798
 1014SOL    HW214559   0.052   0.906   0.810
 1015SOL     OW14560   0.865   0.348   0.195
 1015SOL    HW114561   0.924   0.411   0.146
 1015SOL    HW214562   0.884   0.254   0.166
 1016SOL     OW14563   1.719   0.585   1.831
 1016SOL    HW114564   1.693   0.674   1.795
 1016SOL    HW214565   1.717   0.517   1.758
 1017SOL     OW14566   1.227   1.550   1.506
 1017SOL    HW114567   1.233   1.473   1.570
 1017SOL    HW214568   1.175   1.524   1.426
 1018SOL     OW14569   0.464   1.743   0.323
 1018SOL    HW114570   0.497   1.782   0.409
 1018SOL    HW214571   0.540   1.736   0.258
 1019SOL     OW14572   0.940   1.698   0.904
 1019SOL    HW114573   1.020   1.641   0.925
 1019SOL    HW214574   0.891   1.658   0.827
 1020SOL     OW14575   1.547   0.222   1.729
 1020SOL    HW114576   1.542   0.259   1.821
 1020SOL    HW214577   1.475   0.153   1.717
 1021SOL     OW14578   0.781   0.264   1.749
 1021SOL    HW114579   0.848   0.203   1.792
 1021SOL    HW214580   0.708   0.283   1.814
 1022SOL     OW14581   0.539   0.064   0.512
 1022SOL    HW114582   0.458   0.065   0.570
 1022SOL    HW214583   0.542   0.147   0.457
 1023SOL     OW14584   1.434   1.188   0.041
 1023SOL    HW114585   1.466   1.112   0.098
 1023SOL    HW214586   1.342   1.215   0.071
 1024SOL     OW14587   0.935   0.236   0.480
 1024SOL    HW114588   0.887   0.277   0.402
 1024SOL    HW214589   1.034   0.234   0.461
 1025SOL     OW14590   0.459   1.152   0.741
 1025SOL    HW114591   0.388   1.125   0.806
 1025SOL    HW214592   0.433   1.124   0.648
 1026SOL     OW14593   0.078   0.556   1.386
 1026SOL    HW114594   0.170   0.555   1.345
 1026SOL    HW214595   0.072   0.630   1.453
 1027SOL     OW14596   0.866   0.454   0.642
 1027SOL    HW114597   0.834   0.526   0.580
 1027SOL    HW214598   0.890   0.373   0.589
 1028SOL     OW14599   1.017   0.039   0.753
 1028SOL    HW114600   0.945   0.044   0.684
 1028SOL    HW214601   0.993  -0.030   0.822
 1029SOL     OW14602   1.429   1.173   0.867
 1029SOL    HW114603   1.374   1.089   0.860
 1029SOL    HW214604   1.455   1.202   0.775
 1030SOL     OW14605   1.466   0.590   0.992
 1030SOL    HW114606   1.436   0.495   0.999
 1030SOL    HW214607   1.539   0.606   1.058
 1031SOL     OW14608   1.664   1.280   0.657
 1031SOL    HW114609   1.763   1.288   0.671
 1031SOL    HW214610   1.619   1.364   0.688
 1032SOL     OW14611   0.527   0.256   0.328
 1032SOL    HW114612   0.554   0.197   0.253
 1032SOL    HW214613   0.527   0.351   0.297
 1033SOL     OW14614   1.592   1.629   1.625
 1033SOL    HW114615   1.619   1.663   1.535
 1033SOL    HW214616   1.671   1.591   1.671
 1034SOL     OW14617   0.367   1.100   0.501
 1034SOL    HW114618   0.360   1.183   0.445
 1034SOL    HW214619   0.371   1.020   0.441
 1035SOL     OW14620   1.272   1.445   1.142
 1035SOL    HW114621   1.319   1.458   1.229
 1035SOL    HW214622   1.206   1.371   1.151
 1036SOL     OW14623   1.587   0.779   1.670
 1036SOL    HW114624   1.495   0.817   1.665
 1036SOL    HW214625   1.647   0.826   1.605
 1037SOL     OW14626   1.013   0.105   1.770
 1037SOL    HW114627   1.019   0.190   1.718
 1037SOL    HW214628   1.045   0.029   1.713
 1038SOL     OW14629   0.504   0.050   1.740
 1038SOL    HW114630   0.462  -0.007   1.670
 1038SOL    HW214631   0.438   0.119   1.772
 1039SOL     OW14632   0.573   0.870   1.029
 1039SOL    HW114633   0.617   0.959   1.020
 1039SOL    HW214634   0.510   0.870   1.106
 1040SOL     OW14635   1.728   0.935   1.854
 1040SOL    HW114636   1.682   0.928   1.765
 1040SOL    HW214637   1.666   0.979   1.920
 1041SOL     OW14638   0.980   1.573   1.700
 1041SOL    HW114639   0.960   1.617   1.612
 1041SOL    HW214640   1.019   1.482   1.684
 1042SOL     OW14641   1.303   0.838   0.042
 1042SOL    HW114642   1.337   0.745   0.057
 1042SOL    HW214643   1.321   0.865  -0.053
 1043SOL     OW14644   0.319   0.810   0.949
 1043SOL    HW114645   0.412   0.846   0.954
 1043SOL    HW214646   0.313   0.725   1.001
 1044SOL     OW14647   0.339   0.509   1.006
 1044SOL    HW114648   0.287   0.426   0.989
 1044SOL    HW214649   0.416   0.514   0.942
 1045SOL     OW14650   0.008   1.326   0.200
 1045SOL    HW114651  -0.085   1.347   0.169
 1045SOL    HW214652   0.018   1.227   0.213
 1046SOL     OW14653   0.504   1.568   0.910
 1046SOL    HW114654   0.570   1.642   0.919
 1046SOL    HW214655   0.548   1.489   0.868
 1047SOL     OW14656   0.040   0.544   1.114
 1047SOL    HW114657   0.125   0.511   1.073
 1047SOL    HW214658   0.053   0.559   1.212
 1048SOL     OW14659   0.189   0.520   1.722
 1048SOL    HW114660   0.248   0.480   1.652
 1048SOL    HW214661   0.131   0.591   1.681
 1049SOL     OW14662   1.369   0.950   1.660
 1049SOL    HW114663   1.408   1.039   1.680
 1049SOL    HW214664   1.379   0.930   1.563
 1050SOL     OW14665   0.815   0.572   0.325
 1050SOL    HW114666   0.822   0.483   0.279
 1050SOL    HW214667   0.721   0.606   0.317
 1051SOL     OW14668   0.252   1.564   1.744
 1051SOL    HW114669   0.222   1.621   1.820
 1051SOL    HW214670   0.245   1.467   1.770
 1052SOL     OW14671   0.930   1.678   1.465
 1052SOL    HW114672   0.906   1.660   1.370
 1052SOL    HW214673   0.960   1.772   1.475
 1053SOL     OW14674   1.252   1.731   1.128
 1053SOL    HW114675   1.336   1.736   1.074
 1053SOL    HW214676   1.229   1.635   1.146
 1054SOL     OW14677   0.688   1.662   1.716
 1054SOL    HW114678   0.632   1.743   1.725
 1054SOL    HW214679   0.740   1.666   1.630
 1055SOL     OW14680   0.130   1.794   1.851
 1055SOL    HW114681   0.089   1.720   1.904
 1055SOL    HW214682   0.194   1.845   1.909
 1056SOL     OW14683   1.650   1.720   1.394
 1056SOL    HW114684   1.703   1.730   1.310
 1056SOL    HW214685   1.623   1.810   1.428
 1057SOL     OW14686   1.194   1.612   0.031
 1057SOL    HW114687   1.200   1.519   0.068
 1057SOL    HW214688   1.135   1.612  -0.049
 1058SOL     OW14689   0.916   0.910   0.291
 1058SOL    HW114690   0.979   0.948   0.223
 1058SOL    HW214691   0.956   0.827   0.330
 1059SOL     OW14692   0.255   1.348   0.290
 1059SOL    HW114693   0.159   1.349   0.263
 1059SOL    HW214694   0.267   1.401   0.374
 1060SOL     OW14695   0.105   1.013   1.726
 1060SOL    HW114696   0.028   0.980   1.780
 1060SOL    HW214697   0.190   0.983   1.768
 1061SOL     OW14698   0.672   0.203   1.489
 1061SOL    HW114699   0.762   0.187   1.449
 1061SOL    HW214700   0.680   0.208   1.588
 1062SOL     OW14701   1.183   1.335   0.119
 1062SOL    HW114702   1.084   1.324   0.121
 1062SOL    HW214703   1.217   1.350   0.212
 1063SOL     OW14704   1.450   1.220   1.633
 1063SOL    HW114705   1.441   1.210   1.732
 1063SOL    HW214706   1.546   1.213   1.607
 1064SOL     OW14707   0.390   1.741   1.560
 1064SOL    HW114708   0.299   1.782   1.558
 1064SOL    HW214709   0.383   1.647   1.592
 1065SOL     OW14710   1.225   0.325   0.449
 1065SOL    HW114711   1.290   0.251   0.438
 1065SOL    HW214712   1.245   0.375   0.533
 1066SOL     OW14713   0.594   0.745   0.652
 1066SOL    HW114714   0.644   0.830   0.633
 1066SOL    HW214715   0.506   0.747   0.604
 1067SOL     OW14716   1.777   0.342   1.642
 1067SOL    HW114717   1.760   0.373   1.548
 1067SOL    HW214718   1.693   0.305   1.680
 1068SOL     OW14719   0.661   1.790   0.953
 1068SOL    HW114720   0.615   1.878   0.940
 1068SOL    HW214721   0.760   1.802   0.946
 1069SOL     OW14722   0.859   0.956   0.861
 1069SOL    HW114723   0.913   0.887   0.909
 1069SOL    HW214724   0.827   1.025   0.927
 1070SOL     OW14725   0.079   1.240   0.653
 1070SOL    HW114726   0.078   1.193   0.741
 1070SOL    HW214727   0.161   1.212   0.602
 1071SOL     OW14728   1.593   0.221   0.882
 1071SOL    HW114729   1.509   0.220   0.936
 1071SOL    HW214730   1.595   0.304   0.826
 1072SOL     OW14731   0.039   1.077   0.300
 1072SOL    HW114732   0.138   1.066   0.291
 1072SOL    HW214733  -0.001   0.991   0.332
 1073SOL     OW14734   0.230   0.628   1.975
 1073SOL    HW114735   0.137   0.626   2.012
 1073SOL    HW214736   0.231   0.589   1.883
 1074SOL     OW14737   0.225   0.275   2.858
 1074SOL    HW114738   0.260   0.258   2.950
 1074SOL    HW214739   0.137   0.230   2.846
 1075SOL     OW14740   0.019   0.368   2.509
 1075SOL    HW114741  -0.063   0.411   2.548
 1075SOL    HW214742  -0.009   0.295   2.446
 1076SOL     OW14743   0.569   1.275   3.027
 1076SOL    HW114744   0.476   1.268   2.990
 1076SOL    HW214745   0.580   1.364   3.071
 1077SOL     OW14746   1.555   1.511   2.565
 1077SOL    HW114747   1.498   1.495   2.646
 1077SOL    HW214748   1.496   1.521   2.485
 1078SOL     OW14749   1.135   0.703   2.579
 1078SOL    HW114750   1.192   0.781   2.554
 1078SOL    HW214751   1.075   0.729   2.655
 1079SOL     OW14752   1.755   0.607   2.093
 1079SOL    HW114753   1.743   0.594   1.994
 1079SOL    HW214754   1.725   0.526   2.142
 1080SOL     OW14755   0.768   1.144   2.885
 1080SOL    HW114756   0.690   1.161   2.945
 1080SOL    HW214757   0.802   1.231   2.849
 1081SOL     OW14758   0.850   0.798   3.685
 1081SOL    HW114759   0.846   0.874   3.750
 1081SOL    HW214760   0.872   0.834   3.594
 1082SOL     OW14761   0.685   1.012   2.527
 1082SOL    HW114762   0.754   0.996   2.597
 1082SOL    HW214763   0.612   1.069   2.565
 1083SOL     OW14764   0.686   1.161   3.665
 1083SOL    HW114765   0.746   1.240   3.679
 1083SOL    HW214766   0.600   1.192   3.624
 1084SOL     OW14767   0.335   1.435   2.923
 1084SOL    HW114768   0.257   1.404   2.870
 1084SOL    HW214769   0.393   1.493   2.866
 1085SOL     OW14770   1.460   1.505   3.201
 1085SOL    HW114771   1.484   1.599   3.227
 1085SOL    HW214772   1.444   1.451   3.283
 1086SOL     OW14773   0.438   0.392   3.361
 1086SOL    HW114774   0.520   0.336   3.370
 1086SOL    HW214775   0.357   0.334   3.365
 1087SOL     OW14776   1.603   0.447   2.599
 1087SOL    HW114777   1.529   0.493   2.549
 1087SOL    HW214778   1.654   0.515   2.652
 1088SOL     OW14779   0.231   1.713   2.345
 1088SOL    HW114780   0.265   1.790   2.399
 1088SOL    HW214781   0.275   1.713   2.255
 1089SOL     OW14782   1.127   1.341   3.552
 1089SOL    HW114783   1.174   1.341   3.640
 1089SOL    HW214784   1.079   1.254   3.541
 1090SOL     OW14785   0.230   1.434   2.400
 1090SOL    HW114786   0.204   1.530   2.400
 1090SOL    HW214787   0.159   1.380   2.445
 1091SOL     OW14788   0.240   1.091   2.748
 1091SOL    HW114789   0.254   1.007   2.800
 1091SOL    HW214790   0.185   1.155   2.803
 1092SOL     OW14791   0.620   1.786   3.301
 1092SOL    HW114792   0.528   1.769   3.336
 1092SOL    HW214793   0.648   1.878   3.327
 1093SOL     OW14794   1.594   0.114   3.342
 1093SOL    HW114795   1.576   0.181   3.270
 1093SOL    HW214796   1.591   0.160   3.431
 1094SOL     OW14797   0.122   0.643   2.425
 1094SOL    HW114798   0.077   0.555   2.442
 1094SOL    HW214799   0.121   0.697   2.509
 1095SOL     OW14800   1.842   1.767   2.221
 1095SOL    HW114801   1.896   1.738   2.301
 1095SOL    HW214802   1.872   1.857   2.192
 1096SOL     OW14803   0.027   1.596   1.979
 1096SOL    HW114804   0.008   1.500   2.000
 1096SOL    HW214805  -0.006   1.654   2.054
 1097SOL     OW14806   1.689   0.922   2.474
 1097SOL    HW114807   1.784   0.893   2.482
 1097SOL    HW214808   1.681   0.987   2.399
 1098SOL     OW14809   1.641   1.108   2.294
 1098SOL    HW114810   1.727   1.110   2.242
 1098SOL    HW214811   1.655   1.155   2.382
 1099SOL     OW14812   0.113   0.737   3.459
 1099SOL    HW114813   0.201   0.724   3.504
 1099SOL    HW214814   0.100   0.834   3.437
 1100SOL     OW14815   0.613   1.365   2.588
 1100SOL    HW114816   0.564   1.278   2.597
 1100SOL    HW214817   0.590   1.408   2.501
 1101SOL     OW14818   1.293   1.228   3.285
 1101SOL    HW114819   1.330   1.155   3.227
 1101SOL    HW214820   1.345   1.233   3.370
 1102SOL     OW14821   0.809   0.004   2.364
 1102SOL    HW114822   0.849   0.095   2.355
 1102SOL    HW214823   0.709   0.012   2.370
 1103SOL     OW14824   0.197   0.976   3.126
 1103SOL    HW114825   0.286   0.931   3.112
 1103SOL    HW214826   0.124   0.911   3.107
 1104SOL     OW14827   1.525   0.999   2.052
 1104SOL    HW114828   1.462   0.923   2.065
 1104SOL    HW214829   1.573   1.017   2.138
 1105SOL     OW14830   1.187   1.792   3.478
 1105SOL    HW114831   1.211   1.852   3.402
 1105SOL    HW214832   1.194   1.697   3.448
 1106SOL     OW14833   0.317   0.251   3.663
 1106SOL    HW114834   0.388   0.322   3.669
 1106SOL    HW214835   0.229   0.290   3.691
 1107SOL     OW14836   1.466   1.417   2.815
 1107SOL    HW114837   1.407   1.423   2.895
 1107SOL    HW214838   1.451   1.329   2.769
 1108SOL     OW14839   1.667   1.714   2.434
 1108SOL    HW114840   1.626   1.691   2.346
 1108SOL    HW214841   1.649   1.640   2.499
 1109SOL     OW14842   0.598   0.729   2.132
 1109SOL    HW114843   0.622   0.798   2.064
 1109SOL    HW214844   0.520   0.762   2.186
 1110SOL     OW14845   1.281   0.345   2.806
 1110SOL    HW114846   1.195   0.295   2.793
 1110SOL    HW214847   1.343   0.291   2.862
 1111SOL     OW14848   1.576   1.662   2.169
 1111SOL    HW114849   1.665   1.708   2.172
 1111SOL    HW214850   1.555   1.638   2.074
 1112SOL     OW14851   0.807   0.605   3.327
 1112SOL    HW114852   0.760   0.602   3.416
 1112SOL    HW214853   0.756   0.550   3.261
 1113SOL     OW14854   1.394   0.469   3.536
 1113SOL    HW114855   1.374   0.512   3.624
 1113SOL    HW214856   1.472   0.407   3.545
 1114SOL     OW14857   0.973   0.890   3.434
 1114SOL    HW114858   1.019   0.806   3.405
 1114SOL    HW214859   0.917   0.924   3.359
 1115SOL     OW14860   0.991   0.410   3.104
 1115SOL    HW114861   0.914   0.444   3.158
 1115SOL    HW214862   0.957   0.359   3.025
 1116SOL     OW14863   1.041   0.701   2.291
 1116SOL    HW114864   1.067   0.697   2.387
 1116SOL    HW214865   0.956   0.650   2.277
 1117SOL     OW14866   0.076   0.811   2.651
 1117SOL    HW114867   0.175   0.799   2.660
 1117SOL    HW214868   0.052   0.906   2.672
 1118SOL     OW14869   0.130   1.821   3.433
 1118SOL    HW114870   0.120   1.806   3.532
 1118SOL    HW214871   0.044   1.857   3.397
 1119SOL     OW14872   0.865   0.348   2.057
 1119SOL    HW114873   0.924   0.411   2.008
 1119SOL    HW214874   0.884   0.254   2.028
 1120SOL     OW14875   1.719   0.585   3.693
 1120SOL    HW114876   1.693   0.674   3.657
 1120SOL    HW214877   1.717   0.517   3.620
 1121SOL     OW14878   1.362   1.144   2.407
 1121SOL    HW114879   1.445   1.115   2.359
 1121SOL    HW214880   1.313   1.211   2.351
 1122SOL     OW14881   0.550   0.196   2.747
 1122SOL    HW114882   0.545   0.191   2.847
 1122SOL    HW214883   0.552   0.292   2.718
 1123SOL     OW14884   1.008   1.456   2.339
 1123SOL    HW114885   0.962   1.528   2.287
 1123SOL    HW214886   1.004   1.476   2.437
 1124SOL     OW14887   0.351   1.801   2.715
 1124SOL    HW114888   0.401   1.715   2.721
 1124SOL    HW214889   0.416   1.878   2.712
 1125SOL     OW14890   1.795   1.066   2.735
 1125SOL    HW114891   1.733   1.051   2.659
 1125SOL    HW214892   1.743   1.077   2.820
 1126SOL     OW14893   1.227   1.550   3.368
 1126SOL    HW114894   1.233   1.473   3.432
 1126SOL    HW214895   1.175   1.524   3.288
 1127SOL     OW14896   0.321   0.943   2.104
 1127SOL    HW114897   0.403   0.982   2.062
 1127SOL    HW214898   0.294   0.861   2.055
 1128SOL     OW14899   1.458   0.735   2.590
 1128SOL    HW114900   1.453   0.670   2.665
 1128SOL    HW214901   1.538   0.794   2.603
 1129SOL     OW14902   0.461   1.266   3.589
 1129SOL    HW114903   0.411   1.267   3.503
 1129SOL    HW214904   0.398   1.248   3.665
 1130SOL     OW14905   1.111   1.776   2.099
 1130SOL    HW114906   1.051   1.714   2.149
 1130SOL    HW214907   1.142   1.732   2.014
 1131SOL     OW14908   0.202   0.285   3.360
 1131SOL    HW114909   0.122   0.345   3.347
 1131SOL    HW214910   0.192   0.236   3.446
 1132SOL     OW14911   1.632   1.377   1.943
 1132SOL    HW114912   1.600   1.471   1.933
 1132SOL    HW214913   1.556   1.314   1.931
 1133SOL     OW14914   0.464   1.743   2.185
 1133SOL    HW114915   0.497   1.782   2.271
 1133SOL    HW214916   0.540   1.736   2.120
 1134SOL     OW14917   1.400   0.107   2.288
 1134SOL    HW114918   1.376   0.070   2.198
 1134SOL    HW214919   1.499   0.123   2.292
 1135SOL     OW14920   0.249   1.785   3.103
 1135SOL    HW114921   0.306   1.720   3.153
 1135SOL    HW214922   0.233   1.752   3.010
 1136SOL     OW14923   0.940   1.698   2.766
 1136SOL    HW114924   1.020   1.641   2.787
 1136SOL    HW214925   0.891   1.658   2.689
 1137SOL     OW14926   0.382   0.700   2.342
 1137SOL    HW114927   0.427   0.610   2.339
 1137SOL    HW214928   0.288   0.689   2.375
 1138SOL     OW14929   1.547   0.222   3.591
 1138SOL    HW114930   1.542   0.259   3.683
 1138SOL    HW214931   1.475   0.153   3.579
 1139SOL     OW14932   0.614   0.122   1.979
 1139SOL    HW114933   0.712   0.100   1.986
 1139SOL    HW214934   0.583   0.105   1.886
 1140SOL     OW14935   0.781   0.264   3.611
 1140SOL    HW114936   0.848   0.203   3.654
 1140SOL    HW214937   0.708   0.283   3.676
 1141SOL     OW14938   0.888   1.514   3.057
 1141SOL    HW114939   0.865   1.489   2.963
 1141SOL    HW214940   0.949   1.445   3.096
 1142SOL     OW14941   1.351   0.590   3.295
 1142SOL    HW114942   1.379   0.547   3.380
 1142SOL    HW214943   1.376   0.686   3.296
 1143SOL     OW14944   0.803   1.402   2.786
 1143SOL    HW114945   0.893   1.416   2.744
 1143SOL    HW214946   0.732   1.404   2.715
 1144SOL     OW14947   0.922   0.503   2.761
 1144SOL    HW114948   0.897   0.494   2.665
 1144SOL    HW214949   0.970   0.421   2.792
 1145SOL     OW14950   0.539   0.064   2.374
 1145SOL    HW114951   0.458   0.065   2.432
 1145SOL    HW214952   0.542   0.147   2.319
 1146SOL     OW14953   1.434   1.188   1.903
 1146SOL    HW114954   1.466   1.112   1.960
 1146SOL    HW214955   1.342   1.215   1.933
 1147SOL     OW14956   0.297   0.035   2.033
 1147SOL    HW114957   0.346   0.119   2.012
 1147SOL    HW214958   0.359  -0.030   2.078
 1148SOL     OW14959   0.935   0.236   2.342
 1148SOL    HW114960   0.887   0.277   2.264
 1148SOL    HW214961   1.034   0.234   2.323
 1149SOL     OW14962   1.076   0.683   3.326
 1149SOL    HW114963   0.996   0.622   3.329
 1149SOL    HW214964   1.157   0.630   3.302
 1150SOL     OW14965   1.227   1.570   2.655
 1150SOL    HW114966   1.248   1.644   2.590
 1150SOL    HW214967   1.295   1.570   2.728
 1151SOL     OW14968   0.459   1.152   2.603
 1151SOL    HW114969   0.388   1.125   2.668
 1151SOL    HW214970   0.433   1.124   2.510
 1152SOL     OW14971   1.271   1.797   2.453
 1152SOL    HW114972   1.315   1.861   2.389
 1152SOL    HW214973   1.221   1.849   2.523
 1153SOL     OW14974   1.032   0.549   1.878
 1153SOL    HW114975   0.991   0.631   1.839
 1153SOL    HW214976   1.096   0.575   1.951
 1154SOL     OW14977   0.078   0.556   3.248
 1154SOL    HW114978   0.170   0.555   3.207
 1154SOL    HW214979   0.072   0.630   3.315
 1155SOL     OW14980   0.561   0.222   3.009
 1155SOL    HW114981   0.599   0.138   3.046
 1155SOL    HW214982   0.473   0.241   3.053
 1156SOL     OW14983   0.866   0.454   2.504
 1156SOL    HW114984   0.834   0.526   2.442
 1156SOL    HW214985   0.890   0.373   2.451
 1157SOL     OW14986   1.017   0.039   2.615
 1157SOL    HW114987   0.945   0.044   2.546
 1157SOL    HW214988   0.993  -0.030   2.684
 1158SOL     OW14989   1.429   1.173   2.729
 1158SOL    HW114990   1.374   1.089   2.722
 1158SOL    HW214991   1.455   1.202   2.637
 1159SOL     OW14992   1.466   0.590   2.854
 1159SOL    HW114993   1.436   0.495   2.861
 1159SOL    HW214994   1.539   0.606   2.920
 1160SOL     OW14995   1.857   0.833   2.239
 1160SOL    HW114996   1.899   0.769   2.303
 1160SOL    HW214997   1.819   0.782   2.161
 1161SOL     OW14998   0.488   1.385   2.036
 1161SOL    HW114999   0.401   1.370   2.083
 1161SOL    HW215000   0.471   1.411   1.941
 1162SOL     OW15001   1.664   1.280   2.519
 1162SOL    HW115002   1.763   1.288   2.533
 1162SOL    HW215003   1.619   1.364   2.550
 1163SOL     OW15004   1.390   0.575   1.940
 1163SOL    HW115005   1.336   0.554   2.021
 1163SOL    HW215006   1.481   0.534   1.949
 1164SOL     OW15007   0.527   0.256   2.190
 1164SOL    HW115008   0.554   0.197   2.115
 1164SOL    HW215009   0.527   0.351   2.159
 1165SOL     OW15010   1.754   1.223   3.450
 1165SOL    HW115011   1.845   1.184   3.437
 1165SOL    HW215012   1.762   1.319   3.474
 1166SOL     OW15013   1.064   1.347   3.202
 1166SOL    HW115014   0.984   1.324   3.257
 1166SOL    HW215015   1.147   1.321   3.251
 1167SOL     OW15016   1.592   1.629   3.487
 1167SOL    HW115017   1.619   1.663   3.397
 1167SOL    HW215018   1.671   1.591   3.533
 1168SOL     OW15019   1.111   1.195   2.962
 1168SOL    HW115020   1.071   1.239   3.043
 1168SOL    HW215021   1.070   1.232   2.879
 1169SOL     OW15022   1.638   1.099   2.941
 1169SOL    HW115023   1.643   1.180   3.000
 1169SOL    HW215024   1.552   1.101   2.890
 1170SOL     OW15025   0.915   0.089   3.264
 1170SOL    HW115026   0.940   0.069   3.169
 1170SOL    HW215027   0.987   0.145   3.306
 1171SOL     OW15028   0.980   1.116   3.581
 1171SOL    HW115029   0.881   1.122   3.591
 1171SOL    HW215030   1.003   1.036   3.525
 1172SOL     OW15031   0.705   1.050   2.230
 1172SOL    HW115032   0.691   1.057   2.329
 1172SOL    HW215033   0.789   0.999   2.212
 1173SOL     OW15034   0.410   0.813   3.113
 1173SOL    HW115035   0.496   0.825   3.163
 1173SOL    HW215036   0.368   0.726   3.140
 1174SOL     OW15037   1.274   0.386   3.124
 1174SOL    HW115038   1.295   0.460   3.188
 1174SOL    HW215039   1.185   0.403   3.081
 1175SOL     OW15040   0.064   1.564   3.193
 1175SOL    HW115041   0.018   1.646   3.159
 1175SOL    HW215042   0.162   1.583   3.202
 1176SOL     OW15043   0.367   1.100   2.363
 1176SOL    HW115044   0.360   1.183   2.307
 1176SOL    HW215045   0.371   1.020   2.303
 1177SOL     OW15046   0.566   0.537   2.727
 1177SOL    HW115047   0.578   0.603   2.653
 1177SOL    HW215048   0.612   0.571   2.810
 1178SOL     OW15049   1.252   1.348   2.250
 1178SOL    HW115050   1.302   1.425   2.290
 1178SOL    HW215051   1.157   1.350   2.282
 1179SOL     OW15052   1.272   1.445   3.004
 1179SOL    HW115053   1.319   1.458   3.091
 1179SOL    HW215054   1.206   1.371   3.013
 1180SOL     OW15055   1.582   0.639   2.334
 1180SOL    HW115056   1.551   0.700   2.407
 1180SOL    HW215057   1.632   0.691   2.265
 1181SOL     OW15058   0.354   1.510   3.191
 1181SOL    HW115059   0.333   1.466   3.104
 1181SOL    HW215060   0.451   1.536   3.194
 1182SOL     OW15061   0.402   0.751   3.460
 1182SOL    HW115062   0.470   0.806   3.413
 1182SOL    HW215063   0.442   0.663   3.487
 1183SOL     OW15064   1.587   0.779   3.532
 1183SOL    HW115065   1.495   0.817   3.527
 1183SOL    HW215066   1.647   0.826   3.467
 1184SOL     OW15067   1.013   0.105   3.632
 1184SOL    HW115068   1.019   0.190   3.580
 1184SOL    HW215069   1.045   0.029   3.575
 1185SOL     OW15070   0.504   0.050   3.602
 1185SOL    HW115071   0.462  -0.007   3.532
 1185SOL    HW215072   0.438   0.119   3.634
 1186SOL     OW15073   0.573   0.870   2.891
 1186SOL    HW115074   0.617   0.959   2.882
 1186SOL    HW215075   0.510   0.870   2.968
 1187SOL     OW15076   1.360   0.862   2.907
 1187SOL    HW115077   1.285   0.862   2.841
 1187SOL    HW215078   1.397   0.770   2.916
 1188SOL     OW15079   1.209   0.525   2.137
 1188SOL    HW115080   1.222   0.441   2.191
 1188SOL    HW215081   1.180   0.599   2.197
 1189SOL     OW15082   0.307   0.213   3.093
 1189SOL    HW115083   0.284   0.250   3.183
 1189SOL    HW215084   0.277   0.118   3.087
 1190SOL     OW15085   0.037   1.310   3.144
 1190SOL    HW115086   0.090   1.261   3.212
 1190SOL    HW215087   0.059   1.408   3.149
 1191SOL     OW15088   0.732   0.634   2.926
 1191SOL    HW115089   0.791   0.608   2.850
 1191SOL    HW215090   0.704   0.730   2.915
 1192SOL     OW15091   1.728   0.935   3.716
 1192SOL    HW115092   1.682   0.928   3.627
 1192SOL    HW215093   1.666   0.979   3.782
 1193SOL     OW15094   0.307   0.063   2.480
 1193SOL    HW115095   0.296   0.157   2.513
 1193SOL    HW215096   0.302   0.000   2.557
 1194SOL     OW15097   1.622   0.367   2.236
 1194SOL    HW115098   1.624   0.291   2.300
 1194SOL    HW215099   1.574   0.444   2.276
 1195SOL     OW15100   1.023   0.766   2.828
 1195SOL    HW115101   1.038   0.787   2.924
 1195SOL    HW215102   0.993   0.671   2.819
 1196SOL     OW15103   0.980   1.573   3.562
 1196SOL    HW115104   0.960   1.617   3.474
 1196SOL    HW215105   1.019   1.482   3.546
 1197SOL     OW15106   1.859   1.518   3.467
 1197SOL    HW115107   1.873   1.545   3.372
 1197SOL    HW215108   1.942   1.540   3.520
 1198SOL     OW15109   0.350   0.898   3.666
 1198SOL    HW115110   0.426   0.942   3.714
 1198SOL    HW215111   0.385   0.851   3.584
 1199SOL     OW15112   1.540   0.274   1.987
 1199SOL    HW115113   1.479   0.199   2.010
 1199SOL    HW215114   1.562   0.326   2.070
 1200SOL     OW15115   1.303   0.838   1.904
 1200SOL    HW115116   1.337   0.745   1.919
 1200SOL    HW215117   1.321   0.865   1.809
 1201SOL     OW15118   1.068   1.333   2.711
 1201SOL    HW115119   1.075   1.249   2.656
 1201SOL    HW215120   1.130   1.402   2.675
 1202SOL     OW15121   0.319   0.810   2.811
 1202SOL    HW115122   0.412   0.846   2.816
 1202SOL    HW215123   0.313   0.725   2.863
 1203SOL     OW15124   0.339   0.509   2.868
 1203SOL    HW115125   0.287   0.426   2.851
 1203SOL    HW215126   0.416   0.514   2.804
 1204SOL     OW15127   1.138   0.380   3.540
 1204SOL    HW115128   1.093   0.443   3.604
 1204SOL    HW215129   1.231   0.411   3.523
 1205SOL     OW15130   1.160   0.207   3.339
 1205SOL    HW115131   1.160   0.271   3.416
 1205SOL    HW215132   1.188   0.255   3.256
 1206SOL     OW15133   0.008   1.326   2.062
 1206SOL    HW115134  -0.085   1.347   2.031
 1206SOL    HW215135   0.018   1.227   2.075
 1207SOL     OW15136   0.088   1.801   2.789
 1207SOL    HW115137   0.046   1.715   2.762
 1207SOL    HW215138   0.182   1.804   2.755
 1208SOL     OW15139   0.504   1.568   2.772
 1208SOL    HW115140   0.570   1.642   2.781
 1208SOL    HW215141   0.548   1.489   2.730
 1209SOL     OW15142   1.002   0.796   3.100
 1209SOL    HW115143   1.043   0.764   3.186
 1209SOL    HW215144   0.906   0.769   3.097
 1210SOL     OW15145   0.040   0.544   2.976
 1210SOL    HW115146   0.125   0.511   2.935
 1210SOL    HW215147   0.053   0.559   3.074
 1211SOL     OW15148   0.189   0.520   3.584
 1211SOL    HW115149   0.248   0.480   3.514
 1211SOL    HW215150   0.131   0.591   3.543
 1212SOL     OW15151   1.369   0.950   3.522
 1212SOL    HW115152   1.408   1.039   3.542
 1212SOL    HW215153   1.379   0.930   3.425
 1213SOL     OW15154   0.815   0.572   2.187
 1213SOL    HW115155   0.822   0.483   2.141
 1213SOL    HW215156   0.721   0.606   2.179
 1214SOL     OW15157   1.657   0.604   3.068
 1214SOL    HW115158   1.619   0.535   3.130
 1214SOL    HW215159   1.739   0.568   3.024
 1215SOL     OW15160   0.252   1.564   3.606
 1215SOL    HW115161   0.222   1.621   3.682
 1215SOL    HW215162   0.245   1.467   3.632
 1216SOL     OW15163   0.671   0.464   3.131
 1216SOL    HW115164   0.637   0.375   3.101
 1216SOL    HW215165   0.697   0.518   3.051
 1217SOL     OW15166   0.930   1.678   3.327
 1217SOL    HW115167   0.906   1.660   3.232
 1217SOL    HW215168   0.960   1.772   3.337
 1218SOL     OW15169   0.473   0.500   2.053
 1218SOL    HW115170   0.534   0.580   2.057
 1218SOL    HW215171   0.378   0.531   2.060
 1219SOL     OW15172   0.159   1.137   3.328
 1219SOL    HW115173   0.181   1.076   3.404
 1219SOL    HW215174   0.169   1.088   3.242
 1220SOL     OW15175   1.347   1.059   3.096
 1220SOL    HW115176   1.371   0.996   3.022
 1220SOL    HW215177   1.257   1.099   3.078
 1221SOL     OW15178   1.302   0.855   2.171
 1221SOL    HW115179   1.216   0.824   2.213
 1221SOL    HW215180   1.298   0.841   2.072
 1222SOL     OW15181   1.759   1.747   3.016
 1222SOL    HW115182   1.820   1.777   2.943
 1222SOL    HW215183   1.721   1.658   2.994
 1223SOL     OW15184   1.252   1.731   2.990
 1223SOL    HW115185   1.336   1.736   2.936
 1223SOL    HW215186   1.229   1.635   3.008
 1224SOL     OW15187   0.083   1.258   2.884
 1224SOL    HW115188   0.078   1.257   2.984
 1224SOL    HW215189   0.000   1.217   2.846
 1225SOL     OW15190   0.688   1.662   3.578
 1225SOL    HW115191   0.632   1.743   3.587
 1225SOL    HW215192   0.740   1.666   3.492
 1226SOL     OW15193   1.726   0.135   2.385
 1226SOL    HW115194   1.799   0.118   2.318
 1226SOL    HW215195   1.695   0.048   2.423
 1227SOL     OW15196   1.388   1.573   2.339
 1227SOL    HW115197   1.455   1.585   2.265
 1227SOL    HW215198   1.348   1.662   2.362
 1228SOL     OW15199   0.130   1.794   3.713
 1228SOL    HW115200   0.089   1.720   3.766
 1228SOL    HW215201   0.194   1.845   3.771
 1229SOL     OW15202   1.280   0.927   2.534
 1229SOL    HW115203   1.340   0.846   2.536
 1229SOL    HW215204   1.320   0.996   2.474
 1230SOL     OW15205   0.830   1.273   3.284
 1230SOL    HW115206   0.825   1.306   3.379
 1230SOL    HW215207   0.744   1.292   3.238
 1231SOL     OW15208   0.672   1.616   2.016
 1231SOL    HW115209   0.681   1.626   1.917
 1231SOL    HW215210   0.632   1.527   2.037
 1232SOL     OW15211   1.650   1.720   3.256
 1232SOL    HW115212   1.703   1.730   3.172
 1232SOL    HW215213   1.623   1.810   3.290
 1233SOL     OW15214   1.841   0.175   2.825
 1233SOL    HW115215   1.880   0.090   2.789
 1233SOL    HW215216   1.743   0.177   2.806
 1234SOL     OW15217   0.263   0.326   2.582
 1234SOL    HW115218   0.184   0.377   2.548
 1234SOL    HW215219   0.254   0.311   2.680
 1235SOL     OW15220   1.194   1.612   1.893
 1235SOL    HW115221   1.200   1.519   1.930
 1235SOL    HW215222   1.135   1.612   1.813
 1236SOL     OW15223   0.822   1.002   3.234
 1236SOL    HW115224   0.862   1.001   3.142
 1236SOL    HW215225   0.832   1.094   3.274
 1237SOL     OW15226   0.916   0.910   2.153
 1237SOL    HW115227   0.979   0.948   2.085
 1237SOL    HW215228   0.956   0.827   2.192
 1238SOL     OW15229   1.504   1.607   1.906
 1238SOL    HW115230   1.412   1.644   1.913
 1238SOL    HW215231   1.542   1.627   1.816
 1239SOL     OW15232   0.372   1.288   3.352
 1239SOL    HW115233   0.359   1.381   3.318
 1239SOL    HW215234   0.288   1.236   3.339
 1240SOL     OW15235   1.614   1.292   3.151
 1240SOL    HW115236   1.674   1.295   3.231
 1240SOL    HW215237   1.539   1.356   3.164
 1241SOL     OW15238   1.039   1.098   2.558
 1241SOL    HW115239   0.969   1.051   2.612
 1241SOL    HW215240   1.098   1.030   2.515
 1242SOL     OW15241   1.014   0.236   2.833
 1242SOL    HW115242   1.006   0.200   2.740
 1242SOL    HW215243   1.012   0.160   2.898
 1243SOL     OW15244   0.590   1.487   2.353
 1243SOL    HW115245   0.632   1.429   2.283
 1243SOL    HW215246   0.546   1.566   2.309
 1244SOL     OW15247   1.709   0.385   3.243
 1244SOL    HW115248   1.782   0.454   3.247
 1244SOL    HW215249   1.737   0.310   3.184
 1245SOL     OW15250   0.255   1.348   2.152
 1245SOL    HW115251   0.159   1.349   2.125
 1245SOL    HW215252   0.267   1.401   2.236
 1246SOL     OW15253   0.105   1.013   3.588
 1246SOL    HW115254   0.028   0.980   3.642
 1246SOL    HW215255   0.190   0.983   3.630
 1247SOL     OW15256   0.672   0.203   3.351
 1247SOL    HW115257   0.762   0.187   3.311
 1247SOL    HW215258   0.680   0.208   3.450
 1248SOL     OW15259   0.075   0.345   1.895
 1248SOL    HW115260  -0.017   0.317   1.866
 1248SOL    HW215261   0.106   0.422   1.839
 1249SOL     OW15262   1.440   0.856   3.260
 1249SOL    HW115263   1.383   0.908   3.197
 1249SOL    HW215264   1.536   0.868   3.236
 1250SOL     OW15265   0.072   0.166   2.180
 1250SOL    HW115266   0.055   0.249   2.126
 1250SOL    HW215267   0.162   0.129   2.158
 1251SOL     OW15268   1.183   1.335   1.981
 1251SOL    HW115269   1.084   1.324   1.983
 1251SOL    HW215270   1.217   1.350   2.074
 1252SOL     OW15271   0.613   0.842   3.293
 1252SOL    HW115272   0.669   0.923   3.276
 1252SOL    HW215273   0.672   0.762   3.296
 1253SOL     OW15274   1.493   1.767   2.821
 1253SOL    HW115275   1.526   1.831   2.752
 1253SOL    HW215276   1.559   1.761   2.896
 1254SOL     OW15277   0.716   0.565   3.570
 1254SOL    HW115278   0.735   0.630   3.644
 1254SOL    HW215279   0.776   0.485   3.579
 1255SOL     OW15280   1.450   1.220   3.495
 1255SOL    HW115281   1.441   1.210   3.594
 1255SOL    HW215282   1.546   1.213   3.469
 1256SOL     OW15283   0.390   1.741   3.422
 1256SOL    HW115284   0.299   1.782   3.420
 1256SOL    HW215285   0.383   1.647   3.454
 1257SOL     OW15286   1.674   0.883   3.116
 1257SOL    HW115287   1.647   0.794   3.079
 1257SOL    HW215288   1.675   0.951   3.043
 1258SOL     OW15289   1.225   0.325   2.311
 1258SOL    HW115290   1.290   0.251   2.300
 1258SOL    HW215291   1.245   0.375   2.395
 1259SOL     OW15292   0.594   0.745   2.514
 1259SOL    HW115293   0.644   0.830   2.495
 1259SOL    HW215294   0.506   0.747   2.466
 1260SOL     OW15295   1.777   0.342   3.504
 1260SOL    HW115296   1.760   0.373   3.410
 1260SOL    HW215297   1.693   0.305   3.542
 1261SOL     OW15298   1.730   0.934   3.379
 1261SOL    HW115299   1.768   1.025   3.394
 1261SOL    HW215300   1.722   0.917   3.280
 1262SOL     OW15301   0.859   1.374   1.878
 1262SOL    HW115302   0.813   1.389   1.966
 1262SOL    HW215303   0.903   1.459   1.848
 1263SOL     OW15304   0.661   1.790   2.815
 1263SOL    HW115305   0.615   1.878   2.802
 1263SOL    HW215306   0.760   1.802   2.808
 1264SOL     OW15307   0.859   0.956   2.723
 1264SOL    HW115308   0.913   0.887   2.771
 1264SOL    HW215309   0.827   1.025   2.789
 1265SOL     OW15310   1.083   0.984   1.949
 1265SOL    HW115311   1.060   1.037   1.867
 1265SOL    HW215312   1.164   0.928   1.930
 1266SOL     OW15313   1.861   1.569   2.713
 1266SOL    HW115314   1.790   1.557   2.643
 1266SOL    HW215315   1.862   1.490   2.773
 1267SOL     OW15316   0.221   1.314   3.706
 1267SOL    HW115317   0.156   1.241   3.685
 1267SOL    HW215318   0.225   1.328   3.804
 1268SOL     OW15319   0.079   1.240   2.515
 1268SOL    HW115320   0.078   1.193   2.603
 1268SOL    HW215321   0.161   1.212   2.464
 1269SOL     OW15322   0.672   1.391   3.486
 1269SOL    HW115323   0.594   1.341   3.524
 1269SOL    HW215324   0.669   1.486   3.517
 1270SOL     OW15325   1.824   0.192   3.089
 1270SOL    HW115326   1.820   0.102   3.133
 1270SOL    HW215327   1.827   0.181   2.990
 1271SOL     OW15328   0.428   0.424   2.382
 1271SOL    HW115329   0.458   0.352   2.320
 1271SOL    HW215330   0.389   0.384   2.465
 1272SOL     OW15331   1.705   1.487   2.966
 1272SOL    HW115332   1.612   1.462   2.939
 1272SOL    HW215333   1.731   1.437   3.048
 1273SOL     OW15334   0.317   0.547   3.142
 1273SOL    HW115335   0.355   0.488   3.214
 1273SOL    HW215336   0.357   0.521   3.054
 1274SOL     OW15337   0.812   1.586   2.549
 1274SOL    HW115338   0.844   1.596   2.455
 1274SOL    HW215339   0.733   1.524   2.551
 1275SOL     OW15340   1.424   0.214   2.974
 1275SOL    HW115341   1.476   0.149   3.029
 1275SOL    HW215342   1.375   0.277   3.035
 1276SOL     OW15343   1.001   0.034   3.016
 1276SOL    HW115344   0.938  -0.038   2.985
 1276SOL    HW215345   1.094  -0.002   3.016
 1277SOL     OW15346   0.770   1.330   2.163
 1277SOL    HW115347   0.724   1.243   2.180
 1277SOL    HW215348   0.861   1.327   2.204
 1278SOL     OW15349   0.618   1.567   3.146
 1278SOL    HW115350   0.613   1.649   3.203
 1278SOL    HW215351   0.707   1.564   3.101
 1279SOL     OW15352   1.352   0.052   2.030
 1279SOL    HW115353   1.387   0.011   1.946
 1279SOL    HW215354   1.262   0.014   2.050
 1280SOL     OW15355   1.300   0.453   2.553
 1280SOL    HW115356   1.241   0.533   2.557
 1280SOL    HW215357   1.315   0.418   2.646
 1281SOL     OW15358   1.593   0.221   2.744
 1281SOL    HW115359   1.509   0.220   2.798
 1281SOL    HW215360   1.595   0.304   2.688
 1282SOL     OW15361   0.039   1.077   2.162
 1282SOL    HW115362   0.138   1.066   2.153
 1282SOL    HW215363  -0.001   0.991   2.194
 1283SOL     OW15364   0.875   1.646   2.199
 1283SOL    HW115365   0.798   1.611   2.145
 1283SOL    HW215366   0.843   1.717   2.261
 1284SOL     OW15367   0.230   0.628   3.837
 1284SOL    HW115368   0.137   0.626   3.874
 1284SOL    HW215369   0.231   0.589   3.745
 1285SOL     OW15370   0.225   0.275   4.720
 1285SOL    HW115371   0.260   0.258   4.812
 1285SOL    HW215372   0.137   0.230   4.708
 1286SOL     OW15373   0.019   0.368   4.371
 1286SOL    HW115374  -0.063   0.411   4.410
 1286SOL    HW215375  -0.009   0.295   4.308
 1287SOL     OW15376   0.569   1.275   4.889
 1287SOL    HW115377   0.476   1.268   4.852
 1287SOL    HW215378   0.580   1.364   4.933
 1288SOL     OW15379   1.555   1.511   4.427
 1288SOL    HW115380   1.498   1.495   4.508
 1288SOL    HW215381   1.496   1.521   4.347
 1289SOL     OW15382   1.135   0.703   4.441
 1289SOL    HW115383   1.192   0.781   4.416
 1289SOL    HW215384   1.075   0.729   4.517
 1290SOL     OW15385   1.755   0.607   3.955
 1290SOL    HW115386   1.743   0.594   3.856
 1290SOL    HW215387   1.725   0.526   4.004
 1291SOL     OW15388   0.768   1.144   4.747
 1291SOL    HW115389   0.690   1.161   4.807
 1291SOL    HW215390   0.802   1.231   4.711
 1292SOL     OW15391   0.850   0.798   5.547
 1292SOL    HW115392   0.846   0.874   5.612
 1292SOL    HW215393   0.872   0.834   5.456
 1293SOL     OW15394   0.685   1.012   4.389
 1293SOL    HW115395   0.754   0.996   4.459
 1293SOL    HW215396   0.612   1.069   4.427
 1294SOL     OW15397   0.686   1.161   5.527
 1294SOL    HW115398   0.746   1.240   5.541
 1294SOL    HW215399   0.600   1.192   5.486
 1295SOL     OW15400   0.335   1.435   4.785
 1295SOL    HW115401   0.257   1.404   4.732
 1295SOL    HW215402   0.393   1.493   4.728
 1296SOL     OW15403   1.460   1.505   5.063
 1296SOL    HW115404   1.484   1.599   5.089
 1296SOL    HW215405   1.444   1.451   5.145
 1297SOL     OW15406   0.438   0.392   5.223
 1297SOL    HW115407   0.520   0.336   5.232
 1297SOL    HW215408   0.357   0.334   5.227
 1298SOL     OW15409   1.603   0.447   4.461
 1298SOL    HW115410   1.529   0.493   4.411
 1298SOL    HW215411   1.654   0.515   4.514
 1299SOL     OW15412   0.231   1.713   4.207
 1299SOL    HW115413   0.265   1.790   4.261
 1299SOL    HW215414   0.275   1.713   4.117
 1300SOL     OW15415   1.127   1.341   5.414
 1300SOL    HW115416   1.174   1.341   5.502
 1300SOL    HW215417   1.079   1.254   5.403
 1301SOL     OW15418   0.230   1.434   4.262
 1301SOL    HW115419   0.204   1.530   4.262
 1301SOL    HW215420   0.159   1.380   4.307
 1302SOL     OW15421   0.240   1.091   4.610
 1302SOL    HW115422   0.254   1.007   4.662
 1302SOL    HW215423   0.185   1.155   4.665
 1303SOL     OW15424   0.620   1.786   5.163
 1303SOL    HW115425   0.528   1.769   5.198
 1303SOL    HW215426   0.648   1.878   5.189
 1304SOL     OW15427   0.606   0.964   3.847
 1304SOL    HW115428   0.613   1.048   3.793
 1304SOL    HW215429   0.652   0.977   3.935
 1305SOL     OW15430   1.594   0.114   5.204
 1305SOL    HW115431   1.576   0.181   5.132
 1305SOL    HW215432   1.591   0.160   5.293
 1306SOL     OW15433   0.122   0.643   4.287
 1306SOL    HW115434   0.077   0.555   4.304
 1306SOL    HW215435   0.121   0.697   4.371
 1307SOL     OW15436   1.842   1.767   4.083
 1307SOL    HW115437   1.896   1.738   4.163
 1307SOL    HW215438   1.872   1.857   4.054
 1308SOL     OW15439   0.027   1.596   3.841
 1308SOL    HW115440   0.008   1.500   3.862
 1308SOL    HW215441  -0.006   1.654   3.916
 1309SOL     OW15442   1.689   0.922   4.336
 1309SOL    HW115443   1.784   0.893   4.344
 1309SOL    HW215444   1.681   0.987   4.261
 1310SOL     OW15445   1.641   1.108   4.156
 1310SOL    HW115446   1.727   1.110   4.104
 1310SOL    HW215447   1.655   1.155   4.244
 1311SOL     OW15448   0.113   0.737   5.321
 1311SOL    HW115449   0.201   0.724   5.366
 1311SOL    HW215450   0.100   0.834   5.299
 1312SOL     OW15451   0.613   1.365   4.450
 1312SOL    HW115452   0.564   1.278   4.459
 1312SOL    HW215453   0.590   1.408   4.363
 1313SOL     OW15454   1.293   1.228   5.147
 1313SOL    HW115455   1.330   1.155   5.089
 1313SOL    HW215456   1.345   1.233   5.232
 1314SOL     OW15457   0.809   0.004   4.226
 1314SOL    HW115458   0.849   0.095   4.217
 1314SOL    HW215459   0.709   0.012   4.232
 1315SOL     OW15460   0.197   0.976   4.988
 1315SOL    HW115461   0.286   0.931   4.974
 1315SOL    HW215462   0.124   0.911   4.969
 1316SOL     OW15463   1.525   0.999   3.914
 1316SOL    HW115464   1.462   0.923   3.927
 1316SOL    HW215465   1.573   1.017   4.000
 1317SOL     OW15466   1.187   1.792   5.340
 1317SOL    HW115467   1.211   1.852   5.264
 1317SOL    HW215468   1.194   1.697   5.310
 1318SOL     OW15469   0.317   0.251   5.525
 1318SOL    HW115470   0.388   0.322   5.531
 1318SOL    HW215471   0.229   0.290   5.553
 1319SOL     OW15472   1.466   1.417   4.677
 1319SOL    HW115473   1.407   1.423   4.757
 1319SOL    HW215474   1.451   1.329   4.631
 1320SOL     OW15475   1.667   1.714   4.296
 1320SOL    HW115476   1.626   1.691   4.208
 1320SOL    HW215477   1.649   1.640   4.361
 1321SOL     OW15478   0.598   0.729   3.994
 1321SOL    HW115479   0.622   0.798   3.926
 1321SOL    HW215480   0.520   0.762   4.048
 1322SOL     OW15481   1.281   0.345   4.668
 1322SOL    HW115482   1.195   0.295   4.655
 1322SOL    HW215483   1.343   0.291   4.724
 1323SOL     OW15484   1.576   1.662   4.031
 1323SOL    HW115485   1.665   1.708   4.034
 1323SOL    HW215486   1.555   1.638   3.936
 1324SOL     OW15487   0.807   0.605   5.189
 1324SOL    HW115488   0.760   0.602   5.278
 1324SOL    HW215489   0.756   0.550   5.123
 1325SOL     OW15490   1.394   0.469   5.398
 1325SOL    HW115491   1.374   0.512   5.486
 1325SOL    HW215492   1.472   0.407   5.407
 1326SOL     OW15493   0.973   0.890   5.296
 1326SOL    HW115494   1.019   0.806   5.267
 1326SOL    HW215495   0.917   0.924   5.221
 1327SOL     OW15496   0.991   0.410   4.966
 1327SOL    HW115497   0.914   0.444   5.020
 1327SOL    HW215498   0.957   0.359   4.887
 1328SOL     OW15499   1.041   0.701   4.153
 1328SOL    HW115500   1.067   0.697   4.249
 1328SOL    HW215501   0.956   0.650   4.139
 1329SOL     OW15502   0.076   0.811   4.513
 1329SOL    HW115503   0.175   0.799   4.522
 1329SOL    HW215504   0.052   0.906   4.534
 1330SOL     OW15505   0.130   1.821   5.295
 1330SOL    HW115506   0.120   1.806   5.394
 1330SOL    HW215507   0.044   1.857   5.259
 1331SOL     OW15508   0.865   0.348   3.919
 1331SOL    HW115509   0.924   0.411   3.870
 1331SOL    HW215510   0.884   0.254   3.890
 1332SOL     OW15511   1.719   0.585   5.555
 1332SOL    HW115512   1.693   0.674   5.519
 1332SOL    HW215513   1.717   0.517   5.482
 1333SOL     OW15514   1.362   1.144   4.269
 1333SOL    HW115515   1.445   1.115   4.221
 1333SOL    HW215516   1.313   1.211   4.213
 1334SOL     OW15517   0.550   0.196   4.609
 1334SOL    HW115518   0.545   0.191   4.709
 1334SOL    HW215519   0.552   0.292   4.580
 1335SOL     OW15520   1.008   1.456   4.201
 1335SOL    HW115521   0.962   1.528   4.149
 1335SOL    HW215522   1.004   1.476   4.299
 1336SOL     OW15523   0.351   1.801   4.577
 1336SOL    HW115524   0.401   1.715   4.583
 1336SOL    HW215525   0.416   1.878   4.574
 1337SOL     OW15526   1.795   1.066   4.597
 1337SOL    HW115527   1.733   1.051   4.521
 1337SOL    HW215528   1.743   1.077   4.682
 1338SOL     OW15529   1.227   1.550   5.230
 1338SOL    HW115530   1.233   1.473   5.294
 1338SOL    HW215531   1.175   1.524   5.150
 1339SOL     OW15532   0.321   0.943   3.966
 1339SOL    HW115533   0.403   0.982   3.924
 1339SOL    HW215534   0.294   0.861   3.917
 1340SOL     OW15535   1.458   0.735   4.452
 1340SOL    HW115536   1.453   0.670   4.527
 1340SOL    HW215537   1.538   0.794   4.465
 1341SOL     OW15538   0.461   1.266   5.451
 1341SOL    HW115539   0.411   1.267   5.365
 1341SOL    HW215540   0.398   1.248   5.527
 1342SOL     OW15541   1.111   1.776   3.961
 1342SOL    HW115542   1.051   1.714   4.011
 1342SOL    HW215543   1.142   1.732   3.876
 1343SOL     OW15544   0.202   0.285   5.222
 1343SOL    HW115545   0.122   0.345   5.209
 1343SOL    HW215546   0.192   0.236   5.308
 1344SOL     OW15547   1.632   1.377   3.805
 1344SOL    HW115548   1.600   1.471   3.795
 1344SOL    HW215549   1.556   1.314   3.793
 1345SOL     OW15550   0.464   1.743   4.047
 1345SOL    HW115551   0.497   1.782   4.133
 1345SOL    HW215552   0.540   1.736   3.982
 1346SOL     OW15553   1.400   0.107   4.150
 1346SOL    HW115554   1.376   0.070   4.060
 1346SOL    HW215555   1.499   0.123   4.154
 1347SOL     OW15556   0.249   1.785   4.965
 1347SOL    HW115557   0.306   1.720   5.015
 1347SOL    HW215558   0.233   1.752   4.872
 1348SOL     OW15559   0.940   1.698   4.628
 1348SOL    HW115560   1.020   1.641   4.649
 1348SOL    HW215561   0.891   1.658   4.551
 1349SOL     OW15562   0.382   0.700   4.204
 1349SOL    HW115563   0.427   0.610   4.201
 1349SOL    HW215564   0.288   0.689   4.237
 1350SOL     OW15565   1.547   0.222   5.453
 1350SOL    HW115566   1.542   0.259   5.545
 1350SOL    HW215567   1.475   0.153   5.441
 1351SOL     OW15568   0.614   0.122   3.841
 1351SOL    HW115569   0.712   0.100   3.848
 1351SOL    HW215570   0.583   0.105   3.748
 1352SOL     OW15571   0.781   0.264   5.473
 1352SOL    HW115572   0.848   0.203   5.516
 1352SOL    HW215573   0.708   0.283   5.538
 1353SOL     OW15574   0.888   1.514   4.919
 1353SOL    HW115575   0.865   1.489   4.825
 1353SOL    HW215576   0.949   1.445   4.958
 1354SOL     OW15577   1.351   0.590   5.157
 1354SOL    HW115578   1.379   0.547   5.242
 1354SOL    HW215579   1.376   0.686   5.158
 1355SOL     OW15580   0.803   1.402   4.648
 1355SOL    HW115581   0.893   1.416   4.606
 1355SOL    HW215582   0.732   1.404   4.577
 1356SOL     OW15583   0.922   0.503   4.623
 1356SOL    HW115584   0.897   0.494   4.527
 1356SOL    HW215585   0.970   0.421   4.654
 1357SOL     OW15586   0.539   0.064   4.236
 1357SOL    HW115587   0.458   0.065   4.294
 1357SOL    HW215588   0.542   0.147   4.181
 1358SOL     OW15589   1.434   1.188   3.765
 1358SOL    HW115590   1.466   1.112   3.822
 1358SOL    HW215591   1.342   1.215   3.795
 1359SOL     OW15592   0.297   0.035   3.895
 1359SOL    HW115593   0.346   0.119   3.874
 1359SOL    HW215594   0.359  -0.030   3.940
 1360SOL     OW15595   0.935   0.236   4.204
 1360SOL    HW115596   0.887   0.277   4.126
 1360SOL    HW215597   1.034   0.234   4.185
 1361SOL     OW15598   1.076   0.683   5.188
 1361SOL    HW115599   0.996   0.622   5.191
 1361SOL    HW215600   1.157   0.630   5.164
 1362SOL     OW15601   1.227   1.570   4.517
 1362SOL    HW115602   1.248   1.644   4.452
 1362SOL    HW215603   1.295   1.570   4.590
 1363SOL     OW15604   0.459   1.152   4.465
 1363SOL    HW115605   0.388   1.125   4.530
 1363SOL    HW215606   0.433   1.124   4.372
 1364SOL     OW15607   1.271   1.797   4.315
 1364SOL    HW115608   1.315   1.861   4.251
 1364SOL    HW215609   1.221   1.849   4.385
 1365SOL     OW15610   1.032   0.549   3.740
 1365SOL    HW115611   0.991   0.631   3.701
 1365SOL    HW215612   1.096   0.575   3.813
 1366SOL     OW15613   0.078   0.556   5.110
 1366SOL    HW115614   0.170   0.555   5.069
 1366SOL    HW215615   0.072   0.630   5.177
 1367SOL     OW15616   0.561   0.222   4.871
 1367SOL    HW115617   0.599   0.138   4.908
 1367SOL    HW215618   0.473   0.241   4.915
 1368SOL     OW15619   0.866   0.454   4.366
 1368SOL    HW115620   0.834   0.526   4.304
 1368SOL    HW215621   0.890   0.373   4.313
 1369SOL     OW15622   1.017   0.039   4.477
 1369SOL    HW115623   0.945   0.044   4.408
 1369SOL    HW215624   0.993  -0.030   4.546
 1370SOL     OW15625   1.429   1.173   4.591
 1370SOL    HW115626   1.374   1.089   4.584
 1370SOL    HW215627   1.455   1.202   4.499
 1371SOL     OW15628   1.466   0.590   4.716
 1371SOL    HW115629   1.436   0.495   4.723
 1371SOL    HW215630   1.539   0.606   4.782
 1372SOL     OW15631   1.857   0.833   4.101
 1372SOL    HW115632   1.899   0.769   4.165
 1372SOL    HW215633   1.819   0.782   4.023
 1373SOL     OW15634   0.488   1.385   3.898
 1373SOL    HW115635   0.401   1.370   3.945
 1373SOL    HW215636   0.471   1.411   3.803
 1374SOL     OW15637   1.664   1.280   4.381
 1374SOL    HW115638   1.763   1.288   4.395
 1374SOL    HW215639   1.619   1.364   4.412
 1375SOL     OW15640   1.390   0.575   3.802
 1375SOL    HW115641   1.336   0.554   3.883
 1375SOL    HW215642   1.481   0.534   3.811
 1376SOL     OW15643   0.527   0.256   4.052
 1376SOL    HW115644   0.554   0.197   3.977
 1376SOL    HW215645   0.527   0.351   4.021
 1377SOL     OW15646   1.754   1.223   5.312
 1377SOL    HW115647   1.845   1.184   5.299
 1377SOL    HW215648   1.762   1.319   5.336
 1378SOL     OW15649   1.064   1.347   5.064
 1378SOL    HW115650   0.984   1.324   5.119
 1378SOL    HW215651   1.147   1.321   5.113
 1379SOL     OW15652   1.592   1.629   5.349
 1379SOL    HW115653   1.619   1.663   5.259
 1379SOL    HW215654   1.671   1.591   5.395
 1380SOL     OW15655   1.111   1.195   4.824
 1380SOL    HW115656   1.071   1.239   4.905
 1380SOL    HW215657   1.070   1.232   4.741
 1381SOL     OW15658   1.638   1.099   4.803
 1381SOL    HW115659   1.643   1.180   4.862
 1381SOL    HW215660   1.552   1.101   4.752
 1382SOL     OW15661   0.915   0.089   5.126
 1382SOL    HW115662   0.940   0.069   5.031
 1382SOL    HW215663   0.987   0.145   5.168
 1383SOL     OW15664   0.980   1.116   5.443
 1383SOL    HW115665   0.881   1.122   5.453
 1383SOL    HW215666   1.003   1.036   5.387
 1384SOL     OW15667   0.705   1.050   4.092
 1384SOL    HW115668   0.691   1.057   4.191
 1384SOL    HW215669   0.789   0.999   4.074
 1385SOL     OW15670   0.410   0.813   4.975
 1385SOL    HW115671   0.496   0.825   5.025
 1385SOL    HW215672   0.368   0.726   5.002
 1386SOL     OW15673   1.274   0.386   4.986
 1386SOL    HW115674   1.295   0.460   5.050
 1386SOL    HW215675   1.185   0.403   4.943
 1387SOL     OW15676   0.064   1.564   5.055
 1387SOL    HW115677   0.018   1.646   5.021
 1387SOL    HW215678   0.162   1.583   5.064
 1388SOL     OW15679   0.367   1.100   4.225
 1388SOL    HW115680   0.360   1.183   4.169
 1388SOL    HW215681   0.371   1.020   4.165
 1389SOL     OW15682   0.566   0.537   4.589
 1389SOL    HW115683   0.578   0.603   4.515
 1389SOL    HW215684   0.612   0.571   4.672
 1390SOL     OW15685   1.252   1.348   4.112
 1390SOL    HW115686   1.302   1.425   4.152
 1390SOL    HW215687   1.157   1.350   4.144
 1391SOL     OW15688   1.272   1.445   4.866
 1391SOL    HW115689   1.319   1.458   4.953
 1391SOL    HW215690   1.206   1.371   4.875
 1392SOL     OW15691   1.582   0.639   4.196
 1392SOL    HW115692   1.551   0.700   4.269
 1392SOL    HW215693   1.632   0.691   4.127
 1393SOL     OW15694   0.354   1.510   5.053
 1393SOL    HW115695   0.333   1.466   4.966
 1393SOL    HW215696   0.451   1.536   5.056
 1394SOL     OW15697   0.402   0.751   5.322
 1394SOL    HW115698   0.470   0.806   5.275
 1394SOL    HW215699   0.442   0.663   5.349
 1395SOL     OW15700   1.587   0.779   5.394
 1395SOL    HW115701   1.495   0.817   5.389
 1395SOL    HW215702   1.647   0.826   5.329
 1396SOL     OW15703   1.013   0.105   5.494
 1396SOL    HW115704   1.019   0.190   5.442
 1396SOL    HW215705   1.045   0.029   5.437
 1397SOL     OW15706   0.504   0.050   5.464
 1397SOL    HW115707   0.462  -0.007   5.394
 1397SOL    HW215708   0.438   0.119   5.496
 1398SOL     OW15709   0.573   0.870   4.753
 1398SOL    HW115710   0.617   0.959   4.744
 1398SOL    HW215711   0.510   0.870   4.830
 1399SOL     OW15712   1.360   0.862   4.769
 1399SOL    HW115713   1.285   0.862   4.703
 1399SOL    HW215714   1.397   0.770   4.778
 1400SOL     OW15715   1.209   0.525   3.999
 1400SOL    HW115716   1.222   0.441   4.053
 1400SOL    HW215717   1.180   0.599   4.059
 1401SOL     OW15718   0.307   0.213   4.955
 1401SOL    HW115719   0.284   0.250   5.045
 1401SOL    HW215720   0.277   0.118   4.949
 1402SOL     OW15721   0.037   1.310   5.006
 1402SOL    HW115722   0.090   1.261   5.074
 1402SOL    HW215723   0.059   1.408   5.011
 1403SOL     OW15724   0.732   0.634   4.788
 1403SOL    HW115725   0.791   0.608   4.712
 1403SOL    HW215726   0.704   0.730   4.777
 1404SOL     OW15727   1.728   0.935   5.578
 1404SOL    HW115728   1.682   0.928   5.489
 1404SOL    HW215729   1.666   0.979   5.644
 1405SOL     OW15730   0.307   0.063   4.342
 1405SOL    HW115731   0.296   0.157   4.375
 1405SOL    HW215732   0.302   0.000   4.419
 1406SOL     OW15733   1.622   0.367   4.098
 1406SOL    HW115734   1.624   0.291   4.162
 1406SOL    HW215735   1.574   0.444   4.138
 1407SOL     OW15736   1.023   0.766   4.690
 1407SOL    HW115737   1.038   0.787   4.786
 1407SOL    HW215738   0.993   0.671   4.681
 1408SOL     OW15739   0.980   1.573   5.424
 1408SOL    HW115740   0.960   1.617   5.336
 1408SOL    HW215741   1.019   1.482   5.408
 1409SOL     OW15742   1.859   1.518   5.329
 1409SOL    HW115743   1.873   1.545   5.234
 1409SOL    HW215744   1.942   1.540   5.382
 1410SOL     OW15745   0.350   0.898   5.528
 1410SOL    HW115746   0.426   0.942   5.576
 1410SOL    HW215747   0.385   0.851   5.446
 1411SOL     OW15748   1.540   0.274   3.849
 1411SOL    HW115749   1.479   0.199   3.872
 1411SOL    HW215750   1.562   0.326   3.932
 1412SOL     OW15751   1.303   0.838   3.766
 1412SOL    HW115752   1.337   0.745   3.781
 1412SOL    HW215753   1.321   0.865   3.671
 1413SOL     OW15754   1.068   1.333   4.573
 1413SOL    HW115755   1.075   1.249   4.518
 1413SOL    HW215756   1.130   1.402   4.537
 1414SOL     OW15757   0.319   0.810   4.673
 1414SOL    HW115758   0.412   0.846   4.678
 1414SOL    HW215759   0.313   0.725   4.725
 1415SOL     OW15760   0.339   0.509   4.730
 1415SOL    HW115761   0.287   0.426   4.713
 1415SOL    HW215762   0.416   0.514   4.666
 1416SOL     OW15763   1.138   0.380   5.402
 1416SOL    HW115764   1.093   0.443   5.466
 1416SOL    HW215765   1.231   0.411   5.385
 1417SOL     OW15766   1.160   0.207   5.201
 1417SOL    HW115767   1.160   0.271   5.278
 1417SOL    HW215768   1.188   0.255   5.118
 1418SOL     OW15769   0.008   1.326   3.924
 1418SOL    HW115770  -0.085   1.347   3.893
 1418SOL    HW215771   0.018   1.227   3.937
 1419SOL     OW15772   0.088   1.801   4.651
 1419SOL    HW115773   0.046   1.715   4.624
 1419SOL    HW215774   0.182   1.804   4.617
 1420SOL     OW15775   0.504   1.568   4.634
 1420SOL    HW115776   0.570   1.642   4.643
 1420SOL    HW215777   0.548   1.489   4.592
 1421SOL     OW15778   1.002   0.796   4.962
 1421SOL    HW115779   1.043   0.764   5.048
 1421SOL    HW215780   0.906   0.769   4.959
 1422SOL     OW15781   0.040   0.544   4.838
 1422SOL    HW115782   0.125   0.511   4.797
 1422SOL    HW215783   0.053   0.559   4.936
 1423SOL     OW15784   0.189   0.520   5.446
 1423SOL    HW115785   0.248   0.480   5.376
 1423SOL    HW215786   0.131   0.591   5.405
 1424SOL     OW15787   1.369   0.950   5.384
 1424SOL    HW115788   1.408   1.039   5.404
 1424SOL    HW215789   1.379   0.930   5.287
 1425SOL     OW15790   0.815   0.572   4.049
 1425SOL    HW115791   0.822   0.483   4.003
 1425SOL    HW215792   0.721   0.606   4.041
 1426SOL     OW15793   1.657   0.604   4.930
 1426SOL    HW115794   1.619   0.535   4.992
 1426SOL    HW215795   1.739   0.568   4.886
 1427SOL     OW15796   0.252   1.564   5.468
 1427SOL    HW115797   0.222   1.621   5.544
 1427SOL    HW215798   0.245   1.467   5.494
 1428SOL     OW15799   0.671   0.464   4.993
 1428SOL    HW115800   0.637   0.375   4.963
 1428SOL    HW215801   0.697   0.518   4.913
 1429SOL     OW15802   0.930   1.678   5.189
 1429SOL    HW115803   0.906   1.660   5.094
 1429SOL    HW215804   0.960   1.772   5.199
 1430SOL     OW15805   0.473   0.500   3.915
 1430SOL    HW115806   0.534   0.580   3.919
 1430SOL    HW215807   0.378   0.531   3.922
 1431SOL     OW15808   0.159   1.137   5.190
 1431SOL    HW115809   0.181   1.076   5.266
 1431SOL    HW215810   0.169   1.088   5.104
 1432SOL     OW15811   1.347   1.059   4.958
 1432SOL    HW115812   1.371   0.996   4.884
 1432SOL    HW215813   1.257   1.099   4.940
 1433SOL     OW15814   1.302   0.855   4.033
 1433SOL    HW115815   1.216   0.824   4.075
 1433SOL    HW215816   1.298   0.841   3.934
 1434SOL     OW15817   1.759   1.747   4.878
 1434SOL    HW115818   1.820   1.777   4.805
 1434SOL    HW215819   1.721   1.658   4.856
 1435SOL     OW15820   1.252   1.731   4.852
 1435SOL    HW115821   1.336   1.736   4.798
 1435SOL    HW215822   1.229   1.635   4.870
 1436SOL     OW15823   0.083   1.258   4.746
 1436SOL    HW115824   0.078   1.257   4.846
 1436SOL    HW215825   0.000   1.217   4.708
 1437SOL     OW15826   0.688   1.662   5.440
 1437SOL    HW115827   0.632   1.743   5.449
 1437SOL    HW215828   0.740   1.666   5.354
 1438SOL     OW15829   1.726   0.135   4.247
 1438SOL    HW115830   1.799   0.118   4.180
 1438SOL    HW215831   1.695   0.048   4.285
 1439SOL     OW15832   1.388   1.573   4.201
 1439SOL    HW115833   1.455   1.585   4.127
 1439SOL    HW215834   1.348   1.662   4.224
 1440SOL     OW15835   0.130   1.794   5.575
 1440SOL    HW115836   0.089   1.720   5.628
 1440SOL    HW215837   0.194   1.845   5.633
 1441SOL     OW15838   1.280   0.927   4.396
 1441SOL    HW115839   1.340   0.846   4.398
 1441SOL    HW215840   1.320   0.996   4.336
 1442SOL     OW15841   0.830   1.273   5.146
 1442SOL    HW115842   0.825   1.306   5.241
 1442SOL    HW215843   0.744   1.292   5.100
 1443SOL     OW15844   0.672   1.616   3.878
 1443SOL    HW115845   0.681   1.626   3.779
 1443SOL    HW215846   0.632   1.527   3.899
 1444SOL     OW15847   1.650   1.720   5.118
 1444SOL    HW115848   1.703   1.730   5.034
 1444SOL    HW215849   1.623   1.810   5.152
 1445SOL     OW15850   1.841   0.175   4.687
 1445SOL    HW115851   1.880   0.090   4.651
 1445SOL    HW215852   1.743   0.177   4.668
 1446SOL     OW15853   0.263   0.326   4.444
 1446SOL    HW115854   0.184   0.377   4.410
 1446SOL    HW215855   0.254   0.311   4.542
 1447SOL     OW15856   1.194   1.612   3.755
 1447SOL    HW115857   1.200   1.519   3.792
 1447SOL    HW215858   1.135   1.612   3.675
 1448SOL     OW15859   0.822   1.002   5.096
 1448SOL    HW115860   0.862   1.001   5.004
 1448SOL    HW215861   0.832   1.094   5.136
 1449SOL     OW15862   0.916   0.910   4.015
 1449SOL    HW115863   0.979   0.948   3.947
 1449SOL    HW215864   0.956   0.827   4.054
 1450SOL     OW15865   1.504   1.607   3.768
 1450SOL    HW115866   1.412   1.644   3.775
 1450SOL    HW215867   1.542   1.627   3.678
 1451SOL     OW15868   0.372   1.288   5.214
 1451SOL    HW115869   0.359   1.381   5.180
 1451SOL    HW215870   0.288   1.236   5.201
 1452SOL     OW15871   1.614   1.292   5.013
 1452SOL    HW115872   1.674   1.295   5.093
 1452SOL    HW215873   1.539   1.356   5.026
 1453SOL     OW15874   1.039   1.098   4.420
 1453SOL    HW115875   0.969   1.051   4.474
 1453SOL    HW215876   1.098   1.030   4.377
 1454SOL     OW15877   1.014   0.236   4.695
 1454SOL    HW115878   1.006   0.200   4.602
 1454SOL    HW215879   1.012   0.160   4.760
 1455SOL     OW15880   0.590   1.487   4.215
 1455SOL    HW115881   0.632   1.429   4.145
 1455SOL    HW215882   0.546   1.566   4.171
 1456SOL     OW15883   1.709   0.385   5.105
 1456SOL    HW115884   1.782   0.454   5.109
 1456SOL    HW215885   1.737   0.310   5.046
 1457SOL     OW15886   0.255   1.348   4.014
 1457SOL    HW115887   0.159   1.349   3.987
 1457SOL    HW215888   0.267   1.401   4.098
 1458SOL     OW15889   0.105   1.013   5.450
 1458SOL    HW115890   0.028   0.980   5.504
 1458SOL    HW215891   0.190   0.983   5.492
 1459SOL     OW15892   0.672   0.203   5.213
 1459SOL    HW115893   0.762   0.187   5.173
 1459SOL    HW215894   0.680   0.208   5.312
 1460SOL     OW15895   0.075   0.345   3.757
 1460SOL    HW115896  -0.017   0.317   3.728
 1460SOL    HW215897   0.106   0.422   3.701
 1461SOL     OW15898   1.440   0.856   5.122
 1461SOL    HW115899   1.383   0.908   5.059
 1461SOL    HW215900   1.536   0.868   5.098
 1462SOL     OW15901   0.072   0.166   4.042
 1462SOL    HW115902   0.055   0.249   3.988
 1462SOL    HW215903   0.162   0.129   4.020
 1463SOL     OW15904   1.183   1.335   3.843
 1463SOL    HW115905   1.084   1.324   3.845
 1463SOL    HW215906   1.217   1.350   3.936
 1464SOL     OW15907   0.613   0.842   5.155
 1464SOL    HW115908   0.669   0.923   5.138
 1464SOL    HW215909   0.672   0.762   5.158
 1465SOL     OW15910   1.493   1.767   4.683
 1465SOL    HW115911   1.526   1.831   4.614
 1465SOL    HW215912   1.559   1.761   4.758
 1466SOL     OW15913   0.716   0.565   5.432
 1466SOL    HW115914   0.735   0.630   5.506
 1466SOL    HW215915   0.776   0.485   5.441
 1467SOL     OW15916   1.450   1.220   5.357
 1467SOL    HW115917   1.441   1.210   5.456
 1467SOL    HW215918   1.546   1.213   5.331
 1468SOL     OW15919   0.390   1.741   5.284
 1468SOL    HW115920   0.299   1.782   5.282
 1468SOL    HW215921   0.383   1.647   5.316
 1469SOL     OW15922   1.674   0.883   4.978
 1469SOL    HW115923   1.647   0.794   4.941
 1469SOL    HW215924   1.675   0.951   4.905
 1470SOL     OW15925   1.225   0.325   4.173
 1470SOL    HW115926   1.290   0.251   4.162
 1470SOL    HW215927   1.245   0.375   4.257
 1471SOL     OW15928   0.594   0.745   4.376
 1471SOL    HW115929   0.644   0.830   4.357
 1471SOL    HW215930   0.506   0.747   4.328
 1472SOL     OW15931   1.777   0.342   5.366
 1472SOL    HW115932   1.760   0.373   5.272
 1472SOL    HW215933   1.693   0.305   5.404
 1473SOL     OW15934   1.730   0.934   5.241
 1473SOL    HW115935   1.768   1.025   5.256
 1473SOL    HW215936   1.722   0.917   5.142
 1474SOL     OW15937   0.859   1.374   3.740
 1474SOL    HW115938   0.813   1.389   3.828
 1474SOL    HW215939   0.903   1.459   3.710
 1475SOL     OW15940   0.661   1.790   4.677
 1475SOL    HW115941   0.615   1.878   4.664
 1475SOL    HW215942   0.760   1.802   4.670
 1476SOL     OW15943   0.859   0.956   4.585
 1476SOL    HW115944   0.913   0.887   4.633
 1476SOL    HW215945   0.827   1.025   4.651
 1477SOL     OW15946   1.083   0.984   3.811
 1477SOL    HW115947   1.060   1.037   3.729
 1477SOL    HW215948   1.164   0.928   3.792
 1478SOL     OW15949   1.861   1.569   4.575
 1478SOL    HW115950   1.790   1.557   4.505
 1478SOL    HW215951   1.862   1.490   4.635
 1479SOL     OW15952   0.221   1.314   5.568
 1479SOL    HW115953   0.156   1.241   5.547
 1479SOL    HW215954   0.225   1.328   5.666
 1480SOL     OW15955   0.079   1.240   4.377
 1480SOL    HW115956   0.078   1.193   4.465
 1480SOL    HW215957   0.161   1.212   4.326
 1481SOL     OW15958   0.672   1.391   5.348
 1481SOL    HW115959   0.594   1.341   5.386
 1481SOL    HW215960   0.669   1.486   5.379
 1482SOL     OW15961   1.824   0.192   4.951
 1482SOL    HW115962   1.820   0.102   4.995
 1482SOL    HW215963   1.827   0.181   4.852
 1483SOL     OW15964   0.428   0.424   4.244
 1483SOL    HW115965   0.458   0.352   4.182
 1483SOL    HW215966   0.389   0.384   4.327
 1484SOL     OW15967   1.705   1.487   4.828
 1484SOL    HW115968   1.612   1.462   4.801
 1484SOL    HW215969   1.731   1.437   4.910
 1485SOL     OW15970   0.317   0.547   5.004
 1485SOL    HW115971   0.355   0.488   5.076
 1485SOL    HW215972   0.357   0.521   4.916
 1486SOL     OW15973   0.812   1.586   4.411
 1486SOL    HW115974   0.844   1.596   4.317
 1486SOL    HW215975   0.733   1.524   4.413
 1487SOL     OW15976   1.424   0.214   4.836
 1487SOL    HW115977   1.476   0.149   4.891
 1487SOL    HW215978   1.375   0.277   4.897
 1488SOL     OW15979   1.001   0.034   4.878
 1488SOL    HW115980   0.938  -0.038   4.847
 1488SOL    HW215981   1.094  -0.002   4.878
 1489SOL     OW15982   0.770   1.330   4.025
 1489SOL    HW115983   0.724   1.243   4.042
 1489SOL    HW215984   0.861   1.327   4.066
 1490SOL     OW15985   0.618   1.567   5.008
 1490SOL    HW115986   0.613   1.649   5.065
 1490SOL    HW215987   0.707   1.564   4.963
 1491SOL     OW15988   1.352   0.052   3.892
 1491SOL    HW115989   1.387   0.011   3.808
 1491SOL    HW215990   1.262   0.014   3.912
 1492SOL     OW15991   1.300   0.453   4.415
 1492SOL    HW115992   1.241   0.533   4.419
 1492SOL    HW215993   1.315   0.418   4.508
 1493SOL     OW15994   1.593   0.221   4.606
 1493SOL    HW115995   1.509   0.220   4.660
 1493SOL    HW215996   1.595   0.304   4.550
 1494SOL     OW15997   0.039   1.077   4.024
 1494SOL    HW115998   0.138   1.066   4.015
 1494SOL    HW215999  -0.001   0.991   4.056
 1495SOL     OW16000   0.875   1.646   4.061
 1495SOL    HW116001   0.798   1.611   4.007
 1495SOL    HW216002   0.843   1.717   4.123
 1496SOL     OW16003   0.230   0.628   5.699
 1496SOL    HW116004   0.137   0.626   5.736
 1496SOL    HW216005   0.231   0.589   5.607
 1497SOL     OW16006   0.225   0.275   6.582
 1497SOL    HW116007   0.260   0.258   6.674
 1497SOL    HW216008   0.137   0.230   6.570
 1498SOL     OW16009   0.019   0.368   6.233
 1498SOL    HW116010  -0.063   0.411   6.272
 1498SOL    HW216011  -0.009   0.295   6.170
 1499SOL     OW16012   0.569   1.275   6.751
 1499SOL    HW116013   0.476   1.268   6.714
 1499SOL    HW216014   0.580   1.364   6.795
 1500SOL     OW16015   1.555   1.511   6.289
 1500SOL    HW116016   1.498   1.495   6.370
 1500SOL    HW216017   1.496   1.521   6.209
 1501SOL     OW16018   1.135   0.703   6.303
 1501SOL    HW116019   1.192   0.781   6.278
 1501SOL    HW216020   1.075   0.729   6.379
 1502SOL     OW16021   1.755   0.607   5.817
 1502SOL    HW116022   1.743   0.594   5.718
 1502SOL    HW216023   1.725   0.526   5.866
 1503SOL     OW16024   0.768   1.144   6.609
 1503SOL    HW116025   0.690   1.161   6.669
 1503SOL    HW216026   0.802   1.231   6.573
 1504SOL     OW16027   0.850   0.798   7.409
 1504SOL    HW116028   0.846   0.874   7.474
 1504SOL    HW216029   0.872   0.834   7.318
 1505SOL     OW16030   0.685   1.012   6.251
 1505SOL    HW116031   0.754   0.996   6.321
 1505SOL    HW216032   0.612   1.069   6.289
 1506SOL     OW16033   0.686   1.161   7.389
 1506SOL    HW116034   0.746   1.240   7.403
 1506SOL    HW216035   0.600   1.192   7.348
 1507SOL     OW16036   0.335   1.435   6.647
 1507SOL    HW116037   0.257   1.404   6.594
 1507SOL    HW216038   0.393   1.493   6.590
 1508SOL     OW16039   1.460   1.505   6.925
 1508SOL    HW116040   1.484   1.599   6.951
 1508SOL    HW216041   1.444   1.451   7.007
 1509SOL     OW16042   0.438   0.392   7.085
 1509SOL    HW116043   0.520   0.336   7.094
 1509SOL    HW216044   0.357   0.334   7.089
 1510SOL     OW16045   1.603   0.447   6.323
 1510SOL    HW116046   1.529   0.493   6.273
 1510SOL    HW216047   1.654   0.515   6.376
 1511SOL     OW16048   0.231   1.713   6.069
 1511SOL    HW116049   0.265   1.790   6.123
 1511SOL    HW216050   0.275   1.713   5.979
 1512SOL     OW16051   1.127   1.341   7.276
 1512SOL    HW116052   1.174   1.341   7.364
 1512SOL    HW216053   1.079   1.254   7.265
 1513SOL     OW16054   0.230   1.434   6.124
 1513SOL    HW116055   0.204   1.530   6.124
 1513SOL    HW216056   0.159   1.380   6.169
 1514SOL     OW16057   0.240   1.091   6.472
 1514SOL    HW116058   0.254   1.007   6.524
 1514SOL    HW216059   0.185   1.155   6.527
 1515SOL     OW16060   0.620   1.786   7.025
 1515SOL    HW116061   0.528   1.769   7.060
 1515SOL    HW216062   0.648   1.878   7.051
 1516SOL     OW16063   0.606   0.964   5.709
 1516SOL    HW116064   0.613   1.048   5.655
 1516SOL    HW216065   0.652   0.977   5.797
 1517SOL     OW16066   1.594   0.114   7.066
 1517SOL    HW116067   1.576   0.181   6.994
 1517SOL    HW216068   1.591   0.160   7.155
 1518SOL     OW16069   0.122   0.643   6.149
 1518SOL    HW116070   0.077   0.555   6.166
 1518SOL    HW216071   0.121   0.697   6.233
 1519SOL     OW16072   1.842   1.767   5.945
 1519SOL    HW116073   1.896   1.738   6.025
 1519SOL    HW216074   1.872   1.857   5.916
 1520SOL     OW16075   0.027   1.596   5.703
 1520SOL    HW116076   0.008   1.500   5.724
 1520SOL    HW216077  -0.006   1.654   5.778
 1521SOL     OW16078   1.689   0.922   6.198
 1521SOL    HW116079   1.784   0.893   6.206
 1521SOL    HW216080   1.681   0.987   6.123
 1522SOL     OW16081   1.641   1.108   6.018
 1522SOL    HW116082   1.727   1.110   5.966
 1522SOL    HW216083   1.655   1.155   6.106
 1523SOL     OW16084   0.113   0.737   7.183
 1523SOL    HW116085   0.201   0.724   7.228
 1523SOL    HW216086   0.100   0.834   7.161
 1524SOL     OW16087   0.613   1.365   6.312
 1524SOL    HW116088   0.564   1.278   6.321
 1524SOL    HW216089   0.590   1.408   6.225
 1525SOL     OW16090   1.293   1.228   7.009
 1525SOL    HW116091   1.330   1.155   6.951
 1525SOL    HW216092   1.345   1.233   7.094
 1526SOL     OW16093   0.809   0.004   6.088
 1526SOL    HW116094   0.849   0.095   6.079
 1526SOL    HW216095   0.709   0.012   6.094
 1527SOL     OW16096   0.197   0.976   6.850
 1527SOL    HW116097   0.286   0.931   6.836
 1527SOL    HW216098   0.124   0.911   6.831
 1528SOL     OW16099   1.525   0.999   5.776
 1528SOL    HW116100   1.462   0.923   5.789
 1528SOL    HW216101   1.573   1.017   5.862
 1529SOL     OW16102   1.187   1.792   7.202
 1529SOL    HW116103   1.211   1.852   7.126
 1529SOL    HW216104   1.194   1.697   7.172
 1530SOL     OW16105   0.317   0.251   7.387
 1530SOL    HW116106   0.388   0.322   7.393
 1530SOL    HW216107   0.229   0.290   7.415
 1531SOL     OW16108   1.466   1.417   6.539
 1531SOL    HW116109   1.407   1.423   6.619
 1531SOL    HW216110   1.451   1.329   6.493
 1532SOL     OW16111   1.667   1.714   6.158
 1532SOL    HW116112   1.626   1.691   6.070
 1532SOL    HW216113   1.649   1.640   6.223
 1533SOL     OW16114   0.598   0.729   5.856
 1533SOL    HW116115   0.622   0.798   5.788
 1533SOL    HW216116   0.520   0.762   5.910
 1534SOL     OW16117   1.281   0.345   6.530
 1534SOL    HW116118   1.195   0.295   6.517
 1534SOL    HW216119   1.343   0.291   6.586
 1535SOL     OW16120   1.576   1.662   5.893
 1535SOL    HW116121   1.665   1.708   5.896
 1535SOL    HW216122   1.555   1.638   5.798
 1536SOL     OW16123   0.807   0.605   7.051
 1536SOL    HW116124   0.760   0.602   7.140
 1536SOL    HW216125   0.756   0.550   6.985
 1537SOL     OW16126   1.394   0.469   7.260
 1537SOL    HW116127   1.374   0.512   7.348
 1537SOL    HW216128   1.472   0.407   7.269
 1538SOL     OW16129   0.973   0.890   7.158
 1538SOL    HW116130   1.019   0.806   7.129
 1538SOL    HW216131   0.917   0.924   7.083
 1539SOL     OW16132   0.991   0.410   6.828
 1539SOL    HW116133   0.914   0.444   6.882
 1539SOL    HW216134   0.957   0.359   6.749
 1540SOL     OW16135   1.041   0.701   6.015
 1540SOL    HW116136   1.067   0.697   6.111
 1540SOL    HW216137   0.956   0.650   6.001
 1541SOL     OW16138   0.076   0.811   6.375
 1541SOL    HW116139   0.175   0.799   6.384
 1541SOL    HW216140   0.052   0.906   6.396
 1542SOL     OW16141   0.130   1.821   7.157
 1542SOL    HW116142   0.120   1.806   7.256
 1542SOL    HW216143   0.044   1.857   7.121
 1543SOL     OW16144   0.865   0.348   5.781
 1543SOL    HW116145   0.924   0.411   5.732
 1543SOL    HW216146   0.884   0.254   5.752
 1544SOL     OW16147   1.719   0.585   7.417
 1544SOL    HW116148   1.693   0.674   7.381
 1544SOL    HW216149   1.717   0.517   7.344
 1545SOL     OW16150   1.362   1.144   6.131
 1545SOL    HW116151   1.445   1.115   6.083
 1545SOL    HW216152   1.313   1.211   6.075
 1546SOL     OW16153   0.550   0.196   6.471
 1546SOL    HW116154   0.545   0.191   6.571
 1546SOL    HW216155   0.552   0.292   6.442
 1547SOL     OW16156   1.008   1.456   6.063
 1547SOL    HW116157   0.962   1.528   6.011
 1547SOL    HW216158   1.004   1.476   6.161
 1548SOL     OW16159   0.351   1.801   6.439
 1548SOL    HW116160   0.401   1.715   6.445
 1548SOL    HW216161   0.416   1.878   6.436
 1549SOL     OW16162   1.795   1.066   6.459
 1549SOL    HW116163   1.733   1.051   6.383
 1549SOL    HW216164   1.743   1.077   6.544
 1550SOL     OW16165   1.227   1.550   7.092
 1550SOL    HW116166   1.233   1.473   7.156
 1550SOL    HW216167   1.175   1.524   7.012
 1551SOL     OW16168   0.321   0.943   5.828
 1551SOL    HW116169   0.403   0.982   5.786
 1551SOL    HW216170   0.294   0.861   5.779
 1552SOL     OW16171   1.458   0.735   6.314
 1552SOL    HW116172   1.453   0.670   6.389
 1552SOL    HW216173   1.538   0.794   6.327
 1553SOL     OW16174   0.461   1.266   7.313
 1553SOL    HW116175   0.411   1.267   7.227
 1553SOL    HW216176   0.398   1.248   7.389
 1554SOL     OW16177   1.111   1.776   5.823
 1554SOL    HW116178   1.051   1.714   5.873
 1554SOL    HW216179   1.142   1.732   5.738
 1555SOL     OW16180   0.202   0.285   7.084
 1555SOL    HW116181   0.122   0.345   7.071
 1555SOL    HW216182   0.192   0.236   7.170
 1556SOL     OW16183   1.632   1.377   5.667
 1556SOL    HW116184   1.600   1.471   5.657
 1556SOL    HW216185   1.556   1.314   5.655
 1557SOL     OW16186   0.464   1.743   5.909
 1557SOL    HW116187   0.497   1.782   5.995
 1557SOL    HW216188   0.540   1.736   5.844
 1558SOL     OW16189   1.400   0.107   6.012
 1558SOL    HW116190   1.376   0.070   5.922
 1558SOL    HW216191   1.499   0.123   6.016
 1559SOL     OW16192   0.249   1.785   6.827
 1559SOL    HW116193   0.306   1.720   6.877
 1559SOL    HW216194   0.233   1.752   6.734
 1560SOL     OW16195   0.940   1.698   6.490
 1560SOL    HW116196   1.020   1.641   6.511
 1560SOL    HW216197   0.891   1.658   6.413
 1561SOL     OW16198   0.382   0.700   6.066
 1561SOL    HW116199   0.427   0.610   6.063
 1561SOL    HW216200   0.288   0.689   6.099
 1562SOL     OW16201   1.547   0.222   7.315
 1562SOL    HW116202   1.542   0.259   7.407
 1562SOL    HW216203   1.475   0.153   7.303
 1563SOL     OW16204   0.614   0.122   5.703
 1563SOL    HW116205   0.712   0.100   5.710
 1563SOL    HW216206   0.583   0.105   5.610
 1564SOL     OW16207   0.781   0.264   7.335
 1564SOL    HW116208   0.848   0.203   7.378
 1564SOL    HW216209   0.708   0.283   7.400
 1565SOL     OW16210   0.888   1.514   6.781
 1565SOL    HW116211   0.865   1.489   6.687
 1565SOL    HW216212   0.949   1.445   6.820
 1566SOL     OW16213   1.351   0.590   7.019
 1566SOL    HW116214   1.379   0.547   7.104
 1566SOL    HW216215   1.376   0.686   7.020
 1567SOL     OW16216   0.803   1.402   6.510
 1567SOL    HW116217   0.893   1.416   6.468
 1567SOL    HW216218   0.732   1.404   6.439
 1568SOL     OW16219   0.922   0.503   6.485
 1568SOL    HW116220   0.897   0.494   6.389
 1568SOL    HW216221   0.970   0.421   6.516
 1569SOL     OW16222   0.539   0.064   6.098
 1569SOL    HW116223   0.458   0.065   6.156
 1569SOL    HW216224   0.542   0.147   6.043
 1570SOL     OW16225   1.434   1.188   5.627
 1570SOL    HW116226   1.466   1.112   5.684
 1570SOL    HW216227   1.342   1.215   5.657
 1571SOL     OW16228   0.297   0.035   5.757
 1571SOL    HW116229   0.346   0.119   5.736
 1571SOL    HW216230   0.359  -0.030   5.802
 1572SOL     OW16231   0.935   0.236   6.066
 1572SOL    HW116232   0.887   0.277   5.988
 1572SOL    HW216233   1.034   0.234   6.047
 1573SOL     OW16234   1.076   0.683   7.050
 1573SOL    HW116235   0.996   0.622   7.053
 1573SOL    HW216236   1.157   0.630   7.026
 1574SOL     OW16237   1.227   1.570   6.379
 1574SOL    HW116238   1.248   1.644   6.314
 1574SOL    HW216239   1.295   1.570   6.452
 1575SOL     OW16240   0.459   1.152   6.327
 1575SOL    HW116241   0.388   1.125   6.392
 1575SOL    HW216242   0.433   1.124   6.234
 1576SOL     OW16243   1.271   1.797   6.177
 1576SOL    HW116244   1.315   1.861   6.113
 1576SOL    HW216245   1.221   1.849   6.247
 1577SOL     OW16246   1.032   0.549   5.602
 1577SOL    HW116247   0.991   0.631   5.563
 1577SOL    HW216248   1.096   0.575   5.675
 1578SOL     OW16249   0.078   0.556   6.972
 1578SOL    HW116250   0.170   0.555   6.931
 1578SOL    HW216251   0.072   0.630   7.039
 1579SOL     OW16252   0.561   0.222   6.733
 1579SOL    HW116253   0.599   0.138   6.770
 1579SOL    HW216254   0.473   0.241   6.777
 1580SOL     OW16255   0.866   0.454   6.228
 1580SOL    HW116256   0.834   0.526   6.166
 1580SOL    HW216257   0.890   0.373   6.175
 1581SOL     OW16258   1.017   0.039   6.339
 1581SOL    HW116259   0.945   0.044   6.270
 1581SOL    HW216260   0.993  -0.030   6.408
 1582SOL     OW16261   1.429   1.173   6.453
 1582SOL    HW116262   1.374   1.089   6.446
 1582SOL    HW216263   1.455   1.202   6.361
 1583SOL     OW16264   1.466   0.590   6.578
 1583SOL    HW116265   1.436   0.495   6.585
 1583SOL    HW216266   1.539   0.606   6.644
 1584SOL     OW16267   1.857   0.833   5.963
 1584SOL    HW116268   1.899   0.769   6.027
 1584SOL    HW216269   1.819   0.782   5.885
 1585SOL     OW16270   0.488   1.385   5.760
 1585SOL    HW116271   0.401   1.370   5.807
 1585SOL    HW216272   0.471   1.411   5.665
 1586SOL     OW16273   1.664   1.280   6.243
 1586SOL    HW116274   1.763   1.288   6.257
 1586SOL    HW216275   1.619   1.364   6.274
 1587SOL     OW16276   1.390   0.575   5.664
 1587SOL    HW116277   1.336   0.554   5.745
 1587SOL    HW216278   1.481   0.534   5.673
 1588SOL     OW16279   0.527   0.256   5.914
 1588SOL    HW116280   0.554   0.197   5.839
 1588SOL    HW216281   0.527   0.351   5.883
 1589SOL     OW16282   1.754   1.223   7.174
 1589SOL    HW116283   1.845   1.184   7.161
 1589SOL    HW216284   1.762   1.319   7.198
 1590SOL     OW16285   1.064   1.347   6.926
 1590SOL    HW116286   0.984   1.324   6.981
 1590SOL    HW216287   1.147   1.321   6.975
 1591SOL     OW16288   1.592   1.629   7.211
 1591SOL    HW116289   1.619   1.663   7.121
 1591SOL    HW216290   1.671   1.591   7.257
 1592SOL     OW16291   1.111   1.195   6.686
 1592SOL    HW116292   1.071   1.239   6.767
 1592SOL    HW216293   1.070   1.232   6.603
 1593SOL     OW16294   1.638   1.099   6.665
 1593SOL    HW116295   1.643   1.180   6.724
 1593SOL    HW216296   1.552   1.101   6.614
 1594SOL     OW16297   0.915   0.089   6.988
 1594SOL    HW116298   0.940   0.069   6.893
 1594SOL    HW216299   0.987   0.145   7.030
 1595SOL     OW16300   0.980   1.116   7.305
 1595SOL    HW116301   0.881   1.122   7.315
 1595SOL    HW216302   1.003   1.036   7.249
 1596SOL     OW16303   0.705   1.050   5.954
 1596SOL    HW116304   0.691   1.057   6.053
 1596SOL    HW216305   0.789   0.999   5.936
 1597SOL     OW16306   0.410   0.813   6.837
 1597SOL    HW116307   0.496   0.825   6.887
 1597SOL    HW216308   0.368   0.726   6.864
 1598SOL     OW16309   1.274   0.386   6.848
 1598SOL    HW116310   1.295   0.460   6.912
 1598SOL    HW216311   1.185   0.403   6.805
 1599SOL     OW16312   0.064   1.564   6.917
 1599SOL    HW116313   0.018   1.646   6.883
 1599SOL    HW216314   0.162   1.583   6.926
 1600SOL     OW16315   0.367   1.100   6.087
 1600SOL    HW116316   0.360   1.183   6.031
 1600SOL    HW216317   0.371   1.020   6.027
 1601SOL     OW16318   0.566   0.537   6.451
 1601SOL    HW116319   0.578   0.603   6.377
 1601SOL    HW216320   0.612   0.571   6.534
 1602SOL     OW16321   1.252   1.348   5.974
 1602SOL    HW116322   1.302   1.425   6.014
 1602SOL    HW216323   1.157   1.350   6.006
 1603SOL     OW16324   1.272   1.445   6.728
 1603SOL    HW116325   1.319   1.458   6.815
 1603SOL    HW216326   1.206   1.371   6.737
 1604SOL     OW16327   1.582   0.639   6.058
 1604SOL    HW116328   1.551   0.700   6.131
 1604SOL    HW216329   1.632   0.691   5.989
 1605SOL     OW16330   0.354   1.510   6.915
 1605SOL    HW116331   0.333   1.466   6.828
 1605SOL    HW216332   0.451   1.536   6.918
 1606SOL     OW16333   0.402   0.751   7.184
 1606SOL    HW116334   0.470   0.806   7.137
 1606SOL    HW216335   0.442   0.663   7.211
 1607SOL     OW16336   1.587   0.779   7.256
 1607SOL    HW116337   1.495   0.817   7.251
 1607SOL    HW216338   1.647   0.826   7.191
 1608SOL     OW16339   1.013   0.105   7.356
 1608SOL    HW116340   1.019   0.190   7.304
 1608SOL    HW216341   1.045   0.029   7.299
 1609SOL     OW16342   0.504   0.050   7.326
 1609SOL    HW116343   0.462  -0.007   7.256
 1609SOL    HW216344   0.438   0.119   7.358
 1610SOL     OW16345   0.573   0.870   6.615
 1610SOL    HW116346   0.617   0.959   6.606
 1610SOL    HW216347   0.510   0.870   6.692
 1611SOL     OW16348   1.360   0.862   6.631
 1611SOL    HW116349   1.285   0.862   6.565
 1611SOL    HW216350   1.397   0.770   6.640
 1612SOL     OW16351   1.209   0.525   5.861
 1612SOL    HW116352   1.222   0.441   5.915
 1612SOL    HW216353   1.180   0.599   5.921
 1613SOL     OW16354   0.307   0.213   6.817
 1613SOL    HW116355   0.284   0.250   6.907
 1613SOL    HW216356   0.277   0.118   6.811
 1614SOL     OW16357   0.037   1.310   6.868
 1614SOL    HW116358   0.090   1.261   6.936
 1614SOL    HW216359   0.059   1.408   6.873
 1615SOL     OW16360   0.732   0.634   6.650
 1615SOL    HW116361   0.791   0.608   6.574
 1615SOL    HW216362   0.704   0.730   6.639
 1616SOL     OW16363   1.728   0.935   7.440
 1616SOL    HW116364   1.682   0.928   7.351
 1616SOL    HW216365   1.666   0.979   7.506
 1617SOL     OW16366   0.307   0.063   6.204
 1617SOL    HW116367   0.296   0.157   6.237
 1617SOL    HW216368   0.302   0.000   6.281
 1618SOL     OW16369   1.622   0.367   5.960
 1618SOL    HW116370   1.624   0.291   6.024
 1618SOL    HW216371   1.574   0.444   6.000
 1619SOL     OW16372   1.023   0.766   6.552
 1619SOL    HW116373   1.038   0.787   6.648
 1619SOL    HW216374   0.993   0.671   6.543
 1620SOL     OW16375   0.980   1.573   7.286
 1620SOL    HW116376   0.960   1.617   7.198
 1620SOL    HW216377   1.019   1.482   7.270
 1621SOL     OW16378   1.859   1.518   7.191
 1621SOL    HW116379   1.873   1.545   7.096
 1621SOL    HW216380   1.942   1.540   7.244
 1622SOL     OW16381   0.350   0.898   7.390
 1622SOL    HW116382   0.426   0.942   7.438
 1622SOL    HW216383   0.385   0.851   7.308
 1623SOL     OW16384   1.540   0.274   5.711
 1623SOL    HW116385   1.479   0.199   5.734
 1623SOL    HW216386   1.562   0.326   5.794
 1624SOL     OW16387   1.303   0.838   5.628
 1624SOL    HW116388   1.337   0.745   5.643
 1624SOL    HW216389   1.321   0.865   5.533
 1625SOL     OW16390   1.068   1.333   6.435
 1625SOL    HW116391   1.075   1.249   6.380
 1625SOL    HW216392   1.130   1.402   6.399
 1626SOL     OW16393   0.319   0.810   6.535
 1626SOL    HW116394   0.412   0.846   6.540
 1626SOL    HW216395   0.313   0.725   6.587
 1627SOL     OW16396   0.339   0.509   6.592
 1627SOL    HW116397   0.287   0.426   6.575
 1627SOL    HW216398   0.416   0.514   6.528
 1628SOL     OW16399   1.138   0.380   7.264
 1628SOL    HW116400   1.093   0.443   7.328
 1628SOL    HW216401   1.231   0.411   7.247
 1629SOL     OW16402   1.160   0.207   7.063
 1629SOL    HW116403   1.160   0.271   7.140
 1629SOL    HW216404   1.188   0.255   6.980
 1630SOL     OW16405   0.008   1.326   5.786
 1630SOL    HW116406  -0.085   1.347   5.755
 1630SOL    HW216407   0.018   1.227   5.799
 1631SOL     OW16408   0.088   1.801   6.513
 1631SOL    HW116409   0.046   1.715   6.486
 1631SOL    HW216410   0.182   1.804   6.479
 1632SOL     OW16411   0.504   1.568   6.496
 1632SOL    HW116412   0.570   1.642   6.505
 1632SOL    HW216413   0.548   1.489   6.454
 1633SOL     OW16414   1.002   0.796   6.824
 1633SOL    HW116415   1.043   0.764   6.910
 1633SOL    HW216416   0.906   0.769   6.821
 1634SOL     OW16417   0.040   0.544   6.700
 1634SOL    HW116418   0.125   0.511   6.659
 1634SOL    HW216419   0.053   0.559   6.798
 1635SOL     OW16420   0.189   0.520   7.308
 1635SOL    HW116421   0.248   0.480   7.238
 1635SOL    HW216422   0.131   0.591   7.267
 1636SOL     OW16423   1.369   0.950   7.246
 1636SOL    HW116424   1.408   1.039   7.266
 1636SOL    HW216425   1.379   0.930   7.149
 1637SOL     OW16426   0.815   0.572   5.911
 1637SOL    HW116427   0.822   0.483   5.865
 1637SOL    HW216428   0.721   0.606   5.903
 1638SOL     OW16429   1.657   0.604   6.792
 1638SOL    HW116430   1.619   0.535   6.854
 1638SOL    HW216431   1.739   0.568   6.748
 1639SOL     OW16432   0.252   1.564   7.330
 1639SOL    HW116433   0.222   1.621   7.406
 1639SOL    HW216434   0.245   1.467   7.356
 1640SOL     OW16435   0.671   0.464   6.855
 1640SOL    HW116436   0.637   0.375   6.825
 1640SOL    HW216437   0.697   0.518   6.775
 1641SOL     OW16438   0.930   1.678   7.051
 1641SOL    HW116439   0.906   1.660   6.956
 1641SOL    HW216440   0.960   1.772   7.061
 1642SOL     OW16441   0.473   0.500   5.777
 1642SOL    HW116442   0.534   0.580   5.781
 1642SOL    HW216443   0.378   0.531   5.784
 1643SOL     OW16444   0.159   1.137   7.052
 1643SOL    HW116445   0.181   1.076   7.128
 1643SOL    HW216446   0.169   1.088   6.966
 1644SOL     OW16447   1.347   1.059   6.820
 1644SOL    HW116448   1.371   0.996   6.746
 1644SOL    HW216449   1.257   1.099   6.802
 1645SOL     OW16450   1.302   0.855   5.895
 1645SOL    HW116451   1.216   0.824   5.937
 1645SOL    HW216452   1.298   0.841   5.796
 1646SOL     OW16453   1.759   1.747   6.740
 1646SOL    HW116454   1.820   1.777   6.667
 1646SOL    HW216455   1.721   1.658   6.718
 1647SOL     OW16456   1.252   1.731   6.714
 1647SOL    HW116457   1.336   1.736   6.660
 1647SOL    HW216458   1.229   1.635   6.732
 1648SOL     OW16459   0.083   1.258   6.608
 1648SOL    HW116460   0.078   1.257   6.708
 1648SOL    HW216461   0.000   1.217   6.570
 1649SOL     OW16462   0.688   1.662   7.302
 1649SOL    HW116463   0.632   1.743   7.311
 1649SOL    HW216464   0.740   1.666   7.216
 1650SOL     OW16465   1.726   0.135   6.109
 1650SOL    HW116466   1.799   0.118   6.042
 1650SOL    HW216467   1.695   0.048   6.147
 1651SOL     OW16468   1.388   1.573   6.063
 1651SOL    HW116469   1.455   1.585   5.989
 1651SOL    HW216470   1.348   1.662   6.086
 1652SOL     OW16471   0.130   1.794   7.437
 1652SOL    HW116472   0.089   1.720   7.490
 1652SOL    HW216473   0.194   1.845   7.495
 1653SOL     OW16474   1.280   0.927   6.258
 1653SOL    HW116475   1.340   0.846   6.260
 1653SOL    HW216476   1.320   0.996   6.198
 1654SOL     OW16477   0.830   1.273   7.008
 1654SOL    HW116478   0.825   1.306   7.103
 1654SOL    HW216479   0.744   1.292   6.962
 1655SOL     OW16480   0.672   1.616   5.740
 1655SOL    HW116481   0.681   1.626   5.641
 1655SOL    HW216482   0.632   1.527   5.761
 1656SOL     OW16483   1.650   1.720   6.980
 1656SOL    HW116484   1.703   1.730   6.896
 1656SOL    HW216485   1.623   1.810   7.014
 1657SOL     OW16486   1.841   0.175   6.549
 1657SOL    HW116487   1.880   0.090   6.513
 1657SOL    HW216488   1.743   0.177   6.530
 1658SOL     OW16489   0.263   0.326   6.306
 1658SOL    HW116490   0.184   0.377   6.272
 1658SOL    HW216491   0.254   0.311   6.404
 1659SOL     OW16492   1.194   1.612   5.617
 1659SOL    HW116493   1.200   1.519   5.654
 1659SOL    HW216494   1.135   1.612   5.537
 1660SOL     OW16495   0.822   1.002   6.958
 1660SOL    HW116496   0.862   1.001   6.866
 1660SOL    HW216497   0.832   1.094   6.998
 1661SOL     OW16498   0.916   0.910   5.877
 1661SOL    HW116499   0.979   0.948   5.809
 1661SOL    HW216500   0.956   0.827   5.916
 1662SOL     OW16501   1.504   1.607   5.630
 1662SOL    HW116502   1.412   1.644   5.637
 1662SOL    HW216503   1.542   1.627   5.540
 1663SOL     OW16504   0.372   1.288   7.076
 1663SOL    HW116505   0.359   1.381   7.042
 1663SOL    HW216506   0.288   1.236   7.063
 1664SOL     OW16507   1.614   1.292   6.875
 1664SOL    HW116508   1.674   1.295   6.955
 1664SOL    HW216509   1.539   1.356   6.888
 1665SOL     OW16510   1.039   1.098   6.282
 1665SOL    HW116511   0.969   1.051   6.336
 1665SOL    HW216512   1.098   1.030   6.239
 1666SOL     OW16513   1.014   0.236   6.557
 1666SOL    HW116514   1.006   0.200   6.464
 1666SOL    HW216515   1.012   0.160   6.622
 1667SOL     OW16516   0.590   1.487   6.077
 1667SOL    HW116517   0.632   1.429   6.007
 1667SOL    HW216518   0.546   1.566   6.033
 1668SOL     OW16519   1.709   0.385   6.967
 1668SOL    HW116520   1.782   0.454   6.971
 1668SOL    HW216521   1.737   0.310   6.908
 1669SOL     OW16522   0.255   1.348   5.876
 1669SOL    HW116523   0.159   1.349   5.849
 1669SOL    HW216524   0.267   1.401   5.960
 1670SOL     OW16525   0.105   1.013   7.312
 1670SOL    HW116526   0.028   0.980   7.366
 1670SOL    HW216527   0.190   0.983   7.354
 1671SOL     OW16528   0.672   0.203   7.075
 1671SOL    HW116529   0.762   0.187   7.035
 1671SOL    HW216530   0.680   0.208   7.174
 1672SOL     OW16531   0.075   0.345   5.619
 1672SOL    HW116532  -0.017   0.317   5.590
 1672SOL    HW216533   0.106   0.422   5.563
 1673SOL     OW16534   1.440   0.856   6.984
 1673SOL    HW116535   1.383   0.908   6.921
 1673SOL    HW216536   1.536   0.868   6.960
 1674SOL     OW16537   0.072   0.166   5.904
 1674SOL    HW116538   0.055   0.249   5.850
 1674SOL    HW216539   0.162   0.129   5.882
 1675SOL     OW16540   1.183   1.335   5.705
 1675SOL    HW116541   1.084   1.324   5.707
 1675SOL    HW216542   1.217   1.350   5.798
 1676SOL     OW16543   0.613   0.842   7.017
 1676SOL    HW116544   0.669   0.923   7.000
 1676SOL    HW216545   0.672   0.762   7.020
 1677SOL     OW16546   1.493   1.767   6.545
 1677SOL    HW116547   1.526   1.831   6.476
 1677SOL    HW216548   1.559   1.761   6.620
 1678SOL     OW16549   0.716   0.565   7.294
 1678SOL    HW116550   0.735   0.630   7.368
 1678SOL    HW216551   0.776   0.485   7.303
 1679SOL     OW16552   1.450   1.220   7.219
 1679SOL    HW116553   1.441   1.210   7.318
 1679SOL    HW216554   1.546   1.213   7.193
 1680SOL     OW16555   0.390   1.741   7.146
 1680SOL    HW116556   0.299   1.782   7.144
 1680SOL    HW216557   0.383   1.647   7.178
 1681SOL     OW16558   1.674   0.883   6.840
 1681SOL    HW116559   1.647   0.794   6.803
 1681SOL    HW216560   1.675   0.951   6.767
 1682SOL     OW16561   1.225   0.325   6.035
 1682SOL    HW116562   1.290   0.251   6.024
 1682SOL    HW216563   1.245   0.375   6.119
 1683SOL     OW16564   0.594   0.745   6.238
 1683SOL    HW116565   0.644   0.830   6.219
 1683SOL    HW216566   0.506   0.747   6.190
 1684SOL     OW16567   1.777   0.342   7.228
 1684SOL    HW116568   1.760   0.373   7.134
 1684SOL    HW216569   1.693   0.305   7.266
 1685SOL     OW16570   1.730   0.934   7.103
 1685SOL    HW116571   1.768   1.025   7.118
 1685SOL    HW216572   1.722   0.917   7.004
 1686SOL     OW16573   0.859   1.374   5.602
 1686SOL    HW116574   0.813   1.389   5.690
 1686SOL    HW216575   0.903   1.459   5.572
 1687SOL     OW16576   0.661   1.790   6.539
 1687SOL    HW116577   0.615   1.878   6.526
 1687SOL    HW216578   0.760   1.802   6.532
 1688SOL     OW16579   0.859   0.956   6.447
 1688SOL    HW116580   0.913   0.887   6.495
 1688SOL    HW216581   0.827   1.025   6.513
 1689SOL     OW16582   1.083   0.984   5.673
 1689SOL    HW116583   1.060   1.037   5.591
 1689SOL    HW216584   1.164   0.928   5.654
 1690SOL     OW16585   1.861   1.569   6.437
 1690SOL    HW116586   1.790   1.557   6.367
 1690SOL    HW216587   1.862   1.490   6.497
 1691SOL     OW16588   0.221   1.314   7.430
 1691SOL    HW116589   0.156   1.241   7.409
 1691SOL    HW216590   0.225   1.328   7.528
 1692SOL     OW16591   0.079   1.240   6.239
 1692SOL    HW116592   0.078   1.193   6.327
 1692SOL    HW216593   0.161   1.212   6.188
 1693SOL     OW16594   0.672   1.391   7.210
 1693SOL    HW116595   0.594   1.341   7.248
 1693SOL    HW216596   0.669   1.486   7.241
 1694SOL     OW16597   1.824   0.192   6.813
 1694SOL    HW116598   1.820   0.102   6.857
 1694SOL    HW216599   1.827   0.181   6.714
 1695SOL     OW16600   0.428   0.424   6.106
 1695SOL    HW116601   0.458   0.352   6.044
 1695SOL    HW216602   0.389   0.384   6.189
 1696SOL     OW16603   1.705   1.487   6.690
 1696SOL    HW116604   1.612   1.462   6.663
 1696SOL    HW216605   1.731   1.437   6.772
 1697SOL     OW16606   0.317   0.547   6.866
 1697SOL    HW116607   0.355   0.488   6.938
 1697SOL    HW216608   0.357   0.521   6.778
 1698SOL     OW16609   0.812   1.586   6.273
 1698SOL    HW116610   0.844   1.596   6.179
 1698SOL    HW216611   0.733   1.524   6.275
 1699SOL     OW16612   1.424   0.214   6.698
 1699SOL    HW116613   1.476   0.149   6.753
 1699SOL    HW216614   1.375   0.277   6.759
 1700SOL     OW16615   1.001   0.034   6.740
 1700SOL    HW116616   0.938  -0.038   6.709
 1700SOL    HW216617   1.094  -0.002   6.740
 1701SOL     OW16618   0.770   1.330   5.887
 1701SOL    HW116619   0.724   1.243   5.904
 1701SOL    HW216620   0.861   1.327   5.928
 1702SOL     OW16621   0.618   1.567   6.870
 1702SOL    HW116622   0.613   1.649   6.927
 1702SOL    HW216623   0.707   1.564   6.825
 1703SOL     OW16624   1.352   0.052   5.754
 1703SOL    HW116625   1.387   0.011   5.670
 1703SOL    HW216626   1.262   0.014   5.774
 1704SOL     OW16627   1.300   0.453   6.277
 1704SOL    HW116628   1.241   0.533   6.281
 1704SOL    HW216629   1.315   0.418   6.370
 1705SOL     OW16630   1.593   0.221   6.468
 1705SOL    HW116631   1.509   0.220   6.522
 1705SOL    HW216632   1.595   0.304   6.412
 1706SOL     OW16633   0.039   1.077   5.886
 1706SOL    HW116634   0.138   1.066   5.877
 1706SOL    HW216635  -0.001   0.991   5.918
 1707SOL     OW16636   0.875   1.646   5.923
 1707SOL    HW116637   0.798   1.611   5.869
 1707SOL    HW216638   0.843   1.717   5.985
 1708SOL     OW16639   0.230   0.628   7.561
 1708SOL    HW116640   0.137   0.626   7.598
 1708SOL    HW216641   0.231   0.589   7.469
 1709SOL     OW16642   0.225   0.275   8.444
 1709SOL    HW116643   0.260   0.258   8.536
 1709SOL    HW216644   0.137   0.230   8.432
 1710SOL     OW16645   0.019   0.368   8.095
 1710SOL    HW116646  -0.063   0.411   8.134
 1710SOL    HW216647  -0.009   0.295   8.032
 1711SOL     OW16648   0.569   1.275   8.613
 1711SOL    HW116649   0.476   1.268   8.576
 1711SOL    HW216650   0.580   1.364   8.657
 1712SOL     OW16651   1.555   1.511   8.151
 1712SOL    HW116652   1.498   1.495   8.232
 1712SOL    HW216653   1.496   1.521   8.071
 1713SOL     OW16654   1.135   0.703   8.165
 1713SOL    HW116655   1.192   0.781   8.140
 1713SOL    HW216656   1.075   0.729   8.241
 1714SOL     OW16657   1.755   0.607   7.679
 1714SOL    HW116658   1.743   0.594   7.580
 1714SOL    HW216659   1.725   0.526   7.728
 1715SOL     OW16660   0.768   1.144   8.471
 1715SOL    HW116661   0.690   1.161   8.531
 1715SOL    HW216662   0.802   1.231   8.435
 1716SOL     OW16663   0.850   0.798   9.271
 1716SOL    HW116664   0.846   0.874   9.336
 1716SOL    HW216665   0.872   0.834   9.180
 1717SOL     OW16666   0.685   1.012   8.113
 1717SOL    HW116667   0.754   0.996   8.183
 1717SOL    HW216668   0.612   1.069   8.151
 1718SOL     OW16669   0.686   1.161   9.251
 1718SOL    HW116670   0.746   1.240   9.265
 1718SOL    HW216671   0.600   1.192   9.210
 1719SOL     OW16672   0.335   1.435   8.509
 1719SOL    HW116673   0.257   1.404   8.456
 1719SOL    HW216674   0.393   1.493   8.452
 1720SOL     OW16675   1.460   1.505   8.787
 1720SOL    HW116676   1.484   1.599   8.813
 1720SOL    HW216677   1.444   1.451   8.869
 1721SOL     OW16678   0.438   0.392   8.947
 1721SOL    HW116679   0.520   0.336   8.956
 1721SOL    HW216680   0.357   0.334   8.951
 1722SOL     OW16681   1.603   0.447   8.185
 1722SOL    HW116682   1.529   0.493   8.135
 1722SOL    HW216683   1.654   0.515   8.238
 1723SOL     OW16684   0.231   1.713   7.931
 1723SOL    HW116685   0.265   1.790   7.985
 1723SOL    HW216686   0.275   1.713   7.841
 1724SOL     OW16687   1.127   1.341   9.138
 1724SOL    HW116688   1.174   1.341   9.226
 1724SOL    HW216689   1.079   1.254   9.127
 1725SOL     OW16690   0.230   1.434   7.986
 1725SOL    HW116691   0.204   1.530   7.986
 1725SOL    HW216692   0.159   1.380   8.031
 1726SOL     OW16693   0.240   1.091   8.334
 1726SOL    HW116694   0.254   1.007   8.386
 1726SOL    HW216695   0.185   1.155   8.389
 1727SOL     OW16696   0.620   1.786   8.887
 1727SOL    HW116697   0.528   1.769   8.922
 1727SOL    HW216698   0.648   1.878   8.913
 1728SOL     OW16699   0.606   0.964   7.571
 1728SOL    HW116700   0.613   1.048   7.517
 1728SOL    HW216701   0.652   0.977   7.659
 1729SOL     OW16702   0.122   0.643   8.011
 1729SOL    HW116703   0.077   0.555   8.028
 1729SOL    HW216704   0.121   0.697   8.095
 1730SOL     OW16705   1.842   1.767   7.807
 1730SOL    HW116706   1.896   1.738   7.887
 1730SOL    HW216707   1.872   1.857   7.778
 1731SOL     OW16708   0.027   1.596   7.565
 1731SOL    HW116709   0.008   1.500   7.586
 1731SOL    HW216710  -0.006   1.654   7.640
 1732SOL     OW16711   1.689   0.922   8.060
 1732SOL    HW116712   1.784   0.893   8.068
 1732SOL    HW216713   1.681   0.987   7.985
 1733SOL     OW16714   1.641   1.108   7.880
 1733SOL    HW116715   1.727   1.110   7.828
 1733SOL    HW216716   1.655   1.155   7.968
 1734SOL     OW16717   0.613   1.365   8.174
 1734SOL    HW116718   0.564   1.278   8.183
 1734SOL    HW216719   0.590   1.408   8.087
 1735SOL     OW16720   1.293   1.228   8.871
 1735SOL    HW116721   1.330   1.155   8.813
 1735SOL    HW216722   1.345   1.233   8.956
 1736SOL     OW16723   0.809   0.004   7.950
 1736SOL    HW116724   0.849   0.095   7.941
 1736SOL    HW216725   0.709   0.012   7.956
 1737SOL     OW16726   0.197   0.976   8.712
 1737SOL    HW116727   0.286   0.931   8.698
 1737SOL    HW216728   0.124   0.911   8.693
 1738SOL     OW16729   1.525   0.999   7.638
 1738SOL    HW116730   1.462   0.923   7.651
 1738SOL    HW216731   1.573   1.017   7.724
 1739SOL     OW16732   1.187   1.792   9.064
 1739SOL    HW116733   1.211   1.852   8.988
 1739SOL    HW216734   1.194   1.697   9.034
 1740SOL     OW16735   0.317   0.251   9.249
 1740SOL    HW116736   0.388   0.322   9.255
 1740SOL    HW216737   0.229   0.290   9.277
 1741SOL     OW16738   1.466   1.417   8.401
 1741SOL    HW116739   1.407   1.423   8.481
 1741SOL    HW216740   1.451   1.329   8.355
 1742SOL     OW16741   1.667   1.714   8.020
 1742SOL    HW116742   1.626   1.691   7.932
 1742SOL    HW216743   1.649   1.640   8.085
 1743SOL     OW16744   0.598   0.729   7.718
 1743SOL    HW116745   0.622   0.798   7.650
 1743SOL    HW216746   0.520   0.762   7.772
 1744SOL     OW16747   1.281   0.345   8.392
 1744SOL    HW116748   1.195   0.295   8.379
 1744SOL    HW216749   1.343   0.291   8.448
 1745SOL     OW16750   1.576   1.662   7.755
 1745SOL    HW116751   1.665   1.708   7.758
 1745SOL    HW216752   1.555   1.638   7.660
 1746SOL     OW16753   0.807   0.605   8.913
 1746SOL    HW116754   0.760   0.602   9.002
 1746SOL    HW216755   0.756   0.550   8.847
 1747SOL     OW16756   0.973   0.890   9.020
 1747SOL    HW116757   1.019   0.806   8.991
 1747SOL    HW216758   0.917   0.924   8.945
 1748SOL     OW16759   0.991   0.410   8.690
 1748SOL    HW116760   0.914   0.444   8.744
 1748SOL    HW216761   0.957   0.359   8.611
 1749SOL     OW16762   1.041   0.701   7.877
 1749SOL    HW116763   1.067   0.697   7.973
 1749SOL    HW216764   0.956   0.650   7.863
 1750SOL     OW16765   0.076   0.811   8.237
 1750SOL    HW116766   0.175   0.799   8.246
 1750SOL    HW216767   0.052   0.906   8.258
 1751SOL     OW16768   0.130   1.821   9.019
 1751SOL    HW116769   0.120   1.806   9.118
 1751SOL    HW216770   0.044   1.857   8.983
 1752SOL     OW16771   0.865   0.348   7.643
 1752SOL    HW116772   0.924   0.411   7.594
 1752SOL    HW216773   0.884   0.254   7.614
 1753SOL     OW16774   1.362   1.144   7.993
 1753SOL    HW116775   1.445   1.115   7.945
 1753SOL    HW216776   1.313   1.211   7.937
 1754SOL     OW16777   0.550   0.196   8.333
 1754SOL    HW116778   0.545   0.191   8.433
 1754SOL    HW216779   0.552   0.292   8.304
 1755SOL     OW16780   1.008   1.456   7.925
 1755SOL    HW116781   0.962   1.528   7.873
 1755SOL    HW216782   1.004   1.476   8.023
 1756SOL     OW16783   0.351   1.801   8.301
 1756SOL    HW116784   0.401   1.715   8.307
 1756SOL    HW216785   0.416   1.878   8.298
 1757SOL     OW16786   1.795   1.066   8.321
 1757SOL    HW116787   1.733   1.051   8.245
 1757SOL    HW216788   1.743   1.077   8.406
 1758SOL     OW16789   1.227   1.550   8.954
 1758SOL    HW116790   1.233   1.473   9.018
 1758SOL    HW216791   1.175   1.524   8.874
 1759SOL     OW16792   0.321   0.943   7.690
 1759SOL    HW116793   0.403   0.982   7.648
 1759SOL    HW216794   0.294   0.861   7.641
 1760SOL     OW16795   1.458   0.735   8.176
 1760SOL    HW116796   1.453   0.670   8.251
 1760SOL    HW216797   1.538   0.794   8.189
 1761SOL     OW16798   0.461   1.266   9.175
 1761SOL    HW116799   0.411   1.267   9.089
 1761SOL    HW216800   0.398   1.248   9.251
 1762SOL     OW16801   1.111   1.776   7.685
 1762SOL    HW116802   1.051   1.714   7.735
 1762SOL    HW216803   1.142   1.732   7.600
 1763SOL     OW16804   0.202   0.285   8.946
 1763SOL    HW116805   0.122   0.345   8.933
 1763SOL    HW216806   0.192   0.236   9.032
 1764SOL     OW16807   1.632   1.377   7.529
 1764SOL    HW116808   1.600   1.471   7.519
 1764SOL    HW216809   1.556   1.314   7.517
 1765SOL     OW16810   0.464   1.743   7.771
 1765SOL    HW116811   0.497   1.782   7.857
 1765SOL    HW216812   0.540   1.736   7.706
 1766SOL     OW16813   1.400   0.107   7.874
 1766SOL    HW116814   1.376   0.070   7.784
 1766SOL    HW216815   1.499   0.123   7.878
 1767SOL     OW16816   0.249   1.785   8.689
 1767SOL    HW116817   0.306   1.720   8.739
 1767SOL    HW216818   0.233   1.752   8.596
 1768SOL     OW16819   0.940   1.698   8.352
 1768SOL    HW116820   1.020   1.641   8.373
 1768SOL    HW216821   0.891   1.658   8.275
 1769SOL     OW16822   0.382   0.700   7.928
 1769SOL    HW116823   0.427   0.610   7.925
 1769SOL    HW216824   0.288   0.689   7.961
 1770SOL     OW16825   0.614   0.122   7.565
 1770SOL    HW116826   0.712   0.100   7.572
 1770SOL    HW216827   0.583   0.105   7.472
 1771SOL     OW16828   0.888   1.514   8.643
 1771SOL    HW116829   0.865   1.489   8.549
 1771SOL    HW216830   0.949   1.445   8.682
 1772SOL     OW16831   1.351   0.590   8.881
 1772SOL    HW116832   1.379   0.547   8.966
 1772SOL    HW216833   1.376   0.686   8.882
 1773SOL     OW16834   0.803   1.402   8.372
 1773SOL    HW116835   0.893   1.416   8.330
 1773SOL    HW216836   0.732   1.404   8.301
 1774SOL     OW16837   0.922   0.503   8.347
 1774SOL    HW116838   0.897   0.494   8.251
 1774SOL    HW216839   0.970   0.421   8.378
 1775SOL     OW16840   0.539   0.064   7.960
 1775SOL    HW116841   0.458   0.065   8.018
 1775SOL    HW216842   0.542   0.147   7.905
 1776SOL     OW16843   1.434   1.188   7.489
 1776SOL    HW116844   1.466   1.112   7.546
 1776SOL    HW216845   1.342   1.215   7.519
 1777SOL     OW16846   0.297   0.035   7.619
 1777SOL    HW116847   0.346   0.119   7.598
 1777SOL    HW216848   0.359  -0.030   7.664
 1778SOL     OW16849   0.935   0.236   7.928
 1778SOL    HW116850   0.887   0.277   7.850
 1778SOL    HW216851   1.034   0.234   7.909
 1779SOL     OW16852   1.076   0.683   8.912
 1779SOL    HW116853   0.996   0.622   8.915
 1779SOL    HW216854   1.157   0.630   8.888
 1780SOL     OW16855   1.227   1.570   8.241
 1780SOL    HW116856   1.248   1.644   8.176
 1780SOL    HW216857   1.295   1.570   8.314
 1781SOL     OW16858   0.459   1.152   8.189
 1781SOL    HW116859   0.388   1.125   8.254
 1781SOL    HW216860   0.433   1.124   8.096
 1782SOL     OW16861   1.271   1.797   8.039
 1782SOL    HW116862   1.315   1.861   7.975
 1782SOL    HW216863   1.221   1.849   8.109
 1783SOL     OW16864   1.032   0.549   7.464
 1783SOL    HW116865   0.991   0.631   7.425
 1783SOL    HW216866   1.096   0.575   7.537
 1784SOL     OW16867   0.078   0.556   8.834
 1784SOL    HW116868   0.170   0.555   8.793
 1784SOL    HW216869   0.072   0.630   8.901
 1785SOL     OW16870   0.561   0.222   8.595
 1785SOL    HW116871   0.599   0.138   8.632
 1785SOL    HW216872   0.473   0.241   8.639
 1786SOL     OW16873   0.866   0.454   8.090
 1786SOL    HW116874   0.834   0.526   8.028
 1786SOL    HW216875   0.890   0.373   8.037
 1787SOL     OW16876   1.017   0.039   8.201
 1787SOL    HW116877   0.945   0.044   8.132
 1787SOL    HW216878   0.993  -0.030   8.270
 1788SOL     OW16879   1.429   1.173   8.315
 1788SOL    HW116880   1.374   1.089   8.308
 1788SOL    HW216881   1.455   1.202   8.223
 1789SOL     OW16882   1.466   0.590   8.440
 1789SOL    HW116883   1.436   0.495   8.447
 1789SOL    HW216884   1.539   0.606   8.506
 1790SOL     OW16885   1.857   0.833   7.825
 1790SOL    HW116886   1.899   0.769   7.889
 1790SOL    HW216887   1.819   0.782   7.747
 1791SOL     OW16888   0.488   1.385   7.622
 1791SOL    HW116889   0.401   1.370   7.669
 1791SOL    HW216890   0.471   1.411   7.527
 1792SOL     OW16891   1.664   1.280   8.105
 1792SOL    HW116892   1.763   1.288   8.119
 1792SOL    HW216893   1.619   1.364   8.136
 1793SOL     OW16894   1.390   0.575   7.526
 1793SOL    HW116895   1.336   0.554   7.607
 1793SOL    HW216896   1.481   0.534   7.535
 1794SOL     OW16897   0.527   0.256   7.776
 1794SOL    HW116898   0.554   0.197   7.701
 1794SOL    HW216899   0.527   0.351   7.745
 1795SOL     OW16900   1.754   1.223   9.036
 1795SOL    HW116901   1.845   1.184   9.023
 1795SOL    HW216902   1.762   1.319   9.060
 1796SOL     OW16903   1.064   1.347   8.788
 1796SOL    HW116904   0.984   1.324   8.843
 1796SOL    HW216905   1.147   1.321   8.837
 1797SOL     OW16906   1.592   1.629   9.073
 1797SOL    HW116907   1.619   1.663   8.983
 1797SOL    HW216908   1.671   1.591   9.119
 1798SOL     OW16909   1.111   1.195   8.548
 1798SOL    HW116910   1.071   1.239   8.629
 1798SOL    HW216911   1.070   1.232   8.465
 1799SOL     OW16912   1.638   1.099   8.527
 1799SOL    HW116913   1.643   1.180   8.586
 1799SOL    HW216914   1.552   1.101   8.476
 1800SOL     OW16915   0.915   0.089   8.850
 1800SOL    HW116916   0.940   0.069   8.755
 1800SOL    HW216917   0.987   0.145   8.892
 1801SOL     OW16918   0.980   1.116   9.167
 1801SOL    HW116919   0.881   1.122   9.177
 1801SOL    HW216920   1.003   1.036   9.111
 1802SOL     OW16921   0.705   1.050   7.816
 1802SOL    HW116922   0.691   1.057   7.915
 1802SOL    HW216923   0.789   0.999   7.798
 1803SOL     OW16924   0.410   0.813   8.699
 1803SOL    HW116925   0.496   0.825   8.749
 1803SOL    HW216926   0.368   0.726   8.726
 1804SOL     OW16927   1.274   0.386   8.710
 1804SOL    HW116928   1.295   0.460   8.774
 1804SOL    HW216929   1.185   0.403   8.667
 1805SOL     OW16930   0.064   1.564   8.779
 1805SOL    HW116931   0.018   1.646   8.745
 1805SOL    HW216932   0.162   1.583   8.788
 1806SOL     OW16933   0.367   1.100   7.949
 1806SOL    HW116934   0.360   1.183   7.893
 1806SOL    HW216935   0.371   1.020   7.889
 1807SOL     OW16936   0.566   0.537   8.313
 1807SOL    HW116937   0.578   0.603   8.239
 1807SOL    HW216938   0.612   0.571   8.396
 1808SOL     OW16939   1.252   1.348   7.836
 1808SOL    HW116940   1.302   1.425   7.876
 1808SOL    HW216941   1.157   1.350   7.868
 1809SOL     OW16942   1.272   1.445   8.590
 1809SOL    HW116943   1.319   1.458   8.677
 1809SOL    HW216944   1.206   1.371   8.599
 1810SOL     OW16945   1.582   0.639   7.920
 1810SOL    HW116946   1.551   0.700   7.993
 1810SOL    HW216947   1.632   0.691   7.851
 1811SOL     OW16948   0.354   1.510   8.777
 1811SOL    HW116949   0.333   1.466   8.690
 1811SOL    HW216950   0.451   1.536   8.780
 1812SOL     OW16951   0.402   0.751   9.046
 1812SOL    HW116952   0.470   0.806   8.999
 1812SOL    HW216953   0.442   0.663   9.073
 1813SOL     OW16954   1.587   0.779   9.118
 1813SOL    HW116955   1.495   0.817   9.113
 1813SOL    HW216956   1.647   0.826   9.053
 1814SOL     OW16957   0.504   0.050   9.188
 1814SOL    HW116958   0.462  -0.007   9.118
 1814SOL    HW216959   0.438   0.119   9.220
 1815SOL     OW16960   0.573   0.870   8.477
 1815SOL    HW116961   0.617   0.959   8.468
 1815SOL    HW216962   0.510   0.870   8.554
 1816SOL     OW16963   1.360   0.862   8.493
 1816SOL    HW116964   1.285   0.862   8.427
 1816SOL    HW216965   1.397   0.770   8.502
 1817SOL     OW16966   1.209   0.525   7.723
 1817SOL    HW116967   1.222   0.441   7.777
 1817SOL    HW216968   1.180   0.599   7.783
 1818SOL     OW16969   0.307   0.213   8.679
 1818SOL    HW116970   0.284   0.250   8.769
 1818SOL    HW216971   0.277   0.118   8.673
 1819SOL     OW16972   0.037   1.310   8.730
 1819SOL    HW116973   0.090   1.261   8.798
 1819SOL    HW216974   0.059   1.408   8.735
 1820SOL     OW16975   0.732   0.634   8.512
 1820SOL    HW116976   0.791   0.608   8.436
 1820SOL    HW216977   0.704   0.730   8.501
 1821SOL     OW16978   1.728   0.935   9.302
 1821SOL    HW116979   1.682   0.928   9.213
 1821SOL    HW216980   1.666   0.979   9.368
 1822SOL     OW16981   0.307   0.063   8.066
 1822SOL    HW116982   0.296   0.157   8.099
 1822SOL    HW216983   0.302   0.000   8.143
 1823SOL     OW16984   1.622   0.367   7.822
 1823SOL    HW116985   1.624   0.291   7.886
 1823SOL    HW216986   1.574   0.444   7.862
 1824SOL     OW16987   1.023   0.766   8.414
 1824SOL    HW116988   1.038   0.787   8.510
 1824SOL    HW216989   0.993   0.671   8.405
 1825SOL     OW16990   0.980   1.573   9.148
 1825SOL    HW116991   0.960   1.617   9.060
 1825SOL    HW216992   1.019   1.482   9.132
 1826SOL     OW16993   0.350   0.898   9.252
 1826SOL    HW116994   0.426   0.942   9.300
 1826SOL    HW216995   0.385   0.851   9.170
 1827SOL     OW16996   1.540   0.274   7.573
 1827SOL    HW116997   1.479   0.199   7.596
 1827SOL    HW216998   1.562   0.326   7.656
 1828SOL     OW16999   1.303   0.838   7.490
 1828SOL    HW117000   1.337   0.745   7.505
 1828SOL    HW217001   1.321   0.865   7.395
 1829SOL     OW17002   1.068   1.333   8.297
 1829SOL    HW117003   1.075   1.249   8.242
 1829SOL    HW217004   1.130   1.402   8.261
 1830SOL     OW17005   0.319   0.810   8.397
 1830SOL    HW117006   0.412   0.846   8.402
 1830SOL    HW217007   0.313   0.725   8.449
 1831SOL     OW17008   0.339   0.509   8.454
 1831SOL    HW117009   0.287   0.426   8.437
 1831SOL    HW217010   0.416   0.514   8.390
 1832SOL     OW17011   1.138   0.380   9.126
 1832SOL    HW117012   1.093   0.443   9.190
 1832SOL    HW217013   1.231   0.411   9.109
 1833SOL     OW17014   1.160   0.207   8.925
 1833SOL    HW117015   1.160   0.271   9.002
 1833SOL    HW217016   1.188   0.255   8.842
 1834SOL     OW17017   0.008   1.326   7.648
 1834SOL    HW117018  -0.085   1.347   7.617
 1834SOL    HW217019   0.018   1.227   7.661
 1835SOL     OW17020   0.088   1.801   8.375
 1835SOL    HW117021   0.046   1.715   8.348
 1835SOL    HW217022   0.182   1.804   8.341
 1836SOL     OW17023   0.504   1.568   8.358
 1836SOL    HW117024   0.570   1.642   8.367
 1836SOL    HW217025   0.548   1.489   8.316
 1837SOL     OW17026   1.002   0.796   8.686
 1837SOL    HW117027   1.043   0.764   8.772
 1837SOL    HW217028   0.906   0.769   8.683
 1838SOL     OW17029   0.040   0.544   8.562
 1838SOL    HW117030   0.125   0.511   8.521
 1838SOL    HW217031   0.053   0.559   8.660
 1839SOL     OW17032   1.369   0.950   9.108
 1839SOL    HW117033   1.408   1.039   9.128
 1839SOL    HW217034   1.379   0.930   9.011
 1840SOL     OW17035   0.815   0.572   7.773
 1840SOL    HW117036   0.822   0.483   7.727
 1840SOL    HW217037   0.721   0.606   7.765
 1841SOL     OW17038   1.657   0.604   8.654
 1841SOL    HW117039   1.619   0.535   8.716
 1841SOL    HW217040   1.739   0.568   8.610
 1842SOL     OW17041   0.252   1.564   9.192
 1842SOL    HW117042   0.222   1.621   9.268
 1842SOL    HW217043   0.245   1.467   9.218
 1843SOL     OW17044   0.671   0.464   8.717
 1843SOL    HW117045   0.637   0.375   8.687
 1843SOL    HW217046   0.697   0.518   8.637
 1844SOL     OW17047   0.930   1.678   8.913
 1844SOL    HW117048   0.906   1.660   8.818
 1844SOL    HW217049   0.960   1.772   8.923
 1845SOL     OW17050   0.473   0.500   7.639
 1845SOL    HW117051   0.534   0.580   7.643
 1845SOL    HW217052   0.378   0.531   7.646
 1846SOL     OW17053   0.159   1.137   8.914
 1846SOL    HW117054   0.181   1.076   8.990
 1846SOL    HW217055   0.169   1.088   8.828
 1847SOL     OW17056   1.347   1.059   8.682
 1847SOL    HW117057   1.371   0.996   8.608
 1847SOL    HW217058   1.257   1.099   8.664
 1848SOL     OW17059   1.302   0.855   7.757
 1848SOL    HW117060   1.216   0.824   7.799
 1848SOL    HW217061   1.298   0.841   7.658
 1849SOL     OW17062   1.759   1.747   8.602
 1849SOL    HW117063   1.820   1.777   8.529
 1849SOL    HW217064   1.721   1.658   8.580
 1850SOL     OW17065   1.252   1.731   8.576
 1850SOL    HW117066   1.336   1.736   8.522
 1850SOL    HW217067   1.229   1.635   8.594
 1851SOL     OW17068   0.083   1.258   8.470
 1851SOL    HW117069   0.078   1.257   8.570
 1851SOL    HW217070   0.000   1.217   8.432
 1852SOL     OW17071   0.688   1.662   9.164
 1852SOL    HW117072   0.632   1.743   9.173
 1852SOL    HW217073   0.740   1.666   9.078
 1853SOL     OW17074   1.726   0.135   7.971
 1853SOL    HW117075   1.799   0.118   7.904
 1853SOL    HW217076   1.695   0.048   8.009
 1854SOL     OW17077   1.388   1.573   7.925
 1854SOL    HW117078   1.455   1.585   7.851
 1854SOL    HW217079   1.348   1.662   7.948
 1855SOL     OW17080   0.130   1.794   9.299
 1855SOL    HW117081   0.089   1.720   9.352
 1855SOL    HW217082   0.194   1.845   9.357
 1856SOL     OW17083   1.280   0.927   8.120
 1856SOL    HW117084   1.340   0.846   8.122
 1856SOL    HW217085   1.320   0.996   8.060
 1857SOL     OW17086   0.830   1.273   8.870
 1857SOL    HW117087   0.825   1.306   8.965
 1857SOL    HW217088   0.744   1.292   8.824
 1858SOL     OW17089   0.672   1.616   7.602
 1858SOL    HW117090   0.681   1.626   7.503
 1858SOL    HW217091   0.632   1.527   7.623
 1859SOL     OW17092   1.650   1.720   8.842
 1859SOL    HW117093   1.703   1.730   8.758
 1859SOL    HW217094   1.623   1.810   8.876
 1860SOL     OW17095   1.841   0.175   8.411
 1860SOL    HW117096   1.880   0.090   8.375
 1860SOL    HW217097   1.743   0.177   8.392
 1861SOL     OW17098   0.263   0.326   8.168
 1861SOL    HW117099   0.184   0.377   8.134
 1861SOL    HW217100   0.254   0.311   8.266
 1862SOL     OW17101   1.194   1.612   7.479
 1862SOL    HW117102   1.200   1.519   7.516
 1862SOL    HW217103   1.135   1.612   7.399
 1863SOL     OW17104   0.822   1.002   8.820
 1863SOL    HW117105   0.862   1.001   8.728
 1863SOL    HW217106   0.832   1.094   8.860
 1864SOL     OW17107   0.916   0.910   7.739
 1864SOL    HW117108   0.979   0.948   7.671
 1864SOL    HW217109   0.956   0.827   7.778
 1865SOL     OW17110   1.504   1.607   7.492
 1865SOL    HW117111   1.412   1.644   7.499
 1865SOL    HW217112   1.542   1.627   7.402
 1866SOL     OW17113   0.372   1.288   8.938
 1866SOL    HW117114   0.359   1.381   8.904
 1866SOL    HW217115   0.288   1.236   8.925
 1867SOL     OW17116   1.614   1.292   8.737
 1867SOL    HW117117   1.674   1.295   8.817
 1867SOL    HW217118   1.539   1.356   8.750
 1868SOL     OW17119   1.039   1.098   8.144
 1868SOL    HW117120   0.969   1.051   8.198
 1868SOL    HW217121   1.098   1.030   8.101
 1869SOL     OW17122   1.014   0.236   8.419
 1869SOL    HW117123   1.006   0.200   8.326
 1869SOL    HW217124   1.012   0.160   8.484
 1870SOL     OW17125   0.590   1.487   7.939
 1870SOL    HW117126   0.632   1.429   7.869
 1870SOL    HW217127   0.546   1.566   7.895
 1871SOL     OW17128   0.255   1.348   7.738
 1871SOL    HW117129   0.159   1.349   7.711
 1871SOL    HW217130   0.267   1.401   7.822
 1872SOL     OW17131   0.105   1.013   9.174
 1872SOL    HW117132   0.028   0.980   9.228
 1872SOL    HW217133   0.190   0.983   9.216
 1873SOL     OW17134   0.672   0.203   8.937
 1873SOL    HW117135   0.762   0.187   8.897
 1873SOL    HW217136   0.680   0.208   9.036
 1874SOL     OW17137   0.075   0.345   7.481
 1874SOL    HW117138  -0.017   0.317   7.452
 1874SOL    HW217139   0.106   0.422   7.425
 1875SOL     OW17140   1.440   0.856   8.846
 1875SOL    HW117141   1.383   0.908   8.783
 1875SOL    HW217142   1.536   0.868   8.822
 1876SOL     OW17143   0.072   0.166   7.766
 1876SOL    HW117144   0.055   0.249   7.712
 1876SOL    HW217145   0.162   0.129   7.744
 1877SOL     OW17146   1.183   1.335   7.567
 1877SOL    HW117147   1.084   1.324   7.569
 1877SOL    HW217148   1.217   1.350   7.660
 1878SOL     OW17149   0.613   0.842   8.879
 1878SOL    HW117150   0.669   0.923   8.862
 1878SOL    HW217151   0.672   0.762   8.882
 1879SOL     OW17152   1.493   1.767   8.407
 1879SOL    HW117153   1.526   1.831   8.338
 1879SOL    HW217154   1.559   1.761   8.482
 1880SOL     OW17155   0.716   0.565   9.156
 1880SOL    HW117156   0.735   0.630   9.230
 1880SOL    HW217157   0.776   0.485   9.165
 1881SOL     OW17158   1.450   1.220   9.081
 1881SOL    HW117159   1.441   1.210   9.180
 1881SOL    HW217160   1.546   1.213   9.055
 1882SOL     OW17161   0.390   1.741   9.008
 1882SOL    HW117162   0.299   1.782   9.006
 1882SOL    HW217163   0.383   1.647   9.040
 1883SOL     OW17164   1.674   0.883   8.702
 1883SOL    HW117165   1.647   0.794   8.665
 1883SOL    HW217166   1.675   0.951   8.629
 1884SOL     OW17167   1.225   0.325   7.897
 1884SOL    HW117168   1.290   0.251   7.886
 1884SOL    HW217169   1.245   0.375   7.981
 1885SOL     OW17170   0.594   0.745   8.100
 1885SOL    HW117171   0.644   0.830   8.081
 1885SOL    HW217172   0.506   0.747   8.052
 1886SOL     OW17173   1.730   0.934   8.965
 1886SOL    HW117174   1.768   1.025   8.980
 1886SOL    HW217175   1.722   0.917   8.866
 1887SOL     OW17176   0.859   1.374   7.464
 1887SOL    HW117177   0.813   1.389   7.552
 1887SOL    HW217178   0.903   1.459   7.434
 1888SOL     OW17179   0.661   1.790   8.401
 1888SOL    HW117180   0.615   1.878   8.388
 1888SOL    HW217181   0.760   1.802   8.394
 1889SOL     OW17182   0.859   0.956   8.309
 1889SOL    HW117183   0.913   0.887   8.357
 1889SOL    HW217184   0.827   1.025   8.375
 1890SOL     OW17185   1.083   0.984   7.535
 1890SOL    HW117186   1.060   1.037   7.453
 1890SOL    HW217187   1.164   0.928   7.516
 1891SOL     OW17188   1.861   1.569   8.299
 1891SOL    HW117189   1.790   1.557   8.229
 1891SOL    HW217190   1.862   1.490   8.359
 1892SOL     OW17191   0.221   1.314   9.292
 1892SOL    HW117192   0.156   1.241   9.271
 1892SOL    HW217193   0.225   1.328   9.390
 1893SOL     OW17194   0.079   1.240   8.101
 1893SOL    HW117195   0.078   1.193   8.189
 1893SOL    HW217196   0.161   1.212   8.050
 1894SOL     OW17197   0.672   1.391   9.072
 1894SOL    HW117198   0.594   1.341   9.110
 1894SOL    HW217199   0.669   1.486   9.103
 1895SOL     OW17200   0.428   0.424   7.968
 1895SOL    HW117201   0.458   0.352   7.906
 1895SOL    HW217202   0.389   0.384   8.051
 1896SOL     OW17203   1.705   1.487   8.552
 1896SOL    HW117204   1.612   1.462   8.525
 1896SOL    HW217205   1.731   1.437   8.634
 1897SOL     OW17206   0.317   0.547   8.728
 1897SOL    HW117207   0.355   0.488   8.800
 1897SOL    HW217208   0.357   0.521   8.640
 1898SOL     OW17209   0.812   1.586   8.135
 1898SOL    HW117210   0.844   1.596   8.041
 1898SOL    HW217211   0.733   1.524   8.137
 1899SOL     OW17212   1.424   0.214   8.560
 1899SOL    HW117213   1.476   0.149   8.615
 1899SOL    HW217214   1.375   0.277   8.621
 1900SOL     OW17215   1.001   0.034   8.602
 1900SOL    HW117216   0.938  -0.038   8.571
 1900SOL    HW217217   1.094  -0.002   8.602
 1901SOL     OW17218   0.770   1.330   7.749
 1901SOL    HW117219   0.724   1.243   7.766
 1901SOL    HW217220   0.861   1.327   7.790
 1902SOL     OW17221   0.618   1.567   8.732
 1902SOL    HW117222   0.613   1.649   8.789
 1902SOL    HW217223   0.707   1.564   8.687
 1903SOL     OW17224   1.352   0.052   7.616
 1903SOL    HW117225   1.387   0.011   7.532
 1903SOL    HW217226   1.262   0.014   7.636
 1904SOL     OW17227   1.300   0.453   8.139
 1904SOL    HW117228   1.241   0.533   8.143
 1904SOL    HW217229   1.315   0.418   8.232
 1905SOL     OW17230   1.593   0.221   8.330
 1905SOL    HW117231   1.509   0.220   8.384
 1905SOL    HW217232   1.595   0.304   8.274
 1906SOL     OW17233   0.039   1.077   7.748
 1906SOL    HW117234   0.138   1.066   7.739
 1906SOL    HW217235  -0.001   0.991   7.780
 1907SOL     OW17236   0.875   1.646   7.785
 1907SOL    HW117237   0.798   1.611   7.731
 1907SOL    HW217238   0.843   1.717   7.847
 1908SOL     OW17239   0.230   0.628   9.423
 1908SOL    HW117240   0.137   0.626   9.460
 1908SOL    HW217241   0.231   0.589   9.331
 1909SOL     OW17242   0.225   0.275  10.306
 1909SOL    HW117243   0.260   0.258  10.398
 1909SOL    HW217244   0.137   0.230  10.294
 1910SOL     OW17245   0.019   0.368   9.957
 1910SOL    HW117246  -0.063   0.411   9.996
 1910SOL    HW217247  -0.009   0.295   9.894
 1911SOL     OW17248   0.569   1.275  10.475
 1911SOL    HW117249   0.476   1.268  10.438
 1911SOL    HW217250   0.580   1.364  10.519
 1912SOL     OW17251   1.135   0.703  10.027
 1912SOL    HW117252   1.192   0.781  10.002
 1912SOL    HW217253   1.075   0.729  10.103
 1913SOL     OW17254   1.755   0.607   9.541
 1913SOL    HW117255   1.743   0.594   9.442
 1913SOL    HW217256   1.725   0.526   9.590
 1914SOL     OW17257   0.768   1.144  10.333
 1914SOL    HW117258   0.690   1.161  10.393
 1914SOL    HW217259   0.802   1.231  10.297
 1915SOL     OW17260   0.685   1.012   9.975
 1915SOL    HW117261   0.754   0.996  10.045
 1915SOL    HW217262   0.612   1.069  10.013
 1916SOL     OW17263   0.686   1.161  11.113
 1916SOL    HW117264   0.746   1.240  11.127
 1916SOL    HW217265   0.600   1.192  11.072
 1917SOL     OW17266   0.231   1.713   9.793
 1917SOL    HW117267   0.265   1.790   9.847
 1917SOL    HW217268   0.275   1.713   9.703
 1918SOL     OW17269   0.230   1.434   9.848
 1918SOL    HW117270   0.204   1.530   9.848
 1918SOL    HW217271   0.159   1.380   9.893
 1919SOL     OW17272   0.240   1.091  10.196
 1919SOL    HW117273   0.254   1.007  10.248
 1919SOL    HW217274   0.185   1.155  10.251
 1920SOL     OW17275   0.606   0.964   9.433
 1920SOL    HW117276   0.613   1.048   9.379
 1920SOL    HW217277   0.652   0.977   9.521
 1921SOL     OW17278   1.594   0.114  10.790
 1921SOL    HW117279   1.576   0.181  10.718
 1921SOL    HW217280   1.591   0.160  10.879
 1922SOL     OW17281   0.122   0.643   9.873
 1922SOL    HW117282   0.077   0.555   9.890
 1922SOL    HW217283   0.121   0.697   9.957
 1923SOL     OW17284   0.027   1.596   9.427
 1923SOL    HW117285   0.008   1.500   9.448
 1923SOL    HW217286  -0.006   1.654   9.502
 1924SOL     OW17287   1.641   1.108   9.742
 1924SOL    HW117288   1.727   1.110   9.690
 1924SOL    HW217289   1.655   1.155   9.830
 1925SOL     OW17290   0.113   0.737  10.907
 1925SOL    HW117291   0.201   0.724  10.952
 1925SOL    HW217292   0.100   0.834  10.885
 1926SOL     OW17293   0.613   1.365  10.036
 1926SOL    HW117294   0.564   1.278  10.045
 1926SOL    HW217295   0.590   1.408   9.949
 1927SOL     OW17296   0.197   0.976  10.574
 1927SOL    HW117297   0.286   0.931  10.560
 1927SOL    HW217298   0.124   0.911  10.555
 1928SOL     OW17299   1.525   0.999   9.500
 1928SOL    HW117300   1.462   0.923   9.513
 1928SOL    HW217301   1.573   1.017   9.586
 1929SOL     OW17302   1.466   1.417  10.263
 1929SOL    HW117303   1.407   1.423  10.343
 1929SOL    HW217304   1.451   1.329  10.217
 1930SOL     OW17305   0.598   0.729   9.580
 1930SOL    HW117306   0.622   0.798   9.512
 1930SOL    HW217307   0.520   0.762   9.634
 1931SOL     OW17308   1.394   0.469  10.984
 1931SOL    HW117309   1.374   0.512  11.072
 1931SOL    HW217310   1.472   0.407  10.993
 1932SOL     OW17311   0.973   0.890  10.882
 1932SOL    HW117312   1.019   0.806  10.853
 1932SOL    HW217313   0.917   0.924  10.807
 1933SOL     OW17314   1.041   0.701   9.739
 1933SOL    HW117315   1.067   0.697   9.835
 1933SOL    HW217316   0.956   0.650   9.725
 1934SOL     OW17317   0.076   0.811  10.099
 1934SOL    HW117318   0.175   0.799  10.108
 1934SOL    HW217319   0.052   0.906  10.120
 1935SOL     OW17320   1.719   0.585  11.141
 1935SOL    HW117321   1.693   0.674  11.105
 1935SOL    HW217322   1.717   0.517  11.068
 1936SOL     OW17323   1.362   1.144   9.855
 1936SOL    HW117324   1.445   1.115   9.807
 1936SOL    HW217325   1.313   1.211   9.799
 1937SOL     OW17326   0.351   1.801  10.163
 1937SOL    HW117327   0.401   1.715  10.169
 1937SOL    HW217328   0.416   1.878  10.160
 1938SOL     OW17329   1.227   1.550  10.816
 1938SOL    HW117330   1.233   1.473  10.880
 1938SOL    HW217331   1.175   1.524  10.736
 1939SOL     OW17332   0.321   0.943   9.552
 1939SOL    HW117333   0.403   0.982   9.510
 1939SOL    HW217334   0.294   0.861   9.503
 1940SOL     OW17335   1.458   0.735  10.038
 1940SOL    HW117336   1.453   0.670  10.113
 1940SOL    HW217337   1.538   0.794  10.051
 1941SOL     OW17338   1.111   1.776   9.547
 1941SOL    HW117339   1.051   1.714   9.597
 1941SOL    HW217340   1.142   1.732   9.462
 1942SOL     OW17341   0.202   0.285  10.808
 1942SOL    HW117342   0.122   0.345  10.795
 1942SOL    HW217343   0.192   0.236  10.894
 1943SOL     OW17344   1.632   1.377   9.391
 1943SOL    HW117345   1.600   1.471   9.381
 1943SOL    HW217346   1.556   1.314   9.379
 1944SOL     OW17347   0.464   1.743   9.633
 1944SOL    HW117348   0.497   1.782   9.719
 1944SOL    HW217349   0.540   1.736   9.568
 1945SOL     OW17350   0.940   1.698  10.214
 1945SOL    HW117351   1.020   1.641  10.235
 1945SOL    HW217352   0.891   1.658  10.137
 1946SOL     OW17353   0.382   0.700   9.790
 1946SOL    HW117354   0.427   0.610   9.787
 1946SOL    HW217355   0.288   0.689   9.823
 1947SOL     OW17356   1.547   0.222  11.039
 1947SOL    HW117357   1.542   0.259  11.131
 1947SOL    HW217358   1.475   0.153  11.027
 1948SOL     OW17359   0.888   1.514  10.505
 1948SOL    HW117360   0.865   1.489  10.411
 1948SOL    HW217361   0.949   1.445  10.544
 1949SOL     OW17362   1.351   0.590  10.743
 1949SOL    HW117363   1.379   0.547  10.828
 1949SOL    HW217364   1.376   0.686  10.744
 1950SOL     OW17365   0.803   1.402  10.234
 1950SOL    HW117366   0.893   1.416  10.192
 1950SOL    HW217367   0.732   1.404  10.163
 1951SOL     OW17368   0.922   0.503  10.209
 1951SOL    HW117369   0.897   0.494  10.113
 1951SOL    HW217370   0.970   0.421  10.240
 1952SOL     OW17371   0.539   0.064   9.822
 1952SOL    HW117372   0.458   0.065   9.880
 1952SOL    HW217373   0.542   0.147   9.767
 1953SOL     OW17374   1.434   1.188   9.351
 1953SOL    HW117375   1.466   1.112   9.408
 1953SOL    HW217376   1.342   1.215   9.381
 1954SOL     OW17377   0.297   0.035   9.481
 1954SOL    HW117378   0.346   0.119   9.460
 1954SOL    HW217379   0.359  -0.030   9.526
 1955SOL     OW17380   0.459   1.152  10.051
 1955SOL    HW117381   0.388   1.125  10.116
 1955SOL    HW217382   0.433   1.124   9.958
 1956SOL     OW17383   1.032   0.549   9.326
 1956SOL    HW117384   0.991   0.631   9.287
 1956SOL    HW217385   1.096   0.575   9.399
 1957SOL     OW17386   0.078   0.556  10.696
 1957SOL    HW117387   0.170   0.555  10.655
 1957SOL    HW217388   0.072   0.630  10.763
 1958SOL     OW17389   0.866   0.454   9.952
 1958SOL    HW117390   0.834   0.526   9.890
 1958SOL    HW217391   0.890   0.373   9.899
 1959SOL     OW17392   1.017   0.039  10.063
 1959SOL    HW117393   0.945   0.044   9.994
 1959SOL    HW217394   0.993  -0.030  10.132
 1960SOL     OW17395   0.488   1.385   9.484
 1960SOL    HW117396   0.401   1.370   9.531
 1960SOL    HW217397   0.471   1.411   9.389
 1961SOL     OW17398   1.390   0.575   9.388
 1961SOL    HW117399   1.336   0.554   9.469
 1961SOL    HW217400   1.481   0.534   9.397
 1962SOL     OW17401   0.527   0.256   9.638
 1962SOL    HW117402   0.554   0.197   9.563
 1962SOL    HW217403   0.527   0.351   9.607
 1963SOL     OW17404   1.592   1.629  10.935
 1963SOL    HW117405   1.619   1.663  10.845
 1963SOL    HW217406   1.671   1.591  10.981
 1964SOL     OW17407   0.980   1.116  11.029
 1964SOL    HW117408   0.881   1.122  11.039
 1964SOL    HW217409   1.003   1.036  10.973
 1965SOL     OW17410   0.705   1.050   9.678
 1965SOL    HW117411   0.691   1.057   9.777
 1965SOL    HW217412   0.789   0.999   9.660
 1966SOL     OW17413   0.410   0.813  10.561
 1966SOL    HW117414   0.496   0.825  10.611
 1966SOL    HW217415   0.368   0.726  10.588
 1967SOL     OW17416   0.367   1.100   9.811
 1967SOL    HW117417   0.360   1.183   9.755
 1967SOL    HW217418   0.371   1.020   9.751
 1968SOL     OW17419   0.566   0.537  10.175
 1968SOL    HW117420   0.578   0.603  10.101
 1968SOL    HW217421   0.612   0.571  10.258
 1969SOL     OW17422   1.252   1.348   9.698
 1969SOL    HW117423   1.302   1.425   9.738
 1969SOL    HW217424   1.157   1.350   9.730
 1970SOL     OW17425   1.582   0.639   9.782
 1970SOL    HW117426   1.551   0.700   9.855
 1970SOL    HW217427   1.632   0.691   9.713
 1971SOL     OW17428   0.402   0.751  10.908
 1971SOL    HW117429   0.470   0.806  10.861
 1971SOL    HW217430   0.442   0.663  10.935
 1972SOL     OW17431   0.573   0.870  10.339
 1972SOL    HW117432   0.617   0.959  10.330
 1972SOL    HW217433   0.510   0.870  10.416
 1973SOL     OW17434   1.209   0.525   9.585
 1973SOL    HW117435   1.222   0.441   9.639
 1973SOL    HW217436   1.180   0.599   9.645
 1974SOL     OW17437   0.307   0.213  10.541
 1974SOL    HW117438   0.284   0.250  10.631
 1974SOL    HW217439   0.277   0.118  10.535
 1975SOL     OW17440   0.732   0.634  10.374
 1975SOL    HW117441   0.791   0.608  10.298
 1975SOL    HW217442   0.704   0.730  10.363
 1976SOL     OW17443   1.728   0.935  11.164
 1976SOL    HW117444   1.682   0.928  11.075
 1976SOL    HW217445   1.666   0.979  11.230
 1977SOL     OW17446   0.307   0.063   9.928
 1977SOL    HW117447   0.296   0.157   9.961
 1977SOL    HW217448   0.302   0.000  10.005
 1978SOL     OW17449   1.622   0.367   9.684
 1978SOL    HW117450   1.624   0.291   9.748
 1978SOL    HW217451   1.574   0.444   9.724
 1979SOL     OW17452   1.859   1.518  10.915
 1979SOL    HW117453   1.873   1.545  10.820
 1979SOL    HW217454   1.942   1.540  10.968
 1980SOL     OW17455   1.303   0.838   9.352
 1980SOL    HW117456   1.337   0.745   9.367
 1980SOL    HW217457   1.321   0.865   9.257
 1981SOL     OW17458   0.319   0.810  10.259
 1981SOL    HW117459   0.412   0.846  10.264
 1981SOL    HW217460   0.313   0.725  10.311
 1982SOL     OW17461   0.339   0.509  10.316
 1982SOL    HW117462   0.287   0.426  10.299
 1982SOL    HW217463   0.416   0.514  10.252
 1983SOL     OW17464   1.160   0.207  10.787
 1983SOL    HW117465   1.160   0.271  10.864
 1983SOL    HW217466   1.188   0.255  10.704
 1984SOL     OW17467   0.008   1.326   9.510
 1984SOL    HW117468  -0.085   1.347   9.479
 1984SOL    HW217469   0.018   1.227   9.523
 1985SOL     OW17470   0.504   1.568  10.220
 1985SOL    HW117471   0.570   1.642  10.229
 1985SOL    HW217472   0.548   1.489  10.178
 1986SOL     OW17473   0.040   0.544  10.424
 1986SOL    HW117474   0.125   0.511  10.383
 1986SOL    HW217475   0.053   0.559  10.522
 1987SOL     OW17476   0.189   0.520  11.032
 1987SOL    HW117477   0.248   0.480  10.962
 1987SOL    HW217478   0.131   0.591  10.991
 1988SOL     OW17479   0.815   0.572   9.635
 1988SOL    HW117480   0.822   0.483   9.589
 1988SOL    HW217481   0.721   0.606   9.627
 1989SOL     OW17482   1.657   0.604  10.516
 1989SOL    HW117483   1.619   0.535  10.578
 1989SOL    HW217484   1.739   0.568  10.472
 1990SOL     OW17485   0.671   0.464  10.579
 1990SOL    HW117486   0.637   0.375  10.549
 1990SOL    HW217487   0.697   0.518  10.499
 1991SOL     OW17488   0.930   1.678  10.775
 1991SOL    HW117489   0.906   1.660  10.680
 1991SOL    HW217490   0.960   1.772  10.785
 1992SOL     OW17491   0.473   0.500   9.501
 1992SOL    HW117492   0.534   0.580   9.505
 1992SOL    HW217493   0.378   0.531   9.508
 1993SOL     OW17494   1.302   0.855   9.619
 1993SOL    HW117495   1.216   0.824   9.661
 1993SOL    HW217496   1.298   0.841   9.520
 1994SOL     OW17497   1.252   1.731  10.438
 1994SOL    HW117498   1.336   1.736  10.384
 1994SOL    HW217499   1.229   1.635  10.456
 1995SOL     OW17500   0.083   1.258  10.332
 1995SOL    HW117501   0.078   1.257  10.432
 1995SOL    HW217502   0.000   1.217  10.294
 1996SOL     OW17503   0.688   1.662  11.026
 1996SOL    HW117504   0.632   1.743  11.035
 1996SOL    HW217505   0.740   1.666  10.940
 1997SOL     OW17506   0.130   1.794  11.161
 1997SOL    HW117507   0.089   1.720  11.214
 1997SOL    HW217508   0.194   1.845  11.219
 1998SOL     OW17509   1.280   0.927   9.982
 1998SOL    HW117510   1.340   0.846   9.984
 1998SOL    HW217511   1.320   0.996   9.922
 1999SOL     OW17512   0.830   1.273  10.732
 1999SOL    HW117513   0.825   1.306  10.827
 1999SOL    HW217514   0.744   1.292  10.686
 2000SOL     OW17515   0.672   1.616   9.464
 2000SOL    HW117516   0.681   1.626   9.365
 2000SOL    HW217517   0.632   1.527   9.485
 2001SOL     OW17518   1.650   1.720  10.704
 2001SOL    HW117519   1.703   1.730  10.620
 2001SOL    HW217520   1.623   1.810  10.738
 2002SOL     OW17521   0.263   0.326  10.030
 2002SOL    HW117522   0.184   0.377   9.996
 2002SOL    HW217523   0.254   0.311  10.128
 2003SOL     OW17524   1.194   1.612   9.341
 2003SOL    HW117525   1.200   1.519   9.378
 2003SOL    HW217526   1.135   1.612   9.261
 2004SOL     OW17527   0.822   1.002  10.682
 2004SOL    HW117528   0.862   1.001  10.590
 2004SOL    HW217529   0.832   1.094  10.722
 2005SOL     OW17530   0.916   0.910   9.601
 2005SOL    HW117531   0.979   0.948   9.533
 2005SOL    HW217532   0.956   0.827   9.640
 2006SOL     OW17533   1.504   1.607   9.354
 2006SOL    HW117534   1.412   1.644   9.361
 2006SOL    HW217535   1.542   1.627   9.264
 2007SOL     OW17536   1.014   0.236  10.281
 2007SOL    HW117537   1.006   0.200  10.188
 2007SOL    HW217538   1.012   0.160  10.346
 2008SOL     OW17539   0.590   1.487   9.801
 2008SOL    HW117540   0.632   1.429   9.731
 2008SOL    HW217541   0.546   1.566   9.757
 2009SOL     OW17542   1.709   0.385  10.691
 2009SOL    HW117543   1.782   0.454  10.695
 2009SOL    HW217544   1.737   0.310  10.632
 2010SOL     OW17545   0.255   1.348   9.600
 2010SOL    HW117546   0.159   1.349   9.573
 2010SOL    HW217547   0.267   1.401   9.684
 2011SOL     OW17548   0.672   0.203  10.799
 2011SOL    HW117549   0.762   0.187  10.759
 2011SOL    HW217550   0.680   0.208  10.898
 2012SOL     OW17551   0.075   0.345   9.343
 2012SOL    HW117552  -0.017   0.317   9.314
 2012SOL    HW217553   0.106   0.422   9.287
 2013SOL     OW17554   1.440   0.856  10.708
 2013SOL    HW117555   1.383   0.908  10.645
 2013SOL    HW217556   1.536   0.868  10.684
 2014SOL     OW17557   0.072   0.166   9.628
 2014SOL    HW117558   0.055   0.249   9.574
 2014SOL    HW217559   0.162   0.129   9.606
 2015SOL     OW17560   1.183   1.335   9.429
 2015SOL    HW117561   1.084   1.324   9.431
 2015SOL    HW217562   1.217   1.350   9.522
 2016SOL     OW17563   0.613   0.842  10.741
 2016SOL    HW117564   0.669   0.923  10.724
 2016SOL    HW217565   0.672   0.762  10.744
 2017SOL     OW17566   1.674   0.883  10.564
 2017SOL    HW117567   1.647   0.794  10.527
 2017SOL    HW217568   1.675   0.951  10.491
 2018SOL     OW17569   1.225   0.325   9.759
 2018SOL    HW117570   1.290   0.251   9.748
 2018SOL    HW217571   1.245   0.375   9.843
 2019SOL     OW17572   0.594   0.745   9.962
 2019SOL    HW117573   0.644   0.830   9.943
 2019SOL    HW217574   0.506   0.747   9.914
 2020SOL     OW17575   1.777   0.342  10.952
 2020SOL    HW117576   1.760   0.373  10.858
 2020SOL    HW217577   1.693   0.305  10.990
 2021SOL     OW17578   0.859   1.374   9.326
 2021SOL    HW117579   0.813   1.389   9.414
 2021SOL    HW217580   0.903   1.459   9.296
 2022SOL     OW17581   0.859   0.956  10.171
 2022SOL    HW117582   0.913   0.887  10.219
 2022SOL    HW217583   0.827   1.025  10.237
 2023SOL     OW17584   1.083   0.984   9.397
 2023SOL    HW117585   1.060   1.037   9.315
 2023SOL    HW217586   1.164   0.928   9.378
 2024SOL     OW17587   0.079   1.240   9.963
 2024SOL    HW117588   0.078   1.193  10.051
 2024SOL    HW217589   0.161   1.212   9.912
 2025SOL     OW17590   0.672   1.391  10.934
 2025SOL    HW117591   0.594   1.341  10.972
 2025SOL    HW217592   0.669   1.486  10.965
 2026SOL     OW17593   0.428   0.424   9.830
 2026SOL    HW117594   0.458   0.352   9.768
 2026SOL    HW217595   0.389   0.384   9.913
 2027SOL     OW17596   0.317   0.547  10.590
 2027SOL    HW117597   0.355   0.488  10.662
 2027SOL    HW217598   0.357   0.521  10.502
 2028SOL     OW17599   0.812   1.586   9.997
 2028SOL    HW117600   0.844   1.596   9.903
 2028SOL    HW217601   0.733   1.524   9.999
 2029SOL     OW17602   1.001   0.034  10.464
 2029SOL    HW117603   0.938  -0.038  10.433
 2029SOL    HW217604   1.094  -0.002  10.464
 2030SOL     OW17605   0.770   1.330   9.611
 2030SOL    HW117606   0.724   1.243   9.628
 2030SOL    HW217607   0.861   1.327   9.652
 2031SOL     OW17608   0.039   1.077   9.610
 2031SOL    HW117609   0.138   1.066   9.601
 2031SOL    HW217610  -0.001   0.991   9.642
 2032SOL     OW17611   0.875   1.646   9.647
 2032SOL    HW117612   0.798   1.611   9.593
 2032SOL    HW217613   0.843   1.717   9.709
 2033SOL     OW17614   0.019   0.368  11.819
 2033SOL    HW117615  -0.063   0.411  11.858
 2033SOL    HW217616  -0.009   0.295  11.756
 2034SOL     OW17617   0.850   0.798  12.995
 2034SOL    HW117618   0.846   0.874  13.060
 2034SOL    HW217619   0.872   0.834  12.904
 2035SOL     OW17620   1.460   1.505  12.511
 2035SOL    HW117621   1.484   1.599  12.537
 2035SOL    HW217622   1.444   1.451  12.593
 2036SOL     OW17623   0.438   0.392  12.671
 2036SOL    HW117624   0.520   0.336  12.680
 2036SOL    HW217625   0.357   0.334  12.675
 2037SOL     OW17626   0.606   0.964  11.295
 2037SOL    HW117627   0.613   1.048  11.241
 2037SOL    HW217628   0.652   0.977  11.383
 2038SOL     OW17629   1.594   0.114  12.652
 2038SOL    HW117630   1.576   0.181  12.580
 2038SOL    HW217631   1.591   0.160  12.741
 2039SOL     OW17632   1.842   1.767  11.531
 2039SOL    HW117633   1.896   1.738  11.611
 2039SOL    HW217634   1.872   1.857  11.502
 2040SOL     OW17635   1.187   1.792  12.788
 2040SOL    HW117636   1.211   1.852  12.712
 2040SOL    HW217637   1.194   1.697  12.758
 2041SOL     OW17638   0.317   0.251  12.973
 2041SOL    HW117639   0.388   0.322  12.979
 2041SOL    HW217640   0.229   0.290  13.001
 2042SOL     OW17641   0.807   0.605  12.637
 2042SOL    HW117642   0.760   0.602  12.726
 2042SOL    HW217643   0.756   0.550  12.571
 2043SOL     OW17644   1.394   0.469  12.846
 2043SOL    HW117645   1.374   0.512  12.934
 2043SOL    HW217646   1.472   0.407  12.855
 2044SOL     OW17647   0.973   0.890  12.744
 2044SOL    HW117648   1.019   0.806  12.715
 2044SOL    HW217649   0.917   0.924  12.669
 2045SOL     OW17650   0.991   0.410  12.414
 2045SOL    HW117651   0.914   0.444  12.468
 2045SOL    HW217652   0.957   0.359  12.335
 2046SOL     OW17653   1.041   0.701  11.601
 2046SOL    HW117654   1.067   0.697  11.697
 2046SOL    HW217655   0.956   0.650  11.587
 2047SOL     OW17656   0.351   1.801  12.025
 2047SOL    HW117657   0.401   1.715  12.031
 2047SOL    HW217658   0.416   1.878  12.022
 2048SOL     OW17659   1.227   1.550  12.678
 2048SOL    HW117660   1.233   1.473  12.742
 2048SOL    HW217661   1.175   1.524  12.598
 2049SOL     OW17662   0.249   1.785  12.413
 2049SOL    HW117663   0.306   1.720  12.463
 2049SOL    HW217664   0.233   1.752  12.320
 2050SOL     OW17665   0.781   0.264  12.921
 2050SOL    HW117666   0.848   0.203  12.964
 2050SOL    HW217667   0.708   0.283  12.986
 2051SOL     OW17668   0.888   1.514  12.367
 2051SOL    HW117669   0.865   1.489  12.273
 2051SOL    HW217670   0.949   1.445  12.406
 2052SOL     OW17671   1.351   0.590  12.605
 2052SOL    HW117672   1.379   0.547  12.690
 2052SOL    HW217673   1.376   0.686  12.606
 2053SOL     OW17674   1.754   1.223  12.760
 2053SOL    HW117675   1.845   1.184  12.747
 2053SOL    HW217676   1.762   1.319  12.784
 2054SOL     OW17677   1.592   1.629  12.797
 2054SOL    HW117678   1.619   1.663  12.707
 2054SOL    HW217679   1.671   1.591  12.843
 2055SOL     OW17680   0.064   1.564  12.503
 2055SOL    HW117681   0.018   1.646  12.469
 2055SOL    HW217682   0.162   1.583  12.512
 2056SOL     OW17683   0.573   0.870  12.201
 2056SOL    HW117684   0.617   0.959  12.192
 2056SOL    HW217685   0.510   0.870  12.278
 2057SOL     OW17686   0.732   0.634  12.236
 2057SOL    HW117687   0.791   0.608  12.160
 2057SOL    HW217688   0.704   0.730  12.225
 2058SOL     OW17689   1.540   0.274  11.297
 2058SOL    HW117690   1.479   0.199  11.320
 2058SOL    HW217691   1.562   0.326  11.380
 2059SOL     OW17692   0.319   0.810  12.121
 2059SOL    HW117693   0.412   0.846  12.126
 2059SOL    HW217694   0.313   0.725  12.173
 2060SOL     OW17695   0.339   0.509  12.178
 2060SOL    HW117696   0.287   0.426  12.161
 2060SOL    HW217697   0.416   0.514  12.114
 2061SOL     OW17698   0.088   1.801  12.099
 2061SOL    HW117699   0.046   1.715  12.072
 2061SOL    HW217700   0.182   1.804  12.065
 2062SOL     OW17701   1.002   0.796  12.410
 2062SOL    HW117702   1.043   0.764  12.496
 2062SOL    HW217703   0.906   0.769  12.407
 2063SOL     OW17704   0.040   0.544  12.286
 2063SOL    HW117705   0.125   0.511  12.245
 2063SOL    HW217706   0.053   0.559  12.384
 2064SOL     OW17707   0.252   1.564  12.916
 2064SOL    HW117708   0.222   1.621  12.992
 2064SOL    HW217709   0.245   1.467  12.942
 2065SOL     OW17710   0.671   0.464  12.441
 2065SOL    HW117711   0.637   0.375  12.411
 2065SOL    HW217712   0.697   0.518  12.361
 2066SOL     OW17713   1.759   1.747  12.326
 2066SOL    HW117714   1.820   1.777  12.253
 2066SOL    HW217715   1.721   1.658  12.304
 2067SOL     OW17716   1.252   1.731  12.300
 2067SOL    HW117717   1.336   1.736  12.246
 2067SOL    HW217718   1.229   1.635  12.318
 2068SOL     OW17719   1.650   1.720  12.566
 2068SOL    HW117720   1.703   1.730  12.482
 2068SOL    HW217721   1.623   1.810  12.600
 2069SOL     OW17722   1.841   0.175  12.135
 2069SOL    HW117723   1.880   0.090  12.099
 2069SOL    HW217724   1.743   0.177  12.116
 2070SOL     OW17725   1.039   1.098  11.868
 2070SOL    HW117726   0.969   1.051  11.922
 2070SOL    HW217727   1.098   1.030  11.825
 2071SOL     OW17728   1.709   0.385  12.553
 2071SOL    HW117729   1.782   0.454  12.557
 2071SOL    HW217730   1.737   0.310  12.494
 2072SOL     OW17731   0.672   0.203  12.661
 2072SOL    HW117732   0.762   0.187  12.621
 2072SOL    HW217733   0.680   0.208  12.760
 2073SOL     OW17734   0.613   0.842  12.603
 2073SOL    HW117735   0.669   0.923  12.586
 2073SOL    HW217736   0.672   0.762  12.606
 2074SOL     OW17737   1.493   1.767  12.131
 2074SOL    HW117738   1.526   1.831  12.062
 2074SOL    HW217739   1.559   1.761  12.206
 2075SOL     OW17740   0.716   0.565  12.880
 2075SOL    HW117741   0.735   0.630  12.954
 2075SOL    HW217742   0.776   0.485  12.889
 2076SOL     OW17743   1.450   1.220  12.805
 2076SOL    HW117744   1.441   1.210  12.904
 2076SOL    HW217745   1.546   1.213  12.779
 2077SOL     OW17746   0.390   1.741  12.732
 2077SOL    HW117747   0.299   1.782  12.730
 2077SOL    HW217748   0.383   1.647  12.764
 2078SOL     OW17749   1.777   0.342  12.814
 2078SOL    HW117750   1.760   0.373  12.720
 2078SOL    HW217751   1.693   0.305  12.852
 2079SOL     OW17752   1.730   0.934  12.689
 2079SOL    HW117753   1.768   1.025  12.704
 2079SOL    HW217754   1.722   0.917  12.590
 2080SOL     OW17755   0.661   1.790  12.125
 2080SOL    HW117756   0.615   1.878  12.112
 2080SOL    HW217757   0.760   1.802  12.118
 2081SOL     OW17758   0.079   1.240  11.825
 2081SOL    HW117759   0.078   1.193  11.913
 2081SOL    HW217760   0.161   1.212  11.774
 2082SOL     OW17761   1.824   0.192  12.399
 2082SOL    HW117762   1.820   0.102  12.443
 2082SOL    HW217763   1.827   0.181  12.300
 2083SOL     OW17764   0.317   0.547  12.452
 2083SOL    HW117765   0.355   0.488  12.524
 2083SOL    HW217766   0.357   0.521  12.364
 2084SOL     OW17767   1.001   0.034  12.326
 2084SOL    HW117768   0.938  -0.038  12.295
 2084SOL    HW217769   1.094  -0.002  12.326
 2085SOL     OW17770   1.352   0.052  11.340
 2085SOL    HW117771   1.387   0.011  11.256
 2085SOL    HW217772   1.262   0.014  11.360
 2086SOL     OW17773   0.230   0.628  13.147
 2086SOL    HW117774   0.137   0.626  13.184
 2086SOL    HW217775   0.231   0.589  13.055
 2087SOL     OW17776   0.569   1.275  14.199
 2087SOL    HW117777   0.476   1.268  14.162
 2087SOL    HW217778   0.580   1.364  14.243
 2088SOL     OW17779   1.603   0.447  13.771
 2088SOL    HW117780   1.529   0.493  13.721
 2088SOL    HW217781   1.654   0.515  13.824
 2089SOL     OW17782   0.240   1.091  13.920
 2089SOL    HW117783   0.254   1.007  13.972
 2089SOL    HW217784   0.185   1.155  13.975
 2090SOL     OW17785   0.197   0.976  14.298
 2090SOL    HW117786   0.286   0.931  14.284
 2090SOL    HW217787   0.124   0.911  14.279
 2091SOL     OW17788   1.466   1.417  13.987
 2091SOL    HW117789   1.407   1.423  14.067
 2091SOL    HW217790   1.451   1.329  13.941
 2092SOL     OW17791   0.991   0.410  14.276
 2092SOL    HW117792   0.914   0.444  14.330
 2092SOL    HW217793   0.957   0.359  14.197
 2093SOL     OW17794   1.041   0.701  13.463
 2093SOL    HW117795   1.067   0.697  13.559
 2093SOL    HW217796   0.956   0.650  13.449
 2094SOL     OW17797   0.865   0.348  13.229
 2094SOL    HW117798   0.924   0.411  13.180
 2094SOL    HW217799   0.884   0.254  13.200
 2095SOL     OW17800   1.362   1.144  13.579
 2095SOL    HW117801   1.445   1.115  13.531
 2095SOL    HW217802   1.313   1.211  13.523
 2096SOL     OW17803   0.550   0.196  13.919
 2096SOL    HW117804   0.545   0.191  14.019
 2096SOL    HW217805   0.552   0.292  13.890
 2097SOL     OW17806   1.795   1.066  13.907
 2097SOL    HW117807   1.733   1.051  13.831
 2097SOL    HW217808   1.743   1.077  13.992
 2098SOL     OW17809   0.321   0.943  13.276
 2098SOL    HW117810   0.403   0.982  13.234
 2098SOL    HW217811   0.294   0.861  13.227
 2099SOL     OW17812   1.458   0.735  13.762
 2099SOL    HW117813   1.453   0.670  13.837
 2099SOL    HW217814   1.538   0.794  13.775
 2100SOL     OW17815   0.940   1.698  13.938
 2100SOL    HW117816   1.020   1.641  13.959
 2100SOL    HW217817   0.891   1.658  13.861
 2101SOL     OW17818   0.382   0.700  13.514
 2101SOL    HW117819   0.427   0.610  13.511
 2101SOL    HW217820   0.288   0.689  13.547
 2102SOL     OW17821   1.547   0.222  14.763
 2102SOL    HW117822   1.542   0.259  14.855
 2102SOL    HW217823   1.475   0.153  14.751
 2103SOL     OW17824   0.888   1.514  14.229
 2103SOL    HW117825   0.865   1.489  14.135
 2103SOL    HW217826   0.949   1.445  14.268
 2104SOL     OW17827   0.803   1.402  13.958
 2104SOL    HW117828   0.893   1.416  13.916
 2104SOL    HW217829   0.732   1.404  13.887
 2105SOL     OW17830   0.922   0.503  13.933
 2105SOL    HW117831   0.897   0.494  13.837
 2105SOL    HW217832   0.970   0.421  13.964
 2106SOL     OW17833   0.539   0.064  13.546
 2106SOL    HW117834   0.458   0.065  13.604
 2106SOL    HW217835   0.542   0.147  13.491
 2107SOL     OW17836   1.434   1.188  13.075
 2107SOL    HW117837   1.466   1.112  13.132
 2107SOL    HW217838   1.342   1.215  13.105
 2108SOL     OW17839   1.227   1.570  13.827
 2108SOL    HW117840   1.248   1.644  13.762
 2108SOL    HW217841   1.295   1.570  13.900
 2109SOL     OW17842   1.271   1.797  13.625
 2109SOL    HW117843   1.315   1.861  13.561
 2109SOL    HW217844   1.221   1.849  13.695
 2110SOL     OW17845   0.561   0.222  14.181
 2110SOL    HW117846   0.599   0.138  14.218
 2110SOL    HW217847   0.473   0.241  14.225
 2111SOL     OW17848   0.866   0.454  13.676
 2111SOL    HW117849   0.834   0.526  13.614
 2111SOL    HW217850   0.890   0.373  13.623
 2112SOL     OW17851   1.429   1.173  13.901
 2112SOL    HW117852   1.374   1.089  13.894
 2112SOL    HW217853   1.455   1.202  13.809
 2113SOL     OW17854   1.466   0.590  14.026
 2113SOL    HW117855   1.436   0.495  14.033
 2113SOL    HW217856   1.539   0.606  14.092
 2114SOL     OW17857   1.664   1.280  13.691
 2114SOL    HW117858   1.763   1.288  13.705
 2114SOL    HW217859   1.619   1.364  13.722
 2115SOL     OW17860   0.527   0.256  13.362
 2115SOL    HW117861   0.554   0.197  13.287
 2115SOL    HW217862   0.527   0.351  13.331
 2116SOL     OW17863   1.754   1.223  14.622
 2116SOL    HW117864   1.845   1.184  14.609
 2116SOL    HW217865   1.762   1.319  14.646
 2117SOL     OW17866   1.064   1.347  14.374
 2117SOL    HW117867   0.984   1.324  14.429
 2117SOL    HW217868   1.147   1.321  14.423
 2118SOL     OW17869   1.111   1.195  14.134
 2118SOL    HW117870   1.071   1.239  14.215
 2118SOL    HW217871   1.070   1.232  14.051
 2119SOL     OW17872   1.638   1.099  14.113
 2119SOL    HW117873   1.643   1.180  14.172
 2119SOL    HW217874   1.552   1.101  14.062
 2120SOL     OW17875   1.274   0.386  14.296
 2120SOL    HW117876   1.295   0.460  14.360
 2120SOL    HW217877   1.185   0.403  14.253
 2121SOL     OW17878   0.064   1.564  14.365
 2121SOL    HW117879   0.018   1.646  14.331
 2121SOL    HW217880   0.162   1.583  14.374
 2122SOL     OW17881   1.360   0.862  14.079
 2122SOL    HW117882   1.285   0.862  14.013
 2122SOL    HW217883   1.397   0.770  14.088
 2123SOL     OW17884   0.037   1.310  14.316
 2123SOL    HW117885   0.090   1.261  14.384
 2123SOL    HW217886   0.059   1.408  14.321
 2124SOL     OW17887   0.307   0.063  13.652
 2124SOL    HW117888   0.296   0.157  13.685
 2124SOL    HW217889   0.302   0.000  13.729
 2125SOL     OW17890   1.622   0.367  13.408
 2125SOL    HW117891   1.624   0.291  13.472
 2125SOL    HW217892   1.574   0.444  13.448
 2126SOL     OW17893   0.980   1.573  14.734
 2126SOL    HW117894   0.960   1.617  14.646
 2126SOL    HW217895   1.019   1.482  14.718
 2127SOL     OW17896   1.859   1.518  14.639
 2127SOL    HW117897   1.873   1.545  14.544
 2127SOL    HW217898   1.942   1.540  14.692
 2128SOL     OW17899   0.339   0.509  14.040
 2128SOL    HW117900   0.287   0.426  14.023
 2128SOL    HW217901   0.416   0.514  13.976
 2129SOL     OW17902   0.008   1.326  13.234
 2129SOL    HW117903  -0.085   1.347  13.203
 2129SOL    HW217904   0.018   1.227  13.247
 2130SOL     OW17905   0.088   1.801  13.961
 2130SOL    HW117906   0.046   1.715  13.934
 2130SOL    HW217907   0.182   1.804  13.927
 2131SOL     OW17908   0.671   0.464  14.303
 2131SOL    HW117909   0.637   0.375  14.273
 2131SOL    HW217910   0.697   0.518  14.223
 2132SOL     OW17911   0.473   0.500  13.225
 2132SOL    HW117912   0.534   0.580  13.229
 2132SOL    HW217913   0.378   0.531  13.232
 2133SOL     OW17914   1.347   1.059  14.268
 2133SOL    HW117915   1.371   0.996  14.194
 2133SOL    HW217916   1.257   1.099  14.250
 2134SOL     OW17917   0.688   1.662  14.750
 2134SOL    HW117918   0.632   1.743  14.759
 2134SOL    HW217919   0.740   1.666  14.664
 2135SOL     OW17920   1.280   0.927  13.706
 2135SOL    HW117921   1.340   0.846  13.708
 2135SOL    HW217922   1.320   0.996  13.646
 2136SOL     OW17923   0.830   1.273  14.456
 2136SOL    HW117924   0.825   1.306  14.551
 2136SOL    HW217925   0.744   1.292  14.410
 2137SOL     OW17926   1.841   0.175  13.997
 2137SOL    HW117927   1.880   0.090  13.961
 2137SOL    HW217928   1.743   0.177  13.978
 2138SOL     OW17929   0.263   0.326  13.754
 2138SOL    HW117930   0.184   0.377  13.720
 2138SOL    HW217931   0.254   0.311  13.852
 2139SOL     OW17932   1.194   1.612  13.065
 2139SOL    HW117933   1.200   1.519  13.102
 2139SOL    HW217934   1.135   1.612  12.985
 2140SOL     OW17935   1.614   1.292  14.323
 2140SOL    HW117936   1.674   1.295  14.403
 2140SOL    HW217937   1.539   1.356  14.336
 2141SOL     OW17938   0.255   1.348  13.324
 2141SOL    HW117939   0.159   1.349  13.297
 2141SOL    HW217940   0.267   1.401  13.408
 2142SOL     OW17941   0.075   0.345  13.067
 2142SOL    HW117942  -0.017   0.317  13.038
 2142SOL    HW217943   0.106   0.422  13.011
 2143SOL     OW17944   1.440   0.856  14.432
 2143SOL    HW117945   1.383   0.908  14.369
 2143SOL    HW217946   1.536   0.868  14.408
 2144SOL     OW17947   1.493   1.767  13.993
 2144SOL    HW117948   1.526   1.831  13.924
 2144SOL    HW217949   1.559   1.761  14.068
 2145SOL     OW17950   0.859   1.374  13.050
 2145SOL    HW117951   0.813   1.389  13.138
 2145SOL    HW217952   0.903   1.459  13.020
 2146SOL     OW17953   0.221   1.314  14.878
 2146SOL    HW117954   0.156   1.241  14.857
 2146SOL    HW217955   0.225   1.328  14.976
 2147SOL     OW17956   0.428   0.424  13.554
 2147SOL    HW117957   0.458   0.352  13.492
 2147SOL    HW217958   0.389   0.384  13.637
 2148SOL     OW17959   0.812   1.586  13.721
 2148SOL    HW117960   0.844   1.596  13.627
 2148SOL    HW217961   0.733   1.524  13.723
 2149SOL     OW17962   1.300   0.453  13.725
 2149SOL    HW117963   1.241   0.533  13.729
 2149SOL    HW217964   1.315   0.418  13.818
 2150SOL     OW17965   0.039   1.077  13.334
 2150SOL    HW117966   0.138   1.066  13.325
 2150SOL    HW217967  -0.001   0.991  13.366
 2151SOL     OW17968   0.230   0.628  15.009
 2151SOL    HW117969   0.137   0.626  15.046
 2151SOL    HW217970   0.231   0.589  14.917
 2152SOL     OW17971   0.019   0.368  15.543
 2152SOL    HW117972  -0.063   0.411  15.582
 2152SOL    HW217973  -0.009   0.295  15.480
 2153SOL     OW17974   1.135   0.703  15.613
 2153SOL    HW117975   1.192   0.781  15.588
 2153SOL    HW217976   1.075   0.729  15.689
 2154SOL     OW17977   0.685   1.012  15.561
 2154SOL    HW117978   0.754   0.996  15.631
 2154SOL    HW217979   0.612   1.069  15.599
 2155SOL     OW17980   0.686   1.161  16.700
 2155SOL    HW117981   0.746   1.240  16.714
 2155SOL    HW217982   0.600   1.192  16.659
 2156SOL     OW17983   0.335   1.435  15.958
 2156SOL    HW117984   0.257   1.404  15.905
 2156SOL    HW217985   0.393   1.493  15.901
 2157SOL     OW17986   1.603   0.447  15.633
 2157SOL    HW117987   1.529   0.493  15.583
 2157SOL    HW217988   1.654   0.515  15.686
 2158SOL     OW17989   0.231   1.713  15.379
 2158SOL    HW117990   0.265   1.790  15.433
 2158SOL    HW217991   0.275   1.713  15.289
 2159SOL     OW17992   1.127   1.341  16.587
 2159SOL    HW117993   1.174   1.341  16.675
 2159SOL    HW217994   1.079   1.254  16.576
 2160SOL     OW17995   0.122   0.643  15.459
 2160SOL    HW117996   0.077   0.555  15.476
 2160SOL    HW217997   0.121   0.697  15.543
 2161SOL     OW17998   1.842   1.767  15.255
 2161SOL    HW117999   1.896   1.738  15.335
 2161SOL    HW218000   1.872   1.857  15.226
 2162SOL     OW18001   1.293   1.228  16.320
 2162SOL    HW118002   1.330   1.155  16.262
 2162SOL    HW218003   1.345   1.233  16.405
 2163SOL     OW18004   1.281   0.345  15.841
 2163SOL    HW118005   1.195   0.295  15.828
 2163SOL    HW218006   1.343   0.291  15.897
 2164SOL     OW18007   1.576   1.662  15.203
 2164SOL    HW118008   1.665   1.708  15.206
 2164SOL    HW218009   1.555   1.638  15.108
 2165SOL     OW18010   1.394   0.469  16.571
 2165SOL    HW118011   1.374   0.512  16.659
 2165SOL    HW218012   1.472   0.407  16.580
 2166SOL     OW18013   0.076   0.811  15.685
 2166SOL    HW118014   0.175   0.799  15.694
 2166SOL    HW218015   0.052   0.906  15.706
 2167SOL     OW18016   1.719   0.585  16.728
 2167SOL    HW118017   1.693   0.674  16.692
 2167SOL    HW218018   1.717   0.517  16.655
 2168SOL     OW18019   0.550   0.196  15.781
 2168SOL    HW118020   0.545   0.191  15.881
 2168SOL    HW218021   0.552   0.292  15.752
 2169SOL     OW18022   1.458   0.735  15.624
 2169SOL    HW118023   1.453   0.670  15.699
 2169SOL    HW218024   1.538   0.794  15.637
 2170SOL     OW18025   0.464   1.743  15.219
 2170SOL    HW118026   0.497   1.782  15.305
 2170SOL    HW218027   0.540   1.736  15.154
 2171SOL     OW18028   0.940   1.698  15.800
 2171SOL    HW118029   1.020   1.641  15.821
 2171SOL    HW218030   0.891   1.658  15.723
 2172SOL     OW18031   0.922   0.503  15.795
 2172SOL    HW118032   0.897   0.494  15.699
 2172SOL    HW218033   0.970   0.421  15.826
 2173SOL     OW18034   1.227   1.570  15.689
 2173SOL    HW118035   1.248   1.644  15.624
 2173SOL    HW218036   1.295   1.570  15.762
 2174SOL     OW18037   0.561   0.222  16.044
 2174SOL    HW118038   0.599   0.138  16.081
 2174SOL    HW218039   0.473   0.241  16.088
 2175SOL     OW18040   1.466   0.590  15.889
 2175SOL    HW118041   1.436   0.495  15.896
 2175SOL    HW218042   1.539   0.606  15.955
 2176SOL     OW18043   1.754   1.223  16.485
 2176SOL    HW118044   1.845   1.184  16.472
 2176SOL    HW218045   1.762   1.319  16.509
 2177SOL     OW18046   1.064   1.347  16.237
 2177SOL    HW118047   0.984   1.324  16.292
 2177SOL    HW218048   1.147   1.321  16.286
 2178SOL     OW18049   1.592   1.629  16.522
 2178SOL    HW118050   1.619   1.663  16.432
 2178SOL    HW218051   1.671   1.591  16.568
 2179SOL     OW18052   0.566   0.537  15.761
 2179SOL    HW118053   0.578   0.603  15.687
 2179SOL    HW218054   0.612   0.571  15.844
 2180SOL     OW18055   1.272   1.445  16.039
 2180SOL    HW118056   1.319   1.458  16.126
 2180SOL    HW218057   1.206   1.371  16.048
 2181SOL     OW18058   0.573   0.870  15.926
 2181SOL    HW118059   0.617   0.959  15.917
 2181SOL    HW218060   0.510   0.870  16.003
 2182SOL     OW18061   1.360   0.862  15.942
 2182SOL    HW118062   1.285   0.862  15.876
 2182SOL    HW218063   1.397   0.770  15.951
 2183SOL     OW18064   0.037   1.310  16.179
 2183SOL    HW118065   0.090   1.261  16.247
 2183SOL    HW218066   0.059   1.408  16.184
 2184SOL     OW18067   0.732   0.634  15.961
 2184SOL    HW118068   0.791   0.608  15.885
 2184SOL    HW218069   0.704   0.730  15.950
 2185SOL     OW18070   1.728   0.935  16.751
 2185SOL    HW118071   1.682   0.928  16.662
 2185SOL    HW218072   1.666   0.979  16.817
 2186SOL     OW18073   1.622   0.367  15.270
 2186SOL    HW118074   1.624   0.291  15.334
 2186SOL    HW218075   1.574   0.444  15.310
 2187SOL     OW18076   1.023   0.766  15.863
 2187SOL    HW118077   1.038   0.787  15.959
 2187SOL    HW218078   0.993   0.671  15.854
 2188SOL     OW18079   1.859   1.518  16.502
 2188SOL    HW118080   1.873   1.545  16.407
 2188SOL    HW218081   1.942   1.540  16.555
 2189SOL     OW18082   1.138   0.380  16.575
 2189SOL    HW118083   1.093   0.443  16.639
 2189SOL    HW218084   1.231   0.411  16.558
 2190SOL     OW18085   1.160   0.207  16.374
 2190SOL    HW118086   1.160   0.271  16.451
 2190SOL    HW218087   1.188   0.255  16.291
 2191SOL     OW18088   0.008   1.326  15.096
 2191SOL    HW118089  -0.085   1.347  15.065
 2191SOL    HW218090   0.018   1.227  15.109
 2192SOL     OW18091   0.504   1.568  15.806
 2192SOL    HW118092   0.570   1.642  15.815
 2192SOL    HW218093   0.548   1.489  15.764
 2193SOL     OW18094   1.002   0.796  16.135
 2193SOL    HW118095   1.043   0.764  16.221
 2193SOL    HW218096   0.906   0.769  16.132
 2194SOL     OW18097   1.369   0.950  16.557
 2194SOL    HW118098   1.408   1.039  16.577
 2194SOL    HW218099   1.379   0.930  16.460
 2195SOL     OW18100   0.671   0.464  16.166
 2195SOL    HW118101   0.637   0.375  16.136
 2195SOL    HW218102   0.697   0.518  16.086
 2196SOL     OW18103   1.347   1.059  16.131
 2196SOL    HW118104   1.371   0.996  16.057
 2196SOL    HW218105   1.257   1.099  16.113
 2197SOL     OW18106   1.726   0.135  15.419
 2197SOL    HW118107   1.799   0.118  15.352
 2197SOL    HW218108   1.695   0.048  15.457
 2198SOL     OW18109   1.280   0.927  15.568
 2198SOL    HW118110   1.340   0.846  15.570
 2198SOL    HW218111   1.320   0.996  15.508
 2199SOL     OW18112   1.841   0.175  15.860
 2199SOL    HW118113   1.880   0.090  15.824
 2199SOL    HW218114   1.743   0.177  15.841
 2200SOL     OW18115   0.255   1.348  15.186
 2200SOL    HW118116   0.159   1.349  15.159
 2200SOL    HW218117   0.267   1.401  15.270
 2201SOL     OW18118   1.440   0.856  16.295
 2201SOL    HW118119   1.383   0.908  16.232
 2201SOL    HW218120   1.536   0.868  16.271
 2202SOL     OW18121   0.072   0.166  15.214
 2202SOL    HW118122   0.055   0.249  15.160
 2202SOL    HW218123   0.162   0.129  15.192
 2203SOL     OW18124   1.450   1.220  16.530
 2203SOL    HW118125   1.441   1.210  16.629
 2203SOL    HW218126   1.546   1.213  16.504
 2204SOL     OW18127   1.777   0.342  16.539
 2204SOL    HW118128   1.760   0.373  16.445
 2204SOL    HW218129   1.693   0.305  16.577
 2205SOL     OW18130   0.859   1.374  14.912
 2205SOL    HW118131   0.813   1.389  15.000
 2205SOL    HW218132   0.903   1.459  14.882
 2206SOL     OW18133   0.859   0.956  15.757
 2206SOL    HW118134   0.913   0.887  15.805
 2206SOL    HW218135   0.827   1.025  15.823
 2207SOL     OW18136   1.824   0.192  16.124
 2207SOL    HW118137   1.820   0.102  16.168
 2207SOL    HW218138   1.827   0.181  16.025
 2208SOL     OW18139   1.424   0.214  16.009
 2208SOL    HW118140   1.476   0.149  16.064
 2208SOL    HW218141   1.375   0.277  16.070
 2209SOL     OW18142   1.593   0.221  15.778
 2209SOL    HW118143   1.509   0.220  15.832
 2209SOL    HW218144   1.595   0.304  15.722
 2210SOL     OW18145   0.230   0.628  16.872
 2210SOL    HW118146   0.137   0.626  16.909
 2210SOL    HW218147   0.231   0.589  16.780
 2211SOL     OW18148   0.225   0.275  17.755
 2211SOL    HW118149   0.260   0.258  17.847
 2211SOL    HW218150   0.137   0.230  17.743
 2212SOL     OW18151   1.555   1.511  17.462
 2212SOL    HW118152   1.498   1.495  17.543
 2212SOL    HW218153   1.496   1.521  17.382
 2213SOL     OW18154   1.135   0.703  17.476
 2213SOL    HW118155   1.192   0.781  17.451
 2213SOL    HW218156   1.075   0.729  17.552
 2214SOL     OW18157   0.240   1.091  17.645
 2214SOL    HW118158   0.254   1.007  17.697
 2214SOL    HW218159   0.185   1.155  17.700
 2215SOL     OW18160   1.842   1.767  17.118
 2215SOL    HW118161   1.896   1.738  17.198
 2215SOL    HW218162   1.872   1.857  17.089
 2216SOL     OW18163   1.689   0.922  17.371
 2216SOL    HW118164   1.784   0.893  17.379
 2216SOL    HW218165   1.681   0.987  17.296
 2217SOL     OW18166   1.525   0.999  16.949
 2217SOL    HW118167   1.462   0.923  16.962
 2217SOL    HW218168   1.573   1.017  17.035
 2218SOL     OW18169   1.667   1.714  17.331
 2218SOL    HW118170   1.626   1.691  17.243
 2218SOL    HW218171   1.649   1.640  17.396
 2219SOL     OW18172   1.281   0.345  17.703
 2219SOL    HW118173   1.195   0.295  17.690
 2219SOL    HW218174   1.343   0.291  17.759
 2220SOL     OW18175   1.041   0.701  17.188
 2220SOL    HW118176   1.067   0.697  17.284
 2220SOL    HW218177   0.956   0.650  17.174
 2221SOL     OW18178   1.362   1.144  17.304
 2221SOL    HW118179   1.445   1.115  17.256
 2221SOL    HW218180   1.313   1.211  17.248
 2222SOL     OW18181   1.008   1.456  17.236
 2222SOL    HW118182   0.962   1.528  17.184
 2222SOL    HW218183   1.004   1.476  17.334
 2223SOL     OW18184   1.795   1.066  17.632
 2223SOL    HW118185   1.733   1.051  17.556
 2223SOL    HW218186   1.743   1.077  17.717
 2224SOL     OW18187   0.321   0.943  17.001
 2224SOL    HW118188   0.403   0.982  16.959
 2224SOL    HW218189   0.294   0.861  16.952
 2225SOL     OW18190   1.111   1.776  16.996
 2225SOL    HW118191   1.051   1.714  17.046
 2225SOL    HW218192   1.142   1.732  16.911
 2226SOL     OW18193   0.464   1.743  17.082
 2226SOL    HW118194   0.497   1.782  17.168
 2226SOL    HW218195   0.540   1.736  17.017
 2227SOL     OW18196   0.922   0.503  17.658
 2227SOL    HW118197   0.897   0.494  17.562
 2227SOL    HW218198   0.970   0.421  17.689
 2228SOL     OW18199   1.434   1.188  16.800
 2228SOL    HW118200   1.466   1.112  16.857
 2228SOL    HW218201   1.342   1.215  16.830
 2229SOL     OW18202   1.271   1.797  17.350
 2229SOL    HW118203   1.315   1.861  17.286
 2229SOL    HW218204   1.221   1.849  17.420
 2230SOL     OW18205   0.866   0.454  17.401
 2230SOL    HW118206   0.834   0.526  17.339
 2230SOL    HW218207   0.890   0.373  17.348
 2231SOL     OW18208   1.466   0.590  17.751
 2231SOL    HW118209   1.436   0.495  17.758
 2231SOL    HW218210   1.539   0.606  17.817
 2232SOL     OW18211   1.857   0.833  17.136
 2232SOL    HW118212   1.899   0.769  17.200
 2232SOL    HW218213   1.819   0.782  17.058
 2233SOL     OW18214   0.488   1.385  16.933
 2233SOL    HW118215   0.401   1.370  16.980
 2233SOL    HW218216   0.471   1.411  16.838
 2234SOL     OW18217   1.390   0.575  16.837
 2234SOL    HW118218   1.336   0.554  16.918
 2234SOL    HW218219   1.481   0.534  16.846
 2235SOL     OW18220   0.527   0.256  17.087
 2235SOL    HW118221   0.554   0.197  17.012
 2235SOL    HW218222   0.527   0.351  17.056
 2236SOL     OW18223   1.111   1.195  17.859
 2236SOL    HW118224   1.071   1.239  17.940
 2236SOL    HW218225   1.070   1.232  17.776
 2237SOL     OW18226   1.638   1.099  17.838
 2237SOL    HW118227   1.643   1.180  17.897
 2237SOL    HW218228   1.552   1.101  17.787
 2238SOL     OW18229   1.272   1.445  17.901
 2238SOL    HW118230   1.319   1.458  17.988
 2238SOL    HW218231   1.206   1.371  17.910
 2239SOL     OW18232   1.023   0.766  17.725
 2239SOL    HW118233   1.038   0.787  17.821
 2239SOL    HW218234   0.993   0.671  17.716
 2240SOL     OW18235   1.303   0.838  16.801
 2240SOL    HW118236   1.337   0.745  16.816
 2240SOL    HW218237   1.321   0.865  16.706
 2241SOL     OW18238   0.319   0.810  17.708
 2241SOL    HW118239   0.412   0.846  17.713
 2241SOL    HW218240   0.313   0.725  17.760
 2242SOL     OW18241   0.339   0.509  17.765
 2242SOL    HW118242   0.287   0.426  17.748
 2242SOL    HW218243   0.416   0.514  17.701
 2243SOL     OW18244   0.008   1.326  16.959
 2243SOL    HW118245  -0.085   1.347  16.928
 2243SOL    HW218246   0.018   1.227  16.972
 2244SOL     OW18247   0.040   0.544  17.873
 2244SOL    HW118248   0.125   0.511  17.832
 2244SOL    HW218249   0.053   0.559  17.971
 2245SOL     OW18250   0.815   0.572  17.084
 2245SOL    HW118251   0.822   0.483  17.038
 2245SOL    HW218252   0.721   0.606  17.076
 2246SOL     OW18253   1.657   0.604  17.965
 2246SOL    HW118254   1.619   0.535  18.027
 2246SOL    HW218255   1.739   0.568  17.921
 2247SOL     OW18256   0.671   0.464  18.028
 2247SOL    HW118257   0.637   0.375  17.998
 2247SOL    HW218258   0.697   0.518  17.948
 2248SOL     OW18259   0.473   0.500  16.950
 2248SOL    HW118260   0.534   0.580  16.954
 2248SOL    HW218261   0.378   0.531  16.957
 2249SOL     OW18262   1.302   0.855  17.068
 2249SOL    HW118263   1.216   0.824  17.110
 2249SOL    HW218264   1.298   0.841  16.969
 2250SOL     OW18265   0.083   1.258  17.781
 2250SOL    HW118266   0.078   1.257  17.881
 2250SOL    HW218267   0.000   1.217  17.743
 2251SOL     OW18268   1.280   0.927  17.431
 2251SOL    HW118269   1.340   0.846  17.433
 2251SOL    HW218270   1.320   0.996  17.371
 2252SOL     OW18271   0.672   1.616  16.913
 2252SOL    HW118272   0.681   1.626  16.814
 2252SOL    HW218273   0.632   1.527  16.934
 2253SOL     OW18274   0.263   0.326  17.479
 2253SOL    HW118275   0.184   0.377  17.445
 2253SOL    HW218276   0.254   0.311  17.577
 2254SOL     OW18277   1.039   1.098  17.455
 2254SOL    HW118278   0.969   1.051  17.509
 2254SOL    HW218279   1.098   1.030  17.412
 2255SOL     OW18280   1.014   0.236  17.730
 2255SOL    HW118281   1.006   0.200  17.637
 2255SOL    HW218282   1.012   0.160  17.795
 2256SOL     OW18283   0.255   1.348  17.049
 2256SOL    HW118284   0.159   1.349  17.022
 2256SOL    HW218285   0.267   1.401  17.133
 2257SOL     OW18286   0.072   0.166  17.077
 2257SOL    HW118287   0.055   0.249  17.023
 2257SOL    HW218288   0.162   0.129  17.055
 2258SOL     OW18289   1.183   1.335  16.878
 2258SOL    HW118290   1.084   1.324  16.880
 2258SOL    HW218291   1.217   1.350  16.971
 2259SOL     OW18292   0.859   1.374  16.775
 2259SOL    HW118293   0.813   1.389  16.863
 2259SOL    HW218294   0.903   1.459  16.745
 2260SOL     OW18295   1.861   1.569  17.610
 2260SOL    HW118296   1.790   1.557  17.540
 2260SOL    HW218297   1.862   1.490  17.670
 2261SOL     OW18298   0.428   0.424  17.279
 2261SOL    HW118299   0.458   0.352  17.217
 2261SOL    HW218300   0.389   0.384  17.362
 2262SOL     OW18301   1.424   0.214  17.871
 2262SOL    HW118302   1.476   0.149  17.926
 2262SOL    HW218303   1.375   0.277  17.932
 2263SOL     OW18304   1.352   0.052  16.927
 2263SOL    HW118305   1.387   0.011  16.843
 2263SOL    HW218306   1.262   0.014  16.947
 2264SOL     OW18307   1.300   0.453  17.450
 2264SOL    HW118308   1.241   0.533  17.454
 2264SOL    HW218309   1.315   0.418  17.543
 2265SOL     OW18310   0.039   1.077  17.059
 2265SOL    HW118311   0.138   1.066  17.050
 2265SOL    HW218312  -0.001   0.991  17.091
 2266SOL     OW18313   0.875   1.646  17.096
 2266SOL    HW118314   0.798   1.611  17.042
 2266SOL    HW218315   0.843   1.717  17.158
 2267SOL     OW18316   1.555   3.373   0.703
 2267SOL    HW118317   1.498   3.357   0.784
 2267SOL    HW218318   1.496   3.383   0.623
 2268SOL     OW18319   1.135   2.565   0.717
 2268SOL    HW118320   1.192   2.643   0.692
 2268SOL    HW218321   1.075   2.591   0.793
 2269SOL     OW18322   0.850   2.660   1.823
 2269SOL    HW118323   0.846   2.736   1.888
 2269SOL    HW218324   0.872   2.696   1.732
 2270SOL     OW18325   0.686   3.023   1.803
 2270SOL    HW118326   0.746   3.102   1.817
 2270SOL    HW218327   0.600   3.054   1.762
 2271SOL     OW18328   1.460   3.367   1.339
 2271SOL    HW118329   1.484   3.461   1.365
 2271SOL    HW218330   1.444   3.313   1.421
 2272SOL     OW18331   1.603   2.309   0.737
 2272SOL    HW118332   1.529   2.355   0.687
 2272SOL    HW218333   1.654   2.377   0.790
 2273SOL     OW18334   0.231   3.575   0.483
 2273SOL    HW118335   0.265   3.652   0.537
 2273SOL    HW218336   0.275   3.575   0.393
 2274SOL     OW18337   1.127   3.203   1.690
 2274SOL    HW118338   1.174   3.203   1.778
 2274SOL    HW218339   1.079   3.116   1.679
 2275SOL     OW18340   0.230   3.296   0.538
 2275SOL    HW118341   0.204   3.392   0.538
 2275SOL    HW218342   0.159   3.242   0.583
 2276SOL     OW18343   0.620   3.648   1.439
 2276SOL    HW118344   0.528   3.631   1.474
 2276SOL    HW218345   0.648   3.740   1.465
 2277SOL     OW18346   1.594   1.976   1.480
 2277SOL    HW118347   1.576   2.043   1.408
 2277SOL    HW218348   1.591   2.022   1.569
 2278SOL     OW18349   1.842   3.629   0.359
 2278SOL    HW118350   1.896   3.600   0.439
 2278SOL    HW218351   1.872   3.719   0.330
 2279SOL     OW18352   0.113   2.599   1.597
 2279SOL    HW118353   0.201   2.586   1.642
 2279SOL    HW218354   0.100   2.696   1.575
 2280SOL     OW18355   0.613   3.227   0.726
 2280SOL    HW118356   0.564   3.140   0.735
 2280SOL    HW218357   0.590   3.270   0.639
 2281SOL     OW18358   1.187   3.654   1.616
 2281SOL    HW118359   1.211   3.714   1.540
 2281SOL    HW218360   1.194   3.559   1.586
 2282SOL     OW18361   0.317   2.113   1.801
 2282SOL    HW118362   0.388   2.184   1.807
 2282SOL    HW218363   0.229   2.152   1.829
 2283SOL     OW18364   1.667   3.576   0.572
 2283SOL    HW118365   1.626   3.553   0.484
 2283SOL    HW218366   1.649   3.502   0.637
 2284SOL     OW18367   1.281   2.207   0.944
 2284SOL    HW118368   1.195   2.157   0.931
 2284SOL    HW218369   1.343   2.153   1.000
 2285SOL     OW18370   1.576   3.524   0.307
 2285SOL    HW118371   1.665   3.570   0.310
 2285SOL    HW218372   1.555   3.500   0.212
 2286SOL     OW18373   0.807   2.467   1.465
 2286SOL    HW118374   0.760   2.464   1.554
 2286SOL    HW218375   0.756   2.412   1.399
 2287SOL     OW18376   0.973   2.752   1.572
 2287SOL    HW118377   1.019   2.668   1.543
 2287SOL    HW218378   0.917   2.786   1.497
 2288SOL     OW18379   1.041   2.563   0.429
 2288SOL    HW118380   1.067   2.559   0.525
 2288SOL    HW218381   0.956   2.512   0.415
 2289SOL     OW18382   0.130   3.683   1.571
 2289SOL    HW118383   0.120   3.668   1.670
 2289SOL    HW218384   0.044   3.719   1.535
 2290SOL     OW18385   0.865   2.210   0.195
 2290SOL    HW118386   0.924   2.273   0.146
 2290SOL    HW218387   0.884   2.116   0.166
 2291SOL     OW18388   1.719   2.447   1.831
 2291SOL    HW118389   1.693   2.536   1.795
 2291SOL    HW218390   1.717   2.379   1.758
 2292SOL     OW18391   1.362   3.006   0.545
 2292SOL    HW118392   1.445   2.977   0.497
 2292SOL    HW218393   1.313   3.073   0.489
 2293SOL     OW18394   1.008   3.318   0.477
 2293SOL    HW118395   0.962   3.390   0.425
 2293SOL    HW218396   1.004   3.338   0.575
 2294SOL     OW18397   1.227   3.412   1.506
 2294SOL    HW118398   1.233   3.335   1.570
 2294SOL    HW218399   1.175   3.386   1.426
 2295SOL     OW18400   1.458   2.597   0.728
 2295SOL    HW118401   1.453   2.532   0.803
 2295SOL    HW218402   1.538   2.656   0.741
 2296SOL     OW18403   0.461   3.128   1.727
 2296SOL    HW118404   0.411   3.129   1.641
 2296SOL    HW218405   0.398   3.110   1.803
 2297SOL     OW18406   1.111   3.638   0.237
 2297SOL    HW118407   1.051   3.576   0.287
 2297SOL    HW218408   1.142   3.594   0.152
 2298SOL     OW18409   0.464   3.605   0.323
 2298SOL    HW118410   0.497   3.644   0.409
 2298SOL    HW218411   0.540   3.598   0.258
 2299SOL     OW18412   0.249   3.647   1.241
 2299SOL    HW118413   0.306   3.582   1.291
 2299SOL    HW218414   0.233   3.614   1.148
 2300SOL     OW18415   0.940   3.560   0.904
 2300SOL    HW118416   1.020   3.503   0.925
 2300SOL    HW218417   0.891   3.520   0.827
 2301SOL     OW18418   1.547   2.084   1.729
 2301SOL    HW118419   1.542   2.121   1.821
 2301SOL    HW218420   1.475   2.015   1.717
 2302SOL     OW18421   0.614   1.984   0.117
 2302SOL    HW118422   0.712   1.962   0.124
 2302SOL    HW218423   0.583   1.967   0.024
 2303SOL     OW18424   0.781   2.126   1.749
 2303SOL    HW118425   0.848   2.065   1.792
 2303SOL    HW218426   0.708   2.145   1.814
 2304SOL     OW18427   0.803   3.264   0.924
 2304SOL    HW118428   0.893   3.278   0.882
 2304SOL    HW218429   0.732   3.266   0.853
 2305SOL     OW18430   0.922   2.365   0.899
 2305SOL    HW118431   0.897   2.356   0.803
 2305SOL    HW218432   0.970   2.283   0.930
 2306SOL     OW18433   0.539   1.926   0.512
 2306SOL    HW118434   0.458   1.927   0.570
 2306SOL    HW218435   0.542   2.009   0.457
 2307SOL     OW18436   1.271   3.659   0.591
 2307SOL    HW118437   1.315   3.723   0.527
 2307SOL    HW218438   1.221   3.711   0.661
 2308SOL     OW18439   1.032   2.411   0.016
 2308SOL    HW118440   0.991   2.493  -0.023
 2308SOL    HW218441   1.096   2.437   0.089
 2309SOL     OW18442   0.078   2.418   1.386
 2309SOL    HW118443   0.170   2.417   1.345
 2309SOL    HW218444   0.072   2.492   1.453
 2310SOL     OW18445   0.866   2.316   0.642
 2310SOL    HW118446   0.834   2.388   0.580
 2310SOL    HW218447   0.890   2.235   0.589
 2311SOL     OW18448   1.466   2.452   0.992
 2311SOL    HW118449   1.436   2.357   0.999
 2311SOL    HW218450   1.539   2.468   1.058
 2312SOL     OW18451   1.664   3.142   0.657
 2312SOL    HW118452   1.763   3.150   0.671
 2312SOL    HW218453   1.619   3.226   0.688
 2313SOL     OW18454   0.527   2.118   0.328
 2313SOL    HW118455   0.554   2.059   0.253
 2313SOL    HW218456   0.527   2.213   0.297
 2314SOL     OW18457   1.754   3.085   1.588
 2314SOL    HW118458   1.845   3.046   1.575
 2314SOL    HW218459   1.762   3.181   1.612
 2315SOL     OW18460   1.064   3.209   1.340
 2315SOL    HW118461   0.984   3.186   1.395
 2315SOL    HW218462   1.147   3.183   1.389
 2316SOL     OW18463   1.592   3.491   1.625
 2316SOL    HW118464   1.619   3.525   1.535
 2316SOL    HW218465   1.671   3.453   1.671
 2317SOL     OW18466   1.111   3.057   1.100
 2317SOL    HW118467   1.071   3.101   1.181
 2317SOL    HW218468   1.070   3.094   1.017
 2318SOL     OW18469   0.915   1.951   1.402
 2318SOL    HW118470   0.940   1.931   1.307
 2318SOL    HW218471   0.987   2.007   1.444
 2319SOL     OW18472   0.980   2.978   1.719
 2319SOL    HW118473   0.881   2.984   1.729
 2319SOL    HW218474   1.003   2.898   1.663
 2320SOL     OW18475   0.410   2.675   1.251
 2320SOL    HW118476   0.496   2.687   1.301
 2320SOL    HW218477   0.368   2.588   1.278
 2321SOL     OW18478   1.274   2.248   1.262
 2321SOL    HW118479   1.295   2.322   1.326
 2321SOL    HW218480   1.185   2.265   1.219
 2322SOL     OW18481   0.367   2.962   0.501
 2322SOL    HW118482   0.360   3.045   0.445
 2322SOL    HW218483   0.371   2.882   0.441
 2323SOL     OW18484   1.252   3.210   0.388
 2323SOL    HW118485   1.302   3.287   0.428
 2323SOL    HW218486   1.157   3.212   0.420
 2324SOL     OW18487   1.582   2.501   0.472
 2324SOL    HW118488   1.551   2.562   0.545
 2324SOL    HW218489   1.632   2.553   0.403
 2325SOL     OW18490   0.402   2.613   1.598
 2325SOL    HW118491   0.470   2.668   1.551
 2325SOL    HW218492   0.442   2.525   1.625
 2326SOL     OW18493   1.013   1.967   1.770
 2326SOL    HW118494   1.019   2.052   1.718
 2326SOL    HW218495   1.045   1.891   1.713
 2327SOL     OW18496   0.504   1.912   1.740
 2327SOL    HW118497   0.462   1.855   1.670
 2327SOL    HW218498   0.438   1.981   1.772
 2328SOL     OW18499   1.360   2.724   1.045
 2328SOL    HW118500   1.285   2.724   0.979
 2328SOL    HW218501   1.397   2.632   1.054
 2329SOL     OW18502   1.728   2.797   1.854
 2329SOL    HW118503   1.682   2.790   1.765
 2329SOL    HW218504   1.666   2.841   1.920
 2330SOL     OW18505   0.980   3.435   1.700
 2330SOL    HW118506   0.960   3.479   1.612
 2330SOL    HW218507   1.019   3.344   1.684
 2331SOL     OW18508   1.859   3.380   1.605
 2331SOL    HW118509   1.873   3.407   1.510
 2331SOL    HW218510   1.942   3.402   1.658
 2332SOL     OW18511   0.350   2.760   1.804
 2332SOL    HW118512   0.426   2.804   1.852
 2332SOL    HW218513   0.385   2.713   1.722
 2333SOL     OW18514   1.303   2.700   0.042
 2333SOL    HW118515   1.337   2.607   0.057
 2333SOL    HW218516   1.321   2.727  -0.053
 2334SOL     OW18517   1.068   3.195   0.849
 2334SOL    HW118518   1.075   3.111   0.794
 2334SOL    HW218519   1.130   3.264   0.813
 2335SOL     OW18520   1.138   2.242   1.678
 2335SOL    HW118521   1.093   2.305   1.742
 2335SOL    HW218522   1.231   2.273   1.661
 2336SOL     OW18523   1.160   2.069   1.477
 2336SOL    HW118524   1.160   2.133   1.554
 2336SOL    HW218525   1.188   2.117   1.394
 2337SOL     OW18526   0.504   3.430   0.910
 2337SOL    HW118527   0.570   3.504   0.919
 2337SOL    HW218528   0.548   3.351   0.868
 2338SOL     OW18529   0.189   2.382   1.722
 2338SOL    HW118530   0.248   2.342   1.652
 2338SOL    HW218531   0.131   2.453   1.681
 2339SOL     OW18532   0.815   2.434   0.325
 2339SOL    HW118533   0.822   2.345   0.279
 2339SOL    HW218534   0.721   2.468   0.317
 2340SOL     OW18535   1.657   2.466   1.206
 2340SOL    HW118536   1.619   2.397   1.268
 2340SOL    HW218537   1.739   2.430   1.162
 2341SOL     OW18538   1.347   2.921   1.234
 2341SOL    HW118539   1.371   2.858   1.160
 2341SOL    HW218540   1.257   2.961   1.216
 2342SOL     OW18541   1.759   3.609   1.154
 2342SOL    HW118542   1.820   3.639   1.081
 2342SOL    HW218543   1.721   3.520   1.132
 2343SOL     OW18544   0.083   3.120   1.022
 2343SOL    HW118545   0.078   3.119   1.122
 2343SOL    HW218546   0.000   3.079   0.984
 2344SOL     OW18547   0.903   1.948   0.133
 2344SOL    HW118548   0.954   1.949   0.047
 2344SOL    HW218549   0.959   1.906   0.204
 2345SOL     OW18550   1.388   3.435   0.477
 2345SOL    HW118551   1.455   3.447   0.403
 2345SOL    HW218552   1.348   3.524   0.500
 2346SOL     OW18553   0.130   3.656   1.851
 2346SOL    HW118554   0.089   3.582   1.904
 2346SOL    HW218555   0.194   3.707   1.909
 2347SOL     OW18556   1.280   2.789   0.672
 2347SOL    HW118557   1.340   2.708   0.674
 2347SOL    HW218558   1.320   2.858   0.612
 2348SOL     OW18559   0.830   3.135   1.422
 2348SOL    HW118560   0.825   3.168   1.517
 2348SOL    HW218561   0.744   3.154   1.376
 2349SOL     OW18562   1.650   3.582   1.394
 2349SOL    HW118563   1.703   3.592   1.310
 2349SOL    HW218564   1.623   3.672   1.428
 2350SOL     OW18565   1.194   3.474   0.031
 2350SOL    HW118566   1.200   3.381   0.068
 2350SOL    HW218567   1.135   3.474  -0.049
 2351SOL     OW18568   0.916   2.772   0.291
 2351SOL    HW118569   0.979   2.810   0.223
 2351SOL    HW218570   0.956   2.689   0.330
 2352SOL     OW18571   1.504   3.469   0.044
 2352SOL    HW118572   1.412   3.506   0.051
 2352SOL    HW218573   1.542   3.489  -0.046
 2353SOL     OW18574   1.039   2.960   0.696
 2353SOL    HW118575   0.969   2.913   0.750
 2353SOL    HW218576   1.098   2.892   0.653
 2354SOL     OW18577   0.590   3.349   0.491
 2354SOL    HW118578   0.632   3.291   0.421
 2354SOL    HW218579   0.546   3.428   0.447
 2355SOL     OW18580   0.255   3.210   0.290
 2355SOL    HW118581   0.159   3.211   0.263
 2355SOL    HW218582   0.267   3.263   0.374
 2356SOL     OW18583   0.105   2.875   1.726
 2356SOL    HW118584   0.028   2.842   1.780
 2356SOL    HW218585   0.190   2.845   1.768
 2357SOL     OW18586   0.672   2.065   1.489
 2357SOL    HW118587   0.762   2.049   1.449
 2357SOL    HW218588   0.680   2.070   1.588
 2358SOL     OW18589   1.183   3.197   0.119
 2358SOL    HW118590   1.084   3.186   0.121
 2358SOL    HW218591   1.217   3.212   0.212
 2359SOL     OW18592   0.613   2.704   1.431
 2359SOL    HW118593   0.669   2.785   1.414
 2359SOL    HW218594   0.672   2.624   1.434
 2360SOL     OW18595   1.493   3.629   0.959
 2360SOL    HW118596   1.526   3.693   0.890
 2360SOL    HW218597   1.559   3.623   1.034
 2361SOL     OW18598   0.716   2.427   1.708
 2361SOL    HW118599   0.735   2.492   1.782
 2361SOL    HW218600   0.776   2.347   1.717
 2362SOL     OW18601   1.450   3.082   1.633
 2362SOL    HW118602   1.441   3.072   1.732
 2362SOL    HW218603   1.546   3.075   1.607
 2363SOL     OW18604   0.859   3.236   0.016
 2363SOL    HW118605   0.813   3.251   0.104
 2363SOL    HW218606   0.903   3.321  -0.014
 2364SOL     OW18607   0.661   3.652   0.953
 2364SOL    HW118608   0.615   3.740   0.940
 2364SOL    HW218609   0.760   3.664   0.946
 2365SOL     OW18610   0.859   2.818   0.861
 2365SOL    HW118611   0.913   2.749   0.909
 2365SOL    HW218612   0.827   2.887   0.927
 2366SOL     OW18613   1.861   3.431   0.851
 2366SOL    HW118614   1.790   3.419   0.781
 2366SOL    HW218615   1.862   3.352   0.911
 2367SOL     OW18616   0.672   3.253   1.624
 2367SOL    HW118617   0.594   3.203   1.662
 2367SOL    HW218618   0.669   3.348   1.655
 2368SOL     OW18619   1.824   2.054   1.227
 2368SOL    HW118620   1.820   1.964   1.271
 2368SOL    HW218621   1.827   2.043   1.128
 2369SOL     OW18622   1.705   3.349   1.104
 2369SOL    HW118623   1.612   3.324   1.077
 2369SOL    HW218624   1.731   3.299   1.186
 2370SOL     OW18625   0.317   2.409   1.280
 2370SOL    HW118626   0.355   2.350   1.352
 2370SOL    HW218627   0.357   2.383   1.192
 2371SOL     OW18628   0.812   3.448   0.687
 2371SOL    HW118629   0.844   3.458   0.593
 2371SOL    HW218630   0.733   3.386   0.689
 2372SOL     OW18631   0.770   3.192   0.301
 2372SOL    HW118632   0.724   3.105   0.318
 2372SOL    HW218633   0.861   3.189   0.342
 2373SOL     OW18634   1.352   1.914   0.168
 2373SOL    HW118635   1.387   1.873   0.084
 2373SOL    HW218636   1.262   1.876   0.188
 2374SOL     OW18637   1.300   2.315   0.691
 2374SOL    HW118638   1.241   2.395   0.695
 2374SOL    HW218639   1.315   2.280   0.784
 2375SOL     OW18640   0.039   2.939   0.300
 2375SOL    HW118641   0.138   2.928   0.291
 2375SOL    HW218642  -0.001   2.853   0.332
 2376SOL     OW18643   0.875   3.508   0.337
 2376SOL    HW118644   0.798   3.473   0.283
 2376SOL    HW218645   0.843   3.579   0.399
 2377SOL     OW18646   0.230   2.490   1.975
 2377SOL    HW118647   0.137   2.488   2.012
 2377SOL    HW218648   0.231   2.451   1.883
 2378SOL     OW18649   0.225   2.137   2.858
 2378SOL    HW118650   0.260   2.120   2.950
 2378SOL    HW218651   0.137   2.092   2.846
 2379SOL     OW18652   0.019   2.230   2.509
 2379SOL    HW118653  -0.063   2.273   2.548
 2379SOL    HW218654  -0.009   2.157   2.446
 2380SOL     OW18655   0.569   3.137   3.027
 2380SOL    HW118656   0.476   3.130   2.990
 2380SOL    HW218657   0.580   3.226   3.071
 2381SOL     OW18658   1.555   3.373   2.565
 2381SOL    HW118659   1.498   3.357   2.646
 2381SOL    HW218660   1.496   3.383   2.485
 2382SOL     OW18661   1.135   2.565   2.579
 2382SOL    HW118662   1.192   2.643   2.554
 2382SOL    HW218663   1.075   2.591   2.655
 2383SOL     OW18664   1.755   2.469   2.093
 2383SOL    HW118665   1.743   2.456   1.994
 2383SOL    HW218666   1.725   2.388   2.142
 2384SOL     OW18667   0.768   3.006   2.885
 2384SOL    HW118668   0.690   3.023   2.945
 2384SOL    HW218669   0.802   3.093   2.849
 2385SOL     OW18670   0.850   2.660   3.685
 2385SOL    HW118671   0.846   2.736   3.750
 2385SOL    HW218672   0.872   2.696   3.594
 2386SOL     OW18673   0.685   2.874   2.527
 2386SOL    HW118674   0.754   2.858   2.597
 2386SOL    HW218675   0.612   2.931   2.565
 2387SOL     OW18676   0.686   3.023   3.665
 2387SOL    HW118677   0.746   3.102   3.679
 2387SOL    HW218678   0.600   3.054   3.624
 2388SOL     OW18679   0.335   3.297   2.923
 2388SOL    HW118680   0.257   3.266   2.870
 2388SOL    HW218681   0.393   3.355   2.866
 2389SOL     OW18682   1.460   3.367   3.201
 2389SOL    HW118683   1.484   3.461   3.227
 2389SOL    HW218684   1.444   3.313   3.283
 2390SOL     OW18685   0.438   2.254   3.361
 2390SOL    HW118686   0.520   2.198   3.370
 2390SOL    HW218687   0.357   2.196   3.365
 2391SOL     OW18688   1.603   2.309   2.599
 2391SOL    HW118689   1.529   2.355   2.549
 2391SOL    HW218690   1.654   2.377   2.652
 2392SOL     OW18691   0.231   3.575   2.345
 2392SOL    HW118692   0.265   3.652   2.399
 2392SOL    HW218693   0.275   3.575   2.255
 2393SOL     OW18694   1.127   3.203   3.552
 2393SOL    HW118695   1.174   3.203   3.640
 2393SOL    HW218696   1.079   3.116   3.541
 2394SOL     OW18697   0.230   3.296   2.400
 2394SOL    HW118698   0.204   3.392   2.400
 2394SOL    HW218699   0.159   3.242   2.445
 2395SOL     OW18700   0.240   2.953   2.748
 2395SOL    HW118701   0.254   2.869   2.800
 2395SOL    HW218702   0.185   3.017   2.803
 2396SOL     OW18703   0.620   3.648   3.301
 2396SOL    HW118704   0.528   3.631   3.336
 2396SOL    HW218705   0.648   3.740   3.327
 2397SOL     OW18706   0.606   2.826   1.985
 2397SOL    HW118707   0.613   2.910   1.931
 2397SOL    HW218708   0.652   2.839   2.073
 2398SOL     OW18709   1.594   1.976   3.342
 2398SOL    HW118710   1.576   2.043   3.270
 2398SOL    HW218711   1.591   2.022   3.431
 2399SOL     OW18712   0.122   2.505   2.425
 2399SOL    HW118713   0.077   2.417   2.442
 2399SOL    HW218714   0.121   2.559   2.509
 2400SOL     OW18715   1.842   3.629   2.221
 2400SOL    HW118716   1.896   3.600   2.301
 2400SOL    HW218717   1.872   3.719   2.192
 2401SOL     OW18718   0.027   3.458   1.979
 2401SOL    HW118719   0.008   3.362   2.000
 2401SOL    HW218720  -0.006   3.516   2.054
 2402SOL     OW18721   1.689   2.784   2.474
 2402SOL    HW118722   1.784   2.755   2.482
 2402SOL    HW218723   1.681   2.849   2.399
 2403SOL     OW18724   1.641   2.970   2.294
 2403SOL    HW118725   1.727   2.972   2.242
 2403SOL    HW218726   1.655   3.017   2.382
 2404SOL     OW18727   0.113   2.599   3.459
 2404SOL    HW118728   0.201   2.586   3.504
 2404SOL    HW218729   0.100   2.696   3.437
 2405SOL     OW18730   0.613   3.227   2.588
 2405SOL    HW118731   0.564   3.140   2.597
 2405SOL    HW218732   0.590   3.270   2.501
 2406SOL     OW18733   1.293   3.090   3.285
 2406SOL    HW118734   1.330   3.017   3.227
 2406SOL    HW218735   1.345   3.095   3.370
 2407SOL     OW18736   0.809   1.866   2.364
 2407SOL    HW118737   0.849   1.957   2.355
 2407SOL    HW218738   0.709   1.874   2.370
 2408SOL     OW18739   0.197   2.838   3.126
 2408SOL    HW118740   0.286   2.793   3.112
 2408SOL    HW218741   0.124   2.773   3.107
 2409SOL     OW18742   1.525   2.861   2.052
 2409SOL    HW118743   1.462   2.785   2.065
 2409SOL    HW218744   1.573   2.879   2.138
 2410SOL     OW18745   1.187   3.654   3.478
 2410SOL    HW118746   1.211   3.714   3.402
 2410SOL    HW218747   1.194   3.559   3.448
 2411SOL     OW18748   0.317   2.113   3.663
 2411SOL    HW118749   0.388   2.184   3.669
 2411SOL    HW218750   0.229   2.152   3.691
 2412SOL     OW18751   1.466   3.279   2.815
 2412SOL    HW118752   1.407   3.285   2.895
 2412SOL    HW218753   1.451   3.191   2.769
 2413SOL     OW18754   1.667   3.576   2.434
 2413SOL    HW118755   1.626   3.553   2.346
 2413SOL    HW218756   1.649   3.502   2.499
 2414SOL     OW18757   0.598   2.591   2.132
 2414SOL    HW118758   0.622   2.660   2.064
 2414SOL    HW218759   0.520   2.624   2.186
 2415SOL     OW18760   1.281   2.207   2.806
 2415SOL    HW118761   1.195   2.157   2.793
 2415SOL    HW218762   1.343   2.153   2.862
 2416SOL     OW18763   1.576   3.524   2.169
 2416SOL    HW118764   1.665   3.570   2.172
 2416SOL    HW218765   1.555   3.500   2.074
 2417SOL     OW18766   0.807   2.467   3.327
 2417SOL    HW118767   0.760   2.464   3.416
 2417SOL    HW218768   0.756   2.412   3.261
 2418SOL     OW18769   1.394   2.331   3.536
 2418SOL    HW118770   1.374   2.374   3.624
 2418SOL    HW218771   1.472   2.269   3.545
 2419SOL     OW18772   0.973   2.752   3.434
 2419SOL    HW118773   1.019   2.668   3.405
 2419SOL    HW218774   0.917   2.786   3.359
 2420SOL     OW18775   0.991   2.272   3.104
 2420SOL    HW118776   0.914   2.306   3.158
 2420SOL    HW218777   0.957   2.221   3.025
 2421SOL     OW18778   1.041   2.563   2.291
 2421SOL    HW118779   1.067   2.559   2.387
 2421SOL    HW218780   0.956   2.512   2.277
 2422SOL     OW18781   0.076   2.673   2.651
 2422SOL    HW118782   0.175   2.661   2.660
 2422SOL    HW218783   0.052   2.768   2.672
 2423SOL     OW18784   0.130   3.683   3.433
 2423SOL    HW118785   0.120   3.668   3.532
 2423SOL    HW218786   0.044   3.719   3.397
 2424SOL     OW18787   0.865   2.210   2.057
 2424SOL    HW118788   0.924   2.273   2.008
 2424SOL    HW218789   0.884   2.116   2.028
 2425SOL     OW18790   1.719   2.447   3.693
 2425SOL    HW118791   1.693   2.536   3.657
 2425SOL    HW218792   1.717   2.379   3.620
 2426SOL     OW18793   1.362   3.006   2.407
 2426SOL    HW118794   1.445   2.977   2.359
 2426SOL    HW218795   1.313   3.073   2.351
 2427SOL     OW18796   0.550   2.058   2.747
 2427SOL    HW118797   0.545   2.053   2.847
 2427SOL    HW218798   0.552   2.154   2.718
 2428SOL     OW18799   1.008   3.318   2.339
 2428SOL    HW118800   0.962   3.390   2.287
 2428SOL    HW218801   1.004   3.338   2.437
 2429SOL     OW18802   0.351   3.663   2.715
 2429SOL    HW118803   0.401   3.577   2.721
 2429SOL    HW218804   0.416   3.740   2.712
 2430SOL     OW18805   1.795   2.928   2.735
 2430SOL    HW118806   1.733   2.913   2.659
 2430SOL    HW218807   1.743   2.939   2.820
 2431SOL     OW18808   1.227   3.412   3.368
 2431SOL    HW118809   1.233   3.335   3.432
 2431SOL    HW218810   1.175   3.386   3.288
 2432SOL     OW18811   0.321   2.805   2.104
 2432SOL    HW118812   0.403   2.844   2.062
 2432SOL    HW218813   0.294   2.723   2.055
 2433SOL     OW18814   1.458   2.597   2.590
 2433SOL    HW118815   1.453   2.532   2.665
 2433SOL    HW218816   1.538   2.656   2.603
 2434SOL     OW18817   0.461   3.128   3.589
 2434SOL    HW118818   0.411   3.129   3.503
 2434SOL    HW218819   0.398   3.110   3.665
 2435SOL     OW18820   1.111   3.638   2.099
 2435SOL    HW118821   1.051   3.576   2.149
 2435SOL    HW218822   1.142   3.594   2.014
 2436SOL     OW18823   0.202   2.147   3.360
 2436SOL    HW118824   0.122   2.207   3.347
 2436SOL    HW218825   0.192   2.098   3.446
 2437SOL     OW18826   1.632   3.239   1.943
 2437SOL    HW118827   1.600   3.333   1.933
 2437SOL    HW218828   1.556   3.176   1.931
 2438SOL     OW18829   0.464   3.605   2.185
 2438SOL    HW118830   0.497   3.644   2.271
 2438SOL    HW218831   0.540   3.598   2.120
 2439SOL     OW18832   1.400   1.969   2.288
 2439SOL    HW118833   1.376   1.932   2.198
 2439SOL    HW218834   1.499   1.985   2.292
 2440SOL     OW18835   0.249   3.647   3.103
 2440SOL    HW118836   0.306   3.582   3.153
 2440SOL    HW218837   0.233   3.614   3.010
 2441SOL     OW18838   0.940   3.560   2.766
 2441SOL    HW118839   1.020   3.503   2.787
 2441SOL    HW218840   0.891   3.520   2.689
 2442SOL     OW18841   0.382   2.562   2.342
 2442SOL    HW118842   0.427   2.472   2.339
 2442SOL    HW218843   0.288   2.551   2.375
 2443SOL     OW18844   1.547   2.084   3.591
 2443SOL    HW118845   1.542   2.121   3.683
 2443SOL    HW218846   1.475   2.015   3.579
 2444SOL     OW18847   0.614   1.984   1.979
 2444SOL    HW118848   0.712   1.962   1.986
 2444SOL    HW218849   0.583   1.967   1.886
 2445SOL     OW18850   0.781   2.126   3.611
 2445SOL    HW118851   0.848   2.065   3.654
 2445SOL    HW218852   0.708   2.145   3.676
 2446SOL     OW18853   0.888   3.376   3.057
 2446SOL    HW118854   0.865   3.351   2.963
 2446SOL    HW218855   0.949   3.307   3.096
 2447SOL     OW18856   1.351   2.452   3.295
 2447SOL    HW118857   1.379   2.409   3.380
 2447SOL    HW218858   1.376   2.548   3.296
 2448SOL     OW18859   0.803   3.264   2.786
 2448SOL    HW118860   0.893   3.278   2.744
 2448SOL    HW218861   0.732   3.266   2.715
 2449SOL     OW18862   0.922   2.365   2.761
 2449SOL    HW118863   0.897   2.356   2.665
 2449SOL    HW218864   0.970   2.283   2.792
 2450SOL     OW18865   0.539   1.926   2.374
 2450SOL    HW118866   0.458   1.927   2.432
 2450SOL    HW218867   0.542   2.009   2.319
 2451SOL     OW18868   1.434   3.050   1.903
 2451SOL    HW118869   1.466   2.974   1.960
 2451SOL    HW218870   1.342   3.077   1.933
 2452SOL     OW18871   0.297   1.897   2.033
 2452SOL    HW118872   0.346   1.981   2.012
 2452SOL    HW218873   0.359   1.832   2.078
 2453SOL     OW18874   0.935   2.098   2.342
 2453SOL    HW118875   0.887   2.139   2.264
 2453SOL    HW218876   1.034   2.096   2.323
 2454SOL     OW18877   1.076   2.545   3.326
 2454SOL    HW118878   0.996   2.484   3.329
 2454SOL    HW218879   1.157   2.492   3.302
 2455SOL     OW18880   1.227   3.432   2.655
 2455SOL    HW118881   1.248   3.506   2.590
 2455SOL    HW218882   1.295   3.432   2.728
 2456SOL     OW18883   0.459   3.014   2.603
 2456SOL    HW118884   0.388   2.987   2.668
 2456SOL    HW218885   0.433   2.986   2.510
 2457SOL     OW18886   1.271   3.659   2.453
 2457SOL    HW118887   1.315   3.723   2.389
 2457SOL    HW218888   1.221   3.711   2.523
 2458SOL     OW18889   1.032   2.411   1.878
 2458SOL    HW118890   0.991   2.493   1.839
 2458SOL    HW218891   1.096   2.437   1.951
 2459SOL     OW18892   0.078   2.418   3.248
 2459SOL    HW118893   0.170   2.417   3.207
 2459SOL    HW218894   0.072   2.492   3.315
 2460SOL     OW18895   0.561   2.084   3.009
 2460SOL    HW118896   0.599   2.000   3.046
 2460SOL    HW218897   0.473   2.103   3.053
 2461SOL     OW18898   0.866   2.316   2.504
 2461SOL    HW118899   0.834   2.388   2.442
 2461SOL    HW218900   0.890   2.235   2.451
 2462SOL     OW18901   1.017   1.901   2.615
 2462SOL    HW118902   0.945   1.906   2.546
 2462SOL    HW218903   0.993   1.832   2.684
 2463SOL     OW18904   1.429   3.035   2.729
 2463SOL    HW118905   1.374   2.951   2.722
 2463SOL    HW218906   1.455   3.064   2.637
 2464SOL     OW18907   1.466   2.452   2.854
 2464SOL    HW118908   1.436   2.357   2.861
 2464SOL    HW218909   1.539   2.468   2.920
 2465SOL     OW18910   1.857   2.695   2.239
 2465SOL    HW118911   1.899   2.631   2.303
 2465SOL    HW218912   1.819   2.644   2.161
 2466SOL     OW18913   0.488   3.247   2.036
 2466SOL    HW118914   0.401   3.232   2.083
 2466SOL    HW218915   0.471   3.273   1.941
 2467SOL     OW18916   1.664   3.142   2.519
 2467SOL    HW118917   1.763   3.150   2.533
 2467SOL    HW218918   1.619   3.226   2.550
 2468SOL     OW18919   1.390   2.437   1.940
 2468SOL    HW118920   1.336   2.416   2.021
 2468SOL    HW218921   1.481   2.396   1.949
 2469SOL     OW18922   0.527   2.118   2.190
 2469SOL    HW118923   0.554   2.059   2.115
 2469SOL    HW218924   0.527   2.213   2.159
 2470SOL     OW18925   1.754   3.085   3.450
 2470SOL    HW118926   1.845   3.046   3.437
 2470SOL    HW218927   1.762   3.181   3.474
 2471SOL     OW18928   1.064   3.209   3.202
 2471SOL    HW118929   0.984   3.186   3.257
 2471SOL    HW218930   1.147   3.183   3.251
 2472SOL     OW18931   1.592   3.491   3.487
 2472SOL    HW118932   1.619   3.525   3.397
 2472SOL    HW218933   1.671   3.453   3.533
 2473SOL     OW18934   1.111   3.057   2.962
 2473SOL    HW118935   1.071   3.101   3.043
 2473SOL    HW218936   1.070   3.094   2.879
 2474SOL     OW18937   1.638   2.961   2.941
 2474SOL    HW118938   1.643   3.042   3.000
 2474SOL    HW218939   1.552   2.963   2.890
 2475SOL     OW18940   0.915   1.951   3.264
 2475SOL    HW118941   0.940   1.931   3.169
 2475SOL    HW218942   0.987   2.007   3.306
 2476SOL     OW18943   0.980   2.978   3.581
 2476SOL    HW118944   0.881   2.984   3.591
 2476SOL    HW218945   1.003   2.898   3.525
 2477SOL     OW18946   0.705   2.912   2.230
 2477SOL    HW118947   0.691   2.919   2.329
 2477SOL    HW218948   0.789   2.861   2.212
 2478SOL     OW18949   0.410   2.675   3.113
 2478SOL    HW118950   0.496   2.687   3.163
 2478SOL    HW218951   0.368   2.588   3.140
 2479SOL     OW18952   1.274   2.248   3.124
 2479SOL    HW118953   1.295   2.322   3.188
 2479SOL    HW218954   1.185   2.265   3.081
 2480SOL     OW18955   0.064   3.426   3.193
 2480SOL    HW118956   0.018   3.508   3.159
 2480SOL    HW218957   0.162   3.445   3.202
 2481SOL     OW18958   0.367   2.962   2.363
 2481SOL    HW118959   0.360   3.045   2.307
 2481SOL    HW218960   0.371   2.882   2.303
 2482SOL     OW18961   0.566   2.399   2.727
 2482SOL    HW118962   0.578   2.465   2.653
 2482SOL    HW218963   0.612   2.433   2.810
 2483SOL     OW18964   1.252   3.210   2.250
 2483SOL    HW118965   1.302   3.287   2.290
 2483SOL    HW218966   1.157   3.212   2.282
 2484SOL     OW18967   1.272   3.307   3.004
 2484SOL    HW118968   1.319   3.320   3.091
 2484SOL    HW218969   1.206   3.233   3.013
 2485SOL     OW18970   1.582   2.501   2.334
 2485SOL    HW118971   1.551   2.562   2.407
 2485SOL    HW218972   1.632   2.553   2.265
 2486SOL     OW18973   0.354   3.372   3.191
 2486SOL    HW118974   0.333   3.328   3.104
 2486SOL    HW218975   0.451   3.398   3.194
 2487SOL     OW18976   0.402   2.613   3.460
 2487SOL    HW118977   0.470   2.668   3.413
 2487SOL    HW218978   0.442   2.525   3.487
 2488SOL     OW18979   1.587   2.641   3.532
 2488SOL    HW118980   1.495   2.679   3.527
 2488SOL    HW218981   1.647   2.688   3.467
 2489SOL     OW18982   1.013   1.967   3.632
 2489SOL    HW118983   1.019   2.052   3.580
 2489SOL    HW218984   1.045   1.891   3.575
 2490SOL     OW18985   0.504   1.912   3.602
 2490SOL    HW118986   0.462   1.855   3.532
 2490SOL    HW218987   0.438   1.981   3.634
 2491SOL     OW18988   0.573   2.732   2.891
 2491SOL    HW118989   0.617   2.821   2.882
 2491SOL    HW218990   0.510   2.732   2.968
 2492SOL     OW18991   1.360   2.724   2.907
 2492SOL    HW118992   1.285   2.724   2.841
 2492SOL    HW218993   1.397   2.632   2.916
 2493SOL     OW18994   1.209   2.387   2.137
 2493SOL    HW118995   1.222   2.303   2.191
 2493SOL    HW218996   1.180   2.461   2.197
 2494SOL     OW18997   0.307   2.075   3.093
 2494SOL    HW118998   0.284   2.112   3.183
 2494SOL    HW218999   0.277   1.980   3.087
 2495SOL     OW19000   0.037   3.172   3.144
 2495SOL    HW119001   0.090   3.123   3.212
 2495SOL    HW219002   0.059   3.270   3.149
 2496SOL     OW19003   0.732   2.496   2.926
 2496SOL    HW119004   0.791   2.470   2.850
 2496SOL    HW219005   0.704   2.592   2.915
 2497SOL     OW19006   1.728   2.797   3.716
 2497SOL    HW119007   1.682   2.790   3.627
 2497SOL    HW219008   1.666   2.841   3.782
 2498SOL     OW19009   0.307   1.925   2.480
 2498SOL    HW119010   0.296   2.019   2.513
 2498SOL    HW219011   0.302   1.862   2.557
 2499SOL     OW19012   1.622   2.229   2.236
 2499SOL    HW119013   1.624   2.153   2.300
 2499SOL    HW219014   1.574   2.306   2.276
 2500SOL     OW19015   1.023   2.628   2.828
 2500SOL    HW119016   1.038   2.649   2.924
 2500SOL    HW219017   0.993   2.533   2.819
 2501SOL     OW19018   0.980   3.435   3.562
 2501SOL    HW119019   0.960   3.479   3.474
 2501SOL    HW219020   1.019   3.344   3.546
 2502SOL     OW19021   1.859   3.380   3.467
 2502SOL    HW119022   1.873   3.407   3.372
 2502SOL    HW219023   1.942   3.402   3.520
 2503SOL     OW19024   0.350   2.760   3.666
 2503SOL    HW119025   0.426   2.804   3.714
 2503SOL    HW219026   0.385   2.713   3.584
 2504SOL     OW19027   1.540   2.136   1.987
 2504SOL    HW119028   1.479   2.061   2.010
 2504SOL    HW219029   1.562   2.188   2.070
 2505SOL     OW19030   1.303   2.700   1.904
 2505SOL    HW119031   1.337   2.607   1.919
 2505SOL    HW219032   1.321   2.727   1.809
 2506SOL     OW19033   1.068   3.195   2.711
 2506SOL    HW119034   1.075   3.111   2.656
 2506SOL    HW219035   1.130   3.264   2.675
 2507SOL     OW19036   0.319   2.672   2.811
 2507SOL    HW119037   0.412   2.708   2.816
 2507SOL    HW219038   0.313   2.587   2.863
 2508SOL     OW19039   0.339   2.371   2.868
 2508SOL    HW119040   0.287   2.288   2.851
 2508SOL    HW219041   0.416   2.376   2.804
 2509SOL     OW19042   1.138   2.242   3.540
 2509SOL    HW119043   1.093   2.305   3.604
 2509SOL    HW219044   1.231   2.273   3.523
 2510SOL     OW19045   1.160   2.069   3.339
 2510SOL    HW119046   1.160   2.133   3.416
 2510SOL    HW219047   1.188   2.117   3.256
 2511SOL     OW19048   0.008   3.188   2.062
 2511SOL    HW119049  -0.085   3.209   2.031
 2511SOL    HW219050   0.018   3.089   2.075
 2512SOL     OW19051   0.088   3.663   2.789
 2512SOL    HW119052   0.046   3.577   2.762
 2512SOL    HW219053   0.182   3.666   2.755
 2513SOL     OW19054   0.504   3.430   2.772
 2513SOL    HW119055   0.570   3.504   2.781
 2513SOL    HW219056   0.548   3.351   2.730
 2514SOL     OW19057   1.002   2.658   3.100
 2514SOL    HW119058   1.043   2.626   3.186
 2514SOL    HW219059   0.906   2.631   3.097
 2515SOL     OW19060   0.040   2.406   2.976
 2515SOL    HW119061   0.125   2.373   2.935
 2515SOL    HW219062   0.053   2.421   3.074
 2516SOL     OW19063   0.189   2.382   3.584
 2516SOL    HW119064   0.248   2.342   3.514
 2516SOL    HW219065   0.131   2.453   3.543
 2517SOL     OW19066   1.369   2.812   3.522
 2517SOL    HW119067   1.408   2.901   3.542
 2517SOL    HW219068   1.379   2.792   3.425
 2518SOL     OW19069   0.815   2.434   2.187
 2518SOL    HW119070   0.822   2.345   2.141
 2518SOL    HW219071   0.721   2.468   2.179
 2519SOL     OW19072   1.657   2.466   3.068
 2519SOL    HW119073   1.619   2.397   3.130
 2519SOL    HW219074   1.739   2.430   3.024
 2520SOL     OW19075   0.252   3.426   3.606
 2520SOL    HW119076   0.222   3.483   3.682
 2520SOL    HW219077   0.245   3.329   3.632
 2521SOL     OW19078   0.671   2.326   3.131
 2521SOL    HW119079   0.637   2.237   3.101
 2521SOL    HW219080   0.697   2.380   3.051
 2522SOL     OW19081   0.930   3.540   3.327
 2522SOL    HW119082   0.906   3.522   3.232
 2522SOL    HW219083   0.960   3.634   3.337
 2523SOL     OW19084   0.473   2.362   2.053
 2523SOL    HW119085   0.534   2.442   2.057
 2523SOL    HW219086   0.378   2.393   2.060
 2524SOL     OW19087   0.159   2.999   3.328
 2524SOL    HW119088   0.181   2.938   3.404
 2524SOL    HW219089   0.169   2.950   3.242
 2525SOL     OW19090   1.347   2.921   3.096
 2525SOL    HW119091   1.371   2.858   3.022
 2525SOL    HW219092   1.257   2.961   3.078
 2526SOL     OW19093   1.302   2.717   2.171
 2526SOL    HW119094   1.216   2.686   2.213
 2526SOL    HW219095   1.298   2.703   2.072
 2527SOL     OW19096   1.759   3.609   3.016
 2527SOL    HW119097   1.820   3.639   2.943
 2527SOL    HW219098   1.721   3.520   2.994
 2528SOL     OW19099   1.252   3.593   2.990
 2528SOL    HW119100   1.336   3.598   2.936
 2528SOL    HW219101   1.229   3.497   3.008
 2529SOL     OW19102   0.083   3.120   2.884
 2529SOL    HW119103   0.078   3.119   2.984
 2529SOL    HW219104   0.000   3.079   2.846
 2530SOL     OW19105   0.688   3.524   3.578
 2530SOL    HW119106   0.632   3.605   3.587
 2530SOL    HW219107   0.740   3.528   3.492
 2531SOL     OW19108   1.726   1.997   2.385
 2531SOL    HW119109   1.799   1.980   2.318
 2531SOL    HW219110   1.695   1.910   2.423
 2532SOL     OW19111   1.388   3.435   2.339
 2532SOL    HW119112   1.455   3.447   2.265
 2532SOL    HW219113   1.348   3.524   2.362
 2533SOL     OW19114   0.130   3.656   3.713
 2533SOL    HW119115   0.089   3.582   3.766
 2533SOL    HW219116   0.194   3.707   3.771
 2534SOL     OW19117   1.280   2.789   2.534
 2534SOL    HW119118   1.340   2.708   2.536
 2534SOL    HW219119   1.320   2.858   2.474
 2535SOL     OW19120   0.830   3.135   3.284
 2535SOL    HW119121   0.825   3.168   3.379
 2535SOL    HW219122   0.744   3.154   3.238
 2536SOL     OW19123   0.672   3.478   2.016
 2536SOL    HW119124   0.681   3.488   1.917
 2536SOL    HW219125   0.632   3.389   2.037
 2537SOL     OW19126   1.650   3.582   3.256
 2537SOL    HW119127   1.703   3.592   3.172
 2537SOL    HW219128   1.623   3.672   3.290
 2538SOL     OW19129   1.841   2.037   2.825
 2538SOL    HW119130   1.880   1.952   2.789
 2538SOL    HW219131   1.743   2.039   2.806
 2539SOL     OW19132   0.263   2.188   2.582
 2539SOL    HW119133   0.184   2.239   2.548
 2539SOL    HW219134   0.254   2.173   2.680
 2540SOL     OW19135   1.194   3.474   1.893
 2540SOL    HW119136   1.200   3.381   1.930
 2540SOL    HW219137   1.135   3.474   1.813
 2541SOL     OW19138   0.822   2.864   3.234
 2541SOL    HW119139   0.862   2.863   3.142
 2541SOL    HW219140   0.832   2.956   3.274
 2542SOL     OW19141   0.916   2.772   2.153
 2542SOL    HW119142   0.979   2.810   2.085
 2542SOL    HW219143   0.956   2.689   2.192
 2543SOL     OW19144   1.504   3.469   1.906
 2543SOL    HW119145   1.412   3.506   1.913
 2543SOL    HW219146   1.542   3.489   1.816
 2544SOL     OW19147   0.372   3.150   3.352
 2544SOL    HW119148   0.359   3.243   3.318
 2544SOL    HW219149   0.288   3.098   3.339
 2545SOL     OW19150   1.614   3.154   3.151
 2545SOL    HW119151   1.674   3.157   3.231
 2545SOL    HW219152   1.539   3.218   3.164
 2546SOL     OW19153   1.039   2.960   2.558
 2546SOL    HW119154   0.969   2.913   2.612
 2546SOL    HW219155   1.098   2.892   2.515
 2547SOL     OW19156   1.014   2.098   2.833
 2547SOL    HW119157   1.006   2.062   2.740
 2547SOL    HW219158   1.012   2.022   2.898
 2548SOL     OW19159   0.590   3.349   2.353
 2548SOL    HW119160   0.632   3.291   2.283
 2548SOL    HW219161   0.546   3.428   2.309
 2549SOL     OW19162   1.709   2.247   3.243
 2549SOL    HW119163   1.782   2.316   3.247
 2549SOL    HW219164   1.737   2.172   3.184
 2550SOL     OW19165   0.255   3.210   2.152
 2550SOL    HW119166   0.159   3.211   2.125
 2550SOL    HW219167   0.267   3.263   2.236
 2551SOL     OW19168   0.105   2.875   3.588
 2551SOL    HW119169   0.028   2.842   3.642
 2551SOL    HW219170   0.190   2.845   3.630
 2552SOL     OW19171   0.672   2.065   3.351
 2552SOL    HW119172   0.762   2.049   3.311
 2552SOL    HW219173   0.680   2.070   3.450
 2553SOL     OW19174   0.075   2.207   1.895
 2553SOL    HW119175  -0.017   2.179   1.866
 2553SOL    HW219176   0.106   2.284   1.839
 2554SOL     OW19177   1.440   2.718   3.260
 2554SOL    HW119178   1.383   2.770   3.197
 2554SOL    HW219179   1.536   2.730   3.236
 2555SOL     OW19180   0.072   2.028   2.180
 2555SOL    HW119181   0.055   2.111   2.126
 2555SOL    HW219182   0.162   1.991   2.158
 2556SOL     OW19183   1.183   3.197   1.981
 2556SOL    HW119184   1.084   3.186   1.983
 2556SOL    HW219185   1.217   3.212   2.074
 2557SOL     OW19186   0.613   2.704   3.293
 2557SOL    HW119187   0.669   2.785   3.276
 2557SOL    HW219188   0.672   2.624   3.296
 2558SOL     OW19189   1.493   3.629   2.821
 2558SOL    HW119190   1.526   3.693   2.752
 2558SOL    HW219191   1.559   3.623   2.896
 2559SOL     OW19192   0.716   2.427   3.570
 2559SOL    HW119193   0.735   2.492   3.644
 2559SOL    HW219194   0.776   2.347   3.579
 2560SOL     OW19195   1.450   3.082   3.495
 2560SOL    HW119196   1.441   3.072   3.594
 2560SOL    HW219197   1.546   3.075   3.469
 2561SOL     OW19198   0.390   3.603   3.422
 2561SOL    HW119199   0.299   3.644   3.420
 2561SOL    HW219200   0.383   3.509   3.454
 2562SOL     OW19201   1.674   2.745   3.116
 2562SOL    HW119202   1.647   2.656   3.079
 2562SOL    HW219203   1.675   2.813   3.043
 2563SOL     OW19204   1.225   2.187   2.311
 2563SOL    HW119205   1.290   2.113   2.300
 2563SOL    HW219206   1.245   2.237   2.395
 2564SOL     OW19207   0.594   2.607   2.514
 2564SOL    HW119208   0.644   2.692   2.495
 2564SOL    HW219209   0.506   2.609   2.466
 2565SOL     OW19210   1.777   2.204   3.504
 2565SOL    HW119211   1.760   2.235   3.410
 2565SOL    HW219212   1.693   2.167   3.542
 2566SOL     OW19213   1.730   2.796   3.379
 2566SOL    HW119214   1.768   2.887   3.394
 2566SOL    HW219215   1.722   2.779   3.280
 2567SOL     OW19216   0.859   3.236   1.878
 2567SOL    HW119217   0.813   3.251   1.966
 2567SOL    HW219218   0.903   3.321   1.848
 2568SOL     OW19219   0.661   3.652   2.815
 2568SOL    HW119220   0.615   3.740   2.802
 2568SOL    HW219221   0.760   3.664   2.808
 2569SOL     OW19222   0.859   2.818   2.723
 2569SOL    HW119223   0.913   2.749   2.771
 2569SOL    HW219224   0.827   2.887   2.789
 2570SOL     OW19225   1.083   2.846   1.949
 2570SOL    HW119226   1.060   2.899   1.867
 2570SOL    HW219227   1.164   2.790   1.930
 2571SOL     OW19228   1.861   3.431   2.713
 2571SOL    HW119229   1.790   3.419   2.643
 2571SOL    HW219230   1.862   3.352   2.773
 2572SOL     OW19231   0.221   3.176   3.706
 2572SOL    HW119232   0.156   3.103   3.685
 2572SOL    HW219233   0.225   3.190   3.804
 2573SOL     OW19234   0.079   3.102   2.515
 2573SOL    HW119235   0.078   3.055   2.603
 2573SOL    HW219236   0.161   3.074   2.464
 2574SOL     OW19237   0.672   3.253   3.486
 2574SOL    HW119238   0.594   3.203   3.524
 2574SOL    HW219239   0.669   3.348   3.517
 2575SOL     OW19240   1.824   2.054   3.089
 2575SOL    HW119241   1.820   1.964   3.133
 2575SOL    HW219242   1.827   2.043   2.990
 2576SOL     OW19243   0.428   2.286   2.382
 2576SOL    HW119244   0.458   2.214   2.320
 2576SOL    HW219245   0.389   2.246   2.465
 2577SOL     OW19246   1.705   3.349   2.966
 2577SOL    HW119247   1.612   3.324   2.939
 2577SOL    HW219248   1.731   3.299   3.048
 2578SOL     OW19249   0.317   2.409   3.142
 2578SOL    HW119250   0.355   2.350   3.214
 2578SOL    HW219251   0.357   2.383   3.054
 2579SOL     OW19252   0.812   3.448   2.549
 2579SOL    HW119253   0.844   3.458   2.455
 2579SOL    HW219254   0.733   3.386   2.551
 2580SOL     OW19255   1.424   2.076   2.974
 2580SOL    HW119256   1.476   2.011   3.029
 2580SOL    HW219257   1.375   2.139   3.035
 2581SOL     OW19258   1.001   1.896   3.016
 2581SOL    HW119259   0.938   1.824   2.985
 2581SOL    HW219260   1.094   1.860   3.016
 2582SOL     OW19261   0.770   3.192   2.163
 2582SOL    HW119262   0.724   3.105   2.180
 2582SOL    HW219263   0.861   3.189   2.204
 2583SOL     OW19264   0.618   3.429   3.146
 2583SOL    HW119265   0.613   3.511   3.203
 2583SOL    HW219266   0.707   3.426   3.101
 2584SOL     OW19267   1.352   1.914   2.030
 2584SOL    HW119268   1.387   1.873   1.946
 2584SOL    HW219269   1.262   1.876   2.050
 2585SOL     OW19270   1.300   2.315   2.553
 2585SOL    HW119271   1.241   2.395   2.557
 2585SOL    HW219272   1.315   2.280   2.646
 2586SOL     OW19273   1.593   2.083   2.744
 2586SOL    HW119274   1.509   2.082   2.798
 2586SOL    HW219275   1.595   2.166   2.688
 2587SOL     OW19276   0.039   2.939   2.162
 2587SOL    HW119277   0.138   2.928   2.153
 2587SOL    HW219278  -0.001   2.853   2.194
 2588SOL     OW19279   0.875   3.508   2.199
 2588SOL    HW119280   0.798   3.473   2.145
 2588SOL    HW219281   0.843   3.579   2.261
 2589SOL     OW19282   0.230   2.490   3.837
 2589SOL    HW119283   0.137   2.488   3.874
 2589SOL    HW219284   0.231   2.451   3.745
 2590SOL     OW19285   0.225   2.137   4.720
 2590SOL    HW119286   0.260   2.120   4.812
 2590SOL    HW219287   0.137   2.092   4.708
 2591SOL     OW19288   0.019   2.230   4.371
 2591SOL    HW119289  -0.063   2.273   4.410
 2591SOL    HW219290  -0.009   2.157   4.308
 2592SOL     OW19291   0.569   3.137   4.889
 2592SOL    HW119292   0.476   3.130   4.852
 2592SOL    HW219293   0.580   3.226   4.933
 2593SOL     OW19294   1.555   3.373   4.427
 2593SOL    HW119295   1.498   3.357   4.508
 2593SOL    HW219296   1.496   3.383   4.347
 2594SOL     OW19297   1.135   2.565   4.441
 2594SOL    HW119298   1.192   2.643   4.416
 2594SOL    HW219299   1.075   2.591   4.517
 2595SOL     OW19300   1.755   2.469   3.955
 2595SOL    HW119301   1.743   2.456   3.856
 2595SOL    HW219302   1.725   2.388   4.004
 2596SOL     OW19303   0.768   3.006   4.747
 2596SOL    HW119304   0.690   3.023   4.807
 2596SOL    HW219305   0.802   3.093   4.711
 2597SOL     OW19306   0.850   2.660   5.547
 2597SOL    HW119307   0.846   2.736   5.612
 2597SOL    HW219308   0.872   2.696   5.456
 2598SOL     OW19309   0.685   2.874   4.389
 2598SOL    HW119310   0.754   2.858   4.459
 2598SOL    HW219311   0.612   2.931   4.427
 2599SOL     OW19312   0.686   3.023   5.527
 2599SOL    HW119313   0.746   3.102   5.541
 2599SOL    HW219314   0.600   3.054   5.486
 2600SOL     OW19315   0.335   3.297   4.785
 2600SOL    HW119316   0.257   3.266   4.732
 2600SOL    HW219317   0.393   3.355   4.728
 2601SOL     OW19318   1.460   3.367   5.063
 2601SOL    HW119319   1.484   3.461   5.089
 2601SOL    HW219320   1.444   3.313   5.145
 2602SOL     OW19321   0.438   2.254   5.223
 2602SOL    HW119322   0.520   2.198   5.232
 2602SOL    HW219323   0.357   2.196   5.227
 2603SOL     OW19324   1.603   2.309   4.461
 2603SOL    HW119325   1.529   2.355   4.411
 2603SOL    HW219326   1.654   2.377   4.514
 2604SOL     OW19327   0.231   3.575   4.207
 2604SOL    HW119328   0.265   3.652   4.261
 2604SOL    HW219329   0.275   3.575   4.117
 2605SOL     OW19330   1.127   3.203   5.414
 2605SOL    HW119331   1.174   3.203   5.502
 2605SOL    HW219332   1.079   3.116   5.403
 2606SOL     OW19333   0.230   3.296   4.262
 2606SOL    HW119334   0.204   3.392   4.262
 2606SOL    HW219335   0.159   3.242   4.307
 2607SOL     OW19336   0.240   2.953   4.610
 2607SOL    HW119337   0.254   2.869   4.662
 2607SOL    HW219338   0.185   3.017   4.665
 2608SOL     OW19339   0.620   3.648   5.163
 2608SOL    HW119340   0.528   3.631   5.198
 2608SOL    HW219341   0.648   3.740   5.189
 2609SOL     OW19342   0.606   2.826   3.847
 2609SOL    HW119343   0.613   2.910   3.793
 2609SOL    HW219344   0.652   2.839   3.935
 2610SOL     OW19345   1.594   1.976   5.204
 2610SOL    HW119346   1.576   2.043   5.132
 2610SOL    HW219347   1.591   2.022   5.293
 2611SOL     OW19348   0.122   2.505   4.287
 2611SOL    HW119349   0.077   2.417   4.304
 2611SOL    HW219350   0.121   2.559   4.371
 2612SOL     OW19351   1.842   3.629   4.083
 2612SOL    HW119352   1.896   3.600   4.163
 2612SOL    HW219353   1.872   3.719   4.054
 2613SOL     OW19354   0.027   3.458   3.841
 2613SOL    HW119355   0.008   3.362   3.862
 2613SOL    HW219356  -0.006   3.516   3.916
 2614SOL     OW19357   1.689   2.784   4.336
 2614SOL    HW119358   1.784   2.755   4.344
 2614SOL    HW219359   1.681   2.849   4.261
 2615SOL     OW19360   1.641   2.970   4.156
 2615SOL    HW119361   1.727   2.972   4.104
 2615SOL    HW219362   1.655   3.017   4.244
 2616SOL     OW19363   0.113   2.599   5.321
 2616SOL    HW119364   0.201   2.586   5.366
 2616SOL    HW219365   0.100   2.696   5.299
 2617SOL     OW19366   0.613   3.227   4.450
 2617SOL    HW119367   0.564   3.140   4.459
 2617SOL    HW219368   0.590   3.270   4.363
 2618SOL     OW19369   1.293   3.090   5.147
 2618SOL    HW119370   1.330   3.017   5.089
 2618SOL    HW219371   1.345   3.095   5.232
 2619SOL     OW19372   0.809   1.866   4.226
 2619SOL    HW119373   0.849   1.957   4.217
 2619SOL    HW219374   0.709   1.874   4.232
 2620SOL     OW19375   0.197   2.838   4.988
 2620SOL    HW119376   0.286   2.793   4.974
 2620SOL    HW219377   0.124   2.773   4.969
 2621SOL     OW19378   1.525   2.861   3.914
 2621SOL    HW119379   1.462   2.785   3.927
 2621SOL    HW219380   1.573   2.879   4.000
 2622SOL     OW19381   1.187   3.654   5.340
 2622SOL    HW119382   1.211   3.714   5.264
 2622SOL    HW219383   1.194   3.559   5.310
 2623SOL     OW19384   0.317   2.113   5.525
 2623SOL    HW119385   0.388   2.184   5.531
 2623SOL    HW219386   0.229   2.152   5.553
 2624SOL     OW19387   1.466   3.279   4.677
 2624SOL    HW119388   1.407   3.285   4.757
 2624SOL    HW219389   1.451   3.191   4.631
 2625SOL     OW19390   1.667   3.576   4.296
 2625SOL    HW119391   1.626   3.553   4.208
 2625SOL    HW219392   1.649   3.502   4.361
 2626SOL     OW19393   0.598   2.591   3.994
 2626SOL    HW119394   0.622   2.660   3.926
 2626SOL    HW219395   0.520   2.624   4.048
 2627SOL     OW19396   1.281   2.207   4.668
 2627SOL    HW119397   1.195   2.157   4.655
 2627SOL    HW219398   1.343   2.153   4.724
 2628SOL     OW19399   1.576   3.524   4.031
 2628SOL    HW119400   1.665   3.570   4.034
 2628SOL    HW219401   1.555   3.500   3.936
 2629SOL     OW19402   0.807   2.467   5.189
 2629SOL    HW119403   0.760   2.464   5.278
 2629SOL    HW219404   0.756   2.412   5.123
 2630SOL     OW19405   1.394   2.331   5.398
 2630SOL    HW119406   1.374   2.374   5.486
 2630SOL    HW219407   1.472   2.269   5.407
 2631SOL     OW19408   0.973   2.752   5.296
 2631SOL    HW119409   1.019   2.668   5.267
 2631SOL    HW219410   0.917   2.786   5.221
 2632SOL     OW19411   0.991   2.272   4.966
 2632SOL    HW119412   0.914   2.306   5.020
 2632SOL    HW219413   0.957   2.221   4.887
 2633SOL     OW19414   1.041   2.563   4.153
 2633SOL    HW119415   1.067   2.559   4.249
 2633SOL    HW219416   0.956   2.512   4.139
 2634SOL     OW19417   0.076   2.673   4.513
 2634SOL    HW119418   0.175   2.661   4.522
 2634SOL    HW219419   0.052   2.768   4.534
 2635SOL     OW19420   0.130   3.683   5.295
 2635SOL    HW119421   0.120   3.668   5.394
 2635SOL    HW219422   0.044   3.719   5.259
 2636SOL     OW19423   0.865   2.210   3.919
 2636SOL    HW119424   0.924   2.273   3.870
 2636SOL    HW219425   0.884   2.116   3.890
 2637SOL     OW19426   1.719   2.447   5.555
 2637SOL    HW119427   1.693   2.536   5.519
 2637SOL    HW219428   1.717   2.379   5.482
 2638SOL     OW19429   1.362   3.006   4.269
 2638SOL    HW119430   1.445   2.977   4.221
 2638SOL    HW219431   1.313   3.073   4.213
 2639SOL     OW19432   0.550   2.058   4.609
 2639SOL    HW119433   0.545   2.053   4.709
 2639SOL    HW219434   0.552   2.154   4.580
 2640SOL     OW19435   1.008   3.318   4.201
 2640SOL    HW119436   0.962   3.390   4.149
 2640SOL    HW219437   1.004   3.338   4.299
 2641SOL     OW19438   0.351   3.663   4.577
 2641SOL    HW119439   0.401   3.577   4.583
 2641SOL    HW219440   0.416   3.740   4.574
 2642SOL     OW19441   1.795   2.928   4.597
 2642SOL    HW119442   1.733   2.913   4.521
 2642SOL    HW219443   1.743   2.939   4.682
 2643SOL     OW19444   1.227   3.412   5.230
 2643SOL    HW119445   1.233   3.335   5.294
 2643SOL    HW219446   1.175   3.386   5.150
 2644SOL     OW19447   0.321   2.805   3.966
 2644SOL    HW119448   0.403   2.844   3.924
 2644SOL    HW219449   0.294   2.723   3.917
 2645SOL     OW19450   1.458   2.597   4.452
 2645SOL    HW119451   1.453   2.532   4.527
 2645SOL    HW219452   1.538   2.656   4.465
 2646SOL     OW19453   0.461   3.128   5.451
 2646SOL    HW119454   0.411   3.129   5.365
 2646SOL    HW219455   0.398   3.110   5.527
 2647SOL     OW19456   1.111   3.638   3.961
 2647SOL    HW119457   1.051   3.576   4.011
 2647SOL    HW219458   1.142   3.594   3.876
 2648SOL     OW19459   0.202   2.147   5.222
 2648SOL    HW119460   0.122   2.207   5.209
 2648SOL    HW219461   0.192   2.098   5.308
 2649SOL     OW19462   1.632   3.239   3.805
 2649SOL    HW119463   1.600   3.333   3.795
 2649SOL    HW219464   1.556   3.176   3.793
 2650SOL     OW19465   0.464   3.605   4.047
 2650SOL    HW119466   0.497   3.644   4.133
 2650SOL    HW219467   0.540   3.598   3.982
 2651SOL     OW19468   1.400   1.969   4.150
 2651SOL    HW119469   1.376   1.932   4.060
 2651SOL    HW219470   1.499   1.985   4.154
 2652SOL     OW19471   0.249   3.647   4.965
 2652SOL    HW119472   0.306   3.582   5.015
 2652SOL    HW219473   0.233   3.614   4.872
 2653SOL     OW19474   0.940   3.560   4.628
 2653SOL    HW119475   1.020   3.503   4.649
 2653SOL    HW219476   0.891   3.520   4.551
 2654SOL     OW19477   0.382   2.562   4.204
 2654SOL    HW119478   0.427   2.472   4.201
 2654SOL    HW219479   0.288   2.551   4.237
 2655SOL     OW19480   1.547   2.084   5.453
 2655SOL    HW119481   1.542   2.121   5.545
 2655SOL    HW219482   1.475   2.015   5.441
 2656SOL     OW19483   0.614   1.984   3.841
 2656SOL    HW119484   0.712   1.962   3.848
 2656SOL    HW219485   0.583   1.967   3.748
 2657SOL     OW19486   0.781   2.126   5.473
 2657SOL    HW119487   0.848   2.065   5.516
 2657SOL    HW219488   0.708   2.145   5.538
 2658SOL     OW19489   0.888   3.376   4.919
 2658SOL    HW119490   0.865   3.351   4.825
 2658SOL    HW219491   0.949   3.307   4.958
 2659SOL     OW19492   1.351   2.452   5.157
 2659SOL    HW119493   1.379   2.409   5.242
 2659SOL    HW219494   1.376   2.548   5.158
 2660SOL     OW19495   0.803   3.264   4.648
 2660SOL    HW119496   0.893   3.278   4.606
 2660SOL    HW219497   0.732   3.266   4.577
 2661SOL     OW19498   0.922   2.365   4.623
 2661SOL    HW119499   0.897   2.356   4.527
 2661SOL    HW219500   0.970   2.283   4.654
 2662SOL     OW19501   0.539   1.926   4.236
 2662SOL    HW119502   0.458   1.927   4.294
 2662SOL    HW219503   0.542   2.009   4.181
 2663SOL     OW19504   1.434   3.050   3.765
 2663SOL    HW119505   1.466   2.974   3.822
 2663SOL    HW219506   1.342   3.077   3.795
 2664SOL     OW19507   0.297   1.897   3.895
 2664SOL    HW119508   0.346   1.981   3.874
 2664SOL    HW219509   0.359   1.832   3.940
 2665SOL     OW19510   0.935   2.098   4.204
 2665SOL    HW119511   0.887   2.139   4.126
 2665SOL    HW219512   1.034   2.096   4.185
 2666SOL     OW19513   1.076   2.545   5.188
 2666SOL    HW119514   0.996   2.484   5.191
 2666SOL    HW219515   1.157   2.492   5.164
 2667SOL     OW19516   1.227   3.432   4.517
 2667SOL    HW119517   1.248   3.506   4.452
 2667SOL    HW219518   1.295   3.432   4.590
 2668SOL     OW19519   0.459   3.014   4.465
 2668SOL    HW119520   0.388   2.987   4.530
 2668SOL    HW219521   0.433   2.986   4.372
 2669SOL     OW19522   1.271   3.659   4.315
 2669SOL    HW119523   1.315   3.723   4.251
 2669SOL    HW219524   1.221   3.711   4.385
 2670SOL     OW19525   1.032   2.411   3.740
 2670SOL    HW119526   0.991   2.493   3.701
 2670SOL    HW219527   1.096   2.437   3.813
 2671SOL     OW19528   0.078   2.418   5.110
 2671SOL    HW119529   0.170   2.417   5.069
 2671SOL    HW219530   0.072   2.492   5.177
 2672SOL     OW19531   0.561   2.084   4.871
 2672SOL    HW119532   0.599   2.000   4.908
 2672SOL    HW219533   0.473   2.103   4.915
 2673SOL     OW19534   0.866   2.316   4.366
 2673SOL    HW119535   0.834   2.388   4.304
 2673SOL    HW219536   0.890   2.235   4.313
 2674SOL     OW19537   1.017   1.901   4.477
 2674SOL    HW119538   0.945   1.906   4.408
 2674SOL    HW219539   0.993   1.832   4.546
 2675SOL     OW19540   1.429   3.035   4.591
 2675SOL    HW119541   1.374   2.951   4.584
 2675SOL    HW219542   1.455   3.064   4.499
 2676SOL     OW19543   1.466   2.452   4.716
 2676SOL    HW119544   1.436   2.357   4.723
 2676SOL    HW219545   1.539   2.468   4.782
 2677SOL     OW19546   1.857   2.695   4.101
 2677SOL    HW119547   1.899   2.631   4.165
 2677SOL    HW219548   1.819   2.644   4.023
 2678SOL     OW19549   0.488   3.247   3.898
 2678SOL    HW119550   0.401   3.232   3.945
 2678SOL    HW219551   0.471   3.273   3.803
 2679SOL     OW19552   1.664   3.142   4.381
 2679SOL    HW119553   1.763   3.150   4.395
 2679SOL    HW219554   1.619   3.226   4.412
 2680SOL     OW19555   1.390   2.437   3.802
 2680SOL    HW119556   1.336   2.416   3.883
 2680SOL    HW219557   1.481   2.396   3.811
 2681SOL     OW19558   0.527   2.118   4.052
 2681SOL    HW119559   0.554   2.059   3.977
 2681SOL    HW219560   0.527   2.213   4.021
 2682SOL     OW19561   1.754   3.085   5.312
 2682SOL    HW119562   1.845   3.046   5.299
 2682SOL    HW219563   1.762   3.181   5.336
 2683SOL     OW19564   1.064   3.209   5.064
 2683SOL    HW119565   0.984   3.186   5.119
 2683SOL    HW219566   1.147   3.183   5.113
 2684SOL     OW19567   1.592   3.491   5.349
 2684SOL    HW119568   1.619   3.525   5.259
 2684SOL    HW219569   1.671   3.453   5.395
 2685SOL     OW19570   1.111   3.057   4.824
 2685SOL    HW119571   1.071   3.101   4.905
 2685SOL    HW219572   1.070   3.094   4.741
 2686SOL     OW19573   1.638   2.961   4.803
 2686SOL    HW119574   1.643   3.042   4.862
 2686SOL    HW219575   1.552   2.963   4.752
 2687SOL     OW19576   0.915   1.951   5.126
 2687SOL    HW119577   0.940   1.931   5.031
 2687SOL    HW219578   0.987   2.007   5.168
 2688SOL     OW19579   0.980   2.978   5.443
 2688SOL    HW119580   0.881   2.984   5.453
 2688SOL    HW219581   1.003   2.898   5.387
 2689SOL     OW19582   0.705   2.912   4.092
 2689SOL    HW119583   0.691   2.919   4.191
 2689SOL    HW219584   0.789   2.861   4.074
 2690SOL     OW19585   0.410   2.675   4.975
 2690SOL    HW119586   0.496   2.687   5.025
 2690SOL    HW219587   0.368   2.588   5.002
 2691SOL     OW19588   1.274   2.248   4.986
 2691SOL    HW119589   1.295   2.322   5.050
 2691SOL    HW219590   1.185   2.265   4.943
 2692SOL     OW19591   0.064   3.426   5.055
 2692SOL    HW119592   0.018   3.508   5.021
 2692SOL    HW219593   0.162   3.445   5.064
 2693SOL     OW19594   0.367   2.962   4.225
 2693SOL    HW119595   0.360   3.045   4.169
 2693SOL    HW219596   0.371   2.882   4.165
 2694SOL     OW19597   0.566   2.399   4.589
 2694SOL    HW119598   0.578   2.465   4.515
 2694SOL    HW219599   0.612   2.433   4.672
 2695SOL     OW19600   1.252   3.210   4.112
 2695SOL    HW119601   1.302   3.287   4.152
 2695SOL    HW219602   1.157   3.212   4.144
 2696SOL     OW19603   1.272   3.307   4.866
 2696SOL    HW119604   1.319   3.320   4.953
 2696SOL    HW219605   1.206   3.233   4.875
 2697SOL     OW19606   1.582   2.501   4.196
 2697SOL    HW119607   1.551   2.562   4.269
 2697SOL    HW219608   1.632   2.553   4.127
 2698SOL     OW19609   0.354   3.372   5.053
 2698SOL    HW119610   0.333   3.328   4.966
 2698SOL    HW219611   0.451   3.398   5.056
 2699SOL     OW19612   0.402   2.613   5.322
 2699SOL    HW119613   0.470   2.668   5.275
 2699SOL    HW219614   0.442   2.525   5.349
 2700SOL     OW19615   1.587   2.641   5.394
 2700SOL    HW119616   1.495   2.679   5.389
 2700SOL    HW219617   1.647   2.688   5.329
 2701SOL     OW19618   1.013   1.967   5.494
 2701SOL    HW119619   1.019   2.052   5.442
 2701SOL    HW219620   1.045   1.891   5.437
 2702SOL     OW19621   0.504   1.912   5.464
 2702SOL    HW119622   0.462   1.855   5.394
 2702SOL    HW219623   0.438   1.981   5.496
 2703SOL     OW19624   0.573   2.732   4.753
 2703SOL    HW119625   0.617   2.821   4.744
 2703SOL    HW219626   0.510   2.732   4.830
 2704SOL     OW19627   1.360   2.724   4.769
 2704SOL    HW119628   1.285   2.724   4.703
 2704SOL    HW219629   1.397   2.632   4.778
 2705SOL     OW19630   1.209   2.387   3.999
 2705SOL    HW119631   1.222   2.303   4.053
 2705SOL    HW219632   1.180   2.461   4.059
 2706SOL     OW19633   0.307   2.075   4.955
 2706SOL    HW119634   0.284   2.112   5.045
 2706SOL    HW219635   0.277   1.980   4.949
 2707SOL     OW19636   0.037   3.172   5.006
 2707SOL    HW119637   0.090   3.123   5.074
 2707SOL    HW219638   0.059   3.270   5.011
 2708SOL     OW19639   0.732   2.496   4.788
 2708SOL    HW119640   0.791   2.470   4.712
 2708SOL    HW219641   0.704   2.592   4.777
 2709SOL     OW19642   1.728   2.797   5.578
 2709SOL    HW119643   1.682   2.790   5.489
 2709SOL    HW219644   1.666   2.841   5.644
 2710SOL     OW19645   0.307   1.925   4.342
 2710SOL    HW119646   0.296   2.019   4.375
 2710SOL    HW219647   0.302   1.862   4.419
 2711SOL     OW19648   1.622   2.229   4.098
 2711SOL    HW119649   1.624   2.153   4.162
 2711SOL    HW219650   1.574   2.306   4.138
 2712SOL     OW19651   1.023   2.628   4.690
 2712SOL    HW119652   1.038   2.649   4.786
 2712SOL    HW219653   0.993   2.533   4.681
 2713SOL     OW19654   0.980   3.435   5.424
 2713SOL    HW119655   0.960   3.479   5.336
 2713SOL    HW219656   1.019   3.344   5.408
 2714SOL     OW19657   1.859   3.380   5.329
 2714SOL    HW119658   1.873   3.407   5.234
 2714SOL    HW219659   1.942   3.402   5.382
 2715SOL     OW19660   0.350   2.760   5.528
 2715SOL    HW119661   0.426   2.804   5.576
 2715SOL    HW219662   0.385   2.713   5.446
 2716SOL     OW19663   1.540   2.136   3.849
 2716SOL    HW119664   1.479   2.061   3.872
 2716SOL    HW219665   1.562   2.188   3.932
 2717SOL     OW19666   1.303   2.700   3.766
 2717SOL    HW119667   1.337   2.607   3.781
 2717SOL    HW219668   1.321   2.727   3.671
 2718SOL     OW19669   1.068   3.195   4.573
 2718SOL    HW119670   1.075   3.111   4.518
 2718SOL    HW219671   1.130   3.264   4.537
 2719SOL     OW19672   0.319   2.672   4.673
 2719SOL    HW119673   0.412   2.708   4.678
 2719SOL    HW219674   0.313   2.587   4.725
 2720SOL     OW19675   0.339   2.371   4.730
 2720SOL    HW119676   0.287   2.288   4.713
 2720SOL    HW219677   0.416   2.376   4.666
 2721SOL     OW19678   1.138   2.242   5.402
 2721SOL    HW119679   1.093   2.305   5.466
 2721SOL    HW219680   1.231   2.273   5.385
 2722SOL     OW19681   1.160   2.069   5.201
 2722SOL    HW119682   1.160   2.133   5.278
 2722SOL    HW219683   1.188   2.117   5.118
 2723SOL     OW19684   0.008   3.188   3.924
 2723SOL    HW119685  -0.085   3.209   3.893
 2723SOL    HW219686   0.018   3.089   3.937
 2724SOL     OW19687   0.088   3.663   4.651
 2724SOL    HW119688   0.046   3.577   4.624
 2724SOL    HW219689   0.182   3.666   4.617
 2725SOL     OW19690   0.504   3.430   4.634
 2725SOL    HW119691   0.570   3.504   4.643
 2725SOL    HW219692   0.548   3.351   4.592
 2726SOL     OW19693   1.002   2.658   4.962
 2726SOL    HW119694   1.043   2.626   5.048
 2726SOL    HW219695   0.906   2.631   4.959
 2727SOL     OW19696   0.040   2.406   4.838
 2727SOL    HW119697   0.125   2.373   4.797
 2727SOL    HW219698   0.053   2.421   4.936
 2728SOL     OW19699   0.189   2.382   5.446
 2728SOL    HW119700   0.248   2.342   5.376
 2728SOL    HW219701   0.131   2.453   5.405
 2729SOL     OW19702   1.369   2.812   5.384
 2729SOL    HW119703   1.408   2.901   5.404
 2729SOL    HW219704   1.379   2.792   5.287
 2730SOL     OW19705   0.815   2.434   4.049
 2730SOL    HW119706   0.822   2.345   4.003
 2730SOL    HW219707   0.721   2.468   4.041
 2731SOL     OW19708   1.657   2.466   4.930
 2731SOL    HW119709   1.619   2.397   4.992
 2731SOL    HW219710   1.739   2.430   4.886
 2732SOL     OW19711   0.252   3.426   5.468
 2732SOL    HW119712   0.222   3.483   5.544
 2732SOL    HW219713   0.245   3.329   5.494
 2733SOL     OW19714   0.671   2.326   4.993
 2733SOL    HW119715   0.637   2.237   4.963
 2733SOL    HW219716   0.697   2.380   4.913
 2734SOL     OW19717   0.930   3.540   5.189
 2734SOL    HW119718   0.906   3.522   5.094
 2734SOL    HW219719   0.960   3.634   5.199
 2735SOL     OW19720   0.473   2.362   3.915
 2735SOL    HW119721   0.534   2.442   3.919
 2735SOL    HW219722   0.378   2.393   3.922
 2736SOL     OW19723   0.159   2.999   5.190
 2736SOL    HW119724   0.181   2.938   5.266
 2736SOL    HW219725   0.169   2.950   5.104
 2737SOL     OW19726   1.347   2.921   4.958
 2737SOL    HW119727   1.371   2.858   4.884
 2737SOL    HW219728   1.257   2.961   4.940
 2738SOL     OW19729   1.302   2.717   4.033
 2738SOL    HW119730   1.216   2.686   4.075
 2738SOL    HW219731   1.298   2.703   3.934
 2739SOL     OW19732   1.759   3.609   4.878
 2739SOL    HW119733   1.820   3.639   4.805
 2739SOL    HW219734   1.721   3.520   4.856
 2740SOL     OW19735   1.252   3.593   4.852
 2740SOL    HW119736   1.336   3.598   4.798
 2740SOL    HW219737   1.229   3.497   4.870
 2741SOL     OW19738   0.083   3.120   4.746
 2741SOL    HW119739   0.078   3.119   4.846
 2741SOL    HW219740   0.000   3.079   4.708
 2742SOL     OW19741   0.688   3.524   5.440
 2742SOL    HW119742   0.632   3.605   5.449
 2742SOL    HW219743   0.740   3.528   5.354
 2743SOL     OW19744   1.726   1.997   4.247
 2743SOL    HW119745   1.799   1.980   4.180
 2743SOL    HW219746   1.695   1.910   4.285
 2744SOL     OW19747   1.388   3.435   4.201
 2744SOL    HW119748   1.455   3.447   4.127
 2744SOL    HW219749   1.348   3.524   4.224
 2745SOL     OW19750   0.130   3.656   5.575
 2745SOL    HW119751   0.089   3.582   5.628
 2745SOL    HW219752   0.194   3.707   5.633
 2746SOL     OW19753   1.280   2.789   4.396
 2746SOL    HW119754   1.340   2.708   4.398
 2746SOL    HW219755   1.320   2.858   4.336
 2747SOL     OW19756   0.830   3.135   5.146
 2747SOL    HW119757   0.825   3.168   5.241
 2747SOL    HW219758   0.744   3.154   5.100
 2748SOL     OW19759   0.672   3.478   3.878
 2748SOL    HW119760   0.681   3.488   3.779
 2748SOL    HW219761   0.632   3.389   3.899
 2749SOL     OW19762   1.650   3.582   5.118
 2749SOL    HW119763   1.703   3.592   5.034
 2749SOL    HW219764   1.623   3.672   5.152
 2750SOL     OW19765   1.841   2.037   4.687
 2750SOL    HW119766   1.880   1.952   4.651
 2750SOL    HW219767   1.743   2.039   4.668
 2751SOL     OW19768   0.263   2.188   4.444
 2751SOL    HW119769   0.184   2.239   4.410
 2751SOL    HW219770   0.254   2.173   4.542
 2752SOL     OW19771   1.194   3.474   3.755
 2752SOL    HW119772   1.200   3.381   3.792
 2752SOL    HW219773   1.135   3.474   3.675
 2753SOL     OW19774   0.822   2.864   5.096
 2753SOL    HW119775   0.862   2.863   5.004
 2753SOL    HW219776   0.832   2.956   5.136
 2754SOL     OW19777   0.916   2.772   4.015
 2754SOL    HW119778   0.979   2.810   3.947
 2754SOL    HW219779   0.956   2.689   4.054
 2755SOL     OW19780   1.504   3.469   3.768
 2755SOL    HW119781   1.412   3.506   3.775
 2755SOL    HW219782   1.542   3.489   3.678
 2756SOL     OW19783   0.372   3.150   5.214
 2756SOL    HW119784   0.359   3.243   5.180
 2756SOL    HW219785   0.288   3.098   5.201
 2757SOL     OW19786   1.614   3.154   5.013
 2757SOL    HW119787   1.674   3.157   5.093
 2757SOL    HW219788   1.539   3.218   5.026
 2758SOL     OW19789   1.039   2.960   4.420
 2758SOL    HW119790   0.969   2.913   4.474
 2758SOL    HW219791   1.098   2.892   4.377
 2759SOL     OW19792   1.014   2.098   4.695
 2759SOL    HW119793   1.006   2.062   4.602
 2759SOL    HW219794   1.012   2.022   4.760
 2760SOL     OW19795   0.590   3.349   4.215
 2760SOL    HW119796   0.632   3.291   4.145
 2760SOL    HW219797   0.546   3.428   4.171
 2761SOL     OW19798   1.709   2.247   5.105
 2761SOL    HW119799   1.782   2.316   5.109
 2761SOL    HW219800   1.737   2.172   5.046
 2762SOL     OW19801   0.255   3.210   4.014
 2762SOL    HW119802   0.159   3.211   3.987
 2762SOL    HW219803   0.267   3.263   4.098
 2763SOL     OW19804   0.105   2.875   5.450
 2763SOL    HW119805   0.028   2.842   5.504
 2763SOL    HW219806   0.190   2.845   5.492
 2764SOL     OW19807   0.672   2.065   5.213
 2764SOL    HW119808   0.762   2.049   5.173
 2764SOL    HW219809   0.680   2.070   5.312
 2765SOL     OW19810   0.075   2.207   3.757
 2765SOL    HW119811  -0.017   2.179   3.728
 2765SOL    HW219812   0.106   2.284   3.701
 2766SOL     OW19813   1.440   2.718   5.122
 2766SOL    HW119814   1.383   2.770   5.059
 2766SOL    HW219815   1.536   2.730   5.098
 2767SOL     OW19816   0.072   2.028   4.042
 2767SOL    HW119817   0.055   2.111   3.988
 2767SOL    HW219818   0.162   1.991   4.020
 2768SOL     OW19819   1.183   3.197   3.843
 2768SOL    HW119820   1.084   3.186   3.845
 2768SOL    HW219821   1.217   3.212   3.936
 2769SOL     OW19822   0.613   2.704   5.155
 2769SOL    HW119823   0.669   2.785   5.138
 2769SOL    HW219824   0.672   2.624   5.158
 2770SOL     OW19825   1.493   3.629   4.683
 2770SOL    HW119826   1.526   3.693   4.614
 2770SOL    HW219827   1.559   3.623   4.758
 2771SOL     OW19828   0.716   2.427   5.432
 2771SOL    HW119829   0.735   2.492   5.506
 2771SOL    HW219830   0.776   2.347   5.441
 2772SOL     OW19831   1.450   3.082   5.357
 2772SOL    HW119832   1.441   3.072   5.456
 2772SOL    HW219833   1.546   3.075   5.331
 2773SOL     OW19834   0.390   3.603   5.284
 2773SOL    HW119835   0.299   3.644   5.282
 2773SOL    HW219836   0.383   3.509   5.316
 2774SOL     OW19837   1.674   2.745   4.978
 2774SOL    HW119838   1.647   2.656   4.941
 2774SOL    HW219839   1.675   2.813   4.905
 2775SOL     OW19840   1.225   2.187   4.173
 2775SOL    HW119841   1.290   2.113   4.162
 2775SOL    HW219842   1.245   2.237   4.257
 2776SOL     OW19843   0.594   2.607   4.376
 2776SOL    HW119844   0.644   2.692   4.357
 2776SOL    HW219845   0.506   2.609   4.328
 2777SOL     OW19846   1.777   2.204   5.366
 2777SOL    HW119847   1.760   2.235   5.272
 2777SOL    HW219848   1.693   2.167   5.404
 2778SOL     OW19849   1.730   2.796   5.241
 2778SOL    HW119850   1.768   2.887   5.256
 2778SOL    HW219851   1.722   2.779   5.142
 2779SOL     OW19852   0.859   3.236   3.740
 2779SOL    HW119853   0.813   3.251   3.828
 2779SOL    HW219854   0.903   3.321   3.710
 2780SOL     OW19855   0.661   3.652   4.677
 2780SOL    HW119856   0.615   3.740   4.664
 2780SOL    HW219857   0.760   3.664   4.670
 2781SOL     OW19858   0.859   2.818   4.585
 2781SOL    HW119859   0.913   2.749   4.633
 2781SOL    HW219860   0.827   2.887   4.651
 2782SOL     OW19861   1.083   2.846   3.811
 2782SOL    HW119862   1.060   2.899   3.729
 2782SOL    HW219863   1.164   2.790   3.792
 2783SOL     OW19864   1.861   3.431   4.575
 2783SOL    HW119865   1.790   3.419   4.505
 2783SOL    HW219866   1.862   3.352   4.635
 2784SOL     OW19867   0.221   3.176   5.568
 2784SOL    HW119868   0.156   3.103   5.547
 2784SOL    HW219869   0.225   3.190   5.666
 2785SOL     OW19870   0.079   3.102   4.377
 2785SOL    HW119871   0.078   3.055   4.465
 2785SOL    HW219872   0.161   3.074   4.326
 2786SOL     OW19873   0.672   3.253   5.348
 2786SOL    HW119874   0.594   3.203   5.386
 2786SOL    HW219875   0.669   3.348   5.379
 2787SOL     OW19876   1.824   2.054   4.951
 2787SOL    HW119877   1.820   1.964   4.995
 2787SOL    HW219878   1.827   2.043   4.852
 2788SOL     OW19879   0.428   2.286   4.244
 2788SOL    HW119880   0.458   2.214   4.182
 2788SOL    HW219881   0.389   2.246   4.327
 2789SOL     OW19882   1.705   3.349   4.828
 2789SOL    HW119883   1.612   3.324   4.801
 2789SOL    HW219884   1.731   3.299   4.910
 2790SOL     OW19885   0.317   2.409   5.004
 2790SOL    HW119886   0.355   2.350   5.076
 2790SOL    HW219887   0.357   2.383   4.916
 2791SOL     OW19888   0.812   3.448   4.411
 2791SOL    HW119889   0.844   3.458   4.317
 2791SOL    HW219890   0.733   3.386   4.413
 2792SOL     OW19891   1.424   2.076   4.836
 2792SOL    HW119892   1.476   2.011   4.891
 2792SOL    HW219893   1.375   2.139   4.897
 2793SOL     OW19894   1.001   1.896   4.878
 2793SOL    HW119895   0.938   1.824   4.847
 2793SOL    HW219896   1.094   1.860   4.878
 2794SOL     OW19897   0.770   3.192   4.025
 2794SOL    HW119898   0.724   3.105   4.042
 2794SOL    HW219899   0.861   3.189   4.066
 2795SOL     OW19900   0.618   3.429   5.008
 2795SOL    HW119901   0.613   3.511   5.065
 2795SOL    HW219902   0.707   3.426   4.963
 2796SOL     OW19903   1.352   1.914   3.892
 2796SOL    HW119904   1.387   1.873   3.808
 2796SOL    HW219905   1.262   1.876   3.912
 2797SOL     OW19906   1.300   2.315   4.415
 2797SOL    HW119907   1.241   2.395   4.419
 2797SOL    HW219908   1.315   2.280   4.508
 2798SOL     OW19909   1.593   2.083   4.606
 2798SOL    HW119910   1.509   2.082   4.660
 2798SOL    HW219911   1.595   2.166   4.550
 2799SOL     OW19912   0.039   2.939   4.024
 2799SOL    HW119913   0.138   2.928   4.015
 2799SOL    HW219914  -0.001   2.853   4.056
 2800SOL     OW19915   0.875   3.508   4.061
 2800SOL    HW119916   0.798   3.473   4.007
 2800SOL    HW219917   0.843   3.579   4.123
 2801SOL     OW19918   0.230   2.490   5.699
 2801SOL    HW119919   0.137   2.488   5.736
 2801SOL    HW219920   0.231   2.451   5.607
 2802SOL     OW19921   0.225   2.137   6.582
 2802SOL    HW119922   0.260   2.120   6.674
 2802SOL    HW219923   0.137   2.092   6.570
 2803SOL     OW19924   0.019   2.230   6.233
 2803SOL    HW119925  -0.063   2.273   6.272
 2803SOL    HW219926  -0.009   2.157   6.170
 2804SOL     OW19927   0.569   3.137   6.751
 2804SOL    HW119928   0.476   3.130   6.714
 2804SOL    HW219929   0.580   3.226   6.795
 2805SOL     OW19930   1.555   3.373   6.289
 2805SOL    HW119931   1.498   3.357   6.370
 2805SOL    HW219932   1.496   3.383   6.209
 2806SOL     OW19933   1.135   2.565   6.303
 2806SOL    HW119934   1.192   2.643   6.278
 2806SOL    HW219935   1.075   2.591   6.379
 2807SOL     OW19936   1.755   2.469   5.817
 2807SOL    HW119937   1.743   2.456   5.718
 2807SOL    HW219938   1.725   2.388   5.866
 2808SOL     OW19939   0.768   3.006   6.609
 2808SOL    HW119940   0.690   3.023   6.669
 2808SOL    HW219941   0.802   3.093   6.573
 2809SOL     OW19942   0.850   2.660   7.409
 2809SOL    HW119943   0.846   2.736   7.474
 2809SOL    HW219944   0.872   2.696   7.318
 2810SOL     OW19945   0.685   2.874   6.251
 2810SOL    HW119946   0.754   2.858   6.321
 2810SOL    HW219947   0.612   2.931   6.289
 2811SOL     OW19948   0.686   3.023   7.389
 2811SOL    HW119949   0.746   3.102   7.403
 2811SOL    HW219950   0.600   3.054   7.348
 2812SOL     OW19951   0.335   3.297   6.647
 2812SOL    HW119952   0.257   3.266   6.594
 2812SOL    HW219953   0.393   3.355   6.590
 2813SOL     OW19954   1.460   3.367   6.925
 2813SOL    HW119955   1.484   3.461   6.951
 2813SOL    HW219956   1.444   3.313   7.007
 2814SOL     OW19957   0.438   2.254   7.085
 2814SOL    HW119958   0.520   2.198   7.094
 2814SOL    HW219959   0.357   2.196   7.089
 2815SOL     OW19960   1.603   2.309   6.323
 2815SOL    HW119961   1.529   2.355   6.273
 2815SOL    HW219962   1.654   2.377   6.376
 2816SOL     OW19963   0.231   3.575   6.069
 2816SOL    HW119964   0.265   3.652   6.123
 2816SOL    HW219965   0.275   3.575   5.979
 2817SOL     OW19966   1.127   3.203   7.276
 2817SOL    HW119967   1.174   3.203   7.364
 2817SOL    HW219968   1.079   3.116   7.265
 2818SOL     OW19969   0.230   3.296   6.124
 2818SOL    HW119970   0.204   3.392   6.124
 2818SOL    HW219971   0.159   3.242   6.169
 2819SOL     OW19972   0.240   2.953   6.472
 2819SOL    HW119973   0.254   2.869   6.524
 2819SOL    HW219974   0.185   3.017   6.527
 2820SOL     OW19975   0.620   3.648   7.025
 2820SOL    HW119976   0.528   3.631   7.060
 2820SOL    HW219977   0.648   3.740   7.051
 2821SOL     OW19978   0.606   2.826   5.709
 2821SOL    HW119979   0.613   2.910   5.655
 2821SOL    HW219980   0.652   2.839   5.797
 2822SOL     OW19981   1.594   1.976   7.066
 2822SOL    HW119982   1.576   2.043   6.994
 2822SOL    HW219983   1.591   2.022   7.155
 2823SOL     OW19984   0.122   2.505   6.149
 2823SOL    HW119985   0.077   2.417   6.166
 2823SOL    HW219986   0.121   2.559   6.233
 2824SOL     OW19987   1.842   3.629   5.945
 2824SOL    HW119988   1.896   3.600   6.025
 2824SOL    HW219989   1.872   3.719   5.916
 2825SOL     OW19990   0.027   3.458   5.703
 2825SOL    HW119991   0.008   3.362   5.724
 2825SOL    HW219992  -0.006   3.516   5.778
 2826SOL     OW19993   1.689   2.784   6.198
 2826SOL    HW119994   1.784   2.755   6.206
 2826SOL    HW219995   1.681   2.849   6.123
 2827SOL     OW19996   1.641   2.970   6.018
 2827SOL    HW119997   1.727   2.972   5.966
 2827SOL    HW219998   1.655   3.017   6.106
 2828SOL     OW19999   0.113   2.599   7.183
 2828SOL    HW120000   0.201   2.586   7.228
 2828SOL    HW220001   0.100   2.696   7.161
 2829SOL     OW20002   0.613   3.227   6.312
 2829SOL    HW120003   0.564   3.140   6.321
 2829SOL    HW220004   0.590   3.270   6.225
 2830SOL     OW20005   1.293   3.090   7.009
 2830SOL    HW120006   1.330   3.017   6.951
 2830SOL    HW220007   1.345   3.095   7.094
 2831SOL     OW20008   0.809   1.866   6.088
 2831SOL    HW120009   0.849   1.957   6.079
 2831SOL    HW220010   0.709   1.874   6.094
 2832SOL     OW20011   0.197   2.838   6.850
 2832SOL    HW120012   0.286   2.793   6.836
 2832SOL    HW220013   0.124   2.773   6.831
 2833SOL     OW20014   1.525   2.861   5.776
 2833SOL    HW120015   1.462   2.785   5.789
 2833SOL    HW220016   1.573   2.879   5.862
 2834SOL     OW20017   1.187   3.654   7.202
 2834SOL    HW120018   1.211   3.714   7.126
 2834SOL    HW220019   1.194   3.559   7.172
 2835SOL     OW20020   0.317   2.113   7.387
 2835SOL    HW120021   0.388   2.184   7.393
 2835SOL    HW220022   0.229   2.152   7.415
 2836SOL     OW20023   1.466   3.279   6.539
 2836SOL    HW120024   1.407   3.285   6.619
 2836SOL    HW220025   1.451   3.191   6.493
 2837SOL     OW20026   1.667   3.576   6.158
 2837SOL    HW120027   1.626   3.553   6.070
 2837SOL    HW220028   1.649   3.502   6.223
 2838SOL     OW20029   0.598   2.591   5.856
 2838SOL    HW120030   0.622   2.660   5.788
 2838SOL    HW220031   0.520   2.624   5.910
 2839SOL     OW20032   1.281   2.207   6.530
 2839SOL    HW120033   1.195   2.157   6.517
 2839SOL    HW220034   1.343   2.153   6.586
 2840SOL     OW20035   1.576   3.524   5.893
 2840SOL    HW120036   1.665   3.570   5.896
 2840SOL    HW220037   1.555   3.500   5.798
 2841SOL     OW20038   0.807   2.467   7.051
 2841SOL    HW120039   0.760   2.464   7.140
 2841SOL    HW220040   0.756   2.412   6.985
 2842SOL     OW20041   1.394   2.331   7.260
 2842SOL    HW120042   1.374   2.374   7.348
 2842SOL    HW220043   1.472   2.269   7.269
 2843SOL     OW20044   0.973   2.752   7.158
 2843SOL    HW120045   1.019   2.668   7.129
 2843SOL    HW220046   0.917   2.786   7.083
 2844SOL     OW20047   0.991   2.272   6.828
 2844SOL    HW120048   0.914   2.306   6.882
 2844SOL    HW220049   0.957   2.221   6.749
 2845SOL     OW20050   1.041   2.563   6.015
 2845SOL    HW120051   1.067   2.559   6.111
 2845SOL    HW220052   0.956   2.512   6.001
 2846SOL     OW20053   0.076   2.673   6.375
 2846SOL    HW120054   0.175   2.661   6.384
 2846SOL    HW220055   0.052   2.768   6.396
 2847SOL     OW20056   0.130   3.683   7.157
 2847SOL    HW120057   0.120   3.668   7.256
 2847SOL    HW220058   0.044   3.719   7.121
 2848SOL     OW20059   0.865   2.210   5.781
 2848SOL    HW120060   0.924   2.273   5.732
 2848SOL    HW220061   0.884   2.116   5.752
 2849SOL     OW20062   1.719   2.447   7.417
 2849SOL    HW120063   1.693   2.536   7.381
 2849SOL    HW220064   1.717   2.379   7.344
 2850SOL     OW20065   1.362   3.006   6.131
 2850SOL    HW120066   1.445   2.977   6.083
 2850SOL    HW220067   1.313   3.073   6.075
 2851SOL     OW20068   0.550   2.058   6.471
 2851SOL    HW120069   0.545   2.053   6.571
 2851SOL    HW220070   0.552   2.154   6.442
 2852SOL     OW20071   1.008   3.318   6.063
 2852SOL    HW120072   0.962   3.390   6.011
 2852SOL    HW220073   1.004   3.338   6.161
 2853SOL     OW20074   0.351   3.663   6.439
 2853SOL    HW120075   0.401   3.577   6.445
 2853SOL    HW220076   0.416   3.740   6.436
 2854SOL     OW20077   1.795   2.928   6.459
 2854SOL    HW120078   1.733   2.913   6.383
 2854SOL    HW220079   1.743   2.939   6.544
 2855SOL     OW20080   1.227   3.412   7.092
 2855SOL    HW120081   1.233   3.335   7.156
 2855SOL    HW220082   1.175   3.386   7.012
 2856SOL     OW20083   0.321   2.805   5.828
 2856SOL    HW120084   0.403   2.844   5.786
 2856SOL    HW220085   0.294   2.723   5.779
 2857SOL     OW20086   1.458   2.597   6.314
 2857SOL    HW120087   1.453   2.532   6.389
 2857SOL    HW220088   1.538   2.656   6.327
 2858SOL     OW20089   0.461   3.128   7.313
 2858SOL    HW120090   0.411   3.129   7.227
 2858SOL    HW220091   0.398   3.110   7.389
 2859SOL     OW20092   1.111   3.638   5.823
 2859SOL    HW120093   1.051   3.576   5.873
 2859SOL    HW220094   1.142   3.594   5.738
 2860SOL     OW20095   0.202   2.147   7.084
 2860SOL    HW120096   0.122   2.207   7.071
 2860SOL    HW220097   0.192   2.098   7.170
 2861SOL     OW20098   1.632   3.239   5.667
 2861SOL    HW120099   1.600   3.333   5.657
 2861SOL    HW220100   1.556   3.176   5.655
 2862SOL     OW20101   0.464   3.605   5.909
 2862SOL    HW120102   0.497   3.644   5.995
 2862SOL    HW220103   0.540   3.598   5.844
 2863SOL     OW20104   1.400   1.969   6.012
 2863SOL    HW120105   1.376   1.932   5.922
 2863SOL    HW220106   1.499   1.985   6.016
 2864SOL     OW20107   0.249   3.647   6.827
 2864SOL    HW120108   0.306   3.582   6.877
 2864SOL    HW220109   0.233   3.614   6.734
 2865SOL     OW20110   0.940   3.560   6.490
 2865SOL    HW120111   1.020   3.503   6.511
 2865SOL    HW220112   0.891   3.520   6.413
 2866SOL     OW20113   0.382   2.562   6.066
 2866SOL    HW120114   0.427   2.472   6.063
 2866SOL    HW220115   0.288   2.551   6.099
 2867SOL     OW20116   1.547   2.084   7.315
 2867SOL    HW120117   1.542   2.121   7.407
 2867SOL    HW220118   1.475   2.015   7.303
 2868SOL     OW20119   0.614   1.984   5.703
 2868SOL    HW120120   0.712   1.962   5.710
 2868SOL    HW220121   0.583   1.967   5.610
 2869SOL     OW20122   0.781   2.126   7.335
 2869SOL    HW120123   0.848   2.065   7.378
 2869SOL    HW220124   0.708   2.145   7.400
 2870SOL     OW20125   0.888   3.376   6.781
 2870SOL    HW120126   0.865   3.351   6.687
 2870SOL    HW220127   0.949   3.307   6.820
 2871SOL     OW20128   1.351   2.452   7.019
 2871SOL    HW120129   1.379   2.409   7.104
 2871SOL    HW220130   1.376   2.548   7.020
 2872SOL     OW20131   0.803   3.264   6.510
 2872SOL    HW120132   0.893   3.278   6.468
 2872SOL    HW220133   0.732   3.266   6.439
 2873SOL     OW20134   0.922   2.365   6.485
 2873SOL    HW120135   0.897   2.356   6.389
 2873SOL    HW220136   0.970   2.283   6.516
 2874SOL     OW20137   0.539   1.926   6.098
 2874SOL    HW120138   0.458   1.927   6.156
 2874SOL    HW220139   0.542   2.009   6.043
 2875SOL     OW20140   1.434   3.050   5.627
 2875SOL    HW120141   1.466   2.974   5.684
 2875SOL    HW220142   1.342   3.077   5.657
 2876SOL     OW20143   0.297   1.897   5.757
 2876SOL    HW120144   0.346   1.981   5.736
 2876SOL    HW220145   0.359   1.832   5.802
 2877SOL     OW20146   0.935   2.098   6.066
 2877SOL    HW120147   0.887   2.139   5.988
 2877SOL    HW220148   1.034   2.096   6.047
 2878SOL     OW20149   1.076   2.545   7.050
 2878SOL    HW120150   0.996   2.484   7.053
 2878SOL    HW220151   1.157   2.492   7.026
 2879SOL     OW20152   1.227   3.432   6.379
 2879SOL    HW120153   1.248   3.506   6.314
 2879SOL    HW220154   1.295   3.432   6.452
 2880SOL     OW20155   0.459   3.014   6.327
 2880SOL    HW120156   0.388   2.987   6.392
 2880SOL    HW220157   0.433   2.986   6.234
 2881SOL     OW20158   1.271   3.659   6.177
 2881SOL    HW120159   1.315   3.723   6.113
 2881SOL    HW220160   1.221   3.711   6.247
 2882SOL     OW20161   1.032   2.411   5.602
 2882SOL    HW120162   0.991   2.493   5.563
 2882SOL    HW220163   1.096   2.437   5.675
 2883SOL     OW20164   0.078   2.418   6.972
 2883SOL    HW120165   0.170   2.417   6.931
 2883SOL    HW220166   0.072   2.492   7.039
 2884SOL     OW20167   0.561   2.084   6.733
 2884SOL    HW120168   0.599   2.000   6.770
 2884SOL    HW220169   0.473   2.103   6.777
 2885SOL     OW20170   0.866   2.316   6.228
 2885SOL    HW120171   0.834   2.388   6.166
 2885SOL    HW220172   0.890   2.235   6.175
 2886SOL     OW20173   1.017   1.901   6.339
 2886SOL    HW120174   0.945   1.906   6.270
 2886SOL    HW220175   0.993   1.832   6.408
 2887SOL     OW20176   1.429   3.035   6.453
 2887SOL    HW120177   1.374   2.951   6.446
 2887SOL    HW220178   1.455   3.064   6.361
 2888SOL     OW20179   1.466   2.452   6.578
 2888SOL    HW120180   1.436   2.357   6.585
 2888SOL    HW220181   1.539   2.468   6.644
 2889SOL     OW20182   1.857   2.695   5.963
 2889SOL    HW120183   1.899   2.631   6.027
 2889SOL    HW220184   1.819   2.644   5.885
 2890SOL     OW20185   0.488   3.247   5.760
 2890SOL    HW120186   0.401   3.232   5.807
 2890SOL    HW220187   0.471   3.273   5.665
 2891SOL     OW20188   1.664   3.142   6.243
 2891SOL    HW120189   1.763   3.150   6.257
 2891SOL    HW220190   1.619   3.226   6.274
 2892SOL     OW20191   1.390   2.437   5.664
 2892SOL    HW120192   1.336   2.416   5.745
 2892SOL    HW220193   1.481   2.396   5.673
 2893SOL     OW20194   0.527   2.118   5.914
 2893SOL    HW120195   0.554   2.059   5.839
 2893SOL    HW220196   0.527   2.213   5.883
 2894SOL     OW20197   1.754   3.085   7.174
 2894SOL    HW120198   1.845   3.046   7.161
 2894SOL    HW220199   1.762   3.181   7.198
 2895SOL     OW20200   1.064   3.209   6.926
 2895SOL    HW120201   0.984   3.186   6.981
 2895SOL    HW220202   1.147   3.183   6.975
 2896SOL     OW20203   1.592   3.491   7.211
 2896SOL    HW120204   1.619   3.525   7.121
 2896SOL    HW220205   1.671   3.453   7.257
 2897SOL     OW20206   1.111   3.057   6.686
 2897SOL    HW120207   1.071   3.101   6.767
 2897SOL    HW220208   1.070   3.094   6.603
 2898SOL     OW20209   1.638   2.961   6.665
 2898SOL    HW120210   1.643   3.042   6.724
 2898SOL    HW220211   1.552   2.963   6.614
 2899SOL     OW20212   0.915   1.951   6.988
 2899SOL    HW120213   0.940   1.931   6.893
 2899SOL    HW220214   0.987   2.007   7.030
 2900SOL     OW20215   0.980   2.978   7.305
 2900SOL    HW120216   0.881   2.984   7.315
 2900SOL    HW220217   1.003   2.898   7.249
 2901SOL     OW20218   0.705   2.912   5.954
 2901SOL    HW120219   0.691   2.919   6.053
 2901SOL    HW220220   0.789   2.861   5.936
 2902SOL     OW20221   0.410   2.675   6.837
 2902SOL    HW120222   0.496   2.687   6.887
 2902SOL    HW220223   0.368   2.588   6.864
 2903SOL     OW20224   1.274   2.248   6.848
 2903SOL    HW120225   1.295   2.322   6.912
 2903SOL    HW220226   1.185   2.265   6.805
 2904SOL     OW20227   0.064   3.426   6.917
 2904SOL    HW120228   0.018   3.508   6.883
 2904SOL    HW220229   0.162   3.445   6.926
 2905SOL     OW20230   0.367   2.962   6.087
 2905SOL    HW120231   0.360   3.045   6.031
 2905SOL    HW220232   0.371   2.882   6.027
 2906SOL     OW20233   0.566   2.399   6.451
 2906SOL    HW120234   0.578   2.465   6.377
 2906SOL    HW220235   0.612   2.433   6.534
 2907SOL     OW20236   1.252   3.210   5.974
 2907SOL    HW120237   1.302   3.287   6.014
 2907SOL    HW220238   1.157   3.212   6.006
 2908SOL     OW20239   1.272   3.307   6.728
 2908SOL    HW120240   1.319   3.320   6.815
 2908SOL    HW220241   1.206   3.233   6.737
 2909SOL     OW20242   1.582   2.501   6.058
 2909SOL    HW120243   1.551   2.562   6.131
 2909SOL    HW220244   1.632   2.553   5.989
 2910SOL     OW20245   0.354   3.372   6.915
 2910SOL    HW120246   0.333   3.328   6.828
 2910SOL    HW220247   0.451   3.398   6.918
 2911SOL     OW20248   0.402   2.613   7.184
 2911SOL    HW120249   0.470   2.668   7.137
 2911SOL    HW220250   0.442   2.525   7.211
 2912SOL     OW20251   1.587   2.641   7.256
 2912SOL    HW120252   1.495   2.679   7.251
 2912SOL    HW220253   1.647   2.688   7.191
 2913SOL     OW20254   1.013   1.967   7.356
 2913SOL    HW120255   1.019   2.052   7.304
 2913SOL    HW220256   1.045   1.891   7.299
 2914SOL     OW20257   0.504   1.912   7.326
 2914SOL    HW120258   0.462   1.855   7.256
 2914SOL    HW220259   0.438   1.981   7.358
 2915SOL     OW20260   0.573   2.732   6.615
 2915SOL    HW120261   0.617   2.821   6.606
 2915SOL    HW220262   0.510   2.732   6.692
 2916SOL     OW20263   1.360   2.724   6.631
 2916SOL    HW120264   1.285   2.724   6.565
 2916SOL    HW220265   1.397   2.632   6.640
 2917SOL     OW20266   1.209   2.387   5.861
 2917SOL    HW120267   1.222   2.303   5.915
 2917SOL    HW220268   1.180   2.461   5.921
 2918SOL     OW20269   0.307   2.075   6.817
 2918SOL    HW120270   0.284   2.112   6.907
 2918SOL    HW220271   0.277   1.980   6.811
 2919SOL     OW20272   0.037   3.172   6.868
 2919SOL    HW120273   0.090   3.123   6.936
 2919SOL    HW220274   0.059   3.270   6.873
 2920SOL     OW20275   0.732   2.496   6.650
 2920SOL    HW120276   0.791   2.470   6.574
 2920SOL    HW220277   0.704   2.592   6.639
 2921SOL     OW20278   1.728   2.797   7.440
 2921SOL    HW120279   1.682   2.790   7.351
 2921SOL    HW220280   1.666   2.841   7.506
 2922SOL     OW20281   0.307   1.925   6.204
 2922SOL    HW120282   0.296   2.019   6.237
 2922SOL    HW220283   0.302   1.862   6.281
 2923SOL     OW20284   1.622   2.229   5.960
 2923SOL    HW120285   1.624   2.153   6.024
 2923SOL    HW220286   1.574   2.306   6.000
 2924SOL     OW20287   1.023   2.628   6.552
 2924SOL    HW120288   1.038   2.649   6.648
 2924SOL    HW220289   0.993   2.533   6.543
 2925SOL     OW20290   0.980   3.435   7.286
 2925SOL    HW120291   0.960   3.479   7.198
 2925SOL    HW220292   1.019   3.344   7.270
 2926SOL     OW20293   1.859   3.380   7.191
 2926SOL    HW120294   1.873   3.407   7.096
 2926SOL    HW220295   1.942   3.402   7.244
 2927SOL     OW20296   0.350   2.760   7.390
 2927SOL    HW120297   0.426   2.804   7.438
 2927SOL    HW220298   0.385   2.713   7.308
 2928SOL     OW20299   1.540   2.136   5.711
 2928SOL    HW120300   1.479   2.061   5.734
 2928SOL    HW220301   1.562   2.188   5.794
 2929SOL     OW20302   1.303   2.700   5.628
 2929SOL    HW120303   1.337   2.607   5.643
 2929SOL    HW220304   1.321   2.727   5.533
 2930SOL     OW20305   1.068   3.195   6.435
 2930SOL    HW120306   1.075   3.111   6.380
 2930SOL    HW220307   1.130   3.264   6.399
 2931SOL     OW20308   0.319   2.672   6.535
 2931SOL    HW120309   0.412   2.708   6.540
 2931SOL    HW220310   0.313   2.587   6.587
 2932SOL     OW20311   0.339   2.371   6.592
 2932SOL    HW120312   0.287   2.288   6.575
 2932SOL    HW220313   0.416   2.376   6.528
 2933SOL     OW20314   1.138   2.242   7.264
 2933SOL    HW120315   1.093   2.305   7.328
 2933SOL    HW220316   1.231   2.273   7.247
 2934SOL     OW20317   1.160   2.069   7.063
 2934SOL    HW120318   1.160   2.133   7.140
 2934SOL    HW220319   1.188   2.117   6.980
 2935SOL     OW20320   0.008   3.188   5.786
 2935SOL    HW120321  -0.085   3.209   5.755
 2935SOL    HW220322   0.018   3.089   5.799
 2936SOL     OW20323   0.088   3.663   6.513
 2936SOL    HW120324   0.046   3.577   6.486
 2936SOL    HW220325   0.182   3.666   6.479
 2937SOL     OW20326   0.504   3.430   6.496
 2937SOL    HW120327   0.570   3.504   6.505
 2937SOL    HW220328   0.548   3.351   6.454
 2938SOL     OW20329   1.002   2.658   6.824
 2938SOL    HW120330   1.043   2.626   6.910
 2938SOL    HW220331   0.906   2.631   6.821
 2939SOL     OW20332   0.040   2.406   6.700
 2939SOL    HW120333   0.125   2.373   6.659
 2939SOL    HW220334   0.053   2.421   6.798
 2940SOL     OW20335   0.189   2.382   7.308
 2940SOL    HW120336   0.248   2.342   7.238
 2940SOL    HW220337   0.131   2.453   7.267
 2941SOL     OW20338   1.369   2.812   7.246
 2941SOL    HW120339   1.408   2.901   7.266
 2941SOL    HW220340   1.379   2.792   7.149
 2942SOL     OW20341   0.815   2.434   5.911
 2942SOL    HW120342   0.822   2.345   5.865
 2942SOL    HW220343   0.721   2.468   5.903
 2943SOL     OW20344   1.657   2.466   6.792
 2943SOL    HW120345   1.619   2.397   6.854
 2943SOL    HW220346   1.739   2.430   6.748
 2944SOL     OW20347   0.252   3.426   7.330
 2944SOL    HW120348   0.222   3.483   7.406
 2944SOL    HW220349   0.245   3.329   7.356
 2945SOL     OW20350   0.671   2.326   6.855
 2945SOL    HW120351   0.637   2.237   6.825
 2945SOL    HW220352   0.697   2.380   6.775
 2946SOL     OW20353   0.930   3.540   7.051
 2946SOL    HW120354   0.906   3.522   6.956
 2946SOL    HW220355   0.960   3.634   7.061
 2947SOL     OW20356   0.473   2.362   5.777
 2947SOL    HW120357   0.534   2.442   5.781
 2947SOL    HW220358   0.378   2.393   5.784
 2948SOL     OW20359   0.159   2.999   7.052
 2948SOL    HW120360   0.181   2.938   7.128
 2948SOL    HW220361   0.169   2.950   6.966
 2949SOL     OW20362   1.347   2.921   6.820
 2949SOL    HW120363   1.371   2.858   6.746
 2949SOL    HW220364   1.257   2.961   6.802
 2950SOL     OW20365   1.302   2.717   5.895
 2950SOL    HW120366   1.216   2.686   5.937
 2950SOL    HW220367   1.298   2.703   5.796
 2951SOL     OW20368   1.759   3.609   6.740
 2951SOL    HW120369   1.820   3.639   6.667
 2951SOL    HW220370   1.721   3.520   6.718
 2952SOL     OW20371   1.252   3.593   6.714
 2952SOL    HW120372   1.336   3.598   6.660
 2952SOL    HW220373   1.229   3.497   6.732
 2953SOL     OW20374   0.083   3.120   6.608
 2953SOL    HW120375   0.078   3.119   6.708
 2953SOL    HW220376   0.000   3.079   6.570
 2954SOL     OW20377   0.688   3.524   7.302
 2954SOL    HW120378   0.632   3.605   7.311
 2954SOL    HW220379   0.740   3.528   7.216
 2955SOL     OW20380   1.726   1.997   6.109
 2955SOL    HW120381   1.799   1.980   6.042
 2955SOL    HW220382   1.695   1.910   6.147
 2956SOL     OW20383   1.388   3.435   6.063
 2956SOL    HW120384   1.455   3.447   5.989
 2956SOL    HW220385   1.348   3.524   6.086
 2957SOL     OW20386   0.130   3.656   7.437
 2957SOL    HW120387   0.089   3.582   7.490
 2957SOL    HW220388   0.194   3.707   7.495
 2958SOL     OW20389   1.280   2.789   6.258
 2958SOL    HW120390   1.340   2.708   6.260
 2958SOL    HW220391   1.320   2.858   6.198
 2959SOL     OW20392   0.830   3.135   7.008
 2959SOL    HW120393   0.825   3.168   7.103
 2959SOL    HW220394   0.744   3.154   6.962
 2960SOL     OW20395   0.672   3.478   5.740
 2960SOL    HW120396   0.681   3.488   5.641
 2960SOL    HW220397   0.632   3.389   5.761
 2961SOL     OW20398   1.650   3.582   6.980
 2961SOL    HW120399   1.703   3.592   6.896
 2961SOL    HW220400   1.623   3.672   7.014
 2962SOL     OW20401   1.841   2.037   6.549
 2962SOL    HW120402   1.880   1.952   6.513
 2962SOL    HW220403   1.743   2.039   6.530
 2963SOL     OW20404   0.263   2.188   6.306
 2963SOL    HW120405   0.184   2.239   6.272
 2963SOL    HW220406   0.254   2.173   6.404
 2964SOL     OW20407   1.194   3.474   5.617
 2964SOL    HW120408   1.200   3.381   5.654
 2964SOL    HW220409   1.135   3.474   5.537
 2965SOL     OW20410   0.822   2.864   6.958
 2965SOL    HW120411   0.862   2.863   6.866
 2965SOL    HW220412   0.832   2.956   6.998
 2966SOL     OW20413   0.916   2.772   5.877
 2966SOL    HW120414   0.979   2.810   5.809
 2966SOL    HW220415   0.956   2.689   5.916
 2967SOL     OW20416   1.504   3.469   5.630
 2967SOL    HW120417   1.412   3.506   5.637
 2967SOL    HW220418   1.542   3.489   5.540
 2968SOL     OW20419   0.372   3.150   7.076
 2968SOL    HW120420   0.359   3.243   7.042
 2968SOL    HW220421   0.288   3.098   7.063
 2969SOL     OW20422   1.614   3.154   6.875
 2969SOL    HW120423   1.674   3.157   6.955
 2969SOL    HW220424   1.539   3.218   6.888
 2970SOL     OW20425   1.039   2.960   6.282
 2970SOL    HW120426   0.969   2.913   6.336
 2970SOL    HW220427   1.098   2.892   6.239
 2971SOL     OW20428   1.014   2.098   6.557
 2971SOL    HW120429   1.006   2.062   6.464
 2971SOL    HW220430   1.012   2.022   6.622
 2972SOL     OW20431   0.590   3.349   6.077
 2972SOL    HW120432   0.632   3.291   6.007
 2972SOL    HW220433   0.546   3.428   6.033
 2973SOL     OW20434   1.709   2.247   6.967
 2973SOL    HW120435   1.782   2.316   6.971
 2973SOL    HW220436   1.737   2.172   6.908
 2974SOL     OW20437   0.255   3.210   5.876
 2974SOL    HW120438   0.159   3.211   5.849
 2974SOL    HW220439   0.267   3.263   5.960
 2975SOL     OW20440   0.105   2.875   7.312
 2975SOL    HW120441   0.028   2.842   7.366
 2975SOL    HW220442   0.190   2.845   7.354
 2976SOL     OW20443   0.672   2.065   7.075
 2976SOL    HW120444   0.762   2.049   7.035
 2976SOL    HW220445   0.680   2.070   7.174
 2977SOL     OW20446   0.075   2.207   5.619
 2977SOL    HW120447  -0.017   2.179   5.590
 2977SOL    HW220448   0.106   2.284   5.563
 2978SOL     OW20449   1.440   2.718   6.984
 2978SOL    HW120450   1.383   2.770   6.921
 2978SOL    HW220451   1.536   2.730   6.960
 2979SOL     OW20452   0.072   2.028   5.904
 2979SOL    HW120453   0.055   2.111   5.850
 2979SOL    HW220454   0.162   1.991   5.882
 2980SOL     OW20455   1.183   3.197   5.705
 2980SOL    HW120456   1.084   3.186   5.707
 2980SOL    HW220457   1.217   3.212   5.798
 2981SOL     OW20458   0.613   2.704   7.017
 2981SOL    HW120459   0.669   2.785   7.000
 2981SOL    HW220460   0.672   2.624   7.020
 2982SOL     OW20461   1.493   3.629   6.545
 2982SOL    HW120462   1.526   3.693   6.476
 2982SOL    HW220463   1.559   3.623   6.620
 2983SOL     OW20464   0.716   2.427   7.294
 2983SOL    HW120465   0.735   2.492   7.368
 2983SOL    HW220466   0.776   2.347   7.303
 2984SOL     OW20467   1.450   3.082   7.219
 2984SOL    HW120468   1.441   3.072   7.318
 2984SOL    HW220469   1.546   3.075   7.193
 2985SOL     OW20470   0.390   3.603   7.146
 2985SOL    HW120471   0.299   3.644   7.144
 2985SOL    HW220472   0.383   3.509   7.178
 2986SOL     OW20473   1.674   2.745   6.840
 2986SOL    HW120474   1.647   2.656   6.803
 2986SOL    HW220475   1.675   2.813   6.767
 2987SOL     OW20476   1.225   2.187   6.035
 2987SOL    HW120477   1.290   2.113   6.024
 2987SOL    HW220478   1.245   2.237   6.119
 2988SOL     OW20479   0.594   2.607   6.238
 2988SOL    HW120480   0.644   2.692   6.219
 2988SOL    HW220481   0.506   2.609   6.190
 2989SOL     OW20482   1.777   2.204   7.228
 2989SOL    HW120483   1.760   2.235   7.134
 2989SOL    HW220484   1.693   2.167   7.266
 2990SOL     OW20485   1.730   2.796   7.103
 2990SOL    HW120486   1.768   2.887   7.118
 2990SOL    HW220487   1.722   2.779   7.004
 2991SOL     OW20488   0.859   3.236   5.602
 2991SOL    HW120489   0.813   3.251   5.690
 2991SOL    HW220490   0.903   3.321   5.572
 2992SOL     OW20491   0.661   3.652   6.539
 2992SOL    HW120492   0.615   3.740   6.526
 2992SOL    HW220493   0.760   3.664   6.532
 2993SOL     OW20494   0.859   2.818   6.447
 2993SOL    HW120495   0.913   2.749   6.495
 2993SOL    HW220496   0.827   2.887   6.513
 2994SOL     OW20497   1.083   2.846   5.673
 2994SOL    HW120498   1.060   2.899   5.591
 2994SOL    HW220499   1.164   2.790   5.654
 2995SOL     OW20500   1.861   3.431   6.437
 2995SOL    HW120501   1.790   3.419   6.367
 2995SOL    HW220502   1.862   3.352   6.497
 2996SOL     OW20503   0.221   3.176   7.430
 2996SOL    HW120504   0.156   3.103   7.409
 2996SOL    HW220505   0.225   3.190   7.528
 2997SOL     OW20506   0.079   3.102   6.239
 2997SOL    HW120507   0.078   3.055   6.327
 2997SOL    HW220508   0.161   3.074   6.188
 2998SOL     OW20509   0.672   3.253   7.210
 2998SOL    HW120510   0.594   3.203   7.248
 2998SOL    HW220511   0.669   3.348   7.241
 2999SOL     OW20512   1.824   2.054   6.813
 2999SOL    HW120513   1.820   1.964   6.857
 2999SOL    HW220514   1.827   2.043   6.714
 3000SOL     OW20515   0.428   2.286   6.106
 3000SOL    HW120516   0.458   2.214   6.044
 3000SOL    HW220517   0.389   2.246   6.189
 3001SOL     OW20518   1.705   3.349   6.690
 3001SOL    HW120519   1.612   3.324   6.663
 3001SOL    HW220520   1.731   3.299   6.772
 3002SOL     OW20521   0.317   2.409   6.866
 3002SOL    HW120522   0.355   2.350   6.938
 3002SOL    HW220523   0.357   2.383   6.778
 3003SOL     OW20524   0.812   3.448   6.273
 3003SOL    HW120525   0.844   3.458   6.179
 3003SOL    HW220526   0.733   3.386   6.275
 3004SOL     OW20527   1.424   2.076   6.698
 3004SOL    HW120528   1.476   2.011   6.753
 3004SOL    HW220529   1.375   2.139   6.759
 3005SOL     OW20530   1.001   1.896   6.740
 3005SOL    HW120531   0.938   1.824   6.709
 3005SOL    HW220532   1.094   1.860   6.740
 3006SOL     OW20533   0.770   3.192   5.887
 3006SOL    HW120534   0.724   3.105   5.904
 3006SOL    HW220535   0.861   3.189   5.928
 3007SOL     OW20536   0.618   3.429   6.870
 3007SOL    HW120537   0.613   3.511   6.927
 3007SOL    HW220538   0.707   3.426   6.825
 3008SOL     OW20539   1.352   1.914   5.754
 3008SOL    HW120540   1.387   1.873   5.670
 3008SOL    HW220541   1.262   1.876   5.774
 3009SOL     OW20542   1.300   2.315   6.277
 3009SOL    HW120543   1.241   2.395   6.281
 3009SOL    HW220544   1.315   2.280   6.370
 3010SOL     OW20545   1.593   2.083   6.468
 3010SOL    HW120546   1.509   2.082   6.522
 3010SOL    HW220547   1.595   2.166   6.412
 3011SOL     OW20548   0.039   2.939   5.886
 3011SOL    HW120549   0.138   2.928   5.877
 3011SOL    HW220550  -0.001   2.853   5.918
 3012SOL     OW20551   0.875   3.508   5.923
 3012SOL    HW120552   0.798   3.473   5.869
 3012SOL    HW220553   0.843   3.579   5.985
 3013SOL     OW20554   0.230   2.490   7.561
 3013SOL    HW120555   0.137   2.488   7.598
 3013SOL    HW220556   0.231   2.451   7.469
 3014SOL     OW20557   0.225   2.137   8.444
 3014SOL    HW120558   0.260   2.120   8.536
 3014SOL    HW220559   0.137   2.092   8.432
 3015SOL     OW20560   0.019   2.230   8.095
 3015SOL    HW120561  -0.063   2.273   8.134
 3015SOL    HW220562  -0.009   2.157   8.032
 3016SOL     OW20563   0.569   3.137   8.613
 3016SOL    HW120564   0.476   3.130   8.576
 3016SOL    HW220565   0.580   3.226   8.657
 3017SOL     OW20566   1.555   3.373   8.151
 3017SOL    HW120567   1.498   3.357   8.232
 3017SOL    HW220568   1.496   3.383   8.071
 3018SOL     OW20569   1.135   2.565   8.165
 3018SOL    HW120570   1.192   2.643   8.140
 3018SOL    HW220571   1.075   2.591   8.241
 3019SOL     OW20572   1.755   2.469   7.679
 3019SOL    HW120573   1.743   2.456   7.580
 3019SOL    HW220574   1.725   2.388   7.728
 3020SOL     OW20575   0.768   3.006   8.471
 3020SOL    HW120576   0.690   3.023   8.531
 3020SOL    HW220577   0.802   3.093   8.435
 3021SOL     OW20578   0.850   2.660   9.271
 3021SOL    HW120579   0.846   2.736   9.336
 3021SOL    HW220580   0.872   2.696   9.180
 3022SOL     OW20581   0.685   2.874   8.113
 3022SOL    HW120582   0.754   2.858   8.183
 3022SOL    HW220583   0.612   2.931   8.151
 3023SOL     OW20584   0.686   3.023   9.251
 3023SOL    HW120585   0.746   3.102   9.265
 3023SOL    HW220586   0.600   3.054   9.210
 3024SOL     OW20587   0.335   3.297   8.509
 3024SOL    HW120588   0.257   3.266   8.456
 3024SOL    HW220589   0.393   3.355   8.452
 3025SOL     OW20590   1.460   3.367   8.787
 3025SOL    HW120591   1.484   3.461   8.813
 3025SOL    HW220592   1.444   3.313   8.869
 3026SOL     OW20593   0.438   2.254   8.947
 3026SOL    HW120594   0.520   2.198   8.956
 3026SOL    HW220595   0.357   2.196   8.951
 3027SOL     OW20596   1.603   2.309   8.185
 3027SOL    HW120597   1.529   2.355   8.135
 3027SOL    HW220598   1.654   2.377   8.238
 3028SOL     OW20599   0.231   3.575   7.931
 3028SOL    HW120600   0.265   3.652   7.985
 3028SOL    HW220601   0.275   3.575   7.841
 3029SOL     OW20602   1.127   3.203   9.138
 3029SOL    HW120603   1.174   3.203   9.226
 3029SOL    HW220604   1.079   3.116   9.127
 3030SOL     OW20605   0.230   3.296   7.986
 3030SOL    HW120606   0.204   3.392   7.986
 3030SOL    HW220607   0.159   3.242   8.031
 3031SOL     OW20608   0.240   2.953   8.334
 3031SOL    HW120609   0.254   2.869   8.386
 3031SOL    HW220610   0.185   3.017   8.389
 3032SOL     OW20611   0.620   3.648   8.887
 3032SOL    HW120612   0.528   3.631   8.922
 3032SOL    HW220613   0.648   3.740   8.913
 3033SOL     OW20614   0.606   2.826   7.571
 3033SOL    HW120615   0.613   2.910   7.517
 3033SOL    HW220616   0.652   2.839   7.659
 3034SOL     OW20617   1.594   1.976   8.928
 3034SOL    HW120618   1.576   2.043   8.856
 3034SOL    HW220619   1.591   2.022   9.017
 3035SOL     OW20620   0.122   2.505   8.011
 3035SOL    HW120621   0.077   2.417   8.028
 3035SOL    HW220622   0.121   2.559   8.095
 3036SOL     OW20623   1.842   3.629   7.807
 3036SOL    HW120624   1.896   3.600   7.887
 3036SOL    HW220625   1.872   3.719   7.778
 3037SOL     OW20626   0.027   3.458   7.565
 3037SOL    HW120627   0.008   3.362   7.586
 3037SOL    HW220628  -0.006   3.516   7.640
 3038SOL     OW20629   1.689   2.784   8.060
 3038SOL    HW120630   1.784   2.755   8.068
 3038SOL    HW220631   1.681   2.849   7.985
 3039SOL     OW20632   1.641   2.970   7.880
 3039SOL    HW120633   1.727   2.972   7.828
 3039SOL    HW220634   1.655   3.017   7.968
 3040SOL     OW20635   0.113   2.599   9.045
 3040SOL    HW120636   0.201   2.586   9.090
 3040SOL    HW220637   0.100   2.696   9.023
 3041SOL     OW20638   0.613   3.227   8.174
 3041SOL    HW120639   0.564   3.140   8.183
 3041SOL    HW220640   0.590   3.270   8.087
 3042SOL     OW20641   1.293   3.090   8.871
 3042SOL    HW120642   1.330   3.017   8.813
 3042SOL    HW220643   1.345   3.095   8.956
 3043SOL     OW20644   0.809   1.866   7.950
 3043SOL    HW120645   0.849   1.957   7.941
 3043SOL    HW220646   0.709   1.874   7.956
 3044SOL     OW20647   0.197   2.838   8.712
 3044SOL    HW120648   0.286   2.793   8.698
 3044SOL    HW220649   0.124   2.773   8.693
 3045SOL     OW20650   1.525   2.861   7.638
 3045SOL    HW120651   1.462   2.785   7.651
 3045SOL    HW220652   1.573   2.879   7.724
 3046SOL     OW20653   1.187   3.654   9.064
 3046SOL    HW120654   1.211   3.714   8.988
 3046SOL    HW220655   1.194   3.559   9.034
 3047SOL     OW20656   0.317   2.113   9.249
 3047SOL    HW120657   0.388   2.184   9.255
 3047SOL    HW220658   0.229   2.152   9.277
 3048SOL     OW20659   1.466   3.279   8.401
 3048SOL    HW120660   1.407   3.285   8.481
 3048SOL    HW220661   1.451   3.191   8.355
 3049SOL     OW20662   1.667   3.576   8.020
 3049SOL    HW120663   1.626   3.553   7.932
 3049SOL    HW220664   1.649   3.502   8.085
 3050SOL     OW20665   0.598   2.591   7.718
 3050SOL    HW120666   0.622   2.660   7.650
 3050SOL    HW220667   0.520   2.624   7.772
 3051SOL     OW20668   1.281   2.207   8.392
 3051SOL    HW120669   1.195   2.157   8.379
 3051SOL    HW220670   1.343   2.153   8.448
 3052SOL     OW20671   1.576   3.524   7.755
 3052SOL    HW120672   1.665   3.570   7.758
 3052SOL    HW220673   1.555   3.500   7.660
 3053SOL     OW20674   0.807   2.467   8.913
 3053SOL    HW120675   0.760   2.464   9.002
 3053SOL    HW220676   0.756   2.412   8.847
 3054SOL     OW20677   1.394   2.331   9.122
 3054SOL    HW120678   1.374   2.374   9.210
 3054SOL    HW220679   1.472   2.269   9.131
 3055SOL     OW20680   0.973   2.752   9.020
 3055SOL    HW120681   1.019   2.668   8.991
 3055SOL    HW220682   0.917   2.786   8.945
 3056SOL     OW20683   0.991   2.272   8.690
 3056SOL    HW120684   0.914   2.306   8.744
 3056SOL    HW220685   0.957   2.221   8.611
 3057SOL     OW20686   1.041   2.563   7.877
 3057SOL    HW120687   1.067   2.559   7.973
 3057SOL    HW220688   0.956   2.512   7.863
 3058SOL     OW20689   0.076   2.673   8.237
 3058SOL    HW120690   0.175   2.661   8.246
 3058SOL    HW220691   0.052   2.768   8.258
 3059SOL     OW20692   0.130   3.683   9.019
 3059SOL    HW120693   0.120   3.668   9.118
 3059SOL    HW220694   0.044   3.719   8.983
 3060SOL     OW20695   0.865   2.210   7.643
 3060SOL    HW120696   0.924   2.273   7.594
 3060SOL    HW220697   0.884   2.116   7.614
 3061SOL     OW20698   1.719   2.447   9.279
 3061SOL    HW120699   1.693   2.536   9.243
 3061SOL    HW220700   1.717   2.379   9.206
 3062SOL     OW20701   1.362   3.006   7.993
 3062SOL    HW120702   1.445   2.977   7.945
 3062SOL    HW220703   1.313   3.073   7.937
 3063SOL     OW20704   0.550   2.058   8.333
 3063SOL    HW120705   0.545   2.053   8.433
 3063SOL    HW220706   0.552   2.154   8.304
 3064SOL     OW20707   1.008   3.318   7.925
 3064SOL    HW120708   0.962   3.390   7.873
 3064SOL    HW220709   1.004   3.338   8.023
 3065SOL     OW20710   0.351   3.663   8.301
 3065SOL    HW120711   0.401   3.577   8.307
 3065SOL    HW220712   0.416   3.740   8.298
 3066SOL     OW20713   1.795   2.928   8.321
 3066SOL    HW120714   1.733   2.913   8.245
 3066SOL    HW220715   1.743   2.939   8.406
 3067SOL     OW20716   1.227   3.412   8.954
 3067SOL    HW120717   1.233   3.335   9.018
 3067SOL    HW220718   1.175   3.386   8.874
 3068SOL     OW20719   0.321   2.805   7.690
 3068SOL    HW120720   0.403   2.844   7.648
 3068SOL    HW220721   0.294   2.723   7.641
 3069SOL     OW20722   1.458   2.597   8.176
 3069SOL    HW120723   1.453   2.532   8.251
 3069SOL    HW220724   1.538   2.656   8.189
 3070SOL     OW20725   0.461   3.128   9.175
 3070SOL    HW120726   0.411   3.129   9.089
 3070SOL    HW220727   0.398   3.110   9.251
 3071SOL     OW20728   1.111   3.638   7.685
 3071SOL    HW120729   1.051   3.576   7.735
 3071SOL    HW220730   1.142   3.594   7.600
 3072SOL     OW20731   0.202   2.147   8.946
 3072SOL    HW120732   0.122   2.207   8.933
 3072SOL    HW220733   0.192   2.098   9.032
 3073SOL     OW20734   1.632   3.239   7.529
 3073SOL    HW120735   1.600   3.333   7.519
 3073SOL    HW220736   1.556   3.176   7.517
 3074SOL     OW20737   0.464   3.605   7.771
 3074SOL    HW120738   0.497   3.644   7.857
 3074SOL    HW220739   0.540   3.598   7.706
 3075SOL     OW20740   1.400   1.969   7.874
 3075SOL    HW120741   1.376   1.932   7.784
 3075SOL    HW220742   1.499   1.985   7.878
 3076SOL     OW20743   0.249   3.647   8.689
 3076SOL    HW120744   0.306   3.582   8.739
 3076SOL    HW220745   0.233   3.614   8.596
 3077SOL     OW20746   0.940   3.560   8.352
 3077SOL    HW120747   1.020   3.503   8.373
 3077SOL    HW220748   0.891   3.520   8.275
 3078SOL     OW20749   0.382   2.562   7.928
 3078SOL    HW120750   0.427   2.472   7.925
 3078SOL    HW220751   0.288   2.551   7.961
 3079SOL     OW20752   1.547   2.084   9.177
 3079SOL    HW120753   1.542   2.121   9.269
 3079SOL    HW220754   1.475   2.015   9.165
 3080SOL     OW20755   0.614   1.984   7.565
 3080SOL    HW120756   0.712   1.962   7.572
 3080SOL    HW220757   0.583   1.967   7.472
 3081SOL     OW20758   0.781   2.126   9.197
 3081SOL    HW120759   0.848   2.065   9.240
 3081SOL    HW220760   0.708   2.145   9.262
 3082SOL     OW20761   0.888   3.376   8.643
 3082SOL    HW120762   0.865   3.351   8.549
 3082SOL    HW220763   0.949   3.307   8.682
 3083SOL     OW20764   1.351   2.452   8.881
 3083SOL    HW120765   1.379   2.409   8.966
 3083SOL    HW220766   1.376   2.548   8.882
 3084SOL     OW20767   0.803   3.264   8.372
 3084SOL    HW120768   0.893   3.278   8.330
 3084SOL    HW220769   0.732   3.266   8.301
 3085SOL     OW20770   0.922   2.365   8.347
 3085SOL    HW120771   0.897   2.356   8.251
 3085SOL    HW220772   0.970   2.283   8.378
 3086SOL     OW20773   0.539   1.926   7.960
 3086SOL    HW120774   0.458   1.927   8.018
 3086SOL    HW220775   0.542   2.009   7.905
 3087SOL     OW20776   1.434   3.050   7.489
 3087SOL    HW120777   1.466   2.974   7.546
 3087SOL    HW220778   1.342   3.077   7.519
 3088SOL     OW20779   0.297   1.897   7.619
 3088SOL    HW120780   0.346   1.981   7.598
 3088SOL    HW220781   0.359   1.832   7.664
 3089SOL     OW20782   0.935   2.098   7.928
 3089SOL    HW120783   0.887   2.139   7.850
 3089SOL    HW220784   1.034   2.096   7.909
 3090SOL     OW20785   1.076   2.545   8.912
 3090SOL    HW120786   0.996   2.484   8.915
 3090SOL    HW220787   1.157   2.492   8.888
 3091SOL     OW20788   1.227   3.432   8.241
 3091SOL    HW120789   1.248   3.506   8.176
 3091SOL    HW220790   1.295   3.432   8.314
 3092SOL     OW20791   0.459   3.014   8.189
 3092SOL    HW120792   0.388   2.987   8.254
 3092SOL    HW220793   0.433   2.986   8.096
 3093SOL     OW20794   1.271   3.659   8.039
 3093SOL    HW120795   1.315   3.723   7.975
 3093SOL    HW220796   1.221   3.711   8.109
 3094SOL     OW20797   1.032   2.411   7.464
 3094SOL    HW120798   0.991   2.493   7.425
 3094SOL    HW220799   1.096   2.437   7.537
 3095SOL     OW20800   0.078   2.418   8.834
 3095SOL    HW120801   0.170   2.417   8.793
 3095SOL    HW220802   0.072   2.492   8.901
 3096SOL     OW20803   0.561   2.084   8.595
 3096SOL    HW120804   0.599   2.000   8.632
 3096SOL    HW220805   0.473   2.103   8.639
 3097SOL     OW20806   0.866   2.316   8.090
 3097SOL    HW120807   0.834   2.388   8.028
 3097SOL    HW220808   0.890   2.235   8.037
 3098SOL     OW20809   1.017   1.901   8.201
 3098SOL    HW120810   0.945   1.906   8.132
 3098SOL    HW220811   0.993   1.832   8.270
 3099SOL     OW20812   1.429   3.035   8.315
 3099SOL    HW120813   1.374   2.951   8.308
 3099SOL    HW220814   1.455   3.064   8.223
 3100SOL     OW20815   1.466   2.452   8.440
 3100SOL    HW120816   1.436   2.357   8.447
 3100SOL    HW220817   1.539   2.468   8.506
 3101SOL     OW20818   1.857   2.695   7.825
 3101SOL    HW120819   1.899   2.631   7.889
 3101SOL    HW220820   1.819   2.644   7.747
 3102SOL     OW20821   0.488   3.247   7.622
 3102SOL    HW120822   0.401   3.232   7.669
 3102SOL    HW220823   0.471   3.273   7.527
 3103SOL     OW20824   1.664   3.142   8.105
 3103SOL    HW120825   1.763   3.150   8.119
 3103SOL    HW220826   1.619   3.226   8.136
 3104SOL     OW20827   1.390   2.437   7.526
 3104SOL    HW120828   1.336   2.416   7.607
 3104SOL    HW220829   1.481   2.396   7.535
 3105SOL     OW20830   0.527   2.118   7.776
 3105SOL    HW120831   0.554   2.059   7.701
 3105SOL    HW220832   0.527   2.213   7.745
 3106SOL     OW20833   1.754   3.085   9.036
 3106SOL    HW120834   1.845   3.046   9.023
 3106SOL    HW220835   1.762   3.181   9.060
 3107SOL     OW20836   1.064   3.209   8.788
 3107SOL    HW120837   0.984   3.186   8.843
 3107SOL    HW220838   1.147   3.183   8.837
 3108SOL     OW20839   1.592   3.491   9.073
 3108SOL    HW120840   1.619   3.525   8.983
 3108SOL    HW220841   1.671   3.453   9.119
 3109SOL     OW20842   1.111   3.057   8.548
 3109SOL    HW120843   1.071   3.101   8.629
 3109SOL    HW220844   1.070   3.094   8.465
 3110SOL     OW20845   1.638   2.961   8.527
 3110SOL    HW120846   1.643   3.042   8.586
 3110SOL    HW220847   1.552   2.963   8.476
 3111SOL     OW20848   0.915   1.951   8.850
 3111SOL    HW120849   0.940   1.931   8.755
 3111SOL    HW220850   0.987   2.007   8.892
 3112SOL     OW20851   0.980   2.978   9.167
 3112SOL    HW120852   0.881   2.984   9.177
 3112SOL    HW220853   1.003   2.898   9.111
 3113SOL     OW20854   0.705   2.912   7.816
 3113SOL    HW120855   0.691   2.919   7.915
 3113SOL    HW220856   0.789   2.861   7.798
 3114SOL     OW20857   0.410   2.675   8.699
 3114SOL    HW120858   0.496   2.687   8.749
 3114SOL    HW220859   0.368   2.588   8.726
 3115SOL     OW20860   1.274   2.248   8.710
 3115SOL    HW120861   1.295   2.322   8.774
 3115SOL    HW220862   1.185   2.265   8.667
 3116SOL     OW20863   0.064   3.426   8.779
 3116SOL    HW120864   0.018   3.508   8.745
 3116SOL    HW220865   0.162   3.445   8.788
 3117SOL     OW20866   0.367   2.962   7.949
 3117SOL    HW120867   0.360   3.045   7.893
 3117SOL    HW220868   0.371   2.882   7.889
 3118SOL     OW20869   0.566   2.399   8.313
 3118SOL    HW120870   0.578   2.465   8.239
 3118SOL    HW220871   0.612   2.433   8.396
 3119SOL     OW20872   1.252   3.210   7.836
 3119SOL    HW120873   1.302   3.287   7.876
 3119SOL    HW220874   1.157   3.212   7.868
 3120SOL     OW20875   1.272   3.307   8.590
 3120SOL    HW120876   1.319   3.320   8.677
 3120SOL    HW220877   1.206   3.233   8.599
 3121SOL     OW20878   1.582   2.501   7.920
 3121SOL    HW120879   1.551   2.562   7.993
 3121SOL    HW220880   1.632   2.553   7.851
 3122SOL     OW20881   0.354   3.372   8.777
 3122SOL    HW120882   0.333   3.328   8.690
 3122SOL    HW220883   0.451   3.398   8.780
 3123SOL     OW20884   0.402   2.613   9.046
 3123SOL    HW120885   0.470   2.668   8.999
 3123SOL    HW220886   0.442   2.525   9.073
 3124SOL     OW20887   1.587   2.641   9.118
 3124SOL    HW120888   1.495   2.679   9.113
 3124SOL    HW220889   1.647   2.688   9.053
 3125SOL     OW20890   1.013   1.967   9.218
 3125SOL    HW120891   1.019   2.052   9.166
 3125SOL    HW220892   1.045   1.891   9.161
 3126SOL     OW20893   0.504   1.912   9.188
 3126SOL    HW120894   0.462   1.855   9.118
 3126SOL    HW220895   0.438   1.981   9.220
 3127SOL     OW20896   0.573   2.732   8.477
 3127SOL    HW120897   0.617   2.821   8.468
 3127SOL    HW220898   0.510   2.732   8.554
 3128SOL     OW20899   1.360   2.724   8.493
 3128SOL    HW120900   1.285   2.724   8.427
 3128SOL    HW220901   1.397   2.632   8.502
 3129SOL     OW20902   1.209   2.387   7.723
 3129SOL    HW120903   1.222   2.303   7.777
 3129SOL    HW220904   1.180   2.461   7.783
 3130SOL     OW20905   0.307   2.075   8.679
 3130SOL    HW120906   0.284   2.112   8.769
 3130SOL    HW220907   0.277   1.980   8.673
 3131SOL     OW20908   0.037   3.172   8.730
 3131SOL    HW120909   0.090   3.123   8.798
 3131SOL    HW220910   0.059   3.270   8.735
 3132SOL     OW20911   0.732   2.496   8.512
 3132SOL    HW120912   0.791   2.470   8.436
 3132SOL    HW220913   0.704   2.592   8.501
 3133SOL     OW20914   1.728   2.797   9.302
 3133SOL    HW120915   1.682   2.790   9.213
 3133SOL    HW220916   1.666   2.841   9.368
 3134SOL     OW20917   0.307   1.925   8.066
 3134SOL    HW120918   0.296   2.019   8.099
 3134SOL    HW220919   0.302   1.862   8.143
 3135SOL     OW20920   1.622   2.229   7.822
 3135SOL    HW120921   1.624   2.153   7.886
 3135SOL    HW220922   1.574   2.306   7.862
 3136SOL     OW20923   1.023   2.628   8.414
 3136SOL    HW120924   1.038   2.649   8.510
 3136SOL    HW220925   0.993   2.533   8.405
 3137SOL     OW20926   0.980   3.435   9.148
 3137SOL    HW120927   0.960   3.479   9.060
 3137SOL    HW220928   1.019   3.344   9.132
 3138SOL     OW20929   0.350   2.760   9.252
 3138SOL    HW120930   0.426   2.804   9.300
 3138SOL    HW220931   0.385   2.713   9.170
 3139SOL     OW20932   1.540   2.136   7.573
 3139SOL    HW120933   1.479   2.061   7.596
 3139SOL    HW220934   1.562   2.188   7.656
 3140SOL     OW20935   1.303   2.700   7.490
 3140SOL    HW120936   1.337   2.607   7.505
 3140SOL    HW220937   1.321   2.727   7.395
 3141SOL     OW20938   1.068   3.195   8.297
 3141SOL    HW120939   1.075   3.111   8.242
 3141SOL    HW220940   1.130   3.264   8.261
 3142SOL     OW20941   0.319   2.672   8.397
 3142SOL    HW120942   0.412   2.708   8.402
 3142SOL    HW220943   0.313   2.587   8.449
 3143SOL     OW20944   0.339   2.371   8.454
 3143SOL    HW120945   0.287   2.288   8.437
 3143SOL    HW220946   0.416   2.376   8.390
 3144SOL     OW20947   1.138   2.242   9.126
 3144SOL    HW120948   1.093   2.305   9.190
 3144SOL    HW220949   1.231   2.273   9.109
 3145SOL     OW20950   1.160   2.069   8.925
 3145SOL    HW120951   1.160   2.133   9.002
 3145SOL    HW220952   1.188   2.117   8.842
 3146SOL     OW20953   0.008   3.188   7.648
 3146SOL    HW120954  -0.085   3.209   7.617
 3146SOL    HW220955   0.018   3.089   7.661
 3147SOL     OW20956   0.088   3.663   8.375
 3147SOL    HW120957   0.046   3.577   8.348
 3147SOL    HW220958   0.182   3.666   8.341
 3148SOL     OW20959   0.504   3.430   8.358
 3148SOL    HW120960   0.570   3.504   8.367
 3148SOL    HW220961   0.548   3.351   8.316
 3149SOL     OW20962   1.002   2.658   8.686
 3149SOL    HW120963   1.043   2.626   8.772
 3149SOL    HW220964   0.906   2.631   8.683
 3150SOL     OW20965   0.040   2.406   8.562
 3150SOL    HW120966   0.125   2.373   8.521
 3150SOL    HW220967   0.053   2.421   8.660
 3151SOL     OW20968   0.189   2.382   9.170
 3151SOL    HW120969   0.248   2.342   9.100
 3151SOL    HW220970   0.131   2.453   9.129
 3152SOL     OW20971   1.369   2.812   9.108
 3152SOL    HW120972   1.408   2.901   9.128
 3152SOL    HW220973   1.379   2.792   9.011
 3153SOL     OW20974   0.815   2.434   7.773
 3153SOL    HW120975   0.822   2.345   7.727
 3153SOL    HW220976   0.721   2.468   7.765
 3154SOL     OW20977   1.657   2.466   8.654
 3154SOL    HW120978   1.619   2.397   8.716
 3154SOL    HW220979   1.739   2.430   8.610
 3155SOL     OW20980   0.252   3.426   9.192
 3155SOL    HW120981   0.222   3.483   9.268
 3155SOL    HW220982   0.245   3.329   9.218
 3156SOL     OW20983   0.671   2.326   8.717
 3156SOL    HW120984   0.637   2.237   8.687
 3156SOL    HW220985   0.697   2.380   8.637
 3157SOL     OW20986   0.930   3.540   8.913
 3157SOL    HW120987   0.906   3.522   8.818
 3157SOL    HW220988   0.960   3.634   8.923
 3158SOL     OW20989   0.473   2.362   7.639
 3158SOL    HW120990   0.534   2.442   7.643
 3158SOL    HW220991   0.378   2.393   7.646
 3159SOL     OW20992   0.159   2.999   8.914
 3159SOL    HW120993   0.181   2.938   8.990
 3159SOL    HW220994   0.169   2.950   8.828
 3160SOL     OW20995   1.347   2.921   8.682
 3160SOL    HW120996   1.371   2.858   8.608
 3160SOL    HW220997   1.257   2.961   8.664
 3161SOL     OW20998   1.302   2.717   7.757
 3161SOL    HW120999   1.216   2.686   7.799
 3161SOL    HW221000   1.298   2.703   7.658
 3162SOL     OW21001   1.759   3.609   8.602
 3162SOL    HW121002   1.820   3.639   8.529
 3162SOL    HW221003   1.721   3.520   8.580
 3163SOL     OW21004   1.252   3.593   8.576
 3163SOL    HW121005   1.336   3.598   8.522
 3163SOL    HW221006   1.229   3.497   8.594
 3164SOL     OW21007   0.083   3.120   8.470
 3164SOL    HW121008   0.078   3.119   8.570
 3164SOL    HW221009   0.000   3.079   8.432
 3165SOL     OW21010   0.688   3.524   9.164
 3165SOL    HW121011   0.632   3.605   9.173
 3165SOL    HW221012   0.740   3.528   9.078
 3166SOL     OW21013   1.726   1.997   7.971
 3166SOL    HW121014   1.799   1.980   7.904
 3166SOL    HW221015   1.695   1.910   8.009
 3167SOL     OW21016   1.388   3.435   7.925
 3167SOL    HW121017   1.455   3.447   7.851
 3167SOL    HW221018   1.348   3.524   7.948
 3168SOL     OW21019   0.130   3.656   9.299
 3168SOL    HW121020   0.089   3.582   9.352
 3168SOL    HW221021   0.194   3.707   9.357
 3169SOL     OW21022   1.280   2.789   8.120
 3169SOL    HW121023   1.340   2.708   8.122
 3169SOL    HW221024   1.320   2.858   8.060
 3170SOL     OW21025   0.830   3.135   8.870
 3170SOL    HW121026   0.825   3.168   8.965
 3170SOL    HW221027   0.744   3.154   8.824
 3171SOL     OW21028   0.672   3.478   7.602
 3171SOL    HW121029   0.681   3.488   7.503
 3171SOL    HW221030   0.632   3.389   7.623
 3172SOL     OW21031   1.650   3.582   8.842
 3172SOL    HW121032   1.703   3.592   8.758
 3172SOL    HW221033   1.623   3.672   8.876
 3173SOL     OW21034   1.841   2.037   8.411
 3173SOL    HW121035   1.880   1.952   8.375
 3173SOL    HW221036   1.743   2.039   8.392
 3174SOL     OW21037   0.263   2.188   8.168
 3174SOL    HW121038   0.184   2.239   8.134
 3174SOL    HW221039   0.254   2.173   8.266
 3175SOL     OW21040   1.194   3.474   7.479
 3175SOL    HW121041   1.200   3.381   7.516
 3175SOL    HW221042   1.135   3.474   7.399
 3176SOL     OW21043   0.822   2.864   8.820
 3176SOL    HW121044   0.862   2.863   8.728
 3176SOL    HW221045   0.832   2.956   8.860
 3177SOL     OW21046   0.916   2.772   7.739
 3177SOL    HW121047   0.979   2.810   7.671
 3177SOL    HW221048   0.956   2.689   7.778
 3178SOL     OW21049   1.504   3.469   7.492
 3178SOL    HW121050   1.412   3.506   7.499
 3178SOL    HW221051   1.542   3.489   7.402
 3179SOL     OW21052   0.372   3.150   8.938
 3179SOL    HW121053   0.359   3.243   8.904
 3179SOL    HW221054   0.288   3.098   8.925
 3180SOL     OW21055   1.614   3.154   8.737
 3180SOL    HW121056   1.674   3.157   8.817
 3180SOL    HW221057   1.539   3.218   8.750
 3181SOL     OW21058   1.039   2.960   8.144
 3181SOL    HW121059   0.969   2.913   8.198
 3181SOL    HW221060   1.098   2.892   8.101
 3182SOL     OW21061   1.014   2.098   8.419
 3182SOL    HW121062   1.006   2.062   8.326
 3182SOL    HW221063   1.012   2.022   8.484
 3183SOL     OW21064   0.590   3.349   7.939
 3183SOL    HW121065   0.632   3.291   7.869
 3183SOL    HW221066   0.546   3.428   7.895
 3184SOL     OW21067   1.709   2.247   8.829
 3184SOL    HW121068   1.782   2.316   8.833
 3184SOL    HW221069   1.737   2.172   8.770
 3185SOL     OW21070   0.255   3.210   7.738
 3185SOL    HW121071   0.159   3.211   7.711
 3185SOL    HW221072   0.267   3.263   7.822
 3186SOL     OW21073   0.105   2.875   9.174
 3186SOL    HW121074   0.028   2.842   9.228
 3186SOL    HW221075   0.190   2.845   9.216
 3187SOL     OW21076   0.672   2.065   8.937
 3187SOL    HW121077   0.762   2.049   8.897
 3187SOL    HW221078   0.680   2.070   9.036
 3188SOL     OW21079   0.075   2.207   7.481
 3188SOL    HW121080  -0.017   2.179   7.452
 3188SOL    HW221081   0.106   2.284   7.425
 3189SOL     OW21082   1.440   2.718   8.846
 3189SOL    HW121083   1.383   2.770   8.783
 3189SOL    HW221084   1.536   2.730   8.822
 3190SOL     OW21085   0.072   2.028   7.766
 3190SOL    HW121086   0.055   2.111   7.712
 3190SOL    HW221087   0.162   1.991   7.744
 3191SOL     OW21088   1.183   3.197   7.567
 3191SOL    HW121089   1.084   3.186   7.569
 3191SOL    HW221090   1.217   3.212   7.660
 3192SOL     OW21091   0.613   2.704   8.879
 3192SOL    HW121092   0.669   2.785   8.862
 3192SOL    HW221093   0.672   2.624   8.882
 3193SOL     OW21094   1.493   3.629   8.407
 3193SOL    HW121095   1.526   3.693   8.338
 3193SOL    HW221096   1.559   3.623   8.482
 3194SOL     OW21097   0.716   2.427   9.156
 3194SOL    HW121098   0.735   2.492   9.230
 3194SOL    HW221099   0.776   2.347   9.165
 3195SOL     OW21100   1.450   3.082   9.081
 3195SOL    HW121101   1.441   3.072   9.180
 3195SOL    HW221102   1.546   3.075   9.055
 3196SOL     OW21103   0.390   3.603   9.008
 3196SOL    HW121104   0.299   3.644   9.006
 3196SOL    HW221105   0.383   3.509   9.040
 3197SOL     OW21106   1.674   2.745   8.702
 3197SOL    HW121107   1.647   2.656   8.665
 3197SOL    HW221108   1.675   2.813   8.629
 3198SOL     OW21109   1.225   2.187   7.897
 3198SOL    HW121110   1.290   2.113   7.886
 3198SOL    HW221111   1.245   2.237   7.981
 3199SOL     OW21112   0.594   2.607   8.100
 3199SOL    HW121113   0.644   2.692   8.081
 3199SOL    HW221114   0.506   2.609   8.052
 3200SOL     OW21115   1.777   2.204   9.090
 3200SOL    HW121116   1.760   2.235   8.996
 3200SOL    HW221117   1.693   2.167   9.128
 3201SOL     OW21118   1.730   2.796   8.965
 3201SOL    HW121119   1.768   2.887   8.980
 3201SOL    HW221120   1.722   2.779   8.866
 3202SOL     OW21121   0.859   3.236   7.464
 3202SOL    HW121122   0.813   3.251   7.552
 3202SOL    HW221123   0.903   3.321   7.434
 3203SOL     OW21124   0.661   3.652   8.401
 3203SOL    HW121125   0.615   3.740   8.388
 3203SOL    HW221126   0.760   3.664   8.394
 3204SOL     OW21127   0.859   2.818   8.309
 3204SOL    HW121128   0.913   2.749   8.357
 3204SOL    HW221129   0.827   2.887   8.375
 3205SOL     OW21130   1.083   2.846   7.535
 3205SOL    HW121131   1.060   2.899   7.453
 3205SOL    HW221132   1.164   2.790   7.516
 3206SOL     OW21133   1.861   3.431   8.299
 3206SOL    HW121134   1.790   3.419   8.229
 3206SOL    HW221135   1.862   3.352   8.359
 3207SOL     OW21136   0.221   3.176   9.292
 3207SOL    HW121137   0.156   3.103   9.271
 3207SOL    HW221138   0.225   3.190   9.390
 3208SOL     OW21139   0.079   3.102   8.101
 3208SOL    HW121140   0.078   3.055   8.189
 3208SOL    HW221141   0.161   3.074   8.050
 3209SOL     OW21142   0.672   3.253   9.072
 3209SOL    HW121143   0.594   3.203   9.110
 3209SOL    HW221144   0.669   3.348   9.103
 3210SOL     OW21145   1.824   2.054   8.675
 3210SOL    HW121146   1.820   1.964   8.719
 3210SOL    HW221147   1.827   2.043   8.576
 3211SOL     OW21148   0.428   2.286   7.968
 3211SOL    HW121149   0.458   2.214   7.906
 3211SOL    HW221150   0.389   2.246   8.051
 3212SOL     OW21151   1.705   3.349   8.552
 3212SOL    HW121152   1.612   3.324   8.525
 3212SOL    HW221153   1.731   3.299   8.634
 3213SOL     OW21154   0.317   2.409   8.728
 3213SOL    HW121155   0.355   2.350   8.800
 3213SOL    HW221156   0.357   2.383   8.640
 3214SOL     OW21157   0.812   3.448   8.135
 3214SOL    HW121158   0.844   3.458   8.041
 3214SOL    HW221159   0.733   3.386   8.137
 3215SOL     OW21160   1.424   2.076   8.560
 3215SOL    HW121161   1.476   2.011   8.615
 3215SOL    HW221162   1.375   2.139   8.621
 3216SOL     OW21163   1.001   1.896   8.602
 3216SOL    HW121164   0.938   1.824   8.571
 3216SOL    HW221165   1.094   1.860   8.602
 3217SOL     OW21166   0.770   3.192   7.749
 3217SOL    HW121167   0.724   3.105   7.766
 3217SOL    HW221168   0.861   3.189   7.790
 3218SOL     OW21169   0.618   3.429   8.732
 3218SOL    HW121170   0.613   3.511   8.789
 3218SOL    HW221171   0.707   3.426   8.687
 3219SOL     OW21172   1.352   1.914   7.616
 3219SOL    HW121173   1.387   1.873   7.532
 3219SOL    HW221174   1.262   1.876   7.636
 3220SOL     OW21175   1.300   2.315   8.139
 3220SOL    HW121176   1.241   2.395   8.143
 3220SOL    HW221177   1.315   2.280   8.232
 3221SOL     OW21178   1.593   2.083   8.330
 3221SOL    HW121179   1.509   2.082   8.384
 3221SOL    HW221180   1.595   2.166   8.274
 3222SOL     OW21181   0.039   2.939   7.748
 3222SOL    HW121182   0.138   2.928   7.739
 3222SOL    HW221183  -0.001   2.853   7.780
 3223SOL     OW21184   0.875   3.508   7.785
 3223SOL    HW121185   0.798   3.473   7.731
 3223SOL    HW221186   0.843   3.579   7.847
 3224SOL     OW21187   0.230   2.490   9.423
 3224SOL    HW121188   0.137   2.488   9.460
 3224SOL    HW221189   0.231   2.451   9.331
 3225SOL     OW21190   0.225   2.137  10.306
 3225SOL    HW121191   0.260   2.120  10.398
 3225SOL    HW221192   0.137   2.092  10.294
 3226SOL     OW21193   0.019   2.230   9.957
 3226SOL    HW121194  -0.063   2.273   9.996
 3226SOL    HW221195  -0.009   2.157   9.894
 3227SOL     OW21196   0.569   3.137  10.475
 3227SOL    HW121197   0.476   3.130  10.438
 3227SOL    HW221198   0.580   3.226  10.519
 3228SOL     OW21199   1.555   3.373  10.013
 3228SOL    HW121200   1.498   3.357  10.094
 3228SOL    HW221201   1.496   3.383   9.933
 3229SOL     OW21202   1.135   2.565  10.027
 3229SOL    HW121203   1.192   2.643  10.002
 3229SOL    HW221204   1.075   2.591  10.103
 3230SOL     OW21205   0.620   3.648  10.749
 3230SOL    HW121206   0.528   3.631  10.784
 3230SOL    HW221207   0.648   3.740  10.775
 3231SOL     OW21208   0.606   2.826   9.433
 3231SOL    HW121209   0.613   2.910   9.379
 3231SOL    HW221210   0.652   2.839   9.521
 3232SOL     OW21211   1.594   1.976  10.790
 3232SOL    HW121212   1.576   2.043  10.718
 3232SOL    HW221213   1.591   2.022  10.879
 3233SOL     OW21214   0.122   2.505   9.873
 3233SOL    HW121215   0.077   2.417   9.890
 3233SOL    HW221216   0.121   2.559   9.957
 3234SOL     OW21217   0.027   3.458   9.427
 3234SOL    HW121218   0.008   3.362   9.448
 3234SOL    HW221219  -0.006   3.516   9.502
 3235SOL     OW21220   0.809   1.866   9.812
 3235SOL    HW121221   0.849   1.957   9.803
 3235SOL    HW221222   0.709   1.874   9.818
 3236SOL     OW21223   0.317   2.113  11.111
 3236SOL    HW121224   0.388   2.184  11.117
 3236SOL    HW221225   0.229   2.152  11.139
 3237SOL     OW21226   1.466   3.279  10.263
 3237SOL    HW121227   1.407   3.285  10.343
 3237SOL    HW221228   1.451   3.191  10.217
 3238SOL     OW21229   1.667   3.576   9.882
 3238SOL    HW121230   1.626   3.553   9.794
 3238SOL    HW221231   1.649   3.502   9.947
 3239SOL     OW21232   0.598   2.591   9.580
 3239SOL    HW121233   0.622   2.660   9.512
 3239SOL    HW221234   0.520   2.624   9.634
 3240SOL     OW21235   1.281   2.207  10.254
 3240SOL    HW121236   1.195   2.157  10.241
 3240SOL    HW221237   1.343   2.153  10.310
 3241SOL     OW21238   1.576   3.524   9.617
 3241SOL    HW121239   1.665   3.570   9.620
 3241SOL    HW221240   1.555   3.500   9.522
 3242SOL     OW21241   1.394   2.331  10.984
 3242SOL    HW121242   1.374   2.374  11.072
 3242SOL    HW221243   1.472   2.269  10.993
 3243SOL     OW21244   1.041   2.563   9.739
 3243SOL    HW121245   1.067   2.559   9.835
 3243SOL    HW221246   0.956   2.512   9.725
 3244SOL     OW21247   0.865   2.210   9.505
 3244SOL    HW121248   0.924   2.273   9.456
 3244SOL    HW221249   0.884   2.116   9.476
 3245SOL     OW21250   1.719   2.447  11.141
 3245SOL    HW121251   1.693   2.536  11.105
 3245SOL    HW221252   1.717   2.379  11.068
 3246SOL     OW21253   0.550   2.058  10.195
 3246SOL    HW121254   0.545   2.053  10.295
 3246SOL    HW221255   0.552   2.154  10.166
 3247SOL     OW21256   0.351   3.663  10.163
 3247SOL    HW121257   0.401   3.577  10.169
 3247SOL    HW221258   0.416   3.740  10.160
 3248SOL     OW21259   0.321   2.805   9.552
 3248SOL    HW121260   0.403   2.844   9.510
 3248SOL    HW221261   0.294   2.723   9.503
 3249SOL     OW21262   1.111   3.638   9.547
 3249SOL    HW121263   1.051   3.576   9.597
 3249SOL    HW221264   1.142   3.594   9.462
 3250SOL     OW21265   1.400   1.969   9.736
 3250SOL    HW121266   1.376   1.932   9.646
 3250SOL    HW221267   1.499   1.985   9.740
 3251SOL     OW21268   0.940   3.560  10.214
 3251SOL    HW121269   1.020   3.503  10.235
 3251SOL    HW221270   0.891   3.520  10.137
 3252SOL     OW21271   1.547   2.084  11.039
 3252SOL    HW121272   1.542   2.121  11.131
 3252SOL    HW221273   1.475   2.015  11.027
 3253SOL     OW21274   0.614   1.984   9.427
 3253SOL    HW121275   0.712   1.962   9.434
 3253SOL    HW221276   0.583   1.967   9.334
 3254SOL     OW21277   0.539   1.926   9.822
 3254SOL    HW121278   0.458   1.927   9.880
 3254SOL    HW221279   0.542   2.009   9.767
 3255SOL     OW21280   1.434   3.050   9.351
 3255SOL    HW121281   1.466   2.974   9.408
 3255SOL    HW221282   1.342   3.077   9.381
 3256SOL     OW21283   0.297   1.897   9.481
 3256SOL    HW121284   0.346   1.981   9.460
 3256SOL    HW221285   0.359   1.832   9.526
 3257SOL     OW21286   0.935   2.098   9.790
 3257SOL    HW121287   0.887   2.139   9.712
 3257SOL    HW221288   1.034   2.096   9.771
 3258SOL     OW21289   1.076   2.545  10.774
 3258SOL    HW121290   0.996   2.484  10.777
 3258SOL    HW221291   1.157   2.492  10.750
 3259SOL     OW21292   1.227   3.432  10.103
 3259SOL    HW121293   1.248   3.506  10.038
 3259SOL    HW221294   1.295   3.432  10.176
 3260SOL     OW21295   1.271   3.659   9.901
 3260SOL    HW121296   1.315   3.723   9.837
 3260SOL    HW221297   1.221   3.711   9.971
 3261SOL     OW21298   1.032   2.411   9.326
 3261SOL    HW121299   0.991   2.493   9.287
 3261SOL    HW221300   1.096   2.437   9.399
 3262SOL     OW21301   0.866   2.316   9.952
 3262SOL    HW121302   0.834   2.388   9.890
 3262SOL    HW221303   0.890   2.235   9.899
 3263SOL     OW21304   1.017   1.901  10.063
 3263SOL    HW121305   0.945   1.906   9.994
 3263SOL    HW221306   0.993   1.832  10.132
 3264SOL     OW21307   0.488   3.247   9.484
 3264SOL    HW121308   0.401   3.232   9.531
 3264SOL    HW221309   0.471   3.273   9.389
 3265SOL     OW21310   0.527   2.118   9.638
 3265SOL    HW121311   0.554   2.059   9.563
 3265SOL    HW221312   0.527   2.213   9.607
 3266SOL     OW21313   1.754   3.085  10.898
 3266SOL    HW121314   1.845   3.046  10.885
 3266SOL    HW221315   1.762   3.181  10.922
 3267SOL     OW21316   1.638   2.961  10.389
 3267SOL    HW121317   1.643   3.042  10.448
 3267SOL    HW221318   1.552   2.963  10.338
 3268SOL     OW21319   0.705   2.912   9.678
 3268SOL    HW121320   0.691   2.919   9.777
 3268SOL    HW221321   0.789   2.861   9.660
 3269SOL     OW21322   1.274   2.248  10.572
 3269SOL    HW121323   1.295   2.322  10.636
 3269SOL    HW221324   1.185   2.265  10.529
 3270SOL     OW21325   1.252   3.210   9.698
 3270SOL    HW121326   1.302   3.287   9.738
 3270SOL    HW221327   1.157   3.212   9.730
 3271SOL     OW21328   1.360   2.724  10.355
 3271SOL    HW121329   1.285   2.724  10.289
 3271SOL    HW221330   1.397   2.632  10.364
 3272SOL     OW21331   1.209   2.387   9.585
 3272SOL    HW121332   1.222   2.303   9.639
 3272SOL    HW221333   1.180   2.461   9.645
 3273SOL     OW21334   0.037   3.172  10.592
 3273SOL    HW121335   0.090   3.123  10.660
 3273SOL    HW221336   0.059   3.270  10.597
 3274SOL     OW21337   0.307   1.925   9.928
 3274SOL    HW121338   0.296   2.019   9.961
 3274SOL    HW221339   0.302   1.862  10.005
 3275SOL     OW21340   1.303   2.700   9.352
 3275SOL    HW121341   1.337   2.607   9.367
 3275SOL    HW221342   1.321   2.727   9.257
 3276SOL     OW21343   1.138   2.242  10.988
 3276SOL    HW121344   1.093   2.305  11.052
 3276SOL    HW221345   1.231   2.273  10.971
 3277SOL     OW21346   1.160   2.069  10.787
 3277SOL    HW121347   1.160   2.133  10.864
 3277SOL    HW221348   1.188   2.117  10.704
 3278SOL     OW21349   0.008   3.188   9.510
 3278SOL    HW121350  -0.085   3.209   9.479
 3278SOL    HW221351   0.018   3.089   9.523
 3279SOL     OW21352   0.088   3.663  10.237
 3279SOL    HW121353   0.046   3.577  10.210
 3279SOL    HW221354   0.182   3.666  10.203
 3280SOL     OW21355   0.189   2.382  11.032
 3280SOL    HW121356   0.248   2.342  10.962
 3280SOL    HW221357   0.131   2.453  10.991
 3281SOL     OW21358   0.815   2.434   9.635
 3281SOL    HW121359   0.822   2.345   9.589
 3281SOL    HW221360   0.721   2.468   9.627
 3282SOL     OW21361   0.473   2.362   9.501
 3282SOL    HW121362   0.534   2.442   9.505
 3282SOL    HW221363   0.378   2.393   9.508
 3283SOL     OW21364   1.302   2.717   9.619
 3283SOL    HW121365   1.216   2.686   9.661
 3283SOL    HW221366   1.298   2.703   9.520
 3284SOL     OW21367   0.688   3.524  11.026
 3284SOL    HW121368   0.632   3.605  11.035
 3284SOL    HW221369   0.740   3.528  10.940
 3285SOL     OW21370   1.726   1.997   9.833
 3285SOL    HW121371   1.799   1.980   9.766
 3285SOL    HW221372   1.695   1.910   9.871
 3286SOL     OW21373   1.388   3.435   9.787
 3286SOL    HW121374   1.455   3.447   9.713
 3286SOL    HW221375   1.348   3.524   9.810
 3287SOL     OW21376   0.672   3.478   9.464
 3287SOL    HW121377   0.681   3.488   9.365
 3287SOL    HW221378   0.632   3.389   9.485
 3288SOL     OW21379   0.263   2.188  10.030
 3288SOL    HW121380   0.184   2.239   9.996
 3288SOL    HW221381   0.254   2.173  10.128
 3289SOL     OW21382   1.194   3.474   9.341
 3289SOL    HW121383   1.200   3.381   9.378
 3289SOL    HW221384   1.135   3.474   9.261
 3290SOL     OW21385   0.822   2.864  10.682
 3290SOL    HW121386   0.862   2.863  10.590
 3290SOL    HW221387   0.832   2.956  10.722
 3291SOL     OW21388   0.916   2.772   9.601
 3291SOL    HW121389   0.979   2.810   9.533
 3291SOL    HW221390   0.956   2.689   9.640
 3292SOL     OW21391   1.504   3.469   9.354
 3292SOL    HW121392   1.412   3.506   9.361
 3292SOL    HW221393   1.542   3.489   9.264
 3293SOL     OW21394   1.039   2.960  10.006
 3293SOL    HW121395   0.969   2.913  10.060
 3293SOL    HW221396   1.098   2.892   9.963
 3294SOL     OW21397   1.709   2.247  10.691
 3294SOL    HW121398   1.782   2.316  10.695
 3294SOL    HW221399   1.737   2.172  10.632
 3295SOL     OW21400   0.255   3.210   9.600
 3295SOL    HW121401   0.159   3.211   9.573
 3295SOL    HW221402   0.267   3.263   9.684
 3296SOL     OW21403   0.105   2.875  11.036
 3296SOL    HW121404   0.028   2.842  11.090
 3296SOL    HW221405   0.190   2.845  11.078
 3297SOL     OW21406   0.075   2.207   9.343
 3297SOL    HW121407  -0.017   2.179   9.314
 3297SOL    HW221408   0.106   2.284   9.287
 3298SOL     OW21409   1.440   2.718  10.708
 3298SOL    HW121410   1.383   2.770  10.645
 3298SOL    HW221411   1.536   2.730  10.684
 3299SOL     OW21412   0.072   2.028   9.628
 3299SOL    HW121413   0.055   2.111   9.574
 3299SOL    HW221414   0.162   1.991   9.606
 3300SOL     OW21415   1.183   3.197   9.429
 3300SOL    HW121416   1.084   3.186   9.431
 3300SOL    HW221417   1.217   3.212   9.522
 3301SOL     OW21418   0.390   3.603  10.870
 3301SOL    HW121419   0.299   3.644  10.868
 3301SOL    HW221420   0.383   3.509  10.902
 3302SOL     OW21421   1.674   2.745  10.564
 3302SOL    HW121422   1.647   2.656  10.527
 3302SOL    HW221423   1.675   2.813  10.491
 3303SOL     OW21424   1.225   2.187   9.759
 3303SOL    HW121425   1.290   2.113   9.748
 3303SOL    HW221426   1.245   2.237   9.843
 3304SOL     OW21427   1.777   2.204  10.952
 3304SOL    HW121428   1.760   2.235  10.858
 3304SOL    HW221429   1.693   2.167  10.990
 3305SOL     OW21430   1.730   2.796  10.827
 3305SOL    HW121431   1.768   2.887  10.842
 3305SOL    HW221432   1.722   2.779  10.728
 3306SOL     OW21433   0.859   3.236   9.326
 3306SOL    HW121434   0.813   3.251   9.414
 3306SOL    HW221435   0.903   3.321   9.296
 3307SOL     OW21436   1.083   2.846   9.397
 3307SOL    HW121437   1.060   2.899   9.315
 3307SOL    HW221438   1.164   2.790   9.378
 3308SOL     OW21439   0.428   2.286   9.830
 3308SOL    HW121440   0.458   2.214   9.768
 3308SOL    HW221441   0.389   2.246   9.913
 3309SOL     OW21442   0.770   3.192   9.611
 3309SOL    HW121443   0.724   3.105   9.628
 3309SOL    HW221444   0.861   3.189   9.652
 3310SOL     OW21445   0.618   3.429  10.594
 3310SOL    HW121446   0.613   3.511  10.651
 3310SOL    HW221447   0.707   3.426  10.549
 3311SOL     OW21448   1.352   1.914   9.478
 3311SOL    HW121449   1.387   1.873   9.394
 3311SOL    HW221450   1.262   1.876   9.498
 3312SOL     OW21451   1.300   2.315  10.001
 3312SOL    HW121452   1.241   2.395  10.005
 3312SOL    HW221453   1.315   2.280  10.094
 3313SOL     OW21454   0.039   2.939   9.610
 3313SOL    HW121455   0.138   2.928   9.601
 3313SOL    HW221456  -0.001   2.853   9.642
 3314SOL     OW21457   0.225   2.137  12.168
 3314SOL    HW121458   0.260   2.120  12.260
 3314SOL    HW221459   0.137   2.092  12.156
 3315SOL     OW21460   0.569   3.137  12.337
 3315SOL    HW121461   0.476   3.130  12.300
 3315SOL    HW221462   0.580   3.226  12.381
 3316SOL     OW21463   0.685   2.874  11.837
 3316SOL    HW121464   0.754   2.858  11.907
 3316SOL    HW221465   0.612   2.931  11.875
 3317SOL     OW21466   0.686   3.023  12.975
 3317SOL    HW121467   0.746   3.102  12.989
 3317SOL    HW221468   0.600   3.054  12.934
 3318SOL     OW21469   0.335   3.297  12.233
 3318SOL    HW121470   0.257   3.266  12.180
 3318SOL    HW221471   0.393   3.355  12.176
 3319SOL     OW21472   1.460   3.367  12.511
 3319SOL    HW121473   1.484   3.461  12.537
 3319SOL    HW221474   1.444   3.313  12.593
 3320SOL     OW21475   0.438   2.254  12.671
 3320SOL    HW121476   0.520   2.198  12.680
 3320SOL    HW221477   0.357   2.196  12.675
 3321SOL     OW21478   1.603   2.309  11.909
 3321SOL    HW121479   1.529   2.355  11.859
 3321SOL    HW221480   1.654   2.377  11.962
 3322SOL     OW21481   0.620   3.648  12.611
 3322SOL    HW121482   0.528   3.631  12.646
 3322SOL    HW221483   0.648   3.740  12.637
 3323SOL     OW21484   1.842   3.629  11.531
 3323SOL    HW121485   1.896   3.600  11.611
 3323SOL    HW221486   1.872   3.719  11.502
 3324SOL     OW21487   1.689   2.784  11.784
 3324SOL    HW121488   1.784   2.755  11.792
 3324SOL    HW221489   1.681   2.849  11.709
 3325SOL     OW21490   0.613   3.227  11.898
 3325SOL    HW121491   0.564   3.140  11.907
 3325SOL    HW221492   0.590   3.270  11.811
 3326SOL     OW21493   1.293   3.090  12.595
 3326SOL    HW121494   1.330   3.017  12.537
 3326SOL    HW221495   1.345   3.095  12.680
 3327SOL     OW21496   0.809   1.866  11.674
 3327SOL    HW121497   0.849   1.957  11.665
 3327SOL    HW221498   0.709   1.874  11.680
 3328SOL     OW21499   0.317   2.113  12.973
 3328SOL    HW121500   0.388   2.184  12.979
 3328SOL    HW221501   0.229   2.152  13.001
 3329SOL     OW21502   1.667   3.576  11.744
 3329SOL    HW121503   1.626   3.553  11.656
 3329SOL    HW221504   1.649   3.502  11.809
 3330SOL     OW21505   1.281   2.207  12.116
 3330SOL    HW121506   1.195   2.157  12.103
 3330SOL    HW221507   1.343   2.153  12.172
 3331SOL     OW21508   1.576   3.524  11.479
 3331SOL    HW121509   1.665   3.570  11.482
 3331SOL    HW221510   1.555   3.500  11.384
 3332SOL     OW21511   1.394   2.331  12.846
 3332SOL    HW121512   1.374   2.374  12.934
 3332SOL    HW221513   1.472   2.269  12.855
 3333SOL     OW21514   0.076   2.673  11.961
 3333SOL    HW121515   0.175   2.661  11.970
 3333SOL    HW221516   0.052   2.768  11.982
 3334SOL     OW21517   1.795   2.928  12.045
 3334SOL    HW121518   1.733   2.913  11.969
 3334SOL    HW221519   1.743   2.939  12.130
 3335SOL     OW21520   0.321   2.805  11.414
 3335SOL    HW121521   0.403   2.844  11.372
 3335SOL    HW221522   0.294   2.723  11.365
 3336SOL     OW21523   1.458   2.597  11.900
 3336SOL    HW121524   1.453   2.532  11.975
 3336SOL    HW221525   1.538   2.656  11.913
 3337SOL     OW21526   0.461   3.128  12.899
 3337SOL    HW121527   0.411   3.129  12.813
 3337SOL    HW221528   0.398   3.110  12.975
 3338SOL     OW21529   0.249   3.647  12.413
 3338SOL    HW121530   0.306   3.582  12.463
 3338SOL    HW221531   0.233   3.614  12.320
 3339SOL     OW21532   0.781   2.126  12.921
 3339SOL    HW121533   0.848   2.065  12.964
 3339SOL    HW221534   0.708   2.145  12.986
 3340SOL     OW21535   0.539   1.926  11.684
 3340SOL    HW121536   0.458   1.927  11.742
 3340SOL    HW221537   0.542   2.009  11.629
 3341SOL     OW21538   0.297   1.897  11.343
 3341SOL    HW121539   0.346   1.981  11.322
 3341SOL    HW221540   0.359   1.832  11.388
 3342SOL     OW21541   0.459   3.014  11.913
 3342SOL    HW121542   0.388   2.987  11.978
 3342SOL    HW221543   0.433   2.986  11.820
 3343SOL     OW21544   0.561   2.084  12.319
 3343SOL    HW121545   0.599   2.000  12.356
 3343SOL    HW221546   0.473   2.103  12.363
 3344SOL     OW21547   1.466   2.452  12.164
 3344SOL    HW121548   1.436   2.357  12.171
 3344SOL    HW221549   1.539   2.468  12.230
 3345SOL     OW21550   1.857   2.695  11.549
 3345SOL    HW121551   1.899   2.631  11.613
 3345SOL    HW221552   1.819   2.644  11.471
 3346SOL     OW21553   1.664   3.142  11.829
 3346SOL    HW121554   1.763   3.150  11.843
 3346SOL    HW221555   1.619   3.226  11.860
 3347SOL     OW21556   0.527   2.118  11.500
 3347SOL    HW121557   0.554   2.059  11.425
 3347SOL    HW221558   0.527   2.213  11.469
 3348SOL     OW21559   1.592   3.491  12.797
 3348SOL    HW121560   1.619   3.525  12.707
 3348SOL    HW221561   1.671   3.453  12.843
 3349SOL     OW21562   0.980   2.978  12.891
 3349SOL    HW121563   0.881   2.984  12.901
 3349SOL    HW221564   1.003   2.898  12.835
 3350SOL     OW21565   0.410   2.675  12.423
 3350SOL    HW121566   0.496   2.687  12.473
 3350SOL    HW221567   0.368   2.588  12.450
 3351SOL     OW21568   0.367   2.962  11.673
 3351SOL    HW121569   0.360   3.045  11.617
 3351SOL    HW221570   0.371   2.882  11.613
 3352SOL     OW21571   1.272   3.307  12.314
 3352SOL    HW121572   1.319   3.320  12.401
 3352SOL    HW221573   1.206   3.233  12.323
 3353SOL     OW21574   0.354   3.372  12.501
 3353SOL    HW121575   0.333   3.328  12.414
 3353SOL    HW221576   0.451   3.398  12.504
 3354SOL     OW21577   0.402   2.613  12.770
 3354SOL    HW121578   0.470   2.668  12.723
 3354SOL    HW221579   0.442   2.525  12.797
 3355SOL     OW21580   1.587   2.641  12.842
 3355SOL    HW121581   1.495   2.679  12.837
 3355SOL    HW221582   1.647   2.688  12.777
 3356SOL     OW21583   1.013   1.967  12.942
 3356SOL    HW121584   1.019   2.052  12.890
 3356SOL    HW221585   1.045   1.891  12.885
 3357SOL     OW21586   0.504   1.912  12.912
 3357SOL    HW121587   0.462   1.855  12.842
 3357SOL    HW221588   0.438   1.981  12.944
 3358SOL     OW21589   0.307   2.075  12.403
 3358SOL    HW121590   0.284   2.112  12.493
 3358SOL    HW221591   0.277   1.980  12.397
 3359SOL     OW21592   0.732   2.496  12.236
 3359SOL    HW121593   0.791   2.470  12.160
 3359SOL    HW221594   0.704   2.592  12.225
 3360SOL     OW21595   1.728   2.797  13.026
 3360SOL    HW121596   1.682   2.790  12.937
 3360SOL    HW221597   1.666   2.841  13.092
 3361SOL     OW21598   0.307   1.925  11.790
 3361SOL    HW121599   0.296   2.019  11.823
 3361SOL    HW221600   0.302   1.862  11.867
 3362SOL     OW21601   0.350   2.760  12.976
 3362SOL    HW121602   0.426   2.804  13.024
 3362SOL    HW221603   0.385   2.713  12.894
 3363SOL     OW21604   0.088   3.663  12.099
 3363SOL    HW121605   0.046   3.577  12.072
 3363SOL    HW221606   0.182   3.666  12.065
 3364SOL     OW21607   0.504   3.430  12.082
 3364SOL    HW121608   0.570   3.504  12.091
 3364SOL    HW221609   0.548   3.351  12.040
 3365SOL     OW21610   1.369   2.812  12.832
 3365SOL    HW121611   1.408   2.901  12.852
 3365SOL    HW221612   1.379   2.792  12.735
 3366SOL     OW21613   0.671   2.326  12.441
 3366SOL    HW121614   0.637   2.237  12.411
 3366SOL    HW221615   0.697   2.380  12.361
 3367SOL     OW21616   0.159   2.999  12.638
 3367SOL    HW121617   0.181   2.938  12.714
 3367SOL    HW221618   0.169   2.950  12.552
 3368SOL     OW21619   1.759   3.609  12.326
 3368SOL    HW121620   1.820   3.639  12.253
 3368SOL    HW221621   1.721   3.520  12.304
 3369SOL     OW21622   1.252   3.593  12.300
 3369SOL    HW121623   1.336   3.598  12.246
 3369SOL    HW221624   1.229   3.497  12.318
 3370SOL     OW21625   1.388   3.435  11.649
 3370SOL    HW121626   1.455   3.447  11.575
 3370SOL    HW221627   1.348   3.524  11.672
 3371SOL     OW21628   1.650   3.582  12.566
 3371SOL    HW121629   1.703   3.592  12.482
 3371SOL    HW221630   1.623   3.672  12.600
 3372SOL     OW21631   1.504   3.469  11.216
 3372SOL    HW121632   1.412   3.506  11.223
 3372SOL    HW221633   1.542   3.489  11.126
 3373SOL     OW21634   0.372   3.150  12.662
 3373SOL    HW121635   0.359   3.243  12.628
 3373SOL    HW221636   0.288   3.098  12.649
 3374SOL     OW21637   1.614   3.154  12.461
 3374SOL    HW121638   1.674   3.157  12.541
 3374SOL    HW221639   1.539   3.218  12.474
 3375SOL     OW21640   0.105   2.875  12.898
 3375SOL    HW121641   0.028   2.842  12.952
 3375SOL    HW221642   0.190   2.845  12.940
 3376SOL     OW21643   0.672   2.065  12.661
 3376SOL    HW121644   0.762   2.049  12.621
 3376SOL    HW221645   0.680   2.070  12.760
 3377SOL     OW21646   0.075   2.207  11.205
 3377SOL    HW121647  -0.017   2.179  11.176
 3377SOL    HW221648   0.106   2.284  11.149
 3378SOL     OW21649   0.613   2.704  12.603
 3378SOL    HW121650   0.669   2.785  12.586
 3378SOL    HW221651   0.672   2.624  12.606
 3379SOL     OW21652   1.493   3.629  12.131
 3379SOL    HW121653   1.526   3.693  12.062
 3379SOL    HW221654   1.559   3.623  12.206
 3380SOL     OW21655   0.716   2.427  12.880
 3380SOL    HW121656   0.735   2.492  12.954
 3380SOL    HW221657   0.776   2.347  12.889
 3381SOL     OW21658   0.390   3.603  12.732
 3381SOL    HW121659   0.299   3.644  12.730
 3381SOL    HW221660   0.383   3.509  12.764
 3382SOL     OW21661   1.674   2.745  12.426
 3382SOL    HW121662   1.647   2.656  12.389
 3382SOL    HW221663   1.675   2.813  12.353
 3383SOL     OW21664   0.594   2.607  11.824
 3383SOL    HW121665   0.644   2.692  11.805
 3383SOL    HW221666   0.506   2.609  11.776
 3384SOL     OW21667   1.861   3.431  12.023
 3384SOL    HW121668   1.790   3.419  11.953
 3384SOL    HW221669   1.862   3.352  12.083
 3385SOL     OW21670   0.079   3.102  11.825
 3385SOL    HW121671   0.078   3.055  11.913
 3385SOL    HW221672   0.161   3.074  11.774
 3386SOL     OW21673   1.705   3.349  12.276
 3386SOL    HW121674   1.612   3.324  12.249
 3386SOL    HW221675   1.731   3.299  12.358
 3387SOL     OW21676   0.812   3.448  11.859
 3387SOL    HW121677   0.844   3.458  11.765
 3387SOL    HW221678   0.733   3.386  11.861
 3388SOL     OW21679   1.424   2.076  12.284
 3388SOL    HW121680   1.476   2.011  12.339
 3388SOL    HW221681   1.375   2.139  12.345
 3389SOL     OW21682   1.300   2.315  11.863
 3389SOL    HW121683   1.241   2.395  11.867
 3389SOL    HW221684   1.315   2.280  11.956
 3390SOL     OW21685   0.039   2.939  11.472
 3390SOL    HW121686   0.138   2.928  11.463
 3390SOL    HW221687  -0.001   2.853  11.504
 3391SOL     OW21688   0.230   2.490  13.147
 3391SOL    HW121689   0.137   2.488  13.184
 3391SOL    HW221690   0.231   2.451  13.055
 3392SOL     OW21691   0.768   3.006  14.057
 3392SOL    HW121692   0.690   3.023  14.117
 3392SOL    HW221693   0.802   3.093  14.021
 3393SOL     OW21694   1.127   3.203  14.724
 3393SOL    HW121695   1.174   3.203  14.812
 3393SOL    HW221696   1.079   3.116  14.713
 3394SOL     OW21697   0.606   2.826  13.157
 3394SOL    HW121698   0.613   2.910  13.103
 3394SOL    HW221699   0.652   2.839  13.245
 3395SOL     OW21700   1.842   3.629  13.393
 3395SOL    HW121701   1.896   3.600  13.473
 3395SOL    HW221702   1.872   3.719  13.364
 3396SOL     OW21703   0.809   1.866  13.536
 3396SOL    HW121704   0.849   1.957  13.527
 3396SOL    HW221705   0.709   1.874  13.542
 3397SOL     OW21706   1.187   3.654  14.650
 3397SOL    HW121707   1.211   3.714  14.574
 3397SOL    HW221708   1.194   3.559  14.620
 3398SOL     OW21709   0.598   2.591  13.304
 3398SOL    HW121710   0.622   2.660  13.236
 3398SOL    HW221711   0.520   2.624  13.358
 3399SOL     OW21712   1.576   3.524  13.341
 3399SOL    HW121713   1.665   3.570  13.344
 3399SOL    HW221714   1.555   3.500  13.246
 3400SOL     OW21715   1.394   2.331  14.708
 3400SOL    HW121716   1.374   2.374  14.796
 3400SOL    HW221717   1.472   2.269  14.717
 3401SOL     OW21718   0.973   2.752  14.606
 3401SOL    HW121719   1.019   2.668  14.577
 3401SOL    HW221720   0.917   2.786  14.531
 3402SOL     OW21721   1.719   2.447  14.865
 3402SOL    HW121722   1.693   2.536  14.829
 3402SOL    HW221723   1.717   2.379  14.792
 3403SOL     OW21724   0.550   2.058  13.919
 3403SOL    HW121725   0.545   2.053  14.019
 3403SOL    HW221726   0.552   2.154  13.890
 3404SOL     OW21727   0.321   2.805  13.276
 3404SOL    HW121728   0.403   2.844  13.234
 3404SOL    HW221729   0.294   2.723  13.227
 3405SOL     OW21730   0.249   3.647  14.275
 3405SOL    HW121731   0.306   3.582  14.325
 3405SOL    HW221732   0.233   3.614  14.182
 3406SOL     OW21733   0.940   3.560  13.938
 3406SOL    HW121734   1.020   3.503  13.959
 3406SOL    HW221735   0.891   3.520  13.861
 3407SOL     OW21736   0.614   1.984  13.151
 3407SOL    HW121737   0.712   1.962  13.158
 3407SOL    HW221738   0.583   1.967  13.058
 3408SOL     OW21739   0.888   3.376  14.229
 3408SOL    HW121740   0.865   3.351  14.135
 3408SOL    HW221741   0.949   3.307  14.268
 3409SOL     OW21742   0.539   1.926  13.546
 3409SOL    HW121743   0.458   1.927  13.604
 3409SOL    HW221744   0.542   2.009  13.491
 3410SOL     OW21745   1.434   3.050  13.075
 3410SOL    HW121746   1.466   2.974  13.132
 3410SOL    HW221747   1.342   3.077  13.105
 3411SOL     OW21748   0.297   1.897  13.205
 3411SOL    HW121749   0.346   1.981  13.184
 3411SOL    HW221750   0.359   1.832  13.250
 3412SOL     OW21751   1.076   2.545  14.498
 3412SOL    HW121752   0.996   2.484  14.501
 3412SOL    HW221753   1.157   2.492  14.474
 3413SOL     OW21754   1.227   3.432  13.827
 3413SOL    HW121755   1.248   3.506  13.762
 3413SOL    HW221756   1.295   3.432  13.900
 3414SOL     OW21757   0.078   2.418  14.420
 3414SOL    HW121758   0.170   2.417  14.379
 3414SOL    HW221759   0.072   2.492  14.487
 3415SOL     OW21760   1.017   1.901  13.787
 3415SOL    HW121761   0.945   1.906  13.718
 3415SOL    HW221762   0.993   1.832  13.856
 3416SOL     OW21763   1.429   3.035  13.901
 3416SOL    HW121764   1.374   2.951  13.894
 3416SOL    HW221765   1.455   3.064  13.809
 3417SOL     OW21766   0.488   3.247  13.208
 3417SOL    HW121767   0.401   3.232  13.255
 3417SOL    HW221768   0.471   3.273  13.113
 3418SOL     OW21769   0.527   2.118  13.362
 3418SOL    HW121770   0.554   2.059  13.287
 3418SOL    HW221771   0.527   2.213  13.331
 3419SOL     OW21772   1.064   3.209  14.374
 3419SOL    HW121773   0.984   3.186  14.429
 3419SOL    HW221774   1.147   3.183  14.423
 3420SOL     OW21775   0.705   2.912  13.402
 3420SOL    HW121776   0.691   2.919  13.501
 3420SOL    HW221777   0.789   2.861  13.384
 3421SOL     OW21778   1.274   2.248  14.296
 3421SOL    HW121779   1.295   2.322  14.360
 3421SOL    HW221780   1.185   2.265  14.253
 3422SOL     OW21781   0.064   3.426  14.365
 3422SOL    HW121782   0.018   3.508  14.331
 3422SOL    HW221783   0.162   3.445  14.374
 3423SOL     OW21784   1.272   3.307  14.176
 3423SOL    HW121785   1.319   3.320  14.263
 3423SOL    HW221786   1.206   3.233  14.185
 3424SOL     OW21787   1.582   2.501  13.506
 3424SOL    HW121788   1.551   2.562  13.579
 3424SOL    HW221789   1.632   2.553  13.437
 3425SOL     OW21790   0.354   3.372  14.363
 3425SOL    HW121791   0.333   3.328  14.276
 3425SOL    HW221792   0.451   3.398  14.366
 3426SOL     OW21793   1.587   2.641  14.704
 3426SOL    HW121794   1.495   2.679  14.699
 3426SOL    HW221795   1.647   2.688  14.639
 3427SOL     OW21796   0.504   1.912  14.774
 3427SOL    HW121797   0.462   1.855  14.704
 3427SOL    HW221798   0.438   1.981  14.806
 3428SOL     OW21799   0.037   3.172  14.316
 3428SOL    HW121800   0.090   3.123  14.384
 3428SOL    HW221801   0.059   3.270  14.321
 3429SOL     OW21802   0.307   1.925  13.652
 3429SOL    HW121803   0.296   2.019  13.685
 3429SOL    HW221804   0.302   1.862  13.729
 3430SOL     OW21805   1.068   3.195  13.883
 3430SOL    HW121806   1.075   3.111  13.828
 3430SOL    HW221807   1.130   3.264  13.847
 3431SOL     OW21808   1.138   2.242  14.712
 3431SOL    HW121809   1.093   2.305  14.776
 3431SOL    HW221810   1.231   2.273  14.695
 3432SOL     OW21811   0.252   3.426  14.778
 3432SOL    HW121812   0.222   3.483  14.854
 3432SOL    HW221813   0.245   3.329  14.804
 3433SOL     OW21814   0.473   2.362  13.225
 3433SOL    HW121815   0.534   2.442  13.229
 3433SOL    HW221816   0.378   2.393  13.232
 3434SOL     OW21817   1.759   3.609  14.188
 3434SOL    HW121818   1.820   3.639  14.115
 3434SOL    HW221819   1.721   3.520  14.166
 3435SOL     OW21820   1.252   3.593  14.162
 3435SOL    HW121821   1.336   3.598  14.108
 3435SOL    HW221822   1.229   3.497  14.180
 3436SOL     OW21823   0.083   3.120  14.056
 3436SOL    HW121824   0.078   3.119  14.156
 3436SOL    HW221825   0.000   3.079  14.018
 3437SOL     OW21826   1.726   1.997  13.557
 3437SOL    HW121827   1.799   1.980  13.490
 3437SOL    HW221828   1.695   1.910  13.595
 3438SOL     OW21829   0.130   3.656  14.885
 3438SOL    HW121830   0.089   3.582  14.938
 3438SOL    HW221831   0.194   3.707  14.943
 3439SOL     OW21832   0.255   3.210  13.324
 3439SOL    HW121833   0.159   3.211  13.297
 3439SOL    HW221834   0.267   3.263  13.408
 3440SOL     OW21835   0.075   2.207  13.067
 3440SOL    HW121836  -0.017   2.179  13.038
 3440SOL    HW221837   0.106   2.284  13.011
 3441SOL     OW21838   0.072   2.028  13.352
 3441SOL    HW121839   0.055   2.111  13.298
 3441SOL    HW221840   0.162   1.991  13.330
 3442SOL     OW21841   1.183   3.197  13.153
 3442SOL    HW121842   1.084   3.186  13.155
 3442SOL    HW221843   1.217   3.212  13.246
 3443SOL     OW21844   0.613   2.704  14.465
 3443SOL    HW121845   0.669   2.785  14.448
 3443SOL    HW221846   0.672   2.624  14.468
 3444SOL     OW21847   0.390   3.603  14.594
 3444SOL    HW121848   0.299   3.644  14.592
 3444SOL    HW221849   0.383   3.509  14.626
 3445SOL     OW21850   0.594   2.607  13.686
 3445SOL    HW121851   0.644   2.692  13.667
 3445SOL    HW221852   0.506   2.609  13.638
 3446SOL     OW21853   0.221   3.176  14.878
 3446SOL    HW121854   0.156   3.103  14.857
 3446SOL    HW221855   0.225   3.190  14.976
 3447SOL     OW21856   0.019   2.230  15.543
 3447SOL    HW121857  -0.063   2.273  15.582
 3447SOL    HW221858  -0.009   2.157  15.480
 3448SOL     OW21859   0.569   3.137  16.062
 3448SOL    HW121860   0.476   3.130  16.025
 3448SOL    HW221861   0.580   3.226  16.106
 3449SOL     OW21862   1.555   3.373  15.599
 3449SOL    HW121863   1.498   3.357  15.680
 3449SOL    HW221864   1.496   3.383  15.519
 3450SOL     OW21865   1.135   2.565  15.613
 3450SOL    HW121866   1.192   2.643  15.588
 3450SOL    HW221867   1.075   2.591  15.689
 3451SOL     OW21868   0.850   2.660  16.720
 3451SOL    HW121869   0.846   2.736  16.785
 3451SOL    HW221870   0.872   2.696  16.629
 3452SOL     OW21871   0.335   3.297  15.958
 3452SOL    HW121872   0.257   3.266  15.905
 3452SOL    HW221873   0.393   3.355  15.901
 3453SOL     OW21874   1.127   3.203  16.587
 3453SOL    HW121875   1.174   3.203  16.675
 3453SOL    HW221876   1.079   3.116  16.576
 3454SOL     OW21877   0.122   2.505  15.459
 3454SOL    HW121878   0.077   2.417  15.476
 3454SOL    HW221879   0.121   2.559  15.543
 3455SOL     OW21880   0.113   2.599  16.494
 3455SOL    HW121881   0.201   2.586  16.539
 3455SOL    HW221882   0.100   2.696  16.472
 3456SOL     OW21883   0.613   3.227  15.622
 3456SOL    HW121884   0.564   3.140  15.631
 3456SOL    HW221885   0.590   3.270  15.535
 3457SOL     OW21886   0.197   2.838  16.161
 3457SOL    HW121887   0.286   2.793  16.147
 3457SOL    HW221888   0.124   2.773  16.142
 3458SOL     OW21889   0.317   2.113  16.698
 3458SOL    HW121890   0.388   2.184  16.704
 3458SOL    HW221891   0.229   2.152  16.726
 3459SOL     OW21892   1.667   3.576  15.468
 3459SOL    HW121893   1.626   3.553  15.380
 3459SOL    HW221894   1.649   3.502  15.533
 3460SOL     OW21895   1.281   2.207  15.841
 3460SOL    HW121896   1.195   2.157  15.828
 3460SOL    HW221897   1.343   2.153  15.897
 3461SOL     OW21898   0.130   3.683  16.468
 3461SOL    HW121899   0.120   3.668  16.567
 3461SOL    HW221900   0.044   3.719  16.432
 3462SOL     OW21901   1.795   2.928  15.769
 3462SOL    HW121902   1.733   2.913  15.693
 3462SOL    HW221903   1.743   2.939  15.854
 3463SOL     OW21904   0.464   3.605  15.219
 3463SOL    HW121905   0.497   3.644  15.305
 3463SOL    HW221906   0.540   3.598  15.154
 3464SOL     OW21907   0.249   3.647  16.138
 3464SOL    HW121908   0.306   3.582  16.188
 3464SOL    HW221909   0.233   3.614  16.045
 3465SOL     OW21910   0.382   2.562  15.376
 3465SOL    HW121911   0.427   2.472  15.373
 3465SOL    HW221912   0.288   2.551  15.409
 3466SOL     OW21913   0.614   1.984  15.013
 3466SOL    HW121914   0.712   1.962  15.020
 3466SOL    HW221915   0.583   1.967  14.920
 3467SOL     OW21916   0.888   3.376  16.092
 3467SOL    HW121917   0.865   3.351  15.998
 3467SOL    HW221918   0.949   3.307  16.131
 3468SOL     OW21919   0.922   2.365  15.795
 3468SOL    HW121920   0.897   2.356  15.699
 3468SOL    HW221921   0.970   2.283  15.826
 3469SOL     OW21922   0.539   1.926  15.408
 3469SOL    HW121923   0.458   1.927  15.466
 3469SOL    HW221924   0.542   2.009  15.353
 3470SOL     OW21925   0.297   1.897  15.067
 3470SOL    HW121926   0.346   1.981  15.046
 3470SOL    HW221927   0.359   1.832  15.112
 3471SOL     OW21928   1.271   3.659  15.487
 3471SOL    HW121929   1.315   3.723  15.423
 3471SOL    HW221930   1.221   3.711  15.557
 3472SOL     OW21931   0.078   2.418  16.283
 3472SOL    HW121932   0.170   2.417  16.242
 3472SOL    HW221933   0.072   2.492  16.350
 3473SOL     OW21934   0.866   2.316  15.538
 3473SOL    HW121935   0.834   2.388  15.476
 3473SOL    HW221936   0.890   2.235  15.485
 3474SOL     OW21937   1.429   3.035  15.763
 3474SOL    HW121938   1.374   2.951  15.756
 3474SOL    HW221939   1.455   3.064  15.671
 3475SOL     OW21940   1.466   2.452  15.889
 3475SOL    HW121941   1.436   2.357  15.896
 3475SOL    HW221942   1.539   2.468  15.955
 3476SOL     OW21943   0.488   3.247  15.070
 3476SOL    HW121944   0.401   3.232  15.117
 3476SOL    HW221945   0.471   3.273  14.975
 3477SOL     OW21946   1.592   3.491  16.522
 3477SOL    HW121947   1.619   3.525  16.432
 3477SOL    HW221948   1.671   3.453  16.568
 3478SOL     OW21949   1.638   2.961  15.976
 3478SOL    HW121950   1.643   3.042  16.035
 3478SOL    HW221951   1.552   2.963  15.925
 3479SOL     OW21952   0.410   2.675  16.148
 3479SOL    HW121953   0.496   2.687  16.198
 3479SOL    HW221954   0.368   2.588  16.175
 3480SOL     OW21955   1.274   2.248  16.159
 3480SOL    HW121956   1.295   2.322  16.223
 3480SOL    HW221957   1.185   2.265  16.116
 3481SOL     OW21958   0.367   2.962  15.397
 3481SOL    HW121959   0.360   3.045  15.341
 3481SOL    HW221960   0.371   2.882  15.337
 3482SOL     OW21961   0.566   2.399  15.761
 3482SOL    HW121962   0.578   2.465  15.687
 3482SOL    HW221963   0.612   2.433  15.844
 3483SOL     OW21964   0.354   3.372  16.226
 3483SOL    HW121965   0.333   3.328  16.139
 3483SOL    HW221966   0.451   3.398  16.229
 3484SOL     OW21967   0.402   2.613  16.495
 3484SOL    HW121968   0.470   2.668  16.448
 3484SOL    HW221969   0.442   2.525  16.522
 3485SOL     OW21970   0.350   2.760  16.701
 3485SOL    HW121971   0.426   2.804  16.749
 3485SOL    HW221972   0.385   2.713  16.619
 3486SOL     OW21973   1.160   2.069  16.374
 3486SOL    HW121974   1.160   2.133  16.451
 3486SOL    HW221975   1.188   2.117  16.291
 3487SOL     OW21976   0.504   3.430  15.806
 3487SOL    HW121977   0.570   3.504  15.815
 3487SOL    HW221978   0.548   3.351  15.764
 3488SOL     OW21979   0.189   2.382  16.619
 3488SOL    HW121980   0.248   2.342  16.549
 3488SOL    HW221981   0.131   2.453  16.578
 3489SOL     OW21982   1.657   2.466  16.103
 3489SOL    HW121983   1.619   2.397  16.165
 3489SOL    HW221984   1.739   2.430  16.059
 3490SOL     OW21985   0.252   3.426  16.641
 3490SOL    HW121986   0.222   3.483  16.717
 3490SOL    HW221987   0.245   3.329  16.667
 3491SOL     OW21988   0.671   2.326  16.166
 3491SOL    HW121989   0.637   2.237  16.136
 3491SOL    HW221990   0.697   2.380  16.086
 3492SOL     OW21991   0.159   2.999  16.363
 3492SOL    HW121992   0.181   2.938  16.439
 3492SOL    HW221993   0.169   2.950  16.277
 3493SOL     OW21994   1.347   2.921  16.131
 3493SOL    HW121995   1.371   2.858  16.057
 3493SOL    HW221996   1.257   2.961  16.113
 3494SOL     OW21997   0.083   3.120  15.919
 3494SOL    HW121998   0.078   3.119  16.019
 3494SOL    HW221999   0.000   3.079  15.881
 3495SOL     OW22000   1.388   3.435  15.373
 3495SOL    HW122001   1.455   3.447  15.299
 3495SOL    HW222002   1.348   3.524  15.396
 3496SOL     OW22003   0.130   3.656  16.748
 3496SOL    HW122004   0.089   3.582  16.801
 3496SOL    HW222005   0.194   3.707  16.806
 3497SOL     OW22006   0.263   2.188  15.616
 3497SOL    HW122007   0.184   2.239  15.582
 3497SOL    HW222008   0.254   2.173  15.714
 3498SOL     OW22009   0.372   3.150  16.387
 3498SOL    HW122010   0.359   3.243  16.353
 3498SOL    HW222011   0.288   3.098  16.374
 3499SOL     OW22012   1.614   3.154  16.186
 3499SOL    HW122013   1.674   3.157  16.266
 3499SOL    HW222014   1.539   3.218  16.199
 3500SOL     OW22015   1.014   2.098  15.868
 3500SOL    HW122016   1.006   2.062  15.775
 3500SOL    HW222017   1.012   2.022  15.933
 3501SOL     OW22018   1.709   2.247  16.278
 3501SOL    HW122019   1.782   2.316  16.282
 3501SOL    HW222020   1.737   2.172  16.219
 3502SOL     OW22021   0.255   3.210  15.186
 3502SOL    HW122022   0.159   3.211  15.159
 3502SOL    HW222023   0.267   3.263  15.270
 3503SOL     OW22024   0.105   2.875  16.623
 3503SOL    HW122025   0.028   2.842  16.677
 3503SOL    HW222026   0.190   2.845  16.665
 3504SOL     OW22027   0.672   2.065  16.386
 3504SOL    HW122028   0.762   2.049  16.346
 3504SOL    HW222029   0.680   2.070  16.485
 3505SOL     OW22030   1.440   2.718  16.295
 3505SOL    HW122031   1.383   2.770  16.232
 3505SOL    HW222032   1.536   2.730  16.271
 3506SOL     OW22033   0.072   2.028  15.214
 3506SOL    HW122034   0.055   2.111  15.160
 3506SOL    HW222035   0.162   1.991  15.192
 3507SOL     OW22036   1.183   3.197  15.015
 3507SOL    HW122037   1.084   3.186  15.017
 3507SOL    HW222038   1.217   3.212  15.108
 3508SOL     OW22039   0.613   2.704  16.328
 3508SOL    HW122040   0.669   2.785  16.311
 3508SOL    HW222041   0.672   2.624  16.331
 3509SOL     OW22042   0.716   2.427  16.605
 3509SOL    HW122043   0.735   2.492  16.679
 3509SOL    HW222044   0.776   2.347  16.614
 3510SOL     OW22045   0.390   3.603  16.457
 3510SOL    HW122046   0.299   3.644  16.455
 3510SOL    HW222047   0.383   3.509  16.489
 3511SOL     OW22048   0.594   2.607  15.548
 3511SOL    HW122049   0.644   2.692  15.529
 3511SOL    HW222050   0.506   2.609  15.500
 3512SOL     OW22051   1.777   2.204  16.539
 3512SOL    HW122052   1.760   2.235  16.445
 3512SOL    HW222053   1.693   2.167  16.577
 3513SOL     OW22054   0.661   3.652  15.850
 3513SOL    HW122055   0.615   3.740  15.837
 3513SOL    HW222056   0.760   3.664  15.843
 3514SOL     OW22057   0.221   3.176  16.741
 3514SOL    HW122058   0.156   3.103  16.720
 3514SOL    HW222059   0.225   3.190  16.839
 3515SOL     OW22060   0.079   3.102  15.549
 3515SOL    HW122061   0.078   3.055  15.637
 3515SOL    HW222062   0.161   3.074  15.498
 3516SOL     OW22063   1.824   2.054  16.124
 3516SOL    HW122064   1.820   1.964  16.168
 3516SOL    HW222065   1.827   2.043  16.025
 3517SOL     OW22066   0.428   2.286  15.416
 3517SOL    HW122067   0.458   2.214  15.354
 3517SOL    HW222068   0.389   2.246  15.499
 3518SOL     OW22069   1.424   2.076  16.009
 3518SOL    HW122070   1.476   2.011  16.064
 3518SOL    HW222071   1.375   2.139  16.070
 3519SOL     OW22072   1.001   1.896  16.051
 3519SOL    HW122073   0.938   1.824  16.020
 3519SOL    HW222074   1.094   1.860  16.051
 3520SOL     OW22075   0.618   3.429  16.181
 3520SOL    HW122076   0.613   3.511  16.238
 3520SOL    HW222077   0.707   3.426  16.136
 3521SOL     OW22078   0.039   2.939  15.196
 3521SOL    HW122079   0.138   2.928  15.187
 3521SOL    HW222080  -0.001   2.853  15.228
 3522SOL     OW22081   0.875   3.508  15.233
 3522SOL    HW122082   0.798   3.473  15.179
 3522SOL    HW222083   0.843   3.579  15.295
 3523SOL     OW22084   0.230   2.490  16.872
 3523SOL    HW122085   0.137   2.488  16.909
 3523SOL    HW222086   0.231   2.451  16.780
 3524SOL     OW22087   0.019   2.230  17.406
 3524SOL    HW122088  -0.063   2.273  17.445
 3524SOL    HW222089  -0.009   2.157  17.343
 3525SOL     OW22090   0.768   3.006  17.782
 3525SOL    HW122091   0.690   3.023  17.842
 3525SOL    HW222092   0.802   3.093  17.746
 3526SOL     OW22093   0.122   2.505  17.322
 3526SOL    HW122094   0.077   2.417  17.339
 3526SOL    HW222095   0.121   2.559  17.406
 3527SOL     OW22096   1.689   2.784  17.371
 3527SOL    HW122097   1.784   2.755  17.379
 3527SOL    HW222098   1.681   2.849  17.296
 3528SOL     OW22099   1.641   2.970  17.191
 3528SOL    HW122100   1.727   2.972  17.139
 3528SOL    HW222101   1.655   3.017  17.279
 3529SOL     OW22102   0.613   3.227  17.485
 3529SOL    HW122103   0.564   3.140  17.494
 3529SOL    HW222104   0.590   3.270  17.398
 3530SOL     OW22105   0.197   2.838  18.023
 3530SOL    HW122106   0.286   2.793  18.009
 3530SOL    HW222107   0.124   2.773  18.004
 3531SOL     OW22108   1.466   3.279  17.712
 3531SOL    HW122109   1.407   3.285  17.792
 3531SOL    HW222110   1.451   3.191  17.666
 3532SOL     OW22111   1.667   3.576  17.331
 3532SOL    HW122112   1.626   3.553  17.243
 3532SOL    HW222113   1.649   3.502  17.396
 3533SOL     OW22114   1.041   2.563  17.188
 3533SOL    HW122115   1.067   2.559  17.284
 3533SOL    HW222116   0.956   2.512  17.174
 3534SOL     OW22117   1.795   2.928  17.632
 3534SOL    HW122118   1.733   2.913  17.556
 3534SOL    HW222119   1.743   2.939  17.717
 3535SOL     OW22120   0.321   2.805  17.001
 3535SOL    HW122121   0.403   2.844  16.959
 3535SOL    HW222122   0.294   2.723  16.952
 3536SOL     OW22123   1.400   1.969  17.185
 3536SOL    HW122124   1.376   1.932  17.095
 3536SOL    HW222125   1.499   1.985  17.189
 3537SOL     OW22126   0.297   1.897  16.930
 3537SOL    HW122127   0.346   1.981  16.909
 3537SOL    HW222128   0.359   1.832  16.975
 3538SOL     OW22129   1.032   2.411  16.775
 3538SOL    HW122130   0.991   2.493  16.736
 3538SOL    HW222131   1.096   2.437  16.848
 3539SOL     OW22132   1.429   3.035  17.626
 3539SOL    HW122133   1.374   2.951  17.619
 3539SOL    HW222134   1.455   3.064  17.534
 3540SOL     OW22135   1.664   3.142  17.416
 3540SOL    HW122136   1.763   3.150  17.430
 3540SOL    HW222137   1.619   3.226  17.447
 3541SOL     OW22138   1.390   2.437  16.837
 3541SOL    HW122139   1.336   2.416  16.918
 3541SOL    HW222140   1.481   2.396  16.846
 3542SOL     OW22141   1.638   2.961  17.838
 3542SOL    HW122142   1.643   3.042  17.897
 3542SOL    HW222143   1.552   2.963  17.787
 3543SOL     OW22144   0.410   2.675  18.010
 3543SOL    HW122145   0.496   2.687  18.060
 3543SOL    HW222146   0.368   2.588  18.037
 3544SOL     OW22147   0.566   2.399  17.624
 3544SOL    HW122148   0.578   2.465  17.550
 3544SOL    HW222149   0.612   2.433  17.707
 3545SOL     OW22150   0.573   2.732  17.788
 3545SOL    HW122151   0.617   2.821  17.779
 3545SOL    HW222152   0.510   2.732  17.865
 3546SOL     OW22153   1.209   2.387  17.034
 3546SOL    HW122154   1.222   2.303  17.088
 3546SOL    HW222155   1.180   2.461  17.094
 3547SOL     OW22156   0.339   2.371  17.765
 3547SOL    HW122157   0.287   2.288  17.748
 3547SOL    HW222158   0.416   2.376  17.701
 3548SOL     OW22159   0.008   3.188  16.959
 3548SOL    HW122160  -0.085   3.209  16.928
 3548SOL    HW222161   0.018   3.089  16.972
 3549SOL     OW22162   0.504   3.430  17.669
 3549SOL    HW122163   0.570   3.504  17.678
 3549SOL    HW222164   0.548   3.351  17.627
 3550SOL     OW22165   0.815   2.434  17.084
 3550SOL    HW122166   0.822   2.345  17.038
 3550SOL    HW222167   0.721   2.468  17.076
 3551SOL     OW22168   0.671   2.326  18.028
 3551SOL    HW122169   0.637   2.237  17.998
 3551SOL    HW222170   0.697   2.380  17.948
 3552SOL     OW22171   1.302   2.717  17.068
 3552SOL    HW122172   1.216   2.686  17.110
 3552SOL    HW222173   1.298   2.703  16.969
 3553SOL     OW22174   1.759   3.609  17.913
 3553SOL    HW122175   1.820   3.639  17.840
 3553SOL    HW222176   1.721   3.520  17.891
 3554SOL     OW22177   0.083   3.120  17.781
 3554SOL    HW122178   0.078   3.119  17.881
 3554SOL    HW222179   0.000   3.079  17.743
 3555SOL     OW22180   1.726   1.997  17.282
 3555SOL    HW122181   1.799   1.980  17.215
 3555SOL    HW222182   1.695   1.910  17.320
 3556SOL     OW22183   0.263   2.188  17.479
 3556SOL    HW122184   0.184   2.239  17.445
 3556SOL    HW222185   0.254   2.173  17.577
 3557SOL     OW22186   0.822   2.864  18.131
 3557SOL    HW122187   0.862   2.863  18.039
 3557SOL    HW222188   0.832   2.956  18.171
 3558SOL     OW22189   1.504   3.469  16.803
 3558SOL    HW122190   1.412   3.506  16.810
 3558SOL    HW222191   1.542   3.489  16.713
 3559SOL     OW22192   0.590   3.349  17.250
 3559SOL    HW122193   0.632   3.291  17.180
 3559SOL    HW222194   0.546   3.428  17.206
 3560SOL     OW22195   0.072   2.028  17.077
 3560SOL    HW122196   0.055   2.111  17.023
 3560SOL    HW222197   0.162   1.991  17.055
 3561SOL     OW22198   1.493   3.629  17.718
 3561SOL    HW122199   1.526   3.693  17.649
 3561SOL    HW222200   1.559   3.623  17.793
 3562SOL     OW22201   1.674   2.745  18.013
 3562SOL    HW122202   1.647   2.656  17.976
 3562SOL    HW222203   1.675   2.813  17.940
 3563SOL     OW22204   1.861   3.431  17.610
 3563SOL    HW122205   1.790   3.419  17.540
 3563SOL    HW222206   1.862   3.352  17.670
 3564SOL     OW22207   1.705   3.349  17.863
 3564SOL    HW122208   1.612   3.324  17.836
 3564SOL    HW222209   1.731   3.299  17.945
 3565SOL     OW22210   1.352   1.914  16.927
 3565SOL    HW122211   1.387   1.873  16.843
 3565SOL    HW222212   1.262   1.876  16.947
 3566SOL     OW22213   1.135   4.427   0.717
 3566SOL    HW122214   1.192   4.505   0.692
 3566SOL    HW222215   1.075   4.453   0.793
 3567SOL     OW22216   1.755   4.331   0.231
 3567SOL    HW122217   1.743   4.318   0.132
 3567SOL    HW222218   1.725   4.250   0.280
 3568SOL     OW22219   0.768   4.868   1.023
 3568SOL    HW122220   0.690   4.885   1.083
 3568SOL    HW222221   0.802   4.955   0.987
 3569SOL     OW22222   0.850   4.522   1.823
 3569SOL    HW122223   0.846   4.598   1.888
 3569SOL    HW222224   0.872   4.558   1.732
 3570SOL     OW22225   0.685   4.736   0.665
 3570SOL    HW122226   0.754   4.720   0.735
 3570SOL    HW222227   0.612   4.793   0.703
 3571SOL     OW22228   1.603   4.171   0.737
 3571SOL    HW122229   1.529   4.217   0.687
 3571SOL    HW222230   1.654   4.239   0.790
 3572SOL     OW22231   1.594   3.838   1.480
 3572SOL    HW122232   1.576   3.905   1.408
 3572SOL    HW222233   1.591   3.884   1.569
 3573SOL     OW22234   0.598   4.453   0.270
 3573SOL    HW122235   0.622   4.522   0.202
 3573SOL    HW222236   0.520   4.486   0.324
 3574SOL     OW22237   1.281   4.069   0.944
 3574SOL    HW122238   1.195   4.019   0.931
 3574SOL    HW222239   1.343   4.015   1.000
 3575SOL     OW22240   1.394   4.193   1.674
 3575SOL    HW122241   1.374   4.236   1.762
 3575SOL    HW222242   1.472   4.131   1.683
 3576SOL     OW22243   0.973   4.614   1.572
 3576SOL    HW122244   1.019   4.530   1.543
 3576SOL    HW222245   0.917   4.648   1.497
 3577SOL     OW22246   1.041   4.425   0.429
 3577SOL    HW122247   1.067   4.421   0.525
 3577SOL    HW222248   0.956   4.374   0.415
 3578SOL     OW22249   0.865   4.072   0.195
 3578SOL    HW122250   0.924   4.135   0.146
 3578SOL    HW222251   0.884   3.978   0.166
 3579SOL     OW22252   1.719   4.309   1.831
 3579SOL    HW122253   1.693   4.398   1.795
 3579SOL    HW222254   1.717   4.241   1.758
 3580SOL     OW22255   1.458   4.459   0.728
 3580SOL    HW122256   1.453   4.394   0.803
 3580SOL    HW222257   1.538   4.518   0.741
 3581SOL     OW22258   1.400   3.831   0.426
 3581SOL    HW122259   1.376   3.794   0.336
 3581SOL    HW222260   1.499   3.847   0.430
 3582SOL     OW22261   0.382   4.424   0.480
 3582SOL    HW122262   0.427   4.334   0.477
 3582SOL    HW222263   0.288   4.413   0.513
 3583SOL     OW22264   1.547   3.946   1.729
 3583SOL    HW122265   1.542   3.983   1.821
 3583SOL    HW222266   1.475   3.877   1.717
 3584SOL     OW22267   0.781   3.988   1.749
 3584SOL    HW122268   0.848   3.927   1.792
 3584SOL    HW222269   0.708   4.007   1.814
 3585SOL     OW22270   1.351   4.314   1.433
 3585SOL    HW122271   1.379   4.271   1.518
 3585SOL    HW222272   1.376   4.410   1.434
 3586SOL     OW22273   0.539   3.788   0.512
 3586SOL    HW122274   0.458   3.789   0.570
 3586SOL    HW222275   0.542   3.871   0.457
 3587SOL     OW22276   0.866   4.178   0.642
 3587SOL    HW122277   0.834   4.250   0.580
 3587SOL    HW222278   0.890   4.097   0.589
 3588SOL     OW22279   1.429   4.897   0.867
 3588SOL    HW122280   1.374   4.813   0.860
 3588SOL    HW222281   1.455   4.926   0.775
 3589SOL     OW22282   1.466   4.314   0.992
 3589SOL    HW122283   1.436   4.219   0.999
 3589SOL    HW222284   1.539   4.330   1.058
 3590SOL     OW22285   1.857   4.557   0.377
 3590SOL    HW122286   1.899   4.493   0.441
 3590SOL    HW222287   1.819   4.506   0.299
 3591SOL     OW22288   1.390   4.299   0.078
 3591SOL    HW122289   1.336   4.278   0.159
 3591SOL    HW222290   1.481   4.258   0.087
 3592SOL     OW22291   0.527   3.980   0.328
 3592SOL    HW122292   0.554   3.921   0.253
 3592SOL    HW222293   0.527   4.075   0.297
 3593SOL     OW22294   1.274   4.110   1.262
 3593SOL    HW122295   1.295   4.184   1.326
 3593SOL    HW222296   1.185   4.127   1.219
 3594SOL     OW22297   1.582   4.363   0.472
 3594SOL    HW122298   1.551   4.424   0.545
 3594SOL    HW222299   1.632   4.415   0.403
 3595SOL     OW22300   1.587   4.503   1.670
 3595SOL    HW122301   1.495   4.541   1.665
 3595SOL    HW222302   1.647   4.550   1.605
 3596SOL     OW22303   1.013   3.829   1.770
 3596SOL    HW122304   1.019   3.914   1.718
 3596SOL    HW222305   1.045   3.753   1.713
 3597SOL     OW22306   0.573   4.594   1.029
 3597SOL    HW122307   0.617   4.683   1.020
 3597SOL    HW222308   0.510   4.594   1.106
 3598SOL     OW22309   1.209   4.249   0.275
 3598SOL    HW122310   1.222   4.165   0.329
 3598SOL    HW222311   1.180   4.323   0.335
 3599SOL     OW22312   0.037   5.034   1.282
 3599SOL    HW122313   0.090   4.985   1.350
 3599SOL    HW222314   0.059   5.132   1.287
 3600SOL     OW22315   1.728   4.659   1.854
 3600SOL    HW122316   1.682   4.652   1.765
 3600SOL    HW222317   1.666   4.703   1.920
 3601SOL     OW22318   0.307   3.787   0.618
 3601SOL    HW122319   0.296   3.881   0.651
 3601SOL    HW222320   0.302   3.724   0.695
 3602SOL     OW22321   1.622   4.091   0.374
 3602SOL    HW122322   1.624   4.015   0.438
 3602SOL    HW222323   1.574   4.168   0.414
 3603SOL     OW22324   0.350   4.622   1.804
 3603SOL    HW122325   0.426   4.666   1.852
 3603SOL    HW222326   0.385   4.575   1.722
 3604SOL     OW22327   1.540   3.998   0.125
 3604SOL    HW122328   1.479   3.923   0.148
 3604SOL    HW222329   1.562   4.050   0.208
 3605SOL     OW22330   1.138   4.104   1.678
 3605SOL    HW122331   1.093   4.167   1.742
 3605SOL    HW222332   1.231   4.135   1.661
 3606SOL     OW22333   1.160   3.931   1.477
 3606SOL    HW122334   1.160   3.995   1.554
 3606SOL    HW222335   1.188   3.979   1.394
 3607SOL     OW22336   0.815   4.296   0.325
 3607SOL    HW122337   0.822   4.207   0.279
 3607SOL    HW222338   0.721   4.330   0.317
 3608SOL     OW22339   1.657   4.328   1.206
 3608SOL    HW122340   1.619   4.259   1.268
 3608SOL    HW222341   1.739   4.292   1.162
 3609SOL     OW22342   0.473   4.224   0.191
 3609SOL    HW122343   0.534   4.304   0.195
 3609SOL    HW222344   0.378   4.255   0.198
 3610SOL     OW22345   1.302   4.579   0.309
 3610SOL    HW122346   1.216   4.548   0.351
 3610SOL    HW222347   1.298   4.565   0.210
 3611SOL     OW22348   0.903   3.810   0.133
 3611SOL    HW122349   0.954   3.811   0.047
 3611SOL    HW222350   0.959   3.768   0.204
 3612SOL     OW22351   1.726   3.859   0.523
 3612SOL    HW122352   1.799   3.842   0.456
 3612SOL    HW222353   1.695   3.772   0.561
 3613SOL     OW22354   1.280   4.651   0.672
 3613SOL    HW122355   1.340   4.570   0.674
 3613SOL    HW222356   1.320   4.720   0.612
 3614SOL     OW22357   1.841   3.899   0.963
 3614SOL    HW122358   1.880   3.814   0.927
 3614SOL    HW222359   1.743   3.901   0.944
 3615SOL     OW22360   0.916   4.634   0.291
 3615SOL    HW122361   0.979   4.672   0.223
 3615SOL    HW222362   0.956   4.551   0.330
 3616SOL     OW22363   1.709   4.109   1.381
 3616SOL    HW122364   1.782   4.178   1.385
 3616SOL    HW222365   1.737   4.034   1.322
 3617SOL     OW22366   0.672   3.927   1.489
 3617SOL    HW122367   0.762   3.911   1.449
 3617SOL    HW222368   0.680   3.932   1.588
 3618SOL     OW22369   0.613   4.566   1.431
 3618SOL    HW122370   0.669   4.647   1.414
 3618SOL    HW222371   0.672   4.486   1.434
 3619SOL     OW22372   0.716   4.289   1.708
 3619SOL    HW122373   0.735   4.354   1.782
 3619SOL    HW222374   0.776   4.209   1.717
 3620SOL     OW22375   1.674   4.607   1.254
 3620SOL    HW122376   1.647   4.518   1.217
 3620SOL    HW222377   1.675   4.675   1.181
 3621SOL     OW22378   1.225   4.049   0.449
 3621SOL    HW122379   1.290   3.975   0.438
 3621SOL    HW222380   1.245   4.099   0.533
 3622SOL     OW22381   0.594   4.469   0.652
 3622SOL    HW122382   0.644   4.554   0.633
 3622SOL    HW222383   0.506   4.471   0.604
 3623SOL     OW22384   1.777   4.066   1.642
 3623SOL    HW122385   1.760   4.097   1.548
 3623SOL    HW222386   1.693   4.029   1.680
 3624SOL     OW22387   1.730   4.658   1.517
 3624SOL    HW122388   1.768   4.749   1.532
 3624SOL    HW222389   1.722   4.641   1.418
 3625SOL     OW22390   0.859   4.680   0.861
 3625SOL    HW122391   0.913   4.611   0.909
 3625SOL    HW222392   0.827   4.749   0.927
 3626SOL     OW22393   1.824   3.916   1.227
 3626SOL    HW122394   1.820   3.826   1.271
 3626SOL    HW222395   1.827   3.905   1.128
 3627SOL     OW22396   0.428   4.148   0.520
 3627SOL    HW122397   0.458   4.076   0.458
 3627SOL    HW222398   0.389   4.108   0.603
 3628SOL     OW22399   1.424   3.938   1.112
 3628SOL    HW122400   1.476   3.873   1.167
 3628SOL    HW222401   1.375   4.001   1.173
 3629SOL     OW22402   1.352   3.776   0.168
 3629SOL    HW122403   1.387   3.735   0.084
 3629SOL    HW222404   1.262   3.738   0.188
 3630SOL     OW22405   1.300   4.177   0.691
 3630SOL    HW122406   1.241   4.257   0.695
 3630SOL    HW222407   1.315   4.142   0.784
 3631SOL     OW22408   1.593   3.945   0.882
 3631SOL    HW122409   1.509   3.944   0.936
 3631SOL    HW222410   1.595   4.028   0.826
 3632SOL     OW22411   0.225   3.999   2.858
 3632SOL    HW122412   0.260   3.982   2.950
 3632SOL    HW222413   0.137   3.954   2.846
 3633SOL     OW22414   0.019   4.092   2.509
 3633SOL    HW122415  -0.063   4.135   2.548
 3633SOL    HW222416  -0.009   4.019   2.446
 3634SOL     OW22417   1.135   4.427   2.579
 3634SOL    HW122418   1.192   4.505   2.554
 3634SOL    HW222419   1.075   4.453   2.655
 3635SOL     OW22420   1.755   4.331   2.093
 3635SOL    HW122421   1.743   4.318   1.994
 3635SOL    HW222422   1.725   4.250   2.142
 3636SOL     OW22423   0.768   4.868   2.885
 3636SOL    HW122424   0.690   4.885   2.945
 3636SOL    HW222425   0.802   4.955   2.849
 3637SOL     OW22426   0.850   4.522   3.685
 3637SOL    HW122427   0.846   4.598   3.750
 3637SOL    HW222428   0.872   4.558   3.594
 3638SOL     OW22429   0.685   4.736   2.527
 3638SOL    HW122430   0.754   4.720   2.597
 3638SOL    HW222431   0.612   4.793   2.565
 3639SOL     OW22432   0.438   4.116   3.361
 3639SOL    HW122433   0.520   4.060   3.370
 3639SOL    HW222434   0.357   4.058   3.365
 3640SOL     OW22435   1.603   4.171   2.599
 3640SOL    HW122436   1.529   4.217   2.549
 3640SOL    HW222437   1.654   4.239   2.652
 3641SOL     OW22438   0.240   4.815   2.748
 3641SOL    HW122439   0.254   4.731   2.800
 3641SOL    HW222440   0.185   4.879   2.803
 3642SOL     OW22441   0.606   4.688   1.985
 3642SOL    HW122442   0.613   4.772   1.931
 3642SOL    HW222443   0.652   4.701   2.073
 3643SOL     OW22444   1.594   3.838   3.342
 3643SOL    HW122445   1.576   3.905   3.270
 3643SOL    HW222446   1.591   3.884   3.431
 3644SOL     OW22447   0.122   4.367   2.425
 3644SOL    HW122448   0.077   4.279   2.442
 3644SOL    HW222449   0.121   4.421   2.509
 3645SOL     OW22450   1.689   4.646   2.474
 3645SOL    HW122451   1.784   4.617   2.482
 3645SOL    HW222452   1.681   4.711   2.399
 3646SOL     OW22453   0.113   4.461   3.459
 3646SOL    HW122454   0.201   4.448   3.504
 3646SOL    HW222455   0.100   4.558   3.437
 3647SOL     OW22456   0.809   3.728   2.364
 3647SOL    HW122457   0.849   3.819   2.355
 3647SOL    HW222458   0.709   3.736   2.370
 3648SOL     OW22459   0.197   4.700   3.126
 3648SOL    HW122460   0.286   4.655   3.112
 3648SOL    HW222461   0.124   4.635   3.107
 3649SOL     OW22462   1.525   4.723   2.052
 3649SOL    HW122463   1.462   4.647   2.065
 3649SOL    HW222464   1.573   4.741   2.138
 3650SOL     OW22465   0.317   3.975   3.663
 3650SOL    HW122466   0.388   4.046   3.669
 3650SOL    HW222467   0.229   4.014   3.691
 3651SOL     OW22468   0.598   4.453   2.132
 3651SOL    HW122469   0.622   4.522   2.064
 3651SOL    HW222470   0.520   4.486   2.186
 3652SOL     OW22471   1.281   4.069   2.806
 3652SOL    HW122472   1.195   4.019   2.793
 3652SOL    HW222473   1.343   4.015   2.862
 3653SOL     OW22474   0.807   4.329   3.327
 3653SOL    HW122475   0.760   4.326   3.416
 3653SOL    HW222476   0.756   4.274   3.261
 3654SOL     OW22477   1.394   4.193   3.536
 3654SOL    HW122478   1.374   4.236   3.624
 3654SOL    HW222479   1.472   4.131   3.545
 3655SOL     OW22480   0.973   4.614   3.434
 3655SOL    HW122481   1.019   4.530   3.405
 3655SOL    HW222482   0.917   4.648   3.359
 3656SOL     OW22483   0.991   4.134   3.104
 3656SOL    HW122484   0.914   4.168   3.158
 3656SOL    HW222485   0.957   4.083   3.025
 3657SOL     OW22486   1.041   4.425   2.291
 3657SOL    HW122487   1.067   4.421   2.387
 3657SOL    HW222488   0.956   4.374   2.277
 3658SOL     OW22489   0.076   4.535   2.651
 3658SOL    HW122490   0.175   4.523   2.660
 3658SOL    HW222491   0.052   4.630   2.672
 3659SOL     OW22492   0.865   4.072   2.057
 3659SOL    HW122493   0.924   4.135   2.008
 3659SOL    HW222494   0.884   3.978   2.028
 3660SOL     OW22495   1.719   4.309   3.693
 3660SOL    HW122496   1.693   4.398   3.657
 3660SOL    HW222497   1.717   4.241   3.620
 3661SOL     OW22498   0.550   3.920   2.747
 3661SOL    HW122499   0.545   3.915   2.847
 3661SOL    HW222500   0.552   4.016   2.718
 3662SOL     OW22501   1.458   4.459   2.590
 3662SOL    HW122502   1.453   4.394   2.665
 3662SOL    HW222503   1.538   4.518   2.603
 3663SOL     OW22504   0.202   4.009   3.360
 3663SOL    HW122505   0.122   4.069   3.347
 3663SOL    HW222506   0.192   3.960   3.446
 3664SOL     OW22507   1.400   3.831   2.288
 3664SOL    HW122508   1.376   3.794   2.198
 3664SOL    HW222509   1.499   3.847   2.292
 3665SOL     OW22510   0.382   4.424   2.342
 3665SOL    HW122511   0.427   4.334   2.339
 3665SOL    HW222512   0.288   4.413   2.375
 3666SOL     OW22513   1.547   3.946   3.591
 3666SOL    HW122514   1.542   3.983   3.683
 3666SOL    HW222515   1.475   3.877   3.579
 3667SOL     OW22516   0.614   3.846   1.979
 3667SOL    HW122517   0.712   3.824   1.986
 3667SOL    HW222518   0.583   3.829   1.886
 3668SOL     OW22519   0.781   3.988   3.611
 3668SOL    HW122520   0.848   3.927   3.654
 3668SOL    HW222521   0.708   4.007   3.676
 3669SOL     OW22522   1.351   4.314   3.295
 3669SOL    HW122523   1.379   4.271   3.380
 3669SOL    HW222524   1.376   4.410   3.296
 3670SOL     OW22525   0.922   4.227   2.761
 3670SOL    HW122526   0.897   4.218   2.665
 3670SOL    HW222527   0.970   4.145   2.792
 3671SOL     OW22528   0.539   3.788   2.374
 3671SOL    HW122529   0.458   3.789   2.432
 3671SOL    HW222530   0.542   3.871   2.319
 3672SOL     OW22531   0.935   3.960   2.342
 3672SOL    HW122532   0.887   4.001   2.264
 3672SOL    HW222533   1.034   3.958   2.323
 3673SOL     OW22534   1.076   4.407   3.326
 3673SOL    HW122535   0.996   4.346   3.329
 3673SOL    HW222536   1.157   4.354   3.302
 3674SOL     OW22537   1.032   4.273   1.878
 3674SOL    HW122538   0.991   4.355   1.839
 3674SOL    HW222539   1.096   4.299   1.951
 3675SOL     OW22540   0.078   4.280   3.248
 3675SOL    HW122541   0.170   4.279   3.207
 3675SOL    HW222542   0.072   4.354   3.315
 3676SOL     OW22543   0.561   3.946   3.009
 3676SOL    HW122544   0.599   3.862   3.046
 3676SOL    HW222545   0.473   3.965   3.053
 3677SOL     OW22546   0.866   4.178   2.504
 3677SOL    HW122547   0.834   4.250   2.442
 3677SOL    HW222548   0.890   4.097   2.451
 3678SOL     OW22549   1.017   3.763   2.615
 3678SOL    HW122550   0.945   3.768   2.546
 3678SOL    HW222551   0.993   3.694   2.684
 3679SOL     OW22552   1.429   4.897   2.729
 3679SOL    HW122553   1.374   4.813   2.722
 3679SOL    HW222554   1.455   4.926   2.637
 3680SOL     OW22555   1.466   4.314   2.854
 3680SOL    HW122556   1.436   4.219   2.861
 3680SOL    HW222557   1.539   4.330   2.920
 3681SOL     OW22558   1.857   4.557   2.239
 3681SOL    HW122559   1.899   4.493   2.303
 3681SOL    HW222560   1.819   4.506   2.161
 3682SOL     OW22561   1.390   4.299   1.940
 3682SOL    HW122562   1.336   4.278   2.021
 3682SOL    HW222563   1.481   4.258   1.949
 3683SOL     OW22564   0.527   3.980   2.190
 3683SOL    HW122565   0.554   3.921   2.115
 3683SOL    HW222566   0.527   4.075   2.159
 3684SOL     OW22567   1.638   4.823   2.941
 3684SOL    HW122568   1.643   4.904   3.000
 3684SOL    HW222569   1.552   4.825   2.890
 3685SOL     OW22570   0.915   3.813   3.264
 3685SOL    HW122571   0.940   3.793   3.169
 3685SOL    HW222572   0.987   3.869   3.306
 3686SOL     OW22573   0.410   4.537   3.113
 3686SOL    HW122574   0.496   4.549   3.163
 3686SOL    HW222575   0.368   4.450   3.140
 3687SOL     OW22576   1.274   4.110   3.124
 3687SOL    HW122577   1.295   4.184   3.188
 3687SOL    HW222578   1.185   4.127   3.081
 3688SOL     OW22579   0.566   4.261   2.727
 3688SOL    HW122580   0.578   4.327   2.653
 3688SOL    HW222581   0.612   4.295   2.810
 3689SOL     OW22582   1.582   4.363   2.334
 3689SOL    HW122583   1.551   4.424   2.407
 3689SOL    HW222584   1.632   4.415   2.265
 3690SOL     OW22585   0.402   4.475   3.460
 3690SOL    HW122586   0.470   4.530   3.413
 3690SOL    HW222587   0.442   4.387   3.487
 3691SOL     OW22588   1.587   4.503   3.532
 3691SOL    HW122589   1.495   4.541   3.527
 3691SOL    HW222590   1.647   4.550   3.467
 3692SOL     OW22591   1.013   3.829   3.632
 3692SOL    HW122592   1.019   3.914   3.580
 3692SOL    HW222593   1.045   3.753   3.575
 3693SOL     OW22594   0.504   3.774   3.602
 3693SOL    HW122595   0.462   3.717   3.532
 3693SOL    HW222596   0.438   3.843   3.634
 3694SOL     OW22597   0.573   4.594   2.891
 3694SOL    HW122598   0.617   4.683   2.882
 3694SOL    HW222599   0.510   4.594   2.968
 3695SOL     OW22600   1.360   4.586   2.907
 3695SOL    HW122601   1.285   4.586   2.841
 3695SOL    HW222602   1.397   4.494   2.916
 3696SOL     OW22603   1.209   4.249   2.137
 3696SOL    HW122604   1.222   4.165   2.191
 3696SOL    HW222605   1.180   4.323   2.197
 3697SOL     OW22606   0.307   3.937   3.093
 3697SOL    HW122607   0.284   3.974   3.183
 3697SOL    HW222608   0.277   3.842   3.087
 3698SOL     OW22609   0.037   5.034   3.144
 3698SOL    HW122610   0.090   4.985   3.212
 3698SOL    HW222611   0.059   5.132   3.149
 3699SOL     OW22612   0.732   4.358   2.926
 3699SOL    HW122613   0.791   4.332   2.850
 3699SOL    HW222614   0.704   4.454   2.915
 3700SOL     OW22615   1.728   4.659   3.716
 3700SOL    HW122616   1.682   4.652   3.627
 3700SOL    HW222617   1.666   4.703   3.782
 3701SOL     OW22618   0.307   3.787   2.480
 3701SOL    HW122619   0.296   3.881   2.513
 3701SOL    HW222620   0.302   3.724   2.557
 3702SOL     OW22621   1.622   4.091   2.236
 3702SOL    HW122622   1.624   4.015   2.300
 3702SOL    HW222623   1.574   4.168   2.276
 3703SOL     OW22624   1.023   4.490   2.828
 3703SOL    HW122625   1.038   4.511   2.924
 3703SOL    HW222626   0.993   4.395   2.819
 3704SOL     OW22627   0.350   4.622   3.666
 3704SOL    HW122628   0.426   4.666   3.714
 3704SOL    HW222629   0.385   4.575   3.584
 3705SOL     OW22630   1.540   3.998   1.987
 3705SOL    HW122631   1.479   3.923   2.010
 3705SOL    HW222632   1.562   4.050   2.070
 3706SOL     OW22633   1.303   4.562   1.904
 3706SOL    HW122634   1.337   4.469   1.919
 3706SOL    HW222635   1.321   4.589   1.809
 3707SOL     OW22636   0.319   4.534   2.811
 3707SOL    HW122637   0.412   4.570   2.816
 3707SOL    HW222638   0.313   4.449   2.863
 3708SOL     OW22639   0.339   4.233   2.868
 3708SOL    HW122640   0.287   4.150   2.851
 3708SOL    HW222641   0.416   4.238   2.804
 3709SOL     OW22642   1.138   4.104   3.540
 3709SOL    HW122643   1.093   4.167   3.604
 3709SOL    HW222644   1.231   4.135   3.523
 3710SOL     OW22645   1.160   3.931   3.339
 3710SOL    HW122646   1.160   3.995   3.416
 3710SOL    HW222647   1.188   3.979   3.256
 3711SOL     OW22648   1.002   4.520   3.100
 3711SOL    HW122649   1.043   4.488   3.186
 3711SOL    HW222650   0.906   4.493   3.097
 3712SOL     OW22651   0.040   4.268   2.976
 3712SOL    HW122652   0.125   4.235   2.935
 3712SOL    HW222653   0.053   4.283   3.074
 3713SOL     OW22654   0.189   4.244   3.584
 3713SOL    HW122655   0.248   4.204   3.514
 3713SOL    HW222656   0.131   4.315   3.543
 3714SOL     OW22657   1.369   4.674   3.522
 3714SOL    HW122658   1.408   4.763   3.542
 3714SOL    HW222659   1.379   4.654   3.425
 3715SOL     OW22660   0.815   4.296   2.187
 3715SOL    HW122661   0.822   4.207   2.141
 3715SOL    HW222662   0.721   4.330   2.179
 3716SOL     OW22663   1.657   4.328   3.068
 3716SOL    HW122664   1.619   4.259   3.130
 3716SOL    HW222665   1.739   4.292   3.024
 3717SOL     OW22666   0.671   4.188   3.131
 3717SOL    HW122667   0.637   4.099   3.101
 3717SOL    HW222668   0.697   4.242   3.051
 3718SOL     OW22669   0.473   4.224   2.053
 3718SOL    HW122670   0.534   4.304   2.057
 3718SOL    HW222671   0.378   4.255   2.060
 3719SOL     OW22672   0.159   4.861   3.328
 3719SOL    HW122673   0.181   4.800   3.404
 3719SOL    HW222674   0.169   4.812   3.242
 3720SOL     OW22675   1.347   4.783   3.096
 3720SOL    HW122676   1.371   4.720   3.022
 3720SOL    HW222677   1.257   4.823   3.078
 3721SOL     OW22678   1.302   4.579   2.171
 3721SOL    HW122679   1.216   4.548   2.213
 3721SOL    HW222680   1.298   4.565   2.072
 3722SOL     OW22681   1.726   3.859   2.385
 3722SOL    HW122682   1.799   3.842   2.318
 3722SOL    HW222683   1.695   3.772   2.423
 3723SOL     OW22684   1.280   4.651   2.534
 3723SOL    HW122685   1.340   4.570   2.536
 3723SOL    HW222686   1.320   4.720   2.474
 3724SOL     OW22687   1.841   3.899   2.825
 3724SOL    HW122688   1.880   3.814   2.789
 3724SOL    HW222689   1.743   3.901   2.806
 3725SOL     OW22690   0.263   4.050   2.582
 3725SOL    HW122691   0.184   4.101   2.548
 3725SOL    HW222692   0.254   4.035   2.680
 3726SOL     OW22693   0.916   4.634   2.153
 3726SOL    HW122694   0.979   4.672   2.085
 3726SOL    HW222695   0.956   4.551   2.192
 3727SOL     OW22696   1.014   3.960   2.833
 3727SOL    HW122697   1.006   3.924   2.740
 3727SOL    HW222698   1.012   3.884   2.898
 3728SOL     OW22699   1.709   4.109   3.243
 3728SOL    HW122700   1.782   4.178   3.247
 3728SOL    HW222701   1.737   4.034   3.184
 3729SOL     OW22702   0.105   4.737   3.588
 3729SOL    HW122703   0.028   4.704   3.642
 3729SOL    HW222704   0.190   4.707   3.630
 3730SOL     OW22705   0.672   3.927   3.351
 3730SOL    HW122706   0.762   3.911   3.311
 3730SOL    HW222707   0.680   3.932   3.450
 3731SOL     OW22708   1.440   4.580   3.260
 3731SOL    HW122709   1.383   4.632   3.197
 3731SOL    HW222710   1.536   4.592   3.236
 3732SOL     OW22711   0.072   3.890   2.180
 3732SOL    HW122712   0.055   3.973   2.126
 3732SOL    HW222713   0.162   3.853   2.158
 3733SOL     OW22714   1.183   5.059   1.981
 3733SOL    HW122715   1.084   5.048   1.983
 3733SOL    HW222716   1.217   5.074   2.074
 3734SOL     OW22717   0.613   4.566   3.293
 3734SOL    HW122718   0.669   4.647   3.276
 3734SOL    HW222719   0.672   4.486   3.296
 3735SOL     OW22720   0.716   4.289   3.570
 3735SOL    HW122721   0.735   4.354   3.644
 3735SOL    HW222722   0.776   4.209   3.579
 3736SOL     OW22723   1.674   4.607   3.116
 3736SOL    HW122724   1.647   4.518   3.079
 3736SOL    HW222725   1.675   4.675   3.043
 3737SOL     OW22726   1.225   4.049   2.311
 3737SOL    HW122727   1.290   3.975   2.300
 3737SOL    HW222728   1.245   4.099   2.395
 3738SOL     OW22729   0.594   4.469   2.514
 3738SOL    HW122730   0.644   4.554   2.495
 3738SOL    HW222731   0.506   4.471   2.466
 3739SOL     OW22732   1.777   4.066   3.504
 3739SOL    HW122733   1.760   4.097   3.410
 3739SOL    HW222734   1.693   4.029   3.542
 3740SOL     OW22735   1.730   4.658   3.379
 3740SOL    HW122736   1.768   4.749   3.394
 3740SOL    HW222737   1.722   4.641   3.280
 3741SOL     OW22738   0.859   4.680   2.723
 3741SOL    HW122739   0.913   4.611   2.771
 3741SOL    HW222740   0.827   4.749   2.789
 3742SOL     OW22741   1.083   4.708   1.949
 3742SOL    HW122742   1.060   4.761   1.867
 3742SOL    HW222743   1.164   4.652   1.930
 3743SOL     OW22744   0.079   4.964   2.515
 3743SOL    HW122745   0.078   4.917   2.603
 3743SOL    HW222746   0.161   4.936   2.464
 3744SOL     OW22747   1.824   3.916   3.089
 3744SOL    HW122748   1.820   3.826   3.133
 3744SOL    HW222749   1.827   3.905   2.990
 3745SOL     OW22750   0.428   4.148   2.382
 3745SOL    HW122751   0.458   4.076   2.320
 3745SOL    HW222752   0.389   4.108   2.465
 3746SOL     OW22753   0.317   4.271   3.142
 3746SOL    HW122754   0.355   4.212   3.214
 3746SOL    HW222755   0.357   4.245   3.054
 3747SOL     OW22756   1.424   3.938   2.974
 3747SOL    HW122757   1.476   3.873   3.029
 3747SOL    HW222758   1.375   4.001   3.035
 3748SOL     OW22759   1.001   3.758   3.016
 3748SOL    HW122760   0.938   3.686   2.985
 3748SOL    HW222761   1.094   3.722   3.016
 3749SOL     OW22762   1.352   3.776   2.030
 3749SOL    HW122763   1.387   3.735   1.946
 3749SOL    HW222764   1.262   3.738   2.050
 3750SOL     OW22765   1.300   4.177   2.553
 3750SOL    HW122766   1.241   4.257   2.557
 3750SOL    HW222767   1.315   4.142   2.646
 3751SOL     OW22768   1.593   3.945   2.744
 3751SOL    HW122769   1.509   3.944   2.798
 3751SOL    HW222770   1.595   4.028   2.688
 3752SOL     OW22771   0.039   4.801   2.162
 3752SOL    HW122772   0.138   4.790   2.153
 3752SOL    HW222773  -0.001   4.715   2.194
 3753SOL     OW22774   0.230   4.352   3.837
 3753SOL    HW122775   0.137   4.350   3.874
 3753SOL    HW222776   0.231   4.313   3.745
 3754SOL     OW22777   0.225   3.999   4.720
 3754SOL    HW122778   0.260   3.982   4.812
 3754SOL    HW222779   0.137   3.954   4.708
 3755SOL     OW22780   0.019   4.092   4.371
 3755SOL    HW122781  -0.063   4.135   4.410
 3755SOL    HW222782  -0.009   4.019   4.308
 3756SOL     OW22783   1.135   4.427   4.441
 3756SOL    HW122784   1.192   4.505   4.416
 3756SOL    HW222785   1.075   4.453   4.517
 3757SOL     OW22786   1.755   4.331   3.955
 3757SOL    HW122787   1.743   4.318   3.856
 3757SOL    HW222788   1.725   4.250   4.004
 3758SOL     OW22789   0.768   4.868   4.747
 3758SOL    HW122790   0.690   4.885   4.807
 3758SOL    HW222791   0.802   4.955   4.711
 3759SOL     OW22792   0.850   4.522   5.547
 3759SOL    HW122793   0.846   4.598   5.612
 3759SOL    HW222794   0.872   4.558   5.456
 3760SOL     OW22795   0.685   4.736   4.389
 3760SOL    HW122796   0.754   4.720   4.459
 3760SOL    HW222797   0.612   4.793   4.427
 3761SOL     OW22798   0.438   4.116   5.223
 3761SOL    HW122799   0.520   4.060   5.232
 3761SOL    HW222800   0.357   4.058   5.227
 3762SOL     OW22801   1.603   4.171   4.461
 3762SOL    HW122802   1.529   4.217   4.411
 3762SOL    HW222803   1.654   4.239   4.514
 3763SOL     OW22804   0.240   4.815   4.610
 3763SOL    HW122805   0.254   4.731   4.662
 3763SOL    HW222806   0.185   4.879   4.665
 3764SOL     OW22807   0.606   4.688   3.847
 3764SOL    HW122808   0.613   4.772   3.793
 3764SOL    HW222809   0.652   4.701   3.935
 3765SOL     OW22810   1.594   3.838   5.204
 3765SOL    HW122811   1.576   3.905   5.132
 3765SOL    HW222812   1.591   3.884   5.293
 3766SOL     OW22813   0.122   4.367   4.287
 3766SOL    HW122814   0.077   4.279   4.304
 3766SOL    HW222815   0.121   4.421   4.371
 3767SOL     OW22816   1.689   4.646   4.336
 3767SOL    HW122817   1.784   4.617   4.344
 3767SOL    HW222818   1.681   4.711   4.261
 3768SOL     OW22819   0.113   4.461   5.321
 3768SOL    HW122820   0.201   4.448   5.366
 3768SOL    HW222821   0.100   4.558   5.299
 3769SOL     OW22822   0.809   3.728   4.226
 3769SOL    HW122823   0.849   3.819   4.217
 3769SOL    HW222824   0.709   3.736   4.232
 3770SOL     OW22825   0.197   4.700   4.988
 3770SOL    HW122826   0.286   4.655   4.974
 3770SOL    HW222827   0.124   4.635   4.969
 3771SOL     OW22828   1.525   4.723   3.914
 3771SOL    HW122829   1.462   4.647   3.927
 3771SOL    HW222830   1.573   4.741   4.000
 3772SOL     OW22831   0.317   3.975   5.525
 3772SOL    HW122832   0.388   4.046   5.531
 3772SOL    HW222833   0.229   4.014   5.553
 3773SOL     OW22834   0.598   4.453   3.994
 3773SOL    HW122835   0.622   4.522   3.926
 3773SOL    HW222836   0.520   4.486   4.048
 3774SOL     OW22837   1.281   4.069   4.668
 3774SOL    HW122838   1.195   4.019   4.655
 3774SOL    HW222839   1.343   4.015   4.724
 3775SOL     OW22840   0.807   4.329   5.189
 3775SOL    HW122841   0.760   4.326   5.278
 3775SOL    HW222842   0.756   4.274   5.123
 3776SOL     OW22843   1.394   4.193   5.398
 3776SOL    HW122844   1.374   4.236   5.486
 3776SOL    HW222845   1.472   4.131   5.407
 3777SOL     OW22846   0.973   4.614   5.296
 3777SOL    HW122847   1.019   4.530   5.267
 3777SOL    HW222848   0.917   4.648   5.221
 3778SOL     OW22849   0.991   4.134   4.966
 3778SOL    HW122850   0.914   4.168   5.020
 3778SOL    HW222851   0.957   4.083   4.887
 3779SOL     OW22852   1.041   4.425   4.153
 3779SOL    HW122853   1.067   4.421   4.249
 3779SOL    HW222854   0.956   4.374   4.139
 3780SOL     OW22855   0.076   4.535   4.513
 3780SOL    HW122856   0.175   4.523   4.522
 3780SOL    HW222857   0.052   4.630   4.534
 3781SOL     OW22858   0.865   4.072   3.919
 3781SOL    HW122859   0.924   4.135   3.870
 3781SOL    HW222860   0.884   3.978   3.890
 3782SOL     OW22861   1.719   4.309   5.555
 3782SOL    HW122862   1.693   4.398   5.519
 3782SOL    HW222863   1.717   4.241   5.482
 3783SOL     OW22864   0.550   3.920   4.609
 3783SOL    HW122865   0.545   3.915   4.709
 3783SOL    HW222866   0.552   4.016   4.580
 3784SOL     OW22867   1.458   4.459   4.452
 3784SOL    HW122868   1.453   4.394   4.527
 3784SOL    HW222869   1.538   4.518   4.465
 3785SOL     OW22870   0.202   4.009   5.222
 3785SOL    HW122871   0.122   4.069   5.209
 3785SOL    HW222872   0.192   3.960   5.308
 3786SOL     OW22873   1.400   3.831   4.150
 3786SOL    HW122874   1.376   3.794   4.060
 3786SOL    HW222875   1.499   3.847   4.154
 3787SOL     OW22876   0.382   4.424   4.204
 3787SOL    HW122877   0.427   4.334   4.201
 3787SOL    HW222878   0.288   4.413   4.237
 3788SOL     OW22879   1.547   3.946   5.453
 3788SOL    HW122880   1.542   3.983   5.545
 3788SOL    HW222881   1.475   3.877   5.441
 3789SOL     OW22882   0.614   3.846   3.841
 3789SOL    HW122883   0.712   3.824   3.848
 3789SOL    HW222884   0.583   3.829   3.748
 3790SOL     OW22885   0.781   3.988   5.473
 3790SOL    HW122886   0.848   3.927   5.516
 3790SOL    HW222887   0.708   4.007   5.538
 3791SOL     OW22888   1.351   4.314   5.157
 3791SOL    HW122889   1.379   4.271   5.242
 3791SOL    HW222890   1.376   4.410   5.158
 3792SOL     OW22891   0.922   4.227   4.623
 3792SOL    HW122892   0.897   4.218   4.527
 3792SOL    HW222893   0.970   4.145   4.654
 3793SOL     OW22894   0.539   3.788   4.236
 3793SOL    HW122895   0.458   3.789   4.294
 3793SOL    HW222896   0.542   3.871   4.181
 3794SOL     OW22897   0.297   3.759   3.895
 3794SOL    HW122898   0.346   3.843   3.874
 3794SOL    HW222899   0.359   3.694   3.940
 3795SOL     OW22900   0.935   3.960   4.204
 3795SOL    HW122901   0.887   4.001   4.126
 3795SOL    HW222902   1.034   3.958   4.185
 3796SOL     OW22903   1.076   4.407   5.188
 3796SOL    HW122904   0.996   4.346   5.191
 3796SOL    HW222905   1.157   4.354   5.164
 3797SOL     OW22906   1.032   4.273   3.740
 3797SOL    HW122907   0.991   4.355   3.701
 3797SOL    HW222908   1.096   4.299   3.813
 3798SOL     OW22909   0.078   4.280   5.110
 3798SOL    HW122910   0.170   4.279   5.069
 3798SOL    HW222911   0.072   4.354   5.177
 3799SOL     OW22912   0.561   3.946   4.871
 3799SOL    HW122913   0.599   3.862   4.908
 3799SOL    HW222914   0.473   3.965   4.915
 3800SOL     OW22915   0.866   4.178   4.366
 3800SOL    HW122916   0.834   4.250   4.304
 3800SOL    HW222917   0.890   4.097   4.313
 3801SOL     OW22918   1.017   3.763   4.477
 3801SOL    HW122919   0.945   3.768   4.408
 3801SOL    HW222920   0.993   3.694   4.546
 3802SOL     OW22921   1.429   4.897   4.591
 3802SOL    HW122922   1.374   4.813   4.584
 3802SOL    HW222923   1.455   4.926   4.499
 3803SOL     OW22924   1.466   4.314   4.716
 3803SOL    HW122925   1.436   4.219   4.723
 3803SOL    HW222926   1.539   4.330   4.782
 3804SOL     OW22927   1.857   4.557   4.101
 3804SOL    HW122928   1.899   4.493   4.165
 3804SOL    HW222929   1.819   4.506   4.023
 3805SOL     OW22930   1.390   4.299   3.802
 3805SOL    HW122931   1.336   4.278   3.883
 3805SOL    HW222932   1.481   4.258   3.811
 3806SOL     OW22933   0.527   3.980   4.052
 3806SOL    HW122934   0.554   3.921   3.977
 3806SOL    HW222935   0.527   4.075   4.021
 3807SOL     OW22936   1.638   4.823   4.803
 3807SOL    HW122937   1.643   4.904   4.862
 3807SOL    HW222938   1.552   4.825   4.752
 3808SOL     OW22939   0.915   3.813   5.126
 3808SOL    HW122940   0.940   3.793   5.031
 3808SOL    HW222941   0.987   3.869   5.168
 3809SOL     OW22942   0.410   4.537   4.975
 3809SOL    HW122943   0.496   4.549   5.025
 3809SOL    HW222944   0.368   4.450   5.002
 3810SOL     OW22945   1.274   4.110   4.986
 3810SOL    HW122946   1.295   4.184   5.050
 3810SOL    HW222947   1.185   4.127   4.943
 3811SOL     OW22948   0.566   4.261   4.589
 3811SOL    HW122949   0.578   4.327   4.515
 3811SOL    HW222950   0.612   4.295   4.672
 3812SOL     OW22951   1.582   4.363   4.196
 3812SOL    HW122952   1.551   4.424   4.269
 3812SOL    HW222953   1.632   4.415   4.127
 3813SOL     OW22954   0.402   4.475   5.322
 3813SOL    HW122955   0.470   4.530   5.275
 3813SOL    HW222956   0.442   4.387   5.349
 3814SOL     OW22957   1.587   4.503   5.394
 3814SOL    HW122958   1.495   4.541   5.389
 3814SOL    HW222959   1.647   4.550   5.329
 3815SOL     OW22960   1.013   3.829   5.494
 3815SOL    HW122961   1.019   3.914   5.442
 3815SOL    HW222962   1.045   3.753   5.437
 3816SOL     OW22963   0.504   3.774   5.464
 3816SOL    HW122964   0.462   3.717   5.394
 3816SOL    HW222965   0.438   3.843   5.496
 3817SOL     OW22966   0.573   4.594   4.753
 3817SOL    HW122967   0.617   4.683   4.744
 3817SOL    HW222968   0.510   4.594   4.830
 3818SOL     OW22969   1.360   4.586   4.769
 3818SOL    HW122970   1.285   4.586   4.703
 3818SOL    HW222971   1.397   4.494   4.778
 3819SOL     OW22972   1.209   4.249   3.999
 3819SOL    HW122973   1.222   4.165   4.053
 3819SOL    HW222974   1.180   4.323   4.059
 3820SOL     OW22975   0.307   3.937   4.955
 3820SOL    HW122976   0.284   3.974   5.045
 3820SOL    HW222977   0.277   3.842   4.949
 3821SOL     OW22978   0.037   5.034   5.006
 3821SOL    HW122979   0.090   4.985   5.074
 3821SOL    HW222980   0.059   5.132   5.011
 3822SOL     OW22981   0.732   4.358   4.788
 3822SOL    HW122982   0.791   4.332   4.712
 3822SOL    HW222983   0.704   4.454   4.777
 3823SOL     OW22984   1.728   4.659   5.578
 3823SOL    HW122985   1.682   4.652   5.489
 3823SOL    HW222986   1.666   4.703   5.644
 3824SOL     OW22987   0.307   3.787   4.342
 3824SOL    HW122988   0.296   3.881   4.375
 3824SOL    HW222989   0.302   3.724   4.419
 3825SOL     OW22990   1.622   4.091   4.098
 3825SOL    HW122991   1.624   4.015   4.162
 3825SOL    HW222992   1.574   4.168   4.138
 3826SOL     OW22993   1.023   4.490   4.690
 3826SOL    HW122994   1.038   4.511   4.786
 3826SOL    HW222995   0.993   4.395   4.681
 3827SOL     OW22996   0.350   4.622   5.528
 3827SOL    HW122997   0.426   4.666   5.576
 3827SOL    HW222998   0.385   4.575   5.446
 3828SOL     OW22999   1.540   3.998   3.849
 3828SOL    HW123000   1.479   3.923   3.872
 3828SOL    HW223001   1.562   4.050   3.932
 3829SOL     OW23002   1.303   4.562   3.766
 3829SOL    HW123003   1.337   4.469   3.781
 3829SOL    HW223004   1.321   4.589   3.671
 3830SOL     OW23005   0.319   4.534   4.673
 3830SOL    HW123006   0.412   4.570   4.678
 3830SOL    HW223007   0.313   4.449   4.725
 3831SOL     OW23008   0.339   4.233   4.730
 3831SOL    HW123009   0.287   4.150   4.713
 3831SOL    HW223010   0.416   4.238   4.666
 3832SOL     OW23011   1.138   4.104   5.402
 3832SOL    HW123012   1.093   4.167   5.466
 3832SOL    HW223013   1.231   4.135   5.385
 3833SOL     OW23014   1.160   3.931   5.201
 3833SOL    HW123015   1.160   3.995   5.278
 3833SOL    HW223016   1.188   3.979   5.118
 3834SOL     OW23017   1.002   4.520   4.962
 3834SOL    HW123018   1.043   4.488   5.048
 3834SOL    HW223019   0.906   4.493   4.959
 3835SOL     OW23020   0.040   4.268   4.838
 3835SOL    HW123021   0.125   4.235   4.797
 3835SOL    HW223022   0.053   4.283   4.936
 3836SOL     OW23023   0.189   4.244   5.446
 3836SOL    HW123024   0.248   4.204   5.376
 3836SOL    HW223025   0.131   4.315   5.405
 3837SOL     OW23026   1.369   4.674   5.384
 3837SOL    HW123027   1.408   4.763   5.404
 3837SOL    HW223028   1.379   4.654   5.287
 3838SOL     OW23029   0.815   4.296   4.049
 3838SOL    HW123030   0.822   4.207   4.003
 3838SOL    HW223031   0.721   4.330   4.041
 3839SOL     OW23032   1.657   4.328   4.930
 3839SOL    HW123033   1.619   4.259   4.992
 3839SOL    HW223034   1.739   4.292   4.886
 3840SOL     OW23035   0.671   4.188   4.993
 3840SOL    HW123036   0.637   4.099   4.963
 3840SOL    HW223037   0.697   4.242   4.913
 3841SOL     OW23038   0.473   4.224   3.915
 3841SOL    HW123039   0.534   4.304   3.919
 3841SOL    HW223040   0.378   4.255   3.922
 3842SOL     OW23041   0.159   4.861   5.190
 3842SOL    HW123042   0.181   4.800   5.266
 3842SOL    HW223043   0.169   4.812   5.104
 3843SOL     OW23044   1.347   4.783   4.958
 3843SOL    HW123045   1.371   4.720   4.884
 3843SOL    HW223046   1.257   4.823   4.940
 3844SOL     OW23047   1.302   4.579   4.033
 3844SOL    HW123048   1.216   4.548   4.075
 3844SOL    HW223049   1.298   4.565   3.934
 3845SOL     OW23050   1.726   3.859   4.247
 3845SOL    HW123051   1.799   3.842   4.180
 3845SOL    HW223052   1.695   3.772   4.285
 3846SOL     OW23053   1.280   4.651   4.396
 3846SOL    HW123054   1.340   4.570   4.398
 3846SOL    HW223055   1.320   4.720   4.336
 3847SOL     OW23056   1.841   3.899   4.687
 3847SOL    HW123057   1.880   3.814   4.651
 3847SOL    HW223058   1.743   3.901   4.668
 3848SOL     OW23059   0.263   4.050   4.444
 3848SOL    HW123060   0.184   4.101   4.410
 3848SOL    HW223061   0.254   4.035   4.542
 3849SOL     OW23062   0.916   4.634   4.015
 3849SOL    HW123063   0.979   4.672   3.947
 3849SOL    HW223064   0.956   4.551   4.054
 3850SOL     OW23065   1.014   3.960   4.695
 3850SOL    HW123066   1.006   3.924   4.602
 3850SOL    HW223067   1.012   3.884   4.760
 3851SOL     OW23068   1.709   4.109   5.105
 3851SOL    HW123069   1.782   4.178   5.109
 3851SOL    HW223070   1.737   4.034   5.046
 3852SOL     OW23071   0.105   4.737   5.450
 3852SOL    HW123072   0.028   4.704   5.504
 3852SOL    HW223073   0.190   4.707   5.492
 3853SOL     OW23074   0.672   3.927   5.213
 3853SOL    HW123075   0.762   3.911   5.173
 3853SOL    HW223076   0.680   3.932   5.312
 3854SOL     OW23077   0.075   4.069   3.757
 3854SOL    HW123078  -0.017   4.041   3.728
 3854SOL    HW223079   0.106   4.146   3.701
 3855SOL     OW23080   1.440   4.580   5.122
 3855SOL    HW123081   1.383   4.632   5.059
 3855SOL    HW223082   1.536   4.592   5.098
 3856SOL     OW23083   0.072   3.890   4.042
 3856SOL    HW123084   0.055   3.973   3.988
 3856SOL    HW223085   0.162   3.853   4.020
 3857SOL     OW23086   1.183   5.059   3.843
 3857SOL    HW123087   1.084   5.048   3.845
 3857SOL    HW223088   1.217   5.074   3.936
 3858SOL     OW23089   0.613   4.566   5.155
 3858SOL    HW123090   0.669   4.647   5.138
 3858SOL    HW223091   0.672   4.486   5.158
 3859SOL     OW23092   0.716   4.289   5.432
 3859SOL    HW123093   0.735   4.354   5.506
 3859SOL    HW223094   0.776   4.209   5.441
 3860SOL     OW23095   1.674   4.607   4.978
 3860SOL    HW123096   1.647   4.518   4.941
 3860SOL    HW223097   1.675   4.675   4.905
 3861SOL     OW23098   1.225   4.049   4.173
 3861SOL    HW123099   1.290   3.975   4.162
 3861SOL    HW223100   1.245   4.099   4.257
 3862SOL     OW23101   0.594   4.469   4.376
 3862SOL    HW123102   0.644   4.554   4.357
 3862SOL    HW223103   0.506   4.471   4.328
 3863SOL     OW23104   1.777   4.066   5.366
 3863SOL    HW123105   1.760   4.097   5.272
 3863SOL    HW223106   1.693   4.029   5.404
 3864SOL     OW23107   1.730   4.658   5.241
 3864SOL    HW123108   1.768   4.749   5.256
 3864SOL    HW223109   1.722   4.641   5.142
 3865SOL     OW23110   0.859   4.680   4.585
 3865SOL    HW123111   0.913   4.611   4.633
 3865SOL    HW223112   0.827   4.749   4.651
 3866SOL     OW23113   1.083   4.708   3.811
 3866SOL    HW123114   1.060   4.761   3.729
 3866SOL    HW223115   1.164   4.652   3.792
 3867SOL     OW23116   0.079   4.964   4.377
 3867SOL    HW123117   0.078   4.917   4.465
 3867SOL    HW223118   0.161   4.936   4.326
 3868SOL     OW23119   1.824   3.916   4.951
 3868SOL    HW123120   1.820   3.826   4.995
 3868SOL    HW223121   1.827   3.905   4.852
 3869SOL     OW23122   0.428   4.148   4.244
 3869SOL    HW123123   0.458   4.076   4.182
 3869SOL    HW223124   0.389   4.108   4.327
 3870SOL     OW23125   0.317   4.271   5.004
 3870SOL    HW123126   0.355   4.212   5.076
 3870SOL    HW223127   0.357   4.245   4.916
 3871SOL     OW23128   1.424   3.938   4.836
 3871SOL    HW123129   1.476   3.873   4.891
 3871SOL    HW223130   1.375   4.001   4.897
 3872SOL     OW23131   1.001   3.758   4.878
 3872SOL    HW123132   0.938   3.686   4.847
 3872SOL    HW223133   1.094   3.722   4.878
 3873SOL     OW23134   1.352   3.776   3.892
 3873SOL    HW123135   1.387   3.735   3.808
 3873SOL    HW223136   1.262   3.738   3.912
 3874SOL     OW23137   1.300   4.177   4.415
 3874SOL    HW123138   1.241   4.257   4.419
 3874SOL    HW223139   1.315   4.142   4.508
 3875SOL     OW23140   1.593   3.945   4.606
 3875SOL    HW123141   1.509   3.944   4.660
 3875SOL    HW223142   1.595   4.028   4.550
 3876SOL     OW23143   0.039   4.801   4.024
 3876SOL    HW123144   0.138   4.790   4.015
 3876SOL    HW223145  -0.001   4.715   4.056
 3877SOL     OW23146   0.230   4.352   5.699
 3877SOL    HW123147   0.137   4.350   5.736
 3877SOL    HW223148   0.231   4.313   5.607
 3878SOL     OW23149   0.225   3.999   6.582
 3878SOL    HW123150   0.260   3.982   6.674
 3878SOL    HW223151   0.137   3.954   6.570
 3879SOL     OW23152   0.019   4.092   6.233
 3879SOL    HW123153  -0.063   4.135   6.272
 3879SOL    HW223154  -0.009   4.019   6.170
 3880SOL     OW23155   1.135   4.427   6.303
 3880SOL    HW123156   1.192   4.505   6.278
 3880SOL    HW223157   1.075   4.453   6.379
 3881SOL     OW23158   1.755   4.331   5.817
 3881SOL    HW123159   1.743   4.318   5.718
 3881SOL    HW223160   1.725   4.250   5.866
 3882SOL     OW23161   0.768   4.868   6.609
 3882SOL    HW123162   0.690   4.885   6.669
 3882SOL    HW223163   0.802   4.955   6.573
 3883SOL     OW23164   0.850   4.522   7.409
 3883SOL    HW123165   0.846   4.598   7.474
 3883SOL    HW223166   0.872   4.558   7.318
 3884SOL     OW23167   0.685   4.736   6.251
 3884SOL    HW123168   0.754   4.720   6.321
 3884SOL    HW223169   0.612   4.793   6.289
 3885SOL     OW23170   0.438   4.116   7.085
 3885SOL    HW123171   0.520   4.060   7.094
 3885SOL    HW223172   0.357   4.058   7.089
 3886SOL     OW23173   1.603   4.171   6.323
 3886SOL    HW123174   1.529   4.217   6.273
 3886SOL    HW223175   1.654   4.239   6.376
 3887SOL     OW23176   0.240   4.815   6.472
 3887SOL    HW123177   0.254   4.731   6.524
 3887SOL    HW223178   0.185   4.879   6.527
 3888SOL     OW23179   0.606   4.688   5.709
 3888SOL    HW123180   0.613   4.772   5.655
 3888SOL    HW223181   0.652   4.701   5.797
 3889SOL     OW23182   1.594   3.838   7.066
 3889SOL    HW123183   1.576   3.905   6.994
 3889SOL    HW223184   1.591   3.884   7.155
 3890SOL     OW23185   0.122   4.367   6.149
 3890SOL    HW123186   0.077   4.279   6.166
 3890SOL    HW223187   0.121   4.421   6.233
 3891SOL     OW23188   1.689   4.646   6.198
 3891SOL    HW123189   1.784   4.617   6.206
 3891SOL    HW223190   1.681   4.711   6.123
 3892SOL     OW23191   0.113   4.461   7.183
 3892SOL    HW123192   0.201   4.448   7.228
 3892SOL    HW223193   0.100   4.558   7.161
 3893SOL     OW23194   0.809   3.728   6.088
 3893SOL    HW123195   0.849   3.819   6.079
 3893SOL    HW223196   0.709   3.736   6.094
 3894SOL     OW23197   0.197   4.700   6.850
 3894SOL    HW123198   0.286   4.655   6.836
 3894SOL    HW223199   0.124   4.635   6.831
 3895SOL     OW23200   1.525   4.723   5.776
 3895SOL    HW123201   1.462   4.647   5.789
 3895SOL    HW223202   1.573   4.741   5.862
 3896SOL     OW23203   0.317   3.975   7.387
 3896SOL    HW123204   0.388   4.046   7.393
 3896SOL    HW223205   0.229   4.014   7.415
 3897SOL     OW23206   0.598   4.453   5.856
 3897SOL    HW123207   0.622   4.522   5.788
 3897SOL    HW223208   0.520   4.486   5.910
 3898SOL     OW23209   1.281   4.069   6.530
 3898SOL    HW123210   1.195   4.019   6.517
 3898SOL    HW223211   1.343   4.015   6.586
 3899SOL     OW23212   0.807   4.329   7.051
 3899SOL    HW123213   0.760   4.326   7.140
 3899SOL    HW223214   0.756   4.274   6.985
 3900SOL     OW23215   1.394   4.193   7.260
 3900SOL    HW123216   1.374   4.236   7.348
 3900SOL    HW223217   1.472   4.131   7.269
 3901SOL     OW23218   0.973   4.614   7.158
 3901SOL    HW123219   1.019   4.530   7.129
 3901SOL    HW223220   0.917   4.648   7.083
 3902SOL     OW23221   0.991   4.134   6.828
 3902SOL    HW123222   0.914   4.168   6.882
 3902SOL    HW223223   0.957   4.083   6.749
 3903SOL     OW23224   1.041   4.425   6.015
 3903SOL    HW123225   1.067   4.421   6.111
 3903SOL    HW223226   0.956   4.374   6.001
 3904SOL     OW23227   0.076   4.535   6.375
 3904SOL    HW123228   0.175   4.523   6.384
 3904SOL    HW223229   0.052   4.630   6.396
 3905SOL     OW23230   0.865   4.072   5.781
 3905SOL    HW123231   0.924   4.135   5.732
 3905SOL    HW223232   0.884   3.978   5.752
 3906SOL     OW23233   1.719   4.309   7.417
 3906SOL    HW123234   1.693   4.398   7.381
 3906SOL    HW223235   1.717   4.241   7.344
 3907SOL     OW23236   0.550   3.920   6.471
 3907SOL    HW123237   0.545   3.915   6.571
 3907SOL    HW223238   0.552   4.016   6.442
 3908SOL     OW23239   1.458   4.459   6.314
 3908SOL    HW123240   1.453   4.394   6.389
 3908SOL    HW223241   1.538   4.518   6.327
 3909SOL     OW23242   0.202   4.009   7.084
 3909SOL    HW123243   0.122   4.069   7.071
 3909SOL    HW223244   0.192   3.960   7.170
 3910SOL     OW23245   1.400   3.831   6.012
 3910SOL    HW123246   1.376   3.794   5.922
 3910SOL    HW223247   1.499   3.847   6.016
 3911SOL     OW23248   0.382   4.424   6.066
 3911SOL    HW123249   0.427   4.334   6.063
 3911SOL    HW223250   0.288   4.413   6.099
 3912SOL     OW23251   1.547   3.946   7.315
 3912SOL    HW123252   1.542   3.983   7.407
 3912SOL    HW223253   1.475   3.877   7.303
 3913SOL     OW23254   0.614   3.846   5.703
 3913SOL    HW123255   0.712   3.824   5.710
 3913SOL    HW223256   0.583   3.829   5.610
 3914SOL     OW23257   0.781   3.988   7.335
 3914SOL    HW123258   0.848   3.927   7.378
 3914SOL    HW223259   0.708   4.007   7.400
 3915SOL     OW23260   1.351   4.314   7.019
 3915SOL    HW123261   1.379   4.271   7.104
 3915SOL    HW223262   1.376   4.410   7.020
 3916SOL     OW23263   0.922   4.227   6.485
 3916SOL    HW123264   0.897   4.218   6.389
 3916SOL    HW223265   0.970   4.145   6.516
 3917SOL     OW23266   0.539   3.788   6.098
 3917SOL    HW123267   0.458   3.789   6.156
 3917SOL    HW223268   0.542   3.871   6.043
 3918SOL     OW23269   0.297   3.759   5.757
 3918SOL    HW123270   0.346   3.843   5.736
 3918SOL    HW223271   0.359   3.694   5.802
 3919SOL     OW23272   0.935   3.960   6.066
 3919SOL    HW123273   0.887   4.001   5.988
 3919SOL    HW223274   1.034   3.958   6.047
 3920SOL     OW23275   1.076   4.407   7.050
 3920SOL    HW123276   0.996   4.346   7.053
 3920SOL    HW223277   1.157   4.354   7.026
 3921SOL     OW23278   1.032   4.273   5.602
 3921SOL    HW123279   0.991   4.355   5.563
 3921SOL    HW223280   1.096   4.299   5.675
 3922SOL     OW23281   0.078   4.280   6.972
 3922SOL    HW123282   0.170   4.279   6.931
 3922SOL    HW223283   0.072   4.354   7.039
 3923SOL     OW23284   0.561   3.946   6.733
 3923SOL    HW123285   0.599   3.862   6.770
 3923SOL    HW223286   0.473   3.965   6.777
 3924SOL     OW23287   0.866   4.178   6.228
 3924SOL    HW123288   0.834   4.250   6.166
 3924SOL    HW223289   0.890   4.097   6.175
 3925SOL     OW23290   1.017   3.763   6.339
 3925SOL    HW123291   0.945   3.768   6.270
 3925SOL    HW223292   0.993   3.694   6.408
 3926SOL     OW23293   1.429   4.897   6.453
 3926SOL    HW123294   1.374   4.813   6.446
 3926SOL    HW223295   1.455   4.926   6.361
 3927SOL     OW23296   1.466   4.314   6.578
 3927SOL    HW123297   1.436   4.219   6.585
 3927SOL    HW223298   1.539   4.330   6.644
 3928SOL     OW23299   1.857   4.557   5.963
 3928SOL    HW123300   1.899   4.493   6.027
 3928SOL    HW223301   1.819   4.506   5.885
 3929SOL     OW23302   1.390   4.299   5.664
 3929SOL    HW123303   1.336   4.278   5.745
 3929SOL    HW223304   1.481   4.258   5.673
 3930SOL     OW23305   0.527   3.980   5.914
 3930SOL    HW123306   0.554   3.921   5.839
 3930SOL    HW223307   0.527   4.075   5.883
 3931SOL     OW23308   1.638   4.823   6.665
 3931SOL    HW123309   1.643   4.904   6.724
 3931SOL    HW223310   1.552   4.825   6.614
 3932SOL     OW23311   0.915   3.813   6.988
 3932SOL    HW123312   0.940   3.793   6.893
 3932SOL    HW223313   0.987   3.869   7.030
 3933SOL     OW23314   0.410   4.537   6.837
 3933SOL    HW123315   0.496   4.549   6.887
 3933SOL    HW223316   0.368   4.450   6.864
 3934SOL     OW23317   1.274   4.110   6.848
 3934SOL    HW123318   1.295   4.184   6.912
 3934SOL    HW223319   1.185   4.127   6.805
 3935SOL     OW23320   0.566   4.261   6.451
 3935SOL    HW123321   0.578   4.327   6.377
 3935SOL    HW223322   0.612   4.295   6.534
 3936SOL     OW23323   1.582   4.363   6.058
 3936SOL    HW123324   1.551   4.424   6.131
 3936SOL    HW223325   1.632   4.415   5.989
 3937SOL     OW23326   0.402   4.475   7.184
 3937SOL    HW123327   0.470   4.530   7.137
 3937SOL    HW223328   0.442   4.387   7.211
 3938SOL     OW23329   1.587   4.503   7.256
 3938SOL    HW123330   1.495   4.541   7.251
 3938SOL    HW223331   1.647   4.550   7.191
 3939SOL     OW23332   1.013   3.829   7.356
 3939SOL    HW123333   1.019   3.914   7.304
 3939SOL    HW223334   1.045   3.753   7.299
 3940SOL     OW23335   0.504   3.774   7.326
 3940SOL    HW123336   0.462   3.717   7.256
 3940SOL    HW223337   0.438   3.843   7.358
 3941SOL     OW23338   0.573   4.594   6.615
 3941SOL    HW123339   0.617   4.683   6.606
 3941SOL    HW223340   0.510   4.594   6.692
 3942SOL     OW23341   1.360   4.586   6.631
 3942SOL    HW123342   1.285   4.586   6.565
 3942SOL    HW223343   1.397   4.494   6.640
 3943SOL     OW23344   1.209   4.249   5.861
 3943SOL    HW123345   1.222   4.165   5.915
 3943SOL    HW223346   1.180   4.323   5.921
 3944SOL     OW23347   0.307   3.937   6.817
 3944SOL    HW123348   0.284   3.974   6.907
 3944SOL    HW223349   0.277   3.842   6.811
 3945SOL     OW23350   0.037   5.034   6.868
 3945SOL    HW123351   0.090   4.985   6.936
 3945SOL    HW223352   0.059   5.132   6.873
 3946SOL     OW23353   0.732   4.358   6.650
 3946SOL    HW123354   0.791   4.332   6.574
 3946SOL    HW223355   0.704   4.454   6.639
 3947SOL     OW23356   1.728   4.659   7.440
 3947SOL    HW123357   1.682   4.652   7.351
 3947SOL    HW223358   1.666   4.703   7.506
 3948SOL     OW23359   0.307   3.787   6.204
 3948SOL    HW123360   0.296   3.881   6.237
 3948SOL    HW223361   0.302   3.724   6.281
 3949SOL     OW23362   1.622   4.091   5.960
 3949SOL    HW123363   1.624   4.015   6.024
 3949SOL    HW223364   1.574   4.168   6.000
 3950SOL     OW23365   1.023   4.490   6.552
 3950SOL    HW123366   1.038   4.511   6.648
 3950SOL    HW223367   0.993   4.395   6.543
 3951SOL     OW23368   0.350   4.622   7.390
 3951SOL    HW123369   0.426   4.666   7.438
 3951SOL    HW223370   0.385   4.575   7.308
 3952SOL     OW23371   1.540   3.998   5.711
 3952SOL    HW123372   1.479   3.923   5.734
 3952SOL    HW223373   1.562   4.050   5.794
 3953SOL     OW23374   1.303   4.562   5.628
 3953SOL    HW123375   1.337   4.469   5.643
 3953SOL    HW223376   1.321   4.589   5.533
 3954SOL     OW23377   0.319   4.534   6.535
 3954SOL    HW123378   0.412   4.570   6.540
 3954SOL    HW223379   0.313   4.449   6.587
 3955SOL     OW23380   0.339   4.233   6.592
 3955SOL    HW123381   0.287   4.150   6.575
 3955SOL    HW223382   0.416   4.238   6.528
 3956SOL     OW23383   1.138   4.104   7.264
 3956SOL    HW123384   1.093   4.167   7.328
 3956SOL    HW223385   1.231   4.135   7.247
 3957SOL     OW23386   1.160   3.931   7.063
 3957SOL    HW123387   1.160   3.995   7.140
 3957SOL    HW223388   1.188   3.979   6.980
 3958SOL     OW23389   1.002   4.520   6.824
 3958SOL    HW123390   1.043   4.488   6.910
 3958SOL    HW223391   0.906   4.493   6.821
 3959SOL     OW23392   0.040   4.268   6.700
 3959SOL    HW123393   0.125   4.235   6.659
 3959SOL    HW223394   0.053   4.283   6.798
 3960SOL     OW23395   0.189   4.244   7.308
 3960SOL    HW123396   0.248   4.204   7.238
 3960SOL    HW223397   0.131   4.315   7.267
 3961SOL     OW23398   1.369   4.674   7.246
 3961SOL    HW123399   1.408   4.763   7.266
 3961SOL    HW223400   1.379   4.654   7.149
 3962SOL     OW23401   0.815   4.296   5.911
 3962SOL    HW123402   0.822   4.207   5.865
 3962SOL    HW223403   0.721   4.330   5.903
 3963SOL     OW23404   1.657   4.328   6.792
 3963SOL    HW123405   1.619   4.259   6.854
 3963SOL    HW223406   1.739   4.292   6.748
 3964SOL     OW23407   0.671   4.188   6.855
 3964SOL    HW123408   0.637   4.099   6.825
 3964SOL    HW223409   0.697   4.242   6.775
 3965SOL     OW23410   0.473   4.224   5.777
 3965SOL    HW123411   0.534   4.304   5.781
 3965SOL    HW223412   0.378   4.255   5.784
 3966SOL     OW23413   0.159   4.861   7.052
 3966SOL    HW123414   0.181   4.800   7.128
 3966SOL    HW223415   0.169   4.812   6.966
 3967SOL     OW23416   1.347   4.783   6.820
 3967SOL    HW123417   1.371   4.720   6.746
 3967SOL    HW223418   1.257   4.823   6.802
 3968SOL     OW23419   1.302   4.579   5.895
 3968SOL    HW123420   1.216   4.548   5.937
 3968SOL    HW223421   1.298   4.565   5.796
 3969SOL     OW23422   1.726   3.859   6.109
 3969SOL    HW123423   1.799   3.842   6.042
 3969SOL    HW223424   1.695   3.772   6.147
 3970SOL     OW23425   1.280   4.651   6.258
 3970SOL    HW123426   1.340   4.570   6.260
 3970SOL    HW223427   1.320   4.720   6.198
 3971SOL     OW23428   1.841   3.899   6.549
 3971SOL    HW123429   1.880   3.814   6.513
 3971SOL    HW223430   1.743   3.901   6.530
 3972SOL     OW23431   0.263   4.050   6.306
 3972SOL    HW123432   0.184   4.101   6.272
 3972SOL    HW223433   0.254   4.035   6.404
 3973SOL     OW23434   0.916   4.634   5.877
 3973SOL    HW123435   0.979   4.672   5.809
 3973SOL    HW223436   0.956   4.551   5.916
 3974SOL     OW23437   1.014   3.960   6.557
 3974SOL    HW123438   1.006   3.924   6.464
 3974SOL    HW223439   1.012   3.884   6.622
 3975SOL     OW23440   1.709   4.109   6.967
 3975SOL    HW123441   1.782   4.178   6.971
 3975SOL    HW223442   1.737   4.034   6.908
 3976SOL     OW23443   0.105   4.737   7.312
 3976SOL    HW123444   0.028   4.704   7.366
 3976SOL    HW223445   0.190   4.707   7.354
 3977SOL     OW23446   0.672   3.927   7.075
 3977SOL    HW123447   0.762   3.911   7.035
 3977SOL    HW223448   0.680   3.932   7.174
 3978SOL     OW23449   0.075   4.069   5.619
 3978SOL    HW123450  -0.017   4.041   5.590
 3978SOL    HW223451   0.106   4.146   5.563
 3979SOL     OW23452   1.440   4.580   6.984
 3979SOL    HW123453   1.383   4.632   6.921
 3979SOL    HW223454   1.536   4.592   6.960
 3980SOL     OW23455   0.072   3.890   5.904
 3980SOL    HW123456   0.055   3.973   5.850
 3980SOL    HW223457   0.162   3.853   5.882
 3981SOL     OW23458   1.183   5.059   5.705
 3981SOL    HW123459   1.084   5.048   5.707
 3981SOL    HW223460   1.217   5.074   5.798
 3982SOL     OW23461   0.613   4.566   7.017
 3982SOL    HW123462   0.669   4.647   7.000
 3982SOL    HW223463   0.672   4.486   7.020
 3983SOL     OW23464   0.716   4.289   7.294
 3983SOL    HW123465   0.735   4.354   7.368
 3983SOL    HW223466   0.776   4.209   7.303
 3984SOL     OW23467   1.674   4.607   6.840
 3984SOL    HW123468   1.647   4.518   6.803
 3984SOL    HW223469   1.675   4.675   6.767
 3985SOL     OW23470   1.225   4.049   6.035
 3985SOL    HW123471   1.290   3.975   6.024
 3985SOL    HW223472   1.245   4.099   6.119
 3986SOL     OW23473   0.594   4.469   6.238
 3986SOL    HW123474   0.644   4.554   6.219
 3986SOL    HW223475   0.506   4.471   6.190
 3987SOL     OW23476   1.777   4.066   7.228
 3987SOL    HW123477   1.760   4.097   7.134
 3987SOL    HW223478   1.693   4.029   7.266
 3988SOL     OW23479   1.730   4.658   7.103
 3988SOL    HW123480   1.768   4.749   7.118
 3988SOL    HW223481   1.722   4.641   7.004
 3989SOL     OW23482   0.859   4.680   6.447
 3989SOL    HW123483   0.913   4.611   6.495
 3989SOL    HW223484   0.827   4.749   6.513
 3990SOL     OW23485   1.083   4.708   5.673
 3990SOL    HW123486   1.060   4.761   5.591
 3990SOL    HW223487   1.164   4.652   5.654
 3991SOL     OW23488   0.079   4.964   6.239
 3991SOL    HW123489   0.078   4.917   6.327
 3991SOL    HW223490   0.161   4.936   6.188
 3992SOL     OW23491   1.824   3.916   6.813
 3992SOL    HW123492   1.820   3.826   6.857
 3992SOL    HW223493   1.827   3.905   6.714
 3993SOL     OW23494   0.428   4.148   6.106
 3993SOL    HW123495   0.458   4.076   6.044
 3993SOL    HW223496   0.389   4.108   6.189
 3994SOL     OW23497   0.317   4.271   6.866
 3994SOL    HW123498   0.355   4.212   6.938
 3994SOL    HW223499   0.357   4.245   6.778
 3995SOL     OW23500   1.424   3.938   6.698
 3995SOL    HW123501   1.476   3.873   6.753
 3995SOL    HW223502   1.375   4.001   6.759
 3996SOL     OW23503   1.001   3.758   6.740
 3996SOL    HW123504   0.938   3.686   6.709
 3996SOL    HW223505   1.094   3.722   6.740
 3997SOL     OW23506   1.352   3.776   5.754
 3997SOL    HW123507   1.387   3.735   5.670
 3997SOL    HW223508   1.262   3.738   5.774
 3998SOL     OW23509   1.300   4.177   6.277
 3998SOL    HW123510   1.241   4.257   6.281
 3998SOL    HW223511   1.315   4.142   6.370
 3999SOL     OW23512   1.593   3.945   6.468
 3999SOL    HW123513   1.509   3.944   6.522
 3999SOL    HW223514   1.595   4.028   6.412
 4000SOL     OW23515   0.039   4.801   5.886
 4000SOL    HW123516   0.138   4.790   5.877
 4000SOL    HW223517  -0.001   4.715   5.918
 4001SOL     OW23518   0.230   4.352   7.561
 4001SOL    HW123519   0.137   4.350   7.598
 4001SOL    HW223520   0.231   4.313   7.469
 4002SOL     OW23521   0.225   3.999   8.444
 4002SOL    HW123522   0.260   3.982   8.536
 4002SOL    HW223523   0.137   3.954   8.432
 4003SOL     OW23524   0.019   4.092   8.095
 4003SOL    HW123525  -0.063   4.135   8.134
 4003SOL    HW223526  -0.009   4.019   8.032
 4004SOL     OW23527   1.135   4.427   8.165
 4004SOL    HW123528   1.192   4.505   8.140
 4004SOL    HW223529   1.075   4.453   8.241
 4005SOL     OW23530   1.755   4.331   7.679
 4005SOL    HW123531   1.743   4.318   7.580
 4005SOL    HW223532   1.725   4.250   7.728
 4006SOL     OW23533   0.768   4.868   8.471
 4006SOL    HW123534   0.690   4.885   8.531
 4006SOL    HW223535   0.802   4.955   8.435
 4007SOL     OW23536   0.685   4.736   8.113
 4007SOL    HW123537   0.754   4.720   8.183
 4007SOL    HW223538   0.612   4.793   8.151
 4008SOL     OW23539   0.438   4.116   8.947
 4008SOL    HW123540   0.520   4.060   8.956
 4008SOL    HW223541   0.357   4.058   8.951
 4009SOL     OW23542   1.603   4.171   8.185
 4009SOL    HW123543   1.529   4.217   8.135
 4009SOL    HW223544   1.654   4.239   8.238
 4010SOL     OW23545   0.240   4.815   8.334
 4010SOL    HW123546   0.254   4.731   8.386
 4010SOL    HW223547   0.185   4.879   8.389
 4011SOL     OW23548   0.606   4.688   7.571
 4011SOL    HW123549   0.613   4.772   7.517
 4011SOL    HW223550   0.652   4.701   7.659
 4012SOL     OW23551   0.122   4.367   8.011
 4012SOL    HW123552   0.077   4.279   8.028
 4012SOL    HW223553   0.121   4.421   8.095
 4013SOL     OW23554   1.689   4.646   8.060
 4013SOL    HW123555   1.784   4.617   8.068
 4013SOL    HW223556   1.681   4.711   7.985
 4014SOL     OW23557   0.809   3.728   7.950
 4014SOL    HW123558   0.849   3.819   7.941
 4014SOL    HW223559   0.709   3.736   7.956
 4015SOL     OW23560   1.525   4.723   7.638
 4015SOL    HW123561   1.462   4.647   7.651
 4015SOL    HW223562   1.573   4.741   7.724
 4016SOL     OW23563   0.598   4.453   7.718
 4016SOL    HW123564   0.622   4.522   7.650
 4016SOL    HW223565   0.520   4.486   7.772
 4017SOL     OW23566   1.281   4.069   8.392
 4017SOL    HW123567   1.195   4.019   8.379
 4017SOL    HW223568   1.343   4.015   8.448
 4018SOL     OW23569   0.807   4.329   8.913
 4018SOL    HW123570   0.760   4.326   9.002
 4018SOL    HW223571   0.756   4.274   8.847
 4019SOL     OW23572   1.394   4.193   9.122
 4019SOL    HW123573   1.374   4.236   9.210
 4019SOL    HW223574   1.472   4.131   9.131
 4020SOL     OW23575   0.973   4.614   9.020
 4020SOL    HW123576   1.019   4.530   8.991
 4020SOL    HW223577   0.917   4.648   8.945
 4021SOL     OW23578   0.991   4.134   8.690
 4021SOL    HW123579   0.914   4.168   8.744
 4021SOL    HW223580   0.957   4.083   8.611
 4022SOL     OW23581   1.041   4.425   7.877
 4022SOL    HW123582   1.067   4.421   7.973
 4022SOL    HW223583   0.956   4.374   7.863
 4023SOL     OW23584   0.076   4.535   8.237
 4023SOL    HW123585   0.175   4.523   8.246
 4023SOL    HW223586   0.052   4.630   8.258
 4024SOL     OW23587   0.865   4.072   7.643
 4024SOL    HW123588   0.924   4.135   7.594
 4024SOL    HW223589   0.884   3.978   7.614
 4025SOL     OW23590   0.550   3.920   8.333
 4025SOL    HW123591   0.545   3.915   8.433
 4025SOL    HW223592   0.552   4.016   8.304
 4026SOL     OW23593   1.458   4.459   8.176
 4026SOL    HW123594   1.453   4.394   8.251
 4026SOL    HW223595   1.538   4.518   8.189
 4027SOL     OW23596   0.202   4.009   8.946
 4027SOL    HW123597   0.122   4.069   8.933
 4027SOL    HW223598   0.192   3.960   9.032
 4028SOL     OW23599   1.400   3.831   7.874
 4028SOL    HW123600   1.376   3.794   7.784
 4028SOL    HW223601   1.499   3.847   7.878
 4029SOL     OW23602   0.382   4.424   7.928
 4029SOL    HW123603   0.427   4.334   7.925
 4029SOL    HW223604   0.288   4.413   7.961
 4030SOL     OW23605   0.614   3.846   7.565
 4030SOL    HW123606   0.712   3.824   7.572
 4030SOL    HW223607   0.583   3.829   7.472
 4031SOL     OW23608   0.781   3.988   9.197
 4031SOL    HW123609   0.848   3.927   9.240
 4031SOL    HW223610   0.708   4.007   9.262
 4032SOL     OW23611   1.351   4.314   8.881
 4032SOL    HW123612   1.379   4.271   8.966
 4032SOL    HW223613   1.376   4.410   8.882
 4033SOL     OW23614   0.922   4.227   8.347
 4033SOL    HW123615   0.897   4.218   8.251
 4033SOL    HW223616   0.970   4.145   8.378
 4034SOL     OW23617   0.539   3.788   7.960
 4034SOL    HW123618   0.458   3.789   8.018
 4034SOL    HW223619   0.542   3.871   7.905
 4035SOL     OW23620   0.297   3.759   7.619
 4035SOL    HW123621   0.346   3.843   7.598
 4035SOL    HW223622   0.359   3.694   7.664
 4036SOL     OW23623   0.935   3.960   7.928
 4036SOL    HW123624   0.887   4.001   7.850
 4036SOL    HW223625   1.034   3.958   7.909
 4037SOL     OW23626   1.076   4.407   8.912
 4037SOL    HW123627   0.996   4.346   8.915
 4037SOL    HW223628   1.157   4.354   8.888
 4038SOL     OW23629   1.032   4.273   7.464
 4038SOL    HW123630   0.991   4.355   7.425
 4038SOL    HW223631   1.096   4.299   7.537
 4039SOL     OW23632   0.078   4.280   8.834
 4039SOL    HW123633   0.170   4.279   8.793
 4039SOL    HW223634   0.072   4.354   8.901
 4040SOL     OW23635   0.561   3.946   8.595
 4040SOL    HW123636   0.599   3.862   8.632
 4040SOL    HW223637   0.473   3.965   8.639
 4041SOL     OW23638   0.866   4.178   8.090
 4041SOL    HW123639   0.834   4.250   8.028
 4041SOL    HW223640   0.890   4.097   8.037
 4042SOL     OW23641   1.017   3.763   8.201
 4042SOL    HW123642   0.945   3.768   8.132
 4042SOL    HW223643   0.993   3.694   8.270
 4043SOL     OW23644   1.429   4.897   8.315
 4043SOL    HW123645   1.374   4.813   8.308
 4043SOL    HW223646   1.455   4.926   8.223
 4044SOL     OW23647   1.466   4.314   8.440
 4044SOL    HW123648   1.436   4.219   8.447
 4044SOL    HW223649   1.539   4.330   8.506
 4045SOL     OW23650   1.857   4.557   7.825
 4045SOL    HW123651   1.899   4.493   7.889
 4045SOL    HW223652   1.819   4.506   7.747
 4046SOL     OW23653   1.390   4.299   7.526
 4046SOL    HW123654   1.336   4.278   7.607
 4046SOL    HW223655   1.481   4.258   7.535
 4047SOL     OW23656   0.527   3.980   7.776
 4047SOL    HW123657   0.554   3.921   7.701
 4047SOL    HW223658   0.527   4.075   7.745
 4048SOL     OW23659   1.638   4.823   8.527
 4048SOL    HW123660   1.643   4.904   8.586
 4048SOL    HW223661   1.552   4.825   8.476
 4049SOL     OW23662   0.915   3.813   8.850
 4049SOL    HW123663   0.940   3.793   8.755
 4049SOL    HW223664   0.987   3.869   8.892
 4050SOL     OW23665   0.410   4.537   8.699
 4050SOL    HW123666   0.496   4.549   8.749
 4050SOL    HW223667   0.368   4.450   8.726
 4051SOL     OW23668   1.274   4.110   8.710
 4051SOL    HW123669   1.295   4.184   8.774
 4051SOL    HW223670   1.185   4.127   8.667
 4052SOL     OW23671   0.566   4.261   8.313
 4052SOL    HW123672   0.578   4.327   8.239
 4052SOL    HW223673   0.612   4.295   8.396
 4053SOL     OW23674   1.582   4.363   7.920
 4053SOL    HW123675   1.551   4.424   7.993
 4053SOL    HW223676   1.632   4.415   7.851
 4054SOL     OW23677   0.402   4.475   9.046
 4054SOL    HW123678   0.470   4.530   8.999
 4054SOL    HW223679   0.442   4.387   9.073
 4055SOL     OW23680   1.013   3.829   9.218
 4055SOL    HW123681   1.019   3.914   9.166
 4055SOL    HW223682   1.045   3.753   9.161
 4056SOL     OW23683   0.504   3.774   9.188
 4056SOL    HW123684   0.462   3.717   9.118
 4056SOL    HW223685   0.438   3.843   9.220
 4057SOL     OW23686   0.573   4.594   8.477
 4057SOL    HW123687   0.617   4.683   8.468
 4057SOL    HW223688   0.510   4.594   8.554
 4058SOL     OW23689   1.360   4.586   8.493
 4058SOL    HW123690   1.285   4.586   8.427
 4058SOL    HW223691   1.397   4.494   8.502
 4059SOL     OW23692   1.209   4.249   7.723
 4059SOL    HW123693   1.222   4.165   7.777
 4059SOL    HW223694   1.180   4.323   7.783
 4060SOL     OW23695   0.307   3.937   8.679
 4060SOL    HW123696   0.284   3.974   8.769
 4060SOL    HW223697   0.277   3.842   8.673
 4061SOL     OW23698   0.037   5.034   8.730
 4061SOL    HW123699   0.090   4.985   8.798
 4061SOL    HW223700   0.059   5.132   8.735
 4062SOL     OW23701   0.732   4.358   8.512
 4062SOL    HW123702   0.791   4.332   8.436
 4062SOL    HW223703   0.704   4.454   8.501
 4063SOL     OW23704   1.728   4.659   9.302
 4063SOL    HW123705   1.682   4.652   9.213
 4063SOL    HW223706   1.666   4.703   9.368
 4064SOL     OW23707   0.307   3.787   8.066
 4064SOL    HW123708   0.296   3.881   8.099
 4064SOL    HW223709   0.302   3.724   8.143
 4065SOL     OW23710   1.622   4.091   7.822
 4065SOL    HW123711   1.624   4.015   7.886
 4065SOL    HW223712   1.574   4.168   7.862
 4066SOL     OW23713   1.023   4.490   8.414
 4066SOL    HW123714   1.038   4.511   8.510
 4066SOL    HW223715   0.993   4.395   8.405
 4067SOL     OW23716   1.540   3.998   7.573
 4067SOL    HW123717   1.479   3.923   7.596
 4067SOL    HW223718   1.562   4.050   7.656
 4068SOL     OW23719   1.303   4.562   7.490
 4068SOL    HW123720   1.337   4.469   7.505
 4068SOL    HW223721   1.321   4.589   7.395
 4069SOL     OW23722   0.319   4.534   8.397
 4069SOL    HW123723   0.412   4.570   8.402
 4069SOL    HW223724   0.313   4.449   8.449
 4070SOL     OW23725   0.339   4.233   8.454
 4070SOL    HW123726   0.287   4.150   8.437
 4070SOL    HW223727   0.416   4.238   8.390
 4071SOL     OW23728   1.138   4.104   9.126
 4071SOL    HW123729   1.093   4.167   9.190
 4071SOL    HW223730   1.231   4.135   9.109
 4072SOL     OW23731   1.160   3.931   8.925
 4072SOL    HW123732   1.160   3.995   9.002
 4072SOL    HW223733   1.188   3.979   8.842
 4073SOL     OW23734   1.002   4.520   8.686
 4073SOL    HW123735   1.043   4.488   8.772
 4073SOL    HW223736   0.906   4.493   8.683
 4074SOL     OW23737   0.040   4.268   8.562
 4074SOL    HW123738   0.125   4.235   8.521
 4074SOL    HW223739   0.053   4.283   8.660
 4075SOL     OW23740   0.815   4.296   7.773
 4075SOL    HW123741   0.822   4.207   7.727
 4075SOL    HW223742   0.721   4.330   7.765
 4076SOL     OW23743   1.657   4.328   8.654
 4076SOL    HW123744   1.619   4.259   8.716
 4076SOL    HW223745   1.739   4.292   8.610
 4077SOL     OW23746   0.671   4.188   8.717
 4077SOL    HW123747   0.637   4.099   8.687
 4077SOL    HW223748   0.697   4.242   8.637
 4078SOL     OW23749   0.473   4.224   7.639
 4078SOL    HW123750   0.534   4.304   7.643
 4078SOL    HW223751   0.378   4.255   7.646
 4079SOL     OW23752   0.159   4.861   8.914
 4079SOL    HW123753   0.181   4.800   8.990
 4079SOL    HW223754   0.169   4.812   8.828
 4080SOL     OW23755   1.347   4.783   8.682
 4080SOL    HW123756   1.371   4.720   8.608
 4080SOL    HW223757   1.257   4.823   8.664
 4081SOL     OW23758   1.302   4.579   7.757
 4081SOL    HW123759   1.216   4.548   7.799
 4081SOL    HW223760   1.298   4.565   7.658
 4082SOL     OW23761   1.726   3.859   7.971
 4082SOL    HW123762   1.799   3.842   7.904
 4082SOL    HW223763   1.695   3.772   8.009
 4083SOL     OW23764   1.280   4.651   8.120
 4083SOL    HW123765   1.340   4.570   8.122
 4083SOL    HW223766   1.320   4.720   8.060
 4084SOL     OW23767   1.841   3.899   8.411
 4084SOL    HW123768   1.880   3.814   8.375
 4084SOL    HW223769   1.743   3.901   8.392
 4085SOL     OW23770   0.263   4.050   8.168
 4085SOL    HW123771   0.184   4.101   8.134
 4085SOL    HW223772   0.254   4.035   8.266
 4086SOL     OW23773   0.916   4.634   7.739
 4086SOL    HW123774   0.979   4.672   7.671
 4086SOL    HW223775   0.956   4.551   7.778
 4087SOL     OW23776   1.014   3.960   8.419
 4087SOL    HW123777   1.006   3.924   8.326
 4087SOL    HW223778   1.012   3.884   8.484
 4088SOL     OW23779   1.709   4.109   8.829
 4088SOL    HW123780   1.782   4.178   8.833
 4088SOL    HW223781   1.737   4.034   8.770
 4089SOL     OW23782   0.672   3.927   8.937
 4089SOL    HW123783   0.762   3.911   8.897
 4089SOL    HW223784   0.680   3.932   9.036
 4090SOL     OW23785   0.075   4.069   7.481
 4090SOL    HW123786  -0.017   4.041   7.452
 4090SOL    HW223787   0.106   4.146   7.425
 4091SOL     OW23788   0.072   3.890   7.766
 4091SOL    HW123789   0.055   3.973   7.712
 4091SOL    HW223790   0.162   3.853   7.744
 4092SOL     OW23791   1.183   5.059   7.567
 4092SOL    HW123792   1.084   5.048   7.569
 4092SOL    HW223793   1.217   5.074   7.660
 4093SOL     OW23794   0.613   4.566   8.879
 4093SOL    HW123795   0.669   4.647   8.862
 4093SOL    HW223796   0.672   4.486   8.882
 4094SOL     OW23797   0.716   4.289   9.156
 4094SOL    HW123798   0.735   4.354   9.230
 4094SOL    HW223799   0.776   4.209   9.165
 4095SOL     OW23800   1.225   4.049   7.897
 4095SOL    HW123801   1.290   3.975   7.886
 4095SOL    HW223802   1.245   4.099   7.981
 4096SOL     OW23803   0.594   4.469   8.100
 4096SOL    HW123804   0.644   4.554   8.081
 4096SOL    HW223805   0.506   4.471   8.052
 4097SOL     OW23806   0.859   4.680   8.309
 4097SOL    HW123807   0.913   4.611   8.357
 4097SOL    HW223808   0.827   4.749   8.375
 4098SOL     OW23809   1.083   4.708   7.535
 4098SOL    HW123810   1.060   4.761   7.453
 4098SOL    HW223811   1.164   4.652   7.516
 4099SOL     OW23812   0.079   4.964   8.101
 4099SOL    HW123813   0.078   4.917   8.189
 4099SOL    HW223814   0.161   4.936   8.050
 4100SOL     OW23815   1.824   3.916   8.675
 4100SOL    HW123816   1.820   3.826   8.719
 4100SOL    HW223817   1.827   3.905   8.576
 4101SOL     OW23818   0.428   4.148   7.968
 4101SOL    HW123819   0.458   4.076   7.906
 4101SOL    HW223820   0.389   4.108   8.051
 4102SOL     OW23821   0.317   4.271   8.728
 4102SOL    HW123822   0.355   4.212   8.800
 4102SOL    HW223823   0.357   4.245   8.640
 4103SOL     OW23824   1.424   3.938   8.560
 4103SOL    HW123825   1.476   3.873   8.615
 4103SOL    HW223826   1.375   4.001   8.621
 4104SOL     OW23827   1.001   3.758   8.602
 4104SOL    HW123828   0.938   3.686   8.571
 4104SOL    HW223829   1.094   3.722   8.602
 4105SOL     OW23830   1.352   3.776   7.616
 4105SOL    HW123831   1.387   3.735   7.532
 4105SOL    HW223832   1.262   3.738   7.636
 4106SOL     OW23833   1.300   4.177   8.139
 4106SOL    HW123834   1.241   4.257   8.143
 4106SOL    HW223835   1.315   4.142   8.232
 4107SOL     OW23836   1.593   3.945   8.330
 4107SOL    HW123837   1.509   3.944   8.384
 4107SOL    HW223838   1.595   4.028   8.274
 4108SOL     OW23839   0.039   4.801   7.748
 4108SOL    HW123840   0.138   4.790   7.739
 4108SOL    HW223841  -0.001   4.715   7.780
 4109SOL     OW23842   0.225   3.999  10.306
 4109SOL    HW123843   0.260   3.982  10.398
 4109SOL    HW223844   0.137   3.954  10.294
 4110SOL     OW23845   1.135   4.427  10.027
 4110SOL    HW123846   1.192   4.505  10.002
 4110SOL    HW223847   1.075   4.453  10.103
 4111SOL     OW23848   0.438   4.116  10.809
 4111SOL    HW123849   0.520   4.060  10.818
 4111SOL    HW223850   0.357   4.058  10.813
 4112SOL     OW23851   1.689   4.646   9.922
 4112SOL    HW123852   1.784   4.617   9.930
 4112SOL    HW223853   1.681   4.711   9.847
 4113SOL     OW23854   0.317   3.975  11.111
 4113SOL    HW123855   0.388   4.046  11.117
 4113SOL    HW223856   0.229   4.014  11.139
 4114SOL     OW23857   1.281   4.069  10.254
 4114SOL    HW123858   1.195   4.019  10.241
 4114SOL    HW223859   1.343   4.015  10.310
 4115SOL     OW23860   1.394   4.193  10.984
 4115SOL    HW123861   1.374   4.236  11.072
 4115SOL    HW223862   1.472   4.131  10.993
 4116SOL     OW23863   0.076   4.535  10.099
 4116SOL    HW123864   0.175   4.523  10.108
 4116SOL    HW223865   0.052   4.630  10.120
 4117SOL     OW23866   1.458   4.459  10.038
 4117SOL    HW123867   1.453   4.394  10.113
 4117SOL    HW223868   1.538   4.518  10.051
 4118SOL     OW23869   1.547   3.946  11.039
 4118SOL    HW123870   1.542   3.983  11.131
 4118SOL    HW223871   1.475   3.877  11.027
 4119SOL     OW23872   0.614   3.846   9.427
 4119SOL    HW123873   0.712   3.824   9.434
 4119SOL    HW223874   0.583   3.829   9.334
 4120SOL     OW23875   0.922   4.227  10.209
 4120SOL    HW123876   0.897   4.218  10.113
 4120SOL    HW223877   0.970   4.145  10.240
 4121SOL     OW23878   0.297   3.759   9.481
 4121SOL    HW123879   0.346   3.843   9.460
 4121SOL    HW223880   0.359   3.694   9.526
 4122SOL     OW23881   1.032   4.273   9.326
 4122SOL    HW123882   0.991   4.355   9.287
 4122SOL    HW223883   1.096   4.299   9.399
 4123SOL     OW23884   0.561   3.946  10.457
 4123SOL    HW123885   0.599   3.862  10.494
 4123SOL    HW223886   0.473   3.965  10.501
 4124SOL     OW23887   1.857   4.557   9.687
 4124SOL    HW123888   1.899   4.493   9.751
 4124SOL    HW223889   1.819   4.506   9.609
 4125SOL     OW23890   1.390   4.299   9.388
 4125SOL    HW123891   1.336   4.278   9.469
 4125SOL    HW223892   1.481   4.258   9.397
 4126SOL     OW23893   0.402   4.475  10.908
 4126SOL    HW123894   0.470   4.530  10.861
 4126SOL    HW223895   0.442   4.387  10.935
 4127SOL     OW23896   1.587   4.503  10.980
 4127SOL    HW123897   1.495   4.541  10.975
 4127SOL    HW223898   1.647   4.550  10.915
 4128SOL     OW23899   0.504   3.774  11.050
 4128SOL    HW123900   0.462   3.717  10.980
 4128SOL    HW223901   0.438   3.843  11.082
 4129SOL     OW23902   1.360   4.586  10.355
 4129SOL    HW123903   1.285   4.586  10.289
 4129SOL    HW223904   1.397   4.494  10.364
 4130SOL     OW23905   1.209   4.249   9.585
 4130SOL    HW123906   1.222   4.165   9.639
 4130SOL    HW223907   1.180   4.323   9.645
 4131SOL     OW23908   0.037   5.034  10.592
 4131SOL    HW123909   0.090   4.985  10.660
 4131SOL    HW223910   0.059   5.132  10.597
 4132SOL     OW23911   1.728   4.659  11.164
 4132SOL    HW123912   1.682   4.652  11.075
 4132SOL    HW223913   1.666   4.703  11.230
 4133SOL     OW23914   1.023   4.490  10.276
 4133SOL    HW123915   1.038   4.511  10.372
 4133SOL    HW223916   0.993   4.395  10.267
 4134SOL     OW23917   0.350   4.622  11.114
 4134SOL    HW123918   0.426   4.666  11.162
 4134SOL    HW223919   0.385   4.575  11.032
 4135SOL     OW23920   1.540   3.998   9.435
 4135SOL    HW123921   1.479   3.923   9.458
 4135SOL    HW223922   1.562   4.050   9.518
 4136SOL     OW23923   1.303   4.562   9.352
 4136SOL    HW123924   1.337   4.469   9.367
 4136SOL    HW223925   1.321   4.589   9.257
 4137SOL     OW23926   1.002   4.520  10.548
 4137SOL    HW123927   1.043   4.488  10.634
 4137SOL    HW223928   0.906   4.493  10.545
 4138SOL     OW23929   0.040   4.268  10.424
 4138SOL    HW123930   0.125   4.235  10.383
 4138SOL    HW223931   0.053   4.283  10.522
 4139SOL     OW23932   0.671   4.188  10.579
 4139SOL    HW123933   0.637   4.099  10.549
 4139SOL    HW223934   0.697   4.242  10.499
 4140SOL     OW23935   0.159   4.861  10.776
 4140SOL    HW123936   0.181   4.800  10.852
 4140SOL    HW223937   0.169   4.812  10.690
 4141SOL     OW23938   1.280   4.651   9.982
 4141SOL    HW123939   1.340   4.570   9.984
 4141SOL    HW223940   1.320   4.720   9.922
 4142SOL     OW23941   1.014   3.960  10.281
 4142SOL    HW123942   1.006   3.924  10.188
 4142SOL    HW223943   1.012   3.884  10.346
 4143SOL     OW23944   0.105   4.737  11.036
 4143SOL    HW123945   0.028   4.704  11.090
 4143SOL    HW223946   0.190   4.707  11.078
 4144SOL     OW23947   0.672   3.927  10.799
 4144SOL    HW123948   0.762   3.911  10.759
 4144SOL    HW223949   0.680   3.932  10.898
 4145SOL     OW23950   0.072   3.890   9.628
 4145SOL    HW123951   0.055   3.973   9.574
 4145SOL    HW223952   0.162   3.853   9.606
 4146SOL     OW23953   0.613   4.566  10.741
 4146SOL    HW123954   0.669   4.647  10.724
 4146SOL    HW223955   0.672   4.486  10.744
 4147SOL     OW23956   1.225   4.049   9.759
 4147SOL    HW123957   1.290   3.975   9.748
 4147SOL    HW223958   1.245   4.099   9.843
 4148SOL     OW23959   0.859   4.680  10.171
 4148SOL    HW123960   0.913   4.611  10.219
 4148SOL    HW223961   0.827   4.749  10.237
 4149SOL     OW23962   0.079   4.964   9.963
 4149SOL    HW123963   0.078   4.917  10.051
 4149SOL    HW223964   0.161   4.936   9.912
 4150SOL     OW23965   1.352   3.776   9.478
 4150SOL    HW123966   1.387   3.735   9.394
 4150SOL    HW223967   1.262   3.738   9.498
 4151SOL     OW23968   1.300   4.177  10.001
 4151SOL    HW123969   1.241   4.257  10.005
 4151SOL    HW223970   1.315   4.142  10.094
 4152SOL     OW23971   0.039   4.801   9.610
 4152SOL    HW123972   0.138   4.790   9.601
 4152SOL    HW223973  -0.001   4.715   9.642
 4153SOL     OW23974   0.230   4.352  11.285
 4153SOL    HW123975   0.137   4.350  11.322
 4153SOL    HW223976   0.231   4.313  11.193
 4154SOL     OW23977   1.135   4.427  11.889
 4154SOL    HW123978   1.192   4.505  11.864
 4154SOL    HW223979   1.075   4.453  11.965
 4155SOL     OW23980   0.850   4.522  12.995
 4155SOL    HW123981   0.846   4.598  13.060
 4155SOL    HW223982   0.872   4.558  12.904
 4156SOL     OW23983   0.606   4.688  11.295
 4156SOL    HW123984   0.613   4.772  11.241
 4156SOL    HW223985   0.652   4.701  11.383
 4157SOL     OW23986   1.594   3.838  12.652
 4157SOL    HW123987   1.576   3.905  12.580
 4157SOL    HW223988   1.591   3.884  12.741
 4158SOL     OW23989   0.122   4.367  11.735
 4158SOL    HW123990   0.077   4.279  11.752
 4158SOL    HW223991   0.121   4.421  11.819
 4159SOL     OW23992   0.598   4.453  11.442
 4159SOL    HW123993   0.622   4.522  11.374
 4159SOL    HW223994   0.520   4.486  11.496
 4160SOL     OW23995   0.807   4.329  12.637
 4160SOL    HW123996   0.760   4.326  12.726
 4160SOL    HW223997   0.756   4.274  12.571
 4161SOL     OW23998   1.041   4.425  11.601
 4161SOL    HW123999   1.067   4.421  11.697
 4161SOL    HW224000   0.956   4.374  11.587
 4162SOL     OW24001   0.865   4.072  11.367
 4162SOL    HW124002   0.924   4.135  11.318
 4162SOL    HW224003   0.884   3.978  11.338
 4163SOL     OW24004   0.202   4.009  12.670
 4163SOL    HW124005   0.122   4.069  12.657
 4163SOL    HW224006   0.192   3.960  12.756
 4164SOL     OW24007   0.382   4.424  11.652
 4164SOL    HW124008   0.427   4.334  11.649
 4164SOL    HW224009   0.288   4.413  11.685
 4165SOL     OW24010   1.547   3.946  12.901
 4165SOL    HW124011   1.542   3.983  12.993
 4165SOL    HW224012   1.475   3.877  12.889
 4166SOL     OW24013   0.614   3.846  11.289
 4166SOL    HW124014   0.712   3.824  11.296
 4166SOL    HW224015   0.583   3.829  11.196
 4167SOL     OW24016   0.781   3.988  12.921
 4167SOL    HW124017   0.848   3.927  12.964
 4167SOL    HW224018   0.708   4.007  12.986
 4168SOL     OW24019   0.922   4.227  12.071
 4168SOL    HW124020   0.897   4.218  11.975
 4168SOL    HW224021   0.970   4.145  12.102
 4169SOL     OW24022   0.935   3.960  11.652
 4169SOL    HW124023   0.887   4.001  11.574
 4169SOL    HW224024   1.034   3.958  11.633
 4170SOL     OW24025   0.561   3.946  12.319
 4170SOL    HW124026   0.599   3.862  12.356
 4170SOL    HW224027   0.473   3.965  12.363
 4171SOL     OW24028   0.866   4.178  11.814
 4171SOL    HW124029   0.834   4.250  11.752
 4171SOL    HW224030   0.890   4.097  11.761
 4172SOL     OW24031   1.857   4.557  11.549
 4172SOL    HW124032   1.899   4.493  11.613
 4172SOL    HW224033   1.819   4.506  11.471
 4173SOL     OW24034   0.527   3.980  11.500
 4173SOL    HW124035   0.554   3.921  11.425
 4173SOL    HW224036   0.527   4.075  11.469
 4174SOL     OW24037   0.566   4.261  12.037
 4174SOL    HW124038   0.578   4.327  11.963
 4174SOL    HW224039   0.612   4.295  12.120
 4175SOL     OW24040   0.732   4.358  12.236
 4175SOL    HW124041   0.791   4.332  12.160
 4175SOL    HW224042   0.704   4.454  12.225
 4176SOL     OW24043   0.307   3.787  11.790
 4176SOL    HW124044   0.296   3.881  11.823
 4176SOL    HW224045   0.302   3.724  11.867
 4177SOL     OW24046   1.622   4.091  11.546
 4177SOL    HW124047   1.624   4.015  11.610
 4177SOL    HW224048   1.574   4.168  11.586
 4178SOL     OW24049   1.023   4.490  12.138
 4178SOL    HW124050   1.038   4.511  12.234
 4178SOL    HW224051   0.993   4.395  12.129
 4179SOL     OW24052   1.540   3.998  11.297
 4179SOL    HW124053   1.479   3.923  11.320
 4179SOL    HW224054   1.562   4.050  11.380
 4180SOL     OW24055   1.002   4.520  12.410
 4180SOL    HW124056   1.043   4.488  12.496
 4180SOL    HW224057   0.906   4.493  12.407
 4181SOL     OW24058   1.369   4.674  12.832
 4181SOL    HW124059   1.408   4.763  12.852
 4181SOL    HW224060   1.379   4.654  12.735
 4182SOL     OW24061   0.815   4.296  11.497
 4182SOL    HW124062   0.822   4.207  11.451
 4182SOL    HW224063   0.721   4.330  11.489
 4183SOL     OW24064   0.671   4.188  12.441
 4183SOL    HW124065   0.637   4.099  12.411
 4183SOL    HW224066   0.697   4.242  12.361
 4184SOL     OW24067   0.473   4.224  11.363
 4184SOL    HW124068   0.534   4.304  11.367
 4184SOL    HW224069   0.378   4.255  11.370
 4185SOL     OW24070   1.726   3.859  11.695
 4185SOL    HW124071   1.799   3.842  11.628
 4185SOL    HW224072   1.695   3.772  11.733
 4186SOL     OW24073   1.280   4.651  11.844
 4186SOL    HW124074   1.340   4.570  11.846
 4186SOL    HW224075   1.320   4.720  11.784
 4187SOL     OW24076   0.916   4.634  11.463
 4187SOL    HW124077   0.979   4.672  11.395
 4187SOL    HW224078   0.956   4.551  11.502
 4188SOL     OW24079   1.014   3.960  12.143
 4188SOL    HW124080   1.006   3.924  12.050
 4188SOL    HW224081   1.012   3.884  12.208
 4189SOL     OW24082   0.075   4.069  11.205
 4189SOL    HW124083  -0.017   4.041  11.176
 4189SOL    HW224084   0.106   4.146  11.149
 4190SOL     OW24085   0.072   3.890  11.490
 4190SOL    HW124086   0.055   3.973  11.436
 4190SOL    HW224087   0.162   3.853  11.468
 4191SOL     OW24088   0.594   4.469  11.824
 4191SOL    HW124089   0.644   4.554  11.805
 4191SOL    HW224090   0.506   4.471  11.776
 4192SOL     OW24091   1.777   4.066  12.814
 4192SOL    HW124092   1.760   4.097  12.720
 4192SOL    HW224093   1.693   4.029  12.852
 4193SOL     OW24094   1.730   4.658  12.689
 4193SOL    HW124095   1.768   4.749  12.704
 4193SOL    HW224096   1.722   4.641  12.590
 4194SOL     OW24097   1.824   3.916  12.399
 4194SOL    HW124098   1.820   3.826  12.443
 4194SOL    HW224099   1.827   3.905  12.300
 4195SOL     OW24100   0.428   4.148  11.692
 4195SOL    HW124101   0.458   4.076  11.630
 4195SOL    HW224102   0.389   4.108  11.775
 4196SOL     OW24103   1.352   3.776  11.340
 4196SOL    HW124104   1.387   3.735  11.256
 4196SOL    HW224105   1.262   3.738  11.360
 4197SOL     OW24106   0.039   4.801  11.472
 4197SOL    HW124107   0.138   4.790  11.463
 4197SOL    HW224108  -0.001   4.715  11.504
 4198SOL     OW24109   0.225   3.999  14.030
 4198SOL    HW124110   0.260   3.982  14.122
 4198SOL    HW224111   0.137   3.954  14.018
 4199SOL     OW24112   0.019   4.092  13.681
 4199SOL    HW124113  -0.063   4.135  13.720
 4199SOL    HW224114  -0.009   4.019  13.618
 4200SOL     OW24115   0.768   4.868  14.057
 4200SOL    HW124116   0.690   4.885  14.117
 4200SOL    HW224117   0.802   4.955  14.021
 4201SOL     OW24118   0.685   4.736  13.699
 4201SOL    HW124119   0.754   4.720  13.769
 4201SOL    HW224120   0.612   4.793  13.737
 4202SOL     OW24121   0.122   4.367  13.597
 4202SOL    HW124122   0.077   4.279  13.614
 4202SOL    HW224123   0.121   4.421  13.681
 4203SOL     OW24124   1.281   4.069  13.978
 4203SOL    HW124125   1.195   4.019  13.965
 4203SOL    HW224126   1.343   4.015  14.034
 4204SOL     OW24127   1.394   4.193  14.708
 4204SOL    HW124128   1.374   4.236  14.796
 4204SOL    HW224129   1.472   4.131  14.717
 4205SOL     OW24130   0.991   4.134  14.276
 4205SOL    HW124131   0.914   4.168  14.330
 4205SOL    HW224132   0.957   4.083  14.197
 4206SOL     OW24133   0.865   4.072  13.229
 4206SOL    HW124134   0.924   4.135  13.180
 4206SOL    HW224135   0.884   3.978  13.200
 4207SOL     OW24136   1.719   4.309  14.865
 4207SOL    HW124137   1.693   4.398  14.829
 4207SOL    HW224138   1.717   4.241  14.792
 4208SOL     OW24139   0.202   4.009  14.532
 4208SOL    HW124140   0.122   4.069  14.519
 4208SOL    HW224141   0.192   3.960  14.618
 4209SOL     OW24142   0.614   3.846  13.151
 4209SOL    HW124143   0.712   3.824  13.158
 4209SOL    HW224144   0.583   3.829  13.058
 4210SOL     OW24145   0.781   3.988  14.783
 4210SOL    HW124146   0.848   3.927  14.826
 4210SOL    HW224147   0.708   4.007  14.848
 4211SOL     OW24148   1.076   4.407  14.498
 4211SOL    HW124149   0.996   4.346  14.501
 4211SOL    HW224150   1.157   4.354  14.474
 4212SOL     OW24151   0.561   3.946  14.181
 4212SOL    HW124152   0.599   3.862  14.218
 4212SOL    HW224153   0.473   3.965  14.225
 4213SOL     OW24154   0.410   4.537  14.285
 4213SOL    HW124155   0.496   4.549  14.335
 4213SOL    HW224156   0.368   4.450  14.312
 4214SOL     OW24157   0.566   4.261  13.899
 4214SOL    HW124158   0.578   4.327  13.825
 4214SOL    HW224159   0.612   4.295  13.982
 4215SOL     OW24160   1.013   3.829  14.804
 4215SOL    HW124161   1.019   3.914  14.752
 4215SOL    HW224162   1.045   3.753  14.747
 4216SOL     OW24163   0.504   3.774  14.774
 4216SOL    HW124164   0.462   3.717  14.704
 4216SOL    HW224165   0.438   3.843  14.806
 4217SOL     OW24166   0.573   4.594  14.063
 4217SOL    HW124167   0.617   4.683  14.054
 4217SOL    HW224168   0.510   4.594  14.140
 4218SOL     OW24169   0.307   3.937  14.265
 4218SOL    HW124170   0.284   3.974  14.355
 4218SOL    HW224171   0.277   3.842  14.259
 4219SOL     OW24172   0.732   4.358  14.098
 4219SOL    HW124173   0.791   4.332  14.022
 4219SOL    HW224174   0.704   4.454  14.087
 4220SOL     OW24175   0.319   4.534  13.983
 4220SOL    HW124176   0.412   4.570  13.988
 4220SOL    HW224177   0.313   4.449  14.035
 4221SOL     OW24178   0.339   4.233  14.040
 4221SOL    HW124179   0.287   4.150  14.023
 4221SOL    HW224180   0.416   4.238  13.976
 4222SOL     OW24181   1.138   4.104  14.712
 4222SOL    HW124182   1.093   4.167  14.776
 4222SOL    HW224183   1.231   4.135  14.695
 4223SOL     OW24184   0.815   4.296  13.359
 4223SOL    HW124185   0.822   4.207  13.313
 4223SOL    HW224186   0.721   4.330  13.351
 4224SOL     OW24187   0.671   4.188  14.303
 4224SOL    HW124188   0.637   4.099  14.273
 4224SOL    HW224189   0.697   4.242  14.223
 4225SOL     OW24190   1.841   3.899  13.997
 4225SOL    HW124191   1.880   3.814  13.961
 4225SOL    HW224192   1.743   3.901  13.978
 4226SOL     OW24193   0.105   4.737  14.760
 4226SOL    HW124194   0.028   4.704  14.814
 4226SOL    HW224195   0.190   4.707  14.802
 4227SOL     OW24196   0.672   3.927  14.523
 4227SOL    HW124197   0.762   3.911  14.483
 4227SOL    HW224198   0.680   3.932  14.622
 4228SOL     OW24199   0.613   4.566  14.465
 4228SOL    HW124200   0.669   4.647  14.448
 4228SOL    HW224201   0.672   4.486  14.468
 4229SOL     OW24202   0.079   4.964  13.687
 4229SOL    HW124203   0.078   4.917  13.775
 4229SOL    HW224204   0.161   4.936  13.636
 4230SOL     OW24205   1.824   3.916  14.261
 4230SOL    HW124206   1.820   3.826  14.305
 4230SOL    HW224207   1.827   3.905  14.162
 4231SOL     OW24208   0.317   4.271  14.314
 4231SOL    HW124209   0.355   4.212  14.386
 4231SOL    HW224210   0.357   4.245  14.226
 4232SOL     OW24211   1.594   3.838  16.377
 4232SOL    HW124212   1.576   3.905  16.305
 4232SOL    HW224213   1.591   3.884  16.466
 4233SOL     OW24214   0.197   4.700  16.161
 4233SOL    HW124215   0.286   4.655  16.147
 4233SOL    HW224216   0.124   4.635  16.142
 4234SOL     OW24217   0.598   4.453  15.166
 4234SOL    HW124218   0.622   4.522  15.098
 4234SOL    HW224219   0.520   4.486  15.220
 4235SOL     OW24220   1.041   4.425  15.325
 4235SOL    HW124221   1.067   4.421  15.421
 4235SOL    HW224222   0.956   4.374  15.311
 4236SOL     OW24223   1.400   3.831  15.322
 4236SOL    HW124224   1.376   3.794  15.232
 4236SOL    HW224225   1.499   3.847  15.326
 4237SOL     OW24226   0.382   4.424  15.376
 4237SOL    HW124227   0.427   4.334  15.373
 4237SOL    HW224228   0.288   4.413  15.409
 4238SOL     OW24229   0.614   3.846  15.013
 4238SOL    HW124230   0.712   3.824  15.020
 4238SOL    HW224231   0.583   3.829  14.920
 4239SOL     OW24232   0.922   4.227  15.795
 4239SOL    HW124233   0.897   4.218  15.699
 4239SOL    HW224234   0.970   4.145  15.826
 4240SOL     OW24235   0.539   3.788  15.408
 4240SOL    HW124236   0.458   3.789  15.466
 4240SOL    HW224237   0.542   3.871  15.353
 4241SOL     OW24238   0.297   3.759  15.067
 4241SOL    HW124239   0.346   3.843  15.046
 4241SOL    HW224240   0.359   3.694  15.112
 4242SOL     OW24241   0.078   4.280  16.283
 4242SOL    HW124242   0.170   4.279  16.242
 4242SOL    HW224243   0.072   4.354  16.350
 4243SOL     OW24244   0.561   3.946  16.044
 4243SOL    HW124245   0.599   3.862  16.081
 4243SOL    HW224246   0.473   3.965  16.088
 4244SOL     OW24247   1.390   4.299  14.974
 4244SOL    HW124248   1.336   4.278  15.055
 4244SOL    HW224249   1.481   4.258  14.983
 4245SOL     OW24250   1.638   4.823  15.976
 4245SOL    HW124251   1.643   4.904  16.035
 4245SOL    HW224252   1.552   4.825  15.925
 4246SOL     OW24253   1.274   4.110  16.159
 4246SOL    HW124254   1.295   4.184  16.223
 4246SOL    HW224255   1.185   4.127  16.116
 4247SOL     OW24256   0.504   3.774  16.637
 4247SOL    HW124257   0.462   3.717  16.567
 4247SOL    HW224258   0.438   3.843  16.669
 4248SOL     OW24259   0.307   3.937  16.128
 4248SOL    HW124260   0.284   3.974  16.218
 4248SOL    HW224261   0.277   3.842  16.122
 4249SOL     OW24262   0.339   4.233  15.903
 4249SOL    HW124263   0.287   4.150  15.886
 4249SOL    HW224264   0.416   4.238  15.839
 4250SOL     OW24265   1.160   3.931  16.374
 4250SOL    HW124266   1.160   3.995  16.451
 4250SOL    HW224267   1.188   3.979  16.291
 4251SOL     OW24268   1.302   4.579  15.205
 4251SOL    HW124269   1.216   4.548  15.247
 4251SOL    HW224270   1.298   4.565  15.106
 4252SOL     OW24271   1.726   3.859  15.419
 4252SOL    HW124272   1.799   3.842  15.352
 4252SOL    HW224273   1.695   3.772  15.457
 4253SOL     OW24274   1.841   3.899  15.860
 4253SOL    HW124275   1.880   3.814  15.824
 4253SOL    HW224276   1.743   3.901  15.841
 4254SOL     OW24277   0.916   4.634  15.187
 4254SOL    HW124278   0.979   4.672  15.119
 4254SOL    HW224279   0.956   4.551  15.226
 4255SOL     OW24280   1.674   4.607  16.151
 4255SOL    HW124281   1.647   4.518  16.114
 4255SOL    HW224282   1.675   4.675  16.078
 4256SOL     OW24283   1.824   3.916  16.124
 4256SOL    HW124284   1.820   3.826  16.168
 4256SOL    HW224285   1.827   3.905  16.025
 4257SOL     OW24286   1.424   3.938  16.009
 4257SOL    HW124287   1.476   3.873  16.064
 4257SOL    HW224288   1.375   4.001  16.070
 4258SOL     OW24289   1.593   3.945  15.778
 4258SOL    HW124290   1.509   3.944  15.832
 4258SOL    HW224291   1.595   4.028  15.722
 4259SOL     OW24292   0.039   4.801  15.196
 4259SOL    HW124293   0.138   4.790  15.187
 4259SOL    HW224294  -0.001   4.715  15.228
 4260SOL     OW24295   1.135   4.427  17.476
 4260SOL    HW124296   1.192   4.505  17.451
 4260SOL    HW224297   1.075   4.453  17.552
 4261SOL     OW24298   1.603   4.171  17.496
 4261SOL    HW124299   1.529   4.217  17.446
 4261SOL    HW224300   1.654   4.239  17.549
 4262SOL     OW24301   1.689   4.646  17.371
 4262SOL    HW124302   1.784   4.617  17.379
 4262SOL    HW224303   1.681   4.711  17.296
 4263SOL     OW24304   1.281   4.069  17.703
 4263SOL    HW124305   1.195   4.019  17.690
 4263SOL    HW224306   1.343   4.015  17.759
 4264SOL     OW24307   0.865   4.072  16.954
 4264SOL    HW124308   0.924   4.135  16.905
 4264SOL    HW224309   0.884   3.978  16.925
 4265SOL     OW24310   1.458   4.459  17.487
 4265SOL    HW124311   1.453   4.394  17.562
 4265SOL    HW224312   1.538   4.518  17.500
 4266SOL     OW24313   0.382   4.424  17.239
 4266SOL    HW124314   0.427   4.334  17.236
 4266SOL    HW224315   0.288   4.413  17.272
 4267SOL     OW24316   0.922   4.227  17.658
 4267SOL    HW124317   0.897   4.218  17.562
 4267SOL    HW224318   0.970   4.145  17.689
 4268SOL     OW24319   1.582   4.363  17.231
 4268SOL    HW124320   1.551   4.424  17.304
 4268SOL    HW224321   1.632   4.415  17.162
 4269SOL     OW24322   1.209   4.249  17.034
 4269SOL    HW124323   1.222   4.165  17.088
 4269SOL    HW224324   1.180   4.323  17.094
 4270SOL     OW24325   1.622   4.091  17.133
 4270SOL    HW124326   1.624   4.015  17.197
 4270SOL    HW224327   1.574   4.168  17.173
 4271SOL     OW24328   1.160   3.931  18.236
 4271SOL    HW124329   1.160   3.995  18.313
 4271SOL    HW224330   1.188   3.979  18.153
 4272SOL     OW24331   0.040   4.268  17.873
 4272SOL    HW124332   0.125   4.235  17.832
 4272SOL    HW224333   0.053   4.283  17.971
 4273SOL     OW24334   1.657   4.328  17.965
 4273SOL    HW124335   1.619   4.259  18.027
 4273SOL    HW224336   1.739   4.292  17.921
 4274SOL     OW24337   1.726   3.859  17.282
 4274SOL    HW124338   1.799   3.842  17.215
 4274SOL    HW224339   1.695   3.772  17.320
 4275SOL     OW24340   1.841   3.899  17.722
 4275SOL    HW124341   1.880   3.814  17.686
 4275SOL    HW224342   1.743   3.901  17.703
 4276SOL     OW24343   0.263   4.050  17.479
 4276SOL    HW124344   0.184   4.101  17.445
 4276SOL    HW224345   0.254   4.035  17.577
 4277SOL     OW24346   1.709   4.109  18.140
 4277SOL    HW124347   1.782   4.178  18.144
 4277SOL    HW224348   1.737   4.034  18.081
 4278SOL     OW24349   0.072   3.890  17.077
 4278SOL    HW124350   0.055   3.973  17.023
 4278SOL    HW224351   0.162   3.853  17.055
 4279SOL     OW24352   1.225   4.049  17.208
 4279SOL    HW124353   1.290   3.975  17.197
 4279SOL    HW224354   1.245   4.099  17.292
 4280SOL     OW24355   1.824   3.916  17.986
 4280SOL    HW124356   1.820   3.826  18.030
 4280SOL    HW224357   1.827   3.905  17.887
 4281SOL     OW24358   1.424   3.938  17.871
 4281SOL    HW124359   1.476   3.873  17.926
 4281SOL    HW224360   1.375   4.001  17.932
 4282SOL     OW24361   1.300   4.177  17.450
 4282SOL    HW124362   1.241   4.257  17.454
 4282SOL    HW224363   1.315   4.142  17.543
 4283SOL     OW24364   1.593   3.945  17.641
 4283SOL    HW124365   1.509   3.944  17.695
 4283SOL    HW224366   1.595   4.028  17.585
 4284SOL     OW24367   2.092   0.628   0.113
 4284SOL    HW124368   1.999   0.626   0.150
 4284SOL    HW224369   2.093   0.589   0.021
 4285SOL     OW24370   1.881   0.368   0.647
 4285SOL    HW124371   1.799   0.411   0.686
 4285SOL    HW224372   1.853   0.295   0.584
 4286SOL     OW24373   2.997   0.703   0.717
 4286SOL    HW124374   3.054   0.781   0.692
 4286SOL    HW224375   2.937   0.729   0.793
 4287SOL     OW24376   2.712   0.798   1.823
 4287SOL    HW124377   2.708   0.874   1.888
 4287SOL    HW224378   2.734   0.834   1.732
 4288SOL     OW24379   2.548   1.161   1.803
 4288SOL    HW124380   2.608   1.240   1.817
 4288SOL    HW224381   2.462   1.192   1.762
 4289SOL     OW24382   2.197   1.435   1.061
 4289SOL    HW124383   2.119   1.404   1.008
 4289SOL    HW224384   2.255   1.493   1.004
 4290SOL     OW24385   2.989   1.341   1.690
 4290SOL    HW124386   3.036   1.341   1.778
 4290SOL    HW224387   2.941   1.254   1.679
 4291SOL     OW24388   2.092   1.434   0.538
 4291SOL    HW124389   2.066   1.530   0.538
 4291SOL    HW224390   2.021   1.380   0.583
 4292SOL     OW24391   2.468   0.964   0.123
 4292SOL    HW124392   2.475   1.048   0.069
 4292SOL    HW224393   2.514   0.977   0.211
 4293SOL     OW24394   3.456   0.114   1.480
 4293SOL    HW124395   3.438   0.181   1.408
 4293SOL    HW224396   3.453   0.160   1.569
 4294SOL     OW24397   3.704   1.767   0.359
 4294SOL    HW124398   3.758   1.738   0.439
 4294SOL    HW224399   3.734   1.857   0.330
 4295SOL     OW24400   3.551   0.922   0.612
 4295SOL    HW124401   3.646   0.893   0.620
 4295SOL    HW224402   3.543   0.987   0.537
 4296SOL     OW24403   1.975   0.737   1.597
 4296SOL    HW124404   2.063   0.724   1.642
 4296SOL    HW224405   1.962   0.834   1.575
 4297SOL     OW24406   3.155   1.228   1.423
 4297SOL    HW124407   3.192   1.155   1.365
 4297SOL    HW224408   3.207   1.233   1.508
 4298SOL     OW24409   2.059   0.976   1.264
 4298SOL    HW124410   2.148   0.931   1.250
 4298SOL    HW224411   1.986   0.911   1.245
 4299SOL     OW24412   2.179   0.251   1.801
 4299SOL    HW124413   2.250   0.322   1.807
 4299SOL    HW224414   2.091   0.290   1.829
 4300SOL     OW24415   3.328   1.417   0.953
 4300SOL    HW124416   3.269   1.423   1.033
 4300SOL    HW224417   3.313   1.329   0.907
 4301SOL     OW24418   3.256   0.469   1.674
 4301SOL    HW124419   3.236   0.512   1.762
 4301SOL    HW224420   3.334   0.407   1.683
 4302SOL     OW24421   2.727   0.348   0.195
 4302SOL    HW124422   2.786   0.411   0.146
 4302SOL    HW224423   2.746   0.254   0.166
 4303SOL     OW24424   3.581   0.585   1.831
 4303SOL    HW124425   3.555   0.674   1.795
 4303SOL    HW224426   3.579   0.517   1.758
 4304SOL     OW24427   3.089   1.550   1.506
 4304SOL    HW124428   3.095   1.473   1.570
 4304SOL    HW224429   3.037   1.524   1.426
 4305SOL     OW24430   3.320   0.735   0.728
 4305SOL    HW124431   3.315   0.670   0.803
 4305SOL    HW224432   3.400   0.794   0.741
 4306SOL     OW24433   2.323   1.266   1.727
 4306SOL    HW124434   2.273   1.267   1.641
 4306SOL    HW224435   2.260   1.248   1.803
 4307SOL     OW24436   2.973   1.776   0.237
 4307SOL    HW124437   2.913   1.714   0.287
 4307SOL    HW224438   3.004   1.732   0.152
 4308SOL     OW24439   2.064   0.285   1.498
 4308SOL    HW124440   1.984   0.345   1.485
 4308SOL    HW224441   2.054   0.236   1.584
 4309SOL     OW24442   3.262   0.107   0.426
 4309SOL    HW124443   3.238   0.070   0.336
 4309SOL    HW224444   3.361   0.123   0.430
 4310SOL     OW24445   3.409   0.222   1.729
 4310SOL    HW124446   3.404   0.259   1.821
 4310SOL    HW224447   3.337   0.153   1.717
 4311SOL     OW24448   2.476   0.122   0.117
 4311SOL    HW124449   2.574   0.100   0.124
 4311SOL    HW224450   2.445   0.105   0.024
 4312SOL     OW24451   2.750   1.514   1.195
 4312SOL    HW124452   2.727   1.489   1.101
 4312SOL    HW224453   2.811   1.445   1.234
 4313SOL     OW24454   3.213   0.590   1.433
 4313SOL    HW124455   3.241   0.547   1.518
 4313SOL    HW224456   3.238   0.686   1.434
 4314SOL     OW24457   2.665   1.402   0.924
 4314SOL    HW124458   2.755   1.416   0.882
 4314SOL    HW224459   2.594   1.404   0.853
 4315SOL     OW24460   2.784   0.503   0.899
 4315SOL    HW124461   2.759   0.494   0.803
 4315SOL    HW224462   2.832   0.421   0.930
 4316SOL     OW24463   2.159   0.035   0.171
 4316SOL    HW124464   2.208   0.119   0.150
 4316SOL    HW224465   2.221  -0.030   0.216
 4317SOL     OW24466   2.321   1.152   0.741
 4317SOL    HW124467   2.250   1.125   0.806
 4317SOL    HW224468   2.295   1.124   0.648
 4318SOL     OW24469   1.940   0.556   1.386
 4318SOL    HW124470   2.032   0.555   1.345
 4318SOL    HW224471   1.934   0.630   1.453
 4319SOL     OW24472   3.252   0.575   0.078
 4319SOL    HW124473   3.198   0.554   0.159
 4319SOL    HW224474   3.343   0.534   0.087
 4320SOL     OW24475   2.389   0.256   0.328
 4320SOL    HW124476   2.416   0.197   0.253
 4320SOL    HW224477   2.389   0.351   0.297
 4321SOL     OW24478   3.616   1.223   1.588
 4321SOL    HW124479   3.707   1.184   1.575
 4321SOL    HW224480   3.624   1.319   1.612
 4322SOL     OW24481   2.926   1.347   1.340
 4322SOL    HW124482   2.846   1.324   1.395
 4322SOL    HW224483   3.009   1.321   1.389
 4323SOL     OW24484   2.973   1.195   1.100
 4323SOL    HW124485   2.933   1.239   1.181
 4323SOL    HW224486   2.932   1.232   1.017
 4324SOL     OW24487   2.842   1.116   1.719
 4324SOL    HW124488   2.743   1.122   1.729
 4324SOL    HW224489   2.865   1.036   1.663
 4325SOL     OW24490   2.567   1.050   0.368
 4325SOL    HW124491   2.553   1.057   0.467
 4325SOL    HW224492   2.651   0.999   0.350
 4326SOL     OW24493   2.428   0.537   0.865
 4326SOL    HW124494   2.440   0.603   0.791
 4326SOL    HW224495   2.474   0.571   0.948
 4327SOL     OW24496   3.134   1.445   1.142
 4327SOL    HW124497   3.181   1.458   1.229
 4327SOL    HW224498   3.068   1.371   1.151
 4328SOL     OW24499   2.216   1.510   1.329
 4328SOL    HW124500   2.195   1.466   1.242
 4328SOL    HW224501   2.313   1.536   1.332
 4329SOL     OW24502   3.449   0.779   1.670
 4329SOL    HW124503   3.357   0.817   1.665
 4329SOL    HW224504   3.509   0.826   1.605
 4330SOL     OW24505   2.875   0.105   1.770
 4330SOL    HW124506   2.881   0.190   1.718
 4330SOL    HW224507   2.907   0.029   1.713
 4331SOL     OW24508   2.366   0.050   1.740
 4331SOL    HW124509   2.324  -0.007   1.670
 4331SOL    HW224510   2.300   0.119   1.772
 4332SOL     OW24511   3.071   0.525   0.275
 4332SOL    HW124512   3.084   0.441   0.329
 4332SOL    HW224513   3.042   0.599   0.335
 4333SOL     OW24514   2.594   0.634   1.064
 4333SOL    HW124515   2.653   0.608   0.988
 4333SOL    HW224516   2.566   0.730   1.053
 4334SOL     OW24517   3.590   0.935   1.854
 4334SOL    HW124518   3.544   0.928   1.765
 4334SOL    HW224519   3.528   0.979   1.920
 4335SOL     OW24520   2.169   0.063   0.618
 4335SOL    HW124521   2.158   0.157   0.651
 4335SOL    HW224522   2.164   0.000   0.695
 4336SOL     OW24523   3.484   0.367   0.374
 4336SOL    HW124524   3.486   0.291   0.438
 4336SOL    HW224525   3.436   0.444   0.414
 4337SOL     OW24526   2.842   1.573   1.700
 4337SOL    HW124527   2.822   1.617   1.612
 4337SOL    HW224528   2.881   1.482   1.684
 4338SOL     OW24529   2.212   0.898   1.804
 4338SOL    HW124530   2.288   0.942   1.852
 4338SOL    HW224531   2.247   0.851   1.722
 4339SOL     OW24532   3.165   0.838   0.042
 4339SOL    HW124533   3.199   0.745   0.057
 4339SOL    HW224534   3.183   0.865  -0.053
 4340SOL     OW24535   2.930   1.333   0.849
 4340SOL    HW124536   2.937   1.249   0.794
 4340SOL    HW224537   2.992   1.402   0.813
 4341SOL     OW24538   2.181   0.810   0.949
 4341SOL    HW124539   2.274   0.846   0.954
 4341SOL    HW224540   2.175   0.725   1.001
 4342SOL     OW24541   2.201   0.509   1.006
 4342SOL    HW124542   2.149   0.426   0.989
 4342SOL    HW224543   2.278   0.514   0.942
 4343SOL     OW24544   2.366   1.568   0.910
 4343SOL    HW124545   2.432   1.642   0.919
 4343SOL    HW224546   2.410   1.489   0.868
 4344SOL     OW24547   2.051   0.520   1.722
 4344SOL    HW124548   2.110   0.480   1.652
 4344SOL    HW224549   1.993   0.591   1.681
 4345SOL     OW24550   3.231   0.950   1.660
 4345SOL    HW124551   3.270   1.039   1.680
 4345SOL    HW224552   3.241   0.930   1.563
 4346SOL     OW24553   2.114   1.564   1.744
 4346SOL    HW124554   2.084   1.621   1.820
 4346SOL    HW224555   2.107   1.467   1.770
 4347SOL     OW24556   3.209   1.059   1.234
 4347SOL    HW124557   3.233   0.996   1.160
 4347SOL    HW224558   3.119   1.099   1.216
 4348SOL     OW24559   3.164   0.855   0.309
 4348SOL    HW124560   3.078   0.824   0.351
 4348SOL    HW224561   3.160   0.841   0.210
 4349SOL     OW24562   2.550   1.662   1.716
 4349SOL    HW124563   2.494   1.743   1.725
 4349SOL    HW224564   2.602   1.666   1.630
 4350SOL     OW24565   2.765   0.086   0.133
 4350SOL    HW124566   2.816   0.087   0.047
 4350SOL    HW224567   2.821   0.044   0.204
 4351SOL     OW24568   3.142   0.927   0.672
 4351SOL    HW124569   3.202   0.846   0.674
 4351SOL    HW224570   3.182   0.996   0.612
 4352SOL     OW24571   2.692   1.273   1.422
 4352SOL    HW124572   2.687   1.306   1.517
 4352SOL    HW224573   2.606   1.292   1.376
 4353SOL     OW24574   2.125   0.326   0.720
 4353SOL    HW124575   2.046   0.377   0.686
 4353SOL    HW224576   2.116   0.311   0.818
 4354SOL     OW24577   3.056   1.612   0.031
 4354SOL    HW124578   3.062   1.519   0.068
 4354SOL    HW224579   2.997   1.612  -0.049
 4355SOL     OW24580   3.476   1.292   1.289
 4355SOL    HW124581   3.536   1.295   1.369
 4355SOL    HW224582   3.401   1.356   1.302
 4356SOL     OW24583   2.452   1.487   0.491
 4356SOL    HW124584   2.494   1.429   0.421
 4356SOL    HW224585   2.408   1.566   0.447
 4357SOL     OW24586   1.967   1.013   1.726
 4357SOL    HW124587   1.890   0.980   1.780
 4357SOL    HW224588   2.052   0.983   1.768
 4358SOL     OW24589   3.302   0.856   1.398
 4358SOL    HW124590   3.245   0.908   1.335
 4358SOL    HW224591   3.398   0.868   1.374
 4359SOL     OW24592   3.355   1.767   0.959
 4359SOL    HW124593   3.388   1.831   0.890
 4359SOL    HW224594   3.421   1.761   1.034
 4360SOL     OW24595   3.312   1.220   1.633
 4360SOL    HW124596   3.303   1.210   1.732
 4360SOL    HW224597   3.408   1.213   1.607
 4361SOL     OW24598   3.087   0.325   0.449
 4361SOL    HW124599   3.152   0.251   0.438
 4361SOL    HW224600   3.107   0.375   0.533
 4362SOL     OW24601   2.456   0.745   0.652
 4362SOL    HW124602   2.506   0.830   0.633
 4362SOL    HW224603   2.368   0.747   0.604
 4363SOL     OW24604   3.639   0.342   1.642
 4363SOL    HW124605   3.622   0.373   1.548
 4363SOL    HW224606   3.555   0.305   1.680
 4364SOL     OW24607   3.592   0.934   1.517
 4364SOL    HW124608   3.630   1.025   1.532
 4364SOL    HW224609   3.584   0.917   1.418
 4365SOL     OW24610   2.523   1.790   0.953
 4365SOL    HW124611   2.477   1.878   0.940
 4365SOL    HW224612   2.622   1.802   0.946
 4366SOL     OW24613   2.083   1.314   1.844
 4366SOL    HW124614   2.018   1.241   1.823
 4366SOL    HW224615   2.087   1.328   1.942
 4367SOL     OW24616   2.534   1.391   1.624
 4367SOL    HW124617   2.456   1.341   1.662
 4367SOL    HW224618   2.531   1.486   1.655
 4368SOL     OW24619   3.686   0.192   1.227
 4368SOL    HW124620   3.682   0.102   1.271
 4368SOL    HW224621   3.689   0.181   1.128
 4369SOL     OW24622   2.290   0.424   0.520
 4369SOL    HW124623   2.320   0.352   0.458
 4369SOL    HW224624   2.251   0.384   0.603
 4370SOL     OW24625   2.480   1.567   1.284
 4370SOL    HW124626   2.475   1.649   1.341
 4370SOL    HW224627   2.569   1.564   1.239
 4371SOL     OW24628   3.214   0.052   0.168
 4371SOL    HW124629   3.249   0.011   0.084
 4371SOL    HW224630   3.124   0.014   0.188
 4372SOL     OW24631   2.092   0.628   1.975
 4372SOL    HW124632   1.999   0.626   2.012
 4372SOL    HW224633   2.093   0.589   1.883
 4373SOL     OW24634   2.087   0.275   2.858
 4373SOL    HW124635   2.122   0.258   2.950
 4373SOL    HW224636   1.999   0.230   2.846
 4374SOL     OW24637   1.881   0.368   2.509
 4374SOL    HW124638   1.799   0.411   2.548
 4374SOL    HW224639   1.853   0.295   2.446
 4375SOL     OW24640   2.431   1.275   3.027
 4375SOL    HW124641   2.338   1.268   2.990
 4375SOL    HW224642   2.442   1.364   3.071
 4376SOL     OW24643   3.417   1.511   2.565
 4376SOL    HW124644   3.360   1.495   2.646
 4376SOL    HW224645   3.358   1.521   2.485
 4377SOL     OW24646   2.997   0.703   2.579
 4377SOL    HW124647   3.054   0.781   2.554
 4377SOL    HW224648   2.937   0.729   2.655
 4378SOL     OW24649   3.617   0.607   2.093
 4378SOL    HW124650   3.605   0.594   1.994
 4378SOL    HW224651   3.587   0.526   2.142
 4379SOL     OW24652   2.630   1.144   2.885
 4379SOL    HW124653   2.552   1.161   2.945
 4379SOL    HW224654   2.664   1.231   2.849
 4380SOL     OW24655   2.712   0.798   3.685
 4380SOL    HW124656   2.708   0.874   3.750
 4380SOL    HW224657   2.734   0.834   3.594
 4381SOL     OW24658   2.547   1.012   2.527
 4381SOL    HW124659   2.616   0.996   2.597
 4381SOL    HW224660   2.474   1.069   2.565
 4382SOL     OW24661   2.548   1.161   3.665
 4382SOL    HW124662   2.608   1.240   3.679
 4382SOL    HW224663   2.462   1.192   3.624
 4383SOL     OW24664   2.197   1.435   2.923
 4383SOL    HW124665   2.119   1.404   2.870
 4383SOL    HW224666   2.255   1.493   2.866
 4384SOL     OW24667   3.322   1.505   3.201
 4384SOL    HW124668   3.346   1.599   3.227
 4384SOL    HW224669   3.306   1.451   3.283
 4385SOL     OW24670   2.300   0.392   3.361
 4385SOL    HW124671   2.382   0.336   3.370
 4385SOL    HW224672   2.219   0.334   3.365
 4386SOL     OW24673   3.465   0.447   2.599
 4386SOL    HW124674   3.391   0.493   2.549
 4386SOL    HW224675   3.516   0.515   2.652
 4387SOL     OW24676   2.093   1.713   2.345
 4387SOL    HW124677   2.127   1.790   2.399
 4387SOL    HW224678   2.137   1.713   2.255
 4388SOL     OW24679   2.989   1.341   3.552
 4388SOL    HW124680   3.036   1.341   3.640
 4388SOL    HW224681   2.941   1.254   3.541
 4389SOL     OW24682   2.092   1.434   2.400
 4389SOL    HW124683   2.066   1.530   2.400
 4389SOL    HW224684   2.021   1.380   2.445
 4390SOL     OW24685   2.102   1.091   2.748
 4390SOL    HW124686   2.116   1.007   2.800
 4390SOL    HW224687   2.047   1.155   2.803
 4391SOL     OW24688   2.482   1.786   3.301
 4391SOL    HW124689   2.390   1.769   3.336
 4391SOL    HW224690   2.510   1.878   3.327
 4392SOL     OW24691   2.468   0.964   1.985
 4392SOL    HW124692   2.475   1.048   1.931
 4392SOL    HW224693   2.514   0.977   2.073
 4393SOL     OW24694   3.456   0.114   3.342
 4393SOL    HW124695   3.438   0.181   3.270
 4393SOL    HW224696   3.453   0.160   3.431
 4394SOL     OW24697   1.984   0.643   2.425
 4394SOL    HW124698   1.939   0.555   2.442
 4394SOL    HW224699   1.983   0.697   2.509
 4395SOL     OW24700   3.704   1.767   2.221
 4395SOL    HW124701   3.758   1.738   2.301
 4395SOL    HW224702   3.734   1.857   2.192
 4396SOL     OW24703   3.551   0.922   2.474
 4396SOL    HW124704   3.646   0.893   2.482
 4396SOL    HW224705   3.543   0.987   2.399
 4397SOL     OW24706   3.503   1.108   2.294
 4397SOL    HW124707   3.589   1.110   2.242
 4397SOL    HW224708   3.517   1.155   2.382
 4398SOL     OW24709   1.975   0.737   3.459
 4398SOL    HW124710   2.063   0.724   3.504
 4398SOL    HW224711   1.962   0.834   3.437
 4399SOL     OW24712   2.475   1.365   2.588
 4399SOL    HW124713   2.426   1.278   2.597
 4399SOL    HW224714   2.452   1.408   2.501
 4400SOL     OW24715   3.155   1.228   3.285
 4400SOL    HW124716   3.192   1.155   3.227
 4400SOL    HW224717   3.207   1.233   3.370
 4401SOL     OW24718   2.671   0.004   2.364
 4401SOL    HW124719   2.711   0.095   2.355
 4401SOL    HW224720   2.571   0.012   2.370
 4402SOL     OW24721   2.059   0.976   3.126
 4402SOL    HW124722   2.148   0.931   3.112
 4402SOL    HW224723   1.986   0.911   3.107
 4403SOL     OW24724   3.387   0.999   2.052
 4403SOL    HW124725   3.324   0.923   2.065
 4403SOL    HW224726   3.435   1.017   2.138
 4404SOL     OW24727   3.049   1.792   3.478
 4404SOL    HW124728   3.073   1.852   3.402
 4404SOL    HW224729   3.056   1.697   3.448
 4405SOL     OW24730   2.179   0.251   3.663
 4405SOL    HW124731   2.250   0.322   3.669
 4405SOL    HW224732   2.091   0.290   3.691
 4406SOL     OW24733   3.328   1.417   2.815
 4406SOL    HW124734   3.269   1.423   2.895
 4406SOL    HW224735   3.313   1.329   2.769
 4407SOL     OW24736   3.529   1.714   2.434
 4407SOL    HW124737   3.488   1.691   2.346
 4407SOL    HW224738   3.511   1.640   2.499
 4408SOL     OW24739   2.460   0.729   2.132
 4408SOL    HW124740   2.484   0.798   2.064
 4408SOL    HW224741   2.382   0.762   2.186
 4409SOL     OW24742   3.143   0.345   2.806
 4409SOL    HW124743   3.057   0.295   2.793
 4409SOL    HW224744   3.205   0.291   2.862
 4410SOL     OW24745   3.438   1.662   2.169
 4410SOL    HW124746   3.527   1.708   2.172
 4410SOL    HW224747   3.417   1.638   2.074
 4411SOL     OW24748   2.669   0.605   3.327
 4411SOL    HW124749   2.622   0.602   3.416
 4411SOL    HW224750   2.618   0.550   3.261
 4412SOL     OW24751   3.256   0.469   3.536
 4412SOL    HW124752   3.236   0.512   3.624
 4412SOL    HW224753   3.334   0.407   3.545
 4413SOL     OW24754   2.835   0.890   3.434
 4413SOL    HW124755   2.881   0.806   3.405
 4413SOL    HW224756   2.779   0.924   3.359
 4414SOL     OW24757   2.853   0.410   3.104
 4414SOL    HW124758   2.776   0.444   3.158
 4414SOL    HW224759   2.819   0.359   3.025
 4415SOL     OW24760   2.903   0.701   2.291
 4415SOL    HW124761   2.929   0.697   2.387
 4415SOL    HW224762   2.818   0.650   2.277
 4416SOL     OW24763   1.938   0.811   2.651
 4416SOL    HW124764   2.037   0.799   2.660
 4416SOL    HW224765   1.914   0.906   2.672
 4417SOL     OW24766   1.992   1.821   3.433
 4417SOL    HW124767   1.982   1.806   3.532
 4417SOL    HW224768   1.906   1.857   3.397
 4418SOL     OW24769   2.727   0.348   2.057
 4418SOL    HW124770   2.786   0.411   2.008
 4418SOL    HW224771   2.746   0.254   2.028
 4419SOL     OW24772   3.581   0.585   3.693
 4419SOL    HW124773   3.555   0.674   3.657
 4419SOL    HW224774   3.579   0.517   3.620
 4420SOL     OW24775   3.224   1.144   2.407
 4420SOL    HW124776   3.307   1.115   2.359
 4420SOL    HW224777   3.175   1.211   2.351
 4421SOL     OW24778   2.412   0.196   2.747
 4421SOL    HW124779   2.407   0.191   2.847
 4421SOL    HW224780   2.414   0.292   2.718
 4422SOL     OW24781   2.870   1.456   2.339
 4422SOL    HW124782   2.824   1.528   2.287
 4422SOL    HW224783   2.866   1.476   2.437
 4423SOL     OW24784   2.213   1.801   2.715
 4423SOL    HW124785   2.263   1.715   2.721
 4423SOL    HW224786   2.278   1.878   2.712
 4424SOL     OW24787   3.657   1.066   2.735
 4424SOL    HW124788   3.595   1.051   2.659
 4424SOL    HW224789   3.605   1.077   2.820
 4425SOL     OW24790   3.089   1.550   3.368
 4425SOL    HW124791   3.095   1.473   3.432
 4425SOL    HW224792   3.037   1.524   3.288
 4426SOL     OW24793   2.183   0.943   2.104
 4426SOL    HW124794   2.265   0.982   2.062
 4426SOL    HW224795   2.156   0.861   2.055
 4427SOL     OW24796   3.320   0.735   2.590
 4427SOL    HW124797   3.315   0.670   2.665
 4427SOL    HW224798   3.400   0.794   2.603
 4428SOL     OW24799   2.323   1.266   3.589
 4428SOL    HW124800   2.273   1.267   3.503
 4428SOL    HW224801   2.260   1.248   3.665
 4429SOL     OW24802   2.973   1.776   2.099
 4429SOL    HW124803   2.913   1.714   2.149
 4429SOL    HW224804   3.004   1.732   2.014
 4430SOL     OW24805   2.064   0.285   3.360
 4430SOL    HW124806   1.984   0.345   3.347
 4430SOL    HW224807   2.054   0.236   3.446
 4431SOL     OW24808   3.494   1.377   1.943
 4431SOL    HW124809   3.462   1.471   1.933
 4431SOL    HW224810   3.418   1.314   1.931
 4432SOL     OW24811   2.326   1.743   2.185
 4432SOL    HW124812   2.359   1.782   2.271
 4432SOL    HW224813   2.402   1.736   2.120
 4433SOL     OW24814   3.262   0.107   2.288
 4433SOL    HW124815   3.238   0.070   2.198
 4433SOL    HW224816   3.361   0.123   2.292
 4434SOL     OW24817   2.111   1.785   3.103
 4434SOL    HW124818   2.168   1.720   3.153
 4434SOL    HW224819   2.095   1.752   3.010
 4435SOL     OW24820   2.802   1.698   2.766
 4435SOL    HW124821   2.882   1.641   2.787
 4435SOL    HW224822   2.753   1.658   2.689
 4436SOL     OW24823   2.244   0.700   2.342
 4436SOL    HW124824   2.289   0.610   2.339
 4436SOL    HW224825   2.150   0.689   2.375
 4437SOL     OW24826   3.409   0.222   3.591
 4437SOL    HW124827   3.404   0.259   3.683
 4437SOL    HW224828   3.337   0.153   3.579
 4438SOL     OW24829   2.476   0.122   1.979
 4438SOL    HW124830   2.574   0.100   1.986
 4438SOL    HW224831   2.445   0.105   1.886
 4439SOL     OW24832   2.643   0.264   3.611
 4439SOL    HW124833   2.710   0.203   3.654
 4439SOL    HW224834   2.570   0.283   3.676
 4440SOL     OW24835   2.750   1.514   3.057
 4440SOL    HW124836   2.727   1.489   2.963
 4440SOL    HW224837   2.811   1.445   3.096
 4441SOL     OW24838   3.213   0.590   3.295
 4441SOL    HW124839   3.241   0.547   3.380
 4441SOL    HW224840   3.238   0.686   3.296
 4442SOL     OW24841   2.665   1.402   2.786
 4442SOL    HW124842   2.755   1.416   2.744
 4442SOL    HW224843   2.594   1.404   2.715
 4443SOL     OW24844   2.784   0.503   2.761
 4443SOL    HW124845   2.759   0.494   2.665
 4443SOL    HW224846   2.832   0.421   2.792
 4444SOL     OW24847   2.401   0.064   2.374
 4444SOL    HW124848   2.320   0.065   2.432
 4444SOL    HW224849   2.404   0.147   2.319
 4445SOL     OW24850   3.296   1.188   1.903
 4445SOL    HW124851   3.328   1.112   1.960
 4445SOL    HW224852   3.204   1.215   1.933
 4446SOL     OW24853   2.159   0.035   2.033
 4446SOL    HW124854   2.208   0.119   2.012
 4446SOL    HW224855   2.221  -0.030   2.078
 4447SOL     OW24856   2.797   0.236   2.342
 4447SOL    HW124857   2.749   0.277   2.264
 4447SOL    HW224858   2.896   0.234   2.323
 4448SOL     OW24859   2.938   0.683   3.326
 4448SOL    HW124860   2.858   0.622   3.329
 4448SOL    HW224861   3.019   0.630   3.302
 4449SOL     OW24862   3.089   1.570   2.655
 4449SOL    HW124863   3.110   1.644   2.590
 4449SOL    HW224864   3.157   1.570   2.728
 4450SOL     OW24865   2.321   1.152   2.603
 4450SOL    HW124866   2.250   1.125   2.668
 4450SOL    HW224867   2.295   1.124   2.510
 4451SOL     OW24868   3.133   1.797   2.453
 4451SOL    HW124869   3.177   1.861   2.389
 4451SOL    HW224870   3.083   1.849   2.523
 4452SOL     OW24871   2.894   0.549   1.878
 4452SOL    HW124872   2.853   0.631   1.839
 4452SOL    HW224873   2.958   0.575   1.951
 4453SOL     OW24874   1.940   0.556   3.248
 4453SOL    HW124875   2.032   0.555   3.207
 4453SOL    HW224876   1.934   0.630   3.315
 4454SOL     OW24877   2.423   0.222   3.009
 4454SOL    HW124878   2.461   0.138   3.046
 4454SOL    HW224879   2.335   0.241   3.053
 4455SOL     OW24880   2.728   0.454   2.504
 4455SOL    HW124881   2.696   0.526   2.442
 4455SOL    HW224882   2.752   0.373   2.451
 4456SOL     OW24883   2.879   0.039   2.615
 4456SOL    HW124884   2.807   0.044   2.546
 4456SOL    HW224885   2.855  -0.030   2.684
 4457SOL     OW24886   3.291   1.173   2.729
 4457SOL    HW124887   3.236   1.089   2.722
 4457SOL    HW224888   3.317   1.202   2.637
 4458SOL     OW24889   3.328   0.590   2.854
 4458SOL    HW124890   3.298   0.495   2.861
 4458SOL    HW224891   3.401   0.606   2.920
 4459SOL     OW24892   3.719   0.833   2.239
 4459SOL    HW124893   3.761   0.769   2.303
 4459SOL    HW224894   3.681   0.782   2.161
 4460SOL     OW24895   2.350   1.385   2.036
 4460SOL    HW124896   2.263   1.370   2.083
 4460SOL    HW224897   2.333   1.411   1.941
 4461SOL     OW24898   3.526   1.280   2.519
 4461SOL    HW124899   3.625   1.288   2.533
 4461SOL    HW224900   3.481   1.364   2.550
 4462SOL     OW24901   3.252   0.575   1.940
 4462SOL    HW124902   3.198   0.554   2.021
 4462SOL    HW224903   3.343   0.534   1.949
 4463SOL     OW24904   2.389   0.256   2.190
 4463SOL    HW124905   2.416   0.197   2.115
 4463SOL    HW224906   2.389   0.351   2.159
 4464SOL     OW24907   3.616   1.223   3.450
 4464SOL    HW124908   3.707   1.184   3.437
 4464SOL    HW224909   3.624   1.319   3.474
 4465SOL     OW24910   2.926   1.347   3.202
 4465SOL    HW124911   2.846   1.324   3.257
 4465SOL    HW224912   3.009   1.321   3.251
 4466SOL     OW24913   3.454   1.629   3.487
 4466SOL    HW124914   3.481   1.663   3.397
 4466SOL    HW224915   3.533   1.591   3.533
 4467SOL     OW24916   2.973   1.195   2.962
 4467SOL    HW124917   2.933   1.239   3.043
 4467SOL    HW224918   2.932   1.232   2.879
 4468SOL     OW24919   3.500   1.099   2.941
 4468SOL    HW124920   3.505   1.180   3.000
 4468SOL    HW224921   3.414   1.101   2.890
 4469SOL     OW24922   2.777   0.089   3.264
 4469SOL    HW124923   2.802   0.069   3.169
 4469SOL    HW224924   2.849   0.145   3.306
 4470SOL     OW24925   2.842   1.116   3.581
 4470SOL    HW124926   2.743   1.122   3.591
 4470SOL    HW224927   2.865   1.036   3.525
 4471SOL     OW24928   2.567   1.050   2.230
 4471SOL    HW124929   2.553   1.057   2.329
 4471SOL    HW224930   2.651   0.999   2.212
 4472SOL     OW24931   2.272   0.813   3.113
 4472SOL    HW124932   2.358   0.825   3.163
 4472SOL    HW224933   2.230   0.726   3.140
 4473SOL     OW24934   3.136   0.386   3.124
 4473SOL    HW124935   3.157   0.460   3.188
 4473SOL    HW224936   3.047   0.403   3.081
 4474SOL     OW24937   1.926   1.564   3.193
 4474SOL    HW124938   1.880   1.646   3.159
 4474SOL    HW224939   2.024   1.583   3.202
 4475SOL     OW24940   2.229   1.100   2.363
 4475SOL    HW124941   2.222   1.183   2.307
 4475SOL    HW224942   2.233   1.020   2.303
 4476SOL     OW24943   2.428   0.537   2.727
 4476SOL    HW124944   2.440   0.603   2.653
 4476SOL    HW224945   2.474   0.571   2.810
 4477SOL     OW24946   3.114   1.348   2.250
 4477SOL    HW124947   3.164   1.425   2.290
 4477SOL    HW224948   3.019   1.350   2.282
 4478SOL     OW24949   3.134   1.445   3.004
 4478SOL    HW124950   3.181   1.458   3.091
 4478SOL    HW224951   3.068   1.371   3.013
 4479SOL     OW24952   3.444   0.639   2.334
 4479SOL    HW124953   3.413   0.700   2.407
 4479SOL    HW224954   3.494   0.691   2.265
 4480SOL     OW24955   2.216   1.510   3.191
 4480SOL    HW124956   2.195   1.466   3.104
 4480SOL    HW224957   2.313   1.536   3.194
 4481SOL     OW24958   2.264   0.751   3.460
 4481SOL    HW124959   2.332   0.806   3.413
 4481SOL    HW224960   2.304   0.663   3.487
 4482SOL     OW24961   3.449   0.779   3.532
 4482SOL    HW124962   3.357   0.817   3.527
 4482SOL    HW224963   3.509   0.826   3.467
 4483SOL     OW24964   2.875   0.105   3.632
 4483SOL    HW124965   2.881   0.190   3.580
 4483SOL    HW224966   2.907   0.029   3.575
 4484SOL     OW24967   2.366   0.050   3.602
 4484SOL    HW124968   2.324  -0.007   3.532
 4484SOL    HW224969   2.300   0.119   3.634
 4485SOL     OW24970   2.435   0.870   2.891
 4485SOL    HW124971   2.479   0.959   2.882
 4485SOL    HW224972   2.372   0.870   2.968
 4486SOL     OW24973   3.222   0.862   2.907
 4486SOL    HW124974   3.147   0.862   2.841
 4486SOL    HW224975   3.259   0.770   2.916
 4487SOL     OW24976   3.071   0.525   2.137
 4487SOL    HW124977   3.084   0.441   2.191
 4487SOL    HW224978   3.042   0.599   2.197
 4488SOL     OW24979   2.169   0.213   3.093
 4488SOL    HW124980   2.146   0.250   3.183
 4488SOL    HW224981   2.139   0.118   3.087
 4489SOL     OW24982   1.899   1.310   3.144
 4489SOL    HW124983   1.952   1.261   3.212
 4489SOL    HW224984   1.921   1.408   3.149
 4490SOL     OW24985   2.594   0.634   2.926
 4490SOL    HW124986   2.653   0.608   2.850
 4490SOL    HW224987   2.566   0.730   2.915
 4491SOL     OW24988   3.590   0.935   3.716
 4491SOL    HW124989   3.544   0.928   3.627
 4491SOL    HW224990   3.528   0.979   3.782
 4492SOL     OW24991   2.169   0.063   2.480
 4492SOL    HW124992   2.158   0.157   2.513
 4492SOL    HW224993   2.164   0.000   2.557
 4493SOL     OW24994   3.484   0.367   2.236
 4493SOL    HW124995   3.486   0.291   2.300
 4493SOL    HW224996   3.436   0.444   2.276
 4494SOL     OW24997   2.885   0.766   2.828
 4494SOL    HW124998   2.900   0.787   2.924
 4494SOL    HW224999   2.855   0.671   2.819
 4495SOL     OW25000   2.842   1.573   3.562
 4495SOL    HW125001   2.822   1.617   3.474
 4495SOL    HW225002   2.881   1.482   3.546
 4496SOL     OW25003   3.721   1.518   3.467
 4496SOL    HW125004   3.735   1.545   3.372
 4496SOL    HW225005   3.804   1.540   3.520
 4497SOL     OW25006   2.212   0.898   3.666
 4497SOL    HW125007   2.288   0.942   3.714
 4497SOL    HW225008   2.247   0.851   3.584
 4498SOL     OW25009   3.402   0.274   1.987
 4498SOL    HW125010   3.341   0.199   2.010
 4498SOL    HW225011   3.424   0.326   2.070
 4499SOL     OW25012   3.165   0.838   1.904
 4499SOL    HW125013   3.199   0.745   1.919
 4499SOL    HW225014   3.183   0.865   1.809
 4500SOL     OW25015   2.930   1.333   2.711
 4500SOL    HW125016   2.937   1.249   2.656
 4500SOL    HW225017   2.992   1.402   2.675
 4501SOL     OW25018   2.181   0.810   2.811
 4501SOL    HW125019   2.274   0.846   2.816
 4501SOL    HW225020   2.175   0.725   2.863
 4502SOL     OW25021   2.201   0.509   2.868
 4502SOL    HW125022   2.149   0.426   2.851
 4502SOL    HW225023   2.278   0.514   2.804
 4503SOL     OW25024   3.000   0.380   3.540
 4503SOL    HW125025   2.955   0.443   3.604
 4503SOL    HW225026   3.093   0.411   3.523
 4504SOL     OW25027   3.022   0.207   3.339
 4504SOL    HW125028   3.022   0.271   3.416
 4504SOL    HW225029   3.050   0.255   3.256
 4505SOL     OW25030   1.870   1.326   2.062
 4505SOL    HW125031   1.777   1.347   2.031
 4505SOL    HW225032   1.880   1.227   2.075
 4506SOL     OW25033   1.950   1.801   2.789
 4506SOL    HW125034   1.908   1.715   2.762
 4506SOL    HW225035   2.044   1.804   2.755
 4507SOL     OW25036   2.366   1.568   2.772
 4507SOL    HW125037   2.432   1.642   2.781
 4507SOL    HW225038   2.410   1.489   2.730
 4508SOL     OW25039   2.864   0.796   3.100
 4508SOL    HW125040   2.905   0.764   3.186
 4508SOL    HW225041   2.768   0.769   3.097
 4509SOL     OW25042   1.902   0.544   2.976
 4509SOL    HW125043   1.987   0.511   2.935
 4509SOL    HW225044   1.915   0.559   3.074
 4510SOL     OW25045   2.051   0.520   3.584
 4510SOL    HW125046   2.110   0.480   3.514
 4510SOL    HW225047   1.993   0.591   3.543
 4511SOL     OW25048   3.231   0.950   3.522
 4511SOL    HW125049   3.270   1.039   3.542
 4511SOL    HW225050   3.241   0.930   3.425
 4512SOL     OW25051   2.677   0.572   2.187
 4512SOL    HW125052   2.684   0.483   2.141
 4512SOL    HW225053   2.583   0.606   2.179
 4513SOL     OW25054   3.519   0.604   3.068
 4513SOL    HW125055   3.481   0.535   3.130
 4513SOL    HW225056   3.601   0.568   3.024
 4514SOL     OW25057   2.114   1.564   3.606
 4514SOL    HW125058   2.084   1.621   3.682
 4514SOL    HW225059   2.107   1.467   3.632
 4515SOL     OW25060   2.533   0.464   3.131
 4515SOL    HW125061   2.499   0.375   3.101
 4515SOL    HW225062   2.559   0.518   3.051
 4516SOL     OW25063   2.792   1.678   3.327
 4516SOL    HW125064   2.768   1.660   3.232
 4516SOL    HW225065   2.822   1.772   3.337
 4517SOL     OW25066   2.335   0.500   2.053
 4517SOL    HW125067   2.396   0.580   2.057
 4517SOL    HW225068   2.240   0.531   2.060
 4518SOL     OW25069   2.021   1.137   3.328
 4518SOL    HW125070   2.043   1.076   3.404
 4518SOL    HW225071   2.031   1.088   3.242
 4519SOL     OW25072   3.209   1.059   3.096
 4519SOL    HW125073   3.233   0.996   3.022
 4519SOL    HW225074   3.119   1.099   3.078
 4520SOL     OW25075   3.164   0.855   2.171
 4520SOL    HW125076   3.078   0.824   2.213
 4520SOL    HW225077   3.160   0.841   2.072
 4521SOL     OW25078   3.621   1.747   3.016
 4521SOL    HW125079   3.682   1.777   2.943
 4521SOL    HW225080   3.583   1.658   2.994
 4522SOL     OW25081   3.114   1.731   2.990
 4522SOL    HW125082   3.198   1.736   2.936
 4522SOL    HW225083   3.091   1.635   3.008
 4523SOL     OW25084   1.945   1.258   2.884
 4523SOL    HW125085   1.940   1.257   2.984
 4523SOL    HW225086   1.862   1.217   2.846
 4524SOL     OW25087   2.550   1.662   3.578
 4524SOL    HW125088   2.494   1.743   3.587
 4524SOL    HW225089   2.602   1.666   3.492
 4525SOL     OW25090   3.588   0.135   2.385
 4525SOL    HW125091   3.661   0.118   2.318
 4525SOL    HW225092   3.557   0.048   2.423
 4526SOL     OW25093   3.250   1.573   2.339
 4526SOL    HW125094   3.317   1.585   2.265
 4526SOL    HW225095   3.210   1.662   2.362
 4527SOL     OW25096   1.992   1.794   3.713
 4527SOL    HW125097   1.951   1.720   3.766
 4527SOL    HW225098   2.056   1.845   3.771
 4528SOL     OW25099   3.142   0.927   2.534
 4528SOL    HW125100   3.202   0.846   2.536
 4528SOL    HW225101   3.182   0.996   2.474
 4529SOL     OW25102   2.692   1.273   3.284
 4529SOL    HW125103   2.687   1.306   3.379
 4529SOL    HW225104   2.606   1.292   3.238
 4530SOL     OW25105   2.534   1.616   2.016
 4530SOL    HW125106   2.543   1.626   1.917
 4530SOL    HW225107   2.494   1.527   2.037
 4531SOL     OW25108   3.512   1.720   3.256
 4531SOL    HW125109   3.565   1.730   3.172
 4531SOL    HW225110   3.485   1.810   3.290
 4532SOL     OW25111   3.703   0.175   2.825
 4532SOL    HW125112   3.742   0.090   2.789
 4532SOL    HW225113   3.605   0.177   2.806
 4533SOL     OW25114   2.125   0.326   2.582
 4533SOL    HW125115   2.046   0.377   2.548
 4533SOL    HW225116   2.116   0.311   2.680
 4534SOL     OW25117   3.056   1.612   1.893
 4534SOL    HW125118   3.062   1.519   1.930
 4534SOL    HW225119   2.997   1.612   1.813
 4535SOL     OW25120   2.684   1.002   3.234
 4535SOL    HW125121   2.724   1.001   3.142
 4535SOL    HW225122   2.694   1.094   3.274
 4536SOL     OW25123   2.778   0.910   2.153
 4536SOL    HW125124   2.841   0.948   2.085
 4536SOL    HW225125   2.818   0.827   2.192
 4537SOL     OW25126   3.366   1.607   1.906
 4537SOL    HW125127   3.274   1.644   1.913
 4537SOL    HW225128   3.404   1.627   1.816
 4538SOL     OW25129   2.234   1.288   3.352
 4538SOL    HW125130   2.221   1.381   3.318
 4538SOL    HW225131   2.150   1.236   3.339
 4539SOL     OW25132   3.476   1.292   3.151
 4539SOL    HW125133   3.536   1.295   3.231
 4539SOL    HW225134   3.401   1.356   3.164
 4540SOL     OW25135   2.901   1.098   2.558
 4540SOL    HW125136   2.831   1.051   2.612
 4540SOL    HW225137   2.960   1.030   2.515
 4541SOL     OW25138   2.876   0.236   2.833
 4541SOL    HW125139   2.868   0.200   2.740
 4541SOL    HW225140   2.874   0.160   2.898
 4542SOL     OW25141   2.452   1.487   2.353
 4542SOL    HW125142   2.494   1.429   2.283
 4542SOL    HW225143   2.408   1.566   2.309
 4543SOL     OW25144   3.571   0.385   3.243
 4543SOL    HW125145   3.644   0.454   3.247
 4543SOL    HW225146   3.599   0.310   3.184
 4544SOL     OW25147   2.117   1.348   2.152
 4544SOL    HW125148   2.021   1.349   2.125
 4544SOL    HW225149   2.129   1.401   2.236
 4545SOL     OW25150   1.967   1.013   3.588
 4545SOL    HW125151   1.890   0.980   3.642
 4545SOL    HW225152   2.052   0.983   3.630
 4546SOL     OW25153   2.534   0.203   3.351
 4546SOL    HW125154   2.624   0.187   3.311
 4546SOL    HW225155   2.542   0.208   3.450
 4547SOL     OW25156   1.937   0.345   1.895
 4547SOL    HW125157   1.845   0.317   1.866
 4547SOL    HW225158   1.968   0.422   1.839
 4548SOL     OW25159   3.302   0.856   3.260
 4548SOL    HW125160   3.245   0.908   3.197
 4548SOL    HW225161   3.398   0.868   3.236
 4549SOL     OW25162   1.934   0.166   2.180
 4549SOL    HW125163   1.917   0.249   2.126
 4549SOL    HW225164   2.024   0.129   2.158
 4550SOL     OW25165   3.045   1.335   1.981
 4550SOL    HW125166   2.946   1.324   1.983
 4550SOL    HW225167   3.079   1.350   2.074
 4551SOL     OW25168   2.475   0.842   3.293
 4551SOL    HW125169   2.531   0.923   3.276
 4551SOL    HW225170   2.534   0.762   3.296
 4552SOL     OW25171   3.355   1.767   2.821
 4552SOL    HW125172   3.388   1.831   2.752
 4552SOL    HW225173   3.421   1.761   2.896
 4553SOL     OW25174   2.578   0.565   3.570
 4553SOL    HW125175   2.597   0.630   3.644
 4553SOL    HW225176   2.638   0.485   3.579
 4554SOL     OW25177   3.312   1.220   3.495
 4554SOL    HW125178   3.303   1.210   3.594
 4554SOL    HW225179   3.408   1.213   3.469
 4555SOL     OW25180   2.252   1.741   3.422
 4555SOL    HW125181   2.161   1.782   3.420
 4555SOL    HW225182   2.245   1.647   3.454
 4556SOL     OW25183   3.536   0.883   3.116
 4556SOL    HW125184   3.509   0.794   3.079
 4556SOL    HW225185   3.537   0.951   3.043
 4557SOL     OW25186   3.087   0.325   2.311
 4557SOL    HW125187   3.152   0.251   2.300
 4557SOL    HW225188   3.107   0.375   2.395
 4558SOL     OW25189   2.456   0.745   2.514
 4558SOL    HW125190   2.506   0.830   2.495
 4558SOL    HW225191   2.368   0.747   2.466
 4559SOL     OW25192   3.639   0.342   3.504
 4559SOL    HW125193   3.622   0.373   3.410
 4559SOL    HW225194   3.555   0.305   3.542
 4560SOL     OW25195   3.592   0.934   3.379
 4560SOL    HW125196   3.630   1.025   3.394
 4560SOL    HW225197   3.584   0.917   3.280
 4561SOL     OW25198   2.721   1.374   1.878
 4561SOL    HW125199   2.675   1.389   1.966
 4561SOL    HW225200   2.765   1.459   1.848
 4562SOL     OW25201   2.523   1.790   2.815
 4562SOL    HW125202   2.477   1.878   2.802
 4562SOL    HW225203   2.622   1.802   2.808
 4563SOL     OW25204   2.721   0.956   2.723
 4563SOL    HW125205   2.775   0.887   2.771
 4563SOL    HW225206   2.689   1.025   2.789
 4564SOL     OW25207   2.945   0.984   1.949
 4564SOL    HW125208   2.922   1.037   1.867
 4564SOL    HW225209   3.026   0.928   1.930
 4565SOL     OW25210   3.723   1.569   2.713
 4565SOL    HW125211   3.652   1.557   2.643
 4565SOL    HW225212   3.724   1.490   2.773
 4566SOL     OW25213   2.083   1.314   3.706
 4566SOL    HW125214   2.018   1.241   3.685
 4566SOL    HW225215   2.087   1.328   3.804
 4567SOL     OW25216   1.941   1.240   2.515
 4567SOL    HW125217   1.940   1.193   2.603
 4567SOL    HW225218   2.023   1.212   2.464
 4568SOL     OW25219   2.534   1.391   3.486
 4568SOL    HW125220   2.456   1.341   3.524
 4568SOL    HW225221   2.531   1.486   3.517
 4569SOL     OW25222   3.686   0.192   3.089
 4569SOL    HW125223   3.682   0.102   3.133
 4569SOL    HW225224   3.689   0.181   2.990
 4570SOL     OW25225   2.290   0.424   2.382
 4570SOL    HW125226   2.320   0.352   2.320
 4570SOL    HW225227   2.251   0.384   2.465
 4571SOL     OW25228   3.567   1.487   2.966
 4571SOL    HW125229   3.474   1.462   2.939
 4571SOL    HW225230   3.593   1.437   3.048
 4572SOL     OW25231   2.179   0.547   3.142
 4572SOL    HW125232   2.217   0.488   3.214
 4572SOL    HW225233   2.219   0.521   3.054
 4573SOL     OW25234   2.674   1.586   2.549
 4573SOL    HW125235   2.706   1.596   2.455
 4573SOL    HW225236   2.595   1.524   2.551
 4574SOL     OW25237   3.286   0.214   2.974
 4574SOL    HW125238   3.338   0.149   3.029
 4574SOL    HW225239   3.237   0.277   3.035
 4575SOL     OW25240   2.863   0.034   3.016
 4575SOL    HW125241   2.800  -0.038   2.985
 4575SOL    HW225242   2.956  -0.002   3.016
 4576SOL     OW25243   2.632   1.330   2.163
 4576SOL    HW125244   2.586   1.243   2.180
 4576SOL    HW225245   2.723   1.327   2.204
 4577SOL     OW25246   2.480   1.567   3.146
 4577SOL    HW125247   2.475   1.649   3.203
 4577SOL    HW225248   2.569   1.564   3.101
 4578SOL     OW25249   3.214   0.052   2.030
 4578SOL    HW125250   3.249   0.011   1.946
 4578SOL    HW225251   3.124   0.014   2.050
 4579SOL     OW25252   3.162   0.453   2.553
 4579SOL    HW125253   3.103   0.533   2.557
 4579SOL    HW225254   3.177   0.418   2.646
 4580SOL     OW25255   3.455   0.221   2.744
 4580SOL    HW125256   3.371   0.220   2.798
 4580SOL    HW225257   3.457   0.304   2.688
 4581SOL     OW25258   1.901   1.077   2.162
 4581SOL    HW125259   2.000   1.066   2.153
 4581SOL    HW225260   1.861   0.991   2.194
 4582SOL     OW25261   2.737   1.646   2.199
 4582SOL    HW125262   2.660   1.611   2.145
 4582SOL    HW225263   2.705   1.717   2.261
 4583SOL     OW25264   2.092   0.628   3.837
 4583SOL    HW125265   1.999   0.626   3.874
 4583SOL    HW225266   2.093   0.589   3.745
 4584SOL     OW25267   2.087   0.275   4.720
 4584SOL    HW125268   2.122   0.258   4.812
 4584SOL    HW225269   1.999   0.230   4.708
 4585SOL     OW25270   1.881   0.368   4.371
 4585SOL    HW125271   1.799   0.411   4.410
 4585SOL    HW225272   1.853   0.295   4.308
 4586SOL     OW25273   2.431   1.275   4.889
 4586SOL    HW125274   2.338   1.268   4.852
 4586SOL    HW225275   2.442   1.364   4.933
 4587SOL     OW25276   3.417   1.511   4.427
 4587SOL    HW125277   3.360   1.495   4.508
 4587SOL    HW225278   3.358   1.521   4.347
 4588SOL     OW25279   2.997   0.703   4.441
 4588SOL    HW125280   3.054   0.781   4.416
 4588SOL    HW225281   2.937   0.729   4.517
 4589SOL     OW25282   3.617   0.607   3.955
 4589SOL    HW125283   3.605   0.594   3.856
 4589SOL    HW225284   3.587   0.526   4.004
 4590SOL     OW25285   2.630   1.144   4.747
 4590SOL    HW125286   2.552   1.161   4.807
 4590SOL    HW225287   2.664   1.231   4.711
 4591SOL     OW25288   2.712   0.798   5.547
 4591SOL    HW125289   2.708   0.874   5.612
 4591SOL    HW225290   2.734   0.834   5.456
 4592SOL     OW25291   2.547   1.012   4.389
 4592SOL    HW125292   2.616   0.996   4.459
 4592SOL    HW225293   2.474   1.069   4.427
 4593SOL     OW25294   2.548   1.161   5.527
 4593SOL    HW125295   2.608   1.240   5.541
 4593SOL    HW225296   2.462   1.192   5.486
 4594SOL     OW25297   2.197   1.435   4.785
 4594SOL    HW125298   2.119   1.404   4.732
 4594SOL    HW225299   2.255   1.493   4.728
 4595SOL     OW25300   3.322   1.505   5.063
 4595SOL    HW125301   3.346   1.599   5.089
 4595SOL    HW225302   3.306   1.451   5.145
 4596SOL     OW25303   2.300   0.392   5.223
 4596SOL    HW125304   2.382   0.336   5.232
 4596SOL    HW225305   2.219   0.334   5.227
 4597SOL     OW25306   3.465   0.447   4.461
 4597SOL    HW125307   3.391   0.493   4.411
 4597SOL    HW225308   3.516   0.515   4.514
 4598SOL     OW25309   2.093   1.713   4.207
 4598SOL    HW125310   2.127   1.790   4.261
 4598SOL    HW225311   2.137   1.713   4.117
 4599SOL     OW25312   2.989   1.341   5.414
 4599SOL    HW125313   3.036   1.341   5.502
 4599SOL    HW225314   2.941   1.254   5.403
 4600SOL     OW25315   2.092   1.434   4.262
 4600SOL    HW125316   2.066   1.530   4.262
 4600SOL    HW225317   2.021   1.380   4.307
 4601SOL     OW25318   2.102   1.091   4.610
 4601SOL    HW125319   2.116   1.007   4.662
 4601SOL    HW225320   2.047   1.155   4.665
 4602SOL     OW25321   2.482   1.786   5.163
 4602SOL    HW125322   2.390   1.769   5.198
 4602SOL    HW225323   2.510   1.878   5.189
 4603SOL     OW25324   2.468   0.964   3.847
 4603SOL    HW125325   2.475   1.048   3.793
 4603SOL    HW225326   2.514   0.977   3.935
 4604SOL     OW25327   3.456   0.114   5.204
 4604SOL    HW125328   3.438   0.181   5.132
 4604SOL    HW225329   3.453   0.160   5.293
 4605SOL     OW25330   1.984   0.643   4.287
 4605SOL    HW125331   1.939   0.555   4.304
 4605SOL    HW225332   1.983   0.697   4.371
 4606SOL     OW25333   3.704   1.767   4.083
 4606SOL    HW125334   3.758   1.738   4.163
 4606SOL    HW225335   3.734   1.857   4.054
 4607SOL     OW25336   1.889   1.596   3.841
 4607SOL    HW125337   1.870   1.500   3.862
 4607SOL    HW225338   1.856   1.654   3.916
 4608SOL     OW25339   3.551   0.922   4.336
 4608SOL    HW125340   3.646   0.893   4.344
 4608SOL    HW225341   3.543   0.987   4.261
 4609SOL     OW25342   3.503   1.108   4.156
 4609SOL    HW125343   3.589   1.110   4.104
 4609SOL    HW225344   3.517   1.155   4.244
 4610SOL     OW25345   1.975   0.737   5.321
 4610SOL    HW125346   2.063   0.724   5.366
 4610SOL    HW225347   1.962   0.834   5.299
 4611SOL     OW25348   2.475   1.365   4.450
 4611SOL    HW125349   2.426   1.278   4.459
 4611SOL    HW225350   2.452   1.408   4.363
 4612SOL     OW25351   3.155   1.228   5.147
 4612SOL    HW125352   3.192   1.155   5.089
 4612SOL    HW225353   3.207   1.233   5.232
 4613SOL     OW25354   2.671   0.004   4.226
 4613SOL    HW125355   2.711   0.095   4.217
 4613SOL    HW225356   2.571   0.012   4.232
 4614SOL     OW25357   2.059   0.976   4.988
 4614SOL    HW125358   2.148   0.931   4.974
 4614SOL    HW225359   1.986   0.911   4.969
 4615SOL     OW25360   3.387   0.999   3.914
 4615SOL    HW125361   3.324   0.923   3.927
 4615SOL    HW225362   3.435   1.017   4.000
 4616SOL     OW25363   3.049   1.792   5.340
 4616SOL    HW125364   3.073   1.852   5.264
 4616SOL    HW225365   3.056   1.697   5.310
 4617SOL     OW25366   2.179   0.251   5.525
 4617SOL    HW125367   2.250   0.322   5.531
 4617SOL    HW225368   2.091   0.290   5.553
 4618SOL     OW25369   3.328   1.417   4.677
 4618SOL    HW125370   3.269   1.423   4.757
 4618SOL    HW225371   3.313   1.329   4.631
 4619SOL     OW25372   3.529   1.714   4.296
 4619SOL    HW125373   3.488   1.691   4.208
 4619SOL    HW225374   3.511   1.640   4.361
 4620SOL     OW25375   2.460   0.729   3.994
 4620SOL    HW125376   2.484   0.798   3.926
 4620SOL    HW225377   2.382   0.762   4.048
 4621SOL     OW25378   3.143   0.345   4.668
 4621SOL    HW125379   3.057   0.295   4.655
 4621SOL    HW225380   3.205   0.291   4.724
 4622SOL     OW25381   3.438   1.662   4.031
 4622SOL    HW125382   3.527   1.708   4.034
 4622SOL    HW225383   3.417   1.638   3.936
 4623SOL     OW25384   2.669   0.605   5.189
 4623SOL    HW125385   2.622   0.602   5.278
 4623SOL    HW225386   2.618   0.550   5.123
 4624SOL     OW25387   3.256   0.469   5.398
 4624SOL    HW125388   3.236   0.512   5.486
 4624SOL    HW225389   3.334   0.407   5.407
 4625SOL     OW25390   2.835   0.890   5.296
 4625SOL    HW125391   2.881   0.806   5.267
 4625SOL    HW225392   2.779   0.924   5.221
 4626SOL     OW25393   2.853   0.410   4.966
 4626SOL    HW125394   2.776   0.444   5.020
 4626SOL    HW225395   2.819   0.359   4.887
 4627SOL     OW25396   2.903   0.701   4.153
 4627SOL    HW125397   2.929   0.697   4.249
 4627SOL    HW225398   2.818   0.650   4.139
 4628SOL     OW25399   1.938   0.811   4.513
 4628SOL    HW125400   2.037   0.799   4.522
 4628SOL    HW225401   1.914   0.906   4.534
 4629SOL     OW25402   1.992   1.821   5.295
 4629SOL    HW125403   1.982   1.806   5.394
 4629SOL    HW225404   1.906   1.857   5.259
 4630SOL     OW25405   2.727   0.348   3.919
 4630SOL    HW125406   2.786   0.411   3.870
 4630SOL    HW225407   2.746   0.254   3.890
 4631SOL     OW25408   3.581   0.585   5.555
 4631SOL    HW125409   3.555   0.674   5.519
 4631SOL    HW225410   3.579   0.517   5.482
 4632SOL     OW25411   3.224   1.144   4.269
 4632SOL    HW125412   3.307   1.115   4.221
 4632SOL    HW225413   3.175   1.211   4.213
 4633SOL     OW25414   2.412   0.196   4.609
 4633SOL    HW125415   2.407   0.191   4.709
 4633SOL    HW225416   2.414   0.292   4.580
 4634SOL     OW25417   2.870   1.456   4.201
 4634SOL    HW125418   2.824   1.528   4.149
 4634SOL    HW225419   2.866   1.476   4.299
 4635SOL     OW25420   2.213   1.801   4.577
 4635SOL    HW125421   2.263   1.715   4.583
 4635SOL    HW225422   2.278   1.878   4.574
 4636SOL     OW25423   3.657   1.066   4.597
 4636SOL    HW125424   3.595   1.051   4.521
 4636SOL    HW225425   3.605   1.077   4.682
 4637SOL     OW25426   3.089   1.550   5.230
 4637SOL    HW125427   3.095   1.473   5.294
 4637SOL    HW225428   3.037   1.524   5.150
 4638SOL     OW25429   2.183   0.943   3.966
 4638SOL    HW125430   2.265   0.982   3.924
 4638SOL    HW225431   2.156   0.861   3.917
 4639SOL     OW25432   3.320   0.735   4.452
 4639SOL    HW125433   3.315   0.670   4.527
 4639SOL    HW225434   3.400   0.794   4.465
 4640SOL     OW25435   2.323   1.266   5.451
 4640SOL    HW125436   2.273   1.267   5.365
 4640SOL    HW225437   2.260   1.248   5.527
 4641SOL     OW25438   2.973   1.776   3.961
 4641SOL    HW125439   2.913   1.714   4.011
 4641SOL    HW225440   3.004   1.732   3.876
 4642SOL     OW25441   2.064   0.285   5.222
 4642SOL    HW125442   1.984   0.345   5.209
 4642SOL    HW225443   2.054   0.236   5.308
 4643SOL     OW25444   3.494   1.377   3.805
 4643SOL    HW125445   3.462   1.471   3.795
 4643SOL    HW225446   3.418   1.314   3.793
 4644SOL     OW25447   2.326   1.743   4.047
 4644SOL    HW125448   2.359   1.782   4.133
 4644SOL    HW225449   2.402   1.736   3.982
 4645SOL     OW25450   3.262   0.107   4.150
 4645SOL    HW125451   3.238   0.070   4.060
 4645SOL    HW225452   3.361   0.123   4.154
 4646SOL     OW25453   2.111   1.785   4.965
 4646SOL    HW125454   2.168   1.720   5.015
 4646SOL    HW225455   2.095   1.752   4.872
 4647SOL     OW25456   2.802   1.698   4.628
 4647SOL    HW125457   2.882   1.641   4.649
 4647SOL    HW225458   2.753   1.658   4.551
 4648SOL     OW25459   2.244   0.700   4.204
 4648SOL    HW125460   2.289   0.610   4.201
 4648SOL    HW225461   2.150   0.689   4.237
 4649SOL     OW25462   3.409   0.222   5.453
 4649SOL    HW125463   3.404   0.259   5.545
 4649SOL    HW225464   3.337   0.153   5.441
 4650SOL     OW25465   2.476   0.122   3.841
 4650SOL    HW125466   2.574   0.100   3.848
 4650SOL    HW225467   2.445   0.105   3.748
 4651SOL     OW25468   2.643   0.264   5.473
 4651SOL    HW125469   2.710   0.203   5.516
 4651SOL    HW225470   2.570   0.283   5.538
 4652SOL     OW25471   2.750   1.514   4.919
 4652SOL    HW125472   2.727   1.489   4.825
 4652SOL    HW225473   2.811   1.445   4.958
 4653SOL     OW25474   3.213   0.590   5.157
 4653SOL    HW125475   3.241   0.547   5.242
 4653SOL    HW225476   3.238   0.686   5.158
 4654SOL     OW25477   2.665   1.402   4.648
 4654SOL    HW125478   2.755   1.416   4.606
 4654SOL    HW225479   2.594   1.404   4.577
 4655SOL     OW25480   2.784   0.503   4.623
 4655SOL    HW125481   2.759   0.494   4.527
 4655SOL    HW225482   2.832   0.421   4.654
 4656SOL     OW25483   2.401   0.064   4.236
 4656SOL    HW125484   2.320   0.065   4.294
 4656SOL    HW225485   2.404   0.147   4.181
 4657SOL     OW25486   3.296   1.188   3.765
 4657SOL    HW125487   3.328   1.112   3.822
 4657SOL    HW225488   3.204   1.215   3.795
 4658SOL     OW25489   2.159   0.035   3.895
 4658SOL    HW125490   2.208   0.119   3.874
 4658SOL    HW225491   2.221  -0.030   3.940
 4659SOL     OW25492   2.797   0.236   4.204
 4659SOL    HW125493   2.749   0.277   4.126
 4659SOL    HW225494   2.896   0.234   4.185
 4660SOL     OW25495   2.938   0.683   5.188
 4660SOL    HW125496   2.858   0.622   5.191
 4660SOL    HW225497   3.019   0.630   5.164
 4661SOL     OW25498   3.089   1.570   4.517
 4661SOL    HW125499   3.110   1.644   4.452
 4661SOL    HW225500   3.157   1.570   4.590
 4662SOL     OW25501   2.321   1.152   4.465
 4662SOL    HW125502   2.250   1.125   4.530
 4662SOL    HW225503   2.295   1.124   4.372
 4663SOL     OW25504   3.133   1.797   4.315
 4663SOL    HW125505   3.177   1.861   4.251
 4663SOL    HW225506   3.083   1.849   4.385
 4664SOL     OW25507   2.894   0.549   3.740
 4664SOL    HW125508   2.853   0.631   3.701
 4664SOL    HW225509   2.958   0.575   3.813
 4665SOL     OW25510   1.940   0.556   5.110
 4665SOL    HW125511   2.032   0.555   5.069
 4665SOL    HW225512   1.934   0.630   5.177
 4666SOL     OW25513   2.423   0.222   4.871
 4666SOL    HW125514   2.461   0.138   4.908
 4666SOL    HW225515   2.335   0.241   4.915
 4667SOL     OW25516   2.728   0.454   4.366
 4667SOL    HW125517   2.696   0.526   4.304
 4667SOL    HW225518   2.752   0.373   4.313
 4668SOL     OW25519   2.879   0.039   4.477
 4668SOL    HW125520   2.807   0.044   4.408
 4668SOL    HW225521   2.855  -0.030   4.546
 4669SOL     OW25522   3.291   1.173   4.591
 4669SOL    HW125523   3.236   1.089   4.584
 4669SOL    HW225524   3.317   1.202   4.499
 4670SOL     OW25525   3.328   0.590   4.716
 4670SOL    HW125526   3.298   0.495   4.723
 4670SOL    HW225527   3.401   0.606   4.782
 4671SOL     OW25528   3.719   0.833   4.101
 4671SOL    HW125529   3.761   0.769   4.165
 4671SOL    HW225530   3.681   0.782   4.023
 4672SOL     OW25531   2.350   1.385   3.898
 4672SOL    HW125532   2.263   1.370   3.945
 4672SOL    HW225533   2.333   1.411   3.803
 4673SOL     OW25534   3.526   1.280   4.381
 4673SOL    HW125535   3.625   1.288   4.395
 4673SOL    HW225536   3.481   1.364   4.412
 4674SOL     OW25537   3.252   0.575   3.802
 4674SOL    HW125538   3.198   0.554   3.883
 4674SOL    HW225539   3.343   0.534   3.811
 4675SOL     OW25540   2.389   0.256   4.052
 4675SOL    HW125541   2.416   0.197   3.977
 4675SOL    HW225542   2.389   0.351   4.021
 4676SOL     OW25543   3.616   1.223   5.312
 4676SOL    HW125544   3.707   1.184   5.299
 4676SOL    HW225545   3.624   1.319   5.336
 4677SOL     OW25546   2.926   1.347   5.064
 4677SOL    HW125547   2.846   1.324   5.119
 4677SOL    HW225548   3.009   1.321   5.113
 4678SOL     OW25549   3.454   1.629   5.349
 4678SOL    HW125550   3.481   1.663   5.259
 4678SOL    HW225551   3.533   1.591   5.395
 4679SOL     OW25552   2.973   1.195   4.824
 4679SOL    HW125553   2.933   1.239   4.905
 4679SOL    HW225554   2.932   1.232   4.741
 4680SOL     OW25555   3.500   1.099   4.803
 4680SOL    HW125556   3.505   1.180   4.862
 4680SOL    HW225557   3.414   1.101   4.752
 4681SOL     OW25558   2.777   0.089   5.126
 4681SOL    HW125559   2.802   0.069   5.031
 4681SOL    HW225560   2.849   0.145   5.168
 4682SOL     OW25561   2.842   1.116   5.443
 4682SOL    HW125562   2.743   1.122   5.453
 4682SOL    HW225563   2.865   1.036   5.387
 4683SOL     OW25564   2.567   1.050   4.092
 4683SOL    HW125565   2.553   1.057   4.191
 4683SOL    HW225566   2.651   0.999   4.074
 4684SOL     OW25567   2.272   0.813   4.975
 4684SOL    HW125568   2.358   0.825   5.025
 4684SOL    HW225569   2.230   0.726   5.002
 4685SOL     OW25570   3.136   0.386   4.986
 4685SOL    HW125571   3.157   0.460   5.050
 4685SOL    HW225572   3.047   0.403   4.943
 4686SOL     OW25573   1.926   1.564   5.055
 4686SOL    HW125574   1.880   1.646   5.021
 4686SOL    HW225575   2.024   1.583   5.064
 4687SOL     OW25576   2.229   1.100   4.225
 4687SOL    HW125577   2.222   1.183   4.169
 4687SOL    HW225578   2.233   1.020   4.165
 4688SOL     OW25579   2.428   0.537   4.589
 4688SOL    HW125580   2.440   0.603   4.515
 4688SOL    HW225581   2.474   0.571   4.672
 4689SOL     OW25582   3.114   1.348   4.112
 4689SOL    HW125583   3.164   1.425   4.152
 4689SOL    HW225584   3.019   1.350   4.144
 4690SOL     OW25585   3.134   1.445   4.866
 4690SOL    HW125586   3.181   1.458   4.953
 4690SOL    HW225587   3.068   1.371   4.875
 4691SOL     OW25588   3.444   0.639   4.196
 4691SOL    HW125589   3.413   0.700   4.269
 4691SOL    HW225590   3.494   0.691   4.127
 4692SOL     OW25591   2.216   1.510   5.053
 4692SOL    HW125592   2.195   1.466   4.966
 4692SOL    HW225593   2.313   1.536   5.056
 4693SOL     OW25594   2.264   0.751   5.322
 4693SOL    HW125595   2.332   0.806   5.275
 4693SOL    HW225596   2.304   0.663   5.349
 4694SOL     OW25597   3.449   0.779   5.394
 4694SOL    HW125598   3.357   0.817   5.389
 4694SOL    HW225599   3.509   0.826   5.329
 4695SOL     OW25600   2.875   0.105   5.494
 4695SOL    HW125601   2.881   0.190   5.442
 4695SOL    HW225602   2.907   0.029   5.437
 4696SOL     OW25603   2.366   0.050   5.464
 4696SOL    HW125604   2.324  -0.007   5.394
 4696SOL    HW225605   2.300   0.119   5.496
 4697SOL     OW25606   2.435   0.870   4.753
 4697SOL    HW125607   2.479   0.959   4.744
 4697SOL    HW225608   2.372   0.870   4.830
 4698SOL     OW25609   3.222   0.862   4.769
 4698SOL    HW125610   3.147   0.862   4.703
 4698SOL    HW225611   3.259   0.770   4.778
 4699SOL     OW25612   3.071   0.525   3.999
 4699SOL    HW125613   3.084   0.441   4.053
 4699SOL    HW225614   3.042   0.599   4.059
 4700SOL     OW25615   2.169   0.213   4.955
 4700SOL    HW125616   2.146   0.250   5.045
 4700SOL    HW225617   2.139   0.118   4.949
 4701SOL     OW25618   1.899   1.310   5.006
 4701SOL    HW125619   1.952   1.261   5.074
 4701SOL    HW225620   1.921   1.408   5.011
 4702SOL     OW25621   2.594   0.634   4.788
 4702SOL    HW125622   2.653   0.608   4.712
 4702SOL    HW225623   2.566   0.730   4.777
 4703SOL     OW25624   3.590   0.935   5.578
 4703SOL    HW125625   3.544   0.928   5.489
 4703SOL    HW225626   3.528   0.979   5.644
 4704SOL     OW25627   2.169   0.063   4.342
 4704SOL    HW125628   2.158   0.157   4.375
 4704SOL    HW225629   2.164   0.000   4.419
 4705SOL     OW25630   3.484   0.367   4.098
 4705SOL    HW125631   3.486   0.291   4.162
 4705SOL    HW225632   3.436   0.444   4.138
 4706SOL     OW25633   2.885   0.766   4.690
 4706SOL    HW125634   2.900   0.787   4.786
 4706SOL    HW225635   2.855   0.671   4.681
 4707SOL     OW25636   2.842   1.573   5.424
 4707SOL    HW125637   2.822   1.617   5.336
 4707SOL    HW225638   2.881   1.482   5.408
 4708SOL     OW25639   3.721   1.518   5.329
 4708SOL    HW125640   3.735   1.545   5.234
 4708SOL    HW225641   3.804   1.540   5.382
 4709SOL     OW25642   2.212   0.898   5.528
 4709SOL    HW125643   2.288   0.942   5.576
 4709SOL    HW225644   2.247   0.851   5.446
 4710SOL     OW25645   3.402   0.274   3.849
 4710SOL    HW125646   3.341   0.199   3.872
 4710SOL    HW225647   3.424   0.326   3.932
 4711SOL     OW25648   3.165   0.838   3.766
 4711SOL    HW125649   3.199   0.745   3.781
 4711SOL    HW225650   3.183   0.865   3.671
 4712SOL     OW25651   2.930   1.333   4.573
 4712SOL    HW125652   2.937   1.249   4.518
 4712SOL    HW225653   2.992   1.402   4.537
 4713SOL     OW25654   2.181   0.810   4.673
 4713SOL    HW125655   2.274   0.846   4.678
 4713SOL    HW225656   2.175   0.725   4.725
 4714SOL     OW25657   2.201   0.509   4.730
 4714SOL    HW125658   2.149   0.426   4.713
 4714SOL    HW225659   2.278   0.514   4.666
 4715SOL     OW25660   3.000   0.380   5.402
 4715SOL    HW125661   2.955   0.443   5.466
 4715SOL    HW225662   3.093   0.411   5.385
 4716SOL     OW25663   3.022   0.207   5.201
 4716SOL    HW125664   3.022   0.271   5.278
 4716SOL    HW225665   3.050   0.255   5.118
 4717SOL     OW25666   1.870   1.326   3.924
 4717SOL    HW125667   1.777   1.347   3.893
 4717SOL    HW225668   1.880   1.227   3.937
 4718SOL     OW25669   1.950   1.801   4.651
 4718SOL    HW125670   1.908   1.715   4.624
 4718SOL    HW225671   2.044   1.804   4.617
 4719SOL     OW25672   2.366   1.568   4.634
 4719SOL    HW125673   2.432   1.642   4.643
 4719SOL    HW225674   2.410   1.489   4.592
 4720SOL     OW25675   2.864   0.796   4.962
 4720SOL    HW125676   2.905   0.764   5.048
 4720SOL    HW225677   2.768   0.769   4.959
 4721SOL     OW25678   1.902   0.544   4.838
 4721SOL    HW125679   1.987   0.511   4.797
 4721SOL    HW225680   1.915   0.559   4.936
 4722SOL     OW25681   2.051   0.520   5.446
 4722SOL    HW125682   2.110   0.480   5.376
 4722SOL    HW225683   1.993   0.591   5.405
 4723SOL     OW25684   3.231   0.950   5.384
 4723SOL    HW125685   3.270   1.039   5.404
 4723SOL    HW225686   3.241   0.930   5.287
 4724SOL     OW25687   2.677   0.572   4.049
 4724SOL    HW125688   2.684   0.483   4.003
 4724SOL    HW225689   2.583   0.606   4.041
 4725SOL     OW25690   3.519   0.604   4.930
 4725SOL    HW125691   3.481   0.535   4.992
 4725SOL    HW225692   3.601   0.568   4.886
 4726SOL     OW25693   2.114   1.564   5.468
 4726SOL    HW125694   2.084   1.621   5.544
 4726SOL    HW225695   2.107   1.467   5.494
 4727SOL     OW25696   2.533   0.464   4.993
 4727SOL    HW125697   2.499   0.375   4.963
 4727SOL    HW225698   2.559   0.518   4.913
 4728SOL     OW25699   2.792   1.678   5.189
 4728SOL    HW125700   2.768   1.660   5.094
 4728SOL    HW225701   2.822   1.772   5.199
 4729SOL     OW25702   2.335   0.500   3.915
 4729SOL    HW125703   2.396   0.580   3.919
 4729SOL    HW225704   2.240   0.531   3.922
 4730SOL     OW25705   2.021   1.137   5.190
 4730SOL    HW125706   2.043   1.076   5.266
 4730SOL    HW225707   2.031   1.088   5.104
 4731SOL     OW25708   3.209   1.059   4.958
 4731SOL    HW125709   3.233   0.996   4.884
 4731SOL    HW225710   3.119   1.099   4.940
 4732SOL     OW25711   3.164   0.855   4.033
 4732SOL    HW125712   3.078   0.824   4.075
 4732SOL    HW225713   3.160   0.841   3.934
 4733SOL     OW25714   3.621   1.747   4.878
 4733SOL    HW125715   3.682   1.777   4.805
 4733SOL    HW225716   3.583   1.658   4.856
 4734SOL     OW25717   3.114   1.731   4.852
 4734SOL    HW125718   3.198   1.736   4.798
 4734SOL    HW225719   3.091   1.635   4.870
 4735SOL     OW25720   1.945   1.258   4.746
 4735SOL    HW125721   1.940   1.257   4.846
 4735SOL    HW225722   1.862   1.217   4.708
 4736SOL     OW25723   2.550   1.662   5.440
 4736SOL    HW125724   2.494   1.743   5.449
 4736SOL    HW225725   2.602   1.666   5.354
 4737SOL     OW25726   3.588   0.135   4.247
 4737SOL    HW125727   3.661   0.118   4.180
 4737SOL    HW225728   3.557   0.048   4.285
 4738SOL     OW25729   3.250   1.573   4.201
 4738SOL    HW125730   3.317   1.585   4.127
 4738SOL    HW225731   3.210   1.662   4.224
 4739SOL     OW25732   1.992   1.794   5.575
 4739SOL    HW125733   1.951   1.720   5.628
 4739SOL    HW225734   2.056   1.845   5.633
 4740SOL     OW25735   3.142   0.927   4.396
 4740SOL    HW125736   3.202   0.846   4.398
 4740SOL    HW225737   3.182   0.996   4.336
 4741SOL     OW25738   2.692   1.273   5.146
 4741SOL    HW125739   2.687   1.306   5.241
 4741SOL    HW225740   2.606   1.292   5.100
 4742SOL     OW25741   2.534   1.616   3.878
 4742SOL    HW125742   2.543   1.626   3.779
 4742SOL    HW225743   2.494   1.527   3.899
 4743SOL     OW25744   3.512   1.720   5.118
 4743SOL    HW125745   3.565   1.730   5.034
 4743SOL    HW225746   3.485   1.810   5.152
 4744SOL     OW25747   3.703   0.175   4.687
 4744SOL    HW125748   3.742   0.090   4.651
 4744SOL    HW225749   3.605   0.177   4.668
 4745SOL     OW25750   2.125   0.326   4.444
 4745SOL    HW125751   2.046   0.377   4.410
 4745SOL    HW225752   2.116   0.311   4.542
 4746SOL     OW25753   3.056   1.612   3.755
 4746SOL    HW125754   3.062   1.519   3.792
 4746SOL    HW225755   2.997   1.612   3.675
 4747SOL     OW25756   2.684   1.002   5.096
 4747SOL    HW125757   2.724   1.001   5.004
 4747SOL    HW225758   2.694   1.094   5.136
 4748SOL     OW25759   2.778   0.910   4.015
 4748SOL    HW125760   2.841   0.948   3.947
 4748SOL    HW225761   2.818   0.827   4.054
 4749SOL     OW25762   3.366   1.607   3.768
 4749SOL    HW125763   3.274   1.644   3.775
 4749SOL    HW225764   3.404   1.627   3.678
 4750SOL     OW25765   2.234   1.288   5.214
 4750SOL    HW125766   2.221   1.381   5.180
 4750SOL    HW225767   2.150   1.236   5.201
 4751SOL     OW25768   3.476   1.292   5.013
 4751SOL    HW125769   3.536   1.295   5.093
 4751SOL    HW225770   3.401   1.356   5.026
 4752SOL     OW25771   2.901   1.098   4.420
 4752SOL    HW125772   2.831   1.051   4.474
 4752SOL    HW225773   2.960   1.030   4.377
 4753SOL     OW25774   2.876   0.236   4.695
 4753SOL    HW125775   2.868   0.200   4.602
 4753SOL    HW225776   2.874   0.160   4.760
 4754SOL     OW25777   2.452   1.487   4.215
 4754SOL    HW125778   2.494   1.429   4.145
 4754SOL    HW225779   2.408   1.566   4.171
 4755SOL     OW25780   3.571   0.385   5.105
 4755SOL    HW125781   3.644   0.454   5.109
 4755SOL    HW225782   3.599   0.310   5.046
 4756SOL     OW25783   2.117   1.348   4.014
 4756SOL    HW125784   2.021   1.349   3.987
 4756SOL    HW225785   2.129   1.401   4.098
 4757SOL     OW25786   1.967   1.013   5.450
 4757SOL    HW125787   1.890   0.980   5.504
 4757SOL    HW225788   2.052   0.983   5.492
 4758SOL     OW25789   2.534   0.203   5.213
 4758SOL    HW125790   2.624   0.187   5.173
 4758SOL    HW225791   2.542   0.208   5.312
 4759SOL     OW25792   1.937   0.345   3.757
 4759SOL    HW125793   1.845   0.317   3.728
 4759SOL    HW225794   1.968   0.422   3.701
 4760SOL     OW25795   3.302   0.856   5.122
 4760SOL    HW125796   3.245   0.908   5.059
 4760SOL    HW225797   3.398   0.868   5.098
 4761SOL     OW25798   1.934   0.166   4.042
 4761SOL    HW125799   1.917   0.249   3.988
 4761SOL    HW225800   2.024   0.129   4.020
 4762SOL     OW25801   3.045   1.335   3.843
 4762SOL    HW125802   2.946   1.324   3.845
 4762SOL    HW225803   3.079   1.350   3.936
 4763SOL     OW25804   2.475   0.842   5.155
 4763SOL    HW125805   2.531   0.923   5.138
 4763SOL    HW225806   2.534   0.762   5.158
 4764SOL     OW25807   3.355   1.767   4.683
 4764SOL    HW125808   3.388   1.831   4.614
 4764SOL    HW225809   3.421   1.761   4.758
 4765SOL     OW25810   2.578   0.565   5.432
 4765SOL    HW125811   2.597   0.630   5.506
 4765SOL    HW225812   2.638   0.485   5.441
 4766SOL     OW25813   3.312   1.220   5.357
 4766SOL    HW125814   3.303   1.210   5.456
 4766SOL    HW225815   3.408   1.213   5.331
 4767SOL     OW25816   2.252   1.741   5.284
 4767SOL    HW125817   2.161   1.782   5.282
 4767SOL    HW225818   2.245   1.647   5.316
 4768SOL     OW25819   3.536   0.883   4.978
 4768SOL    HW125820   3.509   0.794   4.941
 4768SOL    HW225821   3.537   0.951   4.905
 4769SOL     OW25822   3.087   0.325   4.173
 4769SOL    HW125823   3.152   0.251   4.162
 4769SOL    HW225824   3.107   0.375   4.257
 4770SOL     OW25825   2.456   0.745   4.376
 4770SOL    HW125826   2.506   0.830   4.357
 4770SOL    HW225827   2.368   0.747   4.328
 4771SOL     OW25828   3.639   0.342   5.366
 4771SOL    HW125829   3.622   0.373   5.272
 4771SOL    HW225830   3.555   0.305   5.404
 4772SOL     OW25831   3.592   0.934   5.241
 4772SOL    HW125832   3.630   1.025   5.256
 4772SOL    HW225833   3.584   0.917   5.142
 4773SOL     OW25834   2.721   1.374   3.740
 4773SOL    HW125835   2.675   1.389   3.828
 4773SOL    HW225836   2.765   1.459   3.710
 4774SOL     OW25837   2.523   1.790   4.677
 4774SOL    HW125838   2.477   1.878   4.664
 4774SOL    HW225839   2.622   1.802   4.670
 4775SOL     OW25840   2.721   0.956   4.585
 4775SOL    HW125841   2.775   0.887   4.633
 4775SOL    HW225842   2.689   1.025   4.651
 4776SOL     OW25843   2.945   0.984   3.811
 4776SOL    HW125844   2.922   1.037   3.729
 4776SOL    HW225845   3.026   0.928   3.792
 4777SOL     OW25846   3.723   1.569   4.575
 4777SOL    HW125847   3.652   1.557   4.505
 4777SOL    HW225848   3.724   1.490   4.635
 4778SOL     OW25849   2.083   1.314   5.568
 4778SOL    HW125850   2.018   1.241   5.547
 4778SOL    HW225851   2.087   1.328   5.666
 4779SOL     OW25852   1.941   1.240   4.377
 4779SOL    HW125853   1.940   1.193   4.465
 4779SOL    HW225854   2.023   1.212   4.326
 4780SOL     OW25855   2.534   1.391   5.348
 4780SOL    HW125856   2.456   1.341   5.386
 4780SOL    HW225857   2.531   1.486   5.379
 4781SOL     OW25858   3.686   0.192   4.951
 4781SOL    HW125859   3.682   0.102   4.995
 4781SOL    HW225860   3.689   0.181   4.852
 4782SOL     OW25861   2.290   0.424   4.244
 4782SOL    HW125862   2.320   0.352   4.182
 4782SOL    HW225863   2.251   0.384   4.327
 4783SOL     OW25864   3.567   1.487   4.828
 4783SOL    HW125865   3.474   1.462   4.801
 4783SOL    HW225866   3.593   1.437   4.910
 4784SOL     OW25867   2.179   0.547   5.004
 4784SOL    HW125868   2.217   0.488   5.076
 4784SOL    HW225869   2.219   0.521   4.916
 4785SOL     OW25870   2.674   1.586   4.411
 4785SOL    HW125871   2.706   1.596   4.317
 4785SOL    HW225872   2.595   1.524   4.413
 4786SOL     OW25873   3.286   0.214   4.836
 4786SOL    HW125874   3.338   0.149   4.891
 4786SOL    HW225875   3.237   0.277   4.897
 4787SOL     OW25876   2.863   0.034   4.878
 4787SOL    HW125877   2.800  -0.038   4.847
 4787SOL    HW225878   2.956  -0.002   4.878
 4788SOL     OW25879   2.632   1.330   4.025
 4788SOL    HW125880   2.586   1.243   4.042
 4788SOL    HW225881   2.723   1.327   4.066
 4789SOL     OW25882   2.480   1.567   5.008
 4789SOL    HW125883   2.475   1.649   5.065
 4789SOL    HW225884   2.569   1.564   4.963
 4790SOL     OW25885   3.214   0.052   3.892
 4790SOL    HW125886   3.249   0.011   3.808
 4790SOL    HW225887   3.124   0.014   3.912
 4791SOL     OW25888   3.162   0.453   4.415
 4791SOL    HW125889   3.103   0.533   4.419
 4791SOL    HW225890   3.177   0.418   4.508
 4792SOL     OW25891   3.455   0.221   4.606
 4792SOL    HW125892   3.371   0.220   4.660
 4792SOL    HW225893   3.457   0.304   4.550
 4793SOL     OW25894   1.901   1.077   4.024
 4793SOL    HW125895   2.000   1.066   4.015
 4793SOL    HW225896   1.861   0.991   4.056
 4794SOL     OW25897   2.737   1.646   4.061
 4794SOL    HW125898   2.660   1.611   4.007
 4794SOL    HW225899   2.705   1.717   4.123
 4795SOL     OW25900   2.092   0.628   5.699
 4795SOL    HW125901   1.999   0.626   5.736
 4795SOL    HW225902   2.093   0.589   5.607
 4796SOL     OW25903   2.087   0.275   6.582
 4796SOL    HW125904   2.122   0.258   6.674
 4796SOL    HW225905   1.999   0.230   6.570
 4797SOL     OW25906   1.881   0.368   6.233
 4797SOL    HW125907   1.799   0.411   6.272
 4797SOL    HW225908   1.853   0.295   6.170
 4798SOL     OW25909   2.431   1.275   6.751
 4798SOL    HW125910   2.338   1.268   6.714
 4798SOL    HW225911   2.442   1.364   6.795
 4799SOL     OW25912   3.417   1.511   6.289
 4799SOL    HW125913   3.360   1.495   6.370
 4799SOL    HW225914   3.358   1.521   6.209
 4800SOL     OW25915   2.997   0.703   6.303
 4800SOL    HW125916   3.054   0.781   6.278
 4800SOL    HW225917   2.937   0.729   6.379
 4801SOL     OW25918   3.617   0.607   5.817
 4801SOL    HW125919   3.605   0.594   5.718
 4801SOL    HW225920   3.587   0.526   5.866
 4802SOL     OW25921   2.630   1.144   6.609
 4802SOL    HW125922   2.552   1.161   6.669
 4802SOL    HW225923   2.664   1.231   6.573
 4803SOL     OW25924   2.712   0.798   7.409
 4803SOL    HW125925   2.708   0.874   7.474
 4803SOL    HW225926   2.734   0.834   7.318
 4804SOL     OW25927   2.547   1.012   6.251
 4804SOL    HW125928   2.616   0.996   6.321
 4804SOL    HW225929   2.474   1.069   6.289
 4805SOL     OW25930   2.548   1.161   7.389
 4805SOL    HW125931   2.608   1.240   7.403
 4805SOL    HW225932   2.462   1.192   7.348
 4806SOL     OW25933   2.197   1.435   6.647
 4806SOL    HW125934   2.119   1.404   6.594
 4806SOL    HW225935   2.255   1.493   6.590
 4807SOL     OW25936   3.322   1.505   6.925
 4807SOL    HW125937   3.346   1.599   6.951
 4807SOL    HW225938   3.306   1.451   7.007
 4808SOL     OW25939   2.300   0.392   7.085
 4808SOL    HW125940   2.382   0.336   7.094
 4808SOL    HW225941   2.219   0.334   7.089
 4809SOL     OW25942   3.465   0.447   6.323
 4809SOL    HW125943   3.391   0.493   6.273
 4809SOL    HW225944   3.516   0.515   6.376
 4810SOL     OW25945   2.093   1.713   6.069
 4810SOL    HW125946   2.127   1.790   6.123
 4810SOL    HW225947   2.137   1.713   5.979
 4811SOL     OW25948   2.989   1.341   7.276
 4811SOL    HW125949   3.036   1.341   7.364
 4811SOL    HW225950   2.941   1.254   7.265
 4812SOL     OW25951   2.092   1.434   6.124
 4812SOL    HW125952   2.066   1.530   6.124
 4812SOL    HW225953   2.021   1.380   6.169
 4813SOL     OW25954   2.102   1.091   6.472
 4813SOL    HW125955   2.116   1.007   6.524
 4813SOL    HW225956   2.047   1.155   6.527
 4814SOL     OW25957   2.482   1.786   7.025
 4814SOL    HW125958   2.390   1.769   7.060
 4814SOL    HW225959   2.510   1.878   7.051
 4815SOL     OW25960   2.468   0.964   5.709
 4815SOL    HW125961   2.475   1.048   5.655
 4815SOL    HW225962   2.514   0.977   5.797
 4816SOL     OW25963   3.456   0.114   7.066
 4816SOL    HW125964   3.438   0.181   6.994
 4816SOL    HW225965   3.453   0.160   7.155
 4817SOL     OW25966   1.984   0.643   6.149
 4817SOL    HW125967   1.939   0.555   6.166
 4817SOL    HW225968   1.983   0.697   6.233
 4818SOL     OW25969   3.704   1.767   5.945
 4818SOL    HW125970   3.758   1.738   6.025
 4818SOL    HW225971   3.734   1.857   5.916
 4819SOL     OW25972   1.889   1.596   5.703
 4819SOL    HW125973   1.870   1.500   5.724
 4819SOL    HW225974   1.856   1.654   5.778
 4820SOL     OW25975   3.551   0.922   6.198
 4820SOL    HW125976   3.646   0.893   6.206
 4820SOL    HW225977   3.543   0.987   6.123
 4821SOL     OW25978   3.503   1.108   6.018
 4821SOL    HW125979   3.589   1.110   5.966
 4821SOL    HW225980   3.517   1.155   6.106
 4822SOL     OW25981   1.975   0.737   7.183
 4822SOL    HW125982   2.063   0.724   7.228
 4822SOL    HW225983   1.962   0.834   7.161
 4823SOL     OW25984   2.475   1.365   6.312
 4823SOL    HW125985   2.426   1.278   6.321
 4823SOL    HW225986   2.452   1.408   6.225
 4824SOL     OW25987   3.155   1.228   7.009
 4824SOL    HW125988   3.192   1.155   6.951
 4824SOL    HW225989   3.207   1.233   7.094
 4825SOL     OW25990   2.671   0.004   6.088
 4825SOL    HW125991   2.711   0.095   6.079
 4825SOL    HW225992   2.571   0.012   6.094
 4826SOL     OW25993   2.059   0.976   6.850
 4826SOL    HW125994   2.148   0.931   6.836
 4826SOL    HW225995   1.986   0.911   6.831
 4827SOL     OW25996   3.387   0.999   5.776
 4827SOL    HW125997   3.324   0.923   5.789
 4827SOL    HW225998   3.435   1.017   5.862
 4828SOL     OW25999   3.049   1.792   7.202
 4828SOL    HW126000   3.073   1.852   7.126
 4828SOL    HW226001   3.056   1.697   7.172
 4829SOL     OW26002   2.179   0.251   7.387
 4829SOL    HW126003   2.250   0.322   7.393
 4829SOL    HW226004   2.091   0.290   7.415
 4830SOL     OW26005   3.328   1.417   6.539
 4830SOL    HW126006   3.269   1.423   6.619
 4830SOL    HW226007   3.313   1.329   6.493
 4831SOL     OW26008   3.529   1.714   6.158
 4831SOL    HW126009   3.488   1.691   6.070
 4831SOL    HW226010   3.511   1.640   6.223
 4832SOL     OW26011   2.460   0.729   5.856
 4832SOL    HW126012   2.484   0.798   5.788
 4832SOL    HW226013   2.382   0.762   5.910
 4833SOL     OW26014   3.143   0.345   6.530
 4833SOL    HW126015   3.057   0.295   6.517
 4833SOL    HW226016   3.205   0.291   6.586
 4834SOL     OW26017   3.438   1.662   5.893
 4834SOL    HW126018   3.527   1.708   5.896
 4834SOL    HW226019   3.417   1.638   5.798
 4835SOL     OW26020   2.669   0.605   7.051
 4835SOL    HW126021   2.622   0.602   7.140
 4835SOL    HW226022   2.618   0.550   6.985
 4836SOL     OW26023   3.256   0.469   7.260
 4836SOL    HW126024   3.236   0.512   7.348
 4836SOL    HW226025   3.334   0.407   7.269
 4837SOL     OW26026   2.835   0.890   7.158
 4837SOL    HW126027   2.881   0.806   7.129
 4837SOL    HW226028   2.779   0.924   7.083
 4838SOL     OW26029   2.853   0.410   6.828
 4838SOL    HW126030   2.776   0.444   6.882
 4838SOL    HW226031   2.819   0.359   6.749
 4839SOL     OW26032   2.903   0.701   6.015
 4839SOL    HW126033   2.929   0.697   6.111
 4839SOL    HW226034   2.818   0.650   6.001
 4840SOL     OW26035   1.938   0.811   6.375
 4840SOL    HW126036   2.037   0.799   6.384
 4840SOL    HW226037   1.914   0.906   6.396
 4841SOL     OW26038   1.992   1.821   7.157
 4841SOL    HW126039   1.982   1.806   7.256
 4841SOL    HW226040   1.906   1.857   7.121
 4842SOL     OW26041   2.727   0.348   5.781
 4842SOL    HW126042   2.786   0.411   5.732
 4842SOL    HW226043   2.746   0.254   5.752
 4843SOL     OW26044   3.581   0.585   7.417
 4843SOL    HW126045   3.555   0.674   7.381
 4843SOL    HW226046   3.579   0.517   7.344
 4844SOL     OW26047   3.224   1.144   6.131
 4844SOL    HW126048   3.307   1.115   6.083
 4844SOL    HW226049   3.175   1.211   6.075
 4845SOL     OW26050   2.412   0.196   6.471
 4845SOL    HW126051   2.407   0.191   6.571
 4845SOL    HW226052   2.414   0.292   6.442
 4846SOL     OW26053   2.870   1.456   6.063
 4846SOL    HW126054   2.824   1.528   6.011
 4846SOL    HW226055   2.866   1.476   6.161
 4847SOL     OW26056   2.213   1.801   6.439
 4847SOL    HW126057   2.263   1.715   6.445
 4847SOL    HW226058   2.278   1.878   6.436
 4848SOL     OW26059   3.657   1.066   6.459
 4848SOL    HW126060   3.595   1.051   6.383
 4848SOL    HW226061   3.605   1.077   6.544
 4849SOL     OW26062   3.089   1.550   7.092
 4849SOL    HW126063   3.095   1.473   7.156
 4849SOL    HW226064   3.037   1.524   7.012
 4850SOL     OW26065   2.183   0.943   5.828
 4850SOL    HW126066   2.265   0.982   5.786
 4850SOL    HW226067   2.156   0.861   5.779
 4851SOL     OW26068   3.320   0.735   6.314
 4851SOL    HW126069   3.315   0.670   6.389
 4851SOL    HW226070   3.400   0.794   6.327
 4852SOL     OW26071   2.323   1.266   7.313
 4852SOL    HW126072   2.273   1.267   7.227
 4852SOL    HW226073   2.260   1.248   7.389
 4853SOL     OW26074   2.973   1.776   5.823
 4853SOL    HW126075   2.913   1.714   5.873
 4853SOL    HW226076   3.004   1.732   5.738
 4854SOL     OW26077   2.064   0.285   7.084
 4854SOL    HW126078   1.984   0.345   7.071
 4854SOL    HW226079   2.054   0.236   7.170
 4855SOL     OW26080   3.494   1.377   5.667
 4855SOL    HW126081   3.462   1.471   5.657
 4855SOL    HW226082   3.418   1.314   5.655
 4856SOL     OW26083   2.326   1.743   5.909
 4856SOL    HW126084   2.359   1.782   5.995
 4856SOL    HW226085   2.402   1.736   5.844
 4857SOL     OW26086   3.262   0.107   6.012
 4857SOL    HW126087   3.238   0.070   5.922
 4857SOL    HW226088   3.361   0.123   6.016
 4858SOL     OW26089   2.111   1.785   6.827
 4858SOL    HW126090   2.168   1.720   6.877
 4858SOL    HW226091   2.095   1.752   6.734
 4859SOL     OW26092   2.802   1.698   6.490
 4859SOL    HW126093   2.882   1.641   6.511
 4859SOL    HW226094   2.753   1.658   6.413
 4860SOL     OW26095   2.244   0.700   6.066
 4860SOL    HW126096   2.289   0.610   6.063
 4860SOL    HW226097   2.150   0.689   6.099
 4861SOL     OW26098   3.409   0.222   7.315
 4861SOL    HW126099   3.404   0.259   7.407
 4861SOL    HW226100   3.337   0.153   7.303
 4862SOL     OW26101   2.476   0.122   5.703
 4862SOL    HW126102   2.574   0.100   5.710
 4862SOL    HW226103   2.445   0.105   5.610
 4863SOL     OW26104   2.643   0.264   7.335
 4863SOL    HW126105   2.710   0.203   7.378
 4863SOL    HW226106   2.570   0.283   7.400
 4864SOL     OW26107   2.750   1.514   6.781
 4864SOL    HW126108   2.727   1.489   6.687
 4864SOL    HW226109   2.811   1.445   6.820
 4865SOL     OW26110   3.213   0.590   7.019
 4865SOL    HW126111   3.241   0.547   7.104
 4865SOL    HW226112   3.238   0.686   7.020
 4866SOL     OW26113   2.665   1.402   6.510
 4866SOL    HW126114   2.755   1.416   6.468
 4866SOL    HW226115   2.594   1.404   6.439
 4867SOL     OW26116   2.784   0.503   6.485
 4867SOL    HW126117   2.759   0.494   6.389
 4867SOL    HW226118   2.832   0.421   6.516
 4868SOL     OW26119   2.401   0.064   6.098
 4868SOL    HW126120   2.320   0.065   6.156
 4868SOL    HW226121   2.404   0.147   6.043
 4869SOL     OW26122   3.296   1.188   5.627
 4869SOL    HW126123   3.328   1.112   5.684
 4869SOL    HW226124   3.204   1.215   5.657
 4870SOL     OW26125   2.159   0.035   5.757
 4870SOL    HW126126   2.208   0.119   5.736
 4870SOL    HW226127   2.221  -0.030   5.802
 4871SOL     OW26128   2.797   0.236   6.066
 4871SOL    HW126129   2.749   0.277   5.988
 4871SOL    HW226130   2.896   0.234   6.047
 4872SOL     OW26131   2.938   0.683   7.050
 4872SOL    HW126132   2.858   0.622   7.053
 4872SOL    HW226133   3.019   0.630   7.026
 4873SOL     OW26134   3.089   1.570   6.379
 4873SOL    HW126135   3.110   1.644   6.314
 4873SOL    HW226136   3.157   1.570   6.452
 4874SOL     OW26137   2.321   1.152   6.327
 4874SOL    HW126138   2.250   1.125   6.392
 4874SOL    HW226139   2.295   1.124   6.234
 4875SOL     OW26140   3.133   1.797   6.177
 4875SOL    HW126141   3.177   1.861   6.113
 4875SOL    HW226142   3.083   1.849   6.247
 4876SOL     OW26143   2.894   0.549   5.602
 4876SOL    HW126144   2.853   0.631   5.563
 4876SOL    HW226145   2.958   0.575   5.675
 4877SOL     OW26146   1.940   0.556   6.972
 4877SOL    HW126147   2.032   0.555   6.931
 4877SOL    HW226148   1.934   0.630   7.039
 4878SOL     OW26149   2.423   0.222   6.733
 4878SOL    HW126150   2.461   0.138   6.770
 4878SOL    HW226151   2.335   0.241   6.777
 4879SOL     OW26152   2.728   0.454   6.228
 4879SOL    HW126153   2.696   0.526   6.166
 4879SOL    HW226154   2.752   0.373   6.175
 4880SOL     OW26155   2.879   0.039   6.339
 4880SOL    HW126156   2.807   0.044   6.270
 4880SOL    HW226157   2.855  -0.030   6.408
 4881SOL     OW26158   3.291   1.173   6.453
 4881SOL    HW126159   3.236   1.089   6.446
 4881SOL    HW226160   3.317   1.202   6.361
 4882SOL     OW26161   3.328   0.590   6.578
 4882SOL    HW126162   3.298   0.495   6.585
 4882SOL    HW226163   3.401   0.606   6.644
 4883SOL     OW26164   3.719   0.833   5.963
 4883SOL    HW126165   3.761   0.769   6.027
 4883SOL    HW226166   3.681   0.782   5.885
 4884SOL     OW26167   2.350   1.385   5.760
 4884SOL    HW126168   2.263   1.370   5.807
 4884SOL    HW226169   2.333   1.411   5.665
 4885SOL     OW26170   3.526   1.280   6.243
 4885SOL    HW126171   3.625   1.288   6.257
 4885SOL    HW226172   3.481   1.364   6.274
 4886SOL     OW26173   3.252   0.575   5.664
 4886SOL    HW126174   3.198   0.554   5.745
 4886SOL    HW226175   3.343   0.534   5.673
 4887SOL     OW26176   2.389   0.256   5.914
 4887SOL    HW126177   2.416   0.197   5.839
 4887SOL    HW226178   2.389   0.351   5.883
 4888SOL     OW26179   3.616   1.223   7.174
 4888SOL    HW126180   3.707   1.184   7.161
 4888SOL    HW226181   3.624   1.319   7.198
 4889SOL     OW26182   2.926   1.347   6.926
 4889SOL    HW126183   2.846   1.324   6.981
 4889SOL    HW226184   3.009   1.321   6.975
 4890SOL     OW26185   3.454   1.629   7.211
 4890SOL    HW126186   3.481   1.663   7.121
 4890SOL    HW226187   3.533   1.591   7.257
 4891SOL     OW26188   2.973   1.195   6.686
 4891SOL    HW126189   2.933   1.239   6.767
 4891SOL    HW226190   2.932   1.232   6.603
 4892SOL     OW26191   3.500   1.099   6.665
 4892SOL    HW126192   3.505   1.180   6.724
 4892SOL    HW226193   3.414   1.101   6.614
 4893SOL     OW26194   2.777   0.089   6.988
 4893SOL    HW126195   2.802   0.069   6.893
 4893SOL    HW226196   2.849   0.145   7.030
 4894SOL     OW26197   2.842   1.116   7.305
 4894SOL    HW126198   2.743   1.122   7.315
 4894SOL    HW226199   2.865   1.036   7.249
 4895SOL     OW26200   2.567   1.050   5.954
 4895SOL    HW126201   2.553   1.057   6.053
 4895SOL    HW226202   2.651   0.999   5.936
 4896SOL     OW26203   2.272   0.813   6.837
 4896SOL    HW126204   2.358   0.825   6.887
 4896SOL    HW226205   2.230   0.726   6.864
 4897SOL     OW26206   3.136   0.386   6.848
 4897SOL    HW126207   3.157   0.460   6.912
 4897SOL    HW226208   3.047   0.403   6.805
 4898SOL     OW26209   1.926   1.564   6.917
 4898SOL    HW126210   1.880   1.646   6.883
 4898SOL    HW226211   2.024   1.583   6.926
 4899SOL     OW26212   2.229   1.100   6.087
 4899SOL    HW126213   2.222   1.183   6.031
 4899SOL    HW226214   2.233   1.020   6.027
 4900SOL     OW26215   2.428   0.537   6.451
 4900SOL    HW126216   2.440   0.603   6.377
 4900SOL    HW226217   2.474   0.571   6.534
 4901SOL     OW26218   3.114   1.348   5.974
 4901SOL    HW126219   3.164   1.425   6.014
 4901SOL    HW226220   3.019   1.350   6.006
 4902SOL     OW26221   3.134   1.445   6.728
 4902SOL    HW126222   3.181   1.458   6.815
 4902SOL    HW226223   3.068   1.371   6.737
 4903SOL     OW26224   3.444   0.639   6.058
 4903SOL    HW126225   3.413   0.700   6.131
 4903SOL    HW226226   3.494   0.691   5.989
 4904SOL     OW26227   2.216   1.510   6.915
 4904SOL    HW126228   2.195   1.466   6.828
 4904SOL    HW226229   2.313   1.536   6.918
 4905SOL     OW26230   2.264   0.751   7.184
 4905SOL    HW126231   2.332   0.806   7.137
 4905SOL    HW226232   2.304   0.663   7.211
 4906SOL     OW26233   3.449   0.779   7.256
 4906SOL    HW126234   3.357   0.817   7.251
 4906SOL    HW226235   3.509   0.826   7.191
 4907SOL     OW26236   2.875   0.105   7.356
 4907SOL    HW126237   2.881   0.190   7.304
 4907SOL    HW226238   2.907   0.029   7.299
 4908SOL     OW26239   2.366   0.050   7.326
 4908SOL    HW126240   2.324  -0.007   7.256
 4908SOL    HW226241   2.300   0.119   7.358
 4909SOL     OW26242   2.435   0.870   6.615
 4909SOL    HW126243   2.479   0.959   6.606
 4909SOL    HW226244   2.372   0.870   6.692
 4910SOL     OW26245   3.222   0.862   6.631
 4910SOL    HW126246   3.147   0.862   6.565
 4910SOL    HW226247   3.259   0.770   6.640
 4911SOL     OW26248   3.071   0.525   5.861
 4911SOL    HW126249   3.084   0.441   5.915
 4911SOL    HW226250   3.042   0.599   5.921
 4912SOL     OW26251   2.169   0.213   6.817
 4912SOL    HW126252   2.146   0.250   6.907
 4912SOL    HW226253   2.139   0.118   6.811
 4913SOL     OW26254   1.899   1.310   6.868
 4913SOL    HW126255   1.952   1.261   6.936
 4913SOL    HW226256   1.921   1.408   6.873
 4914SOL     OW26257   2.594   0.634   6.650
 4914SOL    HW126258   2.653   0.608   6.574
 4914SOL    HW226259   2.566   0.730   6.639
 4915SOL     OW26260   3.590   0.935   7.440
 4915SOL    HW126261   3.544   0.928   7.351
 4915SOL    HW226262   3.528   0.979   7.506
 4916SOL     OW26263   2.169   0.063   6.204
 4916SOL    HW126264   2.158   0.157   6.237
 4916SOL    HW226265   2.164   0.000   6.281
 4917SOL     OW26266   3.484   0.367   5.960
 4917SOL    HW126267   3.486   0.291   6.024
 4917SOL    HW226268   3.436   0.444   6.000
 4918SOL     OW26269   2.885   0.766   6.552
 4918SOL    HW126270   2.900   0.787   6.648
 4918SOL    HW226271   2.855   0.671   6.543
 4919SOL     OW26272   2.842   1.573   7.286
 4919SOL    HW126273   2.822   1.617   7.198
 4919SOL    HW226274   2.881   1.482   7.270
 4920SOL     OW26275   3.721   1.518   7.191
 4920SOL    HW126276   3.735   1.545   7.096
 4920SOL    HW226277   3.804   1.540   7.244
 4921SOL     OW26278   2.212   0.898   7.390
 4921SOL    HW126279   2.288   0.942   7.438
 4921SOL    HW226280   2.247   0.851   7.308
 4922SOL     OW26281   3.402   0.274   5.711
 4922SOL    HW126282   3.341   0.199   5.734
 4922SOL    HW226283   3.424   0.326   5.794
 4923SOL     OW26284   3.165   0.838   5.628
 4923SOL    HW126285   3.199   0.745   5.643
 4923SOL    HW226286   3.183   0.865   5.533
 4924SOL     OW26287   2.930   1.333   6.435
 4924SOL    HW126288   2.937   1.249   6.380
 4924SOL    HW226289   2.992   1.402   6.399
 4925SOL     OW26290   2.181   0.810   6.535
 4925SOL    HW126291   2.274   0.846   6.540
 4925SOL    HW226292   2.175   0.725   6.587
 4926SOL     OW26293   2.201   0.509   6.592
 4926SOL    HW126294   2.149   0.426   6.575
 4926SOL    HW226295   2.278   0.514   6.528
 4927SOL     OW26296   3.000   0.380   7.264
 4927SOL    HW126297   2.955   0.443   7.328
 4927SOL    HW226298   3.093   0.411   7.247
 4928SOL     OW26299   3.022   0.207   7.063
 4928SOL    HW126300   3.022   0.271   7.140
 4928SOL    HW226301   3.050   0.255   6.980
 4929SOL     OW26302   1.870   1.326   5.786
 4929SOL    HW126303   1.777   1.347   5.755
 4929SOL    HW226304   1.880   1.227   5.799
 4930SOL     OW26305   1.950   1.801   6.513
 4930SOL    HW126306   1.908   1.715   6.486
 4930SOL    HW226307   2.044   1.804   6.479
 4931SOL     OW26308   2.366   1.568   6.496
 4931SOL    HW126309   2.432   1.642   6.505
 4931SOL    HW226310   2.410   1.489   6.454
 4932SOL     OW26311   2.864   0.796   6.824
 4932SOL    HW126312   2.905   0.764   6.910
 4932SOL    HW226313   2.768   0.769   6.821
 4933SOL     OW26314   1.902   0.544   6.700
 4933SOL    HW126315   1.987   0.511   6.659
 4933SOL    HW226316   1.915   0.559   6.798
 4934SOL     OW26317   2.051   0.520   7.308
 4934SOL    HW126318   2.110   0.480   7.238
 4934SOL    HW226319   1.993   0.591   7.267
 4935SOL     OW26320   3.231   0.950   7.246
 4935SOL    HW126321   3.270   1.039   7.266
 4935SOL    HW226322   3.241   0.930   7.149
 4936SOL     OW26323   2.677   0.572   5.911
 4936SOL    HW126324   2.684   0.483   5.865
 4936SOL    HW226325   2.583   0.606   5.903
 4937SOL     OW26326   3.519   0.604   6.792
 4937SOL    HW126327   3.481   0.535   6.854
 4937SOL    HW226328   3.601   0.568   6.748
 4938SOL     OW26329   2.114   1.564   7.330
 4938SOL    HW126330   2.084   1.621   7.406
 4938SOL    HW226331   2.107   1.467   7.356
 4939SOL     OW26332   2.533   0.464   6.855
 4939SOL    HW126333   2.499   0.375   6.825
 4939SOL    HW226334   2.559   0.518   6.775
 4940SOL     OW26335   2.792   1.678   7.051
 4940SOL    HW126336   2.768   1.660   6.956
 4940SOL    HW226337   2.822   1.772   7.061
 4941SOL     OW26338   2.335   0.500   5.777
 4941SOL    HW126339   2.396   0.580   5.781
 4941SOL    HW226340   2.240   0.531   5.784
 4942SOL     OW26341   2.021   1.137   7.052
 4942SOL    HW126342   2.043   1.076   7.128
 4942SOL    HW226343   2.031   1.088   6.966
 4943SOL     OW26344   3.209   1.059   6.820
 4943SOL    HW126345   3.233   0.996   6.746
 4943SOL    HW226346   3.119   1.099   6.802
 4944SOL     OW26347   3.164   0.855   5.895
 4944SOL    HW126348   3.078   0.824   5.937
 4944SOL    HW226349   3.160   0.841   5.796
 4945SOL     OW26350   3.621   1.747   6.740
 4945SOL    HW126351   3.682   1.777   6.667
 4945SOL    HW226352   3.583   1.658   6.718
 4946SOL     OW26353   3.114   1.731   6.714
 4946SOL    HW126354   3.198   1.736   6.660
 4946SOL    HW226355   3.091   1.635   6.732
 4947SOL     OW26356   1.945   1.258   6.608
 4947SOL    HW126357   1.940   1.257   6.708
 4947SOL    HW226358   1.862   1.217   6.570
 4948SOL     OW26359   2.550   1.662   7.302
 4948SOL    HW126360   2.494   1.743   7.311
 4948SOL    HW226361   2.602   1.666   7.216
 4949SOL     OW26362   3.588   0.135   6.109
 4949SOL    HW126363   3.661   0.118   6.042
 4949SOL    HW226364   3.557   0.048   6.147
 4950SOL     OW26365   3.250   1.573   6.063
 4950SOL    HW126366   3.317   1.585   5.989
 4950SOL    HW226367   3.210   1.662   6.086
 4951SOL     OW26368   1.992   1.794   7.437
 4951SOL    HW126369   1.951   1.720   7.490
 4951SOL    HW226370   2.056   1.845   7.495
 4952SOL     OW26371   3.142   0.927   6.258
 4952SOL    HW126372   3.202   0.846   6.260
 4952SOL    HW226373   3.182   0.996   6.198
 4953SOL     OW26374   2.692   1.273   7.008
 4953SOL    HW126375   2.687   1.306   7.103
 4953SOL    HW226376   2.606   1.292   6.962
 4954SOL     OW26377   2.534   1.616   5.740
 4954SOL    HW126378   2.543   1.626   5.641
 4954SOL    HW226379   2.494   1.527   5.761
 4955SOL     OW26380   3.512   1.720   6.980
 4955SOL    HW126381   3.565   1.730   6.896
 4955SOL    HW226382   3.485   1.810   7.014
 4956SOL     OW26383   3.703   0.175   6.549
 4956SOL    HW126384   3.742   0.090   6.513
 4956SOL    HW226385   3.605   0.177   6.530
 4957SOL     OW26386   2.125   0.326   6.306
 4957SOL    HW126387   2.046   0.377   6.272
 4957SOL    HW226388   2.116   0.311   6.404
 4958SOL     OW26389   3.056   1.612   5.617
 4958SOL    HW126390   3.062   1.519   5.654
 4958SOL    HW226391   2.997   1.612   5.537
 4959SOL     OW26392   2.684   1.002   6.958
 4959SOL    HW126393   2.724   1.001   6.866
 4959SOL    HW226394   2.694   1.094   6.998
 4960SOL     OW26395   2.778   0.910   5.877
 4960SOL    HW126396   2.841   0.948   5.809
 4960SOL    HW226397   2.818   0.827   5.916
 4961SOL     OW26398   3.366   1.607   5.630
 4961SOL    HW126399   3.274   1.644   5.637
 4961SOL    HW226400   3.404   1.627   5.540
 4962SOL     OW26401   2.234   1.288   7.076
 4962SOL    HW126402   2.221   1.381   7.042
 4962SOL    HW226403   2.150   1.236   7.063
 4963SOL     OW26404   3.476   1.292   6.875
 4963SOL    HW126405   3.536   1.295   6.955
 4963SOL    HW226406   3.401   1.356   6.888
 4964SOL     OW26407   2.901   1.098   6.282
 4964SOL    HW126408   2.831   1.051   6.336
 4964SOL    HW226409   2.960   1.030   6.239
 4965SOL     OW26410   2.876   0.236   6.557
 4965SOL    HW126411   2.868   0.200   6.464
 4965SOL    HW226412   2.874   0.160   6.622
 4966SOL     OW26413   2.452   1.487   6.077
 4966SOL    HW126414   2.494   1.429   6.007
 4966SOL    HW226415   2.408   1.566   6.033
 4967SOL     OW26416   3.571   0.385   6.967
 4967SOL    HW126417   3.644   0.454   6.971
 4967SOL    HW226418   3.599   0.310   6.908
 4968SOL     OW26419   2.117   1.348   5.876
 4968SOL    HW126420   2.021   1.349   5.849
 4968SOL    HW226421   2.129   1.401   5.960
 4969SOL     OW26422   1.967   1.013   7.312
 4969SOL    HW126423   1.890   0.980   7.366
 4969SOL    HW226424   2.052   0.983   7.354
 4970SOL     OW26425   2.534   0.203   7.075
 4970SOL    HW126426   2.624   0.187   7.035
 4970SOL    HW226427   2.542   0.208   7.174
 4971SOL     OW26428   1.937   0.345   5.619
 4971SOL    HW126429   1.845   0.317   5.590
 4971SOL    HW226430   1.968   0.422   5.563
 4972SOL     OW26431   3.302   0.856   6.984
 4972SOL    HW126432   3.245   0.908   6.921
 4972SOL    HW226433   3.398   0.868   6.960
 4973SOL     OW26434   1.934   0.166   5.904
 4973SOL    HW126435   1.917   0.249   5.850
 4973SOL    HW226436   2.024   0.129   5.882
 4974SOL     OW26437   3.045   1.335   5.705
 4974SOL    HW126438   2.946   1.324   5.707
 4974SOL    HW226439   3.079   1.350   5.798
 4975SOL     OW26440   2.475   0.842   7.017
 4975SOL    HW126441   2.531   0.923   7.000
 4975SOL    HW226442   2.534   0.762   7.020
 4976SOL     OW26443   3.355   1.767   6.545
 4976SOL    HW126444   3.388   1.831   6.476
 4976SOL    HW226445   3.421   1.761   6.620
 4977SOL     OW26446   2.578   0.565   7.294
 4977SOL    HW126447   2.597   0.630   7.368
 4977SOL    HW226448   2.638   0.485   7.303
 4978SOL     OW26449   3.312   1.220   7.219
 4978SOL    HW126450   3.303   1.210   7.318
 4978SOL    HW226451   3.408   1.213   7.193
 4979SOL     OW26452   2.252   1.741   7.146
 4979SOL    HW126453   2.161   1.782   7.144
 4979SOL    HW226454   2.245   1.647   7.178
 4980SOL     OW26455   3.536   0.883   6.840
 4980SOL    HW126456   3.509   0.794   6.803
 4980SOL    HW226457   3.537   0.951   6.767
 4981SOL     OW26458   3.087   0.325   6.035
 4981SOL    HW126459   3.152   0.251   6.024
 4981SOL    HW226460   3.107   0.375   6.119
 4982SOL     OW26461   2.456   0.745   6.238
 4982SOL    HW126462   2.506   0.830   6.219
 4982SOL    HW226463   2.368   0.747   6.190
 4983SOL     OW26464   3.639   0.342   7.228
 4983SOL    HW126465   3.622   0.373   7.134
 4983SOL    HW226466   3.555   0.305   7.266
 4984SOL     OW26467   3.592   0.934   7.103
 4984SOL    HW126468   3.630   1.025   7.118
 4984SOL    HW226469   3.584   0.917   7.004
 4985SOL     OW26470   2.721   1.374   5.602
 4985SOL    HW126471   2.675   1.389   5.690
 4985SOL    HW226472   2.765   1.459   5.572
 4986SOL     OW26473   2.523   1.790   6.539
 4986SOL    HW126474   2.477   1.878   6.526
 4986SOL    HW226475   2.622   1.802   6.532
 4987SOL     OW26476   2.721   0.956   6.447
 4987SOL    HW126477   2.775   0.887   6.495
 4987SOL    HW226478   2.689   1.025   6.513
 4988SOL     OW26479   2.945   0.984   5.673
 4988SOL    HW126480   2.922   1.037   5.591
 4988SOL    HW226481   3.026   0.928   5.654
 4989SOL     OW26482   3.723   1.569   6.437
 4989SOL    HW126483   3.652   1.557   6.367
 4989SOL    HW226484   3.724   1.490   6.497
 4990SOL     OW26485   2.083   1.314   7.430
 4990SOL    HW126486   2.018   1.241   7.409
 4990SOL    HW226487   2.087   1.328   7.528
 4991SOL     OW26488   1.941   1.240   6.239
 4991SOL    HW126489   1.940   1.193   6.327
 4991SOL    HW226490   2.023   1.212   6.188
 4992SOL     OW26491   2.534   1.391   7.210
 4992SOL    HW126492   2.456   1.341   7.248
 4992SOL    HW226493   2.531   1.486   7.241
 4993SOL     OW26494   3.686   0.192   6.813
 4993SOL    HW126495   3.682   0.102   6.857
 4993SOL    HW226496   3.689   0.181   6.714
 4994SOL     OW26497   2.290   0.424   6.106
 4994SOL    HW126498   2.320   0.352   6.044
 4994SOL    HW226499   2.251   0.384   6.189
 4995SOL     OW26500   3.567   1.487   6.690
 4995SOL    HW126501   3.474   1.462   6.663
 4995SOL    HW226502   3.593   1.437   6.772
 4996SOL     OW26503   2.179   0.547   6.866
 4996SOL    HW126504   2.217   0.488   6.938
 4996SOL    HW226505   2.219   0.521   6.778
 4997SOL     OW26506   2.674   1.586   6.273
 4997SOL    HW126507   2.706   1.596   6.179
 4997SOL    HW226508   2.595   1.524   6.275
 4998SOL     OW26509   3.286   0.214   6.698
 4998SOL    HW126510   3.338   0.149   6.753
 4998SOL    HW226511   3.237   0.277   6.759
 4999SOL     OW26512   2.863   0.034   6.740
 4999SOL    HW126513   2.800  -0.038   6.709
 4999SOL    HW226514   2.956  -0.002   6.740
 5000SOL     OW26515   2.632   1.330   5.887
 5000SOL    HW126516   2.586   1.243   5.904
 5000SOL    HW226517   2.723   1.327   5.928
 5001SOL     OW26518   2.480   1.567   6.870
 5001SOL    HW126519   2.475   1.649   6.927
 5001SOL    HW226520   2.569   1.564   6.825
 5002SOL     OW26521   3.214   0.052   5.754
 5002SOL    HW126522   3.249   0.011   5.670
 5002SOL    HW226523   3.124   0.014   5.774
 5003SOL     OW26524   3.162   0.453   6.277
 5003SOL    HW126525   3.103   0.533   6.281
 5003SOL    HW226526   3.177   0.418   6.370
 5004SOL     OW26527   3.455   0.221   6.468
 5004SOL    HW126528   3.371   0.220   6.522
 5004SOL    HW226529   3.457   0.304   6.412
 5005SOL     OW26530   1.901   1.077   5.886
 5005SOL    HW126531   2.000   1.066   5.877
 5005SOL    HW226532   1.861   0.991   5.918
 5006SOL     OW26533   2.737   1.646   5.923
 5006SOL    HW126534   2.660   1.611   5.869
 5006SOL    HW226535   2.705   1.717   5.985
 5007SOL     OW26536   2.092   0.628   7.561
 5007SOL    HW126537   1.999   0.626   7.598
 5007SOL    HW226538   2.093   0.589   7.469
 5008SOL     OW26539   2.087   0.275   8.444
 5008SOL    HW126540   2.122   0.258   8.536
 5008SOL    HW226541   1.999   0.230   8.432
 5009SOL     OW26542   1.881   0.368   8.095
 5009SOL    HW126543   1.799   0.411   8.134
 5009SOL    HW226544   1.853   0.295   8.032
 5010SOL     OW26545   2.431   1.275   8.613
 5010SOL    HW126546   2.338   1.268   8.576
 5010SOL    HW226547   2.442   1.364   8.657
 5011SOL     OW26548   3.417   1.511   8.151
 5011SOL    HW126549   3.360   1.495   8.232
 5011SOL    HW226550   3.358   1.521   8.071
 5012SOL     OW26551   2.997   0.703   8.165
 5012SOL    HW126552   3.054   0.781   8.140
 5012SOL    HW226553   2.937   0.729   8.241
 5013SOL     OW26554   3.617   0.607   7.679
 5013SOL    HW126555   3.605   0.594   7.580
 5013SOL    HW226556   3.587   0.526   7.728
 5014SOL     OW26557   2.630   1.144   8.471
 5014SOL    HW126558   2.552   1.161   8.531
 5014SOL    HW226559   2.664   1.231   8.435
 5015SOL     OW26560   2.547   1.012   8.113
 5015SOL    HW126561   2.616   0.996   8.183
 5015SOL    HW226562   2.474   1.069   8.151
 5016SOL     OW26563   2.548   1.161   9.251
 5016SOL    HW126564   2.608   1.240   9.265
 5016SOL    HW226565   2.462   1.192   9.210
 5017SOL     OW26566   2.197   1.435   8.509
 5017SOL    HW126567   2.119   1.404   8.456
 5017SOL    HW226568   2.255   1.493   8.452
 5018SOL     OW26569   3.322   1.505   8.787
 5018SOL    HW126570   3.346   1.599   8.813
 5018SOL    HW226571   3.306   1.451   8.869
 5019SOL     OW26572   2.300   0.392   8.947
 5019SOL    HW126573   2.382   0.336   8.956
 5019SOL    HW226574   2.219   0.334   8.951
 5020SOL     OW26575   3.465   0.447   8.185
 5020SOL    HW126576   3.391   0.493   8.135
 5020SOL    HW226577   3.516   0.515   8.238
 5021SOL     OW26578   2.093   1.713   7.931
 5021SOL    HW126579   2.127   1.790   7.985
 5021SOL    HW226580   2.137   1.713   7.841
 5022SOL     OW26581   2.989   1.341   9.138
 5022SOL    HW126582   3.036   1.341   9.226
 5022SOL    HW226583   2.941   1.254   9.127
 5023SOL     OW26584   2.092   1.434   7.986
 5023SOL    HW126585   2.066   1.530   7.986
 5023SOL    HW226586   2.021   1.380   8.031
 5024SOL     OW26587   2.102   1.091   8.334
 5024SOL    HW126588   2.116   1.007   8.386
 5024SOL    HW226589   2.047   1.155   8.389
 5025SOL     OW26590   2.482   1.786   8.887
 5025SOL    HW126591   2.390   1.769   8.922
 5025SOL    HW226592   2.510   1.878   8.913
 5026SOL     OW26593   2.468   0.964   7.571
 5026SOL    HW126594   2.475   1.048   7.517
 5026SOL    HW226595   2.514   0.977   7.659
 5027SOL     OW26596   3.456   0.114   8.928
 5027SOL    HW126597   3.438   0.181   8.856
 5027SOL    HW226598   3.453   0.160   9.017
 5028SOL     OW26599   1.984   0.643   8.011
 5028SOL    HW126600   1.939   0.555   8.028
 5028SOL    HW226601   1.983   0.697   8.095
 5029SOL     OW26602   3.704   1.767   7.807
 5029SOL    HW126603   3.758   1.738   7.887
 5029SOL    HW226604   3.734   1.857   7.778
 5030SOL     OW26605   1.889   1.596   7.565
 5030SOL    HW126606   1.870   1.500   7.586
 5030SOL    HW226607   1.856   1.654   7.640
 5031SOL     OW26608   3.551   0.922   8.060
 5031SOL    HW126609   3.646   0.893   8.068
 5031SOL    HW226610   3.543   0.987   7.985
 5032SOL     OW26611   3.503   1.108   7.880
 5032SOL    HW126612   3.589   1.110   7.828
 5032SOL    HW226613   3.517   1.155   7.968
 5033SOL     OW26614   1.975   0.737   9.045
 5033SOL    HW126615   2.063   0.724   9.090
 5033SOL    HW226616   1.962   0.834   9.023
 5034SOL     OW26617   2.475   1.365   8.174
 5034SOL    HW126618   2.426   1.278   8.183
 5034SOL    HW226619   2.452   1.408   8.087
 5035SOL     OW26620   3.155   1.228   8.871
 5035SOL    HW126621   3.192   1.155   8.813
 5035SOL    HW226622   3.207   1.233   8.956
 5036SOL     OW26623   2.671   0.004   7.950
 5036SOL    HW126624   2.711   0.095   7.941
 5036SOL    HW226625   2.571   0.012   7.956
 5037SOL     OW26626   2.059   0.976   8.712
 5037SOL    HW126627   2.148   0.931   8.698
 5037SOL    HW226628   1.986   0.911   8.693
 5038SOL     OW26629   3.387   0.999   7.638
 5038SOL    HW126630   3.324   0.923   7.651
 5038SOL    HW226631   3.435   1.017   7.724
 5039SOL     OW26632   3.049   1.792   9.064
 5039SOL    HW126633   3.073   1.852   8.988
 5039SOL    HW226634   3.056   1.697   9.034
 5040SOL     OW26635   3.328   1.417   8.401
 5040SOL    HW126636   3.269   1.423   8.481
 5040SOL    HW226637   3.313   1.329   8.355
 5041SOL     OW26638   3.529   1.714   8.020
 5041SOL    HW126639   3.488   1.691   7.932
 5041SOL    HW226640   3.511   1.640   8.085
 5042SOL     OW26641   2.460   0.729   7.718
 5042SOL    HW126642   2.484   0.798   7.650
 5042SOL    HW226643   2.382   0.762   7.772
 5043SOL     OW26644   3.143   0.345   8.392
 5043SOL    HW126645   3.057   0.295   8.379
 5043SOL    HW226646   3.205   0.291   8.448
 5044SOL     OW26647   3.438   1.662   7.755
 5044SOL    HW126648   3.527   1.708   7.758
 5044SOL    HW226649   3.417   1.638   7.660
 5045SOL     OW26650   3.256   0.469   9.122
 5045SOL    HW126651   3.236   0.512   9.210
 5045SOL    HW226652   3.334   0.407   9.131
 5046SOL     OW26653   2.853   0.410   8.690
 5046SOL    HW126654   2.776   0.444   8.744
 5046SOL    HW226655   2.819   0.359   8.611
 5047SOL     OW26656   2.903   0.701   7.877
 5047SOL    HW126657   2.929   0.697   7.973
 5047SOL    HW226658   2.818   0.650   7.863
 5048SOL     OW26659   1.938   0.811   8.237
 5048SOL    HW126660   2.037   0.799   8.246
 5048SOL    HW226661   1.914   0.906   8.258
 5049SOL     OW26662   1.992   1.821   9.019
 5049SOL    HW126663   1.982   1.806   9.118
 5049SOL    HW226664   1.906   1.857   8.983
 5050SOL     OW26665   2.727   0.348   7.643
 5050SOL    HW126666   2.786   0.411   7.594
 5050SOL    HW226667   2.746   0.254   7.614
 5051SOL     OW26668   3.581   0.585   9.279
 5051SOL    HW126669   3.555   0.674   9.243
 5051SOL    HW226670   3.579   0.517   9.206
 5052SOL     OW26671   3.224   1.144   7.993
 5052SOL    HW126672   3.307   1.115   7.945
 5052SOL    HW226673   3.175   1.211   7.937
 5053SOL     OW26674   2.412   0.196   8.333
 5053SOL    HW126675   2.407   0.191   8.433
 5053SOL    HW226676   2.414   0.292   8.304
 5054SOL     OW26677   2.870   1.456   7.925
 5054SOL    HW126678   2.824   1.528   7.873
 5054SOL    HW226679   2.866   1.476   8.023
 5055SOL     OW26680   2.213   1.801   8.301
 5055SOL    HW126681   2.263   1.715   8.307
 5055SOL    HW226682   2.278   1.878   8.298
 5056SOL     OW26683   3.657   1.066   8.321
 5056SOL    HW126684   3.595   1.051   8.245
 5056SOL    HW226685   3.605   1.077   8.406
 5057SOL     OW26686   3.089   1.550   8.954
 5057SOL    HW126687   3.095   1.473   9.018
 5057SOL    HW226688   3.037   1.524   8.874
 5058SOL     OW26689   2.183   0.943   7.690
 5058SOL    HW126690   2.265   0.982   7.648
 5058SOL    HW226691   2.156   0.861   7.641
 5059SOL     OW26692   3.320   0.735   8.176
 5059SOL    HW126693   3.315   0.670   8.251
 5059SOL    HW226694   3.400   0.794   8.189
 5060SOL     OW26695   2.323   1.266   9.175
 5060SOL    HW126696   2.273   1.267   9.089
 5060SOL    HW226697   2.260   1.248   9.251
 5061SOL     OW26698   2.973   1.776   7.685
 5061SOL    HW126699   2.913   1.714   7.735
 5061SOL    HW226700   3.004   1.732   7.600
 5062SOL     OW26701   3.494   1.377   7.529
 5062SOL    HW126702   3.462   1.471   7.519
 5062SOL    HW226703   3.418   1.314   7.517
 5063SOL     OW26704   2.326   1.743   7.771
 5063SOL    HW126705   2.359   1.782   7.857
 5063SOL    HW226706   2.402   1.736   7.706
 5064SOL     OW26707   3.262   0.107   7.874
 5064SOL    HW126708   3.238   0.070   7.784
 5064SOL    HW226709   3.361   0.123   7.878
 5065SOL     OW26710   2.111   1.785   8.689
 5065SOL    HW126711   2.168   1.720   8.739
 5065SOL    HW226712   2.095   1.752   8.596
 5066SOL     OW26713   2.802   1.698   8.352
 5066SOL    HW126714   2.882   1.641   8.373
 5066SOL    HW226715   2.753   1.658   8.275
 5067SOL     OW26716   2.244   0.700   7.928
 5067SOL    HW126717   2.289   0.610   7.925
 5067SOL    HW226718   2.150   0.689   7.961
 5068SOL     OW26719   3.409   0.222   9.177
 5068SOL    HW126720   3.404   0.259   9.269
 5068SOL    HW226721   3.337   0.153   9.165
 5069SOL     OW26722   2.476   0.122   7.565
 5069SOL    HW126723   2.574   0.100   7.572
 5069SOL    HW226724   2.445   0.105   7.472
 5070SOL     OW26725   2.643   0.264   9.197
 5070SOL    HW126726   2.710   0.203   9.240
 5070SOL    HW226727   2.570   0.283   9.262
 5071SOL     OW26728   2.750   1.514   8.643
 5071SOL    HW126729   2.727   1.489   8.549
 5071SOL    HW226730   2.811   1.445   8.682
 5072SOL     OW26731   3.213   0.590   8.881
 5072SOL    HW126732   3.241   0.547   8.966
 5072SOL    HW226733   3.238   0.686   8.882
 5073SOL     OW26734   2.665   1.402   8.372
 5073SOL    HW126735   2.755   1.416   8.330
 5073SOL    HW226736   2.594   1.404   8.301
 5074SOL     OW26737   2.784   0.503   8.347
 5074SOL    HW126738   2.759   0.494   8.251
 5074SOL    HW226739   2.832   0.421   8.378
 5075SOL     OW26740   2.401   0.064   7.960
 5075SOL    HW126741   2.320   0.065   8.018
 5075SOL    HW226742   2.404   0.147   7.905
 5076SOL     OW26743   3.296   1.188   7.489
 5076SOL    HW126744   3.328   1.112   7.546
 5076SOL    HW226745   3.204   1.215   7.519
 5077SOL     OW26746   2.159   0.035   7.619
 5077SOL    HW126747   2.208   0.119   7.598
 5077SOL    HW226748   2.221  -0.030   7.664
 5078SOL     OW26749   2.797   0.236   7.928
 5078SOL    HW126750   2.749   0.277   7.850
 5078SOL    HW226751   2.896   0.234   7.909
 5079SOL     OW26752   3.089   1.570   8.241
 5079SOL    HW126753   3.110   1.644   8.176
 5079SOL    HW226754   3.157   1.570   8.314
 5080SOL     OW26755   2.321   1.152   8.189
 5080SOL    HW126756   2.250   1.125   8.254
 5080SOL    HW226757   2.295   1.124   8.096
 5081SOL     OW26758   3.133   1.797   8.039
 5081SOL    HW126759   3.177   1.861   7.975
 5081SOL    HW226760   3.083   1.849   8.109
 5082SOL     OW26761   2.894   0.549   7.464
 5082SOL    HW126762   2.853   0.631   7.425
 5082SOL    HW226763   2.958   0.575   7.537
 5083SOL     OW26764   1.940   0.556   8.834
 5083SOL    HW126765   2.032   0.555   8.793
 5083SOL    HW226766   1.934   0.630   8.901
 5084SOL     OW26767   2.423   0.222   8.595
 5084SOL    HW126768   2.461   0.138   8.632
 5084SOL    HW226769   2.335   0.241   8.639
 5085SOL     OW26770   2.728   0.454   8.090
 5085SOL    HW126771   2.696   0.526   8.028
 5085SOL    HW226772   2.752   0.373   8.037
 5086SOL     OW26773   2.879   0.039   8.201
 5086SOL    HW126774   2.807   0.044   8.132
 5086SOL    HW226775   2.855  -0.030   8.270
 5087SOL     OW26776   3.291   1.173   8.315
 5087SOL    HW126777   3.236   1.089   8.308
 5087SOL    HW226778   3.317   1.202   8.223
 5088SOL     OW26779   3.328   0.590   8.440
 5088SOL    HW126780   3.298   0.495   8.447
 5088SOL    HW226781   3.401   0.606   8.506
 5089SOL     OW26782   3.719   0.833   7.825
 5089SOL    HW126783   3.761   0.769   7.889
 5089SOL    HW226784   3.681   0.782   7.747
 5090SOL     OW26785   2.350   1.385   7.622
 5090SOL    HW126786   2.263   1.370   7.669
 5090SOL    HW226787   2.333   1.411   7.527
 5091SOL     OW26788   3.526   1.280   8.105
 5091SOL    HW126789   3.625   1.288   8.119
 5091SOL    HW226790   3.481   1.364   8.136
 5092SOL     OW26791   3.252   0.575   7.526
 5092SOL    HW126792   3.198   0.554   7.607
 5092SOL    HW226793   3.343   0.534   7.535
 5093SOL     OW26794   2.389   0.256   7.776
 5093SOL    HW126795   2.416   0.197   7.701
 5093SOL    HW226796   2.389   0.351   7.745
 5094SOL     OW26797   3.616   1.223   9.036
 5094SOL    HW126798   3.707   1.184   9.023
 5094SOL    HW226799   3.624   1.319   9.060
 5095SOL     OW26800   2.926   1.347   8.788
 5095SOL    HW126801   2.846   1.324   8.843
 5095SOL    HW226802   3.009   1.321   8.837
 5096SOL     OW26803   3.454   1.629   9.073
 5096SOL    HW126804   3.481   1.663   8.983
 5096SOL    HW226805   3.533   1.591   9.119
 5097SOL     OW26806   2.973   1.195   8.548
 5097SOL    HW126807   2.933   1.239   8.629
 5097SOL    HW226808   2.932   1.232   8.465
 5098SOL     OW26809   3.500   1.099   8.527
 5098SOL    HW126810   3.505   1.180   8.586
 5098SOL    HW226811   3.414   1.101   8.476
 5099SOL     OW26812   2.777   0.089   8.850
 5099SOL    HW126813   2.802   0.069   8.755
 5099SOL    HW226814   2.849   0.145   8.892
 5100SOL     OW26815   2.567   1.050   7.816
 5100SOL    HW126816   2.553   1.057   7.915
 5100SOL    HW226817   2.651   0.999   7.798
 5101SOL     OW26818   2.272   0.813   8.699
 5101SOL    HW126819   2.358   0.825   8.749
 5101SOL    HW226820   2.230   0.726   8.726
 5102SOL     OW26821   3.136   0.386   8.710
 5102SOL    HW126822   3.157   0.460   8.774
 5102SOL    HW226823   3.047   0.403   8.667
 5103SOL     OW26824   1.926   1.564   8.779
 5103SOL    HW126825   1.880   1.646   8.745
 5103SOL    HW226826   2.024   1.583   8.788
 5104SOL     OW26827   2.229   1.100   7.949
 5104SOL    HW126828   2.222   1.183   7.893
 5104SOL    HW226829   2.233   1.020   7.889
 5105SOL     OW26830   2.428   0.537   8.313
 5105SOL    HW126831   2.440   0.603   8.239
 5105SOL    HW226832   2.474   0.571   8.396
 5106SOL     OW26833   3.114   1.348   7.836
 5106SOL    HW126834   3.164   1.425   7.876
 5106SOL    HW226835   3.019   1.350   7.868
 5107SOL     OW26836   3.134   1.445   8.590
 5107SOL    HW126837   3.181   1.458   8.677
 5107SOL    HW226838   3.068   1.371   8.599
 5108SOL     OW26839   3.444   0.639   7.920
 5108SOL    HW126840   3.413   0.700   7.993
 5108SOL    HW226841   3.494   0.691   7.851
 5109SOL     OW26842   2.216   1.510   8.777
 5109SOL    HW126843   2.195   1.466   8.690
 5109SOL    HW226844   2.313   1.536   8.780
 5110SOL     OW26845   3.449   0.779   9.118
 5110SOL    HW126846   3.357   0.817   9.113
 5110SOL    HW226847   3.509   0.826   9.053
 5111SOL     OW26848   2.435   0.870   8.477
 5111SOL    HW126849   2.479   0.959   8.468
 5111SOL    HW226850   2.372   0.870   8.554
 5112SOL     OW26851   3.222   0.862   8.493
 5112SOL    HW126852   3.147   0.862   8.427
 5112SOL    HW226853   3.259   0.770   8.502
 5113SOL     OW26854   3.071   0.525   7.723
 5113SOL    HW126855   3.084   0.441   7.777
 5113SOL    HW226856   3.042   0.599   7.783
 5114SOL     OW26857   2.169   0.213   8.679
 5114SOL    HW126858   2.146   0.250   8.769
 5114SOL    HW226859   2.139   0.118   8.673
 5115SOL     OW26860   1.899   1.310   8.730
 5115SOL    HW126861   1.952   1.261   8.798
 5115SOL    HW226862   1.921   1.408   8.735
 5116SOL     OW26863   2.594   0.634   8.512
 5116SOL    HW126864   2.653   0.608   8.436
 5116SOL    HW226865   2.566   0.730   8.501
 5117SOL     OW26866   3.590   0.935   9.302
 5117SOL    HW126867   3.544   0.928   9.213
 5117SOL    HW226868   3.528   0.979   9.368
 5118SOL     OW26869   2.169   0.063   8.066
 5118SOL    HW126870   2.158   0.157   8.099
 5118SOL    HW226871   2.164   0.000   8.143
 5119SOL     OW26872   3.484   0.367   7.822
 5119SOL    HW126873   3.486   0.291   7.886
 5119SOL    HW226874   3.436   0.444   7.862
 5120SOL     OW26875   2.885   0.766   8.414
 5120SOL    HW126876   2.900   0.787   8.510
 5120SOL    HW226877   2.855   0.671   8.405
 5121SOL     OW26878   2.842   1.573   9.148
 5121SOL    HW126879   2.822   1.617   9.060
 5121SOL    HW226880   2.881   1.482   9.132
 5122SOL     OW26881   3.721   1.518   9.053
 5122SOL    HW126882   3.735   1.545   8.958
 5122SOL    HW226883   3.804   1.540   9.106
 5123SOL     OW26884   3.402   0.274   7.573
 5123SOL    HW126885   3.341   0.199   7.596
 5123SOL    HW226886   3.424   0.326   7.656
 5124SOL     OW26887   3.165   0.838   7.490
 5124SOL    HW126888   3.199   0.745   7.505
 5124SOL    HW226889   3.183   0.865   7.395
 5125SOL     OW26890   2.930   1.333   8.297
 5125SOL    HW126891   2.937   1.249   8.242
 5125SOL    HW226892   2.992   1.402   8.261
 5126SOL     OW26893   2.181   0.810   8.397
 5126SOL    HW126894   2.274   0.846   8.402
 5126SOL    HW226895   2.175   0.725   8.449
 5127SOL     OW26896   2.201   0.509   8.454
 5127SOL    HW126897   2.149   0.426   8.437
 5127SOL    HW226898   2.278   0.514   8.390
 5128SOL     OW26899   3.000   0.380   9.126
 5128SOL    HW126900   2.955   0.443   9.190
 5128SOL    HW226901   3.093   0.411   9.109
 5129SOL     OW26902   3.022   0.207   8.925
 5129SOL    HW126903   3.022   0.271   9.002
 5129SOL    HW226904   3.050   0.255   8.842
 5130SOL     OW26905   1.870   1.326   7.648
 5130SOL    HW126906   1.777   1.347   7.617
 5130SOL    HW226907   1.880   1.227   7.661
 5131SOL     OW26908   1.950   1.801   8.375
 5131SOL    HW126909   1.908   1.715   8.348
 5131SOL    HW226910   2.044   1.804   8.341
 5132SOL     OW26911   2.366   1.568   8.358
 5132SOL    HW126912   2.432   1.642   8.367
 5132SOL    HW226913   2.410   1.489   8.316
 5133SOL     OW26914   2.864   0.796   8.686
 5133SOL    HW126915   2.905   0.764   8.772
 5133SOL    HW226916   2.768   0.769   8.683
 5134SOL     OW26917   1.902   0.544   8.562
 5134SOL    HW126918   1.987   0.511   8.521
 5134SOL    HW226919   1.915   0.559   8.660
 5135SOL     OW26920   3.231   0.950   9.108
 5135SOL    HW126921   3.270   1.039   9.128
 5135SOL    HW226922   3.241   0.930   9.011
 5136SOL     OW26923   2.677   0.572   7.773
 5136SOL    HW126924   2.684   0.483   7.727
 5136SOL    HW226925   2.583   0.606   7.765
 5137SOL     OW26926   3.519   0.604   8.654
 5137SOL    HW126927   3.481   0.535   8.716
 5137SOL    HW226928   3.601   0.568   8.610
 5138SOL     OW26929   2.533   0.464   8.717
 5138SOL    HW126930   2.499   0.375   8.687
 5138SOL    HW226931   2.559   0.518   8.637
 5139SOL     OW26932   2.792   1.678   8.913
 5139SOL    HW126933   2.768   1.660   8.818
 5139SOL    HW226934   2.822   1.772   8.923
 5140SOL     OW26935   2.335   0.500   7.639
 5140SOL    HW126936   2.396   0.580   7.643
 5140SOL    HW226937   2.240   0.531   7.646
 5141SOL     OW26938   2.021   1.137   8.914
 5141SOL    HW126939   2.043   1.076   8.990
 5141SOL    HW226940   2.031   1.088   8.828
 5142SOL     OW26941   3.209   1.059   8.682
 5142SOL    HW126942   3.233   0.996   8.608
 5142SOL    HW226943   3.119   1.099   8.664
 5143SOL     OW26944   3.164   0.855   7.757
 5143SOL    HW126945   3.078   0.824   7.799
 5143SOL    HW226946   3.160   0.841   7.658
 5144SOL     OW26947   3.621   1.747   8.602
 5144SOL    HW126948   3.682   1.777   8.529
 5144SOL    HW226949   3.583   1.658   8.580
 5145SOL     OW26950   3.114   1.731   8.576
 5145SOL    HW126951   3.198   1.736   8.522
 5145SOL    HW226952   3.091   1.635   8.594
 5146SOL     OW26953   1.945   1.258   8.470
 5146SOL    HW126954   1.940   1.257   8.570
 5146SOL    HW226955   1.862   1.217   8.432
 5147SOL     OW26956   2.550   1.662   9.164
 5147SOL    HW126957   2.494   1.743   9.173
 5147SOL    HW226958   2.602   1.666   9.078
 5148SOL     OW26959   3.588   0.135   7.971
 5148SOL    HW126960   3.661   0.118   7.904
 5148SOL    HW226961   3.557   0.048   8.009
 5149SOL     OW26962   3.250   1.573   7.925
 5149SOL    HW126963   3.317   1.585   7.851
 5149SOL    HW226964   3.210   1.662   7.948
 5150SOL     OW26965   3.142   0.927   8.120
 5150SOL    HW126966   3.202   0.846   8.122
 5150SOL    HW226967   3.182   0.996   8.060
 5151SOL     OW26968   2.692   1.273   8.870
 5151SOL    HW126969   2.687   1.306   8.965
 5151SOL    HW226970   2.606   1.292   8.824
 5152SOL     OW26971   2.534   1.616   7.602
 5152SOL    HW126972   2.543   1.626   7.503
 5152SOL    HW226973   2.494   1.527   7.623
 5153SOL     OW26974   3.512   1.720   8.842
 5153SOL    HW126975   3.565   1.730   8.758
 5153SOL    HW226976   3.485   1.810   8.876
 5154SOL     OW26977   3.703   0.175   8.411
 5154SOL    HW126978   3.742   0.090   8.375
 5154SOL    HW226979   3.605   0.177   8.392
 5155SOL     OW26980   2.125   0.326   8.168
 5155SOL    HW126981   2.046   0.377   8.134
 5155SOL    HW226982   2.116   0.311   8.266
 5156SOL     OW26983   3.056   1.612   7.479
 5156SOL    HW126984   3.062   1.519   7.516
 5156SOL    HW226985   2.997   1.612   7.399
 5157SOL     OW26986   2.684   1.002   8.820
 5157SOL    HW126987   2.724   1.001   8.728
 5157SOL    HW226988   2.694   1.094   8.860
 5158SOL     OW26989   2.778   0.910   7.739
 5158SOL    HW126990   2.841   0.948   7.671
 5158SOL    HW226991   2.818   0.827   7.778
 5159SOL     OW26992   3.366   1.607   7.492
 5159SOL    HW126993   3.274   1.644   7.499
 5159SOL    HW226994   3.404   1.627   7.402
 5160SOL     OW26995   2.234   1.288   8.938
 5160SOL    HW126996   2.221   1.381   8.904
 5160SOL    HW226997   2.150   1.236   8.925
 5161SOL     OW26998   3.476   1.292   8.737
 5161SOL    HW126999   3.536   1.295   8.817
 5161SOL    HW227000   3.401   1.356   8.750
 5162SOL     OW27001   2.901   1.098   8.144
 5162SOL    HW127002   2.831   1.051   8.198
 5162SOL    HW227003   2.960   1.030   8.101
 5163SOL     OW27004   2.876   0.236   8.419
 5163SOL    HW127005   2.868   0.200   8.326
 5163SOL    HW227006   2.874   0.160   8.484
 5164SOL     OW27007   2.452   1.487   7.939
 5164SOL    HW127008   2.494   1.429   7.869
 5164SOL    HW227009   2.408   1.566   7.895
 5165SOL     OW27010   3.571   0.385   8.829
 5165SOL    HW127011   3.644   0.454   8.833
 5165SOL    HW227012   3.599   0.310   8.770
 5166SOL     OW27013   2.117   1.348   7.738
 5166SOL    HW127014   2.021   1.349   7.711
 5166SOL    HW227015   2.129   1.401   7.822
 5167SOL     OW27016   2.534   0.203   8.937
 5167SOL    HW127017   2.624   0.187   8.897
 5167SOL    HW227018   2.542   0.208   9.036
 5168SOL     OW27019   1.937   0.345   7.481
 5168SOL    HW127020   1.845   0.317   7.452
 5168SOL    HW227021   1.968   0.422   7.425
 5169SOL     OW27022   3.302   0.856   8.846
 5169SOL    HW127023   3.245   0.908   8.783
 5169SOL    HW227024   3.398   0.868   8.822
 5170SOL     OW27025   1.934   0.166   7.766
 5170SOL    HW127026   1.917   0.249   7.712
 5170SOL    HW227027   2.024   0.129   7.744
 5171SOL     OW27028   3.045   1.335   7.567
 5171SOL    HW127029   2.946   1.324   7.569
 5171SOL    HW227030   3.079   1.350   7.660
 5172SOL     OW27031   2.475   0.842   8.879
 5172SOL    HW127032   2.531   0.923   8.862
 5172SOL    HW227033   2.534   0.762   8.882
 5173SOL     OW27034   3.355   1.767   8.407
 5173SOL    HW127035   3.388   1.831   8.338
 5173SOL    HW227036   3.421   1.761   8.482
 5174SOL     OW27037   3.312   1.220   9.081
 5174SOL    HW127038   3.303   1.210   9.180
 5174SOL    HW227039   3.408   1.213   9.055
 5175SOL     OW27040   2.252   1.741   9.008
 5175SOL    HW127041   2.161   1.782   9.006
 5175SOL    HW227042   2.245   1.647   9.040
 5176SOL     OW27043   3.536   0.883   8.702
 5176SOL    HW127044   3.509   0.794   8.665
 5176SOL    HW227045   3.537   0.951   8.629
 5177SOL     OW27046   3.087   0.325   7.897
 5177SOL    HW127047   3.152   0.251   7.886
 5177SOL    HW227048   3.107   0.375   7.981
 5178SOL     OW27049   2.456   0.745   8.100
 5178SOL    HW127050   2.506   0.830   8.081
 5178SOL    HW227051   2.368   0.747   8.052
 5179SOL     OW27052   3.639   0.342   9.090
 5179SOL    HW127053   3.622   0.373   8.996
 5179SOL    HW227054   3.555   0.305   9.128
 5180SOL     OW27055   3.592   0.934   8.965
 5180SOL    HW127056   3.630   1.025   8.980
 5180SOL    HW227057   3.584   0.917   8.866
 5181SOL     OW27058   2.721   1.374   7.464
 5181SOL    HW127059   2.675   1.389   7.552
 5181SOL    HW227060   2.765   1.459   7.434
 5182SOL     OW27061   2.523   1.790   8.401
 5182SOL    HW127062   2.477   1.878   8.388
 5182SOL    HW227063   2.622   1.802   8.394
 5183SOL     OW27064   2.721   0.956   8.309
 5183SOL    HW127065   2.775   0.887   8.357
 5183SOL    HW227066   2.689   1.025   8.375
 5184SOL     OW27067   2.945   0.984   7.535
 5184SOL    HW127068   2.922   1.037   7.453
 5184SOL    HW227069   3.026   0.928   7.516
 5185SOL     OW27070   3.723   1.569   8.299
 5185SOL    HW127071   3.652   1.557   8.229
 5185SOL    HW227072   3.724   1.490   8.359
 5186SOL     OW27073   1.941   1.240   8.101
 5186SOL    HW127074   1.940   1.193   8.189
 5186SOL    HW227075   2.023   1.212   8.050
 5187SOL     OW27076   2.534   1.391   9.072
 5187SOL    HW127077   2.456   1.341   9.110
 5187SOL    HW227078   2.531   1.486   9.103
 5188SOL     OW27079   3.686   0.192   8.675
 5188SOL    HW127080   3.682   0.102   8.719
 5188SOL    HW227081   3.689   0.181   8.576
 5189SOL     OW27082   2.290   0.424   7.968
 5189SOL    HW127083   2.320   0.352   7.906
 5189SOL    HW227084   2.251   0.384   8.051
 5190SOL     OW27085   3.567   1.487   8.552
 5190SOL    HW127086   3.474   1.462   8.525
 5190SOL    HW227087   3.593   1.437   8.634
 5191SOL     OW27088   2.179   0.547   8.728
 5191SOL    HW127089   2.217   0.488   8.800
 5191SOL    HW227090   2.219   0.521   8.640
 5192SOL     OW27091   2.674   1.586   8.135
 5192SOL    HW127092   2.706   1.596   8.041
 5192SOL    HW227093   2.595   1.524   8.137
 5193SOL     OW27094   3.286   0.214   8.560
 5193SOL    HW127095   3.338   0.149   8.615
 5193SOL    HW227096   3.237   0.277   8.621
 5194SOL     OW27097   2.863   0.034   8.602
 5194SOL    HW127098   2.800  -0.038   8.571
 5194SOL    HW227099   2.956  -0.002   8.602
 5195SOL     OW27100   2.632   1.330   7.749
 5195SOL    HW127101   2.586   1.243   7.766
 5195SOL    HW227102   2.723   1.327   7.790
 5196SOL     OW27103   2.480   1.567   8.732
 5196SOL    HW127104   2.475   1.649   8.789
 5196SOL    HW227105   2.569   1.564   8.687
 5197SOL     OW27106   3.214   0.052   7.616
 5197SOL    HW127107   3.249   0.011   7.532
 5197SOL    HW227108   3.124   0.014   7.636
 5198SOL     OW27109   3.162   0.453   8.139
 5198SOL    HW127110   3.103   0.533   8.143
 5198SOL    HW227111   3.177   0.418   8.232
 5199SOL     OW27112   3.455   0.221   8.330
 5199SOL    HW127113   3.371   0.220   8.384
 5199SOL    HW227114   3.457   0.304   8.274
 5200SOL     OW27115   1.901   1.077   7.748
 5200SOL    HW127116   2.000   1.066   7.739
 5200SOL    HW227117   1.861   0.991   7.780
 5201SOL     OW27118   2.737   1.646   7.785
 5201SOL    HW127119   2.660   1.611   7.731
 5201SOL    HW227120   2.705   1.717   7.847
 5202SOL     OW27121   2.087   0.275  10.306
 5202SOL    HW127122   2.122   0.258  10.398
 5202SOL    HW227123   1.999   0.230  10.294
 5203SOL     OW27124   1.881   0.368   9.957
 5203SOL    HW127125   1.799   0.411   9.996
 5203SOL    HW227126   1.853   0.295   9.894
 5204SOL     OW27127   3.417   1.511  10.013
 5204SOL    HW127128   3.360   1.495  10.094
 5204SOL    HW227129   3.358   1.521   9.933
 5205SOL     OW27130   3.617   0.607   9.541
 5205SOL    HW127131   3.605   0.594   9.442
 5205SOL    HW227132   3.587   0.526   9.590
 5206SOL     OW27133   2.712   0.798  11.133
 5206SOL    HW127134   2.708   0.874  11.198
 5206SOL    HW227135   2.734   0.834  11.042
 5207SOL     OW27136   2.548   1.161  11.113
 5207SOL    HW127137   2.608   1.240  11.127
 5207SOL    HW227138   2.462   1.192  11.072
 5208SOL     OW27139   3.704   1.767   9.669
 5208SOL    HW127140   3.758   1.738   9.749
 5208SOL    HW227141   3.734   1.857   9.640
 5209SOL     OW27142   3.503   1.108   9.742
 5209SOL    HW127143   3.589   1.110   9.690
 5209SOL    HW227144   3.517   1.155   9.830
 5210SOL     OW27145   2.475   1.365  10.036
 5210SOL    HW127146   2.426   1.278  10.045
 5210SOL    HW227147   2.452   1.408   9.949
 5211SOL     OW27148   3.387   0.999   9.500
 5211SOL    HW127149   3.324   0.923   9.513
 5211SOL    HW227150   3.435   1.017   9.586
 5212SOL     OW27151   3.049   1.792  10.926
 5212SOL    HW127152   3.073   1.852  10.850
 5212SOL    HW227153   3.056   1.697  10.896
 5213SOL     OW27154   3.328   1.417  10.263
 5213SOL    HW127155   3.269   1.423  10.343
 5213SOL    HW227156   3.313   1.329  10.217
 5214SOL     OW27157   3.529   1.714   9.882
 5214SOL    HW127158   3.488   1.691   9.794
 5214SOL    HW227159   3.511   1.640   9.947
 5215SOL     OW27160   3.438   1.662   9.617
 5215SOL    HW127161   3.527   1.708   9.620
 5215SOL    HW227162   3.417   1.638   9.522
 5216SOL     OW27163   2.669   0.605  10.775
 5216SOL    HW127164   2.622   0.602  10.864
 5216SOL    HW227165   2.618   0.550  10.709
 5217SOL     OW27166   2.853   0.410  10.552
 5217SOL    HW127167   2.776   0.444  10.606
 5217SOL    HW227168   2.819   0.359  10.473
 5218SOL     OW27169   2.727   0.348   9.505
 5218SOL    HW127170   2.786   0.411   9.456
 5218SOL    HW227171   2.746   0.254   9.476
 5219SOL     OW27172   3.581   0.585  11.141
 5219SOL    HW127173   3.555   0.674  11.105
 5219SOL    HW227174   3.579   0.517  11.068
 5220SOL     OW27175   2.412   0.196  10.195
 5220SOL    HW127176   2.407   0.191  10.295
 5220SOL    HW227177   2.414   0.292  10.166
 5221SOL     OW27178   3.657   1.066  10.183
 5221SOL    HW127179   3.595   1.051  10.107
 5221SOL    HW227180   3.605   1.077  10.268
 5222SOL     OW27181   2.323   1.266  11.037
 5222SOL    HW127182   2.273   1.267  10.951
 5222SOL    HW227183   2.260   1.248  11.113
 5223SOL     OW27184   2.973   1.776   9.547
 5223SOL    HW127185   2.913   1.714   9.597
 5223SOL    HW227186   3.004   1.732   9.462
 5224SOL     OW27187   3.494   1.377   9.391
 5224SOL    HW127188   3.462   1.471   9.381
 5224SOL    HW227189   3.418   1.314   9.379
 5225SOL     OW27190   2.802   1.698  10.214
 5225SOL    HW127191   2.882   1.641  10.235
 5225SOL    HW227192   2.753   1.658  10.137
 5226SOL     OW27193   2.784   0.503  10.209
 5226SOL    HW127194   2.759   0.494  10.113
 5226SOL    HW227195   2.832   0.421  10.240
 5227SOL     OW27196   2.401   0.064   9.822
 5227SOL    HW127197   2.320   0.065   9.880
 5227SOL    HW227198   2.404   0.147   9.767
 5228SOL     OW27199   3.296   1.188   9.351
 5228SOL    HW127200   3.328   1.112   9.408
 5228SOL    HW227201   3.204   1.215   9.381
 5229SOL     OW27202   3.089   1.570  10.103
 5229SOL    HW127203   3.110   1.644  10.038
 5229SOL    HW227204   3.157   1.570  10.176
 5230SOL     OW27205   2.321   1.152  10.051
 5230SOL    HW127206   2.250   1.125  10.116
 5230SOL    HW227207   2.295   1.124   9.958
 5231SOL     OW27208   3.133   1.797   9.901
 5231SOL    HW127209   3.177   1.861   9.837
 5231SOL    HW227210   3.083   1.849   9.971
 5232SOL     OW27211   2.894   0.549   9.326
 5232SOL    HW127212   2.853   0.631   9.287
 5232SOL    HW227213   2.958   0.575   9.399
 5233SOL     OW27214   2.423   0.222  10.457
 5233SOL    HW127215   2.461   0.138  10.494
 5233SOL    HW227216   2.335   0.241  10.501
 5234SOL     OW27217   3.291   1.173  10.177
 5234SOL    HW127218   3.236   1.089  10.170
 5234SOL    HW227219   3.317   1.202  10.085
 5235SOL     OW27220   3.328   0.590  10.302
 5235SOL    HW127221   3.298   0.495  10.309
 5235SOL    HW227222   3.401   0.606  10.368
 5236SOL     OW27223   3.719   0.833   9.687
 5236SOL    HW127224   3.761   0.769   9.751
 5236SOL    HW227225   3.681   0.782   9.609
 5237SOL     OW27226   2.350   1.385   9.484
 5237SOL    HW127227   2.263   1.370   9.531
 5237SOL    HW227228   2.333   1.411   9.389
 5238SOL     OW27229   3.526   1.280   9.967
 5238SOL    HW127230   3.625   1.288   9.981
 5238SOL    HW227231   3.481   1.364   9.998
 5239SOL     OW27232   3.252   0.575   9.388
 5239SOL    HW127233   3.198   0.554   9.469
 5239SOL    HW227234   3.343   0.534   9.397
 5240SOL     OW27235   3.500   1.099  10.389
 5240SOL    HW127236   3.505   1.180  10.448
 5240SOL    HW227237   3.414   1.101  10.338
 5241SOL     OW27238   2.272   0.813  10.561
 5241SOL    HW127239   2.358   0.825  10.611
 5241SOL    HW227240   2.230   0.726  10.588
 5242SOL     OW27241   2.229   1.100   9.811
 5242SOL    HW127242   2.222   1.183   9.755
 5242SOL    HW227243   2.233   1.020   9.751
 5243SOL     OW27244   2.428   0.537  10.175
 5243SOL    HW127245   2.440   0.603  10.101
 5243SOL    HW227246   2.474   0.571  10.258
 5244SOL     OW27247   3.134   1.445  10.452
 5244SOL    HW127248   3.181   1.458  10.539
 5244SOL    HW227249   3.068   1.371  10.461
 5245SOL     OW27250   2.264   0.751  10.908
 5245SOL    HW127251   2.332   0.806  10.861
 5245SOL    HW227252   2.304   0.663  10.935
 5246SOL     OW27253   3.449   0.779  10.980
 5246SOL    HW127254   3.357   0.817  10.975
 5246SOL    HW227255   3.509   0.826  10.915
 5247SOL     OW27256   2.435   0.870  10.339
 5247SOL    HW127257   2.479   0.959  10.330
 5247SOL    HW227258   2.372   0.870  10.416
 5248SOL     OW27259   3.071   0.525   9.585
 5248SOL    HW127260   3.084   0.441   9.639
 5248SOL    HW227261   3.042   0.599   9.645
 5249SOL     OW27262   2.594   0.634  10.374
 5249SOL    HW127263   2.653   0.608  10.298
 5249SOL    HW227264   2.566   0.730  10.363
 5250SOL     OW27265   3.484   0.367   9.684
 5250SOL    HW127266   3.486   0.291   9.748
 5250SOL    HW227267   3.436   0.444   9.724
 5251SOL     OW27268   2.885   0.766  10.276
 5251SOL    HW127269   2.900   0.787  10.372
 5251SOL    HW227270   2.855   0.671  10.267
 5252SOL     OW27271   2.212   0.898  11.114
 5252SOL    HW127272   2.288   0.942  11.162
 5252SOL    HW227273   2.247   0.851  11.032
 5253SOL     OW27274   3.402   0.274   9.435
 5253SOL    HW127275   3.341   0.199   9.458
 5253SOL    HW227276   3.424   0.326   9.518
 5254SOL     OW27277   3.165   0.838   9.352
 5254SOL    HW127278   3.199   0.745   9.367
 5254SOL    HW227279   3.183   0.865   9.257
 5255SOL     OW27280   2.930   1.333  10.159
 5255SOL    HW127281   2.937   1.249  10.104
 5255SOL    HW227282   2.992   1.402  10.123
 5256SOL     OW27283   2.201   0.509  10.316
 5256SOL    HW127284   2.149   0.426  10.299
 5256SOL    HW227285   2.278   0.514  10.252
 5257SOL     OW27286   2.677   0.572   9.635
 5257SOL    HW127287   2.684   0.483   9.589
 5257SOL    HW227288   2.583   0.606   9.627
 5258SOL     OW27289   3.519   0.604  10.516
 5258SOL    HW127290   3.481   0.535  10.578
 5258SOL    HW227291   3.601   0.568  10.472
 5259SOL     OW27292   3.588   0.135   9.833
 5259SOL    HW127293   3.661   0.118   9.766
 5259SOL    HW227294   3.557   0.048   9.871
 5260SOL     OW27295   3.250   1.573   9.787
 5260SOL    HW127296   3.317   1.585   9.713
 5260SOL    HW227297   3.210   1.662   9.810
 5261SOL     OW27298   1.992   1.794  11.161
 5261SOL    HW127299   1.951   1.720  11.214
 5261SOL    HW227300   2.056   1.845  11.219
 5262SOL     OW27301   2.692   1.273  10.732
 5262SOL    HW127302   2.687   1.306  10.827
 5262SOL    HW227303   2.606   1.292  10.686
 5263SOL     OW27304   2.534   1.616   9.464
 5263SOL    HW127305   2.543   1.626   9.365
 5263SOL    HW227306   2.494   1.527   9.485
 5264SOL     OW27307   3.056   1.612   9.341
 5264SOL    HW127308   3.062   1.519   9.378
 5264SOL    HW227309   2.997   1.612   9.261
 5265SOL     OW27310   2.684   1.002  10.682
 5265SOL    HW127311   2.724   1.001  10.590
 5265SOL    HW227312   2.694   1.094  10.722
 5266SOL     OW27313   3.366   1.607   9.354
 5266SOL    HW127314   3.274   1.644   9.361
 5266SOL    HW227315   3.404   1.627   9.264
 5267SOL     OW27316   3.476   1.292  10.599
 5267SOL    HW127317   3.536   1.295  10.679
 5267SOL    HW227318   3.401   1.356  10.612
 5268SOL     OW27319   2.876   0.236  10.281
 5268SOL    HW127320   2.868   0.200  10.188
 5268SOL    HW227321   2.874   0.160  10.346
 5269SOL     OW27322   3.571   0.385  10.691
 5269SOL    HW127323   3.644   0.454  10.695
 5269SOL    HW227324   3.599   0.310  10.632
 5270SOL     OW27325   1.967   1.013  11.036
 5270SOL    HW127326   1.890   0.980  11.090
 5270SOL    HW227327   2.052   0.983  11.078
 5271SOL     OW27328   3.302   0.856  10.708
 5271SOL    HW127329   3.245   0.908  10.645
 5271SOL    HW227330   3.398   0.868  10.684
 5272SOL     OW27331   3.045   1.335   9.429
 5272SOL    HW127332   2.946   1.324   9.431
 5272SOL    HW227333   3.079   1.350   9.522
 5273SOL     OW27334   2.475   0.842  10.741
 5273SOL    HW127335   2.531   0.923  10.724
 5273SOL    HW227336   2.534   0.762  10.744
 5274SOL     OW27337   3.355   1.767  10.269
 5274SOL    HW127338   3.388   1.831  10.200
 5274SOL    HW227339   3.421   1.761  10.344
 5275SOL     OW27340   3.536   0.883  10.564
 5275SOL    HW127341   3.509   0.794  10.527
 5275SOL    HW227342   3.537   0.951  10.491
 5276SOL     OW27343   2.456   0.745   9.962
 5276SOL    HW127344   2.506   0.830   9.943
 5276SOL    HW227345   2.368   0.747   9.914
 5277SOL     OW27346   3.639   0.342  10.952
 5277SOL    HW127347   3.622   0.373  10.858
 5277SOL    HW227348   3.555   0.305  10.990
 5278SOL     OW27349   3.592   0.934  10.827
 5278SOL    HW127350   3.630   1.025  10.842
 5278SOL    HW227351   3.584   0.917  10.728
 5279SOL     OW27352   2.721   1.374   9.326
 5279SOL    HW127353   2.675   1.389   9.414
 5279SOL    HW227354   2.765   1.459   9.296
 5280SOL     OW27355   2.721   0.956  10.171
 5280SOL    HW127356   2.775   0.887  10.219
 5280SOL    HW227357   2.689   1.025  10.237
 5281SOL     OW27358   3.723   1.569  10.161
 5281SOL    HW127359   3.652   1.557  10.091
 5281SOL    HW227360   3.724   1.490  10.221
 5282SOL     OW27361   2.290   0.424   9.830
 5282SOL    HW127362   2.320   0.352   9.768
 5282SOL    HW227363   2.251   0.384   9.913
 5283SOL     OW27364   3.567   1.487  10.414
 5283SOL    HW127365   3.474   1.462  10.387
 5283SOL    HW227366   3.593   1.437  10.496
 5284SOL     OW27367   3.286   0.214  10.422
 5284SOL    HW127368   3.338   0.149  10.477
 5284SOL    HW227369   3.237   0.277  10.483
 5285SOL     OW27370   2.863   0.034  10.464
 5285SOL    HW127371   2.800  -0.038  10.433
 5285SOL    HW227372   2.956  -0.002  10.464
 5286SOL     OW27373   2.480   1.567  10.594
 5286SOL    HW127374   2.475   1.649  10.651
 5286SOL    HW227375   2.569   1.564  10.549
 5287SOL     OW27376   2.431   1.275  12.337
 5287SOL    HW127377   2.338   1.268  12.300
 5287SOL    HW227378   2.442   1.364  12.381
 5288SOL     OW27379   2.197   1.435  12.233
 5288SOL    HW127380   2.119   1.404  12.180
 5288SOL    HW227381   2.255   1.493  12.176
 5289SOL     OW27382   2.093   1.713  11.655
 5289SOL    HW127383   2.127   1.790  11.709
 5289SOL    HW227384   2.137   1.713  11.565
 5290SOL     OW27385   2.482   1.786  12.611
 5290SOL    HW127386   2.390   1.769  12.646
 5290SOL    HW227387   2.510   1.878  12.637
 5291SOL     OW27388   3.456   0.114  12.652
 5291SOL    HW127389   3.438   0.181  12.580
 5291SOL    HW227390   3.453   0.160  12.741
 5292SOL     OW27391   2.475   1.365  11.898
 5292SOL    HW127392   2.426   1.278  11.907
 5292SOL    HW227393   2.452   1.408  11.811
 5293SOL     OW27394   2.671   0.004  11.674
 5293SOL    HW127395   2.711   0.095  11.665
 5293SOL    HW227396   2.571   0.012  11.680
 5294SOL     OW27397   3.049   1.792  12.788
 5294SOL    HW127398   3.073   1.852  12.712
 5294SOL    HW227399   3.056   1.697  12.758
 5295SOL     OW27400   2.179   0.251  12.973
 5295SOL    HW127401   2.250   0.322  12.979
 5295SOL    HW227402   2.091   0.290  13.001
 5296SOL     OW27403   3.328   1.417  12.125
 5296SOL    HW127404   3.269   1.423  12.205
 5296SOL    HW227405   3.313   1.329  12.079
 5297SOL     OW27406   3.143   0.345  12.116
 5297SOL    HW127407   3.057   0.295  12.103
 5297SOL    HW227408   3.205   0.291  12.172
 5298SOL     OW27409   3.438   1.662  11.479
 5298SOL    HW127410   3.527   1.708  11.482
 5298SOL    HW227411   3.417   1.638  11.384
 5299SOL     OW27412   2.835   0.890  12.744
 5299SOL    HW127413   2.881   0.806  12.715
 5299SOL    HW227414   2.779   0.924  12.669
 5300SOL     OW27415   3.581   0.585  13.003
 5300SOL    HW127416   3.555   0.674  12.967
 5300SOL    HW227417   3.579   0.517  12.930
 5301SOL     OW27418   3.089   1.550  12.678
 5301SOL    HW127419   3.095   1.473  12.742
 5301SOL    HW227420   3.037   1.524  12.598
 5302SOL     OW27421   2.183   0.943  11.414
 5302SOL    HW127422   2.265   0.982  11.372
 5302SOL    HW227423   2.156   0.861  11.365
 5303SOL     OW27424   2.064   0.285  12.670
 5303SOL    HW127425   1.984   0.345  12.657
 5303SOL    HW227426   2.054   0.236  12.756
 5304SOL     OW27427   3.494   1.377  11.253
 5304SOL    HW127428   3.462   1.471  11.243
 5304SOL    HW227429   3.418   1.314  11.241
 5305SOL     OW27430   3.409   0.222  12.901
 5305SOL    HW127431   3.404   0.259  12.993
 5305SOL    HW227432   3.337   0.153  12.889
 5306SOL     OW27433   2.476   0.122  11.289
 5306SOL    HW127434   2.574   0.100  11.296
 5306SOL    HW227435   2.445   0.105  11.196
 5307SOL     OW27436   3.213   0.590  12.605
 5307SOL    HW127437   3.241   0.547  12.690
 5307SOL    HW227438   3.238   0.686  12.606
 5308SOL     OW27439   2.665   1.402  12.096
 5308SOL    HW127440   2.755   1.416  12.054
 5308SOL    HW227441   2.594   1.404  12.025
 5309SOL     OW27442   2.159   0.035  11.343
 5309SOL    HW127443   2.208   0.119  11.322
 5309SOL    HW227444   2.221  -0.030  11.388
 5310SOL     OW27445   2.938   0.683  12.636
 5310SOL    HW127446   2.858   0.622  12.639
 5310SOL    HW227447   3.019   0.630  12.612
 5311SOL     OW27448   2.879   0.039  11.925
 5311SOL    HW127449   2.807   0.044  11.856
 5311SOL    HW227450   2.855  -0.030  11.994
 5312SOL     OW27451   2.389   0.256  11.500
 5312SOL    HW127452   2.416   0.197  11.425
 5312SOL    HW227453   2.389   0.351  11.469
 5313SOL     OW27454   2.272   0.813  12.423
 5313SOL    HW127455   2.358   0.825  12.473
 5313SOL    HW227456   2.230   0.726  12.450
 5314SOL     OW27457   3.136   0.386  12.434
 5314SOL    HW127458   3.157   0.460  12.498
 5314SOL    HW227459   3.047   0.403  12.391
 5315SOL     OW27460   3.114   1.348  11.560
 5315SOL    HW127461   3.164   1.425  11.600
 5315SOL    HW227462   3.019   1.350  11.592
 5316SOL     OW27463   3.134   1.445  12.314
 5316SOL    HW127464   3.181   1.458  12.401
 5316SOL    HW227465   3.068   1.371  12.323
 5317SOL     OW27466   2.216   1.510  12.501
 5317SOL    HW127467   2.195   1.466  12.414
 5317SOL    HW227468   2.313   1.536  12.504
 5318SOL     OW27469   2.264   0.751  12.770
 5318SOL    HW127470   2.332   0.806  12.723
 5318SOL    HW227471   2.304   0.663  12.797
 5319SOL     OW27472   3.449   0.779  12.842
 5319SOL    HW127473   3.357   0.817  12.837
 5319SOL    HW227474   3.509   0.826  12.777
 5320SOL     OW27475   2.366   0.050  12.912
 5320SOL    HW127476   2.324  -0.007  12.842
 5320SOL    HW227477   2.300   0.119  12.944
 5321SOL     OW27478   3.590   0.935  13.026
 5321SOL    HW127479   3.544   0.928  12.937
 5321SOL    HW227480   3.528   0.979  13.092
 5322SOL     OW27481   2.842   1.573  12.872
 5322SOL    HW127482   2.822   1.617  12.784
 5322SOL    HW227483   2.881   1.482  12.856
 5323SOL     OW27484   2.212   0.898  12.976
 5323SOL    HW127485   2.288   0.942  13.024
 5323SOL    HW227486   2.247   0.851  12.894
 5324SOL     OW27487   3.165   0.838  11.214
 5324SOL    HW127488   3.199   0.745  11.229
 5324SOL    HW227489   3.183   0.865  11.119
 5325SOL     OW27490   3.000   0.380  12.850
 5325SOL    HW127491   2.955   0.443  12.914
 5325SOL    HW227492   3.093   0.411  12.833
 5326SOL     OW27493   3.022   0.207  12.649
 5326SOL    HW127494   3.022   0.271  12.726
 5326SOL    HW227495   3.050   0.255  12.566
 5327SOL     OW27496   2.366   1.568  12.082
 5327SOL    HW127497   2.432   1.642  12.091
 5327SOL    HW227498   2.410   1.489  12.040
 5328SOL     OW27499   2.533   0.464  12.441
 5328SOL    HW127500   2.499   0.375  12.411
 5328SOL    HW227501   2.559   0.518  12.361
 5329SOL     OW27502   2.021   1.137  12.638
 5329SOL    HW127503   2.043   1.076  12.714
 5329SOL    HW227504   2.031   1.088  12.552
 5330SOL     OW27505   2.550   1.662  12.888
 5330SOL    HW127506   2.494   1.743  12.897
 5330SOL    HW227507   2.602   1.666  12.802
 5331SOL     OW27508   3.588   0.135  11.695
 5331SOL    HW127509   3.661   0.118  11.628
 5331SOL    HW227510   3.557   0.048  11.733
 5332SOL     OW27511   3.250   1.573  11.649
 5332SOL    HW127512   3.317   1.585  11.575
 5332SOL    HW227513   3.210   1.662  11.672
 5333SOL     OW27514   3.512   1.720  12.566
 5333SOL    HW127515   3.565   1.730  12.482
 5333SOL    HW227516   3.485   1.810  12.600
 5334SOL     OW27517   3.366   1.607  11.216
 5334SOL    HW127518   3.274   1.644  11.223
 5334SOL    HW227519   3.404   1.627  11.126
 5335SOL     OW27520   2.234   1.288  12.662
 5335SOL    HW127521   2.221   1.381  12.628
 5335SOL    HW227522   2.150   1.236  12.649
 5336SOL     OW27523   3.476   1.292  12.461
 5336SOL    HW127524   3.536   1.295  12.541
 5336SOL    HW227525   3.401   1.356  12.474
 5337SOL     OW27526   1.967   1.013  12.898
 5337SOL    HW127527   1.890   0.980  12.952
 5337SOL    HW227528   2.052   0.983  12.940
 5338SOL     OW27529   1.937   0.345  11.205
 5338SOL    HW127530   1.845   0.317  11.176
 5338SOL    HW227531   1.968   0.422  11.149
 5339SOL     OW27532   3.045   1.335  11.291
 5339SOL    HW127533   2.946   1.324  11.293
 5339SOL    HW227534   3.079   1.350  11.384
 5340SOL     OW27535   2.475   0.842  12.603
 5340SOL    HW127536   2.531   0.923  12.586
 5340SOL    HW227537   2.534   0.762  12.606
 5341SOL     OW27538   2.523   1.790  12.125
 5341SOL    HW127539   2.477   1.878  12.112
 5341SOL    HW227540   2.622   1.802  12.118
 5342SOL     OW27541   2.083   1.314  13.016
 5342SOL    HW127542   2.018   1.241  12.995
 5342SOL    HW227543   2.087   1.328  13.114
 5343SOL     OW27544   1.941   1.240  11.825
 5343SOL    HW127545   1.940   1.193  11.913
 5343SOL    HW227546   2.023   1.212  11.774
 5344SOL     OW27547   3.286   0.214  12.284
 5344SOL    HW127548   3.338   0.149  12.339
 5344SOL    HW227549   3.237   0.277  12.345
 5345SOL     OW27550   2.632   1.330  11.473
 5345SOL    HW127551   2.586   1.243  11.490
 5345SOL    HW227552   2.723   1.327  11.514
 5346SOL     OW27553   2.480   1.567  12.456
 5346SOL    HW127554   2.475   1.649  12.513
 5346SOL    HW227555   2.569   1.564  12.411
 5347SOL     OW27556   1.901   1.077  11.472
 5347SOL    HW127557   2.000   1.066  11.463
 5347SOL    HW227558   1.861   0.991  11.504
 5348SOL     OW27559   2.737   1.646  11.509
 5348SOL    HW127560   2.660   1.611  11.455
 5348SOL    HW227561   2.705   1.717  11.571
 5349SOL     OW27562   2.087   0.275  14.030
 5349SOL    HW127563   2.122   0.258  14.122
 5349SOL    HW227564   1.999   0.230  14.018
 5350SOL     OW27565   3.417   1.511  13.737
 5350SOL    HW127566   3.360   1.495  13.818
 5350SOL    HW227567   3.358   1.521  13.657
 5351SOL     OW27568   2.630   1.144  14.057
 5351SOL    HW127569   2.552   1.161  14.117
 5351SOL    HW227570   2.664   1.231  14.021
 5352SOL     OW27571   2.548   1.161  14.837
 5352SOL    HW127572   2.608   1.240  14.851
 5352SOL    HW227573   2.462   1.192  14.796
 5353SOL     OW27574   2.989   1.341  14.724
 5353SOL    HW127575   3.036   1.341  14.812
 5353SOL    HW227576   2.941   1.254  14.713
 5354SOL     OW27577   2.482   1.786  14.473
 5354SOL    HW127578   2.390   1.769  14.508
 5354SOL    HW227579   2.510   1.878  14.499
 5355SOL     OW27580   3.456   0.114  14.514
 5355SOL    HW127581   3.438   0.181  14.442
 5355SOL    HW227582   3.453   0.160  14.603
 5356SOL     OW27583   1.984   0.643  13.597
 5356SOL    HW127584   1.939   0.555  13.614
 5356SOL    HW227585   1.983   0.697  13.681
 5357SOL     OW27586   1.889   1.596  13.151
 5357SOL    HW127587   1.870   1.500  13.172
 5357SOL    HW227588   1.856   1.654  13.226
 5358SOL     OW27589   2.475   1.365  13.760
 5358SOL    HW127590   2.426   1.278  13.769
 5358SOL    HW227591   2.452   1.408  13.673
 5359SOL     OW27592   3.049   1.792  14.650
 5359SOL    HW127593   3.073   1.852  14.574
 5359SOL    HW227594   3.056   1.697  14.620
 5360SOL     OW27595   3.438   1.662  13.341
 5360SOL    HW127596   3.527   1.708  13.344
 5360SOL    HW227597   3.417   1.638  13.246
 5361SOL     OW27598   2.835   0.890  14.606
 5361SOL    HW127599   2.881   0.806  14.577
 5361SOL    HW227600   2.779   0.924  14.531
 5362SOL     OW27601   2.323   1.266  14.761
 5362SOL    HW127602   2.273   1.267  14.675
 5362SOL    HW227603   2.260   1.248  14.837
 5363SOL     OW27604   2.973   1.776  13.271
 5363SOL    HW127605   2.913   1.714  13.321
 5363SOL    HW227606   3.004   1.732  13.186
 5364SOL     OW27607   3.409   0.222  14.763
 5364SOL    HW127608   3.404   0.259  14.855
 5364SOL    HW227609   3.337   0.153  14.751
 5365SOL     OW27610   2.784   0.503  13.933
 5365SOL    HW127611   2.759   0.494  13.837
 5365SOL    HW227612   2.832   0.421  13.964
 5366SOL     OW27613   2.797   0.236  13.514
 5366SOL    HW127614   2.749   0.277  13.436
 5366SOL    HW227615   2.896   0.234  13.495
 5367SOL     OW27616   2.894   0.549  13.050
 5367SOL    HW127617   2.853   0.631  13.011
 5367SOL    HW227618   2.958   0.575  13.123
 5368SOL     OW27619   2.423   0.222  14.181
 5368SOL    HW127620   2.461   0.138  14.218
 5368SOL    HW227621   2.335   0.241  14.225
 5369SOL     OW27622   3.291   1.173  13.901
 5369SOL    HW127623   3.236   1.089  13.894
 5369SOL    HW227624   3.317   1.202  13.809
 5370SOL     OW27625   3.719   0.833  13.411
 5370SOL    HW127626   3.761   0.769  13.475
 5370SOL    HW227627   3.681   0.782  13.333
 5371SOL     OW27628   2.389   0.256  13.362
 5371SOL    HW127629   2.416   0.197  13.287
 5371SOL    HW227630   2.389   0.351  13.331
 5372SOL     OW27631   2.973   1.195  14.134
 5372SOL    HW127632   2.933   1.239  14.215
 5372SOL    HW227633   2.932   1.232  14.051
 5373SOL     OW27634   2.842   1.116  14.753
 5373SOL    HW127635   2.743   1.122  14.763
 5373SOL    HW227636   2.865   1.036  14.697
 5374SOL     OW27637   2.229   1.100  13.535
 5374SOL    HW127638   2.222   1.183  13.479
 5374SOL    HW227639   2.233   1.020  13.475
 5375SOL     OW27640   2.366   0.050  14.774
 5375SOL    HW127641   2.324  -0.007  14.704
 5375SOL    HW227642   2.300   0.119  14.806
 5376SOL     OW27643   3.590   0.935  14.888
 5376SOL    HW127644   3.544   0.928  14.799
 5376SOL    HW227645   3.528   0.979  14.954
 5377SOL     OW27646   2.212   0.898  14.838
 5377SOL    HW127647   2.288   0.942  14.886
 5377SOL    HW227648   2.247   0.851  14.756
 5378SOL     OW27649   2.930   1.333  13.883
 5378SOL    HW127650   2.937   1.249  13.828
 5378SOL    HW227651   2.992   1.402  13.847
 5379SOL     OW27652   2.201   0.509  14.040
 5379SOL    HW127653   2.149   0.426  14.023
 5379SOL    HW227654   2.278   0.514  13.976
 5380SOL     OW27655   3.000   0.380  14.712
 5380SOL    HW127656   2.955   0.443  14.776
 5380SOL    HW227657   3.093   0.411  14.695
 5381SOL     OW27658   2.533   0.464  14.303
 5381SOL    HW127659   2.499   0.375  14.273
 5381SOL    HW227660   2.559   0.518  14.223
 5382SOL     OW27661   2.335   0.500  13.225
 5382SOL    HW127662   2.396   0.580  13.229
 5382SOL    HW227663   2.240   0.531  13.232
 5383SOL     OW27664   3.056   1.612  13.065
 5383SOL    HW127665   3.062   1.519  13.102
 5383SOL    HW227666   2.997   1.612  12.985
 5384SOL     OW27667   2.778   0.910  13.325
 5384SOL    HW127668   2.841   0.948  13.257
 5384SOL    HW227669   2.818   0.827  13.364
 5385SOL     OW27670   2.234   1.288  14.524
 5385SOL    HW127671   2.221   1.381  14.490
 5385SOL    HW227672   2.150   1.236  14.511
 5386SOL     OW27673   2.901   1.098  13.730
 5386SOL    HW127674   2.831   1.051  13.784
 5386SOL    HW227675   2.960   1.030  13.687
 5387SOL     OW27676   1.967   1.013  14.760
 5387SOL    HW127677   1.890   0.980  14.814
 5387SOL    HW227678   2.052   0.983  14.802
 5388SOL     OW27679   2.252   1.741  14.594
 5388SOL    HW127680   2.161   1.782  14.592
 5388SOL    HW227681   2.245   1.647  14.626
 5389SOL     OW27682   2.083   1.314  14.878
 5389SOL    HW127683   2.018   1.241  14.857
 5389SOL    HW227684   2.087   1.328  14.976
 5390SOL     OW27685   1.941   1.240  13.687
 5390SOL    HW127686   1.940   1.193  13.775
 5390SOL    HW227687   2.023   1.212  13.636
 5391SOL     OW27688   2.534   1.391  14.658
 5391SOL    HW127689   2.456   1.341  14.696
 5391SOL    HW227690   2.531   1.486  14.689
 5392SOL     OW27691   2.290   0.424  13.554
 5392SOL    HW127692   2.320   0.352  13.492
 5392SOL    HW227693   2.251   0.384  13.637
 5393SOL     OW27694   2.632   1.330  13.335
 5393SOL    HW127695   2.586   1.243  13.352
 5393SOL    HW227696   2.723   1.327  13.376
 5394SOL     OW27697   3.455   0.221  13.916
 5394SOL    HW127698   3.371   0.220  13.970
 5394SOL    HW227699   3.457   0.304  13.860
 5395SOL     OW27700   2.087   0.275  15.893
 5395SOL    HW127701   2.122   0.258  15.985
 5395SOL    HW227702   1.999   0.230  15.881
 5396SOL     OW27703   2.431   1.275  16.062
 5396SOL    HW127704   2.338   1.268  16.025
 5396SOL    HW227705   2.442   1.364  16.106
 5397SOL     OW27706   3.417   1.511  15.599
 5397SOL    HW127707   3.360   1.495  15.680
 5397SOL    HW227708   3.358   1.521  15.519
 5398SOL     OW27709   2.630   1.144  15.920
 5398SOL    HW127710   2.552   1.161  15.980
 5398SOL    HW227711   2.664   1.231  15.884
 5399SOL     OW27712   2.712   0.798  16.720
 5399SOL    HW127713   2.708   0.874  16.785
 5399SOL    HW227714   2.734   0.834  16.629
 5400SOL     OW27715   2.548   1.161  16.700
 5400SOL    HW127716   2.608   1.240  16.714
 5400SOL    HW227717   2.462   1.192  16.659
 5401SOL     OW27718   2.093   1.713  15.379
 5401SOL    HW127719   2.127   1.790  15.433
 5401SOL    HW227720   2.137   1.713  15.289
 5402SOL     OW27721   2.468   0.964  15.019
 5402SOL    HW127722   2.475   1.048  14.965
 5402SOL    HW227723   2.514   0.977  15.107
 5403SOL     OW27724   3.529   1.714  15.468
 5403SOL    HW127725   3.488   1.691  15.380
 5403SOL    HW227726   3.511   1.640  15.533
 5404SOL     OW27727   3.143   0.345  15.841
 5404SOL    HW127728   3.057   0.295  15.828
 5404SOL    HW227729   3.205   0.291  15.897
 5405SOL     OW27730   3.438   1.662  15.203
 5405SOL    HW127731   3.527   1.708  15.206
 5405SOL    HW227732   3.417   1.638  15.108
 5406SOL     OW27733   2.835   0.890  16.469
 5406SOL    HW127734   2.881   0.806  16.440
 5406SOL    HW227735   2.779   0.924  16.394
 5407SOL     OW27736   2.903   0.701  15.325
 5407SOL    HW127737   2.929   0.697  15.421
 5407SOL    HW227738   2.818   0.650  15.311
 5408SOL     OW27739   1.992   1.821  16.468
 5408SOL    HW127740   1.982   1.806  16.567
 5408SOL    HW227741   1.906   1.857  16.432
 5409SOL     OW27742   3.581   0.585  16.728
 5409SOL    HW127743   3.555   0.674  16.692
 5409SOL    HW227744   3.579   0.517  16.655
 5410SOL     OW27745   2.323   1.266  16.624
 5410SOL    HW127746   2.273   1.267  16.538
 5410SOL    HW227747   2.260   1.248  16.700
 5411SOL     OW27748   2.973   1.776  15.133
 5411SOL    HW127749   2.913   1.714  15.183
 5411SOL    HW227750   3.004   1.732  15.048
 5412SOL     OW27751   2.064   0.285  16.395
 5412SOL    HW127752   1.984   0.345  16.382
 5412SOL    HW227753   2.054   0.236  16.481
 5413SOL     OW27754   3.494   1.377  14.977
 5413SOL    HW127755   3.462   1.471  14.967
 5413SOL    HW227756   3.418   1.314  14.965
 5414SOL     OW27757   2.326   1.743  15.219
 5414SOL    HW127758   2.359   1.782  15.305
 5414SOL    HW227759   2.402   1.736  15.154
 5415SOL     OW27760   2.784   0.503  15.795
 5415SOL    HW127761   2.759   0.494  15.699
 5415SOL    HW227762   2.832   0.421  15.826
 5416SOL     OW27763   2.159   0.035  15.067
 5416SOL    HW127764   2.208   0.119  15.046
 5416SOL    HW227765   2.221  -0.030  15.112
 5417SOL     OW27766   2.938   0.683  16.361
 5417SOL    HW127767   2.858   0.622  16.364
 5417SOL    HW227768   3.019   0.630  16.337
 5418SOL     OW27769   2.894   0.549  14.912
 5418SOL    HW127770   2.853   0.631  14.873
 5418SOL    HW227771   2.958   0.575  14.985
 5419SOL     OW27772   2.423   0.222  16.044
 5419SOL    HW127773   2.461   0.138  16.081
 5419SOL    HW227774   2.335   0.241  16.088
 5420SOL     OW27775   2.728   0.454  15.538
 5420SOL    HW127776   2.696   0.526  15.476
 5420SOL    HW227777   2.752   0.373  15.485
 5421SOL     OW27778   2.350   1.385  15.070
 5421SOL    HW127779   2.263   1.370  15.117
 5421SOL    HW227780   2.333   1.411  14.975
 5422SOL     OW27781   3.526   1.280  15.553
 5422SOL    HW127782   3.625   1.288  15.567
 5422SOL    HW227783   3.481   1.364  15.584
 5423SOL     OW27784   3.454   1.629  16.522
 5423SOL    HW127785   3.481   1.663  16.432
 5423SOL    HW227786   3.533   1.591  16.568
 5424SOL     OW27787   2.842   1.116  16.616
 5424SOL    HW127788   2.743   1.122  16.626
 5424SOL    HW227789   2.865   1.036  16.560
 5425SOL     OW27790   2.567   1.050  15.264
 5425SOL    HW127791   2.553   1.057  15.363
 5425SOL    HW227792   2.651   0.999  15.246
 5426SOL     OW27793   3.136   0.386  16.159
 5426SOL    HW127794   3.157   0.460  16.223
 5426SOL    HW227795   3.047   0.403  16.116
 5427SOL     OW27796   2.428   0.537  15.761
 5427SOL    HW127797   2.440   0.603  15.687
 5427SOL    HW227798   2.474   0.571  15.844
 5428SOL     OW27799   3.114   1.348  15.284
 5428SOL    HW127800   3.164   1.425  15.324
 5428SOL    HW227801   3.019   1.350  15.316
 5429SOL     OW27802   2.216   1.510  16.226
 5429SOL    HW127803   2.195   1.466  16.139
 5429SOL    HW227804   2.313   1.536  16.229
 5430SOL     OW27805   3.071   0.525  15.171
 5430SOL    HW127806   3.084   0.441  15.225
 5430SOL    HW227807   3.042   0.599  15.231
 5431SOL     OW27808   2.169   0.213  16.128
 5431SOL    HW127809   2.146   0.250  16.218
 5431SOL    HW227810   2.139   0.118  16.122
 5432SOL     OW27811   2.842   1.573  16.597
 5432SOL    HW127812   2.822   1.617  16.509
 5432SOL    HW227813   2.881   1.482  16.581
 5433SOL     OW27814   3.402   0.274  15.021
 5433SOL    HW127815   3.341   0.199  15.044
 5433SOL    HW227816   3.424   0.326  15.104
 5434SOL     OW27817   3.000   0.380  16.575
 5434SOL    HW127818   2.955   0.443  16.639
 5434SOL    HW227819   3.093   0.411  16.558
 5435SOL     OW27820   1.902   0.544  16.011
 5435SOL    HW127821   1.987   0.511  15.970
 5435SOL    HW227822   1.915   0.559  16.109
 5436SOL     OW27823   2.677   0.572  15.221
 5436SOL    HW127824   2.684   0.483  15.175
 5436SOL    HW227825   2.583   0.606  15.213
 5437SOL     OW27826   3.519   0.604  16.103
 5437SOL    HW127827   3.481   0.535  16.165
 5437SOL    HW227828   3.601   0.568  16.059
 5438SOL     OW27829   3.621   1.747  16.051
 5438SOL    HW127830   3.682   1.777  15.978
 5438SOL    HW227831   3.583   1.658  16.029
 5439SOL     OW27832   3.250   1.573  15.373
 5439SOL    HW127833   3.317   1.585  15.299
 5439SOL    HW227834   3.210   1.662  15.396
 5440SOL     OW27835   2.692   1.273  16.319
 5440SOL    HW127836   2.687   1.306  16.414
 5440SOL    HW227837   2.606   1.292  16.273
 5441SOL     OW27838   2.534   1.616  15.050
 5441SOL    HW127839   2.543   1.626  14.951
 5441SOL    HW227840   2.494   1.527  15.071
 5442SOL     OW27841   3.512   1.720  16.291
 5442SOL    HW127842   3.565   1.730  16.207
 5442SOL    HW227843   3.485   1.810  16.325
 5443SOL     OW27844   3.056   1.612  14.927
 5443SOL    HW127845   3.062   1.519  14.964
 5443SOL    HW227846   2.997   1.612  14.847
 5444SOL     OW27847   2.778   0.910  15.187
 5444SOL    HW127848   2.841   0.948  15.119
 5444SOL    HW227849   2.818   0.827  15.226
 5445SOL     OW27850   3.366   1.607  14.940
 5445SOL    HW127851   3.274   1.644  14.947
 5445SOL    HW227852   3.404   1.627  14.850
 5446SOL     OW27853   3.476   1.292  16.186
 5446SOL    HW127854   3.536   1.295  16.266
 5446SOL    HW227855   3.401   1.356  16.199
 5447SOL     OW27856   2.901   1.098  15.592
 5447SOL    HW127857   2.831   1.051  15.646
 5447SOL    HW227858   2.960   1.030  15.549
 5448SOL     OW27859   2.117   1.348  15.186
 5448SOL    HW127860   2.021   1.349  15.159
 5448SOL    HW227861   2.129   1.401  15.270
 5449SOL     OW27862   1.934   0.166  15.214
 5449SOL    HW127863   1.917   0.249  15.160
 5449SOL    HW227864   2.024   0.129  15.192
 5450SOL     OW27865   3.045   1.335  15.015
 5450SOL    HW127866   2.946   1.324  15.017
 5450SOL    HW227867   3.079   1.350  15.108
 5451SOL     OW27868   2.475   0.842  16.328
 5451SOL    HW127869   2.531   0.923  16.311
 5451SOL    HW227870   2.534   0.762  16.331
 5452SOL     OW27871   2.456   0.745  15.548
 5452SOL    HW127872   2.506   0.830  15.529
 5452SOL    HW227873   2.368   0.747  15.500
 5453SOL     OW27874   2.721   1.374  14.912
 5453SOL    HW127875   2.675   1.389  15.000
 5453SOL    HW227876   2.765   1.459  14.882
 5454SOL     OW27877   2.523   1.790  15.850
 5454SOL    HW127878   2.477   1.878  15.837
 5454SOL    HW227879   2.622   1.802  15.843
 5455SOL     OW27880   2.721   0.956  15.757
 5455SOL    HW127881   2.775   0.887  15.805
 5455SOL    HW227882   2.689   1.025  15.823
 5456SOL     OW27883   2.945   0.984  14.983
 5456SOL    HW127884   2.922   1.037  14.901
 5456SOL    HW227885   3.026   0.928  14.964
 5457SOL     OW27886   3.723   1.569  15.747
 5457SOL    HW127887   3.652   1.557  15.677
 5457SOL    HW227888   3.724   1.490  15.807
 5458SOL     OW27889   2.534   1.391  16.521
 5458SOL    HW127890   2.456   1.341  16.559
 5458SOL    HW227891   2.531   1.486  16.552
 5459SOL     OW27892   3.567   1.487  16.001
 5459SOL    HW127893   3.474   1.462  15.974
 5459SOL    HW227894   3.593   1.437  16.083
 5460SOL     OW27895   2.674   1.586  15.583
 5460SOL    HW127896   2.706   1.596  15.489
 5460SOL    HW227897   2.595   1.524  15.585
 5461SOL     OW27898   2.092   0.628  16.872
 5461SOL    HW127899   1.999   0.626  16.909
 5461SOL    HW227900   2.093   0.589  16.780
 5462SOL     OW27901   3.617   0.607  16.990
 5462SOL    HW127902   3.605   0.594  16.891
 5462SOL    HW227903   3.587   0.526  17.039
 5463SOL     OW27904   3.465   0.447  17.496
 5463SOL    HW127905   3.391   0.493  17.446
 5463SOL    HW227906   3.516   0.515  17.549
 5464SOL     OW27907   2.092   1.434  17.297
 5464SOL    HW127908   2.066   1.530  17.297
 5464SOL    HW227909   2.021   1.380  17.342
 5465SOL     OW27910   2.468   0.964  16.882
 5465SOL    HW127911   2.475   1.048  16.828
 5465SOL    HW227912   2.514   0.977  16.970
 5466SOL     OW27913   3.704   1.767  17.118
 5466SOL    HW127914   3.758   1.738  17.198
 5466SOL    HW227915   3.734   1.857  17.089
 5467SOL     OW27916   3.529   1.714  17.331
 5467SOL    HW127917   3.488   1.691  17.243
 5467SOL    HW227918   3.511   1.640  17.396
 5468SOL     OW27919   2.460   0.729  17.029
 5468SOL    HW127920   2.484   0.798  16.961
 5468SOL    HW227921   2.382   0.762  17.083
 5469SOL     OW27922   3.143   0.345  17.703
 5469SOL    HW127923   3.057   0.295  17.690
 5469SOL    HW227924   3.205   0.291  17.759
 5470SOL     OW27925   3.438   1.662  17.066
 5470SOL    HW127926   3.527   1.708  17.069
 5470SOL    HW227927   3.417   1.638  16.971
 5471SOL     OW27928   2.412   0.196  17.644
 5471SOL    HW127929   2.407   0.191  17.744
 5471SOL    HW227930   2.414   0.292  17.615
 5472SOL     OW27931   3.320   0.735  17.487
 5472SOL    HW127932   3.315   0.670  17.562
 5472SOL    HW227933   3.400   0.794  17.500
 5473SOL     OW27934   2.973   1.776  16.996
 5473SOL    HW127935   2.913   1.714  17.046
 5473SOL    HW227936   3.004   1.732  16.911
 5474SOL     OW27937   3.494   1.377  16.840
 5474SOL    HW127938   3.462   1.471  16.830
 5474SOL    HW227939   3.418   1.314  16.828
 5475SOL     OW27940   3.262   0.107  17.185
 5475SOL    HW127941   3.238   0.070  17.095
 5475SOL    HW227942   3.361   0.123  17.189
 5476SOL     OW27943   2.159   0.035  16.930
 5476SOL    HW127944   2.208   0.119  16.909
 5476SOL    HW227945   2.221  -0.030  16.975
 5477SOL     OW27946   2.321   1.152  17.500
 5477SOL    HW127947   2.250   1.125  17.565
 5477SOL    HW227948   2.295   1.124  17.407
 5478SOL     OW27949   3.133   1.797  17.350
 5478SOL    HW127950   3.177   1.861  17.286
 5478SOL    HW227951   3.083   1.849  17.420
 5479SOL     OW27952   3.291   1.173  17.626
 5479SOL    HW127953   3.236   1.089  17.619
 5479SOL    HW227954   3.317   1.202  17.534
 5480SOL     OW27955   3.719   0.833  17.136
 5480SOL    HW127956   3.761   0.769  17.200
 5480SOL    HW227957   3.681   0.782  17.058
 5481SOL     OW27958   2.389   0.256  17.087
 5481SOL    HW127959   2.416   0.197  17.012
 5481SOL    HW227960   2.389   0.351  17.056
 5482SOL     OW27961   2.272   0.813  18.010
 5482SOL    HW127962   2.358   0.825  18.060
 5482SOL    HW227963   2.230   0.726  18.037
 5483SOL     OW27964   2.229   1.100  17.260
 5483SOL    HW127965   2.222   1.183  17.204
 5483SOL    HW227966   2.233   1.020  17.200
 5484SOL     OW27967   2.428   0.537  17.624
 5484SOL    HW127968   2.440   0.603  17.550
 5484SOL    HW227969   2.474   0.571  17.707
 5485SOL     OW27970   3.134   1.445  17.901
 5485SOL    HW127971   3.181   1.458  17.988
 5485SOL    HW227972   3.068   1.371  17.910
 5486SOL     OW27973   3.444   0.639  17.231
 5486SOL    HW127974   3.413   0.700  17.304
 5486SOL    HW227975   3.494   0.691  17.162
 5487SOL     OW27976   2.594   0.634  17.823
 5487SOL    HW127977   2.653   0.608  17.747
 5487SOL    HW227978   2.566   0.730  17.812
 5488SOL     OW27979   2.169   0.063  17.377
 5488SOL    HW127980   2.158   0.157  17.410
 5488SOL    HW227981   2.164   0.000  17.454
 5489SOL     OW27982   3.484   0.367  17.133
 5489SOL    HW127983   3.486   0.291  17.197
 5489SOL    HW227984   3.436   0.444  17.173
 5490SOL     OW27985   2.181   0.810  17.708
 5490SOL    HW127986   2.274   0.846  17.713
 5490SOL    HW227987   2.175   0.725  17.760
 5491SOL     OW27988   2.201   0.509  17.765
 5491SOL    HW127989   2.149   0.426  17.748
 5491SOL    HW227990   2.278   0.514  17.701
 5492SOL     OW27991   3.022   0.207  18.236
 5492SOL    HW127992   3.022   0.271  18.313
 5492SOL    HW227993   3.050   0.255  18.153
 5493SOL     OW27994   1.902   0.544  17.873
 5493SOL    HW127995   1.987   0.511  17.832
 5493SOL    HW227996   1.915   0.559  17.971
 5494SOL     OW27997   2.677   0.572  17.084
 5494SOL    HW127998   2.684   0.483  17.038
 5494SOL    HW227999   2.583   0.606  17.076
 5495SOL     OW28000   2.533   0.464  18.028
 5495SOL    HW128001   2.499   0.375  17.998
 5495SOL    HW228002   2.559   0.518  17.948
 5496SOL     OW28003   3.250   1.573  17.236
 5496SOL    HW128004   3.317   1.585  17.162
 5496SOL    HW228005   3.210   1.662  17.259
 5497SOL     OW28006   3.142   0.927  17.431
 5497SOL    HW128007   3.202   0.846  17.433
 5497SOL    HW228008   3.182   0.996  17.371
 5498SOL     OW28009   2.125   0.326  17.479
 5498SOL    HW128010   2.046   0.377  17.445
 5498SOL    HW228011   2.116   0.311  17.577
 5499SOL     OW28012   2.778   0.910  17.050
 5499SOL    HW128013   2.841   0.948  16.982
 5499SOL    HW228014   2.818   0.827  17.089
 5500SOL     OW28015   2.117   1.348  17.049
 5500SOL    HW128016   2.021   1.349  17.022
 5500SOL    HW228017   2.129   1.401  17.133
 5501SOL     OW28018   1.937   0.345  16.792
 5501SOL    HW128019   1.845   0.317  16.763
 5501SOL    HW228020   1.968   0.422  16.736
 5502SOL     OW28021   1.934   0.166  17.077
 5502SOL    HW128022   1.917   0.249  17.023
 5502SOL    HW228023   2.024   0.129  17.055
 5503SOL     OW28024   3.045   1.335  16.878
 5503SOL    HW128025   2.946   1.324  16.880
 5503SOL    HW228026   3.079   1.350  16.971
 5504SOL     OW28027   2.456   0.745  17.411
 5504SOL    HW128028   2.506   0.830  17.392
 5504SOL    HW228029   2.368   0.747  17.363
 5505SOL     OW28030   2.721   1.374  16.775
 5505SOL    HW128031   2.675   1.389  16.863
 5505SOL    HW228032   2.765   1.459  16.745
 5506SOL     OW28033   2.523   1.790  17.712
 5506SOL    HW128034   2.477   1.878  17.699
 5506SOL    HW228035   2.622   1.802  17.705
 5507SOL     OW28036   2.721   0.956  17.620
 5507SOL    HW128037   2.775   0.887  17.668
 5507SOL    HW228038   2.689   1.025  17.686
 5508SOL     OW28039   2.945   0.984  16.846
 5508SOL    HW128040   2.922   1.037  16.764
 5508SOL    HW228041   3.026   0.928  16.827
 5509SOL     OW28042   1.941   1.240  17.412
 5509SOL    HW128043   1.940   1.193  17.500
 5509SOL    HW228044   2.023   1.212  17.361
 5510SOL     OW28045   2.290   0.424  17.279
 5510SOL    HW128046   2.320   0.352  17.217
 5510SOL    HW228047   2.251   0.384  17.362
 5511SOL     OW28048   3.286   0.214  17.871
 5511SOL    HW128049   3.338   0.149  17.926
 5511SOL    HW228050   3.237   0.277  17.932
 5512SOL     OW28051   3.162   0.453  17.450
 5512SOL    HW128052   3.103   0.533  17.454
 5512SOL    HW228053   3.177   0.418  17.543
 5513SOL     OW28054   3.455   0.221  17.641
 5513SOL    HW128055   3.371   0.220  17.695
 5513SOL    HW228056   3.457   0.304  17.585
 5514SOL     OW28057   1.881   2.230   0.647
 5514SOL    HW128058   1.799   2.273   0.686
 5514SOL    HW228059   1.853   2.157   0.584
 5515SOL     OW28060   2.431   3.137   1.165
 5515SOL    HW128061   2.338   3.130   1.128
 5515SOL    HW228062   2.442   3.226   1.209
 5516SOL     OW28063   3.417   3.373   0.703
 5516SOL    HW128064   3.360   3.357   0.784
 5516SOL    HW228065   3.358   3.383   0.623
 5517SOL     OW28066   2.997   2.565   0.717
 5517SOL    HW128067   3.054   2.643   0.692
 5517SOL    HW228068   2.937   2.591   0.793
 5518SOL     OW28069   3.617   2.469   0.231
 5518SOL    HW128070   3.605   2.456   0.132
 5518SOL    HW228071   3.587   2.388   0.280
 5519SOL     OW28072   2.630   3.006   1.023
 5519SOL    HW128073   2.552   3.023   1.083
 5519SOL    HW228074   2.664   3.093   0.987
 5520SOL     OW28075   2.712   2.660   1.823
 5520SOL    HW128076   2.708   2.736   1.888
 5520SOL    HW228077   2.734   2.696   1.732
 5521SOL     OW28078   2.547   2.874   0.665
 5521SOL    HW128079   2.616   2.858   0.735
 5521SOL    HW228080   2.474   2.931   0.703
 5522SOL     OW28081   2.548   3.023   1.803
 5522SOL    HW128082   2.608   3.102   1.817
 5522SOL    HW228083   2.462   3.054   1.762
 5523SOL     OW28084   2.197   3.297   1.061
 5523SOL    HW128085   2.119   3.266   1.008
 5523SOL    HW228086   2.255   3.355   1.004
 5524SOL     OW28087   3.322   3.367   1.339
 5524SOL    HW128088   3.346   3.461   1.365
 5524SOL    HW228089   3.306   3.313   1.421
 5525SOL     OW28090   2.300   2.254   1.499
 5525SOL    HW128091   2.382   2.198   1.508
 5525SOL    HW228092   2.219   2.196   1.503
 5526SOL     OW28093   2.093   3.575   0.483
 5526SOL    HW128094   2.127   3.652   0.537
 5526SOL    HW228095   2.137   3.575   0.393
 5527SOL     OW28096   2.989   3.203   1.690
 5527SOL    HW128097   3.036   3.203   1.778
 5527SOL    HW228098   2.941   3.116   1.679
 5528SOL     OW28099   2.092   3.296   0.538
 5528SOL    HW128100   2.066   3.392   0.538
 5528SOL    HW228101   2.021   3.242   0.583
 5529SOL     OW28102   2.102   2.953   0.886
 5529SOL    HW128103   2.116   2.869   0.938
 5529SOL    HW228104   2.047   3.017   0.941
 5530SOL     OW28105   2.482   3.648   1.439
 5530SOL    HW128106   2.390   3.631   1.474
 5530SOL    HW228107   2.510   3.740   1.465
 5531SOL     OW28108   3.704   3.629   0.359
 5531SOL    HW128109   3.758   3.600   0.439
 5531SOL    HW228110   3.734   3.719   0.330
 5532SOL     OW28111   1.889   3.458   0.117
 5532SOL    HW128112   1.870   3.362   0.138
 5532SOL    HW228113   1.856   3.516   0.192
 5533SOL     OW28114   3.551   2.784   0.612
 5533SOL    HW128115   3.646   2.755   0.620
 5533SOL    HW228116   3.543   2.849   0.537
 5534SOL     OW28117   3.503   2.970   0.432
 5534SOL    HW128118   3.589   2.972   0.380
 5534SOL    HW228119   3.517   3.017   0.520
 5535SOL     OW28120   2.475   3.227   0.726
 5535SOL    HW128121   2.426   3.140   0.735
 5535SOL    HW228122   2.452   3.270   0.639
 5536SOL     OW28123   3.155   3.090   1.423
 5536SOL    HW128124   3.192   3.017   1.365
 5536SOL    HW228125   3.207   3.095   1.508
 5537SOL     OW28126   2.059   2.838   1.264
 5537SOL    HW128127   2.148   2.793   1.250
 5537SOL    HW228128   1.986   2.773   1.245
 5538SOL     OW28129   3.387   2.861   0.190
 5538SOL    HW128130   3.324   2.785   0.203
 5538SOL    HW228131   3.435   2.879   0.276
 5539SOL     OW28132   3.328   3.279   0.953
 5539SOL    HW128133   3.269   3.285   1.033
 5539SOL    HW228134   3.313   3.191   0.907
 5540SOL     OW28135   3.529   3.576   0.572
 5540SOL    HW128136   3.488   3.553   0.484
 5540SOL    HW228137   3.511   3.502   0.637
 5541SOL     OW28138   3.438   3.524   0.307
 5541SOL    HW128139   3.527   3.570   0.310
 5541SOL    HW228140   3.417   3.500   0.212
 5542SOL     OW28141   2.669   2.467   1.465
 5542SOL    HW128142   2.622   2.464   1.554
 5542SOL    HW228143   2.618   2.412   1.399
 5543SOL     OW28144   2.835   2.752   1.572
 5543SOL    HW128145   2.881   2.668   1.543
 5543SOL    HW228146   2.779   2.786   1.497
 5544SOL     OW28147   2.903   2.563   0.429
 5544SOL    HW128148   2.929   2.559   0.525
 5544SOL    HW228149   2.818   2.512   0.415
 5545SOL     OW28150   1.992   3.683   1.571
 5545SOL    HW128151   1.982   3.668   1.670
 5545SOL    HW228152   1.906   3.719   1.535
 5546SOL     OW28153   3.581   2.447   1.831
 5546SOL    HW128154   3.555   2.536   1.795
 5546SOL    HW228155   3.579   2.379   1.758
 5547SOL     OW28156   3.224   3.006   0.545
 5547SOL    HW128157   3.307   2.977   0.497
 5547SOL    HW228158   3.175   3.073   0.489
 5548SOL     OW28159   2.213   3.663   0.853
 5548SOL    HW128160   2.263   3.577   0.859
 5548SOL    HW228161   2.278   3.740   0.850
 5549SOL     OW28162   3.657   2.928   0.873
 5549SOL    HW128163   3.595   2.913   0.797
 5549SOL    HW228164   3.605   2.939   0.958
 5550SOL     OW28165   3.089   3.412   1.506
 5550SOL    HW128166   3.095   3.335   1.570
 5550SOL    HW228167   3.037   3.386   1.426
 5551SOL     OW28168   2.323   3.128   1.727
 5551SOL    HW128169   2.273   3.129   1.641
 5551SOL    HW228170   2.260   3.110   1.803
 5552SOL     OW28171   2.973   3.638   0.237
 5552SOL    HW128172   2.913   3.576   0.287
 5552SOL    HW228173   3.004   3.594   0.152
 5553SOL     OW28174   3.494   3.239   0.081
 5553SOL    HW128175   3.462   3.333   0.071
 5553SOL    HW228176   3.418   3.176   0.069
 5554SOL     OW28177   2.326   3.605   0.323
 5554SOL    HW128178   2.359   3.644   0.409
 5554SOL    HW228179   2.402   3.598   0.258
 5555SOL     OW28180   2.111   3.647   1.241
 5555SOL    HW128181   2.168   3.582   1.291
 5555SOL    HW228182   2.095   3.614   1.148
 5556SOL     OW28183   2.802   3.560   0.904
 5556SOL    HW128184   2.882   3.503   0.925
 5556SOL    HW228185   2.753   3.520   0.827
 5557SOL     OW28186   2.244   2.562   0.480
 5557SOL    HW128187   2.289   2.472   0.477
 5557SOL    HW228188   2.150   2.551   0.513
 5558SOL     OW28189   3.409   2.084   1.729
 5558SOL    HW128190   3.404   2.121   1.821
 5558SOL    HW228191   3.337   2.015   1.717
 5559SOL     OW28192   2.476   1.984   0.117
 5559SOL    HW128193   2.574   1.962   0.124
 5559SOL    HW228194   2.445   1.967   0.024
 5560SOL     OW28195   2.643   2.126   1.749
 5560SOL    HW128196   2.710   2.065   1.792
 5560SOL    HW228197   2.570   2.145   1.814
 5561SOL     OW28198   2.750   3.376   1.195
 5561SOL    HW128199   2.727   3.351   1.101
 5561SOL    HW228200   2.811   3.307   1.234
 5562SOL     OW28201   2.401   1.926   0.512
 5562SOL    HW128202   2.320   1.927   0.570
 5562SOL    HW228203   2.404   2.009   0.457
 5563SOL     OW28204   3.296   3.050   0.041
 5563SOL    HW128205   3.328   2.974   0.098
 5563SOL    HW228206   3.204   3.077   0.071
 5564SOL     OW28207   2.797   2.098   0.480
 5564SOL    HW128208   2.749   2.139   0.402
 5564SOL    HW228209   2.896   2.096   0.461
 5565SOL     OW28210   2.321   3.014   0.741
 5565SOL    HW128211   2.250   2.987   0.806
 5565SOL    HW228212   2.295   2.986   0.648
 5566SOL     OW28213   1.940   2.418   1.386
 5566SOL    HW128214   2.032   2.417   1.345
 5566SOL    HW228215   1.934   2.492   1.453
 5567SOL     OW28216   3.291   3.035   0.867
 5567SOL    HW128217   3.236   2.951   0.860
 5567SOL    HW228218   3.317   3.064   0.775
 5568SOL     OW28219   3.328   2.452   0.992
 5568SOL    HW128220   3.298   2.357   0.999
 5568SOL    HW228221   3.401   2.468   1.058
 5569SOL     OW28222   3.719   2.695   0.377
 5569SOL    HW128223   3.761   2.631   0.441
 5569SOL    HW228224   3.681   2.644   0.299
 5570SOL     OW28225   3.526   3.142   0.657
 5570SOL    HW128226   3.625   3.150   0.671
 5570SOL    HW228227   3.481   3.226   0.688
 5571SOL     OW28228   2.389   2.118   0.328
 5571SOL    HW128229   2.416   2.059   0.253
 5571SOL    HW228230   2.389   2.213   0.297
 5572SOL     OW28231   3.616   3.085   1.588
 5572SOL    HW128232   3.707   3.046   1.575
 5572SOL    HW228233   3.624   3.181   1.612
 5573SOL     OW28234   2.926   3.209   1.340
 5573SOL    HW128235   2.846   3.186   1.395
 5573SOL    HW228236   3.009   3.183   1.389
 5574SOL     OW28237   3.454   3.491   1.625
 5574SOL    HW128238   3.481   3.525   1.535
 5574SOL    HW228239   3.533   3.453   1.671
 5575SOL     OW28240   2.842   2.978   1.719
 5575SOL    HW128241   2.743   2.984   1.729
 5575SOL    HW228242   2.865   2.898   1.663
 5576SOL     OW28243   2.272   2.675   1.251
 5576SOL    HW128244   2.358   2.687   1.301
 5576SOL    HW228245   2.230   2.588   1.278
 5577SOL     OW28246   1.926   3.426   1.331
 5577SOL    HW128247   1.880   3.508   1.297
 5577SOL    HW228248   2.024   3.445   1.340
 5578SOL     OW28249   2.229   2.962   0.501
 5578SOL    HW128250   2.222   3.045   0.445
 5578SOL    HW228251   2.233   2.882   0.441
 5579SOL     OW28252   3.114   3.210   0.388
 5579SOL    HW128253   3.164   3.287   0.428
 5579SOL    HW228254   3.019   3.212   0.420
 5580SOL     OW28255   3.134   3.307   1.142
 5580SOL    HW128256   3.181   3.320   1.229
 5580SOL    HW228257   3.068   3.233   1.151
 5581SOL     OW28258   3.444   2.501   0.472
 5581SOL    HW128259   3.413   2.562   0.545
 5581SOL    HW228260   3.494   2.553   0.403
 5582SOL     OW28261   2.216   3.372   1.329
 5582SOL    HW128262   2.195   3.328   1.242
 5582SOL    HW228263   2.313   3.398   1.332
 5583SOL     OW28264   2.264   2.613   1.598
 5583SOL    HW128265   2.332   2.668   1.551
 5583SOL    HW228266   2.304   2.525   1.625
 5584SOL     OW28267   2.875   1.967   1.770
 5584SOL    HW128268   2.881   2.052   1.718
 5584SOL    HW228269   2.907   1.891   1.713
 5585SOL     OW28270   2.366   1.912   1.740
 5585SOL    HW128271   2.324   1.855   1.670
 5585SOL    HW228272   2.300   1.981   1.772
 5586SOL     OW28273   1.899   3.172   1.282
 5586SOL    HW128274   1.952   3.123   1.350
 5586SOL    HW228275   1.921   3.270   1.287
 5587SOL     OW28276   3.484   2.229   0.374
 5587SOL    HW128277   3.486   2.153   0.438
 5587SOL    HW228278   3.436   2.306   0.414
 5588SOL     OW28279   2.842   3.435   1.700
 5588SOL    HW128280   2.822   3.479   1.612
 5588SOL    HW228281   2.881   3.344   1.684
 5589SOL     OW28282   3.721   3.380   1.605
 5589SOL    HW128283   3.735   3.407   1.510
 5589SOL    HW228284   3.804   3.402   1.658
 5590SOL     OW28285   2.212   2.760   1.804
 5590SOL    HW128286   2.288   2.804   1.852
 5590SOL    HW228287   2.247   2.713   1.722
 5591SOL     OW28288   1.950   3.663   0.927
 5591SOL    HW128289   1.908   3.577   0.900
 5591SOL    HW228290   2.044   3.666   0.893
 5592SOL     OW28291   2.366   3.430   0.910
 5592SOL    HW128292   2.432   3.504   0.919
 5592SOL    HW228293   2.410   3.351   0.868
 5593SOL     OW28294   1.902   2.406   1.114
 5593SOL    HW128295   1.987   2.373   1.073
 5593SOL    HW228296   1.915   2.421   1.212
 5594SOL     OW28297   2.114   3.426   1.744
 5594SOL    HW128298   2.084   3.483   1.820
 5594SOL    HW228299   2.107   3.329   1.770
 5595SOL     OW28300   2.533   2.326   1.269
 5595SOL    HW128301   2.499   2.237   1.239
 5595SOL    HW228302   2.559   2.380   1.189
 5596SOL     OW28303   2.792   3.540   1.465
 5596SOL    HW128304   2.768   3.522   1.370
 5596SOL    HW228305   2.822   3.634   1.475
 5597SOL     OW28306   2.335   2.362   0.191
 5597SOL    HW128307   2.396   2.442   0.195
 5597SOL    HW228308   2.240   2.393   0.198
 5598SOL     OW28309   2.021   2.999   1.466
 5598SOL    HW128310   2.043   2.938   1.542
 5598SOL    HW228311   2.031   2.950   1.380
 5599SOL     OW28312   3.621   3.609   1.154
 5599SOL    HW128313   3.682   3.639   1.081
 5599SOL    HW228314   3.583   3.520   1.132
 5600SOL     OW28315   3.114   3.593   1.128
 5600SOL    HW128316   3.198   3.598   1.074
 5600SOL    HW228317   3.091   3.497   1.146
 5601SOL     OW28318   1.945   3.120   1.022
 5601SOL    HW128319   1.940   3.119   1.122
 5601SOL    HW228320   1.862   3.079   0.984
 5602SOL     OW28321   2.550   3.524   1.716
 5602SOL    HW128322   2.494   3.605   1.725
 5602SOL    HW228323   2.602   3.528   1.630
 5603SOL     OW28324   2.765   1.948   0.133
 5603SOL    HW128325   2.816   1.949   0.047
 5603SOL    HW228326   2.821   1.906   0.204
 5604SOL     OW28327   3.250   3.435   0.477
 5604SOL    HW128328   3.317   3.447   0.403
 5604SOL    HW228329   3.210   3.524   0.500
 5605SOL     OW28330   1.992   3.656   1.851
 5605SOL    HW128331   1.951   3.582   1.904
 5605SOL    HW228332   2.056   3.707   1.909
 5606SOL     OW28333   3.142   2.789   0.672
 5606SOL    HW128334   3.202   2.708   0.674
 5606SOL    HW228335   3.182   2.858   0.612
 5607SOL     OW28336   2.692   3.135   1.422
 5607SOL    HW128337   2.687   3.168   1.517
 5607SOL    HW228338   2.606   3.154   1.376
 5608SOL     OW28339   3.512   3.582   1.394
 5608SOL    HW128340   3.565   3.592   1.310
 5608SOL    HW228341   3.485   3.672   1.428
 5609SOL     OW28342   3.056   3.474   0.031
 5609SOL    HW128343   3.062   3.381   0.068
 5609SOL    HW228344   2.997   3.474  -0.049
 5610SOL     OW28345   2.684   2.864   1.372
 5610SOL    HW128346   2.724   2.863   1.280
 5610SOL    HW228347   2.694   2.956   1.412
 5611SOL     OW28348   2.778   2.772   0.291
 5611SOL    HW128349   2.841   2.810   0.223
 5611SOL    HW228350   2.818   2.689   0.330
 5612SOL     OW28351   3.366   3.469   0.044
 5612SOL    HW128352   3.274   3.506   0.051
 5612SOL    HW228353   3.404   3.489  -0.046
 5613SOL     OW28354   2.234   3.150   1.490
 5613SOL    HW128355   2.221   3.243   1.456
 5613SOL    HW228356   2.150   3.098   1.477
 5614SOL     OW28357   3.476   3.154   1.289
 5614SOL    HW128358   3.536   3.157   1.369
 5614SOL    HW228359   3.401   3.218   1.302
 5615SOL     OW28360   1.967   2.875   1.726
 5615SOL    HW128361   1.890   2.842   1.780
 5615SOL    HW228362   2.052   2.845   1.768
 5616SOL     OW28363   3.045   3.197   0.119
 5616SOL    HW128364   2.946   3.186   0.121
 5616SOL    HW228365   3.079   3.212   0.212
 5617SOL     OW28366   2.475   2.704   1.431
 5617SOL    HW128367   2.531   2.785   1.414
 5617SOL    HW228368   2.534   2.624   1.434
 5618SOL     OW28369   3.355   3.629   0.959
 5618SOL    HW128370   3.388   3.693   0.890
 5618SOL    HW228371   3.421   3.623   1.034
 5619SOL     OW28372   2.578   2.427   1.708
 5619SOL    HW128373   2.597   2.492   1.782
 5619SOL    HW228374   2.638   2.347   1.717
 5620SOL     OW28375   3.312   3.082   1.633
 5620SOL    HW128376   3.303   3.072   1.732
 5620SOL    HW228377   3.408   3.075   1.607
 5621SOL     OW28378   2.252   3.603   1.560
 5621SOL    HW128379   2.161   3.644   1.558
 5621SOL    HW228380   2.245   3.509   1.592
 5622SOL     OW28381   3.639   2.204   1.642
 5622SOL    HW128382   3.622   2.235   1.548
 5622SOL    HW228383   3.555   2.167   1.680
 5623SOL     OW28384   3.592   2.796   1.517
 5623SOL    HW128385   3.630   2.887   1.532
 5623SOL    HW228386   3.584   2.779   1.418
 5624SOL     OW28387   2.721   3.236   0.016
 5624SOL    HW128388   2.675   3.251   0.104
 5624SOL    HW228389   2.765   3.321  -0.014
 5625SOL     OW28390   2.523   3.652   0.953
 5625SOL    HW128391   2.477   3.740   0.940
 5625SOL    HW228392   2.622   3.664   0.946
 5626SOL     OW28393   2.945   2.846   0.087
 5626SOL    HW128394   2.922   2.899   0.005
 5626SOL    HW228395   3.026   2.790   0.068
 5627SOL     OW28396   3.723   3.431   0.851
 5627SOL    HW128397   3.652   3.419   0.781
 5627SOL    HW228398   3.724   3.352   0.911
 5628SOL     OW28399   2.083   3.176   1.844
 5628SOL    HW128400   2.018   3.103   1.823
 5628SOL    HW228401   2.087   3.190   1.942
 5629SOL     OW28402   1.941   3.102   0.653
 5629SOL    HW128403   1.940   3.055   0.741
 5629SOL    HW228404   2.023   3.074   0.602
 5630SOL     OW28405   2.534   3.253   1.624
 5630SOL    HW128406   2.456   3.203   1.662
 5630SOL    HW228407   2.531   3.348   1.655
 5631SOL     OW28408   2.290   2.286   0.520
 5631SOL    HW128409   2.320   2.214   0.458
 5631SOL    HW228410   2.251   2.246   0.603
 5632SOL     OW28411   3.567   3.349   1.104
 5632SOL    HW128412   3.474   3.324   1.077
 5632SOL    HW228413   3.593   3.299   1.186
 5633SOL     OW28414   2.480   3.429   1.284
 5633SOL    HW128415   2.475   3.511   1.341
 5633SOL    HW228416   2.569   3.426   1.239
 5634SOL     OW28417   3.162   2.315   0.691
 5634SOL    HW128418   3.103   2.395   0.695
 5634SOL    HW228419   3.177   2.280   0.784
 5635SOL     OW28420   3.455   2.083   0.882
 5635SOL    HW128421   3.371   2.082   0.936
 5635SOL    HW228422   3.457   2.166   0.826
 5636SOL     OW28423   2.087   2.137   2.858
 5636SOL    HW128424   2.122   2.120   2.950
 5636SOL    HW228425   1.999   2.092   2.846
 5637SOL     OW28426   1.881   2.230   2.509
 5637SOL    HW128427   1.799   2.273   2.548
 5637SOL    HW228428   1.853   2.157   2.446
 5638SOL     OW28429   2.431   3.137   3.027
 5638SOL    HW128430   2.338   3.130   2.990
 5638SOL    HW228431   2.442   3.226   3.071
 5639SOL     OW28432   3.417   3.373   2.565
 5639SOL    HW128433   3.360   3.357   2.646
 5639SOL    HW228434   3.358   3.383   2.485
 5640SOL     OW28435   2.997   2.565   2.579
 5640SOL    HW128436   3.054   2.643   2.554
 5640SOL    HW228437   2.937   2.591   2.655
 5641SOL     OW28438   3.617   2.469   2.093
 5641SOL    HW128439   3.605   2.456   1.994
 5641SOL    HW228440   3.587   2.388   2.142
 5642SOL     OW28441   2.630   3.006   2.885
 5642SOL    HW128442   2.552   3.023   2.945
 5642SOL    HW228443   2.664   3.093   2.849
 5643SOL     OW28444   2.712   2.660   3.685
 5643SOL    HW128445   2.708   2.736   3.750
 5643SOL    HW228446   2.734   2.696   3.594
 5644SOL     OW28447   2.547   2.874   2.527
 5644SOL    HW128448   2.616   2.858   2.597
 5644SOL    HW228449   2.474   2.931   2.565
 5645SOL     OW28450   2.548   3.023   3.665
 5645SOL    HW128451   2.608   3.102   3.679
 5645SOL    HW228452   2.462   3.054   3.624
 5646SOL     OW28453   2.197   3.297   2.923
 5646SOL    HW128454   2.119   3.266   2.870
 5646SOL    HW228455   2.255   3.355   2.866
 5647SOL     OW28456   3.322   3.367   3.201
 5647SOL    HW128457   3.346   3.461   3.227
 5647SOL    HW228458   3.306   3.313   3.283
 5648SOL     OW28459   2.300   2.254   3.361
 5648SOL    HW128460   2.382   2.198   3.370
 5648SOL    HW228461   2.219   2.196   3.365
 5649SOL     OW28462   3.465   2.309   2.599
 5649SOL    HW128463   3.391   2.355   2.549
 5649SOL    HW228464   3.516   2.377   2.652
 5650SOL     OW28465   2.093   3.575   2.345
 5650SOL    HW128466   2.127   3.652   2.399
 5650SOL    HW228467   2.137   3.575   2.255
 5651SOL     OW28468   2.989   3.203   3.552
 5651SOL    HW128469   3.036   3.203   3.640
 5651SOL    HW228470   2.941   3.116   3.541
 5652SOL     OW28471   2.092   3.296   2.400
 5652SOL    HW128472   2.066   3.392   2.400
 5652SOL    HW228473   2.021   3.242   2.445
 5653SOL     OW28474   2.102   2.953   2.748
 5653SOL    HW128475   2.116   2.869   2.800
 5653SOL    HW228476   2.047   3.017   2.803
 5654SOL     OW28477   2.482   3.648   3.301
 5654SOL    HW128478   2.390   3.631   3.336
 5654SOL    HW228479   2.510   3.740   3.327
 5655SOL     OW28480   2.468   2.826   1.985
 5655SOL    HW128481   2.475   2.910   1.931
 5655SOL    HW228482   2.514   2.839   2.073
 5656SOL     OW28483   3.456   1.976   3.342
 5656SOL    HW128484   3.438   2.043   3.270
 5656SOL    HW228485   3.453   2.022   3.431
 5657SOL     OW28486   1.984   2.505   2.425
 5657SOL    HW128487   1.939   2.417   2.442
 5657SOL    HW228488   1.983   2.559   2.509
 5658SOL     OW28489   3.704   3.629   2.221
 5658SOL    HW128490   3.758   3.600   2.301
 5658SOL    HW228491   3.734   3.719   2.192
 5659SOL     OW28492   1.889   3.458   1.979
 5659SOL    HW128493   1.870   3.362   2.000
 5659SOL    HW228494   1.856   3.516   2.054
 5660SOL     OW28495   3.551   2.784   2.474
 5660SOL    HW128496   3.646   2.755   2.482
 5660SOL    HW228497   3.543   2.849   2.399
 5661SOL     OW28498   1.975   2.599   3.459
 5661SOL    HW128499   2.063   2.586   3.504
 5661SOL    HW228500   1.962   2.696   3.437
 5662SOL     OW28501   2.475   3.227   2.588
 5662SOL    HW128502   2.426   3.140   2.597
 5662SOL    HW228503   2.452   3.270   2.501
 5663SOL     OW28504   3.155   3.090   3.285
 5663SOL    HW128505   3.192   3.017   3.227
 5663SOL    HW228506   3.207   3.095   3.370
 5664SOL     OW28507   2.671   1.866   2.364
 5664SOL    HW128508   2.711   1.957   2.355
 5664SOL    HW228509   2.571   1.874   2.370
 5665SOL     OW28510   2.059   2.838   3.126
 5665SOL    HW128511   2.148   2.793   3.112
 5665SOL    HW228512   1.986   2.773   3.107
 5666SOL     OW28513   3.049   3.654   3.478
 5666SOL    HW128514   3.073   3.714   3.402
 5666SOL    HW228515   3.056   3.559   3.448
 5667SOL     OW28516   2.179   2.113   3.663
 5667SOL    HW128517   2.250   2.184   3.669
 5667SOL    HW228518   2.091   2.152   3.691
 5668SOL     OW28519   3.328   3.279   2.815
 5668SOL    HW128520   3.269   3.285   2.895
 5668SOL    HW228521   3.313   3.191   2.769
 5669SOL     OW28522   3.529   3.576   2.434
 5669SOL    HW128523   3.488   3.553   2.346
 5669SOL    HW228524   3.511   3.502   2.499
 5670SOL     OW28525   2.460   2.591   2.132
 5670SOL    HW128526   2.484   2.660   2.064
 5670SOL    HW228527   2.382   2.624   2.186
 5671SOL     OW28528   3.143   2.207   2.806
 5671SOL    HW128529   3.057   2.157   2.793
 5671SOL    HW228530   3.205   2.153   2.862
 5672SOL     OW28531   3.438   3.524   2.169
 5672SOL    HW128532   3.527   3.570   2.172
 5672SOL    HW228533   3.417   3.500   2.074
 5673SOL     OW28534   2.669   2.467   3.327
 5673SOL    HW128535   2.622   2.464   3.416
 5673SOL    HW228536   2.618   2.412   3.261
 5674SOL     OW28537   3.256   2.331   3.536
 5674SOL    HW128538   3.236   2.374   3.624
 5674SOL    HW228539   3.334   2.269   3.545
 5675SOL     OW28540   2.835   2.752   3.434
 5675SOL    HW128541   2.881   2.668   3.405
 5675SOL    HW228542   2.779   2.786   3.359
 5676SOL     OW28543   2.853   2.272   3.104
 5676SOL    HW128544   2.776   2.306   3.158
 5676SOL    HW228545   2.819   2.221   3.025
 5677SOL     OW28546   2.903   2.563   2.291
 5677SOL    HW128547   2.929   2.559   2.387
 5677SOL    HW228548   2.818   2.512   2.277
 5678SOL     OW28549   1.938   2.673   2.651
 5678SOL    HW128550   2.037   2.661   2.660
 5678SOL    HW228551   1.914   2.768   2.672
 5679SOL     OW28552   1.992   3.683   3.433
 5679SOL    HW128553   1.982   3.668   3.532
 5679SOL    HW228554   1.906   3.719   3.397
 5680SOL     OW28555   2.727   2.210   2.057
 5680SOL    HW128556   2.786   2.273   2.008
 5680SOL    HW228557   2.746   2.116   2.028
 5681SOL     OW28558   3.581   2.447   3.693
 5681SOL    HW128559   3.555   2.536   3.657
 5681SOL    HW228560   3.579   2.379   3.620
 5682SOL     OW28561   3.224   3.006   2.407
 5682SOL    HW128562   3.307   2.977   2.359
 5682SOL    HW228563   3.175   3.073   2.351
 5683SOL     OW28564   2.412   2.058   2.747
 5683SOL    HW128565   2.407   2.053   2.847
 5683SOL    HW228566   2.414   2.154   2.718
 5684SOL     OW28567   2.870   3.318   2.339
 5684SOL    HW128568   2.824   3.390   2.287
 5684SOL    HW228569   2.866   3.338   2.437
 5685SOL     OW28570   2.213   3.663   2.715
 5685SOL    HW128571   2.263   3.577   2.721
 5685SOL    HW228572   2.278   3.740   2.712
 5686SOL     OW28573   3.657   2.928   2.735
 5686SOL    HW128574   3.595   2.913   2.659
 5686SOL    HW228575   3.605   2.939   2.820
 5687SOL     OW28576   3.089   3.412   3.368
 5687SOL    HW128577   3.095   3.335   3.432
 5687SOL    HW228578   3.037   3.386   3.288
 5688SOL     OW28579   2.183   2.805   2.104
 5688SOL    HW128580   2.265   2.844   2.062
 5688SOL    HW228581   2.156   2.723   2.055
 5689SOL     OW28582   3.320   2.597   2.590
 5689SOL    HW128583   3.315   2.532   2.665
 5689SOL    HW228584   3.400   2.656   2.603
 5690SOL     OW28585   2.323   3.128   3.589
 5690SOL    HW128586   2.273   3.129   3.503
 5690SOL    HW228587   2.260   3.110   3.665
 5691SOL     OW28588   2.973   3.638   2.099
 5691SOL    HW128589   2.913   3.576   2.149
 5691SOL    HW228590   3.004   3.594   2.014
 5692SOL     OW28591   2.064   2.147   3.360
 5692SOL    HW128592   1.984   2.207   3.347
 5692SOL    HW228593   2.054   2.098   3.446
 5693SOL     OW28594   3.494   3.239   1.943
 5693SOL    HW128595   3.462   3.333   1.933
 5693SOL    HW228596   3.418   3.176   1.931
 5694SOL     OW28597   2.326   3.605   2.185
 5694SOL    HW128598   2.359   3.644   2.271
 5694SOL    HW228599   2.402   3.598   2.120
 5695SOL     OW28600   3.262   1.969   2.288
 5695SOL    HW128601   3.238   1.932   2.198
 5695SOL    HW228602   3.361   1.985   2.292
 5696SOL     OW28603   2.111   3.647   3.103
 5696SOL    HW128604   2.168   3.582   3.153
 5696SOL    HW228605   2.095   3.614   3.010
 5697SOL     OW28606   2.802   3.560   2.766
 5697SOL    HW128607   2.882   3.503   2.787
 5697SOL    HW228608   2.753   3.520   2.689
 5698SOL     OW28609   2.244   2.562   2.342
 5698SOL    HW128610   2.289   2.472   2.339
 5698SOL    HW228611   2.150   2.551   2.375
 5699SOL     OW28612   3.409   2.084   3.591
 5699SOL    HW128613   3.404   2.121   3.683
 5699SOL    HW228614   3.337   2.015   3.579
 5700SOL     OW28615   2.476   1.984   1.979
 5700SOL    HW128616   2.574   1.962   1.986
 5700SOL    HW228617   2.445   1.967   1.886
 5701SOL     OW28618   2.643   2.126   3.611
 5701SOL    HW128619   2.710   2.065   3.654
 5701SOL    HW228620   2.570   2.145   3.676
 5702SOL     OW28621   2.750   3.376   3.057
 5702SOL    HW128622   2.727   3.351   2.963
 5702SOL    HW228623   2.811   3.307   3.096
 5703SOL     OW28624   3.213   2.452   3.295
 5703SOL    HW128625   3.241   2.409   3.380
 5703SOL    HW228626   3.238   2.548   3.296
 5704SOL     OW28627   2.665   3.264   2.786
 5704SOL    HW128628   2.755   3.278   2.744
 5704SOL    HW228629   2.594   3.266   2.715
 5705SOL     OW28630   2.784   2.365   2.761
 5705SOL    HW128631   2.759   2.356   2.665
 5705SOL    HW228632   2.832   2.283   2.792
 5706SOL     OW28633   2.401   1.926   2.374
 5706SOL    HW128634   2.320   1.927   2.432
 5706SOL    HW228635   2.404   2.009   2.319
 5707SOL     OW28636   2.159   1.897   2.033
 5707SOL    HW128637   2.208   1.981   2.012
 5707SOL    HW228638   2.221   1.832   2.078
 5708SOL     OW28639   2.797   2.098   2.342
 5708SOL    HW128640   2.749   2.139   2.264
 5708SOL    HW228641   2.896   2.096   2.323
 5709SOL     OW28642   2.938   2.545   3.326
 5709SOL    HW128643   2.858   2.484   3.329
 5709SOL    HW228644   3.019   2.492   3.302
 5710SOL     OW28645   3.089   3.432   2.655
 5710SOL    HW128646   3.110   3.506   2.590
 5710SOL    HW228647   3.157   3.432   2.728
 5711SOL     OW28648   2.321   3.014   2.603
 5711SOL    HW128649   2.250   2.987   2.668
 5711SOL    HW228650   2.295   2.986   2.510
 5712SOL     OW28651   3.133   3.659   2.453
 5712SOL    HW128652   3.177   3.723   2.389
 5712SOL    HW228653   3.083   3.711   2.523
 5713SOL     OW28654   2.894   2.411   1.878
 5713SOL    HW128655   2.853   2.493   1.839
 5713SOL    HW228656   2.958   2.437   1.951
 5714SOL     OW28657   1.940   2.418   3.248
 5714SOL    HW128658   2.032   2.417   3.207
 5714SOL    HW228659   1.934   2.492   3.315
 5715SOL     OW28660   2.423   2.084   3.009
 5715SOL    HW128661   2.461   2.000   3.046
 5715SOL    HW228662   2.335   2.103   3.053
 5716SOL     OW28663   2.728   2.316   2.504
 5716SOL    HW128664   2.696   2.388   2.442
 5716SOL    HW228665   2.752   2.235   2.451
 5717SOL     OW28666   2.879   1.901   2.615
 5717SOL    HW128667   2.807   1.906   2.546
 5717SOL    HW228668   2.855   1.832   2.684
 5718SOL     OW28669   3.291   3.035   2.729
 5718SOL    HW128670   3.236   2.951   2.722
 5718SOL    HW228671   3.317   3.064   2.637
 5719SOL     OW28672   3.328   2.452   2.854
 5719SOL    HW128673   3.298   2.357   2.861
 5719SOL    HW228674   3.401   2.468   2.920
 5720SOL     OW28675   3.719   2.695   2.239
 5720SOL    HW128676   3.761   2.631   2.303
 5720SOL    HW228677   3.681   2.644   2.161
 5721SOL     OW28678   2.350   3.247   2.036
 5721SOL    HW128679   2.263   3.232   2.083
 5721SOL    HW228680   2.333   3.273   1.941
 5722SOL     OW28681   3.526   3.142   2.519
 5722SOL    HW128682   3.625   3.150   2.533
 5722SOL    HW228683   3.481   3.226   2.550
 5723SOL     OW28684   3.252   2.437   1.940
 5723SOL    HW128685   3.198   2.416   2.021
 5723SOL    HW228686   3.343   2.396   1.949
 5724SOL     OW28687   2.389   2.118   2.190
 5724SOL    HW128688   2.416   2.059   2.115
 5724SOL    HW228689   2.389   2.213   2.159
 5725SOL     OW28690   3.616   3.085   3.450
 5725SOL    HW128691   3.707   3.046   3.437
 5725SOL    HW228692   3.624   3.181   3.474
 5726SOL     OW28693   2.926   3.209   3.202
 5726SOL    HW128694   2.846   3.186   3.257
 5726SOL    HW228695   3.009   3.183   3.251
 5727SOL     OW28696   3.454   3.491   3.487
 5727SOL    HW128697   3.481   3.525   3.397
 5727SOL    HW228698   3.533   3.453   3.533
 5728SOL     OW28699   2.973   3.057   2.962
 5728SOL    HW128700   2.933   3.101   3.043
 5728SOL    HW228701   2.932   3.094   2.879
 5729SOL     OW28702   3.500   2.961   2.941
 5729SOL    HW128703   3.505   3.042   3.000
 5729SOL    HW228704   3.414   2.963   2.890
 5730SOL     OW28705   2.777   1.951   3.264
 5730SOL    HW128706   2.802   1.931   3.169
 5730SOL    HW228707   2.849   2.007   3.306
 5731SOL     OW28708   2.842   2.978   3.581
 5731SOL    HW128709   2.743   2.984   3.591
 5731SOL    HW228710   2.865   2.898   3.525
 5732SOL     OW28711   2.567   2.912   2.230
 5732SOL    HW128712   2.553   2.919   2.329
 5732SOL    HW228713   2.651   2.861   2.212
 5733SOL     OW28714   2.272   2.675   3.113
 5733SOL    HW128715   2.358   2.687   3.163
 5733SOL    HW228716   2.230   2.588   3.140
 5734SOL     OW28717   3.136   2.248   3.124
 5734SOL    HW128718   3.157   2.322   3.188
 5734SOL    HW228719   3.047   2.265   3.081
 5735SOL     OW28720   1.926   3.426   3.193
 5735SOL    HW128721   1.880   3.508   3.159
 5735SOL    HW228722   2.024   3.445   3.202
 5736SOL     OW28723   2.229   2.962   2.363
 5736SOL    HW128724   2.222   3.045   2.307
 5736SOL    HW228725   2.233   2.882   2.303
 5737SOL     OW28726   2.428   2.399   2.727
 5737SOL    HW128727   2.440   2.465   2.653
 5737SOL    HW228728   2.474   2.433   2.810
 5738SOL     OW28729   3.114   3.210   2.250
 5738SOL    HW128730   3.164   3.287   2.290
 5738SOL    HW228731   3.019   3.212   2.282
 5739SOL     OW28732   3.134   3.307   3.004
 5739SOL    HW128733   3.181   3.320   3.091
 5739SOL    HW228734   3.068   3.233   3.013
 5740SOL     OW28735   3.444   2.501   2.334
 5740SOL    HW128736   3.413   2.562   2.407
 5740SOL    HW228737   3.494   2.553   2.265
 5741SOL     OW28738   2.216   3.372   3.191
 5741SOL    HW128739   2.195   3.328   3.104
 5741SOL    HW228740   2.313   3.398   3.194
 5742SOL     OW28741   2.264   2.613   3.460
 5742SOL    HW128742   2.332   2.668   3.413
 5742SOL    HW228743   2.304   2.525   3.487
 5743SOL     OW28744   3.449   2.641   3.532
 5743SOL    HW128745   3.357   2.679   3.527
 5743SOL    HW228746   3.509   2.688   3.467
 5744SOL     OW28747   2.875   1.967   3.632
 5744SOL    HW128748   2.881   2.052   3.580
 5744SOL    HW228749   2.907   1.891   3.575
 5745SOL     OW28750   2.366   1.912   3.602
 5745SOL    HW128751   2.324   1.855   3.532
 5745SOL    HW228752   2.300   1.981   3.634
 5746SOL     OW28753   2.435   2.732   2.891
 5746SOL    HW128754   2.479   2.821   2.882
 5746SOL    HW228755   2.372   2.732   2.968
 5747SOL     OW28756   3.222   2.724   2.907
 5747SOL    HW128757   3.147   2.724   2.841
 5747SOL    HW228758   3.259   2.632   2.916
 5748SOL     OW28759   3.071   2.387   2.137
 5748SOL    HW128760   3.084   2.303   2.191
 5748SOL    HW228761   3.042   2.461   2.197
 5749SOL     OW28762   2.169   2.075   3.093
 5749SOL    HW128763   2.146   2.112   3.183
 5749SOL    HW228764   2.139   1.980   3.087
 5750SOL     OW28765   1.899   3.172   3.144
 5750SOL    HW128766   1.952   3.123   3.212
 5750SOL    HW228767   1.921   3.270   3.149
 5751SOL     OW28768   2.594   2.496   2.926
 5751SOL    HW128769   2.653   2.470   2.850
 5751SOL    HW228770   2.566   2.592   2.915
 5752SOL     OW28771   3.590   2.797   3.716
 5752SOL    HW128772   3.544   2.790   3.627
 5752SOL    HW228773   3.528   2.841   3.782
 5753SOL     OW28774   2.169   1.925   2.480
 5753SOL    HW128775   2.158   2.019   2.513
 5753SOL    HW228776   2.164   1.862   2.557
 5754SOL     OW28777   3.484   2.229   2.236
 5754SOL    HW128778   3.486   2.153   2.300
 5754SOL    HW228779   3.436   2.306   2.276
 5755SOL     OW28780   2.885   2.628   2.828
 5755SOL    HW128781   2.900   2.649   2.924
 5755SOL    HW228782   2.855   2.533   2.819
 5756SOL     OW28783   2.842   3.435   3.562
 5756SOL    HW128784   2.822   3.479   3.474
 5756SOL    HW228785   2.881   3.344   3.546
 5757SOL     OW28786   3.721   3.380   3.467
 5757SOL    HW128787   3.735   3.407   3.372
 5757SOL    HW228788   3.804   3.402   3.520
 5758SOL     OW28789   2.212   2.760   3.666
 5758SOL    HW128790   2.288   2.804   3.714
 5758SOL    HW228791   2.247   2.713   3.584
 5759SOL     OW28792   3.402   2.136   1.987
 5759SOL    HW128793   3.341   2.061   2.010
 5759SOL    HW228794   3.424   2.188   2.070
 5760SOL     OW28795   2.930   3.195   2.711
 5760SOL    HW128796   2.937   3.111   2.656
 5760SOL    HW228797   2.992   3.264   2.675
 5761SOL     OW28798   2.181   2.672   2.811
 5761SOL    HW128799   2.274   2.708   2.816
 5761SOL    HW228800   2.175   2.587   2.863
 5762SOL     OW28801   2.201   2.371   2.868
 5762SOL    HW128802   2.149   2.288   2.851
 5762SOL    HW228803   2.278   2.376   2.804
 5763SOL     OW28804   3.000   2.242   3.540
 5763SOL    HW128805   2.955   2.305   3.604
 5763SOL    HW228806   3.093   2.273   3.523
 5764SOL     OW28807   3.022   2.069   3.339
 5764SOL    HW128808   3.022   2.133   3.416
 5764SOL    HW228809   3.050   2.117   3.256
 5765SOL     OW28810   1.870   3.188   2.062
 5765SOL    HW128811   1.777   3.209   2.031
 5765SOL    HW228812   1.880   3.089   2.075
 5766SOL     OW28813   1.950   3.663   2.789
 5766SOL    HW128814   1.908   3.577   2.762
 5766SOL    HW228815   2.044   3.666   2.755
 5767SOL     OW28816   2.366   3.430   2.772
 5767SOL    HW128817   2.432   3.504   2.781
 5767SOL    HW228818   2.410   3.351   2.730
 5768SOL     OW28819   2.864   2.658   3.100
 5768SOL    HW128820   2.905   2.626   3.186
 5768SOL    HW228821   2.768   2.631   3.097
 5769SOL     OW28822   1.902   2.406   2.976
 5769SOL    HW128823   1.987   2.373   2.935
 5769SOL    HW228824   1.915   2.421   3.074
 5770SOL     OW28825   2.051   2.382   3.584
 5770SOL    HW128826   2.110   2.342   3.514
 5770SOL    HW228827   1.993   2.453   3.543
 5771SOL     OW28828   3.231   2.812   3.522
 5771SOL    HW128829   3.270   2.901   3.542
 5771SOL    HW228830   3.241   2.792   3.425
 5772SOL     OW28831   2.677   2.434   2.187
 5772SOL    HW128832   2.684   2.345   2.141
 5772SOL    HW228833   2.583   2.468   2.179
 5773SOL     OW28834   3.519   2.466   3.068
 5773SOL    HW128835   3.481   2.397   3.130
 5773SOL    HW228836   3.601   2.430   3.024
 5774SOL     OW28837   2.114   3.426   3.606
 5774SOL    HW128838   2.084   3.483   3.682
 5774SOL    HW228839   2.107   3.329   3.632
 5775SOL     OW28840   2.533   2.326   3.131
 5775SOL    HW128841   2.499   2.237   3.101
 5775SOL    HW228842   2.559   2.380   3.051
 5776SOL     OW28843   2.792   3.540   3.327
 5776SOL    HW128844   2.768   3.522   3.232
 5776SOL    HW228845   2.822   3.634   3.337
 5777SOL     OW28846   2.335   2.362   2.053
 5777SOL    HW128847   2.396   2.442   2.057
 5777SOL    HW228848   2.240   2.393   2.060
 5778SOL     OW28849   2.021   2.999   3.328
 5778SOL    HW128850   2.043   2.938   3.404
 5778SOL    HW228851   2.031   2.950   3.242
 5779SOL     OW28852   3.209   2.921   3.096
 5779SOL    HW128853   3.233   2.858   3.022
 5779SOL    HW228854   3.119   2.961   3.078
 5780SOL     OW28855   3.164   2.717   2.171
 5780SOL    HW128856   3.078   2.686   2.213
 5780SOL    HW228857   3.160   2.703   2.072
 5781SOL     OW28858   3.621   3.609   3.016
 5781SOL    HW128859   3.682   3.639   2.943
 5781SOL    HW228860   3.583   3.520   2.994
 5782SOL     OW28861   3.114   3.593   2.990
 5782SOL    HW128862   3.198   3.598   2.936
 5782SOL    HW228863   3.091   3.497   3.008
 5783SOL     OW28864   1.945   3.120   2.884
 5783SOL    HW128865   1.940   3.119   2.984
 5783SOL    HW228866   1.862   3.079   2.846
 5784SOL     OW28867   2.550   3.524   3.578
 5784SOL    HW128868   2.494   3.605   3.587
 5784SOL    HW228869   2.602   3.528   3.492
 5785SOL     OW28870   3.588   1.997   2.385
 5785SOL    HW128871   3.661   1.980   2.318
 5785SOL    HW228872   3.557   1.910   2.423
 5786SOL     OW28873   3.250   3.435   2.339
 5786SOL    HW128874   3.317   3.447   2.265
 5786SOL    HW228875   3.210   3.524   2.362
 5787SOL     OW28876   1.992   3.656   3.713
 5787SOL    HW128877   1.951   3.582   3.766
 5787SOL    HW228878   2.056   3.707   3.771
 5788SOL     OW28879   3.142   2.789   2.534
 5788SOL    HW128880   3.202   2.708   2.536
 5788SOL    HW228881   3.182   2.858   2.474
 5789SOL     OW28882   2.692   3.135   3.284
 5789SOL    HW128883   2.687   3.168   3.379
 5789SOL    HW228884   2.606   3.154   3.238
 5790SOL     OW28885   2.534   3.478   2.016
 5790SOL    HW128886   2.543   3.488   1.917
 5790SOL    HW228887   2.494   3.389   2.037
 5791SOL     OW28888   3.512   3.582   3.256
 5791SOL    HW128889   3.565   3.592   3.172
 5791SOL    HW228890   3.485   3.672   3.290
 5792SOL     OW28891   3.703   2.037   2.825
 5792SOL    HW128892   3.742   1.952   2.789
 5792SOL    HW228893   3.605   2.039   2.806
 5793SOL     OW28894   2.125   2.188   2.582
 5793SOL    HW128895   2.046   2.239   2.548
 5793SOL    HW228896   2.116   2.173   2.680
 5794SOL     OW28897   3.056   3.474   1.893
 5794SOL    HW128898   3.062   3.381   1.930
 5794SOL    HW228899   2.997   3.474   1.813
 5795SOL     OW28900   2.684   2.864   3.234
 5795SOL    HW128901   2.724   2.863   3.142
 5795SOL    HW228902   2.694   2.956   3.274
 5796SOL     OW28903   2.778   2.772   2.153
 5796SOL    HW128904   2.841   2.810   2.085
 5796SOL    HW228905   2.818   2.689   2.192
 5797SOL     OW28906   3.366   3.469   1.906
 5797SOL    HW128907   3.274   3.506   1.913
 5797SOL    HW228908   3.404   3.489   1.816
 5798SOL     OW28909   2.234   3.150   3.352
 5798SOL    HW128910   2.221   3.243   3.318
 5798SOL    HW228911   2.150   3.098   3.339
 5799SOL     OW28912   3.476   3.154   3.151
 5799SOL    HW128913   3.536   3.157   3.231
 5799SOL    HW228914   3.401   3.218   3.164
 5800SOL     OW28915   2.901   2.960   2.558
 5800SOL    HW128916   2.831   2.913   2.612
 5800SOL    HW228917   2.960   2.892   2.515
 5801SOL     OW28918   2.876   2.098   2.833
 5801SOL    HW128919   2.868   2.062   2.740
 5801SOL    HW228920   2.874   2.022   2.898
 5802SOL     OW28921   2.452   3.349   2.353
 5802SOL    HW128922   2.494   3.291   2.283
 5802SOL    HW228923   2.408   3.428   2.309
 5803SOL     OW28924   3.571   2.247   3.243
 5803SOL    HW128925   3.644   2.316   3.247
 5803SOL    HW228926   3.599   2.172   3.184
 5804SOL     OW28927   2.117   3.210   2.152
 5804SOL    HW128928   2.021   3.211   2.125
 5804SOL    HW228929   2.129   3.263   2.236
 5805SOL     OW28930   1.967   2.875   3.588
 5805SOL    HW128931   1.890   2.842   3.642
 5805SOL    HW228932   2.052   2.845   3.630
 5806SOL     OW28933   2.534   2.065   3.351
 5806SOL    HW128934   2.624   2.049   3.311
 5806SOL    HW228935   2.542   2.070   3.450
 5807SOL     OW28936   3.302   2.718   3.260
 5807SOL    HW128937   3.245   2.770   3.197
 5807SOL    HW228938   3.398   2.730   3.236
 5808SOL     OW28939   1.934   2.028   2.180
 5808SOL    HW128940   1.917   2.111   2.126
 5808SOL    HW228941   2.024   1.991   2.158
 5809SOL     OW28942   3.045   3.197   1.981
 5809SOL    HW128943   2.946   3.186   1.983
 5809SOL    HW228944   3.079   3.212   2.074
 5810SOL     OW28945   2.475   2.704   3.293
 5810SOL    HW128946   2.531   2.785   3.276
 5810SOL    HW228947   2.534   2.624   3.296
 5811SOL     OW28948   3.355   3.629   2.821
 5811SOL    HW128949   3.388   3.693   2.752
 5811SOL    HW228950   3.421   3.623   2.896
 5812SOL     OW28951   2.578   2.427   3.570
 5812SOL    HW128952   2.597   2.492   3.644
 5812SOL    HW228953   2.638   2.347   3.579
 5813SOL     OW28954   3.312   3.082   3.495
 5813SOL    HW128955   3.303   3.072   3.594
 5813SOL    HW228956   3.408   3.075   3.469
 5814SOL     OW28957   2.252   3.603   3.422
 5814SOL    HW128958   2.161   3.644   3.420
 5814SOL    HW228959   2.245   3.509   3.454
 5815SOL     OW28960   3.536   2.745   3.116
 5815SOL    HW128961   3.509   2.656   3.079
 5815SOL    HW228962   3.537   2.813   3.043
 5816SOL     OW28963   3.087   2.187   2.311
 5816SOL    HW128964   3.152   2.113   2.300
 5816SOL    HW228965   3.107   2.237   2.395
 5817SOL     OW28966   2.456   2.607   2.514
 5817SOL    HW128967   2.506   2.692   2.495
 5817SOL    HW228968   2.368   2.609   2.466
 5818SOL     OW28969   3.639   2.204   3.504
 5818SOL    HW128970   3.622   2.235   3.410
 5818SOL    HW228971   3.555   2.167   3.542
 5819SOL     OW28972   3.592   2.796   3.379
 5819SOL    HW128973   3.630   2.887   3.394
 5819SOL    HW228974   3.584   2.779   3.280
 5820SOL     OW28975   2.721   3.236   1.878
 5820SOL    HW128976   2.675   3.251   1.966
 5820SOL    HW228977   2.765   3.321   1.848
 5821SOL     OW28978   2.523   3.652   2.815
 5821SOL    HW128979   2.477   3.740   2.802
 5821SOL    HW228980   2.622   3.664   2.808
 5822SOL     OW28981   2.721   2.818   2.723
 5822SOL    HW128982   2.775   2.749   2.771
 5822SOL    HW228983   2.689   2.887   2.789
 5823SOL     OW28984   2.945   2.846   1.949
 5823SOL    HW128985   2.922   2.899   1.867
 5823SOL    HW228986   3.026   2.790   1.930
 5824SOL     OW28987   3.723   3.431   2.713
 5824SOL    HW128988   3.652   3.419   2.643
 5824SOL    HW228989   3.724   3.352   2.773
 5825SOL     OW28990   2.083   3.176   3.706
 5825SOL    HW128991   2.018   3.103   3.685
 5825SOL    HW228992   2.087   3.190   3.804
 5826SOL     OW28993   1.941   3.102   2.515
 5826SOL    HW128994   1.940   3.055   2.603
 5826SOL    HW228995   2.023   3.074   2.464
 5827SOL     OW28996   2.534   3.253   3.486
 5827SOL    HW128997   2.456   3.203   3.524
 5827SOL    HW228998   2.531   3.348   3.517
 5828SOL     OW28999   3.686   2.054   3.089
 5828SOL    HW129000   3.682   1.964   3.133
 5828SOL    HW229001   3.689   2.043   2.990
 5829SOL     OW29002   2.290   2.286   2.382
 5829SOL    HW129003   2.320   2.214   2.320
 5829SOL    HW229004   2.251   2.246   2.465
 5830SOL     OW29005   3.567   3.349   2.966
 5830SOL    HW129006   3.474   3.324   2.939
 5830SOL    HW229007   3.593   3.299   3.048
 5831SOL     OW29008   2.179   2.409   3.142
 5831SOL    HW129009   2.217   2.350   3.214
 5831SOL    HW229010   2.219   2.383   3.054
 5832SOL     OW29011   2.674   3.448   2.549
 5832SOL    HW129012   2.706   3.458   2.455
 5832SOL    HW229013   2.595   3.386   2.551
 5833SOL     OW29014   3.286   2.076   2.974
 5833SOL    HW129015   3.338   2.011   3.029
 5833SOL    HW229016   3.237   2.139   3.035
 5834SOL     OW29017   2.863   1.896   3.016
 5834SOL    HW129018   2.800   1.824   2.985
 5834SOL    HW229019   2.956   1.860   3.016
 5835SOL     OW29020   2.632   3.192   2.163
 5835SOL    HW129021   2.586   3.105   2.180
 5835SOL    HW229022   2.723   3.189   2.204
 5836SOL     OW29023   2.480   3.429   3.146
 5836SOL    HW129024   2.475   3.511   3.203
 5836SOL    HW229025   2.569   3.426   3.101
 5837SOL     OW29026   3.214   1.914   2.030
 5837SOL    HW129027   3.249   1.873   1.946
 5837SOL    HW229028   3.124   1.876   2.050
 5838SOL     OW29029   3.162   2.315   2.553
 5838SOL    HW129030   3.103   2.395   2.557
 5838SOL    HW229031   3.177   2.280   2.646
 5839SOL     OW29032   3.455   2.083   2.744
 5839SOL    HW129033   3.371   2.082   2.798
 5839SOL    HW229034   3.457   2.166   2.688
 5840SOL     OW29035   1.901   2.939   2.162
 5840SOL    HW129036   2.000   2.928   2.153
 5840SOL    HW229037   1.861   2.853   2.194
 5841SOL     OW29038   2.737   3.508   2.199
 5841SOL    HW129039   2.660   3.473   2.145
 5841SOL    HW229040   2.705   3.579   2.261
 5842SOL     OW29041   2.092   2.490   3.837
 5842SOL    HW129042   1.999   2.488   3.874
 5842SOL    HW229043   2.093   2.451   3.745
 5843SOL     OW29044   2.087   2.137   4.720
 5843SOL    HW129045   2.122   2.120   4.812
 5843SOL    HW229046   1.999   2.092   4.708
 5844SOL     OW29047   1.881   2.230   4.371
 5844SOL    HW129048   1.799   2.273   4.410
 5844SOL    HW229049   1.853   2.157   4.308
 5845SOL     OW29050   2.431   3.137   4.889
 5845SOL    HW129051   2.338   3.130   4.852
 5845SOL    HW229052   2.442   3.226   4.933
 5846SOL     OW29053   3.417   3.373   4.427
 5846SOL    HW129054   3.360   3.357   4.508
 5846SOL    HW229055   3.358   3.383   4.347
 5847SOL     OW29056   2.997   2.565   4.441
 5847SOL    HW129057   3.054   2.643   4.416
 5847SOL    HW229058   2.937   2.591   4.517
 5848SOL     OW29059   3.617   2.469   3.955
 5848SOL    HW129060   3.605   2.456   3.856
 5848SOL    HW229061   3.587   2.388   4.004
 5849SOL     OW29062   2.630   3.006   4.747
 5849SOL    HW129063   2.552   3.023   4.807
 5849SOL    HW229064   2.664   3.093   4.711
 5850SOL     OW29065   2.712   2.660   5.547
 5850SOL    HW129066   2.708   2.736   5.612
 5850SOL    HW229067   2.734   2.696   5.456
 5851SOL     OW29068   2.547   2.874   4.389
 5851SOL    HW129069   2.616   2.858   4.459
 5851SOL    HW229070   2.474   2.931   4.427
 5852SOL     OW29071   2.548   3.023   5.527
 5852SOL    HW129072   2.608   3.102   5.541
 5852SOL    HW229073   2.462   3.054   5.486
 5853SOL     OW29074   2.197   3.297   4.785
 5853SOL    HW129075   2.119   3.266   4.732
 5853SOL    HW229076   2.255   3.355   4.728
 5854SOL     OW29077   3.322   3.367   5.063
 5854SOL    HW129078   3.346   3.461   5.089
 5854SOL    HW229079   3.306   3.313   5.145
 5855SOL     OW29080   2.300   2.254   5.223
 5855SOL    HW129081   2.382   2.198   5.232
 5855SOL    HW229082   2.219   2.196   5.227
 5856SOL     OW29083   3.465   2.309   4.461
 5856SOL    HW129084   3.391   2.355   4.411
 5856SOL    HW229085   3.516   2.377   4.514
 5857SOL     OW29086   2.093   3.575   4.207
 5857SOL    HW129087   2.127   3.652   4.261
 5857SOL    HW229088   2.137   3.575   4.117
 5858SOL     OW29089   2.989   3.203   5.414
 5858SOL    HW129090   3.036   3.203   5.502
 5858SOL    HW229091   2.941   3.116   5.403
 5859SOL     OW29092   2.092   3.296   4.262
 5859SOL    HW129093   2.066   3.392   4.262
 5859SOL    HW229094   2.021   3.242   4.307
 5860SOL     OW29095   2.102   2.953   4.610
 5860SOL    HW129096   2.116   2.869   4.662
 5860SOL    HW229097   2.047   3.017   4.665
 5861SOL     OW29098   2.482   3.648   5.163
 5861SOL    HW129099   2.390   3.631   5.198
 5861SOL    HW229100   2.510   3.740   5.189
 5862SOL     OW29101   2.468   2.826   3.847
 5862SOL    HW129102   2.475   2.910   3.793
 5862SOL    HW229103   2.514   2.839   3.935
 5863SOL     OW29104   3.456   1.976   5.204
 5863SOL    HW129105   3.438   2.043   5.132
 5863SOL    HW229106   3.453   2.022   5.293
 5864SOL     OW29107   1.984   2.505   4.287
 5864SOL    HW129108   1.939   2.417   4.304
 5864SOL    HW229109   1.983   2.559   4.371
 5865SOL     OW29110   3.704   3.629   4.083
 5865SOL    HW129111   3.758   3.600   4.163
 5865SOL    HW229112   3.734   3.719   4.054
 5866SOL     OW29113   1.889   3.458   3.841
 5866SOL    HW129114   1.870   3.362   3.862
 5866SOL    HW229115   1.856   3.516   3.916
 5867SOL     OW29116   3.551   2.784   4.336
 5867SOL    HW129117   3.646   2.755   4.344
 5867SOL    HW229118   3.543   2.849   4.261
 5868SOL     OW29119   3.503   2.970   4.156
 5868SOL    HW129120   3.589   2.972   4.104
 5868SOL    HW229121   3.517   3.017   4.244
 5869SOL     OW29122   1.975   2.599   5.321
 5869SOL    HW129123   2.063   2.586   5.366
 5869SOL    HW229124   1.962   2.696   5.299
 5870SOL     OW29125   2.475   3.227   4.450
 5870SOL    HW129126   2.426   3.140   4.459
 5870SOL    HW229127   2.452   3.270   4.363
 5871SOL     OW29128   3.155   3.090   5.147
 5871SOL    HW129129   3.192   3.017   5.089
 5871SOL    HW229130   3.207   3.095   5.232
 5872SOL     OW29131   2.671   1.866   4.226
 5872SOL    HW129132   2.711   1.957   4.217
 5872SOL    HW229133   2.571   1.874   4.232
 5873SOL     OW29134   2.059   2.838   4.988
 5873SOL    HW129135   2.148   2.793   4.974
 5873SOL    HW229136   1.986   2.773   4.969
 5874SOL     OW29137   3.387   2.861   3.914
 5874SOL    HW129138   3.324   2.785   3.927
 5874SOL    HW229139   3.435   2.879   4.000
 5875SOL     OW29140   3.049   3.654   5.340
 5875SOL    HW129141   3.073   3.714   5.264
 5875SOL    HW229142   3.056   3.559   5.310
 5876SOL     OW29143   2.179   2.113   5.525
 5876SOL    HW129144   2.250   2.184   5.531
 5876SOL    HW229145   2.091   2.152   5.553
 5877SOL     OW29146   3.328   3.279   4.677
 5877SOL    HW129147   3.269   3.285   4.757
 5877SOL    HW229148   3.313   3.191   4.631
 5878SOL     OW29149   3.529   3.576   4.296
 5878SOL    HW129150   3.488   3.553   4.208
 5878SOL    HW229151   3.511   3.502   4.361
 5879SOL     OW29152   2.460   2.591   3.994
 5879SOL    HW129153   2.484   2.660   3.926
 5879SOL    HW229154   2.382   2.624   4.048
 5880SOL     OW29155   3.143   2.207   4.668
 5880SOL    HW129156   3.057   2.157   4.655
 5880SOL    HW229157   3.205   2.153   4.724
 5881SOL     OW29158   3.438   3.524   4.031
 5881SOL    HW129159   3.527   3.570   4.034
 5881SOL    HW229160   3.417   3.500   3.936
 5882SOL     OW29161   2.669   2.467   5.189
 5882SOL    HW129162   2.622   2.464   5.278
 5882SOL    HW229163   2.618   2.412   5.123
 5883SOL     OW29164   3.256   2.331   5.398
 5883SOL    HW129165   3.236   2.374   5.486
 5883SOL    HW229166   3.334   2.269   5.407
 5884SOL     OW29167   2.835   2.752   5.296
 5884SOL    HW129168   2.881   2.668   5.267
 5884SOL    HW229169   2.779   2.786   5.221
 5885SOL     OW29170   2.853   2.272   4.966
 5885SOL    HW129171   2.776   2.306   5.020
 5885SOL    HW229172   2.819   2.221   4.887
 5886SOL     OW29173   2.903   2.563   4.153
 5886SOL    HW129174   2.929   2.559   4.249
 5886SOL    HW229175   2.818   2.512   4.139
 5887SOL     OW29176   1.938   2.673   4.513
 5887SOL    HW129177   2.037   2.661   4.522
 5887SOL    HW229178   1.914   2.768   4.534
 5888SOL     OW29179   1.992   3.683   5.295
 5888SOL    HW129180   1.982   3.668   5.394
 5888SOL    HW229181   1.906   3.719   5.259
 5889SOL     OW29182   2.727   2.210   3.919
 5889SOL    HW129183   2.786   2.273   3.870
 5889SOL    HW229184   2.746   2.116   3.890
 5890SOL     OW29185   3.581   2.447   5.555
 5890SOL    HW129186   3.555   2.536   5.519
 5890SOL    HW229187   3.579   2.379   5.482
 5891SOL     OW29188   3.224   3.006   4.269
 5891SOL    HW129189   3.307   2.977   4.221
 5891SOL    HW229190   3.175   3.073   4.213
 5892SOL     OW29191   2.412   2.058   4.609
 5892SOL    HW129192   2.407   2.053   4.709
 5892SOL    HW229193   2.414   2.154   4.580
 5893SOL     OW29194   2.870   3.318   4.201
 5893SOL    HW129195   2.824   3.390   4.149
 5893SOL    HW229196   2.866   3.338   4.299
 5894SOL     OW29197   2.213   3.663   4.577
 5894SOL    HW129198   2.263   3.577   4.583
 5894SOL    HW229199   2.278   3.740   4.574
 5895SOL     OW29200   3.657   2.928   4.597
 5895SOL    HW129201   3.595   2.913   4.521
 5895SOL    HW229202   3.605   2.939   4.682
 5896SOL     OW29203   3.089   3.412   5.230
 5896SOL    HW129204   3.095   3.335   5.294
 5896SOL    HW229205   3.037   3.386   5.150
 5897SOL     OW29206   2.183   2.805   3.966
 5897SOL    HW129207   2.265   2.844   3.924
 5897SOL    HW229208   2.156   2.723   3.917
 5898SOL     OW29209   3.320   2.597   4.452
 5898SOL    HW129210   3.315   2.532   4.527
 5898SOL    HW229211   3.400   2.656   4.465
 5899SOL     OW29212   2.323   3.128   5.451
 5899SOL    HW129213   2.273   3.129   5.365
 5899SOL    HW229214   2.260   3.110   5.527
 5900SOL     OW29215   2.973   3.638   3.961
 5900SOL    HW129216   2.913   3.576   4.011
 5900SOL    HW229217   3.004   3.594   3.876
 5901SOL     OW29218   2.064   2.147   5.222
 5901SOL    HW129219   1.984   2.207   5.209
 5901SOL    HW229220   2.054   2.098   5.308
 5902SOL     OW29221   3.494   3.239   3.805
 5902SOL    HW129222   3.462   3.333   3.795
 5902SOL    HW229223   3.418   3.176   3.793
 5903SOL     OW29224   2.326   3.605   4.047
 5903SOL    HW129225   2.359   3.644   4.133
 5903SOL    HW229226   2.402   3.598   3.982
 5904SOL     OW29227   3.262   1.969   4.150
 5904SOL    HW129228   3.238   1.932   4.060
 5904SOL    HW229229   3.361   1.985   4.154
 5905SOL     OW29230   2.111   3.647   4.965
 5905SOL    HW129231   2.168   3.582   5.015
 5905SOL    HW229232   2.095   3.614   4.872
 5906SOL     OW29233   2.802   3.560   4.628
 5906SOL    HW129234   2.882   3.503   4.649
 5906SOL    HW229235   2.753   3.520   4.551
 5907SOL     OW29236   2.244   2.562   4.204
 5907SOL    HW129237   2.289   2.472   4.201
 5907SOL    HW229238   2.150   2.551   4.237
 5908SOL     OW29239   3.409   2.084   5.453
 5908SOL    HW129240   3.404   2.121   5.545
 5908SOL    HW229241   3.337   2.015   5.441
 5909SOL     OW29242   2.476   1.984   3.841
 5909SOL    HW129243   2.574   1.962   3.848
 5909SOL    HW229244   2.445   1.967   3.748
 5910SOL     OW29245   2.643   2.126   5.473
 5910SOL    HW129246   2.710   2.065   5.516
 5910SOL    HW229247   2.570   2.145   5.538
 5911SOL     OW29248   2.750   3.376   4.919
 5911SOL    HW129249   2.727   3.351   4.825
 5911SOL    HW229250   2.811   3.307   4.958
 5912SOL     OW29251   3.213   2.452   5.157
 5912SOL    HW129252   3.241   2.409   5.242
 5912SOL    HW229253   3.238   2.548   5.158
 5913SOL     OW29254   2.665   3.264   4.648
 5913SOL    HW129255   2.755   3.278   4.606
 5913SOL    HW229256   2.594   3.266   4.577
 5914SOL     OW29257   2.784   2.365   4.623
 5914SOL    HW129258   2.759   2.356   4.527
 5914SOL    HW229259   2.832   2.283   4.654
 5915SOL     OW29260   2.401   1.926   4.236
 5915SOL    HW129261   2.320   1.927   4.294
 5915SOL    HW229262   2.404   2.009   4.181
 5916SOL     OW29263   3.296   3.050   3.765
 5916SOL    HW129264   3.328   2.974   3.822
 5916SOL    HW229265   3.204   3.077   3.795
 5917SOL     OW29266   2.159   1.897   3.895
 5917SOL    HW129267   2.208   1.981   3.874
 5917SOL    HW229268   2.221   1.832   3.940
 5918SOL     OW29269   2.797   2.098   4.204
 5918SOL    HW129270   2.749   2.139   4.126
 5918SOL    HW229271   2.896   2.096   4.185
 5919SOL     OW29272   2.938   2.545   5.188
 5919SOL    HW129273   2.858   2.484   5.191
 5919SOL    HW229274   3.019   2.492   5.164
 5920SOL     OW29275   3.089   3.432   4.517
 5920SOL    HW129276   3.110   3.506   4.452
 5920SOL    HW229277   3.157   3.432   4.590
 5921SOL     OW29278   2.321   3.014   4.465
 5921SOL    HW129279   2.250   2.987   4.530
 5921SOL    HW229280   2.295   2.986   4.372
 5922SOL     OW29281   3.133   3.659   4.315
 5922SOL    HW129282   3.177   3.723   4.251
 5922SOL    HW229283   3.083   3.711   4.385
 5923SOL     OW29284   2.894   2.411   3.740
 5923SOL    HW129285   2.853   2.493   3.701
 5923SOL    HW229286   2.958   2.437   3.813
 5924SOL     OW29287   1.940   2.418   5.110
 5924SOL    HW129288   2.032   2.417   5.069
 5924SOL    HW229289   1.934   2.492   5.177
 5925SOL     OW29290   2.423   2.084   4.871
 5925SOL    HW129291   2.461   2.000   4.908
 5925SOL    HW229292   2.335   2.103   4.915
 5926SOL     OW29293   2.728   2.316   4.366
 5926SOL    HW129294   2.696   2.388   4.304
 5926SOL    HW229295   2.752   2.235   4.313
 5927SOL     OW29296   2.879   1.901   4.477
 5927SOL    HW129297   2.807   1.906   4.408
 5927SOL    HW229298   2.855   1.832   4.546
 5928SOL     OW29299   3.291   3.035   4.591
 5928SOL    HW129300   3.236   2.951   4.584
 5928SOL    HW229301   3.317   3.064   4.499
 5929SOL     OW29302   3.328   2.452   4.716
 5929SOL    HW129303   3.298   2.357   4.723
 5929SOL    HW229304   3.401   2.468   4.782
 5930SOL     OW29305   3.719   2.695   4.101
 5930SOL    HW129306   3.761   2.631   4.165
 5930SOL    HW229307   3.681   2.644   4.023
 5931SOL     OW29308   2.350   3.247   3.898
 5931SOL    HW129309   2.263   3.232   3.945
 5931SOL    HW229310   2.333   3.273   3.803
 5932SOL     OW29311   3.526   3.142   4.381
 5932SOL    HW129312   3.625   3.150   4.395
 5932SOL    HW229313   3.481   3.226   4.412
 5933SOL     OW29314   3.252   2.437   3.802
 5933SOL    HW129315   3.198   2.416   3.883
 5933SOL    HW229316   3.343   2.396   3.811
 5934SOL     OW29317   2.389   2.118   4.052
 5934SOL    HW129318   2.416   2.059   3.977
 5934SOL    HW229319   2.389   2.213   4.021
 5935SOL     OW29320   3.616   3.085   5.312
 5935SOL    HW129321   3.707   3.046   5.299
 5935SOL    HW229322   3.624   3.181   5.336
 5936SOL     OW29323   2.926   3.209   5.064
 5936SOL    HW129324   2.846   3.186   5.119
 5936SOL    HW229325   3.009   3.183   5.113
 5937SOL     OW29326   3.454   3.491   5.349
 5937SOL    HW129327   3.481   3.525   5.259
 5937SOL    HW229328   3.533   3.453   5.395
 5938SOL     OW29329   2.973   3.057   4.824
 5938SOL    HW129330   2.933   3.101   4.905
 5938SOL    HW229331   2.932   3.094   4.741
 5939SOL     OW29332   3.500   2.961   4.803
 5939SOL    HW129333   3.505   3.042   4.862
 5939SOL    HW229334   3.414   2.963   4.752
 5940SOL     OW29335   2.777   1.951   5.126
 5940SOL    HW129336   2.802   1.931   5.031
 5940SOL    HW229337   2.849   2.007   5.168
 5941SOL     OW29338   2.842   2.978   5.443
 5941SOL    HW129339   2.743   2.984   5.453
 5941SOL    HW229340   2.865   2.898   5.387
 5942SOL     OW29341   2.567   2.912   4.092
 5942SOL    HW129342   2.553   2.919   4.191
 5942SOL    HW229343   2.651   2.861   4.074
 5943SOL     OW29344   2.272   2.675   4.975
 5943SOL    HW129345   2.358   2.687   5.025
 5943SOL    HW229346   2.230   2.588   5.002
 5944SOL     OW29347   3.136   2.248   4.986
 5944SOL    HW129348   3.157   2.322   5.050
 5944SOL    HW229349   3.047   2.265   4.943
 5945SOL     OW29350   1.926   3.426   5.055
 5945SOL    HW129351   1.880   3.508   5.021
 5945SOL    HW229352   2.024   3.445   5.064
 5946SOL     OW29353   2.229   2.962   4.225
 5946SOL    HW129354   2.222   3.045   4.169
 5946SOL    HW229355   2.233   2.882   4.165
 5947SOL     OW29356   2.428   2.399   4.589
 5947SOL    HW129357   2.440   2.465   4.515
 5947SOL    HW229358   2.474   2.433   4.672
 5948SOL     OW29359   3.114   3.210   4.112
 5948SOL    HW129360   3.164   3.287   4.152
 5948SOL    HW229361   3.019   3.212   4.144
 5949SOL     OW29362   3.134   3.307   4.866
 5949SOL    HW129363   3.181   3.320   4.953
 5949SOL    HW229364   3.068   3.233   4.875
 5950SOL     OW29365   3.444   2.501   4.196
 5950SOL    HW129366   3.413   2.562   4.269
 5950SOL    HW229367   3.494   2.553   4.127
 5951SOL     OW29368   2.216   3.372   5.053
 5951SOL    HW129369   2.195   3.328   4.966
 5951SOL    HW229370   2.313   3.398   5.056
 5952SOL     OW29371   2.264   2.613   5.322
 5952SOL    HW129372   2.332   2.668   5.275
 5952SOL    HW229373   2.304   2.525   5.349
 5953SOL     OW29374   3.449   2.641   5.394
 5953SOL    HW129375   3.357   2.679   5.389
 5953SOL    HW229376   3.509   2.688   5.329
 5954SOL     OW29377   2.875   1.967   5.494
 5954SOL    HW129378   2.881   2.052   5.442
 5954SOL    HW229379   2.907   1.891   5.437
 5955SOL     OW29380   2.366   1.912   5.464
 5955SOL    HW129381   2.324   1.855   5.394
 5955SOL    HW229382   2.300   1.981   5.496
 5956SOL     OW29383   2.435   2.732   4.753
 5956SOL    HW129384   2.479   2.821   4.744
 5956SOL    HW229385   2.372   2.732   4.830
 5957SOL     OW29386   3.222   2.724   4.769
 5957SOL    HW129387   3.147   2.724   4.703
 5957SOL    HW229388   3.259   2.632   4.778
 5958SOL     OW29389   3.071   2.387   3.999
 5958SOL    HW129390   3.084   2.303   4.053
 5958SOL    HW229391   3.042   2.461   4.059
 5959SOL     OW29392   2.169   2.075   4.955
 5959SOL    HW129393   2.146   2.112   5.045
 5959SOL    HW229394   2.139   1.980   4.949
 5960SOL     OW29395   1.899   3.172   5.006
 5960SOL    HW129396   1.952   3.123   5.074
 5960SOL    HW229397   1.921   3.270   5.011
 5961SOL     OW29398   2.594   2.496   4.788
 5961SOL    HW129399   2.653   2.470   4.712
 5961SOL    HW229400   2.566   2.592   4.777
 5962SOL     OW29401   3.590   2.797   5.578
 5962SOL    HW129402   3.544   2.790   5.489
 5962SOL    HW229403   3.528   2.841   5.644
 5963SOL     OW29404   2.169   1.925   4.342
 5963SOL    HW129405   2.158   2.019   4.375
 5963SOL    HW229406   2.164   1.862   4.419
 5964SOL     OW29407   3.484   2.229   4.098
 5964SOL    HW129408   3.486   2.153   4.162
 5964SOL    HW229409   3.436   2.306   4.138
 5965SOL     OW29410   2.885   2.628   4.690
 5965SOL    HW129411   2.900   2.649   4.786
 5965SOL    HW229412   2.855   2.533   4.681
 5966SOL     OW29413   2.842   3.435   5.424
 5966SOL    HW129414   2.822   3.479   5.336
 5966SOL    HW229415   2.881   3.344   5.408
 5967SOL     OW29416   3.721   3.380   5.329
 5967SOL    HW129417   3.735   3.407   5.234
 5967SOL    HW229418   3.804   3.402   5.382
 5968SOL     OW29419   2.212   2.760   5.528
 5968SOL    HW129420   2.288   2.804   5.576
 5968SOL    HW229421   2.247   2.713   5.446
 5969SOL     OW29422   3.402   2.136   3.849
 5969SOL    HW129423   3.341   2.061   3.872
 5969SOL    HW229424   3.424   2.188   3.932
 5970SOL     OW29425   3.165   2.700   3.766
 5970SOL    HW129426   3.199   2.607   3.781
 5970SOL    HW229427   3.183   2.727   3.671
 5971SOL     OW29428   2.930   3.195   4.573
 5971SOL    HW129429   2.937   3.111   4.518
 5971SOL    HW229430   2.992   3.264   4.537
 5972SOL     OW29431   2.181   2.672   4.673
 5972SOL    HW129432   2.274   2.708   4.678
 5972SOL    HW229433   2.175   2.587   4.725
 5973SOL     OW29434   2.201   2.371   4.730
 5973SOL    HW129435   2.149   2.288   4.713
 5973SOL    HW229436   2.278   2.376   4.666
 5974SOL     OW29437   3.000   2.242   5.402
 5974SOL    HW129438   2.955   2.305   5.466
 5974SOL    HW229439   3.093   2.273   5.385
 5975SOL     OW29440   3.022   2.069   5.201
 5975SOL    HW129441   3.022   2.133   5.278
 5975SOL    HW229442   3.050   2.117   5.118
 5976SOL     OW29443   1.870   3.188   3.924
 5976SOL    HW129444   1.777   3.209   3.893
 5976SOL    HW229445   1.880   3.089   3.937
 5977SOL     OW29446   1.950   3.663   4.651
 5977SOL    HW129447   1.908   3.577   4.624
 5977SOL    HW229448   2.044   3.666   4.617
 5978SOL     OW29449   2.366   3.430   4.634
 5978SOL    HW129450   2.432   3.504   4.643
 5978SOL    HW229451   2.410   3.351   4.592
 5979SOL     OW29452   2.864   2.658   4.962
 5979SOL    HW129453   2.905   2.626   5.048
 5979SOL    HW229454   2.768   2.631   4.959
 5980SOL     OW29455   1.902   2.406   4.838
 5980SOL    HW129456   1.987   2.373   4.797
 5980SOL    HW229457   1.915   2.421   4.936
 5981SOL     OW29458   2.051   2.382   5.446
 5981SOL    HW129459   2.110   2.342   5.376
 5981SOL    HW229460   1.993   2.453   5.405
 5982SOL     OW29461   3.231   2.812   5.384
 5982SOL    HW129462   3.270   2.901   5.404
 5982SOL    HW229463   3.241   2.792   5.287
 5983SOL     OW29464   2.677   2.434   4.049
 5983SOL    HW129465   2.684   2.345   4.003
 5983SOL    HW229466   2.583   2.468   4.041
 5984SOL     OW29467   3.519   2.466   4.930
 5984SOL    HW129468   3.481   2.397   4.992
 5984SOL    HW229469   3.601   2.430   4.886
 5985SOL     OW29470   2.114   3.426   5.468
 5985SOL    HW129471   2.084   3.483   5.544
 5985SOL    HW229472   2.107   3.329   5.494
 5986SOL     OW29473   2.533   2.326   4.993
 5986SOL    HW129474   2.499   2.237   4.963
 5986SOL    HW229475   2.559   2.380   4.913
 5987SOL     OW29476   2.792   3.540   5.189
 5987SOL    HW129477   2.768   3.522   5.094
 5987SOL    HW229478   2.822   3.634   5.199
 5988SOL     OW29479   2.335   2.362   3.915
 5988SOL    HW129480   2.396   2.442   3.919
 5988SOL    HW229481   2.240   2.393   3.922
 5989SOL     OW29482   2.021   2.999   5.190
 5989SOL    HW129483   2.043   2.938   5.266
 5989SOL    HW229484   2.031   2.950   5.104
 5990SOL     OW29485   3.209   2.921   4.958
 5990SOL    HW129486   3.233   2.858   4.884
 5990SOL    HW229487   3.119   2.961   4.940
 5991SOL     OW29488   3.164   2.717   4.033
 5991SOL    HW129489   3.078   2.686   4.075
 5991SOL    HW229490   3.160   2.703   3.934
 5992SOL     OW29491   3.621   3.609   4.878
 5992SOL    HW129492   3.682   3.639   4.805
 5992SOL    HW229493   3.583   3.520   4.856
 5993SOL     OW29494   3.114   3.593   4.852
 5993SOL    HW129495   3.198   3.598   4.798
 5993SOL    HW229496   3.091   3.497   4.870
 5994SOL     OW29497   1.945   3.120   4.746
 5994SOL    HW129498   1.940   3.119   4.846
 5994SOL    HW229499   1.862   3.079   4.708
 5995SOL     OW29500   2.550   3.524   5.440
 5995SOL    HW129501   2.494   3.605   5.449
 5995SOL    HW229502   2.602   3.528   5.354
 5996SOL     OW29503   3.588   1.997   4.247
 5996SOL    HW129504   3.661   1.980   4.180
 5996SOL    HW229505   3.557   1.910   4.285
 5997SOL     OW29506   3.250   3.435   4.201
 5997SOL    HW129507   3.317   3.447   4.127
 5997SOL    HW229508   3.210   3.524   4.224
 5998SOL     OW29509   1.992   3.656   5.575
 5998SOL    HW129510   1.951   3.582   5.628
 5998SOL    HW229511   2.056   3.707   5.633
 5999SOL     OW29512   3.142   2.789   4.396
 5999SOL    HW129513   3.202   2.708   4.398
 5999SOL    HW229514   3.182   2.858   4.336
 6000SOL     OW29515   2.692   3.135   5.146
 6000SOL    HW129516   2.687   3.168   5.241
 6000SOL    HW229517   2.606   3.154   5.100
 6001SOL     OW29518   2.534   3.478   3.878
 6001SOL    HW129519   2.543   3.488   3.779
 6001SOL    HW229520   2.494   3.389   3.899
 6002SOL     OW29521   3.512   3.582   5.118
 6002SOL    HW129522   3.565   3.592   5.034
 6002SOL    HW229523   3.485   3.672   5.152
 6003SOL     OW29524   3.703   2.037   4.687
 6003SOL    HW129525   3.742   1.952   4.651
 6003SOL    HW229526   3.605   2.039   4.668
 6004SOL     OW29527   2.125   2.188   4.444
 6004SOL    HW129528   2.046   2.239   4.410
 6004SOL    HW229529   2.116   2.173   4.542
 6005SOL     OW29530   3.056   3.474   3.755
 6005SOL    HW129531   3.062   3.381   3.792
 6005SOL    HW229532   2.997   3.474   3.675
 6006SOL     OW29533   2.684   2.864   5.096
 6006SOL    HW129534   2.724   2.863   5.004
 6006SOL    HW229535   2.694   2.956   5.136
 6007SOL     OW29536   2.778   2.772   4.015
 6007SOL    HW129537   2.841   2.810   3.947
 6007SOL    HW229538   2.818   2.689   4.054
 6008SOL     OW29539   3.366   3.469   3.768
 6008SOL    HW129540   3.274   3.506   3.775
 6008SOL    HW229541   3.404   3.489   3.678
 6009SOL     OW29542   2.234   3.150   5.214
 6009SOL    HW129543   2.221   3.243   5.180
 6009SOL    HW229544   2.150   3.098   5.201
 6010SOL     OW29545   3.476   3.154   5.013
 6010SOL    HW129546   3.536   3.157   5.093
 6010SOL    HW229547   3.401   3.218   5.026
 6011SOL     OW29548   2.901   2.960   4.420
 6011SOL    HW129549   2.831   2.913   4.474
 6011SOL    HW229550   2.960   2.892   4.377
 6012SOL     OW29551   2.876   2.098   4.695
 6012SOL    HW129552   2.868   2.062   4.602
 6012SOL    HW229553   2.874   2.022   4.760
 6013SOL     OW29554   2.452   3.349   4.215
 6013SOL    HW129555   2.494   3.291   4.145
 6013SOL    HW229556   2.408   3.428   4.171
 6014SOL     OW29557   3.571   2.247   5.105
 6014SOL    HW129558   3.644   2.316   5.109
 6014SOL    HW229559   3.599   2.172   5.046
 6015SOL     OW29560   2.117   3.210   4.014
 6015SOL    HW129561   2.021   3.211   3.987
 6015SOL    HW229562   2.129   3.263   4.098
 6016SOL     OW29563   1.967   2.875   5.450
 6016SOL    HW129564   1.890   2.842   5.504
 6016SOL    HW229565   2.052   2.845   5.492
 6017SOL     OW29566   2.534   2.065   5.213
 6017SOL    HW129567   2.624   2.049   5.173
 6017SOL    HW229568   2.542   2.070   5.312
 6018SOL     OW29569   1.937   2.207   3.757
 6018SOL    HW129570   1.845   2.179   3.728
 6018SOL    HW229571   1.968   2.284   3.701
 6019SOL     OW29572   3.302   2.718   5.122
 6019SOL    HW129573   3.245   2.770   5.059
 6019SOL    HW229574   3.398   2.730   5.098
 6020SOL     OW29575   1.934   2.028   4.042
 6020SOL    HW129576   1.917   2.111   3.988
 6020SOL    HW229577   2.024   1.991   4.020
 6021SOL     OW29578   3.045   3.197   3.843
 6021SOL    HW129579   2.946   3.186   3.845
 6021SOL    HW229580   3.079   3.212   3.936
 6022SOL     OW29581   2.475   2.704   5.155
 6022SOL    HW129582   2.531   2.785   5.138
 6022SOL    HW229583   2.534   2.624   5.158
 6023SOL     OW29584   3.355   3.629   4.683
 6023SOL    HW129585   3.388   3.693   4.614
 6023SOL    HW229586   3.421   3.623   4.758
 6024SOL     OW29587   2.578   2.427   5.432
 6024SOL    HW129588   2.597   2.492   5.506
 6024SOL    HW229589   2.638   2.347   5.441
 6025SOL     OW29590   3.312   3.082   5.357
 6025SOL    HW129591   3.303   3.072   5.456
 6025SOL    HW229592   3.408   3.075   5.331
 6026SOL     OW29593   2.252   3.603   5.284
 6026SOL    HW129594   2.161   3.644   5.282
 6026SOL    HW229595   2.245   3.509   5.316
 6027SOL     OW29596   3.536   2.745   4.978
 6027SOL    HW129597   3.509   2.656   4.941
 6027SOL    HW229598   3.537   2.813   4.905
 6028SOL     OW29599   3.087   2.187   4.173
 6028SOL    HW129600   3.152   2.113   4.162
 6028SOL    HW229601   3.107   2.237   4.257
 6029SOL     OW29602   2.456   2.607   4.376
 6029SOL    HW129603   2.506   2.692   4.357
 6029SOL    HW229604   2.368   2.609   4.328
 6030SOL     OW29605   3.639   2.204   5.366
 6030SOL    HW129606   3.622   2.235   5.272
 6030SOL    HW229607   3.555   2.167   5.404
 6031SOL     OW29608   3.592   2.796   5.241
 6031SOL    HW129609   3.630   2.887   5.256
 6031SOL    HW229610   3.584   2.779   5.142
 6032SOL     OW29611   2.721   3.236   3.740
 6032SOL    HW129612   2.675   3.251   3.828
 6032SOL    HW229613   2.765   3.321   3.710
 6033SOL     OW29614   2.523   3.652   4.677
 6033SOL    HW129615   2.477   3.740   4.664
 6033SOL    HW229616   2.622   3.664   4.670
 6034SOL     OW29617   2.721   2.818   4.585
 6034SOL    HW129618   2.775   2.749   4.633
 6034SOL    HW229619   2.689   2.887   4.651
 6035SOL     OW29620   2.945   2.846   3.811
 6035SOL    HW129621   2.922   2.899   3.729
 6035SOL    HW229622   3.026   2.790   3.792
 6036SOL     OW29623   3.723   3.431   4.575
 6036SOL    HW129624   3.652   3.419   4.505
 6036SOL    HW229625   3.724   3.352   4.635
 6037SOL     OW29626   2.083   3.176   5.568
 6037SOL    HW129627   2.018   3.103   5.547
 6037SOL    HW229628   2.087   3.190   5.666
 6038SOL     OW29629   1.941   3.102   4.377
 6038SOL    HW129630   1.940   3.055   4.465
 6038SOL    HW229631   2.023   3.074   4.326
 6039SOL     OW29632   2.534   3.253   5.348
 6039SOL    HW129633   2.456   3.203   5.386
 6039SOL    HW229634   2.531   3.348   5.379
 6040SOL     OW29635   3.686   2.054   4.951
 6040SOL    HW129636   3.682   1.964   4.995
 6040SOL    HW229637   3.689   2.043   4.852
 6041SOL     OW29638   2.290   2.286   4.244
 6041SOL    HW129639   2.320   2.214   4.182
 6041SOL    HW229640   2.251   2.246   4.327
 6042SOL     OW29641   3.567   3.349   4.828
 6042SOL    HW129642   3.474   3.324   4.801
 6042SOL    HW229643   3.593   3.299   4.910
 6043SOL     OW29644   2.179   2.409   5.004
 6043SOL    HW129645   2.217   2.350   5.076
 6043SOL    HW229646   2.219   2.383   4.916
 6044SOL     OW29647   2.674   3.448   4.411
 6044SOL    HW129648   2.706   3.458   4.317
 6044SOL    HW229649   2.595   3.386   4.413
 6045SOL     OW29650   3.286   2.076   4.836
 6045SOL    HW129651   3.338   2.011   4.891
 6045SOL    HW229652   3.237   2.139   4.897
 6046SOL     OW29653   2.863   1.896   4.878
 6046SOL    HW129654   2.800   1.824   4.847
 6046SOL    HW229655   2.956   1.860   4.878
 6047SOL     OW29656   2.632   3.192   4.025
 6047SOL    HW129657   2.586   3.105   4.042
 6047SOL    HW229658   2.723   3.189   4.066
 6048SOL     OW29659   2.480   3.429   5.008
 6048SOL    HW129660   2.475   3.511   5.065
 6048SOL    HW229661   2.569   3.426   4.963
 6049SOL     OW29662   3.214   1.914   3.892
 6049SOL    HW129663   3.249   1.873   3.808
 6049SOL    HW229664   3.124   1.876   3.912
 6050SOL     OW29665   3.162   2.315   4.415
 6050SOL    HW129666   3.103   2.395   4.419
 6050SOL    HW229667   3.177   2.280   4.508
 6051SOL     OW29668   3.455   2.083   4.606
 6051SOL    HW129669   3.371   2.082   4.660
 6051SOL    HW229670   3.457   2.166   4.550
 6052SOL     OW29671   1.901   2.939   4.024
 6052SOL    HW129672   2.000   2.928   4.015
 6052SOL    HW229673   1.861   2.853   4.056
 6053SOL     OW29674   2.737   3.508   4.061
 6053SOL    HW129675   2.660   3.473   4.007
 6053SOL    HW229676   2.705   3.579   4.123
 6054SOL     OW29677   2.092   2.490   5.699
 6054SOL    HW129678   1.999   2.488   5.736
 6054SOL    HW229679   2.093   2.451   5.607
 6055SOL     OW29680   2.087   2.137   6.582
 6055SOL    HW129681   2.122   2.120   6.674
 6055SOL    HW229682   1.999   2.092   6.570
 6056SOL     OW29683   1.881   2.230   6.233
 6056SOL    HW129684   1.799   2.273   6.272
 6056SOL    HW229685   1.853   2.157   6.170
 6057SOL     OW29686   2.431   3.137   6.751
 6057SOL    HW129687   2.338   3.130   6.714
 6057SOL    HW229688   2.442   3.226   6.795
 6058SOL     OW29689   3.417   3.373   6.289
 6058SOL    HW129690   3.360   3.357   6.370
 6058SOL    HW229691   3.358   3.383   6.209
 6059SOL     OW29692   2.997   2.565   6.303
 6059SOL    HW129693   3.054   2.643   6.278
 6059SOL    HW229694   2.937   2.591   6.379
 6060SOL     OW29695   3.617   2.469   5.817
 6060SOL    HW129696   3.605   2.456   5.718
 6060SOL    HW229697   3.587   2.388   5.866
 6061SOL     OW29698   2.630   3.006   6.609
 6061SOL    HW129699   2.552   3.023   6.669
 6061SOL    HW229700   2.664   3.093   6.573
 6062SOL     OW29701   2.712   2.660   7.409
 6062SOL    HW129702   2.708   2.736   7.474
 6062SOL    HW229703   2.734   2.696   7.318
 6063SOL     OW29704   2.547   2.874   6.251
 6063SOL    HW129705   2.616   2.858   6.321
 6063SOL    HW229706   2.474   2.931   6.289
 6064SOL     OW29707   2.548   3.023   7.389
 6064SOL    HW129708   2.608   3.102   7.403
 6064SOL    HW229709   2.462   3.054   7.348
 6065SOL     OW29710   2.197   3.297   6.647
 6065SOL    HW129711   2.119   3.266   6.594
 6065SOL    HW229712   2.255   3.355   6.590
 6066SOL     OW29713   3.322   3.367   6.925
 6066SOL    HW129714   3.346   3.461   6.951
 6066SOL    HW229715   3.306   3.313   7.007
 6067SOL     OW29716   2.300   2.254   7.085
 6067SOL    HW129717   2.382   2.198   7.094
 6067SOL    HW229718   2.219   2.196   7.089
 6068SOL     OW29719   3.465   2.309   6.323
 6068SOL    HW129720   3.391   2.355   6.273
 6068SOL    HW229721   3.516   2.377   6.376
 6069SOL     OW29722   2.093   3.575   6.069
 6069SOL    HW129723   2.127   3.652   6.123
 6069SOL    HW229724   2.137   3.575   5.979
 6070SOL     OW29725   2.989   3.203   7.276
 6070SOL    HW129726   3.036   3.203   7.364
 6070SOL    HW229727   2.941   3.116   7.265
 6071SOL     OW29728   2.092   3.296   6.124
 6071SOL    HW129729   2.066   3.392   6.124
 6071SOL    HW229730   2.021   3.242   6.169
 6072SOL     OW29731   2.102   2.953   6.472
 6072SOL    HW129732   2.116   2.869   6.524
 6072SOL    HW229733   2.047   3.017   6.527
 6073SOL     OW29734   2.482   3.648   7.025
 6073SOL    HW129735   2.390   3.631   7.060
 6073SOL    HW229736   2.510   3.740   7.051
 6074SOL     OW29737   2.468   2.826   5.709
 6074SOL    HW129738   2.475   2.910   5.655
 6074SOL    HW229739   2.514   2.839   5.797
 6075SOL     OW29740   3.456   1.976   7.066
 6075SOL    HW129741   3.438   2.043   6.994
 6075SOL    HW229742   3.453   2.022   7.155
 6076SOL     OW29743   1.984   2.505   6.149
 6076SOL    HW129744   1.939   2.417   6.166
 6076SOL    HW229745   1.983   2.559   6.233
 6077SOL     OW29746   3.704   3.629   5.945
 6077SOL    HW129747   3.758   3.600   6.025
 6077SOL    HW229748   3.734   3.719   5.916
 6078SOL     OW29749   1.889   3.458   5.703
 6078SOL    HW129750   1.870   3.362   5.724
 6078SOL    HW229751   1.856   3.516   5.778
 6079SOL     OW29752   3.551   2.784   6.198
 6079SOL    HW129753   3.646   2.755   6.206
 6079SOL    HW229754   3.543   2.849   6.123
 6080SOL     OW29755   3.503   2.970   6.018
 6080SOL    HW129756   3.589   2.972   5.966
 6080SOL    HW229757   3.517   3.017   6.106
 6081SOL     OW29758   1.975   2.599   7.183
 6081SOL    HW129759   2.063   2.586   7.228
 6081SOL    HW229760   1.962   2.696   7.161
 6082SOL     OW29761   2.475   3.227   6.312
 6082SOL    HW129762   2.426   3.140   6.321
 6082SOL    HW229763   2.452   3.270   6.225
 6083SOL     OW29764   3.155   3.090   7.009
 6083SOL    HW129765   3.192   3.017   6.951
 6083SOL    HW229766   3.207   3.095   7.094
 6084SOL     OW29767   2.671   1.866   6.088
 6084SOL    HW129768   2.711   1.957   6.079
 6084SOL    HW229769   2.571   1.874   6.094
 6085SOL     OW29770   2.059   2.838   6.850
 6085SOL    HW129771   2.148   2.793   6.836
 6085SOL    HW229772   1.986   2.773   6.831
 6086SOL     OW29773   3.387   2.861   5.776
 6086SOL    HW129774   3.324   2.785   5.789
 6086SOL    HW229775   3.435   2.879   5.862
 6087SOL     OW29776   3.049   3.654   7.202
 6087SOL    HW129777   3.073   3.714   7.126
 6087SOL    HW229778   3.056   3.559   7.172
 6088SOL     OW29779   2.179   2.113   7.387
 6088SOL    HW129780   2.250   2.184   7.393
 6088SOL    HW229781   2.091   2.152   7.415
 6089SOL     OW29782   3.328   3.279   6.539
 6089SOL    HW129783   3.269   3.285   6.619
 6089SOL    HW229784   3.313   3.191   6.493
 6090SOL     OW29785   3.529   3.576   6.158
 6090SOL    HW129786   3.488   3.553   6.070
 6090SOL    HW229787   3.511   3.502   6.223
 6091SOL     OW29788   2.460   2.591   5.856
 6091SOL    HW129789   2.484   2.660   5.788
 6091SOL    HW229790   2.382   2.624   5.910
 6092SOL     OW29791   3.143   2.207   6.530
 6092SOL    HW129792   3.057   2.157   6.517
 6092SOL    HW229793   3.205   2.153   6.586
 6093SOL     OW29794   3.438   3.524   5.893
 6093SOL    HW129795   3.527   3.570   5.896
 6093SOL    HW229796   3.417   3.500   5.798
 6094SOL     OW29797   2.669   2.467   7.051
 6094SOL    HW129798   2.622   2.464   7.140
 6094SOL    HW229799   2.618   2.412   6.985
 6095SOL     OW29800   3.256   2.331   7.260
 6095SOL    HW129801   3.236   2.374   7.348
 6095SOL    HW229802   3.334   2.269   7.269
 6096SOL     OW29803   2.835   2.752   7.158
 6096SOL    HW129804   2.881   2.668   7.129
 6096SOL    HW229805   2.779   2.786   7.083
 6097SOL     OW29806   2.853   2.272   6.828
 6097SOL    HW129807   2.776   2.306   6.882
 6097SOL    HW229808   2.819   2.221   6.749
 6098SOL     OW29809   2.903   2.563   6.015
 6098SOL    HW129810   2.929   2.559   6.111
 6098SOL    HW229811   2.818   2.512   6.001
 6099SOL     OW29812   1.938   2.673   6.375
 6099SOL    HW129813   2.037   2.661   6.384
 6099SOL    HW229814   1.914   2.768   6.396
 6100SOL     OW29815   1.992   3.683   7.157
 6100SOL    HW129816   1.982   3.668   7.256
 6100SOL    HW229817   1.906   3.719   7.121
 6101SOL     OW29818   2.727   2.210   5.781
 6101SOL    HW129819   2.786   2.273   5.732
 6101SOL    HW229820   2.746   2.116   5.752
 6102SOL     OW29821   3.581   2.447   7.417
 6102SOL    HW129822   3.555   2.536   7.381
 6102SOL    HW229823   3.579   2.379   7.344
 6103SOL     OW29824   3.224   3.006   6.131
 6103SOL    HW129825   3.307   2.977   6.083
 6103SOL    HW229826   3.175   3.073   6.075
 6104SOL     OW29827   2.412   2.058   6.471
 6104SOL    HW129828   2.407   2.053   6.571
 6104SOL    HW229829   2.414   2.154   6.442
 6105SOL     OW29830   2.870   3.318   6.063
 6105SOL    HW129831   2.824   3.390   6.011
 6105SOL    HW229832   2.866   3.338   6.161
 6106SOL     OW29833   2.213   3.663   6.439
 6106SOL    HW129834   2.263   3.577   6.445
 6106SOL    HW229835   2.278   3.740   6.436
 6107SOL     OW29836   3.657   2.928   6.459
 6107SOL    HW129837   3.595   2.913   6.383
 6107SOL    HW229838   3.605   2.939   6.544
 6108SOL     OW29839   3.089   3.412   7.092
 6108SOL    HW129840   3.095   3.335   7.156
 6108SOL    HW229841   3.037   3.386   7.012
 6109SOL     OW29842   2.183   2.805   5.828
 6109SOL    HW129843   2.265   2.844   5.786
 6109SOL    HW229844   2.156   2.723   5.779
 6110SOL     OW29845   3.320   2.597   6.314
 6110SOL    HW129846   3.315   2.532   6.389
 6110SOL    HW229847   3.400   2.656   6.327
 6111SOL     OW29848   2.323   3.128   7.313
 6111SOL    HW129849   2.273   3.129   7.227
 6111SOL    HW229850   2.260   3.110   7.389
 6112SOL     OW29851   2.973   3.638   5.823
 6112SOL    HW129852   2.913   3.576   5.873
 6112SOL    HW229853   3.004   3.594   5.738
 6113SOL     OW29854   2.064   2.147   7.084
 6113SOL    HW129855   1.984   2.207   7.071
 6113SOL    HW229856   2.054   2.098   7.170
 6114SOL     OW29857   3.494   3.239   5.667
 6114SOL    HW129858   3.462   3.333   5.657
 6114SOL    HW229859   3.418   3.176   5.655
 6115SOL     OW29860   2.326   3.605   5.909
 6115SOL    HW129861   2.359   3.644   5.995
 6115SOL    HW229862   2.402   3.598   5.844
 6116SOL     OW29863   3.262   1.969   6.012
 6116SOL    HW129864   3.238   1.932   5.922
 6116SOL    HW229865   3.361   1.985   6.016
 6117SOL     OW29866   2.111   3.647   6.827
 6117SOL    HW129867   2.168   3.582   6.877
 6117SOL    HW229868   2.095   3.614   6.734
 6118SOL     OW29869   2.802   3.560   6.490
 6118SOL    HW129870   2.882   3.503   6.511
 6118SOL    HW229871   2.753   3.520   6.413
 6119SOL     OW29872   2.244   2.562   6.066
 6119SOL    HW129873   2.289   2.472   6.063
 6119SOL    HW229874   2.150   2.551   6.099
 6120SOL     OW29875   3.409   2.084   7.315
 6120SOL    HW129876   3.404   2.121   7.407
 6120SOL    HW229877   3.337   2.015   7.303
 6121SOL     OW29878   2.476   1.984   5.703
 6121SOL    HW129879   2.574   1.962   5.710
 6121SOL    HW229880   2.445   1.967   5.610
 6122SOL     OW29881   2.643   2.126   7.335
 6122SOL    HW129882   2.710   2.065   7.378
 6122SOL    HW229883   2.570   2.145   7.400
 6123SOL     OW29884   2.750   3.376   6.781
 6123SOL    HW129885   2.727   3.351   6.687
 6123SOL    HW229886   2.811   3.307   6.820
 6124SOL     OW29887   3.213   2.452   7.019
 6124SOL    HW129888   3.241   2.409   7.104
 6124SOL    HW229889   3.238   2.548   7.020
 6125SOL     OW29890   2.665   3.264   6.510
 6125SOL    HW129891   2.755   3.278   6.468
 6125SOL    HW229892   2.594   3.266   6.439
 6126SOL     OW29893   2.784   2.365   6.485
 6126SOL    HW129894   2.759   2.356   6.389
 6126SOL    HW229895   2.832   2.283   6.516
 6127SOL     OW29896   2.401   1.926   6.098
 6127SOL    HW129897   2.320   1.927   6.156
 6127SOL    HW229898   2.404   2.009   6.043
 6128SOL     OW29899   3.296   3.050   5.627
 6128SOL    HW129900   3.328   2.974   5.684
 6128SOL    HW229901   3.204   3.077   5.657
 6129SOL     OW29902   2.159   1.897   5.757
 6129SOL    HW129903   2.208   1.981   5.736
 6129SOL    HW229904   2.221   1.832   5.802
 6130SOL     OW29905   2.797   2.098   6.066
 6130SOL    HW129906   2.749   2.139   5.988
 6130SOL    HW229907   2.896   2.096   6.047
 6131SOL     OW29908   2.938   2.545   7.050
 6131SOL    HW129909   2.858   2.484   7.053
 6131SOL    HW229910   3.019   2.492   7.026
 6132SOL     OW29911   3.089   3.432   6.379
 6132SOL    HW129912   3.110   3.506   6.314
 6132SOL    HW229913   3.157   3.432   6.452
 6133SOL     OW29914   2.321   3.014   6.327
 6133SOL    HW129915   2.250   2.987   6.392
 6133SOL    HW229916   2.295   2.986   6.234
 6134SOL     OW29917   3.133   3.659   6.177
 6134SOL    HW129918   3.177   3.723   6.113
 6134SOL    HW229919   3.083   3.711   6.247
 6135SOL     OW29920   2.894   2.411   5.602
 6135SOL    HW129921   2.853   2.493   5.563
 6135SOL    HW229922   2.958   2.437   5.675
 6136SOL     OW29923   1.940   2.418   6.972
 6136SOL    HW129924   2.032   2.417   6.931
 6136SOL    HW229925   1.934   2.492   7.039
 6137SOL     OW29926   2.423   2.084   6.733
 6137SOL    HW129927   2.461   2.000   6.770
 6137SOL    HW229928   2.335   2.103   6.777
 6138SOL     OW29929   2.728   2.316   6.228
 6138SOL    HW129930   2.696   2.388   6.166
 6138SOL    HW229931   2.752   2.235   6.175
 6139SOL     OW29932   2.879   1.901   6.339
 6139SOL    HW129933   2.807   1.906   6.270
 6139SOL    HW229934   2.855   1.832   6.408
 6140SOL     OW29935   3.291   3.035   6.453
 6140SOL    HW129936   3.236   2.951   6.446
 6140SOL    HW229937   3.317   3.064   6.361
 6141SOL     OW29938   3.328   2.452   6.578
 6141SOL    HW129939   3.298   2.357   6.585
 6141SOL    HW229940   3.401   2.468   6.644
 6142SOL     OW29941   3.719   2.695   5.963
 6142SOL    HW129942   3.761   2.631   6.027
 6142SOL    HW229943   3.681   2.644   5.885
 6143SOL     OW29944   2.350   3.247   5.760
 6143SOL    HW129945   2.263   3.232   5.807
 6143SOL    HW229946   2.333   3.273   5.665
 6144SOL     OW29947   3.526   3.142   6.243
 6144SOL    HW129948   3.625   3.150   6.257
 6144SOL    HW229949   3.481   3.226   6.274
 6145SOL     OW29950   3.252   2.437   5.664
 6145SOL    HW129951   3.198   2.416   5.745
 6145SOL    HW229952   3.343   2.396   5.673
 6146SOL     OW29953   2.389   2.118   5.914
 6146SOL    HW129954   2.416   2.059   5.839
 6146SOL    HW229955   2.389   2.213   5.883
 6147SOL     OW29956   3.616   3.085   7.174
 6147SOL    HW129957   3.707   3.046   7.161
 6147SOL    HW229958   3.624   3.181   7.198
 6148SOL     OW29959   2.926   3.209   6.926
 6148SOL    HW129960   2.846   3.186   6.981
 6148SOL    HW229961   3.009   3.183   6.975
 6149SOL     OW29962   3.454   3.491   7.211
 6149SOL    HW129963   3.481   3.525   7.121
 6149SOL    HW229964   3.533   3.453   7.257
 6150SOL     OW29965   2.973   3.057   6.686
 6150SOL    HW129966   2.933   3.101   6.767
 6150SOL    HW229967   2.932   3.094   6.603
 6151SOL     OW29968   3.500   2.961   6.665
 6151SOL    HW129969   3.505   3.042   6.724
 6151SOL    HW229970   3.414   2.963   6.614
 6152SOL     OW29971   2.777   1.951   6.988
 6152SOL    HW129972   2.802   1.931   6.893
 6152SOL    HW229973   2.849   2.007   7.030
 6153SOL     OW29974   2.842   2.978   7.305
 6153SOL    HW129975   2.743   2.984   7.315
 6153SOL    HW229976   2.865   2.898   7.249
 6154SOL     OW29977   2.567   2.912   5.954
 6154SOL    HW129978   2.553   2.919   6.053
 6154SOL    HW229979   2.651   2.861   5.936
 6155SOL     OW29980   2.272   2.675   6.837
 6155SOL    HW129981   2.358   2.687   6.887
 6155SOL    HW229982   2.230   2.588   6.864
 6156SOL     OW29983   3.136   2.248   6.848
 6156SOL    HW129984   3.157   2.322   6.912
 6156SOL    HW229985   3.047   2.265   6.805
 6157SOL     OW29986   1.926   3.426   6.917
 6157SOL    HW129987   1.880   3.508   6.883
 6157SOL    HW229988   2.024   3.445   6.926
 6158SOL     OW29989   2.229   2.962   6.087
 6158SOL    HW129990   2.222   3.045   6.031
 6158SOL    HW229991   2.233   2.882   6.027
 6159SOL     OW29992   2.428   2.399   6.451
 6159SOL    HW129993   2.440   2.465   6.377
 6159SOL    HW229994   2.474   2.433   6.534
 6160SOL     OW29995   3.114   3.210   5.974
 6160SOL    HW129996   3.164   3.287   6.014
 6160SOL    HW229997   3.019   3.212   6.006
 6161SOL     OW29998   3.134   3.307   6.728
 6161SOL    HW129999   3.181   3.320   6.815
 6161SOL    HW230000   3.068   3.233   6.737
 6162SOL     OW30001   3.444   2.501   6.058
 6162SOL    HW130002   3.413   2.562   6.131
 6162SOL    HW230003   3.494   2.553   5.989
 6163SOL     OW30004   2.216   3.372   6.915
 6163SOL    HW130005   2.195   3.328   6.828
 6163SOL    HW230006   2.313   3.398   6.918
 6164SOL     OW30007   2.264   2.613   7.184
 6164SOL    HW130008   2.332   2.668   7.137
 6164SOL    HW230009   2.304   2.525   7.211
 6165SOL     OW30010   3.449   2.641   7.256
 6165SOL    HW130011   3.357   2.679   7.251
 6165SOL    HW230012   3.509   2.688   7.191
 6166SOL     OW30013   2.875   1.967   7.356
 6166SOL    HW130014   2.881   2.052   7.304
 6166SOL    HW230015   2.907   1.891   7.299
 6167SOL     OW30016   2.366   1.912   7.326
 6167SOL    HW130017   2.324   1.855   7.256
 6167SOL    HW230018   2.300   1.981   7.358
 6168SOL     OW30019   2.435   2.732   6.615
 6168SOL    HW130020   2.479   2.821   6.606
 6168SOL    HW230021   2.372   2.732   6.692
 6169SOL     OW30022   3.222   2.724   6.631
 6169SOL    HW130023   3.147   2.724   6.565
 6169SOL    HW230024   3.259   2.632   6.640
 6170SOL     OW30025   3.071   2.387   5.861
 6170SOL    HW130026   3.084   2.303   5.915
 6170SOL    HW230027   3.042   2.461   5.921
 6171SOL     OW30028   2.169   2.075   6.817
 6171SOL    HW130029   2.146   2.112   6.907
 6171SOL    HW230030   2.139   1.980   6.811
 6172SOL     OW30031   1.899   3.172   6.868
 6172SOL    HW130032   1.952   3.123   6.936
 6172SOL    HW230033   1.921   3.270   6.873
 6173SOL     OW30034   2.594   2.496   6.650
 6173SOL    HW130035   2.653   2.470   6.574
 6173SOL    HW230036   2.566   2.592   6.639
 6174SOL     OW30037   3.590   2.797   7.440
 6174SOL    HW130038   3.544   2.790   7.351
 6174SOL    HW230039   3.528   2.841   7.506
 6175SOL     OW30040   2.169   1.925   6.204
 6175SOL    HW130041   2.158   2.019   6.237
 6175SOL    HW230042   2.164   1.862   6.281
 6176SOL     OW30043   3.484   2.229   5.960
 6176SOL    HW130044   3.486   2.153   6.024
 6176SOL    HW230045   3.436   2.306   6.000
 6177SOL     OW30046   2.885   2.628   6.552
 6177SOL    HW130047   2.900   2.649   6.648
 6177SOL    HW230048   2.855   2.533   6.543
 6178SOL     OW30049   2.842   3.435   7.286
 6178SOL    HW130050   2.822   3.479   7.198
 6178SOL    HW230051   2.881   3.344   7.270
 6179SOL     OW30052   3.721   3.380   7.191
 6179SOL    HW130053   3.735   3.407   7.096
 6179SOL    HW230054   3.804   3.402   7.244
 6180SOL     OW30055   2.212   2.760   7.390
 6180SOL    HW130056   2.288   2.804   7.438
 6180SOL    HW230057   2.247   2.713   7.308
 6181SOL     OW30058   3.402   2.136   5.711
 6181SOL    HW130059   3.341   2.061   5.734
 6181SOL    HW230060   3.424   2.188   5.794
 6182SOL     OW30061   3.165   2.700   5.628
 6182SOL    HW130062   3.199   2.607   5.643
 6182SOL    HW230063   3.183   2.727   5.533
 6183SOL     OW30064   2.930   3.195   6.435
 6183SOL    HW130065   2.937   3.111   6.380
 6183SOL    HW230066   2.992   3.264   6.399
 6184SOL     OW30067   2.181   2.672   6.535
 6184SOL    HW130068   2.274   2.708   6.540
 6184SOL    HW230069   2.175   2.587   6.587
 6185SOL     OW30070   2.201   2.371   6.592
 6185SOL    HW130071   2.149   2.288   6.575
 6185SOL    HW230072   2.278   2.376   6.528
 6186SOL     OW30073   3.000   2.242   7.264
 6186SOL    HW130074   2.955   2.305   7.328
 6186SOL    HW230075   3.093   2.273   7.247
 6187SOL     OW30076   3.022   2.069   7.063
 6187SOL    HW130077   3.022   2.133   7.140
 6187SOL    HW230078   3.050   2.117   6.980
 6188SOL     OW30079   1.870   3.188   5.786
 6188SOL    HW130080   1.777   3.209   5.755
 6188SOL    HW230081   1.880   3.089   5.799
 6189SOL     OW30082   1.950   3.663   6.513
 6189SOL    HW130083   1.908   3.577   6.486
 6189SOL    HW230084   2.044   3.666   6.479
 6190SOL     OW30085   2.366   3.430   6.496
 6190SOL    HW130086   2.432   3.504   6.505
 6190SOL    HW230087   2.410   3.351   6.454
 6191SOL     OW30088   2.864   2.658   6.824
 6191SOL    HW130089   2.905   2.626   6.910
 6191SOL    HW230090   2.768   2.631   6.821
 6192SOL     OW30091   1.902   2.406   6.700
 6192SOL    HW130092   1.987   2.373   6.659
 6192SOL    HW230093   1.915   2.421   6.798
 6193SOL     OW30094   2.051   2.382   7.308
 6193SOL    HW130095   2.110   2.342   7.238
 6193SOL    HW230096   1.993   2.453   7.267
 6194SOL     OW30097   3.231   2.812   7.246
 6194SOL    HW130098   3.270   2.901   7.266
 6194SOL    HW230099   3.241   2.792   7.149
 6195SOL     OW30100   2.677   2.434   5.911
 6195SOL    HW130101   2.684   2.345   5.865
 6195SOL    HW230102   2.583   2.468   5.903
 6196SOL     OW30103   3.519   2.466   6.792
 6196SOL    HW130104   3.481   2.397   6.854
 6196SOL    HW230105   3.601   2.430   6.748
 6197SOL     OW30106   2.114   3.426   7.330
 6197SOL    HW130107   2.084   3.483   7.406
 6197SOL    HW230108   2.107   3.329   7.356
 6198SOL     OW30109   2.533   2.326   6.855
 6198SOL    HW130110   2.499   2.237   6.825
 6198SOL    HW230111   2.559   2.380   6.775
 6199SOL     OW30112   2.792   3.540   7.051
 6199SOL    HW130113   2.768   3.522   6.956
 6199SOL    HW230114   2.822   3.634   7.061
 6200SOL     OW30115   2.335   2.362   5.777
 6200SOL    HW130116   2.396   2.442   5.781
 6200SOL    HW230117   2.240   2.393   5.784
 6201SOL     OW30118   2.021   2.999   7.052
 6201SOL    HW130119   2.043   2.938   7.128
 6201SOL    HW230120   2.031   2.950   6.966
 6202SOL     OW30121   3.209   2.921   6.820
 6202SOL    HW130122   3.233   2.858   6.746
 6202SOL    HW230123   3.119   2.961   6.802
 6203SOL     OW30124   3.164   2.717   5.895
 6203SOL    HW130125   3.078   2.686   5.937
 6203SOL    HW230126   3.160   2.703   5.796
 6204SOL     OW30127   3.621   3.609   6.740
 6204SOL    HW130128   3.682   3.639   6.667
 6204SOL    HW230129   3.583   3.520   6.718
 6205SOL     OW30130   3.114   3.593   6.714
 6205SOL    HW130131   3.198   3.598   6.660
 6205SOL    HW230132   3.091   3.497   6.732
 6206SOL     OW30133   1.945   3.120   6.608
 6206SOL    HW130134   1.940   3.119   6.708
 6206SOL    HW230135   1.862   3.079   6.570
 6207SOL     OW30136   2.550   3.524   7.302
 6207SOL    HW130137   2.494   3.605   7.311
 6207SOL    HW230138   2.602   3.528   7.216
 6208SOL     OW30139   3.588   1.997   6.109
 6208SOL    HW130140   3.661   1.980   6.042
 6208SOL    HW230141   3.557   1.910   6.147
 6209SOL     OW30142   3.250   3.435   6.063
 6209SOL    HW130143   3.317   3.447   5.989
 6209SOL    HW230144   3.210   3.524   6.086
 6210SOL     OW30145   1.992   3.656   7.437
 6210SOL    HW130146   1.951   3.582   7.490
 6210SOL    HW230147   2.056   3.707   7.495
 6211SOL     OW30148   3.142   2.789   6.258
 6211SOL    HW130149   3.202   2.708   6.260
 6211SOL    HW230150   3.182   2.858   6.198
 6212SOL     OW30151   2.692   3.135   7.008
 6212SOL    HW130152   2.687   3.168   7.103
 6212SOL    HW230153   2.606   3.154   6.962
 6213SOL     OW30154   2.534   3.478   5.740
 6213SOL    HW130155   2.543   3.488   5.641
 6213SOL    HW230156   2.494   3.389   5.761
 6214SOL     OW30157   3.512   3.582   6.980
 6214SOL    HW130158   3.565   3.592   6.896
 6214SOL    HW230159   3.485   3.672   7.014
 6215SOL     OW30160   3.703   2.037   6.549
 6215SOL    HW130161   3.742   1.952   6.513
 6215SOL    HW230162   3.605   2.039   6.530
 6216SOL     OW30163   2.125   2.188   6.306
 6216SOL    HW130164   2.046   2.239   6.272
 6216SOL    HW230165   2.116   2.173   6.404
 6217SOL     OW30166   3.056   3.474   5.617
 6217SOL    HW130167   3.062   3.381   5.654
 6217SOL    HW230168   2.997   3.474   5.537
 6218SOL     OW30169   2.684   2.864   6.958
 6218SOL    HW130170   2.724   2.863   6.866
 6218SOL    HW230171   2.694   2.956   6.998
 6219SOL     OW30172   2.778   2.772   5.877
 6219SOL    HW130173   2.841   2.810   5.809
 6219SOL    HW230174   2.818   2.689   5.916
 6220SOL     OW30175   3.366   3.469   5.630
 6220SOL    HW130176   3.274   3.506   5.637
 6220SOL    HW230177   3.404   3.489   5.540
 6221SOL     OW30178   2.234   3.150   7.076
 6221SOL    HW130179   2.221   3.243   7.042
 6221SOL    HW230180   2.150   3.098   7.063
 6222SOL     OW30181   3.476   3.154   6.875
 6222SOL    HW130182   3.536   3.157   6.955
 6222SOL    HW230183   3.401   3.218   6.888
 6223SOL     OW30184   2.901   2.960   6.282
 6223SOL    HW130185   2.831   2.913   6.336
 6223SOL    HW230186   2.960   2.892   6.239
 6224SOL     OW30187   2.876   2.098   6.557
 6224SOL    HW130188   2.868   2.062   6.464
 6224SOL    HW230189   2.874   2.022   6.622
 6225SOL     OW30190   2.452   3.349   6.077
 6225SOL    HW130191   2.494   3.291   6.007
 6225SOL    HW230192   2.408   3.428   6.033
 6226SOL     OW30193   3.571   2.247   6.967
 6226SOL    HW130194   3.644   2.316   6.971
 6226SOL    HW230195   3.599   2.172   6.908
 6227SOL     OW30196   2.117   3.210   5.876
 6227SOL    HW130197   2.021   3.211   5.849
 6227SOL    HW230198   2.129   3.263   5.960
 6228SOL     OW30199   1.967   2.875   7.312
 6228SOL    HW130200   1.890   2.842   7.366
 6228SOL    HW230201   2.052   2.845   7.354
 6229SOL     OW30202   2.534   2.065   7.075
 6229SOL    HW130203   2.624   2.049   7.035
 6229SOL    HW230204   2.542   2.070   7.174
 6230SOL     OW30205   1.937   2.207   5.619
 6230SOL    HW130206   1.845   2.179   5.590
 6230SOL    HW230207   1.968   2.284   5.563
 6231SOL     OW30208   3.302   2.718   6.984
 6231SOL    HW130209   3.245   2.770   6.921
 6231SOL    HW230210   3.398   2.730   6.960
 6232SOL     OW30211   1.934   2.028   5.904
 6232SOL    HW130212   1.917   2.111   5.850
 6232SOL    HW230213   2.024   1.991   5.882
 6233SOL     OW30214   3.045   3.197   5.705
 6233SOL    HW130215   2.946   3.186   5.707
 6233SOL    HW230216   3.079   3.212   5.798
 6234SOL     OW30217   2.475   2.704   7.017
 6234SOL    HW130218   2.531   2.785   7.000
 6234SOL    HW230219   2.534   2.624   7.020
 6235SOL     OW30220   3.355   3.629   6.545
 6235SOL    HW130221   3.388   3.693   6.476
 6235SOL    HW230222   3.421   3.623   6.620
 6236SOL     OW30223   2.578   2.427   7.294
 6236SOL    HW130224   2.597   2.492   7.368
 6236SOL    HW230225   2.638   2.347   7.303
 6237SOL     OW30226   3.312   3.082   7.219
 6237SOL    HW130227   3.303   3.072   7.318
 6237SOL    HW230228   3.408   3.075   7.193
 6238SOL     OW30229   2.252   3.603   7.146
 6238SOL    HW130230   2.161   3.644   7.144
 6238SOL    HW230231   2.245   3.509   7.178
 6239SOL     OW30232   3.536   2.745   6.840
 6239SOL    HW130233   3.509   2.656   6.803
 6239SOL    HW230234   3.537   2.813   6.767
 6240SOL     OW30235   3.087   2.187   6.035
 6240SOL    HW130236   3.152   2.113   6.024
 6240SOL    HW230237   3.107   2.237   6.119
 6241SOL     OW30238   2.456   2.607   6.238
 6241SOL    HW130239   2.506   2.692   6.219
 6241SOL    HW230240   2.368   2.609   6.190
 6242SOL     OW30241   3.639   2.204   7.228
 6242SOL    HW130242   3.622   2.235   7.134
 6242SOL    HW230243   3.555   2.167   7.266
 6243SOL     OW30244   3.592   2.796   7.103
 6243SOL    HW130245   3.630   2.887   7.118
 6243SOL    HW230246   3.584   2.779   7.004
 6244SOL     OW30247   2.721   3.236   5.602
 6244SOL    HW130248   2.675   3.251   5.690
 6244SOL    HW230249   2.765   3.321   5.572
 6245SOL     OW30250   2.523   3.652   6.539
 6245SOL    HW130251   2.477   3.740   6.526
 6245SOL    HW230252   2.622   3.664   6.532
 6246SOL     OW30253   2.721   2.818   6.447
 6246SOL    HW130254   2.775   2.749   6.495
 6246SOL    HW230255   2.689   2.887   6.513
 6247SOL     OW30256   2.945   2.846   5.673
 6247SOL    HW130257   2.922   2.899   5.591
 6247SOL    HW230258   3.026   2.790   5.654
 6248SOL     OW30259   3.723   3.431   6.437
 6248SOL    HW130260   3.652   3.419   6.367
 6248SOL    HW230261   3.724   3.352   6.497
 6249SOL     OW30262   2.083   3.176   7.430
 6249SOL    HW130263   2.018   3.103   7.409
 6249SOL    HW230264   2.087   3.190   7.528
 6250SOL     OW30265   1.941   3.102   6.239
 6250SOL    HW130266   1.940   3.055   6.327
 6250SOL    HW230267   2.023   3.074   6.188
 6251SOL     OW30268   2.534   3.253   7.210
 6251SOL    HW130269   2.456   3.203   7.248
 6251SOL    HW230270   2.531   3.348   7.241
 6252SOL     OW30271   3.686   2.054   6.813
 6252SOL    HW130272   3.682   1.964   6.857
 6252SOL    HW230273   3.689   2.043   6.714
 6253SOL     OW30274   2.290   2.286   6.106
 6253SOL    HW130275   2.320   2.214   6.044
 6253SOL    HW230276   2.251   2.246   6.189
 6254SOL     OW30277   3.567   3.349   6.690
 6254SOL    HW130278   3.474   3.324   6.663
 6254SOL    HW230279   3.593   3.299   6.772
 6255SOL     OW30280   2.179   2.409   6.866
 6255SOL    HW130281   2.217   2.350   6.938
 6255SOL    HW230282   2.219   2.383   6.778
 6256SOL     OW30283   2.674   3.448   6.273
 6256SOL    HW130284   2.706   3.458   6.179
 6256SOL    HW230285   2.595   3.386   6.275
 6257SOL     OW30286   3.286   2.076   6.698
 6257SOL    HW130287   3.338   2.011   6.753
 6257SOL    HW230288   3.237   2.139   6.759
 6258SOL     OW30289   2.863   1.896   6.740
 6258SOL    HW130290   2.800   1.824   6.709
 6258SOL    HW230291   2.956   1.860   6.740
 6259SOL     OW30292   2.632   3.192   5.887
 6259SOL    HW130293   2.586   3.105   5.904
 6259SOL    HW230294   2.723   3.189   5.928
 6260SOL     OW30295   2.480   3.429   6.870
 6260SOL    HW130296   2.475   3.511   6.927
 6260SOL    HW230297   2.569   3.426   6.825
 6261SOL     OW30298   3.214   1.914   5.754
 6261SOL    HW130299   3.249   1.873   5.670
 6261SOL    HW230300   3.124   1.876   5.774
 6262SOL     OW30301   3.162   2.315   6.277
 6262SOL    HW130302   3.103   2.395   6.281
 6262SOL    HW230303   3.177   2.280   6.370
 6263SOL     OW30304   3.455   2.083   6.468
 6263SOL    HW130305   3.371   2.082   6.522
 6263SOL    HW230306   3.457   2.166   6.412
 6264SOL     OW30307   1.901   2.939   5.886
 6264SOL    HW130308   2.000   2.928   5.877
 6264SOL    HW230309   1.861   2.853   5.918
 6265SOL     OW30310   2.737   3.508   5.923
 6265SOL    HW130311   2.660   3.473   5.869
 6265SOL    HW230312   2.705   3.579   5.985
 6266SOL     OW30313   2.092   2.490   7.561
 6266SOL    HW130314   1.999   2.488   7.598
 6266SOL    HW230315   2.093   2.451   7.469
 6267SOL     OW30316   2.087   2.137   8.444
 6267SOL    HW130317   2.122   2.120   8.536
 6267SOL    HW230318   1.999   2.092   8.432
 6268SOL     OW30319   1.881   2.230   8.095
 6268SOL    HW130320   1.799   2.273   8.134
 6268SOL    HW230321   1.853   2.157   8.032
 6269SOL     OW30322   2.431   3.137   8.613
 6269SOL    HW130323   2.338   3.130   8.576
 6269SOL    HW230324   2.442   3.226   8.657
 6270SOL     OW30325   3.417   3.373   8.151
 6270SOL    HW130326   3.360   3.357   8.232
 6270SOL    HW230327   3.358   3.383   8.071
 6271SOL     OW30328   2.997   2.565   8.165
 6271SOL    HW130329   3.054   2.643   8.140
 6271SOL    HW230330   2.937   2.591   8.241
 6272SOL     OW30331   3.617   2.469   7.679
 6272SOL    HW130332   3.605   2.456   7.580
 6272SOL    HW230333   3.587   2.388   7.728
 6273SOL     OW30334   2.630   3.006   8.471
 6273SOL    HW130335   2.552   3.023   8.531
 6273SOL    HW230336   2.664   3.093   8.435
 6274SOL     OW30337   2.712   2.660   9.271
 6274SOL    HW130338   2.708   2.736   9.336
 6274SOL    HW230339   2.734   2.696   9.180
 6275SOL     OW30340   2.547   2.874   8.113
 6275SOL    HW130341   2.616   2.858   8.183
 6275SOL    HW230342   2.474   2.931   8.151
 6276SOL     OW30343   2.548   3.023   9.251
 6276SOL    HW130344   2.608   3.102   9.265
 6276SOL    HW230345   2.462   3.054   9.210
 6277SOL     OW30346   2.197   3.297   8.509
 6277SOL    HW130347   2.119   3.266   8.456
 6277SOL    HW230348   2.255   3.355   8.452
 6278SOL     OW30349   3.322   3.367   8.787
 6278SOL    HW130350   3.346   3.461   8.813
 6278SOL    HW230351   3.306   3.313   8.869
 6279SOL     OW30352   2.300   2.254   8.947
 6279SOL    HW130353   2.382   2.198   8.956
 6279SOL    HW230354   2.219   2.196   8.951
 6280SOL     OW30355   3.465   2.309   8.185
 6280SOL    HW130356   3.391   2.355   8.135
 6280SOL    HW230357   3.516   2.377   8.238
 6281SOL     OW30358   2.093   3.575   7.931
 6281SOL    HW130359   2.127   3.652   7.985
 6281SOL    HW230360   2.137   3.575   7.841
 6282SOL     OW30361   2.989   3.203   9.138
 6282SOL    HW130362   3.036   3.203   9.226
 6282SOL    HW230363   2.941   3.116   9.127
 6283SOL     OW30364   2.092   3.296   7.986
 6283SOL    HW130365   2.066   3.392   7.986
 6283SOL    HW230366   2.021   3.242   8.031
 6284SOL     OW30367   2.102   2.953   8.334
 6284SOL    HW130368   2.116   2.869   8.386
 6284SOL    HW230369   2.047   3.017   8.389
 6285SOL     OW30370   2.482   3.648   8.887
 6285SOL    HW130371   2.390   3.631   8.922
 6285SOL    HW230372   2.510   3.740   8.913
 6286SOL     OW30373   2.468   2.826   7.571
 6286SOL    HW130374   2.475   2.910   7.517
 6286SOL    HW230375   2.514   2.839   7.659
 6287SOL     OW30376   3.456   1.976   8.928
 6287SOL    HW130377   3.438   2.043   8.856
 6287SOL    HW230378   3.453   2.022   9.017
 6288SOL     OW30379   1.984   2.505   8.011
 6288SOL    HW130380   1.939   2.417   8.028
 6288SOL    HW230381   1.983   2.559   8.095
 6289SOL     OW30382   3.704   3.629   7.807
 6289SOL    HW130383   3.758   3.600   7.887
 6289SOL    HW230384   3.734   3.719   7.778
 6290SOL     OW30385   1.889   3.458   7.565
 6290SOL    HW130386   1.870   3.362   7.586
 6290SOL    HW230387   1.856   3.516   7.640
 6291SOL     OW30388   3.551   2.784   8.060
 6291SOL    HW130389   3.646   2.755   8.068
 6291SOL    HW230390   3.543   2.849   7.985
 6292SOL     OW30391   3.503   2.970   7.880
 6292SOL    HW130392   3.589   2.972   7.828
 6292SOL    HW230393   3.517   3.017   7.968
 6293SOL     OW30394   1.975   2.599   9.045
 6293SOL    HW130395   2.063   2.586   9.090
 6293SOL    HW230396   1.962   2.696   9.023
 6294SOL     OW30397   2.475   3.227   8.174
 6294SOL    HW130398   2.426   3.140   8.183
 6294SOL    HW230399   2.452   3.270   8.087
 6295SOL     OW30400   3.155   3.090   8.871
 6295SOL    HW130401   3.192   3.017   8.813
 6295SOL    HW230402   3.207   3.095   8.956
 6296SOL     OW30403   2.671   1.866   7.950
 6296SOL    HW130404   2.711   1.957   7.941
 6296SOL    HW230405   2.571   1.874   7.956
 6297SOL     OW30406   2.059   2.838   8.712
 6297SOL    HW130407   2.148   2.793   8.698
 6297SOL    HW230408   1.986   2.773   8.693
 6298SOL     OW30409   3.387   2.861   7.638
 6298SOL    HW130410   3.324   2.785   7.651
 6298SOL    HW230411   3.435   2.879   7.724
 6299SOL     OW30412   3.049   3.654   9.064
 6299SOL    HW130413   3.073   3.714   8.988
 6299SOL    HW230414   3.056   3.559   9.034
 6300SOL     OW30415   2.179   2.113   9.249
 6300SOL    HW130416   2.250   2.184   9.255
 6300SOL    HW230417   2.091   2.152   9.277
 6301SOL     OW30418   3.328   3.279   8.401
 6301SOL    HW130419   3.269   3.285   8.481
 6301SOL    HW230420   3.313   3.191   8.355
 6302SOL     OW30421   3.529   3.576   8.020
 6302SOL    HW130422   3.488   3.553   7.932
 6302SOL    HW230423   3.511   3.502   8.085
 6303SOL     OW30424   2.460   2.591   7.718
 6303SOL    HW130425   2.484   2.660   7.650
 6303SOL    HW230426   2.382   2.624   7.772
 6304SOL     OW30427   3.143   2.207   8.392
 6304SOL    HW130428   3.057   2.157   8.379
 6304SOL    HW230429   3.205   2.153   8.448
 6305SOL     OW30430   3.438   3.524   7.755
 6305SOL    HW130431   3.527   3.570   7.758
 6305SOL    HW230432   3.417   3.500   7.660
 6306SOL     OW30433   2.669   2.467   8.913
 6306SOL    HW130434   2.622   2.464   9.002
 6306SOL    HW230435   2.618   2.412   8.847
 6307SOL     OW30436   3.256   2.331   9.122
 6307SOL    HW130437   3.236   2.374   9.210
 6307SOL    HW230438   3.334   2.269   9.131
 6308SOL     OW30439   2.835   2.752   9.020
 6308SOL    HW130440   2.881   2.668   8.991
 6308SOL    HW230441   2.779   2.786   8.945
 6309SOL     OW30442   2.853   2.272   8.690
 6309SOL    HW130443   2.776   2.306   8.744
 6309SOL    HW230444   2.819   2.221   8.611
 6310SOL     OW30445   2.903   2.563   7.877
 6310SOL    HW130446   2.929   2.559   7.973
 6310SOL    HW230447   2.818   2.512   7.863
 6311SOL     OW30448   1.938   2.673   8.237
 6311SOL    HW130449   2.037   2.661   8.246
 6311SOL    HW230450   1.914   2.768   8.258
 6312SOL     OW30451   2.727   2.210   7.643
 6312SOL    HW130452   2.786   2.273   7.594
 6312SOL    HW230453   2.746   2.116   7.614
 6313SOL     OW30454   3.581   2.447   9.279
 6313SOL    HW130455   3.555   2.536   9.243
 6313SOL    HW230456   3.579   2.379   9.206
 6314SOL     OW30457   3.224   3.006   7.993
 6314SOL    HW130458   3.307   2.977   7.945
 6314SOL    HW230459   3.175   3.073   7.937
 6315SOL     OW30460   2.412   2.058   8.333
 6315SOL    HW130461   2.407   2.053   8.433
 6315SOL    HW230462   2.414   2.154   8.304
 6316SOL     OW30463   2.870   3.318   7.925
 6316SOL    HW130464   2.824   3.390   7.873
 6316SOL    HW230465   2.866   3.338   8.023
 6317SOL     OW30466   2.213   3.663   8.301
 6317SOL    HW130467   2.263   3.577   8.307
 6317SOL    HW230468   2.278   3.740   8.298
 6318SOL     OW30469   3.657   2.928   8.321
 6318SOL    HW130470   3.595   2.913   8.245
 6318SOL    HW230471   3.605   2.939   8.406
 6319SOL     OW30472   3.089   3.412   8.954
 6319SOL    HW130473   3.095   3.335   9.018
 6319SOL    HW230474   3.037   3.386   8.874
 6320SOL     OW30475   2.183   2.805   7.690
 6320SOL    HW130476   2.265   2.844   7.648
 6320SOL    HW230477   2.156   2.723   7.641
 6321SOL     OW30478   3.320   2.597   8.176
 6321SOL    HW130479   3.315   2.532   8.251
 6321SOL    HW230480   3.400   2.656   8.189
 6322SOL     OW30481   2.323   3.128   9.175
 6322SOL    HW130482   2.273   3.129   9.089
 6322SOL    HW230483   2.260   3.110   9.251
 6323SOL     OW30484   2.973   3.638   7.685
 6323SOL    HW130485   2.913   3.576   7.735
 6323SOL    HW230486   3.004   3.594   7.600
 6324SOL     OW30487   2.064   2.147   8.946
 6324SOL    HW130488   1.984   2.207   8.933
 6324SOL    HW230489   2.054   2.098   9.032
 6325SOL     OW30490   3.494   3.239   7.529
 6325SOL    HW130491   3.462   3.333   7.519
 6325SOL    HW230492   3.418   3.176   7.517
 6326SOL     OW30493   2.326   3.605   7.771
 6326SOL    HW130494   2.359   3.644   7.857
 6326SOL    HW230495   2.402   3.598   7.706
 6327SOL     OW30496   3.262   1.969   7.874
 6327SOL    HW130497   3.238   1.932   7.784
 6327SOL    HW230498   3.361   1.985   7.878
 6328SOL     OW30499   2.111   3.647   8.689
 6328SOL    HW130500   2.168   3.582   8.739
 6328SOL    HW230501   2.095   3.614   8.596
 6329SOL     OW30502   2.802   3.560   8.352
 6329SOL    HW130503   2.882   3.503   8.373
 6329SOL    HW230504   2.753   3.520   8.275
 6330SOL     OW30505   2.244   2.562   7.928
 6330SOL    HW130506   2.289   2.472   7.925
 6330SOL    HW230507   2.150   2.551   7.961
 6331SOL     OW30508   3.409   2.084   9.177
 6331SOL    HW130509   3.404   2.121   9.269
 6331SOL    HW230510   3.337   2.015   9.165
 6332SOL     OW30511   2.476   1.984   7.565
 6332SOL    HW130512   2.574   1.962   7.572
 6332SOL    HW230513   2.445   1.967   7.472
 6333SOL     OW30514   2.643   2.126   9.197
 6333SOL    HW130515   2.710   2.065   9.240
 6333SOL    HW230516   2.570   2.145   9.262
 6334SOL     OW30517   2.750   3.376   8.643
 6334SOL    HW130518   2.727   3.351   8.549
 6334SOL    HW230519   2.811   3.307   8.682
 6335SOL     OW30520   3.213   2.452   8.881
 6335SOL    HW130521   3.241   2.409   8.966
 6335SOL    HW230522   3.238   2.548   8.882
 6336SOL     OW30523   2.665   3.264   8.372
 6336SOL    HW130524   2.755   3.278   8.330
 6336SOL    HW230525   2.594   3.266   8.301
 6337SOL     OW30526   2.784   2.365   8.347
 6337SOL    HW130527   2.759   2.356   8.251
 6337SOL    HW230528   2.832   2.283   8.378
 6338SOL     OW30529   2.401   1.926   7.960
 6338SOL    HW130530   2.320   1.927   8.018
 6338SOL    HW230531   2.404   2.009   7.905
 6339SOL     OW30532   3.296   3.050   7.489
 6339SOL    HW130533   3.328   2.974   7.546
 6339SOL    HW230534   3.204   3.077   7.519
 6340SOL     OW30535   2.159   1.897   7.619
 6340SOL    HW130536   2.208   1.981   7.598
 6340SOL    HW230537   2.221   1.832   7.664
 6341SOL     OW30538   2.797   2.098   7.928
 6341SOL    HW130539   2.749   2.139   7.850
 6341SOL    HW230540   2.896   2.096   7.909
 6342SOL     OW30541   2.938   2.545   8.912
 6342SOL    HW130542   2.858   2.484   8.915
 6342SOL    HW230543   3.019   2.492   8.888
 6343SOL     OW30544   3.089   3.432   8.241
 6343SOL    HW130545   3.110   3.506   8.176
 6343SOL    HW230546   3.157   3.432   8.314
 6344SOL     OW30547   2.321   3.014   8.189
 6344SOL    HW130548   2.250   2.987   8.254
 6344SOL    HW230549   2.295   2.986   8.096
 6345SOL     OW30550   3.133   3.659   8.039
 6345SOL    HW130551   3.177   3.723   7.975
 6345SOL    HW230552   3.083   3.711   8.109
 6346SOL     OW30553   2.894   2.411   7.464
 6346SOL    HW130554   2.853   2.493   7.425
 6346SOL    HW230555   2.958   2.437   7.537
 6347SOL     OW30556   1.940   2.418   8.834
 6347SOL    HW130557   2.032   2.417   8.793
 6347SOL    HW230558   1.934   2.492   8.901
 6348SOL     OW30559   2.423   2.084   8.595
 6348SOL    HW130560   2.461   2.000   8.632
 6348SOL    HW230561   2.335   2.103   8.639
 6349SOL     OW30562   2.728   2.316   8.090
 6349SOL    HW130563   2.696   2.388   8.028
 6349SOL    HW230564   2.752   2.235   8.037
 6350SOL     OW30565   2.879   1.901   8.201
 6350SOL    HW130566   2.807   1.906   8.132
 6350SOL    HW230567   2.855   1.832   8.270
 6351SOL     OW30568   3.291   3.035   8.315
 6351SOL    HW130569   3.236   2.951   8.308
 6351SOL    HW230570   3.317   3.064   8.223
 6352SOL     OW30571   3.328   2.452   8.440
 6352SOL    HW130572   3.298   2.357   8.447
 6352SOL    HW230573   3.401   2.468   8.506
 6353SOL     OW30574   3.719   2.695   7.825
 6353SOL    HW130575   3.761   2.631   7.889
 6353SOL    HW230576   3.681   2.644   7.747
 6354SOL     OW30577   2.350   3.247   7.622
 6354SOL    HW130578   2.263   3.232   7.669
 6354SOL    HW230579   2.333   3.273   7.527
 6355SOL     OW30580   3.526   3.142   8.105
 6355SOL    HW130581   3.625   3.150   8.119
 6355SOL    HW230582   3.481   3.226   8.136
 6356SOL     OW30583   3.252   2.437   7.526
 6356SOL    HW130584   3.198   2.416   7.607
 6356SOL    HW230585   3.343   2.396   7.535
 6357SOL     OW30586   2.389   2.118   7.776
 6357SOL    HW130587   2.416   2.059   7.701
 6357SOL    HW230588   2.389   2.213   7.745
 6358SOL     OW30589   3.616   3.085   9.036
 6358SOL    HW130590   3.707   3.046   9.023
 6358SOL    HW230591   3.624   3.181   9.060
 6359SOL     OW30592   2.926   3.209   8.788
 6359SOL    HW130593   2.846   3.186   8.843
 6359SOL    HW230594   3.009   3.183   8.837
 6360SOL     OW30595   3.454   3.491   9.073
 6360SOL    HW130596   3.481   3.525   8.983
 6360SOL    HW230597   3.533   3.453   9.119
 6361SOL     OW30598   2.973   3.057   8.548
 6361SOL    HW130599   2.933   3.101   8.629
 6361SOL    HW230600   2.932   3.094   8.465
 6362SOL     OW30601   3.500   2.961   8.527
 6362SOL    HW130602   3.505   3.042   8.586
 6362SOL    HW230603   3.414   2.963   8.476
 6363SOL     OW30604   2.777   1.951   8.850
 6363SOL    HW130605   2.802   1.931   8.755
 6363SOL    HW230606   2.849   2.007   8.892
 6364SOL     OW30607   2.842   2.978   9.167
 6364SOL    HW130608   2.743   2.984   9.177
 6364SOL    HW230609   2.865   2.898   9.111
 6365SOL     OW30610   2.567   2.912   7.816
 6365SOL    HW130611   2.553   2.919   7.915
 6365SOL    HW230612   2.651   2.861   7.798
 6366SOL     OW30613   2.272   2.675   8.699
 6366SOL    HW130614   2.358   2.687   8.749
 6366SOL    HW230615   2.230   2.588   8.726
 6367SOL     OW30616   3.136   2.248   8.710
 6367SOL    HW130617   3.157   2.322   8.774
 6367SOL    HW230618   3.047   2.265   8.667
 6368SOL     OW30619   1.926   3.426   8.779
 6368SOL    HW130620   1.880   3.508   8.745
 6368SOL    HW230621   2.024   3.445   8.788
 6369SOL     OW30622   2.229   2.962   7.949
 6369SOL    HW130623   2.222   3.045   7.893
 6369SOL    HW230624   2.233   2.882   7.889
 6370SOL     OW30625   2.428   2.399   8.313
 6370SOL    HW130626   2.440   2.465   8.239
 6370SOL    HW230627   2.474   2.433   8.396
 6371SOL     OW30628   3.114   3.210   7.836
 6371SOL    HW130629   3.164   3.287   7.876
 6371SOL    HW230630   3.019   3.212   7.868
 6372SOL     OW30631   3.134   3.307   8.590
 6372SOL    HW130632   3.181   3.320   8.677
 6372SOL    HW230633   3.068   3.233   8.599
 6373SOL     OW30634   3.444   2.501   7.920
 6373SOL    HW130635   3.413   2.562   7.993
 6373SOL    HW230636   3.494   2.553   7.851
 6374SOL     OW30637   2.216   3.372   8.777
 6374SOL    HW130638   2.195   3.328   8.690
 6374SOL    HW230639   2.313   3.398   8.780
 6375SOL     OW30640   2.264   2.613   9.046
 6375SOL    HW130641   2.332   2.668   8.999
 6375SOL    HW230642   2.304   2.525   9.073
 6376SOL     OW30643   3.449   2.641   9.118
 6376SOL    HW130644   3.357   2.679   9.113
 6376SOL    HW230645   3.509   2.688   9.053
 6377SOL     OW30646   2.875   1.967   9.218
 6377SOL    HW130647   2.881   2.052   9.166
 6377SOL    HW230648   2.907   1.891   9.161
 6378SOL     OW30649   2.366   1.912   9.188
 6378SOL    HW130650   2.324   1.855   9.118
 6378SOL    HW230651   2.300   1.981   9.220
 6379SOL     OW30652   2.435   2.732   8.477
 6379SOL    HW130653   2.479   2.821   8.468
 6379SOL    HW230654   2.372   2.732   8.554
 6380SOL     OW30655   3.222   2.724   8.493
 6380SOL    HW130656   3.147   2.724   8.427
 6380SOL    HW230657   3.259   2.632   8.502
 6381SOL     OW30658   3.071   2.387   7.723
 6381SOL    HW130659   3.084   2.303   7.777
 6381SOL    HW230660   3.042   2.461   7.783
 6382SOL     OW30661   2.169   2.075   8.679
 6382SOL    HW130662   2.146   2.112   8.769
 6382SOL    HW230663   2.139   1.980   8.673
 6383SOL     OW30664   1.899   3.172   8.730
 6383SOL    HW130665   1.952   3.123   8.798
 6383SOL    HW230666   1.921   3.270   8.735
 6384SOL     OW30667   2.594   2.496   8.512
 6384SOL    HW130668   2.653   2.470   8.436
 6384SOL    HW230669   2.566   2.592   8.501
 6385SOL     OW30670   3.590   2.797   9.302
 6385SOL    HW130671   3.544   2.790   9.213
 6385SOL    HW230672   3.528   2.841   9.368
 6386SOL     OW30673   2.169   1.925   8.066
 6386SOL    HW130674   2.158   2.019   8.099
 6386SOL    HW230675   2.164   1.862   8.143
 6387SOL     OW30676   3.484   2.229   7.822
 6387SOL    HW130677   3.486   2.153   7.886
 6387SOL    HW230678   3.436   2.306   7.862
 6388SOL     OW30679   2.885   2.628   8.414
 6388SOL    HW130680   2.900   2.649   8.510
 6388SOL    HW230681   2.855   2.533   8.405
 6389SOL     OW30682   2.842   3.435   9.148
 6389SOL    HW130683   2.822   3.479   9.060
 6389SOL    HW230684   2.881   3.344   9.132
 6390SOL     OW30685   3.721   3.380   9.053
 6390SOL    HW130686   3.735   3.407   8.958
 6390SOL    HW230687   3.804   3.402   9.106
 6391SOL     OW30688   2.212   2.760   9.252
 6391SOL    HW130689   2.288   2.804   9.300
 6391SOL    HW230690   2.247   2.713   9.170
 6392SOL     OW30691   3.402   2.136   7.573
 6392SOL    HW130692   3.341   2.061   7.596
 6392SOL    HW230693   3.424   2.188   7.656
 6393SOL     OW30694   3.165   2.700   7.490
 6393SOL    HW130695   3.199   2.607   7.505
 6393SOL    HW230696   3.183   2.727   7.395
 6394SOL     OW30697   2.930   3.195   8.297
 6394SOL    HW130698   2.937   3.111   8.242
 6394SOL    HW230699   2.992   3.264   8.261
 6395SOL     OW30700   2.181   2.672   8.397
 6395SOL    HW130701   2.274   2.708   8.402
 6395SOL    HW230702   2.175   2.587   8.449
 6396SOL     OW30703   2.201   2.371   8.454
 6396SOL    HW130704   2.149   2.288   8.437
 6396SOL    HW230705   2.278   2.376   8.390
 6397SOL     OW30706   3.000   2.242   9.126
 6397SOL    HW130707   2.955   2.305   9.190
 6397SOL    HW230708   3.093   2.273   9.109
 6398SOL     OW30709   3.022   2.069   8.925
 6398SOL    HW130710   3.022   2.133   9.002
 6398SOL    HW230711   3.050   2.117   8.842
 6399SOL     OW30712   1.870   3.188   7.648
 6399SOL    HW130713   1.777   3.209   7.617
 6399SOL    HW230714   1.880   3.089   7.661
 6400SOL     OW30715   1.950   3.663   8.375
 6400SOL    HW130716   1.908   3.577   8.348
 6400SOL    HW230717   2.044   3.666   8.341
 6401SOL     OW30718   2.366   3.430   8.358
 6401SOL    HW130719   2.432   3.504   8.367
 6401SOL    HW230720   2.410   3.351   8.316
 6402SOL     OW30721   2.864   2.658   8.686
 6402SOL    HW130722   2.905   2.626   8.772
 6402SOL    HW230723   2.768   2.631   8.683
 6403SOL     OW30724   1.902   2.406   8.562
 6403SOL    HW130725   1.987   2.373   8.521
 6403SOL    HW230726   1.915   2.421   8.660
 6404SOL     OW30727   2.051   2.382   9.170
 6404SOL    HW130728   2.110   2.342   9.100
 6404SOL    HW230729   1.993   2.453   9.129
 6405SOL     OW30730   3.231   2.812   9.108
 6405SOL    HW130731   3.270   2.901   9.128
 6405SOL    HW230732   3.241   2.792   9.011
 6406SOL     OW30733   2.677   2.434   7.773
 6406SOL    HW130734   2.684   2.345   7.727
 6406SOL    HW230735   2.583   2.468   7.765
 6407SOL     OW30736   3.519   2.466   8.654
 6407SOL    HW130737   3.481   2.397   8.716
 6407SOL    HW230738   3.601   2.430   8.610
 6408SOL     OW30739   2.114   3.426   9.192
 6408SOL    HW130740   2.084   3.483   9.268
 6408SOL    HW230741   2.107   3.329   9.218
 6409SOL     OW30742   2.533   2.326   8.717
 6409SOL    HW130743   2.499   2.237   8.687
 6409SOL    HW230744   2.559   2.380   8.637
 6410SOL     OW30745   2.792   3.540   8.913
 6410SOL    HW130746   2.768   3.522   8.818
 6410SOL    HW230747   2.822   3.634   8.923
 6411SOL     OW30748   2.335   2.362   7.639
 6411SOL    HW130749   2.396   2.442   7.643
 6411SOL    HW230750   2.240   2.393   7.646
 6412SOL     OW30751   2.021   2.999   8.914
 6412SOL    HW130752   2.043   2.938   8.990
 6412SOL    HW230753   2.031   2.950   8.828
 6413SOL     OW30754   3.209   2.921   8.682
 6413SOL    HW130755   3.233   2.858   8.608
 6413SOL    HW230756   3.119   2.961   8.664
 6414SOL     OW30757   3.164   2.717   7.757
 6414SOL    HW130758   3.078   2.686   7.799
 6414SOL    HW230759   3.160   2.703   7.658
 6415SOL     OW30760   3.621   3.609   8.602
 6415SOL    HW130761   3.682   3.639   8.529
 6415SOL    HW230762   3.583   3.520   8.580
 6416SOL     OW30763   3.114   3.593   8.576
 6416SOL    HW130764   3.198   3.598   8.522
 6416SOL    HW230765   3.091   3.497   8.594
 6417SOL     OW30766   1.945   3.120   8.470
 6417SOL    HW130767   1.940   3.119   8.570
 6417SOL    HW230768   1.862   3.079   8.432
 6418SOL     OW30769   2.550   3.524   9.164
 6418SOL    HW130770   2.494   3.605   9.173
 6418SOL    HW230771   2.602   3.528   9.078
 6419SOL     OW30772   3.588   1.997   7.971
 6419SOL    HW130773   3.661   1.980   7.904
 6419SOL    HW230774   3.557   1.910   8.009
 6420SOL     OW30775   3.250   3.435   7.925
 6420SOL    HW130776   3.317   3.447   7.851
 6420SOL    HW230777   3.210   3.524   7.948
 6421SOL     OW30778   3.142   2.789   8.120
 6421SOL    HW130779   3.202   2.708   8.122
 6421SOL    HW230780   3.182   2.858   8.060
 6422SOL     OW30781   2.692   3.135   8.870
 6422SOL    HW130782   2.687   3.168   8.965
 6422SOL    HW230783   2.606   3.154   8.824
 6423SOL     OW30784   2.534   3.478   7.602
 6423SOL    HW130785   2.543   3.488   7.503
 6423SOL    HW230786   2.494   3.389   7.623
 6424SOL     OW30787   3.512   3.582   8.842
 6424SOL    HW130788   3.565   3.592   8.758
 6424SOL    HW230789   3.485   3.672   8.876
 6425SOL     OW30790   3.703   2.037   8.411
 6425SOL    HW130791   3.742   1.952   8.375
 6425SOL    HW230792   3.605   2.039   8.392
 6426SOL     OW30793   2.125   2.188   8.168
 6426SOL    HW130794   2.046   2.239   8.134
 6426SOL    HW230795   2.116   2.173   8.266
 6427SOL     OW30796   3.056   3.474   7.479
 6427SOL    HW130797   3.062   3.381   7.516
 6427SOL    HW230798   2.997   3.474   7.399
 6428SOL     OW30799   2.684   2.864   8.820
 6428SOL    HW130800   2.724   2.863   8.728
 6428SOL    HW230801   2.694   2.956   8.860
 6429SOL     OW30802   2.778   2.772   7.739
 6429SOL    HW130803   2.841   2.810   7.671
 6429SOL    HW230804   2.818   2.689   7.778
 6430SOL     OW30805   3.366   3.469   7.492
 6430SOL    HW130806   3.274   3.506   7.499
 6430SOL    HW230807   3.404   3.489   7.402
 6431SOL     OW30808   2.234   3.150   8.938
 6431SOL    HW130809   2.221   3.243   8.904
 6431SOL    HW230810   2.150   3.098   8.925
 6432SOL     OW30811   3.476   3.154   8.737
 6432SOL    HW130812   3.536   3.157   8.817
 6432SOL    HW230813   3.401   3.218   8.750
 6433SOL     OW30814   2.901   2.960   8.144
 6433SOL    HW130815   2.831   2.913   8.198
 6433SOL    HW230816   2.960   2.892   8.101
 6434SOL     OW30817   2.876   2.098   8.419
 6434SOL    HW130818   2.868   2.062   8.326
 6434SOL    HW230819   2.874   2.022   8.484
 6435SOL     OW30820   2.452   3.349   7.939
 6435SOL    HW130821   2.494   3.291   7.869
 6435SOL    HW230822   2.408   3.428   7.895
 6436SOL     OW30823   3.571   2.247   8.829
 6436SOL    HW130824   3.644   2.316   8.833
 6436SOL    HW230825   3.599   2.172   8.770
 6437SOL     OW30826   2.117   3.210   7.738
 6437SOL    HW130827   2.021   3.211   7.711
 6437SOL    HW230828   2.129   3.263   7.822
 6438SOL     OW30829   1.967   2.875   9.174
 6438SOL    HW130830   1.890   2.842   9.228
 6438SOL    HW230831   2.052   2.845   9.216
 6439SOL     OW30832   2.534   2.065   8.937
 6439SOL    HW130833   2.624   2.049   8.897
 6439SOL    HW230834   2.542   2.070   9.036
 6440SOL     OW30835   1.937   2.207   7.481
 6440SOL    HW130836   1.845   2.179   7.452
 6440SOL    HW230837   1.968   2.284   7.425
 6441SOL     OW30838   3.302   2.718   8.846
 6441SOL    HW130839   3.245   2.770   8.783
 6441SOL    HW230840   3.398   2.730   8.822
 6442SOL     OW30841   1.934   2.028   7.766
 6442SOL    HW130842   1.917   2.111   7.712
 6442SOL    HW230843   2.024   1.991   7.744
 6443SOL     OW30844   3.045   3.197   7.567
 6443SOL    HW130845   2.946   3.186   7.569
 6443SOL    HW230846   3.079   3.212   7.660
 6444SOL     OW30847   2.475   2.704   8.879
 6444SOL    HW130848   2.531   2.785   8.862
 6444SOL    HW230849   2.534   2.624   8.882
 6445SOL     OW30850   3.355   3.629   8.407
 6445SOL    HW130851   3.388   3.693   8.338
 6445SOL    HW230852   3.421   3.623   8.482
 6446SOL     OW30853   2.578   2.427   9.156
 6446SOL    HW130854   2.597   2.492   9.230
 6446SOL    HW230855   2.638   2.347   9.165
 6447SOL     OW30856   3.312   3.082   9.081
 6447SOL    HW130857   3.303   3.072   9.180
 6447SOL    HW230858   3.408   3.075   9.055
 6448SOL     OW30859   3.536   2.745   8.702
 6448SOL    HW130860   3.509   2.656   8.665
 6448SOL    HW230861   3.537   2.813   8.629
 6449SOL     OW30862   3.087   2.187   7.897
 6449SOL    HW130863   3.152   2.113   7.886
 6449SOL    HW230864   3.107   2.237   7.981
 6450SOL     OW30865   2.456   2.607   8.100
 6450SOL    HW130866   2.506   2.692   8.081
 6450SOL    HW230867   2.368   2.609   8.052
 6451SOL     OW30868   3.639   2.204   9.090
 6451SOL    HW130869   3.622   2.235   8.996
 6451SOL    HW230870   3.555   2.167   9.128
 6452SOL     OW30871   3.592   2.796   8.965
 6452SOL    HW130872   3.630   2.887   8.980
 6452SOL    HW230873   3.584   2.779   8.866
 6453SOL     OW30874   2.721   3.236   7.464
 6453SOL    HW130875   2.675   3.251   7.552
 6453SOL    HW230876   2.765   3.321   7.434
 6454SOL     OW30877   2.523   3.652   8.401
 6454SOL    HW130878   2.477   3.740   8.388
 6454SOL    HW230879   2.622   3.664   8.394
 6455SOL     OW30880   2.721   2.818   8.309
 6455SOL    HW130881   2.775   2.749   8.357
 6455SOL    HW230882   2.689   2.887   8.375
 6456SOL     OW30883   2.945   2.846   7.535
 6456SOL    HW130884   2.922   2.899   7.453
 6456SOL    HW230885   3.026   2.790   7.516
 6457SOL     OW30886   3.723   3.431   8.299
 6457SOL    HW130887   3.652   3.419   8.229
 6457SOL    HW230888   3.724   3.352   8.359
 6458SOL     OW30889   2.083   3.176   9.292
 6458SOL    HW130890   2.018   3.103   9.271
 6458SOL    HW230891   2.087   3.190   9.390
 6459SOL     OW30892   1.941   3.102   8.101
 6459SOL    HW130893   1.940   3.055   8.189
 6459SOL    HW230894   2.023   3.074   8.050
 6460SOL     OW30895   2.534   3.253   9.072
 6460SOL    HW130896   2.456   3.203   9.110
 6460SOL    HW230897   2.531   3.348   9.103
 6461SOL     OW30898   3.686   2.054   8.675
 6461SOL    HW130899   3.682   1.964   8.719
 6461SOL    HW230900   3.689   2.043   8.576
 6462SOL     OW30901   2.290   2.286   7.968
 6462SOL    HW130902   2.320   2.214   7.906
 6462SOL    HW230903   2.251   2.246   8.051
 6463SOL     OW30904   3.567   3.349   8.552
 6463SOL    HW130905   3.474   3.324   8.525
 6463SOL    HW230906   3.593   3.299   8.634
 6464SOL     OW30907   2.179   2.409   8.728
 6464SOL    HW130908   2.217   2.350   8.800
 6464SOL    HW230909   2.219   2.383   8.640
 6465SOL     OW30910   2.674   3.448   8.135
 6465SOL    HW130911   2.706   3.458   8.041
 6465SOL    HW230912   2.595   3.386   8.137
 6466SOL     OW30913   3.286   2.076   8.560
 6466SOL    HW130914   3.338   2.011   8.615
 6466SOL    HW230915   3.237   2.139   8.621
 6467SOL     OW30916   2.863   1.896   8.602
 6467SOL    HW130917   2.800   1.824   8.571
 6467SOL    HW230918   2.956   1.860   8.602
 6468SOL     OW30919   2.632   3.192   7.749
 6468SOL    HW130920   2.586   3.105   7.766
 6468SOL    HW230921   2.723   3.189   7.790
 6469SOL     OW30922   2.480   3.429   8.732
 6469SOL    HW130923   2.475   3.511   8.789
 6469SOL    HW230924   2.569   3.426   8.687
 6470SOL     OW30925   3.214   1.914   7.616
 6470SOL    HW130926   3.249   1.873   7.532
 6470SOL    HW230927   3.124   1.876   7.636
 6471SOL     OW30928   3.162   2.315   8.139
 6471SOL    HW130929   3.103   2.395   8.143
 6471SOL    HW230930   3.177   2.280   8.232
 6472SOL     OW30931   3.455   2.083   8.330
 6472SOL    HW130932   3.371   2.082   8.384
 6472SOL    HW230933   3.457   2.166   8.274
 6473SOL     OW30934   1.901   2.939   7.748
 6473SOL    HW130935   2.000   2.928   7.739
 6473SOL    HW230936   1.861   2.853   7.780
 6474SOL     OW30937   2.737   3.508   7.785
 6474SOL    HW130938   2.660   3.473   7.731
 6474SOL    HW230939   2.705   3.579   7.847
 6475SOL     OW30940   2.092   2.490   9.423
 6475SOL    HW130941   1.999   2.488   9.460
 6475SOL    HW230942   2.093   2.451   9.331
 6476SOL     OW30943   2.431   3.137  10.475
 6476SOL    HW130944   2.338   3.130  10.438
 6476SOL    HW230945   2.442   3.226  10.519
 6477SOL     OW30946   2.997   2.565  10.027
 6477SOL    HW130947   3.054   2.643  10.002
 6477SOL    HW230948   2.937   2.591  10.103
 6478SOL     OW30949   3.617   2.469   9.541
 6478SOL    HW130950   3.605   2.456   9.442
 6478SOL    HW230951   3.587   2.388   9.590
 6479SOL     OW30952   2.547   2.874   9.975
 6479SOL    HW130953   2.616   2.858  10.045
 6479SOL    HW230954   2.474   2.931  10.013
 6480SOL     OW30955   2.548   3.023  11.113
 6480SOL    HW130956   2.608   3.102  11.127
 6480SOL    HW230957   2.462   3.054  11.072
 6481SOL     OW30958   3.322   3.367  10.649
 6481SOL    HW130959   3.346   3.461  10.675
 6481SOL    HW230960   3.306   3.313  10.731
 6482SOL     OW30961   3.465   2.309  10.047
 6482SOL    HW130962   3.391   2.355   9.997
 6482SOL    HW230963   3.516   2.377  10.100
 6483SOL     OW30964   2.989   3.203  11.000
 6483SOL    HW130965   3.036   3.203  11.088
 6483SOL    HW230966   2.941   3.116  10.989
 6484SOL     OW30967   2.482   3.648  10.749
 6484SOL    HW130968   2.390   3.631  10.784
 6484SOL    HW230969   2.510   3.740  10.775
 6485SOL     OW30970   2.468   2.826   9.433
 6485SOL    HW130971   2.475   2.910   9.379
 6485SOL    HW230972   2.514   2.839   9.521
 6486SOL     OW30973   3.456   1.976  10.790
 6486SOL    HW130974   3.438   2.043  10.718
 6486SOL    HW230975   3.453   2.022  10.879
 6487SOL     OW30976   1.984   2.505   9.873
 6487SOL    HW130977   1.939   2.417   9.890
 6487SOL    HW230978   1.983   2.559   9.957
 6488SOL     OW30979   3.551   2.784   9.922
 6488SOL    HW130980   3.646   2.755   9.930
 6488SOL    HW230981   3.543   2.849   9.847
 6489SOL     OW30982   3.503   2.970   9.742
 6489SOL    HW130983   3.589   2.972   9.690
 6489SOL    HW230984   3.517   3.017   9.830
 6490SOL     OW30985   3.155   3.090  10.733
 6490SOL    HW130986   3.192   3.017  10.675
 6490SOL    HW230987   3.207   3.095  10.818
 6491SOL     OW30988   3.387   2.861   9.500
 6491SOL    HW130989   3.324   2.785   9.513
 6491SOL    HW230990   3.435   2.879   9.586
 6492SOL     OW30991   3.049   3.654  10.926
 6492SOL    HW130992   3.073   3.714  10.850
 6492SOL    HW230993   3.056   3.559  10.896
 6493SOL     OW30994   3.328   3.279  10.263
 6493SOL    HW130995   3.269   3.285  10.343
 6493SOL    HW230996   3.313   3.191  10.217
 6494SOL     OW30997   2.460   2.591   9.580
 6494SOL    HW130998   2.484   2.660   9.512
 6494SOL    HW230999   2.382   2.624   9.634
 6495SOL     OW31000   3.143   2.207  10.254
 6495SOL    HW131001   3.057   2.157  10.241
 6495SOL    HW231002   3.205   2.153  10.310
 6496SOL     OW31003   3.438   3.524   9.617
 6496SOL    HW131004   3.527   3.570   9.620
 6496SOL    HW231005   3.417   3.500   9.522
 6497SOL     OW31006   2.853   2.272  10.552
 6497SOL    HW131007   2.776   2.306  10.606
 6497SOL    HW231008   2.819   2.221  10.473
 6498SOL     OW31009   2.903   2.563   9.739
 6498SOL    HW131010   2.929   2.559   9.835
 6498SOL    HW231011   2.818   2.512   9.725
 6499SOL     OW31012   1.938   2.673  10.099
 6499SOL    HW131013   2.037   2.661  10.108
 6499SOL    HW231014   1.914   2.768  10.120
 6500SOL     OW31015   2.727   2.210   9.505
 6500SOL    HW131016   2.786   2.273   9.456
 6500SOL    HW231017   2.746   2.116   9.476
 6501SOL     OW31018   3.224   3.006   9.855
 6501SOL    HW131019   3.307   2.977   9.807
 6501SOL    HW231020   3.175   3.073   9.799
 6502SOL     OW31021   2.412   2.058  10.195
 6502SOL    HW131022   2.407   2.053  10.295
 6502SOL    HW231023   2.414   2.154  10.166
 6503SOL     OW31024   2.870   3.318   9.787
 6503SOL    HW131025   2.824   3.390   9.735
 6503SOL    HW231026   2.866   3.338   9.885
 6504SOL     OW31027   3.657   2.928  10.183
 6504SOL    HW131028   3.595   2.913  10.107
 6504SOL    HW231029   3.605   2.939  10.268
 6505SOL     OW31030   3.089   3.412  10.816
 6505SOL    HW131031   3.095   3.335  10.880
 6505SOL    HW231032   3.037   3.386  10.736
 6506SOL     OW31033   2.183   2.805   9.552
 6506SOL    HW131034   2.265   2.844   9.510
 6506SOL    HW231035   2.156   2.723   9.503
 6507SOL     OW31036   3.320   2.597  10.038
 6507SOL    HW131037   3.315   2.532  10.113
 6507SOL    HW231038   3.400   2.656  10.051
 6508SOL     OW31039   2.323   3.128  11.037
 6508SOL    HW131040   2.273   3.129  10.951
 6508SOL    HW231041   2.260   3.110  11.113
 6509SOL     OW31042   2.973   3.638   9.547
 6509SOL    HW131043   2.913   3.576   9.597
 6509SOL    HW231044   3.004   3.594   9.462
 6510SOL     OW31045   3.494   3.239   9.391
 6510SOL    HW131046   3.462   3.333   9.381
 6510SOL    HW231047   3.418   3.176   9.379
 6511SOL     OW31048   2.326   3.605   9.633
 6511SOL    HW131049   2.359   3.644   9.719
 6511SOL    HW231050   2.402   3.598   9.568
 6512SOL     OW31051   3.262   1.969   9.736
 6512SOL    HW131052   3.238   1.932   9.646
 6512SOL    HW231053   3.361   1.985   9.740
 6513SOL     OW31054   2.111   3.647  10.551
 6513SOL    HW131055   2.168   3.582  10.601
 6513SOL    HW231056   2.095   3.614  10.458
 6514SOL     OW31057   2.802   3.560  10.214
 6514SOL    HW131058   2.882   3.503  10.235
 6514SOL    HW231059   2.753   3.520  10.137
 6515SOL     OW31060   2.244   2.562   9.790
 6515SOL    HW131061   2.289   2.472   9.787
 6515SOL    HW231062   2.150   2.551   9.823
 6516SOL     OW31063   3.409   2.084  11.039
 6516SOL    HW131064   3.404   2.121  11.131
 6516SOL    HW231065   3.337   2.015  11.027
 6517SOL     OW31066   2.476   1.984   9.427
 6517SOL    HW131067   2.574   1.962   9.434
 6517SOL    HW231068   2.445   1.967   9.334
 6518SOL     OW31069   2.750   3.376  10.505
 6518SOL    HW131070   2.727   3.351  10.411
 6518SOL    HW231071   2.811   3.307  10.544
 6519SOL     OW31072   2.784   2.365  10.209
 6519SOL    HW131073   2.759   2.356  10.113
 6519SOL    HW231074   2.832   2.283  10.240
 6520SOL     OW31075   3.296   3.050   9.351
 6520SOL    HW131076   3.328   2.974   9.408
 6520SOL    HW231077   3.204   3.077   9.381
 6521SOL     OW31078   2.797   2.098   9.790
 6521SOL    HW131079   2.749   2.139   9.712
 6521SOL    HW231080   2.896   2.096   9.771
 6522SOL     OW31081   2.938   2.545  10.774
 6522SOL    HW131082   2.858   2.484  10.777
 6522SOL    HW231083   3.019   2.492  10.750
 6523SOL     OW31084   3.089   3.432  10.103
 6523SOL    HW131085   3.110   3.506  10.038
 6523SOL    HW231086   3.157   3.432  10.176
 6524SOL     OW31087   3.133   3.659   9.901
 6524SOL    HW131088   3.177   3.723   9.837
 6524SOL    HW231089   3.083   3.711   9.971
 6525SOL     OW31090   2.894   2.411   9.326
 6525SOL    HW131091   2.853   2.493   9.287
 6525SOL    HW231092   2.958   2.437   9.399
 6526SOL     OW31093   2.423   2.084  10.457
 6526SOL    HW131094   2.461   2.000  10.494
 6526SOL    HW231095   2.335   2.103  10.501
 6527SOL     OW31096   2.728   2.316   9.952
 6527SOL    HW131097   2.696   2.388   9.890
 6527SOL    HW231098   2.752   2.235   9.899
 6528SOL     OW31099   3.291   3.035  10.177
 6528SOL    HW131100   3.236   2.951  10.170
 6528SOL    HW231101   3.317   3.064  10.085
 6529SOL     OW31102   3.328   2.452  10.302
 6529SOL    HW131103   3.298   2.357  10.309
 6529SOL    HW231104   3.401   2.468  10.368
 6530SOL     OW31105   3.719   2.695   9.687
 6530SOL    HW131106   3.761   2.631   9.751
 6530SOL    HW231107   3.681   2.644   9.609
 6531SOL     OW31108   2.350   3.247   9.484
 6531SOL    HW131109   2.263   3.232   9.531
 6531SOL    HW231110   2.333   3.273   9.389
 6532SOL     OW31111   3.252   2.437   9.388
 6532SOL    HW131112   3.198   2.416   9.469
 6532SOL    HW231113   3.343   2.396   9.397
 6533SOL     OW31114   2.389   2.118   9.638
 6533SOL    HW131115   2.416   2.059   9.563
 6533SOL    HW231116   2.389   2.213   9.607
 6534SOL     OW31117   2.926   3.209  10.650
 6534SOL    HW131118   2.846   3.186  10.705
 6534SOL    HW231119   3.009   3.183  10.699
 6535SOL     OW31120   2.973   3.057  10.410
 6535SOL    HW131121   2.933   3.101  10.491
 6535SOL    HW231122   2.932   3.094  10.327
 6536SOL     OW31123   2.842   2.978  11.029
 6536SOL    HW131124   2.743   2.984  11.039
 6536SOL    HW231125   2.865   2.898  10.973
 6537SOL     OW31126   2.567   2.912   9.678
 6537SOL    HW131127   2.553   2.919   9.777
 6537SOL    HW231128   2.651   2.861   9.660
 6538SOL     OW31129   2.229   2.962   9.811
 6538SOL    HW131130   2.222   3.045   9.755
 6538SOL    HW231131   2.233   2.882   9.751
 6539SOL     OW31132   2.428   2.399  10.175
 6539SOL    HW131133   2.440   2.465  10.101
 6539SOL    HW231134   2.474   2.433  10.258
 6540SOL     OW31135   3.114   3.210   9.698
 6540SOL    HW131136   3.164   3.287   9.738
 6540SOL    HW231137   3.019   3.212   9.730
 6541SOL     OW31138   3.134   3.307  10.452
 6541SOL    HW131139   3.181   3.320  10.539
 6541SOL    HW231140   3.068   3.233  10.461
 6542SOL     OW31141   3.444   2.501   9.782
 6542SOL    HW131142   3.413   2.562   9.855
 6542SOL    HW231143   3.494   2.553   9.713
 6543SOL     OW31144   2.366   1.912  11.050
 6543SOL    HW131145   2.324   1.855  10.980
 6543SOL    HW231146   2.300   1.981  11.082
 6544SOL     OW31147   3.222   2.724  10.355
 6544SOL    HW131148   3.147   2.724  10.289
 6544SOL    HW231149   3.259   2.632  10.364
 6545SOL     OW31150   3.071   2.387   9.585
 6545SOL    HW131151   3.084   2.303   9.639
 6545SOL    HW231152   3.042   2.461   9.645
 6546SOL     OW31153   2.169   2.075  10.541
 6546SOL    HW131154   2.146   2.112  10.631
 6546SOL    HW231155   2.139   1.980  10.535
 6547SOL     OW31156   1.899   3.172  10.592
 6547SOL    HW131157   1.952   3.123  10.660
 6547SOL    HW231158   1.921   3.270  10.597
 6548SOL     OW31159   2.594   2.496  10.374
 6548SOL    HW131160   2.653   2.470  10.298
 6548SOL    HW231161   2.566   2.592  10.363
 6549SOL     OW31162   3.484   2.229   9.684
 6549SOL    HW131163   3.486   2.153   9.748
 6549SOL    HW231164   3.436   2.306   9.724
 6550SOL     OW31165   2.885   2.628  10.276
 6550SOL    HW131166   2.900   2.649  10.372
 6550SOL    HW231167   2.855   2.533  10.267
 6551SOL     OW31168   2.842   3.435  11.010
 6551SOL    HW131169   2.822   3.479  10.922
 6551SOL    HW231170   2.881   3.344  10.994
 6552SOL     OW31171   3.402   2.136   9.435
 6552SOL    HW131172   3.341   2.061   9.458
 6552SOL    HW231173   3.424   2.188   9.518
 6553SOL     OW31174   3.165   2.700   9.352
 6553SOL    HW131175   3.199   2.607   9.367
 6553SOL    HW231176   3.183   2.727   9.257
 6554SOL     OW31177   2.930   3.195  10.159
 6554SOL    HW131178   2.937   3.111  10.104
 6554SOL    HW231179   2.992   3.264  10.123
 6555SOL     OW31180   2.181   2.672  10.259
 6555SOL    HW131181   2.274   2.708  10.264
 6555SOL    HW231182   2.175   2.587  10.311
 6556SOL     OW31183   2.677   2.434   9.635
 6556SOL    HW131184   2.684   2.345   9.589
 6556SOL    HW231185   2.583   2.468   9.627
 6557SOL     OW31186   2.114   3.426  11.054
 6557SOL    HW131187   2.084   3.483  11.130
 6557SOL    HW231188   2.107   3.329  11.080
 6558SOL     OW31189   2.792   3.540  10.775
 6558SOL    HW131190   2.768   3.522  10.680
 6558SOL    HW231191   2.822   3.634  10.785
 6559SOL     OW31192   2.335   2.362   9.501
 6559SOL    HW131193   2.396   2.442   9.505
 6559SOL    HW231194   2.240   2.393   9.508
 6560SOL     OW31195   2.021   2.999  10.776
 6560SOL    HW131196   2.043   2.938  10.852
 6560SOL    HW231197   2.031   2.950  10.690
 6561SOL     OW31198   3.209   2.921  10.544
 6561SOL    HW131199   3.233   2.858  10.470
 6561SOL    HW231200   3.119   2.961  10.526
 6562SOL     OW31201   3.164   2.717   9.619
 6562SOL    HW131202   3.078   2.686   9.661
 6562SOL    HW231203   3.160   2.703   9.520
 6563SOL     OW31204   3.114   3.593  10.438
 6563SOL    HW131205   3.198   3.598  10.384
 6563SOL    HW231206   3.091   3.497  10.456
 6564SOL     OW31207   2.550   3.524  11.026
 6564SOL    HW131208   2.494   3.605  11.035
 6564SOL    HW231209   2.602   3.528  10.940
 6565SOL     OW31210   3.588   1.997   9.833
 6565SOL    HW131211   3.661   1.980   9.766
 6565SOL    HW231212   3.557   1.910   9.871
 6566SOL     OW31213   3.250   3.435   9.787
 6566SOL    HW131214   3.317   3.447   9.713
 6566SOL    HW231215   3.210   3.524   9.810
 6567SOL     OW31216   1.992   3.656  11.161
 6567SOL    HW131217   1.951   3.582  11.214
 6567SOL    HW231218   2.056   3.707  11.219
 6568SOL     OW31219   3.142   2.789   9.982
 6568SOL    HW131220   3.202   2.708   9.984
 6568SOL    HW231221   3.182   2.858   9.922
 6569SOL     OW31222   2.692   3.135  10.732
 6569SOL    HW131223   2.687   3.168  10.827
 6569SOL    HW231224   2.606   3.154  10.686
 6570SOL     OW31225   2.534   3.478   9.464
 6570SOL    HW131226   2.543   3.488   9.365
 6570SOL    HW231227   2.494   3.389   9.485
 6571SOL     OW31228   3.703   2.037  10.273
 6571SOL    HW131229   3.742   1.952  10.237
 6571SOL    HW231230   3.605   2.039  10.254
 6572SOL     OW31231   2.125   2.188  10.030
 6572SOL    HW131232   2.046   2.239   9.996
 6572SOL    HW231233   2.116   2.173  10.128
 6573SOL     OW31234   3.056   3.474   9.341
 6573SOL    HW131235   3.062   3.381   9.378
 6573SOL    HW231236   2.997   3.474   9.261
 6574SOL     OW31237   2.778   2.772   9.601
 6574SOL    HW131238   2.841   2.810   9.533
 6574SOL    HW231239   2.818   2.689   9.640
 6575SOL     OW31240   3.366   3.469   9.354
 6575SOL    HW131241   3.274   3.506   9.361
 6575SOL    HW231242   3.404   3.489   9.264
 6576SOL     OW31243   2.234   3.150  10.800
 6576SOL    HW131244   2.221   3.243  10.766
 6576SOL    HW231245   2.150   3.098  10.787
 6577SOL     OW31246   2.901   2.960  10.006
 6577SOL    HW131247   2.831   2.913  10.060
 6577SOL    HW231248   2.960   2.892   9.963
 6578SOL     OW31249   2.876   2.098  10.281
 6578SOL    HW131250   2.868   2.062  10.188
 6578SOL    HW231251   2.874   2.022  10.346
 6579SOL     OW31252   2.452   3.349   9.801
 6579SOL    HW131253   2.494   3.291   9.731
 6579SOL    HW231254   2.408   3.428   9.757
 6580SOL     OW31255   3.571   2.247  10.691
 6580SOL    HW131256   3.644   2.316  10.695
 6580SOL    HW231257   3.599   2.172  10.632
 6581SOL     OW31258   1.937   2.207   9.343
 6581SOL    HW131259   1.845   2.179   9.314
 6581SOL    HW231260   1.968   2.284   9.287
 6582SOL     OW31261   3.302   2.718  10.708
 6582SOL    HW131262   3.245   2.770  10.645
 6582SOL    HW231263   3.398   2.730  10.684
 6583SOL     OW31264   3.045   3.197   9.429
 6583SOL    HW131265   2.946   3.186   9.431
 6583SOL    HW231266   3.079   3.212   9.522
 6584SOL     OW31267   3.355   3.629  10.269
 6584SOL    HW131268   3.388   3.693  10.200
 6584SOL    HW231269   3.421   3.623  10.344
 6585SOL     OW31270   2.578   2.427  11.018
 6585SOL    HW131271   2.597   2.492  11.092
 6585SOL    HW231272   2.638   2.347  11.027
 6586SOL     OW31273   3.312   3.082  10.943
 6586SOL    HW131274   3.303   3.072  11.042
 6586SOL    HW231275   3.408   3.075  10.917
 6587SOL     OW31276   3.087   2.187   9.759
 6587SOL    HW131277   3.152   2.113   9.748
 6587SOL    HW231278   3.107   2.237   9.843
 6588SOL     OW31279   2.456   2.607   9.962
 6588SOL    HW131280   2.506   2.692   9.943
 6588SOL    HW231281   2.368   2.609   9.914
 6589SOL     OW31282   3.639   2.204  10.952
 6589SOL    HW131283   3.622   2.235  10.858
 6589SOL    HW231284   3.555   2.167  10.990
 6590SOL     OW31285   2.721   3.236   9.326
 6590SOL    HW131286   2.675   3.251   9.414
 6590SOL    HW231287   2.765   3.321   9.296
 6591SOL     OW31288   2.523   3.652  10.263
 6591SOL    HW131289   2.477   3.740  10.250
 6591SOL    HW231290   2.622   3.664  10.256
 6592SOL     OW31291   2.721   2.818  10.171
 6592SOL    HW131292   2.775   2.749  10.219
 6592SOL    HW231293   2.689   2.887  10.237
 6593SOL     OW31294   2.945   2.846   9.397
 6593SOL    HW131295   2.922   2.899   9.315
 6593SOL    HW231296   3.026   2.790   9.378
 6594SOL     OW31297   2.534   3.253  10.934
 6594SOL    HW131298   2.456   3.203  10.972
 6594SOL    HW231299   2.531   3.348  10.965
 6595SOL     OW31300   3.686   2.054  10.537
 6595SOL    HW131301   3.682   1.964  10.581
 6595SOL    HW231302   3.689   2.043  10.438
 6596SOL     OW31303   2.290   2.286   9.830
 6596SOL    HW131304   2.320   2.214   9.768
 6596SOL    HW231305   2.251   2.246   9.913
 6597SOL     OW31306   2.674   3.448   9.997
 6597SOL    HW131307   2.706   3.458   9.903
 6597SOL    HW231308   2.595   3.386   9.999
 6598SOL     OW31309   2.632   3.192   9.611
 6598SOL    HW131310   2.586   3.105   9.628
 6598SOL    HW231311   2.723   3.189   9.652
 6599SOL     OW31312   2.480   3.429  10.594
 6599SOL    HW131313   2.475   3.511  10.651
 6599SOL    HW231314   2.569   3.426  10.549
 6600SOL     OW31315   3.214   1.914   9.478
 6600SOL    HW131316   3.249   1.873   9.394
 6600SOL    HW231317   3.124   1.876   9.498
 6601SOL     OW31318   3.162   2.315  10.001
 6601SOL    HW131319   3.103   2.395  10.005
 6601SOL    HW231320   3.177   2.280  10.094
 6602SOL     OW31321   3.455   2.083  10.192
 6602SOL    HW131322   3.371   2.082  10.246
 6602SOL    HW231323   3.457   2.166  10.136
 6603SOL     OW31324   1.901   2.939   9.610
 6603SOL    HW131325   2.000   2.928   9.601
 6603SOL    HW231326   1.861   2.853   9.642
 6604SOL     OW31327   2.737   3.508   9.647
 6604SOL    HW131328   2.660   3.473   9.593
 6604SOL    HW231329   2.705   3.579   9.709
 6605SOL     OW31330   2.997   2.565  11.889
 6605SOL    HW131331   3.054   2.643  11.864
 6605SOL    HW231332   2.937   2.591  11.965
 6606SOL     OW31333   2.548   3.023  12.975
 6606SOL    HW131334   2.608   3.102  12.989
 6606SOL    HW231335   2.462   3.054  12.934
 6607SOL     OW31336   2.300   2.254  12.671
 6607SOL    HW131337   2.382   2.198  12.680
 6607SOL    HW231338   2.219   2.196  12.675
 6608SOL     OW31339   2.093   3.575  11.655
 6608SOL    HW131340   2.127   3.652  11.709
 6608SOL    HW231341   2.137   3.575  11.565
 6609SOL     OW31342   2.092   3.296  11.710
 6609SOL    HW131343   2.066   3.392  11.710
 6609SOL    HW231344   2.021   3.242  11.755
 6610SOL     OW31345   1.984   2.505  11.735
 6610SOL    HW131346   1.939   2.417  11.752
 6610SOL    HW231347   1.983   2.559  11.819
 6611SOL     OW31348   1.889   3.458  11.289
 6611SOL    HW131349   1.870   3.362  11.310
 6611SOL    HW231350   1.856   3.516  11.364
 6612SOL     OW31351   3.551   2.784  11.784
 6612SOL    HW131352   3.646   2.755  11.792
 6612SOL    HW231353   3.543   2.849  11.709
 6613SOL     OW31354   3.503   2.970  11.604
 6613SOL    HW131355   3.589   2.972  11.552
 6613SOL    HW231356   3.517   3.017  11.692
 6614SOL     OW31357   2.475   3.227  11.898
 6614SOL    HW131358   2.426   3.140  11.907
 6614SOL    HW231359   2.452   3.270  11.811
 6615SOL     OW31360   3.155   3.090  12.595
 6615SOL    HW131361   3.192   3.017  12.537
 6615SOL    HW231362   3.207   3.095  12.680
 6616SOL     OW31363   3.387   2.861  11.362
 6616SOL    HW131364   3.324   2.785  11.375
 6616SOL    HW231365   3.435   2.879  11.448
 6617SOL     OW31366   3.049   3.654  12.788
 6617SOL    HW131367   3.073   3.714  12.712
 6617SOL    HW231368   3.056   3.559  12.758
 6618SOL     OW31369   3.328   3.279  12.125
 6618SOL    HW131370   3.269   3.285  12.205
 6618SOL    HW231371   3.313   3.191  12.079
 6619SOL     OW31372   3.438   3.524  11.479
 6619SOL    HW131373   3.527   3.570  11.482
 6619SOL    HW231374   3.417   3.500  11.384
 6620SOL     OW31375   2.669   2.467  12.637
 6620SOL    HW131376   2.622   2.464  12.726
 6620SOL    HW231377   2.618   2.412  12.571
 6621SOL     OW31378   1.938   2.673  11.961
 6621SOL    HW131379   2.037   2.661  11.970
 6621SOL    HW231380   1.914   2.768  11.982
 6622SOL     OW31381   1.992   3.683  12.743
 6622SOL    HW131382   1.982   3.668  12.842
 6622SOL    HW231383   1.906   3.719  12.707
 6623SOL     OW31384   3.224   3.006  11.717
 6623SOL    HW131385   3.307   2.977  11.669
 6623SOL    HW231386   3.175   3.073  11.661
 6624SOL     OW31387   2.213   3.663  12.025
 6624SOL    HW131388   2.263   3.577  12.031
 6624SOL    HW231389   2.278   3.740  12.022
 6625SOL     OW31390   3.657   2.928  12.045
 6625SOL    HW131391   3.595   2.913  11.969
 6625SOL    HW231392   3.605   2.939  12.130
 6626SOL     OW31393   3.320   2.597  11.900
 6626SOL    HW131394   3.315   2.532  11.975
 6626SOL    HW231395   3.400   2.656  11.913
 6627SOL     OW31396   2.323   3.128  12.899
 6627SOL    HW131397   2.273   3.129  12.813
 6627SOL    HW231398   2.260   3.110  12.975
 6628SOL     OW31399   2.064   2.147  12.670
 6628SOL    HW131400   1.984   2.207  12.657
 6628SOL    HW231401   2.054   2.098  12.756
 6629SOL     OW31402   3.494   3.239  11.253
 6629SOL    HW131403   3.462   3.333  11.243
 6629SOL    HW231404   3.418   3.176  11.241
 6630SOL     OW31405   2.326   3.605  11.495
 6630SOL    HW131406   2.359   3.644  11.581
 6630SOL    HW231407   2.402   3.598  11.430
 6631SOL     OW31408   2.643   2.126  12.921
 6631SOL    HW131409   2.710   2.065  12.964
 6631SOL    HW231410   2.570   2.145  12.986
 6632SOL     OW31411   2.750   3.376  12.367
 6632SOL    HW131412   2.727   3.351  12.273
 6632SOL    HW231413   2.811   3.307  12.406
 6633SOL     OW31414   2.784   2.365  12.071
 6633SOL    HW131415   2.759   2.356  11.975
 6633SOL    HW231416   2.832   2.283  12.102
 6634SOL     OW31417   3.296   3.050  11.213
 6634SOL    HW131418   3.328   2.974  11.270
 6634SOL    HW231419   3.204   3.077  11.243
 6635SOL     OW31420   3.089   3.432  11.965
 6635SOL    HW131421   3.110   3.506  11.900
 6635SOL    HW231422   3.157   3.432  12.038
 6636SOL     OW31423   2.321   3.014  11.913
 6636SOL    HW131424   2.250   2.987  11.978
 6636SOL    HW231425   2.295   2.986  11.820
 6637SOL     OW31426   2.894   2.411  11.188
 6637SOL    HW131427   2.853   2.493  11.149
 6637SOL    HW231428   2.958   2.437  11.261
 6638SOL     OW31429   3.291   3.035  12.039
 6638SOL    HW131430   3.236   2.951  12.032
 6638SOL    HW231431   3.317   3.064  11.947
 6639SOL     OW31432   2.350   3.247  11.346
 6639SOL    HW131433   2.263   3.232  11.393
 6639SOL    HW231434   2.333   3.273  11.251
 6640SOL     OW31435   3.500   2.961  12.251
 6640SOL    HW131436   3.505   3.042  12.310
 6640SOL    HW231437   3.414   2.963  12.200
 6641SOL     OW31438   2.777   1.951  12.574
 6641SOL    HW131439   2.802   1.931  12.479
 6641SOL    HW231440   2.849   2.007  12.616
 6642SOL     OW31441   2.842   2.978  12.891
 6642SOL    HW131442   2.743   2.984  12.901
 6642SOL    HW231443   2.865   2.898  12.835
 6643SOL     OW31444   2.272   2.675  12.423
 6643SOL    HW131445   2.358   2.687  12.473
 6643SOL    HW231446   2.230   2.588  12.450
 6644SOL     OW31447   3.136   2.248  12.434
 6644SOL    HW131448   3.157   2.322  12.498
 6644SOL    HW231449   3.047   2.265  12.391
 6645SOL     OW31450   2.229   2.962  11.673
 6645SOL    HW131451   2.222   3.045  11.617
 6645SOL    HW231452   2.233   2.882  11.613
 6646SOL     OW31453   3.444   2.501  11.644
 6646SOL    HW131454   3.413   2.562  11.717
 6646SOL    HW231455   3.494   2.553  11.575
 6647SOL     OW31456   2.875   1.967  12.942
 6647SOL    HW131457   2.881   2.052  12.890
 6647SOL    HW231458   2.907   1.891  12.885
 6648SOL     OW31459   2.366   1.912  12.912
 6648SOL    HW131460   2.324   1.855  12.842
 6648SOL    HW231461   2.300   1.981  12.944
 6649SOL     OW31462   1.899   3.172  12.454
 6649SOL    HW131463   1.952   3.123  12.522
 6649SOL    HW231464   1.921   3.270  12.459
 6650SOL     OW31465   2.169   1.925  11.790
 6650SOL    HW131466   2.158   2.019  11.823
 6650SOL    HW231467   2.164   1.862  11.867
 6651SOL     OW31468   2.885   2.628  12.138
 6651SOL    HW131469   2.900   2.649  12.234
 6651SOL    HW231470   2.855   2.533  12.129
 6652SOL     OW31471   3.721   3.380  12.777
 6652SOL    HW131472   3.735   3.407  12.682
 6652SOL    HW231473   3.804   3.402  12.830
 6653SOL     OW31474   3.402   2.136  11.297
 6653SOL    HW131475   3.341   2.061  11.320
 6653SOL    HW231476   3.424   2.188  11.380
 6654SOL     OW31477   3.022   2.069  12.649
 6654SOL    HW131478   3.022   2.133  12.726
 6654SOL    HW231479   3.050   2.117  12.566
 6655SOL     OW31480   1.950   3.663  12.099
 6655SOL    HW131481   1.908   3.577  12.072
 6655SOL    HW231482   2.044   3.666  12.065
 6656SOL     OW31483   2.366   3.430  12.082
 6656SOL    HW131484   2.432   3.504  12.091
 6656SOL    HW231485   2.410   3.351  12.040
 6657SOL     OW31486   2.864   2.658  12.410
 6657SOL    HW131487   2.905   2.626  12.496
 6657SOL    HW231488   2.768   2.631  12.407
 6658SOL     OW31489   3.231   2.812  12.832
 6658SOL    HW131490   3.270   2.901  12.852
 6658SOL    HW231491   3.241   2.792  12.735
 6659SOL     OW31492   3.519   2.466  12.378
 6659SOL    HW131493   3.481   2.397  12.440
 6659SOL    HW231494   3.601   2.430  12.334
 6660SOL     OW31495   2.792   3.540  12.637
 6660SOL    HW131496   2.768   3.522  12.542
 6660SOL    HW231497   2.822   3.634  12.647
 6661SOL     OW31498   3.114   3.593  12.300
 6661SOL    HW131499   3.198   3.598  12.246
 6661SOL    HW231500   3.091   3.497  12.318
 6662SOL     OW31501   2.550   3.524  12.888
 6662SOL    HW131502   2.494   3.605  12.897
 6662SOL    HW231503   2.602   3.528  12.802
 6663SOL     OW31504   1.992   3.656  13.023
 6663SOL    HW131505   1.951   3.582  13.076
 6663SOL    HW231506   2.056   3.707  13.081
 6664SOL     OW31507   3.142   2.789  11.844
 6664SOL    HW131508   3.202   2.708  11.846
 6664SOL    HW231509   3.182   2.858  11.784
 6665SOL     OW31510   2.534   3.478  11.326
 6665SOL    HW131511   2.543   3.488  11.227
 6665SOL    HW231512   2.494   3.389  11.347
 6666SOL     OW31513   3.512   3.582  12.566
 6666SOL    HW131514   3.565   3.592  12.482
 6666SOL    HW231515   3.485   3.672  12.600
 6667SOL     OW31516   3.056   3.474  11.203
 6667SOL    HW131517   3.062   3.381  11.240
 6667SOL    HW231518   2.997   3.474  11.123
 6668SOL     OW31519   3.366   3.469  11.216
 6668SOL    HW131520   3.274   3.506  11.223
 6668SOL    HW231521   3.404   3.489  11.126
 6669SOL     OW31522   2.234   3.150  12.662
 6669SOL    HW131523   2.221   3.243  12.628
 6669SOL    HW231524   2.150   3.098  12.649
 6670SOL     OW31525   2.452   3.349  11.663
 6670SOL    HW131526   2.494   3.291  11.593
 6670SOL    HW231527   2.408   3.428  11.619
 6671SOL     OW31528   2.534   2.065  12.661
 6671SOL    HW131529   2.624   2.049  12.621
 6671SOL    HW231530   2.542   2.070  12.760
 6672SOL     OW31531   1.937   2.207  11.205
 6672SOL    HW131532   1.845   2.179  11.176
 6672SOL    HW231533   1.968   2.284  11.149
 6673SOL     OW31534   3.045   3.197  11.291
 6673SOL    HW131535   2.946   3.186  11.293
 6673SOL    HW231536   3.079   3.212  11.384
 6674SOL     OW31537   2.475   2.704  12.603
 6674SOL    HW131538   2.531   2.785  12.586
 6674SOL    HW231539   2.534   2.624  12.606
 6675SOL     OW31540   3.312   3.082  12.805
 6675SOL    HW131541   3.303   3.072  12.904
 6675SOL    HW231542   3.408   3.075  12.779
 6676SOL     OW31543   2.721   3.236  11.188
 6676SOL    HW131544   2.675   3.251  11.276
 6676SOL    HW231545   2.765   3.321  11.158
 6677SOL     OW31546   1.941   3.102  11.825
 6677SOL    HW131547   1.940   3.055  11.913
 6677SOL    HW231548   2.023   3.074  11.774
 6678SOL     OW31549   2.534   3.253  12.796
 6678SOL    HW131550   2.456   3.203  12.834
 6678SOL    HW231551   2.531   3.348  12.827
 6679SOL     OW31552   2.179   2.409  12.452
 6679SOL    HW131553   2.217   2.350  12.524
 6679SOL    HW231554   2.219   2.383  12.364
 6680SOL     OW31555   2.674   3.448  11.859
 6680SOL    HW131556   2.706   3.458  11.765
 6680SOL    HW231557   2.595   3.386  11.861
 6681SOL     OW31558   2.997   2.565  13.751
 6681SOL    HW131559   3.054   2.643  13.726
 6681SOL    HW231560   2.937   2.591  13.827
 6682SOL     OW31561   3.617   2.469  13.265
 6682SOL    HW131562   3.605   2.456  13.166
 6682SOL    HW231563   3.587   2.388  13.314
 6683SOL     OW31564   2.712   2.660  14.857
 6683SOL    HW131565   2.708   2.736  14.922
 6683SOL    HW231566   2.734   2.696  14.766
 6684SOL     OW31567   3.465   2.309  13.771
 6684SOL    HW131568   3.391   2.355  13.721
 6684SOL    HW231569   3.516   2.377  13.824
 6685SOL     OW31570   2.102   2.953  13.920
 6685SOL    HW131571   2.116   2.869  13.972
 6685SOL    HW231572   2.047   3.017  13.975
 6686SOL     OW31573   1.889   3.458  13.151
 6686SOL    HW131574   1.870   3.362  13.172
 6686SOL    HW231575   1.856   3.516  13.226
 6687SOL     OW31576   3.551   2.784  13.646
 6687SOL    HW131577   3.646   2.755  13.654
 6687SOL    HW231578   3.543   2.849  13.571
 6688SOL     OW31579   3.503   2.970  13.466
 6688SOL    HW131580   3.589   2.972  13.414
 6688SOL    HW231581   3.517   3.017  13.554
 6689SOL     OW31582   3.155   3.090  14.457
 6689SOL    HW131583   3.192   3.017  14.399
 6689SOL    HW231584   3.207   3.095  14.542
 6690SOL     OW31585   3.049   3.654  14.650
 6690SOL    HW131586   3.073   3.714  14.574
 6690SOL    HW231587   3.056   3.559  14.620
 6691SOL     OW31588   3.328   3.279  13.987
 6691SOL    HW131589   3.269   3.285  14.067
 6691SOL    HW231590   3.313   3.191  13.941
 6692SOL     OW31591   2.903   2.563  13.463
 6692SOL    HW131592   2.929   2.559  13.559
 6692SOL    HW231593   2.818   2.512  13.449
 6693SOL     OW31594   1.938   2.673  13.823
 6693SOL    HW131595   2.037   2.661  13.832
 6693SOL    HW231596   1.914   2.768  13.844
 6694SOL     OW31597   1.992   3.683  14.605
 6694SOL    HW131598   1.982   3.668  14.704
 6694SOL    HW231599   1.906   3.719  14.569
 6695SOL     OW31600   3.224   3.006  13.579
 6695SOL    HW131601   3.307   2.977  13.531
 6695SOL    HW231602   3.175   3.073  13.523
 6696SOL     OW31603   3.657   2.928  13.907
 6696SOL    HW131604   3.595   2.913  13.831
 6696SOL    HW231605   3.605   2.939  13.992
 6697SOL     OW31606   3.320   2.597  13.762
 6697SOL    HW131607   3.315   2.532  13.837
 6697SOL    HW231608   3.400   2.656  13.775
 6698SOL     OW31609   3.262   1.969  13.460
 6698SOL    HW131610   3.238   1.932  13.370
 6698SOL    HW231611   3.361   1.985  13.464
 6699SOL     OW31612   3.409   2.084  14.763
 6699SOL    HW131613   3.404   2.121  14.855
 6699SOL    HW231614   3.337   2.015  14.751
 6700SOL     OW31615   2.665   3.264  13.958
 6700SOL    HW131616   2.755   3.278  13.916
 6700SOL    HW231617   2.594   3.266  13.887
 6701SOL     OW31618   2.784   2.365  13.933
 6701SOL    HW131619   2.759   2.356  13.837
 6701SOL    HW231620   2.832   2.283  13.964
 6702SOL     OW31621   2.159   1.897  13.205
 6702SOL    HW131622   2.208   1.981  13.184
 6702SOL    HW231623   2.221   1.832  13.250
 6703SOL     OW31624   2.938   2.545  14.498
 6703SOL    HW131625   2.858   2.484  14.501
 6703SOL    HW231626   3.019   2.492  14.474
 6704SOL     OW31627   2.728   2.316  13.676
 6704SOL    HW131628   2.696   2.388  13.614
 6704SOL    HW231629   2.752   2.235  13.623
 6705SOL     OW31630   3.291   3.035  13.901
 6705SOL    HW131631   3.236   2.951  13.894
 6705SOL    HW231632   3.317   3.064  13.809
 6706SOL     OW31633   3.328   2.452  14.026
 6706SOL    HW131634   3.298   2.357  14.033
 6706SOL    HW231635   3.401   2.468  14.092
 6707SOL     OW31636   3.526   3.142  13.691
 6707SOL    HW131637   3.625   3.150  13.705
 6707SOL    HW231638   3.481   3.226  13.722
 6708SOL     OW31639   3.252   2.437  13.112
 6708SOL    HW131640   3.198   2.416  13.193
 6708SOL    HW231641   3.343   2.396  13.121
 6709SOL     OW31642   2.926   3.209  14.374
 6709SOL    HW131643   2.846   3.186  14.429
 6709SOL    HW231644   3.009   3.183  14.423
 6710SOL     OW31645   3.500   2.961  14.113
 6710SOL    HW131646   3.505   3.042  14.172
 6710SOL    HW231647   3.414   2.963  14.062
 6711SOL     OW31648   3.114   3.210  13.422
 6711SOL    HW131649   3.164   3.287  13.462
 6711SOL    HW231650   3.019   3.212  13.454
 6712SOL     OW31651   3.444   2.501  13.506
 6712SOL    HW131652   3.413   2.562  13.579
 6712SOL    HW231653   3.494   2.553  13.437
 6713SOL     OW31654   3.071   2.387  13.309
 6713SOL    HW131655   3.084   2.303  13.363
 6713SOL    HW231656   3.042   2.461  13.369
 6714SOL     OW31657   2.169   2.075  14.265
 6714SOL    HW131658   2.146   2.112  14.355
 6714SOL    HW231659   2.139   1.980  14.259
 6715SOL     OW31660   1.899   3.172  14.316
 6715SOL    HW131661   1.952   3.123  14.384
 6715SOL    HW231662   1.921   3.270  14.321
 6716SOL     OW31663   3.484   2.229  13.408
 6716SOL    HW131664   3.486   2.153  13.472
 6716SOL    HW231665   3.436   2.306  13.448
 6717SOL     OW31666   2.885   2.628  14.000
 6717SOL    HW131667   2.900   2.649  14.096
 6717SOL    HW231668   2.855   2.533  13.991
 6718SOL     OW31669   2.842   3.435  14.734
 6718SOL    HW131670   2.822   3.479  14.646
 6718SOL    HW231671   2.881   3.344  14.718
 6719SOL     OW31672   3.721   3.380  14.639
 6719SOL    HW131673   3.735   3.407  14.544
 6719SOL    HW231674   3.804   3.402  14.692
 6720SOL     OW31675   3.402   2.136  13.159
 6720SOL    HW131676   3.341   2.061  13.182
 6720SOL    HW231677   3.424   2.188  13.242
 6721SOL     OW31678   3.000   2.242  14.712
 6721SOL    HW131679   2.955   2.305  14.776
 6721SOL    HW231680   3.093   2.273  14.695
 6722SOL     OW31681   3.022   2.069  14.511
 6722SOL    HW131682   3.022   2.133  14.588
 6722SOL    HW231683   3.050   2.117  14.428
 6723SOL     OW31684   1.870   3.188  13.234
 6723SOL    HW131685   1.777   3.209  13.203
 6723SOL    HW231686   1.880   3.089  13.247
 6724SOL     OW31687   2.864   2.658  14.272
 6724SOL    HW131688   2.905   2.626  14.358
 6724SOL    HW231689   2.768   2.631  14.269
 6725SOL     OW31690   2.677   2.434  13.359
 6725SOL    HW131691   2.684   2.345  13.313
 6725SOL    HW231692   2.583   2.468  13.351
 6726SOL     OW31693   2.792   3.540  14.499
 6726SOL    HW131694   2.768   3.522  14.404
 6726SOL    HW231695   2.822   3.634  14.509
 6727SOL     OW31696   3.621   3.609  14.188
 6727SOL    HW131697   3.682   3.639  14.115
 6727SOL    HW231698   3.583   3.520  14.166
 6728SOL     OW31699   1.945   3.120  14.056
 6728SOL    HW131700   1.940   3.119  14.156
 6728SOL    HW231701   1.862   3.079  14.018
 6729SOL     OW31702   3.250   3.435  13.511
 6729SOL    HW131703   3.317   3.447  13.437
 6729SOL    HW231704   3.210   3.524  13.534
 6730SOL     OW31705   1.992   3.656  14.885
 6730SOL    HW131706   1.951   3.582  14.938
 6730SOL    HW231707   2.056   3.707  14.943
 6731SOL     OW31708   3.142   2.789  13.706
 6731SOL    HW131709   3.202   2.708  13.708
 6731SOL    HW231710   3.182   2.858  13.646
 6732SOL     OW31711   2.684   2.864  14.406
 6732SOL    HW131712   2.724   2.863  14.314
 6732SOL    HW231713   2.694   2.956  14.446
 6733SOL     OW31714   2.234   3.150  14.524
 6733SOL    HW131715   2.221   3.243  14.490
 6733SOL    HW231716   2.150   3.098  14.511
 6734SOL     OW31717   3.476   3.154  14.323
 6734SOL    HW131718   3.536   3.157  14.403
 6734SOL    HW231719   3.401   3.218  14.336
 6735SOL     OW31720   2.876   2.098  14.005
 6735SOL    HW131721   2.868   2.062  13.912
 6735SOL    HW231722   2.874   2.022  14.070
 6736SOL     OW31723   1.967   2.875  14.760
 6736SOL    HW131724   1.890   2.842  14.814
 6736SOL    HW231725   2.052   2.845  14.802
 6737SOL     OW31726   3.045   3.197  13.153
 6737SOL    HW131727   2.946   3.186  13.155
 6737SOL    HW231728   3.079   3.212  13.246
 6738SOL     OW31729   3.355   3.629  13.993
 6738SOL    HW131730   3.388   3.693  13.924
 6738SOL    HW231731   3.421   3.623  14.068
 6739SOL     OW31732   2.252   3.603  14.594
 6739SOL    HW131733   2.161   3.644  14.592
 6739SOL    HW231734   2.245   3.509  14.626
 6740SOL     OW31735   3.087   2.187  13.483
 6740SOL    HW131736   3.152   2.113  13.472
 6740SOL    HW231737   3.107   2.237  13.567
 6741SOL     OW31738   2.456   2.607  13.686
 6741SOL    HW131739   2.506   2.692  13.667
 6741SOL    HW231740   2.368   2.609  13.638
 6742SOL     OW31741   3.723   3.431  13.885
 6742SOL    HW131742   3.652   3.419  13.815
 6742SOL    HW231743   3.724   3.352  13.945
 6743SOL     OW31744   3.567   3.349  14.138
 6743SOL    HW131745   3.474   3.324  14.111
 6743SOL    HW231746   3.593   3.299  14.220
 6744SOL     OW31747   2.179   2.409  14.314
 6744SOL    HW131748   2.217   2.350  14.386
 6744SOL    HW231749   2.219   2.383  14.226
 6745SOL     OW31750   2.674   3.448  13.721
 6745SOL    HW131751   2.706   3.458  13.627
 6745SOL    HW231752   2.595   3.386  13.723
 6746SOL     OW31753   2.632   3.192  13.335
 6746SOL    HW131754   2.586   3.105  13.352
 6746SOL    HW231755   2.723   3.189  13.376
 6747SOL     OW31756   3.214   1.914  13.202
 6747SOL    HW131757   3.249   1.873  13.118
 6747SOL    HW231758   3.124   1.876  13.222
 6748SOL     OW31759   3.162   2.315  13.725
 6748SOL    HW131760   3.103   2.395  13.729
 6748SOL    HW231761   3.177   2.280  13.818
 6749SOL     OW31762   2.737   3.508  13.371
 6749SOL    HW131763   2.660   3.473  13.317
 6749SOL    HW231764   2.705   3.579  13.433
 6750SOL     OW31765   2.092   2.490  15.009
 6750SOL    HW131766   1.999   2.488  15.046
 6750SOL    HW231767   2.093   2.451  14.917
 6751SOL     OW31768   3.417   3.373  15.599
 6751SOL    HW131769   3.360   3.357  15.680
 6751SOL    HW231770   3.358   3.383  15.519
 6752SOL     OW31771   2.712   2.660  16.720
 6752SOL    HW131772   2.708   2.736  16.785
 6752SOL    HW231773   2.734   2.696  16.629
 6753SOL     OW31774   3.465   2.309  15.633
 6753SOL    HW131775   3.391   2.355  15.583
 6753SOL    HW231776   3.516   2.377  15.686
 6754SOL     OW31777   1.984   2.505  15.459
 6754SOL    HW131778   1.939   2.417  15.476
 6754SOL    HW231779   1.983   2.559  15.543
 6755SOL     OW31780   3.704   3.629  15.255
 6755SOL    HW131781   3.758   3.600  15.335
 6755SOL    HW231782   3.734   3.719  15.226
 6756SOL     OW31783   3.551   2.784  15.508
 6756SOL    HW131784   3.646   2.755  15.516
 6756SOL    HW231785   3.543   2.849  15.433
 6757SOL     OW31786   3.503   2.970  15.328
 6757SOL    HW131787   3.589   2.972  15.276
 6757SOL    HW231788   3.517   3.017  15.416
 6758SOL     OW31789   2.059   2.838  16.161
 6758SOL    HW131790   2.148   2.793  16.147
 6758SOL    HW231791   1.986   2.773  16.142
 6759SOL     OW31792   3.387   2.861  15.086
 6759SOL    HW131793   3.324   2.785  15.099
 6759SOL    HW231794   3.435   2.879  15.172
 6760SOL     OW31795   3.049   3.654  16.513
 6760SOL    HW131796   3.073   3.714  16.437
 6760SOL    HW231797   3.056   3.559  16.483
 6761SOL     OW31798   3.529   3.576  15.468
 6761SOL    HW131799   3.488   3.553  15.380
 6761SOL    HW231800   3.511   3.502  15.533
 6762SOL     OW31801   3.438   3.524  15.203
 6762SOL    HW131802   3.527   3.570  15.206
 6762SOL    HW231803   3.417   3.500  15.108
 6763SOL     OW31804   2.669   2.467  16.362
 6763SOL    HW131805   2.622   2.464  16.451
 6763SOL    HW231806   2.618   2.412  16.296
 6764SOL     OW31807   2.835   2.752  16.469
 6764SOL    HW131808   2.881   2.668  16.440
 6764SOL    HW231809   2.779   2.786  16.394
 6765SOL     OW31810   2.853   2.272  16.139
 6765SOL    HW131811   2.776   2.306  16.193
 6765SOL    HW231812   2.819   2.221  16.060
 6766SOL     OW31813   2.903   2.563  15.325
 6766SOL    HW131814   2.929   2.559  15.421
 6766SOL    HW231815   2.818   2.512  15.311
 6767SOL     OW31816   1.938   2.673  15.685
 6767SOL    HW131817   2.037   2.661  15.694
 6767SOL    HW231818   1.914   2.768  15.706
 6768SOL     OW31819   3.581   2.447  16.728
 6768SOL    HW131820   3.555   2.536  16.692
 6768SOL    HW231821   3.579   2.379  16.655
 6769SOL     OW31822   3.224   3.006  15.441
 6769SOL    HW131823   3.307   2.977  15.393
 6769SOL    HW231824   3.175   3.073  15.385
 6770SOL     OW31825   2.412   2.058  15.781
 6770SOL    HW131826   2.407   2.053  15.881
 6770SOL    HW231827   2.414   2.154  15.752
 6771SOL     OW31828   2.870   3.318  15.373
 6771SOL    HW131829   2.824   3.390  15.321
 6771SOL    HW231830   2.866   3.338  15.471
 6772SOL     OW31831   3.657   2.928  15.769
 6772SOL    HW131832   3.595   2.913  15.693
 6772SOL    HW231833   3.605   2.939  15.854
 6773SOL     OW31834   3.320   2.597  15.624
 6773SOL    HW131835   3.315   2.532  15.699
 6773SOL    HW231836   3.400   2.656  15.637
 6774SOL     OW31837   3.262   1.969  15.322
 6774SOL    HW131838   3.238   1.932  15.232
 6774SOL    HW231839   3.361   1.985  15.326
 6775SOL     OW31840   2.802   3.560  15.800
 6775SOL    HW131841   2.882   3.503  15.821
 6775SOL    HW231842   2.753   3.520  15.723
 6776SOL     OW31843   2.665   3.264  15.820
 6776SOL    HW131844   2.755   3.278  15.778
 6776SOL    HW231845   2.594   3.266  15.749
 6777SOL     OW31846   2.784   2.365  15.795
 6777SOL    HW131847   2.759   2.356  15.699
 6777SOL    HW231848   2.832   2.283  15.826
 6778SOL     OW31849   2.401   1.926  15.408
 6778SOL    HW131850   2.320   1.927  15.466
 6778SOL    HW231851   2.404   2.009  15.353
 6779SOL     OW31852   3.296   3.050  14.937
 6779SOL    HW131853   3.328   2.974  14.994
 6779SOL    HW231854   3.204   3.077  14.967
 6780SOL     OW31855   2.938   2.545  16.361
 6780SOL    HW131856   2.858   2.484  16.364
 6780SOL    HW231857   3.019   2.492  16.337
 6781SOL     OW31858   2.894   2.411  14.912
 6781SOL    HW131859   2.853   2.493  14.873
 6781SOL    HW231860   2.958   2.437  14.985
 6782SOL     OW31861   2.423   2.084  16.044
 6782SOL    HW131862   2.461   2.000  16.081
 6782SOL    HW231863   2.335   2.103  16.088
 6783SOL     OW31864   3.291   3.035  15.763
 6783SOL    HW131865   3.236   2.951  15.756
 6783SOL    HW231866   3.317   3.064  15.671
 6784SOL     OW31867   3.719   2.695  15.273
 6784SOL    HW131868   3.761   2.631  15.337
 6784SOL    HW231869   3.681   2.644  15.195
 6785SOL     OW31870   3.526   3.142  15.553
 6785SOL    HW131871   3.625   3.150  15.567
 6785SOL    HW231872   3.481   3.226  15.584
 6786SOL     OW31873   3.252   2.437  14.974
 6786SOL    HW131874   3.198   2.416  15.055
 6786SOL    HW231875   3.343   2.396  14.983
 6787SOL     OW31876   3.500   2.961  15.976
 6787SOL    HW131877   3.505   3.042  16.035
 6787SOL    HW231878   3.414   2.963  15.925
 6788SOL     OW31879   2.842   2.978  16.616
 6788SOL    HW131880   2.743   2.984  16.626
 6788SOL    HW231881   2.865   2.898  16.560
 6789SOL     OW31882   3.136   2.248  16.159
 6789SOL    HW131883   3.157   2.322  16.223
 6789SOL    HW231884   3.047   2.265  16.116
 6790SOL     OW31885   1.926   3.426  16.228
 6790SOL    HW131886   1.880   3.508  16.194
 6790SOL    HW231887   2.024   3.445  16.237
 6791SOL     OW31888   2.428   2.399  15.761
 6791SOL    HW131889   2.440   2.465  15.687
 6791SOL    HW231890   2.474   2.433  15.844
 6792SOL     OW31891   3.114   3.210  15.284
 6792SOL    HW131892   3.164   3.287  15.324
 6792SOL    HW231893   3.019   3.212  15.316
 6793SOL     OW31894   2.216   3.372  16.226
 6793SOL    HW131895   2.195   3.328  16.139
 6793SOL    HW231896   2.313   3.398  16.229
 6794SOL     OW31897   3.449   2.641  16.567
 6794SOL    HW131898   3.357   2.679  16.562
 6794SOL    HW231899   3.509   2.688  16.502
 6795SOL     OW31900   2.594   2.496  15.961
 6795SOL    HW131901   2.653   2.470  15.885
 6795SOL    HW231902   2.566   2.592  15.950
 6796SOL     OW31903   3.590   2.797  16.751
 6796SOL    HW131904   3.544   2.790  16.662
 6796SOL    HW231905   3.528   2.841  16.817
 6797SOL     OW31906   2.885   2.628  15.863
 6797SOL    HW131907   2.900   2.649  15.959
 6797SOL    HW231908   2.855   2.533  15.854
 6798SOL     OW31909   3.165   2.700  14.938
 6798SOL    HW131910   3.199   2.607  14.953
 6798SOL    HW231911   3.183   2.727  14.843
 6799SOL     OW31912   3.000   2.242  16.575
 6799SOL    HW131913   2.955   2.305  16.639
 6799SOL    HW231914   3.093   2.273  16.558
 6800SOL     OW31915   3.022   2.069  16.374
 6800SOL    HW131916   3.022   2.133  16.451
 6800SOL    HW231917   3.050   2.117  16.291
 6801SOL     OW31918   1.870   3.188  15.096
 6801SOL    HW131919   1.777   3.209  15.065
 6801SOL    HW231920   1.880   3.089  15.109
 6802SOL     OW31921   2.864   2.658  16.135
 6802SOL    HW131922   2.905   2.626  16.221
 6802SOL    HW231923   2.768   2.631  16.132
 6803SOL     OW31924   3.231   2.812  16.557
 6803SOL    HW131925   3.270   2.901  16.577
 6803SOL    HW231926   3.241   2.792  16.460
 6804SOL     OW31927   2.533   2.326  16.166
 6804SOL    HW131928   2.499   2.237  16.136
 6804SOL    HW231929   2.559   2.380  16.086
 6805SOL     OW31930   3.164   2.717  15.205
 6805SOL    HW131931   3.078   2.686  15.247
 6805SOL    HW231932   3.160   2.703  15.106
 6806SOL     OW31933   3.114   3.593  16.025
 6806SOL    HW131934   3.198   3.598  15.971
 6806SOL    HW231935   3.091   3.497  16.043
 6807SOL     OW31936   3.142   2.789  15.568
 6807SOL    HW131937   3.202   2.708  15.570
 6807SOL    HW231938   3.182   2.858  15.508
 6808SOL     OW31939   3.703   2.037  15.860
 6808SOL    HW131940   3.742   1.952  15.824
 6808SOL    HW231941   3.605   2.039  15.841
 6809SOL     OW31942   3.056   3.474  14.927
 6809SOL    HW131943   3.062   3.381  14.964
 6809SOL    HW231944   2.997   3.474  14.847
 6810SOL     OW31945   2.778   2.772  15.187
 6810SOL    HW131946   2.841   2.810  15.119
 6810SOL    HW231947   2.818   2.689  15.226
 6811SOL     OW31948   3.366   3.469  14.940
 6811SOL    HW131949   3.274   3.506  14.947
 6811SOL    HW231950   3.404   3.489  14.850
 6812SOL     OW31951   2.234   3.150  16.387
 6812SOL    HW131952   2.221   3.243  16.353
 6812SOL    HW231953   2.150   3.098  16.374
 6813SOL     OW31954   3.476   3.154  16.186
 6813SOL    HW131955   3.536   3.157  16.266
 6813SOL    HW231956   3.401   3.218  16.199
 6814SOL     OW31957   2.876   2.098  15.868
 6814SOL    HW131958   2.868   2.062  15.775
 6814SOL    HW231959   2.874   2.022  15.933
 6815SOL     OW31960   3.045   3.197  15.015
 6815SOL    HW131961   2.946   3.186  15.017
 6815SOL    HW231962   3.079   3.212  15.108
 6816SOL     OW31963   2.578   2.427  16.605
 6816SOL    HW131964   2.597   2.492  16.679
 6816SOL    HW231965   2.638   2.347  16.614
 6817SOL     OW31966   2.252   3.603  16.457
 6817SOL    HW131967   2.161   3.644  16.455
 6817SOL    HW231968   2.245   3.509  16.489
 6818SOL     OW31969   2.721   3.236  14.912
 6818SOL    HW131970   2.675   3.251  15.000
 6818SOL    HW231971   2.765   3.321  14.882
 6819SOL     OW31972   2.523   3.652  15.850
 6819SOL    HW131973   2.477   3.740  15.837
 6819SOL    HW231974   2.622   3.664  15.843
 6820SOL     OW31975   2.945   2.846  14.983
 6820SOL    HW131976   2.922   2.899  14.901
 6820SOL    HW231977   3.026   2.790  14.964
 6821SOL     OW31978   3.723   3.431  15.747
 6821SOL    HW131979   3.652   3.419  15.677
 6821SOL    HW231980   3.724   3.352  15.807
 6822SOL     OW31981   3.686   2.054  16.124
 6822SOL    HW131982   3.682   1.964  16.168
 6822SOL    HW231983   3.689   2.043  16.025
 6823SOL     OW31984   2.674   3.448  15.583
 6823SOL    HW131985   2.706   3.458  15.489
 6823SOL    HW231986   2.595   3.386  15.585
 6824SOL     OW31987   2.632   3.192  15.197
 6824SOL    HW131988   2.586   3.105  15.214
 6824SOL    HW231989   2.723   3.189  15.238
 6825SOL     OW31990   3.214   1.914  15.064
 6825SOL    HW131991   3.249   1.873  14.980
 6825SOL    HW231992   3.124   1.876  15.084
 6826SOL     OW31993   3.162   2.315  15.587
 6826SOL    HW131994   3.103   2.395  15.591
 6826SOL    HW231995   3.177   2.280  15.680
 6827SOL     OW31996   2.431   3.137  17.924
 6827SOL    HW131997   2.338   3.130  17.887
 6827SOL    HW231998   2.442   3.226  17.968
 6828SOL     OW31999   3.617   2.469  16.990
 6828SOL    HW132000   3.605   2.456  16.891
 6828SOL    HW232001   3.587   2.388  17.039
 6829SOL     OW32002   2.630   3.006  17.782
 6829SOL    HW132003   2.552   3.023  17.842
 6829SOL    HW232004   2.664   3.093  17.746
 6830SOL     OW32005   2.547   2.874  17.424
 6830SOL    HW132006   2.616   2.858  17.494
 6830SOL    HW232007   2.474   2.931  17.462
 6831SOL     OW32008   2.102   2.953  17.645
 6831SOL    HW132009   2.116   2.869  17.697
 6831SOL    HW232010   2.047   3.017  17.700
 6832SOL     OW32011   2.475   3.227  17.485
 6832SOL    HW132012   2.426   3.140  17.494
 6832SOL    HW232013   2.452   3.270  17.398
 6833SOL     OW32014   2.671   1.866  17.261
 6833SOL    HW132015   2.711   1.957  17.252
 6833SOL    HW232016   2.571   1.874  17.267
 6834SOL     OW32017   2.059   2.838  18.023
 6834SOL    HW132018   2.148   2.793  18.009
 6834SOL    HW232019   1.986   2.773  18.004
 6835SOL     OW32020   3.387   2.861  16.949
 6835SOL    HW132021   3.324   2.785  16.962
 6835SOL    HW232022   3.435   2.879  17.035
 6836SOL     OW32023   2.727   2.210  16.954
 6836SOL    HW132024   2.786   2.273  16.905
 6836SOL    HW232025   2.746   2.116  16.925
 6837SOL     OW32026   2.412   2.058  17.644
 6837SOL    HW132027   2.407   2.053  17.744
 6837SOL    HW232028   2.414   2.154  17.615
 6838SOL     OW32029   2.973   3.638  16.996
 6838SOL    HW132030   2.913   3.576  17.046
 6838SOL    HW232031   3.004   3.594  16.911
 6839SOL     OW32032   2.326   3.605  17.082
 6839SOL    HW132033   2.359   3.644  17.168
 6839SOL    HW232034   2.402   3.598  17.017
 6840SOL     OW32035   3.262   1.969  17.185
 6840SOL    HW132036   3.238   1.932  17.095
 6840SOL    HW232037   3.361   1.985  17.189
 6841SOL     OW32038   2.111   3.647  18.000
 6841SOL    HW132039   2.168   3.582  18.050
 6841SOL    HW232040   2.095   3.614  17.907
 6842SOL     OW32041   2.802   3.560  17.663
 6842SOL    HW132042   2.882   3.503  17.684
 6842SOL    HW232043   2.753   3.520  17.586
 6843SOL     OW32044   2.476   1.984  16.876
 6843SOL    HW132045   2.574   1.962  16.883
 6843SOL    HW232046   2.445   1.967  16.783
 6844SOL     OW32047   2.665   3.264  17.683
 6844SOL    HW132048   2.755   3.278  17.641
 6844SOL    HW232049   2.594   3.266  17.612
 6845SOL     OW32050   2.401   1.926  17.271
 6845SOL    HW132051   2.320   1.927  17.329
 6845SOL    HW232052   2.404   2.009  17.216
 6846SOL     OW32053   3.296   3.050  16.800
 6846SOL    HW132054   3.328   2.974  16.857
 6846SOL    HW232055   3.204   3.077  16.830
 6847SOL     OW32056   3.089   3.432  17.552
 6847SOL    HW132057   3.110   3.506  17.487
 6847SOL    HW232058   3.157   3.432  17.625
 6848SOL     OW32059   2.321   3.014  17.500
 6848SOL    HW132060   2.250   2.987  17.565
 6848SOL    HW232061   2.295   2.986  17.407
 6849SOL     OW32062   3.133   3.659  17.350
 6849SOL    HW132063   3.177   3.723  17.286
 6849SOL    HW232064   3.083   3.711  17.420
 6850SOL     OW32065   2.894   2.411  16.775
 6850SOL    HW132066   2.853   2.493  16.736
 6850SOL    HW232067   2.958   2.437  16.848
 6851SOL     OW32068   3.291   3.035  17.626
 6851SOL    HW132069   3.236   2.951  17.619
 6851SOL    HW232070   3.317   3.064  17.534
 6852SOL     OW32071   3.719   2.695  17.136
 6852SOL    HW132072   3.761   2.631  17.200
 6852SOL    HW232073   3.681   2.644  17.058
 6853SOL     OW32074   2.350   3.247  16.933
 6853SOL    HW132075   2.263   3.232  16.980
 6853SOL    HW232076   2.333   3.273  16.838
 6854SOL     OW32077   2.973   3.057  17.859
 6854SOL    HW132078   2.933   3.101  17.940
 6854SOL    HW232079   2.932   3.094  17.776
 6855SOL     OW32080   3.500   2.961  17.838
 6855SOL    HW132081   3.505   3.042  17.897
 6855SOL    HW232082   3.414   2.963  17.787
 6856SOL     OW32083   2.567   2.912  17.127
 6856SOL    HW132084   2.553   2.919  17.226
 6856SOL    HW232085   2.651   2.861  17.109
 6857SOL     OW32086   2.272   2.675  18.010
 6857SOL    HW132087   2.358   2.687  18.060
 6857SOL    HW232088   2.230   2.588  18.037
 6858SOL     OW32089   2.229   2.962  17.260
 6858SOL    HW132090   2.222   3.045  17.204
 6858SOL    HW232091   2.233   2.882  17.200
 6859SOL     OW32092   2.428   2.399  17.624
 6859SOL    HW132093   2.440   2.465  17.550
 6859SOL    HW232094   2.474   2.433  17.707
 6860SOL     OW32095   3.134   3.307  17.901
 6860SOL    HW132096   3.181   3.320  17.988
 6860SOL    HW232097   3.068   3.233  17.910
 6861SOL     OW32098   2.435   2.732  17.788
 6861SOL    HW132099   2.479   2.821  17.779
 6861SOL    HW232100   2.372   2.732  17.865
 6862SOL     OW32101   2.594   2.496  17.823
 6862SOL    HW132102   2.653   2.470  17.747
 6862SOL    HW232103   2.566   2.592  17.812
 6863SOL     OW32104   3.484   2.229  17.133
 6863SOL    HW132105   3.486   2.153  17.197
 6863SOL    HW232106   3.436   2.306  17.173
 6864SOL     OW32107   2.885   2.628  17.725
 6864SOL    HW132108   2.900   2.649  17.821
 6864SOL    HW232109   2.855   2.533  17.716
 6865SOL     OW32110   3.402   2.136  16.884
 6865SOL    HW132111   3.341   2.061  16.907
 6865SOL    HW232112   3.424   2.188  16.967
 6866SOL     OW32113   2.930   3.195  17.608
 6866SOL    HW132114   2.937   3.111  17.553
 6866SOL    HW232115   2.992   3.264  17.572
 6867SOL     OW32116   2.181   2.672  17.708
 6867SOL    HW132117   2.274   2.708  17.713
 6867SOL    HW232118   2.175   2.587  17.760
 6868SOL     OW32119   2.201   2.371  17.765
 6868SOL    HW132120   2.149   2.288  17.748
 6868SOL    HW232121   2.278   2.376  17.701
 6869SOL     OW32122   1.950   3.663  17.686
 6869SOL    HW132123   1.908   3.577  17.659
 6869SOL    HW232124   2.044   3.666  17.652
 6870SOL     OW32125   2.864   2.658  17.997
 6870SOL    HW132126   2.905   2.626  18.083
 6870SOL    HW232127   2.768   2.631  17.994
 6871SOL     OW32128   1.902   2.406  17.873
 6871SOL    HW132129   1.987   2.373  17.832
 6871SOL    HW232130   1.915   2.421  17.971
 6872SOL     OW32131   2.677   2.434  17.084
 6872SOL    HW132132   2.684   2.345  17.038
 6872SOL    HW232133   2.583   2.468  17.076
 6873SOL     OW32134   3.250   3.435  17.236
 6873SOL    HW132135   3.317   3.447  17.162
 6873SOL    HW232136   3.210   3.524  17.259
 6874SOL     OW32137   2.534   3.478  16.913
 6874SOL    HW132138   2.543   3.488  16.814
 6874SOL    HW232139   2.494   3.389  16.934
 6875SOL     OW32140   2.684   2.864  18.131
 6875SOL    HW132141   2.724   2.863  18.039
 6875SOL    HW232142   2.694   2.956  18.171
 6876SOL     OW32143   2.778   2.772  17.050
 6876SOL    HW132144   2.841   2.810  16.982
 6876SOL    HW232145   2.818   2.689  17.089
 6877SOL     OW32146   2.452   3.349  17.250
 6877SOL    HW132147   2.494   3.291  17.180
 6877SOL    HW232148   2.408   3.428  17.206
 6878SOL     OW32149   3.536   2.745  18.013
 6878SOL    HW132150   3.509   2.656  17.976
 6878SOL    HW232151   3.537   2.813  17.940
 6879SOL     OW32152   2.523   3.652  17.712
 6879SOL    HW132153   2.477   3.740  17.699
 6879SOL    HW232154   2.622   3.664  17.705
 6880SOL     OW32155   2.721   2.818  17.620
 6880SOL    HW132156   2.775   2.749  17.668
 6880SOL    HW232157   2.689   2.887  17.686
 6881SOL     OW32158   2.945   2.846  16.846
 6881SOL    HW132159   2.922   2.899  16.764
 6881SOL    HW232160   3.026   2.790  16.827
 6882SOL     OW32161   1.941   3.102  17.412
 6882SOL    HW132162   1.940   3.055  17.500
 6882SOL    HW232163   2.023   3.074  17.361
 6883SOL     OW32164   2.674   3.448  17.446
 6883SOL    HW132165   2.706   3.458  17.352
 6883SOL    HW232166   2.595   3.386  17.448
 6884SOL     OW32167   2.632   3.192  17.060
 6884SOL    HW132168   2.586   3.105  17.077
 6884SOL    HW232169   2.723   3.189  17.101
 6885SOL     OW32170   3.214   1.914  16.927
 6885SOL    HW132171   3.249   1.873  16.843
 6885SOL    HW232172   3.124   1.876  16.947
 6886SOL     OW32173   2.737   3.508  17.096
 6886SOL    HW132174   2.660   3.473  17.042
 6886SOL    HW232175   2.705   3.579  17.158
 6887SOL     OW32176   2.087   3.999   0.996
 6887SOL    HW132177   2.122   3.982   1.088
 6887SOL    HW232178   1.999   3.954   0.984
 6888SOL     OW32179   1.881   4.092   0.647
 6888SOL    HW132180   1.799   4.135   0.686
 6888SOL    HW232181   1.853   4.019   0.584
 6889SOL     OW32182   2.997   4.427   0.717
 6889SOL    HW132183   3.054   4.505   0.692
 6889SOL    HW232184   2.937   4.453   0.793
 6890SOL     OW32185   2.712   4.522   1.823
 6890SOL    HW132186   2.708   4.598   1.888
 6890SOL    HW232187   2.734   4.558   1.732
 6891SOL     OW32188   1.975   4.461   1.597
 6891SOL    HW132189   2.063   4.448   1.642
 6891SOL    HW232190   1.962   4.558   1.575
 6892SOL     OW32191   2.671   3.728   0.502
 6892SOL    HW132192   2.711   3.819   0.493
 6892SOL    HW232193   2.571   3.736   0.508
 6893SOL     OW32194   2.179   3.975   1.801
 6893SOL    HW132195   2.250   4.046   1.807
 6893SOL    HW232196   2.091   4.014   1.829
 6894SOL     OW32197   3.143   4.069   0.944
 6894SOL    HW132198   3.057   4.019   0.931
 6894SOL    HW232199   3.205   4.015   1.000
 6895SOL     OW32200   3.256   4.193   1.674
 6895SOL    HW132201   3.236   4.236   1.762
 6895SOL    HW232202   3.334   4.131   1.683
 6896SOL     OW32203   2.727   4.072   0.195
 6896SOL    HW132204   2.786   4.135   0.146
 6896SOL    HW232205   2.746   3.978   0.166
 6897SOL     OW32206   3.581   4.309   1.831
 6897SOL    HW132207   3.555   4.398   1.795
 6897SOL    HW232208   3.579   4.241   1.758
 6898SOL     OW32209   2.412   3.920   0.885
 6898SOL    HW132210   2.407   3.915   0.985
 6898SOL    HW232211   2.414   4.016   0.856
 6899SOL     OW32212   2.064   4.009   1.498
 6899SOL    HW132213   1.984   4.069   1.485
 6899SOL    HW232214   2.054   3.960   1.584
 6900SOL     OW32215   2.476   3.846   0.117
 6900SOL    HW132216   2.574   3.824   0.124
 6900SOL    HW232217   2.445   3.829   0.024
 6901SOL     OW32218   2.643   3.988   1.749
 6901SOL    HW132219   2.710   3.927   1.792
 6901SOL    HW232220   2.570   4.007   1.814
 6902SOL     OW32221   2.784   4.227   0.899
 6902SOL    HW132222   2.759   4.218   0.803
 6902SOL    HW232223   2.832   4.145   0.930
 6903SOL     OW32224   2.401   3.788   0.512
 6903SOL    HW132225   2.320   3.789   0.570
 6903SOL    HW232226   2.404   3.871   0.457
 6904SOL     OW32227   2.159   3.759   0.171
 6904SOL    HW132228   2.208   3.843   0.150
 6904SOL    HW232229   2.221   3.694   0.216
 6905SOL     OW32230   2.797   3.960   0.480
 6905SOL    HW132231   2.749   4.001   0.402
 6905SOL    HW232232   2.896   3.958   0.461
 6906SOL     OW32233   2.423   3.946   1.147
 6906SOL    HW132234   2.461   3.862   1.184
 6906SOL    HW232235   2.335   3.965   1.191
 6907SOL     OW32236   3.291   4.897   0.867
 6907SOL    HW132237   3.236   4.813   0.860
 6907SOL    HW232238   3.317   4.926   0.775
 6908SOL     OW32239   2.389   3.980   0.328
 6908SOL    HW132240   2.416   3.921   0.253
 6908SOL    HW232241   2.389   4.075   0.297
 6909SOL     OW32242   2.777   3.813   1.402
 6909SOL    HW132243   2.802   3.793   1.307
 6909SOL    HW232244   2.849   3.869   1.444
 6910SOL     OW32245   2.264   4.475   1.598
 6910SOL    HW132246   2.332   4.530   1.551
 6910SOL    HW232247   2.304   4.387   1.625
 6911SOL     OW32248   3.449   4.503   1.670
 6911SOL    HW132249   3.357   4.541   1.665
 6911SOL    HW232250   3.509   4.550   1.605
 6912SOL     OW32251   2.875   3.829   1.770
 6912SOL    HW132252   2.881   3.914   1.718
 6912SOL    HW232253   2.907   3.753   1.713
 6913SOL     OW32254   2.366   3.774   1.740
 6913SOL    HW132255   2.324   3.717   1.670
 6913SOL    HW232256   2.300   3.843   1.772
 6914SOL     OW32257   3.222   4.586   1.045
 6914SOL    HW132258   3.147   4.586   0.979
 6914SOL    HW232259   3.259   4.494   1.054
 6915SOL     OW32260   2.169   3.937   1.231
 6915SOL    HW132261   2.146   3.974   1.321
 6915SOL    HW232262   2.139   3.842   1.225
 6916SOL     OW32263   2.594   4.358   1.064
 6916SOL    HW132264   2.653   4.332   0.988
 6916SOL    HW232265   2.566   4.454   1.053
 6917SOL     OW32266   3.590   4.659   1.854
 6917SOL    HW132267   3.544   4.652   1.765
 6917SOL    HW232268   3.528   4.703   1.920
 6918SOL     OW32269   2.212   4.622   1.804
 6918SOL    HW132270   2.288   4.666   1.852
 6918SOL    HW232271   2.247   4.575   1.722
 6919SOL     OW32272   3.165   4.562   0.042
 6919SOL    HW132273   3.199   4.469   0.057
 6919SOL    HW232274   3.183   4.589  -0.053
 6920SOL     OW32275   2.201   4.233   1.006
 6920SOL    HW132276   2.149   4.150   0.989
 6920SOL    HW232277   2.278   4.238   0.942
 6921SOL     OW32278   3.000   4.104   1.678
 6921SOL    HW132279   2.955   4.167   1.742
 6921SOL    HW232280   3.093   4.135   1.661
 6922SOL     OW32281   3.022   3.931   1.477
 6922SOL    HW132282   3.022   3.995   1.554
 6922SOL    HW232283   3.050   3.979   1.394
 6923SOL     OW32284   2.864   4.520   1.238
 6923SOL    HW132285   2.905   4.488   1.324
 6923SOL    HW232286   2.768   4.493   1.235
 6924SOL     OW32287   1.902   4.268   1.114
 6924SOL    HW132288   1.987   4.235   1.073
 6924SOL    HW232289   1.915   4.283   1.212
 6925SOL     OW32290   2.051   4.244   1.722
 6925SOL    HW132291   2.110   4.204   1.652
 6925SOL    HW232292   1.993   4.315   1.681
 6926SOL     OW32293   2.533   4.188   1.269
 6926SOL    HW132294   2.499   4.099   1.239
 6926SOL    HW232295   2.559   4.242   1.189
 6927SOL     OW32296   2.021   4.861   1.466
 6927SOL    HW132297   2.043   4.800   1.542
 6927SOL    HW232298   2.031   4.812   1.380
 6928SOL     OW32299   2.765   3.810   0.133
 6928SOL    HW132300   2.816   3.811   0.047
 6928SOL    HW232301   2.821   3.768   0.204
 6929SOL     OW32302   3.588   3.859   0.523
 6929SOL    HW132303   3.661   3.842   0.456
 6929SOL    HW232304   3.557   3.772   0.561
 6930SOL     OW32305   3.142   4.651   0.672
 6930SOL    HW132306   3.202   4.570   0.674
 6930SOL    HW232307   3.182   4.720   0.612
 6931SOL     OW32308   3.703   3.899   0.963
 6931SOL    HW132309   3.742   3.814   0.927
 6931SOL    HW232310   3.605   3.901   0.944
 6932SOL     OW32311   2.876   3.960   0.971
 6932SOL    HW132312   2.868   3.924   0.878
 6932SOL    HW232313   2.874   3.884   1.036
 6933SOL     OW32314   1.967   4.737   1.726
 6933SOL    HW132315   1.890   4.704   1.780
 6933SOL    HW232316   2.052   4.707   1.768
 6934SOL     OW32317   2.534   3.927   1.489
 6934SOL    HW132318   2.624   3.911   1.449
 6934SOL    HW232319   2.542   3.932   1.588
 6935SOL     OW32320   3.302   4.580   1.398
 6935SOL    HW132321   3.245   4.632   1.335
 6935SOL    HW232322   3.398   4.592   1.374
 6936SOL     OW32323   1.934   3.890   0.318
 6936SOL    HW132324   1.917   3.973   0.264
 6936SOL    HW232325   2.024   3.853   0.296
 6937SOL     OW32326   2.578   4.289   1.708
 6937SOL    HW132327   2.597   4.354   1.782
 6937SOL    HW232328   2.638   4.209   1.717
 6938SOL     OW32329   3.536   4.607   1.254
 6938SOL    HW132330   3.509   4.518   1.217
 6938SOL    HW232331   3.537   4.675   1.181
 6939SOL     OW32332   2.456   4.469   0.652
 6939SOL    HW132333   2.506   4.554   0.633
 6939SOL    HW232334   2.368   4.471   0.604
 6940SOL     OW32335   3.592   4.658   1.517
 6940SOL    HW132336   3.630   4.749   1.532
 6940SOL    HW232337   3.584   4.641   1.418
 6941SOL     OW32338   2.945   4.708   0.087
 6941SOL    HW132339   2.922   4.761   0.005
 6941SOL    HW232340   3.026   4.652   0.068
 6942SOL     OW32341   1.941   4.964   0.653
 6942SOL    HW132342   1.940   4.917   0.741
 6942SOL    HW232343   2.023   4.936   0.602
 6943SOL     OW32344   2.863   3.758   1.154
 6943SOL    HW132345   2.800   3.686   1.123
 6943SOL    HW232346   2.956   3.722   1.154
 6944SOL     OW32347   3.214   3.776   0.168
 6944SOL    HW132348   3.249   3.735   0.084
 6944SOL    HW232349   3.124   3.738   0.188
 6945SOL     OW32350   2.092   4.352   1.975
 6945SOL    HW132351   1.999   4.350   2.012
 6945SOL    HW232352   2.093   4.313   1.883
 6946SOL     OW32353   2.087   3.999   2.858
 6946SOL    HW132354   2.122   3.982   2.950
 6946SOL    HW232355   1.999   3.954   2.846
 6947SOL     OW32356   1.881   4.092   2.509
 6947SOL    HW132357   1.799   4.135   2.548
 6947SOL    HW232358   1.853   4.019   2.446
 6948SOL     OW32359   2.997   4.427   2.579
 6948SOL    HW132360   3.054   4.505   2.554
 6948SOL    HW232361   2.937   4.453   2.655
 6949SOL     OW32362   3.617   4.331   2.093
 6949SOL    HW132363   3.605   4.318   1.994
 6949SOL    HW232364   3.587   4.250   2.142
 6950SOL     OW32365   2.630   4.868   2.885
 6950SOL    HW132366   2.552   4.885   2.945
 6950SOL    HW232367   2.664   4.955   2.849
 6951SOL     OW32368   2.712   4.522   3.685
 6951SOL    HW132369   2.708   4.598   3.750
 6951SOL    HW232370   2.734   4.558   3.594
 6952SOL     OW32371   2.547   4.736   2.527
 6952SOL    HW132372   2.616   4.720   2.597
 6952SOL    HW232373   2.474   4.793   2.565
 6953SOL     OW32374   2.300   4.116   3.361
 6953SOL    HW132375   2.382   4.060   3.370
 6953SOL    HW232376   2.219   4.058   3.365
 6954SOL     OW32377   3.465   4.171   2.599
 6954SOL    HW132378   3.391   4.217   2.549
 6954SOL    HW232379   3.516   4.239   2.652
 6955SOL     OW32380   2.102   4.815   2.748
 6955SOL    HW132381   2.116   4.731   2.800
 6955SOL    HW232382   2.047   4.879   2.803
 6956SOL     OW32383   2.468   4.688   1.985
 6956SOL    HW132384   2.475   4.772   1.931
 6956SOL    HW232385   2.514   4.701   2.073
 6957SOL     OW32386   3.456   3.838   3.342
 6957SOL    HW132387   3.438   3.905   3.270
 6957SOL    HW232388   3.453   3.884   3.431
 6958SOL     OW32389   1.984   4.367   2.425
 6958SOL    HW132390   1.939   4.279   2.442
 6958SOL    HW232391   1.983   4.421   2.509
 6959SOL     OW32392   3.551   4.646   2.474
 6959SOL    HW132393   3.646   4.617   2.482
 6959SOL    HW232394   3.543   4.711   2.399
 6960SOL     OW32395   1.975   4.461   3.459
 6960SOL    HW132396   2.063   4.448   3.504
 6960SOL    HW232397   1.962   4.558   3.437
 6961SOL     OW32398   2.671   3.728   2.364
 6961SOL    HW132399   2.711   3.819   2.355
 6961SOL    HW232400   2.571   3.736   2.370
 6962SOL     OW32401   2.059   4.700   3.126
 6962SOL    HW132402   2.148   4.655   3.112
 6962SOL    HW232403   1.986   4.635   3.107
 6963SOL     OW32404   3.387   4.723   2.052
 6963SOL    HW132405   3.324   4.647   2.065
 6963SOL    HW232406   3.435   4.741   2.138
 6964SOL     OW32407   2.179   3.975   3.663
 6964SOL    HW132408   2.250   4.046   3.669
 6964SOL    HW232409   2.091   4.014   3.691
 6965SOL     OW32410   2.460   4.453   2.132
 6965SOL    HW132411   2.484   4.522   2.064
 6965SOL    HW232412   2.382   4.486   2.186
 6966SOL     OW32413   3.143   4.069   2.806
 6966SOL    HW132414   3.057   4.019   2.793
 6966SOL    HW232415   3.205   4.015   2.862
 6967SOL     OW32416   2.669   4.329   3.327
 6967SOL    HW132417   2.622   4.326   3.416
 6967SOL    HW232418   2.618   4.274   3.261
 6968SOL     OW32419   3.256   4.193   3.536
 6968SOL    HW132420   3.236   4.236   3.624
 6968SOL    HW232421   3.334   4.131   3.545
 6969SOL     OW32422   2.835   4.614   3.434
 6969SOL    HW132423   2.881   4.530   3.405
 6969SOL    HW232424   2.779   4.648   3.359
 6970SOL     OW32425   2.853   4.134   3.104
 6970SOL    HW132426   2.776   4.168   3.158
 6970SOL    HW232427   2.819   4.083   3.025
 6971SOL     OW32428   2.903   4.425   2.291
 6971SOL    HW132429   2.929   4.421   2.387
 6971SOL    HW232430   2.818   4.374   2.277
 6972SOL     OW32431   1.938   4.535   2.651
 6972SOL    HW132432   2.037   4.523   2.660
 6972SOL    HW232433   1.914   4.630   2.672
 6973SOL     OW32434   2.727   4.072   2.057
 6973SOL    HW132435   2.786   4.135   2.008
 6973SOL    HW232436   2.746   3.978   2.028
 6974SOL     OW32437   3.581   4.309   3.693
 6974SOL    HW132438   3.555   4.398   3.657
 6974SOL    HW232439   3.579   4.241   3.620
 6975SOL     OW32440   2.412   3.920   2.747
 6975SOL    HW132441   2.407   3.915   2.847
 6975SOL    HW232442   2.414   4.016   2.718
 6976SOL     OW32443   3.320   4.459   2.590
 6976SOL    HW132444   3.315   4.394   2.665
 6976SOL    HW232445   3.400   4.518   2.603
 6977SOL     OW32446   2.064   4.009   3.360
 6977SOL    HW132447   1.984   4.069   3.347
 6977SOL    HW232448   2.054   3.960   3.446
 6978SOL     OW32449   3.262   3.831   2.288
 6978SOL    HW132450   3.238   3.794   2.198
 6978SOL    HW232451   3.361   3.847   2.292
 6979SOL     OW32452   2.244   4.424   2.342
 6979SOL    HW132453   2.289   4.334   2.339
 6979SOL    HW232454   2.150   4.413   2.375
 6980SOL     OW32455   3.409   3.946   3.591
 6980SOL    HW132456   3.404   3.983   3.683
 6980SOL    HW232457   3.337   3.877   3.579
 6981SOL     OW32458   2.476   3.846   1.979
 6981SOL    HW132459   2.574   3.824   1.986
 6981SOL    HW232460   2.445   3.829   1.886
 6982SOL     OW32461   2.643   3.988   3.611
 6982SOL    HW132462   2.710   3.927   3.654
 6982SOL    HW232463   2.570   4.007   3.676
 6983SOL     OW32464   3.213   4.314   3.295
 6983SOL    HW132465   3.241   4.271   3.380
 6983SOL    HW232466   3.238   4.410   3.296
 6984SOL     OW32467   2.784   4.227   2.761
 6984SOL    HW132468   2.759   4.218   2.665
 6984SOL    HW232469   2.832   4.145   2.792
 6985SOL     OW32470   2.401   3.788   2.374
 6985SOL    HW132471   2.320   3.789   2.432
 6985SOL    HW232472   2.404   3.871   2.319
 6986SOL     OW32473   2.159   3.759   2.033
 6986SOL    HW132474   2.208   3.843   2.012
 6986SOL    HW232475   2.221   3.694   2.078
 6987SOL     OW32476   2.797   3.960   2.342
 6987SOL    HW132477   2.749   4.001   2.264
 6987SOL    HW232478   2.896   3.958   2.323
 6988SOL     OW32479   2.938   4.407   3.326
 6988SOL    HW132480   2.858   4.346   3.329
 6988SOL    HW232481   3.019   4.354   3.302
 6989SOL     OW32482   2.894   4.273   1.878
 6989SOL    HW132483   2.853   4.355   1.839
 6989SOL    HW232484   2.958   4.299   1.951
 6990SOL     OW32485   1.940   4.280   3.248
 6990SOL    HW132486   2.032   4.279   3.207
 6990SOL    HW232487   1.934   4.354   3.315
 6991SOL     OW32488   2.423   3.946   3.009
 6991SOL    HW132489   2.461   3.862   3.046
 6991SOL    HW232490   2.335   3.965   3.053
 6992SOL     OW32491   2.728   4.178   2.504
 6992SOL    HW132492   2.696   4.250   2.442
 6992SOL    HW232493   2.752   4.097   2.451
 6993SOL     OW32494   2.879   3.763   2.615
 6993SOL    HW132495   2.807   3.768   2.546
 6993SOL    HW232496   2.855   3.694   2.684
 6994SOL     OW32497   3.291   4.897   2.729
 6994SOL    HW132498   3.236   4.813   2.722
 6994SOL    HW232499   3.317   4.926   2.637
 6995SOL     OW32500   3.328   4.314   2.854
 6995SOL    HW132501   3.298   4.219   2.861
 6995SOL    HW232502   3.401   4.330   2.920
 6996SOL     OW32503   3.719   4.557   2.239
 6996SOL    HW132504   3.761   4.493   2.303
 6996SOL    HW232505   3.681   4.506   2.161
 6997SOL     OW32506   3.252   4.299   1.940
 6997SOL    HW132507   3.198   4.278   2.021
 6997SOL    HW232508   3.343   4.258   1.949
 6998SOL     OW32509   2.389   3.980   2.190
 6998SOL    HW132510   2.416   3.921   2.115
 6998SOL    HW232511   2.389   4.075   2.159
 6999SOL     OW32512   3.500   4.823   2.941
 6999SOL    HW132513   3.505   4.904   3.000
 6999SOL    HW232514   3.414   4.825   2.890
 7000SOL     OW32515   2.777   3.813   3.264
 7000SOL    HW132516   2.802   3.793   3.169
 7000SOL    HW232517   2.849   3.869   3.306
 7001SOL     OW32518   2.272   4.537   3.113
 7001SOL    HW132519   2.358   4.549   3.163
 7001SOL    HW232520   2.230   4.450   3.140
 7002SOL     OW32521   3.136   4.110   3.124
 7002SOL    HW132522   3.157   4.184   3.188
 7002SOL    HW232523   3.047   4.127   3.081
 7003SOL     OW32524   2.428   4.261   2.727
 7003SOL    HW132525   2.440   4.327   2.653
 7003SOL    HW232526   2.474   4.295   2.810
 7004SOL     OW32527   3.444   4.363   2.334
 7004SOL    HW132528   3.413   4.424   2.407
 7004SOL    HW232529   3.494   4.415   2.265
 7005SOL     OW32530   2.264   4.475   3.460
 7005SOL    HW132531   2.332   4.530   3.413
 7005SOL    HW232532   2.304   4.387   3.487
 7006SOL     OW32533   3.449   4.503   3.532
 7006SOL    HW132534   3.357   4.541   3.527
 7006SOL    HW232535   3.509   4.550   3.467
 7007SOL     OW32536   2.875   3.829   3.632
 7007SOL    HW132537   2.881   3.914   3.580
 7007SOL    HW232538   2.907   3.753   3.575
 7008SOL     OW32539   2.366   3.774   3.602
 7008SOL    HW132540   2.324   3.717   3.532
 7008SOL    HW232541   2.300   3.843   3.634
 7009SOL     OW32542   2.435   4.594   2.891
 7009SOL    HW132543   2.479   4.683   2.882
 7009SOL    HW232544   2.372   4.594   2.968
 7010SOL     OW32545   3.222   4.586   2.907
 7010SOL    HW132546   3.147   4.586   2.841
 7010SOL    HW232547   3.259   4.494   2.916
 7011SOL     OW32548   3.071   4.249   2.137
 7011SOL    HW132549   3.084   4.165   2.191
 7011SOL    HW232550   3.042   4.323   2.197
 7012SOL     OW32551   2.169   3.937   3.093
 7012SOL    HW132552   2.146   3.974   3.183
 7012SOL    HW232553   2.139   3.842   3.087
 7013SOL     OW32554   2.594   4.358   2.926
 7013SOL    HW132555   2.653   4.332   2.850
 7013SOL    HW232556   2.566   4.454   2.915
 7014SOL     OW32557   3.590   4.659   3.716
 7014SOL    HW132558   3.544   4.652   3.627
 7014SOL    HW232559   3.528   4.703   3.782
 7015SOL     OW32560   2.169   3.787   2.480
 7015SOL    HW132561   2.158   3.881   2.513
 7015SOL    HW232562   2.164   3.724   2.557
 7016SOL     OW32563   3.484   4.091   2.236
 7016SOL    HW132564   3.486   4.015   2.300
 7016SOL    HW232565   3.436   4.168   2.276
 7017SOL     OW32566   2.885   4.490   2.828
 7017SOL    HW132567   2.900   4.511   2.924
 7017SOL    HW232568   2.855   4.395   2.819
 7018SOL     OW32569   2.212   4.622   3.666
 7018SOL    HW132570   2.288   4.666   3.714
 7018SOL    HW232571   2.247   4.575   3.584
 7019SOL     OW32572   3.165   4.562   1.904
 7019SOL    HW132573   3.199   4.469   1.919
 7019SOL    HW232574   3.183   4.589   1.809
 7020SOL     OW32575   2.181   4.534   2.811
 7020SOL    HW132576   2.274   4.570   2.816
 7020SOL    HW232577   2.175   4.449   2.863
 7021SOL     OW32578   2.201   4.233   2.868
 7021SOL    HW132579   2.149   4.150   2.851
 7021SOL    HW232580   2.278   4.238   2.804
 7022SOL     OW32581   3.000   4.104   3.540
 7022SOL    HW132582   2.955   4.167   3.604
 7022SOL    HW232583   3.093   4.135   3.523
 7023SOL     OW32584   3.022   3.931   3.339
 7023SOL    HW132585   3.022   3.995   3.416
 7023SOL    HW232586   3.050   3.979   3.256
 7024SOL     OW32587   2.864   4.520   3.100
 7024SOL    HW132588   2.905   4.488   3.186
 7024SOL    HW232589   2.768   4.493   3.097
 7025SOL     OW32590   1.902   4.268   2.976
 7025SOL    HW132591   1.987   4.235   2.935
 7025SOL    HW232592   1.915   4.283   3.074
 7026SOL     OW32593   2.051   4.244   3.584
 7026SOL    HW132594   2.110   4.204   3.514
 7026SOL    HW232595   1.993   4.315   3.543
 7027SOL     OW32596   3.231   4.674   3.522
 7027SOL    HW132597   3.270   4.763   3.542
 7027SOL    HW232598   3.241   4.654   3.425
 7028SOL     OW32599   2.677   4.296   2.187
 7028SOL    HW132600   2.684   4.207   2.141
 7028SOL    HW232601   2.583   4.330   2.179
 7029SOL     OW32602   3.519   4.328   3.068
 7029SOL    HW132603   3.481   4.259   3.130
 7029SOL    HW232604   3.601   4.292   3.024
 7030SOL     OW32605   2.533   4.188   3.131
 7030SOL    HW132606   2.499   4.099   3.101
 7030SOL    HW232607   2.559   4.242   3.051
 7031SOL     OW32608   2.335   4.224   2.053
 7031SOL    HW132609   2.396   4.304   2.057
 7031SOL    HW232610   2.240   4.255   2.060
 7032SOL     OW32611   2.021   4.861   3.328
 7032SOL    HW132612   2.043   4.800   3.404
 7032SOL    HW232613   2.031   4.812   3.242
 7033SOL     OW32614   3.209   4.783   3.096
 7033SOL    HW132615   3.233   4.720   3.022
 7033SOL    HW232616   3.119   4.823   3.078
 7034SOL     OW32617   3.164   4.579   2.171
 7034SOL    HW132618   3.078   4.548   2.213
 7034SOL    HW232619   3.160   4.565   2.072
 7035SOL     OW32620   3.588   3.859   2.385
 7035SOL    HW132621   3.661   3.842   2.318
 7035SOL    HW232622   3.557   3.772   2.423
 7036SOL     OW32623   3.142   4.651   2.534
 7036SOL    HW132624   3.202   4.570   2.536
 7036SOL    HW232625   3.182   4.720   2.474
 7037SOL     OW32626   3.703   3.899   2.825
 7037SOL    HW132627   3.742   3.814   2.789
 7037SOL    HW232628   3.605   3.901   2.806
 7038SOL     OW32629   2.125   4.050   2.582
 7038SOL    HW132630   2.046   4.101   2.548
 7038SOL    HW232631   2.116   4.035   2.680
 7039SOL     OW32632   2.778   4.634   2.153
 7039SOL    HW132633   2.841   4.672   2.085
 7039SOL    HW232634   2.818   4.551   2.192
 7040SOL     OW32635   2.876   3.960   2.833
 7040SOL    HW132636   2.868   3.924   2.740
 7040SOL    HW232637   2.874   3.884   2.898
 7041SOL     OW32638   3.571   4.109   3.243
 7041SOL    HW132639   3.644   4.178   3.247
 7041SOL    HW232640   3.599   4.034   3.184
 7042SOL     OW32641   1.967   4.737   3.588
 7042SOL    HW132642   1.890   4.704   3.642
 7042SOL    HW232643   2.052   4.707   3.630
 7043SOL     OW32644   2.534   3.927   3.351
 7043SOL    HW132645   2.624   3.911   3.311
 7043SOL    HW232646   2.542   3.932   3.450
 7044SOL     OW32647   1.937   4.069   1.895
 7044SOL    HW132648   1.845   4.041   1.866
 7044SOL    HW232649   1.968   4.146   1.839
 7045SOL     OW32650   3.302   4.580   3.260
 7045SOL    HW132651   3.245   4.632   3.197
 7045SOL    HW232652   3.398   4.592   3.236
 7046SOL     OW32653   1.934   3.890   2.180
 7046SOL    HW132654   1.917   3.973   2.126
 7046SOL    HW232655   2.024   3.853   2.158
 7047SOL     OW32656   3.045   5.059   1.981
 7047SOL    HW132657   2.946   5.048   1.983
 7047SOL    HW232658   3.079   5.074   2.074
 7048SOL     OW32659   2.475   4.566   3.293
 7048SOL    HW132660   2.531   4.647   3.276
 7048SOL    HW232661   2.534   4.486   3.296
 7049SOL     OW32662   2.578   4.289   3.570
 7049SOL    HW132663   2.597   4.354   3.644
 7049SOL    HW232664   2.638   4.209   3.579
 7050SOL     OW32665   3.536   4.607   3.116
 7050SOL    HW132666   3.509   4.518   3.079
 7050SOL    HW232667   3.537   4.675   3.043
 7051SOL     OW32668   3.087   4.049   2.311
 7051SOL    HW132669   3.152   3.975   2.300
 7051SOL    HW232670   3.107   4.099   2.395
 7052SOL     OW32671   2.456   4.469   2.514
 7052SOL    HW132672   2.506   4.554   2.495
 7052SOL    HW232673   2.368   4.471   2.466
 7053SOL     OW32674   3.639   4.066   3.504
 7053SOL    HW132675   3.622   4.097   3.410
 7053SOL    HW232676   3.555   4.029   3.542
 7054SOL     OW32677   3.592   4.658   3.379
 7054SOL    HW132678   3.630   4.749   3.394
 7054SOL    HW232679   3.584   4.641   3.280
 7055SOL     OW32680   2.721   4.680   2.723
 7055SOL    HW132681   2.775   4.611   2.771
 7055SOL    HW232682   2.689   4.749   2.789
 7056SOL     OW32683   2.945   4.708   1.949
 7056SOL    HW132684   2.922   4.761   1.867
 7056SOL    HW232685   3.026   4.652   1.930
 7057SOL     OW32686   1.941   4.964   2.515
 7057SOL    HW132687   1.940   4.917   2.603
 7057SOL    HW232688   2.023   4.936   2.464
 7058SOL     OW32689   3.686   3.916   3.089
 7058SOL    HW132690   3.682   3.826   3.133
 7058SOL    HW232691   3.689   3.905   2.990
 7059SOL     OW32692   2.290   4.148   2.382
 7059SOL    HW132693   2.320   4.076   2.320
 7059SOL    HW232694   2.251   4.108   2.465
 7060SOL     OW32695   2.179   4.271   3.142
 7060SOL    HW132696   2.217   4.212   3.214
 7060SOL    HW232697   2.219   4.245   3.054
 7061SOL     OW32698   3.286   3.938   2.974
 7061SOL    HW132699   3.338   3.873   3.029
 7061SOL    HW232700   3.237   4.001   3.035
 7062SOL     OW32701   2.863   3.758   3.016
 7062SOL    HW132702   2.800   3.686   2.985
 7062SOL    HW232703   2.956   3.722   3.016
 7063SOL     OW32704   3.162   4.177   2.553
 7063SOL    HW132705   3.103   4.257   2.557
 7063SOL    HW232706   3.177   4.142   2.646
 7064SOL     OW32707   3.455   3.945   2.744
 7064SOL    HW132708   3.371   3.944   2.798
 7064SOL    HW232709   3.457   4.028   2.688
 7065SOL     OW32710   1.901   4.801   2.162
 7065SOL    HW132711   2.000   4.790   2.153
 7065SOL    HW232712   1.861   4.715   2.194
 7066SOL     OW32713   2.092   4.352   3.837
 7066SOL    HW132714   1.999   4.350   3.874
 7066SOL    HW232715   2.093   4.313   3.745
 7067SOL     OW32716   2.087   3.999   4.720
 7067SOL    HW132717   2.122   3.982   4.812
 7067SOL    HW232718   1.999   3.954   4.708
 7068SOL     OW32719   1.881   4.092   4.371
 7068SOL    HW132720   1.799   4.135   4.410
 7068SOL    HW232721   1.853   4.019   4.308
 7069SOL     OW32722   2.997   4.427   4.441
 7069SOL    HW132723   3.054   4.505   4.416
 7069SOL    HW232724   2.937   4.453   4.517
 7070SOL     OW32725   3.617   4.331   3.955
 7070SOL    HW132726   3.605   4.318   3.856
 7070SOL    HW232727   3.587   4.250   4.004
 7071SOL     OW32728   2.630   4.868   4.747
 7071SOL    HW132729   2.552   4.885   4.807
 7071SOL    HW232730   2.664   4.955   4.711
 7072SOL     OW32731   2.712   4.522   5.547
 7072SOL    HW132732   2.708   4.598   5.612
 7072SOL    HW232733   2.734   4.558   5.456
 7073SOL     OW32734   2.547   4.736   4.389
 7073SOL    HW132735   2.616   4.720   4.459
 7073SOL    HW232736   2.474   4.793   4.427
 7074SOL     OW32737   2.300   4.116   5.223
 7074SOL    HW132738   2.382   4.060   5.232
 7074SOL    HW232739   2.219   4.058   5.227
 7075SOL     OW32740   3.465   4.171   4.461
 7075SOL    HW132741   3.391   4.217   4.411
 7075SOL    HW232742   3.516   4.239   4.514
 7076SOL     OW32743   2.102   4.815   4.610
 7076SOL    HW132744   2.116   4.731   4.662
 7076SOL    HW232745   2.047   4.879   4.665
 7077SOL     OW32746   2.468   4.688   3.847
 7077SOL    HW132747   2.475   4.772   3.793
 7077SOL    HW232748   2.514   4.701   3.935
 7078SOL     OW32749   3.456   3.838   5.204
 7078SOL    HW132750   3.438   3.905   5.132
 7078SOL    HW232751   3.453   3.884   5.293
 7079SOL     OW32752   1.984   4.367   4.287
 7079SOL    HW132753   1.939   4.279   4.304
 7079SOL    HW232754   1.983   4.421   4.371
 7080SOL     OW32755   3.551   4.646   4.336
 7080SOL    HW132756   3.646   4.617   4.344
 7080SOL    HW232757   3.543   4.711   4.261
 7081SOL     OW32758   1.975   4.461   5.321
 7081SOL    HW132759   2.063   4.448   5.366
 7081SOL    HW232760   1.962   4.558   5.299
 7082SOL     OW32761   2.671   3.728   4.226
 7082SOL    HW132762   2.711   3.819   4.217
 7082SOL    HW232763   2.571   3.736   4.232
 7083SOL     OW32764   2.059   4.700   4.988
 7083SOL    HW132765   2.148   4.655   4.974
 7083SOL    HW232766   1.986   4.635   4.969
 7084SOL     OW32767   3.387   4.723   3.914
 7084SOL    HW132768   3.324   4.647   3.927
 7084SOL    HW232769   3.435   4.741   4.000
 7085SOL     OW32770   2.179   3.975   5.525
 7085SOL    HW132771   2.250   4.046   5.531
 7085SOL    HW232772   2.091   4.014   5.553
 7086SOL     OW32773   2.460   4.453   3.994
 7086SOL    HW132774   2.484   4.522   3.926
 7086SOL    HW232775   2.382   4.486   4.048
 7087SOL     OW32776   3.143   4.069   4.668
 7087SOL    HW132777   3.057   4.019   4.655
 7087SOL    HW232778   3.205   4.015   4.724
 7088SOL     OW32779   2.669   4.329   5.189
 7088SOL    HW132780   2.622   4.326   5.278
 7088SOL    HW232781   2.618   4.274   5.123
 7089SOL     OW32782   3.256   4.193   5.398
 7089SOL    HW132783   3.236   4.236   5.486
 7089SOL    HW232784   3.334   4.131   5.407
 7090SOL     OW32785   2.835   4.614   5.296
 7090SOL    HW132786   2.881   4.530   5.267
 7090SOL    HW232787   2.779   4.648   5.221
 7091SOL     OW32788   2.853   4.134   4.966
 7091SOL    HW132789   2.776   4.168   5.020
 7091SOL    HW232790   2.819   4.083   4.887
 7092SOL     OW32791   2.903   4.425   4.153
 7092SOL    HW132792   2.929   4.421   4.249
 7092SOL    HW232793   2.818   4.374   4.139
 7093SOL     OW32794   1.938   4.535   4.513
 7093SOL    HW132795   2.037   4.523   4.522
 7093SOL    HW232796   1.914   4.630   4.534
 7094SOL     OW32797   2.727   4.072   3.919
 7094SOL    HW132798   2.786   4.135   3.870
 7094SOL    HW232799   2.746   3.978   3.890
 7095SOL     OW32800   3.581   4.309   5.555
 7095SOL    HW132801   3.555   4.398   5.519
 7095SOL    HW232802   3.579   4.241   5.482
 7096SOL     OW32803   2.412   3.920   4.609
 7096SOL    HW132804   2.407   3.915   4.709
 7096SOL    HW232805   2.414   4.016   4.580
 7097SOL     OW32806   3.320   4.459   4.452
 7097SOL    HW132807   3.315   4.394   4.527
 7097SOL    HW232808   3.400   4.518   4.465
 7098SOL     OW32809   2.064   4.009   5.222
 7098SOL    HW132810   1.984   4.069   5.209
 7098SOL    HW232811   2.054   3.960   5.308
 7099SOL     OW32812   3.262   3.831   4.150
 7099SOL    HW132813   3.238   3.794   4.060
 7099SOL    HW232814   3.361   3.847   4.154
 7100SOL     OW32815   2.244   4.424   4.204
 7100SOL    HW132816   2.289   4.334   4.201
 7100SOL    HW232817   2.150   4.413   4.237
 7101SOL     OW32818   3.409   3.946   5.453
 7101SOL    HW132819   3.404   3.983   5.545
 7101SOL    HW232820   3.337   3.877   5.441
 7102SOL     OW32821   2.476   3.846   3.841
 7102SOL    HW132822   2.574   3.824   3.848
 7102SOL    HW232823   2.445   3.829   3.748
 7103SOL     OW32824   2.643   3.988   5.473
 7103SOL    HW132825   2.710   3.927   5.516
 7103SOL    HW232826   2.570   4.007   5.538
 7104SOL     OW32827   3.213   4.314   5.157
 7104SOL    HW132828   3.241   4.271   5.242
 7104SOL    HW232829   3.238   4.410   5.158
 7105SOL     OW32830   2.784   4.227   4.623
 7105SOL    HW132831   2.759   4.218   4.527
 7105SOL    HW232832   2.832   4.145   4.654
 7106SOL     OW32833   2.401   3.788   4.236
 7106SOL    HW132834   2.320   3.789   4.294
 7106SOL    HW232835   2.404   3.871   4.181
 7107SOL     OW32836   2.159   3.759   3.895
 7107SOL    HW132837   2.208   3.843   3.874
 7107SOL    HW232838   2.221   3.694   3.940
 7108SOL     OW32839   2.797   3.960   4.204
 7108SOL    HW132840   2.749   4.001   4.126
 7108SOL    HW232841   2.896   3.958   4.185
 7109SOL     OW32842   2.938   4.407   5.188
 7109SOL    HW132843   2.858   4.346   5.191
 7109SOL    HW232844   3.019   4.354   5.164
 7110SOL     OW32845   2.894   4.273   3.740
 7110SOL    HW132846   2.853   4.355   3.701
 7110SOL    HW232847   2.958   4.299   3.813
 7111SOL     OW32848   1.940   4.280   5.110
 7111SOL    HW132849   2.032   4.279   5.069
 7111SOL    HW232850   1.934   4.354   5.177
 7112SOL     OW32851   2.423   3.946   4.871
 7112SOL    HW132852   2.461   3.862   4.908
 7112SOL    HW232853   2.335   3.965   4.915
 7113SOL     OW32854   2.728   4.178   4.366
 7113SOL    HW132855   2.696   4.250   4.304
 7113SOL    HW232856   2.752   4.097   4.313
 7114SOL     OW32857   2.879   3.763   4.477
 7114SOL    HW132858   2.807   3.768   4.408
 7114SOL    HW232859   2.855   3.694   4.546
 7115SOL     OW32860   3.291   4.897   4.591
 7115SOL    HW132861   3.236   4.813   4.584
 7115SOL    HW232862   3.317   4.926   4.499
 7116SOL     OW32863   3.328   4.314   4.716
 7116SOL    HW132864   3.298   4.219   4.723
 7116SOL    HW232865   3.401   4.330   4.782
 7117SOL     OW32866   3.719   4.557   4.101
 7117SOL    HW132867   3.761   4.493   4.165
 7117SOL    HW232868   3.681   4.506   4.023
 7118SOL     OW32869   3.252   4.299   3.802
 7118SOL    HW132870   3.198   4.278   3.883
 7118SOL    HW232871   3.343   4.258   3.811
 7119SOL     OW32872   2.389   3.980   4.052
 7119SOL    HW132873   2.416   3.921   3.977
 7119SOL    HW232874   2.389   4.075   4.021
 7120SOL     OW32875   3.500   4.823   4.803
 7120SOL    HW132876   3.505   4.904   4.862
 7120SOL    HW232877   3.414   4.825   4.752
 7121SOL     OW32878   2.777   3.813   5.126
 7121SOL    HW132879   2.802   3.793   5.031
 7121SOL    HW232880   2.849   3.869   5.168
 7122SOL     OW32881   2.272   4.537   4.975
 7122SOL    HW132882   2.358   4.549   5.025
 7122SOL    HW232883   2.230   4.450   5.002
 7123SOL     OW32884   3.136   4.110   4.986
 7123SOL    HW132885   3.157   4.184   5.050
 7123SOL    HW232886   3.047   4.127   4.943
 7124SOL     OW32887   2.428   4.261   4.589
 7124SOL    HW132888   2.440   4.327   4.515
 7124SOL    HW232889   2.474   4.295   4.672
 7125SOL     OW32890   3.444   4.363   4.196
 7125SOL    HW132891   3.413   4.424   4.269
 7125SOL    HW232892   3.494   4.415   4.127
 7126SOL     OW32893   2.264   4.475   5.322
 7126SOL    HW132894   2.332   4.530   5.275
 7126SOL    HW232895   2.304   4.387   5.349
 7127SOL     OW32896   3.449   4.503   5.394
 7127SOL    HW132897   3.357   4.541   5.389
 7127SOL    HW232898   3.509   4.550   5.329
 7128SOL     OW32899   2.875   3.829   5.494
 7128SOL    HW132900   2.881   3.914   5.442
 7128SOL    HW232901   2.907   3.753   5.437
 7129SOL     OW32902   2.366   3.774   5.464
 7129SOL    HW132903   2.324   3.717   5.394
 7129SOL    HW232904   2.300   3.843   5.496
 7130SOL     OW32905   2.435   4.594   4.753
 7130SOL    HW132906   2.479   4.683   4.744
 7130SOL    HW232907   2.372   4.594   4.830
 7131SOL     OW32908   3.222   4.586   4.769
 7131SOL    HW132909   3.147   4.586   4.703
 7131SOL    HW232910   3.259   4.494   4.778
 7132SOL     OW32911   3.071   4.249   3.999
 7132SOL    HW132912   3.084   4.165   4.053
 7132SOL    HW232913   3.042   4.323   4.059
 7133SOL     OW32914   2.169   3.937   4.955
 7133SOL    HW132915   2.146   3.974   5.045
 7133SOL    HW232916   2.139   3.842   4.949
 7134SOL     OW32917   2.594   4.358   4.788
 7134SOL    HW132918   2.653   4.332   4.712
 7134SOL    HW232919   2.566   4.454   4.777
 7135SOL     OW32920   3.590   4.659   5.578
 7135SOL    HW132921   3.544   4.652   5.489
 7135SOL    HW232922   3.528   4.703   5.644
 7136SOL     OW32923   2.169   3.787   4.342
 7136SOL    HW132924   2.158   3.881   4.375
 7136SOL    HW232925   2.164   3.724   4.419
 7137SOL     OW32926   3.484   4.091   4.098
 7137SOL    HW132927   3.486   4.015   4.162
 7137SOL    HW232928   3.436   4.168   4.138
 7138SOL     OW32929   2.885   4.490   4.690
 7138SOL    HW132930   2.900   4.511   4.786
 7138SOL    HW232931   2.855   4.395   4.681
 7139SOL     OW32932   2.212   4.622   5.528
 7139SOL    HW132933   2.288   4.666   5.576
 7139SOL    HW232934   2.247   4.575   5.446
 7140SOL     OW32935   3.402   3.998   3.849
 7140SOL    HW132936   3.341   3.923   3.872
 7140SOL    HW232937   3.424   4.050   3.932
 7141SOL     OW32938   3.165   4.562   3.766
 7141SOL    HW132939   3.199   4.469   3.781
 7141SOL    HW232940   3.183   4.589   3.671
 7142SOL     OW32941   2.181   4.534   4.673
 7142SOL    HW132942   2.274   4.570   4.678
 7142SOL    HW232943   2.175   4.449   4.725
 7143SOL     OW32944   2.201   4.233   4.730
 7143SOL    HW132945   2.149   4.150   4.713
 7143SOL    HW232946   2.278   4.238   4.666
 7144SOL     OW32947   3.000   4.104   5.402
 7144SOL    HW132948   2.955   4.167   5.466
 7144SOL    HW232949   3.093   4.135   5.385
 7145SOL     OW32950   3.022   3.931   5.201
 7145SOL    HW132951   3.022   3.995   5.278
 7145SOL    HW232952   3.050   3.979   5.118
 7146SOL     OW32953   2.864   4.520   4.962
 7146SOL    HW132954   2.905   4.488   5.048
 7146SOL    HW232955   2.768   4.493   4.959
 7147SOL     OW32956   1.902   4.268   4.838
 7147SOL    HW132957   1.987   4.235   4.797
 7147SOL    HW232958   1.915   4.283   4.936
 7148SOL     OW32959   2.051   4.244   5.446
 7148SOL    HW132960   2.110   4.204   5.376
 7148SOL    HW232961   1.993   4.315   5.405
 7149SOL     OW32962   3.231   4.674   5.384
 7149SOL    HW132963   3.270   4.763   5.404
 7149SOL    HW232964   3.241   4.654   5.287
 7150SOL     OW32965   2.677   4.296   4.049
 7150SOL    HW132966   2.684   4.207   4.003
 7150SOL    HW232967   2.583   4.330   4.041
 7151SOL     OW32968   3.519   4.328   4.930
 7151SOL    HW132969   3.481   4.259   4.992
 7151SOL    HW232970   3.601   4.292   4.886
 7152SOL     OW32971   2.533   4.188   4.993
 7152SOL    HW132972   2.499   4.099   4.963
 7152SOL    HW232973   2.559   4.242   4.913
 7153SOL     OW32974   2.335   4.224   3.915
 7153SOL    HW132975   2.396   4.304   3.919
 7153SOL    HW232976   2.240   4.255   3.922
 7154SOL     OW32977   2.021   4.861   5.190
 7154SOL    HW132978   2.043   4.800   5.266
 7154SOL    HW232979   2.031   4.812   5.104
 7155SOL     OW32980   3.209   4.783   4.958
 7155SOL    HW132981   3.233   4.720   4.884
 7155SOL    HW232982   3.119   4.823   4.940
 7156SOL     OW32983   3.164   4.579   4.033
 7156SOL    HW132984   3.078   4.548   4.075
 7156SOL    HW232985   3.160   4.565   3.934
 7157SOL     OW32986   3.588   3.859   4.247
 7157SOL    HW132987   3.661   3.842   4.180
 7157SOL    HW232988   3.557   3.772   4.285
 7158SOL     OW32989   3.142   4.651   4.396
 7158SOL    HW132990   3.202   4.570   4.398
 7158SOL    HW232991   3.182   4.720   4.336
 7159SOL     OW32992   3.703   3.899   4.687
 7159SOL    HW132993   3.742   3.814   4.651
 7159SOL    HW232994   3.605   3.901   4.668
 7160SOL     OW32995   2.125   4.050   4.444
 7160SOL    HW132996   2.046   4.101   4.410
 7160SOL    HW232997   2.116   4.035   4.542
 7161SOL     OW32998   2.778   4.634   4.015
 7161SOL    HW132999   2.841   4.672   3.947
 7161SOL    HW233000   2.818   4.551   4.054
 7162SOL     OW33001   2.876   3.960   4.695
 7162SOL    HW133002   2.868   3.924   4.602
 7162SOL    HW233003   2.874   3.884   4.760
 7163SOL     OW33004   3.571   4.109   5.105
 7163SOL    HW133005   3.644   4.178   5.109
 7163SOL    HW233006   3.599   4.034   5.046
 7164SOL     OW33007   1.967   4.737   5.450
 7164SOL    HW133008   1.890   4.704   5.504
 7164SOL    HW233009   2.052   4.707   5.492
 7165SOL     OW33010   2.534   3.927   5.213
 7165SOL    HW133011   2.624   3.911   5.173
 7165SOL    HW233012   2.542   3.932   5.312
 7166SOL     OW33013   1.937   4.069   3.757
 7166SOL    HW133014   1.845   4.041   3.728
 7166SOL    HW233015   1.968   4.146   3.701
 7167SOL     OW33016   3.302   4.580   5.122
 7167SOL    HW133017   3.245   4.632   5.059
 7167SOL    HW233018   3.398   4.592   5.098
 7168SOL     OW33019   1.934   3.890   4.042
 7168SOL    HW133020   1.917   3.973   3.988
 7168SOL    HW233021   2.024   3.853   4.020
 7169SOL     OW33022   3.045   5.059   3.843
 7169SOL    HW133023   2.946   5.048   3.845
 7169SOL    HW233024   3.079   5.074   3.936
 7170SOL     OW33025   2.475   4.566   5.155
 7170SOL    HW133026   2.531   4.647   5.138
 7170SOL    HW233027   2.534   4.486   5.158
 7171SOL     OW33028   2.578   4.289   5.432
 7171SOL    HW133029   2.597   4.354   5.506
 7171SOL    HW233030   2.638   4.209   5.441
 7172SOL     OW33031   3.536   4.607   4.978
 7172SOL    HW133032   3.509   4.518   4.941
 7172SOL    HW233033   3.537   4.675   4.905
 7173SOL     OW33034   3.087   4.049   4.173
 7173SOL    HW133035   3.152   3.975   4.162
 7173SOL    HW233036   3.107   4.099   4.257
 7174SOL     OW33037   2.456   4.469   4.376
 7174SOL    HW133038   2.506   4.554   4.357
 7174SOL    HW233039   2.368   4.471   4.328
 7175SOL     OW33040   3.639   4.066   5.366
 7175SOL    HW133041   3.622   4.097   5.272
 7175SOL    HW233042   3.555   4.029   5.404
 7176SOL     OW33043   3.592   4.658   5.241
 7176SOL    HW133044   3.630   4.749   5.256
 7176SOL    HW233045   3.584   4.641   5.142
 7177SOL     OW33046   2.721   4.680   4.585
 7177SOL    HW133047   2.775   4.611   4.633
 7177SOL    HW233048   2.689   4.749   4.651
 7178SOL     OW33049   2.945   4.708   3.811
 7178SOL    HW133050   2.922   4.761   3.729
 7178SOL    HW233051   3.026   4.652   3.792
 7179SOL     OW33052   1.941   4.964   4.377
 7179SOL    HW133053   1.940   4.917   4.465
 7179SOL    HW233054   2.023   4.936   4.326
 7180SOL     OW33055   3.686   3.916   4.951
 7180SOL    HW133056   3.682   3.826   4.995
 7180SOL    HW233057   3.689   3.905   4.852
 7181SOL     OW33058   2.290   4.148   4.244
 7181SOL    HW133059   2.320   4.076   4.182
 7181SOL    HW233060   2.251   4.108   4.327
 7182SOL     OW33061   2.179   4.271   5.004
 7182SOL    HW133062   2.217   4.212   5.076
 7182SOL    HW233063   2.219   4.245   4.916
 7183SOL     OW33064   3.286   3.938   4.836
 7183SOL    HW133065   3.338   3.873   4.891
 7183SOL    HW233066   3.237   4.001   4.897
 7184SOL     OW33067   2.863   3.758   4.878
 7184SOL    HW133068   2.800   3.686   4.847
 7184SOL    HW233069   2.956   3.722   4.878
 7185SOL     OW33070   3.214   3.776   3.892
 7185SOL    HW133071   3.249   3.735   3.808
 7185SOL    HW233072   3.124   3.738   3.912
 7186SOL     OW33073   3.162   4.177   4.415
 7186SOL    HW133074   3.103   4.257   4.419
 7186SOL    HW233075   3.177   4.142   4.508
 7187SOL     OW33076   3.455   3.945   4.606
 7187SOL    HW133077   3.371   3.944   4.660
 7187SOL    HW233078   3.457   4.028   4.550
 7188SOL     OW33079   1.901   4.801   4.024
 7188SOL    HW133080   2.000   4.790   4.015
 7188SOL    HW233081   1.861   4.715   4.056
 7189SOL     OW33082   2.092   4.352   5.699
 7189SOL    HW133083   1.999   4.350   5.736
 7189SOL    HW233084   2.093   4.313   5.607
 7190SOL     OW33085   2.087   3.999   6.582
 7190SOL    HW133086   2.122   3.982   6.674
 7190SOL    HW233087   1.999   3.954   6.570
 7191SOL     OW33088   1.881   4.092   6.233
 7191SOL    HW133089   1.799   4.135   6.272
 7191SOL    HW233090   1.853   4.019   6.170
 7192SOL     OW33091   2.997   4.427   6.303
 7192SOL    HW133092   3.054   4.505   6.278
 7192SOL    HW233093   2.937   4.453   6.379
 7193SOL     OW33094   3.617   4.331   5.817
 7193SOL    HW133095   3.605   4.318   5.718
 7193SOL    HW233096   3.587   4.250   5.866
 7194SOL     OW33097   2.630   4.868   6.609
 7194SOL    HW133098   2.552   4.885   6.669
 7194SOL    HW233099   2.664   4.955   6.573
 7195SOL     OW33100   2.712   4.522   7.409
 7195SOL    HW133101   2.708   4.598   7.474
 7195SOL    HW233102   2.734   4.558   7.318
 7196SOL     OW33103   2.547   4.736   6.251
 7196SOL    HW133104   2.616   4.720   6.321
 7196SOL    HW233105   2.474   4.793   6.289
 7197SOL     OW33106   2.300   4.116   7.085
 7197SOL    HW133107   2.382   4.060   7.094
 7197SOL    HW233108   2.219   4.058   7.089
 7198SOL     OW33109   3.465   4.171   6.323
 7198SOL    HW133110   3.391   4.217   6.273
 7198SOL    HW233111   3.516   4.239   6.376
 7199SOL     OW33112   2.102   4.815   6.472
 7199SOL    HW133113   2.116   4.731   6.524
 7199SOL    HW233114   2.047   4.879   6.527
 7200SOL     OW33115   2.468   4.688   5.709
 7200SOL    HW133116   2.475   4.772   5.655
 7200SOL    HW233117   2.514   4.701   5.797
 7201SOL     OW33118   3.456   3.838   7.066
 7201SOL    HW133119   3.438   3.905   6.994
 7201SOL    HW233120   3.453   3.884   7.155
 7202SOL     OW33121   1.984   4.367   6.149
 7202SOL    HW133122   1.939   4.279   6.166
 7202SOL    HW233123   1.983   4.421   6.233
 7203SOL     OW33124   3.551   4.646   6.198
 7203SOL    HW133125   3.646   4.617   6.206
 7203SOL    HW233126   3.543   4.711   6.123
 7204SOL     OW33127   1.975   4.461   7.183
 7204SOL    HW133128   2.063   4.448   7.228
 7204SOL    HW233129   1.962   4.558   7.161
 7205SOL     OW33130   2.671   3.728   6.088
 7205SOL    HW133131   2.711   3.819   6.079
 7205SOL    HW233132   2.571   3.736   6.094
 7206SOL     OW33133   2.059   4.700   6.850
 7206SOL    HW133134   2.148   4.655   6.836
 7206SOL    HW233135   1.986   4.635   6.831
 7207SOL     OW33136   3.387   4.723   5.776
 7207SOL    HW133137   3.324   4.647   5.789
 7207SOL    HW233138   3.435   4.741   5.862
 7208SOL     OW33139   2.179   3.975   7.387
 7208SOL    HW133140   2.250   4.046   7.393
 7208SOL    HW233141   2.091   4.014   7.415
 7209SOL     OW33142   2.460   4.453   5.856
 7209SOL    HW133143   2.484   4.522   5.788
 7209SOL    HW233144   2.382   4.486   5.910
 7210SOL     OW33145   3.143   4.069   6.530
 7210SOL    HW133146   3.057   4.019   6.517
 7210SOL    HW233147   3.205   4.015   6.586
 7211SOL     OW33148   2.669   4.329   7.051
 7211SOL    HW133149   2.622   4.326   7.140
 7211SOL    HW233150   2.618   4.274   6.985
 7212SOL     OW33151   3.256   4.193   7.260
 7212SOL    HW133152   3.236   4.236   7.348
 7212SOL    HW233153   3.334   4.131   7.269
 7213SOL     OW33154   2.835   4.614   7.158
 7213SOL    HW133155   2.881   4.530   7.129
 7213SOL    HW233156   2.779   4.648   7.083
 7214SOL     OW33157   2.853   4.134   6.828
 7214SOL    HW133158   2.776   4.168   6.882
 7214SOL    HW233159   2.819   4.083   6.749
 7215SOL     OW33160   2.903   4.425   6.015
 7215SOL    HW133161   2.929   4.421   6.111
 7215SOL    HW233162   2.818   4.374   6.001
 7216SOL     OW33163   1.938   4.535   6.375
 7216SOL    HW133164   2.037   4.523   6.384
 7216SOL    HW233165   1.914   4.630   6.396
 7217SOL     OW33166   2.727   4.072   5.781
 7217SOL    HW133167   2.786   4.135   5.732
 7217SOL    HW233168   2.746   3.978   5.752
 7218SOL     OW33169   3.581   4.309   7.417
 7218SOL    HW133170   3.555   4.398   7.381
 7218SOL    HW233171   3.579   4.241   7.344
 7219SOL     OW33172   2.412   3.920   6.471
 7219SOL    HW133173   2.407   3.915   6.571
 7219SOL    HW233174   2.414   4.016   6.442
 7220SOL     OW33175   3.320   4.459   6.314
 7220SOL    HW133176   3.315   4.394   6.389
 7220SOL    HW233177   3.400   4.518   6.327
 7221SOL     OW33178   2.064   4.009   7.084
 7221SOL    HW133179   1.984   4.069   7.071
 7221SOL    HW233180   2.054   3.960   7.170
 7222SOL     OW33181   3.262   3.831   6.012
 7222SOL    HW133182   3.238   3.794   5.922
 7222SOL    HW233183   3.361   3.847   6.016
 7223SOL     OW33184   2.244   4.424   6.066
 7223SOL    HW133185   2.289   4.334   6.063
 7223SOL    HW233186   2.150   4.413   6.099
 7224SOL     OW33187   3.409   3.946   7.315
 7224SOL    HW133188   3.404   3.983   7.407
 7224SOL    HW233189   3.337   3.877   7.303
 7225SOL     OW33190   2.476   3.846   5.703
 7225SOL    HW133191   2.574   3.824   5.710
 7225SOL    HW233192   2.445   3.829   5.610
 7226SOL     OW33193   2.643   3.988   7.335
 7226SOL    HW133194   2.710   3.927   7.378
 7226SOL    HW233195   2.570   4.007   7.400
 7227SOL     OW33196   3.213   4.314   7.019
 7227SOL    HW133197   3.241   4.271   7.104
 7227SOL    HW233198   3.238   4.410   7.020
 7228SOL     OW33199   2.784   4.227   6.485
 7228SOL    HW133200   2.759   4.218   6.389
 7228SOL    HW233201   2.832   4.145   6.516
 7229SOL     OW33202   2.401   3.788   6.098
 7229SOL    HW133203   2.320   3.789   6.156
 7229SOL    HW233204   2.404   3.871   6.043
 7230SOL     OW33205   2.159   3.759   5.757
 7230SOL    HW133206   2.208   3.843   5.736
 7230SOL    HW233207   2.221   3.694   5.802
 7231SOL     OW33208   2.797   3.960   6.066
 7231SOL    HW133209   2.749   4.001   5.988
 7231SOL    HW233210   2.896   3.958   6.047
 7232SOL     OW33211   2.938   4.407   7.050
 7232SOL    HW133212   2.858   4.346   7.053
 7232SOL    HW233213   3.019   4.354   7.026
 7233SOL     OW33214   2.894   4.273   5.602
 7233SOL    HW133215   2.853   4.355   5.563
 7233SOL    HW233216   2.958   4.299   5.675
 7234SOL     OW33217   1.940   4.280   6.972
 7234SOL    HW133218   2.032   4.279   6.931
 7234SOL    HW233219   1.934   4.354   7.039
 7235SOL     OW33220   2.423   3.946   6.733
 7235SOL    HW133221   2.461   3.862   6.770
 7235SOL    HW233222   2.335   3.965   6.777
 7236SOL     OW33223   2.728   4.178   6.228
 7236SOL    HW133224   2.696   4.250   6.166
 7236SOL    HW233225   2.752   4.097   6.175
 7237SOL     OW33226   2.879   3.763   6.339
 7237SOL    HW133227   2.807   3.768   6.270
 7237SOL    HW233228   2.855   3.694   6.408
 7238SOL     OW33229   3.291   4.897   6.453
 7238SOL    HW133230   3.236   4.813   6.446
 7238SOL    HW233231   3.317   4.926   6.361
 7239SOL     OW33232   3.328   4.314   6.578
 7239SOL    HW133233   3.298   4.219   6.585
 7239SOL    HW233234   3.401   4.330   6.644
 7240SOL     OW33235   3.719   4.557   5.963
 7240SOL    HW133236   3.761   4.493   6.027
 7240SOL    HW233237   3.681   4.506   5.885
 7241SOL     OW33238   3.252   4.299   5.664
 7241SOL    HW133239   3.198   4.278   5.745
 7241SOL    HW233240   3.343   4.258   5.673
 7242SOL     OW33241   2.389   3.980   5.914
 7242SOL    HW133242   2.416   3.921   5.839
 7242SOL    HW233243   2.389   4.075   5.883
 7243SOL     OW33244   3.500   4.823   6.665
 7243SOL    HW133245   3.505   4.904   6.724
 7243SOL    HW233246   3.414   4.825   6.614
 7244SOL     OW33247   2.777   3.813   6.988
 7244SOL    HW133248   2.802   3.793   6.893
 7244SOL    HW233249   2.849   3.869   7.030
 7245SOL     OW33250   2.272   4.537   6.837
 7245SOL    HW133251   2.358   4.549   6.887
 7245SOL    HW233252   2.230   4.450   6.864
 7246SOL     OW33253   3.136   4.110   6.848
 7246SOL    HW133254   3.157   4.184   6.912
 7246SOL    HW233255   3.047   4.127   6.805
 7247SOL     OW33256   2.428   4.261   6.451
 7247SOL    HW133257   2.440   4.327   6.377
 7247SOL    HW233258   2.474   4.295   6.534
 7248SOL     OW33259   3.444   4.363   6.058
 7248SOL    HW133260   3.413   4.424   6.131
 7248SOL    HW233261   3.494   4.415   5.989
 7249SOL     OW33262   2.264   4.475   7.184
 7249SOL    HW133263   2.332   4.530   7.137
 7249SOL    HW233264   2.304   4.387   7.211
 7250SOL     OW33265   3.449   4.503   7.256
 7250SOL    HW133266   3.357   4.541   7.251
 7250SOL    HW233267   3.509   4.550   7.191
 7251SOL     OW33268   2.875   3.829   7.356
 7251SOL    HW133269   2.881   3.914   7.304
 7251SOL    HW233270   2.907   3.753   7.299
 7252SOL     OW33271   2.366   3.774   7.326
 7252SOL    HW133272   2.324   3.717   7.256
 7252SOL    HW233273   2.300   3.843   7.358
 7253SOL     OW33274   2.435   4.594   6.615
 7253SOL    HW133275   2.479   4.683   6.606
 7253SOL    HW233276   2.372   4.594   6.692
 7254SOL     OW33277   3.222   4.586   6.631
 7254SOL    HW133278   3.147   4.586   6.565
 7254SOL    HW233279   3.259   4.494   6.640
 7255SOL     OW33280   3.071   4.249   5.861
 7255SOL    HW133281   3.084   4.165   5.915
 7255SOL    HW233282   3.042   4.323   5.921
 7256SOL     OW33283   2.169   3.937   6.817
 7256SOL    HW133284   2.146   3.974   6.907
 7256SOL    HW233285   2.139   3.842   6.811
 7257SOL     OW33286   2.594   4.358   6.650
 7257SOL    HW133287   2.653   4.332   6.574
 7257SOL    HW233288   2.566   4.454   6.639
 7258SOL     OW33289   3.590   4.659   7.440
 7258SOL    HW133290   3.544   4.652   7.351
 7258SOL    HW233291   3.528   4.703   7.506
 7259SOL     OW33292   2.169   3.787   6.204
 7259SOL    HW133293   2.158   3.881   6.237
 7259SOL    HW233294   2.164   3.724   6.281
 7260SOL     OW33295   3.484   4.091   5.960
 7260SOL    HW133296   3.486   4.015   6.024
 7260SOL    HW233297   3.436   4.168   6.000
 7261SOL     OW33298   2.885   4.490   6.552
 7261SOL    HW133299   2.900   4.511   6.648
 7261SOL    HW233300   2.855   4.395   6.543
 7262SOL     OW33301   2.212   4.622   7.390
 7262SOL    HW133302   2.288   4.666   7.438
 7262SOL    HW233303   2.247   4.575   7.308
 7263SOL     OW33304   3.402   3.998   5.711
 7263SOL    HW133305   3.341   3.923   5.734
 7263SOL    HW233306   3.424   4.050   5.794
 7264SOL     OW33307   3.165   4.562   5.628
 7264SOL    HW133308   3.199   4.469   5.643
 7264SOL    HW233309   3.183   4.589   5.533
 7265SOL     OW33310   2.181   4.534   6.535
 7265SOL    HW133311   2.274   4.570   6.540
 7265SOL    HW233312   2.175   4.449   6.587
 7266SOL     OW33313   2.201   4.233   6.592
 7266SOL    HW133314   2.149   4.150   6.575
 7266SOL    HW233315   2.278   4.238   6.528
 7267SOL     OW33316   3.000   4.104   7.264
 7267SOL    HW133317   2.955   4.167   7.328
 7267SOL    HW233318   3.093   4.135   7.247
 7268SOL     OW33319   3.022   3.931   7.063
 7268SOL    HW133320   3.022   3.995   7.140
 7268SOL    HW233321   3.050   3.979   6.980
 7269SOL     OW33322   2.864   4.520   6.824
 7269SOL    HW133323   2.905   4.488   6.910
 7269SOL    HW233324   2.768   4.493   6.821
 7270SOL     OW33325   1.902   4.268   6.700
 7270SOL    HW133326   1.987   4.235   6.659
 7270SOL    HW233327   1.915   4.283   6.798
 7271SOL     OW33328   2.051   4.244   7.308
 7271SOL    HW133329   2.110   4.204   7.238
 7271SOL    HW233330   1.993   4.315   7.267
 7272SOL     OW33331   3.231   4.674   7.246
 7272SOL    HW133332   3.270   4.763   7.266
 7272SOL    HW233333   3.241   4.654   7.149
 7273SOL     OW33334   2.677   4.296   5.911
 7273SOL    HW133335   2.684   4.207   5.865
 7273SOL    HW233336   2.583   4.330   5.903
 7274SOL     OW33337   3.519   4.328   6.792
 7274SOL    HW133338   3.481   4.259   6.854
 7274SOL    HW233339   3.601   4.292   6.748
 7275SOL     OW33340   2.533   4.188   6.855
 7275SOL    HW133341   2.499   4.099   6.825
 7275SOL    HW233342   2.559   4.242   6.775
 7276SOL     OW33343   2.335   4.224   5.777
 7276SOL    HW133344   2.396   4.304   5.781
 7276SOL    HW233345   2.240   4.255   5.784
 7277SOL     OW33346   2.021   4.861   7.052
 7277SOL    HW133347   2.043   4.800   7.128
 7277SOL    HW233348   2.031   4.812   6.966
 7278SOL     OW33349   3.209   4.783   6.820
 7278SOL    HW133350   3.233   4.720   6.746
 7278SOL    HW233351   3.119   4.823   6.802
 7279SOL     OW33352   3.164   4.579   5.895
 7279SOL    HW133353   3.078   4.548   5.937
 7279SOL    HW233354   3.160   4.565   5.796
 7280SOL     OW33355   3.588   3.859   6.109
 7280SOL    HW133356   3.661   3.842   6.042
 7280SOL    HW233357   3.557   3.772   6.147
 7281SOL     OW33358   3.142   4.651   6.258
 7281SOL    HW133359   3.202   4.570   6.260
 7281SOL    HW233360   3.182   4.720   6.198
 7282SOL     OW33361   3.703   3.899   6.549
 7282SOL    HW133362   3.742   3.814   6.513
 7282SOL    HW233363   3.605   3.901   6.530
 7283SOL     OW33364   2.125   4.050   6.306
 7283SOL    HW133365   2.046   4.101   6.272
 7283SOL    HW233366   2.116   4.035   6.404
 7284SOL     OW33367   2.778   4.634   5.877
 7284SOL    HW133368   2.841   4.672   5.809
 7284SOL    HW233369   2.818   4.551   5.916
 7285SOL     OW33370   2.876   3.960   6.557
 7285SOL    HW133371   2.868   3.924   6.464
 7285SOL    HW233372   2.874   3.884   6.622
 7286SOL     OW33373   3.571   4.109   6.967
 7286SOL    HW133374   3.644   4.178   6.971
 7286SOL    HW233375   3.599   4.034   6.908
 7287SOL     OW33376   1.967   4.737   7.312
 7287SOL    HW133377   1.890   4.704   7.366
 7287SOL    HW233378   2.052   4.707   7.354
 7288SOL     OW33379   2.534   3.927   7.075
 7288SOL    HW133380   2.624   3.911   7.035
 7288SOL    HW233381   2.542   3.932   7.174
 7289SOL     OW33382   1.937   4.069   5.619
 7289SOL    HW133383   1.845   4.041   5.590
 7289SOL    HW233384   1.968   4.146   5.563
 7290SOL     OW33385   3.302   4.580   6.984
 7290SOL    HW133386   3.245   4.632   6.921
 7290SOL    HW233387   3.398   4.592   6.960
 7291SOL     OW33388   1.934   3.890   5.904
 7291SOL    HW133389   1.917   3.973   5.850
 7291SOL    HW233390   2.024   3.853   5.882
 7292SOL     OW33391   3.045   5.059   5.705
 7292SOL    HW133392   2.946   5.048   5.707
 7292SOL    HW233393   3.079   5.074   5.798
 7293SOL     OW33394   2.475   4.566   7.017
 7293SOL    HW133395   2.531   4.647   7.000
 7293SOL    HW233396   2.534   4.486   7.020
 7294SOL     OW33397   2.578   4.289   7.294
 7294SOL    HW133398   2.597   4.354   7.368
 7294SOL    HW233399   2.638   4.209   7.303
 7295SOL     OW33400   3.536   4.607   6.840
 7295SOL    HW133401   3.509   4.518   6.803
 7295SOL    HW233402   3.537   4.675   6.767
 7296SOL     OW33403   3.087   4.049   6.035
 7296SOL    HW133404   3.152   3.975   6.024
 7296SOL    HW233405   3.107   4.099   6.119
 7297SOL     OW33406   2.456   4.469   6.238
 7297SOL    HW133407   2.506   4.554   6.219
 7297SOL    HW233408   2.368   4.471   6.190
 7298SOL     OW33409   3.639   4.066   7.228
 7298SOL    HW133410   3.622   4.097   7.134
 7298SOL    HW233411   3.555   4.029   7.266
 7299SOL     OW33412   3.592   4.658   7.103
 7299SOL    HW133413   3.630   4.749   7.118
 7299SOL    HW233414   3.584   4.641   7.004
 7300SOL     OW33415   2.721   4.680   6.447
 7300SOL    HW133416   2.775   4.611   6.495
 7300SOL    HW233417   2.689   4.749   6.513
 7301SOL     OW33418   2.945   4.708   5.673
 7301SOL    HW133419   2.922   4.761   5.591
 7301SOL    HW233420   3.026   4.652   5.654
 7302SOL     OW33421   1.941   4.964   6.239
 7302SOL    HW133422   1.940   4.917   6.327
 7302SOL    HW233423   2.023   4.936   6.188
 7303SOL     OW33424   3.686   3.916   6.813
 7303SOL    HW133425   3.682   3.826   6.857
 7303SOL    HW233426   3.689   3.905   6.714
 7304SOL     OW33427   2.290   4.148   6.106
 7304SOL    HW133428   2.320   4.076   6.044
 7304SOL    HW233429   2.251   4.108   6.189
 7305SOL     OW33430   2.179   4.271   6.866
 7305SOL    HW133431   2.217   4.212   6.938
 7305SOL    HW233432   2.219   4.245   6.778
 7306SOL     OW33433   3.286   3.938   6.698
 7306SOL    HW133434   3.338   3.873   6.753
 7306SOL    HW233435   3.237   4.001   6.759
 7307SOL     OW33436   2.863   3.758   6.740
 7307SOL    HW133437   2.800   3.686   6.709
 7307SOL    HW233438   2.956   3.722   6.740
 7308SOL     OW33439   3.214   3.776   5.754
 7308SOL    HW133440   3.249   3.735   5.670
 7308SOL    HW233441   3.124   3.738   5.774
 7309SOL     OW33442   3.162   4.177   6.277
 7309SOL    HW133443   3.103   4.257   6.281
 7309SOL    HW233444   3.177   4.142   6.370
 7310SOL     OW33445   3.455   3.945   6.468
 7310SOL    HW133446   3.371   3.944   6.522
 7310SOL    HW233447   3.457   4.028   6.412
 7311SOL     OW33448   1.901   4.801   5.886
 7311SOL    HW133449   2.000   4.790   5.877
 7311SOL    HW233450   1.861   4.715   5.918
 7312SOL     OW33451   2.092   4.352   7.561
 7312SOL    HW133452   1.999   4.350   7.598
 7312SOL    HW233453   2.093   4.313   7.469
 7313SOL     OW33454   2.087   3.999   8.444
 7313SOL    HW133455   2.122   3.982   8.536
 7313SOL    HW233456   1.999   3.954   8.432
 7314SOL     OW33457   1.881   4.092   8.095
 7314SOL    HW133458   1.799   4.135   8.134
 7314SOL    HW233459   1.853   4.019   8.032
 7315SOL     OW33460   2.997   4.427   8.165
 7315SOL    HW133461   3.054   4.505   8.140
 7315SOL    HW233462   2.937   4.453   8.241
 7316SOL     OW33463   3.617   4.331   7.679
 7316SOL    HW133464   3.605   4.318   7.580
 7316SOL    HW233465   3.587   4.250   7.728
 7317SOL     OW33466   2.630   4.868   8.471
 7317SOL    HW133467   2.552   4.885   8.531
 7317SOL    HW233468   2.664   4.955   8.435
 7318SOL     OW33469   2.547   4.736   8.113
 7318SOL    HW133470   2.616   4.720   8.183
 7318SOL    HW233471   2.474   4.793   8.151
 7319SOL     OW33472   2.300   4.116   8.947
 7319SOL    HW133473   2.382   4.060   8.956
 7319SOL    HW233474   2.219   4.058   8.951
 7320SOL     OW33475   3.465   4.171   8.185
 7320SOL    HW133476   3.391   4.217   8.135
 7320SOL    HW233477   3.516   4.239   8.238
 7321SOL     OW33478   2.102   4.815   8.334
 7321SOL    HW133479   2.116   4.731   8.386
 7321SOL    HW233480   2.047   4.879   8.389
 7322SOL     OW33481   2.468   4.688   7.571
 7322SOL    HW133482   2.475   4.772   7.517
 7322SOL    HW233483   2.514   4.701   7.659
 7323SOL     OW33484   3.456   3.838   8.928
 7323SOL    HW133485   3.438   3.905   8.856
 7323SOL    HW233486   3.453   3.884   9.017
 7324SOL     OW33487   1.984   4.367   8.011
 7324SOL    HW133488   1.939   4.279   8.028
 7324SOL    HW233489   1.983   4.421   8.095
 7325SOL     OW33490   3.551   4.646   8.060
 7325SOL    HW133491   3.646   4.617   8.068
 7325SOL    HW233492   3.543   4.711   7.985
 7326SOL     OW33493   2.671   3.728   7.950
 7326SOL    HW133494   2.711   3.819   7.941
 7326SOL    HW233495   2.571   3.736   7.956
 7327SOL     OW33496   2.059   4.700   8.712
 7327SOL    HW133497   2.148   4.655   8.698
 7327SOL    HW233498   1.986   4.635   8.693
 7328SOL     OW33499   3.387   4.723   7.638
 7328SOL    HW133500   3.324   4.647   7.651
 7328SOL    HW233501   3.435   4.741   7.724
 7329SOL     OW33502   2.179   3.975   9.249
 7329SOL    HW133503   2.250   4.046   9.255
 7329SOL    HW233504   2.091   4.014   9.277
 7330SOL     OW33505   2.460   4.453   7.718
 7330SOL    HW133506   2.484   4.522   7.650
 7330SOL    HW233507   2.382   4.486   7.772
 7331SOL     OW33508   3.143   4.069   8.392
 7331SOL    HW133509   3.057   4.019   8.379
 7331SOL    HW233510   3.205   4.015   8.448
 7332SOL     OW33511   2.669   4.329   8.913
 7332SOL    HW133512   2.622   4.326   9.002
 7332SOL    HW233513   2.618   4.274   8.847
 7333SOL     OW33514   3.256   4.193   9.122
 7333SOL    HW133515   3.236   4.236   9.210
 7333SOL    HW233516   3.334   4.131   9.131
 7334SOL     OW33517   2.835   4.614   9.020
 7334SOL    HW133518   2.881   4.530   8.991
 7334SOL    HW233519   2.779   4.648   8.945
 7335SOL     OW33520   2.853   4.134   8.690
 7335SOL    HW133521   2.776   4.168   8.744
 7335SOL    HW233522   2.819   4.083   8.611
 7336SOL     OW33523   2.903   4.425   7.877
 7336SOL    HW133524   2.929   4.421   7.973
 7336SOL    HW233525   2.818   4.374   7.863
 7337SOL     OW33526   1.938   4.535   8.237
 7337SOL    HW133527   2.037   4.523   8.246
 7337SOL    HW233528   1.914   4.630   8.258
 7338SOL     OW33529   2.727   4.072   7.643
 7338SOL    HW133530   2.786   4.135   7.594
 7338SOL    HW233531   2.746   3.978   7.614
 7339SOL     OW33532   3.581   4.309   9.279
 7339SOL    HW133533   3.555   4.398   9.243
 7339SOL    HW233534   3.579   4.241   9.206
 7340SOL     OW33535   2.412   3.920   8.333
 7340SOL    HW133536   2.407   3.915   8.433
 7340SOL    HW233537   2.414   4.016   8.304
 7341SOL     OW33538   3.320   4.459   8.176
 7341SOL    HW133539   3.315   4.394   8.251
 7341SOL    HW233540   3.400   4.518   8.189
 7342SOL     OW33541   3.262   3.831   7.874
 7342SOL    HW133542   3.238   3.794   7.784
 7342SOL    HW233543   3.361   3.847   7.878
 7343SOL     OW33544   2.244   4.424   7.928
 7343SOL    HW133545   2.289   4.334   7.925
 7343SOL    HW233546   2.150   4.413   7.961
 7344SOL     OW33547   3.409   3.946   9.177
 7344SOL    HW133548   3.404   3.983   9.269
 7344SOL    HW233549   3.337   3.877   9.165
 7345SOL     OW33550   2.476   3.846   7.565
 7345SOL    HW133551   2.574   3.824   7.572
 7345SOL    HW233552   2.445   3.829   7.472
 7346SOL     OW33553   2.643   3.988   9.197
 7346SOL    HW133554   2.710   3.927   9.240
 7346SOL    HW233555   2.570   4.007   9.262
 7347SOL     OW33556   3.213   4.314   8.881
 7347SOL    HW133557   3.241   4.271   8.966
 7347SOL    HW233558   3.238   4.410   8.882
 7348SOL     OW33559   2.784   4.227   8.347
 7348SOL    HW133560   2.759   4.218   8.251
 7348SOL    HW233561   2.832   4.145   8.378
 7349SOL     OW33562   2.401   3.788   7.960
 7349SOL    HW133563   2.320   3.789   8.018
 7349SOL    HW233564   2.404   3.871   7.905
 7350SOL     OW33565   2.159   3.759   7.619
 7350SOL    HW133566   2.208   3.843   7.598
 7350SOL    HW233567   2.221   3.694   7.664
 7351SOL     OW33568   2.797   3.960   7.928
 7351SOL    HW133569   2.749   4.001   7.850
 7351SOL    HW233570   2.896   3.958   7.909
 7352SOL     OW33571   2.938   4.407   8.912
 7352SOL    HW133572   2.858   4.346   8.915
 7352SOL    HW233573   3.019   4.354   8.888
 7353SOL     OW33574   2.894   4.273   7.464
 7353SOL    HW133575   2.853   4.355   7.425
 7353SOL    HW233576   2.958   4.299   7.537
 7354SOL     OW33577   1.940   4.280   8.834
 7354SOL    HW133578   2.032   4.279   8.793
 7354SOL    HW233579   1.934   4.354   8.901
 7355SOL     OW33580   2.423   3.946   8.595
 7355SOL    HW133581   2.461   3.862   8.632
 7355SOL    HW233582   2.335   3.965   8.639
 7356SOL     OW33583   2.728   4.178   8.090
 7356SOL    HW133584   2.696   4.250   8.028
 7356SOL    HW233585   2.752   4.097   8.037
 7357SOL     OW33586   2.879   3.763   8.201
 7357SOL    HW133587   2.807   3.768   8.132
 7357SOL    HW233588   2.855   3.694   8.270
 7358SOL     OW33589   3.291   4.897   8.315
 7358SOL    HW133590   3.236   4.813   8.308
 7358SOL    HW233591   3.317   4.926   8.223
 7359SOL     OW33592   3.328   4.314   8.440
 7359SOL    HW133593   3.298   4.219   8.447
 7359SOL    HW233594   3.401   4.330   8.506
 7360SOL     OW33595   3.719   4.557   7.825
 7360SOL    HW133596   3.761   4.493   7.889
 7360SOL    HW233597   3.681   4.506   7.747
 7361SOL     OW33598   3.252   4.299   7.526
 7361SOL    HW133599   3.198   4.278   7.607
 7361SOL    HW233600   3.343   4.258   7.535
 7362SOL     OW33601   2.389   3.980   7.776
 7362SOL    HW133602   2.416   3.921   7.701
 7362SOL    HW233603   2.389   4.075   7.745
 7363SOL     OW33604   3.500   4.823   8.527
 7363SOL    HW133605   3.505   4.904   8.586
 7363SOL    HW233606   3.414   4.825   8.476
 7364SOL     OW33607   2.777   3.813   8.850
 7364SOL    HW133608   2.802   3.793   8.755
 7364SOL    HW233609   2.849   3.869   8.892
 7365SOL     OW33610   2.272   4.537   8.699
 7365SOL    HW133611   2.358   4.549   8.749
 7365SOL    HW233612   2.230   4.450   8.726
 7366SOL     OW33613   3.136   4.110   8.710
 7366SOL    HW133614   3.157   4.184   8.774
 7366SOL    HW233615   3.047   4.127   8.667
 7367SOL     OW33616   2.428   4.261   8.313
 7367SOL    HW133617   2.440   4.327   8.239
 7367SOL    HW233618   2.474   4.295   8.396
 7368SOL     OW33619   3.444   4.363   7.920
 7368SOL    HW133620   3.413   4.424   7.993
 7368SOL    HW233621   3.494   4.415   7.851
 7369SOL     OW33622   2.264   4.475   9.046
 7369SOL    HW133623   2.332   4.530   8.999
 7369SOL    HW233624   2.304   4.387   9.073
 7370SOL     OW33625   3.449   4.503   9.118
 7370SOL    HW133626   3.357   4.541   9.113
 7370SOL    HW233627   3.509   4.550   9.053
 7371SOL     OW33628   2.875   3.829   9.218
 7371SOL    HW133629   2.881   3.914   9.166
 7371SOL    HW233630   2.907   3.753   9.161
 7372SOL     OW33631   2.366   3.774   9.188
 7372SOL    HW133632   2.324   3.717   9.118
 7372SOL    HW233633   2.300   3.843   9.220
 7373SOL     OW33634   2.435   4.594   8.477
 7373SOL    HW133635   2.479   4.683   8.468
 7373SOL    HW233636   2.372   4.594   8.554
 7374SOL     OW33637   3.222   4.586   8.493
 7374SOL    HW133638   3.147   4.586   8.427
 7374SOL    HW233639   3.259   4.494   8.502
 7375SOL     OW33640   3.071   4.249   7.723
 7375SOL    HW133641   3.084   4.165   7.777
 7375SOL    HW233642   3.042   4.323   7.783
 7376SOL     OW33643   2.169   3.937   8.679
 7376SOL    HW133644   2.146   3.974   8.769
 7376SOL    HW233645   2.139   3.842   8.673
 7377SOL     OW33646   2.594   4.358   8.512
 7377SOL    HW133647   2.653   4.332   8.436
 7377SOL    HW233648   2.566   4.454   8.501
 7378SOL     OW33649   3.590   4.659   9.302
 7378SOL    HW133650   3.544   4.652   9.213
 7378SOL    HW233651   3.528   4.703   9.368
 7379SOL     OW33652   2.169   3.787   8.066
 7379SOL    HW133653   2.158   3.881   8.099
 7379SOL    HW233654   2.164   3.724   8.143
 7380SOL     OW33655   3.484   4.091   7.822
 7380SOL    HW133656   3.486   4.015   7.886
 7380SOL    HW233657   3.436   4.168   7.862
 7381SOL     OW33658   2.885   4.490   8.414
 7381SOL    HW133659   2.900   4.511   8.510
 7381SOL    HW233660   2.855   4.395   8.405
 7382SOL     OW33661   2.212   4.622   9.252
 7382SOL    HW133662   2.288   4.666   9.300
 7382SOL    HW233663   2.247   4.575   9.170
 7383SOL     OW33664   3.402   3.998   7.573
 7383SOL    HW133665   3.341   3.923   7.596
 7383SOL    HW233666   3.424   4.050   7.656
 7384SOL     OW33667   3.165   4.562   7.490
 7384SOL    HW133668   3.199   4.469   7.505
 7384SOL    HW233669   3.183   4.589   7.395
 7385SOL     OW33670   2.181   4.534   8.397
 7385SOL    HW133671   2.274   4.570   8.402
 7385SOL    HW233672   2.175   4.449   8.449
 7386SOL     OW33673   2.201   4.233   8.454
 7386SOL    HW133674   2.149   4.150   8.437
 7386SOL    HW233675   2.278   4.238   8.390
 7387SOL     OW33676   3.000   4.104   9.126
 7387SOL    HW133677   2.955   4.167   9.190
 7387SOL    HW233678   3.093   4.135   9.109
 7388SOL     OW33679   3.022   3.931   8.925
 7388SOL    HW133680   3.022   3.995   9.002
 7388SOL    HW233681   3.050   3.979   8.842
 7389SOL     OW33682   2.864   4.520   8.686
 7389SOL    HW133683   2.905   4.488   8.772
 7389SOL    HW233684   2.768   4.493   8.683
 7390SOL     OW33685   1.902   4.268   8.562
 7390SOL    HW133686   1.987   4.235   8.521
 7390SOL    HW233687   1.915   4.283   8.660
 7391SOL     OW33688   3.231   4.674   9.108
 7391SOL    HW133689   3.270   4.763   9.128
 7391SOL    HW233690   3.241   4.654   9.011
 7392SOL     OW33691   2.677   4.296   7.773
 7392SOL    HW133692   2.684   4.207   7.727
 7392SOL    HW233693   2.583   4.330   7.765
 7393SOL     OW33694   3.519   4.328   8.654
 7393SOL    HW133695   3.481   4.259   8.716
 7393SOL    HW233696   3.601   4.292   8.610
 7394SOL     OW33697   2.533   4.188   8.717
 7394SOL    HW133698   2.499   4.099   8.687
 7394SOL    HW233699   2.559   4.242   8.637
 7395SOL     OW33700   2.335   4.224   7.639
 7395SOL    HW133701   2.396   4.304   7.643
 7395SOL    HW233702   2.240   4.255   7.646
 7396SOL     OW33703   2.021   4.861   8.914
 7396SOL    HW133704   2.043   4.800   8.990
 7396SOL    HW233705   2.031   4.812   8.828
 7397SOL     OW33706   3.209   4.783   8.682
 7397SOL    HW133707   3.233   4.720   8.608
 7397SOL    HW233708   3.119   4.823   8.664
 7398SOL     OW33709   3.164   4.579   7.757
 7398SOL    HW133710   3.078   4.548   7.799
 7398SOL    HW233711   3.160   4.565   7.658
 7399SOL     OW33712   3.588   3.859   7.971
 7399SOL    HW133713   3.661   3.842   7.904
 7399SOL    HW233714   3.557   3.772   8.009
 7400SOL     OW33715   3.142   4.651   8.120
 7400SOL    HW133716   3.202   4.570   8.122
 7400SOL    HW233717   3.182   4.720   8.060
 7401SOL     OW33718   3.703   3.899   8.411
 7401SOL    HW133719   3.742   3.814   8.375
 7401SOL    HW233720   3.605   3.901   8.392
 7402SOL     OW33721   2.125   4.050   8.168
 7402SOL    HW133722   2.046   4.101   8.134
 7402SOL    HW233723   2.116   4.035   8.266
 7403SOL     OW33724   2.778   4.634   7.739
 7403SOL    HW133725   2.841   4.672   7.671
 7403SOL    HW233726   2.818   4.551   7.778
 7404SOL     OW33727   2.876   3.960   8.419
 7404SOL    HW133728   2.868   3.924   8.326
 7404SOL    HW233729   2.874   3.884   8.484
 7405SOL     OW33730   3.571   4.109   8.829
 7405SOL    HW133731   3.644   4.178   8.833
 7405SOL    HW233732   3.599   4.034   8.770
 7406SOL     OW33733   2.534   3.927   8.937
 7406SOL    HW133734   2.624   3.911   8.897
 7406SOL    HW233735   2.542   3.932   9.036
 7407SOL     OW33736   1.937   4.069   7.481
 7407SOL    HW133737   1.845   4.041   7.452
 7407SOL    HW233738   1.968   4.146   7.425
 7408SOL     OW33739   3.302   4.580   8.846
 7408SOL    HW133740   3.245   4.632   8.783
 7408SOL    HW233741   3.398   4.592   8.822
 7409SOL     OW33742   1.934   3.890   7.766
 7409SOL    HW133743   1.917   3.973   7.712
 7409SOL    HW233744   2.024   3.853   7.744
 7410SOL     OW33745   3.045   5.059   7.567
 7410SOL    HW133746   2.946   5.048   7.569
 7410SOL    HW233747   3.079   5.074   7.660
 7411SOL     OW33748   2.475   4.566   8.879
 7411SOL    HW133749   2.531   4.647   8.862
 7411SOL    HW233750   2.534   4.486   8.882
 7412SOL     OW33751   2.578   4.289   9.156
 7412SOL    HW133752   2.597   4.354   9.230
 7412SOL    HW233753   2.638   4.209   9.165
 7413SOL     OW33754   3.536   4.607   8.702
 7413SOL    HW133755   3.509   4.518   8.665
 7413SOL    HW233756   3.537   4.675   8.629
 7414SOL     OW33757   3.087   4.049   7.897
 7414SOL    HW133758   3.152   3.975   7.886
 7414SOL    HW233759   3.107   4.099   7.981
 7415SOL     OW33760   2.456   4.469   8.100
 7415SOL    HW133761   2.506   4.554   8.081
 7415SOL    HW233762   2.368   4.471   8.052
 7416SOL     OW33763   3.639   4.066   9.090
 7416SOL    HW133764   3.622   4.097   8.996
 7416SOL    HW233765   3.555   4.029   9.128
 7417SOL     OW33766   3.592   4.658   8.965
 7417SOL    HW133767   3.630   4.749   8.980
 7417SOL    HW233768   3.584   4.641   8.866
 7418SOL     OW33769   2.721   4.680   8.309
 7418SOL    HW133770   2.775   4.611   8.357
 7418SOL    HW233771   2.689   4.749   8.375
 7419SOL     OW33772   2.945   4.708   7.535
 7419SOL    HW133773   2.922   4.761   7.453
 7419SOL    HW233774   3.026   4.652   7.516
 7420SOL     OW33775   1.941   4.964   8.101
 7420SOL    HW133776   1.940   4.917   8.189
 7420SOL    HW233777   2.023   4.936   8.050
 7421SOL     OW33778   3.686   3.916   8.675
 7421SOL    HW133779   3.682   3.826   8.719
 7421SOL    HW233780   3.689   3.905   8.576
 7422SOL     OW33781   2.290   4.148   7.968
 7422SOL    HW133782   2.320   4.076   7.906
 7422SOL    HW233783   2.251   4.108   8.051
 7423SOL     OW33784   2.179   4.271   8.728
 7423SOL    HW133785   2.217   4.212   8.800
 7423SOL    HW233786   2.219   4.245   8.640
 7424SOL     OW33787   3.286   3.938   8.560
 7424SOL    HW133788   3.338   3.873   8.615
 7424SOL    HW233789   3.237   4.001   8.621
 7425SOL     OW33790   2.863   3.758   8.602
 7425SOL    HW133791   2.800   3.686   8.571
 7425SOL    HW233792   2.956   3.722   8.602
 7426SOL     OW33793   3.214   3.776   7.616
 7426SOL    HW133794   3.249   3.735   7.532
 7426SOL    HW233795   3.124   3.738   7.636
 7427SOL     OW33796   3.162   4.177   8.139
 7427SOL    HW133797   3.103   4.257   8.143
 7427SOL    HW233798   3.177   4.142   8.232
 7428SOL     OW33799   3.455   3.945   8.330
 7428SOL    HW133800   3.371   3.944   8.384
 7428SOL    HW233801   3.457   4.028   8.274
 7429SOL     OW33802   1.901   4.801   7.748
 7429SOL    HW133803   2.000   4.790   7.739
 7429SOL    HW233804   1.861   4.715   7.780
 7430SOL     OW33805   3.617   4.331   9.541
 7430SOL    HW133806   3.605   4.318   9.442
 7430SOL    HW233807   3.587   4.250   9.590
 7431SOL     OW33808   2.630   4.868  10.333
 7431SOL    HW133809   2.552   4.885  10.393
 7431SOL    HW233810   2.664   4.955  10.297
 7432SOL     OW33811   2.547   4.736   9.975
 7432SOL    HW133812   2.616   4.720  10.045
 7432SOL    HW233813   2.474   4.793  10.013
 7433SOL     OW33814   3.465   4.171  10.047
 7433SOL    HW133815   3.391   4.217   9.997
 7433SOL    HW233816   3.516   4.239  10.100
 7434SOL     OW33817   2.671   3.728   9.812
 7434SOL    HW133818   2.711   3.819   9.803
 7434SOL    HW233819   2.571   3.736   9.818
 7435SOL     OW33820   3.387   4.723   9.500
 7435SOL    HW133821   3.324   4.647   9.513
 7435SOL    HW233822   3.435   4.741   9.586
 7436SOL     OW33823   3.143   4.069  10.254
 7436SOL    HW133824   3.057   4.019  10.241
 7436SOL    HW233825   3.205   4.015  10.310
 7437SOL     OW33826   3.256   4.193  10.984
 7437SOL    HW133827   3.236   4.236  11.072
 7437SOL    HW233828   3.334   4.131  10.993
 7438SOL     OW33829   1.938   4.535  10.099
 7438SOL    HW133830   2.037   4.523  10.108
 7438SOL    HW233831   1.914   4.630  10.120
 7439SOL     OW33832   2.727   4.072   9.505
 7439SOL    HW133833   2.786   4.135   9.456
 7439SOL    HW233834   2.746   3.978   9.476
 7440SOL     OW33835   2.412   3.920  10.195
 7440SOL    HW133836   2.407   3.915  10.295
 7440SOL    HW233837   2.414   4.016  10.166
 7441SOL     OW33838   3.320   4.459  10.038
 7441SOL    HW133839   3.315   4.394  10.113
 7441SOL    HW233840   3.400   4.518  10.051
 7442SOL     OW33841   3.409   3.946  11.039
 7442SOL    HW133842   3.404   3.983  11.131
 7442SOL    HW233843   3.337   3.877  11.027
 7443SOL     OW33844   2.476   3.846   9.427
 7443SOL    HW133845   2.574   3.824   9.434
 7443SOL    HW233846   2.445   3.829   9.334
 7444SOL     OW33847   2.797   3.960   9.790
 7444SOL    HW133848   2.749   4.001   9.712
 7444SOL    HW233849   2.896   3.958   9.771
 7445SOL     OW33850   2.894   4.273   9.326
 7445SOL    HW133851   2.853   4.355   9.287
 7445SOL    HW233852   2.958   4.299   9.399
 7446SOL     OW33853   2.423   3.946  10.457
 7446SOL    HW133854   2.461   3.862  10.494
 7446SOL    HW233855   2.335   3.965  10.501
 7447SOL     OW33856   2.879   3.763  10.063
 7447SOL    HW133857   2.807   3.768   9.994
 7447SOL    HW233858   2.855   3.694  10.132
 7448SOL     OW33859   3.719   4.557   9.687
 7448SOL    HW133860   3.761   4.493   9.751
 7448SOL    HW233861   3.681   4.506   9.609
 7449SOL     OW33862   3.252   4.299   9.388
 7449SOL    HW133863   3.198   4.278   9.469
 7449SOL    HW233864   3.343   4.258   9.397
 7450SOL     OW33865   2.777   3.813  10.712
 7450SOL    HW133866   2.802   3.793  10.617
 7450SOL    HW233867   2.849   3.869  10.754
 7451SOL     OW33868   3.136   4.110  10.572
 7451SOL    HW133869   3.157   4.184  10.636
 7451SOL    HW233870   3.047   4.127  10.529
 7452SOL     OW33871   3.444   4.363   9.782
 7452SOL    HW133872   3.413   4.424   9.855
 7452SOL    HW233873   3.494   4.415   9.713
 7453SOL     OW33874   2.169   3.937  10.541
 7453SOL    HW133875   2.146   3.974  10.631
 7453SOL    HW233876   2.139   3.842  10.535
 7454SOL     OW33877   3.484   4.091   9.684
 7454SOL    HW133878   3.486   4.015   9.748
 7454SOL    HW233879   3.436   4.168   9.724
 7455SOL     OW33880   2.212   4.622  11.114
 7455SOL    HW133881   2.288   4.666  11.162
 7455SOL    HW233882   2.247   4.575  11.032
 7456SOL     OW33883   3.402   3.998   9.435
 7456SOL    HW133884   3.341   3.923   9.458
 7456SOL    HW233885   3.424   4.050   9.518
 7457SOL     OW33886   3.000   4.104  10.988
 7457SOL    HW133887   2.955   4.167  11.052
 7457SOL    HW233888   3.093   4.135  10.971
 7458SOL     OW33889   3.022   3.931  10.787
 7458SOL    HW133890   3.022   3.995  10.864
 7458SOL    HW233891   3.050   3.979  10.704
 7459SOL     OW33892   2.864   4.520  10.548
 7459SOL    HW133893   2.905   4.488  10.634
 7459SOL    HW233894   2.768   4.493  10.545
 7460SOL     OW33895   1.902   4.268  10.424
 7460SOL    HW133896   1.987   4.235  10.383
 7460SOL    HW233897   1.915   4.283  10.522
 7461SOL     OW33898   2.677   4.296   9.635
 7461SOL    HW133899   2.684   4.207   9.589
 7461SOL    HW233900   2.583   4.330   9.627
 7462SOL     OW33901   3.571   4.109  10.691
 7462SOL    HW133902   3.644   4.178  10.695
 7462SOL    HW233903   3.599   4.034  10.632
 7463SOL     OW33904   3.536   4.607  10.564
 7463SOL    HW133905   3.509   4.518  10.527
 7463SOL    HW233906   3.537   4.675  10.491
 7464SOL     OW33907   2.721   4.680  10.171
 7464SOL    HW133908   2.775   4.611  10.219
 7464SOL    HW233909   2.689   4.749  10.237
 7465SOL     OW33910   3.286   3.938  10.422
 7465SOL    HW133911   3.338   3.873  10.477
 7465SOL    HW233912   3.237   4.001  10.483
 7466SOL     OW33913   2.863   3.758  10.464
 7466SOL    HW133914   2.800   3.686  10.433
 7466SOL    HW233915   2.956   3.722  10.464
 7467SOL     OW33916   3.214   3.776   9.478
 7467SOL    HW133917   3.249   3.735   9.394
 7467SOL    HW233918   3.124   3.738   9.498
 7468SOL     OW33919   2.092   4.352  11.285
 7468SOL    HW133920   1.999   4.350  11.322
 7468SOL    HW233921   2.093   4.313  11.193
 7469SOL     OW33922   1.881   4.092  11.819
 7469SOL    HW133923   1.799   4.135  11.858
 7469SOL    HW233924   1.853   4.019  11.756
 7470SOL     OW33925   2.997   4.427  11.889
 7470SOL    HW133926   3.054   4.505  11.864
 7470SOL    HW233927   2.937   4.453  11.965
 7471SOL     OW33928   3.617   4.331  11.403
 7471SOL    HW133929   3.605   4.318  11.304
 7471SOL    HW233930   3.587   4.250  11.452
 7472SOL     OW33931   2.712   4.522  12.995
 7472SOL    HW133932   2.708   4.598  13.060
 7472SOL    HW233933   2.734   4.558  12.904
 7473SOL     OW33934   3.465   4.171  11.909
 7473SOL    HW133935   3.391   4.217  11.859
 7473SOL    HW233936   3.516   4.239  11.962
 7474SOL     OW33937   2.102   4.815  12.058
 7474SOL    HW133938   2.116   4.731  12.110
 7474SOL    HW233939   2.047   4.879  12.113
 7475SOL     OW33940   2.468   4.688  11.295
 7475SOL    HW133941   2.475   4.772  11.241
 7475SOL    HW233942   2.514   4.701  11.383
 7476SOL     OW33943   3.456   3.838  12.652
 7476SOL    HW133944   3.438   3.905  12.580
 7476SOL    HW233945   3.453   3.884  12.741
 7477SOL     OW33946   2.671   3.728  11.674
 7477SOL    HW133947   2.711   3.819  11.665
 7477SOL    HW233948   2.571   3.736  11.680
 7478SOL     OW33949   2.059   4.700  12.436
 7478SOL    HW133950   2.148   4.655  12.422
 7478SOL    HW233951   1.986   4.635  12.417
 7479SOL     OW33952   3.387   4.723  11.362
 7479SOL    HW133953   3.324   4.647  11.375
 7479SOL    HW233954   3.435   4.741  11.448
 7480SOL     OW33955   2.669   4.329  12.637
 7480SOL    HW133956   2.622   4.326  12.726
 7480SOL    HW233957   2.618   4.274  12.571
 7481SOL     OW33958   3.256   4.193  12.846
 7481SOL    HW133959   3.236   4.236  12.934
 7481SOL    HW233960   3.334   4.131  12.855
 7482SOL     OW33961   3.262   3.831  11.598
 7482SOL    HW133962   3.238   3.794  11.508
 7482SOL    HW233963   3.361   3.847  11.602
 7483SOL     OW33964   3.409   3.946  12.901
 7483SOL    HW133965   3.404   3.983  12.993
 7483SOL    HW233966   3.337   3.877  12.889
 7484SOL     OW33967   2.643   3.988  12.921
 7484SOL    HW133968   2.710   3.927  12.964
 7484SOL    HW233969   2.570   4.007  12.986
 7485SOL     OW33970   3.213   4.314  12.605
 7485SOL    HW133971   3.241   4.271  12.690
 7485SOL    HW233972   3.238   4.410  12.606
 7486SOL     OW33973   2.159   3.759  11.343
 7486SOL    HW133974   2.208   3.843  11.322
 7486SOL    HW233975   2.221   3.694  11.388
 7487SOL     OW33976   2.938   4.407  12.636
 7487SOL    HW133977   2.858   4.346  12.639
 7487SOL    HW233978   3.019   4.354  12.612
 7488SOL     OW33979   2.894   4.273  11.188
 7488SOL    HW133980   2.853   4.355  11.149
 7488SOL    HW233981   2.958   4.299  11.261
 7489SOL     OW33982   3.252   4.299  11.250
 7489SOL    HW133983   3.198   4.278  11.331
 7489SOL    HW233984   3.343   4.258  11.259
 7490SOL     OW33985   2.777   3.813  12.574
 7490SOL    HW133986   2.802   3.793  12.479
 7490SOL    HW233987   2.849   3.869  12.616
 7491SOL     OW33988   2.272   4.537  12.423
 7491SOL    HW133989   2.358   4.549  12.473
 7491SOL    HW233990   2.230   4.450  12.450
 7492SOL     OW33991   3.136   4.110  12.434
 7492SOL    HW133992   3.157   4.184  12.498
 7492SOL    HW233993   3.047   4.127  12.391
 7493SOL     OW33994   3.449   4.503  12.842
 7493SOL    HW133995   3.357   4.541  12.837
 7493SOL    HW233996   3.509   4.550  12.777
 7494SOL     OW33997   2.875   3.829  12.942
 7494SOL    HW133998   2.881   3.914  12.890
 7494SOL    HW233999   2.907   3.753  12.885
 7495SOL     OW34000   3.222   4.586  12.217
 7495SOL    HW134001   3.147   4.586  12.151
 7495SOL    HW234002   3.259   4.494  12.226
 7496SOL     OW34003   2.594   4.358  12.236
 7496SOL    HW134004   2.653   4.332  12.160
 7496SOL    HW234005   2.566   4.454  12.225
 7497SOL     OW34006   2.169   3.787  11.790
 7497SOL    HW134007   2.158   3.881  11.823
 7497SOL    HW234008   2.164   3.724  11.867
 7498SOL     OW34009   2.212   4.622  12.976
 7498SOL    HW134010   2.288   4.666  13.024
 7498SOL    HW234011   2.247   4.575  12.894
 7499SOL     OW34012   2.181   4.534  12.121
 7499SOL    HW134013   2.274   4.570  12.126
 7499SOL    HW234014   2.175   4.449  12.173
 7500SOL     OW34015   3.000   4.104  12.850
 7500SOL    HW134016   2.955   4.167  12.914
 7500SOL    HW234017   3.093   4.135  12.833
 7501SOL     OW34018   3.022   3.931  12.649
 7501SOL    HW134019   3.022   3.995  12.726
 7501SOL    HW234020   3.050   3.979  12.566
 7502SOL     OW34021   3.231   4.674  12.832
 7502SOL    HW134022   3.270   4.763  12.852
 7502SOL    HW234023   3.241   4.654  12.735
 7503SOL     OW34024   2.021   4.861  12.638
 7503SOL    HW134025   2.043   4.800  12.714
 7503SOL    HW234026   2.031   4.812  12.552
 7504SOL     OW34027   3.164   4.579  11.481
 7504SOL    HW134028   3.078   4.548  11.523
 7504SOL    HW234029   3.160   4.565  11.382
 7505SOL     OW34030   3.571   4.109  12.553
 7505SOL    HW134031   3.644   4.178  12.557
 7505SOL    HW234032   3.599   4.034  12.494
 7506SOL     OW34033   2.534   3.927  12.661
 7506SOL    HW134034   2.624   3.911  12.621
 7506SOL    HW234035   2.542   3.932  12.760
 7507SOL     OW34036   2.578   4.289  12.880
 7507SOL    HW134037   2.597   4.354  12.954
 7507SOL    HW234038   2.638   4.209  12.889
 7508SOL     OW34039   3.639   4.066  12.814
 7508SOL    HW134040   3.622   4.097  12.720
 7508SOL    HW234041   3.555   4.029  12.852
 7509SOL     OW34042   3.592   4.658  12.689
 7509SOL    HW134043   3.630   4.749  12.704
 7509SOL    HW234044   3.584   4.641  12.590
 7510SOL     OW34045   3.686   3.916  12.399
 7510SOL    HW134046   3.682   3.826  12.443
 7510SOL    HW234047   3.689   3.905  12.300
 7511SOL     OW34048   2.863   3.758  12.326
 7511SOL    HW134049   2.800   3.686  12.295
 7511SOL    HW234050   2.956   3.722  12.326
 7512SOL     OW34051   3.455   3.945  12.054
 7512SOL    HW134052   3.371   3.944  12.108
 7512SOL    HW234053   3.457   4.028  11.998
 7513SOL     OW34054   1.901   4.801  11.472
 7513SOL    HW134055   2.000   4.790  11.463
 7513SOL    HW234056   1.861   4.715  11.504
 7514SOL     OW34057   2.087   3.999  14.030
 7514SOL    HW134058   2.122   3.982  14.122
 7514SOL    HW234059   1.999   3.954  14.018
 7515SOL     OW34060   1.881   4.092  13.681
 7515SOL    HW134061   1.799   4.135  13.720
 7515SOL    HW234062   1.853   4.019  13.618
 7516SOL     OW34063   2.300   4.116  14.533
 7516SOL    HW134064   2.382   4.060  14.542
 7516SOL    HW234065   2.219   4.058  14.537
 7517SOL     OW34066   3.551   4.646  13.646
 7517SOL    HW134067   3.646   4.617  13.654
 7517SOL    HW234068   3.543   4.711  13.571
 7518SOL     OW34069   1.975   4.461  14.631
 7518SOL    HW134070   2.063   4.448  14.676
 7518SOL    HW234071   1.962   4.558  14.609
 7519SOL     OW34072   3.387   4.723  13.224
 7519SOL    HW134073   3.324   4.647  13.237
 7519SOL    HW234074   3.435   4.741  13.310
 7520SOL     OW34075   2.179   3.975  14.835
 7520SOL    HW134076   2.250   4.046  14.841
 7520SOL    HW234077   2.091   4.014  14.863
 7521SOL     OW34078   2.669   4.329  14.499
 7521SOL    HW134079   2.622   4.326  14.588
 7521SOL    HW234080   2.618   4.274  14.433
 7522SOL     OW34081   3.256   4.193  14.708
 7522SOL    HW134082   3.236   4.236  14.796
 7522SOL    HW234083   3.334   4.131  14.717
 7523SOL     OW34084   2.853   4.134  14.276
 7523SOL    HW134085   2.776   4.168  14.330
 7523SOL    HW234086   2.819   4.083  14.197
 7524SOL     OW34087   2.903   4.425  13.463
 7524SOL    HW134088   2.929   4.421  13.559
 7524SOL    HW234089   2.818   4.374  13.449
 7525SOL     OW34090   3.409   3.946  14.763
 7525SOL    HW134091   3.404   3.983  14.855
 7525SOL    HW234092   3.337   3.877  14.751
 7526SOL     OW34093   2.784   4.227  13.933
 7526SOL    HW134094   2.759   4.218  13.837
 7526SOL    HW234095   2.832   4.145  13.964
 7527SOL     OW34096   2.894   4.273  13.050
 7527SOL    HW134097   2.853   4.355  13.011
 7527SOL    HW234098   2.958   4.299  13.123
 7528SOL     OW34099   2.423   3.946  14.181
 7528SOL    HW134100   2.461   3.862  14.218
 7528SOL    HW234101   2.335   3.965  14.225
 7529SOL     OW34102   2.879   3.763  13.787
 7529SOL    HW134103   2.807   3.768  13.718
 7529SOL    HW234104   2.855   3.694  13.856
 7530SOL     OW34105   3.291   4.897  13.901
 7530SOL    HW134106   3.236   4.813  13.894
 7530SOL    HW234107   3.317   4.926  13.809
 7531SOL     OW34108   3.252   4.299  13.112
 7531SOL    HW134109   3.198   4.278  13.193
 7531SOL    HW234110   3.343   4.258  13.121
 7532SOL     OW34111   2.777   3.813  14.436
 7532SOL    HW134112   2.802   3.793  14.341
 7532SOL    HW234113   2.849   3.869  14.478
 7533SOL     OW34114   3.136   4.110  14.296
 7533SOL    HW134115   3.157   4.184  14.360
 7533SOL    HW234116   3.047   4.127  14.253
 7534SOL     OW34117   3.444   4.363  13.506
 7534SOL    HW134118   3.413   4.424  13.579
 7534SOL    HW234119   3.494   4.415  13.437
 7535SOL     OW34120   2.366   3.774  14.774
 7535SOL    HW134121   2.324   3.717  14.704
 7535SOL    HW234122   2.300   3.843  14.806
 7536SOL     OW34123   2.169   3.937  14.265
 7536SOL    HW134124   2.146   3.974  14.355
 7536SOL    HW234125   2.139   3.842  14.259
 7537SOL     OW34126   2.594   4.358  14.098
 7537SOL    HW134127   2.653   4.332  14.022
 7537SOL    HW234128   2.566   4.454  14.087
 7538SOL     OW34129   2.212   4.622  14.838
 7538SOL    HW134130   2.288   4.666  14.886
 7538SOL    HW234131   2.247   4.575  14.756
 7539SOL     OW34132   3.165   4.562  13.076
 7539SOL    HW134133   3.199   4.469  13.091
 7539SOL    HW234134   3.183   4.589  12.981
 7540SOL     OW34135   2.181   4.534  13.983
 7540SOL    HW134136   2.274   4.570  13.988
 7540SOL    HW234137   2.175   4.449  14.035
 7541SOL     OW34138   2.201   4.233  14.040
 7541SOL    HW134139   2.149   4.150  14.023
 7541SOL    HW234140   2.278   4.238  13.976
 7542SOL     OW34141   3.022   3.931  14.511
 7542SOL    HW134142   3.022   3.995  14.588
 7542SOL    HW234143   3.050   3.979  14.428
 7543SOL     OW34144   2.864   4.520  14.272
 7543SOL    HW134145   2.905   4.488  14.358
 7543SOL    HW234146   2.768   4.493  14.269
 7544SOL     OW34147   2.051   4.244  14.756
 7544SOL    HW134148   2.110   4.204  14.686
 7544SOL    HW234149   1.993   4.315  14.715
 7545SOL     OW34150   2.533   4.188  14.303
 7545SOL    HW134151   2.499   4.099  14.273
 7545SOL    HW234152   2.559   4.242  14.223
 7546SOL     OW34153   3.164   4.579  13.343
 7546SOL    HW134154   3.078   4.548  13.385
 7546SOL    HW234155   3.160   4.565  13.244
 7547SOL     OW34156   3.142   4.651  13.706
 7547SOL    HW134157   3.202   4.570  13.708
 7547SOL    HW234158   3.182   4.720  13.646
 7548SOL     OW34159   2.778   4.634  13.325
 7548SOL    HW134160   2.841   4.672  13.257
 7548SOL    HW234161   2.818   4.551  13.364
 7549SOL     OW34162   2.876   3.960  14.005
 7549SOL    HW134163   2.868   3.924  13.912
 7549SOL    HW234164   2.874   3.884  14.070
 7550SOL     OW34165   1.937   4.069  13.067
 7550SOL    HW134166   1.845   4.041  13.038
 7550SOL    HW234167   1.968   4.146  13.011
 7551SOL     OW34168   1.934   3.890  13.352
 7551SOL    HW134169   1.917   3.973  13.298
 7551SOL    HW234170   2.024   3.853  13.330
 7552SOL     OW34171   3.087   4.049  13.483
 7552SOL    HW134172   3.152   3.975  13.472
 7552SOL    HW234173   3.107   4.099  13.567
 7553SOL     OW34174   3.639   4.066  14.676
 7553SOL    HW134175   3.622   4.097  14.582
 7553SOL    HW234176   3.555   4.029  14.714
 7554SOL     OW34177   2.945   4.708  13.121
 7554SOL    HW134178   2.922   4.761  13.039
 7554SOL    HW234179   3.026   4.652  13.102
 7555SOL     OW34180   2.179   4.271  14.314
 7555SOL    HW134181   2.217   4.212  14.386
 7555SOL    HW234182   2.219   4.245  14.226
 7556SOL     OW34183   2.092   4.352  15.009
 7556SOL    HW134184   1.999   4.350  15.046
 7556SOL    HW234185   2.093   4.313  14.917
 7557SOL     OW34186   2.087   3.999  15.893
 7557SOL    HW134187   2.122   3.982  15.985
 7557SOL    HW234188   1.999   3.954  15.881
 7558SOL     OW34189   2.712   4.522  16.720
 7558SOL    HW134190   2.708   4.598  16.785
 7558SOL    HW234191   2.734   4.558  16.629
 7559SOL     OW34192   2.102   4.815  15.782
 7559SOL    HW134193   2.116   4.731  15.834
 7559SOL    HW234194   2.047   4.879  15.837
 7560SOL     OW34195   2.468   4.688  15.019
 7560SOL    HW134196   2.475   4.772  14.965
 7560SOL    HW234197   2.514   4.701  15.107
 7561SOL     OW34198   2.460   4.453  15.166
 7561SOL    HW134199   2.484   4.522  15.098
 7561SOL    HW234200   2.382   4.486  15.220
 7562SOL     OW34201   2.669   4.329  16.362
 7562SOL    HW134202   2.622   4.326  16.451
 7562SOL    HW234203   2.618   4.274  16.296
 7563SOL     OW34204   2.853   4.134  16.139
 7563SOL    HW134205   2.776   4.168  16.193
 7563SOL    HW234206   2.819   4.083  16.060
 7564SOL     OW34207   3.262   3.831  15.322
 7564SOL    HW134208   3.238   3.794  15.232
 7564SOL    HW234209   3.361   3.847  15.326
 7565SOL     OW34210   2.784   4.227  15.795
 7565SOL    HW134211   2.759   4.218  15.699
 7565SOL    HW234212   2.832   4.145  15.826
 7566SOL     OW34213   2.159   3.759  15.067
 7566SOL    HW134214   2.208   3.843  15.046
 7566SOL    HW234215   2.221   3.694  15.112
 7567SOL     OW34216   1.940   4.280  16.283
 7567SOL    HW134217   2.032   4.279  16.242
 7567SOL    HW234218   1.934   4.354  16.350
 7568SOL     OW34219   2.728   4.178  15.538
 7568SOL    HW134220   2.696   4.250  15.476
 7568SOL    HW234221   2.752   4.097  15.485
 7569SOL     OW34222   2.879   3.763  15.649
 7569SOL    HW134223   2.807   3.768  15.580
 7569SOL    HW234224   2.855   3.694  15.718
 7570SOL     OW34225   2.389   3.980  15.224
 7570SOL    HW134226   2.416   3.921  15.149
 7570SOL    HW234227   2.389   4.075  15.193
 7571SOL     OW34228   2.777   3.813  16.299
 7571SOL    HW134229   2.802   3.793  16.204
 7571SOL    HW234230   2.849   3.869  16.341
 7572SOL     OW34231   3.136   4.110  16.159
 7572SOL    HW134232   3.157   4.184  16.223
 7572SOL    HW234233   3.047   4.127  16.116
 7573SOL     OW34234   3.449   4.503  16.567
 7573SOL    HW134235   3.357   4.541  16.562
 7573SOL    HW234236   3.509   4.550  16.502
 7574SOL     OW34237   2.435   4.594  15.926
 7574SOL    HW134238   2.479   4.683  15.917
 7574SOL    HW234239   2.372   4.594  16.003
 7575SOL     OW34240   2.594   4.358  15.961
 7575SOL    HW134241   2.653   4.332  15.885
 7575SOL    HW234242   2.566   4.454  15.950
 7576SOL     OW34243   2.169   3.787  15.514
 7576SOL    HW134244   2.158   3.881  15.547
 7576SOL    HW234245   2.164   3.724  15.591
 7577SOL     OW34246   2.885   4.490  15.863
 7577SOL    HW134247   2.900   4.511  15.959
 7577SOL    HW234248   2.855   4.395  15.854
 7578SOL     OW34249   2.212   4.622  16.701
 7578SOL    HW134250   2.288   4.666  16.749
 7578SOL    HW234251   2.247   4.575  16.619
 7579SOL     OW34252   2.864   4.520  16.135
 7579SOL    HW134253   2.905   4.488  16.221
 7579SOL    HW234254   2.768   4.493  16.132
 7580SOL     OW34255   1.902   4.268  16.011
 7580SOL    HW134256   1.987   4.235  15.970
 7580SOL    HW234257   1.915   4.283  16.109
 7581SOL     OW34258   3.231   4.674  16.557
 7581SOL    HW134259   3.270   4.763  16.577
 7581SOL    HW234260   3.241   4.654  16.460
 7582SOL     OW34261   2.533   4.188  16.166
 7582SOL    HW134262   2.499   4.099  16.136
 7582SOL    HW234263   2.559   4.242  16.086
 7583SOL     OW34264   2.335   4.224  15.087
 7583SOL    HW134265   2.396   4.304  15.091
 7583SOL    HW234266   2.240   4.255  15.094
 7584SOL     OW34267   3.588   3.859  15.419
 7584SOL    HW134268   3.661   3.842  15.352
 7584SOL    HW234269   3.557   3.772  15.457
 7585SOL     OW34270   2.125   4.050  15.616
 7585SOL    HW134271   2.046   4.101  15.582
 7585SOL    HW234272   2.116   4.035  15.714
 7586SOL     OW34273   2.876   3.960  15.868
 7586SOL    HW134274   2.868   3.924  15.775
 7586SOL    HW234275   2.874   3.884  15.933
 7587SOL     OW34276   1.937   4.069  14.929
 7587SOL    HW134277   1.845   4.041  14.900
 7587SOL    HW234278   1.968   4.146  14.873
 7588SOL     OW34279   1.934   3.890  15.214
 7588SOL    HW134280   1.917   3.973  15.160
 7588SOL    HW234281   2.024   3.853  15.192
 7589SOL     OW34282   3.045   5.059  15.015
 7589SOL    HW134283   2.946   5.048  15.017
 7589SOL    HW234284   3.079   5.074  15.108
 7590SOL     OW34285   3.592   4.658  16.414
 7590SOL    HW134286   3.630   4.749  16.429
 7590SOL    HW234287   3.584   4.641  16.315
 7591SOL     OW34288   3.286   3.938  16.009
 7591SOL    HW134289   3.338   3.873  16.064
 7591SOL    HW234290   3.237   4.001  16.070
 7592SOL     OW34291   2.863   3.758  16.051
 7592SOL    HW134292   2.800   3.686  16.020
 7592SOL    HW234293   2.956   3.722  16.051
 7593SOL     OW34294   3.214   3.776  15.064
 7593SOL    HW134295   3.249   3.735  14.980
 7593SOL    HW234296   3.124   3.738  15.084
 7594SOL     OW34297   2.087   3.999  17.755
 7594SOL    HW134298   2.122   3.982  17.847
 7594SOL    HW234299   1.999   3.954  17.743
 7595SOL     OW34300   1.881   4.092  17.406
 7595SOL    HW134301   1.799   4.135  17.445
 7595SOL    HW234302   1.853   4.019  17.343
 7596SOL     OW34303   2.468   4.688  16.882
 7596SOL    HW134304   2.475   4.772  16.828
 7596SOL    HW234305   2.514   4.701  16.970
 7597SOL     OW34306   1.984   4.367  17.322
 7597SOL    HW134307   1.939   4.279  17.339
 7597SOL    HW234308   1.983   4.421  17.406
 7598SOL     OW34309   2.671   3.728  17.261
 7598SOL    HW134310   2.711   3.819  17.252
 7598SOL    HW234311   2.571   3.736  17.267
 7599SOL     OW34312   2.059   4.700  18.023
 7599SOL    HW134313   2.148   4.655  18.009
 7599SOL    HW234314   1.986   4.635  18.004
 7600SOL     OW34315   2.412   3.920  17.644
 7600SOL    HW134316   2.407   3.915  17.744
 7600SOL    HW234317   2.414   4.016  17.615
 7601SOL     OW34318   3.320   4.459  17.487
 7601SOL    HW134319   3.315   4.394  17.562
 7601SOL    HW234320   3.400   4.518  17.500
 7602SOL     OW34321   2.244   4.424  17.239
 7602SOL    HW134322   2.289   4.334  17.236
 7602SOL    HW234323   2.150   4.413  17.272
 7603SOL     OW34324   2.784   4.227  17.658
 7603SOL    HW134325   2.759   4.218  17.562
 7603SOL    HW234326   2.832   4.145  17.689
 7604SOL     OW34327   2.401   3.788  17.271
 7604SOL    HW134328   2.320   3.789  17.329
 7604SOL    HW234329   2.404   3.871  17.216
 7605SOL     OW34330   2.797   3.960  17.239
 7605SOL    HW134331   2.749   4.001  17.161
 7605SOL    HW234332   2.896   3.958  17.220
 7606SOL     OW34333   2.894   4.273  16.775
 7606SOL    HW134334   2.853   4.355  16.736
 7606SOL    HW234335   2.958   4.299  16.848
 7607SOL     OW34336   2.879   3.763  17.512
 7607SOL    HW134337   2.807   3.768  17.443
 7607SOL    HW234338   2.855   3.694  17.581
 7608SOL     OW34339   3.444   4.363  17.231
 7608SOL    HW134340   3.413   4.424  17.304
 7608SOL    HW234341   3.494   4.415  17.162
 7609SOL     OW34342   3.071   4.249  17.034
 7609SOL    HW134343   3.084   4.165  17.088
 7609SOL    HW234344   3.042   4.323  17.094
 7610SOL     OW34345   2.169   3.937  17.990
 7610SOL    HW134346   2.146   3.974  18.080
 7610SOL    HW234347   2.139   3.842  17.984
 7611SOL     OW34348   3.165   4.562  16.801
 7611SOL    HW134349   3.199   4.469  16.816
 7611SOL    HW234350   3.183   4.589  16.706
 7612SOL     OW34351   2.201   4.233  17.765
 7612SOL    HW134352   2.149   4.150  17.748
 7612SOL    HW234353   2.278   4.238  17.701
 7613SOL     OW34354   3.022   3.931  18.236
 7613SOL    HW134355   3.022   3.995  18.313
 7613SOL    HW234356   3.050   3.979  18.153
 7614SOL     OW34357   1.902   4.268  17.873
 7614SOL    HW134358   1.987   4.235  17.832
 7614SOL    HW234359   1.915   4.283  17.971
 7615SOL     OW34360   3.164   4.579  17.068
 7615SOL    HW134361   3.078   4.548  17.110
 7615SOL    HW234362   3.160   4.565  16.969
 7616SOL     OW34363   3.588   3.859  17.282
 7616SOL    HW134364   3.661   3.842  17.215
 7616SOL    HW234365   3.557   3.772  17.320
 7617SOL     OW34366   3.703   3.899  17.722
 7617SOL    HW134367   3.742   3.814  17.686
 7617SOL    HW234368   3.605   3.901  17.703
 7618SOL     OW34369   2.125   4.050  17.479
 7618SOL    HW134370   2.046   4.101  17.445
 7618SOL    HW234371   2.116   4.035  17.577
 7619SOL     OW34372   2.778   4.634  17.050
 7619SOL    HW134373   2.841   4.672  16.982
 7619SOL    HW234374   2.818   4.551  17.089
 7620SOL     OW34375   2.876   3.960  17.730
 7620SOL    HW134376   2.868   3.924  17.637
 7620SOL    HW234377   2.874   3.884  17.795
 7621SOL     OW34378   2.456   4.469  17.411
 7621SOL    HW134379   2.506   4.554  17.392
 7621SOL    HW234380   2.368   4.471  17.363
 7622SOL     OW34381   2.945   4.708  16.846
 7622SOL    HW134382   2.922   4.761  16.764
 7622SOL    HW234383   3.026   4.652  16.827
 7623SOL     OW34384   2.290   4.148  17.279
 7623SOL    HW134385   2.320   4.076  17.217
 7623SOL    HW234386   2.251   4.108  17.362
 7624SOL     OW34387   3.949   0.275   0.996
 7624SOL    HW134388   3.984   0.258   1.088
 7624SOL    HW234389   3.861   0.230   0.984
 7625SOL     OW34390   3.743   0.368   0.647
 7625SOL    HW134391   3.661   0.411   0.686
 7625SOL    HW234392   3.715   0.295   0.584
 7626SOL     OW34393   4.492   1.144   1.023
 7626SOL    HW134394   4.414   1.161   1.083
 7626SOL    HW234395   4.526   1.231   0.987
 7627SOL     OW34396   4.574   0.798   1.823
 7627SOL    HW134397   4.570   0.874   1.888
 7627SOL    HW234398   4.596   0.834   1.732
 7628SOL     OW34399   4.409   1.012   0.665
 7628SOL    HW134400   4.478   0.996   0.735
 7628SOL    HW234401   4.336   1.069   0.703
 7629SOL     OW34402   4.410   1.161   1.803
 7629SOL    HW134403   4.470   1.240   1.817
 7629SOL    HW234404   4.324   1.192   1.762
 7630SOL     OW34405   4.059   1.435   1.061
 7630SOL    HW134406   3.981   1.404   1.008
 7630SOL    HW234407   4.117   1.493   1.004
 7631SOL     OW34408   4.162   0.392   1.499
 7631SOL    HW134409   4.244   0.336   1.508
 7631SOL    HW234410   4.081   0.334   1.503
 7632SOL     OW34411   3.955   1.713   0.483
 7632SOL    HW134412   3.989   1.790   0.537
 7632SOL    HW234413   3.999   1.713   0.393
 7633SOL     OW34414   4.344   1.786   1.439
 7633SOL    HW134415   4.252   1.769   1.474
 7633SOL    HW234416   4.372   1.878   1.465
 7634SOL     OW34417   3.837   0.737   1.597
 7634SOL    HW134418   3.925   0.724   1.642
 7634SOL    HW234419   3.824   0.834   1.575
 7635SOL     OW34420   4.337   1.365   0.726
 7635SOL    HW134421   4.288   1.278   0.735
 7635SOL    HW234422   4.314   1.408   0.639
 7636SOL     OW34423   4.533   0.004   0.502
 7636SOL    HW134424   4.573   0.095   0.493
 7636SOL    HW234425   4.433   0.012   0.508
 7637SOL     OW34426   4.041   0.251   1.801
 7637SOL    HW134427   4.112   0.322   1.807
 7637SOL    HW234428   3.953   0.290   1.829
 7638SOL     OW34429   4.322   0.729   0.270
 7638SOL    HW134430   4.346   0.798   0.202
 7638SOL    HW234431   4.244   0.762   0.324
 7639SOL     OW34432   4.531   0.605   1.465
 7639SOL    HW134433   4.484   0.602   1.554
 7639SOL    HW234434   4.480   0.550   1.399
 7640SOL     OW34435   4.697   0.890   1.572
 7640SOL    HW134436   4.743   0.806   1.543
 7640SOL    HW234437   4.641   0.924   1.497
 7641SOL     OW34438   4.715   0.410   1.242
 7641SOL    HW134439   4.638   0.444   1.296
 7641SOL    HW234440   4.681   0.359   1.163
 7642SOL     OW34441   4.274   0.196   0.885
 7642SOL    HW134442   4.269   0.191   0.985
 7642SOL    HW234443   4.276   0.292   0.856
 7643SOL     OW34444   4.185   1.266   1.727
 7643SOL    HW134445   4.135   1.267   1.641
 7643SOL    HW234446   4.122   1.248   1.803
 7644SOL     OW34447   3.926   0.285   1.498
 7644SOL    HW134448   3.846   0.345   1.485
 7644SOL    HW234449   3.916   0.236   1.584
 7645SOL     OW34450   4.527   1.402   0.924
 7645SOL    HW134451   4.617   1.416   0.882
 7645SOL    HW234452   4.456   1.404   0.853
 7646SOL     OW34453   4.646   0.503   0.899
 7646SOL    HW134454   4.621   0.494   0.803
 7646SOL    HW234455   4.694   0.421   0.930
 7647SOL     OW34456   4.659   0.236   0.480
 7647SOL    HW134457   4.611   0.277   0.402
 7647SOL    HW234458   4.758   0.234   0.461
 7648SOL     OW34459   4.183   1.152   0.741
 7648SOL    HW134460   4.112   1.125   0.806
 7648SOL    HW234461   4.157   1.124   0.648
 7649SOL     OW34462   4.590   0.454   0.642
 7649SOL    HW134463   4.558   0.526   0.580
 7649SOL    HW234464   4.614   0.373   0.589
 7650SOL     OW34465   4.741   0.039   0.753
 7650SOL    HW134466   4.669   0.044   0.684
 7650SOL    HW234467   4.717  -0.030   0.822
 7651SOL     OW34468   4.704   1.116   1.719
 7651SOL    HW134469   4.605   1.122   1.729
 7651SOL    HW234470   4.727   1.036   1.663
 7652SOL     OW34471   4.429   1.050   0.368
 7652SOL    HW134472   4.415   1.057   0.467
 7652SOL    HW234473   4.513   0.999   0.350
 7653SOL     OW34474   4.091   1.100   0.501
 7653SOL    HW134475   4.084   1.183   0.445
 7653SOL    HW234476   4.095   1.020   0.441
 7654SOL     OW34477   4.290   0.537   0.865
 7654SOL    HW134478   4.302   0.603   0.791
 7654SOL    HW234479   4.336   0.571   0.948
 7655SOL     OW34480   4.078   1.510   1.329
 7655SOL    HW134481   4.057   1.466   1.242
 7655SOL    HW234482   4.175   1.536   1.332
 7656SOL     OW34483   4.747   0.766   0.966
 7656SOL    HW134484   4.762   0.787   1.062
 7656SOL    HW234485   4.717   0.671   0.957
 7657SOL     OW34486   4.704   1.573   1.700
 7657SOL    HW134487   4.684   1.617   1.612
 7657SOL    HW234488   4.743   1.482   1.684
 7658SOL     OW34489   4.074   0.898   1.804
 7658SOL    HW134490   4.150   0.942   1.852
 7658SOL    HW234491   4.109   0.851   1.722
 7659SOL     OW34492   4.228   1.568   0.910
 7659SOL    HW134493   4.294   1.642   0.919
 7659SOL    HW234494   4.272   1.489   0.868
 7660SOL     OW34495   3.913   0.520   1.722
 7660SOL    HW134496   3.972   0.480   1.652
 7660SOL    HW234497   3.855   0.591   1.681
 7661SOL     OW34498   3.976   1.564   1.744
 7661SOL    HW134499   3.946   1.621   1.820
 7661SOL    HW234500   3.969   1.467   1.770
 7662SOL     OW34501   4.654   1.678   1.465
 7662SOL    HW134502   4.630   1.660   1.370
 7662SOL    HW234503   4.684   1.772   1.475
 7663SOL     OW34504   3.883   1.137   1.466
 7663SOL    HW134505   3.905   1.076   1.542
 7663SOL    HW234506   3.893   1.088   1.380
 7664SOL     OW34507   4.412   1.662   1.716
 7664SOL    HW134508   4.356   1.743   1.725
 7664SOL    HW234509   4.464   1.666   1.630
 7665SOL     OW34510   3.854   1.794   1.851
 7665SOL    HW134511   3.813   1.720   1.904
 7665SOL    HW234512   3.918   1.845   1.909
 7666SOL     OW34513   5.004   0.927   0.672
 7666SOL    HW134514   5.064   0.846   0.674
 7666SOL    HW234515   5.044   0.996   0.612
 7667SOL     OW34516   3.987   0.326   0.720
 7667SOL    HW134517   3.908   0.377   0.686
 7667SOL    HW234518   3.978   0.311   0.818
 7668SOL     OW34519   4.640   0.910   0.291
 7668SOL    HW134520   4.703   0.948   0.223
 7668SOL    HW234521   4.680   0.827   0.330
 7669SOL     OW34522   4.096   1.288   1.490
 7669SOL    HW134523   4.083   1.381   1.456
 7669SOL    HW234524   4.012   1.236   1.477
 7670SOL     OW34525   4.763   1.098   0.696
 7670SOL    HW134526   4.693   1.051   0.750
 7670SOL    HW234527   4.822   1.030   0.653
 7671SOL     OW34528   4.738   0.236   0.971
 7671SOL    HW134529   4.730   0.200   0.878
 7671SOL    HW234530   4.736   0.160   1.036
 7672SOL     OW34531   3.979   1.348   0.290
 7672SOL    HW134532   3.883   1.349   0.263
 7672SOL    HW234533   3.991   1.401   0.374
 7673SOL     OW34534   3.829   1.013   1.726
 7673SOL    HW134535   3.752   0.980   1.780
 7673SOL    HW234536   3.914   0.983   1.768
 7674SOL     OW34537   4.396   0.203   1.489
 7674SOL    HW134538   4.486   0.187   1.449
 7674SOL    HW234539   4.404   0.208   1.588
 7675SOL     OW34540   4.440   0.565   1.708
 7675SOL    HW134541   4.459   0.630   1.782
 7675SOL    HW234542   4.500   0.485   1.717
 7676SOL     OW34543   4.114   1.741   1.560
 7676SOL    HW134544   4.023   1.782   1.558
 7676SOL    HW234545   4.107   1.647   1.592
 7677SOL     OW34546   4.318   0.745   0.652
 7677SOL    HW134547   4.368   0.830   0.633
 7677SOL    HW234548   4.230   0.747   0.604
 7678SOL     OW34549   4.385   1.790   0.953
 7678SOL    HW134550   4.339   1.878   0.940
 7678SOL    HW234551   4.484   1.802   0.946
 7679SOL     OW34552   3.945   1.314   1.844
 7679SOL    HW134553   3.880   1.241   1.823
 7679SOL    HW234554   3.949   1.328   1.942
 7680SOL     OW34555   4.396   1.391   1.624
 7680SOL    HW134556   4.318   1.341   1.662
 7680SOL    HW234557   4.393   1.486   1.655
 7681SOL     OW34558   4.494   1.330   0.301
 7681SOL    HW134559   4.448   1.243   0.318
 7681SOL    HW234560   4.585   1.327   0.342
 7682SOL     OW34561   3.954   0.628   1.975
 7682SOL    HW134562   3.861   0.626   2.012
 7682SOL    HW234563   3.955   0.589   1.883
 7683SOL     OW34564   3.949   0.275   2.858
 7683SOL    HW134565   3.984   0.258   2.950
 7683SOL    HW234566   3.861   0.230   2.846
 7684SOL     OW34567   3.743   0.368   2.509
 7684SOL    HW134568   3.661   0.411   2.548
 7684SOL    HW234569   3.715   0.295   2.446
 7685SOL     OW34570   4.293   1.275   3.027
 7685SOL    HW134571   4.200   1.268   2.990
 7685SOL    HW234572   4.304   1.364   3.071
 7686SOL     OW34573   4.492   1.144   2.885
 7686SOL    HW134574   4.414   1.161   2.945
 7686SOL    HW234575   4.526   1.231   2.849
 7687SOL     OW34576   4.574   0.798   3.685
 7687SOL    HW134577   4.570   0.874   3.750
 7687SOL    HW234578   4.596   0.834   3.594
 7688SOL     OW34579   4.409   1.012   2.527
 7688SOL    HW134580   4.478   0.996   2.597
 7688SOL    HW234581   4.336   1.069   2.565
 7689SOL     OW34582   4.410   1.161   3.665
 7689SOL    HW134583   4.470   1.240   3.679
 7689SOL    HW234584   4.324   1.192   3.624
 7690SOL     OW34585   4.059   1.435   2.923
 7690SOL    HW134586   3.981   1.404   2.870
 7690SOL    HW234587   4.117   1.493   2.866
 7691SOL     OW34588   4.162   0.392   3.361
 7691SOL    HW134589   4.244   0.336   3.370
 7691SOL    HW234590   4.081   0.334   3.365
 7692SOL     OW34591   3.955   1.713   2.345
 7692SOL    HW134592   3.989   1.790   2.399
 7692SOL    HW234593   3.999   1.713   2.255
 7693SOL     OW34594   3.954   1.434   2.400
 7693SOL    HW134595   3.928   1.530   2.400
 7693SOL    HW234596   3.883   1.380   2.445
 7694SOL     OW34597   3.964   1.091   2.748
 7694SOL    HW134598   3.978   1.007   2.800
 7694SOL    HW234599   3.909   1.155   2.803
 7695SOL     OW34600   4.344   1.786   3.301
 7695SOL    HW134601   4.252   1.769   3.336
 7695SOL    HW234602   4.372   1.878   3.327
 7696SOL     OW34603   4.330   0.964   1.985
 7696SOL    HW134604   4.337   1.048   1.931
 7696SOL    HW234605   4.376   0.977   2.073
 7697SOL     OW34606   3.846   0.643   2.425
 7697SOL    HW134607   3.801   0.555   2.442
 7697SOL    HW234608   3.845   0.697   2.509
 7698SOL     OW34609   3.751   1.596   1.979
 7698SOL    HW134610   3.732   1.500   2.000
 7698SOL    HW234611   3.718   1.654   2.054
 7699SOL     OW34612   3.837   0.737   3.459
 7699SOL    HW134613   3.925   0.724   3.504
 7699SOL    HW234614   3.824   0.834   3.437
 7700SOL     OW34615   4.337   1.365   2.588
 7700SOL    HW134616   4.288   1.278   2.597
 7700SOL    HW234617   4.314   1.408   2.501
 7701SOL     OW34618   4.533   0.004   2.364
 7701SOL    HW134619   4.573   0.095   2.355
 7701SOL    HW234620   4.433   0.012   2.370
 7702SOL     OW34621   3.921   0.976   3.126
 7702SOL    HW134622   4.010   0.931   3.112
 7702SOL    HW234623   3.848   0.911   3.107
 7703SOL     OW34624   4.041   0.251   3.663
 7703SOL    HW134625   4.112   0.322   3.669
 7703SOL    HW234626   3.953   0.290   3.691
 7704SOL     OW34627   4.322   0.729   2.132
 7704SOL    HW134628   4.346   0.798   2.064
 7704SOL    HW234629   4.244   0.762   2.186
 7705SOL     OW34630   4.531   0.605   3.327
 7705SOL    HW134631   4.484   0.602   3.416
 7705SOL    HW234632   4.480   0.550   3.261
 7706SOL     OW34633   4.697   0.890   3.434
 7706SOL    HW134634   4.743   0.806   3.405
 7706SOL    HW234635   4.641   0.924   3.359
 7707SOL     OW34636   4.715   0.410   3.104
 7707SOL    HW134637   4.638   0.444   3.158
 7707SOL    HW234638   4.681   0.359   3.025
 7708SOL     OW34639   3.800   0.811   2.651
 7708SOL    HW134640   3.899   0.799   2.660
 7708SOL    HW234641   3.776   0.906   2.672
 7709SOL     OW34642   3.854   1.821   3.433
 7709SOL    HW134643   3.844   1.806   3.532
 7709SOL    HW234644   3.768   1.857   3.397
 7710SOL     OW34645   4.589   0.348   2.057
 7710SOL    HW134646   4.648   0.411   2.008
 7710SOL    HW234647   4.608   0.254   2.028
 7711SOL     OW34648   4.274   0.196   2.747
 7711SOL    HW134649   4.269   0.191   2.847
 7711SOL    HW234650   4.276   0.292   2.718
 7712SOL     OW34651   4.732   1.456   2.339
 7712SOL    HW134652   4.686   1.528   2.287
 7712SOL    HW234653   4.728   1.476   2.437
 7713SOL     OW34654   4.075   1.801   2.715
 7713SOL    HW134655   4.125   1.715   2.721
 7713SOL    HW234656   4.140   1.878   2.712
 7714SOL     OW34657   4.045   0.943   2.104
 7714SOL    HW134658   4.127   0.982   2.062
 7714SOL    HW234659   4.018   0.861   2.055
 7715SOL     OW34660   4.185   1.266   3.589
 7715SOL    HW134661   4.135   1.267   3.503
 7715SOL    HW234662   4.122   1.248   3.665
 7716SOL     OW34663   3.926   0.285   3.360
 7716SOL    HW134664   3.846   0.345   3.347
 7716SOL    HW234665   3.916   0.236   3.446
 7717SOL     OW34666   4.188   1.743   2.185
 7717SOL    HW134667   4.221   1.782   2.271
 7717SOL    HW234668   4.264   1.736   2.120
 7718SOL     OW34669   3.973   1.785   3.103
 7718SOL    HW134670   4.030   1.720   3.153
 7718SOL    HW234671   3.957   1.752   3.010
 7719SOL     OW34672   4.106   0.700   2.342
 7719SOL    HW134673   4.151   0.610   2.339
 7719SOL    HW234674   4.012   0.689   2.375
 7720SOL     OW34675   4.338   0.122   1.979
 7720SOL    HW134676   4.436   0.100   1.986
 7720SOL    HW234677   4.307   0.105   1.886
 7721SOL     OW34678   4.505   0.264   3.611
 7721SOL    HW134679   4.572   0.203   3.654
 7721SOL    HW234680   4.432   0.283   3.676
 7722SOL     OW34681   4.612   1.514   3.057
 7722SOL    HW134682   4.589   1.489   2.963
 7722SOL    HW234683   4.673   1.445   3.096
 7723SOL     OW34684   4.527   1.402   2.786
 7723SOL    HW134685   4.617   1.416   2.744
 7723SOL    HW234686   4.456   1.404   2.715
 7724SOL     OW34687   4.646   0.503   2.761
 7724SOL    HW134688   4.621   0.494   2.665
 7724SOL    HW234689   4.694   0.421   2.792
 7725SOL     OW34690   4.263   0.064   2.374
 7725SOL    HW134691   4.182   0.065   2.432
 7725SOL    HW234692   4.266   0.147   2.319
 7726SOL     OW34693   4.021   0.035   2.033
 7726SOL    HW134694   4.070   0.119   2.012
 7726SOL    HW234695   4.083  -0.030   2.078
 7727SOL     OW34696   4.659   0.236   2.342
 7727SOL    HW134697   4.611   0.277   2.264
 7727SOL    HW234698   4.758   0.234   2.323
 7728SOL     OW34699   4.951   1.570   2.655
 7728SOL    HW134700   4.972   1.644   2.590
 7728SOL    HW234701   5.019   1.570   2.728
 7729SOL     OW34702   4.183   1.152   2.603
 7729SOL    HW134703   4.112   1.125   2.668
 7729SOL    HW234704   4.157   1.124   2.510
 7730SOL     OW34705   4.756   0.549   1.878
 7730SOL    HW134706   4.715   0.631   1.839
 7730SOL    HW234707   4.820   0.575   1.951
 7731SOL     OW34708   3.802   0.556   3.248
 7731SOL    HW134709   3.894   0.555   3.207
 7731SOL    HW234710   3.796   0.630   3.315
 7732SOL     OW34711   4.285   0.222   3.009
 7732SOL    HW134712   4.323   0.138   3.046
 7732SOL    HW234713   4.197   0.241   3.053
 7733SOL     OW34714   4.590   0.454   2.504
 7733SOL    HW134715   4.558   0.526   2.442
 7733SOL    HW234716   4.614   0.373   2.451
 7734SOL     OW34717   4.741   0.039   2.615
 7734SOL    HW134718   4.669   0.044   2.546
 7734SOL    HW234719   4.717  -0.030   2.684
 7735SOL     OW34720   4.212   1.385   2.036
 7735SOL    HW134721   4.125   1.370   2.083
 7735SOL    HW234722   4.195   1.411   1.941
 7736SOL     OW34723   4.251   0.256   2.190
 7736SOL    HW134724   4.278   0.197   2.115
 7736SOL    HW234725   4.251   0.351   2.159
 7737SOL     OW34726   4.639   0.089   3.264
 7737SOL    HW134727   4.664   0.069   3.169
 7737SOL    HW234728   4.711   0.145   3.306
 7738SOL     OW34729   4.704   1.116   3.581
 7738SOL    HW134730   4.605   1.122   3.591
 7738SOL    HW234731   4.727   1.036   3.525
 7739SOL     OW34732   4.429   1.050   2.230
 7739SOL    HW134733   4.415   1.057   2.329
 7739SOL    HW234734   4.513   0.999   2.212
 7740SOL     OW34735   4.134   0.813   3.113
 7740SOL    HW134736   4.220   0.825   3.163
 7740SOL    HW234737   4.092   0.726   3.140
 7741SOL     OW34738   3.788   1.564   3.193
 7741SOL    HW134739   3.742   1.646   3.159
 7741SOL    HW234740   3.886   1.583   3.202
 7742SOL     OW34741   4.091   1.100   2.363
 7742SOL    HW134742   4.084   1.183   2.307
 7742SOL    HW234743   4.095   1.020   2.303
 7743SOL     OW34744   4.290   0.537   2.727
 7743SOL    HW134745   4.302   0.603   2.653
 7743SOL    HW234746   4.336   0.571   2.810
 7744SOL     OW34747   4.078   1.510   3.191
 7744SOL    HW134748   4.057   1.466   3.104
 7744SOL    HW234749   4.175   1.536   3.194
 7745SOL     OW34750   4.126   0.751   3.460
 7745SOL    HW134751   4.194   0.806   3.413
 7745SOL    HW234752   4.166   0.663   3.487
 7746SOL     OW34753   4.737   0.105   3.632
 7746SOL    HW134754   4.743   0.190   3.580
 7746SOL    HW234755   4.769   0.029   3.575
 7747SOL     OW34756   4.228   0.050   3.602
 7747SOL    HW134757   4.186  -0.007   3.532
 7747SOL    HW234758   4.162   0.119   3.634
 7748SOL     OW34759   4.297   0.870   2.891
 7748SOL    HW134760   4.341   0.959   2.882
 7748SOL    HW234761   4.234   0.870   2.968
 7749SOL     OW34762   4.933   0.525   2.137
 7749SOL    HW134763   4.946   0.441   2.191
 7749SOL    HW234764   4.904   0.599   2.197
 7750SOL     OW34765   4.031   0.213   3.093
 7750SOL    HW134766   4.008   0.250   3.183
 7750SOL    HW234767   4.001   0.118   3.087
 7751SOL     OW34768   3.761   1.310   3.144
 7751SOL    HW134769   3.814   1.261   3.212
 7751SOL    HW234770   3.783   1.408   3.149
 7752SOL     OW34771   4.456   0.634   2.926
 7752SOL    HW134772   4.515   0.608   2.850
 7752SOL    HW234773   4.428   0.730   2.915
 7753SOL     OW34774   4.031   0.063   2.480
 7753SOL    HW134775   4.020   0.157   2.513
 7753SOL    HW234776   4.026   0.000   2.557
 7754SOL     OW34777   4.747   0.766   2.828
 7754SOL    HW134778   4.762   0.787   2.924
 7754SOL    HW234779   4.717   0.671   2.819
 7755SOL     OW34780   4.704   1.573   3.562
 7755SOL    HW134781   4.684   1.617   3.474
 7755SOL    HW234782   4.743   1.482   3.546
 7756SOL     OW34783   4.074   0.898   3.666
 7756SOL    HW134784   4.150   0.942   3.714
 7756SOL    HW234785   4.109   0.851   3.584
 7757SOL     OW34786   4.043   0.810   2.811
 7757SOL    HW134787   4.136   0.846   2.816
 7757SOL    HW234788   4.037   0.725   2.863
 7758SOL     OW34789   4.063   0.509   2.868
 7758SOL    HW134790   4.011   0.426   2.851
 7758SOL    HW234791   4.140   0.514   2.804
 7759SOL     OW34792   3.732   1.326   2.062
 7759SOL    HW134793   3.639   1.347   2.031
 7759SOL    HW234794   3.742   1.227   2.075
 7760SOL     OW34795   3.812   1.801   2.789
 7760SOL    HW134796   3.770   1.715   2.762
 7760SOL    HW234797   3.906   1.804   2.755
 7761SOL     OW34798   4.228   1.568   2.772
 7761SOL    HW134799   4.294   1.642   2.781
 7761SOL    HW234800   4.272   1.489   2.730
 7762SOL     OW34801   4.726   0.796   3.100
 7762SOL    HW134802   4.767   0.764   3.186
 7762SOL    HW234803   4.630   0.769   3.097
 7763SOL     OW34804   3.764   0.544   2.976
 7763SOL    HW134805   3.849   0.511   2.935
 7763SOL    HW234806   3.777   0.559   3.074
 7764SOL     OW34807   3.913   0.520   3.584
 7764SOL    HW134808   3.972   0.480   3.514
 7764SOL    HW234809   3.855   0.591   3.543
 7765SOL     OW34810   4.539   0.572   2.187
 7765SOL    HW134811   4.546   0.483   2.141
 7765SOL    HW234812   4.445   0.606   2.179
 7766SOL     OW34813   3.976   1.564   3.606
 7766SOL    HW134814   3.946   1.621   3.682
 7766SOL    HW234815   3.969   1.467   3.632
 7767SOL     OW34816   4.395   0.464   3.131
 7767SOL    HW134817   4.361   0.375   3.101
 7767SOL    HW234818   4.421   0.518   3.051
 7768SOL     OW34819   4.654   1.678   3.327
 7768SOL    HW134820   4.630   1.660   3.232
 7768SOL    HW234821   4.684   1.772   3.337
 7769SOL     OW34822   4.197   0.500   2.053
 7769SOL    HW134823   4.258   0.580   2.057
 7769SOL    HW234824   4.102   0.531   2.060
 7770SOL     OW34825   3.883   1.137   3.328
 7770SOL    HW134826   3.905   1.076   3.404
 7770SOL    HW234827   3.893   1.088   3.242
 7771SOL     OW34828   3.807   1.258   2.884
 7771SOL    HW134829   3.802   1.257   2.984
 7771SOL    HW234830   3.724   1.217   2.846
 7772SOL     OW34831   4.412   1.662   3.578
 7772SOL    HW134832   4.356   1.743   3.587
 7772SOL    HW234833   4.464   1.666   3.492
 7773SOL     OW34834   3.854   1.794   3.713
 7773SOL    HW134835   3.813   1.720   3.766
 7773SOL    HW234836   3.918   1.845   3.771
 7774SOL     OW34837   5.004   0.927   2.534
 7774SOL    HW134838   5.064   0.846   2.536
 7774SOL    HW234839   5.044   0.996   2.474
 7775SOL     OW34840   4.554   1.273   3.284
 7775SOL    HW134841   4.549   1.306   3.379
 7775SOL    HW234842   4.468   1.292   3.238
 7776SOL     OW34843   4.396   1.616   2.016
 7776SOL    HW134844   4.405   1.626   1.917
 7776SOL    HW234845   4.356   1.527   2.037
 7777SOL     OW34846   3.987   0.326   2.582
 7777SOL    HW134847   3.908   0.377   2.548
 7777SOL    HW234848   3.978   0.311   2.680
 7778SOL     OW34849   4.546   1.002   3.234
 7778SOL    HW134850   4.586   1.001   3.142
 7778SOL    HW234851   4.556   1.094   3.274
 7779SOL     OW34852   4.640   0.910   2.153
 7779SOL    HW134853   4.703   0.948   2.085
 7779SOL    HW234854   4.680   0.827   2.192
 7780SOL     OW34855   4.096   1.288   3.352
 7780SOL    HW134856   4.083   1.381   3.318
 7780SOL    HW234857   4.012   1.236   3.339
 7781SOL     OW34858   4.763   1.098   2.558
 7781SOL    HW134859   4.693   1.051   2.612
 7781SOL    HW234860   4.822   1.030   2.515
 7782SOL     OW34861   4.738   0.236   2.833
 7782SOL    HW134862   4.730   0.200   2.740
 7782SOL    HW234863   4.736   0.160   2.898
 7783SOL     OW34864   4.314   1.487   2.353
 7783SOL    HW134865   4.356   1.429   2.283
 7783SOL    HW234866   4.270   1.566   2.309
 7784SOL     OW34867   3.979   1.348   2.152
 7784SOL    HW134868   3.883   1.349   2.125
 7784SOL    HW234869   3.991   1.401   2.236
 7785SOL     OW34870   3.829   1.013   3.588
 7785SOL    HW134871   3.752   0.980   3.642
 7785SOL    HW234872   3.914   0.983   3.630
 7786SOL     OW34873   4.396   0.203   3.351
 7786SOL    HW134874   4.486   0.187   3.311
 7786SOL    HW234875   4.404   0.208   3.450
 7787SOL     OW34876   3.799   0.345   1.895
 7787SOL    HW134877   3.707   0.317   1.866
 7787SOL    HW234878   3.830   0.422   1.839
 7788SOL     OW34879   3.796   0.166   2.180
 7788SOL    HW134880   3.779   0.249   2.126
 7788SOL    HW234881   3.886   0.129   2.158
 7789SOL     OW34882   4.337   0.842   3.293
 7789SOL    HW134883   4.393   0.923   3.276
 7789SOL    HW234884   4.396   0.762   3.296
 7790SOL     OW34885   4.440   0.565   3.570
 7790SOL    HW134886   4.459   0.630   3.644
 7790SOL    HW234887   4.500   0.485   3.579
 7791SOL     OW34888   4.114   1.741   3.422
 7791SOL    HW134889   4.023   1.782   3.420
 7791SOL    HW234890   4.107   1.647   3.454
 7792SOL     OW34891   4.949   0.325   2.311
 7792SOL    HW134892   5.014   0.251   2.300
 7792SOL    HW234893   4.969   0.375   2.395
 7793SOL     OW34894   4.318   0.745   2.514
 7793SOL    HW134895   4.368   0.830   2.495
 7793SOL    HW234896   4.230   0.747   2.466
 7794SOL     OW34897   4.583   1.374   1.878
 7794SOL    HW134898   4.537   1.389   1.966
 7794SOL    HW234899   4.627   1.459   1.848
 7795SOL     OW34900   4.385   1.790   2.815
 7795SOL    HW134901   4.339   1.878   2.802
 7795SOL    HW234902   4.484   1.802   2.808
 7796SOL     OW34903   4.583   0.956   2.723
 7796SOL    HW134904   4.637   0.887   2.771
 7796SOL    HW234905   4.551   1.025   2.789
 7797SOL     OW34906   3.945   1.314   3.706
 7797SOL    HW134907   3.880   1.241   3.685
 7797SOL    HW234908   3.949   1.328   3.804
 7798SOL     OW34909   3.803   1.240   2.515
 7798SOL    HW134910   3.802   1.193   2.603
 7798SOL    HW234911   3.885   1.212   2.464
 7799SOL     OW34912   4.396   1.391   3.486
 7799SOL    HW134913   4.318   1.341   3.524
 7799SOL    HW234914   4.393   1.486   3.517
 7800SOL     OW34915   4.152   0.424   2.382
 7800SOL    HW134916   4.182   0.352   2.320
 7800SOL    HW234917   4.113   0.384   2.465
 7801SOL     OW34918   4.041   0.547   3.142
 7801SOL    HW134919   4.079   0.488   3.214
 7801SOL    HW234920   4.081   0.521   3.054
 7802SOL     OW34921   4.536   1.586   2.549
 7802SOL    HW134922   4.568   1.596   2.455
 7802SOL    HW234923   4.457   1.524   2.551
 7803SOL     OW34924   4.725   0.034   3.016
 7803SOL    HW134925   4.662  -0.038   2.985
 7803SOL    HW234926   4.818  -0.002   3.016
 7804SOL     OW34927   4.494   1.330   2.163
 7804SOL    HW134928   4.448   1.243   2.180
 7804SOL    HW234929   4.585   1.327   2.204
 7805SOL     OW34930   4.342   1.567   3.146
 7805SOL    HW134931   4.337   1.649   3.203
 7805SOL    HW234932   4.431   1.564   3.101
 7806SOL     OW34933   3.763   1.077   2.162
 7806SOL    HW134934   3.862   1.066   2.153
 7806SOL    HW234935   3.723   0.991   2.194
 7807SOL     OW34936   4.599   1.646   2.199
 7807SOL    HW134937   4.522   1.611   2.145
 7807SOL    HW234938   4.567   1.717   2.261
 7808SOL     OW34939   3.954   0.628   3.837
 7808SOL    HW134940   3.861   0.626   3.874
 7808SOL    HW234941   3.955   0.589   3.745
 7809SOL     OW34942   3.949   0.275   4.720
 7809SOL    HW134943   3.984   0.258   4.812
 7809SOL    HW234944   3.861   0.230   4.708
 7810SOL     OW34945   3.743   0.368   4.371
 7810SOL    HW134946   3.661   0.411   4.410
 7810SOL    HW234947   3.715   0.295   4.308
 7811SOL     OW34948   4.293   1.275   4.889
 7811SOL    HW134949   4.200   1.268   4.852
 7811SOL    HW234950   4.304   1.364   4.933
 7812SOL     OW34951   4.492   1.144   4.747
 7812SOL    HW134952   4.414   1.161   4.807
 7812SOL    HW234953   4.526   1.231   4.711
 7813SOL     OW34954   4.574   0.798   5.547
 7813SOL    HW134955   4.570   0.874   5.612
 7813SOL    HW234956   4.596   0.834   5.456
 7814SOL     OW34957   4.409   1.012   4.389
 7814SOL    HW134958   4.478   0.996   4.459
 7814SOL    HW234959   4.336   1.069   4.427
 7815SOL     OW34960   4.410   1.161   5.527
 7815SOL    HW134961   4.470   1.240   5.541
 7815SOL    HW234962   4.324   1.192   5.486
 7816SOL     OW34963   4.059   1.435   4.785
 7816SOL    HW134964   3.981   1.404   4.732
 7816SOL    HW234965   4.117   1.493   4.728
 7817SOL     OW34966   4.162   0.392   5.223
 7817SOL    HW134967   4.244   0.336   5.232
 7817SOL    HW234968   4.081   0.334   5.227
 7818SOL     OW34969   3.955   1.713   4.207
 7818SOL    HW134970   3.989   1.790   4.261
 7818SOL    HW234971   3.999   1.713   4.117
 7819SOL     OW34972   3.954   1.434   4.262
 7819SOL    HW134973   3.928   1.530   4.262
 7819SOL    HW234974   3.883   1.380   4.307
 7820SOL     OW34975   3.964   1.091   4.610
 7820SOL    HW134976   3.978   1.007   4.662
 7820SOL    HW234977   3.909   1.155   4.665
 7821SOL     OW34978   4.344   1.786   5.163
 7821SOL    HW134979   4.252   1.769   5.198
 7821SOL    HW234980   4.372   1.878   5.189
 7822SOL     OW34981   4.330   0.964   3.847
 7822SOL    HW134982   4.337   1.048   3.793
 7822SOL    HW234983   4.376   0.977   3.935
 7823SOL     OW34984   3.846   0.643   4.287
 7823SOL    HW134985   3.801   0.555   4.304
 7823SOL    HW234986   3.845   0.697   4.371
 7824SOL     OW34987   3.751   1.596   3.841
 7824SOL    HW134988   3.732   1.500   3.862
 7824SOL    HW234989   3.718   1.654   3.916
 7825SOL     OW34990   3.837   0.737   5.321
 7825SOL    HW134991   3.925   0.724   5.366
 7825SOL    HW234992   3.824   0.834   5.299
 7826SOL     OW34993   4.337   1.365   4.450
 7826SOL    HW134994   4.288   1.278   4.459
 7826SOL    HW234995   4.314   1.408   4.363
 7827SOL     OW34996   4.533   0.004   4.226
 7827SOL    HW134997   4.573   0.095   4.217
 7827SOL    HW234998   4.433   0.012   4.232
 7828SOL     OW34999   3.921   0.976   4.988
 7828SOL    HW135000   4.010   0.931   4.974
 7828SOL    HW235001   3.848   0.911   4.969
 7829SOL     OW35002   4.041   0.251   5.525
 7829SOL    HW135003   4.112   0.322   5.531
 7829SOL    HW235004   3.953   0.290   5.553
 7830SOL     OW35005   4.322   0.729   3.994
 7830SOL    HW135006   4.346   0.798   3.926
 7830SOL    HW235007   4.244   0.762   4.048
 7831SOL     OW35008   4.531   0.605   5.189
 7831SOL    HW135009   4.484   0.602   5.278
 7831SOL    HW235010   4.480   0.550   5.123
 7832SOL     OW35011   4.697   0.890   5.296
 7832SOL    HW135012   4.743   0.806   5.267
 7832SOL    HW235013   4.641   0.924   5.221
 7833SOL     OW35014   4.715   0.410   4.966
 7833SOL    HW135015   4.638   0.444   5.020
 7833SOL    HW235016   4.681   0.359   4.887
 7834SOL     OW35017   3.800   0.811   4.513
 7834SOL    HW135018   3.899   0.799   4.522
 7834SOL    HW235019   3.776   0.906   4.534
 7835SOL     OW35020   3.854   1.821   5.295
 7835SOL    HW135021   3.844   1.806   5.394
 7835SOL    HW235022   3.768   1.857   5.259
 7836SOL     OW35023   4.589   0.348   3.919
 7836SOL    HW135024   4.648   0.411   3.870
 7836SOL    HW235025   4.608   0.254   3.890
 7837SOL     OW35026   4.274   0.196   4.609
 7837SOL    HW135027   4.269   0.191   4.709
 7837SOL    HW235028   4.276   0.292   4.580
 7838SOL     OW35029   4.732   1.456   4.201
 7838SOL    HW135030   4.686   1.528   4.149
 7838SOL    HW235031   4.728   1.476   4.299
 7839SOL     OW35032   4.075   1.801   4.577
 7839SOL    HW135033   4.125   1.715   4.583
 7839SOL    HW235034   4.140   1.878   4.574
 7840SOL     OW35035   4.045   0.943   3.966
 7840SOL    HW135036   4.127   0.982   3.924
 7840SOL    HW235037   4.018   0.861   3.917
 7841SOL     OW35038   4.185   1.266   5.451
 7841SOL    HW135039   4.135   1.267   5.365
 7841SOL    HW235040   4.122   1.248   5.527
 7842SOL     OW35041   3.926   0.285   5.222
 7842SOL    HW135042   3.846   0.345   5.209
 7842SOL    HW235043   3.916   0.236   5.308
 7843SOL     OW35044   4.188   1.743   4.047
 7843SOL    HW135045   4.221   1.782   4.133
 7843SOL    HW235046   4.264   1.736   3.982
 7844SOL     OW35047   3.973   1.785   4.965
 7844SOL    HW135048   4.030   1.720   5.015
 7844SOL    HW235049   3.957   1.752   4.872
 7845SOL     OW35050   4.106   0.700   4.204
 7845SOL    HW135051   4.151   0.610   4.201
 7845SOL    HW235052   4.012   0.689   4.237
 7846SOL     OW35053   4.338   0.122   3.841
 7846SOL    HW135054   4.436   0.100   3.848
 7846SOL    HW235055   4.307   0.105   3.748
 7847SOL     OW35056   4.505   0.264   5.473
 7847SOL    HW135057   4.572   0.203   5.516
 7847SOL    HW235058   4.432   0.283   5.538
 7848SOL     OW35059   4.612   1.514   4.919
 7848SOL    HW135060   4.589   1.489   4.825
 7848SOL    HW235061   4.673   1.445   4.958
 7849SOL     OW35062   4.527   1.402   4.648
 7849SOL    HW135063   4.617   1.416   4.606
 7849SOL    HW235064   4.456   1.404   4.577
 7850SOL     OW35065   4.646   0.503   4.623
 7850SOL    HW135066   4.621   0.494   4.527
 7850SOL    HW235067   4.694   0.421   4.654
 7851SOL     OW35068   4.263   0.064   4.236
 7851SOL    HW135069   4.182   0.065   4.294
 7851SOL    HW235070   4.266   0.147   4.181
 7852SOL     OW35071   4.021   0.035   3.895
 7852SOL    HW135072   4.070   0.119   3.874
 7852SOL    HW235073   4.083  -0.030   3.940
 7853SOL     OW35074   4.659   0.236   4.204
 7853SOL    HW135075   4.611   0.277   4.126
 7853SOL    HW235076   4.758   0.234   4.185
 7854SOL     OW35077   4.951   1.570   4.517
 7854SOL    HW135078   4.972   1.644   4.452
 7854SOL    HW235079   5.019   1.570   4.590
 7855SOL     OW35080   4.183   1.152   4.465
 7855SOL    HW135081   4.112   1.125   4.530
 7855SOL    HW235082   4.157   1.124   4.372
 7856SOL     OW35083   4.756   0.549   3.740
 7856SOL    HW135084   4.715   0.631   3.701
 7856SOL    HW235085   4.820   0.575   3.813
 7857SOL     OW35086   3.802   0.556   5.110
 7857SOL    HW135087   3.894   0.555   5.069
 7857SOL    HW235088   3.796   0.630   5.177
 7858SOL     OW35089   4.285   0.222   4.871
 7858SOL    HW135090   4.323   0.138   4.908
 7858SOL    HW235091   4.197   0.241   4.915
 7859SOL     OW35092   4.590   0.454   4.366
 7859SOL    HW135093   4.558   0.526   4.304
 7859SOL    HW235094   4.614   0.373   4.313
 7860SOL     OW35095   4.741   0.039   4.477
 7860SOL    HW135096   4.669   0.044   4.408
 7860SOL    HW235097   4.717  -0.030   4.546
 7861SOL     OW35098   4.212   1.385   3.898
 7861SOL    HW135099   4.125   1.370   3.945
 7861SOL    HW235100   4.195   1.411   3.803
 7862SOL     OW35101   4.251   0.256   4.052
 7862SOL    HW135102   4.278   0.197   3.977
 7862SOL    HW235103   4.251   0.351   4.021
 7863SOL     OW35104   4.639   0.089   5.126
 7863SOL    HW135105   4.664   0.069   5.031
 7863SOL    HW235106   4.711   0.145   5.168
 7864SOL     OW35107   4.704   1.116   5.443
 7864SOL    HW135108   4.605   1.122   5.453
 7864SOL    HW235109   4.727   1.036   5.387
 7865SOL     OW35110   4.429   1.050   4.092
 7865SOL    HW135111   4.415   1.057   4.191
 7865SOL    HW235112   4.513   0.999   4.074
 7866SOL     OW35113   4.134   0.813   4.975
 7866SOL    HW135114   4.220   0.825   5.025
 7866SOL    HW235115   4.092   0.726   5.002
 7867SOL     OW35116   3.788   1.564   5.055
 7867SOL    HW135117   3.742   1.646   5.021
 7867SOL    HW235118   3.886   1.583   5.064
 7868SOL     OW35119   4.091   1.100   4.225
 7868SOL    HW135120   4.084   1.183   4.169
 7868SOL    HW235121   4.095   1.020   4.165
 7869SOL     OW35122   4.290   0.537   4.589
 7869SOL    HW135123   4.302   0.603   4.515
 7869SOL    HW235124   4.336   0.571   4.672
 7870SOL     OW35125   4.078   1.510   5.053
 7870SOL    HW135126   4.057   1.466   4.966
 7870SOL    HW235127   4.175   1.536   5.056
 7871SOL     OW35128   4.126   0.751   5.322
 7871SOL    HW135129   4.194   0.806   5.275
 7871SOL    HW235130   4.166   0.663   5.349
 7872SOL     OW35131   4.737   0.105   5.494
 7872SOL    HW135132   4.743   0.190   5.442
 7872SOL    HW235133   4.769   0.029   5.437
 7873SOL     OW35134   4.228   0.050   5.464
 7873SOL    HW135135   4.186  -0.007   5.394
 7873SOL    HW235136   4.162   0.119   5.496
 7874SOL     OW35137   4.297   0.870   4.753
 7874SOL    HW135138   4.341   0.959   4.744
 7874SOL    HW235139   4.234   0.870   4.830
 7875SOL     OW35140   4.933   0.525   3.999
 7875SOL    HW135141   4.946   0.441   4.053
 7875SOL    HW235142   4.904   0.599   4.059
 7876SOL     OW35143   4.031   0.213   4.955
 7876SOL    HW135144   4.008   0.250   5.045
 7876SOL    HW235145   4.001   0.118   4.949
 7877SOL     OW35146   3.761   1.310   5.006
 7877SOL    HW135147   3.814   1.261   5.074
 7877SOL    HW235148   3.783   1.408   5.011
 7878SOL     OW35149   4.456   0.634   4.788
 7878SOL    HW135150   4.515   0.608   4.712
 7878SOL    HW235151   4.428   0.730   4.777
 7879SOL     OW35152   4.031   0.063   4.342
 7879SOL    HW135153   4.020   0.157   4.375
 7879SOL    HW235154   4.026   0.000   4.419
 7880SOL     OW35155   4.747   0.766   4.690
 7880SOL    HW135156   4.762   0.787   4.786
 7880SOL    HW235157   4.717   0.671   4.681
 7881SOL     OW35158   4.704   1.573   5.424
 7881SOL    HW135159   4.684   1.617   5.336
 7881SOL    HW235160   4.743   1.482   5.408
 7882SOL     OW35161   4.074   0.898   5.528
 7882SOL    HW135162   4.150   0.942   5.576
 7882SOL    HW235163   4.109   0.851   5.446
 7883SOL     OW35164   4.043   0.810   4.673
 7883SOL    HW135165   4.136   0.846   4.678
 7883SOL    HW235166   4.037   0.725   4.725
 7884SOL     OW35167   4.063   0.509   4.730
 7884SOL    HW135168   4.011   0.426   4.713
 7884SOL    HW235169   4.140   0.514   4.666
 7885SOL     OW35170   3.732   1.326   3.924
 7885SOL    HW135171   3.639   1.347   3.893
 7885SOL    HW235172   3.742   1.227   3.937
 7886SOL     OW35173   3.812   1.801   4.651
 7886SOL    HW135174   3.770   1.715   4.624
 7886SOL    HW235175   3.906   1.804   4.617
 7887SOL     OW35176   4.228   1.568   4.634
 7887SOL    HW135177   4.294   1.642   4.643
 7887SOL    HW235178   4.272   1.489   4.592
 7888SOL     OW35179   4.726   0.796   4.962
 7888SOL    HW135180   4.767   0.764   5.048
 7888SOL    HW235181   4.630   0.769   4.959
 7889SOL     OW35182   3.764   0.544   4.838
 7889SOL    HW135183   3.849   0.511   4.797
 7889SOL    HW235184   3.777   0.559   4.936
 7890SOL     OW35185   3.913   0.520   5.446
 7890SOL    HW135186   3.972   0.480   5.376
 7890SOL    HW235187   3.855   0.591   5.405
 7891SOL     OW35188   4.539   0.572   4.049
 7891SOL    HW135189   4.546   0.483   4.003
 7891SOL    HW235190   4.445   0.606   4.041
 7892SOL     OW35191   3.976   1.564   5.468
 7892SOL    HW135192   3.946   1.621   5.544
 7892SOL    HW235193   3.969   1.467   5.494
 7893SOL     OW35194   4.395   0.464   4.993
 7893SOL    HW135195   4.361   0.375   4.963
 7893SOL    HW235196   4.421   0.518   4.913
 7894SOL     OW35197   4.654   1.678   5.189
 7894SOL    HW135198   4.630   1.660   5.094
 7894SOL    HW235199   4.684   1.772   5.199
 7895SOL     OW35200   4.197   0.500   3.915
 7895SOL    HW135201   4.258   0.580   3.919
 7895SOL    HW235202   4.102   0.531   3.922
 7896SOL     OW35203   3.883   1.137   5.190
 7896SOL    HW135204   3.905   1.076   5.266
 7896SOL    HW235205   3.893   1.088   5.104
 7897SOL     OW35206   3.807   1.258   4.746
 7897SOL    HW135207   3.802   1.257   4.846
 7897SOL    HW235208   3.724   1.217   4.708
 7898SOL     OW35209   4.412   1.662   5.440
 7898SOL    HW135210   4.356   1.743   5.449
 7898SOL    HW235211   4.464   1.666   5.354
 7899SOL     OW35212   3.854   1.794   5.575
 7899SOL    HW135213   3.813   1.720   5.628
 7899SOL    HW235214   3.918   1.845   5.633
 7900SOL     OW35215   5.004   0.927   4.396
 7900SOL    HW135216   5.064   0.846   4.398
 7900SOL    HW235217   5.044   0.996   4.336
 7901SOL     OW35218   4.554   1.273   5.146
 7901SOL    HW135219   4.549   1.306   5.241
 7901SOL    HW235220   4.468   1.292   5.100
 7902SOL     OW35221   4.396   1.616   3.878
 7902SOL    HW135222   4.405   1.626   3.779
 7902SOL    HW235223   4.356   1.527   3.899
 7903SOL     OW35224   3.987   0.326   4.444
 7903SOL    HW135225   3.908   0.377   4.410
 7903SOL    HW235226   3.978   0.311   4.542
 7904SOL     OW35227   4.546   1.002   5.096
 7904SOL    HW135228   4.586   1.001   5.004
 7904SOL    HW235229   4.556   1.094   5.136
 7905SOL     OW35230   4.640   0.910   4.015
 7905SOL    HW135231   4.703   0.948   3.947
 7905SOL    HW235232   4.680   0.827   4.054
 7906SOL     OW35233   4.096   1.288   5.214
 7906SOL    HW135234   4.083   1.381   5.180
 7906SOL    HW235235   4.012   1.236   5.201
 7907SOL     OW35236   4.763   1.098   4.420
 7907SOL    HW135237   4.693   1.051   4.474
 7907SOL    HW235238   4.822   1.030   4.377
 7908SOL     OW35239   4.738   0.236   4.695
 7908SOL    HW135240   4.730   0.200   4.602
 7908SOL    HW235241   4.736   0.160   4.760
 7909SOL     OW35242   4.314   1.487   4.215
 7909SOL    HW135243   4.356   1.429   4.145
 7909SOL    HW235244   4.270   1.566   4.171
 7910SOL     OW35245   3.979   1.348   4.014
 7910SOL    HW135246   3.883   1.349   3.987
 7910SOL    HW235247   3.991   1.401   4.098
 7911SOL     OW35248   3.829   1.013   5.450
 7911SOL    HW135249   3.752   0.980   5.504
 7911SOL    HW235250   3.914   0.983   5.492
 7912SOL     OW35251   4.396   0.203   5.213
 7912SOL    HW135252   4.486   0.187   5.173
 7912SOL    HW235253   4.404   0.208   5.312
 7913SOL     OW35254   3.799   0.345   3.757
 7913SOL    HW135255   3.707   0.317   3.728
 7913SOL    HW235256   3.830   0.422   3.701
 7914SOL     OW35257   3.796   0.166   4.042
 7914SOL    HW135258   3.779   0.249   3.988
 7914SOL    HW235259   3.886   0.129   4.020
 7915SOL     OW35260   4.337   0.842   5.155
 7915SOL    HW135261   4.393   0.923   5.138
 7915SOL    HW235262   4.396   0.762   5.158
 7916SOL     OW35263   4.440   0.565   5.432
 7916SOL    HW135264   4.459   0.630   5.506
 7916SOL    HW235265   4.500   0.485   5.441
 7917SOL     OW35266   4.114   1.741   5.284
 7917SOL    HW135267   4.023   1.782   5.282
 7917SOL    HW235268   4.107   1.647   5.316
 7918SOL     OW35269   4.949   0.325   4.173
 7918SOL    HW135270   5.014   0.251   4.162
 7918SOL    HW235271   4.969   0.375   4.257
 7919SOL     OW35272   4.318   0.745   4.376
 7919SOL    HW135273   4.368   0.830   4.357
 7919SOL    HW235274   4.230   0.747   4.328
 7920SOL     OW35275   4.583   1.374   3.740
 7920SOL    HW135276   4.537   1.389   3.828
 7920SOL    HW235277   4.627   1.459   3.710
 7921SOL     OW35278   4.385   1.790   4.677
 7921SOL    HW135279   4.339   1.878   4.664
 7921SOL    HW235280   4.484   1.802   4.670
 7922SOL     OW35281   4.583   0.956   4.585
 7922SOL    HW135282   4.637   0.887   4.633
 7922SOL    HW235283   4.551   1.025   4.651
 7923SOL     OW35284   3.945   1.314   5.568
 7923SOL    HW135285   3.880   1.241   5.547
 7923SOL    HW235286   3.949   1.328   5.666
 7924SOL     OW35287   3.803   1.240   4.377
 7924SOL    HW135288   3.802   1.193   4.465
 7924SOL    HW235289   3.885   1.212   4.326
 7925SOL     OW35290   4.396   1.391   5.348
 7925SOL    HW135291   4.318   1.341   5.386
 7925SOL    HW235292   4.393   1.486   5.379
 7926SOL     OW35293   4.152   0.424   4.244
 7926SOL    HW135294   4.182   0.352   4.182
 7926SOL    HW235295   4.113   0.384   4.327
 7927SOL     OW35296   4.041   0.547   5.004
 7927SOL    HW135297   4.079   0.488   5.076
 7927SOL    HW235298   4.081   0.521   4.916
 7928SOL     OW35299   4.536   1.586   4.411
 7928SOL    HW135300   4.568   1.596   4.317
 7928SOL    HW235301   4.457   1.524   4.413
 7929SOL     OW35302   4.725   0.034   4.878
 7929SOL    HW135303   4.662  -0.038   4.847
 7929SOL    HW235304   4.818  -0.002   4.878
 7930SOL     OW35305   4.494   1.330   4.025
 7930SOL    HW135306   4.448   1.243   4.042
 7930SOL    HW235307   4.585   1.327   4.066
 7931SOL     OW35308   4.342   1.567   5.008
 7931SOL    HW135309   4.337   1.649   5.065
 7931SOL    HW235310   4.431   1.564   4.963
 7932SOL     OW35311   3.763   1.077   4.024
 7932SOL    HW135312   3.862   1.066   4.015
 7932SOL    HW235313   3.723   0.991   4.056
 7933SOL     OW35314   4.599   1.646   4.061
 7933SOL    HW135315   4.522   1.611   4.007
 7933SOL    HW235316   4.567   1.717   4.123
 7934SOL     OW35317   3.954   0.628   5.699
 7934SOL    HW135318   3.861   0.626   5.736
 7934SOL    HW235319   3.955   0.589   5.607
 7935SOL     OW35320   3.949   0.275   6.582
 7935SOL    HW135321   3.984   0.258   6.674
 7935SOL    HW235322   3.861   0.230   6.570
 7936SOL     OW35323   3.743   0.368   6.233
 7936SOL    HW135324   3.661   0.411   6.272
 7936SOL    HW235325   3.715   0.295   6.170
 7937SOL     OW35326   4.293   1.275   6.751
 7937SOL    HW135327   4.200   1.268   6.714
 7937SOL    HW235328   4.304   1.364   6.795
 7938SOL     OW35329   4.492   1.144   6.609
 7938SOL    HW135330   4.414   1.161   6.669
 7938SOL    HW235331   4.526   1.231   6.573
 7939SOL     OW35332   4.574   0.798   7.409
 7939SOL    HW135333   4.570   0.874   7.474
 7939SOL    HW235334   4.596   0.834   7.318
 7940SOL     OW35335   4.409   1.012   6.251
 7940SOL    HW135336   4.478   0.996   6.321
 7940SOL    HW235337   4.336   1.069   6.289
 7941SOL     OW35338   4.410   1.161   7.389
 7941SOL    HW135339   4.470   1.240   7.403
 7941SOL    HW235340   4.324   1.192   7.348
 7942SOL     OW35341   4.059   1.435   6.647
 7942SOL    HW135342   3.981   1.404   6.594
 7942SOL    HW235343   4.117   1.493   6.590
 7943SOL     OW35344   4.162   0.392   7.085
 7943SOL    HW135345   4.244   0.336   7.094
 7943SOL    HW235346   4.081   0.334   7.089
 7944SOL     OW35347   3.955   1.713   6.069
 7944SOL    HW135348   3.989   1.790   6.123
 7944SOL    HW235349   3.999   1.713   5.979
 7945SOL     OW35350   3.954   1.434   6.124
 7945SOL    HW135351   3.928   1.530   6.124
 7945SOL    HW235352   3.883   1.380   6.169
 7946SOL     OW35353   3.964   1.091   6.472
 7946SOL    HW135354   3.978   1.007   6.524
 7946SOL    HW235355   3.909   1.155   6.527
 7947SOL     OW35356   4.344   1.786   7.025
 7947SOL    HW135357   4.252   1.769   7.060
 7947SOL    HW235358   4.372   1.878   7.051
 7948SOL     OW35359   4.330   0.964   5.709
 7948SOL    HW135360   4.337   1.048   5.655
 7948SOL    HW235361   4.376   0.977   5.797
 7949SOL     OW35362   3.846   0.643   6.149
 7949SOL    HW135363   3.801   0.555   6.166
 7949SOL    HW235364   3.845   0.697   6.233
 7950SOL     OW35365   3.751   1.596   5.703
 7950SOL    HW135366   3.732   1.500   5.724
 7950SOL    HW235367   3.718   1.654   5.778
 7951SOL     OW35368   3.837   0.737   7.183
 7951SOL    HW135369   3.925   0.724   7.228
 7951SOL    HW235370   3.824   0.834   7.161
 7952SOL     OW35371   4.337   1.365   6.312
 7952SOL    HW135372   4.288   1.278   6.321
 7952SOL    HW235373   4.314   1.408   6.225
 7953SOL     OW35374   4.533   0.004   6.088
 7953SOL    HW135375   4.573   0.095   6.079
 7953SOL    HW235376   4.433   0.012   6.094
 7954SOL     OW35377   3.921   0.976   6.850
 7954SOL    HW135378   4.010   0.931   6.836
 7954SOL    HW235379   3.848   0.911   6.831
 7955SOL     OW35380   4.041   0.251   7.387
 7955SOL    HW135381   4.112   0.322   7.393
 7955SOL    HW235382   3.953   0.290   7.415
 7956SOL     OW35383   4.322   0.729   5.856
 7956SOL    HW135384   4.346   0.798   5.788
 7956SOL    HW235385   4.244   0.762   5.910
 7957SOL     OW35386   4.531   0.605   7.051
 7957SOL    HW135387   4.484   0.602   7.140
 7957SOL    HW235388   4.480   0.550   6.985
 7958SOL     OW35389   4.697   0.890   7.158
 7958SOL    HW135390   4.743   0.806   7.129
 7958SOL    HW235391   4.641   0.924   7.083
 7959SOL     OW35392   4.715   0.410   6.828
 7959SOL    HW135393   4.638   0.444   6.882
 7959SOL    HW235394   4.681   0.359   6.749
 7960SOL     OW35395   3.800   0.811   6.375
 7960SOL    HW135396   3.899   0.799   6.384
 7960SOL    HW235397   3.776   0.906   6.396
 7961SOL     OW35398   3.854   1.821   7.157
 7961SOL    HW135399   3.844   1.806   7.256
 7961SOL    HW235400   3.768   1.857   7.121
 7962SOL     OW35401   4.589   0.348   5.781
 7962SOL    HW135402   4.648   0.411   5.732
 7962SOL    HW235403   4.608   0.254   5.752
 7963SOL     OW35404   4.274   0.196   6.471
 7963SOL    HW135405   4.269   0.191   6.571
 7963SOL    HW235406   4.276   0.292   6.442
 7964SOL     OW35407   4.732   1.456   6.063
 7964SOL    HW135408   4.686   1.528   6.011
 7964SOL    HW235409   4.728   1.476   6.161
 7965SOL     OW35410   4.075   1.801   6.439
 7965SOL    HW135411   4.125   1.715   6.445
 7965SOL    HW235412   4.140   1.878   6.436
 7966SOL     OW35413   4.045   0.943   5.828
 7966SOL    HW135414   4.127   0.982   5.786
 7966SOL    HW235415   4.018   0.861   5.779
 7967SOL     OW35416   4.185   1.266   7.313
 7967SOL    HW135417   4.135   1.267   7.227
 7967SOL    HW235418   4.122   1.248   7.389
 7968SOL     OW35419   3.926   0.285   7.084
 7968SOL    HW135420   3.846   0.345   7.071
 7968SOL    HW235421   3.916   0.236   7.170
 7969SOL     OW35422   4.188   1.743   5.909
 7969SOL    HW135423   4.221   1.782   5.995
 7969SOL    HW235424   4.264   1.736   5.844
 7970SOL     OW35425   3.973   1.785   6.827
 7970SOL    HW135426   4.030   1.720   6.877
 7970SOL    HW235427   3.957   1.752   6.734
 7971SOL     OW35428   4.106   0.700   6.066
 7971SOL    HW135429   4.151   0.610   6.063
 7971SOL    HW235430   4.012   0.689   6.099
 7972SOL     OW35431   4.338   0.122   5.703
 7972SOL    HW135432   4.436   0.100   5.710
 7972SOL    HW235433   4.307   0.105   5.610
 7973SOL     OW35434   4.505   0.264   7.335
 7973SOL    HW135435   4.572   0.203   7.378
 7973SOL    HW235436   4.432   0.283   7.400
 7974SOL     OW35437   4.612   1.514   6.781
 7974SOL    HW135438   4.589   1.489   6.687
 7974SOL    HW235439   4.673   1.445   6.820
 7975SOL     OW35440   4.527   1.402   6.510
 7975SOL    HW135441   4.617   1.416   6.468
 7975SOL    HW235442   4.456   1.404   6.439
 7976SOL     OW35443   4.646   0.503   6.485
 7976SOL    HW135444   4.621   0.494   6.389
 7976SOL    HW235445   4.694   0.421   6.516
 7977SOL     OW35446   4.263   0.064   6.098
 7977SOL    HW135447   4.182   0.065   6.156
 7977SOL    HW235448   4.266   0.147   6.043
 7978SOL     OW35449   4.021   0.035   5.757
 7978SOL    HW135450   4.070   0.119   5.736
 7978SOL    HW235451   4.083  -0.030   5.802
 7979SOL     OW35452   4.659   0.236   6.066
 7979SOL    HW135453   4.611   0.277   5.988
 7979SOL    HW235454   4.758   0.234   6.047
 7980SOL     OW35455   4.951   1.570   6.379
 7980SOL    HW135456   4.972   1.644   6.314
 7980SOL    HW235457   5.019   1.570   6.452
 7981SOL     OW35458   4.183   1.152   6.327
 7981SOL    HW135459   4.112   1.125   6.392
 7981SOL    HW235460   4.157   1.124   6.234
 7982SOL     OW35461   4.756   0.549   5.602
 7982SOL    HW135462   4.715   0.631   5.563
 7982SOL    HW235463   4.820   0.575   5.675
 7983SOL     OW35464   3.802   0.556   6.972
 7983SOL    HW135465   3.894   0.555   6.931
 7983SOL    HW235466   3.796   0.630   7.039
 7984SOL     OW35467   4.285   0.222   6.733
 7984SOL    HW135468   4.323   0.138   6.770
 7984SOL    HW235469   4.197   0.241   6.777
 7985SOL     OW35470   4.590   0.454   6.228
 7985SOL    HW135471   4.558   0.526   6.166
 7985SOL    HW235472   4.614   0.373   6.175
 7986SOL     OW35473   4.741   0.039   6.339
 7986SOL    HW135474   4.669   0.044   6.270
 7986SOL    HW235475   4.717  -0.030   6.408
 7987SOL     OW35476   4.212   1.385   5.760
 7987SOL    HW135477   4.125   1.370   5.807
 7987SOL    HW235478   4.195   1.411   5.665
 7988SOL     OW35479   4.251   0.256   5.914
 7988SOL    HW135480   4.278   0.197   5.839
 7988SOL    HW235481   4.251   0.351   5.883
 7989SOL     OW35482   4.639   0.089   6.988
 7989SOL    HW135483   4.664   0.069   6.893
 7989SOL    HW235484   4.711   0.145   7.030
 7990SOL     OW35485   4.704   1.116   7.305
 7990SOL    HW135486   4.605   1.122   7.315
 7990SOL    HW235487   4.727   1.036   7.249
 7991SOL     OW35488   4.429   1.050   5.954
 7991SOL    HW135489   4.415   1.057   6.053
 7991SOL    HW235490   4.513   0.999   5.936
 7992SOL     OW35491   4.134   0.813   6.837
 7992SOL    HW135492   4.220   0.825   6.887
 7992SOL    HW235493   4.092   0.726   6.864
 7993SOL     OW35494   3.788   1.564   6.917
 7993SOL    HW135495   3.742   1.646   6.883
 7993SOL    HW235496   3.886   1.583   6.926
 7994SOL     OW35497   4.091   1.100   6.087
 7994SOL    HW135498   4.084   1.183   6.031
 7994SOL    HW235499   4.095   1.020   6.027
 7995SOL     OW35500   4.290   0.537   6.451
 7995SOL    HW135501   4.302   0.603   6.377
 7995SOL    HW235502   4.336   0.571   6.534
 7996SOL     OW35503   4.078   1.510   6.915
 7996SOL    HW135504   4.057   1.466   6.828
 7996SOL    HW235505   4.175   1.536   6.918
 7997SOL     OW35506   4.126   0.751   7.184
 7997SOL    HW135507   4.194   0.806   7.137
 7997SOL    HW235508   4.166   0.663   7.211
 7998SOL     OW35509   4.737   0.105   7.356
 7998SOL    HW135510   4.743   0.190   7.304
 7998SOL    HW235511   4.769   0.029   7.299
 7999SOL     OW35512   4.228   0.050   7.326
 7999SOL    HW135513   4.186  -0.007   7.256
 7999SOL    HW235514   4.162   0.119   7.358
 8000SOL     OW35515   4.297   0.870   6.615
 8000SOL    HW135516   4.341   0.959   6.606
 8000SOL    HW235517   4.234   0.870   6.692
 8001SOL     OW35518   4.933   0.525   5.861
 8001SOL    HW135519   4.946   0.441   5.915
 8001SOL    HW235520   4.904   0.599   5.921
 8002SOL     OW35521   4.031   0.213   6.817
 8002SOL    HW135522   4.008   0.250   6.907
 8002SOL    HW235523   4.001   0.118   6.811
 8003SOL     OW35524   3.761   1.310   6.868
 8003SOL    HW135525   3.814   1.261   6.936
 8003SOL    HW235526   3.783   1.408   6.873
 8004SOL     OW35527   4.456   0.634   6.650
 8004SOL    HW135528   4.515   0.608   6.574
 8004SOL    HW235529   4.428   0.730   6.639
 8005SOL     OW35530   4.031   0.063   6.204
 8005SOL    HW135531   4.020   0.157   6.237
 8005SOL    HW235532   4.026   0.000   6.281
 8006SOL     OW35533   4.747   0.766   6.552
 8006SOL    HW135534   4.762   0.787   6.648
 8006SOL    HW235535   4.717   0.671   6.543
 8007SOL     OW35536   4.704   1.573   7.286
 8007SOL    HW135537   4.684   1.617   7.198
 8007SOL    HW235538   4.743   1.482   7.270
 8008SOL     OW35539   4.074   0.898   7.390
 8008SOL    HW135540   4.150   0.942   7.438
 8008SOL    HW235541   4.109   0.851   7.308
 8009SOL     OW35542   4.043   0.810   6.535
 8009SOL    HW135543   4.136   0.846   6.540
 8009SOL    HW235544   4.037   0.725   6.587
 8010SOL     OW35545   4.063   0.509   6.592
 8010SOL    HW135546   4.011   0.426   6.575
 8010SOL    HW235547   4.140   0.514   6.528
 8011SOL     OW35548   3.732   1.326   5.786
 8011SOL    HW135549   3.639   1.347   5.755
 8011SOL    HW235550   3.742   1.227   5.799
 8012SOL     OW35551   3.812   1.801   6.513
 8012SOL    HW135552   3.770   1.715   6.486
 8012SOL    HW235553   3.906   1.804   6.479
 8013SOL     OW35554   4.228   1.568   6.496
 8013SOL    HW135555   4.294   1.642   6.505
 8013SOL    HW235556   4.272   1.489   6.454
 8014SOL     OW35557   4.726   0.796   6.824
 8014SOL    HW135558   4.767   0.764   6.910
 8014SOL    HW235559   4.630   0.769   6.821
 8015SOL     OW35560   3.764   0.544   6.700
 8015SOL    HW135561   3.849   0.511   6.659
 8015SOL    HW235562   3.777   0.559   6.798
 8016SOL     OW35563   3.913   0.520   7.308
 8016SOL    HW135564   3.972   0.480   7.238
 8016SOL    HW235565   3.855   0.591   7.267
 8017SOL     OW35566   4.539   0.572   5.911
 8017SOL    HW135567   4.546   0.483   5.865
 8017SOL    HW235568   4.445   0.606   5.903
 8018SOL     OW35569   3.976   1.564   7.330
 8018SOL    HW135570   3.946   1.621   7.406
 8018SOL    HW235571   3.969   1.467   7.356
 8019SOL     OW35572   4.395   0.464   6.855
 8019SOL    HW135573   4.361   0.375   6.825
 8019SOL    HW235574   4.421   0.518   6.775
 8020SOL     OW35575   4.654   1.678   7.051
 8020SOL    HW135576   4.630   1.660   6.956
 8020SOL    HW235577   4.684   1.772   7.061
 8021SOL     OW35578   4.197   0.500   5.777
 8021SOL    HW135579   4.258   0.580   5.781
 8021SOL    HW235580   4.102   0.531   5.784
 8022SOL     OW35581   3.883   1.137   7.052
 8022SOL    HW135582   3.905   1.076   7.128
 8022SOL    HW235583   3.893   1.088   6.966
 8023SOL     OW35584   3.807   1.258   6.608
 8023SOL    HW135585   3.802   1.257   6.708
 8023SOL    HW235586   3.724   1.217   6.570
 8024SOL     OW35587   4.412   1.662   7.302
 8024SOL    HW135588   4.356   1.743   7.311
 8024SOL    HW235589   4.464   1.666   7.216
 8025SOL     OW35590   3.854   1.794   7.437
 8025SOL    HW135591   3.813   1.720   7.490
 8025SOL    HW235592   3.918   1.845   7.495
 8026SOL     OW35593   5.004   0.927   6.258
 8026SOL    HW135594   5.064   0.846   6.260
 8026SOL    HW235595   5.044   0.996   6.198
 8027SOL     OW35596   4.554   1.273   7.008
 8027SOL    HW135597   4.549   1.306   7.103
 8027SOL    HW235598   4.468   1.292   6.962
 8028SOL     OW35599   4.396   1.616   5.740
 8028SOL    HW135600   4.405   1.626   5.641
 8028SOL    HW235601   4.356   1.527   5.761
 8029SOL     OW35602   3.987   0.326   6.306
 8029SOL    HW135603   3.908   0.377   6.272
 8029SOL    HW235604   3.978   0.311   6.404
 8030SOL     OW35605   4.546   1.002   6.958
 8030SOL    HW135606   4.586   1.001   6.866
 8030SOL    HW235607   4.556   1.094   6.998
 8031SOL     OW35608   4.640   0.910   5.877
 8031SOL    HW135609   4.703   0.948   5.809
 8031SOL    HW235610   4.680   0.827   5.916
 8032SOL     OW35611   4.096   1.288   7.076
 8032SOL    HW135612   4.083   1.381   7.042
 8032SOL    HW235613   4.012   1.236   7.063
 8033SOL     OW35614   4.763   1.098   6.282
 8033SOL    HW135615   4.693   1.051   6.336
 8033SOL    HW235616   4.822   1.030   6.239
 8034SOL     OW35617   4.738   0.236   6.557
 8034SOL    HW135618   4.730   0.200   6.464
 8034SOL    HW235619   4.736   0.160   6.622
 8035SOL     OW35620   4.314   1.487   6.077
 8035SOL    HW135621   4.356   1.429   6.007
 8035SOL    HW235622   4.270   1.566   6.033
 8036SOL     OW35623   3.979   1.348   5.876
 8036SOL    HW135624   3.883   1.349   5.849
 8036SOL    HW235625   3.991   1.401   5.960
 8037SOL     OW35626   3.829   1.013   7.312
 8037SOL    HW135627   3.752   0.980   7.366
 8037SOL    HW235628   3.914   0.983   7.354
 8038SOL     OW35629   4.396   0.203   7.075
 8038SOL    HW135630   4.486   0.187   7.035
 8038SOL    HW235631   4.404   0.208   7.174
 8039SOL     OW35632   3.799   0.345   5.619
 8039SOL    HW135633   3.707   0.317   5.590
 8039SOL    HW235634   3.830   0.422   5.563
 8040SOL     OW35635   3.796   0.166   5.904
 8040SOL    HW135636   3.779   0.249   5.850
 8040SOL    HW235637   3.886   0.129   5.882
 8041SOL     OW35638   4.337   0.842   7.017
 8041SOL    HW135639   4.393   0.923   7.000
 8041SOL    HW235640   4.396   0.762   7.020
 8042SOL     OW35641   4.440   0.565   7.294
 8042SOL    HW135642   4.459   0.630   7.368
 8042SOL    HW235643   4.500   0.485   7.303
 8043SOL     OW35644   4.114   1.741   7.146
 8043SOL    HW135645   4.023   1.782   7.144
 8043SOL    HW235646   4.107   1.647   7.178
 8044SOL     OW35647   4.949   0.325   6.035
 8044SOL    HW135648   5.014   0.251   6.024
 8044SOL    HW235649   4.969   0.375   6.119
 8045SOL     OW35650   4.318   0.745   6.238
 8045SOL    HW135651   4.368   0.830   6.219
 8045SOL    HW235652   4.230   0.747   6.190
 8046SOL     OW35653   4.583   1.374   5.602
 8046SOL    HW135654   4.537   1.389   5.690
 8046SOL    HW235655   4.627   1.459   5.572
 8047SOL     OW35656   4.385   1.790   6.539
 8047SOL    HW135657   4.339   1.878   6.526
 8047SOL    HW235658   4.484   1.802   6.532
 8048SOL     OW35659   4.583   0.956   6.447
 8048SOL    HW135660   4.637   0.887   6.495
 8048SOL    HW235661   4.551   1.025   6.513
 8049SOL     OW35662   3.945   1.314   7.430
 8049SOL    HW135663   3.880   1.241   7.409
 8049SOL    HW235664   3.949   1.328   7.528
 8050SOL     OW35665   3.803   1.240   6.239
 8050SOL    HW135666   3.802   1.193   6.327
 8050SOL    HW235667   3.885   1.212   6.188
 8051SOL     OW35668   4.396   1.391   7.210
 8051SOL    HW135669   4.318   1.341   7.248
 8051SOL    HW235670   4.393   1.486   7.241
 8052SOL     OW35671   4.152   0.424   6.106
 8052SOL    HW135672   4.182   0.352   6.044
 8052SOL    HW235673   4.113   0.384   6.189
 8053SOL     OW35674   4.041   0.547   6.866
 8053SOL    HW135675   4.079   0.488   6.938
 8053SOL    HW235676   4.081   0.521   6.778
 8054SOL     OW35677   4.536   1.586   6.273
 8054SOL    HW135678   4.568   1.596   6.179
 8054SOL    HW235679   4.457   1.524   6.275
 8055SOL     OW35680   4.725   0.034   6.740
 8055SOL    HW135681   4.662  -0.038   6.709
 8055SOL    HW235682   4.818  -0.002   6.740
 8056SOL     OW35683   4.494   1.330   5.887
 8056SOL    HW135684   4.448   1.243   5.904
 8056SOL    HW235685   4.585   1.327   5.928
 8057SOL     OW35686   4.342   1.567   6.870
 8057SOL    HW135687   4.337   1.649   6.927
 8057SOL    HW235688   4.431   1.564   6.825
 8058SOL     OW35689   3.763   1.077   5.886
 8058SOL    HW135690   3.862   1.066   5.877
 8058SOL    HW235691   3.723   0.991   5.918
 8059SOL     OW35692   4.599   1.646   5.923
 8059SOL    HW135693   4.522   1.611   5.869
 8059SOL    HW235694   4.567   1.717   5.985
 8060SOL     OW35695   3.954   0.628   7.561
 8060SOL    HW135696   3.861   0.626   7.598
 8060SOL    HW235697   3.955   0.589   7.469
 8061SOL     OW35698   3.949   0.275   8.444
 8061SOL    HW135699   3.984   0.258   8.536
 8061SOL    HW235700   3.861   0.230   8.432
 8062SOL     OW35701   3.743   0.368   8.095
 8062SOL    HW135702   3.661   0.411   8.134
 8062SOL    HW235703   3.715   0.295   8.032
 8063SOL     OW35704   4.293   1.275   8.613
 8063SOL    HW135705   4.200   1.268   8.576
 8063SOL    HW235706   4.304   1.364   8.657
 8064SOL     OW35707   4.492   1.144   8.471
 8064SOL    HW135708   4.414   1.161   8.531
 8064SOL    HW235709   4.526   1.231   8.435
 8065SOL     OW35710   4.574   0.798   9.271
 8065SOL    HW135711   4.570   0.874   9.336
 8065SOL    HW235712   4.596   0.834   9.180
 8066SOL     OW35713   4.409   1.012   8.113
 8066SOL    HW135714   4.478   0.996   8.183
 8066SOL    HW235715   4.336   1.069   8.151
 8067SOL     OW35716   4.410   1.161   9.251
 8067SOL    HW135717   4.470   1.240   9.265
 8067SOL    HW235718   4.324   1.192   9.210
 8068SOL     OW35719   4.059   1.435   8.509
 8068SOL    HW135720   3.981   1.404   8.456
 8068SOL    HW235721   4.117   1.493   8.452
 8069SOL     OW35722   4.162   0.392   8.947
 8069SOL    HW135723   4.244   0.336   8.956
 8069SOL    HW235724   4.081   0.334   8.951
 8070SOL     OW35725   3.955   1.713   7.931
 8070SOL    HW135726   3.989   1.790   7.985
 8070SOL    HW235727   3.999   1.713   7.841
 8071SOL     OW35728   3.954   1.434   7.986
 8071SOL    HW135729   3.928   1.530   7.986
 8071SOL    HW235730   3.883   1.380   8.031
 8072SOL     OW35731   3.964   1.091   8.334
 8072SOL    HW135732   3.978   1.007   8.386
 8072SOL    HW235733   3.909   1.155   8.389
 8073SOL     OW35734   4.344   1.786   8.887
 8073SOL    HW135735   4.252   1.769   8.922
 8073SOL    HW235736   4.372   1.878   8.913
 8074SOL     OW35737   4.330   0.964   7.571
 8074SOL    HW135738   4.337   1.048   7.517
 8074SOL    HW235739   4.376   0.977   7.659
 8075SOL     OW35740   3.846   0.643   8.011
 8075SOL    HW135741   3.801   0.555   8.028
 8075SOL    HW235742   3.845   0.697   8.095
 8076SOL     OW35743   3.751   1.596   7.565
 8076SOL    HW135744   3.732   1.500   7.586
 8076SOL    HW235745   3.718   1.654   7.640
 8077SOL     OW35746   3.837   0.737   9.045
 8077SOL    HW135747   3.925   0.724   9.090
 8077SOL    HW235748   3.824   0.834   9.023
 8078SOL     OW35749   4.337   1.365   8.174
 8078SOL    HW135750   4.288   1.278   8.183
 8078SOL    HW235751   4.314   1.408   8.087
 8079SOL     OW35752   4.533   0.004   7.950
 8079SOL    HW135753   4.573   0.095   7.941
 8079SOL    HW235754   4.433   0.012   7.956
 8080SOL     OW35755   3.921   0.976   8.712
 8080SOL    HW135756   4.010   0.931   8.698
 8080SOL    HW235757   3.848   0.911   8.693
 8081SOL     OW35758   4.041   0.251   9.249
 8081SOL    HW135759   4.112   0.322   9.255
 8081SOL    HW235760   3.953   0.290   9.277
 8082SOL     OW35761   4.322   0.729   7.718
 8082SOL    HW135762   4.346   0.798   7.650
 8082SOL    HW235763   4.244   0.762   7.772
 8083SOL     OW35764   4.531   0.605   8.913
 8083SOL    HW135765   4.484   0.602   9.002
 8083SOL    HW235766   4.480   0.550   8.847
 8084SOL     OW35767   4.697   0.890   9.020
 8084SOL    HW135768   4.743   0.806   8.991
 8084SOL    HW235769   4.641   0.924   8.945
 8085SOL     OW35770   4.715   0.410   8.690
 8085SOL    HW135771   4.638   0.444   8.744
 8085SOL    HW235772   4.681   0.359   8.611
 8086SOL     OW35773   3.800   0.811   8.237
 8086SOL    HW135774   3.899   0.799   8.246
 8086SOL    HW235775   3.776   0.906   8.258
 8087SOL     OW35776   3.854   1.821   9.019
 8087SOL    HW135777   3.844   1.806   9.118
 8087SOL    HW235778   3.768   1.857   8.983
 8088SOL     OW35779   4.589   0.348   7.643
 8088SOL    HW135780   4.648   0.411   7.594
 8088SOL    HW235781   4.608   0.254   7.614
 8089SOL     OW35782   4.274   0.196   8.333
 8089SOL    HW135783   4.269   0.191   8.433
 8089SOL    HW235784   4.276   0.292   8.304
 8090SOL     OW35785   4.732   1.456   7.925
 8090SOL    HW135786   4.686   1.528   7.873
 8090SOL    HW235787   4.728   1.476   8.023
 8091SOL     OW35788   4.075   1.801   8.301
 8091SOL    HW135789   4.125   1.715   8.307
 8091SOL    HW235790   4.140   1.878   8.298
 8092SOL     OW35791   4.045   0.943   7.690
 8092SOL    HW135792   4.127   0.982   7.648
 8092SOL    HW235793   4.018   0.861   7.641
 8093SOL     OW35794   4.185   1.266   9.175
 8093SOL    HW135795   4.135   1.267   9.089
 8093SOL    HW235796   4.122   1.248   9.251
 8094SOL     OW35797   3.926   0.285   8.946
 8094SOL    HW135798   3.846   0.345   8.933
 8094SOL    HW235799   3.916   0.236   9.032
 8095SOL     OW35800   4.188   1.743   7.771
 8095SOL    HW135801   4.221   1.782   7.857
 8095SOL    HW235802   4.264   1.736   7.706
 8096SOL     OW35803   3.973   1.785   8.689
 8096SOL    HW135804   4.030   1.720   8.739
 8096SOL    HW235805   3.957   1.752   8.596
 8097SOL     OW35806   4.106   0.700   7.928
 8097SOL    HW135807   4.151   0.610   7.925
 8097SOL    HW235808   4.012   0.689   7.961
 8098SOL     OW35809   4.338   0.122   7.565
 8098SOL    HW135810   4.436   0.100   7.572
 8098SOL    HW235811   4.307   0.105   7.472
 8099SOL     OW35812   4.612   1.514   8.643
 8099SOL    HW135813   4.589   1.489   8.549
 8099SOL    HW235814   4.673   1.445   8.682
 8100SOL     OW35815   4.527   1.402   8.372
 8100SOL    HW135816   4.617   1.416   8.330
 8100SOL    HW235817   4.456   1.404   8.301
 8101SOL     OW35818   4.646   0.503   8.347
 8101SOL    HW135819   4.621   0.494   8.251
 8101SOL    HW235820   4.694   0.421   8.378
 8102SOL     OW35821   4.263   0.064   7.960
 8102SOL    HW135822   4.182   0.065   8.018
 8102SOL    HW235823   4.266   0.147   7.905
 8103SOL     OW35824   4.021   0.035   7.619
 8103SOL    HW135825   4.070   0.119   7.598
 8103SOL    HW235826   4.083  -0.030   7.664
 8104SOL     OW35827   4.659   0.236   7.928
 8104SOL    HW135828   4.611   0.277   7.850
 8104SOL    HW235829   4.758   0.234   7.909
 8105SOL     OW35830   4.951   1.570   8.241
 8105SOL    HW135831   4.972   1.644   8.176
 8105SOL    HW235832   5.019   1.570   8.314
 8106SOL     OW35833   4.183   1.152   8.189
 8106SOL    HW135834   4.112   1.125   8.254
 8106SOL    HW235835   4.157   1.124   8.096
 8107SOL     OW35836   4.756   0.549   7.464
 8107SOL    HW135837   4.715   0.631   7.425
 8107SOL    HW235838   4.820   0.575   7.537
 8108SOL     OW35839   3.802   0.556   8.834
 8108SOL    HW135840   3.894   0.555   8.793
 8108SOL    HW235841   3.796   0.630   8.901
 8109SOL     OW35842   4.285   0.222   8.595
 8109SOL    HW135843   4.323   0.138   8.632
 8109SOL    HW235844   4.197   0.241   8.639
 8110SOL     OW35845   4.590   0.454   8.090
 8110SOL    HW135846   4.558   0.526   8.028
 8110SOL    HW235847   4.614   0.373   8.037
 8111SOL     OW35848   4.741   0.039   8.201
 8111SOL    HW135849   4.669   0.044   8.132
 8111SOL    HW235850   4.717  -0.030   8.270
 8112SOL     OW35851   4.212   1.385   7.622
 8112SOL    HW135852   4.125   1.370   7.669
 8112SOL    HW235853   4.195   1.411   7.527
 8113SOL     OW35854   4.251   0.256   7.776
 8113SOL    HW135855   4.278   0.197   7.701
 8113SOL    HW235856   4.251   0.351   7.745
 8114SOL     OW35857   4.704   1.116   9.167
 8114SOL    HW135858   4.605   1.122   9.177
 8114SOL    HW235859   4.727   1.036   9.111
 8115SOL     OW35860   4.429   1.050   7.816
 8115SOL    HW135861   4.415   1.057   7.915
 8115SOL    HW235862   4.513   0.999   7.798
 8116SOL     OW35863   4.134   0.813   8.699
 8116SOL    HW135864   4.220   0.825   8.749
 8116SOL    HW235865   4.092   0.726   8.726
 8117SOL     OW35866   3.788   1.564   8.779
 8117SOL    HW135867   3.742   1.646   8.745
 8117SOL    HW235868   3.886   1.583   8.788
 8118SOL     OW35869   4.091   1.100   7.949
 8118SOL    HW135870   4.084   1.183   7.893
 8118SOL    HW235871   4.095   1.020   7.889
 8119SOL     OW35872   4.290   0.537   8.313
 8119SOL    HW135873   4.302   0.603   8.239
 8119SOL    HW235874   4.336   0.571   8.396
 8120SOL     OW35875   4.078   1.510   8.777
 8120SOL    HW135876   4.057   1.466   8.690
 8120SOL    HW235877   4.175   1.536   8.780
 8121SOL     OW35878   4.126   0.751   9.046
 8121SOL    HW135879   4.194   0.806   8.999
 8121SOL    HW235880   4.166   0.663   9.073
 8122SOL     OW35881   4.228   0.050   9.188
 8122SOL    HW135882   4.186  -0.007   9.118
 8122SOL    HW235883   4.162   0.119   9.220
 8123SOL     OW35884   4.297   0.870   8.477
 8123SOL    HW135885   4.341   0.959   8.468
 8123SOL    HW235886   4.234   0.870   8.554
 8124SOL     OW35887   4.933   0.525   7.723
 8124SOL    HW135888   4.946   0.441   7.777
 8124SOL    HW235889   4.904   0.599   7.783
 8125SOL     OW35890   4.031   0.213   8.679
 8125SOL    HW135891   4.008   0.250   8.769
 8125SOL    HW235892   4.001   0.118   8.673
 8126SOL     OW35893   3.761   1.310   8.730
 8126SOL    HW135894   3.814   1.261   8.798
 8126SOL    HW235895   3.783   1.408   8.735
 8127SOL     OW35896   4.456   0.634   8.512
 8127SOL    HW135897   4.515   0.608   8.436
 8127SOL    HW235898   4.428   0.730   8.501
 8128SOL     OW35899   4.031   0.063   8.066
 8128SOL    HW135900   4.020   0.157   8.099
 8128SOL    HW235901   4.026   0.000   8.143
 8129SOL     OW35902   4.747   0.766   8.414
 8129SOL    HW135903   4.762   0.787   8.510
 8129SOL    HW235904   4.717   0.671   8.405
 8130SOL     OW35905   4.704   1.573   9.148
 8130SOL    HW135906   4.684   1.617   9.060
 8130SOL    HW235907   4.743   1.482   9.132
 8131SOL     OW35908   4.074   0.898   9.252
 8131SOL    HW135909   4.150   0.942   9.300
 8131SOL    HW235910   4.109   0.851   9.170
 8132SOL     OW35911   4.043   0.810   8.397
 8132SOL    HW135912   4.136   0.846   8.402
 8132SOL    HW235913   4.037   0.725   8.449
 8133SOL     OW35914   4.063   0.509   8.454
 8133SOL    HW135915   4.011   0.426   8.437
 8133SOL    HW235916   4.140   0.514   8.390
 8134SOL     OW35917   3.732   1.326   7.648
 8134SOL    HW135918   3.639   1.347   7.617
 8134SOL    HW235919   3.742   1.227   7.661
 8135SOL     OW35920   3.812   1.801   8.375
 8135SOL    HW135921   3.770   1.715   8.348
 8135SOL    HW235922   3.906   1.804   8.341
 8136SOL     OW35923   4.228   1.568   8.358
 8136SOL    HW135924   4.294   1.642   8.367
 8136SOL    HW235925   4.272   1.489   8.316
 8137SOL     OW35926   4.726   0.796   8.686
 8137SOL    HW135927   4.767   0.764   8.772
 8137SOL    HW235928   4.630   0.769   8.683
 8138SOL     OW35929   3.764   0.544   8.562
 8138SOL    HW135930   3.849   0.511   8.521
 8138SOL    HW235931   3.777   0.559   8.660
 8139SOL     OW35932   3.913   0.520   9.170
 8139SOL    HW135933   3.972   0.480   9.100
 8139SOL    HW235934   3.855   0.591   9.129
 8140SOL     OW35935   4.539   0.572   7.773
 8140SOL    HW135936   4.546   0.483   7.727
 8140SOL    HW235937   4.445   0.606   7.765
 8141SOL     OW35938   3.976   1.564   9.192
 8141SOL    HW135939   3.946   1.621   9.268
 8141SOL    HW235940   3.969   1.467   9.218
 8142SOL     OW35941   4.395   0.464   8.717
 8142SOL    HW135942   4.361   0.375   8.687
 8142SOL    HW235943   4.421   0.518   8.637
 8143SOL     OW35944   4.654   1.678   8.913
 8143SOL    HW135945   4.630   1.660   8.818
 8143SOL    HW235946   4.684   1.772   8.923
 8144SOL     OW35947   4.197   0.500   7.639
 8144SOL    HW135948   4.258   0.580   7.643
 8144SOL    HW235949   4.102   0.531   7.646
 8145SOL     OW35950   3.883   1.137   8.914
 8145SOL    HW135951   3.905   1.076   8.990
 8145SOL    HW235952   3.893   1.088   8.828
 8146SOL     OW35953   3.807   1.258   8.470
 8146SOL    HW135954   3.802   1.257   8.570
 8146SOL    HW235955   3.724   1.217   8.432
 8147SOL     OW35956   4.412   1.662   9.164
 8147SOL    HW135957   4.356   1.743   9.173
 8147SOL    HW235958   4.464   1.666   9.078
 8148SOL     OW35959   3.854   1.794   9.299
 8148SOL    HW135960   3.813   1.720   9.352
 8148SOL    HW235961   3.918   1.845   9.357
 8149SOL     OW35962   5.004   0.927   8.120
 8149SOL    HW135963   5.064   0.846   8.122
 8149SOL    HW235964   5.044   0.996   8.060
 8150SOL     OW35965   4.554   1.273   8.870
 8150SOL    HW135966   4.549   1.306   8.965
 8150SOL    HW235967   4.468   1.292   8.824
 8151SOL     OW35968   4.396   1.616   7.602
 8151SOL    HW135969   4.405   1.626   7.503
 8151SOL    HW235970   4.356   1.527   7.623
 8152SOL     OW35971   3.987   0.326   8.168
 8152SOL    HW135972   3.908   0.377   8.134
 8152SOL    HW235973   3.978   0.311   8.266
 8153SOL     OW35974   4.546   1.002   8.820
 8153SOL    HW135975   4.586   1.001   8.728
 8153SOL    HW235976   4.556   1.094   8.860
 8154SOL     OW35977   4.640   0.910   7.739
 8154SOL    HW135978   4.703   0.948   7.671
 8154SOL    HW235979   4.680   0.827   7.778
 8155SOL     OW35980   4.096   1.288   8.938
 8155SOL    HW135981   4.083   1.381   8.904
 8155SOL    HW235982   4.012   1.236   8.925
 8156SOL     OW35983   4.763   1.098   8.144
 8156SOL    HW135984   4.693   1.051   8.198
 8156SOL    HW235985   4.822   1.030   8.101
 8157SOL     OW35986   4.738   0.236   8.419
 8157SOL    HW135987   4.730   0.200   8.326
 8157SOL    HW235988   4.736   0.160   8.484
 8158SOL     OW35989   4.314   1.487   7.939
 8158SOL    HW135990   4.356   1.429   7.869
 8158SOL    HW235991   4.270   1.566   7.895
 8159SOL     OW35992   3.979   1.348   7.738
 8159SOL    HW135993   3.883   1.349   7.711
 8159SOL    HW235994   3.991   1.401   7.822
 8160SOL     OW35995   3.829   1.013   9.174
 8160SOL    HW135996   3.752   0.980   9.228
 8160SOL    HW235997   3.914   0.983   9.216
 8161SOL     OW35998   4.396   0.203   8.937
 8161SOL    HW135999   4.486   0.187   8.897
 8161SOL    HW236000   4.404   0.208   9.036
 8162SOL     OW36001   3.799   0.345   7.481
 8162SOL    HW136002   3.707   0.317   7.452
 8162SOL    HW236003   3.830   0.422   7.425
 8163SOL     OW36004   3.796   0.166   7.766
 8163SOL    HW136005   3.779   0.249   7.712
 8163SOL    HW236006   3.886   0.129   7.744
 8164SOL     OW36007   4.337   0.842   8.879
 8164SOL    HW136008   4.393   0.923   8.862
 8164SOL    HW236009   4.396   0.762   8.882
 8165SOL     OW36010   4.440   0.565   9.156
 8165SOL    HW136011   4.459   0.630   9.230
 8165SOL    HW236012   4.500   0.485   9.165
 8166SOL     OW36013   4.114   1.741   9.008
 8166SOL    HW136014   4.023   1.782   9.006
 8166SOL    HW236015   4.107   1.647   9.040
 8167SOL     OW36016   4.949   0.325   7.897
 8167SOL    HW136017   5.014   0.251   7.886
 8167SOL    HW236018   4.969   0.375   7.981
 8168SOL     OW36019   4.318   0.745   8.100
 8168SOL    HW136020   4.368   0.830   8.081
 8168SOL    HW236021   4.230   0.747   8.052
 8169SOL     OW36022   4.583   1.374   7.464
 8169SOL    HW136023   4.537   1.389   7.552
 8169SOL    HW236024   4.627   1.459   7.434
 8170SOL     OW36025   4.385   1.790   8.401
 8170SOL    HW136026   4.339   1.878   8.388
 8170SOL    HW236027   4.484   1.802   8.394
 8171SOL     OW36028   4.583   0.956   8.309
 8171SOL    HW136029   4.637   0.887   8.357
 8171SOL    HW236030   4.551   1.025   8.375
 8172SOL     OW36031   3.945   1.314   9.292
 8172SOL    HW136032   3.880   1.241   9.271
 8172SOL    HW236033   3.949   1.328   9.390
 8173SOL     OW36034   3.803   1.240   8.101
 8173SOL    HW136035   3.802   1.193   8.189
 8173SOL    HW236036   3.885   1.212   8.050
 8174SOL     OW36037   4.396   1.391   9.072
 8174SOL    HW136038   4.318   1.341   9.110
 8174SOL    HW236039   4.393   1.486   9.103
 8175SOL     OW36040   4.152   0.424   7.968
 8175SOL    HW136041   4.182   0.352   7.906
 8175SOL    HW236042   4.113   0.384   8.051
 8176SOL     OW36043   4.041   0.547   8.728
 8176SOL    HW136044   4.079   0.488   8.800
 8176SOL    HW236045   4.081   0.521   8.640
 8177SOL     OW36046   4.536   1.586   8.135
 8177SOL    HW136047   4.568   1.596   8.041
 8177SOL    HW236048   4.457   1.524   8.137
 8178SOL     OW36049   4.725   0.034   8.602
 8178SOL    HW136050   4.662  -0.038   8.571
 8178SOL    HW236051   4.818  -0.002   8.602
 8179SOL     OW36052   4.494   1.330   7.749
 8179SOL    HW136053   4.448   1.243   7.766
 8179SOL    HW236054   4.585   1.327   7.790
 8180SOL     OW36055   4.342   1.567   8.732
 8180SOL    HW136056   4.337   1.649   8.789
 8180SOL    HW236057   4.431   1.564   8.687
 8181SOL     OW36058   3.763   1.077   7.748
 8181SOL    HW136059   3.862   1.066   7.739
 8181SOL    HW236060   3.723   0.991   7.780
 8182SOL     OW36061   4.599   1.646   7.785
 8182SOL    HW136062   4.522   1.611   7.731
 8182SOL    HW236063   4.567   1.717   7.847
 8183SOL     OW36064   3.954   0.628   9.423
 8183SOL    HW136065   3.861   0.626   9.460
 8183SOL    HW236066   3.955   0.589   9.331
 8184SOL     OW36067   3.949   0.275  10.306
 8184SOL    HW136068   3.984   0.258  10.398
 8184SOL    HW236069   3.861   0.230  10.294
 8185SOL     OW36070   3.743   0.368   9.957
 8185SOL    HW136071   3.661   0.411   9.996
 8185SOL    HW236072   3.715   0.295   9.894
 8186SOL     OW36073   4.492   1.144  10.333
 8186SOL    HW136074   4.414   1.161  10.393
 8186SOL    HW236075   4.526   1.231  10.297
 8187SOL     OW36076   4.409   1.012   9.975
 8187SOL    HW136077   4.478   0.996  10.045
 8187SOL    HW236078   4.336   1.069  10.013
 8188SOL     OW36079   4.162   0.392  10.809
 8188SOL    HW136080   4.244   0.336  10.818
 8188SOL    HW236081   4.081   0.334  10.813
 8189SOL     OW36082   3.955   1.713   9.793
 8189SOL    HW136083   3.989   1.790   9.847
 8189SOL    HW236084   3.999   1.713   9.703
 8190SOL     OW36085   3.954   1.434   9.848
 8190SOL    HW136086   3.928   1.530   9.848
 8190SOL    HW236087   3.883   1.380   9.893
 8191SOL     OW36088   3.964   1.091  10.196
 8191SOL    HW136089   3.978   1.007  10.248
 8191SOL    HW236090   3.909   1.155  10.251
 8192SOL     OW36091   4.330   0.964   9.433
 8192SOL    HW136092   4.337   1.048   9.379
 8192SOL    HW236093   4.376   0.977   9.521
 8193SOL     OW36094   3.846   0.643   9.873
 8193SOL    HW136095   3.801   0.555   9.890
 8193SOL    HW236096   3.845   0.697   9.957
 8194SOL     OW36097   3.751   1.596   9.427
 8194SOL    HW136098   3.732   1.500   9.448
 8194SOL    HW236099   3.718   1.654   9.502
 8195SOL     OW36100   3.837   0.737  10.907
 8195SOL    HW136101   3.925   0.724  10.952
 8195SOL    HW236102   3.824   0.834  10.885
 8196SOL     OW36103   4.337   1.365  10.036
 8196SOL    HW136104   4.288   1.278  10.045
 8196SOL    HW236105   4.314   1.408   9.949
 8197SOL     OW36106   4.533   0.004   9.812
 8197SOL    HW136107   4.573   0.095   9.803
 8197SOL    HW236108   4.433   0.012   9.818
 8198SOL     OW36109   3.921   0.976  10.574
 8198SOL    HW136110   4.010   0.931  10.560
 8198SOL    HW236111   3.848   0.911  10.555
 8199SOL     OW36112   4.041   0.251  11.111
 8199SOL    HW136113   4.112   0.322  11.117
 8199SOL    HW236114   3.953   0.290  11.139
 8200SOL     OW36115   4.322   0.729   9.580
 8200SOL    HW136116   4.346   0.798   9.512
 8200SOL    HW236117   4.244   0.762   9.634
 8201SOL     OW36118   4.531   0.605  10.775
 8201SOL    HW136119   4.484   0.602  10.864
 8201SOL    HW236120   4.480   0.550  10.709
 8202SOL     OW36121   4.697   0.890  10.882
 8202SOL    HW136122   4.743   0.806  10.853
 8202SOL    HW236123   4.641   0.924  10.807
 8203SOL     OW36124   4.715   0.410  10.552
 8203SOL    HW136125   4.638   0.444  10.606
 8203SOL    HW236126   4.681   0.359  10.473
 8204SOL     OW36127   3.800   0.811  10.099
 8204SOL    HW136128   3.899   0.799  10.108
 8204SOL    HW236129   3.776   0.906  10.120
 8205SOL     OW36130   4.589   0.348   9.505
 8205SOL    HW136131   4.648   0.411   9.456
 8205SOL    HW236132   4.608   0.254   9.476
 8206SOL     OW36133   4.274   0.196  10.195
 8206SOL    HW136134   4.269   0.191  10.295
 8206SOL    HW236135   4.276   0.292  10.166
 8207SOL     OW36136   4.732   1.456   9.787
 8207SOL    HW136137   4.686   1.528   9.735
 8207SOL    HW236138   4.728   1.476   9.885
 8208SOL     OW36139   4.045   0.943   9.552
 8208SOL    HW136140   4.127   0.982   9.510
 8208SOL    HW236141   4.018   0.861   9.503
 8209SOL     OW36142   3.926   0.285  10.808
 8209SOL    HW136143   3.846   0.345  10.795
 8209SOL    HW236144   3.916   0.236  10.894
 8210SOL     OW36145   4.188   1.743   9.633
 8210SOL    HW136146   4.221   1.782   9.719
 8210SOL    HW236147   4.264   1.736   9.568
 8211SOL     OW36148   4.106   0.700   9.790
 8211SOL    HW136149   4.151   0.610   9.787
 8211SOL    HW236150   4.012   0.689   9.823
 8212SOL     OW36151   4.527   1.402  10.234
 8212SOL    HW136152   4.617   1.416  10.192
 8212SOL    HW236153   4.456   1.404  10.163
 8213SOL     OW36154   4.646   0.503  10.209
 8213SOL    HW136155   4.621   0.494  10.113
 8213SOL    HW236156   4.694   0.421  10.240
 8214SOL     OW36157   4.263   0.064   9.822
 8214SOL    HW136158   4.182   0.065   9.880
 8214SOL    HW236159   4.266   0.147   9.767
 8215SOL     OW36160   4.021   0.035   9.481
 8215SOL    HW136161   4.070   0.119   9.460
 8215SOL    HW236162   4.083  -0.030   9.526
 8216SOL     OW36163   4.659   0.236   9.790
 8216SOL    HW136164   4.611   0.277   9.712
 8216SOL    HW236165   4.758   0.234   9.771
 8217SOL     OW36166   4.951   1.570  10.103
 8217SOL    HW136167   4.972   1.644  10.038
 8217SOL    HW236168   5.019   1.570  10.176
 8218SOL     OW36169   4.183   1.152  10.051
 8218SOL    HW136170   4.112   1.125  10.116
 8218SOL    HW236171   4.157   1.124   9.958
 8219SOL     OW36172   4.756   0.549   9.326
 8219SOL    HW136173   4.715   0.631   9.287
 8219SOL    HW236174   4.820   0.575   9.399
 8220SOL     OW36175   3.802   0.556  10.696
 8220SOL    HW136176   3.894   0.555  10.655
 8220SOL    HW236177   3.796   0.630  10.763
 8221SOL     OW36178   4.285   0.222  10.457
 8221SOL    HW136179   4.323   0.138  10.494
 8221SOL    HW236180   4.197   0.241  10.501
 8222SOL     OW36181   4.590   0.454   9.952
 8222SOL    HW136182   4.558   0.526   9.890
 8222SOL    HW236183   4.614   0.373   9.899
 8223SOL     OW36184   4.741   0.039  10.063
 8223SOL    HW136185   4.669   0.044   9.994
 8223SOL    HW236186   4.717  -0.030  10.132
 8224SOL     OW36187   4.212   1.385   9.484
 8224SOL    HW136188   4.125   1.370   9.531
 8224SOL    HW236189   4.195   1.411   9.389
 8225SOL     OW36190   4.251   0.256   9.638
 8225SOL    HW136191   4.278   0.197   9.563
 8225SOL    HW236192   4.251   0.351   9.607
 8226SOL     OW36193   4.639   0.089  10.712
 8226SOL    HW136194   4.664   0.069  10.617
 8226SOL    HW236195   4.711   0.145  10.754
 8227SOL     OW36196   4.429   1.050   9.678
 8227SOL    HW136197   4.415   1.057   9.777
 8227SOL    HW236198   4.513   0.999   9.660
 8228SOL     OW36199   4.134   0.813  10.561
 8228SOL    HW136200   4.220   0.825  10.611
 8228SOL    HW236201   4.092   0.726  10.588
 8229SOL     OW36202   4.091   1.100   9.811
 8229SOL    HW136203   4.084   1.183   9.755
 8229SOL    HW236204   4.095   1.020   9.751
 8230SOL     OW36205   4.290   0.537  10.175
 8230SOL    HW136206   4.302   0.603  10.101
 8230SOL    HW236207   4.336   0.571  10.258
 8231SOL     OW36208   4.126   0.751  10.908
 8231SOL    HW136209   4.194   0.806  10.861
 8231SOL    HW236210   4.166   0.663  10.935
 8232SOL     OW36211   4.297   0.870  10.339
 8232SOL    HW136212   4.341   0.959  10.330
 8232SOL    HW236213   4.234   0.870  10.416
 8233SOL     OW36214   4.933   0.525   9.585
 8233SOL    HW136215   4.946   0.441   9.639
 8233SOL    HW236216   4.904   0.599   9.645
 8234SOL     OW36217   4.031   0.213  10.541
 8234SOL    HW136218   4.008   0.250  10.631
 8234SOL    HW236219   4.001   0.118  10.535
 8235SOL     OW36220   4.456   0.634  10.374
 8235SOL    HW136221   4.515   0.608  10.298
 8235SOL    HW236222   4.428   0.730  10.363
 8236SOL     OW36223   4.031   0.063   9.928
 8236SOL    HW136224   4.020   0.157   9.961
 8236SOL    HW236225   4.026   0.000  10.005
 8237SOL     OW36226   4.747   0.766  10.276
 8237SOL    HW136227   4.762   0.787  10.372
 8237SOL    HW236228   4.717   0.671  10.267
 8238SOL     OW36229   4.074   0.898  11.114
 8238SOL    HW136230   4.150   0.942  11.162
 8238SOL    HW236231   4.109   0.851  11.032
 8239SOL     OW36232   4.043   0.810  10.259
 8239SOL    HW136233   4.136   0.846  10.264
 8239SOL    HW236234   4.037   0.725  10.311
 8240SOL     OW36235   4.063   0.509  10.316
 8240SOL    HW136236   4.011   0.426  10.299
 8240SOL    HW236237   4.140   0.514  10.252
 8241SOL     OW36238   3.732   1.326   9.510
 8241SOL    HW136239   3.639   1.347   9.479
 8241SOL    HW236240   3.742   1.227   9.523
 8242SOL     OW36241   3.812   1.801  10.237
 8242SOL    HW136242   3.770   1.715  10.210
 8242SOL    HW236243   3.906   1.804  10.203
 8243SOL     OW36244   4.726   0.796  10.548
 8243SOL    HW136245   4.767   0.764  10.634
 8243SOL    HW236246   4.630   0.769  10.545
 8244SOL     OW36247   3.764   0.544  10.424
 8244SOL    HW136248   3.849   0.511  10.383
 8244SOL    HW236249   3.777   0.559  10.522
 8245SOL     OW36250   3.913   0.520  11.032
 8245SOL    HW136251   3.972   0.480  10.962
 8245SOL    HW236252   3.855   0.591  10.991
 8246SOL     OW36253   4.539   0.572   9.635
 8246SOL    HW136254   4.546   0.483   9.589
 8246SOL    HW236255   4.445   0.606   9.627
 8247SOL     OW36256   4.395   0.464  10.579
 8247SOL    HW136257   4.361   0.375  10.549
 8247SOL    HW236258   4.421   0.518  10.499
 8248SOL     OW36259   4.197   0.500   9.501
 8248SOL    HW136260   4.258   0.580   9.505
 8248SOL    HW236261   4.102   0.531   9.508
 8249SOL     OW36262   3.807   1.258  10.332
 8249SOL    HW136263   3.802   1.257  10.432
 8249SOL    HW236264   3.724   1.217  10.294
 8250SOL     OW36265   5.004   0.927   9.982
 8250SOL    HW136266   5.064   0.846   9.984
 8250SOL    HW236267   5.044   0.996   9.922
 8251SOL     OW36268   4.554   1.273  10.732
 8251SOL    HW136269   4.549   1.306  10.827
 8251SOL    HW236270   4.468   1.292  10.686
 8252SOL     OW36271   4.396   1.616   9.464
 8252SOL    HW136272   4.405   1.626   9.365
 8252SOL    HW236273   4.356   1.527   9.485
 8253SOL     OW36274   3.987   0.326  10.030
 8253SOL    HW136275   3.908   0.377   9.996
 8253SOL    HW236276   3.978   0.311  10.128
 8254SOL     OW36277   4.546   1.002  10.682
 8254SOL    HW136278   4.586   1.001  10.590
 8254SOL    HW236279   4.556   1.094  10.722
 8255SOL     OW36280   4.640   0.910   9.601
 8255SOL    HW136281   4.703   0.948   9.533
 8255SOL    HW236282   4.680   0.827   9.640
 8256SOL     OW36283   4.763   1.098  10.006
 8256SOL    HW136284   4.693   1.051  10.060
 8256SOL    HW236285   4.822   1.030   9.963
 8257SOL     OW36286   4.738   0.236  10.281
 8257SOL    HW136287   4.730   0.200  10.188
 8257SOL    HW236288   4.736   0.160  10.346
 8258SOL     OW36289   4.314   1.487   9.801
 8258SOL    HW136290   4.356   1.429   9.731
 8258SOL    HW236291   4.270   1.566   9.757
 8259SOL     OW36292   3.979   1.348   9.600
 8259SOL    HW136293   3.883   1.349   9.573
 8259SOL    HW236294   3.991   1.401   9.684
 8260SOL     OW36295   3.799   0.345   9.343
 8260SOL    HW136296   3.707   0.317   9.314
 8260SOL    HW236297   3.830   0.422   9.287
 8261SOL     OW36298   3.796   0.166   9.628
 8261SOL    HW136299   3.779   0.249   9.574
 8261SOL    HW236300   3.886   0.129   9.606
 8262SOL     OW36301   4.337   0.842  10.741
 8262SOL    HW136302   4.393   0.923  10.724
 8262SOL    HW236303   4.396   0.762  10.744
 8263SOL     OW36304   4.949   0.325   9.759
 8263SOL    HW136305   5.014   0.251   9.748
 8263SOL    HW236306   4.969   0.375   9.843
 8264SOL     OW36307   4.318   0.745   9.962
 8264SOL    HW136308   4.368   0.830   9.943
 8264SOL    HW236309   4.230   0.747   9.914
 8265SOL     OW36310   4.583   1.374   9.326
 8265SOL    HW136311   4.537   1.389   9.414
 8265SOL    HW236312   4.627   1.459   9.296
 8266SOL     OW36313   4.583   0.956  10.171
 8266SOL    HW136314   4.637   0.887  10.219
 8266SOL    HW236315   4.551   1.025  10.237
 8267SOL     OW36316   3.803   1.240   9.963
 8267SOL    HW136317   3.802   1.193  10.051
 8267SOL    HW236318   3.885   1.212   9.912
 8268SOL     OW36319   4.152   0.424   9.830
 8268SOL    HW136320   4.182   0.352   9.768
 8268SOL    HW236321   4.113   0.384   9.913
 8269SOL     OW36322   4.041   0.547  10.590
 8269SOL    HW136323   4.079   0.488  10.662
 8269SOL    HW236324   4.081   0.521  10.502
 8270SOL     OW36325   4.536   1.586   9.997
 8270SOL    HW136326   4.568   1.596   9.903
 8270SOL    HW236327   4.457   1.524   9.999
 8271SOL     OW36328   4.725   0.034  10.464
 8271SOL    HW136329   4.662  -0.038  10.433
 8271SOL    HW236330   4.818  -0.002  10.464
 8272SOL     OW36331   4.494   1.330   9.611
 8272SOL    HW136332   4.448   1.243   9.628
 8272SOL    HW236333   4.585   1.327   9.652
 8273SOL     OW36334   3.763   1.077   9.610
 8273SOL    HW136335   3.862   1.066   9.601
 8273SOL    HW236336   3.723   0.991   9.642
 8274SOL     OW36337   4.599   1.646   9.647
 8274SOL    HW136338   4.522   1.611   9.593
 8274SOL    HW236339   4.567   1.717   9.709
 8275SOL     OW36340   3.954   0.628  11.285
 8275SOL    HW136341   3.861   0.626  11.322
 8275SOL    HW236342   3.955   0.589  11.193
 8276SOL     OW36343   3.743   0.368  11.819
 8276SOL    HW136344   3.661   0.411  11.858
 8276SOL    HW236345   3.715   0.295  11.756
 8277SOL     OW36346   4.410   1.161  12.975
 8277SOL    HW136347   4.470   1.240  12.989
 8277SOL    HW236348   4.324   1.192  12.934
 8278SOL     OW36349   4.330   0.964  11.295
 8278SOL    HW136350   4.337   1.048  11.241
 8278SOL    HW236351   4.376   0.977  11.383
 8279SOL     OW36352   4.533   0.004  11.674
 8279SOL    HW136353   4.573   0.095  11.665
 8279SOL    HW236354   4.433   0.012  11.680
 8280SOL     OW36355   3.854   1.821  12.743
 8280SOL    HW136356   3.844   1.806  12.842
 8280SOL    HW236357   3.768   1.857  12.707
 8281SOL     OW36358   4.732   1.456  11.649
 8281SOL    HW136359   4.686   1.528  11.597
 8281SOL    HW236360   4.728   1.476  11.747
 8282SOL     OW36361   4.045   0.943  11.414
 8282SOL    HW136362   4.127   0.982  11.372
 8282SOL    HW236363   4.018   0.861  11.365
 8283SOL     OW36364   4.263   0.064  11.684
 8283SOL    HW136365   4.182   0.065  11.742
 8283SOL    HW236366   4.266   0.147  11.629
 8284SOL     OW36367   4.659   0.236  11.652
 8284SOL    HW136368   4.611   0.277  11.574
 8284SOL    HW236369   4.758   0.234  11.633
 8285SOL     OW36370   4.951   1.570  11.965
 8285SOL    HW136371   4.972   1.644  11.900
 8285SOL    HW236372   5.019   1.570  12.038
 8286SOL     OW36373   4.183   1.152  11.913
 8286SOL    HW136374   4.112   1.125  11.978
 8286SOL    HW236375   4.157   1.124  11.820
 8287SOL     OW36376   4.212   1.385  11.346
 8287SOL    HW136377   4.125   1.370  11.393
 8287SOL    HW236378   4.195   1.411  11.251
 8288SOL     OW36379   4.429   1.050  11.540
 8288SOL    HW136380   4.415   1.057  11.639
 8288SOL    HW236381   4.513   0.999  11.522
 8289SOL     OW36382   4.091   1.100  11.673
 8289SOL    HW136383   4.084   1.183  11.617
 8289SOL    HW236384   4.095   1.020  11.613
 8290SOL     OW36385   4.737   0.105  12.942
 8290SOL    HW136386   4.743   0.190  12.890
 8290SOL    HW236387   4.769   0.029  12.885
 8291SOL     OW36388   4.031   0.063  11.790
 8291SOL    HW136389   4.020   0.157  11.823
 8291SOL    HW236390   4.026   0.000  11.867
 8292SOL     OW36391   4.704   1.573  12.872
 8292SOL    HW136392   4.684   1.617  12.784
 8292SOL    HW236393   4.743   1.482  12.856
 8293SOL     OW36394   4.043   0.810  12.121
 8293SOL    HW136395   4.136   0.846  12.126
 8293SOL    HW236396   4.037   0.725  12.173
 8294SOL     OW36397   3.732   1.326  11.372
 8294SOL    HW136398   3.639   1.347  11.341
 8294SOL    HW236399   3.742   1.227  11.385
 8295SOL     OW36400   4.654   1.678  12.637
 8295SOL    HW136401   4.630   1.660  12.542
 8295SOL    HW236402   4.684   1.772  12.647
 8296SOL     OW36403   5.004   0.927  11.844
 8296SOL    HW136404   5.064   0.846  11.846
 8296SOL    HW236405   5.044   0.996  11.784
 8297SOL     OW36406   4.396   1.616  11.326
 8297SOL    HW136407   4.405   1.626  11.227
 8297SOL    HW236408   4.356   1.527  11.347
 8298SOL     OW36409   3.987   0.326  11.892
 8298SOL    HW136410   3.908   0.377  11.858
 8298SOL    HW236411   3.978   0.311  11.990
 8299SOL     OW36412   3.979   1.348  11.462
 8299SOL    HW136413   3.883   1.349  11.435
 8299SOL    HW236414   3.991   1.401  11.546
 8300SOL     OW36415   3.799   0.345  11.205
 8300SOL    HW136416   3.707   0.317  11.176
 8300SOL    HW236417   3.830   0.422  11.149
 8301SOL     OW36418   4.385   1.790  12.125
 8301SOL    HW136419   4.339   1.878  12.112
 8301SOL    HW236420   4.484   1.802  12.118
 8302SOL     OW36421   4.396   1.391  12.796
 8302SOL    HW136422   4.318   1.341  12.834
 8302SOL    HW236423   4.393   1.486  12.827
 8303SOL     OW36424   4.152   0.424  11.692
 8303SOL    HW136425   4.182   0.352  11.630
 8303SOL    HW236426   4.113   0.384  11.775
 8304SOL     OW36427   4.536   1.586  11.859
 8304SOL    HW136428   4.568   1.596  11.765
 8304SOL    HW236429   4.457   1.524  11.861
 8305SOL     OW36430   4.494   1.330  11.473
 8305SOL    HW136431   4.448   1.243  11.490
 8305SOL    HW236432   4.585   1.327  11.514
 8306SOL     OW36433   4.599   1.646  11.509
 8306SOL    HW136434   4.522   1.611  11.455
 8306SOL    HW236435   4.567   1.717  11.571
 8307SOL     OW36436   3.954   0.628  13.147
 8307SOL    HW136437   3.861   0.626  13.184
 8307SOL    HW236438   3.955   0.589  13.055
 8308SOL     OW36439   4.410   1.161  14.837
 8308SOL    HW136440   4.470   1.240  14.851
 8308SOL    HW236441   4.324   1.192  14.796
 8309SOL     OW36442   4.162   0.392  14.533
 8309SOL    HW136443   4.244   0.336  14.542
 8309SOL    HW236444   4.081   0.334  14.537
 8310SOL     OW36445   3.954   1.434  13.572
 8310SOL    HW136446   3.928   1.530  13.572
 8310SOL    HW236447   3.883   1.380  13.617
 8311SOL     OW36448   4.330   0.964  13.157
 8311SOL    HW136449   4.337   1.048  13.103
 8311SOL    HW236450   4.376   0.977  13.245
 8312SOL     OW36451   3.846   0.643  13.597
 8312SOL    HW136452   3.801   0.555  13.614
 8312SOL    HW236453   3.845   0.697  13.681
 8313SOL     OW36454   4.533   0.004  13.536
 8313SOL    HW136455   4.573   0.095  13.527
 8313SOL    HW236456   4.433   0.012  13.542
 8314SOL     OW36457   3.921   0.976  14.298
 8314SOL    HW136458   4.010   0.931  14.284
 8314SOL    HW236459   3.848   0.911  14.279
 8315SOL     OW36460   4.322   0.729  13.304
 8315SOL    HW136461   4.346   0.798  13.236
 8315SOL    HW236462   4.244   0.762  13.358
 8316SOL     OW36463   4.045   0.943  13.276
 8316SOL    HW136464   4.127   0.982  13.234
 8316SOL    HW236465   4.018   0.861  13.227
 8317SOL     OW36466   4.612   1.514  14.229
 8317SOL    HW136467   4.589   1.489  14.135
 8317SOL    HW236468   4.673   1.445  14.268
 8318SOL     OW36469   4.021   0.035  13.205
 8318SOL    HW136470   4.070   0.119  13.184
 8318SOL    HW236471   4.083  -0.030  13.250
 8319SOL     OW36472   4.183   1.152  13.775
 8319SOL    HW136473   4.112   1.125  13.840
 8319SOL    HW236474   4.157   1.124  13.682
 8320SOL     OW36475   4.212   1.385  13.208
 8320SOL    HW136476   4.125   1.370  13.255
 8320SOL    HW236477   4.195   1.411  13.113
 8321SOL     OW36478   4.251   0.256  13.362
 8321SOL    HW136479   4.278   0.197  13.287
 8321SOL    HW236480   4.251   0.351  13.331
 8322SOL     OW36481   4.429   1.050  13.402
 8322SOL    HW136482   4.415   1.057  13.501
 8322SOL    HW236483   4.513   0.999  13.384
 8323SOL     OW36484   4.091   1.100  13.535
 8323SOL    HW136485   4.084   1.183  13.479
 8323SOL    HW236486   4.095   1.020  13.475
 8324SOL     OW36487   4.737   0.105  14.804
 8324SOL    HW136488   4.743   0.190  14.752
 8324SOL    HW236489   4.769   0.029  14.747
 8325SOL     OW36490   4.031   0.063  13.652
 8325SOL    HW136491   4.020   0.157  13.685
 8325SOL    HW236492   4.026   0.000  13.729
 8326SOL     OW36493   4.654   1.678  14.499
 8326SOL    HW136494   4.630   1.660  14.404
 8326SOL    HW236495   4.684   1.772  14.509
 8327SOL     OW36496   4.197   0.500  13.225
 8327SOL    HW136497   4.258   0.580  13.229
 8327SOL    HW236498   4.102   0.531  13.232
 8328SOL     OW36499   4.738   0.236  14.005
 8328SOL    HW136500   4.730   0.200  13.912
 8328SOL    HW236501   4.736   0.160  14.070
 8329SOL     OW36502   3.799   0.345  13.067
 8329SOL    HW136503   3.707   0.317  13.038
 8329SOL    HW236504   3.830   0.422  13.011
 8330SOL     OW36505   3.796   0.166  13.352
 8330SOL    HW136506   3.779   0.249  13.298
 8330SOL    HW236507   3.886   0.129  13.330
 8331SOL     OW36508   4.583   1.374  13.050
 8331SOL    HW136509   4.537   1.389  13.138
 8331SOL    HW236510   4.627   1.459  13.020
 8332SOL     OW36511   4.041   0.547  14.314
 8332SOL    HW136512   4.079   0.488  14.386
 8332SOL    HW236513   4.081   0.521  14.226
 8333SOL     OW36514   3.763   1.077  13.334
 8333SOL    HW136515   3.862   1.066  13.325
 8333SOL    HW236516   3.723   0.991  13.366
 8334SOL     OW36517   4.574   0.798  16.720
 8334SOL    HW136518   4.570   0.874  16.785
 8334SOL    HW236519   4.596   0.834  16.629
 8335SOL     OW36520   4.162   0.392  16.396
 8335SOL    HW136521   4.244   0.336  16.405
 8335SOL    HW236522   4.081   0.334  16.400
 8336SOL     OW36523   3.954   1.434  15.434
 8336SOL    HW136524   3.928   1.530  15.434
 8336SOL    HW236525   3.883   1.380  15.479
 8337SOL     OW36526   3.964   1.091  15.782
 8337SOL    HW136527   3.978   1.007  15.834
 8337SOL    HW236528   3.909   1.155  15.837
 8338SOL     OW36529   3.846   0.643  15.459
 8338SOL    HW136530   3.801   0.555  15.476
 8338SOL    HW236531   3.845   0.697  15.543
 8339SOL     OW36532   4.533   0.004  15.398
 8339SOL    HW136533   4.573   0.095  15.389
 8339SOL    HW236534   4.433   0.012  15.404
 8340SOL     OW36535   3.921   0.976  16.161
 8340SOL    HW136536   4.010   0.931  16.147
 8340SOL    HW236537   3.848   0.911  16.142
 8341SOL     OW36538   4.531   0.605  16.362
 8341SOL    HW136539   4.484   0.602  16.451
 8341SOL    HW236540   4.480   0.550  16.296
 8342SOL     OW36541   4.697   0.890  16.469
 8342SOL    HW136542   4.743   0.806  16.440
 8342SOL    HW236543   4.641   0.924  16.394
 8343SOL     OW36544   3.800   0.811  15.685
 8343SOL    HW136545   3.899   0.799  15.694
 8343SOL    HW236546   3.776   0.906  15.706
 8344SOL     OW36547   4.589   0.348  15.091
 8344SOL    HW136548   4.648   0.411  15.042
 8344SOL    HW236549   4.608   0.254  15.062
 8345SOL     OW36550   3.973   1.785  16.138
 8345SOL    HW136551   4.030   1.720  16.188
 8345SOL    HW236552   3.957   1.752  16.045
 8346SOL     OW36553   4.646   0.503  15.795
 8346SOL    HW136554   4.621   0.494  15.699
 8346SOL    HW236555   4.694   0.421  15.826
 8347SOL     OW36556   4.659   0.236  15.376
 8347SOL    HW136557   4.611   0.277  15.298
 8347SOL    HW236558   4.758   0.234  15.357
 8348SOL     OW36559   4.590   0.454  15.538
 8348SOL    HW136560   4.558   0.526  15.476
 8348SOL    HW236561   4.614   0.373  15.485
 8349SOL     OW36562   4.212   1.385  15.070
 8349SOL    HW136563   4.125   1.370  15.117
 8349SOL    HW236564   4.195   1.411  14.975
 8350SOL     OW36565   4.134   0.813  16.148
 8350SOL    HW136566   4.220   0.825  16.198
 8350SOL    HW236567   4.092   0.726  16.175
 8351SOL     OW36568   4.126   0.751  16.495
 8351SOL    HW136569   4.194   0.806  16.448
 8351SOL    HW236570   4.166   0.663  16.522
 8352SOL     OW36571   4.933   0.525  15.171
 8352SOL    HW136572   4.946   0.441  15.225
 8352SOL    HW236573   4.904   0.599  15.231
 8353SOL     OW36574   4.456   0.634  15.961
 8353SOL    HW136575   4.515   0.608  15.885
 8353SOL    HW236576   4.428   0.730  15.950
 8354SOL     OW36577   4.043   0.810  15.846
 8354SOL    HW136578   4.136   0.846  15.851
 8354SOL    HW236579   4.037   0.725  15.898
 8355SOL     OW36580   4.063   0.509  15.903
 8355SOL    HW136581   4.011   0.426  15.886
 8355SOL    HW236582   4.140   0.514  15.839
 8356SOL     OW36583   3.732   1.326  15.096
 8356SOL    HW136584   3.639   1.347  15.065
 8356SOL    HW236585   3.742   1.227  15.109
 8357SOL     OW36586   3.812   1.801  15.823
 8357SOL    HW136587   3.770   1.715  15.796
 8357SOL    HW236588   3.906   1.804  15.789
 8358SOL     OW36589   3.764   0.544  16.011
 8358SOL    HW136590   3.849   0.511  15.970
 8358SOL    HW236591   3.777   0.559  16.109
 8359SOL     OW36592   3.976   1.564  16.641
 8359SOL    HW136593   3.946   1.621  16.717
 8359SOL    HW236594   3.969   1.467  16.667
 8360SOL     OW36595   3.807   1.258  15.919
 8360SOL    HW136596   3.802   1.257  16.019
 8360SOL    HW236597   3.724   1.217  15.881
 8361SOL     OW36598   3.854   1.794  16.748
 8361SOL    HW136599   3.813   1.720  16.801
 8361SOL    HW236600   3.918   1.845  16.806
 8362SOL     OW36601   3.987   0.326  15.616
 8362SOL    HW136602   3.908   0.377  15.582
 8362SOL    HW236603   3.978   0.311  15.714
 8363SOL     OW36604   4.546   1.002  16.269
 8363SOL    HW136605   4.586   1.001  16.177
 8363SOL    HW236606   4.556   1.094  16.309
 8364SOL     OW36607   4.314   1.487  15.387
 8364SOL    HW136608   4.356   1.429  15.317
 8364SOL    HW236609   4.270   1.566  15.343
 8365SOL     OW36610   3.979   1.348  15.186
 8365SOL    HW136611   3.883   1.349  15.159
 8365SOL    HW236612   3.991   1.401  15.270
 8366SOL     OW36613   4.337   0.842  16.328
 8366SOL    HW136614   4.393   0.923  16.311
 8366SOL    HW236615   4.396   0.762  16.331
 8367SOL     OW36616   4.440   0.565  16.605
 8367SOL    HW136617   4.459   0.630  16.679
 8367SOL    HW236618   4.500   0.485  16.614
 8368SOL     OW36619   4.949   0.325  15.345
 8368SOL    HW136620   5.014   0.251  15.334
 8368SOL    HW236621   4.969   0.375  15.429
 8369SOL     OW36622   3.803   1.240  15.549
 8369SOL    HW136623   3.802   1.193  15.637
 8369SOL    HW236624   3.885   1.212  15.498
 8370SOL     OW36625   4.152   0.424  15.416
 8370SOL    HW136626   4.182   0.352  15.354
 8370SOL    HW236627   4.113   0.384  15.499
 8371SOL     OW36628   4.041   0.547  16.177
 8371SOL    HW136629   4.079   0.488  16.249
 8371SOL    HW236630   4.081   0.521  16.089
 8372SOL     OW36631   4.494   1.330  15.197
 8372SOL    HW136632   4.448   1.243  15.214
 8372SOL    HW236633   4.585   1.327  15.238
 8373SOL     OW36634   3.743   0.368  17.406
 8373SOL    HW136635   3.661   0.411  17.445
 8373SOL    HW236636   3.715   0.295  17.343
 8374SOL     OW36637   3.955   1.713  17.242
 8374SOL    HW136638   3.989   1.790  17.296
 8374SOL    HW236639   3.999   1.713  17.152
 8375SOL     OW36640   4.330   0.964  16.882
 8375SOL    HW136641   4.337   1.048  16.828
 8375SOL    HW236642   4.376   0.977  16.970
 8376SOL     OW36643   3.846   0.643  17.322
 8376SOL    HW136644   3.801   0.555  17.339
 8376SOL    HW236645   3.845   0.697  17.406
 8377SOL     OW36646   3.751   1.596  16.876
 8377SOL    HW136647   3.732   1.500  16.897
 8377SOL    HW236648   3.718   1.654  16.951
 8378SOL     OW36649   4.337   1.365  17.485
 8378SOL    HW136650   4.288   1.278  17.494
 8378SOL    HW236651   4.314   1.408  17.398
 8379SOL     OW36652   4.322   0.729  17.029
 8379SOL    HW136653   4.346   0.798  16.961
 8379SOL    HW236654   4.244   0.762  17.083
 8380SOL     OW36655   4.732   1.456  17.236
 8380SOL    HW136656   4.686   1.528  17.184
 8380SOL    HW236657   4.728   1.476  17.334
 8381SOL     OW36658   3.973   1.785  18.000
 8381SOL    HW136659   4.030   1.720  18.050
 8381SOL    HW236660   3.957   1.752  17.907
 8382SOL     OW36661   4.106   0.700  17.239
 8382SOL    HW136662   4.151   0.610  17.236
 8382SOL    HW236663   4.012   0.689  17.272
 8383SOL     OW36664   4.756   0.549  16.775
 8383SOL    HW136665   4.715   0.631  16.736
 8383SOL    HW236666   4.820   0.575  16.848
 8384SOL     OW36667   4.741   0.039  17.512
 8384SOL    HW136668   4.669   0.044  17.443
 8384SOL    HW236669   4.717  -0.030  17.581
 8385SOL     OW36670   4.251   0.256  17.087
 8385SOL    HW136671   4.278   0.197  17.012
 8385SOL    HW236672   4.251   0.351  17.056
 8386SOL     OW36673   4.429   1.050  17.127
 8386SOL    HW136674   4.415   1.057  17.226
 8386SOL    HW236675   4.513   0.999  17.109
 8387SOL     OW36676   4.297   0.870  17.788
 8387SOL    HW136677   4.341   0.959  17.779
 8387SOL    HW236678   4.234   0.870  17.865
 8388SOL     OW36679   4.031   0.063  17.377
 8388SOL    HW136680   4.020   0.157  17.410
 8388SOL    HW236681   4.026   0.000  17.454
 8389SOL     OW36682   4.747   0.766  17.725
 8389SOL    HW136683   4.762   0.787  17.821
 8389SOL    HW236684   4.717   0.671  17.716
 8390SOL     OW36685   3.732   1.326  16.959
 8390SOL    HW136686   3.639   1.347  16.928
 8390SOL    HW236687   3.742   1.227  16.972
 8391SOL     OW36688   4.726   0.796  17.997
 8391SOL    HW136689   4.767   0.764  18.083
 8391SOL    HW236690   4.630   0.769  17.994
 8392SOL     OW36691   4.197   0.500  16.950
 8392SOL    HW136692   4.258   0.580  16.954
 8392SOL    HW236693   4.102   0.531  16.957
 8393SOL     OW36694   3.987   0.326  17.479
 8393SOL    HW136695   3.908   0.377  17.445
 8393SOL    HW236696   3.978   0.311  17.577
 8394SOL     OW36697   4.314   1.487  17.250
 8394SOL    HW136698   4.356   1.429  17.180
 8394SOL    HW236699   4.270   1.566  17.206
 8395SOL     OW36700   4.949   0.325  17.208
 8395SOL    HW136701   5.014   0.251  17.197
 8395SOL    HW236702   4.969   0.375  17.292
 8396SOL     OW36703   4.583   0.956  17.620
 8396SOL    HW136704   4.637   0.887  17.668
 8396SOL    HW236705   4.551   1.025  17.686
 8397SOL     OW36706   4.152   0.424  17.279
 8397SOL    HW136707   4.182   0.352  17.217
 8397SOL    HW236708   4.113   0.384  17.362
 8398SOL     OW36709   4.536   1.586  17.446
 8398SOL    HW136710   4.568   1.596  17.352
 8398SOL    HW236711   4.457   1.524  17.448
 8399SOL     OW36712   4.494   1.330  17.060
 8399SOL    HW136713   4.448   1.243  17.077
 8399SOL    HW236714   4.585   1.327  17.101
 8400SOL     OW36715   3.949   2.137   0.996
 8400SOL    HW136716   3.984   2.120   1.088
 8400SOL    HW236717   3.861   2.092   0.984
 8401SOL     OW36718   4.293   3.137   1.165
 8401SOL    HW136719   4.200   3.130   1.128
 8401SOL    HW236720   4.304   3.226   1.209
 8402SOL     OW36721   4.492   3.006   1.023
 8402SOL    HW136722   4.414   3.023   1.083
 8402SOL    HW236723   4.526   3.093   0.987
 8403SOL     OW36724   4.574   2.660   1.823
 8403SOL    HW136725   4.570   2.736   1.888
 8403SOL    HW236726   4.596   2.696   1.732
 8404SOL     OW36727   4.410   3.023   1.803
 8404SOL    HW136728   4.470   3.102   1.817
 8404SOL    HW236729   4.324   3.054   1.762
 8405SOL     OW36730   4.059   3.297   1.061
 8405SOL    HW136731   3.981   3.266   1.008
 8405SOL    HW236732   4.117   3.355   1.004
 8406SOL     OW36733   3.955   3.575   0.483
 8406SOL    HW136734   3.989   3.652   0.537
 8406SOL    HW236735   3.999   3.575   0.393
 8407SOL     OW36736   3.954   3.296   0.538
 8407SOL    HW136737   3.928   3.392   0.538
 8407SOL    HW236738   3.883   3.242   0.583
 8408SOL     OW36739   3.964   2.953   0.886
 8408SOL    HW136740   3.978   2.869   0.938
 8408SOL    HW236741   3.909   3.017   0.941
 8409SOL     OW36742   4.344   3.648   1.439
 8409SOL    HW136743   4.252   3.631   1.474
 8409SOL    HW236744   4.372   3.740   1.465
 8410SOL     OW36745   4.330   2.826   0.123
 8410SOL    HW136746   4.337   2.910   0.069
 8410SOL    HW236747   4.376   2.839   0.211
 8411SOL     OW36748   3.751   3.458   0.117
 8411SOL    HW136749   3.732   3.362   0.138
 8411SOL    HW236750   3.718   3.516   0.192
 8412SOL     OW36751   4.337   3.227   0.726
 8412SOL    HW136752   4.288   3.140   0.735
 8412SOL    HW236753   4.314   3.270   0.639
 8413SOL     OW36754   3.921   2.838   1.264
 8413SOL    HW136755   4.010   2.793   1.250
 8413SOL    HW236756   3.848   2.773   1.245
 8414SOL     OW36757   4.041   2.113   1.801
 8414SOL    HW136758   4.112   2.184   1.807
 8414SOL    HW236759   3.953   2.152   1.829
 8415SOL     OW36760   4.531   2.467   1.465
 8415SOL    HW136761   4.484   2.464   1.554
 8415SOL    HW236762   4.480   2.412   1.399
 8416SOL     OW36763   4.697   2.752   1.572
 8416SOL    HW136764   4.743   2.668   1.543
 8416SOL    HW236765   4.641   2.786   1.497
 8417SOL     OW36766   3.800   2.673   0.789
 8417SOL    HW136767   3.899   2.661   0.798
 8417SOL    HW236768   3.776   2.768   0.810
 8418SOL     OW36769   3.854   3.683   1.571
 8418SOL    HW136770   3.844   3.668   1.670
 8418SOL    HW236771   3.768   3.719   1.535
 8419SOL     OW36772   4.075   3.663   0.853
 8419SOL    HW136773   4.125   3.577   0.859
 8419SOL    HW236774   4.140   3.740   0.850
 8420SOL     OW36775   4.045   2.805   0.242
 8420SOL    HW136776   4.127   2.844   0.200
 8420SOL    HW236777   4.018   2.723   0.193
 8421SOL     OW36778   4.185   3.128   1.727
 8421SOL    HW136779   4.135   3.129   1.641
 8421SOL    HW236780   4.122   3.110   1.803
 8422SOL     OW36781   3.973   3.647   1.241
 8422SOL    HW136782   4.030   3.582   1.291
 8422SOL    HW236783   3.957   3.614   1.148
 8423SOL     OW36784   4.505   2.126   1.749
 8423SOL    HW136785   4.572   2.065   1.792
 8423SOL    HW236786   4.432   2.145   1.814
 8424SOL     OW36787   4.527   3.264   0.924
 8424SOL    HW136788   4.617   3.278   0.882
 8424SOL    HW236789   4.456   3.266   0.853
 8425SOL     OW36790   4.263   1.926   0.512
 8425SOL    HW136791   4.182   1.927   0.570
 8425SOL    HW236792   4.266   2.009   0.457
 8426SOL     OW36793   4.021   1.897   0.171
 8426SOL    HW136794   4.070   1.981   0.150
 8426SOL    HW236795   4.083   1.832   0.216
 8427SOL     OW36796   4.951   3.432   0.793
 8427SOL    HW136797   4.972   3.506   0.728
 8427SOL    HW236798   5.019   3.432   0.866
 8428SOL     OW36799   4.183   3.014   0.741
 8428SOL    HW136800   4.112   2.987   0.806
 8428SOL    HW236801   4.157   2.986   0.648
 8429SOL     OW36802   4.285   2.084   1.147
 8429SOL    HW136803   4.323   2.000   1.184
 8429SOL    HW236804   4.197   2.103   1.191
 8430SOL     OW36805   4.212   3.247   0.174
 8430SOL    HW136806   4.125   3.232   0.221
 8430SOL    HW236807   4.195   3.273   0.079
 8431SOL     OW36808   4.704   2.978   1.719
 8431SOL    HW136809   4.605   2.984   1.729
 8431SOL    HW236810   4.727   2.898   1.663
 8432SOL     OW36811   4.429   2.912   0.368
 8432SOL    HW136812   4.415   2.919   0.467
 8432SOL    HW236813   4.513   2.861   0.350
 8433SOL     OW36814   4.134   2.675   1.251
 8433SOL    HW136815   4.220   2.687   1.301
 8433SOL    HW236816   4.092   2.588   1.278
 8434SOL     OW36817   3.788   3.426   1.331
 8434SOL    HW136818   3.742   3.508   1.297
 8434SOL    HW236819   3.886   3.445   1.340
 8435SOL     OW36820   4.091   2.962   0.501
 8435SOL    HW136821   4.084   3.045   0.445
 8435SOL    HW236822   4.095   2.882   0.441
 8436SOL     OW36823   4.078   3.372   1.329
 8436SOL    HW136824   4.057   3.328   1.242
 8436SOL    HW236825   4.175   3.398   1.332
 8437SOL     OW36826   4.737   1.967   1.770
 8437SOL    HW136827   4.743   2.052   1.718
 8437SOL    HW236828   4.769   1.891   1.713
 8438SOL     OW36829   4.228   1.912   1.740
 8438SOL    HW136830   4.186   1.855   1.670
 8438SOL    HW236831   4.162   1.981   1.772
 8439SOL     OW36832   4.297   2.732   1.029
 8439SOL    HW136833   4.341   2.821   1.020
 8439SOL    HW236834   4.234   2.732   1.106
 8440SOL     OW36835   3.761   3.172   1.282
 8440SOL    HW136836   3.814   3.123   1.350
 8440SOL    HW236837   3.783   3.270   1.287
 8441SOL     OW36838   4.031   1.925   0.618
 8441SOL    HW136839   4.020   2.019   0.651
 8441SOL    HW236840   4.026   1.862   0.695
 8442SOL     OW36841   4.704   3.435   1.700
 8442SOL    HW136842   4.684   3.479   1.612
 8442SOL    HW236843   4.743   3.344   1.684
 8443SOL     OW36844   4.043   2.672   0.949
 8443SOL    HW136845   4.136   2.708   0.954
 8443SOL    HW236846   4.037   2.587   1.001
 8444SOL     OW36847   3.732   3.188   0.200
 8444SOL    HW136848   3.639   3.209   0.169
 8444SOL    HW236849   3.742   3.089   0.213
 8445SOL     OW36850   3.812   3.663   0.927
 8445SOL    HW136851   3.770   3.577   0.900
 8445SOL    HW236852   3.906   3.666   0.893
 8446SOL     OW36853   4.228   3.430   0.910
 8446SOL    HW136854   4.294   3.504   0.919
 8446SOL    HW236855   4.272   3.351   0.868
 8447SOL     OW36856   4.539   2.434   0.325
 8447SOL    HW136857   4.546   2.345   0.279
 8447SOL    HW236858   4.445   2.468   0.317
 8448SOL     OW36859   3.976   3.426   1.744
 8448SOL    HW136860   3.946   3.483   1.820
 8448SOL    HW236861   3.969   3.329   1.770
 8449SOL     OW36862   4.654   3.540   1.465
 8449SOL    HW136863   4.630   3.522   1.370
 8449SOL    HW236864   4.684   3.634   1.475
 8450SOL     OW36865   3.883   2.999   1.466
 8450SOL    HW136866   3.905   2.938   1.542
 8450SOL    HW236867   3.893   2.950   1.380
 8451SOL     OW36868   3.807   3.120   1.022
 8451SOL    HW136869   3.802   3.119   1.122
 8451SOL    HW236870   3.724   3.079   0.984
 8452SOL     OW36871   4.412   3.524   1.716
 8452SOL    HW136872   4.356   3.605   1.725
 8452SOL    HW236873   4.464   3.528   1.630
 8453SOL     OW36874   3.854   3.656   1.851
 8453SOL    HW136875   3.813   3.582   1.904
 8453SOL    HW236876   3.918   3.707   1.909
 8454SOL     OW36877   5.004   2.789   0.672
 8454SOL    HW136878   5.064   2.708   0.674
 8454SOL    HW236879   5.044   2.858   0.612
 8455SOL     OW36880   4.554   3.135   1.422
 8455SOL    HW136881   4.549   3.168   1.517
 8455SOL    HW236882   4.468   3.154   1.376
 8456SOL     OW36883   4.096   3.150   1.490
 8456SOL    HW136884   4.083   3.243   1.456
 8456SOL    HW236885   4.012   3.098   1.477
 8457SOL     OW36886   3.979   3.210   0.290
 8457SOL    HW136887   3.883   3.211   0.263
 8457SOL    HW236888   3.991   3.263   0.374
 8458SOL     OW36889   3.829   2.875   1.726
 8458SOL    HW136890   3.752   2.842   1.780
 8458SOL    HW236891   3.914   2.845   1.768
 8459SOL     OW36892   4.396   2.065   1.489
 8459SOL    HW136893   4.486   2.049   1.449
 8459SOL    HW236894   4.404   2.070   1.588
 8460SOL     OW36895   4.337   2.704   1.431
 8460SOL    HW136896   4.393   2.785   1.414
 8460SOL    HW236897   4.396   2.624   1.434
 8461SOL     OW36898   4.440   2.427   1.708
 8461SOL    HW136899   4.459   2.492   1.782
 8461SOL    HW236900   4.500   2.347   1.717
 8462SOL     OW36901   4.114   3.603   1.560
 8462SOL    HW136902   4.023   3.644   1.558
 8462SOL    HW236903   4.107   3.509   1.592
 8463SOL     OW36904   4.385   3.652   0.953
 8463SOL    HW136905   4.339   3.740   0.940
 8463SOL    HW236906   4.484   3.664   0.946
 8464SOL     OW36907   3.945   3.176   1.844
 8464SOL    HW136908   3.880   3.103   1.823
 8464SOL    HW236909   3.949   3.190   1.942
 8465SOL     OW36910   3.803   3.102   0.653
 8465SOL    HW136911   3.802   3.055   0.741
 8465SOL    HW236912   3.885   3.074   0.602
 8466SOL     OW36913   4.396   3.253   1.624
 8466SOL    HW136914   4.318   3.203   1.662
 8466SOL    HW236915   4.393   3.348   1.655
 8467SOL     OW36916   4.152   2.286   0.520
 8467SOL    HW136917   4.182   2.214   0.458
 8467SOL    HW236918   4.113   2.246   0.603
 8468SOL     OW36919   4.536   3.448   0.687
 8468SOL    HW136920   4.568   3.458   0.593
 8468SOL    HW236921   4.457   3.386   0.689
 8469SOL     OW36922   4.342   3.429   1.284
 8469SOL    HW136923   4.337   3.511   1.341
 8469SOL    HW236924   4.431   3.426   1.239
 8470SOL     OW36925   3.763   2.939   0.300
 8470SOL    HW136926   3.862   2.928   0.291
 8470SOL    HW236927   3.723   2.853   0.332
 8471SOL     OW36928   3.949   2.137   2.858
 8471SOL    HW136929   3.984   2.120   2.950
 8471SOL    HW236930   3.861   2.092   2.846
 8472SOL     OW36931   3.743   2.230   2.509
 8472SOL    HW136932   3.661   2.273   2.548
 8472SOL    HW236933   3.715   2.157   2.446
 8473SOL     OW36934   4.293   3.137   3.027
 8473SOL    HW136935   4.200   3.130   2.990
 8473SOL    HW236936   4.304   3.226   3.071
 8474SOL     OW36937   4.492   3.006   2.885
 8474SOL    HW136938   4.414   3.023   2.945
 8474SOL    HW236939   4.526   3.093   2.849
 8475SOL     OW36940   4.574   2.660   3.685
 8475SOL    HW136941   4.570   2.736   3.750
 8475SOL    HW236942   4.596   2.696   3.594
 8476SOL     OW36943   4.409   2.874   2.527
 8476SOL    HW136944   4.478   2.858   2.597
 8476SOL    HW236945   4.336   2.931   2.565
 8477SOL     OW36946   4.410   3.023   3.665
 8477SOL    HW136947   4.470   3.102   3.679
 8477SOL    HW236948   4.324   3.054   3.624
 8478SOL     OW36949   4.059   3.297   2.923
 8478SOL    HW136950   3.981   3.266   2.870
 8478SOL    HW236951   4.117   3.355   2.866
 8479SOL     OW36952   4.162   2.254   3.361
 8479SOL    HW136953   4.244   2.198   3.370
 8479SOL    HW236954   4.081   2.196   3.365
 8480SOL     OW36955   3.955   3.575   2.345
 8480SOL    HW136956   3.989   3.652   2.399
 8480SOL    HW236957   3.999   3.575   2.255
 8481SOL     OW36958   3.954   3.296   2.400
 8481SOL    HW136959   3.928   3.392   2.400
 8481SOL    HW236960   3.883   3.242   2.445
 8482SOL     OW36961   3.964   2.953   2.748
 8482SOL    HW136962   3.978   2.869   2.800
 8482SOL    HW236963   3.909   3.017   2.803
 8483SOL     OW36964   4.344   3.648   3.301
 8483SOL    HW136965   4.252   3.631   3.336
 8483SOL    HW236966   4.372   3.740   3.327
 8484SOL     OW36967   4.330   2.826   1.985
 8484SOL    HW136968   4.337   2.910   1.931
 8484SOL    HW236969   4.376   2.839   2.073
 8485SOL     OW36970   3.846   2.505   2.425
 8485SOL    HW136971   3.801   2.417   2.442
 8485SOL    HW236972   3.845   2.559   2.509
 8486SOL     OW36973   3.751   3.458   1.979
 8486SOL    HW136974   3.732   3.362   2.000
 8486SOL    HW236975   3.718   3.516   2.054
 8487SOL     OW36976   3.837   2.599   3.459
 8487SOL    HW136977   3.925   2.586   3.504
 8487SOL    HW236978   3.824   2.696   3.437
 8488SOL     OW36979   4.337   3.227   2.588
 8488SOL    HW136980   4.288   3.140   2.597
 8488SOL    HW236981   4.314   3.270   2.501
 8489SOL     OW36982   4.533   1.866   2.364
 8489SOL    HW136983   4.573   1.957   2.355
 8489SOL    HW236984   4.433   1.874   2.370
 8490SOL     OW36985   3.921   2.838   3.126
 8490SOL    HW136986   4.010   2.793   3.112
 8490SOL    HW236987   3.848   2.773   3.107
 8491SOL     OW36988   4.041   2.113   3.663
 8491SOL    HW136989   4.112   2.184   3.669
 8491SOL    HW236990   3.953   2.152   3.691
 8492SOL     OW36991   4.322   2.591   2.132
 8492SOL    HW136992   4.346   2.660   2.064
 8492SOL    HW236993   4.244   2.624   2.186
 8493SOL     OW36994   4.531   2.467   3.327
 8493SOL    HW136995   4.484   2.464   3.416
 8493SOL    HW236996   4.480   2.412   3.261
 8494SOL     OW36997   4.697   2.752   3.434
 8494SOL    HW136998   4.743   2.668   3.405
 8494SOL    HW236999   4.641   2.786   3.359
 8495SOL     OW37000   4.715   2.272   3.104
 8495SOL    HW137001   4.638   2.306   3.158
 8495SOL    HW237002   4.681   2.221   3.025
 8496SOL     OW37003   3.800   2.673   2.651
 8496SOL    HW137004   3.899   2.661   2.660
 8496SOL    HW237005   3.776   2.768   2.672
 8497SOL     OW37006   3.854   3.683   3.433
 8497SOL    HW137007   3.844   3.668   3.532
 8497SOL    HW237008   3.768   3.719   3.397
 8498SOL     OW37009   4.589   2.210   2.057
 8498SOL    HW137010   4.648   2.273   2.008
 8498SOL    HW237011   4.608   2.116   2.028
 8499SOL     OW37012   4.274   2.058   2.747
 8499SOL    HW137013   4.269   2.053   2.847
 8499SOL    HW237014   4.276   2.154   2.718
 8500SOL     OW37015   4.732   3.318   2.339
 8500SOL    HW137016   4.686   3.390   2.287
 8500SOL    HW237017   4.728   3.338   2.437
 8501SOL     OW37018   4.075   3.663   2.715
 8501SOL    HW137019   4.125   3.577   2.721
 8501SOL    HW237020   4.140   3.740   2.712
 8502SOL     OW37021   4.185   3.128   3.589
 8502SOL    HW137022   4.135   3.129   3.503
 8502SOL    HW237023   4.122   3.110   3.665
 8503SOL     OW37024   3.926   2.147   3.360
 8503SOL    HW137025   3.846   2.207   3.347
 8503SOL    HW237026   3.916   2.098   3.446
 8504SOL     OW37027   4.188   3.605   2.185
 8504SOL    HW137028   4.221   3.644   2.271
 8504SOL    HW237029   4.264   3.598   2.120
 8505SOL     OW37030   3.973   3.647   3.103
 8505SOL    HW137031   4.030   3.582   3.153
 8505SOL    HW237032   3.957   3.614   3.010
 8506SOL     OW37033   4.106   2.562   2.342
 8506SOL    HW137034   4.151   2.472   2.339
 8506SOL    HW237035   4.012   2.551   2.375
 8507SOL     OW37036   4.338   1.984   1.979
 8507SOL    HW137037   4.436   1.962   1.986
 8507SOL    HW237038   4.307   1.967   1.886
 8508SOL     OW37039   4.505   2.126   3.611
 8508SOL    HW137040   4.572   2.065   3.654
 8508SOL    HW237041   4.432   2.145   3.676
 8509SOL     OW37042   4.612   3.376   3.057
 8509SOL    HW137043   4.589   3.351   2.963
 8509SOL    HW237044   4.673   3.307   3.096
 8510SOL     OW37045   4.527   3.264   2.786
 8510SOL    HW137046   4.617   3.278   2.744
 8510SOL    HW237047   4.456   3.266   2.715
 8511SOL     OW37048   4.646   2.365   2.761
 8511SOL    HW137049   4.621   2.356   2.665
 8511SOL    HW237050   4.694   2.283   2.792
 8512SOL     OW37051   4.263   1.926   2.374
 8512SOL    HW137052   4.182   1.927   2.432
 8512SOL    HW237053   4.266   2.009   2.319
 8513SOL     OW37054   4.021   1.897   2.033
 8513SOL    HW137055   4.070   1.981   2.012
 8513SOL    HW237056   4.083   1.832   2.078
 8514SOL     OW37057   4.659   2.098   2.342
 8514SOL    HW137058   4.611   2.139   2.264
 8514SOL    HW237059   4.758   2.096   2.323
 8515SOL     OW37060   4.951   3.432   2.655
 8515SOL    HW137061   4.972   3.506   2.590
 8515SOL    HW237062   5.019   3.432   2.728
 8516SOL     OW37063   4.183   3.014   2.603
 8516SOL    HW137064   4.112   2.987   2.668
 8516SOL    HW237065   4.157   2.986   2.510
 8517SOL     OW37066   4.756   2.411   1.878
 8517SOL    HW137067   4.715   2.493   1.839
 8517SOL    HW237068   4.820   2.437   1.951
 8518SOL     OW37069   3.802   2.418   3.248
 8518SOL    HW137070   3.894   2.417   3.207
 8518SOL    HW237071   3.796   2.492   3.315
 8519SOL     OW37072   4.285   2.084   3.009
 8519SOL    HW137073   4.323   2.000   3.046
 8519SOL    HW237074   4.197   2.103   3.053
 8520SOL     OW37075   4.590   2.316   2.504
 8520SOL    HW137076   4.558   2.388   2.442
 8520SOL    HW237077   4.614   2.235   2.451
 8521SOL     OW37078   4.741   1.901   2.615
 8521SOL    HW137079   4.669   1.906   2.546
 8521SOL    HW237080   4.717   1.832   2.684
 8522SOL     OW37081   4.212   3.247   2.036
 8522SOL    HW137082   4.125   3.232   2.083
 8522SOL    HW237083   4.195   3.273   1.941
 8523SOL     OW37084   4.251   2.118   2.190
 8523SOL    HW137085   4.278   2.059   2.115
 8523SOL    HW237086   4.251   2.213   2.159
 8524SOL     OW37087   4.639   1.951   3.264
 8524SOL    HW137088   4.664   1.931   3.169
 8524SOL    HW237089   4.711   2.007   3.306
 8525SOL     OW37090   4.704   2.978   3.581
 8525SOL    HW137091   4.605   2.984   3.591
 8525SOL    HW237092   4.727   2.898   3.525
 8526SOL     OW37093   4.429   2.912   2.230
 8526SOL    HW137094   4.415   2.919   2.329
 8526SOL    HW237095   4.513   2.861   2.212
 8527SOL     OW37096   4.134   2.675   3.113
 8527SOL    HW137097   4.220   2.687   3.163
 8527SOL    HW237098   4.092   2.588   3.140
 8528SOL     OW37099   3.788   3.426   3.193
 8528SOL    HW137100   3.742   3.508   3.159
 8528SOL    HW237101   3.886   3.445   3.202
 8529SOL     OW37102   4.091   2.962   2.363
 8529SOL    HW137103   4.084   3.045   2.307
 8529SOL    HW237104   4.095   2.882   2.303
 8530SOL     OW37105   4.290   2.399   2.727
 8530SOL    HW137106   4.302   2.465   2.653
 8530SOL    HW237107   4.336   2.433   2.810
 8531SOL     OW37108   4.078   3.372   3.191
 8531SOL    HW137109   4.057   3.328   3.104
 8531SOL    HW237110   4.175   3.398   3.194
 8532SOL     OW37111   4.126   2.613   3.460
 8532SOL    HW137112   4.194   2.668   3.413
 8532SOL    HW237113   4.166   2.525   3.487
 8533SOL     OW37114   4.737   1.967   3.632
 8533SOL    HW137115   4.743   2.052   3.580
 8533SOL    HW237116   4.769   1.891   3.575
 8534SOL     OW37117   4.228   1.912   3.602
 8534SOL    HW137118   4.186   1.855   3.532
 8534SOL    HW237119   4.162   1.981   3.634
 8535SOL     OW37120   4.297   2.732   2.891
 8535SOL    HW137121   4.341   2.821   2.882
 8535SOL    HW237122   4.234   2.732   2.968
 8536SOL     OW37123   4.933   2.387   2.137
 8536SOL    HW137124   4.946   2.303   2.191
 8536SOL    HW237125   4.904   2.461   2.197
 8537SOL     OW37126   4.031   2.075   3.093
 8537SOL    HW137127   4.008   2.112   3.183
 8537SOL    HW237128   4.001   1.980   3.087
 8538SOL     OW37129   3.761   3.172   3.144
 8538SOL    HW137130   3.814   3.123   3.212
 8538SOL    HW237131   3.783   3.270   3.149
 8539SOL     OW37132   4.456   2.496   2.926
 8539SOL    HW137133   4.515   2.470   2.850
 8539SOL    HW237134   4.428   2.592   2.915
 8540SOL     OW37135   4.031   1.925   2.480
 8540SOL    HW137136   4.020   2.019   2.513
 8540SOL    HW237137   4.026   1.862   2.557
 8541SOL     OW37138   4.747   2.628   2.828
 8541SOL    HW137139   4.762   2.649   2.924
 8541SOL    HW237140   4.717   2.533   2.819
 8542SOL     OW37141   4.704   3.435   3.562
 8542SOL    HW137142   4.684   3.479   3.474
 8542SOL    HW237143   4.743   3.344   3.546
 8543SOL     OW37144   4.074   2.760   3.666
 8543SOL    HW137145   4.150   2.804   3.714
 8543SOL    HW237146   4.109   2.713   3.584
 8544SOL     OW37147   4.043   2.672   2.811
 8544SOL    HW137148   4.136   2.708   2.816
 8544SOL    HW237149   4.037   2.587   2.863
 8545SOL     OW37150   4.063   2.371   2.868
 8545SOL    HW137151   4.011   2.288   2.851
 8545SOL    HW237152   4.140   2.376   2.804
 8546SOL     OW37153   3.812   3.663   2.789
 8546SOL    HW137154   3.770   3.577   2.762
 8546SOL    HW237155   3.906   3.666   2.755
 8547SOL     OW37156   4.228   3.430   2.772
 8547SOL    HW137157   4.294   3.504   2.781
 8547SOL    HW237158   4.272   3.351   2.730
 8548SOL     OW37159   4.726   2.658   3.100
 8548SOL    HW137160   4.767   2.626   3.186
 8548SOL    HW237161   4.630   2.631   3.097
 8549SOL     OW37162   3.764   2.406   2.976
 8549SOL    HW137163   3.849   2.373   2.935
 8549SOL    HW237164   3.777   2.421   3.074
 8550SOL     OW37165   3.913   2.382   3.584
 8550SOL    HW137166   3.972   2.342   3.514
 8550SOL    HW237167   3.855   2.453   3.543
 8551SOL     OW37168   4.539   2.434   2.187
 8551SOL    HW137169   4.546   2.345   2.141
 8551SOL    HW237170   4.445   2.468   2.179
 8552SOL     OW37171   3.976   3.426   3.606
 8552SOL    HW137172   3.946   3.483   3.682
 8552SOL    HW237173   3.969   3.329   3.632
 8553SOL     OW37174   4.395   2.326   3.131
 8553SOL    HW137175   4.361   2.237   3.101
 8553SOL    HW237176   4.421   2.380   3.051
 8554SOL     OW37177   4.654   3.540   3.327
 8554SOL    HW137178   4.630   3.522   3.232
 8554SOL    HW237179   4.684   3.634   3.337
 8555SOL     OW37180   4.197   2.362   2.053
 8555SOL    HW137181   4.258   2.442   2.057
 8555SOL    HW237182   4.102   2.393   2.060
 8556SOL     OW37183   3.883   2.999   3.328
 8556SOL    HW137184   3.905   2.938   3.404
 8556SOL    HW237185   3.893   2.950   3.242
 8557SOL     OW37186   3.807   3.120   2.884
 8557SOL    HW137187   3.802   3.119   2.984
 8557SOL    HW237188   3.724   3.079   2.846
 8558SOL     OW37189   4.412   3.524   3.578
 8558SOL    HW137190   4.356   3.605   3.587
 8558SOL    HW237191   4.464   3.528   3.492
 8559SOL     OW37192   3.854   3.656   3.713
 8559SOL    HW137193   3.813   3.582   3.766
 8559SOL    HW237194   3.918   3.707   3.771
 8560SOL     OW37195   5.004   2.789   2.534
 8560SOL    HW137196   5.064   2.708   2.536
 8560SOL    HW237197   5.044   2.858   2.474
 8561SOL     OW37198   4.554   3.135   3.284
 8561SOL    HW137199   4.549   3.168   3.379
 8561SOL    HW237200   4.468   3.154   3.238
 8562SOL     OW37201   4.396   3.478   2.016
 8562SOL    HW137202   4.405   3.488   1.917
 8562SOL    HW237203   4.356   3.389   2.037
 8563SOL     OW37204   3.987   2.188   2.582
 8563SOL    HW137205   3.908   2.239   2.548
 8563SOL    HW237206   3.978   2.173   2.680
 8564SOL     OW37207   4.546   2.864   3.234
 8564SOL    HW137208   4.586   2.863   3.142
 8564SOL    HW237209   4.556   2.956   3.274
 8565SOL     OW37210   4.640   2.772   2.153
 8565SOL    HW137211   4.703   2.810   2.085
 8565SOL    HW237212   4.680   2.689   2.192
 8566SOL     OW37213   4.096   3.150   3.352
 8566SOL    HW137214   4.083   3.243   3.318
 8566SOL    HW237215   4.012   3.098   3.339
 8567SOL     OW37216   4.763   2.960   2.558
 8567SOL    HW137217   4.693   2.913   2.612
 8567SOL    HW237218   4.822   2.892   2.515
 8568SOL     OW37219   4.738   2.098   2.833
 8568SOL    HW137220   4.730   2.062   2.740
 8568SOL    HW237221   4.736   2.022   2.898
 8569SOL     OW37222   4.314   3.349   2.353
 8569SOL    HW137223   4.356   3.291   2.283
 8569SOL    HW237224   4.270   3.428   2.309
 8570SOL     OW37225   3.979   3.210   2.152
 8570SOL    HW137226   3.883   3.211   2.125
 8570SOL    HW237227   3.991   3.263   2.236
 8571SOL     OW37228   3.829   2.875   3.588
 8571SOL    HW137229   3.752   2.842   3.642
 8571SOL    HW237230   3.914   2.845   3.630
 8572SOL     OW37231   4.396   2.065   3.351
 8572SOL    HW137232   4.486   2.049   3.311
 8572SOL    HW237233   4.404   2.070   3.450
 8573SOL     OW37234   3.796   2.028   2.180
 8573SOL    HW137235   3.779   2.111   2.126
 8573SOL    HW237236   3.886   1.991   2.158
 8574SOL     OW37237   4.337   2.704   3.293
 8574SOL    HW137238   4.393   2.785   3.276
 8574SOL    HW237239   4.396   2.624   3.296
 8575SOL     OW37240   4.440   2.427   3.570
 8575SOL    HW137241   4.459   2.492   3.644
 8575SOL    HW237242   4.500   2.347   3.579
 8576SOL     OW37243   4.114   3.603   3.422
 8576SOL    HW137244   4.023   3.644   3.420
 8576SOL    HW237245   4.107   3.509   3.454
 8577SOL     OW37246   4.949   2.187   2.311
 8577SOL    HW137247   5.014   2.113   2.300
 8577SOL    HW237248   4.969   2.237   2.395
 8578SOL     OW37249   4.318   2.607   2.514
 8578SOL    HW137250   4.368   2.692   2.495
 8578SOL    HW237251   4.230   2.609   2.466
 8579SOL     OW37252   4.583   3.236   1.878
 8579SOL    HW137253   4.537   3.251   1.966
 8579SOL    HW237254   4.627   3.321   1.848
 8580SOL     OW37255   4.385   3.652   2.815
 8580SOL    HW137256   4.339   3.740   2.802
 8580SOL    HW237257   4.484   3.664   2.808
 8581SOL     OW37258   4.583   2.818   2.723
 8581SOL    HW137259   4.637   2.749   2.771
 8581SOL    HW237260   4.551   2.887   2.789
 8582SOL     OW37261   3.945   3.176   3.706
 8582SOL    HW137262   3.880   3.103   3.685
 8582SOL    HW237263   3.949   3.190   3.804
 8583SOL     OW37264   3.803   3.102   2.515
 8583SOL    HW137265   3.802   3.055   2.603
 8583SOL    HW237266   3.885   3.074   2.464
 8584SOL     OW37267   4.396   3.253   3.486
 8584SOL    HW137268   4.318   3.203   3.524
 8584SOL    HW237269   4.393   3.348   3.517
 8585SOL     OW37270   4.152   2.286   2.382
 8585SOL    HW137271   4.182   2.214   2.320
 8585SOL    HW237272   4.113   2.246   2.465
 8586SOL     OW37273   4.041   2.409   3.142
 8586SOL    HW137274   4.079   2.350   3.214
 8586SOL    HW237275   4.081   2.383   3.054
 8587SOL     OW37276   4.536   3.448   2.549
 8587SOL    HW137277   4.568   3.458   2.455
 8587SOL    HW237278   4.457   3.386   2.551
 8588SOL     OW37279   4.725   1.896   3.016
 8588SOL    HW137280   4.662   1.824   2.985
 8588SOL    HW237281   4.818   1.860   3.016
 8589SOL     OW37282   4.494   3.192   2.163
 8589SOL    HW137283   4.448   3.105   2.180
 8589SOL    HW237284   4.585   3.189   2.204
 8590SOL     OW37285   4.342   3.429   3.146
 8590SOL    HW137286   4.337   3.511   3.203
 8590SOL    HW237287   4.431   3.426   3.101
 8591SOL     OW37288   4.599   3.508   2.199
 8591SOL    HW137289   4.522   3.473   2.145
 8591SOL    HW237290   4.567   3.579   2.261
 8592SOL     OW37291   3.954   2.490   3.837
 8592SOL    HW137292   3.861   2.488   3.874
 8592SOL    HW237293   3.955   2.451   3.745
 8593SOL     OW37294   3.949   2.137   4.720
 8593SOL    HW137295   3.984   2.120   4.812
 8593SOL    HW237296   3.861   2.092   4.708
 8594SOL     OW37297   3.743   2.230   4.371
 8594SOL    HW137298   3.661   2.273   4.410
 8594SOL    HW237299   3.715   2.157   4.308
 8595SOL     OW37300   4.293   3.137   4.889
 8595SOL    HW137301   4.200   3.130   4.852
 8595SOL    HW237302   4.304   3.226   4.933
 8596SOL     OW37303   4.492   3.006   4.747
 8596SOL    HW137304   4.414   3.023   4.807
 8596SOL    HW237305   4.526   3.093   4.711
 8597SOL     OW37306   4.574   2.660   5.547
 8597SOL    HW137307   4.570   2.736   5.612
 8597SOL    HW237308   4.596   2.696   5.456
 8598SOL     OW37309   4.409   2.874   4.389
 8598SOL    HW137310   4.478   2.858   4.459
 8598SOL    HW237311   4.336   2.931   4.427
 8599SOL     OW37312   4.410   3.023   5.527
 8599SOL    HW137313   4.470   3.102   5.541
 8599SOL    HW237314   4.324   3.054   5.486
 8600SOL     OW37315   4.059   3.297   4.785
 8600SOL    HW137316   3.981   3.266   4.732
 8600SOL    HW237317   4.117   3.355   4.728
 8601SOL     OW37318   4.162   2.254   5.223
 8601SOL    HW137319   4.244   2.198   5.232
 8601SOL    HW237320   4.081   2.196   5.227
 8602SOL     OW37321   3.955   3.575   4.207
 8602SOL    HW137322   3.989   3.652   4.261
 8602SOL    HW237323   3.999   3.575   4.117
 8603SOL     OW37324   3.954   3.296   4.262
 8603SOL    HW137325   3.928   3.392   4.262
 8603SOL    HW237326   3.883   3.242   4.307
 8604SOL     OW37327   3.964   2.953   4.610
 8604SOL    HW137328   3.978   2.869   4.662
 8604SOL    HW237329   3.909   3.017   4.665
 8605SOL     OW37330   4.344   3.648   5.163
 8605SOL    HW137331   4.252   3.631   5.198
 8605SOL    HW237332   4.372   3.740   5.189
 8606SOL     OW37333   4.330   2.826   3.847
 8606SOL    HW137334   4.337   2.910   3.793
 8606SOL    HW237335   4.376   2.839   3.935
 8607SOL     OW37336   3.846   2.505   4.287
 8607SOL    HW137337   3.801   2.417   4.304
 8607SOL    HW237338   3.845   2.559   4.371
 8608SOL     OW37339   3.751   3.458   3.841
 8608SOL    HW137340   3.732   3.362   3.862
 8608SOL    HW237341   3.718   3.516   3.916
 8609SOL     OW37342   3.837   2.599   5.321
 8609SOL    HW137343   3.925   2.586   5.366
 8609SOL    HW237344   3.824   2.696   5.299
 8610SOL     OW37345   4.337   3.227   4.450
 8610SOL    HW137346   4.288   3.140   4.459
 8610SOL    HW237347   4.314   3.270   4.363
 8611SOL     OW37348   4.533   1.866   4.226
 8611SOL    HW137349   4.573   1.957   4.217
 8611SOL    HW237350   4.433   1.874   4.232
 8612SOL     OW37351   3.921   2.838   4.988
 8612SOL    HW137352   4.010   2.793   4.974
 8612SOL    HW237353   3.848   2.773   4.969
 8613SOL     OW37354   4.041   2.113   5.525
 8613SOL    HW137355   4.112   2.184   5.531
 8613SOL    HW237356   3.953   2.152   5.553
 8614SOL     OW37357   4.322   2.591   3.994
 8614SOL    HW137358   4.346   2.660   3.926
 8614SOL    HW237359   4.244   2.624   4.048
 8615SOL     OW37360   4.531   2.467   5.189
 8615SOL    HW137361   4.484   2.464   5.278
 8615SOL    HW237362   4.480   2.412   5.123
 8616SOL     OW37363   4.697   2.752   5.296
 8616SOL    HW137364   4.743   2.668   5.267
 8616SOL    HW237365   4.641   2.786   5.221
 8617SOL     OW37366   4.715   2.272   4.966
 8617SOL    HW137367   4.638   2.306   5.020
 8617SOL    HW237368   4.681   2.221   4.887
 8618SOL     OW37369   3.800   2.673   4.513
 8618SOL    HW137370   3.899   2.661   4.522
 8618SOL    HW237371   3.776   2.768   4.534
 8619SOL     OW37372   3.854   3.683   5.295
 8619SOL    HW137373   3.844   3.668   5.394
 8619SOL    HW237374   3.768   3.719   5.259
 8620SOL     OW37375   4.589   2.210   3.919
 8620SOL    HW137376   4.648   2.273   3.870
 8620SOL    HW237377   4.608   2.116   3.890
 8621SOL     OW37378   4.274   2.058   4.609
 8621SOL    HW137379   4.269   2.053   4.709
 8621SOL    HW237380   4.276   2.154   4.580
 8622SOL     OW37381   4.732   3.318   4.201
 8622SOL    HW137382   4.686   3.390   4.149
 8622SOL    HW237383   4.728   3.338   4.299
 8623SOL     OW37384   4.075   3.663   4.577
 8623SOL    HW137385   4.125   3.577   4.583
 8623SOL    HW237386   4.140   3.740   4.574
 8624SOL     OW37387   4.045   2.805   3.966
 8624SOL    HW137388   4.127   2.844   3.924
 8624SOL    HW237389   4.018   2.723   3.917
 8625SOL     OW37390   4.185   3.128   5.451
 8625SOL    HW137391   4.135   3.129   5.365
 8625SOL    HW237392   4.122   3.110   5.527
 8626SOL     OW37393   3.926   2.147   5.222
 8626SOL    HW137394   3.846   2.207   5.209
 8626SOL    HW237395   3.916   2.098   5.308
 8627SOL     OW37396   4.188   3.605   4.047
 8627SOL    HW137397   4.221   3.644   4.133
 8627SOL    HW237398   4.264   3.598   3.982
 8628SOL     OW37399   3.973   3.647   4.965
 8628SOL    HW137400   4.030   3.582   5.015
 8628SOL    HW237401   3.957   3.614   4.872
 8629SOL     OW37402   4.106   2.562   4.204
 8629SOL    HW137403   4.151   2.472   4.201
 8629SOL    HW237404   4.012   2.551   4.237
 8630SOL     OW37405   4.338   1.984   3.841
 8630SOL    HW137406   4.436   1.962   3.848
 8630SOL    HW237407   4.307   1.967   3.748
 8631SOL     OW37408   4.505   2.126   5.473
 8631SOL    HW137409   4.572   2.065   5.516
 8631SOL    HW237410   4.432   2.145   5.538
 8632SOL     OW37411   4.612   3.376   4.919
 8632SOL    HW137412   4.589   3.351   4.825
 8632SOL    HW237413   4.673   3.307   4.958
 8633SOL     OW37414   4.527   3.264   4.648
 8633SOL    HW137415   4.617   3.278   4.606
 8633SOL    HW237416   4.456   3.266   4.577
 8634SOL     OW37417   4.646   2.365   4.623
 8634SOL    HW137418   4.621   2.356   4.527
 8634SOL    HW237419   4.694   2.283   4.654
 8635SOL     OW37420   4.263   1.926   4.236
 8635SOL    HW137421   4.182   1.927   4.294
 8635SOL    HW237422   4.266   2.009   4.181
 8636SOL     OW37423   4.021   1.897   3.895
 8636SOL    HW137424   4.070   1.981   3.874
 8636SOL    HW237425   4.083   1.832   3.940
 8637SOL     OW37426   4.659   2.098   4.204
 8637SOL    HW137427   4.611   2.139   4.126
 8637SOL    HW237428   4.758   2.096   4.185
 8638SOL     OW37429   4.951   3.432   4.517
 8638SOL    HW137430   4.972   3.506   4.452
 8638SOL    HW237431   5.019   3.432   4.590
 8639SOL     OW37432   4.183   3.014   4.465
 8639SOL    HW137433   4.112   2.987   4.530
 8639SOL    HW237434   4.157   2.986   4.372
 8640SOL     OW37435   4.756   2.411   3.740
 8640SOL    HW137436   4.715   2.493   3.701
 8640SOL    HW237437   4.820   2.437   3.813
 8641SOL     OW37438   3.802   2.418   5.110
 8641SOL    HW137439   3.894   2.417   5.069
 8641SOL    HW237440   3.796   2.492   5.177
 8642SOL     OW37441   4.285   2.084   4.871
 8642SOL    HW137442   4.323   2.000   4.908
 8642SOL    HW237443   4.197   2.103   4.915
 8643SOL     OW37444   4.590   2.316   4.366
 8643SOL    HW137445   4.558   2.388   4.304
 8643SOL    HW237446   4.614   2.235   4.313
 8644SOL     OW37447   4.741   1.901   4.477
 8644SOL    HW137448   4.669   1.906   4.408
 8644SOL    HW237449   4.717   1.832   4.546
 8645SOL     OW37450   4.212   3.247   3.898
 8645SOL    HW137451   4.125   3.232   3.945
 8645SOL    HW237452   4.195   3.273   3.803
 8646SOL     OW37453   4.251   2.118   4.052
 8646SOL    HW137454   4.278   2.059   3.977
 8646SOL    HW237455   4.251   2.213   4.021
 8647SOL     OW37456   4.639   1.951   5.126
 8647SOL    HW137457   4.664   1.931   5.031
 8647SOL    HW237458   4.711   2.007   5.168
 8648SOL     OW37459   4.704   2.978   5.443
 8648SOL    HW137460   4.605   2.984   5.453
 8648SOL    HW237461   4.727   2.898   5.387
 8649SOL     OW37462   4.429   2.912   4.092
 8649SOL    HW137463   4.415   2.919   4.191
 8649SOL    HW237464   4.513   2.861   4.074
 8650SOL     OW37465   4.134   2.675   4.975
 8650SOL    HW137466   4.220   2.687   5.025
 8650SOL    HW237467   4.092   2.588   5.002
 8651SOL     OW37468   3.788   3.426   5.055
 8651SOL    HW137469   3.742   3.508   5.021
 8651SOL    HW237470   3.886   3.445   5.064
 8652SOL     OW37471   4.091   2.962   4.225
 8652SOL    HW137472   4.084   3.045   4.169
 8652SOL    HW237473   4.095   2.882   4.165
 8653SOL     OW37474   4.290   2.399   4.589
 8653SOL    HW137475   4.302   2.465   4.515
 8653SOL    HW237476   4.336   2.433   4.672
 8654SOL     OW37477   4.078   3.372   5.053
 8654SOL    HW137478   4.057   3.328   4.966
 8654SOL    HW237479   4.175   3.398   5.056
 8655SOL     OW37480   4.126   2.613   5.322
 8655SOL    HW137481   4.194   2.668   5.275
 8655SOL    HW237482   4.166   2.525   5.349
 8656SOL     OW37483   4.737   1.967   5.494
 8656SOL    HW137484   4.743   2.052   5.442
 8656SOL    HW237485   4.769   1.891   5.437
 8657SOL     OW37486   4.228   1.912   5.464
 8657SOL    HW137487   4.186   1.855   5.394
 8657SOL    HW237488   4.162   1.981   5.496
 8658SOL     OW37489   4.297   2.732   4.753
 8658SOL    HW137490   4.341   2.821   4.744
 8658SOL    HW237491   4.234   2.732   4.830
 8659SOL     OW37492   4.933   2.387   3.999
 8659SOL    HW137493   4.946   2.303   4.053
 8659SOL    HW237494   4.904   2.461   4.059
 8660SOL     OW37495   4.031   2.075   4.955
 8660SOL    HW137496   4.008   2.112   5.045
 8660SOL    HW237497   4.001   1.980   4.949
 8661SOL     OW37498   3.761   3.172   5.006
 8661SOL    HW137499   3.814   3.123   5.074
 8661SOL    HW237500   3.783   3.270   5.011
 8662SOL     OW37501   4.456   2.496   4.788
 8662SOL    HW137502   4.515   2.470   4.712
 8662SOL    HW237503   4.428   2.592   4.777
 8663SOL     OW37504   4.031   1.925   4.342
 8663SOL    HW137505   4.020   2.019   4.375
 8663SOL    HW237506   4.026   1.862   4.419
 8664SOL     OW37507   4.747   2.628   4.690
 8664SOL    HW137508   4.762   2.649   4.786
 8664SOL    HW237509   4.717   2.533   4.681
 8665SOL     OW37510   4.704   3.435   5.424
 8665SOL    HW137511   4.684   3.479   5.336
 8665SOL    HW237512   4.743   3.344   5.408
 8666SOL     OW37513   4.074   2.760   5.528
 8666SOL    HW137514   4.150   2.804   5.576
 8666SOL    HW237515   4.109   2.713   5.446
 8667SOL     OW37516   4.043   2.672   4.673
 8667SOL    HW137517   4.136   2.708   4.678
 8667SOL    HW237518   4.037   2.587   4.725
 8668SOL     OW37519   4.063   2.371   4.730
 8668SOL    HW137520   4.011   2.288   4.713
 8668SOL    HW237521   4.140   2.376   4.666
 8669SOL     OW37522   3.732   3.188   3.924
 8669SOL    HW137523   3.639   3.209   3.893
 8669SOL    HW237524   3.742   3.089   3.937
 8670SOL     OW37525   3.812   3.663   4.651
 8670SOL    HW137526   3.770   3.577   4.624
 8670SOL    HW237527   3.906   3.666   4.617
 8671SOL     OW37528   4.228   3.430   4.634
 8671SOL    HW137529   4.294   3.504   4.643
 8671SOL    HW237530   4.272   3.351   4.592
 8672SOL     OW37531   4.726   2.658   4.962
 8672SOL    HW137532   4.767   2.626   5.048
 8672SOL    HW237533   4.630   2.631   4.959
 8673SOL     OW37534   3.764   2.406   4.838
 8673SOL    HW137535   3.849   2.373   4.797
 8673SOL    HW237536   3.777   2.421   4.936
 8674SOL     OW37537   3.913   2.382   5.446
 8674SOL    HW137538   3.972   2.342   5.376
 8674SOL    HW237539   3.855   2.453   5.405
 8675SOL     OW37540   4.539   2.434   4.049
 8675SOL    HW137541   4.546   2.345   4.003
 8675SOL    HW237542   4.445   2.468   4.041
 8676SOL     OW37543   3.976   3.426   5.468
 8676SOL    HW137544   3.946   3.483   5.544
 8676SOL    HW237545   3.969   3.329   5.494
 8677SOL     OW37546   4.395   2.326   4.993
 8677SOL    HW137547   4.361   2.237   4.963
 8677SOL    HW237548   4.421   2.380   4.913
 8678SOL     OW37549   4.654   3.540   5.189
 8678SOL    HW137550   4.630   3.522   5.094
 8678SOL    HW237551   4.684   3.634   5.199
 8679SOL     OW37552   4.197   2.362   3.915
 8679SOL    HW137553   4.258   2.442   3.919
 8679SOL    HW237554   4.102   2.393   3.922
 8680SOL     OW37555   3.883   2.999   5.190
 8680SOL    HW137556   3.905   2.938   5.266
 8680SOL    HW237557   3.893   2.950   5.104
 8681SOL     OW37558   3.807   3.120   4.746
 8681SOL    HW137559   3.802   3.119   4.846
 8681SOL    HW237560   3.724   3.079   4.708
 8682SOL     OW37561   4.412   3.524   5.440
 8682SOL    HW137562   4.356   3.605   5.449
 8682SOL    HW237563   4.464   3.528   5.354
 8683SOL     OW37564   3.854   3.656   5.575
 8683SOL    HW137565   3.813   3.582   5.628
 8683SOL    HW237566   3.918   3.707   5.633
 8684SOL     OW37567   5.004   2.789   4.396
 8684SOL    HW137568   5.064   2.708   4.398
 8684SOL    HW237569   5.044   2.858   4.336
 8685SOL     OW37570   4.554   3.135   5.146
 8685SOL    HW137571   4.549   3.168   5.241
 8685SOL    HW237572   4.468   3.154   5.100
 8686SOL     OW37573   4.396   3.478   3.878
 8686SOL    HW137574   4.405   3.488   3.779
 8686SOL    HW237575   4.356   3.389   3.899
 8687SOL     OW37576   3.987   2.188   4.444
 8687SOL    HW137577   3.908   2.239   4.410
 8687SOL    HW237578   3.978   2.173   4.542
 8688SOL     OW37579   4.546   2.864   5.096
 8688SOL    HW137580   4.586   2.863   5.004
 8688SOL    HW237581   4.556   2.956   5.136
 8689SOL     OW37582   4.640   2.772   4.015
 8689SOL    HW137583   4.703   2.810   3.947
 8689SOL    HW237584   4.680   2.689   4.054
 8690SOL     OW37585   4.096   3.150   5.214
 8690SOL    HW137586   4.083   3.243   5.180
 8690SOL    HW237587   4.012   3.098   5.201
 8691SOL     OW37588   4.763   2.960   4.420
 8691SOL    HW137589   4.693   2.913   4.474
 8691SOL    HW237590   4.822   2.892   4.377
 8692SOL     OW37591   4.738   2.098   4.695
 8692SOL    HW137592   4.730   2.062   4.602
 8692SOL    HW237593   4.736   2.022   4.760
 8693SOL     OW37594   4.314   3.349   4.215
 8693SOL    HW137595   4.356   3.291   4.145
 8693SOL    HW237596   4.270   3.428   4.171
 8694SOL     OW37597   3.979   3.210   4.014
 8694SOL    HW137598   3.883   3.211   3.987
 8694SOL    HW237599   3.991   3.263   4.098
 8695SOL     OW37600   3.829   2.875   5.450
 8695SOL    HW137601   3.752   2.842   5.504
 8695SOL    HW237602   3.914   2.845   5.492
 8696SOL     OW37603   4.396   2.065   5.213
 8696SOL    HW137604   4.486   2.049   5.173
 8696SOL    HW237605   4.404   2.070   5.312
 8697SOL     OW37606   3.799   2.207   3.757
 8697SOL    HW137607   3.707   2.179   3.728
 8697SOL    HW237608   3.830   2.284   3.701
 8698SOL     OW37609   3.796   2.028   4.042
 8698SOL    HW137610   3.779   2.111   3.988
 8698SOL    HW237611   3.886   1.991   4.020
 8699SOL     OW37612   4.337   2.704   5.155
 8699SOL    HW137613   4.393   2.785   5.138
 8699SOL    HW237614   4.396   2.624   5.158
 8700SOL     OW37615   4.440   2.427   5.432
 8700SOL    HW137616   4.459   2.492   5.506
 8700SOL    HW237617   4.500   2.347   5.441
 8701SOL     OW37618   4.114   3.603   5.284
 8701SOL    HW137619   4.023   3.644   5.282
 8701SOL    HW237620   4.107   3.509   5.316
 8702SOL     OW37621   4.949   2.187   4.173
 8702SOL    HW137622   5.014   2.113   4.162
 8702SOL    HW237623   4.969   2.237   4.257
 8703SOL     OW37624   4.318   2.607   4.376
 8703SOL    HW137625   4.368   2.692   4.357
 8703SOL    HW237626   4.230   2.609   4.328
 8704SOL     OW37627   4.583   3.236   3.740
 8704SOL    HW137628   4.537   3.251   3.828
 8704SOL    HW237629   4.627   3.321   3.710
 8705SOL     OW37630   4.385   3.652   4.677
 8705SOL    HW137631   4.339   3.740   4.664
 8705SOL    HW237632   4.484   3.664   4.670
 8706SOL     OW37633   4.583   2.818   4.585
 8706SOL    HW137634   4.637   2.749   4.633
 8706SOL    HW237635   4.551   2.887   4.651
 8707SOL     OW37636   3.945   3.176   5.568
 8707SOL    HW137637   3.880   3.103   5.547
 8707SOL    HW237638   3.949   3.190   5.666
 8708SOL     OW37639   3.803   3.102   4.377
 8708SOL    HW137640   3.802   3.055   4.465
 8708SOL    HW237641   3.885   3.074   4.326
 8709SOL     OW37642   4.396   3.253   5.348
 8709SOL    HW137643   4.318   3.203   5.386
 8709SOL    HW237644   4.393   3.348   5.379
 8710SOL     OW37645   4.152   2.286   4.244
 8710SOL    HW137646   4.182   2.214   4.182
 8710SOL    HW237647   4.113   2.246   4.327
 8711SOL     OW37648   4.041   2.409   5.004
 8711SOL    HW137649   4.079   2.350   5.076
 8711SOL    HW237650   4.081   2.383   4.916
 8712SOL     OW37651   4.536   3.448   4.411
 8712SOL    HW137652   4.568   3.458   4.317
 8712SOL    HW237653   4.457   3.386   4.413
 8713SOL     OW37654   4.725   1.896   4.878
 8713SOL    HW137655   4.662   1.824   4.847
 8713SOL    HW237656   4.818   1.860   4.878
 8714SOL     OW37657   4.494   3.192   4.025
 8714SOL    HW137658   4.448   3.105   4.042
 8714SOL    HW237659   4.585   3.189   4.066
 8715SOL     OW37660   4.342   3.429   5.008
 8715SOL    HW137661   4.337   3.511   5.065
 8715SOL    HW237662   4.431   3.426   4.963
 8716SOL     OW37663   3.763   2.939   4.024
 8716SOL    HW137664   3.862   2.928   4.015
 8716SOL    HW237665   3.723   2.853   4.056
 8717SOL     OW37666   4.599   3.508   4.061
 8717SOL    HW137667   4.522   3.473   4.007
 8717SOL    HW237668   4.567   3.579   4.123
 8718SOL     OW37669   3.954   2.490   5.699
 8718SOL    HW137670   3.861   2.488   5.736
 8718SOL    HW237671   3.955   2.451   5.607
 8719SOL     OW37672   3.949   2.137   6.582
 8719SOL    HW137673   3.984   2.120   6.674
 8719SOL    HW237674   3.861   2.092   6.570
 8720SOL     OW37675   3.743   2.230   6.233
 8720SOL    HW137676   3.661   2.273   6.272
 8720SOL    HW237677   3.715   2.157   6.170
 8721SOL     OW37678   4.293   3.137   6.751
 8721SOL    HW137679   4.200   3.130   6.714
 8721SOL    HW237680   4.304   3.226   6.795
 8722SOL     OW37681   4.492   3.006   6.609
 8722SOL    HW137682   4.414   3.023   6.669
 8722SOL    HW237683   4.526   3.093   6.573
 8723SOL     OW37684   4.574   2.660   7.409
 8723SOL    HW137685   4.570   2.736   7.474
 8723SOL    HW237686   4.596   2.696   7.318
 8724SOL     OW37687   4.409   2.874   6.251
 8724SOL    HW137688   4.478   2.858   6.321
 8724SOL    HW237689   4.336   2.931   6.289
 8725SOL     OW37690   4.410   3.023   7.389
 8725SOL    HW137691   4.470   3.102   7.403
 8725SOL    HW237692   4.324   3.054   7.348
 8726SOL     OW37693   4.059   3.297   6.647
 8726SOL    HW137694   3.981   3.266   6.594
 8726SOL    HW237695   4.117   3.355   6.590
 8727SOL     OW37696   4.162   2.254   7.085
 8727SOL    HW137697   4.244   2.198   7.094
 8727SOL    HW237698   4.081   2.196   7.089
 8728SOL     OW37699   3.955   3.575   6.069
 8728SOL    HW137700   3.989   3.652   6.123
 8728SOL    HW237701   3.999   3.575   5.979
 8729SOL     OW37702   3.954   3.296   6.124
 8729SOL    HW137703   3.928   3.392   6.124
 8729SOL    HW237704   3.883   3.242   6.169
 8730SOL     OW37705   3.964   2.953   6.472
 8730SOL    HW137706   3.978   2.869   6.524
 8730SOL    HW237707   3.909   3.017   6.527
 8731SOL     OW37708   4.344   3.648   7.025
 8731SOL    HW137709   4.252   3.631   7.060
 8731SOL    HW237710   4.372   3.740   7.051
 8732SOL     OW37711   4.330   2.826   5.709
 8732SOL    HW137712   4.337   2.910   5.655
 8732SOL    HW237713   4.376   2.839   5.797
 8733SOL     OW37714   3.846   2.505   6.149
 8733SOL    HW137715   3.801   2.417   6.166
 8733SOL    HW237716   3.845   2.559   6.233
 8734SOL     OW37717   3.751   3.458   5.703
 8734SOL    HW137718   3.732   3.362   5.724
 8734SOL    HW237719   3.718   3.516   5.778
 8735SOL     OW37720   3.837   2.599   7.183
 8735SOL    HW137721   3.925   2.586   7.228
 8735SOL    HW237722   3.824   2.696   7.161
 8736SOL     OW37723   4.337   3.227   6.312
 8736SOL    HW137724   4.288   3.140   6.321
 8736SOL    HW237725   4.314   3.270   6.225
 8737SOL     OW37726   4.533   1.866   6.088
 8737SOL    HW137727   4.573   1.957   6.079
 8737SOL    HW237728   4.433   1.874   6.094
 8738SOL     OW37729   3.921   2.838   6.850
 8738SOL    HW137730   4.010   2.793   6.836
 8738SOL    HW237731   3.848   2.773   6.831
 8739SOL     OW37732   4.041   2.113   7.387
 8739SOL    HW137733   4.112   2.184   7.393
 8739SOL    HW237734   3.953   2.152   7.415
 8740SOL     OW37735   4.322   2.591   5.856
 8740SOL    HW137736   4.346   2.660   5.788
 8740SOL    HW237737   4.244   2.624   5.910
 8741SOL     OW37738   4.531   2.467   7.051
 8741SOL    HW137739   4.484   2.464   7.140
 8741SOL    HW237740   4.480   2.412   6.985
 8742SOL     OW37741   4.697   2.752   7.158
 8742SOL    HW137742   4.743   2.668   7.129
 8742SOL    HW237743   4.641   2.786   7.083
 8743SOL     OW37744   4.715   2.272   6.828
 8743SOL    HW137745   4.638   2.306   6.882
 8743SOL    HW237746   4.681   2.221   6.749
 8744SOL     OW37747   3.800   2.673   6.375
 8744SOL    HW137748   3.899   2.661   6.384
 8744SOL    HW237749   3.776   2.768   6.396
 8745SOL     OW37750   3.854   3.683   7.157
 8745SOL    HW137751   3.844   3.668   7.256
 8745SOL    HW237752   3.768   3.719   7.121
 8746SOL     OW37753   4.589   2.210   5.781
 8746SOL    HW137754   4.648   2.273   5.732
 8746SOL    HW237755   4.608   2.116   5.752
 8747SOL     OW37756   4.274   2.058   6.471
 8747SOL    HW137757   4.269   2.053   6.571
 8747SOL    HW237758   4.276   2.154   6.442
 8748SOL     OW37759   4.732   3.318   6.063
 8748SOL    HW137760   4.686   3.390   6.011
 8748SOL    HW237761   4.728   3.338   6.161
 8749SOL     OW37762   4.075   3.663   6.439
 8749SOL    HW137763   4.125   3.577   6.445
 8749SOL    HW237764   4.140   3.740   6.436
 8750SOL     OW37765   4.045   2.805   5.828
 8750SOL    HW137766   4.127   2.844   5.786
 8750SOL    HW237767   4.018   2.723   5.779
 8751SOL     OW37768   4.185   3.128   7.313
 8751SOL    HW137769   4.135   3.129   7.227
 8751SOL    HW237770   4.122   3.110   7.389
 8752SOL     OW37771   3.926   2.147   7.084
 8752SOL    HW137772   3.846   2.207   7.071
 8752SOL    HW237773   3.916   2.098   7.170
 8753SOL     OW37774   4.188   3.605   5.909
 8753SOL    HW137775   4.221   3.644   5.995
 8753SOL    HW237776   4.264   3.598   5.844
 8754SOL     OW37777   3.973   3.647   6.827
 8754SOL    HW137778   4.030   3.582   6.877
 8754SOL    HW237779   3.957   3.614   6.734
 8755SOL     OW37780   4.106   2.562   6.066
 8755SOL    HW137781   4.151   2.472   6.063
 8755SOL    HW237782   4.012   2.551   6.099
 8756SOL     OW37783   4.338   1.984   5.703
 8756SOL    HW137784   4.436   1.962   5.710
 8756SOL    HW237785   4.307   1.967   5.610
 8757SOL     OW37786   4.505   2.126   7.335
 8757SOL    HW137787   4.572   2.065   7.378
 8757SOL    HW237788   4.432   2.145   7.400
 8758SOL     OW37789   4.612   3.376   6.781
 8758SOL    HW137790   4.589   3.351   6.687
 8758SOL    HW237791   4.673   3.307   6.820
 8759SOL     OW37792   4.527   3.264   6.510
 8759SOL    HW137793   4.617   3.278   6.468
 8759SOL    HW237794   4.456   3.266   6.439
 8760SOL     OW37795   4.646   2.365   6.485
 8760SOL    HW137796   4.621   2.356   6.389
 8760SOL    HW237797   4.694   2.283   6.516
 8761SOL     OW37798   4.263   1.926   6.098
 8761SOL    HW137799   4.182   1.927   6.156
 8761SOL    HW237800   4.266   2.009   6.043
 8762SOL     OW37801   4.021   1.897   5.757
 8762SOL    HW137802   4.070   1.981   5.736
 8762SOL    HW237803   4.083   1.832   5.802
 8763SOL     OW37804   4.659   2.098   6.066
 8763SOL    HW137805   4.611   2.139   5.988
 8763SOL    HW237806   4.758   2.096   6.047
 8764SOL     OW37807   4.951   3.432   6.379
 8764SOL    HW137808   4.972   3.506   6.314
 8764SOL    HW237809   5.019   3.432   6.452
 8765SOL     OW37810   4.183   3.014   6.327
 8765SOL    HW137811   4.112   2.987   6.392
 8765SOL    HW237812   4.157   2.986   6.234
 8766SOL     OW37813   4.756   2.411   5.602
 8766SOL    HW137814   4.715   2.493   5.563
 8766SOL    HW237815   4.820   2.437   5.675
 8767SOL     OW37816   3.802   2.418   6.972
 8767SOL    HW137817   3.894   2.417   6.931
 8767SOL    HW237818   3.796   2.492   7.039
 8768SOL     OW37819   4.285   2.084   6.733
 8768SOL    HW137820   4.323   2.000   6.770
 8768SOL    HW237821   4.197   2.103   6.777
 8769SOL     OW37822   4.590   2.316   6.228
 8769SOL    HW137823   4.558   2.388   6.166
 8769SOL    HW237824   4.614   2.235   6.175
 8770SOL     OW37825   4.741   1.901   6.339
 8770SOL    HW137826   4.669   1.906   6.270
 8770SOL    HW237827   4.717   1.832   6.408
 8771SOL     OW37828   4.212   3.247   5.760
 8771SOL    HW137829   4.125   3.232   5.807
 8771SOL    HW237830   4.195   3.273   5.665
 8772SOL     OW37831   4.251   2.118   5.914
 8772SOL    HW137832   4.278   2.059   5.839
 8772SOL    HW237833   4.251   2.213   5.883
 8773SOL     OW37834   4.639   1.951   6.988
 8773SOL    HW137835   4.664   1.931   6.893
 8773SOL    HW237836   4.711   2.007   7.030
 8774SOL     OW37837   4.704   2.978   7.305
 8774SOL    HW137838   4.605   2.984   7.315
 8774SOL    HW237839   4.727   2.898   7.249
 8775SOL     OW37840   4.429   2.912   5.954
 8775SOL    HW137841   4.415   2.919   6.053
 8775SOL    HW237842   4.513   2.861   5.936
 8776SOL     OW37843   4.134   2.675   6.837
 8776SOL    HW137844   4.220   2.687   6.887
 8776SOL    HW237845   4.092   2.588   6.864
 8777SOL     OW37846   3.788   3.426   6.917
 8777SOL    HW137847   3.742   3.508   6.883
 8777SOL    HW237848   3.886   3.445   6.926
 8778SOL     OW37849   4.091   2.962   6.087
 8778SOL    HW137850   4.084   3.045   6.031
 8778SOL    HW237851   4.095   2.882   6.027
 8779SOL     OW37852   4.290   2.399   6.451
 8779SOL    HW137853   4.302   2.465   6.377
 8779SOL    HW237854   4.336   2.433   6.534
 8780SOL     OW37855   4.078   3.372   6.915
 8780SOL    HW137856   4.057   3.328   6.828
 8780SOL    HW237857   4.175   3.398   6.918
 8781SOL     OW37858   4.126   2.613   7.184
 8781SOL    HW137859   4.194   2.668   7.137
 8781SOL    HW237860   4.166   2.525   7.211
 8782SOL     OW37861   4.737   1.967   7.356
 8782SOL    HW137862   4.743   2.052   7.304
 8782SOL    HW237863   4.769   1.891   7.299
 8783SOL     OW37864   4.228   1.912   7.326
 8783SOL    HW137865   4.186   1.855   7.256
 8783SOL    HW237866   4.162   1.981   7.358
 8784SOL     OW37867   4.297   2.732   6.615
 8784SOL    HW137868   4.341   2.821   6.606
 8784SOL    HW237869   4.234   2.732   6.692
 8785SOL     OW37870   4.933   2.387   5.861
 8785SOL    HW137871   4.946   2.303   5.915
 8785SOL    HW237872   4.904   2.461   5.921
 8786SOL     OW37873   4.031   2.075   6.817
 8786SOL    HW137874   4.008   2.112   6.907
 8786SOL    HW237875   4.001   1.980   6.811
 8787SOL     OW37876   3.761   3.172   6.868
 8787SOL    HW137877   3.814   3.123   6.936
 8787SOL    HW237878   3.783   3.270   6.873
 8788SOL     OW37879   4.456   2.496   6.650
 8788SOL    HW137880   4.515   2.470   6.574
 8788SOL    HW237881   4.428   2.592   6.639
 8789SOL     OW37882   4.031   1.925   6.204
 8789SOL    HW137883   4.020   2.019   6.237
 8789SOL    HW237884   4.026   1.862   6.281
 8790SOL     OW37885   4.747   2.628   6.552
 8790SOL    HW137886   4.762   2.649   6.648
 8790SOL    HW237887   4.717   2.533   6.543
 8791SOL     OW37888   4.704   3.435   7.286
 8791SOL    HW137889   4.684   3.479   7.198
 8791SOL    HW237890   4.743   3.344   7.270
 8792SOL     OW37891   4.074   2.760   7.390
 8792SOL    HW137892   4.150   2.804   7.438
 8792SOL    HW237893   4.109   2.713   7.308
 8793SOL     OW37894   4.043   2.672   6.535
 8793SOL    HW137895   4.136   2.708   6.540
 8793SOL    HW237896   4.037   2.587   6.587
 8794SOL     OW37897   4.063   2.371   6.592
 8794SOL    HW137898   4.011   2.288   6.575
 8794SOL    HW237899   4.140   2.376   6.528
 8795SOL     OW37900   3.732   3.188   5.786
 8795SOL    HW137901   3.639   3.209   5.755
 8795SOL    HW237902   3.742   3.089   5.799
 8796SOL     OW37903   3.812   3.663   6.513
 8796SOL    HW137904   3.770   3.577   6.486
 8796SOL    HW237905   3.906   3.666   6.479
 8797SOL     OW37906   4.228   3.430   6.496
 8797SOL    HW137907   4.294   3.504   6.505
 8797SOL    HW237908   4.272   3.351   6.454
 8798SOL     OW37909   4.726   2.658   6.824
 8798SOL    HW137910   4.767   2.626   6.910
 8798SOL    HW237911   4.630   2.631   6.821
 8799SOL     OW37912   3.764   2.406   6.700
 8799SOL    HW137913   3.849   2.373   6.659
 8799SOL    HW237914   3.777   2.421   6.798
 8800SOL     OW37915   3.913   2.382   7.308
 8800SOL    HW137916   3.972   2.342   7.238
 8800SOL    HW237917   3.855   2.453   7.267
 8801SOL     OW37918   4.539   2.434   5.911
 8801SOL    HW137919   4.546   2.345   5.865
 8801SOL    HW237920   4.445   2.468   5.903
 8802SOL     OW37921   3.976   3.426   7.330
 8802SOL    HW137922   3.946   3.483   7.406
 8802SOL    HW237923   3.969   3.329   7.356
 8803SOL     OW37924   4.395   2.326   6.855
 8803SOL    HW137925   4.361   2.237   6.825
 8803SOL    HW237926   4.421   2.380   6.775
 8804SOL     OW37927   4.654   3.540   7.051
 8804SOL    HW137928   4.630   3.522   6.956
 8804SOL    HW237929   4.684   3.634   7.061
 8805SOL     OW37930   4.197   2.362   5.777
 8805SOL    HW137931   4.258   2.442   5.781
 8805SOL    HW237932   4.102   2.393   5.784
 8806SOL     OW37933   3.883   2.999   7.052
 8806SOL    HW137934   3.905   2.938   7.128
 8806SOL    HW237935   3.893   2.950   6.966
 8807SOL     OW37936   3.807   3.120   6.608
 8807SOL    HW137937   3.802   3.119   6.708
 8807SOL    HW237938   3.724   3.079   6.570
 8808SOL     OW37939   4.412   3.524   7.302
 8808SOL    HW137940   4.356   3.605   7.311
 8808SOL    HW237941   4.464   3.528   7.216
 8809SOL     OW37942   3.854   3.656   7.437
 8809SOL    HW137943   3.813   3.582   7.490
 8809SOL    HW237944   3.918   3.707   7.495
 8810SOL     OW37945   5.004   2.789   6.258
 8810SOL    HW137946   5.064   2.708   6.260
 8810SOL    HW237947   5.044   2.858   6.198
 8811SOL     OW37948   4.554   3.135   7.008
 8811SOL    HW137949   4.549   3.168   7.103
 8811SOL    HW237950   4.468   3.154   6.962
 8812SOL     OW37951   4.396   3.478   5.740
 8812SOL    HW137952   4.405   3.488   5.641
 8812SOL    HW237953   4.356   3.389   5.761
 8813SOL     OW37954   3.987   2.188   6.306
 8813SOL    HW137955   3.908   2.239   6.272
 8813SOL    HW237956   3.978   2.173   6.404
 8814SOL     OW37957   4.546   2.864   6.958
 8814SOL    HW137958   4.586   2.863   6.866
 8814SOL    HW237959   4.556   2.956   6.998
 8815SOL     OW37960   4.640   2.772   5.877
 8815SOL    HW137961   4.703   2.810   5.809
 8815SOL    HW237962   4.680   2.689   5.916
 8816SOL     OW37963   4.096   3.150   7.076
 8816SOL    HW137964   4.083   3.243   7.042
 8816SOL    HW237965   4.012   3.098   7.063
 8817SOL     OW37966   4.763   2.960   6.282
 8817SOL    HW137967   4.693   2.913   6.336
 8817SOL    HW237968   4.822   2.892   6.239
 8818SOL     OW37969   4.738   2.098   6.557
 8818SOL    HW137970   4.730   2.062   6.464
 8818SOL    HW237971   4.736   2.022   6.622
 8819SOL     OW37972   4.314   3.349   6.077
 8819SOL    HW137973   4.356   3.291   6.007
 8819SOL    HW237974   4.270   3.428   6.033
 8820SOL     OW37975   3.979   3.210   5.876
 8820SOL    HW137976   3.883   3.211   5.849
 8820SOL    HW237977   3.991   3.263   5.960
 8821SOL     OW37978   3.829   2.875   7.312
 8821SOL    HW137979   3.752   2.842   7.366
 8821SOL    HW237980   3.914   2.845   7.354
 8822SOL     OW37981   4.396   2.065   7.075
 8822SOL    HW137982   4.486   2.049   7.035
 8822SOL    HW237983   4.404   2.070   7.174
 8823SOL     OW37984   3.799   2.207   5.619
 8823SOL    HW137985   3.707   2.179   5.590
 8823SOL    HW237986   3.830   2.284   5.563
 8824SOL     OW37987   3.796   2.028   5.904
 8824SOL    HW137988   3.779   2.111   5.850
 8824SOL    HW237989   3.886   1.991   5.882
 8825SOL     OW37990   4.337   2.704   7.017
 8825SOL    HW137991   4.393   2.785   7.000
 8825SOL    HW237992   4.396   2.624   7.020
 8826SOL     OW37993   4.440   2.427   7.294
 8826SOL    HW137994   4.459   2.492   7.368
 8826SOL    HW237995   4.500   2.347   7.303
 8827SOL     OW37996   4.114   3.603   7.146
 8827SOL    HW137997   4.023   3.644   7.144
 8827SOL    HW237998   4.107   3.509   7.178
 8828SOL     OW37999   4.949   2.187   6.035
 8828SOL    HW138000   5.014   2.113   6.024
 8828SOL    HW238001   4.969   2.237   6.119
 8829SOL     OW38002   4.318   2.607   6.238
 8829SOL    HW138003   4.368   2.692   6.219
 8829SOL    HW238004   4.230   2.609   6.190
 8830SOL     OW38005   4.583   3.236   5.602
 8830SOL    HW138006   4.537   3.251   5.690
 8830SOL    HW238007   4.627   3.321   5.572
 8831SOL     OW38008   4.385   3.652   6.539
 8831SOL    HW138009   4.339   3.740   6.526
 8831SOL    HW238010   4.484   3.664   6.532
 8832SOL     OW38011   4.583   2.818   6.447
 8832SOL    HW138012   4.637   2.749   6.495
 8832SOL    HW238013   4.551   2.887   6.513
 8833SOL     OW38014   3.945   3.176   7.430
 8833SOL    HW138015   3.880   3.103   7.409
 8833SOL    HW238016   3.949   3.190   7.528
 8834SOL     OW38017   3.803   3.102   6.239
 8834SOL    HW138018   3.802   3.055   6.327
 8834SOL    HW238019   3.885   3.074   6.188
 8835SOL     OW38020   4.396   3.253   7.210
 8835SOL    HW138021   4.318   3.203   7.248
 8835SOL    HW238022   4.393   3.348   7.241
 8836SOL     OW38023   4.152   2.286   6.106
 8836SOL    HW138024   4.182   2.214   6.044
 8836SOL    HW238025   4.113   2.246   6.189
 8837SOL     OW38026   4.041   2.409   6.866
 8837SOL    HW138027   4.079   2.350   6.938
 8837SOL    HW238028   4.081   2.383   6.778
 8838SOL     OW38029   4.536   3.448   6.273
 8838SOL    HW138030   4.568   3.458   6.179
 8838SOL    HW238031   4.457   3.386   6.275
 8839SOL     OW38032   4.725   1.896   6.740
 8839SOL    HW138033   4.662   1.824   6.709
 8839SOL    HW238034   4.818   1.860   6.740
 8840SOL     OW38035   4.494   3.192   5.887
 8840SOL    HW138036   4.448   3.105   5.904
 8840SOL    HW238037   4.585   3.189   5.928
 8841SOL     OW38038   4.342   3.429   6.870
 8841SOL    HW138039   4.337   3.511   6.927
 8841SOL    HW238040   4.431   3.426   6.825
 8842SOL     OW38041   3.763   2.939   5.886
 8842SOL    HW138042   3.862   2.928   5.877
 8842SOL    HW238043   3.723   2.853   5.918
 8843SOL     OW38044   4.599   3.508   5.923
 8843SOL    HW138045   4.522   3.473   5.869
 8843SOL    HW238046   4.567   3.579   5.985
 8844SOL     OW38047   3.954   2.490   7.561
 8844SOL    HW138048   3.861   2.488   7.598
 8844SOL    HW238049   3.955   2.451   7.469
 8845SOL     OW38050   3.949   2.137   8.444
 8845SOL    HW138051   3.984   2.120   8.536
 8845SOL    HW238052   3.861   2.092   8.432
 8846SOL     OW38053   3.743   2.230   8.095
 8846SOL    HW138054   3.661   2.273   8.134
 8846SOL    HW238055   3.715   2.157   8.032
 8847SOL     OW38056   4.293   3.137   8.613
 8847SOL    HW138057   4.200   3.130   8.576
 8847SOL    HW238058   4.304   3.226   8.657
 8848SOL     OW38059   4.492   3.006   8.471
 8848SOL    HW138060   4.414   3.023   8.531
 8848SOL    HW238061   4.526   3.093   8.435
 8849SOL     OW38062   4.574   2.660   9.271
 8849SOL    HW138063   4.570   2.736   9.336
 8849SOL    HW238064   4.596   2.696   9.180
 8850SOL     OW38065   4.409   2.874   8.113
 8850SOL    HW138066   4.478   2.858   8.183
 8850SOL    HW238067   4.336   2.931   8.151
 8851SOL     OW38068   4.410   3.023   9.251
 8851SOL    HW138069   4.470   3.102   9.265
 8851SOL    HW238070   4.324   3.054   9.210
 8852SOL     OW38071   4.059   3.297   8.509
 8852SOL    HW138072   3.981   3.266   8.456
 8852SOL    HW238073   4.117   3.355   8.452
 8853SOL     OW38074   4.162   2.254   8.947
 8853SOL    HW138075   4.244   2.198   8.956
 8853SOL    HW238076   4.081   2.196   8.951
 8854SOL     OW38077   3.955   3.575   7.931
 8854SOL    HW138078   3.989   3.652   7.985
 8854SOL    HW238079   3.999   3.575   7.841
 8855SOL     OW38080   3.954   3.296   7.986
 8855SOL    HW138081   3.928   3.392   7.986
 8855SOL    HW238082   3.883   3.242   8.031
 8856SOL     OW38083   3.964   2.953   8.334
 8856SOL    HW138084   3.978   2.869   8.386
 8856SOL    HW238085   3.909   3.017   8.389
 8857SOL     OW38086   4.344   3.648   8.887
 8857SOL    HW138087   4.252   3.631   8.922
 8857SOL    HW238088   4.372   3.740   8.913
 8858SOL     OW38089   4.330   2.826   7.571
 8858SOL    HW138090   4.337   2.910   7.517
 8858SOL    HW238091   4.376   2.839   7.659
 8859SOL     OW38092   3.846   2.505   8.011
 8859SOL    HW138093   3.801   2.417   8.028
 8859SOL    HW238094   3.845   2.559   8.095
 8860SOL     OW38095   3.751   3.458   7.565
 8860SOL    HW138096   3.732   3.362   7.586
 8860SOL    HW238097   3.718   3.516   7.640
 8861SOL     OW38098   3.837   2.599   9.045
 8861SOL    HW138099   3.925   2.586   9.090
 8861SOL    HW238100   3.824   2.696   9.023
 8862SOL     OW38101   4.337   3.227   8.174
 8862SOL    HW138102   4.288   3.140   8.183
 8862SOL    HW238103   4.314   3.270   8.087
 8863SOL     OW38104   4.533   1.866   7.950
 8863SOL    HW138105   4.573   1.957   7.941
 8863SOL    HW238106   4.433   1.874   7.956
 8864SOL     OW38107   3.921   2.838   8.712
 8864SOL    HW138108   4.010   2.793   8.698
 8864SOL    HW238109   3.848   2.773   8.693
 8865SOL     OW38110   4.041   2.113   9.249
 8865SOL    HW138111   4.112   2.184   9.255
 8865SOL    HW238112   3.953   2.152   9.277
 8866SOL     OW38113   4.322   2.591   7.718
 8866SOL    HW138114   4.346   2.660   7.650
 8866SOL    HW238115   4.244   2.624   7.772
 8867SOL     OW38116   4.531   2.467   8.913
 8867SOL    HW138117   4.484   2.464   9.002
 8867SOL    HW238118   4.480   2.412   8.847
 8868SOL     OW38119   4.697   2.752   9.020
 8868SOL    HW138120   4.743   2.668   8.991
 8868SOL    HW238121   4.641   2.786   8.945
 8869SOL     OW38122   4.715   2.272   8.690
 8869SOL    HW138123   4.638   2.306   8.744
 8869SOL    HW238124   4.681   2.221   8.611
 8870SOL     OW38125   3.800   2.673   8.237
 8870SOL    HW138126   3.899   2.661   8.246
 8870SOL    HW238127   3.776   2.768   8.258
 8871SOL     OW38128   3.854   3.683   9.019
 8871SOL    HW138129   3.844   3.668   9.118
 8871SOL    HW238130   3.768   3.719   8.983
 8872SOL     OW38131   4.589   2.210   7.643
 8872SOL    HW138132   4.648   2.273   7.594
 8872SOL    HW238133   4.608   2.116   7.614
 8873SOL     OW38134   4.274   2.058   8.333
 8873SOL    HW138135   4.269   2.053   8.433
 8873SOL    HW238136   4.276   2.154   8.304
 8874SOL     OW38137   4.732   3.318   7.925
 8874SOL    HW138138   4.686   3.390   7.873
 8874SOL    HW238139   4.728   3.338   8.023
 8875SOL     OW38140   4.075   3.663   8.301
 8875SOL    HW138141   4.125   3.577   8.307
 8875SOL    HW238142   4.140   3.740   8.298
 8876SOL     OW38143   4.045   2.805   7.690
 8876SOL    HW138144   4.127   2.844   7.648
 8876SOL    HW238145   4.018   2.723   7.641
 8877SOL     OW38146   4.185   3.128   9.175
 8877SOL    HW138147   4.135   3.129   9.089
 8877SOL    HW238148   4.122   3.110   9.251
 8878SOL     OW38149   3.926   2.147   8.946
 8878SOL    HW138150   3.846   2.207   8.933
 8878SOL    HW238151   3.916   2.098   9.032
 8879SOL     OW38152   4.188   3.605   7.771
 8879SOL    HW138153   4.221   3.644   7.857
 8879SOL    HW238154   4.264   3.598   7.706
 8880SOL     OW38155   3.973   3.647   8.689
 8880SOL    HW138156   4.030   3.582   8.739
 8880SOL    HW238157   3.957   3.614   8.596
 8881SOL     OW38158   4.106   2.562   7.928
 8881SOL    HW138159   4.151   2.472   7.925
 8881SOL    HW238160   4.012   2.551   7.961
 8882SOL     OW38161   4.338   1.984   7.565
 8882SOL    HW138162   4.436   1.962   7.572
 8882SOL    HW238163   4.307   1.967   7.472
 8883SOL     OW38164   4.505   2.126   9.197
 8883SOL    HW138165   4.572   2.065   9.240
 8883SOL    HW238166   4.432   2.145   9.262
 8884SOL     OW38167   4.612   3.376   8.643
 8884SOL    HW138168   4.589   3.351   8.549
 8884SOL    HW238169   4.673   3.307   8.682
 8885SOL     OW38170   4.527   3.264   8.372
 8885SOL    HW138171   4.617   3.278   8.330
 8885SOL    HW238172   4.456   3.266   8.301
 8886SOL     OW38173   4.646   2.365   8.347
 8886SOL    HW138174   4.621   2.356   8.251
 8886SOL    HW238175   4.694   2.283   8.378
 8887SOL     OW38176   4.263   1.926   7.960
 8887SOL    HW138177   4.182   1.927   8.018
 8887SOL    HW238178   4.266   2.009   7.905
 8888SOL     OW38179   4.021   1.897   7.619
 8888SOL    HW138180   4.070   1.981   7.598
 8888SOL    HW238181   4.083   1.832   7.664
 8889SOL     OW38182   4.659   2.098   7.928
 8889SOL    HW138183   4.611   2.139   7.850
 8889SOL    HW238184   4.758   2.096   7.909
 8890SOL     OW38185   4.951   3.432   8.241
 8890SOL    HW138186   4.972   3.506   8.176
 8890SOL    HW238187   5.019   3.432   8.314
 8891SOL     OW38188   4.183   3.014   8.189
 8891SOL    HW138189   4.112   2.987   8.254
 8891SOL    HW238190   4.157   2.986   8.096
 8892SOL     OW38191   4.756   2.411   7.464
 8892SOL    HW138192   4.715   2.493   7.425
 8892SOL    HW238193   4.820   2.437   7.537
 8893SOL     OW38194   3.802   2.418   8.834
 8893SOL    HW138195   3.894   2.417   8.793
 8893SOL    HW238196   3.796   2.492   8.901
 8894SOL     OW38197   4.285   2.084   8.595
 8894SOL    HW138198   4.323   2.000   8.632
 8894SOL    HW238199   4.197   2.103   8.639
 8895SOL     OW38200   4.590   2.316   8.090
 8895SOL    HW138201   4.558   2.388   8.028
 8895SOL    HW238202   4.614   2.235   8.037
 8896SOL     OW38203   4.741   1.901   8.201
 8896SOL    HW138204   4.669   1.906   8.132
 8896SOL    HW238205   4.717   1.832   8.270
 8897SOL     OW38206   4.212   3.247   7.622
 8897SOL    HW138207   4.125   3.232   7.669
 8897SOL    HW238208   4.195   3.273   7.527
 8898SOL     OW38209   4.251   2.118   7.776
 8898SOL    HW138210   4.278   2.059   7.701
 8898SOL    HW238211   4.251   2.213   7.745
 8899SOL     OW38212   4.639   1.951   8.850
 8899SOL    HW138213   4.664   1.931   8.755
 8899SOL    HW238214   4.711   2.007   8.892
 8900SOL     OW38215   4.704   2.978   9.167
 8900SOL    HW138216   4.605   2.984   9.177
 8900SOL    HW238217   4.727   2.898   9.111
 8901SOL     OW38218   4.429   2.912   7.816
 8901SOL    HW138219   4.415   2.919   7.915
 8901SOL    HW238220   4.513   2.861   7.798
 8902SOL     OW38221   4.134   2.675   8.699
 8902SOL    HW138222   4.220   2.687   8.749
 8902SOL    HW238223   4.092   2.588   8.726
 8903SOL     OW38224   3.788   3.426   8.779
 8903SOL    HW138225   3.742   3.508   8.745
 8903SOL    HW238226   3.886   3.445   8.788
 8904SOL     OW38227   4.091   2.962   7.949
 8904SOL    HW138228   4.084   3.045   7.893
 8904SOL    HW238229   4.095   2.882   7.889
 8905SOL     OW38230   4.290   2.399   8.313
 8905SOL    HW138231   4.302   2.465   8.239
 8905SOL    HW238232   4.336   2.433   8.396
 8906SOL     OW38233   4.078   3.372   8.777
 8906SOL    HW138234   4.057   3.328   8.690
 8906SOL    HW238235   4.175   3.398   8.780
 8907SOL     OW38236   4.126   2.613   9.046
 8907SOL    HW138237   4.194   2.668   8.999
 8907SOL    HW238238   4.166   2.525   9.073
 8908SOL     OW38239   4.737   1.967   9.218
 8908SOL    HW138240   4.743   2.052   9.166
 8908SOL    HW238241   4.769   1.891   9.161
 8909SOL     OW38242   4.228   1.912   9.188
 8909SOL    HW138243   4.186   1.855   9.118
 8909SOL    HW238244   4.162   1.981   9.220
 8910SOL     OW38245   4.297   2.732   8.477
 8910SOL    HW138246   4.341   2.821   8.468
 8910SOL    HW238247   4.234   2.732   8.554
 8911SOL     OW38248   4.933   2.387   7.723
 8911SOL    HW138249   4.946   2.303   7.777
 8911SOL    HW238250   4.904   2.461   7.783
 8912SOL     OW38251   4.031   2.075   8.679
 8912SOL    HW138252   4.008   2.112   8.769
 8912SOL    HW238253   4.001   1.980   8.673
 8913SOL     OW38254   3.761   3.172   8.730
 8913SOL    HW138255   3.814   3.123   8.798
 8913SOL    HW238256   3.783   3.270   8.735
 8914SOL     OW38257   4.456   2.496   8.512
 8914SOL    HW138258   4.515   2.470   8.436
 8914SOL    HW238259   4.428   2.592   8.501
 8915SOL     OW38260   4.031   1.925   8.066
 8915SOL    HW138261   4.020   2.019   8.099
 8915SOL    HW238262   4.026   1.862   8.143
 8916SOL     OW38263   4.747   2.628   8.414
 8916SOL    HW138264   4.762   2.649   8.510
 8916SOL    HW238265   4.717   2.533   8.405
 8917SOL     OW38266   4.704   3.435   9.148
 8917SOL    HW138267   4.684   3.479   9.060
 8917SOL    HW238268   4.743   3.344   9.132
 8918SOL     OW38269   4.074   2.760   9.252
 8918SOL    HW138270   4.150   2.804   9.300
 8918SOL    HW238271   4.109   2.713   9.170
 8919SOL     OW38272   4.043   2.672   8.397
 8919SOL    HW138273   4.136   2.708   8.402
 8919SOL    HW238274   4.037   2.587   8.449
 8920SOL     OW38275   4.063   2.371   8.454
 8920SOL    HW138276   4.011   2.288   8.437
 8920SOL    HW238277   4.140   2.376   8.390
 8921SOL     OW38278   3.732   3.188   7.648
 8921SOL    HW138279   3.639   3.209   7.617
 8921SOL    HW238280   3.742   3.089   7.661
 8922SOL     OW38281   3.812   3.663   8.375
 8922SOL    HW138282   3.770   3.577   8.348
 8922SOL    HW238283   3.906   3.666   8.341
 8923SOL     OW38284   4.228   3.430   8.358
 8923SOL    HW138285   4.294   3.504   8.367
 8923SOL    HW238286   4.272   3.351   8.316
 8924SOL     OW38287   4.726   2.658   8.686
 8924SOL    HW138288   4.767   2.626   8.772
 8924SOL    HW238289   4.630   2.631   8.683
 8925SOL     OW38290   3.764   2.406   8.562
 8925SOL    HW138291   3.849   2.373   8.521
 8925SOL    HW238292   3.777   2.421   8.660
 8926SOL     OW38293   3.913   2.382   9.170
 8926SOL    HW138294   3.972   2.342   9.100
 8926SOL    HW238295   3.855   2.453   9.129
 8927SOL     OW38296   4.539   2.434   7.773
 8927SOL    HW138297   4.546   2.345   7.727
 8927SOL    HW238298   4.445   2.468   7.765
 8928SOL     OW38299   3.976   3.426   9.192
 8928SOL    HW138300   3.946   3.483   9.268
 8928SOL    HW238301   3.969   3.329   9.218
 8929SOL     OW38302   4.395   2.326   8.717
 8929SOL    HW138303   4.361   2.237   8.687
 8929SOL    HW238304   4.421   2.380   8.637
 8930SOL     OW38305   4.654   3.540   8.913
 8930SOL    HW138306   4.630   3.522   8.818
 8930SOL    HW238307   4.684   3.634   8.923
 8931SOL     OW38308   4.197   2.362   7.639
 8931SOL    HW138309   4.258   2.442   7.643
 8931SOL    HW238310   4.102   2.393   7.646
 8932SOL     OW38311   3.883   2.999   8.914
 8932SOL    HW138312   3.905   2.938   8.990
 8932SOL    HW238313   3.893   2.950   8.828
 8933SOL     OW38314   3.807   3.120   8.470
 8933SOL    HW138315   3.802   3.119   8.570
 8933SOL    HW238316   3.724   3.079   8.432
 8934SOL     OW38317   4.412   3.524   9.164
 8934SOL    HW138318   4.356   3.605   9.173
 8934SOL    HW238319   4.464   3.528   9.078
 8935SOL     OW38320   3.854   3.656   9.299
 8935SOL    HW138321   3.813   3.582   9.352
 8935SOL    HW238322   3.918   3.707   9.357
 8936SOL     OW38323   5.004   2.789   8.120
 8936SOL    HW138324   5.064   2.708   8.122
 8936SOL    HW238325   5.044   2.858   8.060
 8937SOL     OW38326   4.554   3.135   8.870
 8937SOL    HW138327   4.549   3.168   8.965
 8937SOL    HW238328   4.468   3.154   8.824
 8938SOL     OW38329   4.396   3.478   7.602
 8938SOL    HW138330   4.405   3.488   7.503
 8938SOL    HW238331   4.356   3.389   7.623
 8939SOL     OW38332   3.987   2.188   8.168
 8939SOL    HW138333   3.908   2.239   8.134
 8939SOL    HW238334   3.978   2.173   8.266
 8940SOL     OW38335   4.546   2.864   8.820
 8940SOL    HW138336   4.586   2.863   8.728
 8940SOL    HW238337   4.556   2.956   8.860
 8941SOL     OW38338   4.640   2.772   7.739
 8941SOL    HW138339   4.703   2.810   7.671
 8941SOL    HW238340   4.680   2.689   7.778
 8942SOL     OW38341   4.096   3.150   8.938
 8942SOL    HW138342   4.083   3.243   8.904
 8942SOL    HW238343   4.012   3.098   8.925
 8943SOL     OW38344   4.763   2.960   8.144
 8943SOL    HW138345   4.693   2.913   8.198
 8943SOL    HW238346   4.822   2.892   8.101
 8944SOL     OW38347   4.738   2.098   8.419
 8944SOL    HW138348   4.730   2.062   8.326
 8944SOL    HW238349   4.736   2.022   8.484
 8945SOL     OW38350   4.314   3.349   7.939
 8945SOL    HW138351   4.356   3.291   7.869
 8945SOL    HW238352   4.270   3.428   7.895
 8946SOL     OW38353   3.979   3.210   7.738
 8946SOL    HW138354   3.883   3.211   7.711
 8946SOL    HW238355   3.991   3.263   7.822
 8947SOL     OW38356   3.829   2.875   9.174
 8947SOL    HW138357   3.752   2.842   9.228
 8947SOL    HW238358   3.914   2.845   9.216
 8948SOL     OW38359   4.396   2.065   8.937
 8948SOL    HW138360   4.486   2.049   8.897
 8948SOL    HW238361   4.404   2.070   9.036
 8949SOL     OW38362   3.796   2.028   7.766
 8949SOL    HW138363   3.779   2.111   7.712
 8949SOL    HW238364   3.886   1.991   7.744
 8950SOL     OW38365   4.337   2.704   8.879
 8950SOL    HW138366   4.393   2.785   8.862
 8950SOL    HW238367   4.396   2.624   8.882
 8951SOL     OW38368   4.440   2.427   9.156
 8951SOL    HW138369   4.459   2.492   9.230
 8951SOL    HW238370   4.500   2.347   9.165
 8952SOL     OW38371   4.114   3.603   9.008
 8952SOL    HW138372   4.023   3.644   9.006
 8952SOL    HW238373   4.107   3.509   9.040
 8953SOL     OW38374   4.949   2.187   7.897
 8953SOL    HW138375   5.014   2.113   7.886
 8953SOL    HW238376   4.969   2.237   7.981
 8954SOL     OW38377   4.318   2.607   8.100
 8954SOL    HW138378   4.368   2.692   8.081
 8954SOL    HW238379   4.230   2.609   8.052
 8955SOL     OW38380   4.583   3.236   7.464
 8955SOL    HW138381   4.537   3.251   7.552
 8955SOL    HW238382   4.627   3.321   7.434
 8956SOL     OW38383   4.385   3.652   8.401
 8956SOL    HW138384   4.339   3.740   8.388
 8956SOL    HW238385   4.484   3.664   8.394
 8957SOL     OW38386   4.583   2.818   8.309
 8957SOL    HW138387   4.637   2.749   8.357
 8957SOL    HW238388   4.551   2.887   8.375
 8958SOL     OW38389   3.945   3.176   9.292
 8958SOL    HW138390   3.880   3.103   9.271
 8958SOL    HW238391   3.949   3.190   9.390
 8959SOL     OW38392   3.803   3.102   8.101
 8959SOL    HW138393   3.802   3.055   8.189
 8959SOL    HW238394   3.885   3.074   8.050
 8960SOL     OW38395   4.396   3.253   9.072
 8960SOL    HW138396   4.318   3.203   9.110
 8960SOL    HW238397   4.393   3.348   9.103
 8961SOL     OW38398   4.152   2.286   7.968
 8961SOL    HW138399   4.182   2.214   7.906
 8961SOL    HW238400   4.113   2.246   8.051
 8962SOL     OW38401   4.041   2.409   8.728
 8962SOL    HW138402   4.079   2.350   8.800
 8962SOL    HW238403   4.081   2.383   8.640
 8963SOL     OW38404   4.536   3.448   8.135
 8963SOL    HW138405   4.568   3.458   8.041
 8963SOL    HW238406   4.457   3.386   8.137
 8964SOL     OW38407   4.725   1.896   8.602
 8964SOL    HW138408   4.662   1.824   8.571
 8964SOL    HW238409   4.818   1.860   8.602
 8965SOL     OW38410   4.494   3.192   7.749
 8965SOL    HW138411   4.448   3.105   7.766
 8965SOL    HW238412   4.585   3.189   7.790
 8966SOL     OW38413   4.342   3.429   8.732
 8966SOL    HW138414   4.337   3.511   8.789
 8966SOL    HW238415   4.431   3.426   8.687
 8967SOL     OW38416   3.763   2.939   7.748
 8967SOL    HW138417   3.862   2.928   7.739
 8967SOL    HW238418   3.723   2.853   7.780
 8968SOL     OW38419   4.599   3.508   7.785
 8968SOL    HW138420   4.522   3.473   7.731
 8968SOL    HW238421   4.567   3.579   7.847
 8969SOL     OW38422   3.954   2.490   9.423
 8969SOL    HW138423   3.861   2.488   9.460
 8969SOL    HW238424   3.955   2.451   9.331
 8970SOL     OW38425   3.743   2.230   9.957
 8970SOL    HW138426   3.661   2.273   9.996
 8970SOL    HW238427   3.715   2.157   9.894
 8971SOL     OW38428   4.574   2.660  11.133
 8971SOL    HW138429   4.570   2.736  11.198
 8971SOL    HW238430   4.596   2.696  11.042
 8972SOL     OW38431   4.410   3.023  11.113
 8972SOL    HW138432   4.470   3.102  11.127
 8972SOL    HW238433   4.324   3.054  11.072
 8973SOL     OW38434   4.162   2.254  10.809
 8973SOL    HW138435   4.244   2.198  10.818
 8973SOL    HW238436   4.081   2.196  10.813
 8974SOL     OW38437   3.954   3.296   9.848
 8974SOL    HW138438   3.928   3.392   9.848
 8974SOL    HW238439   3.883   3.242   9.893
 8975SOL     OW38440   4.344   3.648  10.749
 8975SOL    HW138441   4.252   3.631  10.784
 8975SOL    HW238442   4.372   3.740  10.775
 8976SOL     OW38443   4.330   2.826   9.433
 8976SOL    HW138444   4.337   2.910   9.379
 8976SOL    HW238445   4.376   2.839   9.521
 8977SOL     OW38446   3.846   2.505   9.873
 8977SOL    HW138447   3.801   2.417   9.890
 8977SOL    HW238448   3.845   2.559   9.957
 8978SOL     OW38449   3.751   3.458   9.427
 8978SOL    HW138450   3.732   3.362   9.448
 8978SOL    HW238451   3.718   3.516   9.502
 8979SOL     OW38452   3.837   2.599  10.907
 8979SOL    HW138453   3.925   2.586  10.952
 8979SOL    HW238454   3.824   2.696  10.885
 8980SOL     OW38455   4.533   1.866   9.812
 8980SOL    HW138456   4.573   1.957   9.803
 8980SOL    HW238457   4.433   1.874   9.818
 8981SOL     OW38458   4.322   2.591   9.580
 8981SOL    HW138459   4.346   2.660   9.512
 8981SOL    HW238460   4.244   2.624   9.634
 8982SOL     OW38461   4.697   2.752  10.882
 8982SOL    HW138462   4.743   2.668  10.853
 8982SOL    HW238463   4.641   2.786  10.807
 8983SOL     OW38464   3.800   2.673  10.099
 8983SOL    HW138465   3.899   2.661  10.108
 8983SOL    HW238466   3.776   2.768  10.120
 8984SOL     OW38467   3.854   3.683  10.881
 8984SOL    HW138468   3.844   3.668  10.980
 8984SOL    HW238469   3.768   3.719  10.845
 8985SOL     OW38470   4.589   2.210   9.505
 8985SOL    HW138471   4.648   2.273   9.456
 8985SOL    HW238472   4.608   2.116   9.476
 8986SOL     OW38473   4.274   2.058  10.195
 8986SOL    HW138474   4.269   2.053  10.295
 8986SOL    HW238475   4.276   2.154  10.166
 8987SOL     OW38476   4.045   2.805   9.552
 8987SOL    HW138477   4.127   2.844   9.510
 8987SOL    HW238478   4.018   2.723   9.503
 8988SOL     OW38479   3.926   2.147  10.808
 8988SOL    HW138480   3.846   2.207  10.795
 8988SOL    HW238481   3.916   2.098  10.894
 8989SOL     OW38482   3.973   3.647  10.551
 8989SOL    HW138483   4.030   3.582  10.601
 8989SOL    HW238484   3.957   3.614  10.458
 8990SOL     OW38485   4.106   2.562   9.790
 8990SOL    HW138486   4.151   2.472   9.787
 8990SOL    HW238487   4.012   2.551   9.823
 8991SOL     OW38488   4.338   1.984   9.427
 8991SOL    HW138489   4.436   1.962   9.434
 8991SOL    HW238490   4.307   1.967   9.334
 8992SOL     OW38491   4.612   3.376  10.505
 8992SOL    HW138492   4.589   3.351  10.411
 8992SOL    HW238493   4.673   3.307  10.544
 8993SOL     OW38494   4.263   1.926   9.822
 8993SOL    HW138495   4.182   1.927   9.880
 8993SOL    HW238496   4.266   2.009   9.767
 8994SOL     OW38497   4.021   1.897   9.481
 8994SOL    HW138498   4.070   1.981   9.460
 8994SOL    HW238499   4.083   1.832   9.526
 8995SOL     OW38500   4.659   2.098   9.790
 8995SOL    HW138501   4.611   2.139   9.712
 8995SOL    HW238502   4.758   2.096   9.771
 8996SOL     OW38503   4.951   3.432  10.103
 8996SOL    HW138504   4.972   3.506  10.038
 8996SOL    HW238505   5.019   3.432  10.176
 8997SOL     OW38506   4.756   2.411   9.326
 8997SOL    HW138507   4.715   2.493   9.287
 8997SOL    HW238508   4.820   2.437   9.399
 8998SOL     OW38509   3.802   2.418  10.696
 8998SOL    HW138510   3.894   2.417  10.655
 8998SOL    HW238511   3.796   2.492  10.763
 8999SOL     OW38512   4.590   2.316   9.952
 8999SOL    HW138513   4.558   2.388   9.890
 8999SOL    HW238514   4.614   2.235   9.899
 9000SOL     OW38515   4.741   1.901  10.063
 9000SOL    HW138516   4.669   1.906   9.994
 9000SOL    HW238517   4.717   1.832  10.132
 9001SOL     OW38518   4.212   3.247   9.484
 9001SOL    HW138519   4.125   3.232   9.531
 9001SOL    HW238520   4.195   3.273   9.389
 9002SOL     OW38521   4.251   2.118   9.638
 9002SOL    HW138522   4.278   2.059   9.563
 9002SOL    HW238523   4.251   2.213   9.607
 9003SOL     OW38524   4.429   2.912   9.678
 9003SOL    HW138525   4.415   2.919   9.777
 9003SOL    HW238526   4.513   2.861   9.660
 9004SOL     OW38527   4.134   2.675  10.561
 9004SOL    HW138528   4.220   2.687  10.611
 9004SOL    HW238529   4.092   2.588  10.588
 9005SOL     OW38530   4.091   2.962   9.811
 9005SOL    HW138531   4.084   3.045   9.755
 9005SOL    HW238532   4.095   2.882   9.751
 9006SOL     OW38533   4.290   2.399  10.175
 9006SOL    HW138534   4.302   2.465  10.101
 9006SOL    HW238535   4.336   2.433  10.258
 9007SOL     OW38536   4.297   2.732  10.339
 9007SOL    HW138537   4.341   2.821  10.330
 9007SOL    HW238538   4.234   2.732  10.416
 9008SOL     OW38539   4.933   2.387   9.585
 9008SOL    HW138540   4.946   2.303   9.639
 9008SOL    HW238541   4.904   2.461   9.645
 9009SOL     OW38542   4.456   2.496  10.374
 9009SOL    HW138543   4.515   2.470  10.298
 9009SOL    HW238544   4.428   2.592  10.363
 9010SOL     OW38545   4.031   1.925   9.928
 9010SOL    HW138546   4.020   2.019   9.961
 9010SOL    HW238547   4.026   1.862  10.005
 9011SOL     OW38548   3.732   3.188   9.510
 9011SOL    HW138549   3.639   3.209   9.479
 9011SOL    HW238550   3.742   3.089   9.523
 9012SOL     OW38551   3.913   2.382  11.032
 9012SOL    HW138552   3.972   2.342  10.962
 9012SOL    HW238553   3.855   2.453  10.991
 9013SOL     OW38554   4.539   2.434   9.635
 9013SOL    HW138555   4.546   2.345   9.589
 9013SOL    HW238556   4.445   2.468   9.627
 9014SOL     OW38557   4.395   2.326  10.579
 9014SOL    HW138558   4.361   2.237  10.549
 9014SOL    HW238559   4.421   2.380  10.499
 9015SOL     OW38560   4.654   3.540  10.775
 9015SOL    HW138561   4.630   3.522  10.680
 9015SOL    HW238562   4.684   3.634  10.785
 9016SOL     OW38563   4.197   2.362   9.501
 9016SOL    HW138564   4.258   2.442   9.505
 9016SOL    HW238565   4.102   2.393   9.508
 9017SOL     OW38566   4.554   3.135  10.732
 9017SOL    HW138567   4.549   3.168  10.827
 9017SOL    HW238568   4.468   3.154  10.686
 9018SOL     OW38569   4.396   3.478   9.464
 9018SOL    HW138570   4.405   3.488   9.365
 9018SOL    HW238571   4.356   3.389   9.485
 9019SOL     OW38572   4.640   2.772   9.601
 9019SOL    HW138573   4.703   2.810   9.533
 9019SOL    HW238574   4.680   2.689   9.640
 9020SOL     OW38575   4.738   2.098  10.281
 9020SOL    HW138576   4.730   2.062  10.188
 9020SOL    HW238577   4.736   2.022  10.346
 9021SOL     OW38578   3.979   3.210   9.600
 9021SOL    HW138579   3.883   3.211   9.573
 9021SOL    HW238580   3.991   3.263   9.684
 9022SOL     OW38581   3.799   2.207   9.343
 9022SOL    HW138582   3.707   2.179   9.314
 9022SOL    HW238583   3.830   2.284   9.287
 9023SOL     OW38584   3.796   2.028   9.628
 9023SOL    HW138585   3.779   2.111   9.574
 9023SOL    HW238586   3.886   1.991   9.606
 9024SOL     OW38587   4.949   2.187   9.759
 9024SOL    HW138588   5.014   2.113   9.748
 9024SOL    HW238589   4.969   2.237   9.843
 9025SOL     OW38590   4.318   2.607   9.962
 9025SOL    HW138591   4.368   2.692   9.943
 9025SOL    HW238592   4.230   2.609   9.914
 9026SOL     OW38593   4.583   3.236   9.326
 9026SOL    HW138594   4.537   3.251   9.414
 9026SOL    HW238595   4.627   3.321   9.296
 9027SOL     OW38596   4.152   2.286   9.830
 9027SOL    HW138597   4.182   2.214   9.768
 9027SOL    HW238598   4.113   2.246   9.913
 9028SOL     OW38599   4.494   3.192   9.611
 9028SOL    HW138600   4.448   3.105   9.628
 9028SOL    HW238601   4.585   3.189   9.652
 9029SOL     OW38602   4.342   3.429  10.594
 9029SOL    HW138603   4.337   3.511  10.651
 9029SOL    HW238604   4.431   3.426  10.549
 9030SOL     OW38605   3.763   2.939   9.610
 9030SOL    HW138606   3.862   2.928   9.601
 9030SOL    HW238607   3.723   2.853   9.642
 9031SOL     OW38608   3.954   2.490  11.285
 9031SOL    HW138609   3.861   2.488  11.322
 9031SOL    HW238610   3.955   2.451  11.193
 9032SOL     OW38611   3.954   3.296  11.710
 9032SOL    HW138612   3.928   3.392  11.710
 9032SOL    HW238613   3.883   3.242  11.755
 9033SOL     OW38614   3.964   2.953  12.058
 9033SOL    HW138615   3.978   2.869  12.110
 9033SOL    HW238616   3.909   3.017  12.113
 9034SOL     OW38617   4.344   3.648  12.611
 9034SOL    HW138618   4.252   3.631  12.646
 9034SOL    HW238619   4.372   3.740  12.637
 9035SOL     OW38620   3.837   2.599  12.769
 9035SOL    HW138621   3.925   2.586  12.814
 9035SOL    HW238622   3.824   2.696  12.747
 9036SOL     OW38623   3.921   2.838  12.436
 9036SOL    HW138624   4.010   2.793  12.422
 9036SOL    HW238625   3.848   2.773  12.417
 9037SOL     OW38626   3.800   2.673  11.961
 9037SOL    HW138627   3.899   2.661  11.970
 9037SOL    HW238628   3.776   2.768  11.982
 9038SOL     OW38629   3.854   3.683  12.743
 9038SOL    HW138630   3.844   3.668  12.842
 9038SOL    HW238631   3.768   3.719  12.707
 9039SOL     OW38632   4.274   2.058  12.057
 9039SOL    HW138633   4.269   2.053  12.157
 9039SOL    HW238634   4.276   2.154  12.028
 9040SOL     OW38635   4.106   2.562  11.652
 9040SOL    HW138636   4.151   2.472  11.649
 9040SOL    HW238637   4.012   2.551  11.685
 9041SOL     OW38638   4.183   3.014  11.913
 9041SOL    HW138639   4.112   2.987  11.978
 9041SOL    HW238640   4.157   2.986  11.820
 9042SOL     OW38641   4.285   2.084  12.319
 9042SOL    HW138642   4.323   2.000  12.356
 9042SOL    HW238643   4.197   2.103  12.363
 9043SOL     OW38644   4.590   2.316  11.814
 9043SOL    HW138645   4.558   2.388  11.752
 9043SOL    HW238646   4.614   2.235  11.761
 9044SOL     OW38647   4.741   1.901  11.925
 9044SOL    HW138648   4.669   1.906  11.856
 9044SOL    HW238649   4.717   1.832  11.994
 9045SOL     OW38650   4.639   1.951  12.574
 9045SOL    HW138651   4.664   1.931  12.479
 9045SOL    HW238652   4.711   2.007  12.616
 9046SOL     OW38653   4.134   2.675  12.423
 9046SOL    HW138654   4.220   2.687  12.473
 9046SOL    HW238655   4.092   2.588  12.450
 9047SOL     OW38656   3.788   3.426  12.503
 9047SOL    HW138657   3.742   3.508  12.469
 9047SOL    HW238658   3.886   3.445  12.512
 9048SOL     OW38659   4.290   2.399  12.037
 9048SOL    HW138660   4.302   2.465  11.963
 9048SOL    HW238661   4.336   2.433  12.120
 9049SOL     OW38662   4.297   2.732  12.201
 9049SOL    HW138663   4.341   2.821  12.192
 9049SOL    HW238664   4.234   2.732  12.278
 9050SOL     OW38665   3.761   3.172  12.454
 9050SOL    HW138666   3.814   3.123  12.522
 9050SOL    HW238667   3.783   3.270  12.459
 9051SOL     OW38668   4.456   2.496  12.236
 9051SOL    HW138669   4.515   2.470  12.160
 9051SOL    HW238670   4.428   2.592  12.225
 9052SOL     OW38671   4.043   2.672  12.121
 9052SOL    HW138672   4.136   2.708  12.126
 9052SOL    HW238673   4.037   2.587  12.173
 9053SOL     OW38674   4.063   2.371  12.178
 9053SOL    HW138675   4.011   2.288  12.161
 9053SOL    HW238676   4.140   2.376  12.114
 9054SOL     OW38677   3.764   2.406  12.286
 9054SOL    HW138678   3.849   2.373  12.245
 9054SOL    HW238679   3.777   2.421  12.384
 9055SOL     OW38680   3.913   2.382  12.894
 9055SOL    HW138681   3.972   2.342  12.824
 9055SOL    HW238682   3.855   2.453  12.853
 9056SOL     OW38683   3.883   2.999  12.638
 9056SOL    HW138684   3.905   2.938  12.714
 9056SOL    HW238685   3.893   2.950  12.552
 9057SOL     OW38686   3.807   3.120  12.194
 9057SOL    HW138687   3.802   3.119  12.294
 9057SOL    HW238688   3.724   3.079  12.156
 9058SOL     OW38689   5.004   2.789  11.844
 9058SOL    HW138690   5.064   2.708  11.846
 9058SOL    HW238691   5.044   2.858  11.784
 9059SOL     OW38692   4.396   3.478  11.326
 9059SOL    HW138693   4.405   3.488  11.227
 9059SOL    HW238694   4.356   3.389  11.347
 9060SOL     OW38695   4.763   2.960  11.868
 9060SOL    HW138696   4.693   2.913  11.922
 9060SOL    HW238697   4.822   2.892  11.825
 9061SOL     OW38698   4.738   2.098  12.143
 9061SOL    HW138699   4.730   2.062  12.050
 9061SOL    HW238700   4.736   2.022  12.208
 9062SOL     OW38701   4.396   2.065  12.661
 9062SOL    HW138702   4.486   2.049  12.621
 9062SOL    HW238703   4.404   2.070  12.760
 9063SOL     OW38704   3.799   2.207  11.205
 9063SOL    HW138705   3.707   2.179  11.176
 9063SOL    HW238706   3.830   2.284  11.149
 9064SOL     OW38707   4.114   3.603  12.732
 9064SOL    HW138708   4.023   3.644  12.730
 9064SOL    HW238709   4.107   3.509  12.764
 9065SOL     OW38710   4.318   2.607  11.824
 9065SOL    HW138711   4.368   2.692  11.805
 9065SOL    HW238712   4.230   2.609  11.776
 9066SOL     OW38713   3.803   3.102  11.825
 9066SOL    HW138714   3.802   3.055  11.913
 9066SOL    HW238715   3.885   3.074  11.774
 9067SOL     OW38716   4.725   1.896  12.326
 9067SOL    HW138717   4.662   1.824  12.295
 9067SOL    HW238718   4.818   1.860  12.326
 9068SOL     OW38719   4.494   3.192  11.473
 9068SOL    HW138720   4.448   3.105  11.490
 9068SOL    HW238721   4.585   3.189  11.514
 9069SOL     OW38722   3.954   2.490  13.147
 9069SOL    HW138723   3.861   2.488  13.184
 9069SOL    HW238724   3.955   2.451  13.055
 9070SOL     OW38725   3.949   2.137  14.030
 9070SOL    HW138726   3.984   2.120  14.122
 9070SOL    HW238727   3.861   2.092  14.018
 9071SOL     OW38728   4.293   3.137  14.199
 9071SOL    HW138729   4.200   3.130  14.162
 9071SOL    HW238730   4.304   3.226  14.243
 9072SOL     OW38731   4.059   3.297  14.095
 9072SOL    HW138732   3.981   3.266  14.042
 9072SOL    HW238733   4.117   3.355  14.038
 9073SOL     OW38734   4.162   2.254  14.533
 9073SOL    HW138735   4.244   2.198  14.542
 9073SOL    HW238736   4.081   2.196  14.537
 9074SOL     OW38737   4.337   3.227  13.760
 9074SOL    HW138738   4.288   3.140  13.769
 9074SOL    HW238739   4.314   3.270  13.673
 9075SOL     OW38740   4.041   2.113  14.835
 9075SOL    HW138741   4.112   2.184  14.841
 9075SOL    HW238742   3.953   2.152  14.863
 9076SOL     OW38743   4.263   1.926  13.546
 9076SOL    HW138744   4.182   1.927  13.604
 9076SOL    HW238745   4.266   2.009  13.491
 9077SOL     OW38746   4.183   3.014  13.775
 9077SOL    HW138747   4.112   2.987  13.840
 9077SOL    HW238748   4.157   2.986  13.682
 9078SOL     OW38749   4.590   2.316  13.676
 9078SOL    HW138750   4.558   2.388  13.614
 9078SOL    HW238751   4.614   2.235  13.623
 9079SOL     OW38752   4.134   2.675  14.285
 9079SOL    HW138753   4.220   2.687  14.335
 9079SOL    HW238754   4.092   2.588  14.312
 9080SOL     OW38755   4.933   2.387  13.309
 9080SOL    HW138756   4.946   2.303  13.363
 9080SOL    HW238757   4.904   2.461  13.369
 9081SOL     OW38758   4.704   3.435  14.734
 9081SOL    HW138759   4.684   3.479  14.646
 9081SOL    HW238760   4.743   3.344  14.718
 9082SOL     OW38761   4.043   2.672  13.983
 9082SOL    HW138762   4.136   2.708  13.988
 9082SOL    HW238763   4.037   2.587  14.035
 9083SOL     OW38764   3.812   3.663  13.961
 9083SOL    HW138765   3.770   3.577  13.934
 9083SOL    HW238766   3.906   3.666  13.927
 9084SOL     OW38767   4.539   2.434  13.359
 9084SOL    HW138768   4.546   2.345  13.313
 9084SOL    HW238769   4.445   2.468  13.351
 9085SOL     OW38770   3.976   3.426  14.778
 9085SOL    HW138771   3.946   3.483  14.854
 9085SOL    HW238772   3.969   3.329  14.804
 9086SOL     OW38773   4.654   3.540  14.499
 9086SOL    HW138774   4.630   3.522  14.404
 9086SOL    HW238775   4.684   3.634  14.509
 9087SOL     OW38776   4.197   2.362  13.225
 9087SOL    HW138777   4.258   2.442  13.229
 9087SOL    HW238778   4.102   2.393  13.232
 9088SOL     OW38779   4.412   3.524  14.750
 9088SOL    HW138780   4.356   3.605  14.759
 9088SOL    HW238781   4.464   3.528  14.664
 9089SOL     OW38782   3.854   3.656  14.885
 9089SOL    HW138783   3.813   3.582  14.938
 9089SOL    HW238784   3.918   3.707  14.943
 9090SOL     OW38785   4.096   3.150  14.524
 9090SOL    HW138786   4.083   3.243  14.490
 9090SOL    HW238787   4.012   3.098  14.511
 9091SOL     OW38788   4.738   2.098  14.005
 9091SOL    HW138789   4.730   2.062  13.912
 9091SOL    HW238790   4.736   2.022  14.070
 9092SOL     OW38791   4.396   2.065  14.523
 9092SOL    HW138792   4.486   2.049  14.483
 9092SOL    HW238793   4.404   2.070  14.622
 9093SOL     OW38794   4.536   3.448  13.721
 9093SOL    HW138795   4.568   3.458  13.627
 9093SOL    HW238796   4.457   3.386  13.723
 9094SOL     OW38797   4.725   1.896  14.188
 9094SOL    HW138798   4.662   1.824  14.157
 9094SOL    HW238799   4.818   1.860  14.188
 9095SOL     OW38800   4.599   3.508  13.371
 9095SOL    HW138801   4.522   3.473  13.317
 9095SOL    HW238802   4.567   3.579  13.433
 9096SOL     OW38803   3.954   2.490  15.009
 9096SOL    HW138804   3.861   2.488  15.046
 9096SOL    HW238805   3.955   2.451  14.917
 9097SOL     OW38806   4.492   3.006  15.920
 9097SOL    HW138807   4.414   3.023  15.980
 9097SOL    HW238808   4.526   3.093  15.884
 9098SOL     OW38809   3.954   3.296  15.434
 9098SOL    HW138810   3.928   3.392  15.434
 9098SOL    HW238811   3.883   3.242  15.479
 9099SOL     OW38812   4.344   3.648  16.336
 9099SOL    HW138813   4.252   3.631  16.371
 9099SOL    HW238814   4.372   3.740  16.362
 9100SOL     OW38815   3.751   3.458  15.013
 9100SOL    HW138816   3.732   3.362  15.034
 9100SOL    HW238817   3.718   3.516  15.088
 9101SOL     OW38818   4.041   2.113  16.698
 9101SOL    HW138819   4.112   2.184  16.704
 9101SOL    HW238820   3.953   2.152  16.726
 9102SOL     OW38821   4.322   2.591  15.166
 9102SOL    HW138822   4.346   2.660  15.098
 9102SOL    HW238823   4.244   2.624  15.220
 9103SOL     OW38824   4.697   2.752  16.469
 9103SOL    HW138825   4.743   2.668  16.440
 9103SOL    HW238826   4.641   2.786  16.394
 9104SOL     OW38827   4.274   2.058  15.781
 9104SOL    HW138828   4.269   2.053  15.881
 9104SOL    HW238829   4.276   2.154  15.752
 9105SOL     OW38830   4.045   2.805  15.138
 9105SOL    HW138831   4.127   2.844  15.096
 9105SOL    HW238832   4.018   2.723  15.089
 9106SOL     OW38833   4.188   3.605  15.219
 9106SOL    HW138834   4.221   3.644  15.305
 9106SOL    HW238835   4.264   3.598  15.154
 9107SOL     OW38836   3.973   3.647  16.138
 9107SOL    HW138837   4.030   3.582  16.188
 9107SOL    HW238838   3.957   3.614  16.045
 9108SOL     OW38839   4.183   3.014  15.637
 9108SOL    HW138840   4.112   2.987  15.702
 9108SOL    HW238841   4.157   2.986  15.544
 9109SOL     OW38842   4.212   3.247  15.070
 9109SOL    HW138843   4.125   3.232  15.117
 9109SOL    HW238844   4.195   3.273  14.975
 9110SOL     OW38845   4.639   1.951  16.299
 9110SOL    HW138846   4.664   1.931  16.204
 9110SOL    HW238847   4.711   2.007  16.341
 9111SOL     OW38848   4.704   2.978  16.616
 9111SOL    HW138849   4.605   2.984  16.626
 9111SOL    HW238850   4.727   2.898  16.560
 9112SOL     OW38851   4.091   2.962  15.397
 9112SOL    HW138852   4.084   3.045  15.341
 9112SOL    HW238853   4.095   2.882  15.337
 9113SOL     OW38854   4.078   3.372  16.226
 9113SOL    HW138855   4.057   3.328  16.139
 9113SOL    HW238856   4.175   3.398  16.229
 9114SOL     OW38857   4.126   2.613  16.495
 9114SOL    HW138858   4.194   2.668  16.448
 9114SOL    HW238859   4.166   2.525  16.522
 9115SOL     OW38860   4.228   1.912  16.637
 9115SOL    HW138861   4.186   1.855  16.567
 9115SOL    HW238862   4.162   1.981  16.669
 9116SOL     OW38863   4.933   2.387  15.171
 9116SOL    HW138864   4.946   2.303  15.225
 9116SOL    HW238865   4.904   2.461  15.231
 9117SOL     OW38866   4.747   2.628  15.863
 9117SOL    HW138867   4.762   2.649  15.959
 9117SOL    HW238868   4.717   2.533  15.854
 9118SOL     OW38869   4.704   3.435  16.597
 9118SOL    HW138870   4.684   3.479  16.509
 9118SOL    HW238871   4.743   3.344  16.581
 9119SOL     OW38872   4.726   2.658  16.135
 9119SOL    HW138873   4.767   2.626  16.221
 9119SOL    HW238874   4.630   2.631  16.132
 9120SOL     OW38875   3.883   2.999  16.363
 9120SOL    HW138876   3.905   2.938  16.439
 9120SOL    HW238877   3.893   2.950  16.277
 9121SOL     OW38878   4.412   3.524  16.613
 9121SOL    HW138879   4.356   3.605  16.622
 9121SOL    HW238880   4.464   3.528  16.527
 9122SOL     OW38881   3.854   3.656  16.748
 9122SOL    HW138882   3.813   3.582  16.801
 9122SOL    HW238883   3.918   3.707  16.806
 9123SOL     OW38884   5.004   2.789  15.568
 9123SOL    HW138885   5.064   2.708  15.570
 9123SOL    HW238886   5.044   2.858  15.508
 9124SOL     OW38887   4.554   3.135  16.319
 9124SOL    HW138888   4.549   3.168  16.414
 9124SOL    HW238889   4.468   3.154  16.273
 9125SOL     OW38890   4.396   3.478  15.050
 9125SOL    HW138891   4.405   3.488  14.951
 9125SOL    HW238892   4.356   3.389  15.071
 9126SOL     OW38893   3.987   2.188  15.616
 9126SOL    HW138894   3.908   2.239  15.582
 9126SOL    HW238895   3.978   2.173  15.714
 9127SOL     OW38896   4.546   2.864  16.269
 9127SOL    HW138897   4.586   2.863  16.177
 9127SOL    HW238898   4.556   2.956  16.309
 9128SOL     OW38899   4.096   3.150  16.387
 9128SOL    HW138900   4.083   3.243  16.353
 9128SOL    HW238901   4.012   3.098  16.374
 9129SOL     OW38902   4.763   2.960  15.592
 9129SOL    HW138903   4.693   2.913  15.646
 9129SOL    HW238904   4.822   2.892  15.549
 9130SOL     OW38905   4.314   3.349  15.387
 9130SOL    HW138906   4.356   3.291  15.317
 9130SOL    HW238907   4.270   3.428  15.343
 9131SOL     OW38908   3.979   3.210  15.186
 9131SOL    HW138909   3.883   3.211  15.159
 9131SOL    HW238910   3.991   3.263  15.270
 9132SOL     OW38911   4.337   2.704  16.328
 9132SOL    HW138912   4.393   2.785  16.311
 9132SOL    HW238913   4.396   2.624  16.331
 9133SOL     OW38914   4.440   2.427  16.605
 9133SOL    HW138915   4.459   2.492  16.679
 9133SOL    HW238916   4.500   2.347  16.614
 9134SOL     OW38917   4.949   2.187  15.345
 9134SOL    HW138918   5.014   2.113  15.334
 9134SOL    HW238919   4.969   2.237  15.429
 9135SOL     OW38920   4.583   2.818  15.757
 9135SOL    HW138921   4.637   2.749  15.805
 9135SOL    HW238922   4.551   2.887  15.823
 9136SOL     OW38923   3.803   3.102  15.549
 9136SOL    HW138924   3.802   3.055  15.637
 9136SOL    HW238925   3.885   3.074  15.498
 9137SOL     OW38926   4.396   3.253  16.521
 9137SOL    HW138927   4.318   3.203  16.559
 9137SOL    HW238928   4.393   3.348  16.552
 9138SOL     OW38929   3.954   2.490  16.872
 9138SOL    HW138930   3.861   2.488  16.909
 9138SOL    HW238931   3.955   2.451  16.780
 9139SOL     OW38932   4.293   3.137  17.924
 9139SOL    HW138933   4.200   3.130  17.887
 9139SOL    HW238934   4.304   3.226  17.968
 9140SOL     OW38935   3.955   3.575  17.242
 9140SOL    HW138936   3.989   3.652  17.296
 9140SOL    HW238937   3.999   3.575  17.152
 9141SOL     OW38938   3.846   2.505  17.322
 9141SOL    HW138939   3.801   2.417  17.339
 9141SOL    HW238940   3.845   2.559  17.406
 9142SOL     OW38941   3.751   3.458  16.876
 9142SOL    HW138942   3.732   3.362  16.897
 9142SOL    HW238943   3.718   3.516  16.951
 9143SOL     OW38944   4.533   1.866  17.261
 9143SOL    HW138945   4.573   1.957  17.252
 9143SOL    HW238946   4.433   1.874  17.267
 9144SOL     OW38947   4.075   3.663  17.612
 9144SOL    HW138948   4.125   3.577  17.618
 9144SOL    HW238949   4.140   3.740  17.609
 9145SOL     OW38950   4.045   2.805  17.001
 9145SOL    HW138951   4.127   2.844  16.959
 9145SOL    HW238952   4.018   2.723  16.952
 9146SOL     OW38953   4.188   3.605  17.082
 9146SOL    HW138954   4.221   3.644  17.168
 9146SOL    HW238955   4.264   3.598  17.017
 9147SOL     OW38956   3.973   3.647  18.000
 9147SOL    HW138957   4.030   3.582  18.050
 9147SOL    HW238958   3.957   3.614  17.907
 9148SOL     OW38959   4.338   1.984  16.876
 9148SOL    HW138960   4.436   1.962  16.883
 9148SOL    HW238961   4.307   1.967  16.783
 9149SOL     OW38962   4.646   2.365  17.658
 9149SOL    HW138963   4.621   2.356  17.562
 9149SOL    HW238964   4.694   2.283  17.689
 9150SOL     OW38965   4.021   1.897  16.930
 9150SOL    HW138966   4.070   1.981  16.909
 9150SOL    HW238967   4.083   1.832  16.975
 9151SOL     OW38968   4.659   2.098  17.239
 9151SOL    HW138969   4.611   2.139  17.161
 9151SOL    HW238970   4.758   2.096  17.220
 9152SOL     OW38971   4.756   2.411  16.775
 9152SOL    HW138972   4.715   2.493  16.736
 9152SOL    HW238973   4.820   2.437  16.848
 9153SOL     OW38974   4.590   2.316  17.401
 9153SOL    HW138975   4.558   2.388  17.339
 9153SOL    HW238976   4.614   2.235  17.348
 9154SOL     OW38977   4.741   1.901  17.512
 9154SOL    HW138978   4.669   1.906  17.443
 9154SOL    HW238979   4.717   1.832  17.581
 9155SOL     OW38980   4.290   2.399  17.624
 9155SOL    HW138981   4.302   2.465  17.550
 9155SOL    HW238982   4.336   2.433  17.707
 9156SOL     OW38983   4.297   2.732  17.788
 9156SOL    HW138984   4.341   2.821  17.779
 9156SOL    HW238985   4.234   2.732  17.865
 9157SOL     OW38986   4.933   2.387  17.034
 9157SOL    HW138987   4.946   2.303  17.088
 9157SOL    HW238988   4.904   2.461  17.094
 9158SOL     OW38989   4.031   2.075  17.990
 9158SOL    HW138990   4.008   2.112  18.080
 9158SOL    HW238991   4.001   1.980  17.984
 9159SOL     OW38992   4.043   2.672  17.708
 9159SOL    HW138993   4.136   2.708  17.713
 9159SOL    HW238994   4.037   2.587  17.760
 9160SOL     OW38995   4.396   3.478  16.913
 9160SOL    HW138996   4.405   3.488  16.814
 9160SOL    HW238997   4.356   3.389  16.934
 9161SOL     OW38998   4.546   2.864  18.131
 9161SOL    HW138999   4.586   2.863  18.039
 9161SOL    HW239000   4.556   2.956  18.171
 9162SOL     OW39001   4.314   3.349  17.250
 9162SOL    HW139002   4.356   3.291  17.180
 9162SOL    HW239003   4.270   3.428  17.206
 9163SOL     OW39004   3.799   2.207  16.792
 9163SOL    HW139005   3.707   2.179  16.763
 9163SOL    HW239006   3.830   2.284  16.736
 9164SOL     OW39007   3.796   2.028  17.077
 9164SOL    HW139008   3.779   2.111  17.023
 9164SOL    HW239009   3.886   1.991  17.055
 9165SOL     OW39010   4.949   2.187  17.208
 9165SOL    HW139011   5.014   2.113  17.197
 9165SOL    HW239012   4.969   2.237  17.292
 9166SOL     OW39013   4.583   3.236  16.775
 9166SOL    HW139014   4.537   3.251  16.863
 9166SOL    HW239015   4.627   3.321  16.745
 9167SOL     OW39016   4.385   3.652  17.712
 9167SOL    HW139017   4.339   3.740  17.699
 9167SOL    HW239018   4.484   3.664  17.705
 9168SOL     OW39019   3.763   2.939  17.059
 9168SOL    HW139020   3.862   2.928  17.050
 9168SOL    HW239021   3.723   2.853  17.091
 9169SOL     OW39022   3.954   4.352   0.113
 9169SOL    HW139023   3.861   4.350   0.150
 9169SOL    HW239024   3.955   4.313   0.021
 9170SOL     OW39025   3.949   3.999   0.996
 9170SOL    HW139026   3.984   3.982   1.088
 9170SOL    HW239027   3.861   3.954   0.984
 9171SOL     OW39028   4.492   4.868   1.023
 9171SOL    HW139029   4.414   4.885   1.083
 9171SOL    HW239030   4.526   4.955   0.987
 9172SOL     OW39031   4.409   4.736   0.665
 9172SOL    HW139032   4.478   4.720   0.735
 9172SOL    HW239033   4.336   4.793   0.703
 9173SOL     OW39034   3.964   4.815   0.886
 9173SOL    HW139035   3.978   4.731   0.938
 9173SOL    HW239036   3.909   4.879   0.941
 9174SOL     OW39037   4.330   4.688   0.123
 9174SOL    HW139038   4.337   4.772   0.069
 9174SOL    HW239039   4.376   4.701   0.211
 9175SOL     OW39040   3.846   4.367   0.563
 9175SOL    HW139041   3.801   4.279   0.580
 9175SOL    HW239042   3.845   4.421   0.647
 9176SOL     OW39043   4.533   3.728   0.502
 9176SOL    HW139044   4.573   3.819   0.493
 9176SOL    HW239045   4.433   3.736   0.508
 9177SOL     OW39046   4.322   4.453   0.270
 9177SOL    HW139047   4.346   4.522   0.202
 9177SOL    HW239048   4.244   4.486   0.324
 9178SOL     OW39049   4.589   4.072   0.195
 9178SOL    HW139050   4.648   4.135   0.146
 9178SOL    HW239051   4.608   3.978   0.166
 9179SOL     OW39052   4.106   4.424   0.480
 9179SOL    HW139053   4.151   4.334   0.477
 9179SOL    HW239054   4.012   4.413   0.513
 9180SOL     OW39055   4.338   3.846   0.117
 9180SOL    HW139056   4.436   3.824   0.124
 9180SOL    HW239057   4.307   3.829   0.024
 9181SOL     OW39058   4.505   3.988   1.749
 9181SOL    HW139059   4.572   3.927   1.792
 9181SOL    HW239060   4.432   4.007   1.814
 9182SOL     OW39061   4.646   4.227   0.899
 9182SOL    HW139062   4.621   4.218   0.803
 9182SOL    HW239063   4.694   4.145   0.930
 9183SOL     OW39064   4.251   3.980   0.328
 9183SOL    HW139065   4.278   3.921   0.253
 9183SOL    HW239066   4.251   4.075   0.297
 9184SOL     OW39067   4.639   3.813   1.402
 9184SOL    HW139068   4.664   3.793   1.307
 9184SOL    HW239069   4.711   3.869   1.444
 9185SOL     OW39070   4.737   3.829   1.770
 9185SOL    HW139071   4.743   3.914   1.718
 9185SOL    HW239072   4.769   3.753   1.713
 9186SOL     OW39073   4.747   4.490   0.966
 9186SOL    HW139074   4.762   4.511   1.062
 9186SOL    HW239075   4.717   4.395   0.957
 9187SOL     OW39076   4.074   4.622   1.804
 9187SOL    HW139077   4.150   4.666   1.852
 9187SOL    HW239078   4.109   4.575   1.722
 9188SOL     OW39079   3.913   4.244   1.722
 9188SOL    HW139080   3.972   4.204   1.652
 9188SOL    HW239081   3.855   4.315   1.681
 9189SOL     OW39082   4.539   4.296   0.325
 9189SOL    HW139083   4.546   4.207   0.279
 9189SOL    HW239084   4.445   4.330   0.317
 9190SOL     OW39085   4.197   4.224   0.191
 9190SOL    HW139086   4.258   4.304   0.195
 9190SOL    HW239087   4.102   4.255   0.198
 9191SOL     OW39088   3.987   4.050   0.720
 9191SOL    HW139089   3.908   4.101   0.686
 9191SOL    HW239090   3.978   4.035   0.818
 9192SOL     OW39091   4.640   4.634   0.291
 9192SOL    HW139092   4.703   4.672   0.223
 9192SOL    HW239093   4.680   4.551   0.330
 9193SOL     OW39094   3.829   4.737   1.726
 9193SOL    HW139095   3.752   4.704   1.780
 9193SOL    HW239096   3.914   4.707   1.768
 9194SOL     OW39097   4.396   3.927   1.489
 9194SOL    HW139098   4.486   3.911   1.449
 9194SOL    HW239099   4.404   3.932   1.588
 9195SOL     OW39100   4.318   4.469   0.652
 9195SOL    HW139101   4.368   4.554   0.633
 9195SOL    HW239102   4.230   4.471   0.604
 9196SOL     OW39103   4.583   4.680   0.861
 9196SOL    HW139104   4.637   4.611   0.909
 9196SOL    HW239105   4.551   4.749   0.927
 9197SOL     OW39106   4.152   4.148   0.520
 9197SOL    HW139107   4.182   4.076   0.458
 9197SOL    HW239108   4.113   4.108   0.603
 9198SOL     OW39109   4.725   3.758   1.154
 9198SOL    HW139110   4.662   3.686   1.123
 9198SOL    HW239111   4.818   3.722   1.154
 9199SOL     OW39112   3.954   4.352   1.975
 9199SOL    HW139113   3.861   4.350   2.012
 9199SOL    HW239114   3.955   4.313   1.883
 9200SOL     OW39115   3.949   3.999   2.858
 9200SOL    HW139116   3.984   3.982   2.950
 9200SOL    HW239117   3.861   3.954   2.846
 9201SOL     OW39118   3.743   4.092   2.509
 9201SOL    HW139119   3.661   4.135   2.548
 9201SOL    HW239120   3.715   4.019   2.446
 9202SOL     OW39121   4.492   4.868   2.885
 9202SOL    HW139122   4.414   4.885   2.945
 9202SOL    HW239123   4.526   4.955   2.849
 9203SOL     OW39124   4.574   4.522   3.685
 9203SOL    HW139125   4.570   4.598   3.750
 9203SOL    HW239126   4.596   4.558   3.594
 9204SOL     OW39127   4.409   4.736   2.527
 9204SOL    HW139128   4.478   4.720   2.597
 9204SOL    HW239129   4.336   4.793   2.565
 9205SOL     OW39130   4.162   4.116   3.361
 9205SOL    HW139131   4.244   4.060   3.370
 9205SOL    HW239132   4.081   4.058   3.365
 9206SOL     OW39133   3.964   4.815   2.748
 9206SOL    HW139134   3.978   4.731   2.800
 9206SOL    HW239135   3.909   4.879   2.803
 9207SOL     OW39136   4.330   4.688   1.985
 9207SOL    HW139137   4.337   4.772   1.931
 9207SOL    HW239138   4.376   4.701   2.073
 9208SOL     OW39139   3.846   4.367   2.425
 9208SOL    HW139140   3.801   4.279   2.442
 9208SOL    HW239141   3.845   4.421   2.509
 9209SOL     OW39142   3.837   4.461   3.459
 9209SOL    HW139143   3.925   4.448   3.504
 9209SOL    HW239144   3.824   4.558   3.437
 9210SOL     OW39145   4.533   3.728   2.364
 9210SOL    HW139146   4.573   3.819   2.355
 9210SOL    HW239147   4.433   3.736   2.370
 9211SOL     OW39148   3.921   4.700   3.126
 9211SOL    HW139149   4.010   4.655   3.112
 9211SOL    HW239150   3.848   4.635   3.107
 9212SOL     OW39151   4.041   3.975   3.663
 9212SOL    HW139152   4.112   4.046   3.669
 9212SOL    HW239153   3.953   4.014   3.691
 9213SOL     OW39154   4.322   4.453   2.132
 9213SOL    HW139155   4.346   4.522   2.064
 9213SOL    HW239156   4.244   4.486   2.186
 9214SOL     OW39157   4.531   4.329   3.327
 9214SOL    HW139158   4.484   4.326   3.416
 9214SOL    HW239159   4.480   4.274   3.261
 9215SOL     OW39160   4.697   4.614   3.434
 9215SOL    HW139161   4.743   4.530   3.405
 9215SOL    HW239162   4.641   4.648   3.359
 9216SOL     OW39163   4.715   4.134   3.104
 9216SOL    HW139164   4.638   4.168   3.158
 9216SOL    HW239165   4.681   4.083   3.025
 9217SOL     OW39166   3.800   4.535   2.651
 9217SOL    HW139167   3.899   4.523   2.660
 9217SOL    HW239168   3.776   4.630   2.672
 9218SOL     OW39169   4.589   4.072   2.057
 9218SOL    HW139170   4.648   4.135   2.008
 9218SOL    HW239171   4.608   3.978   2.028
 9219SOL     OW39172   4.274   3.920   2.747
 9219SOL    HW139173   4.269   3.915   2.847
 9219SOL    HW239174   4.276   4.016   2.718
 9220SOL     OW39175   3.926   4.009   3.360
 9220SOL    HW139176   3.846   4.069   3.347
 9220SOL    HW239177   3.916   3.960   3.446
 9221SOL     OW39178   4.106   4.424   2.342
 9221SOL    HW139179   4.151   4.334   2.339
 9221SOL    HW239180   4.012   4.413   2.375
 9222SOL     OW39181   4.338   3.846   1.979
 9222SOL    HW139182   4.436   3.824   1.986
 9222SOL    HW239183   4.307   3.829   1.886
 9223SOL     OW39184   4.505   3.988   3.611
 9223SOL    HW139185   4.572   3.927   3.654
 9223SOL    HW239186   4.432   4.007   3.676
 9224SOL     OW39187   4.646   4.227   2.761
 9224SOL    HW139188   4.621   4.218   2.665
 9224SOL    HW239189   4.694   4.145   2.792
 9225SOL     OW39190   4.263   3.788   2.374
 9225SOL    HW139191   4.182   3.789   2.432
 9225SOL    HW239192   4.266   3.871   2.319
 9226SOL     OW39193   4.021   3.759   2.033
 9226SOL    HW139194   4.070   3.843   2.012
 9226SOL    HW239195   4.083   3.694   2.078
 9227SOL     OW39196   4.659   3.960   2.342
 9227SOL    HW139197   4.611   4.001   2.264
 9227SOL    HW239198   4.758   3.958   2.323
 9228SOL     OW39199   3.802   4.280   3.248
 9228SOL    HW139200   3.894   4.279   3.207
 9228SOL    HW239201   3.796   4.354   3.315
 9229SOL     OW39202   4.285   3.946   3.009
 9229SOL    HW139203   4.323   3.862   3.046
 9229SOL    HW239204   4.197   3.965   3.053
 9230SOL     OW39205   4.590   4.178   2.504
 9230SOL    HW139206   4.558   4.250   2.442
 9230SOL    HW239207   4.614   4.097   2.451
 9231SOL     OW39208   4.741   3.763   2.615
 9231SOL    HW139209   4.669   3.768   2.546
 9231SOL    HW239210   4.717   3.694   2.684
 9232SOL     OW39211   4.251   3.980   2.190
 9232SOL    HW139212   4.278   3.921   2.115
 9232SOL    HW239213   4.251   4.075   2.159
 9233SOL     OW39214   4.639   3.813   3.264
 9233SOL    HW139215   4.664   3.793   3.169
 9233SOL    HW239216   4.711   3.869   3.306
 9234SOL     OW39217   4.134   4.537   3.113
 9234SOL    HW139218   4.220   4.549   3.163
 9234SOL    HW239219   4.092   4.450   3.140
 9235SOL     OW39220   4.290   4.261   2.727
 9235SOL    HW139221   4.302   4.327   2.653
 9235SOL    HW239222   4.336   4.295   2.810
 9236SOL     OW39223   4.126   4.475   3.460
 9236SOL    HW139224   4.194   4.530   3.413
 9236SOL    HW239225   4.166   4.387   3.487
 9237SOL     OW39226   4.737   3.829   3.632
 9237SOL    HW139227   4.743   3.914   3.580
 9237SOL    HW239228   4.769   3.753   3.575
 9238SOL     OW39229   4.228   3.774   3.602
 9238SOL    HW139230   4.186   3.717   3.532
 9238SOL    HW239231   4.162   3.843   3.634
 9239SOL     OW39232   4.297   4.594   2.891
 9239SOL    HW139233   4.341   4.683   2.882
 9239SOL    HW239234   4.234   4.594   2.968
 9240SOL     OW39235   4.933   4.249   2.137
 9240SOL    HW139236   4.946   4.165   2.191
 9240SOL    HW239237   4.904   4.323   2.197
 9241SOL     OW39238   4.031   3.937   3.093
 9241SOL    HW139239   4.008   3.974   3.183
 9241SOL    HW239240   4.001   3.842   3.087
 9242SOL     OW39241   4.456   4.358   2.926
 9242SOL    HW139242   4.515   4.332   2.850
 9242SOL    HW239243   4.428   4.454   2.915
 9243SOL     OW39244   4.031   3.787   2.480
 9243SOL    HW139245   4.020   3.881   2.513
 9243SOL    HW239246   4.026   3.724   2.557
 9244SOL     OW39247   4.747   4.490   2.828
 9244SOL    HW139248   4.762   4.511   2.924
 9244SOL    HW239249   4.717   4.395   2.819
 9245SOL     OW39250   4.074   4.622   3.666
 9245SOL    HW139251   4.150   4.666   3.714
 9245SOL    HW239252   4.109   4.575   3.584
 9246SOL     OW39253   4.043   4.534   2.811
 9246SOL    HW139254   4.136   4.570   2.816
 9246SOL    HW239255   4.037   4.449   2.863
 9247SOL     OW39256   4.063   4.233   2.868
 9247SOL    HW139257   4.011   4.150   2.851
 9247SOL    HW239258   4.140   4.238   2.804
 9248SOL     OW39259   4.726   4.520   3.100
 9248SOL    HW139260   4.767   4.488   3.186
 9248SOL    HW239261   4.630   4.493   3.097
 9249SOL     OW39262   3.764   4.268   2.976
 9249SOL    HW139263   3.849   4.235   2.935
 9249SOL    HW239264   3.777   4.283   3.074
 9250SOL     OW39265   3.913   4.244   3.584
 9250SOL    HW139266   3.972   4.204   3.514
 9250SOL    HW239267   3.855   4.315   3.543
 9251SOL     OW39268   4.539   4.296   2.187
 9251SOL    HW139269   4.546   4.207   2.141
 9251SOL    HW239270   4.445   4.330   2.179
 9252SOL     OW39271   4.395   4.188   3.131
 9252SOL    HW139272   4.361   4.099   3.101
 9252SOL    HW239273   4.421   4.242   3.051
 9253SOL     OW39274   4.197   4.224   2.053
 9253SOL    HW139275   4.258   4.304   2.057
 9253SOL    HW239276   4.102   4.255   2.060
 9254SOL     OW39277   3.883   4.861   3.328
 9254SOL    HW139278   3.905   4.800   3.404
 9254SOL    HW239279   3.893   4.812   3.242
 9255SOL     OW39280   5.026   4.579   2.171
 9255SOL    HW139281   4.940   4.548   2.213
 9255SOL    HW239282   5.022   4.565   2.072
 9256SOL     OW39283   3.987   4.050   2.582
 9256SOL    HW139284   3.908   4.101   2.548
 9256SOL    HW239285   3.978   4.035   2.680
 9257SOL     OW39286   4.640   4.634   2.153
 9257SOL    HW139287   4.703   4.672   2.085
 9257SOL    HW239288   4.680   4.551   2.192
 9258SOL     OW39289   4.738   3.960   2.833
 9258SOL    HW139290   4.730   3.924   2.740
 9258SOL    HW239291   4.736   3.884   2.898
 9259SOL     OW39292   3.829   4.737   3.588
 9259SOL    HW139293   3.752   4.704   3.642
 9259SOL    HW239294   3.914   4.707   3.630
 9260SOL     OW39295   4.396   3.927   3.351
 9260SOL    HW139296   4.486   3.911   3.311
 9260SOL    HW239297   4.404   3.932   3.450
 9261SOL     OW39298   3.799   4.069   1.895
 9261SOL    HW139299   3.707   4.041   1.866
 9261SOL    HW239300   3.830   4.146   1.839
 9262SOL     OW39301   3.796   3.890   2.180
 9262SOL    HW139302   3.779   3.973   2.126
 9262SOL    HW239303   3.886   3.853   2.158
 9263SOL     OW39304   4.337   4.566   3.293
 9263SOL    HW139305   4.393   4.647   3.276
 9263SOL    HW239306   4.396   4.486   3.296
 9264SOL     OW39307   4.440   4.289   3.570
 9264SOL    HW139308   4.459   4.354   3.644
 9264SOL    HW239309   4.500   4.209   3.579
 9265SOL     OW39310   4.949   4.049   2.311
 9265SOL    HW139311   5.014   3.975   2.300
 9265SOL    HW239312   4.969   4.099   2.395
 9266SOL     OW39313   4.318   4.469   2.514
 9266SOL    HW139314   4.368   4.554   2.495
 9266SOL    HW239315   4.230   4.471   2.466
 9267SOL     OW39316   4.583   4.680   2.723
 9267SOL    HW139317   4.637   4.611   2.771
 9267SOL    HW239318   4.551   4.749   2.789
 9268SOL     OW39319   3.803   4.964   2.515
 9268SOL    HW139320   3.802   4.917   2.603
 9268SOL    HW239321   3.885   4.936   2.464
 9269SOL     OW39322   4.152   4.148   2.382
 9269SOL    HW139323   4.182   4.076   2.320
 9269SOL    HW239324   4.113   4.108   2.465
 9270SOL     OW39325   4.041   4.271   3.142
 9270SOL    HW139326   4.079   4.212   3.214
 9270SOL    HW239327   4.081   4.245   3.054
 9271SOL     OW39328   4.725   3.758   3.016
 9271SOL    HW139329   4.662   3.686   2.985
 9271SOL    HW239330   4.818   3.722   3.016
 9272SOL     OW39331   3.763   4.801   2.162
 9272SOL    HW139332   3.862   4.790   2.153
 9272SOL    HW239333   3.723   4.715   2.194
 9273SOL     OW39334   3.954   4.352   3.837
 9273SOL    HW139335   3.861   4.350   3.874
 9273SOL    HW239336   3.955   4.313   3.745
 9274SOL     OW39337   3.949   3.999   4.720
 9274SOL    HW139338   3.984   3.982   4.812
 9274SOL    HW239339   3.861   3.954   4.708
 9275SOL     OW39340   3.743   4.092   4.371
 9275SOL    HW139341   3.661   4.135   4.410
 9275SOL    HW239342   3.715   4.019   4.308
 9276SOL     OW39343   4.492   4.868   4.747
 9276SOL    HW139344   4.414   4.885   4.807
 9276SOL    HW239345   4.526   4.955   4.711
 9277SOL     OW39346   4.574   4.522   5.547
 9277SOL    HW139347   4.570   4.598   5.612
 9277SOL    HW239348   4.596   4.558   5.456
 9278SOL     OW39349   4.409   4.736   4.389
 9278SOL    HW139350   4.478   4.720   4.459
 9278SOL    HW239351   4.336   4.793   4.427
 9279SOL     OW39352   4.162   4.116   5.223
 9279SOL    HW139353   4.244   4.060   5.232
 9279SOL    HW239354   4.081   4.058   5.227
 9280SOL     OW39355   3.964   4.815   4.610
 9280SOL    HW139356   3.978   4.731   4.662
 9280SOL    HW239357   3.909   4.879   4.665
 9281SOL     OW39358   4.330   4.688   3.847
 9281SOL    HW139359   4.337   4.772   3.793
 9281SOL    HW239360   4.376   4.701   3.935
 9282SOL     OW39361   3.846   4.367   4.287
 9282SOL    HW139362   3.801   4.279   4.304
 9282SOL    HW239363   3.845   4.421   4.371
 9283SOL     OW39364   3.837   4.461   5.321
 9283SOL    HW139365   3.925   4.448   5.366
 9283SOL    HW239366   3.824   4.558   5.299
 9284SOL     OW39367   4.533   3.728   4.226
 9284SOL    HW139368   4.573   3.819   4.217
 9284SOL    HW239369   4.433   3.736   4.232
 9285SOL     OW39370   3.921   4.700   4.988
 9285SOL    HW139371   4.010   4.655   4.974
 9285SOL    HW239372   3.848   4.635   4.969
 9286SOL     OW39373   4.041   3.975   5.525
 9286SOL    HW139374   4.112   4.046   5.531
 9286SOL    HW239375   3.953   4.014   5.553
 9287SOL     OW39376   4.322   4.453   3.994
 9287SOL    HW139377   4.346   4.522   3.926
 9287SOL    HW239378   4.244   4.486   4.048
 9288SOL     OW39379   4.531   4.329   5.189
 9288SOL    HW139380   4.484   4.326   5.278
 9288SOL    HW239381   4.480   4.274   5.123
 9289SOL     OW39382   4.697   4.614   5.296
 9289SOL    HW139383   4.743   4.530   5.267
 9289SOL    HW239384   4.641   4.648   5.221
 9290SOL     OW39385   4.715   4.134   4.966
 9290SOL    HW139386   4.638   4.168   5.020
 9290SOL    HW239387   4.681   4.083   4.887
 9291SOL     OW39388   3.800   4.535   4.513
 9291SOL    HW139389   3.899   4.523   4.522
 9291SOL    HW239390   3.776   4.630   4.534
 9292SOL     OW39391   4.589   4.072   3.919
 9292SOL    HW139392   4.648   4.135   3.870
 9292SOL    HW239393   4.608   3.978   3.890
 9293SOL     OW39394   4.274   3.920   4.609
 9293SOL    HW139395   4.269   3.915   4.709
 9293SOL    HW239396   4.276   4.016   4.580
 9294SOL     OW39397   3.926   4.009   5.222
 9294SOL    HW139398   3.846   4.069   5.209
 9294SOL    HW239399   3.916   3.960   5.308
 9295SOL     OW39400   4.106   4.424   4.204
 9295SOL    HW139401   4.151   4.334   4.201
 9295SOL    HW239402   4.012   4.413   4.237
 9296SOL     OW39403   4.505   3.988   5.473
 9296SOL    HW139404   4.572   3.927   5.516
 9296SOL    HW239405   4.432   4.007   5.538
 9297SOL     OW39406   4.646   4.227   4.623
 9297SOL    HW139407   4.621   4.218   4.527
 9297SOL    HW239408   4.694   4.145   4.654
 9298SOL     OW39409   4.263   3.788   4.236
 9298SOL    HW139410   4.182   3.789   4.294
 9298SOL    HW239411   4.266   3.871   4.181
 9299SOL     OW39412   4.021   3.759   3.895
 9299SOL    HW139413   4.070   3.843   3.874
 9299SOL    HW239414   4.083   3.694   3.940
 9300SOL     OW39415   4.659   3.960   4.204
 9300SOL    HW139416   4.611   4.001   4.126
 9300SOL    HW239417   4.758   3.958   4.185
 9301SOL     OW39418   4.756   4.273   3.740
 9301SOL    HW139419   4.715   4.355   3.701
 9301SOL    HW239420   4.820   4.299   3.813
 9302SOL     OW39421   3.802   4.280   5.110
 9302SOL    HW139422   3.894   4.279   5.069
 9302SOL    HW239423   3.796   4.354   5.177
 9303SOL     OW39424   4.285   3.946   4.871
 9303SOL    HW139425   4.323   3.862   4.908
 9303SOL    HW239426   4.197   3.965   4.915
 9304SOL     OW39427   4.590   4.178   4.366
 9304SOL    HW139428   4.558   4.250   4.304
 9304SOL    HW239429   4.614   4.097   4.313
 9305SOL     OW39430   4.741   3.763   4.477
 9305SOL    HW139431   4.669   3.768   4.408
 9305SOL    HW239432   4.717   3.694   4.546
 9306SOL     OW39433   4.251   3.980   4.052
 9306SOL    HW139434   4.278   3.921   3.977
 9306SOL    HW239435   4.251   4.075   4.021
 9307SOL     OW39436   4.639   3.813   5.126
 9307SOL    HW139437   4.664   3.793   5.031
 9307SOL    HW239438   4.711   3.869   5.168
 9308SOL     OW39439   4.134   4.537   4.975
 9308SOL    HW139440   4.220   4.549   5.025
 9308SOL    HW239441   4.092   4.450   5.002
 9309SOL     OW39442   4.290   4.261   4.589
 9309SOL    HW139443   4.302   4.327   4.515
 9309SOL    HW239444   4.336   4.295   4.672
 9310SOL     OW39445   4.126   4.475   5.322
 9310SOL    HW139446   4.194   4.530   5.275
 9310SOL    HW239447   4.166   4.387   5.349
 9311SOL     OW39448   4.737   3.829   5.494
 9311SOL    HW139449   4.743   3.914   5.442
 9311SOL    HW239450   4.769   3.753   5.437
 9312SOL     OW39451   4.228   3.774   5.464
 9312SOL    HW139452   4.186   3.717   5.394
 9312SOL    HW239453   4.162   3.843   5.496
 9313SOL     OW39454   4.297   4.594   4.753
 9313SOL    HW139455   4.341   4.683   4.744
 9313SOL    HW239456   4.234   4.594   4.830
 9314SOL     OW39457   4.933   4.249   3.999
 9314SOL    HW139458   4.946   4.165   4.053
 9314SOL    HW239459   4.904   4.323   4.059
 9315SOL     OW39460   4.031   3.937   4.955
 9315SOL    HW139461   4.008   3.974   5.045
 9315SOL    HW239462   4.001   3.842   4.949
 9316SOL     OW39463   4.456   4.358   4.788
 9316SOL    HW139464   4.515   4.332   4.712
 9316SOL    HW239465   4.428   4.454   4.777
 9317SOL     OW39466   4.031   3.787   4.342
 9317SOL    HW139467   4.020   3.881   4.375
 9317SOL    HW239468   4.026   3.724   4.419
 9318SOL     OW39469   4.747   4.490   4.690
 9318SOL    HW139470   4.762   4.511   4.786
 9318SOL    HW239471   4.717   4.395   4.681
 9319SOL     OW39472   4.074   4.622   5.528
 9319SOL    HW139473   4.150   4.666   5.576
 9319SOL    HW239474   4.109   4.575   5.446
 9320SOL     OW39475   4.043   4.534   4.673
 9320SOL    HW139476   4.136   4.570   4.678
 9320SOL    HW239477   4.037   4.449   4.725
 9321SOL     OW39478   4.063   4.233   4.730
 9321SOL    HW139479   4.011   4.150   4.713
 9321SOL    HW239480   4.140   4.238   4.666
 9322SOL     OW39481   4.726   4.520   4.962
 9322SOL    HW139482   4.767   4.488   5.048
 9322SOL    HW239483   4.630   4.493   4.959
 9323SOL     OW39484   3.764   4.268   4.838
 9323SOL    HW139485   3.849   4.235   4.797
 9323SOL    HW239486   3.777   4.283   4.936
 9324SOL     OW39487   3.913   4.244   5.446
 9324SOL    HW139488   3.972   4.204   5.376
 9324SOL    HW239489   3.855   4.315   5.405
 9325SOL     OW39490   4.539   4.296   4.049
 9325SOL    HW139491   4.546   4.207   4.003
 9325SOL    HW239492   4.445   4.330   4.041
 9326SOL     OW39493   4.395   4.188   4.993
 9326SOL    HW139494   4.361   4.099   4.963
 9326SOL    HW239495   4.421   4.242   4.913
 9327SOL     OW39496   4.197   4.224   3.915
 9327SOL    HW139497   4.258   4.304   3.919
 9327SOL    HW239498   4.102   4.255   3.922
 9328SOL     OW39499   3.883   4.861   5.190
 9328SOL    HW139500   3.905   4.800   5.266
 9328SOL    HW239501   3.893   4.812   5.104
 9329SOL     OW39502   5.026   4.579   4.033
 9329SOL    HW139503   4.940   4.548   4.075
 9329SOL    HW239504   5.022   4.565   3.934
 9330SOL     OW39505   3.987   4.050   4.444
 9330SOL    HW139506   3.908   4.101   4.410
 9330SOL    HW239507   3.978   4.035   4.542
 9331SOL     OW39508   4.640   4.634   4.015
 9331SOL    HW139509   4.703   4.672   3.947
 9331SOL    HW239510   4.680   4.551   4.054
 9332SOL     OW39511   4.738   3.960   4.695
 9332SOL    HW139512   4.730   3.924   4.602
 9332SOL    HW239513   4.736   3.884   4.760
 9333SOL     OW39514   3.829   4.737   5.450
 9333SOL    HW139515   3.752   4.704   5.504
 9333SOL    HW239516   3.914   4.707   5.492
 9334SOL     OW39517   4.396   3.927   5.213
 9334SOL    HW139518   4.486   3.911   5.173
 9334SOL    HW239519   4.404   3.932   5.312
 9335SOL     OW39520   3.799   4.069   3.757
 9335SOL    HW139521   3.707   4.041   3.728
 9335SOL    HW239522   3.830   4.146   3.701
 9336SOL     OW39523   3.796   3.890   4.042
 9336SOL    HW139524   3.779   3.973   3.988
 9336SOL    HW239525   3.886   3.853   4.020
 9337SOL     OW39526   4.337   4.566   5.155
 9337SOL    HW139527   4.393   4.647   5.138
 9337SOL    HW239528   4.396   4.486   5.158
 9338SOL     OW39529   4.440   4.289   5.432
 9338SOL    HW139530   4.459   4.354   5.506
 9338SOL    HW239531   4.500   4.209   5.441
 9339SOL     OW39532   4.949   4.049   4.173
 9339SOL    HW139533   5.014   3.975   4.162
 9339SOL    HW239534   4.969   4.099   4.257
 9340SOL     OW39535   4.318   4.469   4.376
 9340SOL    HW139536   4.368   4.554   4.357
 9340SOL    HW239537   4.230   4.471   4.328
 9341SOL     OW39538   4.583   4.680   4.585
 9341SOL    HW139539   4.637   4.611   4.633
 9341SOL    HW239540   4.551   4.749   4.651
 9342SOL     OW39541   3.803   4.964   4.377
 9342SOL    HW139542   3.802   4.917   4.465
 9342SOL    HW239543   3.885   4.936   4.326
 9343SOL     OW39544   4.152   4.148   4.244
 9343SOL    HW139545   4.182   4.076   4.182
 9343SOL    HW239546   4.113   4.108   4.327
 9344SOL     OW39547   4.041   4.271   5.004
 9344SOL    HW139548   4.079   4.212   5.076
 9344SOL    HW239549   4.081   4.245   4.916
 9345SOL     OW39550   4.725   3.758   4.878
 9345SOL    HW139551   4.662   3.686   4.847
 9345SOL    HW239552   4.818   3.722   4.878
 9346SOL     OW39553   3.763   4.801   4.024
 9346SOL    HW139554   3.862   4.790   4.015
 9346SOL    HW239555   3.723   4.715   4.056
 9347SOL     OW39556   3.954   4.352   5.699
 9347SOL    HW139557   3.861   4.350   5.736
 9347SOL    HW239558   3.955   4.313   5.607
 9348SOL     OW39559   3.949   3.999   6.582
 9348SOL    HW139560   3.984   3.982   6.674
 9348SOL    HW239561   3.861   3.954   6.570
 9349SOL     OW39562   3.743   4.092   6.233
 9349SOL    HW139563   3.661   4.135   6.272
 9349SOL    HW239564   3.715   4.019   6.170
 9350SOL     OW39565   4.492   4.868   6.609
 9350SOL    HW139566   4.414   4.885   6.669
 9350SOL    HW239567   4.526   4.955   6.573
 9351SOL     OW39568   4.574   4.522   7.409
 9351SOL    HW139569   4.570   4.598   7.474
 9351SOL    HW239570   4.596   4.558   7.318
 9352SOL     OW39571   4.409   4.736   6.251
 9352SOL    HW139572   4.478   4.720   6.321
 9352SOL    HW239573   4.336   4.793   6.289
 9353SOL     OW39574   4.162   4.116   7.085
 9353SOL    HW139575   4.244   4.060   7.094
 9353SOL    HW239576   4.081   4.058   7.089
 9354SOL     OW39577   3.964   4.815   6.472
 9354SOL    HW139578   3.978   4.731   6.524
 9354SOL    HW239579   3.909   4.879   6.527
 9355SOL     OW39580   4.330   4.688   5.709
 9355SOL    HW139581   4.337   4.772   5.655
 9355SOL    HW239582   4.376   4.701   5.797
 9356SOL     OW39583   3.846   4.367   6.149
 9356SOL    HW139584   3.801   4.279   6.166
 9356SOL    HW239585   3.845   4.421   6.233
 9357SOL     OW39586   3.837   4.461   7.183
 9357SOL    HW139587   3.925   4.448   7.228
 9357SOL    HW239588   3.824   4.558   7.161
 9358SOL     OW39589   4.533   3.728   6.088
 9358SOL    HW139590   4.573   3.819   6.079
 9358SOL    HW239591   4.433   3.736   6.094
 9359SOL     OW39592   3.921   4.700   6.850
 9359SOL    HW139593   4.010   4.655   6.836
 9359SOL    HW239594   3.848   4.635   6.831
 9360SOL     OW39595   4.041   3.975   7.387
 9360SOL    HW139596   4.112   4.046   7.393
 9360SOL    HW239597   3.953   4.014   7.415
 9361SOL     OW39598   4.322   4.453   5.856
 9361SOL    HW139599   4.346   4.522   5.788
 9361SOL    HW239600   4.244   4.486   5.910
 9362SOL     OW39601   4.531   4.329   7.051
 9362SOL    HW139602   4.484   4.326   7.140
 9362SOL    HW239603   4.480   4.274   6.985
 9363SOL     OW39604   4.697   4.614   7.158
 9363SOL    HW139605   4.743   4.530   7.129
 9363SOL    HW239606   4.641   4.648   7.083
 9364SOL     OW39607   4.715   4.134   6.828
 9364SOL    HW139608   4.638   4.168   6.882
 9364SOL    HW239609   4.681   4.083   6.749
 9365SOL     OW39610   3.800   4.535   6.375
 9365SOL    HW139611   3.899   4.523   6.384
 9365SOL    HW239612   3.776   4.630   6.396
 9366SOL     OW39613   4.589   4.072   5.781
 9366SOL    HW139614   4.648   4.135   5.732
 9366SOL    HW239615   4.608   3.978   5.752
 9367SOL     OW39616   4.274   3.920   6.471
 9367SOL    HW139617   4.269   3.915   6.571
 9367SOL    HW239618   4.276   4.016   6.442
 9368SOL     OW39619   3.926   4.009   7.084
 9368SOL    HW139620   3.846   4.069   7.071
 9368SOL    HW239621   3.916   3.960   7.170
 9369SOL     OW39622   4.106   4.424   6.066
 9369SOL    HW139623   4.151   4.334   6.063
 9369SOL    HW239624   4.012   4.413   6.099
 9370SOL     OW39625   4.338   3.846   5.703
 9370SOL    HW139626   4.436   3.824   5.710
 9370SOL    HW239627   4.307   3.829   5.610
 9371SOL     OW39628   4.505   3.988   7.335
 9371SOL    HW139629   4.572   3.927   7.378
 9371SOL    HW239630   4.432   4.007   7.400
 9372SOL     OW39631   4.646   4.227   6.485
 9372SOL    HW139632   4.621   4.218   6.389
 9372SOL    HW239633   4.694   4.145   6.516
 9373SOL     OW39634   4.263   3.788   6.098
 9373SOL    HW139635   4.182   3.789   6.156
 9373SOL    HW239636   4.266   3.871   6.043
 9374SOL     OW39637   4.021   3.759   5.757
 9374SOL    HW139638   4.070   3.843   5.736
 9374SOL    HW239639   4.083   3.694   5.802
 9375SOL     OW39640   4.659   3.960   6.066
 9375SOL    HW139641   4.611   4.001   5.988
 9375SOL    HW239642   4.758   3.958   6.047
 9376SOL     OW39643   4.756   4.273   5.602
 9376SOL    HW139644   4.715   4.355   5.563
 9376SOL    HW239645   4.820   4.299   5.675
 9377SOL     OW39646   3.802   4.280   6.972
 9377SOL    HW139647   3.894   4.279   6.931
 9377SOL    HW239648   3.796   4.354   7.039
 9378SOL     OW39649   4.285   3.946   6.733
 9378SOL    HW139650   4.323   3.862   6.770
 9378SOL    HW239651   4.197   3.965   6.777
 9379SOL     OW39652   4.590   4.178   6.228
 9379SOL    HW139653   4.558   4.250   6.166
 9379SOL    HW239654   4.614   4.097   6.175
 9380SOL     OW39655   4.741   3.763   6.339
 9380SOL    HW139656   4.669   3.768   6.270
 9380SOL    HW239657   4.717   3.694   6.408
 9381SOL     OW39658   4.251   3.980   5.914
 9381SOL    HW139659   4.278   3.921   5.839
 9381SOL    HW239660   4.251   4.075   5.883
 9382SOL     OW39661   4.639   3.813   6.988
 9382SOL    HW139662   4.664   3.793   6.893
 9382SOL    HW239663   4.711   3.869   7.030
 9383SOL     OW39664   4.134   4.537   6.837
 9383SOL    HW139665   4.220   4.549   6.887
 9383SOL    HW239666   4.092   4.450   6.864
 9384SOL     OW39667   4.290   4.261   6.451
 9384SOL    HW139668   4.302   4.327   6.377
 9384SOL    HW239669   4.336   4.295   6.534
 9385SOL     OW39670   4.126   4.475   7.184
 9385SOL    HW139671   4.194   4.530   7.137
 9385SOL    HW239672   4.166   4.387   7.211
 9386SOL     OW39673   4.737   3.829   7.356
 9386SOL    HW139674   4.743   3.914   7.304
 9386SOL    HW239675   4.769   3.753   7.299
 9387SOL     OW39676   4.228   3.774   7.326
 9387SOL    HW139677   4.186   3.717   7.256
 9387SOL    HW239678   4.162   3.843   7.358
 9388SOL     OW39679   4.297   4.594   6.615
 9388SOL    HW139680   4.341   4.683   6.606
 9388SOL    HW239681   4.234   4.594   6.692
 9389SOL     OW39682   4.933   4.249   5.861
 9389SOL    HW139683   4.946   4.165   5.915
 9389SOL    HW239684   4.904   4.323   5.921
 9390SOL     OW39685   4.031   3.937   6.817
 9390SOL    HW139686   4.008   3.974   6.907
 9390SOL    HW239687   4.001   3.842   6.811
 9391SOL     OW39688   4.456   4.358   6.650
 9391SOL    HW139689   4.515   4.332   6.574
 9391SOL    HW239690   4.428   4.454   6.639
 9392SOL     OW39691   4.031   3.787   6.204
 9392SOL    HW139692   4.020   3.881   6.237
 9392SOL    HW239693   4.026   3.724   6.281
 9393SOL     OW39694   4.747   4.490   6.552
 9393SOL    HW139695   4.762   4.511   6.648
 9393SOL    HW239696   4.717   4.395   6.543
 9394SOL     OW39697   4.074   4.622   7.390
 9394SOL    HW139698   4.150   4.666   7.438
 9394SOL    HW239699   4.109   4.575   7.308
 9395SOL     OW39700   4.043   4.534   6.535
 9395SOL    HW139701   4.136   4.570   6.540
 9395SOL    HW239702   4.037   4.449   6.587
 9396SOL     OW39703   4.063   4.233   6.592
 9396SOL    HW139704   4.011   4.150   6.575
 9396SOL    HW239705   4.140   4.238   6.528
 9397SOL     OW39706   4.726   4.520   6.824
 9397SOL    HW139707   4.767   4.488   6.910
 9397SOL    HW239708   4.630   4.493   6.821
 9398SOL     OW39709   3.764   4.268   6.700
 9398SOL    HW139710   3.849   4.235   6.659
 9398SOL    HW239711   3.777   4.283   6.798
 9399SOL     OW39712   3.913   4.244   7.308
 9399SOL    HW139713   3.972   4.204   7.238
 9399SOL    HW239714   3.855   4.315   7.267
 9400SOL     OW39715   4.539   4.296   5.911
 9400SOL    HW139716   4.546   4.207   5.865
 9400SOL    HW239717   4.445   4.330   5.903
 9401SOL     OW39718   4.395   4.188   6.855
 9401SOL    HW139719   4.361   4.099   6.825
 9401SOL    HW239720   4.421   4.242   6.775
 9402SOL     OW39721   4.197   4.224   5.777
 9402SOL    HW139722   4.258   4.304   5.781
 9402SOL    HW239723   4.102   4.255   5.784
 9403SOL     OW39724   3.883   4.861   7.052
 9403SOL    HW139725   3.905   4.800   7.128
 9403SOL    HW239726   3.893   4.812   6.966
 9404SOL     OW39727   5.026   4.579   5.895
 9404SOL    HW139728   4.940   4.548   5.937
 9404SOL    HW239729   5.022   4.565   5.796
 9405SOL     OW39730   3.987   4.050   6.306
 9405SOL    HW139731   3.908   4.101   6.272
 9405SOL    HW239732   3.978   4.035   6.404
 9406SOL     OW39733   4.640   4.634   5.877
 9406SOL    HW139734   4.703   4.672   5.809
 9406SOL    HW239735   4.680   4.551   5.916
 9407SOL     OW39736   4.738   3.960   6.557
 9407SOL    HW139737   4.730   3.924   6.464
 9407SOL    HW239738   4.736   3.884   6.622
 9408SOL     OW39739   3.829   4.737   7.312
 9408SOL    HW139740   3.752   4.704   7.366
 9408SOL    HW239741   3.914   4.707   7.354
 9409SOL     OW39742   4.396   3.927   7.075
 9409SOL    HW139743   4.486   3.911   7.035
 9409SOL    HW239744   4.404   3.932   7.174
 9410SOL     OW39745   3.799   4.069   5.619
 9410SOL    HW139746   3.707   4.041   5.590
 9410SOL    HW239747   3.830   4.146   5.563
 9411SOL     OW39748   3.796   3.890   5.904
 9411SOL    HW139749   3.779   3.973   5.850
 9411SOL    HW239750   3.886   3.853   5.882
 9412SOL     OW39751   4.337   4.566   7.017
 9412SOL    HW139752   4.393   4.647   7.000
 9412SOL    HW239753   4.396   4.486   7.020
 9413SOL     OW39754   4.440   4.289   7.294
 9413SOL    HW139755   4.459   4.354   7.368
 9413SOL    HW239756   4.500   4.209   7.303
 9414SOL     OW39757   4.949   4.049   6.035
 9414SOL    HW139758   5.014   3.975   6.024
 9414SOL    HW239759   4.969   4.099   6.119
 9415SOL     OW39760   4.318   4.469   6.238
 9415SOL    HW139761   4.368   4.554   6.219
 9415SOL    HW239762   4.230   4.471   6.190
 9416SOL     OW39763   4.583   4.680   6.447
 9416SOL    HW139764   4.637   4.611   6.495
 9416SOL    HW239765   4.551   4.749   6.513
 9417SOL     OW39766   3.803   4.964   6.239
 9417SOL    HW139767   3.802   4.917   6.327
 9417SOL    HW239768   3.885   4.936   6.188
 9418SOL     OW39769   4.152   4.148   6.106
 9418SOL    HW139770   4.182   4.076   6.044
 9418SOL    HW239771   4.113   4.108   6.189
 9419SOL     OW39772   4.041   4.271   6.866
 9419SOL    HW139773   4.079   4.212   6.938
 9419SOL    HW239774   4.081   4.245   6.778
 9420SOL     OW39775   4.725   3.758   6.740
 9420SOL    HW139776   4.662   3.686   6.709
 9420SOL    HW239777   4.818   3.722   6.740
 9421SOL     OW39778   3.763   4.801   5.886
 9421SOL    HW139779   3.862   4.790   5.877
 9421SOL    HW239780   3.723   4.715   5.918
 9422SOL     OW39781   3.954   4.352   7.561
 9422SOL    HW139782   3.861   4.350   7.598
 9422SOL    HW239783   3.955   4.313   7.469
 9423SOL     OW39784   3.949   3.999   8.444
 9423SOL    HW139785   3.984   3.982   8.536
 9423SOL    HW239786   3.861   3.954   8.432
 9424SOL     OW39787   3.743   4.092   8.095
 9424SOL    HW139788   3.661   4.135   8.134
 9424SOL    HW239789   3.715   4.019   8.032
 9425SOL     OW39790   4.492   4.868   8.471
 9425SOL    HW139791   4.414   4.885   8.531
 9425SOL    HW239792   4.526   4.955   8.435
 9426SOL     OW39793   4.409   4.736   8.113
 9426SOL    HW139794   4.478   4.720   8.183
 9426SOL    HW239795   4.336   4.793   8.151
 9427SOL     OW39796   4.162   4.116   8.947
 9427SOL    HW139797   4.244   4.060   8.956
 9427SOL    HW239798   4.081   4.058   8.951
 9428SOL     OW39799   3.964   4.815   8.334
 9428SOL    HW139800   3.978   4.731   8.386
 9428SOL    HW239801   3.909   4.879   8.389
 9429SOL     OW39802   4.330   4.688   7.571
 9429SOL    HW139803   4.337   4.772   7.517
 9429SOL    HW239804   4.376   4.701   7.659
 9430SOL     OW39805   3.846   4.367   8.011
 9430SOL    HW139806   3.801   4.279   8.028
 9430SOL    HW239807   3.845   4.421   8.095
 9431SOL     OW39808   3.837   4.461   9.045
 9431SOL    HW139809   3.925   4.448   9.090
 9431SOL    HW239810   3.824   4.558   9.023
 9432SOL     OW39811   4.533   3.728   7.950
 9432SOL    HW139812   4.573   3.819   7.941
 9432SOL    HW239813   4.433   3.736   7.956
 9433SOL     OW39814   3.921   4.700   8.712
 9433SOL    HW139815   4.010   4.655   8.698
 9433SOL    HW239816   3.848   4.635   8.693
 9434SOL     OW39817   4.041   3.975   9.249
 9434SOL    HW139818   4.112   4.046   9.255
 9434SOL    HW239819   3.953   4.014   9.277
 9435SOL     OW39820   4.322   4.453   7.718
 9435SOL    HW139821   4.346   4.522   7.650
 9435SOL    HW239822   4.244   4.486   7.772
 9436SOL     OW39823   4.531   4.329   8.913
 9436SOL    HW139824   4.484   4.326   9.002
 9436SOL    HW239825   4.480   4.274   8.847
 9437SOL     OW39826   4.715   4.134   8.690
 9437SOL    HW139827   4.638   4.168   8.744
 9437SOL    HW239828   4.681   4.083   8.611
 9438SOL     OW39829   3.800   4.535   8.237
 9438SOL    HW139830   3.899   4.523   8.246
 9438SOL    HW239831   3.776   4.630   8.258
 9439SOL     OW39832   4.589   4.072   7.643
 9439SOL    HW139833   4.648   4.135   7.594
 9439SOL    HW239834   4.608   3.978   7.614
 9440SOL     OW39835   4.274   3.920   8.333
 9440SOL    HW139836   4.269   3.915   8.433
 9440SOL    HW239837   4.276   4.016   8.304
 9441SOL     OW39838   3.926   4.009   8.946
 9441SOL    HW139839   3.846   4.069   8.933
 9441SOL    HW239840   3.916   3.960   9.032
 9442SOL     OW39841   4.106   4.424   7.928
 9442SOL    HW139842   4.151   4.334   7.925
 9442SOL    HW239843   4.012   4.413   7.961
 9443SOL     OW39844   4.338   3.846   7.565
 9443SOL    HW139845   4.436   3.824   7.572
 9443SOL    HW239846   4.307   3.829   7.472
 9444SOL     OW39847   4.505   3.988   9.197
 9444SOL    HW139848   4.572   3.927   9.240
 9444SOL    HW239849   4.432   4.007   9.262
 9445SOL     OW39850   4.646   4.227   8.347
 9445SOL    HW139851   4.621   4.218   8.251
 9445SOL    HW239852   4.694   4.145   8.378
 9446SOL     OW39853   4.263   3.788   7.960
 9446SOL    HW139854   4.182   3.789   8.018
 9446SOL    HW239855   4.266   3.871   7.905
 9447SOL     OW39856   4.021   3.759   7.619
 9447SOL    HW139857   4.070   3.843   7.598
 9447SOL    HW239858   4.083   3.694   7.664
 9448SOL     OW39859   4.659   3.960   7.928
 9448SOL    HW139860   4.611   4.001   7.850
 9448SOL    HW239861   4.758   3.958   7.909
 9449SOL     OW39862   4.756   4.273   7.464
 9449SOL    HW139863   4.715   4.355   7.425
 9449SOL    HW239864   4.820   4.299   7.537
 9450SOL     OW39865   3.802   4.280   8.834
 9450SOL    HW139866   3.894   4.279   8.793
 9450SOL    HW239867   3.796   4.354   8.901
 9451SOL     OW39868   4.285   3.946   8.595
 9451SOL    HW139869   4.323   3.862   8.632
 9451SOL    HW239870   4.197   3.965   8.639
 9452SOL     OW39871   4.590   4.178   8.090
 9452SOL    HW139872   4.558   4.250   8.028
 9452SOL    HW239873   4.614   4.097   8.037
 9453SOL     OW39874   4.741   3.763   8.201
 9453SOL    HW139875   4.669   3.768   8.132
 9453SOL    HW239876   4.717   3.694   8.270
 9454SOL     OW39877   4.251   3.980   7.776
 9454SOL    HW139878   4.278   3.921   7.701
 9454SOL    HW239879   4.251   4.075   7.745
 9455SOL     OW39880   4.639   3.813   8.850
 9455SOL    HW139881   4.664   3.793   8.755
 9455SOL    HW239882   4.711   3.869   8.892
 9456SOL     OW39883   4.134   4.537   8.699
 9456SOL    HW139884   4.220   4.549   8.749
 9456SOL    HW239885   4.092   4.450   8.726
 9457SOL     OW39886   4.290   4.261   8.313
 9457SOL    HW139887   4.302   4.327   8.239
 9457SOL    HW239888   4.336   4.295   8.396
 9458SOL     OW39889   4.126   4.475   9.046
 9458SOL    HW139890   4.194   4.530   8.999
 9458SOL    HW239891   4.166   4.387   9.073
 9459SOL     OW39892   4.228   3.774   9.188
 9459SOL    HW139893   4.186   3.717   9.118
 9459SOL    HW239894   4.162   3.843   9.220
 9460SOL     OW39895   4.933   4.249   7.723
 9460SOL    HW139896   4.946   4.165   7.777
 9460SOL    HW239897   4.904   4.323   7.783
 9461SOL     OW39898   4.031   3.937   8.679
 9461SOL    HW139899   4.008   3.974   8.769
 9461SOL    HW239900   4.001   3.842   8.673
 9462SOL     OW39901   4.456   4.358   8.512
 9462SOL    HW139902   4.515   4.332   8.436
 9462SOL    HW239903   4.428   4.454   8.501
 9463SOL     OW39904   4.031   3.787   8.066
 9463SOL    HW139905   4.020   3.881   8.099
 9463SOL    HW239906   4.026   3.724   8.143
 9464SOL     OW39907   4.043   4.534   8.397
 9464SOL    HW139908   4.136   4.570   8.402
 9464SOL    HW239909   4.037   4.449   8.449
 9465SOL     OW39910   4.063   4.233   8.454
 9465SOL    HW139911   4.011   4.150   8.437
 9465SOL    HW239912   4.140   4.238   8.390
 9466SOL     OW39913   3.764   4.268   8.562
 9466SOL    HW139914   3.849   4.235   8.521
 9466SOL    HW239915   3.777   4.283   8.660
 9467SOL     OW39916   3.913   4.244   9.170
 9467SOL    HW139917   3.972   4.204   9.100
 9467SOL    HW239918   3.855   4.315   9.129
 9468SOL     OW39919   4.539   4.296   7.773
 9468SOL    HW139920   4.546   4.207   7.727
 9468SOL    HW239921   4.445   4.330   7.765
 9469SOL     OW39922   4.395   4.188   8.717
 9469SOL    HW139923   4.361   4.099   8.687
 9469SOL    HW239924   4.421   4.242   8.637
 9470SOL     OW39925   4.197   4.224   7.639
 9470SOL    HW139926   4.258   4.304   7.643
 9470SOL    HW239927   4.102   4.255   7.646
 9471SOL     OW39928   3.883   4.861   8.914
 9471SOL    HW139929   3.905   4.800   8.990
 9471SOL    HW239930   3.893   4.812   8.828
 9472SOL     OW39931   5.026   4.579   7.757
 9472SOL    HW139932   4.940   4.548   7.799
 9472SOL    HW239933   5.022   4.565   7.658
 9473SOL     OW39934   3.987   4.050   8.168
 9473SOL    HW139935   3.908   4.101   8.134
 9473SOL    HW239936   3.978   4.035   8.266
 9474SOL     OW39937   4.640   4.634   7.739
 9474SOL    HW139938   4.703   4.672   7.671
 9474SOL    HW239939   4.680   4.551   7.778
 9475SOL     OW39940   4.738   3.960   8.419
 9475SOL    HW139941   4.730   3.924   8.326
 9475SOL    HW239942   4.736   3.884   8.484
 9476SOL     OW39943   3.829   4.737   9.174
 9476SOL    HW139944   3.752   4.704   9.228
 9476SOL    HW239945   3.914   4.707   9.216
 9477SOL     OW39946   4.396   3.927   8.937
 9477SOL    HW139947   4.486   3.911   8.897
 9477SOL    HW239948   4.404   3.932   9.036
 9478SOL     OW39949   3.799   4.069   7.481
 9478SOL    HW139950   3.707   4.041   7.452
 9478SOL    HW239951   3.830   4.146   7.425
 9479SOL     OW39952   3.796   3.890   7.766
 9479SOL    HW139953   3.779   3.973   7.712
 9479SOL    HW239954   3.886   3.853   7.744
 9480SOL     OW39955   4.949   4.049   7.897
 9480SOL    HW139956   5.014   3.975   7.886
 9480SOL    HW239957   4.969   4.099   7.981
 9481SOL     OW39958   4.318   4.469   8.100
 9481SOL    HW139959   4.368   4.554   8.081
 9481SOL    HW239960   4.230   4.471   8.052
 9482SOL     OW39961   3.803   4.964   8.101
 9482SOL    HW139962   3.802   4.917   8.189
 9482SOL    HW239963   3.885   4.936   8.050
 9483SOL     OW39964   4.152   4.148   7.968
 9483SOL    HW139965   4.182   4.076   7.906
 9483SOL    HW239966   4.113   4.108   8.051
 9484SOL     OW39967   4.041   4.271   8.728
 9484SOL    HW139968   4.079   4.212   8.800
 9484SOL    HW239969   4.081   4.245   8.640
 9485SOL     OW39970   4.725   3.758   8.602
 9485SOL    HW139971   4.662   3.686   8.571
 9485SOL    HW239972   4.818   3.722   8.602
 9486SOL     OW39973   3.763   4.801   7.748
 9486SOL    HW139974   3.862   4.790   7.739
 9486SOL    HW239975   3.723   4.715   7.780
 9487SOL     OW39976   4.492   4.868  10.333
 9487SOL    HW139977   4.414   4.885  10.393
 9487SOL    HW239978   4.526   4.955  10.297
 9488SOL     OW39979   4.409   4.736   9.975
 9488SOL    HW139980   4.478   4.720  10.045
 9488SOL    HW239981   4.336   4.793  10.013
 9489SOL     OW39982   3.964   4.815  10.196
 9489SOL    HW139983   3.978   4.731  10.248
 9489SOL    HW239984   3.909   4.879  10.251
 9490SOL     OW39985   4.041   3.975  11.111
 9490SOL    HW139986   4.112   4.046  11.117
 9490SOL    HW239987   3.953   4.014  11.139
 9491SOL     OW39988   4.697   4.614  10.882
 9491SOL    HW139989   4.743   4.530  10.853
 9491SOL    HW239990   4.641   4.648  10.807
 9492SOL     OW39991   4.715   4.134  10.552
 9492SOL    HW139992   4.638   4.168  10.606
 9492SOL    HW239993   4.681   4.083  10.473
 9493SOL     OW39994   3.800   4.535  10.099
 9493SOL    HW139995   3.899   4.523  10.108
 9493SOL    HW239996   3.776   4.630  10.120
 9494SOL     OW39997   4.659   3.960   9.790
 9494SOL    HW139998   4.611   4.001   9.712
 9494SOL    HW239999   4.758   3.958   9.771
 9495SOL     OW40000   4.285   3.946  10.457
 9495SOL    HW140001   4.323   3.862  10.494
 9495SOL    HW240002   4.197   3.965  10.501
 9496SOL     OW40003   4.134   4.537  10.561
 9496SOL    HW140004   4.220   4.549  10.611
 9496SOL    HW240005   4.092   4.450  10.588
 9497SOL     OW40006   4.290   4.261  10.175
 9497SOL    HW140007   4.302   4.327  10.101
 9497SOL    HW240008   4.336   4.295  10.258
 9498SOL     OW40009   4.297   4.594  10.339
 9498SOL    HW140010   4.341   4.683  10.330
 9498SOL    HW240011   4.234   4.594  10.416
 9499SOL     OW40012   4.456   4.358  10.374
 9499SOL    HW140013   4.515   4.332  10.298
 9499SOL    HW240014   4.428   4.454  10.363
 9500SOL     OW40015   4.747   4.490  10.276
 9500SOL    HW140016   4.762   4.511  10.372
 9500SOL    HW240017   4.717   4.395  10.267
 9501SOL     OW40018   4.043   4.534  10.259
 9501SOL    HW140019   4.136   4.570  10.264
 9501SOL    HW240020   4.037   4.449  10.311
 9502SOL     OW40021   4.063   4.233  10.316
 9502SOL    HW140022   4.011   4.150  10.299
 9502SOL    HW240023   4.140   4.238  10.252
 9503SOL     OW40024   4.726   4.520  10.548
 9503SOL    HW140025   4.767   4.488  10.634
 9503SOL    HW240026   4.630   4.493  10.545
 9504SOL     OW40027   4.539   4.296   9.635
 9504SOL    HW140028   4.546   4.207   9.589
 9504SOL    HW240029   4.445   4.330   9.627
 9505SOL     OW40030   4.395   4.188  10.579
 9505SOL    HW140031   4.361   4.099  10.549
 9505SOL    HW240032   4.421   4.242  10.499
 9506SOL     OW40033   4.738   3.960  10.281
 9506SOL    HW140034   4.730   3.924  10.188
 9506SOL    HW240035   4.736   3.884  10.346
 9507SOL     OW40036   3.799   4.069   9.343
 9507SOL    HW140037   3.707   4.041   9.314
 9507SOL    HW240038   3.830   4.146   9.287
 9508SOL     OW40039   4.583   4.680  10.171
 9508SOL    HW140040   4.637   4.611  10.219
 9508SOL    HW240041   4.551   4.749  10.237
 9509SOL     OW40042   3.803   4.964   9.963
 9509SOL    HW140043   3.802   4.917  10.051
 9509SOL    HW240044   3.885   4.936   9.912
 9510SOL     OW40045   4.725   3.758  10.464
 9510SOL    HW140046   4.662   3.686  10.433
 9510SOL    HW240047   4.818   3.722  10.464
 9511SOL     OW40048   3.763   4.801   9.610
 9511SOL    HW140049   3.862   4.790   9.601
 9511SOL    HW240050   3.723   4.715   9.642
 9512SOL     OW40051   3.743   4.092  11.819
 9512SOL    HW140052   3.661   4.135  11.858
 9512SOL    HW240053   3.715   4.019  11.756
 9513SOL     OW40054   4.162   4.116  12.671
 9513SOL    HW140055   4.244   4.060  12.680
 9513SOL    HW240056   4.081   4.058  12.675
 9514SOL     OW40057   3.964   4.815  12.058
 9514SOL    HW140058   3.978   4.731  12.110
 9514SOL    HW240059   3.909   4.879  12.113
 9515SOL     OW40060   3.837   4.461  12.769
 9515SOL    HW140061   3.925   4.448  12.814
 9515SOL    HW240062   3.824   4.558  12.747
 9516SOL     OW40063   3.921   4.700  12.436
 9516SOL    HW140064   4.010   4.655  12.422
 9516SOL    HW240065   3.848   4.635  12.417
 9517SOL     OW40066   4.041   3.975  12.973
 9517SOL    HW140067   4.112   4.046  12.979
 9517SOL    HW240068   3.953   4.014  13.001
 9518SOL     OW40069   4.322   4.453  11.442
 9518SOL    HW140070   4.346   4.522  11.374
 9518SOL    HW240071   4.244   4.486  11.496
 9519SOL     OW40072   4.531   4.329  12.637
 9519SOL    HW140073   4.484   4.326  12.726
 9519SOL    HW240074   4.480   4.274  12.571
 9520SOL     OW40075   4.697   4.614  12.744
 9520SOL    HW140076   4.743   4.530  12.715
 9520SOL    HW240077   4.641   4.648  12.669
 9521SOL     OW40078   4.589   4.072  11.367
 9521SOL    HW140079   4.648   4.135  11.318
 9521SOL    HW240080   4.608   3.978  11.338
 9522SOL     OW40081   3.926   4.009  12.670
 9522SOL    HW140082   3.846   4.069  12.657
 9522SOL    HW240083   3.916   3.960  12.756
 9523SOL     OW40084   4.756   4.273  11.188
 9523SOL    HW140085   4.715   4.355  11.149
 9523SOL    HW240086   4.820   4.299  11.261
 9524SOL     OW40087   3.802   4.280  12.558
 9524SOL    HW140088   3.894   4.279  12.517
 9524SOL    HW240089   3.796   4.354  12.625
 9525SOL     OW40090   4.285   3.946  12.319
 9525SOL    HW140091   4.323   3.862  12.356
 9525SOL    HW240092   4.197   3.965  12.363
 9526SOL     OW40093   4.126   4.475  12.770
 9526SOL    HW140094   4.194   4.530  12.723
 9526SOL    HW240095   4.166   4.387  12.797
 9527SOL     OW40096   4.228   3.774  12.912
 9527SOL    HW140097   4.186   3.717  12.842
 9527SOL    HW240098   4.162   3.843  12.944
 9528SOL     OW40099   4.933   4.249  11.447
 9528SOL    HW140100   4.946   4.165  11.501
 9528SOL    HW240101   4.904   4.323  11.507
 9529SOL     OW40102   4.031   3.937  12.403
 9529SOL    HW140103   4.008   3.974  12.493
 9529SOL    HW240104   4.001   3.842  12.397
 9530SOL     OW40105   4.074   4.622  12.976
 9530SOL    HW140106   4.150   4.666  13.024
 9530SOL    HW240107   4.109   4.575  12.894
 9531SOL     OW40108   4.063   4.233  12.178
 9531SOL    HW140109   4.011   4.150  12.161
 9531SOL    HW240110   4.140   4.238  12.114
 9532SOL     OW40111   3.764   4.268  12.286
 9532SOL    HW140112   3.849   4.235  12.245
 9532SOL    HW240113   3.777   4.283  12.384
 9533SOL     OW40114   3.913   4.244  12.894
 9533SOL    HW140115   3.972   4.204  12.824
 9533SOL    HW240116   3.855   4.315  12.853
 9534SOL     OW40117   4.539   4.296  11.497
 9534SOL    HW140118   4.546   4.207  11.451
 9534SOL    HW240119   4.445   4.330  11.489
 9535SOL     OW40120   4.395   4.188  12.441
 9535SOL    HW140121   4.361   4.099  12.411
 9535SOL    HW240122   4.421   4.242  12.361
 9536SOL     OW40123   5.026   4.579  11.481
 9536SOL    HW140124   4.940   4.548  11.523
 9536SOL    HW240125   5.022   4.565  11.382
 9537SOL     OW40126   4.640   4.634  11.463
 9537SOL    HW140127   4.703   4.672  11.395
 9537SOL    HW240128   4.680   4.551  11.502
 9538SOL     OW40129   3.829   4.737  12.898
 9538SOL    HW140130   3.752   4.704  12.952
 9538SOL    HW240131   3.914   4.707  12.940
 9539SOL     OW40132   4.396   3.927  12.661
 9539SOL    HW140133   4.486   3.911  12.621
 9539SOL    HW240134   4.404   3.932  12.760
 9540SOL     OW40135   4.440   4.289  12.880
 9540SOL    HW140136   4.459   4.354  12.954
 9540SOL    HW240137   4.500   4.209  12.889
 9541SOL     OW40138   4.949   4.049  11.621
 9541SOL    HW140139   5.014   3.975  11.610
 9541SOL    HW240140   4.969   4.099  11.705
 9542SOL     OW40141   4.318   4.469  11.824
 9542SOL    HW140142   4.368   4.554  11.805
 9542SOL    HW240143   4.230   4.471  11.776
 9543SOL     OW40144   4.041   4.271  12.452
 9543SOL    HW140145   4.079   4.212  12.524
 9543SOL    HW240146   4.081   4.245  12.364
 9544SOL     OW40147   3.949   3.999  14.030
 9544SOL    HW140148   3.984   3.982  14.122
 9544SOL    HW240149   3.861   3.954  14.018
 9545SOL     OW40150   4.162   4.116  14.533
 9545SOL    HW140151   4.244   4.060  14.542
 9545SOL    HW240152   4.081   4.058  14.537
 9546SOL     OW40153   3.964   4.815  13.920
 9546SOL    HW140154   3.978   4.731  13.972
 9546SOL    HW240155   3.909   4.879  13.975
 9547SOL     OW40156   4.330   4.688  13.157
 9547SOL    HW140157   4.337   4.772  13.103
 9547SOL    HW240158   4.376   4.701  13.245
 9548SOL     OW40159   3.837   4.461  14.631
 9548SOL    HW140160   3.925   4.448  14.676
 9548SOL    HW240161   3.824   4.558  14.609
 9549SOL     OW40162   4.041   3.975  14.835
 9549SOL    HW140163   4.112   4.046  14.841
 9549SOL    HW240164   3.953   4.014  14.863
 9550SOL     OW40165   4.505   3.988  14.783
 9550SOL    HW140166   4.572   3.927  14.826
 9550SOL    HW240167   4.432   4.007  14.848
 9551SOL     OW40168   4.021   3.759  13.205
 9551SOL    HW140169   4.070   3.843  13.184
 9551SOL    HW240170   4.083   3.694  13.250
 9552SOL     OW40171   4.590   4.178  13.676
 9552SOL    HW140172   4.558   4.250  13.614
 9552SOL    HW240173   4.614   4.097  13.623
 9553SOL     OW40174   4.126   4.475  14.632
 9553SOL    HW140175   4.194   4.530  14.585
 9553SOL    HW240176   4.166   4.387  14.659
 9554SOL     OW40177   4.228   3.774  14.774
 9554SOL    HW140178   4.186   3.717  14.704
 9554SOL    HW240179   4.162   3.843  14.806
 9555SOL     OW40180   4.297   4.594  14.063
 9555SOL    HW140181   4.341   4.683  14.054
 9555SOL    HW240182   4.234   4.594  14.140
 9556SOL     OW40183   4.031   3.787  13.652
 9556SOL    HW140184   4.020   3.881  13.685
 9556SOL    HW240185   4.026   3.724  13.729
 9557SOL     OW40186   4.043   4.534  13.983
 9557SOL    HW140187   4.136   4.570  13.988
 9557SOL    HW240188   4.037   4.449  14.035
 9558SOL     OW40189   4.063   4.233  14.040
 9558SOL    HW140190   4.011   4.150  14.023
 9558SOL    HW240191   4.140   4.238  13.976
 9559SOL     OW40192   4.726   4.520  14.272
 9559SOL    HW140193   4.767   4.488  14.358
 9559SOL    HW240194   4.630   4.493  14.269
 9560SOL     OW40195   3.913   4.244  14.756
 9560SOL    HW140196   3.972   4.204  14.686
 9560SOL    HW240197   3.855   4.315  14.715
 9561SOL     OW40198   3.987   4.050  13.754
 9561SOL    HW140199   3.908   4.101  13.720
 9561SOL    HW240200   3.978   4.035  13.852
 9562SOL     OW40201   4.738   3.960  14.005
 9562SOL    HW140202   4.730   3.924  13.912
 9562SOL    HW240203   4.736   3.884  14.070
 9563SOL     OW40204   3.829   4.737  14.760
 9563SOL    HW140205   3.752   4.704  14.814
 9563SOL    HW240206   3.914   4.707  14.802
 9564SOL     OW40207   4.396   3.927  14.523
 9564SOL    HW140208   4.486   3.911  14.483
 9564SOL    HW240209   4.404   3.932  14.622
 9565SOL     OW40210   4.725   3.758  14.188
 9565SOL    HW140211   4.662   3.686  14.157
 9565SOL    HW240212   4.818   3.722  14.188
 9566SOL     OW40213   3.743   4.092  15.543
 9566SOL    HW140214   3.661   4.135  15.582
 9566SOL    HW240215   3.715   4.019  15.480
 9567SOL     OW40216   4.041   3.975  16.698
 9567SOL    HW140217   4.112   4.046  16.704
 9567SOL    HW240218   3.953   4.014  16.726
 9568SOL     OW40219   4.715   4.134  16.139
 9568SOL    HW140220   4.638   4.168  16.193
 9568SOL    HW240221   4.681   4.083  16.060
 9569SOL     OW40222   4.274   3.920  15.781
 9569SOL    HW140223   4.269   3.915  15.881
 9569SOL    HW240224   4.276   4.016  15.752
 9570SOL     OW40225   4.505   3.988  16.646
 9570SOL    HW140226   4.572   3.927  16.689
 9570SOL    HW240227   4.432   4.007  16.711
 9571SOL     OW40228   4.021   3.759  15.067
 9571SOL    HW140229   4.070   3.843  15.046
 9571SOL    HW240230   4.083   3.694  15.112
 9572SOL     OW40231   3.802   4.280  16.283
 9572SOL    HW140232   3.894   4.279  16.242
 9572SOL    HW240233   3.796   4.354  16.350
 9573SOL     OW40234   4.285   3.946  16.044
 9573SOL    HW140235   4.323   3.862  16.081
 9573SOL    HW240236   4.197   3.965  16.088
 9574SOL     OW40237   4.251   3.980  15.224
 9574SOL    HW140238   4.278   3.921  15.149
 9574SOL    HW240239   4.251   4.075  15.193
 9575SOL     OW40240   4.639   3.813  16.299
 9575SOL    HW140241   4.664   3.793  16.204
 9575SOL    HW240242   4.711   3.869  16.341
 9576SOL     OW40243   4.737   3.829  16.667
 9576SOL    HW140244   4.743   3.914  16.615
 9576SOL    HW240245   4.769   3.753  16.610
 9577SOL     OW40246   4.228   3.774  16.637
 9577SOL    HW140247   4.186   3.717  16.567
 9577SOL    HW240248   4.162   3.843  16.669
 9578SOL     OW40249   4.933   4.249  15.171
 9578SOL    HW140250   4.946   4.165  15.225
 9578SOL    HW240251   4.904   4.323  15.231
 9579SOL     OW40252   5.026   4.579  15.205
 9579SOL    HW140253   4.940   4.548  15.247
 9579SOL    HW240254   5.022   4.565  15.106
 9580SOL     OW40255   3.987   4.050  15.616
 9580SOL    HW140256   3.908   4.101  15.582
 9580SOL    HW240257   3.978   4.035  15.714
 9581SOL     OW40258   4.640   4.634  15.187
 9581SOL    HW140259   4.703   4.672  15.119
 9581SOL    HW240260   4.680   4.551  15.226
 9582SOL     OW40261   4.396   3.927  16.386
 9582SOL    HW140262   4.486   3.911  16.346
 9582SOL    HW240263   4.404   3.932  16.485
 9583SOL     OW40264   3.799   4.069  14.929
 9583SOL    HW140265   3.707   4.041  14.900
 9583SOL    HW240266   3.830   4.146  14.873
 9584SOL     OW40267   3.796   3.890  15.214
 9584SOL    HW140268   3.779   3.973  15.160
 9584SOL    HW240269   3.886   3.853  15.192
 9585SOL     OW40270   4.440   4.289  16.605
 9585SOL    HW140271   4.459   4.354  16.679
 9585SOL    HW240272   4.500   4.209  16.614
 9586SOL     OW40273   4.949   4.049  15.345
 9586SOL    HW140274   5.014   3.975  15.334
 9586SOL    HW240275   4.969   4.099  15.429
 9587SOL     OW40276   4.152   4.148  15.416
 9587SOL    HW140277   4.182   4.076  15.354
 9587SOL    HW240278   4.113   4.108  15.499
 9588SOL     OW40279   3.949   3.999  17.755
 9588SOL    HW140280   3.984   3.982  17.847
 9588SOL    HW240281   3.861   3.954  17.743
 9589SOL     OW40282   3.743   4.092  17.406
 9589SOL    HW140283   3.661   4.135  17.445
 9589SOL    HW240284   3.715   4.019  17.343
 9590SOL     OW40285   3.846   4.367  17.322
 9590SOL    HW140286   3.801   4.279  17.339
 9590SOL    HW240287   3.845   4.421  17.406
 9591SOL     OW40288   3.800   4.535  17.548
 9591SOL    HW140289   3.899   4.523  17.557
 9591SOL    HW240290   3.776   4.630  17.569
 9592SOL     OW40291   4.589   4.072  16.954
 9592SOL    HW140292   4.648   4.135  16.905
 9592SOL    HW240293   4.608   3.978  16.925
 9593SOL     OW40294   4.106   4.424  17.239
 9593SOL    HW140295   4.151   4.334  17.236
 9593SOL    HW240296   4.012   4.413  17.272
 9594SOL     OW40297   4.338   3.846  16.876
 9594SOL    HW140298   4.436   3.824  16.883
 9594SOL    HW240299   4.307   3.829  16.783
 9595SOL     OW40300   4.263   3.788  17.271
 9595SOL    HW140301   4.182   3.789  17.329
 9595SOL    HW240302   4.266   3.871  17.216
 9596SOL     OW40303   4.021   3.759  16.930
 9596SOL    HW140304   4.070   3.843  16.909
 9596SOL    HW240305   4.083   3.694  16.975
 9597SOL     OW40306   4.251   3.980  17.087
 9597SOL    HW140307   4.278   3.921  17.012
 9597SOL    HW240308   4.251   4.075  17.056
 9598SOL     OW40309   4.933   4.249  17.034
 9598SOL    HW140310   4.946   4.165  17.088
 9598SOL    HW240311   4.904   4.323  17.094
 9599SOL     OW40312   4.031   3.937  17.990
 9599SOL    HW140313   4.008   3.974  18.080
 9599SOL    HW240314   4.001   3.842  17.984
 9600SOL     OW40315   4.031   3.787  17.377
 9600SOL    HW140316   4.020   3.881  17.410
 9600SOL    HW240317   4.026   3.724  17.454
 9601SOL     OW40318   4.747   4.490  17.725
 9601SOL    HW140319   4.762   4.511  17.821
 9601SOL    HW240320   4.717   4.395  17.716
 9602SOL     OW40321   4.726   4.520  17.997
 9602SOL    HW140322   4.767   4.488  18.083
 9602SOL    HW240323   4.630   4.493  17.994
 9603SOL     OW40324   4.539   4.296  17.084
 9603SOL    HW140325   4.546   4.207  17.038
 9603SOL    HW240326   4.445   4.330  17.076
 9604SOL     OW40327   4.395   4.188  18.028
 9604SOL    HW140328   4.361   4.099  17.998
 9604SOL    HW240329   4.421   4.242  17.948
 9605SOL     OW40330   4.197   4.224  16.950
 9605SOL    HW140331   4.258   4.304  16.954
 9605SOL    HW240332   4.102   4.255  16.957
 9606SOL     OW40333   3.987   4.050  17.479
 9606SOL    HW140334   3.908   4.101  17.445
 9606SOL    HW240335   3.978   4.035  17.577
 9607SOL     OW40336   4.949   4.049  17.208
 9607SOL    HW140337   5.014   3.975  17.197
 9607SOL    HW240338   4.969   4.099  17.292
 9608SOL     OW40339   3.803   4.964  17.412
 9608SOL    HW140340   3.802   4.917  17.500
 9608SOL    HW240341   3.885   4.936  17.361
 9609SOL     OW40342   4.152   4.148  17.279
 9609SOL    HW140343   4.182   4.076  17.217
 9609SOL    HW240344   4.113   4.108  17.362
   4.80470   4.80470  18.00000
