[ defaults ]
;nbfunc	comb_rule	gen pair	fudgeLJ	fudgeQQ
1	2	yes	1.0	1.0

[ atomtypes ]
;name mass charge ptype sig eps
OWT3	8	15.9994	-0.834	A	0.315058	0.636386	 ; reference 
HWT3	1	1.008	0.417	A	0.0	0.0	 ; reference 
SOD	11	22.98977	0.0	A	0.242993	0.19623	 ; reference 
CB	6	12.011	0.0	A	0.355005	0.29288	 ; reference 
HCMM	1	1.0079	0.0	A	0.235197	0.092048	 ; reference 
NC=C	7	14.0067	0.0	A	0.329632	0.8368	 ; reference 
HNCO	1	1.0079	0.0	A	0.040001	0.192464	 ; reference 
OR	8	15.9994	0.0	A	0.315378	0.636386	 ; reference 
C=O	6	12.011	0.0	A	0.356359	0.46024	 ; reference 
O=C	8	15.9994	0.0	A	0.302905	0.50208	 ; reference 
CO2M	6	12.011	0.0	A	0.356359	0.29288	 ; reference 
O2CM	8	15.9994	0.0	A	0.302905	0.50208	 ; reference 
HOCO	1	1.0079	0.0	A	0.040001	0.192464	 ; reference 
NC=O	7	14.0067	0.0	A	0.329632	0.8368	 ; reference 

; [ atomtypes ]
 NG3P3     7    14.007000    0.000  A  0.329632525712  0.83680
 HGP2     1     1.008000    0.000  A  0.040001352445  0.19246
 [ bondtypes ]
 NG3P3     HGP2     1   0.10400000    337230.40

[ bondtypes ]
HWT3	OWT3	1	0.0957	376560.0	0.0957	376560.0	 ; reference 
CB	CB	1	0.1374	335613.7	0.1374	335613.7	 ; reference 
CB	HCMM	1	0.1084	319534.6	0.1084	319534.6	 ; reference 
CB	NC=C	1	0.1398	371445.5	0.1398	371445.5	 ; reference 
HNCO	NC=C	1	0.1018	396015.6	0.1018	396015.6	 ; reference 
C=O	OR	1	0.1355	349343.9	0.1355	349343.9	 ; reference 
C=O	O=C	1	0.1222	779866.6	0.1222	779866.6	 ; reference 
C=O	CB	1	0.1457	270273.8	0.1457	270273.8	 ; reference 
CB	CO2M	1	0.1468	273224.4	0.1468	273224.4	 ; reference 
CO2M	O2CM	1	0.1261	587519.8	0.1261	587519.8	 ; reference 
HOCO	OR	1	0.0981	445818.6	0.0981	445818.6	 ; reference 
CB	NC=O	1	0.1395	330133.5	0.1395	330133.5	 ; reference 
C=O	NC=O	1	0.1369	351030.1	0.1369	351030.1	 ; reference 
HNCO	NC=O	1	0.1015	401254.8	0.1015	401254.8	 ; reference 

[ angletypes ]
    HGP2    NG3P3     HGP2     1   109.500000   368.192000  

[ angletypes ]
HWT3	OWT3	HWT3	1	104.52	460.24	104.52	460.24	 ; reference 
CB	CB	CB	1	119.977	402.88	119.977	402.88	 ; reference 
CB	CB	HCMM	1	120.571	339.05	120.571	339.05	 ; reference 
CB	CB	NC=C	1	121.633	629.31	121.633	629.31	 ; reference 
CB	NC=C	HNCO	1	110.288	398.66	110.288	398.66	 ; reference 
HNCO	NC=C	HNCO	1	109.16	337.24	109.16	337.24	 ; reference 
C=O	OR	HOCO	1	111.948	351.09	111.948	351.09	 ; reference 
O=C	C=O	OR	1	124.425	695.55	124.425	695.55	 ; reference 
CB	C=O	OR	1	102.881	486.58	102.881	486.58	 ; reference 
CB	C=O	O=C	1	119.968	442.02	119.968	442.02	 ; reference 
C=O	CB	CB	1	114.475	480.57	114.475	480.57	 ; reference 
CB	CB	CO2M	1	119.572	537.17	119.572	537.17	 ; reference 
CB	CO2M	O2CM	1	118.871	684.11	118.871	684.11	 ; reference 
O2CM	CO2M	O2CM	1	130.6	711.2	130.6	711.2	 ; reference 
CB	CB	NC=O	1	117.918	617.27	117.918	617.27	 ; reference 
C=O	NC=O	CB	1	118.596	616.06	118.596	616.06	 ; reference 
CB	NC=O	HNCO	1	118.227	378.18	118.227	378.18	 ; reference 
C=O	NC=O	HNCO	1	120.277	346.27	120.277	346.27	 ; reference 
NC=O	C=O	O=C	1	127.152	546.2	127.152	546.2	 ; reference 
CB	C=O	NC=O	1	112.495	663.03	112.495	663.03	 ; reference 

[ dihedraltypes ]
CB	CB	CB	CB	9	180.0	14.644	2	180.0	14.644	2	 ; reference 
CB	CB	CB	HCMM	9	180.0	14.644	2	180.0	14.644	2	 ; reference 
CB	CB	NC=C	HNCO	9	0.0	1.4937	1	0.0	1.4937	1	 ; reference 
CB	CB	NC=C	HNCO	9	180.0	5.4978	2	180.0	5.4978	2	 ; reference 
CB	CB	NC=C	HNCO	9	0.0	7.0166	3	0.0	7.0166	3	 ; reference 
CB	CB	CB	NC=C	9	180.0	14.644	2	180.0	14.644	2	 ; reference 
HCMM	CB	CB	NC=C	9	180.0	14.644	2	180.0	14.644	2	 ; reference 
HCMM	CB	CB	HCMM	9	180.0	14.644	2	180.0	14.644	2	 ; reference 
CB	CB	C=O	OR	9	180.0	3.6484	2	180.0	3.6484	2	 ; reference 
C=O	CB	CB	CB	9	180.0	4.184	2	180.0	4.184	2	 ; reference 
C=O	CB	CB	HCMM	9	180.0	4.184	2	180.0	4.184	2	 ; reference 
HOCO	OR	C=O	O=C	9	0.0	3.4769	1	0.0	3.4769	1	 ; reference 
HOCO	OR	C=O	O=C	9	180.0	12.87	2	180.0	12.87	2	 ; reference 
HOCO	OR	C=O	O=C	9	0.0	-0.1213	3	0.0	-0.1213	3	 ; reference 
CB	CB	C=O	O=C	9	180.0	5.23	2	180.0	5.23	2	 ; reference 
CB	C=O	OR	HOCO	9	180.0	8.1421	2	180.0	8.1421	2	 ; reference 
CB	C=O	OR	HOCO	9	0.0	-0.1966	3	0.0	-0.1966	3	 ; reference 
CB	CB	CB	CO2M	9	180.0	14.644	2	180.0	14.644	2	 ; reference 
CB	CB	CO2M	O2CM	9	180.0	3.7656	2	180.0	3.7656	2	 ; reference 
CO2M	CB	CB	HCMM	9	180.0	14.644	2	180.0	14.644	2	 ; reference 
CB	CB	CB	NC=O	9	180.0	14.644	2	180.0	14.644	2	 ; reference 
C=O	NC=O	CB	CB	9	180.0	12.552	2	180.0	12.552	2	 ; reference 
CB	CB	NC=O	HNCO	9	180.0	12.552	2	180.0	12.552	2	 ; reference 
CB	NC=O	C=O	O=C	9	180.0	12.552	2	180.0	12.552	2	 ; reference 
CB	NC=O	C=O	CB	9	180.0	12.552	2	180.0	12.552	2	 ; reference 
HCMM	CB	CB	NC=O	9	180.0	14.644	2	180.0	14.644	2	 ; reference 
CB	CB	C=O	NC=O	9	180.0	5.23	2	180.0	5.23	2	 ; reference 
HNCO	NC=O	C=O	O=C	9	0.0	3.0041	1	0.0	3.0041	1	 ; reference 
HNCO	NC=O	C=O	O=C	9	180.0	10.4056	2	180.0	10.4056	2	 ; reference 
HNCO	NC=O	C=O	O=C	9	0.0	-0.9498	3	0.0	-0.9498	3	 ; reference 
CB	C=O	NC=O	HNCO	9	180.0	12.552	2	180.0	12.552	2	 ; reference 
CB	C=O	NC=O	CB	9	180.0	12.552	2	180.0	12.552	2	 ; reference 
CB	CB	CB	HCMM	2	0.0	9.0291	0.0	9.0291	 ; reference 
CB	CB	CB	NC=C	2	0.0	27.6981	0.0	27.6981	 ; reference 
CB	NC=C	CB	CB	2	0.0	27.6981	0.0	27.6981	 ; reference 
HNCO	CB	HNCO	NC=C	2	0.0	2.41	0.0	2.41	 ; reference 
C=O	CB	OR	O=C	2	0.0	76.4835	0.0	76.4835	 ; reference 
CB	CB	C=O	CB	2	0.0	16.259	0.0	16.259	 ; reference 
CB	CB	CB	CO2M	2	0.0	21.079	0.0	21.079	 ; reference 
C=O	CB	CB	CB	2	0.0	16.259	0.0	16.259	 ; reference 
C=O	OR	CB	O=C	2	0.0	76.4835	0.0	76.4835	 ; reference 
CO2M	O2CM	CB	O2CM	2	0.0	108.3991	0.0	108.3991	 ; reference 
CB	C=O	CB	CB	2	0.0	16.259	0.0	16.259	 ; reference 
CB	CB	NC=C	CB	2	0.0	27.6981	0.0	27.6981	 ; reference 
CB	NC=O	CB	CB	2	0.0	21.079	0.0	21.079	 ; reference 
HNCO	CB	C=O	NC=O	2	0.0	12.0416	0.0	12.0416	 ; reference 
C=O	CB	NC=O	O=C	2	0.0	78.291	0.0	78.291	 ; reference 
CB	CB	CB	NC=O	2	0.0	21.079	0.0	21.079	 ; reference 
C=O	NC=O	CB	O=C	2	0.0	78.291	0.0	78.291	 ; reference 
HNCO	C=O	CB	NC=O	2	0.0	12.0416	0.0	12.0416	 ; reference 
CB	CB	NC=O	CB	2	0.0	21.079	0.0	21.079	 ; reference 


[ moleculetype ]
; Name	nrexcl
MOL1	3

[ atoms ]
;nr	type	resnr	residue	atom	cgnr	charge	mass
1	OR	1	TCq1	O1	1	-0.65	15.9994
2	C=O	1	TCq1	C1	1	0.6338	12.011
3	O=C	1	TCq1	O2	1	-0.57	15.9994
4	CB	1	TCq1	C2	1	0.0862	12.011
5	CB	1	TCq1	C3	1	-0.15	12.011
6	CB	1	TCq1	C4	1	-0.179	12.011
7	CB	1	TCq1	C5	1	-0.15	12.011
8	CB	1	TCq1	C6	1	0.0862	12.011
9	CB	1	TCq1	C7	1	-0.15	12.011
10	C=O	1	TCq1	C8	1	0.5438	12.011
11	O=C	1	TCq1	O4	1	-0.57	15.9994
12	CO2M	1	TCq1	C9	1	0.979	12.011
13	O2CM	1	TCq1	O5	1	-0.9	15.9994
14	O2CM	1	TCq1	O6	1	-0.9	15.9994
15	HOCO	1	TCq1	H1	1	0.5	1.0079
16	HCMM	1	TCq1	H2	1	0.15	1.0079
17	HCMM	1	TCq1	H3	1	0.15	1.0079
18	HCMM	1	TCq1	H4	1	0.15	1.0079
19	CB	2	MPD2	C	1	-0.15	12.011
20	CB	2	MPD2	C1	1	0.117	12.011
21	CB	2	MPD2	C2	1	-0.15	12.011
22	CB	2	MPD2	C3	1	0.117	12.011
23	CB	2	MPD2	C4	1	-0.15	12.011
24	CB	2	MPD2	C5	1	-0.15	12.011
25	HCMM	2	MPD2	H	1	0.15	1.0079
26	HCMM	2	MPD2	H1	1	0.15	1.0079
27	HCMM	2	MPD2	H2	1	0.15	1.0079
28	HCMM	2	MPD2	H3	1	0.15	1.0079
29	NC=O	2	MPD2	N	1	-0.547	14.0067
30	HNCO	2	MPD2	H5	1	0.37	1.0079
31	NC=O	2	MPD2	N1	1	-0.547	14.0067
32	HNCO	2	MPD2	H7	1	0.37	1.0079
33	OR	3	TCq1	O1	1	-0.65	15.9994
34	C=O	3	TCq1	C1	1	0.6338	12.011
35	O=C	3	TCq1	O2	1	-0.57	15.9994
36	CB	3	TCq1	C2	1	0.0862	12.011
37	CB	3	TCq1	C3	1	-0.15	12.011
38	CB	3	TCq1	C4	1	-0.179	12.011
39	CB	3	TCq1	C5	1	-0.15	12.011
40	CB	3	TCq1	C6	1	0.0862	12.011
41	CB	3	TCq1	C7	1	-0.15	12.011
42	C=O	3	TCq1	C8	1	0.5438	12.011
43	O=C	3	TCq1	O4	1	-0.57	15.9994
44	CO2M	3	TCq1	C9	1	0.979	12.011
45	O2CM	3	TCq1	O5	1	-0.9	15.9994
46	O2CM	3	TCq1	O6	1	-0.9	15.9994
47	HOCO	3	TCq1	H1	1	0.5	1.0079
48	HCMM	3	TCq1	H2	1	0.15	1.0079
49	HCMM	3	TCq1	H3	1	0.15	1.0079
50	HCMM	3	TCq1	H4	1	0.15	1.0079
51	CB	4	MPD2	C	1	-0.15	12.011
52	CB	4	MPD2	C1	1	0.117	12.011
53	CB	4	MPD2	C2	1	-0.15	12.011
54	CB	4	MPD2	C3	1	0.117	12.011
55	CB	4	MPD2	C4	1	-0.15	12.011
56	CB	4	MPD2	C5	1	-0.15	12.011
57	HCMM	4	MPD2	H	1	0.15	1.0079
58	HCMM	4	MPD2	H1	1	0.15	1.0079
59	HCMM	4	MPD2	H2	1	0.15	1.0079
60	HCMM	4	MPD2	H3	1	0.15	1.0079
61	NC=O	4	MPD2	N	1	-0.547	14.0067
62	HNCO	4	MPD2	H5	1	0.37	1.0079
63	NC=O	4	MPD2	N1	1	-0.547	14.0067
64	HNCO	4	MPD2	H7	1	0.37	1.0079
65	OR	5	TCq1	O1	1	-0.65	15.9994
66	C=O	5	TCq1	C1	1	0.6338	12.011
67	O=C	5	TCq1	O2	1	-0.57	15.9994
68	CB	5	TCq1	C2	1	0.0862	12.011
69	CB	5	TCq1	C3	1	-0.15	12.011
70	CB	5	TCq1	C4	1	-0.179	12.011
71	CB	5	TCq1	C5	1	-0.15	12.011
72	CB	5	TCq1	C6	1	0.0862	12.011
73	CB	5	TCq1	C7	1	-0.15	12.011
74	C=O	5	TCq1	C8	1	0.5438	12.011
75	O=C	5	TCq1	O4	1	-0.57	15.9994
76	CO2M	5	TCq1	C9	1	0.979	12.011
77	O2CM	5	TCq1	O5	1	-0.9	15.9994
78	O2CM	5	TCq1	O6	1	-0.9	15.9994
79	HOCO	5	TCq1	H1	1	0.5	1.0079
80	HCMM	5	TCq1	H2	1	0.15	1.0079
81	HCMM	5	TCq1	H3	1	0.15	1.0079
82	HCMM	5	TCq1	H4	1	0.15	1.0079
83	CB	6	MPD2	C	1	-0.15	12.011
84	CB	6	MPD2	C1	1	0.117	12.011
85	CB	6	MPD2	C2	1	-0.15	12.011
86	CB	6	MPD2	C3	1	0.117	12.011
87	CB	6	MPD2	C4	1	-0.15	12.011
88	CB	6	MPD2	C5	1	-0.15	12.011
89	HCMM	6	MPD2	H	1	0.15	1.0079
90	HCMM	6	MPD2	H1	1	0.15	1.0079
91	HCMM	6	MPD2	H2	1	0.15	1.0079
92	HCMM	6	MPD2	H3	1	0.15	1.0079
93	NC=O	6	MPD2	N	1	-0.547	14.0067
94	HNCO	6	MPD2	H5	1	0.37	1.0079
95	NC=O	6	MPD2	N1	1	-0.547	14.0067
96	HNCO	6	MPD2	H7	1	0.37	1.0079
97	OR	7	TCq1	O1	1	-0.65	15.9994
98	C=O	7	TCq1	C1	1	0.6338	12.011
99	O=C	7	TCq1	O2	1	-0.57	15.9994
100	CB	7	TCq1	C2	1	0.0862	12.011
101	CB	7	TCq1	C3	1	-0.15	12.011
102	CB	7	TCq1	C4	1	-0.179	12.011
103	CB	7	TCq1	C5	1	-0.15	12.011
104	CB	7	TCq1	C6	1	0.0862	12.011
105	CB	7	TCq1	C7	1	-0.15	12.011
106	C=O	7	TCq1	C8	1	0.5438	12.011
107	O=C	7	TCq1	O4	1	-0.57	15.9994
108	CO2M	7	TCq1	C9	1	0.979	12.011
109	O2CM	7	TCq1	O5	1	-0.9	15.9994
110	O2CM	7	TCq1	O6	1	-0.9	15.9994
111	HOCO	7	TCq1	H1	1	0.5	1.0079
112	HCMM	7	TCq1	H2	1	0.15	1.0079
113	HCMM	7	TCq1	H3	1	0.15	1.0079
114	HCMM	7	TCq1	H4	1	0.15	1.0079
115	CB	8	MPD2	C	1	-0.15	12.011
116	CB	8	MPD2	C1	1	0.117	12.011
117	CB	8	MPD2	C2	1	-0.15	12.011
118	CB	8	MPD2	C3	1	0.117	12.011
119	CB	8	MPD2	C4	1	-0.15	12.011
120	CB	8	MPD2	C5	1	-0.15	12.011
121	HCMM	8	MPD2	H	1	0.15	1.0079
122	HCMM	8	MPD2	H1	1	0.15	1.0079
123	HCMM	8	MPD2	H2	1	0.15	1.0079
124	HCMM	8	MPD2	H3	1	0.15	1.0079
125	NC=O	8	MPD2	N	1	-0.547	14.0067
126	HNCO	8	MPD2	H5	1	0.37	1.0079
127	NC=O	8	MPD2	N1	1	-0.547	14.0067
128	HNCO	8	MPD2	H7	1	0.37	1.0079
129	OR	9	TCq1	O1	1	-0.65	15.9994
130	C=O	9	TCq1	C1	1	0.6338	12.011
131	O=C	9	TCq1	O2	1	-0.57	15.9994
132	CB	9	TCq1	C2	1	0.0862	12.011
133	CB	9	TCq1	C3	1	-0.15	12.011
134	CB	9	TCq1	C4	1	-0.179	12.011
135	CB	9	TCq1	C5	1	-0.15	12.011
136	CB	9	TCq1	C6	1	0.0862	12.011
137	CB	9	TCq1	C7	1	-0.15	12.011
138	C=O	9	TCq1	C8	1	0.5438	12.011
139	O=C	9	TCq1	O4	1	-0.57	15.9994
140	CO2M	9	TCq1	C9	1	0.979	12.011
141	O2CM	9	TCq1	O5	1	-0.9	15.9994
142	O2CM	9	TCq1	O6	1	-0.9	15.9994
143	HOCO	9	TCq1	H1	1	0.5	1.0079
144	HCMM	9	TCq1	H2	1	0.15	1.0079
145	HCMM	9	TCq1	H3	1	0.15	1.0079
146	HCMM	9	TCq1	H4	1	0.15	1.0079
147	CB	10	MPD2	C	1	-0.15	12.011
148	CB	10	MPD2	C1	1	0.117	12.011
149	CB	10	MPD2	C2	1	-0.15	12.011
150	CB	10	MPD2	C3	1	0.117	12.011
151	CB	10	MPD2	C4	1	-0.15	12.011
152	CB	10	MPD2	C5	1	-0.15	12.011
153	HCMM	10	MPD2	H	1	0.15	1.0079
154	HCMM	10	MPD2	H1	1	0.15	1.0079
155	HCMM	10	MPD2	H2	1	0.15	1.0079
156	HCMM	10	MPD2	H3	1	0.15	1.0079
157	NC=O	10	MPD2	N	1	-0.547	14.0067
158	HNCO	10	MPD2	H5	1	0.37	1.0079
159	NC=O	10	MPD2	N1	1	-0.547	14.0067
160	HNCO	10	MPD2	H7	1	0.37	1.0079
161	OR	11	TCq1	O1	1	-0.65	15.9994
162	C=O	11	TCq1	C1	1	0.6338	12.011
163	O=C	11	TCq1	O2	1	-0.57	15.9994
164	CB	11	TCq1	C2	1	0.0862	12.011
165	CB	11	TCq1	C3	1	-0.15	12.011
166	CB	11	TCq1	C4	1	-0.179	12.011
167	CB	11	TCq1	C5	1	-0.15	12.011
168	CB	11	TCq1	C6	1	0.0862	12.011
169	CB	11	TCq1	C7	1	-0.15	12.011
170	C=O	11	TCq1	C8	1	0.5438	12.011
171	O=C	11	TCq1	O4	1	-0.57	15.9994
172	CO2M	11	TCq1	C9	1	0.979	12.011
173	O2CM	11	TCq1	O5	1	-0.9	15.9994
174	O2CM	11	TCq1	O6	1	-0.9	15.9994
175	HOCO	11	TCq1	H1	1	0.5	1.0079
176	HCMM	11	TCq1	H2	1	0.15	1.0079
177	HCMM	11	TCq1	H3	1	0.15	1.0079
178	HCMM	11	TCq1	H4	1	0.15	1.0079
179	CB	12	MPD2	C	1	-0.15	12.011
180	CB	12	MPD2	C1	1	0.117	12.011
181	CB	12	MPD2	C2	1	-0.15	12.011
182	CB	12	MPD2	C3	1	0.117	12.011
183	CB	12	MPD2	C4	1	-0.15	12.011
184	CB	12	MPD2	C5	1	-0.15	12.011
185	HCMM	12	MPD2	H	1	0.15	1.0079
186	HCMM	12	MPD2	H1	1	0.15	1.0079
187	HCMM	12	MPD2	H2	1	0.15	1.0079
188	HCMM	12	MPD2	H3	1	0.15	1.0079
189	NC=O	12	MPD2	N	1	-0.547	14.0067
190	HNCO	12	MPD2	H5	1	0.37	1.0079
191	NC=O	12	MPD2	N1	1	-0.547	14.0067
192	HNCO	12	MPD2	H7	1	0.37	1.0079
193	OR	13	TCq1	O1	1	-0.65	15.9994
194	C=O	13	TCq1	C1	1	0.6338	12.011
195	O=C	13	TCq1	O2	1	-0.57	15.9994
196	CB	13	TCq1	C2	1	0.0862	12.011
197	CB	13	TCq1	C3	1	-0.15	12.011
198	CB	13	TCq1	C4	1	-0.179	12.011
199	CB	13	TCq1	C5	1	-0.15	12.011
200	CB	13	TCq1	C6	1	0.0862	12.011
201	CB	13	TCq1	C7	1	-0.15	12.011
202	C=O	13	TCq1	C8	1	0.5438	12.011
203	O=C	13	TCq1	O4	1	-0.57	15.9994
204	CO2M	13	TCq1	C9	1	0.979	12.011
205	O2CM	13	TCq1	O5	1	-0.9	15.9994
206	O2CM	13	TCq1	O6	1	-0.9	15.9994
207	HOCO	13	TCq1	H1	1	0.5	1.0079
208	HCMM	13	TCq1	H2	1	0.15	1.0079
209	HCMM	13	TCq1	H3	1	0.15	1.0079
210	HCMM	13	TCq1	H4	1	0.15	1.0079
211	CB	14	MPD2	C	1	-0.15	12.011
212	CB	14	MPD2	C1	1	0.117	12.011
213	CB	14	MPD2	C2	1	-0.15	12.011
214	CB	14	MPD2	C3	1	0.117	12.011
215	CB	14	MPD2	C4	1	-0.15	12.011
216	CB	14	MPD2	C5	1	-0.15	12.011
217	HCMM	14	MPD2	H	1	0.15	1.0079
218	HCMM	14	MPD2	H1	1	0.15	1.0079
219	HCMM	14	MPD2	H2	1	0.15	1.0079
220	HCMM	14	MPD2	H3	1	0.15	1.0079
221	NC=O	14	MPD2	N	1	-0.547	14.0067
222	HNCO	14	MPD2	H5	1	0.37	1.0079
223	NC=O	14	MPD2	N1	1	-0.547	14.0067
224	HNCO	14	MPD2	H7	1	0.37	1.0079
225	OR	15	TCq1	O1	1	-0.65	15.9994
226	C=O	15	TCq1	C1	1	0.6338	12.011
227	O=C	15	TCq1	O2	1	-0.57	15.9994
228	CB	15	TCq1	C2	1	0.0862	12.011
229	CB	15	TCq1	C3	1	-0.15	12.011
230	CB	15	TCq1	C4	1	-0.179	12.011
231	CB	15	TCq1	C5	1	-0.15	12.011
232	CB	15	TCq1	C6	1	0.0862	12.011
233	CB	15	TCq1	C7	1	-0.15	12.011
234	C=O	15	TCq1	C8	1	0.5438	12.011
235	O=C	15	TCq1	O4	1	-0.57	15.9994
236	CO2M	15	TCq1	C9	1	0.979	12.011
237	O2CM	15	TCq1	O5	1	-0.9	15.9994
238	O2CM	15	TCq1	O6	1	-0.9	15.9994
239	HOCO	15	TCq1	H1	1	0.5	1.0079
240	HCMM	15	TCq1	H2	1	0.15	1.0079
241	HCMM	15	TCq1	H3	1	0.15	1.0079
242	HCMM	15	TCq1	H4	1	0.15	1.0079
243	CB	16	MPD2	C	1	-0.15	12.011
244	CB	16	MPD2	C1	1	0.117	12.011
245	CB	16	MPD2	C2	1	-0.15	12.011
246	CB	16	MPD2	C3	1	0.117	12.011
247	CB	16	MPD2	C4	1	-0.15	12.011
248	CB	16	MPD2	C5	1	-0.15	12.011
249	HCMM	16	MPD2	H	1	0.15	1.0079
250	HCMM	16	MPD2	H1	1	0.15	1.0079
251	HCMM	16	MPD2	H2	1	0.15	1.0079
252	HCMM	16	MPD2	H3	1	0.15	1.0079
253	NC=O	16	MPD2	N	1	-0.547	14.0067
254	HNCO	16	MPD2	H5	1	0.37	1.0079
255	NC=O	16	MPD2	N1	1	-0.547	14.0067
256	HNCO	16	MPD2	H7	1	0.37	1.0079
257	OR	17	TCq1	O1	1	-0.65	15.9994
258	C=O	17	TCq1	C1	1	0.6338	12.011
259	O=C	17	TCq1	O2	1	-0.57	15.9994
260	CB	17	TCq1	C2	1	0.0862	12.011
261	CB	17	TCq1	C3	1	-0.15	12.011
262	CB	17	TCq1	C4	1	-0.179	12.011
263	CB	17	TCq1	C5	1	-0.15	12.011
264	CB	17	TCq1	C6	1	0.0862	12.011
265	CB	17	TCq1	C7	1	-0.15	12.011
266	C=O	17	TCq1	C8	1	0.5438	12.011
267	O=C	17	TCq1	O4	1	-0.57	15.9994
268	CO2M	17	TCq1	C9	1	0.979	12.011
269	O2CM	17	TCq1	O5	1	-0.9	15.9994
270	O2CM	17	TCq1	O6	1	-0.9	15.9994
271	HOCO	17	TCq1	H1	1	0.5	1.0079
272	HCMM	17	TCq1	H2	1	0.15	1.0079
273	HCMM	17	TCq1	H3	1	0.15	1.0079
274	HCMM	17	TCq1	H4	1	0.15	1.0079
275	CB	18	MPD2	C	1	-0.15	12.011
276	CB	18	MPD2	C1	1	0.117	12.011
277	CB	18	MPD2	C2	1	-0.15	12.011
278	CB	18	MPD2	C3	1	0.117	12.011
279	CB	18	MPD2	C4	1	-0.15	12.011
280	CB	18	MPD2	C5	1	-0.15	12.011
281	HCMM	18	MPD2	H	1	0.15	1.0079
282	HCMM	18	MPD2	H1	1	0.15	1.0079
283	HCMM	18	MPD2	H2	1	0.15	1.0079
284	HCMM	18	MPD2	H3	1	0.15	1.0079
285	NC=O	18	MPD2	N	1	-0.547	14.0067
286	HNCO	18	MPD2	H5	1	0.37	1.0079
287	NC=O	18	MPD2	N1	1	-0.547	14.0067
288	HNCO	18	MPD2	H7	1	0.37	1.0079
289	CB	19	TMC2	C1	1	0.0862	12.011
290	CB	19	TMC2	C2	1	-0.15	12.011
291	CB	19	TMC2	C3	1	0.0862	12.011
292	CB	19	TMC2	C4	1	-0.15	12.011
293	CB	19	TMC2	C5	1	0.0862	12.011
294	CB	19	TMC2	C6	1	-0.15	12.011
295	C=O	19	TMC2	C	1	0.5438	12.011
296	O=C	19	TMC2	O	1	-0.57	15.9994
297	HCMM	19	TMC2	H	1	0.15	1.0079
298	HCMM	19	TMC2	H1	1	0.15	1.0079
299	HCMM	19	TMC2	H2	1	0.15	1.0079
300	C=O	19	TMC2	C7	1	0.5438	12.011
301	C=O	19	TMC2	C8	1	0.6338	12.011
302	O=C	19	TMC2	O1	1	-0.57	15.9994
303	O=C	19	TMC2	O2	1	-0.57	15.9994
304	OR	19	TMC2	O5	1	-0.65	15.9994
305	HOCO	19	TMC2	H5	1	0.5	1.0079
306	CB	20	MPD2	C	1	-0.15	12.011
307	CB	20	MPD2	C1	1	0.117	12.011
308	CB	20	MPD2	C2	1	-0.15	12.011
309	CB	20	MPD2	C3	1	0.117	12.011
310	CB	20	MPD2	C4	1	-0.15	12.011
311	CB	20	MPD2	C5	1	-0.15	12.011
312	HCMM	20	MPD2	H	1	0.15	1.0079
313	HCMM	20	MPD2	H1	1	0.15	1.0079
314	HCMM	20	MPD2	H2	1	0.15	1.0079
315	HCMM	20	MPD2	H3	1	0.15	1.0079
316	NC=O	20	MPD2	N	1	-0.547	14.0067
317	HNCO	20	MPD2	H5	1	0.37	1.0079
318	NC=O	20	MPD2	N1	1	-0.547	14.0067
319	HNCO	20	MPD2	H7	1	0.37	1.0079
320	CB	21	MPD2	C	1	-0.15	12.011
321	CB	21	MPD2	C1	1	0.117	12.011
322	CB	21	MPD2	C2	1	-0.15	12.011
323	CB	21	MPD2	C3	1	0.117	12.011
324	CB	21	MPD2	C4	1	-0.15	12.011
325	CB	21	MPD2	C5	1	-0.15	12.011
326	HCMM	21	MPD2	H	1	0.15	1.0079
327	HCMM	21	MPD2	H1	1	0.15	1.0079
328	HCMM	21	MPD2	H2	1	0.15	1.0079
329	HCMM	21	MPD2	H3	1	0.15	1.0079
330	NC=O	21	MPD2	N	1	-0.547	14.0067
331	HNCO	21	MPD2	H5	1	0.37	1.0079
332	NC=O	21	MPD2	N1	1	-0.547	14.0067
333	HNCO	21	MPD2	H7	1	0.37	1.0079
334	C=O	22	TCq2	C1	1	0.5438	12.011
335	O=C	22	TCq2	O2	1	-0.57	15.9994
336	CB	22	TCq2	C2	1	0.0862	12.011
337	CB	22	TCq2	C3	1	-0.15	12.011
338	CB	22	TCq2	C4	1	-0.179	12.011
339	CB	22	TCq2	C5	1	-0.15	12.011
340	CB	22	TCq2	C6	1	0.0862	12.011
341	CB	22	TCq2	C7	1	-0.15	12.011
342	C=O	22	TCq2	C8	1	0.5438	12.011
343	O=C	22	TCq2	O4	1	-0.57	15.9994
344	CO2M	22	TCq2	C9	1	0.979	12.011
345	O2CM	22	TCq2	O5	1	-0.9	15.9994
346	O2CM	22	TCq2	O6	1	-0.9	15.9994
347	HCMM	22	TCq2	H2	1	0.15	1.0079
348	HCMM	22	TCq2	H3	1	0.15	1.0079
349	HCMM	22	TCq2	H4	1	0.15	1.0079
350	CB	23	MPD2	C	1	-0.15	12.011
351	CB	23	MPD2	C1	1	0.117	12.011
352	CB	23	MPD2	C2	1	-0.15	12.011
353	CB	23	MPD2	C3	1	0.117	12.011
354	CB	23	MPD2	C4	1	-0.15	12.011
355	CB	23	MPD2	C5	1	-0.15	12.011
356	HCMM	23	MPD2	H	1	0.15	1.0079
357	HCMM	23	MPD2	H1	1	0.15	1.0079
358	HCMM	23	MPD2	H2	1	0.15	1.0079
359	HCMM	23	MPD2	H3	1	0.15	1.0079
360	NC=O	23	MPD2	N	1	-0.547	14.0067
361	HNCO	23	MPD2	H5	1	0.37	1.0079
362	NC=O	23	MPD2	N1	1	-0.547	14.0067
363	HNCO	23	MPD2	H7	1	0.37	1.0079
364	C=O	24	TCq2	C1	1	0.5438	12.011
365	O=C	24	TCq2	O2	1	-0.57	15.9994
366	CB	24	TCq2	C2	1	0.0862	12.011
367	CB	24	TCq2	C3	1	-0.15	12.011
368	CB	24	TCq2	C4	1	-0.179	12.011
369	CB	24	TCq2	C5	1	-0.15	12.011
370	CB	24	TCq2	C6	1	0.0862	12.011
371	CB	24	TCq2	C7	1	-0.15	12.011
372	C=O	24	TCq2	C8	1	0.5438	12.011
373	O=C	24	TCq2	O4	1	-0.57	15.9994
374	CO2M	24	TCq2	C9	1	0.979	12.011
375	O2CM	24	TCq2	O5	1	-0.9	15.9994
376	O2CM	24	TCq2	O6	1	-0.9	15.9994
377	HCMM	24	TCq2	H2	1	0.15	1.0079
378	HCMM	24	TCq2	H3	1	0.15	1.0079
379	HCMM	24	TCq2	H4	1	0.15	1.0079
380	CB	25	TMC2	C1	1	0.0862	12.011
381	CB	25	TMC2	C2	1	-0.15	12.011
382	CB	25	TMC2	C3	1	0.0862	12.011
383	CB	25	TMC2	C4	1	-0.15	12.011
384	CB	25	TMC2	C5	1	0.0862	12.011
385	CB	25	TMC2	C6	1	-0.15	12.011
386	C=O	25	TMC2	C	1	0.5438	12.011
387	O=C	25	TMC2	O	1	-0.57	15.9994
388	HCMM	25	TMC2	H	1	0.15	1.0079
389	HCMM	25	TMC2	H1	1	0.15	1.0079
390	HCMM	25	TMC2	H2	1	0.15	1.0079
391	C=O	25	TMC2	C7	1	0.5438	12.011
392	C=O	25	TMC2	C8	1	0.6338	12.011
393	O=C	25	TMC2	O1	1	-0.57	15.9994
394	O=C	25	TMC2	O2	1	-0.57	15.9994
395	OR	25	TMC2	O5	1	-0.65	15.9994
396	HOCO	25	TMC2	H5	1	0.5	1.0079
397	CB	26	MPD2	C	1	-0.15	12.011
398	CB	26	MPD2	C1	1	0.117	12.011
399	CB	26	MPD2	C2	1	-0.15	12.011
400	CB	26	MPD2	C3	1	0.117	12.011
401	CB	26	MPD2	C4	1	-0.15	12.011
402	CB	26	MPD2	C5	1	-0.15	12.011
403	HCMM	26	MPD2	H	1	0.15	1.0079
404	HCMM	26	MPD2	H1	1	0.15	1.0079
405	HCMM	26	MPD2	H2	1	0.15	1.0079
406	HCMM	26	MPD2	H3	1	0.15	1.0079
407	NC=O	26	MPD2	N	1	-0.547	14.0067
408	HNCO	26	MPD2	H5	1	0.37	1.0079
409	NC=O	26	MPD2	N1	1	-0.547	14.0067
410	HNCO	26	MPD2	H7	1	0.37	1.0079
411	CB	27	TMC2	C1	1	0.0862	12.011
412	CB	27	TMC2	C2	1	-0.15	12.011
413	CB	27	TMC2	C3	1	0.0862	12.011
414	CB	27	TMC2	C4	1	-0.15	12.011
415	CB	27	TMC2	C5	1	0.0862	12.011
416	CB	27	TMC2	C6	1	-0.15	12.011
417	C=O	27	TMC2	C	1	0.5438	12.011
418	O=C	27	TMC2	O	1	-0.57	15.9994
419	HCMM	27	TMC2	H	1	0.15	1.0079
420	HCMM	27	TMC2	H1	1	0.15	1.0079
421	HCMM	27	TMC2	H2	1	0.15	1.0079
422	C=O	27	TMC2	C7	1	0.5438	12.011
423	C=O	27	TMC2	C8	1	0.6338	12.011
424	O=C	27	TMC2	O1	1	-0.57	15.9994
425	O=C	27	TMC2	O2	1	-0.57	15.9994
426	OR	27	TMC2	O5	1	-0.65	15.9994
427	HOCO	27	TMC2	H5	1	0.5	1.0079
428	CB	28	MPD2	C	1	-0.15	12.011
429	CB	28	MPD2	C1	1	0.117	12.011
430	CB	28	MPD2	C2	1	-0.15	12.011
431	CB	28	MPD2	C3	1	0.117	12.011
432	CB	28	MPD2	C4	1	-0.15	12.011
433	CB	28	MPD2	C5	1	-0.15	12.011
434	HCMM	28	MPD2	H	1	0.15	1.0079
435	HCMM	28	MPD2	H1	1	0.15	1.0079
436	HCMM	28	MPD2	H2	1	0.15	1.0079
437	HCMM	28	MPD2	H3	1	0.15	1.0079
438	NC=O	28	MPD2	N	1	-0.547	14.0067
439	HNCO	28	MPD2	H5	1	0.37	1.0079
440	NC=O	28	MPD2	N1	1	-0.547	14.0067
441	HNCO	28	MPD2	H7	1	0.37	1.0079
442	CB	29	MPD2	C	1	-0.15	12.011
443	CB	29	MPD2	C1	1	0.117	12.011
444	CB	29	MPD2	C2	1	-0.15	12.011
445	CB	29	MPD2	C3	1	0.117	12.011
446	CB	29	MPD2	C4	1	-0.15	12.011
447	CB	29	MPD2	C5	1	-0.15	12.011
448	HCMM	29	MPD2	H	1	0.15	1.0079
449	HCMM	29	MPD2	H1	1	0.15	1.0079
450	HCMM	29	MPD2	H2	1	0.15	1.0079
451	HCMM	29	MPD2	H3	1	0.15	1.0079
452	NC=O	29	MPD2	N	1	-0.547	14.0067
453	HNCO	29	MPD2	H5	1	0.37	1.0079
454	NC=O	29	MPD2	N1	1	-0.547	14.0067
455	HNCO	29	MPD2	H7	1	0.37	1.0079
456	C=O	30	TCq2	C1	1	0.5438	12.011
457	O=C	30	TCq2	O2	1	-0.57	15.9994
458	CB	30	TCq2	C2	1	0.0862	12.011
459	CB	30	TCq2	C3	1	-0.15	12.011
460	CB	30	TCq2	C4	1	-0.179	12.011
461	CB	30	TCq2	C5	1	-0.15	12.011
462	CB	30	TCq2	C6	1	0.0862	12.011
463	CB	30	TCq2	C7	1	-0.15	12.011
464	C=O	30	TCq2	C8	1	0.5438	12.011
465	O=C	30	TCq2	O4	1	-0.57	15.9994
466	CO2M	30	TCq2	C9	1	0.979	12.011
467	O2CM	30	TCq2	O5	1	-0.9	15.9994
468	O2CM	30	TCq2	O6	1	-0.9	15.9994
469	HCMM	30	TCq2	H2	1	0.15	1.0079
470	HCMM	30	TCq2	H3	1	0.15	1.0079
471	HCMM	30	TCq2	H4	1	0.15	1.0079
472	CB	31	MPD2	C	1	-0.15	12.011
473	CB	31	MPD2	C1	1	0.117	12.011
474	CB	31	MPD2	C2	1	-0.15	12.011
475	CB	31	MPD2	C3	1	0.117	12.011
476	CB	31	MPD2	C4	1	-0.15	12.011
477	CB	31	MPD2	C5	1	-0.15	12.011
478	HCMM	31	MPD2	H	1	0.15	1.0079
479	HCMM	31	MPD2	H1	1	0.15	1.0079
480	HCMM	31	MPD2	H2	1	0.15	1.0079
481	HCMM	31	MPD2	H3	1	0.15	1.0079
482	NC=O	31	MPD2	N	1	-0.547	14.0067
483	HNCO	31	MPD2	H5	1	0.37	1.0079
484	NC=O	31	MPD2	N1	1	-0.547	14.0067
485	HNCO	31	MPD2	H7	1	0.37	1.0079
486	C=O	32	TCq2	C1	1	0.5438	12.011
487	O=C	32	TCq2	O2	1	-0.57	15.9994
488	CB	32	TCq2	C2	1	0.0862	12.011
489	CB	32	TCq2	C3	1	-0.15	12.011
490	CB	32	TCq2	C4	1	-0.179	12.011
491	CB	32	TCq2	C5	1	-0.15	12.011
492	CB	32	TCq2	C6	1	0.0862	12.011
493	CB	32	TCq2	C7	1	-0.15	12.011
494	C=O	32	TCq2	C8	1	0.5438	12.011
495	O=C	32	TCq2	O4	1	-0.57	15.9994
496	CO2M	32	TCq2	C9	1	0.979	12.011
497	O2CM	32	TCq2	O5	1	-0.9	15.9994
498	O2CM	32	TCq2	O6	1	-0.9	15.9994
499	HCMM	32	TCq2	H2	1	0.15	1.0079
500	HCMM	32	TCq2	H3	1	0.15	1.0079
501	HCMM	32	TCq2	H4	1	0.15	1.0079
502	CB	33	MPD2	C	1	-0.15	12.011
503	CB	33	MPD2	C1	1	0.117	12.011
504	CB	33	MPD2	C2	1	-0.15	12.011
505	CB	33	MPD2	C3	1	0.117	12.011
506	CB	33	MPD2	C4	1	-0.15	12.011
507	CB	33	MPD2	C5	1	-0.15	12.011
508	HCMM	33	MPD2	H	1	0.15	1.0079
509	HCMM	33	MPD2	H1	1	0.15	1.0079
510	HCMM	33	MPD2	H2	1	0.15	1.0079
511	HCMM	33	MPD2	H3	1	0.15	1.0079
512	NC=O	33	MPD2	N	1	-0.547	14.0067
513	HNCO	33	MPD2	H5	1	0.37	1.0079
514	NC=O	33	MPD2	N1	1	-0.547	14.0067
515	HNCO	33	MPD2	H7	1	0.37	1.0079
516	C=O	34	TCq2	C1	1	0.5438	12.011
517	O=C	34	TCq2	O2	1	-0.57	15.9994
518	CB	34	TCq2	C2	1	0.0862	12.011
519	CB	34	TCq2	C3	1	-0.15	12.011
520	CB	34	TCq2	C4	1	-0.179	12.011
521	CB	34	TCq2	C5	1	-0.15	12.011
522	CB	34	TCq2	C6	1	0.0862	12.011
523	CB	34	TCq2	C7	1	-0.15	12.011
524	C=O	34	TCq2	C8	1	0.5438	12.011
525	O=C	34	TCq2	O4	1	-0.57	15.9994
526	CO2M	34	TCq2	C9	1	0.979	12.011
527	O2CM	34	TCq2	O5	1	-0.9	15.9994
528	O2CM	34	TCq2	O6	1	-0.9	15.9994
529	HCMM	34	TCq2	H2	1	0.15	1.0079
530	HCMM	34	TCq2	H3	1	0.15	1.0079
531	HCMM	34	TCq2	H4	1	0.15	1.0079
532	CB	35	MPD2	C	1	-0.15	12.011
533	CB	35	MPD2	C1	1	0.117	12.011
534	CB	35	MPD2	C2	1	-0.15	12.011
535	CB	35	MPD2	C3	1	0.117	12.011
536	CB	35	MPD2	C4	1	-0.15	12.011
537	CB	35	MPD2	C5	1	-0.15	12.011
538	HCMM	35	MPD2	H	1	0.15	1.0079
539	HCMM	35	MPD2	H1	1	0.15	1.0079
540	HCMM	35	MPD2	H2	1	0.15	1.0079
541	HCMM	35	MPD2	H3	1	0.15	1.0079
542	NC=O	35	MPD2	N	1	-0.547	14.0067
543	HNCO	35	MPD2	H5	1	0.37	1.0079
544	NC=O	35	MPD2	N1	1	-0.547	14.0067
545	HNCO	35	MPD2	H7	1	0.37	1.0079
546	C=O	36	TCq2	C1	1	0.5438	12.011
547	O=C	36	TCq2	O2	1	-0.57	15.9994
548	CB	36	TCq2	C2	1	0.0862	12.011
549	CB	36	TCq2	C3	1	-0.15	12.011
550	CB	36	TCq2	C4	1	-0.179	12.011
551	CB	36	TCq2	C5	1	-0.15	12.011
552	CB	36	TCq2	C6	1	0.0862	12.011
553	CB	36	TCq2	C7	1	-0.15	12.011
554	C=O	36	TCq2	C8	1	0.5438	12.011
555	O=C	36	TCq2	O4	1	-0.57	15.9994
556	CO2M	36	TCq2	C9	1	0.979	12.011
557	O2CM	36	TCq2	O5	1	-0.9	15.9994
558	O2CM	36	TCq2	O6	1	-0.9	15.9994
559	HCMM	36	TCq2	H2	1	0.15	1.0079
560	HCMM	36	TCq2	H3	1	0.15	1.0079
561	HCMM	36	TCq2	H4	1	0.15	1.0079
562	CB	37	TMC2	C1	1	0.0862	12.011
563	CB	37	TMC2	C2	1	-0.15	12.011
564	CB	37	TMC2	C3	1	0.0862	12.011
565	CB	37	TMC2	C4	1	-0.15	12.011
566	CB	37	TMC2	C5	1	0.0862	12.011
567	CB	37	TMC2	C6	1	-0.15	12.011
568	C=O	37	TMC2	C	1	0.5438	12.011
569	O=C	37	TMC2	O	1	-0.57	15.9994
570	HCMM	37	TMC2	H	1	0.15	1.0079
571	HCMM	37	TMC2	H1	1	0.15	1.0079
572	HCMM	37	TMC2	H2	1	0.15	1.0079
573	C=O	37	TMC2	C7	1	0.5438	12.011
574	C=O	37	TMC2	C8	1	0.6338	12.011
575	O=C	37	TMC2	O1	1	-0.57	15.9994
576	O=C	37	TMC2	O2	1	-0.57	15.9994
577	OR	37	TMC2	O5	1	-0.65	15.9994
578	HOCO	37	TMC2	H5	1	0.5	1.0079
579	CB	38	MPD2	C	1	-0.15	12.011
580	CB	38	MPD2	C1	1	0.117	12.011
581	CB	38	MPD2	C2	1	-0.15	12.011
582	CB	38	MPD2	C3	1	0.117	12.011
583	CB	38	MPD2	C4	1	-0.15	12.011
584	CB	38	MPD2	C5	1	-0.15	12.011
585	HCMM	38	MPD2	H	1	0.15	1.0079
586	HCMM	38	MPD2	H1	1	0.15	1.0079
587	HCMM	38	MPD2	H2	1	0.15	1.0079
588	HCMM	38	MPD2	H3	1	0.15	1.0079
589	NC=O	38	MPD2	N	1	-0.547	14.0067
590	HNCO	38	MPD2	H5	1	0.37	1.0079
591	NC=O	38	MPD2	N1	1	-0.547	14.0067
592	HNCO	38	MPD2	H7	1	0.37	1.0079
593	CB	39	MPD2	C	1	-0.15	12.011
594	CB	39	MPD2	C1	1	0.117	12.011
595	CB	39	MPD2	C2	1	-0.15	12.011
596	CB	39	MPD2	C3	1	0.117	12.011
597	CB	39	MPD2	C4	1	-0.15	12.011
598	CB	39	MPD2	C5	1	-0.15	12.011
599	HCMM	39	MPD2	H	1	0.15	1.0079
600	HCMM	39	MPD2	H1	1	0.15	1.0079
601	HCMM	39	MPD2	H2	1	0.15	1.0079
602	HCMM	39	MPD2	H3	1	0.15	1.0079
603	NC=O	39	MPD2	N	1	-0.547	14.0067
604	HNCO	39	MPD2	H5	1	0.37	1.0079
605	NC=O	39	MPD2	N1	1	-0.547	14.0067
606	HNCO	39	MPD2	H7	1	0.37	1.0079
607	C=O	40	TCq2	C1	1	0.5438	12.011
608	O=C	40	TCq2	O2	1	-0.57	15.9994
609	CB	40	TCq2	C2	1	0.0862	12.011
610	CB	40	TCq2	C3	1	-0.15	12.011
611	CB	40	TCq2	C4	1	-0.179	12.011
612	CB	40	TCq2	C5	1	-0.15	12.011
613	CB	40	TCq2	C6	1	0.0862	12.011
614	CB	40	TCq2	C7	1	-0.15	12.011
615	C=O	40	TCq2	C8	1	0.5438	12.011
616	O=C	40	TCq2	O4	1	-0.57	15.9994
617	CO2M	40	TCq2	C9	1	0.979	12.011
618	O2CM	40	TCq2	O5	1	-0.9	15.9994
619	O2CM	40	TCq2	O6	1	-0.9	15.9994
620	HCMM	40	TCq2	H2	1	0.15	1.0079
621	HCMM	40	TCq2	H3	1	0.15	1.0079
622	HCMM	40	TCq2	H4	1	0.15	1.0079
623	CB	41	TMC2	C1	1	0.0862	12.011
624	CB	41	TMC2	C2	1	-0.15	12.011
625	CB	41	TMC2	C3	1	0.0862	12.011
626	CB	41	TMC2	C4	1	-0.15	12.011
627	CB	41	TMC2	C5	1	0.0862	12.011
628	CB	41	TMC2	C6	1	-0.15	12.011
629	C=O	41	TMC2	C	1	0.5438	12.011
630	O=C	41	TMC2	O	1	-0.57	15.9994
631	HCMM	41	TMC2	H	1	0.15	1.0079
632	HCMM	41	TMC2	H1	1	0.15	1.0079
633	HCMM	41	TMC2	H2	1	0.15	1.0079
634	C=O	41	TMC2	C7	1	0.5438	12.011
635	C=O	41	TMC2	C8	1	0.6338	12.011
636	O=C	41	TMC2	O1	1	-0.57	15.9994
637	O=C	41	TMC2	O2	1	-0.57	15.9994
638	OR	41	TMC2	O5	1	-0.65	15.9994
639	HOCO	41	TMC2	H5	1	0.5	1.0079
640	CB	42	MPD2	C	1	-0.15	12.011
641	CB	42	MPD2	C1	1	0.117	12.011
642	CB	42	MPD2	C2	1	-0.15	12.011
643	CB	42	MPD2	C3	1	0.117	12.011
644	CB	42	MPD2	C4	1	-0.15	12.011
645	CB	42	MPD2	C5	1	-0.15	12.011
646	HCMM	42	MPD2	H	1	0.15	1.0079
647	HCMM	42	MPD2	H1	1	0.15	1.0079
648	HCMM	42	MPD2	H2	1	0.15	1.0079
649	HCMM	42	MPD2	H3	1	0.15	1.0079
650	NC=O	42	MPD2	N	1	-0.547	14.0067
651	HNCO	42	MPD2	H5	1	0.37	1.0079
652	NC=O	42	MPD2	N1	1	-0.547	14.0067
653	HNCO	42	MPD2	H7	1	0.37	1.0079
654	CB	43	MPD2	C	1	-0.15	12.011
655	CB	43	MPD2	C1	1	0.117	12.011
656	CB	43	MPD2	C2	1	-0.15	12.011
657	CB	43	MPD2	C3	1	0.117	12.011
658	CB	43	MPD2	C4	1	-0.15	12.011
659	CB	43	MPD2	C5	1	-0.15	12.011
660	HCMM	43	MPD2	H	1	0.15	1.0079
661	HCMM	43	MPD2	H1	1	0.15	1.0079
662	HCMM	43	MPD2	H2	1	0.15	1.0079
663	HCMM	43	MPD2	H3	1	0.15	1.0079
664	NC=O	43	MPD2	N	1	-0.547	14.0067
665	HNCO	43	MPD2	H5	1	0.37	1.0079
666	NC=O	43	MPD2	N1	1	-0.547	14.0067
667	HNCO	43	MPD2	H7	1	0.37	1.0079
668	C=O	44	TCq2	C1	1	0.5438	12.011
669	O=C	44	TCq2	O2	1	-0.57	15.9994
670	CB	44	TCq2	C2	1	0.0862	12.011
671	CB	44	TCq2	C3	1	-0.15	12.011
672	CB	44	TCq2	C4	1	-0.179	12.011
673	CB	44	TCq2	C5	1	-0.15	12.011
674	CB	44	TCq2	C6	1	0.0862	12.011
675	CB	44	TCq2	C7	1	-0.15	12.011
676	C=O	44	TCq2	C8	1	0.5438	12.011
677	O=C	44	TCq2	O4	1	-0.57	15.9994
678	CO2M	44	TCq2	C9	1	0.979	12.011
679	O2CM	44	TCq2	O5	1	-0.9	15.9994
680	O2CM	44	TCq2	O6	1	-0.9	15.9994
681	HCMM	44	TCq2	H2	1	0.15	1.0079
682	HCMM	44	TCq2	H3	1	0.15	1.0079
683	HCMM	44	TCq2	H4	1	0.15	1.0079
684	CB	45	TMC2	C1	1	0.0862	12.011
685	CB	45	TMC2	C2	1	-0.15	12.011
686	CB	45	TMC2	C3	1	0.0862	12.011
687	CB	45	TMC2	C4	1	-0.15	12.011
688	CB	45	TMC2	C5	1	0.0862	12.011
689	CB	45	TMC2	C6	1	-0.15	12.011
690	C=O	45	TMC2	C	1	0.5438	12.011
691	O=C	45	TMC2	O	1	-0.57	15.9994
692	HCMM	45	TMC2	H	1	0.15	1.0079
693	HCMM	45	TMC2	H1	1	0.15	1.0079
694	HCMM	45	TMC2	H2	1	0.15	1.0079
695	C=O	45	TMC2	C7	1	0.5438	12.011
696	C=O	45	TMC2	C8	1	0.6338	12.011
697	O=C	45	TMC2	O1	1	-0.57	15.9994
698	O=C	45	TMC2	O2	1	-0.57	15.9994
699	OR	45	TMC2	O5	1	-0.65	15.9994
700	HOCO	45	TMC2	H5	1	0.5	1.0079
701	CB	46	MPD2	C	1	-0.15	12.011
702	CB	46	MPD2	C1	1	0.117	12.011
703	CB	46	MPD2	C2	1	-0.15	12.011
704	CB	46	MPD2	C3	1	0.117	12.011
705	CB	46	MPD2	C4	1	-0.15	12.011
706	CB	46	MPD2	C5	1	-0.15	12.011
707	HCMM	46	MPD2	H	1	0.15	1.0079
708	HCMM	46	MPD2	H1	1	0.15	1.0079
709	HCMM	46	MPD2	H2	1	0.15	1.0079
710	HCMM	46	MPD2	H3	1	0.15	1.0079
711	NC=O	46	MPD2	N	1	-0.547	14.0067
712	HNCO	46	MPD2	H5	1	0.37	1.0079
713	NC=O	46	MPD2	N1	1	-0.547	14.0067
714	HNCO	46	MPD2	H7	1	0.37	1.0079
715	CB	47	TMC2	C1	1	0.0862	12.011
716	CB	47	TMC2	C2	1	-0.15	12.011
717	CB	47	TMC2	C3	1	0.0862	12.011
718	CB	47	TMC2	C4	1	-0.15	12.011
719	CB	47	TMC2	C5	1	0.0862	12.011
720	CB	47	TMC2	C6	1	-0.15	12.011
721	C=O	47	TMC2	C	1	0.5438	12.011
722	O=C	47	TMC2	O	1	-0.57	15.9994
723	HCMM	47	TMC2	H	1	0.15	1.0079
724	HCMM	47	TMC2	H1	1	0.15	1.0079
725	HCMM	47	TMC2	H2	1	0.15	1.0079
726	C=O	47	TMC2	C7	1	0.5438	12.011
727	C=O	47	TMC2	C8	1	0.6338	12.011
728	O=C	47	TMC2	O1	1	-0.57	15.9994
729	O=C	47	TMC2	O2	1	-0.57	15.9994
730	OR	47	TMC2	O5	1	-0.65	15.9994
731	HOCO	47	TMC2	H5	1	0.5	1.0079
732	CB	48	MPD2	C	1	-0.15	12.011
733	CB	48	MPD2	C1	1	0.117	12.011
734	CB	48	MPD2	C2	1	-0.15	12.011
735	CB	48	MPD2	C3	1	0.117	12.011
736	CB	48	MPD2	C4	1	-0.15	12.011
737	CB	48	MPD2	C5	1	-0.15	12.011
738	HCMM	48	MPD2	H	1	0.15	1.0079
739	HCMM	48	MPD2	H1	1	0.15	1.0079
740	HCMM	48	MPD2	H2	1	0.15	1.0079
741	HCMM	48	MPD2	H3	1	0.15	1.0079
742	NC=O	48	MPD2	N	1	-0.547	14.0067
743	HNCO	48	MPD2	H5	1	0.37	1.0079
744	NC=O	48	MPD2	N1	1	-0.547	14.0067
745	HNCO	48	MPD2	H7	1	0.37	1.0079
746	CB	49	MPD2	C	1	-0.15	12.011
747	CB	49	MPD2	C1	1	0.117	12.011
748	CB	49	MPD2	C2	1	-0.15	12.011
749	CB	49	MPD2	C3	1	0.117	12.011
750	CB	49	MPD2	C4	1	-0.15	12.011
751	CB	49	MPD2	C5	1	-0.15	12.011
752	HCMM	49	MPD2	H	1	0.15	1.0079
753	HCMM	49	MPD2	H1	1	0.15	1.0079
754	HCMM	49	MPD2	H2	1	0.15	1.0079
755	HCMM	49	MPD2	H3	1	0.15	1.0079
756	NC=O	49	MPD2	N	1	-0.547	14.0067
757	HNCO	49	MPD2	H5	1	0.37	1.0079
758	NC=O	49	MPD2	N1	1	-0.547	14.0067
759	HNCO	49	MPD2	H7	1	0.37	1.0079
760	C=O	50	TCq2	C1	1	0.5438	12.011
761	O=C	50	TCq2	O2	1	-0.57	15.9994
762	CB	50	TCq2	C2	1	0.0862	12.011
763	CB	50	TCq2	C3	1	-0.15	12.011
764	CB	50	TCq2	C4	1	-0.179	12.011
765	CB	50	TCq2	C5	1	-0.15	12.011
766	CB	50	TCq2	C6	1	0.0862	12.011
767	CB	50	TCq2	C7	1	-0.15	12.011
768	C=O	50	TCq2	C8	1	0.5438	12.011
769	O=C	50	TCq2	O4	1	-0.57	15.9994
770	CO2M	50	TCq2	C9	1	0.979	12.011
771	O2CM	50	TCq2	O5	1	-0.9	15.9994
772	O2CM	50	TCq2	O6	1	-0.9	15.9994
773	HCMM	50	TCq2	H2	1	0.15	1.0079
774	HCMM	50	TCq2	H3	1	0.15	1.0079
775	HCMM	50	TCq2	H4	1	0.15	1.0079
776	CB	51	MPD2	C	1	-0.15	12.011
777	CB	51	MPD2	C1	1	0.117	12.011
778	CB	51	MPD2	C2	1	-0.15	12.011
779	CB	51	MPD2	C3	1	0.117	12.011
780	CB	51	MPD2	C4	1	-0.15	12.011
781	CB	51	MPD2	C5	1	-0.15	12.011
782	HCMM	51	MPD2	H	1	0.15	1.0079
783	HCMM	51	MPD2	H1	1	0.15	1.0079
784	HCMM	51	MPD2	H2	1	0.15	1.0079
785	HCMM	51	MPD2	H3	1	0.15	1.0079
786	NC=O	51	MPD2	N	1	-0.547	14.0067
787	HNCO	51	MPD2	H5	1	0.37	1.0079
788	NC=O	51	MPD2	N1	1	-0.547	14.0067
789	HNCO	51	MPD2	H7	1	0.37	1.0079
790	C=O	52	TCq2	C1	1	0.5438	12.011
791	O=C	52	TCq2	O2	1	-0.57	15.9994
792	CB	52	TCq2	C2	1	0.0862	12.011
793	CB	52	TCq2	C3	1	-0.15	12.011
794	CB	52	TCq2	C4	1	-0.179	12.011
795	CB	52	TCq2	C5	1	-0.15	12.011
796	CB	52	TCq2	C6	1	0.0862	12.011
797	CB	52	TCq2	C7	1	-0.15	12.011
798	C=O	52	TCq2	C8	1	0.5438	12.011
799	O=C	52	TCq2	O4	1	-0.57	15.9994
800	CO2M	52	TCq2	C9	1	0.979	12.011
801	O2CM	52	TCq2	O5	1	-0.9	15.9994
802	O2CM	52	TCq2	O6	1	-0.9	15.9994
803	HCMM	52	TCq2	H2	1	0.15	1.0079
804	HCMM	52	TCq2	H3	1	0.15	1.0079
805	HCMM	52	TCq2	H4	1	0.15	1.0079
806	CB	53	TMC2	C1	1	0.0862	12.011
807	CB	53	TMC2	C2	1	-0.15	12.011
808	CB	53	TMC2	C3	1	0.0862	12.011
809	CB	53	TMC2	C4	1	-0.15	12.011
810	CB	53	TMC2	C5	1	0.0862	12.011
811	CB	53	TMC2	C6	1	-0.15	12.011
812	C=O	53	TMC2	C	1	0.5438	12.011
813	O=C	53	TMC2	O	1	-0.57	15.9994
814	HCMM	53	TMC2	H	1	0.15	1.0079
815	HCMM	53	TMC2	H1	1	0.15	1.0079
816	HCMM	53	TMC2	H2	1	0.15	1.0079
817	C=O	53	TMC2	C7	1	0.5438	12.011
818	C=O	53	TMC2	C8	1	0.6338	12.011
819	O=C	53	TMC2	O1	1	-0.57	15.9994
820	O=C	53	TMC2	O2	1	-0.57	15.9994
821	OR	53	TMC2	O5	1	-0.65	15.9994
822	HOCO	53	TMC2	H5	1	0.5	1.0079
823	CB	54	MPD2	C	1	-0.15	12.011
824	CB	54	MPD2	C1	1	0.117	12.011
825	CB	54	MPD2	C2	1	-0.15	12.011
826	CB	54	MPD2	C3	1	0.117	12.011
827	CB	54	MPD2	C4	1	-0.15	12.011
828	CB	54	MPD2	C5	1	-0.15	12.011
829	HCMM	54	MPD2	H	1	0.15	1.0079
830	HCMM	54	MPD2	H1	1	0.15	1.0079
831	HCMM	54	MPD2	H2	1	0.15	1.0079
832	HCMM	54	MPD2	H3	1	0.15	1.0079
833	NC=O	54	MPD2	N	1	-0.547	14.0067
834	HNCO	54	MPD2	H5	1	0.37	1.0079
835	NC=O	54	MPD2	N1	1	-0.547	14.0067
836	HNCO	54	MPD2	H7	1	0.37	1.0079
837	CB	55	MPD2	C	1	-0.15	12.011
838	CB	55	MPD2	C1	1	0.117	12.011
839	CB	55	MPD2	C2	1	-0.15	12.011
840	CB	55	MPD2	C3	1	0.117	12.011
841	CB	55	MPD2	C4	1	-0.15	12.011
842	CB	55	MPD2	C5	1	-0.15	12.011
843	HCMM	55	MPD2	H	1	0.15	1.0079
844	HCMM	55	MPD2	H1	1	0.15	1.0079
845	HCMM	55	MPD2	H2	1	0.15	1.0079
846	HCMM	55	MPD2	H3	1	0.15	1.0079
847	NC=O	55	MPD2	N	1	-0.547	14.0067
848	HNCO	55	MPD2	H5	1	0.37	1.0079
849	NC=O	55	MPD2	N1	1	-0.547	14.0067
850	HNCO	55	MPD2	H7	1	0.37	1.0079
851	C=O	56	TCq2	C1	1	0.5438	12.011
852	O=C	56	TCq2	O2	1	-0.57	15.9994
853	CB	56	TCq2	C2	1	0.0862	12.011
854	CB	56	TCq2	C3	1	-0.15	12.011
855	CB	56	TCq2	C4	1	-0.179	12.011
856	CB	56	TCq2	C5	1	-0.15	12.011
857	CB	56	TCq2	C6	1	0.0862	12.011
858	CB	56	TCq2	C7	1	-0.15	12.011
859	C=O	56	TCq2	C8	1	0.5438	12.011
860	O=C	56	TCq2	O4	1	-0.57	15.9994
861	CO2M	56	TCq2	C9	1	0.979	12.011
862	O2CM	56	TCq2	O5	1	-0.9	15.9994
863	O2CM	56	TCq2	O6	1	-0.9	15.9994
864	HCMM	56	TCq2	H2	1	0.15	1.0079
865	HCMM	56	TCq2	H3	1	0.15	1.0079
866	HCMM	56	TCq2	H4	1	0.15	1.0079
867	CB	57	TMC2	C1	1	0.0862	12.011
868	CB	57	TMC2	C2	1	-0.15	12.011
869	CB	57	TMC2	C3	1	0.0862	12.011
870	CB	57	TMC2	C4	1	-0.15	12.011
871	CB	57	TMC2	C5	1	0.0862	12.011
872	CB	57	TMC2	C6	1	-0.15	12.011
873	C=O	57	TMC2	C	1	0.5438	12.011
874	O=C	57	TMC2	O	1	-0.57	15.9994
875	HCMM	57	TMC2	H	1	0.15	1.0079
876	HCMM	57	TMC2	H1	1	0.15	1.0079
877	HCMM	57	TMC2	H2	1	0.15	1.0079
878	C=O	57	TMC2	C7	1	0.5438	12.011
879	C=O	57	TMC2	C8	1	0.6338	12.011
880	O=C	57	TMC2	O1	1	-0.57	15.9994
881	O=C	57	TMC2	O2	1	-0.57	15.9994
882	OR	57	TMC2	O5	1	-0.65	15.9994
883	HOCO	57	TMC2	H5	1	0.5	1.0079
884	CB	58	MPD2	C	1	-0.15	12.011
885	CB	58	MPD2	C1	1	0.117	12.011
886	CB	58	MPD2	C2	1	-0.15	12.011
887	CB	58	MPD2	C3	1	0.117	12.011
888	CB	58	MPD2	C4	1	-0.15	12.011
889	CB	58	MPD2	C5	1	-0.15	12.011
890	HCMM	58	MPD2	H	1	0.15	1.0079
891	HCMM	58	MPD2	H1	1	0.15	1.0079
892	HCMM	58	MPD2	H2	1	0.15	1.0079
893	HCMM	58	MPD2	H3	1	0.15	1.0079
894	NC=O	58	MPD2	N	1	-0.547	14.0067
895	HNCO	58	MPD2	H5	1	0.37	1.0079
896	NC=O	58	MPD2	N1	1	-0.547	14.0067
897	HNCO	58	MPD2	H7	1	0.37	1.0079
898	CB	59	MPD2	C	1	-0.15	12.011
899	CB	59	MPD2	C1	1	0.117	12.011
900	CB	59	MPD2	C2	1	-0.15	12.011
901	CB	59	MPD2	C3	1	0.117	12.011
902	CB	59	MPD2	C4	1	-0.15	12.011
903	CB	59	MPD2	C5	1	-0.15	12.011
904	HCMM	59	MPD2	H	1	0.15	1.0079
905	HCMM	59	MPD2	H1	1	0.15	1.0079
906	HCMM	59	MPD2	H2	1	0.15	1.0079
907	HCMM	59	MPD2	H3	1	0.15	1.0079
908	NC=O	59	MPD2	N	1	-0.547	14.0067
909	HNCO	59	MPD2	H5	1	0.37	1.0079
910	NC=O	59	MPD2	N1	1	-0.547	14.0067
911	HNCO	59	MPD2	H7	1	0.37	1.0079
912	C=O	60	TCq2	C1	1	0.5438	12.011
913	O=C	60	TCq2	O2	1	-0.57	15.9994
914	CB	60	TCq2	C2	1	0.0862	12.011
915	CB	60	TCq2	C3	1	-0.15	12.011
916	CB	60	TCq2	C4	1	-0.179	12.011
917	CB	60	TCq2	C5	1	-0.15	12.011
918	CB	60	TCq2	C6	1	0.0862	12.011
919	CB	60	TCq2	C7	1	-0.15	12.011
920	C=O	60	TCq2	C8	1	0.5438	12.011
921	O=C	60	TCq2	O4	1	-0.57	15.9994
922	CO2M	60	TCq2	C9	1	0.979	12.011
923	O2CM	60	TCq2	O5	1	-0.9	15.9994
924	O2CM	60	TCq2	O6	1	-0.9	15.9994
925	HCMM	60	TCq2	H2	1	0.15	1.0079
926	HCMM	60	TCq2	H3	1	0.15	1.0079
927	HCMM	60	TCq2	H4	1	0.15	1.0079
928	CB	61	MPD2	C	1	-0.15	12.011
929	CB	61	MPD2	C1	1	0.117	12.011
930	CB	61	MPD2	C2	1	-0.15	12.011
931	CB	61	MPD2	C3	1	0.117	12.011
932	CB	61	MPD2	C4	1	-0.15	12.011
933	CB	61	MPD2	C5	1	-0.15	12.011
934	HCMM	61	MPD2	H	1	0.15	1.0079
935	HCMM	61	MPD2	H1	1	0.15	1.0079
936	HCMM	61	MPD2	H2	1	0.15	1.0079
937	HCMM	61	MPD2	H3	1	0.15	1.0079
938	NC=O	61	MPD2	N	1	-0.547	14.0067
939	HNCO	61	MPD2	H5	1	0.37	1.0079
940	NC=O	61	MPD2	N1	1	-0.547	14.0067
941	HNCO	61	MPD2	H7	1	0.37	1.0079
942	C=O	62	TCq2	C1	1	0.5438	12.011
943	O=C	62	TCq2	O2	1	-0.57	15.9994
944	CB	62	TCq2	C2	1	0.0862	12.011
945	CB	62	TCq2	C3	1	-0.15	12.011
946	CB	62	TCq2	C4	1	-0.179	12.011
947	CB	62	TCq2	C5	1	-0.15	12.011
948	CB	62	TCq2	C6	1	0.0862	12.011
949	CB	62	TCq2	C7	1	-0.15	12.011
950	C=O	62	TCq2	C8	1	0.5438	12.011
951	O=C	62	TCq2	O4	1	-0.57	15.9994
952	CO2M	62	TCq2	C9	1	0.979	12.011
953	O2CM	62	TCq2	O5	1	-0.9	15.9994
954	O2CM	62	TCq2	O6	1	-0.9	15.9994
955	HCMM	62	TCq2	H2	1	0.15	1.0079
956	HCMM	62	TCq2	H3	1	0.15	1.0079
957	HCMM	62	TCq2	H4	1	0.15	1.0079
958	CB	63	TMC2	C1	1	0.0862	12.011
959	CB	63	TMC2	C2	1	-0.15	12.011
960	CB	63	TMC2	C3	1	0.0862	12.011
961	CB	63	TMC2	C4	1	-0.15	12.011
962	CB	63	TMC2	C5	1	0.0862	12.011
963	CB	63	TMC2	C6	1	-0.15	12.011
964	C=O	63	TMC2	C	1	0.5438	12.011
965	O=C	63	TMC2	O	1	-0.57	15.9994
966	HCMM	63	TMC2	H	1	0.15	1.0079
967	HCMM	63	TMC2	H1	1	0.15	1.0079
968	HCMM	63	TMC2	H2	1	0.15	1.0079
969	C=O	63	TMC2	C7	1	0.5438	12.011
970	C=O	63	TMC2	C8	1	0.6338	12.011
971	O=C	63	TMC2	O1	1	-0.57	15.9994
972	O=C	63	TMC2	O2	1	-0.57	15.9994
973	OR	63	TMC2	O5	1	-0.65	15.9994
974	HOCO	63	TMC2	H5	1	0.5	1.0079
975	CB	64	MPD2	C	1	-0.15	12.011
976	CB	64	MPD2	C1	1	0.117	12.011
977	CB	64	MPD2	C2	1	-0.15	12.011
978	CB	64	MPD2	C3	1	0.117	12.011
979	CB	64	MPD2	C4	1	-0.15	12.011
980	CB	64	MPD2	C5	1	-0.15	12.011
981	HCMM	64	MPD2	H	1	0.15	1.0079
982	HCMM	64	MPD2	H1	1	0.15	1.0079
983	HCMM	64	MPD2	H2	1	0.15	1.0079
984	HCMM	64	MPD2	H3	1	0.15	1.0079
985	NC=O	64	MPD2	N	1	-0.547	14.0067
986	HNCO	64	MPD2	H5	1	0.37	1.0079
987	NC=O	64	MPD2	N1	1	-0.547	14.0067
988	HNCO	64	MPD2	H7	1	0.37	1.0079
989	CB	65	MPD2	C	1	-0.15	12.011
990	CB	65	MPD2	C1	1	0.117	12.011
991	CB	65	MPD2	C2	1	-0.15	12.011
992	CB	65	MPD2	C3	1	0.117	12.011
993	CB	65	MPD2	C4	1	-0.15	12.011
994	CB	65	MPD2	C5	1	-0.15	12.011
995	HCMM	65	MPD2	H	1	0.15	1.0079
996	HCMM	65	MPD2	H1	1	0.15	1.0079
997	HCMM	65	MPD2	H2	1	0.15	1.0079
998	HCMM	65	MPD2	H3	1	0.15	1.0079
999	NC=O	65	MPD2	N	1	-0.547	14.0067
1000	HNCO	65	MPD2	H5	1	0.37	1.0079
1001	NC=O	65	MPD2	N1	1	-0.547	14.0067
1002	HNCO	65	MPD2	H7	1	0.37	1.0079
1003	C=O	66	TCq2	C1	1	0.5438	12.011
1004	O=C	66	TCq2	O2	1	-0.57	15.9994
1005	CB	66	TCq2	C2	1	0.0862	12.011
1006	CB	66	TCq2	C3	1	-0.15	12.011
1007	CB	66	TCq2	C4	1	-0.179	12.011
1008	CB	66	TCq2	C5	1	-0.15	12.011
1009	CB	66	TCq2	C6	1	0.0862	12.011
1010	CB	66	TCq2	C7	1	-0.15	12.011
1011	C=O	66	TCq2	C8	1	0.5438	12.011
1012	O=C	66	TCq2	O4	1	-0.57	15.9994
1013	CO2M	66	TCq2	C9	1	0.979	12.011
1014	O2CM	66	TCq2	O5	1	-0.9	15.9994
1015	O2CM	66	TCq2	O6	1	-0.9	15.9994
1016	HCMM	66	TCq2	H2	1	0.15	1.0079
1017	HCMM	66	TCq2	H3	1	0.15	1.0079
1018	HCMM	66	TCq2	H4	1	0.15	1.0079
1019	CB	67	MPD2	C	1	-0.15	12.011
1020	CB	67	MPD2	C1	1	0.117	12.011
1021	CB	67	MPD2	C2	1	-0.15	12.011
1022	CB	67	MPD2	C3	1	0.117	12.011
1023	CB	67	MPD2	C4	1	-0.15	12.011
1024	CB	67	MPD2	C5	1	-0.15	12.011
1025	HCMM	67	MPD2	H	1	0.15	1.0079
1026	HCMM	67	MPD2	H1	1	0.15	1.0079
1027	HCMM	67	MPD2	H2	1	0.15	1.0079
1028	HCMM	67	MPD2	H3	1	0.15	1.0079
1029	NC=O	67	MPD2	N	1	-0.547	14.0067
1030	HNCO	67	MPD2	H5	1	0.37	1.0079
1031	NC=O	67	MPD2	N1	1	-0.547	14.0067
1032	HNCO	67	MPD2	H7	1	0.37	1.0079
1033	C=O	68	TCq2	C1	1	0.5438	12.011
1034	O=C	68	TCq2	O2	1	-0.57	15.9994
1035	CB	68	TCq2	C2	1	0.0862	12.011
1036	CB	68	TCq2	C3	1	-0.15	12.011
1037	CB	68	TCq2	C4	1	-0.179	12.011
1038	CB	68	TCq2	C5	1	-0.15	12.011
1039	CB	68	TCq2	C6	1	0.0862	12.011
1040	CB	68	TCq2	C7	1	-0.15	12.011
1041	C=O	68	TCq2	C8	1	0.5438	12.011
1042	O=C	68	TCq2	O4	1	-0.57	15.9994
1043	CO2M	68	TCq2	C9	1	0.979	12.011
1044	O2CM	68	TCq2	O5	1	-0.9	15.9994
1045	O2CM	68	TCq2	O6	1	-0.9	15.9994
1046	HCMM	68	TCq2	H2	1	0.15	1.0079
1047	HCMM	68	TCq2	H3	1	0.15	1.0079
1048	HCMM	68	TCq2	H4	1	0.15	1.0079
1049	CB	69	TMC2	C1	1	0.0862	12.011
1050	CB	69	TMC2	C2	1	-0.15	12.011
1051	CB	69	TMC2	C3	1	0.0862	12.011
1052	CB	69	TMC2	C4	1	-0.15	12.011
1053	CB	69	TMC2	C5	1	0.0862	12.011
1054	CB	69	TMC2	C6	1	-0.15	12.011
1055	C=O	69	TMC2	C	1	0.5438	12.011
1056	O=C	69	TMC2	O	1	-0.57	15.9994
1057	HCMM	69	TMC2	H	1	0.15	1.0079
1058	HCMM	69	TMC2	H1	1	0.15	1.0079
1059	HCMM	69	TMC2	H2	1	0.15	1.0079
1060	C=O	69	TMC2	C7	1	0.5438	12.011
1061	C=O	69	TMC2	C8	1	0.6338	12.011
1062	O=C	69	TMC2	O1	1	-0.57	15.9994
1063	O=C	69	TMC2	O2	1	-0.57	15.9994
1064	OR	69	TMC2	O5	1	-0.65	15.9994
1065	HOCO	69	TMC2	H5	1	0.5	1.0079
1066	CB	70	MPD2	C	1	-0.15	12.011
1067	CB	70	MPD2	C1	1	0.117	12.011
1068	CB	70	MPD2	C2	1	-0.15	12.011
1069	CB	70	MPD2	C3	1	0.117	12.011
1070	CB	70	MPD2	C4	1	-0.15	12.011
1071	CB	70	MPD2	C5	1	-0.15	12.011
1072	HCMM	70	MPD2	H	1	0.15	1.0079
1073	HCMM	70	MPD2	H1	1	0.15	1.0079
1074	HCMM	70	MPD2	H2	1	0.15	1.0079
1075	HCMM	70	MPD2	H3	1	0.15	1.0079
1076	NC=O	70	MPD2	N	1	-0.547	14.0067
1077	HNCO	70	MPD2	H5	1	0.37	1.0079
1078	NC=O	70	MPD2	N1	1	-0.547	14.0067
1079	HNCO	70	MPD2	H7	1	0.37	1.0079
1080	CB	71	TMC2	C1	1	0.0862	12.011
1081	CB	71	TMC2	C2	1	-0.15	12.011
1082	CB	71	TMC2	C3	1	0.0862	12.011
1083	CB	71	TMC2	C4	1	-0.15	12.011
1084	CB	71	TMC2	C5	1	0.0862	12.011
1085	CB	71	TMC2	C6	1	-0.15	12.011
1086	C=O	71	TMC2	C	1	0.5438	12.011
1087	O=C	71	TMC2	O	1	-0.57	15.9994
1088	HCMM	71	TMC2	H	1	0.15	1.0079
1089	HCMM	71	TMC2	H1	1	0.15	1.0079
1090	HCMM	71	TMC2	H2	1	0.15	1.0079
1091	C=O	71	TMC2	C7	1	0.5438	12.011
1092	C=O	71	TMC2	C8	1	0.6338	12.011
1093	O=C	71	TMC2	O1	1	-0.57	15.9994
1094	O=C	71	TMC2	O2	1	-0.57	15.9994
1095	OR	71	TMC2	O5	1	-0.65	15.9994
1096	HOCO	71	TMC2	H5	1	0.5	1.0079
1097	CB	72	MPD2	C	1	-0.15	12.011
1098	CB	72	MPD2	C1	1	0.117	12.011
1099	CB	72	MPD2	C2	1	-0.15	12.011
1100	CB	72	MPD2	C3	1	0.117	12.011
1101	CB	72	MPD2	C4	1	-0.15	12.011
1102	CB	72	MPD2	C5	1	-0.15	12.011
1103	HCMM	72	MPD2	H	1	0.15	1.0079
1104	HCMM	72	MPD2	H1	1	0.15	1.0079
1105	HCMM	72	MPD2	H2	1	0.15	1.0079
1106	HCMM	72	MPD2	H3	1	0.15	1.0079
1107	NC=O	72	MPD2	N	1	-0.547	14.0067
1108	HNCO	72	MPD2	H5	1	0.37	1.0079
1109	NC=O	72	MPD2	N1	1	-0.547	14.0067
1110	HNCO	72	MPD2	H7	1	0.37	1.0079
1111	CB	73	TMC2	C1	1	0.0862	12.011
1112	CB	73	TMC2	C2	1	-0.15	12.011
1113	CB	73	TMC2	C3	1	0.0862	12.011
1114	CB	73	TMC2	C4	1	-0.15	12.011
1115	CB	73	TMC2	C5	1	0.0862	12.011
1116	CB	73	TMC2	C6	1	-0.15	12.011
1117	C=O	73	TMC2	C	1	0.5438	12.011
1118	O=C	73	TMC2	O	1	-0.57	15.9994
1119	HCMM	73	TMC2	H	1	0.15	1.0079
1120	HCMM	73	TMC2	H1	1	0.15	1.0079
1121	HCMM	73	TMC2	H2	1	0.15	1.0079
1122	C=O	73	TMC2	C7	1	0.5438	12.011
1123	C=O	73	TMC2	C8	1	0.6338	12.011
1124	O=C	73	TMC2	O1	1	-0.57	15.9994
1125	O=C	73	TMC2	O2	1	-0.57	15.9994
1126	OR	73	TMC2	O5	1	-0.65	15.9994
1127	HOCO	73	TMC2	H5	1	0.5	1.0079
1128	CB	74	MPD2	C	1	-0.15	12.011
1129	CB	74	MPD2	C1	1	0.117	12.011
1130	CB	74	MPD2	C2	1	-0.15	12.011
1131	CB	74	MPD2	C3	1	0.117	12.011
1132	CB	74	MPD2	C4	1	-0.15	12.011
1133	CB	74	MPD2	C5	1	-0.15	12.011
1134	HCMM	74	MPD2	H	1	0.15	1.0079
1135	HCMM	74	MPD2	H1	1	0.15	1.0079
1136	HCMM	74	MPD2	H2	1	0.15	1.0079
1137	HCMM	74	MPD2	H3	1	0.15	1.0079
1138	NC=O	74	MPD2	N	1	-0.547	14.0067
1139	HNCO	74	MPD2	H5	1	0.37	1.0079
1140	NC=O	74	MPD2	N1	1	-0.547	14.0067
1141	HNCO	74	MPD2	H7	1	0.37	1.0079
1142	C=O	75	TCq2	C1	1	0.5438	12.011
1143	O=C	75	TCq2	O2	1	-0.57	15.9994
1144	CB	75	TCq2	C2	1	0.0862	12.011
1145	CB	75	TCq2	C3	1	-0.15	12.011
1146	CB	75	TCq2	C4	1	-0.179	12.011
1147	CB	75	TCq2	C5	1	-0.15	12.011
1148	CB	75	TCq2	C6	1	0.0862	12.011
1149	CB	75	TCq2	C7	1	-0.15	12.011
1150	C=O	75	TCq2	C8	1	0.5438	12.011
1151	O=C	75	TCq2	O4	1	-0.57	15.9994
1152	CO2M	75	TCq2	C9	1	0.979	12.011
1153	O2CM	75	TCq2	O5	1	-0.9	15.9994
1154	O2CM	75	TCq2	O6	1	-0.9	15.9994
1155	HCMM	75	TCq2	H2	1	0.15	1.0079
1156	HCMM	75	TCq2	H3	1	0.15	1.0079
1157	HCMM	75	TCq2	H4	1	0.15	1.0079
1158	CB	76	MPD2	C	1	-0.15	12.011
1159	CB	76	MPD2	C1	1	0.117	12.011
1160	CB	76	MPD2	C2	1	-0.15	12.011
1161	CB	76	MPD2	C3	1	0.117	12.011
1162	CB	76	MPD2	C4	1	-0.15	12.011
1163	CB	76	MPD2	C5	1	-0.15	12.011
1164	HCMM	76	MPD2	H	1	0.15	1.0079
1165	HCMM	76	MPD2	H1	1	0.15	1.0079
1166	HCMM	76	MPD2	H2	1	0.15	1.0079
1167	HCMM	76	MPD2	H3	1	0.15	1.0079
1168	NC=O	76	MPD2	N	1	-0.547	14.0067
1169	HNCO	76	MPD2	H5	1	0.37	1.0079
1170	NC=O	76	MPD2	N1	1	-0.547	14.0067
1171	HNCO	76	MPD2	H7	1	0.37	1.0079
1172	C=O	77	TCq2	C1	1	0.5438	12.011
1173	O=C	77	TCq2	O2	1	-0.57	15.9994
1174	CB	77	TCq2	C2	1	0.0862	12.011
1175	CB	77	TCq2	C3	1	-0.15	12.011
1176	CB	77	TCq2	C4	1	-0.179	12.011
1177	CB	77	TCq2	C5	1	-0.15	12.011
1178	CB	77	TCq2	C6	1	0.0862	12.011
1179	CB	77	TCq2	C7	1	-0.15	12.011
1180	C=O	77	TCq2	C8	1	0.5438	12.011
1181	O=C	77	TCq2	O4	1	-0.57	15.9994
1182	CO2M	77	TCq2	C9	1	0.979	12.011
1183	O2CM	77	TCq2	O5	1	-0.9	15.9994
1184	O2CM	77	TCq2	O6	1	-0.9	15.9994
1185	HCMM	77	TCq2	H2	1	0.15	1.0079
1186	HCMM	77	TCq2	H3	1	0.15	1.0079
1187	HCMM	77	TCq2	H4	1	0.15	1.0079
1188	CB	78	MPD1	C	1	-0.15	12.011
1189	CB	78	MPD1	C1	1	0.1	12.011
1190	CB	78	MPD1	C2	1	-0.15	12.011
1191	CB	78	MPD1	C3	1	0.117	12.011
1192	CB	78	MPD1	C4	1	-0.15	12.011
1193	CB	78	MPD1	C5	1	-0.15	12.011
1194	HCMM	78	MPD1	H	1	0.15	1.0079
1195	HCMM	78	MPD1	H1	1	0.15	1.0079
1196	HCMM	78	MPD1	H2	1	0.15	1.0079
1197	HCMM	78	MPD1	H3	1	0.15	1.0079
1198	NC=O	78	MPD1	N	1	-0.547	14.0067
1199	HNCO	78	MPD1	H5	1	0.37	1.0079
1200	NC=C	78	MPD1	N1	1	-0.9	14.0067
1201	HNCO	78	MPD1	H6	1	0.4	1.0079
1202	HNCO	78	MPD1	H7	1	0.4	1.0079
1203	C=O	79	TCq2	C1	1	0.5438	12.011
1204	O=C	79	TCq2	O2	1	-0.57	15.9994
1205	CB	79	TCq2	C2	1	0.0862	12.011
1206	CB	79	TCq2	C3	1	-0.15	12.011
1207	CB	79	TCq2	C4	1	-0.179	12.011
1208	CB	79	TCq2	C5	1	-0.15	12.011
1209	CB	79	TCq2	C6	1	0.0862	12.011
1210	CB	79	TCq2	C7	1	-0.15	12.011
1211	C=O	79	TCq2	C8	1	0.5438	12.011
1212	O=C	79	TCq2	O4	1	-0.57	15.9994
1213	CO2M	79	TCq2	C9	1	0.979	12.011
1214	O2CM	79	TCq2	O5	1	-0.9	15.9994
1215	O2CM	79	TCq2	O6	1	-0.9	15.9994
1216	HCMM	79	TCq2	H2	1	0.15	1.0079
1217	HCMM	79	TCq2	H3	1	0.15	1.0079
1218	HCMM	79	TCq2	H4	1	0.15	1.0079
1219	CB	80	MPD2	C	1	-0.15	12.011
1220	CB	80	MPD2	C1	1	0.117	12.011
1221	CB	80	MPD2	C2	1	-0.15	12.011
1222	CB	80	MPD2	C3	1	0.117	12.011
1223	CB	80	MPD2	C4	1	-0.15	12.011
1224	CB	80	MPD2	C5	1	-0.15	12.011
1225	HCMM	80	MPD2	H	1	0.15	1.0079
1226	HCMM	80	MPD2	H1	1	0.15	1.0079
1227	HCMM	80	MPD2	H2	1	0.15	1.0079
1228	HCMM	80	MPD2	H3	1	0.15	1.0079
1229	NC=O	80	MPD2	N	1	-0.547	14.0067
1230	HNCO	80	MPD2	H5	1	0.37	1.0079
1231	NC=O	80	MPD2	N1	1	-0.547	14.0067
1232	HNCO	80	MPD2	H7	1	0.37	1.0079
1233	C=O	81	TCq2	C1	1	0.5438	12.011
1234	O=C	81	TCq2	O2	1	-0.57	15.9994
1235	CB	81	TCq2	C2	1	0.0862	12.011
1236	CB	81	TCq2	C3	1	-0.15	12.011
1237	CB	81	TCq2	C4	1	-0.179	12.011
1238	CB	81	TCq2	C5	1	-0.15	12.011
1239	CB	81	TCq2	C6	1	0.0862	12.011
1240	CB	81	TCq2	C7	1	-0.15	12.011
1241	C=O	81	TCq2	C8	1	0.5438	12.011
1242	O=C	81	TCq2	O4	1	-0.57	15.9994
1243	CO2M	81	TCq2	C9	1	0.979	12.011
1244	O2CM	81	TCq2	O5	1	-0.9	15.9994
1245	O2CM	81	TCq2	O6	1	-0.9	15.9994
1246	HCMM	81	TCq2	H2	1	0.15	1.0079
1247	HCMM	81	TCq2	H3	1	0.15	1.0079
1248	HCMM	81	TCq2	H4	1	0.15	1.0079
1249	CB	82	MPD2	C	1	-0.15	12.011
1250	CB	82	MPD2	C1	1	0.117	12.011
1251	CB	82	MPD2	C2	1	-0.15	12.011
1252	CB	82	MPD2	C3	1	0.117	12.011
1253	CB	82	MPD2	C4	1	-0.15	12.011
1254	CB	82	MPD2	C5	1	-0.15	12.011
1255	HCMM	82	MPD2	H	1	0.15	1.0079
1256	HCMM	82	MPD2	H1	1	0.15	1.0079
1257	HCMM	82	MPD2	H2	1	0.15	1.0079
1258	HCMM	82	MPD2	H3	1	0.15	1.0079
1259	NC=O	82	MPD2	N	1	-0.547	14.0067
1260	HNCO	82	MPD2	H5	1	0.37	1.0079
1261	NC=O	82	MPD2	N1	1	-0.547	14.0067
1262	HNCO	82	MPD2	H7	1	0.37	1.0079
1263	C=O	83	TCq2	C1	1	0.5438	12.011
1264	O=C	83	TCq2	O2	1	-0.57	15.9994
1265	CB	83	TCq2	C2	1	0.0862	12.011
1266	CB	83	TCq2	C3	1	-0.15	12.011
1267	CB	83	TCq2	C4	1	-0.179	12.011
1268	CB	83	TCq2	C5	1	-0.15	12.011
1269	CB	83	TCq2	C6	1	0.0862	12.011
1270	CB	83	TCq2	C7	1	-0.15	12.011
1271	C=O	83	TCq2	C8	1	0.5438	12.011
1272	O=C	83	TCq2	O4	1	-0.57	15.9994
1273	CO2M	83	TCq2	C9	1	0.979	12.011
1274	O2CM	83	TCq2	O5	1	-0.9	15.9994
1275	O2CM	83	TCq2	O6	1	-0.9	15.9994
1276	HCMM	83	TCq2	H2	1	0.15	1.0079
1277	HCMM	83	TCq2	H3	1	0.15	1.0079
1278	HCMM	83	TCq2	H4	1	0.15	1.0079
1279	C=O	84	TCq2	C1	1	0.5438	12.011
1280	O=C	84	TCq2	O2	1	-0.57	15.9994
1281	CB	84	TCq2	C2	1	0.0862	12.011
1282	CB	84	TCq2	C3	1	-0.15	12.011
1283	CB	84	TCq2	C4	1	-0.179	12.011
1284	CB	84	TCq2	C5	1	-0.15	12.011
1285	CB	84	TCq2	C6	1	0.0862	12.011
1286	CB	84	TCq2	C7	1	-0.15	12.011
1287	C=O	84	TCq2	C8	1	0.5438	12.011
1288	O=C	84	TCq2	O4	1	-0.57	15.9994
1289	CO2M	84	TCq2	C9	1	0.979	12.011
1290	O2CM	84	TCq2	O5	1	-0.9	15.9994
1291	O2CM	84	TCq2	O6	1	-0.9	15.9994
1292	HCMM	84	TCq2	H2	1	0.15	1.0079
1293	HCMM	84	TCq2	H3	1	0.15	1.0079
1294	HCMM	84	TCq2	H4	1	0.15	1.0079
1295	CB	85	MPD2	C	1	-0.15	12.011
1296	CB	85	MPD2	C1	1	0.117	12.011
1297	CB	85	MPD2	C2	1	-0.15	12.011
1298	CB	85	MPD2	C3	1	0.117	12.011
1299	CB	85	MPD2	C4	1	-0.15	12.011
1300	CB	85	MPD2	C5	1	-0.15	12.011
1301	HCMM	85	MPD2	H	1	0.15	1.0079
1302	HCMM	85	MPD2	H1	1	0.15	1.0079
1303	HCMM	85	MPD2	H2	1	0.15	1.0079
1304	HCMM	85	MPD2	H3	1	0.15	1.0079
1305	NC=O	85	MPD2	N	1	-0.547	14.0067
1306	HNCO	85	MPD2	H5	1	0.37	1.0079
1307	NC=O	85	MPD2	N1	1	-0.547	14.0067
1308	HNCO	85	MPD2	H7	1	0.37	1.0079
1309	C=O	86	TCq2	C1	1	0.5438	12.011
1310	O=C	86	TCq2	O2	1	-0.57	15.9994
1311	CB	86	TCq2	C2	1	0.0862	12.011
1312	CB	86	TCq2	C3	1	-0.15	12.011
1313	CB	86	TCq2	C4	1	-0.179	12.011
1314	CB	86	TCq2	C5	1	-0.15	12.011
1315	CB	86	TCq2	C6	1	0.0862	12.011
1316	CB	86	TCq2	C7	1	-0.15	12.011
1317	C=O	86	TCq2	C8	1	0.5438	12.011
1318	O=C	86	TCq2	O4	1	-0.57	15.9994
1319	CO2M	86	TCq2	C9	1	0.979	12.011
1320	O2CM	86	TCq2	O5	1	-0.9	15.9994
1321	O2CM	86	TCq2	O6	1	-0.9	15.9994
1322	HCMM	86	TCq2	H2	1	0.15	1.0079
1323	HCMM	86	TCq2	H3	1	0.15	1.0079
1324	HCMM	86	TCq2	H4	1	0.15	1.0079
1325	CB	87	MPD2	C	1	-0.15	12.011
1326	CB	87	MPD2	C1	1	0.117	12.011
1327	CB	87	MPD2	C2	1	-0.15	12.011
1328	CB	87	MPD2	C3	1	0.117	12.011
1329	CB	87	MPD2	C4	1	-0.15	12.011
1330	CB	87	MPD2	C5	1	-0.15	12.011
1331	HCMM	87	MPD2	H	1	0.15	1.0079
1332	HCMM	87	MPD2	H1	1	0.15	1.0079
1333	HCMM	87	MPD2	H2	1	0.15	1.0079
1334	HCMM	87	MPD2	H3	1	0.15	1.0079
1335	NC=O	87	MPD2	N	1	-0.547	14.0067
1336	HNCO	87	MPD2	H5	1	0.37	1.0079
1337	NC=O	87	MPD2	N1	1	-0.547	14.0067
1338	HNCO	87	MPD2	H7	1	0.37	1.0079
1339	C=O	88	TCq2	C1	1	0.5438	12.011
1340	O=C	88	TCq2	O2	1	-0.57	15.9994
1341	CB	88	TCq2	C2	1	0.0862	12.011
1342	CB	88	TCq2	C3	1	-0.15	12.011
1343	CB	88	TCq2	C4	1	-0.179	12.011
1344	CB	88	TCq2	C5	1	-0.15	12.011
1345	CB	88	TCq2	C6	1	0.0862	12.011
1346	CB	88	TCq2	C7	1	-0.15	12.011
1347	C=O	88	TCq2	C8	1	0.5438	12.011
1348	O=C	88	TCq2	O4	1	-0.57	15.9994
1349	CO2M	88	TCq2	C9	1	0.979	12.011
1350	O2CM	88	TCq2	O5	1	-0.9	15.9994
1351	O2CM	88	TCq2	O6	1	-0.9	15.9994
1352	HCMM	88	TCq2	H2	1	0.15	1.0079
1353	HCMM	88	TCq2	H3	1	0.15	1.0079
1354	HCMM	88	TCq2	H4	1	0.15	1.0079
1355	CB	89	MPD2	C	1	-0.15	12.011
1356	CB	89	MPD2	C1	1	0.117	12.011
1357	CB	89	MPD2	C2	1	-0.15	12.011
1358	CB	89	MPD2	C3	1	0.117	12.011
1359	CB	89	MPD2	C4	1	-0.15	12.011
1360	CB	89	MPD2	C5	1	-0.15	12.011
1361	HCMM	89	MPD2	H	1	0.15	1.0079
1362	HCMM	89	MPD2	H1	1	0.15	1.0079
1363	HCMM	89	MPD2	H2	1	0.15	1.0079
1364	HCMM	89	MPD2	H3	1	0.15	1.0079
1365	NC=O	89	MPD2	N	1	-0.547	14.0067
1366	HNCO	89	MPD2	H5	1	0.37	1.0079
1367	NC=O	89	MPD2	N1	1	-0.547	14.0067
1368	HNCO	89	MPD2	H7	1	0.37	1.0079
1369	C=O	90	TCq2	C1	1	0.5438	12.011
1370	O=C	90	TCq2	O2	1	-0.57	15.9994
1371	CB	90	TCq2	C2	1	0.0862	12.011
1372	CB	90	TCq2	C3	1	-0.15	12.011
1373	CB	90	TCq2	C4	1	-0.179	12.011
1374	CB	90	TCq2	C5	1	-0.15	12.011
1375	CB	90	TCq2	C6	1	0.0862	12.011
1376	CB	90	TCq2	C7	1	-0.15	12.011
1377	C=O	90	TCq2	C8	1	0.5438	12.011
1378	O=C	90	TCq2	O4	1	-0.57	15.9994
1379	CO2M	90	TCq2	C9	1	0.979	12.011
1380	O2CM	90	TCq2	O5	1	-0.9	15.9994
1381	O2CM	90	TCq2	O6	1	-0.9	15.9994
1382	HCMM	90	TCq2	H2	1	0.15	1.0079
1383	HCMM	90	TCq2	H3	1	0.15	1.0079
1384	HCMM	90	TCq2	H4	1	0.15	1.0079
1385	CB	91	TMC2	C1	1	0.0862	12.011
1386	CB	91	TMC2	C2	1	-0.15	12.011
1387	CB	91	TMC2	C3	1	0.0862	12.011
1388	CB	91	TMC2	C4	1	-0.15	12.011
1389	CB	91	TMC2	C5	1	0.0862	12.011
1390	CB	91	TMC2	C6	1	-0.15	12.011
1391	C=O	91	TMC2	C	1	0.5438	12.011
1392	O=C	91	TMC2	O	1	-0.57	15.9994
1393	HCMM	91	TMC2	H	1	0.15	1.0079
1394	HCMM	91	TMC2	H1	1	0.15	1.0079
1395	HCMM	91	TMC2	H2	1	0.15	1.0079
1396	C=O	91	TMC2	C7	1	0.5438	12.011
1397	C=O	91	TMC2	C8	1	0.6338	12.011
1398	O=C	91	TMC2	O1	1	-0.57	15.9994
1399	O=C	91	TMC2	O2	1	-0.57	15.9994
1400	OR	91	TMC2	O5	1	-0.65	15.9994
1401	HOCO	91	TMC2	H5	1	0.5	1.0079
1402	CB	92	MPD2	C	1	-0.15	12.011
1403	CB	92	MPD2	C1	1	0.117	12.011
1404	CB	92	MPD2	C2	1	-0.15	12.011
1405	CB	92	MPD2	C3	1	0.117	12.011
1406	CB	92	MPD2	C4	1	-0.15	12.011
1407	CB	92	MPD2	C5	1	-0.15	12.011
1408	HCMM	92	MPD2	H	1	0.15	1.0079
1409	HCMM	92	MPD2	H1	1	0.15	1.0079
1410	HCMM	92	MPD2	H2	1	0.15	1.0079
1411	HCMM	92	MPD2	H3	1	0.15	1.0079
1412	NC=O	92	MPD2	N	1	-0.547	14.0067
1413	HNCO	92	MPD2	H5	1	0.37	1.0079
1414	NC=O	92	MPD2	N1	1	-0.547	14.0067
1415	HNCO	92	MPD2	H7	1	0.37	1.0079
1416	CB	93	MPD2	C	1	-0.15	12.011
1417	CB	93	MPD2	C1	1	0.117	12.011
1418	CB	93	MPD2	C2	1	-0.15	12.011
1419	CB	93	MPD2	C3	1	0.117	12.011
1420	CB	93	MPD2	C4	1	-0.15	12.011
1421	CB	93	MPD2	C5	1	-0.15	12.011
1422	HCMM	93	MPD2	H	1	0.15	1.0079
1423	HCMM	93	MPD2	H1	1	0.15	1.0079
1424	HCMM	93	MPD2	H2	1	0.15	1.0079
1425	HCMM	93	MPD2	H3	1	0.15	1.0079
1426	NC=O	93	MPD2	N	1	-0.547	14.0067
1427	HNCO	93	MPD2	H5	1	0.37	1.0079
1428	NC=O	93	MPD2	N1	1	-0.547	14.0067
1429	HNCO	93	MPD2	H7	1	0.37	1.0079
1430	C=O	94	TCq2	C1	1	0.5438	12.011
1431	O=C	94	TCq2	O2	1	-0.57	15.9994
1432	CB	94	TCq2	C2	1	0.0862	12.011
1433	CB	94	TCq2	C3	1	-0.15	12.011
1434	CB	94	TCq2	C4	1	-0.179	12.011
1435	CB	94	TCq2	C5	1	-0.15	12.011
1436	CB	94	TCq2	C6	1	0.0862	12.011
1437	CB	94	TCq2	C7	1	-0.15	12.011
1438	C=O	94	TCq2	C8	1	0.5438	12.011
1439	O=C	94	TCq2	O4	1	-0.57	15.9994
1440	CO2M	94	TCq2	C9	1	0.979	12.011
1441	O2CM	94	TCq2	O5	1	-0.9	15.9994
1442	O2CM	94	TCq2	O6	1	-0.9	15.9994
1443	HCMM	94	TCq2	H2	1	0.15	1.0079
1444	HCMM	94	TCq2	H3	1	0.15	1.0079
1445	HCMM	94	TCq2	H4	1	0.15	1.0079
1446	CB	95	TMC2	C1	1	0.0862	12.011
1447	CB	95	TMC2	C2	1	-0.15	12.011
1448	CB	95	TMC2	C3	1	0.0862	12.011
1449	CB	95	TMC2	C4	1	-0.15	12.011
1450	CB	95	TMC2	C5	1	0.0862	12.011
1451	CB	95	TMC2	C6	1	-0.15	12.011
1452	C=O	95	TMC2	C	1	0.5438	12.011
1453	O=C	95	TMC2	O	1	-0.57	15.9994
1454	HCMM	95	TMC2	H	1	0.15	1.0079
1455	HCMM	95	TMC2	H1	1	0.15	1.0079
1456	HCMM	95	TMC2	H2	1	0.15	1.0079
1457	C=O	95	TMC2	C7	1	0.5438	12.011
1458	C=O	95	TMC2	C8	1	0.6338	12.011
1459	O=C	95	TMC2	O1	1	-0.57	15.9994
1460	O=C	95	TMC2	O2	1	-0.57	15.9994
1461	OR	95	TMC2	O5	1	-0.65	15.9994
1462	HOCO	95	TMC2	H5	1	0.5	1.0079
1463	CB	96	MPD2	C	1	-0.15	12.011
1464	CB	96	MPD2	C1	1	0.117	12.011
1465	CB	96	MPD2	C2	1	-0.15	12.011
1466	CB	96	MPD2	C3	1	0.117	12.011
1467	CB	96	MPD2	C4	1	-0.15	12.011
1468	CB	96	MPD2	C5	1	-0.15	12.011
1469	HCMM	96	MPD2	H	1	0.15	1.0079
1470	HCMM	96	MPD2	H1	1	0.15	1.0079
1471	HCMM	96	MPD2	H2	1	0.15	1.0079
1472	HCMM	96	MPD2	H3	1	0.15	1.0079
1473	NC=O	96	MPD2	N	1	-0.547	14.0067
1474	HNCO	96	MPD2	H5	1	0.37	1.0079
1475	NC=O	96	MPD2	N1	1	-0.547	14.0067
1476	HNCO	96	MPD2	H7	1	0.37	1.0079
1477	CB	97	MPD2	C	1	-0.15	12.011
1478	CB	97	MPD2	C1	1	0.117	12.011
1479	CB	97	MPD2	C2	1	-0.15	12.011
1480	CB	97	MPD2	C3	1	0.117	12.011
1481	CB	97	MPD2	C4	1	-0.15	12.011
1482	CB	97	MPD2	C5	1	-0.15	12.011
1483	HCMM	97	MPD2	H	1	0.15	1.0079
1484	HCMM	97	MPD2	H1	1	0.15	1.0079
1485	HCMM	97	MPD2	H2	1	0.15	1.0079
1486	HCMM	97	MPD2	H3	1	0.15	1.0079
1487	NC=O	97	MPD2	N	1	-0.547	14.0067
1488	HNCO	97	MPD2	H5	1	0.37	1.0079
1489	NC=O	97	MPD2	N1	1	-0.547	14.0067
1490	HNCO	97	MPD2	H7	1	0.37	1.0079
1491	C=O	98	TCq2	C1	1	0.5438	12.011
1492	O=C	98	TCq2	O2	1	-0.57	15.9994
1493	CB	98	TCq2	C2	1	0.0862	12.011
1494	CB	98	TCq2	C3	1	-0.15	12.011
1495	CB	98	TCq2	C4	1	-0.179	12.011
1496	CB	98	TCq2	C5	1	-0.15	12.011
1497	CB	98	TCq2	C6	1	0.0862	12.011
1498	CB	98	TCq2	C7	1	-0.15	12.011
1499	C=O	98	TCq2	C8	1	0.5438	12.011
1500	O=C	98	TCq2	O4	1	-0.57	15.9994
1501	CO2M	98	TCq2	C9	1	0.979	12.011
1502	O2CM	98	TCq2	O5	1	-0.9	15.9994
1503	O2CM	98	TCq2	O6	1	-0.9	15.9994
1504	HCMM	98	TCq2	H2	1	0.15	1.0079
1505	HCMM	98	TCq2	H3	1	0.15	1.0079
1506	HCMM	98	TCq2	H4	1	0.15	1.0079
1507	CB	99	MPD2	C	1	-0.15	12.011
1508	CB	99	MPD2	C1	1	0.117	12.011
1509	CB	99	MPD2	C2	1	-0.15	12.011
1510	CB	99	MPD2	C3	1	0.117	12.011
1511	CB	99	MPD2	C4	1	-0.15	12.011
1512	CB	99	MPD2	C5	1	-0.15	12.011
1513	HCMM	99	MPD2	H	1	0.15	1.0079
1514	HCMM	99	MPD2	H1	1	0.15	1.0079
1515	HCMM	99	MPD2	H2	1	0.15	1.0079
1516	HCMM	99	MPD2	H3	1	0.15	1.0079
1517	NC=O	99	MPD2	N	1	-0.547	14.0067
1518	HNCO	99	MPD2	H5	1	0.37	1.0079
1519	NC=O	99	MPD2	N1	1	-0.547	14.0067
1520	HNCO	99	MPD2	H7	1	0.37	1.0079
1521	C=O	100	TCq2	C1	1	0.5438	12.011
1522	O=C	100	TCq2	O2	1	-0.57	15.9994
1523	CB	100	TCq2	C2	1	0.0862	12.011
1524	CB	100	TCq2	C3	1	-0.15	12.011
1525	CB	100	TCq2	C4	1	-0.179	12.011
1526	CB	100	TCq2	C5	1	-0.15	12.011
1527	CB	100	TCq2	C6	1	0.0862	12.011
1528	CB	100	TCq2	C7	1	-0.15	12.011
1529	C=O	100	TCq2	C8	1	0.5438	12.011
1530	O=C	100	TCq2	O4	1	-0.57	15.9994
1531	CO2M	100	TCq2	C9	1	0.979	12.011
1532	O2CM	100	TCq2	O5	1	-0.9	15.9994
1533	O2CM	100	TCq2	O6	1	-0.9	15.9994
1534	HCMM	100	TCq2	H2	1	0.15	1.0079
1535	HCMM	100	TCq2	H3	1	0.15	1.0079
1536	HCMM	100	TCq2	H4	1	0.15	1.0079
1537	CB	101	MPD2	C	1	-0.15	12.011
1538	CB	101	MPD2	C1	1	0.117	12.011
1539	CB	101	MPD2	C2	1	-0.15	12.011
1540	CB	101	MPD2	C3	1	0.117	12.011
1541	CB	101	MPD2	C4	1	-0.15	12.011
1542	CB	101	MPD2	C5	1	-0.15	12.011
1543	HCMM	101	MPD2	H	1	0.15	1.0079
1544	HCMM	101	MPD2	H1	1	0.15	1.0079
1545	HCMM	101	MPD2	H2	1	0.15	1.0079
1546	HCMM	101	MPD2	H3	1	0.15	1.0079
1547	NC=O	101	MPD2	N	1	-0.547	14.0067
1548	HNCO	101	MPD2	H5	1	0.37	1.0079
1549	NC=O	101	MPD2	N1	1	-0.547	14.0067
1550	HNCO	101	MPD2	H7	1	0.37	1.0079
1551	C=O	102	TCq2	C1	1	0.5438	12.011
1552	O=C	102	TCq2	O2	1	-0.57	15.9994
1553	CB	102	TCq2	C2	1	0.0862	12.011
1554	CB	102	TCq2	C3	1	-0.15	12.011
1555	CB	102	TCq2	C4	1	-0.179	12.011
1556	CB	102	TCq2	C5	1	-0.15	12.011
1557	CB	102	TCq2	C6	1	0.0862	12.011
1558	CB	102	TCq2	C7	1	-0.15	12.011
1559	C=O	102	TCq2	C8	1	0.5438	12.011
1560	O=C	102	TCq2	O4	1	-0.57	15.9994
1561	CO2M	102	TCq2	C9	1	0.979	12.011
1562	O2CM	102	TCq2	O5	1	-0.9	15.9994
1563	O2CM	102	TCq2	O6	1	-0.9	15.9994
1564	HCMM	102	TCq2	H2	1	0.15	1.0079
1565	HCMM	102	TCq2	H3	1	0.15	1.0079
1566	HCMM	102	TCq2	H4	1	0.15	1.0079
1567	CB	103	TMC2	C1	1	0.0862	12.011
1568	CB	103	TMC2	C2	1	-0.15	12.011
1569	CB	103	TMC2	C3	1	0.0862	12.011
1570	CB	103	TMC2	C4	1	-0.15	12.011
1571	CB	103	TMC2	C5	1	0.0862	12.011
1572	CB	103	TMC2	C6	1	-0.15	12.011
1573	C=O	103	TMC2	C	1	0.5438	12.011
1574	O=C	103	TMC2	O	1	-0.57	15.9994
1575	HCMM	103	TMC2	H	1	0.15	1.0079
1576	HCMM	103	TMC2	H1	1	0.15	1.0079
1577	HCMM	103	TMC2	H2	1	0.15	1.0079
1578	C=O	103	TMC2	C7	1	0.5438	12.011
1579	C=O	103	TMC2	C8	1	0.6338	12.011
1580	O=C	103	TMC2	O1	1	-0.57	15.9994
1581	O=C	103	TMC2	O2	1	-0.57	15.9994
1582	OR	103	TMC2	O5	1	-0.65	15.9994
1583	HOCO	103	TMC2	H5	1	0.5	1.0079
1584	CB	104	MPD2	C	1	-0.15	12.011
1585	CB	104	MPD2	C1	1	0.117	12.011
1586	CB	104	MPD2	C2	1	-0.15	12.011
1587	CB	104	MPD2	C3	1	0.117	12.011
1588	CB	104	MPD2	C4	1	-0.15	12.011
1589	CB	104	MPD2	C5	1	-0.15	12.011
1590	HCMM	104	MPD2	H	1	0.15	1.0079
1591	HCMM	104	MPD2	H1	1	0.15	1.0079
1592	HCMM	104	MPD2	H2	1	0.15	1.0079
1593	HCMM	104	MPD2	H3	1	0.15	1.0079
1594	NC=O	104	MPD2	N	1	-0.547	14.0067
1595	HNCO	104	MPD2	H5	1	0.37	1.0079
1596	NC=O	104	MPD2	N1	1	-0.547	14.0067
1597	HNCO	104	MPD2	H7	1	0.37	1.0079
1598	CB	105	MPD2	C	1	-0.15	12.011
1599	CB	105	MPD2	C1	1	0.117	12.011
1600	CB	105	MPD2	C2	1	-0.15	12.011
1601	CB	105	MPD2	C3	1	0.117	12.011
1602	CB	105	MPD2	C4	1	-0.15	12.011
1603	CB	105	MPD2	C5	1	-0.15	12.011
1604	HCMM	105	MPD2	H	1	0.15	1.0079
1605	HCMM	105	MPD2	H1	1	0.15	1.0079
1606	HCMM	105	MPD2	H2	1	0.15	1.0079
1607	HCMM	105	MPD2	H3	1	0.15	1.0079
1608	NC=O	105	MPD2	N	1	-0.547	14.0067
1609	HNCO	105	MPD2	H5	1	0.37	1.0079
1610	NC=O	105	MPD2	N1	1	-0.547	14.0067
1611	HNCO	105	MPD2	H7	1	0.37	1.0079
1612	C=O	106	TCq2	C1	1	0.5438	12.011
1613	O=C	106	TCq2	O2	1	-0.57	15.9994
1614	CB	106	TCq2	C2	1	0.0862	12.011
1615	CB	106	TCq2	C3	1	-0.15	12.011
1616	CB	106	TCq2	C4	1	-0.179	12.011
1617	CB	106	TCq2	C5	1	-0.15	12.011
1618	CB	106	TCq2	C6	1	0.0862	12.011
1619	CB	106	TCq2	C7	1	-0.15	12.011
1620	C=O	106	TCq2	C8	1	0.5438	12.011
1621	O=C	106	TCq2	O4	1	-0.57	15.9994
1622	CO2M	106	TCq2	C9	1	0.979	12.011
1623	O2CM	106	TCq2	O5	1	-0.9	15.9994
1624	O2CM	106	TCq2	O6	1	-0.9	15.9994
1625	HCMM	106	TCq2	H2	1	0.15	1.0079
1626	HCMM	106	TCq2	H3	1	0.15	1.0079
1627	HCMM	106	TCq2	H4	1	0.15	1.0079
1628	CB	107	TMC2	C1	1	0.0862	12.011
1629	CB	107	TMC2	C2	1	-0.15	12.011
1630	CB	107	TMC2	C3	1	0.0862	12.011
1631	CB	107	TMC2	C4	1	-0.15	12.011
1632	CB	107	TMC2	C5	1	0.0862	12.011
1633	CB	107	TMC2	C6	1	-0.15	12.011
1634	C=O	107	TMC2	C	1	0.5438	12.011
1635	O=C	107	TMC2	O	1	-0.57	15.9994
1636	HCMM	107	TMC2	H	1	0.15	1.0079
1637	HCMM	107	TMC2	H1	1	0.15	1.0079
1638	HCMM	107	TMC2	H2	1	0.15	1.0079
1639	C=O	107	TMC2	C7	1	0.5438	12.011
1640	C=O	107	TMC2	C8	1	0.6338	12.011
1641	O=C	107	TMC2	O1	1	-0.57	15.9994
1642	O=C	107	TMC2	O2	1	-0.57	15.9994
1643	OR	107	TMC2	O5	1	-0.65	15.9994
1644	HOCO	107	TMC2	H5	1	0.5	1.0079
1645	CB	108	MPD2	C	1	-0.15	12.011
1646	CB	108	MPD2	C1	1	0.117	12.011
1647	CB	108	MPD2	C2	1	-0.15	12.011
1648	CB	108	MPD2	C3	1	0.117	12.011
1649	CB	108	MPD2	C4	1	-0.15	12.011
1650	CB	108	MPD2	C5	1	-0.15	12.011
1651	HCMM	108	MPD2	H	1	0.15	1.0079
1652	HCMM	108	MPD2	H1	1	0.15	1.0079
1653	HCMM	108	MPD2	H2	1	0.15	1.0079
1654	HCMM	108	MPD2	H3	1	0.15	1.0079
1655	NC=O	108	MPD2	N	1	-0.547	14.0067
1656	HNCO	108	MPD2	H5	1	0.37	1.0079
1657	NC=O	108	MPD2	N1	1	-0.547	14.0067
1658	HNCO	108	MPD2	H7	1	0.37	1.0079
1659	CB	109	MPD2	C	1	-0.15	12.011
1660	CB	109	MPD2	C1	1	0.117	12.011
1661	CB	109	MPD2	C2	1	-0.15	12.011
1662	CB	109	MPD2	C3	1	0.117	12.011
1663	CB	109	MPD2	C4	1	-0.15	12.011
1664	CB	109	MPD2	C5	1	-0.15	12.011
1665	HCMM	109	MPD2	H	1	0.15	1.0079
1666	HCMM	109	MPD2	H1	1	0.15	1.0079
1667	HCMM	109	MPD2	H2	1	0.15	1.0079
1668	HCMM	109	MPD2	H3	1	0.15	1.0079
1669	NC=O	109	MPD2	N	1	-0.547	14.0067
1670	HNCO	109	MPD2	H5	1	0.37	1.0079
1671	NC=O	109	MPD2	N1	1	-0.547	14.0067
1672	HNCO	109	MPD2	H7	1	0.37	1.0079
1673	C=O	110	TCq2	C1	1	0.5438	12.011
1674	O=C	110	TCq2	O2	1	-0.57	15.9994
1675	CB	110	TCq2	C2	1	0.0862	12.011
1676	CB	110	TCq2	C3	1	-0.15	12.011
1677	CB	110	TCq2	C4	1	-0.179	12.011
1678	CB	110	TCq2	C5	1	-0.15	12.011
1679	CB	110	TCq2	C6	1	0.0862	12.011
1680	CB	110	TCq2	C7	1	-0.15	12.011
1681	C=O	110	TCq2	C8	1	0.5438	12.011
1682	O=C	110	TCq2	O4	1	-0.57	15.9994
1683	CO2M	110	TCq2	C9	1	0.979	12.011
1684	O2CM	110	TCq2	O5	1	-0.9	15.9994
1685	O2CM	110	TCq2	O6	1	-0.9	15.9994
1686	HCMM	110	TCq2	H2	1	0.15	1.0079
1687	HCMM	110	TCq2	H3	1	0.15	1.0079
1688	HCMM	110	TCq2	H4	1	0.15	1.0079
1689	CB	111	TMC2	C1	1	0.0862	12.011
1690	CB	111	TMC2	C2	1	-0.15	12.011
1691	CB	111	TMC2	C3	1	0.0862	12.011
1692	CB	111	TMC2	C4	1	-0.15	12.011
1693	CB	111	TMC2	C5	1	0.0862	12.011
1694	CB	111	TMC2	C6	1	-0.15	12.011
1695	C=O	111	TMC2	C	1	0.5438	12.011
1696	O=C	111	TMC2	O	1	-0.57	15.9994
1697	HCMM	111	TMC2	H	1	0.15	1.0079
1698	HCMM	111	TMC2	H1	1	0.15	1.0079
1699	HCMM	111	TMC2	H2	1	0.15	1.0079
1700	C=O	111	TMC2	C7	1	0.5438	12.011
1701	C=O	111	TMC2	C8	1	0.6338	12.011
1702	O=C	111	TMC2	O1	1	-0.57	15.9994
1703	O=C	111	TMC2	O2	1	-0.57	15.9994
1704	OR	111	TMC2	O5	1	-0.65	15.9994
1705	HOCO	111	TMC2	H5	1	0.5	1.0079
1706	CB	112	MPD2	C	1	-0.15	12.011
1707	CB	112	MPD2	C1	1	0.117	12.011
1708	CB	112	MPD2	C2	1	-0.15	12.011
1709	CB	112	MPD2	C3	1	0.117	12.011
1710	CB	112	MPD2	C4	1	-0.15	12.011
1711	CB	112	MPD2	C5	1	-0.15	12.011
1712	HCMM	112	MPD2	H	1	0.15	1.0079
1713	HCMM	112	MPD2	H1	1	0.15	1.0079
1714	HCMM	112	MPD2	H2	1	0.15	1.0079
1715	HCMM	112	MPD2	H3	1	0.15	1.0079
1716	NC=O	112	MPD2	N	1	-0.547	14.0067
1717	HNCO	112	MPD2	H5	1	0.37	1.0079
1718	NC=O	112	MPD2	N1	1	-0.547	14.0067
1719	HNCO	112	MPD2	H7	1	0.37	1.0079
1720	CB	113	MPD2	C	1	-0.15	12.011
1721	CB	113	MPD2	C1	1	0.117	12.011
1722	CB	113	MPD2	C2	1	-0.15	12.011
1723	CB	113	MPD2	C3	1	0.117	12.011
1724	CB	113	MPD2	C4	1	-0.15	12.011
1725	CB	113	MPD2	C5	1	-0.15	12.011
1726	HCMM	113	MPD2	H	1	0.15	1.0079
1727	HCMM	113	MPD2	H1	1	0.15	1.0079
1728	HCMM	113	MPD2	H2	1	0.15	1.0079
1729	HCMM	113	MPD2	H3	1	0.15	1.0079
1730	NC=O	113	MPD2	N	1	-0.547	14.0067
1731	HNCO	113	MPD2	H5	1	0.37	1.0079
1732	NC=O	113	MPD2	N1	1	-0.547	14.0067
1733	HNCO	113	MPD2	H7	1	0.37	1.0079
1734	C=O	114	TCq2	C1	1	0.5438	12.011
1735	O=C	114	TCq2	O2	1	-0.57	15.9994
1736	CB	114	TCq2	C2	1	0.0862	12.011
1737	CB	114	TCq2	C3	1	-0.15	12.011
1738	CB	114	TCq2	C4	1	-0.179	12.011
1739	CB	114	TCq2	C5	1	-0.15	12.011
1740	CB	114	TCq2	C6	1	0.0862	12.011
1741	CB	114	TCq2	C7	1	-0.15	12.011
1742	C=O	114	TCq2	C8	1	0.5438	12.011
1743	O=C	114	TCq2	O4	1	-0.57	15.9994
1744	CO2M	114	TCq2	C9	1	0.979	12.011
1745	O2CM	114	TCq2	O5	1	-0.9	15.9994
1746	O2CM	114	TCq2	O6	1	-0.9	15.9994
1747	HCMM	114	TCq2	H2	1	0.15	1.0079
1748	HCMM	114	TCq2	H3	1	0.15	1.0079
1749	HCMM	114	TCq2	H4	1	0.15	1.0079
1750	CB	115	TMC2	C1	1	0.0862	12.011
1751	CB	115	TMC2	C2	1	-0.15	12.011
1752	CB	115	TMC2	C3	1	0.0862	12.011
1753	CB	115	TMC2	C4	1	-0.15	12.011
1754	CB	115	TMC2	C5	1	0.0862	12.011
1755	CB	115	TMC2	C6	1	-0.15	12.011
1756	C=O	115	TMC2	C	1	0.5438	12.011
1757	O=C	115	TMC2	O	1	-0.57	15.9994
1758	HCMM	115	TMC2	H	1	0.15	1.0079
1759	HCMM	115	TMC2	H1	1	0.15	1.0079
1760	HCMM	115	TMC2	H2	1	0.15	1.0079
1761	C=O	115	TMC2	C7	1	0.5438	12.011
1762	C=O	115	TMC2	C8	1	0.6338	12.011
1763	O=C	115	TMC2	O1	1	-0.57	15.9994
1764	O=C	115	TMC2	O2	1	-0.57	15.9994
1765	OR	115	TMC2	O5	1	-0.65	15.9994
1766	HOCO	115	TMC2	H5	1	0.5	1.0079
1767	CB	116	MPD2	C	1	-0.15	12.011
1768	CB	116	MPD2	C1	1	0.117	12.011
1769	CB	116	MPD2	C2	1	-0.15	12.011
1770	CB	116	MPD2	C3	1	0.117	12.011
1771	CB	116	MPD2	C4	1	-0.15	12.011
1772	CB	116	MPD2	C5	1	-0.15	12.011
1773	HCMM	116	MPD2	H	1	0.15	1.0079
1774	HCMM	116	MPD2	H1	1	0.15	1.0079
1775	HCMM	116	MPD2	H2	1	0.15	1.0079
1776	HCMM	116	MPD2	H3	1	0.15	1.0079
1777	NC=O	116	MPD2	N	1	-0.547	14.0067
1778	HNCO	116	MPD2	H5	1	0.37	1.0079
1779	NC=O	116	MPD2	N1	1	-0.547	14.0067
1780	HNCO	116	MPD2	H7	1	0.37	1.0079
1781	CB	117	TMC2	C1	1	0.0862	12.011
1782	CB	117	TMC2	C2	1	-0.15	12.011
1783	CB	117	TMC2	C3	1	0.0862	12.011
1784	CB	117	TMC2	C4	1	-0.15	12.011
1785	CB	117	TMC2	C5	1	0.0862	12.011
1786	CB	117	TMC2	C6	1	-0.15	12.011
1787	C=O	117	TMC2	C	1	0.5438	12.011
1788	O=C	117	TMC2	O	1	-0.57	15.9994
1789	HCMM	117	TMC2	H	1	0.15	1.0079
1790	HCMM	117	TMC2	H1	1	0.15	1.0079
1791	HCMM	117	TMC2	H2	1	0.15	1.0079
1792	C=O	117	TMC2	C7	1	0.5438	12.011
1793	C=O	117	TMC2	C8	1	0.6338	12.011
1794	O=C	117	TMC2	O1	1	-0.57	15.9994
1795	O=C	117	TMC2	O2	1	-0.57	15.9994
1796	OR	117	TMC2	O5	1	-0.65	15.9994
1797	HOCO	117	TMC2	H5	1	0.5	1.0079
1798	CB	118	MPD2	C	1	-0.15	12.011
1799	CB	118	MPD2	C1	1	0.117	12.011
1800	CB	118	MPD2	C2	1	-0.15	12.011
1801	CB	118	MPD2	C3	1	0.117	12.011
1802	CB	118	MPD2	C4	1	-0.15	12.011
1803	CB	118	MPD2	C5	1	-0.15	12.011
1804	HCMM	118	MPD2	H	1	0.15	1.0079
1805	HCMM	118	MPD2	H1	1	0.15	1.0079
1806	HCMM	118	MPD2	H2	1	0.15	1.0079
1807	HCMM	118	MPD2	H3	1	0.15	1.0079
1808	NC=O	118	MPD2	N	1	-0.547	14.0067
1809	HNCO	118	MPD2	H5	1	0.37	1.0079
1810	NC=O	118	MPD2	N1	1	-0.547	14.0067
1811	HNCO	118	MPD2	H7	1	0.37	1.0079
1812	CB	119	MPD2	C	1	-0.15	12.011
1813	CB	119	MPD2	C1	1	0.117	12.011
1814	CB	119	MPD2	C2	1	-0.15	12.011
1815	CB	119	MPD2	C3	1	0.117	12.011
1816	CB	119	MPD2	C4	1	-0.15	12.011
1817	CB	119	MPD2	C5	1	-0.15	12.011
1818	HCMM	119	MPD2	H	1	0.15	1.0079
1819	HCMM	119	MPD2	H1	1	0.15	1.0079
1820	HCMM	119	MPD2	H2	1	0.15	1.0079
1821	HCMM	119	MPD2	H3	1	0.15	1.0079
1822	NC=O	119	MPD2	N	1	-0.547	14.0067
1823	HNCO	119	MPD2	H5	1	0.37	1.0079
1824	NC=O	119	MPD2	N1	1	-0.547	14.0067
1825	HNCO	119	MPD2	H7	1	0.37	1.0079
1826	C=O	120	TCq2	C1	1	0.5438	12.011
1827	O=C	120	TCq2	O2	1	-0.57	15.9994
1828	CB	120	TCq2	C2	1	0.0862	12.011
1829	CB	120	TCq2	C3	1	-0.15	12.011
1830	CB	120	TCq2	C4	1	-0.179	12.011
1831	CB	120	TCq2	C5	1	-0.15	12.011
1832	CB	120	TCq2	C6	1	0.0862	12.011
1833	CB	120	TCq2	C7	1	-0.15	12.011
1834	C=O	120	TCq2	C8	1	0.5438	12.011
1835	O=C	120	TCq2	O4	1	-0.57	15.9994
1836	CO2M	120	TCq2	C9	1	0.979	12.011
1837	O2CM	120	TCq2	O5	1	-0.9	15.9994
1838	O2CM	120	TCq2	O6	1	-0.9	15.9994
1839	HCMM	120	TCq2	H2	1	0.15	1.0079
1840	HCMM	120	TCq2	H3	1	0.15	1.0079
1841	HCMM	120	TCq2	H4	1	0.15	1.0079
1842	CB	121	TMC2	C1	1	0.0862	12.011
1843	CB	121	TMC2	C2	1	-0.15	12.011
1844	CB	121	TMC2	C3	1	0.0862	12.011
1845	CB	121	TMC2	C4	1	-0.15	12.011
1846	CB	121	TMC2	C5	1	0.0862	12.011
1847	CB	121	TMC2	C6	1	-0.15	12.011
1848	C=O	121	TMC2	C	1	0.5438	12.011
1849	O=C	121	TMC2	O	1	-0.57	15.9994
1850	HCMM	121	TMC2	H	1	0.15	1.0079
1851	HCMM	121	TMC2	H1	1	0.15	1.0079
1852	HCMM	121	TMC2	H2	1	0.15	1.0079
1853	C=O	121	TMC2	C7	1	0.5438	12.011
1854	C=O	121	TMC2	C8	1	0.6338	12.011
1855	O=C	121	TMC2	O1	1	-0.57	15.9994
1856	O=C	121	TMC2	O2	1	-0.57	15.9994
1857	OR	121	TMC2	O5	1	-0.65	15.9994
1858	HOCO	121	TMC2	H5	1	0.5	1.0079
1859	CB	122	MPD2	C	1	-0.15	12.011
1860	CB	122	MPD2	C1	1	0.117	12.011
1861	CB	122	MPD2	C2	1	-0.15	12.011
1862	CB	122	MPD2	C3	1	0.117	12.011
1863	CB	122	MPD2	C4	1	-0.15	12.011
1864	CB	122	MPD2	C5	1	-0.15	12.011
1865	HCMM	122	MPD2	H	1	0.15	1.0079
1866	HCMM	122	MPD2	H1	1	0.15	1.0079
1867	HCMM	122	MPD2	H2	1	0.15	1.0079
1868	HCMM	122	MPD2	H3	1	0.15	1.0079
1869	NC=O	122	MPD2	N	1	-0.547	14.0067
1870	HNCO	122	MPD2	H5	1	0.37	1.0079
1871	NC=O	122	MPD2	N1	1	-0.547	14.0067
1872	HNCO	122	MPD2	H7	1	0.37	1.0079
1873	CB	123	MPD2	C	1	-0.15	12.011
1874	CB	123	MPD2	C1	1	0.117	12.011
1875	CB	123	MPD2	C2	1	-0.15	12.011
1876	CB	123	MPD2	C3	1	0.117	12.011
1877	CB	123	MPD2	C4	1	-0.15	12.011
1878	CB	123	MPD2	C5	1	-0.15	12.011
1879	HCMM	123	MPD2	H	1	0.15	1.0079
1880	HCMM	123	MPD2	H1	1	0.15	1.0079
1881	HCMM	123	MPD2	H2	1	0.15	1.0079
1882	HCMM	123	MPD2	H3	1	0.15	1.0079
1883	NC=O	123	MPD2	N	1	-0.547	14.0067
1884	HNCO	123	MPD2	H5	1	0.37	1.0079
1885	NC=O	123	MPD2	N1	1	-0.547	14.0067
1886	HNCO	123	MPD2	H7	1	0.37	1.0079
1887	C=O	124	TCq2	C1	1	0.5438	12.011
1888	O=C	124	TCq2	O2	1	-0.57	15.9994
1889	CB	124	TCq2	C2	1	0.0862	12.011
1890	CB	124	TCq2	C3	1	-0.15	12.011
1891	CB	124	TCq2	C4	1	-0.179	12.011
1892	CB	124	TCq2	C5	1	-0.15	12.011
1893	CB	124	TCq2	C6	1	0.0862	12.011
1894	CB	124	TCq2	C7	1	-0.15	12.011
1895	C=O	124	TCq2	C8	1	0.5438	12.011
1896	O=C	124	TCq2	O4	1	-0.57	15.9994
1897	CO2M	124	TCq2	C9	1	0.979	12.011
1898	O2CM	124	TCq2	O5	1	-0.9	15.9994
1899	O2CM	124	TCq2	O6	1	-0.9	15.9994
1900	HCMM	124	TCq2	H2	1	0.15	1.0079
1901	HCMM	124	TCq2	H3	1	0.15	1.0079
1902	HCMM	124	TCq2	H4	1	0.15	1.0079
1903	CB	125	TMC2	C1	1	0.0862	12.011
1904	CB	125	TMC2	C2	1	-0.15	12.011
1905	CB	125	TMC2	C3	1	0.0862	12.011
1906	CB	125	TMC2	C4	1	-0.15	12.011
1907	CB	125	TMC2	C5	1	0.0862	12.011
1908	CB	125	TMC2	C6	1	-0.15	12.011
1909	C=O	125	TMC2	C	1	0.5438	12.011
1910	O=C	125	TMC2	O	1	-0.57	15.9994
1911	HCMM	125	TMC2	H	1	0.15	1.0079
1912	HCMM	125	TMC2	H1	1	0.15	1.0079
1913	HCMM	125	TMC2	H2	1	0.15	1.0079
1914	C=O	125	TMC2	C7	1	0.5438	12.011
1915	C=O	125	TMC2	C8	1	0.6338	12.011
1916	O=C	125	TMC2	O1	1	-0.57	15.9994
1917	O=C	125	TMC2	O2	1	-0.57	15.9994
1918	OR	125	TMC2	O5	1	-0.65	15.9994
1919	HOCO	125	TMC2	H5	1	0.5	1.0079
1920	CB	126	MPD1	C	1	-0.15	12.011
1921	CB	126	MPD1	C1	1	0.1	12.011
1922	CB	126	MPD1	C2	1	-0.15	12.011
1923	CB	126	MPD1	C3	1	0.117	12.011
1924	CB	126	MPD1	C4	1	-0.15	12.011
1925	CB	126	MPD1	C5	1	-0.15	12.011
1926	HCMM	126	MPD1	H	1	0.15	1.0079
1927	HCMM	126	MPD1	H1	1	0.15	1.0079
1928	HCMM	126	MPD1	H2	1	0.15	1.0079
1929	HCMM	126	MPD1	H3	1	0.15	1.0079
1930	NC=O	126	MPD1	N	1	-0.547	14.0067
1931	HNCO	126	MPD1	H5	1	0.37	1.0079
1932	NC=C	126	MPD1	N1	1	-0.9	14.0067
1933	HNCO	126	MPD1	H6	1	0.4	1.0079
1934	HNCO	126	MPD1	H7	1	0.4	1.0079
1935	CB	127	MPD2	C	1	-0.15	12.011
1936	CB	127	MPD2	C1	1	0.117	12.011
1937	CB	127	MPD2	C2	1	-0.15	12.011
1938	CB	127	MPD2	C3	1	0.117	12.011
1939	CB	127	MPD2	C4	1	-0.15	12.011
1940	CB	127	MPD2	C5	1	-0.15	12.011
1941	HCMM	127	MPD2	H	1	0.15	1.0079
1942	HCMM	127	MPD2	H1	1	0.15	1.0079
1943	HCMM	127	MPD2	H2	1	0.15	1.0079
1944	HCMM	127	MPD2	H3	1	0.15	1.0079
1945	NC=O	127	MPD2	N	1	-0.547	14.0067
1946	HNCO	127	MPD2	H5	1	0.37	1.0079
1947	NC=O	127	MPD2	N1	1	-0.547	14.0067
1948	HNCO	127	MPD2	H7	1	0.37	1.0079
1949	C=O	128	TCq2	C1	1	0.5438	12.011
1950	O=C	128	TCq2	O2	1	-0.57	15.9994
1951	CB	128	TCq2	C2	1	0.0862	12.011
1952	CB	128	TCq2	C3	1	-0.15	12.011
1953	CB	128	TCq2	C4	1	-0.179	12.011
1954	CB	128	TCq2	C5	1	-0.15	12.011
1955	CB	128	TCq2	C6	1	0.0862	12.011
1956	CB	128	TCq2	C7	1	-0.15	12.011
1957	C=O	128	TCq2	C8	1	0.5438	12.011
1958	O=C	128	TCq2	O4	1	-0.57	15.9994
1959	CO2M	128	TCq2	C9	1	0.979	12.011
1960	O2CM	128	TCq2	O5	1	-0.9	15.9994
1961	O2CM	128	TCq2	O6	1	-0.9	15.9994
1962	HCMM	128	TCq2	H2	1	0.15	1.0079
1963	HCMM	128	TCq2	H3	1	0.15	1.0079
1964	HCMM	128	TCq2	H4	1	0.15	1.0079
1965	CB	129	MPD2	C	1	-0.15	12.011
1966	CB	129	MPD2	C1	1	0.117	12.011
1967	CB	129	MPD2	C2	1	-0.15	12.011
1968	CB	129	MPD2	C3	1	0.117	12.011
1969	CB	129	MPD2	C4	1	-0.15	12.011
1970	CB	129	MPD2	C5	1	-0.15	12.011
1971	HCMM	129	MPD2	H	1	0.15	1.0079
1972	HCMM	129	MPD2	H1	1	0.15	1.0079
1973	HCMM	129	MPD2	H2	1	0.15	1.0079
1974	HCMM	129	MPD2	H3	1	0.15	1.0079
1975	NC=O	129	MPD2	N	1	-0.547	14.0067
1976	HNCO	129	MPD2	H5	1	0.37	1.0079
1977	NC=O	129	MPD2	N1	1	-0.547	14.0067
1978	HNCO	129	MPD2	H7	1	0.37	1.0079
1979	C=O	130	TCq2	C1	1	0.5438	12.011
1980	O=C	130	TCq2	O2	1	-0.57	15.9994
1981	CB	130	TCq2	C2	1	0.0862	12.011
1982	CB	130	TCq2	C3	1	-0.15	12.011
1983	CB	130	TCq2	C4	1	-0.179	12.011
1984	CB	130	TCq2	C5	1	-0.15	12.011
1985	CB	130	TCq2	C6	1	0.0862	12.011
1986	CB	130	TCq2	C7	1	-0.15	12.011
1987	C=O	130	TCq2	C8	1	0.5438	12.011
1988	O=C	130	TCq2	O4	1	-0.57	15.9994
1989	CO2M	130	TCq2	C9	1	0.979	12.011
1990	O2CM	130	TCq2	O5	1	-0.9	15.9994
1991	O2CM	130	TCq2	O6	1	-0.9	15.9994
1992	HCMM	130	TCq2	H2	1	0.15	1.0079
1993	HCMM	130	TCq2	H3	1	0.15	1.0079
1994	HCMM	130	TCq2	H4	1	0.15	1.0079
1995	CB	131	MPD2	C	1	-0.15	12.011
1996	CB	131	MPD2	C1	1	0.117	12.011
1997	CB	131	MPD2	C2	1	-0.15	12.011
1998	CB	131	MPD2	C3	1	0.117	12.011
1999	CB	131	MPD2	C4	1	-0.15	12.011
2000	CB	131	MPD2	C5	1	-0.15	12.011
2001	HCMM	131	MPD2	H	1	0.15	1.0079
2002	HCMM	131	MPD2	H1	1	0.15	1.0079
2003	HCMM	131	MPD2	H2	1	0.15	1.0079
2004	HCMM	131	MPD2	H3	1	0.15	1.0079
2005	NC=O	131	MPD2	N	1	-0.547	14.0067
2006	HNCO	131	MPD2	H5	1	0.37	1.0079
2007	NC=O	131	MPD2	N1	1	-0.547	14.0067
2008	HNCO	131	MPD2	H7	1	0.37	1.0079
2009	C=O	132	TCq2	C1	1	0.5438	12.011
2010	O=C	132	TCq2	O2	1	-0.57	15.9994
2011	CB	132	TCq2	C2	1	0.0862	12.011
2012	CB	132	TCq2	C3	1	-0.15	12.011
2013	CB	132	TCq2	C4	1	-0.179	12.011
2014	CB	132	TCq2	C5	1	-0.15	12.011
2015	CB	132	TCq2	C6	1	0.0862	12.011
2016	CB	132	TCq2	C7	1	-0.15	12.011
2017	C=O	132	TCq2	C8	1	0.5438	12.011
2018	O=C	132	TCq2	O4	1	-0.57	15.9994
2019	CO2M	132	TCq2	C9	1	0.979	12.011
2020	O2CM	132	TCq2	O5	1	-0.9	15.9994
2021	O2CM	132	TCq2	O6	1	-0.9	15.9994
2022	HCMM	132	TCq2	H2	1	0.15	1.0079
2023	HCMM	132	TCq2	H3	1	0.15	1.0079
2024	HCMM	132	TCq2	H4	1	0.15	1.0079
2025	CB	133	MPD2	C	1	-0.15	12.011
2026	CB	133	MPD2	C1	1	0.117	12.011
2027	CB	133	MPD2	C2	1	-0.15	12.011
2028	CB	133	MPD2	C3	1	0.117	12.011
2029	CB	133	MPD2	C4	1	-0.15	12.011
2030	CB	133	MPD2	C5	1	-0.15	12.011
2031	HCMM	133	MPD2	H	1	0.15	1.0079
2032	HCMM	133	MPD2	H1	1	0.15	1.0079
2033	HCMM	133	MPD2	H2	1	0.15	1.0079
2034	HCMM	133	MPD2	H3	1	0.15	1.0079
2035	NC=O	133	MPD2	N	1	-0.547	14.0067
2036	HNCO	133	MPD2	H5	1	0.37	1.0079
2037	NC=O	133	MPD2	N1	1	-0.547	14.0067
2038	HNCO	133	MPD2	H7	1	0.37	1.0079
2039	C=O	134	TCq2	C1	1	0.5438	12.011
2040	O=C	134	TCq2	O2	1	-0.57	15.9994
2041	CB	134	TCq2	C2	1	0.0862	12.011
2042	CB	134	TCq2	C3	1	-0.15	12.011
2043	CB	134	TCq2	C4	1	-0.179	12.011
2044	CB	134	TCq2	C5	1	-0.15	12.011
2045	CB	134	TCq2	C6	1	0.0862	12.011
2046	CB	134	TCq2	C7	1	-0.15	12.011
2047	C=O	134	TCq2	C8	1	0.5438	12.011
2048	O=C	134	TCq2	O4	1	-0.57	15.9994
2049	CO2M	134	TCq2	C9	1	0.979	12.011
2050	O2CM	134	TCq2	O5	1	-0.9	15.9994
2051	O2CM	134	TCq2	O6	1	-0.9	15.9994
2052	HCMM	134	TCq2	H2	1	0.15	1.0079
2053	HCMM	134	TCq2	H3	1	0.15	1.0079
2054	HCMM	134	TCq2	H4	1	0.15	1.0079
2055	CB	135	MPD2	C	1	-0.15	12.011
2056	CB	135	MPD2	C1	1	0.117	12.011
2057	CB	135	MPD2	C2	1	-0.15	12.011
2058	CB	135	MPD2	C3	1	0.117	12.011
2059	CB	135	MPD2	C4	1	-0.15	12.011
2060	CB	135	MPD2	C5	1	-0.15	12.011
2061	HCMM	135	MPD2	H	1	0.15	1.0079
2062	HCMM	135	MPD2	H1	1	0.15	1.0079
2063	HCMM	135	MPD2	H2	1	0.15	1.0079
2064	HCMM	135	MPD2	H3	1	0.15	1.0079
2065	NC=O	135	MPD2	N	1	-0.547	14.0067
2066	HNCO	135	MPD2	H5	1	0.37	1.0079
2067	NC=O	135	MPD2	N1	1	-0.547	14.0067
2068	HNCO	135	MPD2	H7	1	0.37	1.0079
2069	C=O	136	TCq2	C1	1	0.5438	12.011
2070	O=C	136	TCq2	O2	1	-0.57	15.9994
2071	CB	136	TCq2	C2	1	0.0862	12.011
2072	CB	136	TCq2	C3	1	-0.15	12.011
2073	CB	136	TCq2	C4	1	-0.179	12.011
2074	CB	136	TCq2	C5	1	-0.15	12.011
2075	CB	136	TCq2	C6	1	0.0862	12.011
2076	CB	136	TCq2	C7	1	-0.15	12.011
2077	C=O	136	TCq2	C8	1	0.5438	12.011
2078	O=C	136	TCq2	O4	1	-0.57	15.9994
2079	CO2M	136	TCq2	C9	1	0.979	12.011
2080	O2CM	136	TCq2	O5	1	-0.9	15.9994
2081	O2CM	136	TCq2	O6	1	-0.9	15.9994
2082	HCMM	136	TCq2	H2	1	0.15	1.0079
2083	HCMM	136	TCq2	H3	1	0.15	1.0079
2084	HCMM	136	TCq2	H4	1	0.15	1.0079
2085	CB	137	MPD2	C	1	-0.15	12.011
2086	CB	137	MPD2	C1	1	0.117	12.011
2087	CB	137	MPD2	C2	1	-0.15	12.011
2088	CB	137	MPD2	C3	1	0.117	12.011
2089	CB	137	MPD2	C4	1	-0.15	12.011
2090	CB	137	MPD2	C5	1	-0.15	12.011
2091	HCMM	137	MPD2	H	1	0.15	1.0079
2092	HCMM	137	MPD2	H1	1	0.15	1.0079
2093	HCMM	137	MPD2	H2	1	0.15	1.0079
2094	HCMM	137	MPD2	H3	1	0.15	1.0079
2095	NC=O	137	MPD2	N	1	-0.547	14.0067
2096	HNCO	137	MPD2	H5	1	0.37	1.0079
2097	NC=O	137	MPD2	N1	1	-0.547	14.0067
2098	HNCO	137	MPD2	H7	1	0.37	1.0079
2099	C=O	138	TCq2	C1	1	0.5438	12.011
2100	O=C	138	TCq2	O2	1	-0.57	15.9994
2101	CB	138	TCq2	C2	1	0.0862	12.011
2102	CB	138	TCq2	C3	1	-0.15	12.011
2103	CB	138	TCq2	C4	1	-0.179	12.011
2104	CB	138	TCq2	C5	1	-0.15	12.011
2105	CB	138	TCq2	C6	1	0.0862	12.011
2106	CB	138	TCq2	C7	1	-0.15	12.011
2107	C=O	138	TCq2	C8	1	0.5438	12.011
2108	O=C	138	TCq2	O4	1	-0.57	15.9994
2109	CO2M	138	TCq2	C9	1	0.979	12.011
2110	O2CM	138	TCq2	O5	1	-0.9	15.9994
2111	O2CM	138	TCq2	O6	1	-0.9	15.9994
2112	HCMM	138	TCq2	H2	1	0.15	1.0079
2113	HCMM	138	TCq2	H3	1	0.15	1.0079
2114	HCMM	138	TCq2	H4	1	0.15	1.0079
2115	CB	139	TMC2	C1	1	0.0862	12.011
2116	CB	139	TMC2	C2	1	-0.15	12.011
2117	CB	139	TMC2	C3	1	0.0862	12.011
2118	CB	139	TMC2	C4	1	-0.15	12.011
2119	CB	139	TMC2	C5	1	0.0862	12.011
2120	CB	139	TMC2	C6	1	-0.15	12.011
2121	C=O	139	TMC2	C	1	0.5438	12.011
2122	O=C	139	TMC2	O	1	-0.57	15.9994
2123	HCMM	139	TMC2	H	1	0.15	1.0079
2124	HCMM	139	TMC2	H1	1	0.15	1.0079
2125	HCMM	139	TMC2	H2	1	0.15	1.0079
2126	C=O	139	TMC2	C7	1	0.5438	12.011
2127	C=O	139	TMC2	C8	1	0.6338	12.011
2128	O=C	139	TMC2	O1	1	-0.57	15.9994
2129	O=C	139	TMC2	O2	1	-0.57	15.9994
2130	OR	139	TMC2	O5	1	-0.65	15.9994
2131	HOCO	139	TMC2	H5	1	0.5	1.0079
2132	CB	140	MPD2	C	1	-0.15	12.011
2133	CB	140	MPD2	C1	1	0.117	12.011
2134	CB	140	MPD2	C2	1	-0.15	12.011
2135	CB	140	MPD2	C3	1	0.117	12.011
2136	CB	140	MPD2	C4	1	-0.15	12.011
2137	CB	140	MPD2	C5	1	-0.15	12.011
2138	HCMM	140	MPD2	H	1	0.15	1.0079
2139	HCMM	140	MPD2	H1	1	0.15	1.0079
2140	HCMM	140	MPD2	H2	1	0.15	1.0079
2141	HCMM	140	MPD2	H3	1	0.15	1.0079
2142	NC=O	140	MPD2	N	1	-0.547	14.0067
2143	HNCO	140	MPD2	H5	1	0.37	1.0079
2144	NC=O	140	MPD2	N1	1	-0.547	14.0067
2145	HNCO	140	MPD2	H7	1	0.37	1.0079
2146	C=O	141	TCq2	C1	1	0.5438	12.011
2147	O=C	141	TCq2	O2	1	-0.57	15.9994
2148	CB	141	TCq2	C2	1	0.0862	12.011
2149	CB	141	TCq2	C3	1	-0.15	12.011
2150	CB	141	TCq2	C4	1	-0.179	12.011
2151	CB	141	TCq2	C5	1	-0.15	12.011
2152	CB	141	TCq2	C6	1	0.0862	12.011
2153	CB	141	TCq2	C7	1	-0.15	12.011
2154	C=O	141	TCq2	C8	1	0.5438	12.011
2155	O=C	141	TCq2	O4	1	-0.57	15.9994
2156	CO2M	141	TCq2	C9	1	0.979	12.011
2157	O2CM	141	TCq2	O5	1	-0.9	15.9994
2158	O2CM	141	TCq2	O6	1	-0.9	15.9994
2159	HCMM	141	TCq2	H2	1	0.15	1.0079
2160	HCMM	141	TCq2	H3	1	0.15	1.0079
2161	HCMM	141	TCq2	H4	1	0.15	1.0079
2162	CB	142	MPD2	C	1	-0.15	12.011
2163	CB	142	MPD2	C1	1	0.117	12.011
2164	CB	142	MPD2	C2	1	-0.15	12.011
2165	CB	142	MPD2	C3	1	0.117	12.011
2166	CB	142	MPD2	C4	1	-0.15	12.011
2167	CB	142	MPD2	C5	1	-0.15	12.011
2168	HCMM	142	MPD2	H	1	0.15	1.0079
2169	HCMM	142	MPD2	H1	1	0.15	1.0079
2170	HCMM	142	MPD2	H2	1	0.15	1.0079
2171	HCMM	142	MPD2	H3	1	0.15	1.0079
2172	NC=O	142	MPD2	N	1	-0.547	14.0067
2173	HNCO	142	MPD2	H5	1	0.37	1.0079
2174	NC=O	142	MPD2	N1	1	-0.547	14.0067
2175	HNCO	142	MPD2	H7	1	0.37	1.0079
2176	C=O	143	TCq2	C1	1	0.5438	12.011
2177	O=C	143	TCq2	O2	1	-0.57	15.9994
2178	CB	143	TCq2	C2	1	0.0862	12.011
2179	CB	143	TCq2	C3	1	-0.15	12.011
2180	CB	143	TCq2	C4	1	-0.179	12.011
2181	CB	143	TCq2	C5	1	-0.15	12.011
2182	CB	143	TCq2	C6	1	0.0862	12.011
2183	CB	143	TCq2	C7	1	-0.15	12.011
2184	C=O	143	TCq2	C8	1	0.5438	12.011
2185	O=C	143	TCq2	O4	1	-0.57	15.9994
2186	CO2M	143	TCq2	C9	1	0.979	12.011
2187	O2CM	143	TCq2	O5	1	-0.9	15.9994
2188	O2CM	143	TCq2	O6	1	-0.9	15.9994
2189	HCMM	143	TCq2	H2	1	0.15	1.0079
2190	HCMM	143	TCq2	H3	1	0.15	1.0079
2191	HCMM	143	TCq2	H4	1	0.15	1.0079
2192	CB	144	MPD2	C	1	-0.15	12.011
2193	CB	144	MPD2	C1	1	0.117	12.011
2194	CB	144	MPD2	C2	1	-0.15	12.011
2195	CB	144	MPD2	C3	1	0.117	12.011
2196	CB	144	MPD2	C4	1	-0.15	12.011
2197	CB	144	MPD2	C5	1	-0.15	12.011
2198	HCMM	144	MPD2	H	1	0.15	1.0079
2199	HCMM	144	MPD2	H1	1	0.15	1.0079
2200	HCMM	144	MPD2	H2	1	0.15	1.0079
2201	HCMM	144	MPD2	H3	1	0.15	1.0079
2202	NC=O	144	MPD2	N	1	-0.547	14.0067
2203	HNCO	144	MPD2	H5	1	0.37	1.0079
2204	NC=O	144	MPD2	N1	1	-0.547	14.0067
2205	HNCO	144	MPD2	H7	1	0.37	1.0079
2206	C=O	145	TCq2	C1	1	0.5438	12.011
2207	O=C	145	TCq2	O2	1	-0.57	15.9994
2208	CB	145	TCq2	C2	1	0.0862	12.011
2209	CB	145	TCq2	C3	1	-0.15	12.011
2210	CB	145	TCq2	C4	1	-0.179	12.011
2211	CB	145	TCq2	C5	1	-0.15	12.011
2212	CB	145	TCq2	C6	1	0.0862	12.011
2213	CB	145	TCq2	C7	1	-0.15	12.011
2214	C=O	145	TCq2	C8	1	0.5438	12.011
2215	O=C	145	TCq2	O4	1	-0.57	15.9994
2216	CO2M	145	TCq2	C9	1	0.979	12.011
2217	O2CM	145	TCq2	O5	1	-0.9	15.9994
2218	O2CM	145	TCq2	O6	1	-0.9	15.9994
2219	HCMM	145	TCq2	H2	1	0.15	1.0079
2220	HCMM	145	TCq2	H3	1	0.15	1.0079
2221	HCMM	145	TCq2	H4	1	0.15	1.0079
2222	CB	146	TMC2	C1	1	0.0862	12.011
2223	CB	146	TMC2	C2	1	-0.15	12.011
2224	CB	146	TMC2	C3	1	0.0862	12.011
2225	CB	146	TMC2	C4	1	-0.15	12.011
2226	CB	146	TMC2	C5	1	0.0862	12.011
2227	CB	146	TMC2	C6	1	-0.15	12.011
2228	C=O	146	TMC2	C	1	0.5438	12.011
2229	O=C	146	TMC2	O	1	-0.57	15.9994
2230	HCMM	146	TMC2	H	1	0.15	1.0079
2231	HCMM	146	TMC2	H1	1	0.15	1.0079
2232	HCMM	146	TMC2	H2	1	0.15	1.0079
2233	C=O	146	TMC2	C7	1	0.5438	12.011
2234	C=O	146	TMC2	C8	1	0.6338	12.011
2235	O=C	146	TMC2	O1	1	-0.57	15.9994
2236	O=C	146	TMC2	O2	1	-0.57	15.9994
2237	OR	146	TMC2	O5	1	-0.65	15.9994
2238	HOCO	146	TMC2	H5	1	0.5	1.0079
2239	CB	147	MPD2	C	1	-0.15	12.011
2240	CB	147	MPD2	C1	1	0.117	12.011
2241	CB	147	MPD2	C2	1	-0.15	12.011
2242	CB	147	MPD2	C3	1	0.117	12.011
2243	CB	147	MPD2	C4	1	-0.15	12.011
2244	CB	147	MPD2	C5	1	-0.15	12.011
2245	HCMM	147	MPD2	H	1	0.15	1.0079
2246	HCMM	147	MPD2	H1	1	0.15	1.0079
2247	HCMM	147	MPD2	H2	1	0.15	1.0079
2248	HCMM	147	MPD2	H3	1	0.15	1.0079
2249	NC=O	147	MPD2	N	1	-0.547	14.0067
2250	HNCO	147	MPD2	H5	1	0.37	1.0079
2251	NC=O	147	MPD2	N1	1	-0.547	14.0067
2252	HNCO	147	MPD2	H7	1	0.37	1.0079
2253	CB	148	MPD2	C	1	-0.15	12.011
2254	CB	148	MPD2	C1	1	0.117	12.011
2255	CB	148	MPD2	C2	1	-0.15	12.011
2256	CB	148	MPD2	C3	1	0.117	12.011
2257	CB	148	MPD2	C4	1	-0.15	12.011
2258	CB	148	MPD2	C5	1	-0.15	12.011
2259	HCMM	148	MPD2	H	1	0.15	1.0079
2260	HCMM	148	MPD2	H1	1	0.15	1.0079
2261	HCMM	148	MPD2	H2	1	0.15	1.0079
2262	HCMM	148	MPD2	H3	1	0.15	1.0079
2263	NC=O	148	MPD2	N	1	-0.547	14.0067
2264	HNCO	148	MPD2	H5	1	0.37	1.0079
2265	NC=O	148	MPD2	N1	1	-0.547	14.0067
2266	HNCO	148	MPD2	H7	1	0.37	1.0079
2267	C=O	149	TCq2	C1	1	0.5438	12.011
2268	O=C	149	TCq2	O2	1	-0.57	15.9994
2269	CB	149	TCq2	C2	1	0.0862	12.011
2270	CB	149	TCq2	C3	1	-0.15	12.011
2271	CB	149	TCq2	C4	1	-0.179	12.011
2272	CB	149	TCq2	C5	1	-0.15	12.011
2273	CB	149	TCq2	C6	1	0.0862	12.011
2274	CB	149	TCq2	C7	1	-0.15	12.011
2275	C=O	149	TCq2	C8	1	0.5438	12.011
2276	O=C	149	TCq2	O4	1	-0.57	15.9994
2277	CO2M	149	TCq2	C9	1	0.979	12.011
2278	O2CM	149	TCq2	O5	1	-0.9	15.9994
2279	O2CM	149	TCq2	O6	1	-0.9	15.9994
2280	HCMM	149	TCq2	H2	1	0.15	1.0079
2281	HCMM	149	TCq2	H3	1	0.15	1.0079
2282	HCMM	149	TCq2	H4	1	0.15	1.0079
2283	CB	150	MPD2	C	1	-0.15	12.011
2284	CB	150	MPD2	C1	1	0.117	12.011
2285	CB	150	MPD2	C2	1	-0.15	12.011
2286	CB	150	MPD2	C3	1	0.117	12.011
2287	CB	150	MPD2	C4	1	-0.15	12.011
2288	CB	150	MPD2	C5	1	-0.15	12.011
2289	HCMM	150	MPD2	H	1	0.15	1.0079
2290	HCMM	150	MPD2	H1	1	0.15	1.0079
2291	HCMM	150	MPD2	H2	1	0.15	1.0079
2292	HCMM	150	MPD2	H3	1	0.15	1.0079
2293	NC=O	150	MPD2	N	1	-0.547	14.0067
2294	HNCO	150	MPD2	H5	1	0.37	1.0079
2295	NC=O	150	MPD2	N1	1	-0.547	14.0067
2296	HNCO	150	MPD2	H7	1	0.37	1.0079
2297	C=O	151	TCq2	C1	1	0.5438	12.011
2298	O=C	151	TCq2	O2	1	-0.57	15.9994
2299	CB	151	TCq2	C2	1	0.0862	12.011
2300	CB	151	TCq2	C3	1	-0.15	12.011
2301	CB	151	TCq2	C4	1	-0.179	12.011
2302	CB	151	TCq2	C5	1	-0.15	12.011
2303	CB	151	TCq2	C6	1	0.0862	12.011
2304	CB	151	TCq2	C7	1	-0.15	12.011
2305	C=O	151	TCq2	C8	1	0.5438	12.011
2306	O=C	151	TCq2	O4	1	-0.57	15.9994
2307	CO2M	151	TCq2	C9	1	0.979	12.011
2308	O2CM	151	TCq2	O5	1	-0.9	15.9994
2309	O2CM	151	TCq2	O6	1	-0.9	15.9994
2310	HCMM	151	TCq2	H2	1	0.15	1.0079
2311	HCMM	151	TCq2	H3	1	0.15	1.0079
2312	HCMM	151	TCq2	H4	1	0.15	1.0079
2313	CB	152	MPD2	C	1	-0.15	12.011
2314	CB	152	MPD2	C1	1	0.117	12.011
2315	CB	152	MPD2	C2	1	-0.15	12.011
2316	CB	152	MPD2	C3	1	0.117	12.011
2317	CB	152	MPD2	C4	1	-0.15	12.011
2318	CB	152	MPD2	C5	1	-0.15	12.011
2319	HCMM	152	MPD2	H	1	0.15	1.0079
2320	HCMM	152	MPD2	H1	1	0.15	1.0079
2321	HCMM	152	MPD2	H2	1	0.15	1.0079
2322	HCMM	152	MPD2	H3	1	0.15	1.0079
2323	NC=O	152	MPD2	N	1	-0.547	14.0067
2324	HNCO	152	MPD2	H5	1	0.37	1.0079
2325	NC=O	152	MPD2	N1	1	-0.547	14.0067
2326	HNCO	152	MPD2	H7	1	0.37	1.0079
2327	C=O	153	TCq2	C1	1	0.5438	12.011
2328	O=C	153	TCq2	O2	1	-0.57	15.9994
2329	CB	153	TCq2	C2	1	0.0862	12.011
2330	CB	153	TCq2	C3	1	-0.15	12.011
2331	CB	153	TCq2	C4	1	-0.179	12.011
2332	CB	153	TCq2	C5	1	-0.15	12.011
2333	CB	153	TCq2	C6	1	0.0862	12.011
2334	CB	153	TCq2	C7	1	-0.15	12.011
2335	C=O	153	TCq2	C8	1	0.5438	12.011
2336	O=C	153	TCq2	O4	1	-0.57	15.9994
2337	CO2M	153	TCq2	C9	1	0.979	12.011
2338	O2CM	153	TCq2	O5	1	-0.9	15.9994
2339	O2CM	153	TCq2	O6	1	-0.9	15.9994
2340	HCMM	153	TCq2	H2	1	0.15	1.0079
2341	HCMM	153	TCq2	H3	1	0.15	1.0079
2342	HCMM	153	TCq2	H4	1	0.15	1.0079
2343	CB	154	MPD2	C	1	-0.15	12.011
2344	CB	154	MPD2	C1	1	0.117	12.011
2345	CB	154	MPD2	C2	1	-0.15	12.011
2346	CB	154	MPD2	C3	1	0.117	12.011
2347	CB	154	MPD2	C4	1	-0.15	12.011
2348	CB	154	MPD2	C5	1	-0.15	12.011
2349	HCMM	154	MPD2	H	1	0.15	1.0079
2350	HCMM	154	MPD2	H1	1	0.15	1.0079
2351	HCMM	154	MPD2	H2	1	0.15	1.0079
2352	HCMM	154	MPD2	H3	1	0.15	1.0079
2353	NC=O	154	MPD2	N	1	-0.547	14.0067
2354	HNCO	154	MPD2	H5	1	0.37	1.0079
2355	NC=O	154	MPD2	N1	1	-0.547	14.0067
2356	HNCO	154	MPD2	H7	1	0.37	1.0079
2357	C=O	155	TCq2	C1	1	0.5438	12.011
2358	O=C	155	TCq2	O2	1	-0.57	15.9994
2359	CB	155	TCq2	C2	1	0.0862	12.011
2360	CB	155	TCq2	C3	1	-0.15	12.011
2361	CB	155	TCq2	C4	1	-0.179	12.011
2362	CB	155	TCq2	C5	1	-0.15	12.011
2363	CB	155	TCq2	C6	1	0.0862	12.011
2364	CB	155	TCq2	C7	1	-0.15	12.011
2365	C=O	155	TCq2	C8	1	0.5438	12.011
2366	O=C	155	TCq2	O4	1	-0.57	15.9994
2367	CO2M	155	TCq2	C9	1	0.979	12.011
2368	O2CM	155	TCq2	O5	1	-0.9	15.9994
2369	O2CM	155	TCq2	O6	1	-0.9	15.9994
2370	HCMM	155	TCq2	H2	1	0.15	1.0079
2371	HCMM	155	TCq2	H3	1	0.15	1.0079
2372	HCMM	155	TCq2	H4	1	0.15	1.0079
2373	CB	156	MPD2	C	1	-0.15	12.011
2374	CB	156	MPD2	C1	1	0.117	12.011
2375	CB	156	MPD2	C2	1	-0.15	12.011
2376	CB	156	MPD2	C3	1	0.117	12.011
2377	CB	156	MPD2	C4	1	-0.15	12.011
2378	CB	156	MPD2	C5	1	-0.15	12.011
2379	HCMM	156	MPD2	H	1	0.15	1.0079
2380	HCMM	156	MPD2	H1	1	0.15	1.0079
2381	HCMM	156	MPD2	H2	1	0.15	1.0079
2382	HCMM	156	MPD2	H3	1	0.15	1.0079
2383	NC=O	156	MPD2	N	1	-0.547	14.0067
2384	HNCO	156	MPD2	H5	1	0.37	1.0079
2385	NC=O	156	MPD2	N1	1	-0.547	14.0067
2386	HNCO	156	MPD2	H7	1	0.37	1.0079
2387	C=O	157	TCq2	C1	1	0.5438	12.011
2388	O=C	157	TCq2	O2	1	-0.57	15.9994
2389	CB	157	TCq2	C2	1	0.0862	12.011
2390	CB	157	TCq2	C3	1	-0.15	12.011
2391	CB	157	TCq2	C4	1	-0.179	12.011
2392	CB	157	TCq2	C5	1	-0.15	12.011
2393	CB	157	TCq2	C6	1	0.0862	12.011
2394	CB	157	TCq2	C7	1	-0.15	12.011
2395	C=O	157	TCq2	C8	1	0.5438	12.011
2396	O=C	157	TCq2	O4	1	-0.57	15.9994
2397	CO2M	157	TCq2	C9	1	0.979	12.011
2398	O2CM	157	TCq2	O5	1	-0.9	15.9994
2399	O2CM	157	TCq2	O6	1	-0.9	15.9994
2400	HCMM	157	TCq2	H2	1	0.15	1.0079
2401	HCMM	157	TCq2	H3	1	0.15	1.0079
2402	HCMM	157	TCq2	H4	1	0.15	1.0079
2403	CB	158	TMC2	C1	1	0.0862	12.011
2404	CB	158	TMC2	C2	1	-0.15	12.011
2405	CB	158	TMC2	C3	1	0.0862	12.011
2406	CB	158	TMC2	C4	1	-0.15	12.011
2407	CB	158	TMC2	C5	1	0.0862	12.011
2408	CB	158	TMC2	C6	1	-0.15	12.011
2409	C=O	158	TMC2	C	1	0.5438	12.011
2410	O=C	158	TMC2	O	1	-0.57	15.9994
2411	HCMM	158	TMC2	H	1	0.15	1.0079
2412	HCMM	158	TMC2	H1	1	0.15	1.0079
2413	HCMM	158	TMC2	H2	1	0.15	1.0079
2414	C=O	158	TMC2	C7	1	0.5438	12.011
2415	C=O	158	TMC2	C8	1	0.6338	12.011
2416	O=C	158	TMC2	O1	1	-0.57	15.9994
2417	O=C	158	TMC2	O2	1	-0.57	15.9994
2418	OR	158	TMC2	O5	1	-0.65	15.9994
2419	HOCO	158	TMC2	H5	1	0.5	1.0079
2420	CB	159	MPD2	C	1	-0.15	12.011
2421	CB	159	MPD2	C1	1	0.117	12.011
2422	CB	159	MPD2	C2	1	-0.15	12.011
2423	CB	159	MPD2	C3	1	0.117	12.011
2424	CB	159	MPD2	C4	1	-0.15	12.011
2425	CB	159	MPD2	C5	1	-0.15	12.011
2426	HCMM	159	MPD2	H	1	0.15	1.0079
2427	HCMM	159	MPD2	H1	1	0.15	1.0079
2428	HCMM	159	MPD2	H2	1	0.15	1.0079
2429	HCMM	159	MPD2	H3	1	0.15	1.0079
2430	NC=O	159	MPD2	N	1	-0.547	14.0067
2431	HNCO	159	MPD2	H5	1	0.37	1.0079
2432	NC=O	159	MPD2	N1	1	-0.547	14.0067
2433	HNCO	159	MPD2	H7	1	0.37	1.0079
2434	CB	160	TMC2	C1	1	0.0862	12.011
2435	CB	160	TMC2	C2	1	-0.15	12.011
2436	CB	160	TMC2	C3	1	0.0862	12.011
2437	CB	160	TMC2	C4	1	-0.15	12.011
2438	CB	160	TMC2	C5	1	0.0862	12.011
2439	CB	160	TMC2	C6	1	-0.15	12.011
2440	C=O	160	TMC2	C	1	0.5438	12.011
2441	O=C	160	TMC2	O	1	-0.57	15.9994
2442	HCMM	160	TMC2	H	1	0.15	1.0079
2443	HCMM	160	TMC2	H1	1	0.15	1.0079
2444	HCMM	160	TMC2	H2	1	0.15	1.0079
2445	C=O	160	TMC2	C7	1	0.5438	12.011
2446	C=O	160	TMC2	C8	1	0.6338	12.011
2447	O=C	160	TMC2	O1	1	-0.57	15.9994
2448	O=C	160	TMC2	O2	1	-0.57	15.9994
2449	OR	160	TMC2	O5	1	-0.65	15.9994
2450	HOCO	160	TMC2	H5	1	0.5	1.0079
2451	CB	161	MPD2	C	1	-0.15	12.011
2452	CB	161	MPD2	C1	1	0.117	12.011
2453	CB	161	MPD2	C2	1	-0.15	12.011
2454	CB	161	MPD2	C3	1	0.117	12.011
2455	CB	161	MPD2	C4	1	-0.15	12.011
2456	CB	161	MPD2	C5	1	-0.15	12.011
2457	HCMM	161	MPD2	H	1	0.15	1.0079
2458	HCMM	161	MPD2	H1	1	0.15	1.0079
2459	HCMM	161	MPD2	H2	1	0.15	1.0079
2460	HCMM	161	MPD2	H3	1	0.15	1.0079
2461	NC=O	161	MPD2	N	1	-0.547	14.0067
2462	HNCO	161	MPD2	H5	1	0.37	1.0079
2463	NC=O	161	MPD2	N1	1	-0.547	14.0067
2464	HNCO	161	MPD2	H7	1	0.37	1.0079
2465	CB	162	TMC2	C1	1	0.0862	12.011
2466	CB	162	TMC2	C2	1	-0.15	12.011
2467	CB	162	TMC2	C3	1	0.0862	12.011
2468	CB	162	TMC2	C4	1	-0.15	12.011
2469	CB	162	TMC2	C5	1	0.0862	12.011
2470	CB	162	TMC2	C6	1	-0.15	12.011
2471	C=O	162	TMC2	C	1	0.5438	12.011
2472	O=C	162	TMC2	O	1	-0.57	15.9994
2473	HCMM	162	TMC2	H	1	0.15	1.0079
2474	HCMM	162	TMC2	H1	1	0.15	1.0079
2475	HCMM	162	TMC2	H2	1	0.15	1.0079
2476	C=O	162	TMC2	C7	1	0.5438	12.011
2477	C=O	162	TMC2	C8	1	0.6338	12.011
2478	O=C	162	TMC2	O1	1	-0.57	15.9994
2479	O=C	162	TMC2	O2	1	-0.57	15.9994
2480	OR	162	TMC2	O5	1	-0.65	15.9994
2481	HOCO	162	TMC2	H5	1	0.5	1.0079
2482	CB	163	MPD2	C	1	-0.15	12.011
2483	CB	163	MPD2	C1	1	0.117	12.011
2484	CB	163	MPD2	C2	1	-0.15	12.011
2485	CB	163	MPD2	C3	1	0.117	12.011
2486	CB	163	MPD2	C4	1	-0.15	12.011
2487	CB	163	MPD2	C5	1	-0.15	12.011
2488	HCMM	163	MPD2	H	1	0.15	1.0079
2489	HCMM	163	MPD2	H1	1	0.15	1.0079
2490	HCMM	163	MPD2	H2	1	0.15	1.0079
2491	HCMM	163	MPD2	H3	1	0.15	1.0079
2492	NC=O	163	MPD2	N	1	-0.547	14.0067
2493	HNCO	163	MPD2	H5	1	0.37	1.0079
2494	NC=O	163	MPD2	N1	1	-0.547	14.0067
2495	HNCO	163	MPD2	H7	1	0.37	1.0079
2496	C=O	164	TCq2	C1	1	0.5438	12.011
2497	O=C	164	TCq2	O2	1	-0.57	15.9994
2498	CB	164	TCq2	C2	1	0.0862	12.011
2499	CB	164	TCq2	C3	1	-0.15	12.011
2500	CB	164	TCq2	C4	1	-0.179	12.011
2501	CB	164	TCq2	C5	1	-0.15	12.011
2502	CB	164	TCq2	C6	1	0.0862	12.011
2503	CB	164	TCq2	C7	1	-0.15	12.011
2504	C=O	164	TCq2	C8	1	0.5438	12.011
2505	O=C	164	TCq2	O4	1	-0.57	15.9994
2506	CO2M	164	TCq2	C9	1	0.979	12.011
2507	O2CM	164	TCq2	O5	1	-0.9	15.9994
2508	O2CM	164	TCq2	O6	1	-0.9	15.9994
2509	HCMM	164	TCq2	H2	1	0.15	1.0079
2510	HCMM	164	TCq2	H3	1	0.15	1.0079
2511	HCMM	164	TCq2	H4	1	0.15	1.0079
2512	CB	165	MPD2	C	1	-0.15	12.011
2513	CB	165	MPD2	C1	1	0.117	12.011
2514	CB	165	MPD2	C2	1	-0.15	12.011
2515	CB	165	MPD2	C3	1	0.117	12.011
2516	CB	165	MPD2	C4	1	-0.15	12.011
2517	CB	165	MPD2	C5	1	-0.15	12.011
2518	HCMM	165	MPD2	H	1	0.15	1.0079
2519	HCMM	165	MPD2	H1	1	0.15	1.0079
2520	HCMM	165	MPD2	H2	1	0.15	1.0079
2521	HCMM	165	MPD2	H3	1	0.15	1.0079
2522	NC=O	165	MPD2	N	1	-0.547	14.0067
2523	HNCO	165	MPD2	H5	1	0.37	1.0079
2524	NC=O	165	MPD2	N1	1	-0.547	14.0067
2525	HNCO	165	MPD2	H7	1	0.37	1.0079
2526	C=O	166	TCq2	C1	1	0.5438	12.011
2527	O=C	166	TCq2	O2	1	-0.57	15.9994
2528	CB	166	TCq2	C2	1	0.0862	12.011
2529	CB	166	TCq2	C3	1	-0.15	12.011
2530	CB	166	TCq2	C4	1	-0.179	12.011
2531	CB	166	TCq2	C5	1	-0.15	12.011
2532	CB	166	TCq2	C6	1	0.0862	12.011
2533	CB	166	TCq2	C7	1	-0.15	12.011
2534	C=O	166	TCq2	C8	1	0.5438	12.011
2535	O=C	166	TCq2	O4	1	-0.57	15.9994
2536	CO2M	166	TCq2	C9	1	0.979	12.011
2537	O2CM	166	TCq2	O5	1	-0.9	15.9994
2538	O2CM	166	TCq2	O6	1	-0.9	15.9994
2539	HCMM	166	TCq2	H2	1	0.15	1.0079
2540	HCMM	166	TCq2	H3	1	0.15	1.0079
2541	HCMM	166	TCq2	H4	1	0.15	1.0079
2542	CB	167	TMC2	C1	1	0.0862	12.011
2543	CB	167	TMC2	C2	1	-0.15	12.011
2544	CB	167	TMC2	C3	1	0.0862	12.011
2545	CB	167	TMC2	C4	1	-0.15	12.011
2546	CB	167	TMC2	C5	1	0.0862	12.011
2547	CB	167	TMC2	C6	1	-0.15	12.011
2548	C=O	167	TMC2	C	1	0.5438	12.011
2549	O=C	167	TMC2	O	1	-0.57	15.9994
2550	HCMM	167	TMC2	H	1	0.15	1.0079
2551	HCMM	167	TMC2	H1	1	0.15	1.0079
2552	HCMM	167	TMC2	H2	1	0.15	1.0079
2553	C=O	167	TMC2	C7	1	0.5438	12.011
2554	C=O	167	TMC2	C8	1	0.6338	12.011
2555	O=C	167	TMC2	O1	1	-0.57	15.9994
2556	O=C	167	TMC2	O2	1	-0.57	15.9994
2557	OR	167	TMC2	O5	1	-0.65	15.9994
2558	HOCO	167	TMC2	H5	1	0.5	1.0079
2559	CB	168	MPD2	C	1	-0.15	12.011
2560	CB	168	MPD2	C1	1	0.117	12.011
2561	CB	168	MPD2	C2	1	-0.15	12.011
2562	CB	168	MPD2	C3	1	0.117	12.011
2563	CB	168	MPD2	C4	1	-0.15	12.011
2564	CB	168	MPD2	C5	1	-0.15	12.011
2565	HCMM	168	MPD2	H	1	0.15	1.0079
2566	HCMM	168	MPD2	H1	1	0.15	1.0079
2567	HCMM	168	MPD2	H2	1	0.15	1.0079
2568	HCMM	168	MPD2	H3	1	0.15	1.0079
2569	NC=O	168	MPD2	N	1	-0.547	14.0067
2570	HNCO	168	MPD2	H5	1	0.37	1.0079
2571	NC=O	168	MPD2	N1	1	-0.547	14.0067
2572	HNCO	168	MPD2	H7	1	0.37	1.0079
2573	CB	169	MPD1	C	1	-0.15	12.011
2574	CB	169	MPD1	C1	1	0.1	12.011
2575	CB	169	MPD1	C2	1	-0.15	12.011
2576	CB	169	MPD1	C3	1	0.117	12.011
2577	CB	169	MPD1	C4	1	-0.15	12.011
2578	CB	169	MPD1	C5	1	-0.15	12.011
2579	HCMM	169	MPD1	H	1	0.15	1.0079
2580	HCMM	169	MPD1	H1	1	0.15	1.0079
2581	HCMM	169	MPD1	H2	1	0.15	1.0079
2582	HCMM	169	MPD1	H3	1	0.15	1.0079
2583	NC=O	169	MPD1	N	1	-0.547	14.0067
2584	HNCO	169	MPD1	H5	1	0.37	1.0079
2585	NC=C	169	MPD1	N1	1	-0.9	14.0067
2586	HNCO	169	MPD1	H6	1	0.4	1.0079
2587	HNCO	169	MPD1	H7	1	0.4	1.0079
2588	CB	170	MPD1	C	1	-0.15	12.011
2589	CB	170	MPD1	C1	1	0.1	12.011
2590	CB	170	MPD1	C2	1	-0.15	12.011
2591	CB	170	MPD1	C3	1	0.117	12.011
2592	CB	170	MPD1	C4	1	-0.15	12.011
2593	CB	170	MPD1	C5	1	-0.15	12.011
2594	HCMM	170	MPD1	H	1	0.15	1.0079
2595	HCMM	170	MPD1	H1	1	0.15	1.0079
2596	HCMM	170	MPD1	H2	1	0.15	1.0079
2597	HCMM	170	MPD1	H3	1	0.15	1.0079
2598	NC=O	170	MPD1	N	1	-0.547	14.0067
2599	HNCO	170	MPD1	H5	1	0.37	1.0079
2600	NC=C	170	MPD1	N1	1	-0.9	14.0067
2601	HNCO	170	MPD1	H6	1	0.4	1.0079
2602	HNCO	170	MPD1	H7	1	0.4	1.0079
2603	CB	171	MPD1	C	1	-0.15	12.011
2604	CB	171	MPD1	C1	1	0.1	12.011
2605	CB	171	MPD1	C2	1	-0.15	12.011
2606	CB	171	MPD1	C3	1	0.117	12.011
2607	CB	171	MPD1	C4	1	-0.15	12.011
2608	CB	171	MPD1	C5	1	-0.15	12.011
2609	HCMM	171	MPD1	H	1	0.15	1.0079
2610	HCMM	171	MPD1	H1	1	0.15	1.0079
2611	HCMM	171	MPD1	H2	1	0.15	1.0079
2612	HCMM	171	MPD1	H3	1	0.15	1.0079
2613	NC=O	171	MPD1	N	1	-0.547	14.0067
2614	HNCO	171	MPD1	H5	1	0.37	1.0079
2615	NC=C	171	MPD1	N1	1	-0.9	14.0067
2616	HNCO	171	MPD1	H6	1	0.4	1.0079
2617	HNCO	171	MPD1	H7	1	0.4	1.0079
2618	CB	172	MPD1	C	1	-0.15	12.011
2619	CB	172	MPD1	C1	1	0.1	12.011
2620	CB	172	MPD1	C2	1	-0.15	12.011
2621	CB	172	MPD1	C3	1	0.117	12.011
2622	CB	172	MPD1	C4	1	-0.15	12.011
2623	CB	172	MPD1	C5	1	-0.15	12.011
2624	HCMM	172	MPD1	H	1	0.15	1.0079
2625	HCMM	172	MPD1	H1	1	0.15	1.0079
2626	HCMM	172	MPD1	H2	1	0.15	1.0079
2627	HCMM	172	MPD1	H3	1	0.15	1.0079
2628	NC=O	172	MPD1	N	1	-0.547	14.0067
2629	HNCO	172	MPD1	H5	1	0.37	1.0079
2630	NC=C	172	MPD1	N1	1	-0.9	14.0067
2631	HNCO	172	MPD1	H6	1	0.4	1.0079
2632	HNCO	172	MPD1	H7	1	0.4	1.0079
2633	CB	173	MPD1	C	1	-0.15	12.011
2634	CB	173	MPD1	C1	1	0.1	12.011
2635	CB	173	MPD1	C2	1	-0.15	12.011
2636	CB	173	MPD1	C3	1	0.117	12.011
2637	CB	173	MPD1	C4	1	-0.15	12.011
2638	CB	173	MPD1	C5	1	-0.15	12.011
2639	HCMM	173	MPD1	H	1	0.15	1.0079
2640	HCMM	173	MPD1	H1	1	0.15	1.0079
2641	HCMM	173	MPD1	H2	1	0.15	1.0079
2642	HCMM	173	MPD1	H3	1	0.15	1.0079
2643	NC=O	173	MPD1	N	1	-0.547	14.0067
2644	HNCO	173	MPD1	H5	1	0.37	1.0079
2645	NC=C	173	MPD1	N1	1	-0.9	14.0067
2646	HNCO	173	MPD1	H6	1	0.4	1.0079
2647	HNCO	173	MPD1	H7	1	0.4	1.0079
2648	CB	174	MPD1	C	1	-0.15	12.011
2649	CB	174	MPD1	C1	1	0.1	12.011
2650	CB	174	MPD1	C2	1	-0.15	12.011
2651	CB	174	MPD1	C3	1	0.117	12.011
2652	CB	174	MPD1	C4	1	-0.15	12.011
2653	CB	174	MPD1	C5	1	-0.15	12.011
2654	HCMM	174	MPD1	H	1	0.15	1.0079
2655	HCMM	174	MPD1	H1	1	0.15	1.0079
2656	HCMM	174	MPD1	H2	1	0.15	1.0079
2657	HCMM	174	MPD1	H3	1	0.15	1.0079
2658	NC=O	174	MPD1	N	1	-0.547	14.0067
2659	HNCO	174	MPD1	H5	1	0.37	1.0079
2660	NC=C	174	MPD1	N1	1	-0.9	14.0067
2661	HNCO	174	MPD1	H6	1	0.4	1.0079
2662	HNCO	174	MPD1	H7	1	0.4	1.0079
2663	CB	175	MPD1	C	1	-0.15	12.011
2664	CB	175	MPD1	C1	1	0.1	12.011
2665	CB	175	MPD1	C2	1	-0.15	12.011
2666	CB	175	MPD1	C3	1	0.117	12.011
2667	CB	175	MPD1	C4	1	-0.15	12.011
2668	CB	175	MPD1	C5	1	-0.15	12.011
2669	HCMM	175	MPD1	H	1	0.15	1.0079
2670	HCMM	175	MPD1	H1	1	0.15	1.0079
2671	HCMM	175	MPD1	H2	1	0.15	1.0079
2672	HCMM	175	MPD1	H3	1	0.15	1.0079
2673	NC=O	175	MPD1	N	1	-0.547	14.0067
2674	HNCO	175	MPD1	H5	1	0.37	1.0079
2675	NC=C	175	MPD1	N1	1	-0.9	14.0067
2676	HNCO	175	MPD1	H6	1	0.4	1.0079
2677	HNCO	175	MPD1	H7	1	0.4	1.0079
2678	CB	176	MPD1	C	1	-0.15	12.011
2679	CB	176	MPD1	C1	1	0.1	12.011
2680	CB	176	MPD1	C2	1	-0.15	12.011
2681	CB	176	MPD1	C3	1	0.117	12.011
2682	CB	176	MPD1	C4	1	-0.15	12.011
2683	CB	176	MPD1	C5	1	-0.15	12.011
2684	HCMM	176	MPD1	H	1	0.15	1.0079
2685	HCMM	176	MPD1	H1	1	0.15	1.0079
2686	HCMM	176	MPD1	H2	1	0.15	1.0079
2687	HCMM	176	MPD1	H3	1	0.15	1.0079
2688	NC=O	176	MPD1	N	1	-0.547	14.0067
2689	HNCO	176	MPD1	H5	1	0.37	1.0079
2690	NC=C	176	MPD1	N1	1	-0.9	14.0067
2691	HNCO	176	MPD1	H6	1	0.4	1.0079
2692	HNCO	176	MPD1	H7	1	0.4	1.0079
2693	CB	177	MPD1	C	1	-0.15	12.011
2694	CB	177	MPD1	C1	1	0.1	12.011
2695	CB	177	MPD1	C2	1	-0.15	12.011
2696	CB	177	MPD1	C3	1	0.117	12.011
2697	CB	177	MPD1	C4	1	-0.15	12.011
2698	CB	177	MPD1	C5	1	-0.15	12.011
2699	HCMM	177	MPD1	H	1	0.15	1.0079
2700	HCMM	177	MPD1	H1	1	0.15	1.0079
2701	HCMM	177	MPD1	H2	1	0.15	1.0079
2702	HCMM	177	MPD1	H3	1	0.15	1.0079
2703	NC=O	177	MPD1	N	1	-0.547	14.0067
2704	HNCO	177	MPD1	H5	1	0.37	1.0079
2705	NC=C	177	MPD1	N1	1	-0.9	14.0067
2706	HNCO	177	MPD1	H6	1	0.4	1.0079
2707	HNCO	177	MPD1	H7	1	0.4	1.0079
2708	CB	178	MPD1	C	1	-0.15	12.011
2709	CB	178	MPD1	C1	1	0.1	12.011
2710	CB	178	MPD1	C2	1	-0.15	12.011
2711	CB	178	MPD1	C3	1	0.117	12.011
2712	CB	178	MPD1	C4	1	-0.15	12.011
2713	CB	178	MPD1	C5	1	-0.15	12.011
2714	HCMM	178	MPD1	H	1	0.15	1.0079
2715	HCMM	178	MPD1	H1	1	0.15	1.0079
2716	HCMM	178	MPD1	H2	1	0.15	1.0079
2717	HCMM	178	MPD1	H3	1	0.15	1.0079
2718	NC=O	178	MPD1	N	1	-0.547	14.0067
2719	HNCO	178	MPD1	H5	1	0.37	1.0079
2720	NC=C	178	MPD1	N1	1	-0.9	14.0067
2721	HNCO	178	MPD1	H6	1	0.4	1.0079
2722	HNCO	178	MPD1	H7	1	0.4	1.0079
2723	CB	179	MPD1	C	1	-0.15	12.011
2724	CB	179	MPD1	C1	1	0.1	12.011
2725	CB	179	MPD1	C2	1	-0.15	12.011
2726	CB	179	MPD1	C3	1	0.117	12.011
2727	CB	179	MPD1	C4	1	-0.15	12.011
2728	CB	179	MPD1	C5	1	-0.15	12.011
2729	HCMM	179	MPD1	H	1	0.15	1.0079
2730	HCMM	179	MPD1	H1	1	0.15	1.0079
2731	HCMM	179	MPD1	H2	1	0.15	1.0079
2732	HCMM	179	MPD1	H3	1	0.15	1.0079
2733	NC=O	179	MPD1	N	1	-0.547	14.0067
2734	HNCO	179	MPD1	H5	1	0.37	1.0079
2735	NC=C	179	MPD1	N1	1	-0.9	14.0067
2736	HNCO	179	MPD1	H6	1	0.4	1.0079
2737	HNCO	179	MPD1	H7	1	0.4	1.0079
2738	CB	180	MPD1	C	1	-0.15	12.011
2739	CB	180	MPD1	C1	1	0.1	12.011
2740	CB	180	MPD1	C2	1	-0.15	12.011
2741	CB	180	MPD1	C3	1	0.117	12.011
2742	CB	180	MPD1	C4	1	-0.15	12.011
2743	CB	180	MPD1	C5	1	-0.15	12.011
2744	HCMM	180	MPD1	H	1	0.15	1.0079
2745	HCMM	180	MPD1	H1	1	0.15	1.0079
2746	HCMM	180	MPD1	H2	1	0.15	1.0079
2747	HCMM	180	MPD1	H3	1	0.15	1.0079
2748	NC=O	180	MPD1	N	1	-0.547	14.0067
2749	HNCO	180	MPD1	H5	1	0.37	1.0079
2750	NC=C	180	MPD1	N1	1	-0.9	14.0067
2751	HNCO	180	MPD1	H6	1	0.4	1.0079
2752	HNCO	180	MPD1	H7	1	0.4	1.0079
2753	CB	181	MPD1	C	1	-0.15	12.011
2754	CB	181	MPD1	C1	1	0.1	12.011
2755	CB	181	MPD1	C2	1	-0.15	12.011
2756	CB	181	MPD1	C3	1	0.117	12.011
2757	CB	181	MPD1	C4	1	-0.15	12.011
2758	CB	181	MPD1	C5	1	-0.15	12.011
2759	HCMM	181	MPD1	H	1	0.15	1.0079
2760	HCMM	181	MPD1	H1	1	0.15	1.0079
2761	HCMM	181	MPD1	H2	1	0.15	1.0079
2762	HCMM	181	MPD1	H3	1	0.15	1.0079
2763	NC=O	181	MPD1	N	1	-0.547	14.0067
2764	HNCO	181	MPD1	H5	1	0.37	1.0079
2765	NC=C	181	MPD1	N1	1	-0.9	14.0067
2766	HNCO	181	MPD1	H6	1	0.4	1.0079
2767	HNCO	181	MPD1	H7	1	0.4	1.0079
2768	CB	182	MPD1	C	1	-0.15	12.011
2769	CB	182	MPD1	C1	1	0.1	12.011
2770	CB	182	MPD1	C2	1	-0.15	12.011
2771	CB	182	MPD1	C3	1	0.117	12.011
2772	CB	182	MPD1	C4	1	-0.15	12.011
2773	CB	182	MPD1	C5	1	-0.15	12.011
2774	HCMM	182	MPD1	H	1	0.15	1.0079
2775	HCMM	182	MPD1	H1	1	0.15	1.0079
2776	HCMM	182	MPD1	H2	1	0.15	1.0079
2777	HCMM	182	MPD1	H3	1	0.15	1.0079
2778	NC=O	182	MPD1	N	1	-0.547	14.0067
2779	HNCO	182	MPD1	H5	1	0.37	1.0079
2780	NC=C	182	MPD1	N1	1	-0.9	14.0067
2781	HNCO	182	MPD1	H6	1	0.4	1.0079
2782	HNCO	182	MPD1	H7	1	0.4	1.0079
2783	CB	183	MPD1	C	1	-0.15	12.011
2784	CB	183	MPD1	C1	1	0.1	12.011
2785	CB	183	MPD1	C2	1	-0.15	12.011
2786	CB	183	MPD1	C3	1	0.117	12.011
2787	CB	183	MPD1	C4	1	-0.15	12.011
2788	CB	183	MPD1	C5	1	-0.15	12.011
2789	HCMM	183	MPD1	H	1	0.15	1.0079
2790	HCMM	183	MPD1	H1	1	0.15	1.0079
2791	HCMM	183	MPD1	H2	1	0.15	1.0079
2792	HCMM	183	MPD1	H3	1	0.15	1.0079
2793	NC=O	183	MPD1	N	1	-0.547	14.0067
2794	HNCO	183	MPD1	H5	1	0.37	1.0079
2795	NC=C	183	MPD1	N1	1	-0.9	14.0067
2796	HNCO	183	MPD1	H6	1	0.4	1.0079
2797	HNCO	183	MPD1	H7	1	0.4	1.0079
2798	CB	184	MPD1	C	1	-0.15	12.011
2799	CB	184	MPD1	C1	1	0.1	12.011
2800	CB	184	MPD1	C2	1	-0.15	12.011
2801	CB	184	MPD1	C3	1	0.117	12.011
2802	CB	184	MPD1	C4	1	-0.15	12.011
2803	CB	184	MPD1	C5	1	-0.15	12.011
2804	HCMM	184	MPD1	H	1	0.15	1.0079
2805	HCMM	184	MPD1	H1	1	0.15	1.0079
2806	HCMM	184	MPD1	H2	1	0.15	1.0079
2807	HCMM	184	MPD1	H3	1	0.15	1.0079
2808	NC=O	184	MPD1	N	1	-0.547	14.0067
2809	HNCO	184	MPD1	H5	1	0.37	1.0079
2810	NC=C	184	MPD1	N1	1	-0.9	14.0067
2811	HNCO	184	MPD1	H6	1	0.4	1.0079
2812	HNCO	184	MPD1	H7	1	0.4	1.0079
2813	CB	185	MPD1	C	1	-0.15	12.011
2814	CB	185	MPD1	C1	1	0.1	12.011
2815	CB	185	MPD1	C2	1	-0.15	12.011
2816	CB	185	MPD1	C3	1	0.117	12.011
2817	CB	185	MPD1	C4	1	-0.15	12.011
2818	CB	185	MPD1	C5	1	-0.15	12.011
2819	HCMM	185	MPD1	H	1	0.15	1.0079
2820	HCMM	185	MPD1	H1	1	0.15	1.0079
2821	HCMM	185	MPD1	H2	1	0.15	1.0079
2822	HCMM	185	MPD1	H3	1	0.15	1.0079
2823	NC=O	185	MPD1	N	1	-0.547	14.0067
2824	HNCO	185	MPD1	H5	1	0.37	1.0079
2825	NC=C	185	MPD1	N1	1	-0.9	14.0067
2826	HNCO	185	MPD1	H6	1	0.4	1.0079
2827	HNCO	185	MPD1	H7	1	0.4	1.0079
2828	CB	186	MPD1	C	1	-0.15	12.011
2829	CB	186	MPD1	C1	1	0.1	12.011
2830	CB	186	MPD1	C2	1	-0.15	12.011
2831	CB	186	MPD1	C3	1	0.117	12.011
2832	CB	186	MPD1	C4	1	-0.15	12.011
2833	CB	186	MPD1	C5	1	-0.15	12.011
2834	HCMM	186	MPD1	H	1	0.15	1.0079
2835	HCMM	186	MPD1	H1	1	0.15	1.0079
2836	HCMM	186	MPD1	H2	1	0.15	1.0079
2837	HCMM	186	MPD1	H3	1	0.15	1.0079
2838	NC=O	186	MPD1	N	1	-0.547	14.0067
2839	HNCO	186	MPD1	H5	1	0.37	1.0079
2840	NC=C	186	MPD1	N1	1	-0.9	14.0067
2841	HNCO	186	MPD1	H6	1	0.4	1.0079
2842	HNCO	186	MPD1	H7	1	0.4	1.0079
2843	CB	187	MPD1	C	1	-0.15	12.011
2844	CB	187	MPD1	C1	1	0.1	12.011
2845	CB	187	MPD1	C2	1	-0.15	12.011
2846	CB	187	MPD1	C3	1	0.117	12.011
2847	CB	187	MPD1	C4	1	-0.15	12.011
2848	CB	187	MPD1	C5	1	-0.15	12.011
2849	HCMM	187	MPD1	H	1	0.15	1.0079
2850	HCMM	187	MPD1	H1	1	0.15	1.0079
2851	HCMM	187	MPD1	H2	1	0.15	1.0079
2852	HCMM	187	MPD1	H3	1	0.15	1.0079
2853	NC=O	187	MPD1	N	1	-0.547	14.0067
2854	HNCO	187	MPD1	H5	1	0.37	1.0079
2855	NC=C	187	MPD1	N1	1	-0.9	14.0067
2856	HNCO	187	MPD1	H6	1	0.4	1.0079
2857	HNCO	187	MPD1	H7	1	0.4	1.0079
2858	CB	188	MPD1	C	1	-0.15	12.011
2859	CB	188	MPD1	C1	1	0.1	12.011
2860	CB	188	MPD1	C2	1	-0.15	12.011
2861	CB	188	MPD1	C3	1	0.117	12.011
2862	CB	188	MPD1	C4	1	-0.15	12.011
2863	CB	188	MPD1	C5	1	-0.15	12.011
2864	HCMM	188	MPD1	H	1	0.15	1.0079
2865	HCMM	188	MPD1	H1	1	0.15	1.0079
2866	HCMM	188	MPD1	H2	1	0.15	1.0079
2867	HCMM	188	MPD1	H3	1	0.15	1.0079
2868	NC=O	188	MPD1	N	1	-0.547	14.0067
2869	HNCO	188	MPD1	H5	1	0.37	1.0079
2870	NC=C	188	MPD1	N1	1	-0.9	14.0067
2871	HNCO	188	MPD1	H6	1	0.4	1.0079
2872	HNCO	188	MPD1	H7	1	0.4	1.0079
2873	CB	189	MPD1	C	1	-0.15	12.011
2874	CB	189	MPD1	C1	1	0.1	12.011
2875	CB	189	MPD1	C2	1	-0.15	12.011
2876	CB	189	MPD1	C3	1	0.117	12.011
2877	CB	189	MPD1	C4	1	-0.15	12.011
2878	CB	189	MPD1	C5	1	-0.15	12.011
2879	HCMM	189	MPD1	H	1	0.15	1.0079
2880	HCMM	189	MPD1	H1	1	0.15	1.0079
2881	HCMM	189	MPD1	H2	1	0.15	1.0079
2882	HCMM	189	MPD1	H3	1	0.15	1.0079
2883	NC=O	189	MPD1	N	1	-0.547	14.0067
2884	HNCO	189	MPD1	H5	1	0.37	1.0079
2885	NC=C	189	MPD1	N1	1	-0.9	14.0067
2886	HNCO	189	MPD1	H6	1	0.4	1.0079
2887	HNCO	189	MPD1	H7	1	0.4	1.0079
2888	CB	190	MPD1	C	1	-0.15	12.011
2889	CB	190	MPD1	C1	1	0.1	12.011
2890	CB	190	MPD1	C2	1	-0.15	12.011
2891	CB	190	MPD1	C3	1	0.117	12.011
2892	CB	190	MPD1	C4	1	-0.15	12.011
2893	CB	190	MPD1	C5	1	-0.15	12.011
2894	HCMM	190	MPD1	H	1	0.15	1.0079
2895	HCMM	190	MPD1	H1	1	0.15	1.0079
2896	HCMM	190	MPD1	H2	1	0.15	1.0079
2897	HCMM	190	MPD1	H3	1	0.15	1.0079
2898	NC=O	190	MPD1	N	1	-0.547	14.0067
2899	HNCO	190	MPD1	H5	1	0.37	1.0079
2900	NC=C	190	MPD1	N1	1	-0.9	14.0067
2901	HNCO	190	MPD1	H6	1	0.4	1.0079
2902	HNCO	190	MPD1	H7	1	0.4	1.0079
2903	CB	191	MPD1	C	1	-0.15	12.011
2904	CB	191	MPD1	C1	1	0.1	12.011
2905	CB	191	MPD1	C2	1	-0.15	12.011
2906	CB	191	MPD1	C3	1	0.117	12.011
2907	CB	191	MPD1	C4	1	-0.15	12.011
2908	CB	191	MPD1	C5	1	-0.15	12.011
2909	HCMM	191	MPD1	H	1	0.15	1.0079
2910	HCMM	191	MPD1	H1	1	0.15	1.0079
2911	HCMM	191	MPD1	H2	1	0.15	1.0079
2912	HCMM	191	MPD1	H3	1	0.15	1.0079
2913	NC=O	191	MPD1	N	1	-0.547	14.0067
2914	HNCO	191	MPD1	H5	1	0.37	1.0079
2915	NC=C	191	MPD1	N1	1	-0.9	14.0067
2916	HNCO	191	MPD1	H6	1	0.4	1.0079
2917	HNCO	191	MPD1	H7	1	0.4	1.0079
2918	CB	192	MPD1	C	1	-0.15	12.011
2919	CB	192	MPD1	C1	1	0.1	12.011
2920	CB	192	MPD1	C2	1	-0.15	12.011
2921	CB	192	MPD1	C3	1	0.117	12.011
2922	CB	192	MPD1	C4	1	-0.15	12.011
2923	CB	192	MPD1	C5	1	-0.15	12.011
2924	HCMM	192	MPD1	H	1	0.15	1.0079
2925	HCMM	192	MPD1	H1	1	0.15	1.0079
2926	HCMM	192	MPD1	H2	1	0.15	1.0079
2927	HCMM	192	MPD1	H3	1	0.15	1.0079
2928	NC=O	192	MPD1	N	1	-0.547	14.0067
2929	HNCO	192	MPD1	H5	1	0.37	1.0079
2930	NC=C	192	MPD1	N1	1	-0.9	14.0067
2931	HNCO	192	MPD1	H6	1	0.4	1.0079
2932	HNCO	192	MPD1	H7	1	0.4	1.0079
2933	CB	193	MPD1	C	1	-0.15	12.011
2934	CB	193	MPD1	C1	1	0.1	12.011
2935	CB	193	MPD1	C2	1	-0.15	12.011
2936	CB	193	MPD1	C3	1	0.117	12.011
2937	CB	193	MPD1	C4	1	-0.15	12.011
2938	CB	193	MPD1	C5	1	-0.15	12.011
2939	HCMM	193	MPD1	H	1	0.15	1.0079
2940	HCMM	193	MPD1	H1	1	0.15	1.0079
2941	HCMM	193	MPD1	H2	1	0.15	1.0079
2942	HCMM	193	MPD1	H3	1	0.15	1.0079
2943	NC=O	193	MPD1	N	1	-0.547	14.0067
2944	HNCO	193	MPD1	H5	1	0.37	1.0079
2945	NC=C	193	MPD1	N1	1	-0.9	14.0067
2946	HNCO	193	MPD1	H6	1	0.4	1.0079
2947	HNCO	193	MPD1	H7	1	0.4	1.0079
2948	CB	194	MPD1	C	1	-0.15	12.011
2949	CB	194	MPD1	C1	1	0.1	12.011
2950	CB	194	MPD1	C2	1	-0.15	12.011
2951	CB	194	MPD1	C3	1	0.117	12.011
2952	CB	194	MPD1	C4	1	-0.15	12.011
2953	CB	194	MPD1	C5	1	-0.15	12.011
2954	HCMM	194	MPD1	H	1	0.15	1.0079
2955	HCMM	194	MPD1	H1	1	0.15	1.0079
2956	HCMM	194	MPD1	H2	1	0.15	1.0079
2957	HCMM	194	MPD1	H3	1	0.15	1.0079
2958	NC=O	194	MPD1	N	1	-0.547	14.0067
2959	HNCO	194	MPD1	H5	1	0.37	1.0079
2960	NC=C	194	MPD1	N1	1	-0.9	14.0067
2961	HNCO	194	MPD1	H6	1	0.4	1.0079
2962	HNCO	194	MPD1	H7	1	0.4	1.0079
2963	CB	195	MPD1	C	1	-0.15	12.011
2964	CB	195	MPD1	C1	1	0.1	12.011
2965	CB	195	MPD1	C2	1	-0.15	12.011
2966	CB	195	MPD1	C3	1	0.117	12.011
2967	CB	195	MPD1	C4	1	-0.15	12.011
2968	CB	195	MPD1	C5	1	-0.15	12.011
2969	HCMM	195	MPD1	H	1	0.15	1.0079
2970	HCMM	195	MPD1	H1	1	0.15	1.0079
2971	HCMM	195	MPD1	H2	1	0.15	1.0079
2972	HCMM	195	MPD1	H3	1	0.15	1.0079
2973	NC=O	195	MPD1	N	1	-0.547	14.0067
2974	HNCO	195	MPD1	H5	1	0.37	1.0079
2975	NC=C	195	MPD1	N1	1	-0.9	14.0067
2976	HNCO	195	MPD1	H6	1	0.4	1.0079
2977	HNCO	195	MPD1	H7	1	0.4	1.0079
2978	CB	196	MPD1	C	1	-0.15	12.011
2979	CB	196	MPD1	C1	1	0.1	12.011
2980	CB	196	MPD1	C2	1	-0.15	12.011
2981	CB	196	MPD1	C3	1	0.117	12.011
2982	CB	196	MPD1	C4	1	-0.15	12.011
2983	CB	196	MPD1	C5	1	-0.15	12.011
2984	HCMM	196	MPD1	H	1	0.15	1.0079
2985	HCMM	196	MPD1	H1	1	0.15	1.0079
2986	HCMM	196	MPD1	H2	1	0.15	1.0079
2987	HCMM	196	MPD1	H3	1	0.15	1.0079
2988	NC=O	196	MPD1	N	1	-0.547	14.0067
2989	HNCO	196	MPD1	H5	1	0.37	1.0079
2990	NC=C	196	MPD1	N1	1	-0.9	14.0067
2991	HNCO	196	MPD1	H6	1	0.4	1.0079
2992	HNCO	196	MPD1	H7	1	0.4	1.0079
2993	CB	197	MPD1	C	1	-0.15	12.011
2994	CB	197	MPD1	C1	1	0.1	12.011
2995	CB	197	MPD1	C2	1	-0.15	12.011
2996	CB	197	MPD1	C3	1	0.117	12.011
2997	CB	197	MPD1	C4	1	-0.15	12.011
2998	CB	197	MPD1	C5	1	-0.15	12.011
2999	HCMM	197	MPD1	H	1	0.15	1.0079
3000	HCMM	197	MPD1	H1	1	0.15	1.0079
3001	HCMM	197	MPD1	H2	1	0.15	1.0079
3002	HCMM	197	MPD1	H3	1	0.15	1.0079
3003	NC=O	197	MPD1	N	1	-0.547	14.0067
3004	HNCO	197	MPD1	H5	1	0.37	1.0079
3005	NC=C	197	MPD1	N1	1	-0.9	14.0067
3006	HNCO	197	MPD1	H6	1	0.4	1.0079
3007	HNCO	197	MPD1	H7	1	0.4	1.0079
3008	CB	198	MPD1	C	1	-0.15	12.011
3009	CB	198	MPD1	C1	1	0.1	12.011
3010	CB	198	MPD1	C2	1	-0.15	12.011
3011	CB	198	MPD1	C3	1	0.117	12.011
3012	CB	198	MPD1	C4	1	-0.15	12.011
3013	CB	198	MPD1	C5	1	-0.15	12.011
3014	HCMM	198	MPD1	H	1	0.15	1.0079
3015	HCMM	198	MPD1	H1	1	0.15	1.0079
3016	HCMM	198	MPD1	H2	1	0.15	1.0079
3017	HCMM	198	MPD1	H3	1	0.15	1.0079
3018	NC=O	198	MPD1	N	1	-0.547	14.0067
3019	HNCO	198	MPD1	H5	1	0.37	1.0079
3020	NC=C	198	MPD1	N1	1	-0.9	14.0067
3021	HNCO	198	MPD1	H6	1	0.4	1.0079
3022	HNCO	198	MPD1	H7	1	0.4	1.0079
3023	CB	199	MPD1	C	1	-0.15	12.011
3024	CB	199	MPD1	C1	1	0.1	12.011
3025	CB	199	MPD1	C2	1	-0.15	12.011
3026	CB	199	MPD1	C3	1	0.117	12.011
3027	CB	199	MPD1	C4	1	-0.15	12.011
3028	CB	199	MPD1	C5	1	-0.15	12.011
3029	HCMM	199	MPD1	H	1	0.15	1.0079
3030	HCMM	199	MPD1	H1	1	0.15	1.0079
3031	HCMM	199	MPD1	H2	1	0.15	1.0079
3032	HCMM	199	MPD1	H3	1	0.15	1.0079
3033	NC=O	199	MPD1	N	1	-0.547	14.0067
3034	HNCO	199	MPD1	H5	1	0.37	1.0079
3035	NC=C	199	MPD1	N1	1	-0.9	14.0067
3036	HNCO	199	MPD1	H6	1	0.4	1.0079
3037	HNCO	199	MPD1	H7	1	0.4	1.0079
3038	CB	200	MPD1	C	1	-0.15	12.011
3039	CB	200	MPD1	C1	1	0.1	12.011
3040	CB	200	MPD1	C2	1	-0.15	12.011
3041	CB	200	MPD1	C3	1	0.117	12.011
3042	CB	200	MPD1	C4	1	-0.15	12.011
3043	CB	200	MPD1	C5	1	-0.15	12.011
3044	HCMM	200	MPD1	H	1	0.15	1.0079
3045	HCMM	200	MPD1	H1	1	0.15	1.0079
3046	HCMM	200	MPD1	H2	1	0.15	1.0079
3047	HCMM	200	MPD1	H3	1	0.15	1.0079
3048	NC=O	200	MPD1	N	1	-0.547	14.0067
3049	HNCO	200	MPD1	H5	1	0.37	1.0079
3050	NC=C	200	MPD1	N1	1	-0.9	14.0067
3051	HNCO	200	MPD1	H6	1	0.4	1.0079
3052	HNCO	200	MPD1	H7	1	0.4	1.0079
3053	CB	201	MPD1	C	1	-0.15	12.011
3054	CB	201	MPD1	C1	1	0.1	12.011
3055	CB	201	MPD1	C2	1	-0.15	12.011
3056	CB	201	MPD1	C3	1	0.117	12.011
3057	CB	201	MPD1	C4	1	-0.15	12.011
3058	CB	201	MPD1	C5	1	-0.15	12.011
3059	HCMM	201	MPD1	H	1	0.15	1.0079
3060	HCMM	201	MPD1	H1	1	0.15	1.0079
3061	HCMM	201	MPD1	H2	1	0.15	1.0079
3062	HCMM	201	MPD1	H3	1	0.15	1.0079
3063	NC=O	201	MPD1	N	1	-0.547	14.0067
3064	HNCO	201	MPD1	H5	1	0.37	1.0079
3065	NC=C	201	MPD1	N1	1	-0.9	14.0067
3066	HNCO	201	MPD1	H6	1	0.4	1.0079
3067	HNCO	201	MPD1	H7	1	0.4	1.0079
3068	CB	202	MPD1	C	1	-0.15	12.011
3069	CB	202	MPD1	C1	1	0.1	12.011
3070	CB	202	MPD1	C2	1	-0.15	12.011
3071	CB	202	MPD1	C3	1	0.117	12.011
3072	CB	202	MPD1	C4	1	-0.15	12.011
3073	CB	202	MPD1	C5	1	-0.15	12.011
3074	HCMM	202	MPD1	H	1	0.15	1.0079
3075	HCMM	202	MPD1	H1	1	0.15	1.0079
3076	HCMM	202	MPD1	H2	1	0.15	1.0079
3077	HCMM	202	MPD1	H3	1	0.15	1.0079
3078	NC=O	202	MPD1	N	1	-0.547	14.0067
3079	HNCO	202	MPD1	H5	1	0.37	1.0079
3080	NC=C	202	MPD1	N1	1	-0.9	14.0067
3081	HNCO	202	MPD1	H6	1	0.4	1.0079
3082	HNCO	202	MPD1	H7	1	0.4	1.0079
3083	CB	203	MPD1	C	1	-0.15	12.011
3084	CB	203	MPD1	C1	1	0.1	12.011
3085	CB	203	MPD1	C2	1	-0.15	12.011
3086	CB	203	MPD1	C3	1	0.117	12.011
3087	CB	203	MPD1	C4	1	-0.15	12.011
3088	CB	203	MPD1	C5	1	-0.15	12.011
3089	HCMM	203	MPD1	H	1	0.15	1.0079
3090	HCMM	203	MPD1	H1	1	0.15	1.0079
3091	HCMM	203	MPD1	H2	1	0.15	1.0079
3092	HCMM	203	MPD1	H3	1	0.15	1.0079
3093	NC=O	203	MPD1	N	1	-0.547	14.0067
3094	HNCO	203	MPD1	H5	1	0.37	1.0079
3095	NC=C	203	MPD1	N1	1	-0.9	14.0067
3096	HNCO	203	MPD1	H6	1	0.4	1.0079
3097	HNCO	203	MPD1	H7	1	0.4	1.0079
3098	CB	204	MPD1	C	1	-0.15	12.011
3099	CB	204	MPD1	C1	1	0.1	12.011
3100	CB	204	MPD1	C2	1	-0.15	12.011
3101	CB	204	MPD1	C3	1	0.117	12.011
3102	CB	204	MPD1	C4	1	-0.15	12.011
3103	CB	204	MPD1	C5	1	-0.15	12.011
3104	HCMM	204	MPD1	H	1	0.15	1.0079
3105	HCMM	204	MPD1	H1	1	0.15	1.0079
3106	HCMM	204	MPD1	H2	1	0.15	1.0079
3107	HCMM	204	MPD1	H3	1	0.15	1.0079
3108	NC=O	204	MPD1	N	1	-0.547	14.0067
3109	HNCO	204	MPD1	H5	1	0.37	1.0079
3110	NC=C	204	MPD1	N1	1	-0.9	14.0067
3111	HNCO	204	MPD1	H6	1	0.4	1.0079
3112	HNCO	204	MPD1	H7	1	0.4	1.0079
3113	CB	205	MPD1	C	1	-0.15	12.011
3114	CB	205	MPD1	C1	1	0.1	12.011
3115	CB	205	MPD1	C2	1	-0.15	12.011
3116	CB	205	MPD1	C3	1	0.117	12.011
3117	CB	205	MPD1	C4	1	-0.15	12.011
3118	CB	205	MPD1	C5	1	-0.15	12.011
3119	HCMM	205	MPD1	H	1	0.15	1.0079
3120	HCMM	205	MPD1	H1	1	0.15	1.0079
3121	HCMM	205	MPD1	H2	1	0.15	1.0079
3122	HCMM	205	MPD1	H3	1	0.15	1.0079
3123	NC=O	205	MPD1	N	1	-0.547	14.0067
3124	HNCO	205	MPD1	H5	1	0.37	1.0079
3125	NC=C	205	MPD1	N1	1	-0.9	14.0067
3126	HNCO	205	MPD1	H6	1	0.4	1.0079
3127	HNCO	205	MPD1	H7	1	0.4	1.0079
3128	CB	206	MPD1	C	1	-0.15	12.011
3129	CB	206	MPD1	C1	1	0.1	12.011
3130	CB	206	MPD1	C2	1	-0.15	12.011
3131	CB	206	MPD1	C3	1	0.117	12.011
3132	CB	206	MPD1	C4	1	-0.15	12.011
3133	CB	206	MPD1	C5	1	-0.15	12.011
3134	HCMM	206	MPD1	H	1	0.15	1.0079
3135	HCMM	206	MPD1	H1	1	0.15	1.0079
3136	HCMM	206	MPD1	H2	1	0.15	1.0079
3137	HCMM	206	MPD1	H3	1	0.15	1.0079
3138	NC=O	206	MPD1	N	1	-0.547	14.0067
3139	HNCO	206	MPD1	H5	1	0.37	1.0079
3140	NC=C	206	MPD1	N1	1	-0.9	14.0067
3141	HNCO	206	MPD1	H6	1	0.4	1.0079
3142	HNCO	206	MPD1	H7	1	0.4	1.0079
3143	CB	207	MPD1	C	1	-0.15	12.011
3144	CB	207	MPD1	C1	1	0.1	12.011
3145	CB	207	MPD1	C2	1	-0.15	12.011
3146	CB	207	MPD1	C3	1	0.117	12.011
3147	CB	207	MPD1	C4	1	-0.15	12.011
3148	CB	207	MPD1	C5	1	-0.15	12.011
3149	HCMM	207	MPD1	H	1	0.15	1.0079
3150	HCMM	207	MPD1	H1	1	0.15	1.0079
3151	HCMM	207	MPD1	H2	1	0.15	1.0079
3152	HCMM	207	MPD1	H3	1	0.15	1.0079
3153	NC=O	207	MPD1	N	1	-0.547	14.0067
3154	HNCO	207	MPD1	H5	1	0.37	1.0079
3155	NC=C	207	MPD1	N1	1	-0.9	14.0067
3156	HNCO	207	MPD1	H6	1	0.4	1.0079
3157	HNCO	207	MPD1	H7	1	0.4	1.0079
3158	CB	208	MPD1	C	1	-0.15	12.011
3159	CB	208	MPD1	C1	1	0.1	12.011
3160	CB	208	MPD1	C2	1	-0.15	12.011
3161	CB	208	MPD1	C3	1	0.117	12.011
3162	CB	208	MPD1	C4	1	-0.15	12.011
3163	CB	208	MPD1	C5	1	-0.15	12.011
3164	HCMM	208	MPD1	H	1	0.15	1.0079
3165	HCMM	208	MPD1	H1	1	0.15	1.0079
3166	HCMM	208	MPD1	H2	1	0.15	1.0079
3167	HCMM	208	MPD1	H3	1	0.15	1.0079
3168	NC=O	208	MPD1	N	1	-0.547	14.0067
3169	HNCO	208	MPD1	H5	1	0.37	1.0079
3170	NC=C	208	MPD1	N1	1	-0.9	14.0067
3171	HNCO	208	MPD1	H6	1	0.4	1.0079
3172	HNCO	208	MPD1	H7	1	0.4	1.0079
3173	CB	209	MPD1	C	1	-0.15	12.011
3174	CB	209	MPD1	C1	1	0.1	12.011
3175	CB	209	MPD1	C2	1	-0.15	12.011
3176	CB	209	MPD1	C3	1	0.117	12.011
3177	CB	209	MPD1	C4	1	-0.15	12.011
3178	CB	209	MPD1	C5	1	-0.15	12.011
3179	HCMM	209	MPD1	H	1	0.15	1.0079
3180	HCMM	209	MPD1	H1	1	0.15	1.0079
3181	HCMM	209	MPD1	H2	1	0.15	1.0079
3182	HCMM	209	MPD1	H3	1	0.15	1.0079
3183	NC=O	209	MPD1	N	1	-0.547	14.0067
3184	HNCO	209	MPD1	H5	1	0.37	1.0079
3185	NC=C	209	MPD1	N1	1	-0.9	14.0067
3186	HNCO	209	MPD1	H6	1	0.4	1.0079
3187	HNCO	209	MPD1	H7	1	0.4	1.0079
3188	CB	210	MPD1	C	1	-0.15	12.011
3189	CB	210	MPD1	C1	1	0.1	12.011
3190	CB	210	MPD1	C2	1	-0.15	12.011
3191	CB	210	MPD1	C3	1	0.117	12.011
3192	CB	210	MPD1	C4	1	-0.15	12.011
3193	CB	210	MPD1	C5	1	-0.15	12.011
3194	HCMM	210	MPD1	H	1	0.15	1.0079
3195	HCMM	210	MPD1	H1	1	0.15	1.0079
3196	HCMM	210	MPD1	H2	1	0.15	1.0079
3197	HCMM	210	MPD1	H3	1	0.15	1.0079
3198	NC=O	210	MPD1	N	1	-0.547	14.0067
3199	HNCO	210	MPD1	H5	1	0.37	1.0079
3200	NC=C	210	MPD1	N1	1	-0.9	14.0067
3201	HNCO	210	MPD1	H6	1	0.4	1.0079
3202	HNCO	210	MPD1	H7	1	0.4	1.0079
3203	CB	211	MPD1	C	1	-0.15	12.011
3204	CB	211	MPD1	C1	1	0.1	12.011
3205	CB	211	MPD1	C2	1	-0.15	12.011
3206	CB	211	MPD1	C3	1	0.117	12.011
3207	CB	211	MPD1	C4	1	-0.15	12.011
3208	CB	211	MPD1	C5	1	-0.15	12.011
3209	HCMM	211	MPD1	H	1	0.15	1.0079
3210	HCMM	211	MPD1	H1	1	0.15	1.0079
3211	HCMM	211	MPD1	H2	1	0.15	1.0079
3212	HCMM	211	MPD1	H3	1	0.15	1.0079
3213	NC=O	211	MPD1	N	1	-0.547	14.0067
3214	HNCO	211	MPD1	H5	1	0.37	1.0079
3215	NC=C	211	MPD1	N1	1	-0.9	14.0067
3216	HNCO	211	MPD1	H6	1	0.4	1.0079
3217	HNCO	211	MPD1	H7	1	0.4	1.0079
3218	CB	212	MPD1	C	1	-0.15	12.011
3219	CB	212	MPD1	C1	1	0.1	12.011
3220	CB	212	MPD1	C2	1	-0.15	12.011
3221	CB	212	MPD1	C3	1	0.117	12.011
3222	CB	212	MPD1	C4	1	-0.15	12.011
3223	CB	212	MPD1	C5	1	-0.15	12.011
3224	HCMM	212	MPD1	H	1	0.15	1.0079
3225	HCMM	212	MPD1	H1	1	0.15	1.0079
3226	HCMM	212	MPD1	H2	1	0.15	1.0079
3227	HCMM	212	MPD1	H3	1	0.15	1.0079
3228	NC=O	212	MPD1	N	1	-0.547	14.0067
3229	HNCO	212	MPD1	H5	1	0.37	1.0079
3230	NC=C	212	MPD1	N1	1	-0.9	14.0067
3231	HNCO	212	MPD1	H6	1	0.4	1.0079
3232	HNCO	212	MPD1	H7	1	0.4	1.0079
3233	CB	213	MPD1	C	1	-0.15	12.011
3234	CB	213	MPD1	C1	1	0.1	12.011
3235	CB	213	MPD1	C2	1	-0.15	12.011
3236	CB	213	MPD1	C3	1	0.117	12.011
3237	CB	213	MPD1	C4	1	-0.15	12.011
3238	CB	213	MPD1	C5	1	-0.15	12.011
3239	HCMM	213	MPD1	H	1	0.15	1.0079
3240	HCMM	213	MPD1	H1	1	0.15	1.0079
3241	HCMM	213	MPD1	H2	1	0.15	1.0079
3242	HCMM	213	MPD1	H3	1	0.15	1.0079
3243	NC=O	213	MPD1	N	1	-0.547	14.0067
3244	HNCO	213	MPD1	H5	1	0.37	1.0079
3245	NC=C	213	MPD1	N1	1	-0.9	14.0067
3246	HNCO	213	MPD1	H6	1	0.4	1.0079
3247	HNCO	213	MPD1	H7	1	0.4	1.0079
3248	CB	214	MPD1	C	1	-0.15	12.011
3249	CB	214	MPD1	C1	1	0.1	12.011
3250	CB	214	MPD1	C2	1	-0.15	12.011
3251	CB	214	MPD1	C3	1	0.117	12.011
3252	CB	214	MPD1	C4	1	-0.15	12.011
3253	CB	214	MPD1	C5	1	-0.15	12.011
3254	HCMM	214	MPD1	H	1	0.15	1.0079
3255	HCMM	214	MPD1	H1	1	0.15	1.0079
3256	HCMM	214	MPD1	H2	1	0.15	1.0079
3257	HCMM	214	MPD1	H3	1	0.15	1.0079
3258	NC=O	214	MPD1	N	1	-0.547	14.0067
3259	HNCO	214	MPD1	H5	1	0.37	1.0079
3260	NC=C	214	MPD1	N1	1	-0.9	14.0067
3261	HNCO	214	MPD1	H6	1	0.4	1.0079
3262	HNCO	214	MPD1	H7	1	0.4	1.0079
3263	CB	215	MPD1	C	1	-0.15	12.011
3264	CB	215	MPD1	C1	1	0.1	12.011
3265	CB	215	MPD1	C2	1	-0.15	12.011
3266	CB	215	MPD1	C3	1	0.117	12.011
3267	CB	215	MPD1	C4	1	-0.15	12.011
3268	CB	215	MPD1	C5	1	-0.15	12.011
3269	HCMM	215	MPD1	H	1	0.15	1.0079
3270	HCMM	215	MPD1	H1	1	0.15	1.0079
3271	HCMM	215	MPD1	H2	1	0.15	1.0079
3272	HCMM	215	MPD1	H3	1	0.15	1.0079
3273	NC=O	215	MPD1	N	1	-0.547	14.0067
3274	HNCO	215	MPD1	H5	1	0.37	1.0079
3275	NC=C	215	MPD1	N1	1	-0.9	14.0067
3276	HNCO	215	MPD1	H6	1	0.4	1.0079
3277	HNCO	215	MPD1	H7	1	0.4	1.0079
3278	CB	216	MPD1	C	1	-0.15	12.011
3279	CB	216	MPD1	C1	1	0.1	12.011
3280	CB	216	MPD1	C2	1	-0.15	12.011
3281	CB	216	MPD1	C3	1	0.117	12.011
3282	CB	216	MPD1	C4	1	-0.15	12.011
3283	CB	216	MPD1	C5	1	-0.15	12.011
3284	HCMM	216	MPD1	H	1	0.15	1.0079
3285	HCMM	216	MPD1	H1	1	0.15	1.0079
3286	HCMM	216	MPD1	H2	1	0.15	1.0079
3287	HCMM	216	MPD1	H3	1	0.15	1.0079
3288	NC=O	216	MPD1	N	1	-0.547	14.0067
3289	HNCO	216	MPD1	H5	1	0.37	1.0079
3290	NC=C	216	MPD1	N1	1	-0.9	14.0067
3291	HNCO	216	MPD1	H6	1	0.4	1.0079
3292	HNCO	216	MPD1	H7	1	0.4	1.0079
3293	CB	217	MPD1	C	1	-0.15	12.011
3294	CB	217	MPD1	C1	1	0.1	12.011
3295	CB	217	MPD1	C2	1	-0.15	12.011
3296	CB	217	MPD1	C3	1	0.117	12.011
3297	CB	217	MPD1	C4	1	-0.15	12.011
3298	CB	217	MPD1	C5	1	-0.15	12.011
3299	HCMM	217	MPD1	H	1	0.15	1.0079
3300	HCMM	217	MPD1	H1	1	0.15	1.0079
3301	HCMM	217	MPD1	H2	1	0.15	1.0079
3302	HCMM	217	MPD1	H3	1	0.15	1.0079
3303	NC=O	217	MPD1	N	1	-0.547	14.0067
3304	HNCO	217	MPD1	H5	1	0.37	1.0079
3305	NC=C	217	MPD1	N1	1	-0.9	14.0067
3306	HNCO	217	MPD1	H6	1	0.4	1.0079
3307	HNCO	217	MPD1	H7	1	0.4	1.0079
3308	CB	218	MPD1	C	1	-0.15	12.011
3309	CB	218	MPD1	C1	1	0.1	12.011
3310	CB	218	MPD1	C2	1	-0.15	12.011
3311	CB	218	MPD1	C3	1	0.117	12.011
3312	CB	218	MPD1	C4	1	-0.15	12.011
3313	CB	218	MPD1	C5	1	-0.15	12.011
3314	HCMM	218	MPD1	H	1	0.15	1.0079
3315	HCMM	218	MPD1	H1	1	0.15	1.0079
3316	HCMM	218	MPD1	H2	1	0.15	1.0079
3317	HCMM	218	MPD1	H3	1	0.15	1.0079
3318	NC=O	218	MPD1	N	1	-0.547	14.0067
3319	HNCO	218	MPD1	H5	1	0.37	1.0079
3320	NC=C	218	MPD1	N1	1	-0.9	14.0067
3321	HNCO	218	MPD1	H6	1	0.4	1.0079
3322	HNCO	218	MPD1	H7	1	0.4	1.0079
3323	CB	219	MPD1	C	1	-0.15	12.011
3324	CB	219	MPD1	C1	1	0.1	12.011
3325	CB	219	MPD1	C2	1	-0.15	12.011
3326	CB	219	MPD1	C3	1	0.117	12.011
3327	CB	219	MPD1	C4	1	-0.15	12.011
3328	CB	219	MPD1	C5	1	-0.15	12.011
3329	HCMM	219	MPD1	H	1	0.15	1.0079
3330	HCMM	219	MPD1	H1	1	0.15	1.0079
3331	HCMM	219	MPD1	H2	1	0.15	1.0079
3332	HCMM	219	MPD1	H3	1	0.15	1.0079
3333	NC=O	219	MPD1	N	1	-0.547	14.0067
3334	HNCO	219	MPD1	H5	1	0.37	1.0079
3335	NC=C	219	MPD1	N1	1	-0.9	14.0067
3336	HNCO	219	MPD1	H6	1	0.4	1.0079
3337	HNCO	219	MPD1	H7	1	0.4	1.0079
3338	CB	220	MPD1	C	1	-0.15	12.011
3339	CB	220	MPD1	C1	1	0.1	12.011
3340	CB	220	MPD1	C2	1	-0.15	12.011
3341	CB	220	MPD1	C3	1	0.117	12.011
3342	CB	220	MPD1	C4	1	-0.15	12.011
3343	CB	220	MPD1	C5	1	-0.15	12.011
3344	HCMM	220	MPD1	H	1	0.15	1.0079
3345	HCMM	220	MPD1	H1	1	0.15	1.0079
3346	HCMM	220	MPD1	H2	1	0.15	1.0079
3347	HCMM	220	MPD1	H3	1	0.15	1.0079
3348	NC=O	220	MPD1	N	1	-0.547	14.0067
3349	HNCO	220	MPD1	H5	1	0.37	1.0079
3350	NC=C	220	MPD1	N1	1	-0.9	14.0067
3351	HNCO	220	MPD1	H6	1	0.4	1.0079
3352	HNCO	220	MPD1	H7	1	0.4	1.0079
3353	CB	221	MPD1	C	1	-0.15	12.011
3354	CB	221	MPD1	C1	1	0.1	12.011
3355	CB	221	MPD1	C2	1	-0.15	12.011
3356	CB	221	MPD1	C3	1	0.117	12.011
3357	CB	221	MPD1	C4	1	-0.15	12.011
3358	CB	221	MPD1	C5	1	-0.15	12.011
3359	HCMM	221	MPD1	H	1	0.15	1.0079
3360	HCMM	221	MPD1	H1	1	0.15	1.0079
3361	HCMM	221	MPD1	H2	1	0.15	1.0079
3362	HCMM	221	MPD1	H3	1	0.15	1.0079
3363	NC=O	221	MPD1	N	1	-0.547	14.0067
3364	HNCO	221	MPD1	H5	1	0.37	1.0079
3365	NC=C	221	MPD1	N1	1	-0.9	14.0067
3366	HNCO	221	MPD1	H6	1	0.4	1.0079
3367	HNCO	221	MPD1	H7	1	0.4	1.0079
3368	CB	222	MPD1	C	1	-0.15	12.011
3369	CB	222	MPD1	C1	1	0.1	12.011
3370	CB	222	MPD1	C2	1	-0.15	12.011
3371	CB	222	MPD1	C3	1	0.117	12.011
3372	CB	222	MPD1	C4	1	-0.15	12.011
3373	CB	222	MPD1	C5	1	-0.15	12.011
3374	HCMM	222	MPD1	H	1	0.15	1.0079
3375	HCMM	222	MPD1	H1	1	0.15	1.0079
3376	HCMM	222	MPD1	H2	1	0.15	1.0079
3377	HCMM	222	MPD1	H3	1	0.15	1.0079
3378	NC=O	222	MPD1	N	1	-0.547	14.0067
3379	HNCO	222	MPD1	H5	1	0.37	1.0079
3380	NC=C	222	MPD1	N1	1	-0.9	14.0067
3381	HNCO	222	MPD1	H6	1	0.4	1.0079
3382	HNCO	222	MPD1	H7	1	0.4	1.0079
3383	CB	223	MPD1	C	1	-0.15	12.011
3384	CB	223	MPD1	C1	1	0.1	12.011
3385	CB	223	MPD1	C2	1	-0.15	12.011
3386	CB	223	MPD1	C3	1	0.117	12.011
3387	CB	223	MPD1	C4	1	-0.15	12.011
3388	CB	223	MPD1	C5	1	-0.15	12.011
3389	HCMM	223	MPD1	H	1	0.15	1.0079
3390	HCMM	223	MPD1	H1	1	0.15	1.0079
3391	HCMM	223	MPD1	H2	1	0.15	1.0079
3392	HCMM	223	MPD1	H3	1	0.15	1.0079
3393	NC=O	223	MPD1	N	1	-0.547	14.0067
3394	HNCO	223	MPD1	H5	1	0.37	1.0079
3395	NC=C	223	MPD1	N1	1	-0.9	14.0067
3396	HNCO	223	MPD1	H6	1	0.4	1.0079
3397	HNCO	223	MPD1	H7	1	0.4	1.0079
3398	CB	224	MPD1	C	1	-0.15	12.011
3399	CB	224	MPD1	C1	1	0.1	12.011
3400	CB	224	MPD1	C2	1	-0.15	12.011
3401	CB	224	MPD1	C3	1	0.117	12.011
3402	CB	224	MPD1	C4	1	-0.15	12.011
3403	CB	224	MPD1	C5	1	-0.15	12.011
3404	HCMM	224	MPD1	H	1	0.15	1.0079
3405	HCMM	224	MPD1	H1	1	0.15	1.0079
3406	HCMM	224	MPD1	H2	1	0.15	1.0079
3407	HCMM	224	MPD1	H3	1	0.15	1.0079
3408	NC=O	224	MPD1	N	1	-0.547	14.0067
3409	HNCO	224	MPD1	H5	1	0.37	1.0079
3410	NC=C	224	MPD1	N1	1	-0.9	14.0067
3411	HNCO	224	MPD1	H6	1	0.4	1.0079
3412	HNCO	224	MPD1	H7	1	0.4	1.0079
3413	CB	225	MPD1	C	1	-0.15	12.011
3414	CB	225	MPD1	C1	1	0.1	12.011
3415	CB	225	MPD1	C2	1	-0.15	12.011
3416	CB	225	MPD1	C3	1	0.117	12.011
3417	CB	225	MPD1	C4	1	-0.15	12.011
3418	CB	225	MPD1	C5	1	-0.15	12.011
3419	HCMM	225	MPD1	H	1	0.15	1.0079
3420	HCMM	225	MPD1	H1	1	0.15	1.0079
3421	HCMM	225	MPD1	H2	1	0.15	1.0079
3422	HCMM	225	MPD1	H3	1	0.15	1.0079
3423	NC=O	225	MPD1	N	1	-0.547	14.0067
3424	HNCO	225	MPD1	H5	1	0.37	1.0079
3425	NC=C	225	MPD1	N1	1	-0.9	14.0067
3426	HNCO	225	MPD1	H6	1	0.4	1.0079
3427	HNCO	225	MPD1	H7	1	0.4	1.0079
3428	CB	226	MPD1	C	1	-0.15	12.011
3429	CB	226	MPD1	C1	1	0.1	12.011
3430	CB	226	MPD1	C2	1	-0.15	12.011
3431	CB	226	MPD1	C3	1	0.117	12.011
3432	CB	226	MPD1	C4	1	-0.15	12.011
3433	CB	226	MPD1	C5	1	-0.15	12.011
3434	HCMM	226	MPD1	H	1	0.15	1.0079
3435	HCMM	226	MPD1	H1	1	0.15	1.0079
3436	HCMM	226	MPD1	H2	1	0.15	1.0079
3437	HCMM	226	MPD1	H3	1	0.15	1.0079
3438	NC=O	226	MPD1	N	1	-0.547	14.0067
3439	HNCO	226	MPD1	H5	1	0.37	1.0079
3440	NC=C	226	MPD1	N1	1	-0.9	14.0067
3441	HNCO	226	MPD1	H6	1	0.4	1.0079
3442	HNCO	226	MPD1	H7	1	0.4	1.0079
3443	CB	227	MPD1	C	1	-0.15	12.011
3444	CB	227	MPD1	C1	1	0.1	12.011
3445	CB	227	MPD1	C2	1	-0.15	12.011
3446	CB	227	MPD1	C3	1	0.117	12.011
3447	CB	227	MPD1	C4	1	-0.15	12.011
3448	CB	227	MPD1	C5	1	-0.15	12.011
3449	HCMM	227	MPD1	H	1	0.15	1.0079
3450	HCMM	227	MPD1	H1	1	0.15	1.0079
3451	HCMM	227	MPD1	H2	1	0.15	1.0079
3452	HCMM	227	MPD1	H3	1	0.15	1.0079
3453	NC=O	227	MPD1	N	1	-0.547	14.0067
3454	HNCO	227	MPD1	H5	1	0.37	1.0079
3455	NC=C	227	MPD1	N1	1	-0.9	14.0067
3456	HNCO	227	MPD1	H6	1	0.4	1.0079
3457	HNCO	227	MPD1	H7	1	0.4	1.0079
3458	CB	228	MPD1	C	1	-0.15	12.011
3459	CB	228	MPD1	C1	1	0.1	12.011
3460	CB	228	MPD1	C2	1	-0.15	12.011
3461	CB	228	MPD1	C3	1	0.117	12.011
3462	CB	228	MPD1	C4	1	-0.15	12.011
3463	CB	228	MPD1	C5	1	-0.15	12.011
3464	HCMM	228	MPD1	H	1	0.15	1.0079
3465	HCMM	228	MPD1	H1	1	0.15	1.0079
3466	HCMM	228	MPD1	H2	1	0.15	1.0079
3467	HCMM	228	MPD1	H3	1	0.15	1.0079
3468	NC=O	228	MPD1	N	1	-0.547	14.0067
3469	HNCO	228	MPD1	H5	1	0.37	1.0079
3470	NC=C	228	MPD1	N1	1	-0.9	14.0067
3471	HNCO	228	MPD1	H6	1	0.4	1.0079
3472	HNCO	228	MPD1	H7	1	0.4	1.0079
3473	CB	229	MPD1	C	1	-0.15	12.011
3474	CB	229	MPD1	C1	1	0.1	12.011
3475	CB	229	MPD1	C2	1	-0.15	12.011
3476	CB	229	MPD1	C3	1	0.117	12.011
3477	CB	229	MPD1	C4	1	-0.15	12.011
3478	CB	229	MPD1	C5	1	-0.15	12.011
3479	HCMM	229	MPD1	H	1	0.15	1.0079
3480	HCMM	229	MPD1	H1	1	0.15	1.0079
3481	HCMM	229	MPD1	H2	1	0.15	1.0079
3482	HCMM	229	MPD1	H3	1	0.15	1.0079
3483	NC=O	229	MPD1	N	1	-0.547	14.0067
3484	HNCO	229	MPD1	H5	1	0.37	1.0079
3485	NC=C	229	MPD1	N1	1	-0.9	14.0067
3486	HNCO	229	MPD1	H6	1	0.4	1.0079
3487	HNCO	229	MPD1	H7	1	0.4	1.0079
3488	CB	230	MPD1	C	1	-0.15	12.011
3489	CB	230	MPD1	C1	1	0.1	12.011
3490	CB	230	MPD1	C2	1	-0.15	12.011
3491	CB	230	MPD1	C3	1	0.117	12.011
3492	CB	230	MPD1	C4	1	-0.15	12.011
3493	CB	230	MPD1	C5	1	-0.15	12.011
3494	HCMM	230	MPD1	H	1	0.15	1.0079
3495	HCMM	230	MPD1	H1	1	0.15	1.0079
3496	HCMM	230	MPD1	H2	1	0.15	1.0079
3497	HCMM	230	MPD1	H3	1	0.15	1.0079
3498	NC=O	230	MPD1	N	1	-0.547	14.0067
3499	HNCO	230	MPD1	H5	1	0.37	1.0079
3500	NC=C	230	MPD1	N1	1	-0.9	14.0067
3501	HNCO	230	MPD1	H6	1	0.4	1.0079
3502	HNCO	230	MPD1	H7	1	0.4	1.0079
3503	CB	231	MPD1	C	1	-0.15	12.011
3504	CB	231	MPD1	C1	1	0.1	12.011
3505	CB	231	MPD1	C2	1	-0.15	12.011
3506	CB	231	MPD1	C3	1	0.117	12.011
3507	CB	231	MPD1	C4	1	-0.15	12.011
3508	CB	231	MPD1	C5	1	-0.15	12.011
3509	HCMM	231	MPD1	H	1	0.15	1.0079
3510	HCMM	231	MPD1	H1	1	0.15	1.0079
3511	HCMM	231	MPD1	H2	1	0.15	1.0079
3512	HCMM	231	MPD1	H3	1	0.15	1.0079
3513	NC=O	231	MPD1	N	1	-0.547	14.0067
3514	HNCO	231	MPD1	H5	1	0.37	1.0079
3515	NC=C	231	MPD1	N1	1	-0.9	14.0067
3516	HNCO	231	MPD1	H6	1	0.4	1.0079
3517	HNCO	231	MPD1	H7	1	0.4	1.0079
3518	CB	232	MPD1	C	1	-0.15	12.011
3519	CB	232	MPD1	C1	1	0.1	12.011
3520	CB	232	MPD1	C2	1	-0.15	12.011
3521	CB	232	MPD1	C3	1	0.117	12.011
3522	CB	232	MPD1	C4	1	-0.15	12.011
3523	CB	232	MPD1	C5	1	-0.15	12.011
3524	HCMM	232	MPD1	H	1	0.15	1.0079
3525	HCMM	232	MPD1	H1	1	0.15	1.0079
3526	HCMM	232	MPD1	H2	1	0.15	1.0079
3527	HCMM	232	MPD1	H3	1	0.15	1.0079
3528	NC=O	232	MPD1	N	1	-0.547	14.0067
3529	HNCO	232	MPD1	H5	1	0.37	1.0079
3530	NC=C	232	MPD1	N1	1	-0.9	14.0067
3531	HNCO	232	MPD1	H6	1	0.4	1.0079
3532	HNCO	232	MPD1	H7	1	0.4	1.0079
3533	CB	233	MPD1	C	1	-0.15	12.011
3534	CB	233	MPD1	C1	1	0.1	12.011
3535	CB	233	MPD1	C2	1	-0.15	12.011
3536	CB	233	MPD1	C3	1	0.117	12.011
3537	CB	233	MPD1	C4	1	-0.15	12.011
3538	CB	233	MPD1	C5	1	-0.15	12.011
3539	HCMM	233	MPD1	H	1	0.15	1.0079
3540	HCMM	233	MPD1	H1	1	0.15	1.0079
3541	HCMM	233	MPD1	H2	1	0.15	1.0079
3542	HCMM	233	MPD1	H3	1	0.15	1.0079
3543	NC=O	233	MPD1	N	1	-0.547	14.0067
3544	HNCO	233	MPD1	H5	1	0.37	1.0079
3545	NC=C	233	MPD1	N1	1	-0.9	14.0067
3546	HNCO	233	MPD1	H6	1	0.4	1.0079
3547	HNCO	233	MPD1	H7	1	0.4	1.0079
3548	CB	234	MPD1	C	1	-0.15	12.011
3549	CB	234	MPD1	C1	1	0.1	12.011
3550	CB	234	MPD1	C2	1	-0.15	12.011
3551	CB	234	MPD1	C3	1	0.117	12.011
3552	CB	234	MPD1	C4	1	-0.15	12.011
3553	CB	234	MPD1	C5	1	-0.15	12.011
3554	HCMM	234	MPD1	H	1	0.15	1.0079
3555	HCMM	234	MPD1	H1	1	0.15	1.0079
3556	HCMM	234	MPD1	H2	1	0.15	1.0079
3557	HCMM	234	MPD1	H3	1	0.15	1.0079
3558	NC=O	234	MPD1	N	1	-0.547	14.0067
3559	HNCO	234	MPD1	H5	1	0.37	1.0079
3560	NC=C	234	MPD1	N1	1	-0.9	14.0067
3561	HNCO	234	MPD1	H6	1	0.4	1.0079
3562	HNCO	234	MPD1	H7	1	0.4	1.0079
3563	CB	235	MPD1	C	1	-0.15	12.011
3564	CB	235	MPD1	C1	1	0.1	12.011
3565	CB	235	MPD1	C2	1	-0.15	12.011
3566	CB	235	MPD1	C3	1	0.117	12.011
3567	CB	235	MPD1	C4	1	-0.15	12.011
3568	CB	235	MPD1	C5	1	-0.15	12.011
3569	HCMM	235	MPD1	H	1	0.15	1.0079
3570	HCMM	235	MPD1	H1	1	0.15	1.0079
3571	HCMM	235	MPD1	H2	1	0.15	1.0079
3572	HCMM	235	MPD1	H3	1	0.15	1.0079
3573	NC=O	235	MPD1	N	1	-0.547	14.0067
3574	HNCO	235	MPD1	H5	1	0.37	1.0079
3575	NC=C	235	MPD1	N1	1	-0.9	14.0067
3576	HNCO	235	MPD1	H6	1	0.4	1.0079
3577	HNCO	235	MPD1	H7	1	0.4	1.0079
3578	CB	236	MPD1	C	1	-0.15	12.011
3579	CB	236	MPD1	C1	1	0.1	12.011
3580	CB	236	MPD1	C2	1	-0.15	12.011
3581	CB	236	MPD1	C3	1	0.117	12.011
3582	CB	236	MPD1	C4	1	-0.15	12.011
3583	CB	236	MPD1	C5	1	-0.15	12.011
3584	HCMM	236	MPD1	H	1	0.15	1.0079
3585	HCMM	236	MPD1	H1	1	0.15	1.0079
3586	HCMM	236	MPD1	H2	1	0.15	1.0079
3587	HCMM	236	MPD1	H3	1	0.15	1.0079
3588	NC=O	236	MPD1	N	1	-0.547	14.0067
3589	HNCO	236	MPD1	H5	1	0.37	1.0079
3590	NC=C	236	MPD1	N1	1	-0.9	14.0067
3591	HNCO	236	MPD1	H6	1	0.4	1.0079
3592	HNCO	236	MPD1	H7	1	0.4	1.0079
3593	CB	237	MPD1	C	1	-0.15	12.011
3594	CB	237	MPD1	C1	1	0.1	12.011
3595	CB	237	MPD1	C2	1	-0.15	12.011
3596	CB	237	MPD1	C3	1	0.117	12.011
3597	CB	237	MPD1	C4	1	-0.15	12.011
3598	CB	237	MPD1	C5	1	-0.15	12.011
3599	HCMM	237	MPD1	H	1	0.15	1.0079
3600	HCMM	237	MPD1	H1	1	0.15	1.0079
3601	HCMM	237	MPD1	H2	1	0.15	1.0079
3602	HCMM	237	MPD1	H3	1	0.15	1.0079
3603	NC=O	237	MPD1	N	1	-0.547	14.0067
3604	HNCO	237	MPD1	H5	1	0.37	1.0079
3605	NC=C	237	MPD1	N1	1	-0.9	14.0067
3606	HNCO	237	MPD1	H6	1	0.4	1.0079
3607	HNCO	237	MPD1	H7	1	0.4	1.0079
3608	CB	238	MPD1	C	1	-0.15	12.011
3609	CB	238	MPD1	C1	1	0.1	12.011
3610	CB	238	MPD1	C2	1	-0.15	12.011
3611	CB	238	MPD1	C3	1	0.117	12.011
3612	CB	238	MPD1	C4	1	-0.15	12.011
3613	CB	238	MPD1	C5	1	-0.15	12.011
3614	HCMM	238	MPD1	H	1	0.15	1.0079
3615	HCMM	238	MPD1	H1	1	0.15	1.0079
3616	HCMM	238	MPD1	H2	1	0.15	1.0079
3617	HCMM	238	MPD1	H3	1	0.15	1.0079
3618	NC=O	238	MPD1	N	1	-0.547	14.0067
3619	HNCO	238	MPD1	H5	1	0.37	1.0079
3620	NC=C	238	MPD1	N1	1	-0.9	14.0067
3621	HNCO	238	MPD1	H6	1	0.4	1.0079
3622	HNCO	238	MPD1	H7	1	0.4	1.0079
3623	CB	239	MPD1	C	1	-0.15	12.011
3624	CB	239	MPD1	C1	1	0.1	12.011
3625	CB	239	MPD1	C2	1	-0.15	12.011
3626	CB	239	MPD1	C3	1	0.117	12.011
3627	CB	239	MPD1	C4	1	-0.15	12.011
3628	CB	239	MPD1	C5	1	-0.15	12.011
3629	HCMM	239	MPD1	H	1	0.15	1.0079
3630	HCMM	239	MPD1	H1	1	0.15	1.0079
3631	HCMM	239	MPD1	H2	1	0.15	1.0079
3632	HCMM	239	MPD1	H3	1	0.15	1.0079
3633	NC=O	239	MPD1	N	1	-0.547	14.0067
3634	HNCO	239	MPD1	H5	1	0.37	1.0079
3635	NC=C	239	MPD1	N1	1	-0.9	14.0067
3636	HNCO	239	MPD1	H6	1	0.4	1.0079
3637	HNCO	239	MPD1	H7	1	0.4	1.0079
3638	CB	240	MPD1	C	1	-0.15	12.011
3639	CB	240	MPD1	C1	1	0.1	12.011
3640	CB	240	MPD1	C2	1	-0.15	12.011
3641	CB	240	MPD1	C3	1	0.117	12.011
3642	CB	240	MPD1	C4	1	-0.15	12.011
3643	CB	240	MPD1	C5	1	-0.15	12.011
3644	HCMM	240	MPD1	H	1	0.15	1.0079
3645	HCMM	240	MPD1	H1	1	0.15	1.0079
3646	HCMM	240	MPD1	H2	1	0.15	1.0079
3647	HCMM	240	MPD1	H3	1	0.15	1.0079
3648	NC=O	240	MPD1	N	1	-0.547	14.0067
3649	HNCO	240	MPD1	H5	1	0.37	1.0079
3650	NC=C	240	MPD1	N1	1	-0.9	14.0067
3651	HNCO	240	MPD1	H6	1	0.4	1.0079
3652	HNCO	240	MPD1	H7	1	0.4	1.0079
3653	CB	241	MPD1	C	1	-0.15	12.011
3654	CB	241	MPD1	C1	1	0.1	12.011
3655	CB	241	MPD1	C2	1	-0.15	12.011
3656	CB	241	MPD1	C3	1	0.117	12.011
3657	CB	241	MPD1	C4	1	-0.15	12.011
3658	CB	241	MPD1	C5	1	-0.15	12.011
3659	HCMM	241	MPD1	H	1	0.15	1.0079
3660	HCMM	241	MPD1	H1	1	0.15	1.0079
3661	HCMM	241	MPD1	H2	1	0.15	1.0079
3662	HCMM	241	MPD1	H3	1	0.15	1.0079
3663	NC=O	241	MPD1	N	1	-0.547	14.0067
3664	HNCO	241	MPD1	H5	1	0.37	1.0079
3665	NC=C	241	MPD1	N1	1	-0.9	14.0067
3666	HNCO	241	MPD1	H6	1	0.4	1.0079
3667	HNCO	241	MPD1	H7	1	0.4	1.0079
3668	CB	242	MPD1	C	1	-0.15	12.011
3669	CB	242	MPD1	C1	1	0.1	12.011
3670	CB	242	MPD1	C2	1	-0.15	12.011
3671	CB	242	MPD1	C3	1	0.117	12.011
3672	CB	242	MPD1	C4	1	-0.15	12.011
3673	CB	242	MPD1	C5	1	-0.15	12.011
3674	HCMM	242	MPD1	H	1	0.15	1.0079
3675	HCMM	242	MPD1	H1	1	0.15	1.0079
3676	HCMM	242	MPD1	H2	1	0.15	1.0079
3677	HCMM	242	MPD1	H3	1	0.15	1.0079
3678	NC=O	242	MPD1	N	1	-0.547	14.0067
3679	HNCO	242	MPD1	H5	1	0.37	1.0079
3680	NC=C	242	MPD1	N1	1	-0.9	14.0067
3681	HNCO	242	MPD1	H6	1	0.4	1.0079
3682	HNCO	242	MPD1	H7	1	0.4	1.0079
3683	CB	243	MPD1	C	1	-0.15	12.011
3684	CB	243	MPD1	C1	1	0.1	12.011
3685	CB	243	MPD1	C2	1	-0.15	12.011
3686	CB	243	MPD1	C3	1	0.117	12.011
3687	CB	243	MPD1	C4	1	-0.15	12.011
3688	CB	243	MPD1	C5	1	-0.15	12.011
3689	HCMM	243	MPD1	H	1	0.15	1.0079
3690	HCMM	243	MPD1	H1	1	0.15	1.0079
3691	HCMM	243	MPD1	H2	1	0.15	1.0079
3692	HCMM	243	MPD1	H3	1	0.15	1.0079
3693	NC=O	243	MPD1	N	1	-0.547	14.0067
3694	HNCO	243	MPD1	H5	1	0.37	1.0079
3695	NC=C	243	MPD1	N1	1	-0.9	14.0067
3696	HNCO	243	MPD1	H6	1	0.4	1.0079
3697	HNCO	243	MPD1	H7	1	0.4	1.0079
3698	CB	244	MPD1	C	1	-0.15	12.011
3699	CB	244	MPD1	C1	1	0.1	12.011
3700	CB	244	MPD1	C2	1	-0.15	12.011
3701	CB	244	MPD1	C3	1	0.117	12.011
3702	CB	244	MPD1	C4	1	-0.15	12.011
3703	CB	244	MPD1	C5	1	-0.15	12.011
3704	HCMM	244	MPD1	H	1	0.15	1.0079
3705	HCMM	244	MPD1	H1	1	0.15	1.0079
3706	HCMM	244	MPD1	H2	1	0.15	1.0079
3707	HCMM	244	MPD1	H3	1	0.15	1.0079
3708	NC=O	244	MPD1	N	1	-0.547	14.0067
3709	HNCO	244	MPD1	H5	1	0.37	1.0079
3710	NC=C	244	MPD1	N1	1	-0.9	14.0067
3711	HNCO	244	MPD1	H6	1	0.4	1.0079
3712	HNCO	244	MPD1	H7	1	0.4	1.0079
3713	CB	245	MPD1	C	1	-0.15	12.011
3714	CB	245	MPD1	C1	1	0.1	12.011
3715	CB	245	MPD1	C2	1	-0.15	12.011
3716	CB	245	MPD1	C3	1	0.117	12.011
3717	CB	245	MPD1	C4	1	-0.15	12.011
3718	CB	245	MPD1	C5	1	-0.15	12.011
3719	HCMM	245	MPD1	H	1	0.15	1.0079
3720	HCMM	245	MPD1	H1	1	0.15	1.0079
3721	HCMM	245	MPD1	H2	1	0.15	1.0079
3722	HCMM	245	MPD1	H3	1	0.15	1.0079
3723	NC=O	245	MPD1	N	1	-0.547	14.0067
3724	HNCO	245	MPD1	H5	1	0.37	1.0079
3725	NC=C	245	MPD1	N1	1	-0.9	14.0067
3726	HNCO	245	MPD1	H6	1	0.4	1.0079
3727	HNCO	245	MPD1	H7	1	0.4	1.0079
3728	CB	246	MPD1	C	1	-0.15	12.011
3729	CB	246	MPD1	C1	1	0.1	12.011
3730	CB	246	MPD1	C2	1	-0.15	12.011
3731	CB	246	MPD1	C3	1	0.117	12.011
3732	CB	246	MPD1	C4	1	-0.15	12.011
3733	CB	246	MPD1	C5	1	-0.15	12.011
3734	HCMM	246	MPD1	H	1	0.15	1.0079
3735	HCMM	246	MPD1	H1	1	0.15	1.0079
3736	HCMM	246	MPD1	H2	1	0.15	1.0079
3737	HCMM	246	MPD1	H3	1	0.15	1.0079
3738	NC=O	246	MPD1	N	1	-0.547	14.0067
3739	HNCO	246	MPD1	H5	1	0.37	1.0079
3740	NC=C	246	MPD1	N1	1	-0.9	14.0067
3741	HNCO	246	MPD1	H6	1	0.4	1.0079
3742	HNCO	246	MPD1	H7	1	0.4	1.0079
3743	CB	247	MPD1	C	1	-0.15	12.011
3744	CB	247	MPD1	C1	1	0.1	12.011
3745	CB	247	MPD1	C2	1	-0.15	12.011
3746	CB	247	MPD1	C3	1	0.117	12.011
3747	CB	247	MPD1	C4	1	-0.15	12.011
3748	CB	247	MPD1	C5	1	-0.15	12.011
3749	HCMM	247	MPD1	H	1	0.15	1.0079
3750	HCMM	247	MPD1	H1	1	0.15	1.0079
3751	HCMM	247	MPD1	H2	1	0.15	1.0079
3752	HCMM	247	MPD1	H3	1	0.15	1.0079
3753	NC=O	247	MPD1	N	1	-0.547	14.0067
3754	HNCO	247	MPD1	H5	1	0.37	1.0079
3755	NC=C	247	MPD1	N1	1	-0.9	14.0067
3756	HNCO	247	MPD1	H6	1	0.4	1.0079
3757	HNCO	247	MPD1	H7	1	0.4	1.0079
3758	CB	248	MPD1	C	1	-0.15	12.011
3759	CB	248	MPD1	C1	1	0.1	12.011
3760	CB	248	MPD1	C2	1	-0.15	12.011
3761	CB	248	MPD1	C3	1	0.117	12.011
3762	CB	248	MPD1	C4	1	-0.15	12.011
3763	CB	248	MPD1	C5	1	-0.15	12.011
3764	HCMM	248	MPD1	H	1	0.15	1.0079
3765	HCMM	248	MPD1	H1	1	0.15	1.0079
3766	HCMM	248	MPD1	H2	1	0.15	1.0079
3767	HCMM	248	MPD1	H3	1	0.15	1.0079
3768	NC=O	248	MPD1	N	1	-0.547	14.0067
3769	HNCO	248	MPD1	H5	1	0.37	1.0079
3770	NC=C	248	MPD1	N1	1	-0.9	14.0067
3771	HNCO	248	MPD1	H6	1	0.4	1.0079
3772	HNCO	248	MPD1	H7	1	0.4	1.0079
3773	CB	249	MPD1	C	1	-0.15	12.011
3774	CB	249	MPD1	C1	1	0.1	12.011
3775	CB	249	MPD1	C2	1	-0.15	12.011
3776	CB	249	MPD1	C3	1	0.117	12.011
3777	CB	249	MPD1	C4	1	-0.15	12.011
3778	CB	249	MPD1	C5	1	-0.15	12.011
3779	HCMM	249	MPD1	H	1	0.15	1.0079
3780	HCMM	249	MPD1	H1	1	0.15	1.0079
3781	HCMM	249	MPD1	H2	1	0.15	1.0079
3782	HCMM	249	MPD1	H3	1	0.15	1.0079
3783	NC=O	249	MPD1	N	1	-0.547	14.0067
3784	HNCO	249	MPD1	H5	1	0.37	1.0079
3785	NC=C	249	MPD1	N1	1	-0.9	14.0067
3786	HNCO	249	MPD1	H6	1	0.4	1.0079
3787	HNCO	249	MPD1	H7	1	0.4	1.0079
3788	CB	250	MPD2	C	1	-0.15	12.011
3789	CB	250	MPD2	C1	1	0.117	12.011
3790	CB	250	MPD2	C2	1	-0.15	12.011
3791	CB	250	MPD2	C3	1	0.117	12.011
3792	CB	250	MPD2	C4	1	-0.15	12.011
3793	CB	250	MPD2	C5	1	-0.15	12.011
3794	HCMM	250	MPD2	H	1	0.15	1.0079
3795	HCMM	250	MPD2	H1	1	0.15	1.0079
3796	HCMM	250	MPD2	H2	1	0.15	1.0079
3797	HCMM	250	MPD2	H3	1	0.15	1.0079
3798	NC=O	250	MPD2	N	1	-0.547	14.0067
3799	HNCO	250	MPD2	H5	1	0.37	1.0079
3800	NC=O	250	MPD2	N1	1	-0.547	14.0067
3801	HNCO	250	MPD2	H7	1	0.37	1.0079
3802	CB	251	TMC3	C1	1	0.0862	12.011
3803	CB	251	TMC3	C2	1	-0.15	12.011
3804	CB	251	TMC3	C3	1	0.0862	12.011
3805	CB	251	TMC3	C4	1	-0.15	12.011
3806	CB	251	TMC3	C5	1	0.0862	12.011
3807	CB	251	TMC3	C6	1	-0.15	12.011
3808	C=O	251	TMC3	C	1	0.5438	12.011
3809	O=C	251	TMC3	O	1	-0.57	15.9994
3810	HCMM	251	TMC3	H	1	0.15	1.0079
3811	HCMM	251	TMC3	H1	1	0.15	1.0079
3812	HCMM	251	TMC3	H2	1	0.15	1.0079
3813	C=O	251	TMC3	C7	1	0.5438	12.011
3814	C=O	251	TMC3	C8	1	0.5438	12.011
3815	O=C	251	TMC3	O1	1	-0.57	15.9994
3816	O=C	251	TMC3	O2	1	-0.57	15.9994
3817	CB	252	TMC3	C1	1	0.0862	12.011
3818	CB	252	TMC3	C2	1	-0.15	12.011
3819	CB	252	TMC3	C3	1	0.0862	12.011
3820	CB	252	TMC3	C4	1	-0.15	12.011
3821	CB	252	TMC3	C5	1	0.0862	12.011
3822	CB	252	TMC3	C6	1	-0.15	12.011
3823	C=O	252	TMC3	C	1	0.5438	12.011
3824	O=C	252	TMC3	O	1	-0.57	15.9994
3825	HCMM	252	TMC3	H	1	0.15	1.0079
3826	HCMM	252	TMC3	H1	1	0.15	1.0079
3827	HCMM	252	TMC3	H2	1	0.15	1.0079
3828	C=O	252	TMC3	C7	1	0.5438	12.011
3829	C=O	252	TMC3	C8	1	0.5438	12.011
3830	O=C	252	TMC3	O1	1	-0.57	15.9994
3831	O=C	252	TMC3	O2	1	-0.57	15.9994
3832	CB	253	MPD2	C	1	-0.15	12.011
3833	CB	253	MPD2	C1	1	0.117	12.011
3834	CB	253	MPD2	C2	1	-0.15	12.011
3835	CB	253	MPD2	C3	1	0.117	12.011
3836	CB	253	MPD2	C4	1	-0.15	12.011
3837	CB	253	MPD2	C5	1	-0.15	12.011
3838	HCMM	253	MPD2	H	1	0.15	1.0079
3839	HCMM	253	MPD2	H1	1	0.15	1.0079
3840	HCMM	253	MPD2	H2	1	0.15	1.0079
3841	HCMM	253	MPD2	H3	1	0.15	1.0079
3842	NC=O	253	MPD2	N	1	-0.547	14.0067
3843	HNCO	253	MPD2	H5	1	0.37	1.0079
3844	NC=O	253	MPD2	N1	1	-0.547	14.0067
3845	HNCO	253	MPD2	H7	1	0.37	1.0079
3846	CB	254	TMC3	C1	1	0.0862	12.011
3847	CB	254	TMC3	C2	1	-0.15	12.011
3848	CB	254	TMC3	C3	1	0.0862	12.011
3849	CB	254	TMC3	C4	1	-0.15	12.011
3850	CB	254	TMC3	C5	1	0.0862	12.011
3851	CB	254	TMC3	C6	1	-0.15	12.011
3852	C=O	254	TMC3	C	1	0.5438	12.011
3853	O=C	254	TMC3	O	1	-0.57	15.9994
3854	HCMM	254	TMC3	H	1	0.15	1.0079
3855	HCMM	254	TMC3	H1	1	0.15	1.0079
3856	HCMM	254	TMC3	H2	1	0.15	1.0079
3857	C=O	254	TMC3	C7	1	0.5438	12.011
3858	C=O	254	TMC3	C8	1	0.5438	12.011
3859	O=C	254	TMC3	O1	1	-0.57	15.9994
3860	O=C	254	TMC3	O2	1	-0.57	15.9994
3861	CB	255	MPD2	C	1	-0.15	12.011
3862	CB	255	MPD2	C1	1	0.117	12.011
3863	CB	255	MPD2	C2	1	-0.15	12.011
3864	CB	255	MPD2	C3	1	0.117	12.011
3865	CB	255	MPD2	C4	1	-0.15	12.011
3866	CB	255	MPD2	C5	1	-0.15	12.011
3867	HCMM	255	MPD2	H	1	0.15	1.0079
3868	HCMM	255	MPD2	H1	1	0.15	1.0079
3869	HCMM	255	MPD2	H2	1	0.15	1.0079
3870	HCMM	255	MPD2	H3	1	0.15	1.0079
3871	NC=O	255	MPD2	N	1	-0.547	14.0067
3872	HNCO	255	MPD2	H5	1	0.37	1.0079
3873	NC=O	255	MPD2	N1	1	-0.547	14.0067
3874	HNCO	255	MPD2	H7	1	0.37	1.0079
3875	CB	256	TMC3	C1	1	0.0862	12.011
3876	CB	256	TMC3	C2	1	-0.15	12.011
3877	CB	256	TMC3	C3	1	0.0862	12.011
3878	CB	256	TMC3	C4	1	-0.15	12.011
3879	CB	256	TMC3	C5	1	0.0862	12.011
3880	CB	256	TMC3	C6	1	-0.15	12.011
3881	C=O	256	TMC3	C	1	0.5438	12.011
3882	O=C	256	TMC3	O	1	-0.57	15.9994
3883	HCMM	256	TMC3	H	1	0.15	1.0079
3884	HCMM	256	TMC3	H1	1	0.15	1.0079
3885	HCMM	256	TMC3	H2	1	0.15	1.0079
3886	C=O	256	TMC3	C7	1	0.5438	12.011
3887	C=O	256	TMC3	C8	1	0.5438	12.011
3888	O=C	256	TMC3	O1	1	-0.57	15.9994
3889	O=C	256	TMC3	O2	1	-0.57	15.9994
3890	CB	257	MPD2	C	1	-0.15	12.011
3891	CB	257	MPD2	C1	1	0.117	12.011
3892	CB	257	MPD2	C2	1	-0.15	12.011
3893	CB	257	MPD2	C3	1	0.117	12.011
3894	CB	257	MPD2	C4	1	-0.15	12.011
3895	CB	257	MPD2	C5	1	-0.15	12.011
3896	HCMM	257	MPD2	H	1	0.15	1.0079
3897	HCMM	257	MPD2	H1	1	0.15	1.0079
3898	HCMM	257	MPD2	H2	1	0.15	1.0079
3899	HCMM	257	MPD2	H3	1	0.15	1.0079
3900	NC=O	257	MPD2	N	1	-0.547	14.0067
3901	HNCO	257	MPD2	H5	1	0.37	1.0079
3902	NC=O	257	MPD2	N1	1	-0.547	14.0067
3903	HNCO	257	MPD2	H7	1	0.37	1.0079
3904	CB	258	TMC3	C1	1	0.0862	12.011
3905	CB	258	TMC3	C2	1	-0.15	12.011
3906	CB	258	TMC3	C3	1	0.0862	12.011
3907	CB	258	TMC3	C4	1	-0.15	12.011
3908	CB	258	TMC3	C5	1	0.0862	12.011
3909	CB	258	TMC3	C6	1	-0.15	12.011
3910	C=O	258	TMC3	C	1	0.5438	12.011
3911	O=C	258	TMC3	O	1	-0.57	15.9994
3912	HCMM	258	TMC3	H	1	0.15	1.0079
3913	HCMM	258	TMC3	H1	1	0.15	1.0079
3914	HCMM	258	TMC3	H2	1	0.15	1.0079
3915	C=O	258	TMC3	C7	1	0.5438	12.011
3916	C=O	258	TMC3	C8	1	0.5438	12.011
3917	O=C	258	TMC3	O1	1	-0.57	15.9994
3918	O=C	258	TMC3	O2	1	-0.57	15.9994
3919	CB	259	MPD2	C	1	-0.15	12.011
3920	CB	259	MPD2	C1	1	0.117	12.011
3921	CB	259	MPD2	C2	1	-0.15	12.011
3922	CB	259	MPD2	C3	1	0.117	12.011
3923	CB	259	MPD2	C4	1	-0.15	12.011
3924	CB	259	MPD2	C5	1	-0.15	12.011
3925	HCMM	259	MPD2	H	1	0.15	1.0079
3926	HCMM	259	MPD2	H1	1	0.15	1.0079
3927	HCMM	259	MPD2	H2	1	0.15	1.0079
3928	HCMM	259	MPD2	H3	1	0.15	1.0079
3929	NC=O	259	MPD2	N	1	-0.547	14.0067
3930	HNCO	259	MPD2	H5	1	0.37	1.0079
3931	NC=O	259	MPD2	N1	1	-0.547	14.0067
3932	HNCO	259	MPD2	H7	1	0.37	1.0079
3933	CB	260	TMC3	C1	1	0.0862	12.011
3934	CB	260	TMC3	C2	1	-0.15	12.011
3935	CB	260	TMC3	C3	1	0.0862	12.011
3936	CB	260	TMC3	C4	1	-0.15	12.011
3937	CB	260	TMC3	C5	1	0.0862	12.011
3938	CB	260	TMC3	C6	1	-0.15	12.011
3939	C=O	260	TMC3	C	1	0.5438	12.011
3940	O=C	260	TMC3	O	1	-0.57	15.9994
3941	HCMM	260	TMC3	H	1	0.15	1.0079
3942	HCMM	260	TMC3	H1	1	0.15	1.0079
3943	HCMM	260	TMC3	H2	1	0.15	1.0079
3944	C=O	260	TMC3	C7	1	0.5438	12.011
3945	C=O	260	TMC3	C8	1	0.5438	12.011
3946	O=C	260	TMC3	O1	1	-0.57	15.9994
3947	O=C	260	TMC3	O2	1	-0.57	15.9994
3948	CB	261	MPD2	C	1	-0.15	12.011
3949	CB	261	MPD2	C1	1	0.117	12.011
3950	CB	261	MPD2	C2	1	-0.15	12.011
3951	CB	261	MPD2	C3	1	0.117	12.011
3952	CB	261	MPD2	C4	1	-0.15	12.011
3953	CB	261	MPD2	C5	1	-0.15	12.011
3954	HCMM	261	MPD2	H	1	0.15	1.0079
3955	HCMM	261	MPD2	H1	1	0.15	1.0079
3956	HCMM	261	MPD2	H2	1	0.15	1.0079
3957	HCMM	261	MPD2	H3	1	0.15	1.0079
3958	NC=O	261	MPD2	N	1	-0.547	14.0067
3959	HNCO	261	MPD2	H5	1	0.37	1.0079
3960	NC=O	261	MPD2	N1	1	-0.547	14.0067
3961	HNCO	261	MPD2	H7	1	0.37	1.0079
3962	CB	262	TMC3	C1	1	0.0862	12.011
3963	CB	262	TMC3	C2	1	-0.15	12.011
3964	CB	262	TMC3	C3	1	0.0862	12.011
3965	CB	262	TMC3	C4	1	-0.15	12.011
3966	CB	262	TMC3	C5	1	0.0862	12.011
3967	CB	262	TMC3	C6	1	-0.15	12.011
3968	C=O	262	TMC3	C	1	0.5438	12.011
3969	O=C	262	TMC3	O	1	-0.57	15.9994
3970	HCMM	262	TMC3	H	1	0.15	1.0079
3971	HCMM	262	TMC3	H1	1	0.15	1.0079
3972	HCMM	262	TMC3	H2	1	0.15	1.0079
3973	C=O	262	TMC3	C7	1	0.5438	12.011
3974	C=O	262	TMC3	C8	1	0.5438	12.011
3975	O=C	262	TMC3	O1	1	-0.57	15.9994
3976	O=C	262	TMC3	O2	1	-0.57	15.9994
3977	CB	263	MPD2	C	1	-0.15	12.011
3978	CB	263	MPD2	C1	1	0.117	12.011
3979	CB	263	MPD2	C2	1	-0.15	12.011
3980	CB	263	MPD2	C3	1	0.117	12.011
3981	CB	263	MPD2	C4	1	-0.15	12.011
3982	CB	263	MPD2	C5	1	-0.15	12.011
3983	HCMM	263	MPD2	H	1	0.15	1.0079
3984	HCMM	263	MPD2	H1	1	0.15	1.0079
3985	HCMM	263	MPD2	H2	1	0.15	1.0079
3986	HCMM	263	MPD2	H3	1	0.15	1.0079
3987	NC=O	263	MPD2	N	1	-0.547	14.0067
3988	HNCO	263	MPD2	H5	1	0.37	1.0079
3989	NC=O	263	MPD2	N1	1	-0.547	14.0067
3990	HNCO	263	MPD2	H7	1	0.37	1.0079
3991	CB	264	TMC3	C1	1	0.0862	12.011
3992	CB	264	TMC3	C2	1	-0.15	12.011
3993	CB	264	TMC3	C3	1	0.0862	12.011
3994	CB	264	TMC3	C4	1	-0.15	12.011
3995	CB	264	TMC3	C5	1	0.0862	12.011
3996	CB	264	TMC3	C6	1	-0.15	12.011
3997	C=O	264	TMC3	C	1	0.5438	12.011
3998	O=C	264	TMC3	O	1	-0.57	15.9994
3999	HCMM	264	TMC3	H	1	0.15	1.0079
4000	HCMM	264	TMC3	H1	1	0.15	1.0079
4001	HCMM	264	TMC3	H2	1	0.15	1.0079
4002	C=O	264	TMC3	C7	1	0.5438	12.011
4003	C=O	264	TMC3	C8	1	0.5438	12.011
4004	O=C	264	TMC3	O1	1	-0.57	15.9994
4005	O=C	264	TMC3	O2	1	-0.57	15.9994
4006	CB	265	MPD2	C	1	-0.15	12.011
4007	CB	265	MPD2	C1	1	0.117	12.011
4008	CB	265	MPD2	C2	1	-0.15	12.011
4009	CB	265	MPD2	C3	1	0.117	12.011
4010	CB	265	MPD2	C4	1	-0.15	12.011
4011	CB	265	MPD2	C5	1	-0.15	12.011
4012	HCMM	265	MPD2	H	1	0.15	1.0079
4013	HCMM	265	MPD2	H1	1	0.15	1.0079
4014	HCMM	265	MPD2	H2	1	0.15	1.0079
4015	HCMM	265	MPD2	H3	1	0.15	1.0079
4016	NC=O	265	MPD2	N	1	-0.547	14.0067
4017	HNCO	265	MPD2	H5	1	0.37	1.0079
4018	NC=O	265	MPD2	N1	1	-0.547	14.0067
4019	HNCO	265	MPD2	H7	1	0.37	1.0079
4020	CB	266	TMC3	C1	1	0.0862	12.011
4021	CB	266	TMC3	C2	1	-0.15	12.011
4022	CB	266	TMC3	C3	1	0.0862	12.011
4023	CB	266	TMC3	C4	1	-0.15	12.011
4024	CB	266	TMC3	C5	1	0.0862	12.011
4025	CB	266	TMC3	C6	1	-0.15	12.011
4026	C=O	266	TMC3	C	1	0.5438	12.011
4027	O=C	266	TMC3	O	1	-0.57	15.9994
4028	HCMM	266	TMC3	H	1	0.15	1.0079
4029	HCMM	266	TMC3	H1	1	0.15	1.0079
4030	HCMM	266	TMC3	H2	1	0.15	1.0079
4031	C=O	266	TMC3	C7	1	0.5438	12.011
4032	C=O	266	TMC3	C8	1	0.5438	12.011
4033	O=C	266	TMC3	O1	1	-0.57	15.9994
4034	O=C	266	TMC3	O2	1	-0.57	15.9994
4035	CB	267	MPD2	C	1	-0.15	12.011
4036	CB	267	MPD2	C1	1	0.117	12.011
4037	CB	267	MPD2	C2	1	-0.15	12.011
4038	CB	267	MPD2	C3	1	0.117	12.011
4039	CB	267	MPD2	C4	1	-0.15	12.011
4040	CB	267	MPD2	C5	1	-0.15	12.011
4041	HCMM	267	MPD2	H	1	0.15	1.0079
4042	HCMM	267	MPD2	H1	1	0.15	1.0079
4043	HCMM	267	MPD2	H2	1	0.15	1.0079
4044	HCMM	267	MPD2	H3	1	0.15	1.0079
4045	NC=O	267	MPD2	N	1	-0.547	14.0067
4046	HNCO	267	MPD2	H5	1	0.37	1.0079
4047	NC=O	267	MPD2	N1	1	-0.547	14.0067
4048	HNCO	267	MPD2	H7	1	0.37	1.0079
4049	CB	268	TMC3	C1	1	0.0862	12.011
4050	CB	268	TMC3	C2	1	-0.15	12.011
4051	CB	268	TMC3	C3	1	0.0862	12.011
4052	CB	268	TMC3	C4	1	-0.15	12.011
4053	CB	268	TMC3	C5	1	0.0862	12.011
4054	CB	268	TMC3	C6	1	-0.15	12.011
4055	C=O	268	TMC3	C	1	0.5438	12.011
4056	O=C	268	TMC3	O	1	-0.57	15.9994
4057	HCMM	268	TMC3	H	1	0.15	1.0079
4058	HCMM	268	TMC3	H1	1	0.15	1.0079
4059	HCMM	268	TMC3	H2	1	0.15	1.0079
4060	C=O	268	TMC3	C7	1	0.5438	12.011
4061	C=O	268	TMC3	C8	1	0.5438	12.011
4062	O=C	268	TMC3	O1	1	-0.57	15.9994
4063	O=C	268	TMC3	O2	1	-0.57	15.9994
4064	CB	269	MPD2	C	1	-0.15	12.011
4065	CB	269	MPD2	C1	1	0.117	12.011
4066	CB	269	MPD2	C2	1	-0.15	12.011
4067	CB	269	MPD2	C3	1	0.117	12.011
4068	CB	269	MPD2	C4	1	-0.15	12.011
4069	CB	269	MPD2	C5	1	-0.15	12.011
4070	HCMM	269	MPD2	H	1	0.15	1.0079
4071	HCMM	269	MPD2	H1	1	0.15	1.0079
4072	HCMM	269	MPD2	H2	1	0.15	1.0079
4073	HCMM	269	MPD2	H3	1	0.15	1.0079
4074	NC=O	269	MPD2	N	1	-0.547	14.0067
4075	HNCO	269	MPD2	H5	1	0.37	1.0079
4076	NC=O	269	MPD2	N1	1	-0.547	14.0067
4077	HNCO	269	MPD2	H7	1	0.37	1.0079
4078	CB	270	TMC3	C1	1	0.0862	12.011
4079	CB	270	TMC3	C2	1	-0.15	12.011
4080	CB	270	TMC3	C3	1	0.0862	12.011
4081	CB	270	TMC3	C4	1	-0.15	12.011
4082	CB	270	TMC3	C5	1	0.0862	12.011
4083	CB	270	TMC3	C6	1	-0.15	12.011
4084	C=O	270	TMC3	C	1	0.5438	12.011
4085	O=C	270	TMC3	O	1	-0.57	15.9994
4086	HCMM	270	TMC3	H	1	0.15	1.0079
4087	HCMM	270	TMC3	H1	1	0.15	1.0079
4088	HCMM	270	TMC3	H2	1	0.15	1.0079
4089	C=O	270	TMC3	C7	1	0.5438	12.011
4090	C=O	270	TMC3	C8	1	0.5438	12.011
4091	O=C	270	TMC3	O1	1	-0.57	15.9994
4092	O=C	270	TMC3	O2	1	-0.57	15.9994
4093	CB	271	MPD2	C	1	-0.15	12.011
4094	CB	271	MPD2	C1	1	0.117	12.011
4095	CB	271	MPD2	C2	1	-0.15	12.011
4096	CB	271	MPD2	C3	1	0.117	12.011
4097	CB	271	MPD2	C4	1	-0.15	12.011
4098	CB	271	MPD2	C5	1	-0.15	12.011
4099	HCMM	271	MPD2	H	1	0.15	1.0079
4100	HCMM	271	MPD2	H1	1	0.15	1.0079
4101	HCMM	271	MPD2	H2	1	0.15	1.0079
4102	HCMM	271	MPD2	H3	1	0.15	1.0079
4103	NC=O	271	MPD2	N	1	-0.547	14.0067
4104	HNCO	271	MPD2	H5	1	0.37	1.0079
4105	NC=O	271	MPD2	N1	1	-0.547	14.0067
4106	HNCO	271	MPD2	H7	1	0.37	1.0079
4107	CB	272	TMC3	C1	1	0.0862	12.011
4108	CB	272	TMC3	C2	1	-0.15	12.011
4109	CB	272	TMC3	C3	1	0.0862	12.011
4110	CB	272	TMC3	C4	1	-0.15	12.011
4111	CB	272	TMC3	C5	1	0.0862	12.011
4112	CB	272	TMC3	C6	1	-0.15	12.011
4113	C=O	272	TMC3	C	1	0.5438	12.011
4114	O=C	272	TMC3	O	1	-0.57	15.9994
4115	HCMM	272	TMC3	H	1	0.15	1.0079
4116	HCMM	272	TMC3	H1	1	0.15	1.0079
4117	HCMM	272	TMC3	H2	1	0.15	1.0079
4118	C=O	272	TMC3	C7	1	0.5438	12.011
4119	C=O	272	TMC3	C8	1	0.5438	12.011
4120	O=C	272	TMC3	O1	1	-0.57	15.9994
4121	O=C	272	TMC3	O2	1	-0.57	15.9994
4122	CB	273	MPD2	C	1	-0.15	12.011
4123	CB	273	MPD2	C1	1	0.117	12.011
4124	CB	273	MPD2	C2	1	-0.15	12.011
4125	CB	273	MPD2	C3	1	0.117	12.011
4126	CB	273	MPD2	C4	1	-0.15	12.011
4127	CB	273	MPD2	C5	1	-0.15	12.011
4128	HCMM	273	MPD2	H	1	0.15	1.0079
4129	HCMM	273	MPD2	H1	1	0.15	1.0079
4130	HCMM	273	MPD2	H2	1	0.15	1.0079
4131	HCMM	273	MPD2	H3	1	0.15	1.0079
4132	NC=O	273	MPD2	N	1	-0.547	14.0067
4133	HNCO	273	MPD2	H5	1	0.37	1.0079
4134	NC=O	273	MPD2	N1	1	-0.547	14.0067
4135	HNCO	273	MPD2	H7	1	0.37	1.0079
4136	CB	274	TMC3	C1	1	0.0862	12.011
4137	CB	274	TMC3	C2	1	-0.15	12.011
4138	CB	274	TMC3	C3	1	0.0862	12.011
4139	CB	274	TMC3	C4	1	-0.15	12.011
4140	CB	274	TMC3	C5	1	0.0862	12.011
4141	CB	274	TMC3	C6	1	-0.15	12.011
4142	C=O	274	TMC3	C	1	0.5438	12.011
4143	O=C	274	TMC3	O	1	-0.57	15.9994
4144	HCMM	274	TMC3	H	1	0.15	1.0079
4145	HCMM	274	TMC3	H1	1	0.15	1.0079
4146	HCMM	274	TMC3	H2	1	0.15	1.0079
4147	C=O	274	TMC3	C7	1	0.5438	12.011
4148	C=O	274	TMC3	C8	1	0.5438	12.011
4149	O=C	274	TMC3	O1	1	-0.57	15.9994
4150	O=C	274	TMC3	O2	1	-0.57	15.9994
4151	CB	275	MPD2	C	1	-0.15	12.011
4152	CB	275	MPD2	C1	1	0.117	12.011
4153	CB	275	MPD2	C2	1	-0.15	12.011
4154	CB	275	MPD2	C3	1	0.117	12.011
4155	CB	275	MPD2	C4	1	-0.15	12.011
4156	CB	275	MPD2	C5	1	-0.15	12.011
4157	HCMM	275	MPD2	H	1	0.15	1.0079
4158	HCMM	275	MPD2	H1	1	0.15	1.0079
4159	HCMM	275	MPD2	H2	1	0.15	1.0079
4160	HCMM	275	MPD2	H3	1	0.15	1.0079
4161	NC=O	275	MPD2	N	1	-0.547	14.0067
4162	HNCO	275	MPD2	H5	1	0.37	1.0079
4163	NC=O	275	MPD2	N1	1	-0.547	14.0067
4164	HNCO	275	MPD2	H7	1	0.37	1.0079
4165	CB	276	TMC3	C1	1	0.0862	12.011
4166	CB	276	TMC3	C2	1	-0.15	12.011
4167	CB	276	TMC3	C3	1	0.0862	12.011
4168	CB	276	TMC3	C4	1	-0.15	12.011
4169	CB	276	TMC3	C5	1	0.0862	12.011
4170	CB	276	TMC3	C6	1	-0.15	12.011
4171	C=O	276	TMC3	C	1	0.5438	12.011
4172	O=C	276	TMC3	O	1	-0.57	15.9994
4173	HCMM	276	TMC3	H	1	0.15	1.0079
4174	HCMM	276	TMC3	H1	1	0.15	1.0079
4175	HCMM	276	TMC3	H2	1	0.15	1.0079
4176	C=O	276	TMC3	C7	1	0.5438	12.011
4177	C=O	276	TMC3	C8	1	0.5438	12.011
4178	O=C	276	TMC3	O1	1	-0.57	15.9994
4179	O=C	276	TMC3	O2	1	-0.57	15.9994
4180	CB	277	MPD2	C	1	-0.15	12.011
4181	CB	277	MPD2	C1	1	0.117	12.011
4182	CB	277	MPD2	C2	1	-0.15	12.011
4183	CB	277	MPD2	C3	1	0.117	12.011
4184	CB	277	MPD2	C4	1	-0.15	12.011
4185	CB	277	MPD2	C5	1	-0.15	12.011
4186	HCMM	277	MPD2	H	1	0.15	1.0079
4187	HCMM	277	MPD2	H1	1	0.15	1.0079
4188	HCMM	277	MPD2	H2	1	0.15	1.0079
4189	HCMM	277	MPD2	H3	1	0.15	1.0079
4190	NC=O	277	MPD2	N	1	-0.547	14.0067
4191	HNCO	277	MPD2	H5	1	0.37	1.0079
4192	NC=O	277	MPD2	N1	1	-0.547	14.0067
4193	HNCO	277	MPD2	H7	1	0.37	1.0079
4194	CB	278	TMC3	C1	1	0.0862	12.011
4195	CB	278	TMC3	C2	1	-0.15	12.011
4196	CB	278	TMC3	C3	1	0.0862	12.011
4197	CB	278	TMC3	C4	1	-0.15	12.011
4198	CB	278	TMC3	C5	1	0.0862	12.011
4199	CB	278	TMC3	C6	1	-0.15	12.011
4200	C=O	278	TMC3	C	1	0.5438	12.011
4201	O=C	278	TMC3	O	1	-0.57	15.9994
4202	HCMM	278	TMC3	H	1	0.15	1.0079
4203	HCMM	278	TMC3	H1	1	0.15	1.0079
4204	HCMM	278	TMC3	H2	1	0.15	1.0079
4205	C=O	278	TMC3	C7	1	0.5438	12.011
4206	C=O	278	TMC3	C8	1	0.5438	12.011
4207	O=C	278	TMC3	O1	1	-0.57	15.9994
4208	O=C	278	TMC3	O2	1	-0.57	15.9994
4209	CB	279	MPD2	C	1	-0.15	12.011
4210	CB	279	MPD2	C1	1	0.117	12.011
4211	CB	279	MPD2	C2	1	-0.15	12.011
4212	CB	279	MPD2	C3	1	0.117	12.011
4213	CB	279	MPD2	C4	1	-0.15	12.011
4214	CB	279	MPD2	C5	1	-0.15	12.011
4215	HCMM	279	MPD2	H	1	0.15	1.0079
4216	HCMM	279	MPD2	H1	1	0.15	1.0079
4217	HCMM	279	MPD2	H2	1	0.15	1.0079
4218	HCMM	279	MPD2	H3	1	0.15	1.0079
4219	NC=O	279	MPD2	N	1	-0.547	14.0067
4220	HNCO	279	MPD2	H5	1	0.37	1.0079
4221	NC=O	279	MPD2	N1	1	-0.547	14.0067
4222	HNCO	279	MPD2	H7	1	0.37	1.0079
4223	CB	280	TMC3	C1	1	0.0862	12.011
4224	CB	280	TMC3	C2	1	-0.15	12.011
4225	CB	280	TMC3	C3	1	0.0862	12.011
4226	CB	280	TMC3	C4	1	-0.15	12.011
4227	CB	280	TMC3	C5	1	0.0862	12.011
4228	CB	280	TMC3	C6	1	-0.15	12.011
4229	C=O	280	TMC3	C	1	0.5438	12.011
4230	O=C	280	TMC3	O	1	-0.57	15.9994
4231	HCMM	280	TMC3	H	1	0.15	1.0079
4232	HCMM	280	TMC3	H1	1	0.15	1.0079
4233	HCMM	280	TMC3	H2	1	0.15	1.0079
4234	C=O	280	TMC3	C7	1	0.5438	12.011
4235	C=O	280	TMC3	C8	1	0.5438	12.011
4236	O=C	280	TMC3	O1	1	-0.57	15.9994
4237	O=C	280	TMC3	O2	1	-0.57	15.9994
4238	CB	281	TMC3	C1	1	0.0862	12.011
4239	CB	281	TMC3	C2	1	-0.15	12.011
4240	CB	281	TMC3	C3	1	0.0862	12.011
4241	CB	281	TMC3	C4	1	-0.15	12.011
4242	CB	281	TMC3	C5	1	0.0862	12.011
4243	CB	281	TMC3	C6	1	-0.15	12.011
4244	C=O	281	TMC3	C	1	0.5438	12.011
4245	O=C	281	TMC3	O	1	-0.57	15.9994
4246	HCMM	281	TMC3	H	1	0.15	1.0079
4247	HCMM	281	TMC3	H1	1	0.15	1.0079
4248	HCMM	281	TMC3	H2	1	0.15	1.0079
4249	C=O	281	TMC3	C7	1	0.5438	12.011
4250	C=O	281	TMC3	C8	1	0.5438	12.011
4251	O=C	281	TMC3	O1	1	-0.57	15.9994
4252	O=C	281	TMC3	O2	1	-0.57	15.9994
4253	CB	282	MPD2	C	1	-0.15	12.011
4254	CB	282	MPD2	C1	1	0.117	12.011
4255	CB	282	MPD2	C2	1	-0.15	12.011
4256	CB	282	MPD2	C3	1	0.117	12.011
4257	CB	282	MPD2	C4	1	-0.15	12.011
4258	CB	282	MPD2	C5	1	-0.15	12.011
4259	HCMM	282	MPD2	H	1	0.15	1.0079
4260	HCMM	282	MPD2	H1	1	0.15	1.0079
4261	HCMM	282	MPD2	H2	1	0.15	1.0079
4262	HCMM	282	MPD2	H3	1	0.15	1.0079
4263	NC=O	282	MPD2	N	1	-0.547	14.0067
4264	HNCO	282	MPD2	H5	1	0.37	1.0079
4265	NC=O	282	MPD2	N1	1	-0.547	14.0067
4266	HNCO	282	MPD2	H7	1	0.37	1.0079
4267	CB	283	TMC3	C1	1	0.0862	12.011
4268	CB	283	TMC3	C2	1	-0.15	12.011
4269	CB	283	TMC3	C3	1	0.0862	12.011
4270	CB	283	TMC3	C4	1	-0.15	12.011
4271	CB	283	TMC3	C5	1	0.0862	12.011
4272	CB	283	TMC3	C6	1	-0.15	12.011
4273	C=O	283	TMC3	C	1	0.5438	12.011
4274	O=C	283	TMC3	O	1	-0.57	15.9994
4275	HCMM	283	TMC3	H	1	0.15	1.0079
4276	HCMM	283	TMC3	H1	1	0.15	1.0079
4277	HCMM	283	TMC3	H2	1	0.15	1.0079
4278	C=O	283	TMC3	C7	1	0.5438	12.011
4279	C=O	283	TMC3	C8	1	0.5438	12.011
4280	O=C	283	TMC3	O1	1	-0.57	15.9994
4281	O=C	283	TMC3	O2	1	-0.57	15.9994
4282	CB	284	MPD2	C	1	-0.15	12.011
4283	CB	284	MPD2	C1	1	0.117	12.011
4284	CB	284	MPD2	C2	1	-0.15	12.011
4285	CB	284	MPD2	C3	1	0.117	12.011
4286	CB	284	MPD2	C4	1	-0.15	12.011
4287	CB	284	MPD2	C5	1	-0.15	12.011
4288	HCMM	284	MPD2	H	1	0.15	1.0079
4289	HCMM	284	MPD2	H1	1	0.15	1.0079
4290	HCMM	284	MPD2	H2	1	0.15	1.0079
4291	HCMM	284	MPD2	H3	1	0.15	1.0079
4292	NC=O	284	MPD2	N	1	-0.547	14.0067
4293	HNCO	284	MPD2	H5	1	0.37	1.0079
4294	NC=O	284	MPD2	N1	1	-0.547	14.0067
4295	HNCO	284	MPD2	H7	1	0.37	1.0079
4296	CB	285	TMC3	C1	1	0.0862	12.011
4297	CB	285	TMC3	C2	1	-0.15	12.011
4298	CB	285	TMC3	C3	1	0.0862	12.011
4299	CB	285	TMC3	C4	1	-0.15	12.011
4300	CB	285	TMC3	C5	1	0.0862	12.011
4301	CB	285	TMC3	C6	1	-0.15	12.011
4302	C=O	285	TMC3	C	1	0.5438	12.011
4303	O=C	285	TMC3	O	1	-0.57	15.9994
4304	HCMM	285	TMC3	H	1	0.15	1.0079
4305	HCMM	285	TMC3	H1	1	0.15	1.0079
4306	HCMM	285	TMC3	H2	1	0.15	1.0079
4307	C=O	285	TMC3	C7	1	0.5438	12.011
4308	C=O	285	TMC3	C8	1	0.5438	12.011
4309	O=C	285	TMC3	O1	1	-0.57	15.9994
4310	O=C	285	TMC3	O2	1	-0.57	15.9994
4311	CB	286	MPD2	C	1	-0.15	12.011
4312	CB	286	MPD2	C1	1	0.117	12.011
4313	CB	286	MPD2	C2	1	-0.15	12.011
4314	CB	286	MPD2	C3	1	0.117	12.011
4315	CB	286	MPD2	C4	1	-0.15	12.011
4316	CB	286	MPD2	C5	1	-0.15	12.011
4317	HCMM	286	MPD2	H	1	0.15	1.0079
4318	HCMM	286	MPD2	H1	1	0.15	1.0079
4319	HCMM	286	MPD2	H2	1	0.15	1.0079
4320	HCMM	286	MPD2	H3	1	0.15	1.0079
4321	NC=O	286	MPD2	N	1	-0.547	14.0067
4322	HNCO	286	MPD2	H5	1	0.37	1.0079
4323	NC=O	286	MPD2	N1	1	-0.547	14.0067
4324	HNCO	286	MPD2	H7	1	0.37	1.0079
4325	CB	287	TMC3	C1	1	0.0862	12.011
4326	CB	287	TMC3	C2	1	-0.15	12.011
4327	CB	287	TMC3	C3	1	0.0862	12.011
4328	CB	287	TMC3	C4	1	-0.15	12.011
4329	CB	287	TMC3	C5	1	0.0862	12.011
4330	CB	287	TMC3	C6	1	-0.15	12.011
4331	C=O	287	TMC3	C	1	0.5438	12.011
4332	O=C	287	TMC3	O	1	-0.57	15.9994
4333	HCMM	287	TMC3	H	1	0.15	1.0079
4334	HCMM	287	TMC3	H1	1	0.15	1.0079
4335	HCMM	287	TMC3	H2	1	0.15	1.0079
4336	C=O	287	TMC3	C7	1	0.5438	12.011
4337	C=O	287	TMC3	C8	1	0.5438	12.011
4338	O=C	287	TMC3	O1	1	-0.57	15.9994
4339	O=C	287	TMC3	O2	1	-0.57	15.9994
4340	CB	288	TMC3	C1	1	0.0862	12.011
4341	CB	288	TMC3	C2	1	-0.15	12.011
4342	CB	288	TMC3	C3	1	0.0862	12.011
4343	CB	288	TMC3	C4	1	-0.15	12.011
4344	CB	288	TMC3	C5	1	0.0862	12.011
4345	CB	288	TMC3	C6	1	-0.15	12.011
4346	C=O	288	TMC3	C	1	0.5438	12.011
4347	O=C	288	TMC3	O	1	-0.57	15.9994
4348	HCMM	288	TMC3	H	1	0.15	1.0079
4349	HCMM	288	TMC3	H1	1	0.15	1.0079
4350	HCMM	288	TMC3	H2	1	0.15	1.0079
4351	C=O	288	TMC3	C7	1	0.5438	12.011
4352	C=O	288	TMC3	C8	1	0.5438	12.011
4353	O=C	288	TMC3	O1	1	-0.57	15.9994
4354	O=C	288	TMC3	O2	1	-0.57	15.9994
4355	CB	289	MPD2	C	1	-0.15	12.011
4356	CB	289	MPD2	C1	1	0.117	12.011
4357	CB	289	MPD2	C2	1	-0.15	12.011
4358	CB	289	MPD2	C3	1	0.117	12.011
4359	CB	289	MPD2	C4	1	-0.15	12.011
4360	CB	289	MPD2	C5	1	-0.15	12.011
4361	HCMM	289	MPD2	H	1	0.15	1.0079
4362	HCMM	289	MPD2	H1	1	0.15	1.0079
4363	HCMM	289	MPD2	H2	1	0.15	1.0079
4364	HCMM	289	MPD2	H3	1	0.15	1.0079
4365	NC=O	289	MPD2	N	1	-0.547	14.0067
4366	HNCO	289	MPD2	H5	1	0.37	1.0079
4367	NC=O	289	MPD2	N1	1	-0.547	14.0067
4368	HNCO	289	MPD2	H7	1	0.37	1.0079
4369	CB	290	TMC3	C1	1	0.0862	12.011
4370	CB	290	TMC3	C2	1	-0.15	12.011
4371	CB	290	TMC3	C3	1	0.0862	12.011
4372	CB	290	TMC3	C4	1	-0.15	12.011
4373	CB	290	TMC3	C5	1	0.0862	12.011
4374	CB	290	TMC3	C6	1	-0.15	12.011
4375	C=O	290	TMC3	C	1	0.5438	12.011
4376	O=C	290	TMC3	O	1	-0.57	15.9994
4377	HCMM	290	TMC3	H	1	0.15	1.0079
4378	HCMM	290	TMC3	H1	1	0.15	1.0079
4379	HCMM	290	TMC3	H2	1	0.15	1.0079
4380	C=O	290	TMC3	C7	1	0.5438	12.011
4381	C=O	290	TMC3	C8	1	0.5438	12.011
4382	O=C	290	TMC3	O1	1	-0.57	15.9994
4383	O=C	290	TMC3	O2	1	-0.57	15.9994
4384	CB	291	MPD2	C	1	-0.15	12.011
4385	CB	291	MPD2	C1	1	0.117	12.011
4386	CB	291	MPD2	C2	1	-0.15	12.011
4387	CB	291	MPD2	C3	1	0.117	12.011
4388	CB	291	MPD2	C4	1	-0.15	12.011
4389	CB	291	MPD2	C5	1	-0.15	12.011
4390	HCMM	291	MPD2	H	1	0.15	1.0079
4391	HCMM	291	MPD2	H1	1	0.15	1.0079
4392	HCMM	291	MPD2	H2	1	0.15	1.0079
4393	HCMM	291	MPD2	H3	1	0.15	1.0079
4394	NC=O	291	MPD2	N	1	-0.547	14.0067
4395	HNCO	291	MPD2	H5	1	0.37	1.0079
4396	NC=O	291	MPD2	N1	1	-0.547	14.0067
4397	HNCO	291	MPD2	H7	1	0.37	1.0079
4398	CB	292	TMC3	C1	1	0.0862	12.011
4399	CB	292	TMC3	C2	1	-0.15	12.011
4400	CB	292	TMC3	C3	1	0.0862	12.011
4401	CB	292	TMC3	C4	1	-0.15	12.011
4402	CB	292	TMC3	C5	1	0.0862	12.011
4403	CB	292	TMC3	C6	1	-0.15	12.011
4404	C=O	292	TMC3	C	1	0.5438	12.011
4405	O=C	292	TMC3	O	1	-0.57	15.9994
4406	HCMM	292	TMC3	H	1	0.15	1.0079
4407	HCMM	292	TMC3	H1	1	0.15	1.0079
4408	HCMM	292	TMC3	H2	1	0.15	1.0079
4409	C=O	292	TMC3	C7	1	0.5438	12.011
4410	C=O	292	TMC3	C8	1	0.5438	12.011
4411	O=C	292	TMC3	O1	1	-0.57	15.9994
4412	O=C	292	TMC3	O2	1	-0.57	15.9994
4413	CB	293	MPD2	C	1	-0.15	12.011
4414	CB	293	MPD2	C1	1	0.117	12.011
4415	CB	293	MPD2	C2	1	-0.15	12.011
4416	CB	293	MPD2	C3	1	0.117	12.011
4417	CB	293	MPD2	C4	1	-0.15	12.011
4418	CB	293	MPD2	C5	1	-0.15	12.011
4419	HCMM	293	MPD2	H	1	0.15	1.0079
4420	HCMM	293	MPD2	H1	1	0.15	1.0079
4421	HCMM	293	MPD2	H2	1	0.15	1.0079
4422	HCMM	293	MPD2	H3	1	0.15	1.0079
4423	NC=O	293	MPD2	N	1	-0.547	14.0067
4424	HNCO	293	MPD2	H5	1	0.37	1.0079
4425	NC=O	293	MPD2	N1	1	-0.547	14.0067
4426	HNCO	293	MPD2	H7	1	0.37	1.0079
4427	CB	294	TMC3	C1	1	0.0862	12.011
4428	CB	294	TMC3	C2	1	-0.15	12.011
4429	CB	294	TMC3	C3	1	0.0862	12.011
4430	CB	294	TMC3	C4	1	-0.15	12.011
4431	CB	294	TMC3	C5	1	0.0862	12.011
4432	CB	294	TMC3	C6	1	-0.15	12.011
4433	C=O	294	TMC3	C	1	0.5438	12.011
4434	O=C	294	TMC3	O	1	-0.57	15.9994
4435	HCMM	294	TMC3	H	1	0.15	1.0079
4436	HCMM	294	TMC3	H1	1	0.15	1.0079
4437	HCMM	294	TMC3	H2	1	0.15	1.0079
4438	C=O	294	TMC3	C7	1	0.5438	12.011
4439	C=O	294	TMC3	C8	1	0.5438	12.011
4440	O=C	294	TMC3	O1	1	-0.57	15.9994
4441	O=C	294	TMC3	O2	1	-0.57	15.9994
4442	CB	295	MPD2	C	1	-0.15	12.011
4443	CB	295	MPD2	C1	1	0.117	12.011
4444	CB	295	MPD2	C2	1	-0.15	12.011
4445	CB	295	MPD2	C3	1	0.117	12.011
4446	CB	295	MPD2	C4	1	-0.15	12.011
4447	CB	295	MPD2	C5	1	-0.15	12.011
4448	HCMM	295	MPD2	H	1	0.15	1.0079
4449	HCMM	295	MPD2	H1	1	0.15	1.0079
4450	HCMM	295	MPD2	H2	1	0.15	1.0079
4451	HCMM	295	MPD2	H3	1	0.15	1.0079
4452	NC=O	295	MPD2	N	1	-0.547	14.0067
4453	HNCO	295	MPD2	H5	1	0.37	1.0079
4454	NC=O	295	MPD2	N1	1	-0.547	14.0067
4455	HNCO	295	MPD2	H7	1	0.37	1.0079
4456	CB	296	TMC3	C1	1	0.0862	12.011
4457	CB	296	TMC3	C2	1	-0.15	12.011
4458	CB	296	TMC3	C3	1	0.0862	12.011
4459	CB	296	TMC3	C4	1	-0.15	12.011
4460	CB	296	TMC3	C5	1	0.0862	12.011
4461	CB	296	TMC3	C6	1	-0.15	12.011
4462	C=O	296	TMC3	C	1	0.5438	12.011
4463	O=C	296	TMC3	O	1	-0.57	15.9994
4464	HCMM	296	TMC3	H	1	0.15	1.0079
4465	HCMM	296	TMC3	H1	1	0.15	1.0079
4466	HCMM	296	TMC3	H2	1	0.15	1.0079
4467	C=O	296	TMC3	C7	1	0.5438	12.011
4468	C=O	296	TMC3	C8	1	0.5438	12.011
4469	O=C	296	TMC3	O1	1	-0.57	15.9994
4470	O=C	296	TMC3	O2	1	-0.57	15.9994
4471	CB	297	MPD2	C	1	-0.15	12.011
4472	CB	297	MPD2	C1	1	0.117	12.011
4473	CB	297	MPD2	C2	1	-0.15	12.011
4474	CB	297	MPD2	C3	1	0.117	12.011
4475	CB	297	MPD2	C4	1	-0.15	12.011
4476	CB	297	MPD2	C5	1	-0.15	12.011
4477	HCMM	297	MPD2	H	1	0.15	1.0079
4478	HCMM	297	MPD2	H1	1	0.15	1.0079
4479	HCMM	297	MPD2	H2	1	0.15	1.0079
4480	HCMM	297	MPD2	H3	1	0.15	1.0079
4481	NC=O	297	MPD2	N	1	-0.547	14.0067
4482	HNCO	297	MPD2	H5	1	0.37	1.0079
4483	NC=O	297	MPD2	N1	1	-0.547	14.0067
4484	HNCO	297	MPD2	H7	1	0.37	1.0079
4485	CB	298	TMC3	C1	1	0.0862	12.011
4486	CB	298	TMC3	C2	1	-0.15	12.011
4487	CB	298	TMC3	C3	1	0.0862	12.011
4488	CB	298	TMC3	C4	1	-0.15	12.011
4489	CB	298	TMC3	C5	1	0.0862	12.011
4490	CB	298	TMC3	C6	1	-0.15	12.011
4491	C=O	298	TMC3	C	1	0.5438	12.011
4492	O=C	298	TMC3	O	1	-0.57	15.9994
4493	HCMM	298	TMC3	H	1	0.15	1.0079
4494	HCMM	298	TMC3	H1	1	0.15	1.0079
4495	HCMM	298	TMC3	H2	1	0.15	1.0079
4496	C=O	298	TMC3	C7	1	0.5438	12.011
4497	C=O	298	TMC3	C8	1	0.5438	12.011
4498	O=C	298	TMC3	O1	1	-0.57	15.9994
4499	O=C	298	TMC3	O2	1	-0.57	15.9994
4500	CB	299	MPD2	C	1	-0.15	12.011
4501	CB	299	MPD2	C1	1	0.117	12.011
4502	CB	299	MPD2	C2	1	-0.15	12.011
4503	CB	299	MPD2	C3	1	0.117	12.011
4504	CB	299	MPD2	C4	1	-0.15	12.011
4505	CB	299	MPD2	C5	1	-0.15	12.011
4506	HCMM	299	MPD2	H	1	0.15	1.0079
4507	HCMM	299	MPD2	H1	1	0.15	1.0079
4508	HCMM	299	MPD2	H2	1	0.15	1.0079
4509	HCMM	299	MPD2	H3	1	0.15	1.0079
4510	NC=O	299	MPD2	N	1	-0.547	14.0067
4511	HNCO	299	MPD2	H5	1	0.37	1.0079
4512	NC=O	299	MPD2	N1	1	-0.547	14.0067
4513	HNCO	299	MPD2	H7	1	0.37	1.0079
4514	CB	300	TMC3	C1	1	0.0862	12.011
4515	CB	300	TMC3	C2	1	-0.15	12.011
4516	CB	300	TMC3	C3	1	0.0862	12.011
4517	CB	300	TMC3	C4	1	-0.15	12.011
4518	CB	300	TMC3	C5	1	0.0862	12.011
4519	CB	300	TMC3	C6	1	-0.15	12.011
4520	C=O	300	TMC3	C	1	0.5438	12.011
4521	O=C	300	TMC3	O	1	-0.57	15.9994
4522	HCMM	300	TMC3	H	1	0.15	1.0079
4523	HCMM	300	TMC3	H1	1	0.15	1.0079
4524	HCMM	300	TMC3	H2	1	0.15	1.0079
4525	C=O	300	TMC3	C7	1	0.5438	12.011
4526	C=O	300	TMC3	C8	1	0.5438	12.011
4527	O=C	300	TMC3	O1	1	-0.57	15.9994
4528	O=C	300	TMC3	O2	1	-0.57	15.9994
4529	CB	301	MPD2	C	1	-0.15	12.011
4530	CB	301	MPD2	C1	1	0.117	12.011
4531	CB	301	MPD2	C2	1	-0.15	12.011
4532	CB	301	MPD2	C3	1	0.117	12.011
4533	CB	301	MPD2	C4	1	-0.15	12.011
4534	CB	301	MPD2	C5	1	-0.15	12.011
4535	HCMM	301	MPD2	H	1	0.15	1.0079
4536	HCMM	301	MPD2	H1	1	0.15	1.0079
4537	HCMM	301	MPD2	H2	1	0.15	1.0079
4538	HCMM	301	MPD2	H3	1	0.15	1.0079
4539	NC=O	301	MPD2	N	1	-0.547	14.0067
4540	HNCO	301	MPD2	H5	1	0.37	1.0079
4541	NC=O	301	MPD2	N1	1	-0.547	14.0067
4542	HNCO	301	MPD2	H7	1	0.37	1.0079
4543	CB	302	TMC3	C1	1	0.0862	12.011
4544	CB	302	TMC3	C2	1	-0.15	12.011
4545	CB	302	TMC3	C3	1	0.0862	12.011
4546	CB	302	TMC3	C4	1	-0.15	12.011
4547	CB	302	TMC3	C5	1	0.0862	12.011
4548	CB	302	TMC3	C6	1	-0.15	12.011
4549	C=O	302	TMC3	C	1	0.5438	12.011
4550	O=C	302	TMC3	O	1	-0.57	15.9994
4551	HCMM	302	TMC3	H	1	0.15	1.0079
4552	HCMM	302	TMC3	H1	1	0.15	1.0079
4553	HCMM	302	TMC3	H2	1	0.15	1.0079
4554	C=O	302	TMC3	C7	1	0.5438	12.011
4555	C=O	302	TMC3	C8	1	0.5438	12.011
4556	O=C	302	TMC3	O1	1	-0.57	15.9994
4557	O=C	302	TMC3	O2	1	-0.57	15.9994
4558	CB	303	MPD2	C	1	-0.15	12.011
4559	CB	303	MPD2	C1	1	0.117	12.011
4560	CB	303	MPD2	C2	1	-0.15	12.011
4561	CB	303	MPD2	C3	1	0.117	12.011
4562	CB	303	MPD2	C4	1	-0.15	12.011
4563	CB	303	MPD2	C5	1	-0.15	12.011
4564	HCMM	303	MPD2	H	1	0.15	1.0079
4565	HCMM	303	MPD2	H1	1	0.15	1.0079
4566	HCMM	303	MPD2	H2	1	0.15	1.0079
4567	HCMM	303	MPD2	H3	1	0.15	1.0079
4568	NC=O	303	MPD2	N	1	-0.547	14.0067
4569	HNCO	303	MPD2	H5	1	0.37	1.0079
4570	NC=O	303	MPD2	N1	1	-0.547	14.0067
4571	HNCO	303	MPD2	H7	1	0.37	1.0079
4572	CB	304	TMC3	C1	1	0.0862	12.011
4573	CB	304	TMC3	C2	1	-0.15	12.011
4574	CB	304	TMC3	C3	1	0.0862	12.011
4575	CB	304	TMC3	C4	1	-0.15	12.011
4576	CB	304	TMC3	C5	1	0.0862	12.011
4577	CB	304	TMC3	C6	1	-0.15	12.011
4578	C=O	304	TMC3	C	1	0.5438	12.011
4579	O=C	304	TMC3	O	1	-0.57	15.9994
4580	HCMM	304	TMC3	H	1	0.15	1.0079
4581	HCMM	304	TMC3	H1	1	0.15	1.0079
4582	HCMM	304	TMC3	H2	1	0.15	1.0079
4583	C=O	304	TMC3	C7	1	0.5438	12.011
4584	C=O	304	TMC3	C8	1	0.5438	12.011
4585	O=C	304	TMC3	O1	1	-0.57	15.9994
4586	O=C	304	TMC3	O2	1	-0.57	15.9994
4587	CB	305	MPD2	C	1	-0.15	12.011
4588	CB	305	MPD2	C1	1	0.117	12.011
4589	CB	305	MPD2	C2	1	-0.15	12.011
4590	CB	305	MPD2	C3	1	0.117	12.011
4591	CB	305	MPD2	C4	1	-0.15	12.011
4592	CB	305	MPD2	C5	1	-0.15	12.011
4593	HCMM	305	MPD2	H	1	0.15	1.0079
4594	HCMM	305	MPD2	H1	1	0.15	1.0079
4595	HCMM	305	MPD2	H2	1	0.15	1.0079
4596	HCMM	305	MPD2	H3	1	0.15	1.0079
4597	NC=O	305	MPD2	N	1	-0.547	14.0067
4598	HNCO	305	MPD2	H5	1	0.37	1.0079
4599	NC=O	305	MPD2	N1	1	-0.547	14.0067
4600	HNCO	305	MPD2	H7	1	0.37	1.0079
4601	CB	306	TMC3	C1	1	0.0862	12.011
4602	CB	306	TMC3	C2	1	-0.15	12.011
4603	CB	306	TMC3	C3	1	0.0862	12.011
4604	CB	306	TMC3	C4	1	-0.15	12.011
4605	CB	306	TMC3	C5	1	0.0862	12.011
4606	CB	306	TMC3	C6	1	-0.15	12.011
4607	C=O	306	TMC3	C	1	0.5438	12.011
4608	O=C	306	TMC3	O	1	-0.57	15.9994
4609	HCMM	306	TMC3	H	1	0.15	1.0079
4610	HCMM	306	TMC3	H1	1	0.15	1.0079
4611	HCMM	306	TMC3	H2	1	0.15	1.0079
4612	C=O	306	TMC3	C7	1	0.5438	12.011
4613	C=O	306	TMC3	C8	1	0.5438	12.011
4614	O=C	306	TMC3	O1	1	-0.57	15.9994
4615	O=C	306	TMC3	O2	1	-0.57	15.9994
4616	CB	307	MPD2	C	1	-0.15	12.011
4617	CB	307	MPD2	C1	1	0.117	12.011
4618	CB	307	MPD2	C2	1	-0.15	12.011
4619	CB	307	MPD2	C3	1	0.117	12.011
4620	CB	307	MPD2	C4	1	-0.15	12.011
4621	CB	307	MPD2	C5	1	-0.15	12.011
4622	HCMM	307	MPD2	H	1	0.15	1.0079
4623	HCMM	307	MPD2	H1	1	0.15	1.0079
4624	HCMM	307	MPD2	H2	1	0.15	1.0079
4625	HCMM	307	MPD2	H3	1	0.15	1.0079
4626	NC=O	307	MPD2	N	1	-0.547	14.0067
4627	HNCO	307	MPD2	H5	1	0.37	1.0079
4628	NC=O	307	MPD2	N1	1	-0.547	14.0067
4629	HNCO	307	MPD2	H7	1	0.37	1.0079
4630	CB	308	TMC3	C1	1	0.0862	12.011
4631	CB	308	TMC3	C2	1	-0.15	12.011
4632	CB	308	TMC3	C3	1	0.0862	12.011
4633	CB	308	TMC3	C4	1	-0.15	12.011
4634	CB	308	TMC3	C5	1	0.0862	12.011
4635	CB	308	TMC3	C6	1	-0.15	12.011
4636	C=O	308	TMC3	C	1	0.5438	12.011
4637	O=C	308	TMC3	O	1	-0.57	15.9994
4638	HCMM	308	TMC3	H	1	0.15	1.0079
4639	HCMM	308	TMC3	H1	1	0.15	1.0079
4640	HCMM	308	TMC3	H2	1	0.15	1.0079
4641	C=O	308	TMC3	C7	1	0.5438	12.011
4642	C=O	308	TMC3	C8	1	0.5438	12.011
4643	O=C	308	TMC3	O1	1	-0.57	15.9994
4644	O=C	308	TMC3	O2	1	-0.57	15.9994
4645	CB	309	MPD2	C	1	-0.15	12.011
4646	CB	309	MPD2	C1	1	0.117	12.011
4647	CB	309	MPD2	C2	1	-0.15	12.011
4648	CB	309	MPD2	C3	1	0.117	12.011
4649	CB	309	MPD2	C4	1	-0.15	12.011
4650	CB	309	MPD2	C5	1	-0.15	12.011
4651	HCMM	309	MPD2	H	1	0.15	1.0079
4652	HCMM	309	MPD2	H1	1	0.15	1.0079
4653	HCMM	309	MPD2	H2	1	0.15	1.0079
4654	HCMM	309	MPD2	H3	1	0.15	1.0079
4655	NC=O	309	MPD2	N	1	-0.547	14.0067
4656	HNCO	309	MPD2	H5	1	0.37	1.0079
4657	NC=O	309	MPD2	N1	1	-0.547	14.0067
4658	HNCO	309	MPD2	H7	1	0.37	1.0079
4659	CB	310	TMC3	C1	1	0.0862	12.011
4660	CB	310	TMC3	C2	1	-0.15	12.011
4661	CB	310	TMC3	C3	1	0.0862	12.011
4662	CB	310	TMC3	C4	1	-0.15	12.011
4663	CB	310	TMC3	C5	1	0.0862	12.011
4664	CB	310	TMC3	C6	1	-0.15	12.011
4665	C=O	310	TMC3	C	1	0.5438	12.011
4666	O=C	310	TMC3	O	1	-0.57	15.9994
4667	HCMM	310	TMC3	H	1	0.15	1.0079
4668	HCMM	310	TMC3	H1	1	0.15	1.0079
4669	HCMM	310	TMC3	H2	1	0.15	1.0079
4670	C=O	310	TMC3	C7	1	0.5438	12.011
4671	C=O	310	TMC3	C8	1	0.5438	12.011
4672	O=C	310	TMC3	O1	1	-0.57	15.9994
4673	O=C	310	TMC3	O2	1	-0.57	15.9994
4674	CB	311	MPD2	C	1	-0.15	12.011
4675	CB	311	MPD2	C1	1	0.117	12.011
4676	CB	311	MPD2	C2	1	-0.15	12.011
4677	CB	311	MPD2	C3	1	0.117	12.011
4678	CB	311	MPD2	C4	1	-0.15	12.011
4679	CB	311	MPD2	C5	1	-0.15	12.011
4680	HCMM	311	MPD2	H	1	0.15	1.0079
4681	HCMM	311	MPD2	H1	1	0.15	1.0079
4682	HCMM	311	MPD2	H2	1	0.15	1.0079
4683	HCMM	311	MPD2	H3	1	0.15	1.0079
4684	NC=O	311	MPD2	N	1	-0.547	14.0067
4685	HNCO	311	MPD2	H5	1	0.37	1.0079
4686	NC=O	311	MPD2	N1	1	-0.547	14.0067
4687	HNCO	311	MPD2	H7	1	0.37	1.0079
4688	CB	312	TMC3	C1	1	0.0862	12.011
4689	CB	312	TMC3	C2	1	-0.15	12.011
4690	CB	312	TMC3	C3	1	0.0862	12.011
4691	CB	312	TMC3	C4	1	-0.15	12.011
4692	CB	312	TMC3	C5	1	0.0862	12.011
4693	CB	312	TMC3	C6	1	-0.15	12.011
4694	C=O	312	TMC3	C	1	0.5438	12.011
4695	O=C	312	TMC3	O	1	-0.57	15.9994
4696	HCMM	312	TMC3	H	1	0.15	1.0079
4697	HCMM	312	TMC3	H1	1	0.15	1.0079
4698	HCMM	312	TMC3	H2	1	0.15	1.0079
4699	C=O	312	TMC3	C7	1	0.5438	12.011
4700	C=O	312	TMC3	C8	1	0.5438	12.011
4701	O=C	312	TMC3	O1	1	-0.57	15.9994
4702	O=C	312	TMC3	O2	1	-0.57	15.9994
4703	CB	313	MPD2	C	1	-0.15	12.011
4704	CB	313	MPD2	C1	1	0.117	12.011
4705	CB	313	MPD2	C2	1	-0.15	12.011
4706	CB	313	MPD2	C3	1	0.117	12.011
4707	CB	313	MPD2	C4	1	-0.15	12.011
4708	CB	313	MPD2	C5	1	-0.15	12.011
4709	HCMM	313	MPD2	H	1	0.15	1.0079
4710	HCMM	313	MPD2	H1	1	0.15	1.0079
4711	HCMM	313	MPD2	H2	1	0.15	1.0079
4712	HCMM	313	MPD2	H3	1	0.15	1.0079
4713	NC=O	313	MPD2	N	1	-0.547	14.0067
4714	HNCO	313	MPD2	H5	1	0.37	1.0079
4715	NC=O	313	MPD2	N1	1	-0.547	14.0067
4716	HNCO	313	MPD2	H7	1	0.37	1.0079
4717	CB	314	TMC3	C1	1	0.0862	12.011
4718	CB	314	TMC3	C2	1	-0.15	12.011
4719	CB	314	TMC3	C3	1	0.0862	12.011
4720	CB	314	TMC3	C4	1	-0.15	12.011
4721	CB	314	TMC3	C5	1	0.0862	12.011
4722	CB	314	TMC3	C6	1	-0.15	12.011
4723	C=O	314	TMC3	C	1	0.5438	12.011
4724	O=C	314	TMC3	O	1	-0.57	15.9994
4725	HCMM	314	TMC3	H	1	0.15	1.0079
4726	HCMM	314	TMC3	H1	1	0.15	1.0079
4727	HCMM	314	TMC3	H2	1	0.15	1.0079
4728	C=O	314	TMC3	C7	1	0.5438	12.011
4729	C=O	314	TMC3	C8	1	0.5438	12.011
4730	O=C	314	TMC3	O1	1	-0.57	15.9994
4731	O=C	314	TMC3	O2	1	-0.57	15.9994
4732	CB	315	MPD2	C	1	-0.15	12.011
4733	CB	315	MPD2	C1	1	0.117	12.011
4734	CB	315	MPD2	C2	1	-0.15	12.011
4735	CB	315	MPD2	C3	1	0.117	12.011
4736	CB	315	MPD2	C4	1	-0.15	12.011
4737	CB	315	MPD2	C5	1	-0.15	12.011
4738	HCMM	315	MPD2	H	1	0.15	1.0079
4739	HCMM	315	MPD2	H1	1	0.15	1.0079
4740	HCMM	315	MPD2	H2	1	0.15	1.0079
4741	HCMM	315	MPD2	H3	1	0.15	1.0079
4742	NC=O	315	MPD2	N	1	-0.547	14.0067
4743	HNCO	315	MPD2	H5	1	0.37	1.0079
4744	NC=O	315	MPD2	N1	1	-0.547	14.0067
4745	HNCO	315	MPD2	H7	1	0.37	1.0079
4746	CB	316	TMC3	C1	1	0.0862	12.011
4747	CB	316	TMC3	C2	1	-0.15	12.011
4748	CB	316	TMC3	C3	1	0.0862	12.011
4749	CB	316	TMC3	C4	1	-0.15	12.011
4750	CB	316	TMC3	C5	1	0.0862	12.011
4751	CB	316	TMC3	C6	1	-0.15	12.011
4752	C=O	316	TMC3	C	1	0.5438	12.011
4753	O=C	316	TMC3	O	1	-0.57	15.9994
4754	HCMM	316	TMC3	H	1	0.15	1.0079
4755	HCMM	316	TMC3	H1	1	0.15	1.0079
4756	HCMM	316	TMC3	H2	1	0.15	1.0079
4757	C=O	316	TMC3	C7	1	0.5438	12.011
4758	C=O	316	TMC3	C8	1	0.5438	12.011
4759	O=C	316	TMC3	O1	1	-0.57	15.9994
4760	O=C	316	TMC3	O2	1	-0.57	15.9994
4761	CB	317	MPD2	C	1	-0.15	12.011
4762	CB	317	MPD2	C1	1	0.117	12.011
4763	CB	317	MPD2	C2	1	-0.15	12.011
4764	CB	317	MPD2	C3	1	0.117	12.011
4765	CB	317	MPD2	C4	1	-0.15	12.011
4766	CB	317	MPD2	C5	1	-0.15	12.011
4767	HCMM	317	MPD2	H	1	0.15	1.0079
4768	HCMM	317	MPD2	H1	1	0.15	1.0079
4769	HCMM	317	MPD2	H2	1	0.15	1.0079
4770	HCMM	317	MPD2	H3	1	0.15	1.0079
4771	NC=O	317	MPD2	N	1	-0.547	14.0067
4772	HNCO	317	MPD2	H5	1	0.37	1.0079
4773	NC=O	317	MPD2	N1	1	-0.547	14.0067
4774	HNCO	317	MPD2	H7	1	0.37	1.0079
4775	CB	318	TMC3	C1	1	0.0862	12.011
4776	CB	318	TMC3	C2	1	-0.15	12.011
4777	CB	318	TMC3	C3	1	0.0862	12.011
4778	CB	318	TMC3	C4	1	-0.15	12.011
4779	CB	318	TMC3	C5	1	0.0862	12.011
4780	CB	318	TMC3	C6	1	-0.15	12.011
4781	C=O	318	TMC3	C	1	0.5438	12.011
4782	O=C	318	TMC3	O	1	-0.57	15.9994
4783	HCMM	318	TMC3	H	1	0.15	1.0079
4784	HCMM	318	TMC3	H1	1	0.15	1.0079
4785	HCMM	318	TMC3	H2	1	0.15	1.0079
4786	C=O	318	TMC3	C7	1	0.5438	12.011
4787	C=O	318	TMC3	C8	1	0.5438	12.011
4788	O=C	318	TMC3	O1	1	-0.57	15.9994
4789	O=C	318	TMC3	O2	1	-0.57	15.9994
4790	CB	319	MPD2	C	1	-0.15	12.011
4791	CB	319	MPD2	C1	1	0.117	12.011
4792	CB	319	MPD2	C2	1	-0.15	12.011
4793	CB	319	MPD2	C3	1	0.117	12.011
4794	CB	319	MPD2	C4	1	-0.15	12.011
4795	CB	319	MPD2	C5	1	-0.15	12.011
4796	HCMM	319	MPD2	H	1	0.15	1.0079
4797	HCMM	319	MPD2	H1	1	0.15	1.0079
4798	HCMM	319	MPD2	H2	1	0.15	1.0079
4799	HCMM	319	MPD2	H3	1	0.15	1.0079
4800	NC=O	319	MPD2	N	1	-0.547	14.0067
4801	HNCO	319	MPD2	H5	1	0.37	1.0079
4802	NC=O	319	MPD2	N1	1	-0.547	14.0067
4803	HNCO	319	MPD2	H7	1	0.37	1.0079
4804	CB	320	TMC3	C1	1	0.0862	12.011
4805	CB	320	TMC3	C2	1	-0.15	12.011
4806	CB	320	TMC3	C3	1	0.0862	12.011
4807	CB	320	TMC3	C4	1	-0.15	12.011
4808	CB	320	TMC3	C5	1	0.0862	12.011
4809	CB	320	TMC3	C6	1	-0.15	12.011
4810	C=O	320	TMC3	C	1	0.5438	12.011
4811	O=C	320	TMC3	O	1	-0.57	15.9994
4812	HCMM	320	TMC3	H	1	0.15	1.0079
4813	HCMM	320	TMC3	H1	1	0.15	1.0079
4814	HCMM	320	TMC3	H2	1	0.15	1.0079
4815	C=O	320	TMC3	C7	1	0.5438	12.011
4816	C=O	320	TMC3	C8	1	0.5438	12.011
4817	O=C	320	TMC3	O1	1	-0.57	15.9994
4818	O=C	320	TMC3	O2	1	-0.57	15.9994
4819	CB	321	TMC3	C1	1	0.0862	12.011
4820	CB	321	TMC3	C2	1	-0.15	12.011
4821	CB	321	TMC3	C3	1	0.0862	12.011
4822	CB	321	TMC3	C4	1	-0.15	12.011
4823	CB	321	TMC3	C5	1	0.0862	12.011
4824	CB	321	TMC3	C6	1	-0.15	12.011
4825	C=O	321	TMC3	C	1	0.5438	12.011
4826	O=C	321	TMC3	O	1	-0.57	15.9994
4827	HCMM	321	TMC3	H	1	0.15	1.0079
4828	HCMM	321	TMC3	H1	1	0.15	1.0079
4829	HCMM	321	TMC3	H2	1	0.15	1.0079
4830	C=O	321	TMC3	C7	1	0.5438	12.011
4831	C=O	321	TMC3	C8	1	0.5438	12.011
4832	O=C	321	TMC3	O1	1	-0.57	15.9994
4833	O=C	321	TMC3	O2	1	-0.57	15.9994
4834	CB	322	MPD2	C	1	-0.15	12.011
4835	CB	322	MPD2	C1	1	0.117	12.011
4836	CB	322	MPD2	C2	1	-0.15	12.011
4837	CB	322	MPD2	C3	1	0.117	12.011
4838	CB	322	MPD2	C4	1	-0.15	12.011
4839	CB	322	MPD2	C5	1	-0.15	12.011
4840	HCMM	322	MPD2	H	1	0.15	1.0079
4841	HCMM	322	MPD2	H1	1	0.15	1.0079
4842	HCMM	322	MPD2	H2	1	0.15	1.0079
4843	HCMM	322	MPD2	H3	1	0.15	1.0079
4844	NC=O	322	MPD2	N	1	-0.547	14.0067
4845	HNCO	322	MPD2	H5	1	0.37	1.0079
4846	NC=O	322	MPD2	N1	1	-0.547	14.0067
4847	HNCO	322	MPD2	H7	1	0.37	1.0079
4848	CB	323	TMC3	C1	1	0.0862	12.011
4849	CB	323	TMC3	C2	1	-0.15	12.011
4850	CB	323	TMC3	C3	1	0.0862	12.011
4851	CB	323	TMC3	C4	1	-0.15	12.011
4852	CB	323	TMC3	C5	1	0.0862	12.011
4853	CB	323	TMC3	C6	1	-0.15	12.011
4854	C=O	323	TMC3	C	1	0.5438	12.011
4855	O=C	323	TMC3	O	1	-0.57	15.9994
4856	HCMM	323	TMC3	H	1	0.15	1.0079
4857	HCMM	323	TMC3	H1	1	0.15	1.0079
4858	HCMM	323	TMC3	H2	1	0.15	1.0079
4859	C=O	323	TMC3	C7	1	0.5438	12.011
4860	C=O	323	TMC3	C8	1	0.5438	12.011
4861	O=C	323	TMC3	O1	1	-0.57	15.9994
4862	O=C	323	TMC3	O2	1	-0.57	15.9994
4863	CB	324	MPD2	C	1	-0.15	12.011
4864	CB	324	MPD2	C1	1	0.117	12.011
4865	CB	324	MPD2	C2	1	-0.15	12.011
4866	CB	324	MPD2	C3	1	0.117	12.011
4867	CB	324	MPD2	C4	1	-0.15	12.011
4868	CB	324	MPD2	C5	1	-0.15	12.011
4869	HCMM	324	MPD2	H	1	0.15	1.0079
4870	HCMM	324	MPD2	H1	1	0.15	1.0079
4871	HCMM	324	MPD2	H2	1	0.15	1.0079
4872	HCMM	324	MPD2	H3	1	0.15	1.0079
4873	NC=O	324	MPD2	N	1	-0.547	14.0067
4874	HNCO	324	MPD2	H5	1	0.37	1.0079
4875	NC=O	324	MPD2	N1	1	-0.547	14.0067
4876	HNCO	324	MPD2	H7	1	0.37	1.0079
4877	CB	325	TMC3	C1	1	0.0862	12.011
4878	CB	325	TMC3	C2	1	-0.15	12.011
4879	CB	325	TMC3	C3	1	0.0862	12.011
4880	CB	325	TMC3	C4	1	-0.15	12.011
4881	CB	325	TMC3	C5	1	0.0862	12.011
4882	CB	325	TMC3	C6	1	-0.15	12.011
4883	C=O	325	TMC3	C	1	0.5438	12.011
4884	O=C	325	TMC3	O	1	-0.57	15.9994
4885	HCMM	325	TMC3	H	1	0.15	1.0079
4886	HCMM	325	TMC3	H1	1	0.15	1.0079
4887	HCMM	325	TMC3	H2	1	0.15	1.0079
4888	C=O	325	TMC3	C7	1	0.5438	12.011
4889	C=O	325	TMC3	C8	1	0.5438	12.011
4890	O=C	325	TMC3	O1	1	-0.57	15.9994
4891	O=C	325	TMC3	O2	1	-0.57	15.9994
4892	CB	326	MPD2	C	1	-0.15	12.011
4893	CB	326	MPD2	C1	1	0.117	12.011
4894	CB	326	MPD2	C2	1	-0.15	12.011
4895	CB	326	MPD2	C3	1	0.117	12.011
4896	CB	326	MPD2	C4	1	-0.15	12.011
4897	CB	326	MPD2	C5	1	-0.15	12.011
4898	HCMM	326	MPD2	H	1	0.15	1.0079
4899	HCMM	326	MPD2	H1	1	0.15	1.0079
4900	HCMM	326	MPD2	H2	1	0.15	1.0079
4901	HCMM	326	MPD2	H3	1	0.15	1.0079
4902	NC=O	326	MPD2	N	1	-0.547	14.0067
4903	HNCO	326	MPD2	H5	1	0.37	1.0079
4904	NC=O	326	MPD2	N1	1	-0.547	14.0067
4905	HNCO	326	MPD2	H7	1	0.37	1.0079
4906	CB	327	TMC3	C1	1	0.0862	12.011
4907	CB	327	TMC3	C2	1	-0.15	12.011
4908	CB	327	TMC3	C3	1	0.0862	12.011
4909	CB	327	TMC3	C4	1	-0.15	12.011
4910	CB	327	TMC3	C5	1	0.0862	12.011
4911	CB	327	TMC3	C6	1	-0.15	12.011
4912	C=O	327	TMC3	C	1	0.5438	12.011
4913	O=C	327	TMC3	O	1	-0.57	15.9994
4914	HCMM	327	TMC3	H	1	0.15	1.0079
4915	HCMM	327	TMC3	H1	1	0.15	1.0079
4916	HCMM	327	TMC3	H2	1	0.15	1.0079
4917	C=O	327	TMC3	C7	1	0.5438	12.011
4918	C=O	327	TMC3	C8	1	0.5438	12.011
4919	O=C	327	TMC3	O1	1	-0.57	15.9994
4920	O=C	327	TMC3	O2	1	-0.57	15.9994
4921	CB	328	MPD2	C	1	-0.15	12.011
4922	CB	328	MPD2	C1	1	0.117	12.011
4923	CB	328	MPD2	C2	1	-0.15	12.011
4924	CB	328	MPD2	C3	1	0.117	12.011
4925	CB	328	MPD2	C4	1	-0.15	12.011
4926	CB	328	MPD2	C5	1	-0.15	12.011
4927	HCMM	328	MPD2	H	1	0.15	1.0079
4928	HCMM	328	MPD2	H1	1	0.15	1.0079
4929	HCMM	328	MPD2	H2	1	0.15	1.0079
4930	HCMM	328	MPD2	H3	1	0.15	1.0079
4931	NC=O	328	MPD2	N	1	-0.547	14.0067
4932	HNCO	328	MPD2	H5	1	0.37	1.0079
4933	NC=O	328	MPD2	N1	1	-0.547	14.0067
4934	HNCO	328	MPD2	H7	1	0.37	1.0079
4935	CB	329	TMC3	C1	1	0.0862	12.011
4936	CB	329	TMC3	C2	1	-0.15	12.011
4937	CB	329	TMC3	C3	1	0.0862	12.011
4938	CB	329	TMC3	C4	1	-0.15	12.011
4939	CB	329	TMC3	C5	1	0.0862	12.011
4940	CB	329	TMC3	C6	1	-0.15	12.011
4941	C=O	329	TMC3	C	1	0.5438	12.011
4942	O=C	329	TMC3	O	1	-0.57	15.9994
4943	HCMM	329	TMC3	H	1	0.15	1.0079
4944	HCMM	329	TMC3	H1	1	0.15	1.0079
4945	HCMM	329	TMC3	H2	1	0.15	1.0079
4946	C=O	329	TMC3	C7	1	0.5438	12.011
4947	C=O	329	TMC3	C8	1	0.5438	12.011
4948	O=C	329	TMC3	O1	1	-0.57	15.9994
4949	O=C	329	TMC3	O2	1	-0.57	15.9994
4950	CB	330	TMC3	C1	1	0.0862	12.011
4951	CB	330	TMC3	C2	1	-0.15	12.011
4952	CB	330	TMC3	C3	1	0.0862	12.011
4953	CB	330	TMC3	C4	1	-0.15	12.011
4954	CB	330	TMC3	C5	1	0.0862	12.011
4955	CB	330	TMC3	C6	1	-0.15	12.011
4956	C=O	330	TMC3	C	1	0.5438	12.011
4957	O=C	330	TMC3	O	1	-0.57	15.9994
4958	HCMM	330	TMC3	H	1	0.15	1.0079
4959	HCMM	330	TMC3	H1	1	0.15	1.0079
4960	HCMM	330	TMC3	H2	1	0.15	1.0079
4961	C=O	330	TMC3	C7	1	0.5438	12.011
4962	C=O	330	TMC3	C8	1	0.5438	12.011
4963	O=C	330	TMC3	O1	1	-0.57	15.9994
4964	O=C	330	TMC3	O2	1	-0.57	15.9994
4965	CB	331	MPD2	C	1	-0.15	12.011
4966	CB	331	MPD2	C1	1	0.117	12.011
4967	CB	331	MPD2	C2	1	-0.15	12.011
4968	CB	331	MPD2	C3	1	0.117	12.011
4969	CB	331	MPD2	C4	1	-0.15	12.011
4970	CB	331	MPD2	C5	1	-0.15	12.011
4971	HCMM	331	MPD2	H	1	0.15	1.0079
4972	HCMM	331	MPD2	H1	1	0.15	1.0079
4973	HCMM	331	MPD2	H2	1	0.15	1.0079
4974	HCMM	331	MPD2	H3	1	0.15	1.0079
4975	NC=O	331	MPD2	N	1	-0.547	14.0067
4976	HNCO	331	MPD2	H5	1	0.37	1.0079
4977	NC=O	331	MPD2	N1	1	-0.547	14.0067
4978	HNCO	331	MPD2	H7	1	0.37	1.0079
4979	CB	332	TMC3	C1	1	0.0862	12.011
4980	CB	332	TMC3	C2	1	-0.15	12.011
4981	CB	332	TMC3	C3	1	0.0862	12.011
4982	CB	332	TMC3	C4	1	-0.15	12.011
4983	CB	332	TMC3	C5	1	0.0862	12.011
4984	CB	332	TMC3	C6	1	-0.15	12.011
4985	C=O	332	TMC3	C	1	0.5438	12.011
4986	O=C	332	TMC3	O	1	-0.57	15.9994
4987	HCMM	332	TMC3	H	1	0.15	1.0079
4988	HCMM	332	TMC3	H1	1	0.15	1.0079
4989	HCMM	332	TMC3	H2	1	0.15	1.0079
4990	C=O	332	TMC3	C7	1	0.5438	12.011
4991	C=O	332	TMC3	C8	1	0.5438	12.011
4992	O=C	332	TMC3	O1	1	-0.57	15.9994
4993	O=C	332	TMC3	O2	1	-0.57	15.9994
4994	CB	333	MPD2	C	1	-0.15	12.011
4995	CB	333	MPD2	C1	1	0.117	12.011
4996	CB	333	MPD2	C2	1	-0.15	12.011
4997	CB	333	MPD2	C3	1	0.117	12.011
4998	CB	333	MPD2	C4	1	-0.15	12.011
4999	CB	333	MPD2	C5	1	-0.15	12.011
5000	HCMM	333	MPD2	H	1	0.15	1.0079
5001	HCMM	333	MPD2	H1	1	0.15	1.0079
5002	HCMM	333	MPD2	H2	1	0.15	1.0079
5003	HCMM	333	MPD2	H3	1	0.15	1.0079
5004	NC=O	333	MPD2	N	1	-0.547	14.0067
5005	HNCO	333	MPD2	H5	1	0.37	1.0079
5006	NC=O	333	MPD2	N1	1	-0.547	14.0067
5007	HNCO	333	MPD2	H7	1	0.37	1.0079
5008	CB	334	TMC3	C1	1	0.0862	12.011
5009	CB	334	TMC3	C2	1	-0.15	12.011
5010	CB	334	TMC3	C3	1	0.0862	12.011
5011	CB	334	TMC3	C4	1	-0.15	12.011
5012	CB	334	TMC3	C5	1	0.0862	12.011
5013	CB	334	TMC3	C6	1	-0.15	12.011
5014	C=O	334	TMC3	C	1	0.5438	12.011
5015	O=C	334	TMC3	O	1	-0.57	15.9994
5016	HCMM	334	TMC3	H	1	0.15	1.0079
5017	HCMM	334	TMC3	H1	1	0.15	1.0079
5018	HCMM	334	TMC3	H2	1	0.15	1.0079
5019	C=O	334	TMC3	C7	1	0.5438	12.011
5020	C=O	334	TMC3	C8	1	0.5438	12.011
5021	O=C	334	TMC3	O1	1	-0.57	15.9994
5022	O=C	334	TMC3	O2	1	-0.57	15.9994
5023	CB	335	TMC3	C1	1	0.0862	12.011
5024	CB	335	TMC3	C2	1	-0.15	12.011
5025	CB	335	TMC3	C3	1	0.0862	12.011
5026	CB	335	TMC3	C4	1	-0.15	12.011
5027	CB	335	TMC3	C5	1	0.0862	12.011
5028	CB	335	TMC3	C6	1	-0.15	12.011
5029	C=O	335	TMC3	C	1	0.5438	12.011
5030	O=C	335	TMC3	O	1	-0.57	15.9994
5031	HCMM	335	TMC3	H	1	0.15	1.0079
5032	HCMM	335	TMC3	H1	1	0.15	1.0079
5033	HCMM	335	TMC3	H2	1	0.15	1.0079
5034	C=O	335	TMC3	C7	1	0.5438	12.011
5035	C=O	335	TMC3	C8	1	0.5438	12.011
5036	O=C	335	TMC3	O1	1	-0.57	15.9994
5037	O=C	335	TMC3	O2	1	-0.57	15.9994
5038	CB	336	MPD2	C	1	-0.15	12.011
5039	CB	336	MPD2	C1	1	0.117	12.011
5040	CB	336	MPD2	C2	1	-0.15	12.011
5041	CB	336	MPD2	C3	1	0.117	12.011
5042	CB	336	MPD2	C4	1	-0.15	12.011
5043	CB	336	MPD2	C5	1	-0.15	12.011
5044	HCMM	336	MPD2	H	1	0.15	1.0079
5045	HCMM	336	MPD2	H1	1	0.15	1.0079
5046	HCMM	336	MPD2	H2	1	0.15	1.0079
5047	HCMM	336	MPD2	H3	1	0.15	1.0079
5048	NC=O	336	MPD2	N	1	-0.547	14.0067
5049	HNCO	336	MPD2	H5	1	0.37	1.0079
5050	NC=O	336	MPD2	N1	1	-0.547	14.0067
5051	HNCO	336	MPD2	H7	1	0.37	1.0079
5052	CB	337	TMC3	C1	1	0.0862	12.011
5053	CB	337	TMC3	C2	1	-0.15	12.011
5054	CB	337	TMC3	C3	1	0.0862	12.011
5055	CB	337	TMC3	C4	1	-0.15	12.011
5056	CB	337	TMC3	C5	1	0.0862	12.011
5057	CB	337	TMC3	C6	1	-0.15	12.011
5058	C=O	337	TMC3	C	1	0.5438	12.011
5059	O=C	337	TMC3	O	1	-0.57	15.9994
5060	HCMM	337	TMC3	H	1	0.15	1.0079
5061	HCMM	337	TMC3	H1	1	0.15	1.0079
5062	HCMM	337	TMC3	H2	1	0.15	1.0079
5063	C=O	337	TMC3	C7	1	0.5438	12.011
5064	C=O	337	TMC3	C8	1	0.5438	12.011
5065	O=C	337	TMC3	O1	1	-0.57	15.9994
5066	O=C	337	TMC3	O2	1	-0.57	15.9994
5067	CB	338	MPD2	C	1	-0.15	12.011
5068	CB	338	MPD2	C1	1	0.117	12.011
5069	CB	338	MPD2	C2	1	-0.15	12.011
5070	CB	338	MPD2	C3	1	0.117	12.011
5071	CB	338	MPD2	C4	1	-0.15	12.011
5072	CB	338	MPD2	C5	1	-0.15	12.011
5073	HCMM	338	MPD2	H	1	0.15	1.0079
5074	HCMM	338	MPD2	H1	1	0.15	1.0079
5075	HCMM	338	MPD2	H2	1	0.15	1.0079
5076	HCMM	338	MPD2	H3	1	0.15	1.0079
5077	NC=O	338	MPD2	N	1	-0.547	14.0067
5078	HNCO	338	MPD2	H5	1	0.37	1.0079
5079	NC=O	338	MPD2	N1	1	-0.547	14.0067
5080	HNCO	338	MPD2	H7	1	0.37	1.0079
5081	CB	339	TMC3	C1	1	0.0862	12.011
5082	CB	339	TMC3	C2	1	-0.15	12.011
5083	CB	339	TMC3	C3	1	0.0862	12.011
5084	CB	339	TMC3	C4	1	-0.15	12.011
5085	CB	339	TMC3	C5	1	0.0862	12.011
5086	CB	339	TMC3	C6	1	-0.15	12.011
5087	C=O	339	TMC3	C	1	0.5438	12.011
5088	O=C	339	TMC3	O	1	-0.57	15.9994
5089	HCMM	339	TMC3	H	1	0.15	1.0079
5090	HCMM	339	TMC3	H1	1	0.15	1.0079
5091	HCMM	339	TMC3	H2	1	0.15	1.0079
5092	C=O	339	TMC3	C7	1	0.5438	12.011
5093	C=O	339	TMC3	C8	1	0.5438	12.011
5094	O=C	339	TMC3	O1	1	-0.57	15.9994
5095	O=C	339	TMC3	O2	1	-0.57	15.9994
5096	CB	340	MPD2	C	1	-0.15	12.011
5097	CB	340	MPD2	C1	1	0.117	12.011
5098	CB	340	MPD2	C2	1	-0.15	12.011
5099	CB	340	MPD2	C3	1	0.117	12.011
5100	CB	340	MPD2	C4	1	-0.15	12.011
5101	CB	340	MPD2	C5	1	-0.15	12.011
5102	HCMM	340	MPD2	H	1	0.15	1.0079
5103	HCMM	340	MPD2	H1	1	0.15	1.0079
5104	HCMM	340	MPD2	H2	1	0.15	1.0079
5105	HCMM	340	MPD2	H3	1	0.15	1.0079
5106	NC=O	340	MPD2	N	1	-0.547	14.0067
5107	HNCO	340	MPD2	H5	1	0.37	1.0079
5108	NC=O	340	MPD2	N1	1	-0.547	14.0067
5109	HNCO	340	MPD2	H7	1	0.37	1.0079
5110	CB	341	TMC3	C1	1	0.0862	12.011
5111	CB	341	TMC3	C2	1	-0.15	12.011
5112	CB	341	TMC3	C3	1	0.0862	12.011
5113	CB	341	TMC3	C4	1	-0.15	12.011
5114	CB	341	TMC3	C5	1	0.0862	12.011
5115	CB	341	TMC3	C6	1	-0.15	12.011
5116	C=O	341	TMC3	C	1	0.5438	12.011
5117	O=C	341	TMC3	O	1	-0.57	15.9994
5118	HCMM	341	TMC3	H	1	0.15	1.0079
5119	HCMM	341	TMC3	H1	1	0.15	1.0079
5120	HCMM	341	TMC3	H2	1	0.15	1.0079
5121	C=O	341	TMC3	C7	1	0.5438	12.011
5122	C=O	341	TMC3	C8	1	0.5438	12.011
5123	O=C	341	TMC3	O1	1	-0.57	15.9994
5124	O=C	341	TMC3	O2	1	-0.57	15.9994
5125	CB	342	MPD2	C	1	-0.15	12.011
5126	CB	342	MPD2	C1	1	0.117	12.011
5127	CB	342	MPD2	C2	1	-0.15	12.011
5128	CB	342	MPD2	C3	1	0.117	12.011
5129	CB	342	MPD2	C4	1	-0.15	12.011
5130	CB	342	MPD2	C5	1	-0.15	12.011
5131	HCMM	342	MPD2	H	1	0.15	1.0079
5132	HCMM	342	MPD2	H1	1	0.15	1.0079
5133	HCMM	342	MPD2	H2	1	0.15	1.0079
5134	HCMM	342	MPD2	H3	1	0.15	1.0079
5135	NC=O	342	MPD2	N	1	-0.547	14.0067
5136	HNCO	342	MPD2	H5	1	0.37	1.0079
5137	NC=O	342	MPD2	N1	1	-0.547	14.0067
5138	HNCO	342	MPD2	H7	1	0.37	1.0079
5139	CB	343	TMC3	C1	1	0.0862	12.011
5140	CB	343	TMC3	C2	1	-0.15	12.011
5141	CB	343	TMC3	C3	1	0.0862	12.011
5142	CB	343	TMC3	C4	1	-0.15	12.011
5143	CB	343	TMC3	C5	1	0.0862	12.011
5144	CB	343	TMC3	C6	1	-0.15	12.011
5145	C=O	343	TMC3	C	1	0.5438	12.011
5146	O=C	343	TMC3	O	1	-0.57	15.9994
5147	HCMM	343	TMC3	H	1	0.15	1.0079
5148	HCMM	343	TMC3	H1	1	0.15	1.0079
5149	HCMM	343	TMC3	H2	1	0.15	1.0079
5150	C=O	343	TMC3	C7	1	0.5438	12.011
5151	C=O	343	TMC3	C8	1	0.5438	12.011
5152	O=C	343	TMC3	O1	1	-0.57	15.9994
5153	O=C	343	TMC3	O2	1	-0.57	15.9994
5154	CB	344	MPD2	C	1	-0.15	12.011
5155	CB	344	MPD2	C1	1	0.117	12.011
5156	CB	344	MPD2	C2	1	-0.15	12.011
5157	CB	344	MPD2	C3	1	0.117	12.011
5158	CB	344	MPD2	C4	1	-0.15	12.011
5159	CB	344	MPD2	C5	1	-0.15	12.011
5160	HCMM	344	MPD2	H	1	0.15	1.0079
5161	HCMM	344	MPD2	H1	1	0.15	1.0079
5162	HCMM	344	MPD2	H2	1	0.15	1.0079
5163	HCMM	344	MPD2	H3	1	0.15	1.0079
5164	NC=O	344	MPD2	N	1	-0.547	14.0067
5165	HNCO	344	MPD2	H5	1	0.37	1.0079
5166	NC=O	344	MPD2	N1	1	-0.547	14.0067
5167	HNCO	344	MPD2	H7	1	0.37	1.0079
5168	CB	345	TMC3	C1	1	0.0862	12.011
5169	CB	345	TMC3	C2	1	-0.15	12.011
5170	CB	345	TMC3	C3	1	0.0862	12.011
5171	CB	345	TMC3	C4	1	-0.15	12.011
5172	CB	345	TMC3	C5	1	0.0862	12.011
5173	CB	345	TMC3	C6	1	-0.15	12.011
5174	C=O	345	TMC3	C	1	0.5438	12.011
5175	O=C	345	TMC3	O	1	-0.57	15.9994
5176	HCMM	345	TMC3	H	1	0.15	1.0079
5177	HCMM	345	TMC3	H1	1	0.15	1.0079
5178	HCMM	345	TMC3	H2	1	0.15	1.0079
5179	C=O	345	TMC3	C7	1	0.5438	12.011
5180	C=O	345	TMC3	C8	1	0.5438	12.011
5181	O=C	345	TMC3	O1	1	-0.57	15.9994
5182	O=C	345	TMC3	O2	1	-0.57	15.9994
5183	CB	346	MPD2	C	1	-0.15	12.011
5184	CB	346	MPD2	C1	1	0.117	12.011
5185	CB	346	MPD2	C2	1	-0.15	12.011
5186	CB	346	MPD2	C3	1	0.117	12.011
5187	CB	346	MPD2	C4	1	-0.15	12.011
5188	CB	346	MPD2	C5	1	-0.15	12.011
5189	HCMM	346	MPD2	H	1	0.15	1.0079
5190	HCMM	346	MPD2	H1	1	0.15	1.0079
5191	HCMM	346	MPD2	H2	1	0.15	1.0079
5192	HCMM	346	MPD2	H3	1	0.15	1.0079
5193	NC=O	346	MPD2	N	1	-0.547	14.0067
5194	HNCO	346	MPD2	H5	1	0.37	1.0079
5195	NC=O	346	MPD2	N1	1	-0.547	14.0067
5196	HNCO	346	MPD2	H7	1	0.37	1.0079
5197	CB	347	TMC3	C1	1	0.0862	12.011
5198	CB	347	TMC3	C2	1	-0.15	12.011
5199	CB	347	TMC3	C3	1	0.0862	12.011
5200	CB	347	TMC3	C4	1	-0.15	12.011
5201	CB	347	TMC3	C5	1	0.0862	12.011
5202	CB	347	TMC3	C6	1	-0.15	12.011
5203	C=O	347	TMC3	C	1	0.5438	12.011
5204	O=C	347	TMC3	O	1	-0.57	15.9994
5205	HCMM	347	TMC3	H	1	0.15	1.0079
5206	HCMM	347	TMC3	H1	1	0.15	1.0079
5207	HCMM	347	TMC3	H2	1	0.15	1.0079
5208	C=O	347	TMC3	C7	1	0.5438	12.011
5209	C=O	347	TMC3	C8	1	0.5438	12.011
5210	O=C	347	TMC3	O1	1	-0.57	15.9994
5211	O=C	347	TMC3	O2	1	-0.57	15.9994
5212	CB	348	MPD2	C	1	-0.15	12.011
5213	CB	348	MPD2	C1	1	0.117	12.011
5214	CB	348	MPD2	C2	1	-0.15	12.011
5215	CB	348	MPD2	C3	1	0.117	12.011
5216	CB	348	MPD2	C4	1	-0.15	12.011
5217	CB	348	MPD2	C5	1	-0.15	12.011
5218	HCMM	348	MPD2	H	1	0.15	1.0079
5219	HCMM	348	MPD2	H1	1	0.15	1.0079
5220	HCMM	348	MPD2	H2	1	0.15	1.0079
5221	HCMM	348	MPD2	H3	1	0.15	1.0079
5222	NC=O	348	MPD2	N	1	-0.547	14.0067
5223	HNCO	348	MPD2	H5	1	0.37	1.0079
5224	NC=O	348	MPD2	N1	1	-0.547	14.0067
5225	HNCO	348	MPD2	H7	1	0.37	1.0079
5226	CB	349	TMC3	C1	1	0.0862	12.011
5227	CB	349	TMC3	C2	1	-0.15	12.011
5228	CB	349	TMC3	C3	1	0.0862	12.011
5229	CB	349	TMC3	C4	1	-0.15	12.011
5230	CB	349	TMC3	C5	1	0.0862	12.011
5231	CB	349	TMC3	C6	1	-0.15	12.011
5232	C=O	349	TMC3	C	1	0.5438	12.011
5233	O=C	349	TMC3	O	1	-0.57	15.9994
5234	HCMM	349	TMC3	H	1	0.15	1.0079
5235	HCMM	349	TMC3	H1	1	0.15	1.0079
5236	HCMM	349	TMC3	H2	1	0.15	1.0079
5237	C=O	349	TMC3	C7	1	0.5438	12.011
5238	C=O	349	TMC3	C8	1	0.5438	12.011
5239	O=C	349	TMC3	O1	1	-0.57	15.9994
5240	O=C	349	TMC3	O2	1	-0.57	15.9994
5241	CB	350	MPD2	C	1	-0.15	12.011
5242	CB	350	MPD2	C1	1	0.117	12.011
5243	CB	350	MPD2	C2	1	-0.15	12.011
5244	CB	350	MPD2	C3	1	0.117	12.011
5245	CB	350	MPD2	C4	1	-0.15	12.011
5246	CB	350	MPD2	C5	1	-0.15	12.011
5247	HCMM	350	MPD2	H	1	0.15	1.0079
5248	HCMM	350	MPD2	H1	1	0.15	1.0079
5249	HCMM	350	MPD2	H2	1	0.15	1.0079
5250	HCMM	350	MPD2	H3	1	0.15	1.0079
5251	NC=O	350	MPD2	N	1	-0.547	14.0067
5252	HNCO	350	MPD2	H5	1	0.37	1.0079
5253	NC=O	350	MPD2	N1	1	-0.547	14.0067
5254	HNCO	350	MPD2	H7	1	0.37	1.0079
5255	CB	351	TMC3	C1	1	0.0862	12.011
5256	CB	351	TMC3	C2	1	-0.15	12.011
5257	CB	351	TMC3	C3	1	0.0862	12.011
5258	CB	351	TMC3	C4	1	-0.15	12.011
5259	CB	351	TMC3	C5	1	0.0862	12.011
5260	CB	351	TMC3	C6	1	-0.15	12.011
5261	C=O	351	TMC3	C	1	0.5438	12.011
5262	O=C	351	TMC3	O	1	-0.57	15.9994
5263	HCMM	351	TMC3	H	1	0.15	1.0079
5264	HCMM	351	TMC3	H1	1	0.15	1.0079
5265	HCMM	351	TMC3	H2	1	0.15	1.0079
5266	C=O	351	TMC3	C7	1	0.5438	12.011
5267	C=O	351	TMC3	C8	1	0.5438	12.011
5268	O=C	351	TMC3	O1	1	-0.57	15.9994
5269	O=C	351	TMC3	O2	1	-0.57	15.9994
5270	CB	352	MPD2	C	1	-0.15	12.011
5271	CB	352	MPD2	C1	1	0.117	12.011
5272	CB	352	MPD2	C2	1	-0.15	12.011
5273	CB	352	MPD2	C3	1	0.117	12.011
5274	CB	352	MPD2	C4	1	-0.15	12.011
5275	CB	352	MPD2	C5	1	-0.15	12.011
5276	HCMM	352	MPD2	H	1	0.15	1.0079
5277	HCMM	352	MPD2	H1	1	0.15	1.0079
5278	HCMM	352	MPD2	H2	1	0.15	1.0079
5279	HCMM	352	MPD2	H3	1	0.15	1.0079
5280	NC=O	352	MPD2	N	1	-0.547	14.0067
5281	HNCO	352	MPD2	H5	1	0.37	1.0079
5282	NC=O	352	MPD2	N1	1	-0.547	14.0067
5283	HNCO	352	MPD2	H7	1	0.37	1.0079
5284	CB	353	TMC3	C1	1	0.0862	12.011
5285	CB	353	TMC3	C2	1	-0.15	12.011
5286	CB	353	TMC3	C3	1	0.0862	12.011
5287	CB	353	TMC3	C4	1	-0.15	12.011
5288	CB	353	TMC3	C5	1	0.0862	12.011
5289	CB	353	TMC3	C6	1	-0.15	12.011
5290	C=O	353	TMC3	C	1	0.5438	12.011
5291	O=C	353	TMC3	O	1	-0.57	15.9994
5292	HCMM	353	TMC3	H	1	0.15	1.0079
5293	HCMM	353	TMC3	H1	1	0.15	1.0079
5294	HCMM	353	TMC3	H2	1	0.15	1.0079
5295	C=O	353	TMC3	C7	1	0.5438	12.011
5296	C=O	353	TMC3	C8	1	0.5438	12.011
5297	O=C	353	TMC3	O1	1	-0.57	15.9994
5298	O=C	353	TMC3	O2	1	-0.57	15.9994
5299	CB	354	TMC3	C1	1	0.0862	12.011
5300	CB	354	TMC3	C2	1	-0.15	12.011
5301	CB	354	TMC3	C3	1	0.0862	12.011
5302	CB	354	TMC3	C4	1	-0.15	12.011
5303	CB	354	TMC3	C5	1	0.0862	12.011
5304	CB	354	TMC3	C6	1	-0.15	12.011
5305	C=O	354	TMC3	C	1	0.5438	12.011
5306	O=C	354	TMC3	O	1	-0.57	15.9994
5307	HCMM	354	TMC3	H	1	0.15	1.0079
5308	HCMM	354	TMC3	H1	1	0.15	1.0079
5309	HCMM	354	TMC3	H2	1	0.15	1.0079
5310	C=O	354	TMC3	C7	1	0.5438	12.011
5311	C=O	354	TMC3	C8	1	0.5438	12.011
5312	O=C	354	TMC3	O1	1	-0.57	15.9994
5313	O=C	354	TMC3	O2	1	-0.57	15.9994
5314	CB	355	MPD2	C	1	-0.15	12.011
5315	CB	355	MPD2	C1	1	0.117	12.011
5316	CB	355	MPD2	C2	1	-0.15	12.011
5317	CB	355	MPD2	C3	1	0.117	12.011
5318	CB	355	MPD2	C4	1	-0.15	12.011
5319	CB	355	MPD2	C5	1	-0.15	12.011
5320	HCMM	355	MPD2	H	1	0.15	1.0079
5321	HCMM	355	MPD2	H1	1	0.15	1.0079
5322	HCMM	355	MPD2	H2	1	0.15	1.0079
5323	HCMM	355	MPD2	H3	1	0.15	1.0079
5324	NC=O	355	MPD2	N	1	-0.547	14.0067
5325	HNCO	355	MPD2	H5	1	0.37	1.0079
5326	NC=O	355	MPD2	N1	1	-0.547	14.0067
5327	HNCO	355	MPD2	H7	1	0.37	1.0079
5328	CB	356	TMC3	C1	1	0.0862	12.011
5329	CB	356	TMC3	C2	1	-0.15	12.011
5330	CB	356	TMC3	C3	1	0.0862	12.011
5331	CB	356	TMC3	C4	1	-0.15	12.011
5332	CB	356	TMC3	C5	1	0.0862	12.011
5333	CB	356	TMC3	C6	1	-0.15	12.011
5334	C=O	356	TMC3	C	1	0.5438	12.011
5335	O=C	356	TMC3	O	1	-0.57	15.9994
5336	HCMM	356	TMC3	H	1	0.15	1.0079
5337	HCMM	356	TMC3	H1	1	0.15	1.0079
5338	HCMM	356	TMC3	H2	1	0.15	1.0079
5339	C=O	356	TMC3	C7	1	0.5438	12.011
5340	C=O	356	TMC3	C8	1	0.5438	12.011
5341	O=C	356	TMC3	O1	1	-0.57	15.9994
5342	O=C	356	TMC3	O2	1	-0.57	15.9994
5343	CB	357	MPD2	C	1	-0.15	12.011
5344	CB	357	MPD2	C1	1	0.117	12.011
5345	CB	357	MPD2	C2	1	-0.15	12.011
5346	CB	357	MPD2	C3	1	0.117	12.011
5347	CB	357	MPD2	C4	1	-0.15	12.011
5348	CB	357	MPD2	C5	1	-0.15	12.011
5349	HCMM	357	MPD2	H	1	0.15	1.0079
5350	HCMM	357	MPD2	H1	1	0.15	1.0079
5351	HCMM	357	MPD2	H2	1	0.15	1.0079
5352	HCMM	357	MPD2	H3	1	0.15	1.0079
5353	NC=O	357	MPD2	N	1	-0.547	14.0067
5354	HNCO	357	MPD2	H5	1	0.37	1.0079
5355	NC=O	357	MPD2	N1	1	-0.547	14.0067
5356	HNCO	357	MPD2	H7	1	0.37	1.0079
5357	CB	358	TMC3	C1	1	0.0862	12.011
5358	CB	358	TMC3	C2	1	-0.15	12.011
5359	CB	358	TMC3	C3	1	0.0862	12.011
5360	CB	358	TMC3	C4	1	-0.15	12.011
5361	CB	358	TMC3	C5	1	0.0862	12.011
5362	CB	358	TMC3	C6	1	-0.15	12.011
5363	C=O	358	TMC3	C	1	0.5438	12.011
5364	O=C	358	TMC3	O	1	-0.57	15.9994
5365	HCMM	358	TMC3	H	1	0.15	1.0079
5366	HCMM	358	TMC3	H1	1	0.15	1.0079
5367	HCMM	358	TMC3	H2	1	0.15	1.0079
5368	C=O	358	TMC3	C7	1	0.5438	12.011
5369	C=O	358	TMC3	C8	1	0.5438	12.011
5370	O=C	358	TMC3	O1	1	-0.57	15.9994
5371	O=C	358	TMC3	O2	1	-0.57	15.9994
5372	CB	359	MPD2	C	1	-0.15	12.011
5373	CB	359	MPD2	C1	1	0.117	12.011
5374	CB	359	MPD2	C2	1	-0.15	12.011
5375	CB	359	MPD2	C3	1	0.117	12.011
5376	CB	359	MPD2	C4	1	-0.15	12.011
5377	CB	359	MPD2	C5	1	-0.15	12.011
5378	HCMM	359	MPD2	H	1	0.15	1.0079
5379	HCMM	359	MPD2	H1	1	0.15	1.0079
5380	HCMM	359	MPD2	H2	1	0.15	1.0079
5381	HCMM	359	MPD2	H3	1	0.15	1.0079
5382	NC=O	359	MPD2	N	1	-0.547	14.0067
5383	HNCO	359	MPD2	H5	1	0.37	1.0079
5384	NC=O	359	MPD2	N1	1	-0.547	14.0067
5385	HNCO	359	MPD2	H7	1	0.37	1.0079
5386	CB	360	TMC3	C1	1	0.0862	12.011
5387	CB	360	TMC3	C2	1	-0.15	12.011
5388	CB	360	TMC3	C3	1	0.0862	12.011
5389	CB	360	TMC3	C4	1	-0.15	12.011
5390	CB	360	TMC3	C5	1	0.0862	12.011
5391	CB	360	TMC3	C6	1	-0.15	12.011
5392	C=O	360	TMC3	C	1	0.5438	12.011
5393	O=C	360	TMC3	O	1	-0.57	15.9994
5394	HCMM	360	TMC3	H	1	0.15	1.0079
5395	HCMM	360	TMC3	H1	1	0.15	1.0079
5396	HCMM	360	TMC3	H2	1	0.15	1.0079
5397	C=O	360	TMC3	C7	1	0.5438	12.011
5398	C=O	360	TMC3	C8	1	0.5438	12.011
5399	O=C	360	TMC3	O1	1	-0.57	15.9994
5400	O=C	360	TMC3	O2	1	-0.57	15.9994
5401	CB	361	MPD2	C	1	-0.15	12.011
5402	CB	361	MPD2	C1	1	0.117	12.011
5403	CB	361	MPD2	C2	1	-0.15	12.011
5404	CB	361	MPD2	C3	1	0.117	12.011
5405	CB	361	MPD2	C4	1	-0.15	12.011
5406	CB	361	MPD2	C5	1	-0.15	12.011
5407	HCMM	361	MPD2	H	1	0.15	1.0079
5408	HCMM	361	MPD2	H1	1	0.15	1.0079
5409	HCMM	361	MPD2	H2	1	0.15	1.0079
5410	HCMM	361	MPD2	H3	1	0.15	1.0079
5411	NC=O	361	MPD2	N	1	-0.547	14.0067
5412	HNCO	361	MPD2	H5	1	0.37	1.0079
5413	NC=O	361	MPD2	N1	1	-0.547	14.0067
5414	HNCO	361	MPD2	H7	1	0.37	1.0079
5415	CB	362	TMC3	C1	1	0.0862	12.011
5416	CB	362	TMC3	C2	1	-0.15	12.011
5417	CB	362	TMC3	C3	1	0.0862	12.011
5418	CB	362	TMC3	C4	1	-0.15	12.011
5419	CB	362	TMC3	C5	1	0.0862	12.011
5420	CB	362	TMC3	C6	1	-0.15	12.011
5421	C=O	362	TMC3	C	1	0.5438	12.011
5422	O=C	362	TMC3	O	1	-0.57	15.9994
5423	HCMM	362	TMC3	H	1	0.15	1.0079
5424	HCMM	362	TMC3	H1	1	0.15	1.0079
5425	HCMM	362	TMC3	H2	1	0.15	1.0079
5426	C=O	362	TMC3	C7	1	0.5438	12.011
5427	C=O	362	TMC3	C8	1	0.5438	12.011
5428	O=C	362	TMC3	O1	1	-0.57	15.9994
5429	O=C	362	TMC3	O2	1	-0.57	15.9994
5430	CB	363	TMC3	C1	1	0.0862	12.011
5431	CB	363	TMC3	C2	1	-0.15	12.011
5432	CB	363	TMC3	C3	1	0.0862	12.011
5433	CB	363	TMC3	C4	1	-0.15	12.011
5434	CB	363	TMC3	C5	1	0.0862	12.011
5435	CB	363	TMC3	C6	1	-0.15	12.011
5436	C=O	363	TMC3	C	1	0.5438	12.011
5437	O=C	363	TMC3	O	1	-0.57	15.9994
5438	HCMM	363	TMC3	H	1	0.15	1.0079
5439	HCMM	363	TMC3	H1	1	0.15	1.0079
5440	HCMM	363	TMC3	H2	1	0.15	1.0079
5441	C=O	363	TMC3	C7	1	0.5438	12.011
5442	C=O	363	TMC3	C8	1	0.5438	12.011
5443	O=C	363	TMC3	O1	1	-0.57	15.9994
5444	O=C	363	TMC3	O2	1	-0.57	15.9994
5445	CB	364	MPD2	C	1	-0.15	12.011
5446	CB	364	MPD2	C1	1	0.117	12.011
5447	CB	364	MPD2	C2	1	-0.15	12.011
5448	CB	364	MPD2	C3	1	0.117	12.011
5449	CB	364	MPD2	C4	1	-0.15	12.011
5450	CB	364	MPD2	C5	1	-0.15	12.011
5451	HCMM	364	MPD2	H	1	0.15	1.0079
5452	HCMM	364	MPD2	H1	1	0.15	1.0079
5453	HCMM	364	MPD2	H2	1	0.15	1.0079
5454	HCMM	364	MPD2	H3	1	0.15	1.0079
5455	NC=O	364	MPD2	N	1	-0.547	14.0067
5456	HNCO	364	MPD2	H5	1	0.37	1.0079
5457	NC=O	364	MPD2	N1	1	-0.547	14.0067
5458	HNCO	364	MPD2	H7	1	0.37	1.0079
5459	CB	365	TMC3	C1	1	0.0862	12.011
5460	CB	365	TMC3	C2	1	-0.15	12.011
5461	CB	365	TMC3	C3	1	0.0862	12.011
5462	CB	365	TMC3	C4	1	-0.15	12.011
5463	CB	365	TMC3	C5	1	0.0862	12.011
5464	CB	365	TMC3	C6	1	-0.15	12.011
5465	C=O	365	TMC3	C	1	0.5438	12.011
5466	O=C	365	TMC3	O	1	-0.57	15.9994
5467	HCMM	365	TMC3	H	1	0.15	1.0079
5468	HCMM	365	TMC3	H1	1	0.15	1.0079
5469	HCMM	365	TMC3	H2	1	0.15	1.0079
5470	C=O	365	TMC3	C7	1	0.5438	12.011
5471	C=O	365	TMC3	C8	1	0.5438	12.011
5472	O=C	365	TMC3	O1	1	-0.57	15.9994
5473	O=C	365	TMC3	O2	1	-0.57	15.9994
5474	CB	366	MPD2	C	1	-0.15	12.011
5475	CB	366	MPD2	C1	1	0.117	12.011
5476	CB	366	MPD2	C2	1	-0.15	12.011
5477	CB	366	MPD2	C3	1	0.117	12.011
5478	CB	366	MPD2	C4	1	-0.15	12.011
5479	CB	366	MPD2	C5	1	-0.15	12.011
5480	HCMM	366	MPD2	H	1	0.15	1.0079
5481	HCMM	366	MPD2	H1	1	0.15	1.0079
5482	HCMM	366	MPD2	H2	1	0.15	1.0079
5483	HCMM	366	MPD2	H3	1	0.15	1.0079
5484	NC=O	366	MPD2	N	1	-0.547	14.0067
5485	HNCO	366	MPD2	H5	1	0.37	1.0079
5486	NC=O	366	MPD2	N1	1	-0.547	14.0067
5487	HNCO	366	MPD2	H7	1	0.37	1.0079
5488	CB	367	TMC3	C1	1	0.0862	12.011
5489	CB	367	TMC3	C2	1	-0.15	12.011
5490	CB	367	TMC3	C3	1	0.0862	12.011
5491	CB	367	TMC3	C4	1	-0.15	12.011
5492	CB	367	TMC3	C5	1	0.0862	12.011
5493	CB	367	TMC3	C6	1	-0.15	12.011
5494	C=O	367	TMC3	C	1	0.5438	12.011
5495	O=C	367	TMC3	O	1	-0.57	15.9994
5496	HCMM	367	TMC3	H	1	0.15	1.0079
5497	HCMM	367	TMC3	H1	1	0.15	1.0079
5498	HCMM	367	TMC3	H2	1	0.15	1.0079
5499	C=O	367	TMC3	C7	1	0.5438	12.011
5500	C=O	367	TMC3	C8	1	0.5438	12.011
5501	O=C	367	TMC3	O1	1	-0.57	15.9994
5502	O=C	367	TMC3	O2	1	-0.57	15.9994
5503	CB	368	MPD2	C	1	-0.15	12.011
5504	CB	368	MPD2	C1	1	0.117	12.011
5505	CB	368	MPD2	C2	1	-0.15	12.011
5506	CB	368	MPD2	C3	1	0.117	12.011
5507	CB	368	MPD2	C4	1	-0.15	12.011
5508	CB	368	MPD2	C5	1	-0.15	12.011
5509	HCMM	368	MPD2	H	1	0.15	1.0079
5510	HCMM	368	MPD2	H1	1	0.15	1.0079
5511	HCMM	368	MPD2	H2	1	0.15	1.0079
5512	HCMM	368	MPD2	H3	1	0.15	1.0079
5513	NC=O	368	MPD2	N	1	-0.547	14.0067
5514	HNCO	368	MPD2	H5	1	0.37	1.0079
5515	NC=O	368	MPD2	N1	1	-0.547	14.0067
5516	HNCO	368	MPD2	H7	1	0.37	1.0079
5517	CB	369	TMC3	C1	1	0.0862	12.011
5518	CB	369	TMC3	C2	1	-0.15	12.011
5519	CB	369	TMC3	C3	1	0.0862	12.011
5520	CB	369	TMC3	C4	1	-0.15	12.011
5521	CB	369	TMC3	C5	1	0.0862	12.011
5522	CB	369	TMC3	C6	1	-0.15	12.011
5523	C=O	369	TMC3	C	1	0.5438	12.011
5524	O=C	369	TMC3	O	1	-0.57	15.9994
5525	HCMM	369	TMC3	H	1	0.15	1.0079
5526	HCMM	369	TMC3	H1	1	0.15	1.0079
5527	HCMM	369	TMC3	H2	1	0.15	1.0079
5528	C=O	369	TMC3	C7	1	0.5438	12.011
5529	C=O	369	TMC3	C8	1	0.5438	12.011
5530	O=C	369	TMC3	O1	1	-0.57	15.9994
5531	O=C	369	TMC3	O2	1	-0.57	15.9994
5532	CB	370	TMC3	C1	1	0.0862	12.011
5533	CB	370	TMC3	C2	1	-0.15	12.011
5534	CB	370	TMC3	C3	1	0.0862	12.011
5535	CB	370	TMC3	C4	1	-0.15	12.011
5536	CB	370	TMC3	C5	1	0.0862	12.011
5537	CB	370	TMC3	C6	1	-0.15	12.011
5538	C=O	370	TMC3	C	1	0.5438	12.011
5539	O=C	370	TMC3	O	1	-0.57	15.9994
5540	HCMM	370	TMC3	H	1	0.15	1.0079
5541	HCMM	370	TMC3	H1	1	0.15	1.0079
5542	HCMM	370	TMC3	H2	1	0.15	1.0079
5543	C=O	370	TMC3	C7	1	0.5438	12.011
5544	C=O	370	TMC3	C8	1	0.5438	12.011
5545	O=C	370	TMC3	O1	1	-0.57	15.9994
5546	O=C	370	TMC3	O2	1	-0.57	15.9994
5547	CB	371	TMC3	C1	1	0.0862	12.011
5548	CB	371	TMC3	C2	1	-0.15	12.011
5549	CB	371	TMC3	C3	1	0.0862	12.011
5550	CB	371	TMC3	C4	1	-0.15	12.011
5551	CB	371	TMC3	C5	1	0.0862	12.011
5552	CB	371	TMC3	C6	1	-0.15	12.011
5553	C=O	371	TMC3	C	1	0.5438	12.011
5554	O=C	371	TMC3	O	1	-0.57	15.9994
5555	HCMM	371	TMC3	H	1	0.15	1.0079
5556	HCMM	371	TMC3	H1	1	0.15	1.0079
5557	HCMM	371	TMC3	H2	1	0.15	1.0079
5558	C=O	371	TMC3	C7	1	0.5438	12.011
5559	C=O	371	TMC3	C8	1	0.5438	12.011
5560	O=C	371	TMC3	O1	1	-0.57	15.9994
5561	O=C	371	TMC3	O2	1	-0.57	15.9994
5562	CB	372	MPD2	C	1	-0.15	12.011
5563	CB	372	MPD2	C1	1	0.117	12.011
5564	CB	372	MPD2	C2	1	-0.15	12.011
5565	CB	372	MPD2	C3	1	0.117	12.011
5566	CB	372	MPD2	C4	1	-0.15	12.011
5567	CB	372	MPD2	C5	1	-0.15	12.011
5568	HCMM	372	MPD2	H	1	0.15	1.0079
5569	HCMM	372	MPD2	H1	1	0.15	1.0079
5570	HCMM	372	MPD2	H2	1	0.15	1.0079
5571	HCMM	372	MPD2	H3	1	0.15	1.0079
5572	NC=O	372	MPD2	N	1	-0.547	14.0067
5573	HNCO	372	MPD2	H5	1	0.37	1.0079
5574	NC=O	372	MPD2	N1	1	-0.547	14.0067
5575	HNCO	372	MPD2	H7	1	0.37	1.0079
5576	CB	373	TMC3	C1	1	0.0862	12.011
5577	CB	373	TMC3	C2	1	-0.15	12.011
5578	CB	373	TMC3	C3	1	0.0862	12.011
5579	CB	373	TMC3	C4	1	-0.15	12.011
5580	CB	373	TMC3	C5	1	0.0862	12.011
5581	CB	373	TMC3	C6	1	-0.15	12.011
5582	C=O	373	TMC3	C	1	0.5438	12.011
5583	O=C	373	TMC3	O	1	-0.57	15.9994
5584	HCMM	373	TMC3	H	1	0.15	1.0079
5585	HCMM	373	TMC3	H1	1	0.15	1.0079
5586	HCMM	373	TMC3	H2	1	0.15	1.0079
5587	C=O	373	TMC3	C7	1	0.5438	12.011
5588	C=O	373	TMC3	C8	1	0.5438	12.011
5589	O=C	373	TMC3	O1	1	-0.57	15.9994
5590	O=C	373	TMC3	O2	1	-0.57	15.9994
5591	CB	374	TMC3	C1	1	0.0862	12.011
5592	CB	374	TMC3	C2	1	-0.15	12.011
5593	CB	374	TMC3	C3	1	0.0862	12.011
5594	CB	374	TMC3	C4	1	-0.15	12.011
5595	CB	374	TMC3	C5	1	0.0862	12.011
5596	CB	374	TMC3	C6	1	-0.15	12.011
5597	C=O	374	TMC3	C	1	0.5438	12.011
5598	O=C	374	TMC3	O	1	-0.57	15.9994
5599	HCMM	374	TMC3	H	1	0.15	1.0079
5600	HCMM	374	TMC3	H1	1	0.15	1.0079
5601	HCMM	374	TMC3	H2	1	0.15	1.0079
5602	C=O	374	TMC3	C7	1	0.5438	12.011
5603	C=O	374	TMC3	C8	1	0.5438	12.011
5604	O=C	374	TMC3	O1	1	-0.57	15.9994
5605	O=C	374	TMC3	O2	1	-0.57	15.9994
5606	CB	375	MPD2	C	1	-0.15	12.011
5607	CB	375	MPD2	C1	1	0.117	12.011
5608	CB	375	MPD2	C2	1	-0.15	12.011
5609	CB	375	MPD2	C3	1	0.117	12.011
5610	CB	375	MPD2	C4	1	-0.15	12.011
5611	CB	375	MPD2	C5	1	-0.15	12.011
5612	HCMM	375	MPD2	H	1	0.15	1.0079
5613	HCMM	375	MPD2	H1	1	0.15	1.0079
5614	HCMM	375	MPD2	H2	1	0.15	1.0079
5615	HCMM	375	MPD2	H3	1	0.15	1.0079
5616	NC=O	375	MPD2	N	1	-0.547	14.0067
5617	HNCO	375	MPD2	H5	1	0.37	1.0079
5618	NC=O	375	MPD2	N1	1	-0.547	14.0067
5619	HNCO	375	MPD2	H7	1	0.37	1.0079
5620	CB	376	TMC3	C1	1	0.0862	12.011
5621	CB	376	TMC3	C2	1	-0.15	12.011
5622	CB	376	TMC3	C3	1	0.0862	12.011
5623	CB	376	TMC3	C4	1	-0.15	12.011
5624	CB	376	TMC3	C5	1	0.0862	12.011
5625	CB	376	TMC3	C6	1	-0.15	12.011
5626	C=O	376	TMC3	C	1	0.5438	12.011
5627	O=C	376	TMC3	O	1	-0.57	15.9994
5628	HCMM	376	TMC3	H	1	0.15	1.0079
5629	HCMM	376	TMC3	H1	1	0.15	1.0079
5630	HCMM	376	TMC3	H2	1	0.15	1.0079
5631	C=O	376	TMC3	C7	1	0.5438	12.011
5632	C=O	376	TMC3	C8	1	0.5438	12.011
5633	O=C	376	TMC3	O1	1	-0.57	15.9994
5634	O=C	376	TMC3	O2	1	-0.57	15.9994
5635	CB	377	MPD2	C	1	-0.15	12.011
5636	CB	377	MPD2	C1	1	0.117	12.011
5637	CB	377	MPD2	C2	1	-0.15	12.011
5638	CB	377	MPD2	C3	1	0.117	12.011
5639	CB	377	MPD2	C4	1	-0.15	12.011
5640	CB	377	MPD2	C5	1	-0.15	12.011
5641	HCMM	377	MPD2	H	1	0.15	1.0079
5642	HCMM	377	MPD2	H1	1	0.15	1.0079
5643	HCMM	377	MPD2	H2	1	0.15	1.0079
5644	HCMM	377	MPD2	H3	1	0.15	1.0079
5645	NC=O	377	MPD2	N	1	-0.547	14.0067
5646	HNCO	377	MPD2	H5	1	0.37	1.0079
5647	NC=O	377	MPD2	N1	1	-0.547	14.0067
5648	HNCO	377	MPD2	H7	1	0.37	1.0079
5649	CB	378	TMC3	C1	1	0.0862	12.011
5650	CB	378	TMC3	C2	1	-0.15	12.011
5651	CB	378	TMC3	C3	1	0.0862	12.011
5652	CB	378	TMC3	C4	1	-0.15	12.011
5653	CB	378	TMC3	C5	1	0.0862	12.011
5654	CB	378	TMC3	C6	1	-0.15	12.011
5655	C=O	378	TMC3	C	1	0.5438	12.011
5656	O=C	378	TMC3	O	1	-0.57	15.9994
5657	HCMM	378	TMC3	H	1	0.15	1.0079
5658	HCMM	378	TMC3	H1	1	0.15	1.0079
5659	HCMM	378	TMC3	H2	1	0.15	1.0079
5660	C=O	378	TMC3	C7	1	0.5438	12.011
5661	C=O	378	TMC3	C8	1	0.5438	12.011
5662	O=C	378	TMC3	O1	1	-0.57	15.9994
5663	O=C	378	TMC3	O2	1	-0.57	15.9994
5664	CB	379	MPD2	C	1	-0.15	12.011
5665	CB	379	MPD2	C1	1	0.117	12.011
5666	CB	379	MPD2	C2	1	-0.15	12.011
5667	CB	379	MPD2	C3	1	0.117	12.011
5668	CB	379	MPD2	C4	1	-0.15	12.011
5669	CB	379	MPD2	C5	1	-0.15	12.011
5670	HCMM	379	MPD2	H	1	0.15	1.0079
5671	HCMM	379	MPD2	H1	1	0.15	1.0079
5672	HCMM	379	MPD2	H2	1	0.15	1.0079
5673	HCMM	379	MPD2	H3	1	0.15	1.0079
5674	NC=O	379	MPD2	N	1	-0.547	14.0067
5675	HNCO	379	MPD2	H5	1	0.37	1.0079
5676	NC=O	379	MPD2	N1	1	-0.547	14.0067
5677	HNCO	379	MPD2	H7	1	0.37	1.0079
5678	CB	380	TMC3	C1	1	0.0862	12.011
5679	CB	380	TMC3	C2	1	-0.15	12.011
5680	CB	380	TMC3	C3	1	0.0862	12.011
5681	CB	380	TMC3	C4	1	-0.15	12.011
5682	CB	380	TMC3	C5	1	0.0862	12.011
5683	CB	380	TMC3	C6	1	-0.15	12.011
5684	C=O	380	TMC3	C	1	0.5438	12.011
5685	O=C	380	TMC3	O	1	-0.57	15.9994
5686	HCMM	380	TMC3	H	1	0.15	1.0079
5687	HCMM	380	TMC3	H1	1	0.15	1.0079
5688	HCMM	380	TMC3	H2	1	0.15	1.0079
5689	C=O	380	TMC3	C7	1	0.5438	12.011
5690	C=O	380	TMC3	C8	1	0.5438	12.011
5691	O=C	380	TMC3	O1	1	-0.57	15.9994
5692	O=C	380	TMC3	O2	1	-0.57	15.9994
5693	CB	381	TMC3	C1	1	0.0862	12.011
5694	CB	381	TMC3	C2	1	-0.15	12.011
5695	CB	381	TMC3	C3	1	0.0862	12.011
5696	CB	381	TMC3	C4	1	-0.15	12.011
5697	CB	381	TMC3	C5	1	0.0862	12.011
5698	CB	381	TMC3	C6	1	-0.15	12.011
5699	C=O	381	TMC3	C	1	0.5438	12.011
5700	O=C	381	TMC3	O	1	-0.57	15.9994
5701	HCMM	381	TMC3	H	1	0.15	1.0079
5702	HCMM	381	TMC3	H1	1	0.15	1.0079
5703	HCMM	381	TMC3	H2	1	0.15	1.0079
5704	C=O	381	TMC3	C7	1	0.5438	12.011
5705	C=O	381	TMC3	C8	1	0.5438	12.011
5706	O=C	381	TMC3	O1	1	-0.57	15.9994
5707	O=C	381	TMC3	O2	1	-0.57	15.9994
5708	CB	382	MPD2	C	1	-0.15	12.011
5709	CB	382	MPD2	C1	1	0.117	12.011
5710	CB	382	MPD2	C2	1	-0.15	12.011
5711	CB	382	MPD2	C3	1	0.117	12.011
5712	CB	382	MPD2	C4	1	-0.15	12.011
5713	CB	382	MPD2	C5	1	-0.15	12.011
5714	HCMM	382	MPD2	H	1	0.15	1.0079
5715	HCMM	382	MPD2	H1	1	0.15	1.0079
5716	HCMM	382	MPD2	H2	1	0.15	1.0079
5717	HCMM	382	MPD2	H3	1	0.15	1.0079
5718	NC=O	382	MPD2	N	1	-0.547	14.0067
5719	HNCO	382	MPD2	H5	1	0.37	1.0079
5720	NC=O	382	MPD2	N1	1	-0.547	14.0067
5721	HNCO	382	MPD2	H7	1	0.37	1.0079
5722	CB	383	TMC3	C1	1	0.0862	12.011
5723	CB	383	TMC3	C2	1	-0.15	12.011
5724	CB	383	TMC3	C3	1	0.0862	12.011
5725	CB	383	TMC3	C4	1	-0.15	12.011
5726	CB	383	TMC3	C5	1	0.0862	12.011
5727	CB	383	TMC3	C6	1	-0.15	12.011
5728	C=O	383	TMC3	C	1	0.5438	12.011
5729	O=C	383	TMC3	O	1	-0.57	15.9994
5730	HCMM	383	TMC3	H	1	0.15	1.0079
5731	HCMM	383	TMC3	H1	1	0.15	1.0079
5732	HCMM	383	TMC3	H2	1	0.15	1.0079
5733	C=O	383	TMC3	C7	1	0.5438	12.011
5734	C=O	383	TMC3	C8	1	0.5438	12.011
5735	O=C	383	TMC3	O1	1	-0.57	15.9994
5736	O=C	383	TMC3	O2	1	-0.57	15.9994
5737	CB	384	MPD2	C	1	-0.15	12.011
5738	CB	384	MPD2	C1	1	0.117	12.011
5739	CB	384	MPD2	C2	1	-0.15	12.011
5740	CB	384	MPD2	C3	1	0.117	12.011
5741	CB	384	MPD2	C4	1	-0.15	12.011
5742	CB	384	MPD2	C5	1	-0.15	12.011
5743	HCMM	384	MPD2	H	1	0.15	1.0079
5744	HCMM	384	MPD2	H1	1	0.15	1.0079
5745	HCMM	384	MPD2	H2	1	0.15	1.0079
5746	HCMM	384	MPD2	H3	1	0.15	1.0079
5747	NC=O	384	MPD2	N	1	-0.547	14.0067
5748	HNCO	384	MPD2	H5	1	0.37	1.0079
5749	NC=O	384	MPD2	N1	1	-0.547	14.0067
5750	HNCO	384	MPD2	H7	1	0.37	1.0079
5751	CB	385	TMC3	C1	1	0.0862	12.011
5752	CB	385	TMC3	C2	1	-0.15	12.011
5753	CB	385	TMC3	C3	1	0.0862	12.011
5754	CB	385	TMC3	C4	1	-0.15	12.011
5755	CB	385	TMC3	C5	1	0.0862	12.011
5756	CB	385	TMC3	C6	1	-0.15	12.011
5757	C=O	385	TMC3	C	1	0.5438	12.011
5758	O=C	385	TMC3	O	1	-0.57	15.9994
5759	HCMM	385	TMC3	H	1	0.15	1.0079
5760	HCMM	385	TMC3	H1	1	0.15	1.0079
5761	HCMM	385	TMC3	H2	1	0.15	1.0079
5762	C=O	385	TMC3	C7	1	0.5438	12.011
5763	C=O	385	TMC3	C8	1	0.5438	12.011
5764	O=C	385	TMC3	O1	1	-0.57	15.9994
5765	O=C	385	TMC3	O2	1	-0.57	15.9994
5766	CB	386	TMC3	C1	1	0.0862	12.011
5767	CB	386	TMC3	C2	1	-0.15	12.011
5768	CB	386	TMC3	C3	1	0.0862	12.011
5769	CB	386	TMC3	C4	1	-0.15	12.011
5770	CB	386	TMC3	C5	1	0.0862	12.011
5771	CB	386	TMC3	C6	1	-0.15	12.011
5772	C=O	386	TMC3	C	1	0.5438	12.011
5773	O=C	386	TMC3	O	1	-0.57	15.9994
5774	HCMM	386	TMC3	H	1	0.15	1.0079
5775	HCMM	386	TMC3	H1	1	0.15	1.0079
5776	HCMM	386	TMC3	H2	1	0.15	1.0079
5777	C=O	386	TMC3	C7	1	0.5438	12.011
5778	C=O	386	TMC3	C8	1	0.5438	12.011
5779	O=C	386	TMC3	O1	1	-0.57	15.9994
5780	O=C	386	TMC3	O2	1	-0.57	15.9994
5781	CB	387	MPD2	C	1	-0.15	12.011
5782	CB	387	MPD2	C1	1	0.117	12.011
5783	CB	387	MPD2	C2	1	-0.15	12.011
5784	CB	387	MPD2	C3	1	0.117	12.011
5785	CB	387	MPD2	C4	1	-0.15	12.011
5786	CB	387	MPD2	C5	1	-0.15	12.011
5787	HCMM	387	MPD2	H	1	0.15	1.0079
5788	HCMM	387	MPD2	H1	1	0.15	1.0079
5789	HCMM	387	MPD2	H2	1	0.15	1.0079
5790	HCMM	387	MPD2	H3	1	0.15	1.0079
5791	NC=O	387	MPD2	N	1	-0.547	14.0067
5792	HNCO	387	MPD2	H5	1	0.37	1.0079
5793	NC=O	387	MPD2	N1	1	-0.547	14.0067
5794	HNCO	387	MPD2	H7	1	0.37	1.0079
5795	CB	388	TMC3	C1	1	0.0862	12.011
5796	CB	388	TMC3	C2	1	-0.15	12.011
5797	CB	388	TMC3	C3	1	0.0862	12.011
5798	CB	388	TMC3	C4	1	-0.15	12.011
5799	CB	388	TMC3	C5	1	0.0862	12.011
5800	CB	388	TMC3	C6	1	-0.15	12.011
5801	C=O	388	TMC3	C	1	0.5438	12.011
5802	O=C	388	TMC3	O	1	-0.57	15.9994
5803	HCMM	388	TMC3	H	1	0.15	1.0079
5804	HCMM	388	TMC3	H1	1	0.15	1.0079
5805	HCMM	388	TMC3	H2	1	0.15	1.0079
5806	C=O	388	TMC3	C7	1	0.5438	12.011
5807	C=O	388	TMC3	C8	1	0.5438	12.011
5808	O=C	388	TMC3	O1	1	-0.57	15.9994
5809	O=C	388	TMC3	O2	1	-0.57	15.9994
5810	CB	389	MPD2	C	1	-0.15	12.011
5811	CB	389	MPD2	C1	1	0.117	12.011
5812	CB	389	MPD2	C2	1	-0.15	12.011
5813	CB	389	MPD2	C3	1	0.117	12.011
5814	CB	389	MPD2	C4	1	-0.15	12.011
5815	CB	389	MPD2	C5	1	-0.15	12.011
5816	HCMM	389	MPD2	H	1	0.15	1.0079
5817	HCMM	389	MPD2	H1	1	0.15	1.0079
5818	HCMM	389	MPD2	H2	1	0.15	1.0079
5819	HCMM	389	MPD2	H3	1	0.15	1.0079
5820	NC=O	389	MPD2	N	1	-0.547	14.0067
5821	HNCO	389	MPD2	H5	1	0.37	1.0079
5822	NC=O	389	MPD2	N1	1	-0.547	14.0067
5823	HNCO	389	MPD2	H7	1	0.37	1.0079
5824	CB	390	TMC3	C1	1	0.0862	12.011
5825	CB	390	TMC3	C2	1	-0.15	12.011
5826	CB	390	TMC3	C3	1	0.0862	12.011
5827	CB	390	TMC3	C4	1	-0.15	12.011
5828	CB	390	TMC3	C5	1	0.0862	12.011
5829	CB	390	TMC3	C6	1	-0.15	12.011
5830	C=O	390	TMC3	C	1	0.5438	12.011
5831	O=C	390	TMC3	O	1	-0.57	15.9994
5832	HCMM	390	TMC3	H	1	0.15	1.0079
5833	HCMM	390	TMC3	H1	1	0.15	1.0079
5834	HCMM	390	TMC3	H2	1	0.15	1.0079
5835	C=O	390	TMC3	C7	1	0.5438	12.011
5836	C=O	390	TMC3	C8	1	0.5438	12.011
5837	O=C	390	TMC3	O1	1	-0.57	15.9994
5838	O=C	390	TMC3	O2	1	-0.57	15.9994
5839	CB	391	MPD2	C	1	-0.15	12.011
5840	CB	391	MPD2	C1	1	0.117	12.011
5841	CB	391	MPD2	C2	1	-0.15	12.011
5842	CB	391	MPD2	C3	1	0.117	12.011
5843	CB	391	MPD2	C4	1	-0.15	12.011
5844	CB	391	MPD2	C5	1	-0.15	12.011
5845	HCMM	391	MPD2	H	1	0.15	1.0079
5846	HCMM	391	MPD2	H1	1	0.15	1.0079
5847	HCMM	391	MPD2	H2	1	0.15	1.0079
5848	HCMM	391	MPD2	H3	1	0.15	1.0079
5849	NC=O	391	MPD2	N	1	-0.547	14.0067
5850	HNCO	391	MPD2	H5	1	0.37	1.0079
5851	NC=O	391	MPD2	N1	1	-0.547	14.0067
5852	HNCO	391	MPD2	H7	1	0.37	1.0079
5853	CB	392	TMC3	C1	1	0.0862	12.011
5854	CB	392	TMC3	C2	1	-0.15	12.011
5855	CB	392	TMC3	C3	1	0.0862	12.011
5856	CB	392	TMC3	C4	1	-0.15	12.011
5857	CB	392	TMC3	C5	1	0.0862	12.011
5858	CB	392	TMC3	C6	1	-0.15	12.011
5859	C=O	392	TMC3	C	1	0.5438	12.011
5860	O=C	392	TMC3	O	1	-0.57	15.9994
5861	HCMM	392	TMC3	H	1	0.15	1.0079
5862	HCMM	392	TMC3	H1	1	0.15	1.0079
5863	HCMM	392	TMC3	H2	1	0.15	1.0079
5864	C=O	392	TMC3	C7	1	0.5438	12.011
5865	C=O	392	TMC3	C8	1	0.5438	12.011
5866	O=C	392	TMC3	O1	1	-0.57	15.9994
5867	O=C	392	TMC3	O2	1	-0.57	15.9994
5868	CB	393	TMC3	C1	1	0.0862	12.011
5869	CB	393	TMC3	C2	1	-0.15	12.011
5870	CB	393	TMC3	C3	1	0.0862	12.011
5871	CB	393	TMC3	C4	1	-0.15	12.011
5872	CB	393	TMC3	C5	1	0.0862	12.011
5873	CB	393	TMC3	C6	1	-0.15	12.011
5874	C=O	393	TMC3	C	1	0.5438	12.011
5875	O=C	393	TMC3	O	1	-0.57	15.9994
5876	HCMM	393	TMC3	H	1	0.15	1.0079
5877	HCMM	393	TMC3	H1	1	0.15	1.0079
5878	HCMM	393	TMC3	H2	1	0.15	1.0079
5879	C=O	393	TMC3	C7	1	0.5438	12.011
5880	C=O	393	TMC3	C8	1	0.5438	12.011
5881	O=C	393	TMC3	O1	1	-0.57	15.9994
5882	O=C	393	TMC3	O2	1	-0.57	15.9994
5883	CB	394	TMC3	C1	1	0.0862	12.011
5884	CB	394	TMC3	C2	1	-0.15	12.011
5885	CB	394	TMC3	C3	1	0.0862	12.011
5886	CB	394	TMC3	C4	1	-0.15	12.011
5887	CB	394	TMC3	C5	1	0.0862	12.011
5888	CB	394	TMC3	C6	1	-0.15	12.011
5889	C=O	394	TMC3	C	1	0.5438	12.011
5890	O=C	394	TMC3	O	1	-0.57	15.9994
5891	HCMM	394	TMC3	H	1	0.15	1.0079
5892	HCMM	394	TMC3	H1	1	0.15	1.0079
5893	HCMM	394	TMC3	H2	1	0.15	1.0079
5894	C=O	394	TMC3	C7	1	0.5438	12.011
5895	C=O	394	TMC3	C8	1	0.5438	12.011
5896	O=C	394	TMC3	O1	1	-0.57	15.9994
5897	O=C	394	TMC3	O2	1	-0.57	15.9994
5898	CB	395	TMC3	C1	1	0.0862	12.011
5899	CB	395	TMC3	C2	1	-0.15	12.011
5900	CB	395	TMC3	C3	1	0.0862	12.011
5901	CB	395	TMC3	C4	1	-0.15	12.011
5902	CB	395	TMC3	C5	1	0.0862	12.011
5903	CB	395	TMC3	C6	1	-0.15	12.011
5904	C=O	395	TMC3	C	1	0.5438	12.011
5905	O=C	395	TMC3	O	1	-0.57	15.9994
5906	HCMM	395	TMC3	H	1	0.15	1.0079
5907	HCMM	395	TMC3	H1	1	0.15	1.0079
5908	HCMM	395	TMC3	H2	1	0.15	1.0079
5909	C=O	395	TMC3	C7	1	0.5438	12.011
5910	C=O	395	TMC3	C8	1	0.5438	12.011
5911	O=C	395	TMC3	O1	1	-0.57	15.9994
5912	O=C	395	TMC3	O2	1	-0.57	15.9994
5913	CB	396	MPD2	C	1	-0.15	12.011
5914	CB	396	MPD2	C1	1	0.117	12.011
5915	CB	396	MPD2	C2	1	-0.15	12.011
5916	CB	396	MPD2	C3	1	0.117	12.011
5917	CB	396	MPD2	C4	1	-0.15	12.011
5918	CB	396	MPD2	C5	1	-0.15	12.011
5919	HCMM	396	MPD2	H	1	0.15	1.0079
5920	HCMM	396	MPD2	H1	1	0.15	1.0079
5921	HCMM	396	MPD2	H2	1	0.15	1.0079
5922	HCMM	396	MPD2	H3	1	0.15	1.0079
5923	NC=O	396	MPD2	N	1	-0.547	14.0067
5924	HNCO	396	MPD2	H5	1	0.37	1.0079
5925	NC=O	396	MPD2	N1	1	-0.547	14.0067
5926	HNCO	396	MPD2	H7	1	0.37	1.0079
5927	CB	397	TMC3	C1	1	0.0862	12.011
5928	CB	397	TMC3	C2	1	-0.15	12.011
5929	CB	397	TMC3	C3	1	0.0862	12.011
5930	CB	397	TMC3	C4	1	-0.15	12.011
5931	CB	397	TMC3	C5	1	0.0862	12.011
5932	CB	397	TMC3	C6	1	-0.15	12.011
5933	C=O	397	TMC3	C	1	0.5438	12.011
5934	O=C	397	TMC3	O	1	-0.57	15.9994
5935	HCMM	397	TMC3	H	1	0.15	1.0079
5936	HCMM	397	TMC3	H1	1	0.15	1.0079
5937	HCMM	397	TMC3	H2	1	0.15	1.0079
5938	C=O	397	TMC3	C7	1	0.5438	12.011
5939	C=O	397	TMC3	C8	1	0.5438	12.011
5940	O=C	397	TMC3	O1	1	-0.57	15.9994
5941	O=C	397	TMC3	O2	1	-0.57	15.9994
5942	CB	398	MPD2	C	1	-0.15	12.011
5943	CB	398	MPD2	C1	1	0.117	12.011
5944	CB	398	MPD2	C2	1	-0.15	12.011
5945	CB	398	MPD2	C3	1	0.117	12.011
5946	CB	398	MPD2	C4	1	-0.15	12.011
5947	CB	398	MPD2	C5	1	-0.15	12.011
5948	HCMM	398	MPD2	H	1	0.15	1.0079
5949	HCMM	398	MPD2	H1	1	0.15	1.0079
5950	HCMM	398	MPD2	H2	1	0.15	1.0079
5951	HCMM	398	MPD2	H3	1	0.15	1.0079
5952	NC=O	398	MPD2	N	1	-0.547	14.0067
5953	HNCO	398	MPD2	H5	1	0.37	1.0079
5954	NC=O	398	MPD2	N1	1	-0.547	14.0067
5955	HNCO	398	MPD2	H7	1	0.37	1.0079
5956	CB	399	TMC3	C1	1	0.0862	12.011
5957	CB	399	TMC3	C2	1	-0.15	12.011
5958	CB	399	TMC3	C3	1	0.0862	12.011
5959	CB	399	TMC3	C4	1	-0.15	12.011
5960	CB	399	TMC3	C5	1	0.0862	12.011
5961	CB	399	TMC3	C6	1	-0.15	12.011
5962	C=O	399	TMC3	C	1	0.5438	12.011
5963	O=C	399	TMC3	O	1	-0.57	15.9994
5964	HCMM	399	TMC3	H	1	0.15	1.0079
5965	HCMM	399	TMC3	H1	1	0.15	1.0079
5966	HCMM	399	TMC3	H2	1	0.15	1.0079
5967	C=O	399	TMC3	C7	1	0.5438	12.011
5968	C=O	399	TMC3	C8	1	0.5438	12.011
5969	O=C	399	TMC3	O1	1	-0.57	15.9994
5970	O=C	399	TMC3	O2	1	-0.57	15.9994
5971	CB	400	TMC3	C1	1	0.0862	12.011
5972	CB	400	TMC3	C2	1	-0.15	12.011
5973	CB	400	TMC3	C3	1	0.0862	12.011
5974	CB	400	TMC3	C4	1	-0.15	12.011
5975	CB	400	TMC3	C5	1	0.0862	12.011
5976	CB	400	TMC3	C6	1	-0.15	12.011
5977	C=O	400	TMC3	C	1	0.5438	12.011
5978	O=C	400	TMC3	O	1	-0.57	15.9994
5979	HCMM	400	TMC3	H	1	0.15	1.0079
5980	HCMM	400	TMC3	H1	1	0.15	1.0079
5981	HCMM	400	TMC3	H2	1	0.15	1.0079
5982	C=O	400	TMC3	C7	1	0.5438	12.011
5983	C=O	400	TMC3	C8	1	0.5438	12.011
5984	O=C	400	TMC3	O1	1	-0.57	15.9994
5985	O=C	400	TMC3	O2	1	-0.57	15.9994
5986	CB	401	MPD2	C	1	-0.15	12.011
5987	CB	401	MPD2	C1	1	0.117	12.011
5988	CB	401	MPD2	C2	1	-0.15	12.011
5989	CB	401	MPD2	C3	1	0.117	12.011
5990	CB	401	MPD2	C4	1	-0.15	12.011
5991	CB	401	MPD2	C5	1	-0.15	12.011
5992	HCMM	401	MPD2	H	1	0.15	1.0079
5993	HCMM	401	MPD2	H1	1	0.15	1.0079
5994	HCMM	401	MPD2	H2	1	0.15	1.0079
5995	HCMM	401	MPD2	H3	1	0.15	1.0079
5996	NC=O	401	MPD2	N	1	-0.547	14.0067
5997	HNCO	401	MPD2	H5	1	0.37	1.0079
5998	NC=O	401	MPD2	N1	1	-0.547	14.0067
5999	HNCO	401	MPD2	H7	1	0.37	1.0079
6000	CB	402	TMC3	C1	1	0.0862	12.011
6001	CB	402	TMC3	C2	1	-0.15	12.011
6002	CB	402	TMC3	C3	1	0.0862	12.011
6003	CB	402	TMC3	C4	1	-0.15	12.011
6004	CB	402	TMC3	C5	1	0.0862	12.011
6005	CB	402	TMC3	C6	1	-0.15	12.011
6006	C=O	402	TMC3	C	1	0.5438	12.011
6007	O=C	402	TMC3	O	1	-0.57	15.9994
6008	HCMM	402	TMC3	H	1	0.15	1.0079
6009	HCMM	402	TMC3	H1	1	0.15	1.0079
6010	HCMM	402	TMC3	H2	1	0.15	1.0079
6011	C=O	402	TMC3	C7	1	0.5438	12.011
6012	C=O	402	TMC3	C8	1	0.5438	12.011
6013	O=C	402	TMC3	O1	1	-0.57	15.9994
6014	O=C	402	TMC3	O2	1	-0.57	15.9994
6015	CB	403	MPD2	C	1	-0.15	12.011
6016	CB	403	MPD2	C1	1	0.117	12.011
6017	CB	403	MPD2	C2	1	-0.15	12.011
6018	CB	403	MPD2	C3	1	0.117	12.011
6019	CB	403	MPD2	C4	1	-0.15	12.011
6020	CB	403	MPD2	C5	1	-0.15	12.011
6021	HCMM	403	MPD2	H	1	0.15	1.0079
6022	HCMM	403	MPD2	H1	1	0.15	1.0079
6023	HCMM	403	MPD2	H2	1	0.15	1.0079
6024	HCMM	403	MPD2	H3	1	0.15	1.0079
6025	NC=O	403	MPD2	N	1	-0.547	14.0067
6026	HNCO	403	MPD2	H5	1	0.37	1.0079
6027	NC=O	403	MPD2	N1	1	-0.547	14.0067
6028	HNCO	403	MPD2	H7	1	0.37	1.0079
6029	CB	404	TMC3	C1	1	0.0862	12.011
6030	CB	404	TMC3	C2	1	-0.15	12.011
6031	CB	404	TMC3	C3	1	0.0862	12.011
6032	CB	404	TMC3	C4	1	-0.15	12.011
6033	CB	404	TMC3	C5	1	0.0862	12.011
6034	CB	404	TMC3	C6	1	-0.15	12.011
6035	C=O	404	TMC3	C	1	0.5438	12.011
6036	O=C	404	TMC3	O	1	-0.57	15.9994
6037	HCMM	404	TMC3	H	1	0.15	1.0079
6038	HCMM	404	TMC3	H1	1	0.15	1.0079
6039	HCMM	404	TMC3	H2	1	0.15	1.0079
6040	C=O	404	TMC3	C7	1	0.5438	12.011
6041	C=O	404	TMC3	C8	1	0.5438	12.011
6042	O=C	404	TMC3	O1	1	-0.57	15.9994
6043	O=C	404	TMC3	O2	1	-0.57	15.9994
6044	CB	405	MPD2	C	1	-0.15	12.011
6045	CB	405	MPD2	C1	1	0.117	12.011
6046	CB	405	MPD2	C2	1	-0.15	12.011
6047	CB	405	MPD2	C3	1	0.117	12.011
6048	CB	405	MPD2	C4	1	-0.15	12.011
6049	CB	405	MPD2	C5	1	-0.15	12.011
6050	HCMM	405	MPD2	H	1	0.15	1.0079
6051	HCMM	405	MPD2	H1	1	0.15	1.0079
6052	HCMM	405	MPD2	H2	1	0.15	1.0079
6053	HCMM	405	MPD2	H3	1	0.15	1.0079
6054	NC=O	405	MPD2	N	1	-0.547	14.0067
6055	HNCO	405	MPD2	H5	1	0.37	1.0079
6056	NC=O	405	MPD2	N1	1	-0.547	14.0067
6057	HNCO	405	MPD2	H7	1	0.37	1.0079
6058	CB	406	TMC3	C1	1	0.0862	12.011
6059	CB	406	TMC3	C2	1	-0.15	12.011
6060	CB	406	TMC3	C3	1	0.0862	12.011
6061	CB	406	TMC3	C4	1	-0.15	12.011
6062	CB	406	TMC3	C5	1	0.0862	12.011
6063	CB	406	TMC3	C6	1	-0.15	12.011
6064	C=O	406	TMC3	C	1	0.5438	12.011
6065	O=C	406	TMC3	O	1	-0.57	15.9994
6066	HCMM	406	TMC3	H	1	0.15	1.0079
6067	HCMM	406	TMC3	H1	1	0.15	1.0079
6068	HCMM	406	TMC3	H2	1	0.15	1.0079
6069	C=O	406	TMC3	C7	1	0.5438	12.011
6070	C=O	406	TMC3	C8	1	0.5438	12.011
6071	O=C	406	TMC3	O1	1	-0.57	15.9994
6072	O=C	406	TMC3	O2	1	-0.57	15.9994
6073	CB	407	MPD2	C	1	-0.15	12.011
6074	CB	407	MPD2	C1	1	0.117	12.011
6075	CB	407	MPD2	C2	1	-0.15	12.011
6076	CB	407	MPD2	C3	1	0.117	12.011
6077	CB	407	MPD2	C4	1	-0.15	12.011
6078	CB	407	MPD2	C5	1	-0.15	12.011
6079	HCMM	407	MPD2	H	1	0.15	1.0079
6080	HCMM	407	MPD2	H1	1	0.15	1.0079
6081	HCMM	407	MPD2	H2	1	0.15	1.0079
6082	HCMM	407	MPD2	H3	1	0.15	1.0079
6083	NC=O	407	MPD2	N	1	-0.547	14.0067
6084	HNCO	407	MPD2	H5	1	0.37	1.0079
6085	NC=O	407	MPD2	N1	1	-0.547	14.0067
6086	HNCO	407	MPD2	H7	1	0.37	1.0079
6087	CB	408	TMC3	C1	1	0.0862	12.011
6088	CB	408	TMC3	C2	1	-0.15	12.011
6089	CB	408	TMC3	C3	1	0.0862	12.011
6090	CB	408	TMC3	C4	1	-0.15	12.011
6091	CB	408	TMC3	C5	1	0.0862	12.011
6092	CB	408	TMC3	C6	1	-0.15	12.011
6093	C=O	408	TMC3	C	1	0.5438	12.011
6094	O=C	408	TMC3	O	1	-0.57	15.9994
6095	HCMM	408	TMC3	H	1	0.15	1.0079
6096	HCMM	408	TMC3	H1	1	0.15	1.0079
6097	HCMM	408	TMC3	H2	1	0.15	1.0079
6098	C=O	408	TMC3	C7	1	0.5438	12.011
6099	C=O	408	TMC3	C8	1	0.5438	12.011
6100	O=C	408	TMC3	O1	1	-0.57	15.9994
6101	O=C	408	TMC3	O2	1	-0.57	15.9994
6102	CB	409	MPD2	C	1	-0.15	12.011
6103	CB	409	MPD2	C1	1	0.117	12.011
6104	CB	409	MPD2	C2	1	-0.15	12.011
6105	CB	409	MPD2	C3	1	0.117	12.011
6106	CB	409	MPD2	C4	1	-0.15	12.011
6107	CB	409	MPD2	C5	1	-0.15	12.011
6108	HCMM	409	MPD2	H	1	0.15	1.0079
6109	HCMM	409	MPD2	H1	1	0.15	1.0079
6110	HCMM	409	MPD2	H2	1	0.15	1.0079
6111	HCMM	409	MPD2	H3	1	0.15	1.0079
6112	NC=O	409	MPD2	N	1	-0.547	14.0067
6113	HNCO	409	MPD2	H5	1	0.37	1.0079
6114	NC=O	409	MPD2	N1	1	-0.547	14.0067
6115	HNCO	409	MPD2	H7	1	0.37	1.0079
6116	CB	410	TMC3	C1	1	0.0862	12.011
6117	CB	410	TMC3	C2	1	-0.15	12.011
6118	CB	410	TMC3	C3	1	0.0862	12.011
6119	CB	410	TMC3	C4	1	-0.15	12.011
6120	CB	410	TMC3	C5	1	0.0862	12.011
6121	CB	410	TMC3	C6	1	-0.15	12.011
6122	C=O	410	TMC3	C	1	0.5438	12.011
6123	O=C	410	TMC3	O	1	-0.57	15.9994
6124	HCMM	410	TMC3	H	1	0.15	1.0079
6125	HCMM	410	TMC3	H1	1	0.15	1.0079
6126	HCMM	410	TMC3	H2	1	0.15	1.0079
6127	C=O	410	TMC3	C7	1	0.5438	12.011
6128	C=O	410	TMC3	C8	1	0.5438	12.011
6129	O=C	410	TMC3	O1	1	-0.57	15.9994
6130	O=C	410	TMC3	O2	1	-0.57	15.9994
6131	CB	411	MPD2	C	1	-0.15	12.011
6132	CB	411	MPD2	C1	1	0.117	12.011
6133	CB	411	MPD2	C2	1	-0.15	12.011
6134	CB	411	MPD2	C3	1	0.117	12.011
6135	CB	411	MPD2	C4	1	-0.15	12.011
6136	CB	411	MPD2	C5	1	-0.15	12.011
6137	HCMM	411	MPD2	H	1	0.15	1.0079
6138	HCMM	411	MPD2	H1	1	0.15	1.0079
6139	HCMM	411	MPD2	H2	1	0.15	1.0079
6140	HCMM	411	MPD2	H3	1	0.15	1.0079
6141	NC=O	411	MPD2	N	1	-0.547	14.0067
6142	HNCO	411	MPD2	H5	1	0.37	1.0079
6143	NC=O	411	MPD2	N1	1	-0.547	14.0067
6144	HNCO	411	MPD2	H7	1	0.37	1.0079
6145	CB	412	TMC3	C1	1	0.0862	12.011
6146	CB	412	TMC3	C2	1	-0.15	12.011
6147	CB	412	TMC3	C3	1	0.0862	12.011
6148	CB	412	TMC3	C4	1	-0.15	12.011
6149	CB	412	TMC3	C5	1	0.0862	12.011
6150	CB	412	TMC3	C6	1	-0.15	12.011
6151	C=O	412	TMC3	C	1	0.5438	12.011
6152	O=C	412	TMC3	O	1	-0.57	15.9994
6153	HCMM	412	TMC3	H	1	0.15	1.0079
6154	HCMM	412	TMC3	H1	1	0.15	1.0079
6155	HCMM	412	TMC3	H2	1	0.15	1.0079
6156	C=O	412	TMC3	C7	1	0.5438	12.011
6157	C=O	412	TMC3	C8	1	0.5438	12.011
6158	O=C	412	TMC3	O1	1	-0.57	15.9994
6159	O=C	412	TMC3	O2	1	-0.57	15.9994
6160	CB	413	MPD2	C	1	-0.15	12.011
6161	CB	413	MPD2	C1	1	0.117	12.011
6162	CB	413	MPD2	C2	1	-0.15	12.011
6163	CB	413	MPD2	C3	1	0.117	12.011
6164	CB	413	MPD2	C4	1	-0.15	12.011
6165	CB	413	MPD2	C5	1	-0.15	12.011
6166	HCMM	413	MPD2	H	1	0.15	1.0079
6167	HCMM	413	MPD2	H1	1	0.15	1.0079
6168	HCMM	413	MPD2	H2	1	0.15	1.0079
6169	HCMM	413	MPD2	H3	1	0.15	1.0079
6170	NC=O	413	MPD2	N	1	-0.547	14.0067
6171	HNCO	413	MPD2	H5	1	0.37	1.0079
6172	NC=O	413	MPD2	N1	1	-0.547	14.0067
6173	HNCO	413	MPD2	H7	1	0.37	1.0079
6174	CB	414	TMC3	C1	1	0.0862	12.011
6175	CB	414	TMC3	C2	1	-0.15	12.011
6176	CB	414	TMC3	C3	1	0.0862	12.011
6177	CB	414	TMC3	C4	1	-0.15	12.011
6178	CB	414	TMC3	C5	1	0.0862	12.011
6179	CB	414	TMC3	C6	1	-0.15	12.011
6180	C=O	414	TMC3	C	1	0.5438	12.011
6181	O=C	414	TMC3	O	1	-0.57	15.9994
6182	HCMM	414	TMC3	H	1	0.15	1.0079
6183	HCMM	414	TMC3	H1	1	0.15	1.0079
6184	HCMM	414	TMC3	H2	1	0.15	1.0079
6185	C=O	414	TMC3	C7	1	0.5438	12.011
6186	C=O	414	TMC3	C8	1	0.5438	12.011
6187	O=C	414	TMC3	O1	1	-0.57	15.9994
6188	O=C	414	TMC3	O2	1	-0.57	15.9994
6189	CB	415	TMC3	C1	1	0.0862	12.011
6190	CB	415	TMC3	C2	1	-0.15	12.011
6191	CB	415	TMC3	C3	1	0.0862	12.011
6192	CB	415	TMC3	C4	1	-0.15	12.011
6193	CB	415	TMC3	C5	1	0.0862	12.011
6194	CB	415	TMC3	C6	1	-0.15	12.011
6195	C=O	415	TMC3	C	1	0.5438	12.011
6196	O=C	415	TMC3	O	1	-0.57	15.9994
6197	HCMM	415	TMC3	H	1	0.15	1.0079
6198	HCMM	415	TMC3	H1	1	0.15	1.0079
6199	HCMM	415	TMC3	H2	1	0.15	1.0079
6200	C=O	415	TMC3	C7	1	0.5438	12.011
6201	C=O	415	TMC3	C8	1	0.5438	12.011
6202	O=C	415	TMC3	O1	1	-0.57	15.9994
6203	O=C	415	TMC3	O2	1	-0.57	15.9994
6204	CB	416	MPD2	C	1	-0.15	12.011
6205	CB	416	MPD2	C1	1	0.117	12.011
6206	CB	416	MPD2	C2	1	-0.15	12.011
6207	CB	416	MPD2	C3	1	0.117	12.011
6208	CB	416	MPD2	C4	1	-0.15	12.011
6209	CB	416	MPD2	C5	1	-0.15	12.011
6210	HCMM	416	MPD2	H	1	0.15	1.0079
6211	HCMM	416	MPD2	H1	1	0.15	1.0079
6212	HCMM	416	MPD2	H2	1	0.15	1.0079
6213	HCMM	416	MPD2	H3	1	0.15	1.0079
6214	NC=O	416	MPD2	N	1	-0.547	14.0067
6215	HNCO	416	MPD2	H5	1	0.37	1.0079
6216	NC=O	416	MPD2	N1	1	-0.547	14.0067
6217	HNCO	416	MPD2	H7	1	0.37	1.0079
6218	CB	417	TMC3	C1	1	0.0862	12.011
6219	CB	417	TMC3	C2	1	-0.15	12.011
6220	CB	417	TMC3	C3	1	0.0862	12.011
6221	CB	417	TMC3	C4	1	-0.15	12.011
6222	CB	417	TMC3	C5	1	0.0862	12.011
6223	CB	417	TMC3	C6	1	-0.15	12.011
6224	C=O	417	TMC3	C	1	0.5438	12.011
6225	O=C	417	TMC3	O	1	-0.57	15.9994
6226	HCMM	417	TMC3	H	1	0.15	1.0079
6227	HCMM	417	TMC3	H1	1	0.15	1.0079
6228	HCMM	417	TMC3	H2	1	0.15	1.0079
6229	C=O	417	TMC3	C7	1	0.5438	12.011
6230	C=O	417	TMC3	C8	1	0.5438	12.011
6231	O=C	417	TMC3	O1	1	-0.57	15.9994
6232	O=C	417	TMC3	O2	1	-0.57	15.9994
6233	CB	418	TMC3	C1	1	0.0862	12.011
6234	CB	418	TMC3	C2	1	-0.15	12.011
6235	CB	418	TMC3	C3	1	0.0862	12.011
6236	CB	418	TMC3	C4	1	-0.15	12.011
6237	CB	418	TMC3	C5	1	0.0862	12.011
6238	CB	418	TMC3	C6	1	-0.15	12.011
6239	C=O	418	TMC3	C	1	0.5438	12.011
6240	O=C	418	TMC3	O	1	-0.57	15.9994
6241	HCMM	418	TMC3	H	1	0.15	1.0079
6242	HCMM	418	TMC3	H1	1	0.15	1.0079
6243	HCMM	418	TMC3	H2	1	0.15	1.0079
6244	C=O	418	TMC3	C7	1	0.5438	12.011
6245	C=O	418	TMC3	C8	1	0.5438	12.011
6246	O=C	418	TMC3	O1	1	-0.57	15.9994
6247	O=C	418	TMC3	O2	1	-0.57	15.9994
6248	CB	419	MPD2	C	1	-0.15	12.011
6249	CB	419	MPD2	C1	1	0.117	12.011
6250	CB	419	MPD2	C2	1	-0.15	12.011
6251	CB	419	MPD2	C3	1	0.117	12.011
6252	CB	419	MPD2	C4	1	-0.15	12.011
6253	CB	419	MPD2	C5	1	-0.15	12.011
6254	HCMM	419	MPD2	H	1	0.15	1.0079
6255	HCMM	419	MPD2	H1	1	0.15	1.0079
6256	HCMM	419	MPD2	H2	1	0.15	1.0079
6257	HCMM	419	MPD2	H3	1	0.15	1.0079
6258	NC=O	419	MPD2	N	1	-0.547	14.0067
6259	HNCO	419	MPD2	H5	1	0.37	1.0079
6260	NC=O	419	MPD2	N1	1	-0.547	14.0067
6261	HNCO	419	MPD2	H7	1	0.37	1.0079
6262	CB	420	TMC3	C1	1	0.0862	12.011
6263	CB	420	TMC3	C2	1	-0.15	12.011
6264	CB	420	TMC3	C3	1	0.0862	12.011
6265	CB	420	TMC3	C4	1	-0.15	12.011
6266	CB	420	TMC3	C5	1	0.0862	12.011
6267	CB	420	TMC3	C6	1	-0.15	12.011
6268	C=O	420	TMC3	C	1	0.5438	12.011
6269	O=C	420	TMC3	O	1	-0.57	15.9994
6270	HCMM	420	TMC3	H	1	0.15	1.0079
6271	HCMM	420	TMC3	H1	1	0.15	1.0079
6272	HCMM	420	TMC3	H2	1	0.15	1.0079
6273	C=O	420	TMC3	C7	1	0.5438	12.011
6274	C=O	420	TMC3	C8	1	0.5438	12.011
6275	O=C	420	TMC3	O1	1	-0.57	15.9994
6276	O=C	420	TMC3	O2	1	-0.57	15.9994
6277	CB	421	TMC3	C1	1	0.0862	12.011
6278	CB	421	TMC3	C2	1	-0.15	12.011
6279	CB	421	TMC3	C3	1	0.0862	12.011
6280	CB	421	TMC3	C4	1	-0.15	12.011
6281	CB	421	TMC3	C5	1	0.0862	12.011
6282	CB	421	TMC3	C6	1	-0.15	12.011
6283	C=O	421	TMC3	C	1	0.5438	12.011
6284	O=C	421	TMC3	O	1	-0.57	15.9994
6285	HCMM	421	TMC3	H	1	0.15	1.0079
6286	HCMM	421	TMC3	H1	1	0.15	1.0079
6287	HCMM	421	TMC3	H2	1	0.15	1.0079
6288	C=O	421	TMC3	C7	1	0.5438	12.011
6289	C=O	421	TMC3	C8	1	0.5438	12.011
6290	O=C	421	TMC3	O1	1	-0.57	15.9994
6291	O=C	421	TMC3	O2	1	-0.57	15.9994
6292	CB	422	TMC3	C1	1	0.0862	12.011
6293	CB	422	TMC3	C2	1	-0.15	12.011
6294	CB	422	TMC3	C3	1	0.0862	12.011
6295	CB	422	TMC3	C4	1	-0.15	12.011
6296	CB	422	TMC3	C5	1	0.0862	12.011
6297	CB	422	TMC3	C6	1	-0.15	12.011
6298	C=O	422	TMC3	C	1	0.5438	12.011
6299	O=C	422	TMC3	O	1	-0.57	15.9994
6300	HCMM	422	TMC3	H	1	0.15	1.0079
6301	HCMM	422	TMC3	H1	1	0.15	1.0079
6302	HCMM	422	TMC3	H2	1	0.15	1.0079
6303	C=O	422	TMC3	C7	1	0.5438	12.011
6304	C=O	422	TMC3	C8	1	0.5438	12.011
6305	O=C	422	TMC3	O1	1	-0.57	15.9994
6306	O=C	422	TMC3	O2	1	-0.57	15.9994
6307	CB	423	MPD2	C	1	-0.15	12.011
6308	CB	423	MPD2	C1	1	0.117	12.011
6309	CB	423	MPD2	C2	1	-0.15	12.011
6310	CB	423	MPD2	C3	1	0.117	12.011
6311	CB	423	MPD2	C4	1	-0.15	12.011
6312	CB	423	MPD2	C5	1	-0.15	12.011
6313	HCMM	423	MPD2	H	1	0.15	1.0079
6314	HCMM	423	MPD2	H1	1	0.15	1.0079
6315	HCMM	423	MPD2	H2	1	0.15	1.0079
6316	HCMM	423	MPD2	H3	1	0.15	1.0079
6317	NC=O	423	MPD2	N	1	-0.547	14.0067
6318	HNCO	423	MPD2	H5	1	0.37	1.0079
6319	NC=O	423	MPD2	N1	1	-0.547	14.0067
6320	HNCO	423	MPD2	H7	1	0.37	1.0079
6321	CB	424	TMC3	C1	1	0.0862	12.011
6322	CB	424	TMC3	C2	1	-0.15	12.011
6323	CB	424	TMC3	C3	1	0.0862	12.011
6324	CB	424	TMC3	C4	1	-0.15	12.011
6325	CB	424	TMC3	C5	1	0.0862	12.011
6326	CB	424	TMC3	C6	1	-0.15	12.011
6327	C=O	424	TMC3	C	1	0.5438	12.011
6328	O=C	424	TMC3	O	1	-0.57	15.9994
6329	HCMM	424	TMC3	H	1	0.15	1.0079
6330	HCMM	424	TMC3	H1	1	0.15	1.0079
6331	HCMM	424	TMC3	H2	1	0.15	1.0079
6332	C=O	424	TMC3	C7	1	0.5438	12.011
6333	C=O	424	TMC3	C8	1	0.5438	12.011
6334	O=C	424	TMC3	O1	1	-0.57	15.9994
6335	O=C	424	TMC3	O2	1	-0.57	15.9994
6336	CB	425	MPD2	C	1	-0.15	12.011
6337	CB	425	MPD2	C1	1	0.117	12.011
6338	CB	425	MPD2	C2	1	-0.15	12.011
6339	CB	425	MPD2	C3	1	0.117	12.011
6340	CB	425	MPD2	C4	1	-0.15	12.011
6341	CB	425	MPD2	C5	1	-0.15	12.011
6342	HCMM	425	MPD2	H	1	0.15	1.0079
6343	HCMM	425	MPD2	H1	1	0.15	1.0079
6344	HCMM	425	MPD2	H2	1	0.15	1.0079
6345	HCMM	425	MPD2	H3	1	0.15	1.0079
6346	NC=O	425	MPD2	N	1	-0.547	14.0067
6347	HNCO	425	MPD2	H5	1	0.37	1.0079
6348	NC=O	425	MPD2	N1	1	-0.547	14.0067
6349	HNCO	425	MPD2	H7	1	0.37	1.0079
6350	CB	426	TMC3	C1	1	0.0862	12.011
6351	CB	426	TMC3	C2	1	-0.15	12.011
6352	CB	426	TMC3	C3	1	0.0862	12.011
6353	CB	426	TMC3	C4	1	-0.15	12.011
6354	CB	426	TMC3	C5	1	0.0862	12.011
6355	CB	426	TMC3	C6	1	-0.15	12.011
6356	C=O	426	TMC3	C	1	0.5438	12.011
6357	O=C	426	TMC3	O	1	-0.57	15.9994
6358	HCMM	426	TMC3	H	1	0.15	1.0079
6359	HCMM	426	TMC3	H1	1	0.15	1.0079
6360	HCMM	426	TMC3	H2	1	0.15	1.0079
6361	C=O	426	TMC3	C7	1	0.5438	12.011
6362	C=O	426	TMC3	C8	1	0.5438	12.011
6363	O=C	426	TMC3	O1	1	-0.57	15.9994
6364	O=C	426	TMC3	O2	1	-0.57	15.9994
6365	CB	427	MPD2	C	1	-0.15	12.011
6366	CB	427	MPD2	C1	1	0.117	12.011
6367	CB	427	MPD2	C2	1	-0.15	12.011
6368	CB	427	MPD2	C3	1	0.117	12.011
6369	CB	427	MPD2	C4	1	-0.15	12.011
6370	CB	427	MPD2	C5	1	-0.15	12.011
6371	HCMM	427	MPD2	H	1	0.15	1.0079
6372	HCMM	427	MPD2	H1	1	0.15	1.0079
6373	HCMM	427	MPD2	H2	1	0.15	1.0079
6374	HCMM	427	MPD2	H3	1	0.15	1.0079
6375	NC=O	427	MPD2	N	1	-0.547	14.0067
6376	HNCO	427	MPD2	H5	1	0.37	1.0079
6377	NC=O	427	MPD2	N1	1	-0.547	14.0067
6378	HNCO	427	MPD2	H7	1	0.37	1.0079
6379	CB	428	TMC3	C1	1	0.0862	12.011
6380	CB	428	TMC3	C2	1	-0.15	12.011
6381	CB	428	TMC3	C3	1	0.0862	12.011
6382	CB	428	TMC3	C4	1	-0.15	12.011
6383	CB	428	TMC3	C5	1	0.0862	12.011
6384	CB	428	TMC3	C6	1	-0.15	12.011
6385	C=O	428	TMC3	C	1	0.5438	12.011
6386	O=C	428	TMC3	O	1	-0.57	15.9994
6387	HCMM	428	TMC3	H	1	0.15	1.0079
6388	HCMM	428	TMC3	H1	1	0.15	1.0079
6389	HCMM	428	TMC3	H2	1	0.15	1.0079
6390	C=O	428	TMC3	C7	1	0.5438	12.011
6391	C=O	428	TMC3	C8	1	0.5438	12.011
6392	O=C	428	TMC3	O1	1	-0.57	15.9994
6393	O=C	428	TMC3	O2	1	-0.57	15.9994
6394	CB	429	MPD2	C	1	-0.15	12.011
6395	CB	429	MPD2	C1	1	0.117	12.011
6396	CB	429	MPD2	C2	1	-0.15	12.011
6397	CB	429	MPD2	C3	1	0.117	12.011
6398	CB	429	MPD2	C4	1	-0.15	12.011
6399	CB	429	MPD2	C5	1	-0.15	12.011
6400	HCMM	429	MPD2	H	1	0.15	1.0079
6401	HCMM	429	MPD2	H1	1	0.15	1.0079
6402	HCMM	429	MPD2	H2	1	0.15	1.0079
6403	HCMM	429	MPD2	H3	1	0.15	1.0079
6404	NC=O	429	MPD2	N	1	-0.547	14.0067
6405	HNCO	429	MPD2	H5	1	0.37	1.0079
6406	NC=O	429	MPD2	N1	1	-0.547	14.0067
6407	HNCO	429	MPD2	H7	1	0.37	1.0079
6408	CB	430	TMC3	C1	1	0.0862	12.011
6409	CB	430	TMC3	C2	1	-0.15	12.011
6410	CB	430	TMC3	C3	1	0.0862	12.011
6411	CB	430	TMC3	C4	1	-0.15	12.011
6412	CB	430	TMC3	C5	1	0.0862	12.011
6413	CB	430	TMC3	C6	1	-0.15	12.011
6414	C=O	430	TMC3	C	1	0.5438	12.011
6415	O=C	430	TMC3	O	1	-0.57	15.9994
6416	HCMM	430	TMC3	H	1	0.15	1.0079
6417	HCMM	430	TMC3	H1	1	0.15	1.0079
6418	HCMM	430	TMC3	H2	1	0.15	1.0079
6419	C=O	430	TMC3	C7	1	0.5438	12.011
6420	C=O	430	TMC3	C8	1	0.5438	12.011
6421	O=C	430	TMC3	O1	1	-0.57	15.9994
6422	O=C	430	TMC3	O2	1	-0.57	15.9994
6423	CB	431	MPD2	C	1	-0.15	12.011
6424	CB	431	MPD2	C1	1	0.117	12.011
6425	CB	431	MPD2	C2	1	-0.15	12.011
6426	CB	431	MPD2	C3	1	0.117	12.011
6427	CB	431	MPD2	C4	1	-0.15	12.011
6428	CB	431	MPD2	C5	1	-0.15	12.011
6429	HCMM	431	MPD2	H	1	0.15	1.0079
6430	HCMM	431	MPD2	H1	1	0.15	1.0079
6431	HCMM	431	MPD2	H2	1	0.15	1.0079
6432	HCMM	431	MPD2	H3	1	0.15	1.0079
6433	NC=O	431	MPD2	N	1	-0.547	14.0067
6434	HNCO	431	MPD2	H5	1	0.37	1.0079
6435	NC=O	431	MPD2	N1	1	-0.547	14.0067
6436	HNCO	431	MPD2	H7	1	0.37	1.0079
6437	CB	432	TMC3	C1	1	0.0862	12.011
6438	CB	432	TMC3	C2	1	-0.15	12.011
6439	CB	432	TMC3	C3	1	0.0862	12.011
6440	CB	432	TMC3	C4	1	-0.15	12.011
6441	CB	432	TMC3	C5	1	0.0862	12.011
6442	CB	432	TMC3	C6	1	-0.15	12.011
6443	C=O	432	TMC3	C	1	0.5438	12.011
6444	O=C	432	TMC3	O	1	-0.57	15.9994
6445	HCMM	432	TMC3	H	1	0.15	1.0079
6446	HCMM	432	TMC3	H1	1	0.15	1.0079
6447	HCMM	432	TMC3	H2	1	0.15	1.0079
6448	C=O	432	TMC3	C7	1	0.5438	12.011
6449	C=O	432	TMC3	C8	1	0.5438	12.011
6450	O=C	432	TMC3	O1	1	-0.57	15.9994
6451	O=C	432	TMC3	O2	1	-0.57	15.9994
6452	CB	433	MPD2	C	1	-0.15	12.011
6453	CB	433	MPD2	C1	1	0.117	12.011
6454	CB	433	MPD2	C2	1	-0.15	12.011
6455	CB	433	MPD2	C3	1	0.117	12.011
6456	CB	433	MPD2	C4	1	-0.15	12.011
6457	CB	433	MPD2	C5	1	-0.15	12.011
6458	HCMM	433	MPD2	H	1	0.15	1.0079
6459	HCMM	433	MPD2	H1	1	0.15	1.0079
6460	HCMM	433	MPD2	H2	1	0.15	1.0079
6461	HCMM	433	MPD2	H3	1	0.15	1.0079
6462	NC=O	433	MPD2	N	1	-0.547	14.0067
6463	HNCO	433	MPD2	H5	1	0.37	1.0079
6464	NC=O	433	MPD2	N1	1	-0.547	14.0067
6465	HNCO	433	MPD2	H7	1	0.37	1.0079
6466	CB	434	TMC3	C1	1	0.0862	12.011
6467	CB	434	TMC3	C2	1	-0.15	12.011
6468	CB	434	TMC3	C3	1	0.0862	12.011
6469	CB	434	TMC3	C4	1	-0.15	12.011
6470	CB	434	TMC3	C5	1	0.0862	12.011
6471	CB	434	TMC3	C6	1	-0.15	12.011
6472	C=O	434	TMC3	C	1	0.5438	12.011
6473	O=C	434	TMC3	O	1	-0.57	15.9994
6474	HCMM	434	TMC3	H	1	0.15	1.0079
6475	HCMM	434	TMC3	H1	1	0.15	1.0079
6476	HCMM	434	TMC3	H2	1	0.15	1.0079
6477	C=O	434	TMC3	C7	1	0.5438	12.011
6478	C=O	434	TMC3	C8	1	0.5438	12.011
6479	O=C	434	TMC3	O1	1	-0.57	15.9994
6480	O=C	434	TMC3	O2	1	-0.57	15.9994
6481	CB	435	MPD2	C	1	-0.15	12.011
6482	CB	435	MPD2	C1	1	0.117	12.011
6483	CB	435	MPD2	C2	1	-0.15	12.011
6484	CB	435	MPD2	C3	1	0.117	12.011
6485	CB	435	MPD2	C4	1	-0.15	12.011
6486	CB	435	MPD2	C5	1	-0.15	12.011
6487	HCMM	435	MPD2	H	1	0.15	1.0079
6488	HCMM	435	MPD2	H1	1	0.15	1.0079
6489	HCMM	435	MPD2	H2	1	0.15	1.0079
6490	HCMM	435	MPD2	H3	1	0.15	1.0079
6491	NC=O	435	MPD2	N	1	-0.547	14.0067
6492	HNCO	435	MPD2	H5	1	0.37	1.0079
6493	NC=O	435	MPD2	N1	1	-0.547	14.0067
6494	HNCO	435	MPD2	H7	1	0.37	1.0079
6495	CB	436	TMC3	C1	1	0.0862	12.011
6496	CB	436	TMC3	C2	1	-0.15	12.011
6497	CB	436	TMC3	C3	1	0.0862	12.011
6498	CB	436	TMC3	C4	1	-0.15	12.011
6499	CB	436	TMC3	C5	1	0.0862	12.011
6500	CB	436	TMC3	C6	1	-0.15	12.011
6501	C=O	436	TMC3	C	1	0.5438	12.011
6502	O=C	436	TMC3	O	1	-0.57	15.9994
6503	HCMM	436	TMC3	H	1	0.15	1.0079
6504	HCMM	436	TMC3	H1	1	0.15	1.0079
6505	HCMM	436	TMC3	H2	1	0.15	1.0079
6506	C=O	436	TMC3	C7	1	0.5438	12.011
6507	C=O	436	TMC3	C8	1	0.5438	12.011
6508	O=C	436	TMC3	O1	1	-0.57	15.9994
6509	O=C	436	TMC3	O2	1	-0.57	15.9994
6510	CB	437	TMC3	C1	1	0.0862	12.011
6511	CB	437	TMC3	C2	1	-0.15	12.011
6512	CB	437	TMC3	C3	1	0.0862	12.011
6513	CB	437	TMC3	C4	1	-0.15	12.011
6514	CB	437	TMC3	C5	1	0.0862	12.011
6515	CB	437	TMC3	C6	1	-0.15	12.011
6516	C=O	437	TMC3	C	1	0.5438	12.011
6517	O=C	437	TMC3	O	1	-0.57	15.9994
6518	HCMM	437	TMC3	H	1	0.15	1.0079
6519	HCMM	437	TMC3	H1	1	0.15	1.0079
6520	HCMM	437	TMC3	H2	1	0.15	1.0079
6521	C=O	437	TMC3	C7	1	0.5438	12.011
6522	C=O	437	TMC3	C8	1	0.5438	12.011
6523	O=C	437	TMC3	O1	1	-0.57	15.9994
6524	O=C	437	TMC3	O2	1	-0.57	15.9994
6525	CB	438	MPD2	C	1	-0.15	12.011
6526	CB	438	MPD2	C1	1	0.117	12.011
6527	CB	438	MPD2	C2	1	-0.15	12.011
6528	CB	438	MPD2	C3	1	0.117	12.011
6529	CB	438	MPD2	C4	1	-0.15	12.011
6530	CB	438	MPD2	C5	1	-0.15	12.011
6531	HCMM	438	MPD2	H	1	0.15	1.0079
6532	HCMM	438	MPD2	H1	1	0.15	1.0079
6533	HCMM	438	MPD2	H2	1	0.15	1.0079
6534	HCMM	438	MPD2	H3	1	0.15	1.0079
6535	NC=O	438	MPD2	N	1	-0.547	14.0067
6536	HNCO	438	MPD2	H5	1	0.37	1.0079
6537	NC=O	438	MPD2	N1	1	-0.547	14.0067
6538	HNCO	438	MPD2	H7	1	0.37	1.0079
6539	CB	439	TMC3	C1	1	0.0862	12.011
6540	CB	439	TMC3	C2	1	-0.15	12.011
6541	CB	439	TMC3	C3	1	0.0862	12.011
6542	CB	439	TMC3	C4	1	-0.15	12.011
6543	CB	439	TMC3	C5	1	0.0862	12.011
6544	CB	439	TMC3	C6	1	-0.15	12.011
6545	C=O	439	TMC3	C	1	0.5438	12.011
6546	O=C	439	TMC3	O	1	-0.57	15.9994
6547	HCMM	439	TMC3	H	1	0.15	1.0079
6548	HCMM	439	TMC3	H1	1	0.15	1.0079
6549	HCMM	439	TMC3	H2	1	0.15	1.0079
6550	C=O	439	TMC3	C7	1	0.5438	12.011
6551	C=O	439	TMC3	C8	1	0.5438	12.011
6552	O=C	439	TMC3	O1	1	-0.57	15.9994
6553	O=C	439	TMC3	O2	1	-0.57	15.9994
6554	CB	440	MPD2	C	1	-0.15	12.011
6555	CB	440	MPD2	C1	1	0.117	12.011
6556	CB	440	MPD2	C2	1	-0.15	12.011
6557	CB	440	MPD2	C3	1	0.117	12.011
6558	CB	440	MPD2	C4	1	-0.15	12.011
6559	CB	440	MPD2	C5	1	-0.15	12.011
6560	HCMM	440	MPD2	H	1	0.15	1.0079
6561	HCMM	440	MPD2	H1	1	0.15	1.0079
6562	HCMM	440	MPD2	H2	1	0.15	1.0079
6563	HCMM	440	MPD2	H3	1	0.15	1.0079
6564	NC=O	440	MPD2	N	1	-0.547	14.0067
6565	HNCO	440	MPD2	H5	1	0.37	1.0079
6566	NC=O	440	MPD2	N1	1	-0.547	14.0067
6567	HNCO	440	MPD2	H7	1	0.37	1.0079
6568	CB	441	TMC3	C1	1	0.0862	12.011
6569	CB	441	TMC3	C2	1	-0.15	12.011
6570	CB	441	TMC3	C3	1	0.0862	12.011
6571	CB	441	TMC3	C4	1	-0.15	12.011
6572	CB	441	TMC3	C5	1	0.0862	12.011
6573	CB	441	TMC3	C6	1	-0.15	12.011
6574	C=O	441	TMC3	C	1	0.5438	12.011
6575	O=C	441	TMC3	O	1	-0.57	15.9994
6576	HCMM	441	TMC3	H	1	0.15	1.0079
6577	HCMM	441	TMC3	H1	1	0.15	1.0079
6578	HCMM	441	TMC3	H2	1	0.15	1.0079
6579	C=O	441	TMC3	C7	1	0.5438	12.011
6580	C=O	441	TMC3	C8	1	0.5438	12.011
6581	O=C	441	TMC3	O1	1	-0.57	15.9994
6582	O=C	441	TMC3	O2	1	-0.57	15.9994
6583	CB	442	MPD2	C	1	-0.15	12.011
6584	CB	442	MPD2	C1	1	0.117	12.011
6585	CB	442	MPD2	C2	1	-0.15	12.011
6586	CB	442	MPD2	C3	1	0.117	12.011
6587	CB	442	MPD2	C4	1	-0.15	12.011
6588	CB	442	MPD2	C5	1	-0.15	12.011
6589	HCMM	442	MPD2	H	1	0.15	1.0079
6590	HCMM	442	MPD2	H1	1	0.15	1.0079
6591	HCMM	442	MPD2	H2	1	0.15	1.0079
6592	HCMM	442	MPD2	H3	1	0.15	1.0079
6593	NC=O	442	MPD2	N	1	-0.547	14.0067
6594	HNCO	442	MPD2	H5	1	0.37	1.0079
6595	NC=O	442	MPD2	N1	1	-0.547	14.0067
6596	HNCO	442	MPD2	H7	1	0.37	1.0079
6597	CB	443	TMC3	C1	1	0.0862	12.011
6598	CB	443	TMC3	C2	1	-0.15	12.011
6599	CB	443	TMC3	C3	1	0.0862	12.011
6600	CB	443	TMC3	C4	1	-0.15	12.011
6601	CB	443	TMC3	C5	1	0.0862	12.011
6602	CB	443	TMC3	C6	1	-0.15	12.011
6603	C=O	443	TMC3	C	1	0.5438	12.011
6604	O=C	443	TMC3	O	1	-0.57	15.9994
6605	HCMM	443	TMC3	H	1	0.15	1.0079
6606	HCMM	443	TMC3	H1	1	0.15	1.0079
6607	HCMM	443	TMC3	H2	1	0.15	1.0079
6608	C=O	443	TMC3	C7	1	0.5438	12.011
6609	C=O	443	TMC3	C8	1	0.5438	12.011
6610	O=C	443	TMC3	O1	1	-0.57	15.9994
6611	O=C	443	TMC3	O2	1	-0.57	15.9994
6612	CB	444	MPD2	C	1	-0.15	12.011
6613	CB	444	MPD2	C1	1	0.117	12.011
6614	CB	444	MPD2	C2	1	-0.15	12.011
6615	CB	444	MPD2	C3	1	0.117	12.011
6616	CB	444	MPD2	C4	1	-0.15	12.011
6617	CB	444	MPD2	C5	1	-0.15	12.011
6618	HCMM	444	MPD2	H	1	0.15	1.0079
6619	HCMM	444	MPD2	H1	1	0.15	1.0079
6620	HCMM	444	MPD2	H2	1	0.15	1.0079
6621	HCMM	444	MPD2	H3	1	0.15	1.0079
6622	NC=O	444	MPD2	N	1	-0.547	14.0067
6623	HNCO	444	MPD2	H5	1	0.37	1.0079
6624	NC=O	444	MPD2	N1	1	-0.547	14.0067
6625	HNCO	444	MPD2	H7	1	0.37	1.0079
6626	CB	445	TMC3	C1	1	0.0862	12.011
6627	CB	445	TMC3	C2	1	-0.15	12.011
6628	CB	445	TMC3	C3	1	0.0862	12.011
6629	CB	445	TMC3	C4	1	-0.15	12.011
6630	CB	445	TMC3	C5	1	0.0862	12.011
6631	CB	445	TMC3	C6	1	-0.15	12.011
6632	C=O	445	TMC3	C	1	0.5438	12.011
6633	O=C	445	TMC3	O	1	-0.57	15.9994
6634	HCMM	445	TMC3	H	1	0.15	1.0079
6635	HCMM	445	TMC3	H1	1	0.15	1.0079
6636	HCMM	445	TMC3	H2	1	0.15	1.0079
6637	C=O	445	TMC3	C7	1	0.5438	12.011
6638	C=O	445	TMC3	C8	1	0.5438	12.011
6639	O=C	445	TMC3	O1	1	-0.57	15.9994
6640	O=C	445	TMC3	O2	1	-0.57	15.9994
6641	CB	446	MPD2	C	1	-0.15	12.011
6642	CB	446	MPD2	C1	1	0.117	12.011
6643	CB	446	MPD2	C2	1	-0.15	12.011
6644	CB	446	MPD2	C3	1	0.117	12.011
6645	CB	446	MPD2	C4	1	-0.15	12.011
6646	CB	446	MPD2	C5	1	-0.15	12.011
6647	HCMM	446	MPD2	H	1	0.15	1.0079
6648	HCMM	446	MPD2	H1	1	0.15	1.0079
6649	HCMM	446	MPD2	H2	1	0.15	1.0079
6650	HCMM	446	MPD2	H3	1	0.15	1.0079
6651	NC=O	446	MPD2	N	1	-0.547	14.0067
6652	HNCO	446	MPD2	H5	1	0.37	1.0079
6653	NC=O	446	MPD2	N1	1	-0.547	14.0067
6654	HNCO	446	MPD2	H7	1	0.37	1.0079
6655	CB	447	TMC3	C1	1	0.0862	12.011
6656	CB	447	TMC3	C2	1	-0.15	12.011
6657	CB	447	TMC3	C3	1	0.0862	12.011
6658	CB	447	TMC3	C4	1	-0.15	12.011
6659	CB	447	TMC3	C5	1	0.0862	12.011
6660	CB	447	TMC3	C6	1	-0.15	12.011
6661	C=O	447	TMC3	C	1	0.5438	12.011
6662	O=C	447	TMC3	O	1	-0.57	15.9994
6663	HCMM	447	TMC3	H	1	0.15	1.0079
6664	HCMM	447	TMC3	H1	1	0.15	1.0079
6665	HCMM	447	TMC3	H2	1	0.15	1.0079
6666	C=O	447	TMC3	C7	1	0.5438	12.011
6667	C=O	447	TMC3	C8	1	0.5438	12.011
6668	O=C	447	TMC3	O1	1	-0.57	15.9994
6669	O=C	447	TMC3	O2	1	-0.57	15.9994
6670	CB	448	TMC3	C1	1	0.0862	12.011
6671	CB	448	TMC3	C2	1	-0.15	12.011
6672	CB	448	TMC3	C3	1	0.0862	12.011
6673	CB	448	TMC3	C4	1	-0.15	12.011
6674	CB	448	TMC3	C5	1	0.0862	12.011
6675	CB	448	TMC3	C6	1	-0.15	12.011
6676	C=O	448	TMC3	C	1	0.5438	12.011
6677	O=C	448	TMC3	O	1	-0.57	15.9994
6678	HCMM	448	TMC3	H	1	0.15	1.0079
6679	HCMM	448	TMC3	H1	1	0.15	1.0079
6680	HCMM	448	TMC3	H2	1	0.15	1.0079
6681	C=O	448	TMC3	C7	1	0.5438	12.011
6682	C=O	448	TMC3	C8	1	0.5438	12.011
6683	O=C	448	TMC3	O1	1	-0.57	15.9994
6684	O=C	448	TMC3	O2	1	-0.57	15.9994
6685	CB	449	MPD2	C	1	-0.15	12.011
6686	CB	449	MPD2	C1	1	0.117	12.011
6687	CB	449	MPD2	C2	1	-0.15	12.011
6688	CB	449	MPD2	C3	1	0.117	12.011
6689	CB	449	MPD2	C4	1	-0.15	12.011
6690	CB	449	MPD2	C5	1	-0.15	12.011
6691	HCMM	449	MPD2	H	1	0.15	1.0079
6692	HCMM	449	MPD2	H1	1	0.15	1.0079
6693	HCMM	449	MPD2	H2	1	0.15	1.0079
6694	HCMM	449	MPD2	H3	1	0.15	1.0079
6695	NC=O	449	MPD2	N	1	-0.547	14.0067
6696	HNCO	449	MPD2	H5	1	0.37	1.0079
6697	NC=O	449	MPD2	N1	1	-0.547	14.0067
6698	HNCO	449	MPD2	H7	1	0.37	1.0079
6699	CB	450	TMC3	C1	1	0.0862	12.011
6700	CB	450	TMC3	C2	1	-0.15	12.011
6701	CB	450	TMC3	C3	1	0.0862	12.011
6702	CB	450	TMC3	C4	1	-0.15	12.011
6703	CB	450	TMC3	C5	1	0.0862	12.011
6704	CB	450	TMC3	C6	1	-0.15	12.011
6705	C=O	450	TMC3	C	1	0.5438	12.011
6706	O=C	450	TMC3	O	1	-0.57	15.9994
6707	HCMM	450	TMC3	H	1	0.15	1.0079
6708	HCMM	450	TMC3	H1	1	0.15	1.0079
6709	HCMM	450	TMC3	H2	1	0.15	1.0079
6710	C=O	450	TMC3	C7	1	0.5438	12.011
6711	C=O	450	TMC3	C8	1	0.5438	12.011
6712	O=C	450	TMC3	O1	1	-0.57	15.9994
6713	O=C	450	TMC3	O2	1	-0.57	15.9994
6714	CB	451	MPD2	C	1	-0.15	12.011
6715	CB	451	MPD2	C1	1	0.117	12.011
6716	CB	451	MPD2	C2	1	-0.15	12.011
6717	CB	451	MPD2	C3	1	0.117	12.011
6718	CB	451	MPD2	C4	1	-0.15	12.011
6719	CB	451	MPD2	C5	1	-0.15	12.011
6720	HCMM	451	MPD2	H	1	0.15	1.0079
6721	HCMM	451	MPD2	H1	1	0.15	1.0079
6722	HCMM	451	MPD2	H2	1	0.15	1.0079
6723	HCMM	451	MPD2	H3	1	0.15	1.0079
6724	NC=O	451	MPD2	N	1	-0.547	14.0067
6725	HNCO	451	MPD2	H5	1	0.37	1.0079
6726	NC=O	451	MPD2	N1	1	-0.547	14.0067
6727	HNCO	451	MPD2	H7	1	0.37	1.0079
6728	CB	452	TMC3	C1	1	0.0862	12.011
6729	CB	452	TMC3	C2	1	-0.15	12.011
6730	CB	452	TMC3	C3	1	0.0862	12.011
6731	CB	452	TMC3	C4	1	-0.15	12.011
6732	CB	452	TMC3	C5	1	0.0862	12.011
6733	CB	452	TMC3	C6	1	-0.15	12.011
6734	C=O	452	TMC3	C	1	0.5438	12.011
6735	O=C	452	TMC3	O	1	-0.57	15.9994
6736	HCMM	452	TMC3	H	1	0.15	1.0079
6737	HCMM	452	TMC3	H1	1	0.15	1.0079
6738	HCMM	452	TMC3	H2	1	0.15	1.0079
6739	C=O	452	TMC3	C7	1	0.5438	12.011
6740	C=O	452	TMC3	C8	1	0.5438	12.011
6741	O=C	452	TMC3	O1	1	-0.57	15.9994
6742	O=C	452	TMC3	O2	1	-0.57	15.9994
6743	CB	453	TMC3	C1	1	0.0862	12.011
6744	CB	453	TMC3	C2	1	-0.15	12.011
6745	CB	453	TMC3	C3	1	0.0862	12.011
6746	CB	453	TMC3	C4	1	-0.15	12.011
6747	CB	453	TMC3	C5	1	0.0862	12.011
6748	CB	453	TMC3	C6	1	-0.15	12.011
6749	C=O	453	TMC3	C	1	0.5438	12.011
6750	O=C	453	TMC3	O	1	-0.57	15.9994
6751	HCMM	453	TMC3	H	1	0.15	1.0079
6752	HCMM	453	TMC3	H1	1	0.15	1.0079
6753	HCMM	453	TMC3	H2	1	0.15	1.0079
6754	C=O	453	TMC3	C7	1	0.5438	12.011
6755	C=O	453	TMC3	C8	1	0.5438	12.011
6756	O=C	453	TMC3	O1	1	-0.57	15.9994
6757	O=C	453	TMC3	O2	1	-0.57	15.9994
6758	CB	454	MPD2	C	1	-0.15	12.011
6759	CB	454	MPD2	C1	1	0.117	12.011
6760	CB	454	MPD2	C2	1	-0.15	12.011
6761	CB	454	MPD2	C3	1	0.117	12.011
6762	CB	454	MPD2	C4	1	-0.15	12.011
6763	CB	454	MPD2	C5	1	-0.15	12.011
6764	HCMM	454	MPD2	H	1	0.15	1.0079
6765	HCMM	454	MPD2	H1	1	0.15	1.0079
6766	HCMM	454	MPD2	H2	1	0.15	1.0079
6767	HCMM	454	MPD2	H3	1	0.15	1.0079
6768	NC=O	454	MPD2	N	1	-0.547	14.0067
6769	HNCO	454	MPD2	H5	1	0.37	1.0079
6770	NC=O	454	MPD2	N1	1	-0.547	14.0067
6771	HNCO	454	MPD2	H7	1	0.37	1.0079
6772	CB	455	TMC3	C1	1	0.0862	12.011
6773	CB	455	TMC3	C2	1	-0.15	12.011
6774	CB	455	TMC3	C3	1	0.0862	12.011
6775	CB	455	TMC3	C4	1	-0.15	12.011
6776	CB	455	TMC3	C5	1	0.0862	12.011
6777	CB	455	TMC3	C6	1	-0.15	12.011
6778	C=O	455	TMC3	C	1	0.5438	12.011
6779	O=C	455	TMC3	O	1	-0.57	15.9994
6780	HCMM	455	TMC3	H	1	0.15	1.0079
6781	HCMM	455	TMC3	H1	1	0.15	1.0079
6782	HCMM	455	TMC3	H2	1	0.15	1.0079
6783	C=O	455	TMC3	C7	1	0.5438	12.011
6784	C=O	455	TMC3	C8	1	0.5438	12.011
6785	O=C	455	TMC3	O1	1	-0.57	15.9994
6786	O=C	455	TMC3	O2	1	-0.57	15.9994
6787	CB	456	MPD2	C	1	-0.15	12.011
6788	CB	456	MPD2	C1	1	0.117	12.011
6789	CB	456	MPD2	C2	1	-0.15	12.011
6790	CB	456	MPD2	C3	1	0.117	12.011
6791	CB	456	MPD2	C4	1	-0.15	12.011
6792	CB	456	MPD2	C5	1	-0.15	12.011
6793	HCMM	456	MPD2	H	1	0.15	1.0079
6794	HCMM	456	MPD2	H1	1	0.15	1.0079
6795	HCMM	456	MPD2	H2	1	0.15	1.0079
6796	HCMM	456	MPD2	H3	1	0.15	1.0079
6797	NC=O	456	MPD2	N	1	-0.547	14.0067
6798	HNCO	456	MPD2	H5	1	0.37	1.0079
6799	NC=O	456	MPD2	N1	1	-0.547	14.0067
6800	HNCO	456	MPD2	H7	1	0.37	1.0079
6801	CB	457	TMC3	C1	1	0.0862	12.011
6802	CB	457	TMC3	C2	1	-0.15	12.011
6803	CB	457	TMC3	C3	1	0.0862	12.011
6804	CB	457	TMC3	C4	1	-0.15	12.011
6805	CB	457	TMC3	C5	1	0.0862	12.011
6806	CB	457	TMC3	C6	1	-0.15	12.011
6807	C=O	457	TMC3	C	1	0.5438	12.011
6808	O=C	457	TMC3	O	1	-0.57	15.9994
6809	HCMM	457	TMC3	H	1	0.15	1.0079
6810	HCMM	457	TMC3	H1	1	0.15	1.0079
6811	HCMM	457	TMC3	H2	1	0.15	1.0079
6812	C=O	457	TMC3	C7	1	0.5438	12.011
6813	C=O	457	TMC3	C8	1	0.5438	12.011
6814	O=C	457	TMC3	O1	1	-0.57	15.9994
6815	O=C	457	TMC3	O2	1	-0.57	15.9994
6816	CB	458	MPD2	C	1	-0.15	12.011
6817	CB	458	MPD2	C1	1	0.117	12.011
6818	CB	458	MPD2	C2	1	-0.15	12.011
6819	CB	458	MPD2	C3	1	0.117	12.011
6820	CB	458	MPD2	C4	1	-0.15	12.011
6821	CB	458	MPD2	C5	1	-0.15	12.011
6822	HCMM	458	MPD2	H	1	0.15	1.0079
6823	HCMM	458	MPD2	H1	1	0.15	1.0079
6824	HCMM	458	MPD2	H2	1	0.15	1.0079
6825	HCMM	458	MPD2	H3	1	0.15	1.0079
6826	NC=O	458	MPD2	N	1	-0.547	14.0067
6827	HNCO	458	MPD2	H5	1	0.37	1.0079
6828	NC=O	458	MPD2	N1	1	-0.547	14.0067
6829	HNCO	458	MPD2	H7	1	0.37	1.0079
6830	CB	459	TMC3	C1	1	0.0862	12.011
6831	CB	459	TMC3	C2	1	-0.15	12.011
6832	CB	459	TMC3	C3	1	0.0862	12.011
6833	CB	459	TMC3	C4	1	-0.15	12.011
6834	CB	459	TMC3	C5	1	0.0862	12.011
6835	CB	459	TMC3	C6	1	-0.15	12.011
6836	C=O	459	TMC3	C	1	0.5438	12.011
6837	O=C	459	TMC3	O	1	-0.57	15.9994
6838	HCMM	459	TMC3	H	1	0.15	1.0079
6839	HCMM	459	TMC3	H1	1	0.15	1.0079
6840	HCMM	459	TMC3	H2	1	0.15	1.0079
6841	C=O	459	TMC3	C7	1	0.5438	12.011
6842	C=O	459	TMC3	C8	1	0.5438	12.011
6843	O=C	459	TMC3	O1	1	-0.57	15.9994
6844	O=C	459	TMC3	O2	1	-0.57	15.9994
6845	CB	460	MPD2	C	1	-0.15	12.011
6846	CB	460	MPD2	C1	1	0.117	12.011
6847	CB	460	MPD2	C2	1	-0.15	12.011
6848	CB	460	MPD2	C3	1	0.117	12.011
6849	CB	460	MPD2	C4	1	-0.15	12.011
6850	CB	460	MPD2	C5	1	-0.15	12.011
6851	HCMM	460	MPD2	H	1	0.15	1.0079
6852	HCMM	460	MPD2	H1	1	0.15	1.0079
6853	HCMM	460	MPD2	H2	1	0.15	1.0079
6854	HCMM	460	MPD2	H3	1	0.15	1.0079
6855	NC=O	460	MPD2	N	1	-0.547	14.0067
6856	HNCO	460	MPD2	H5	1	0.37	1.0079
6857	NC=O	460	MPD2	N1	1	-0.547	14.0067
6858	HNCO	460	MPD2	H7	1	0.37	1.0079
6859	CB	461	TMC3	C1	1	0.0862	12.011
6860	CB	461	TMC3	C2	1	-0.15	12.011
6861	CB	461	TMC3	C3	1	0.0862	12.011
6862	CB	461	TMC3	C4	1	-0.15	12.011
6863	CB	461	TMC3	C5	1	0.0862	12.011
6864	CB	461	TMC3	C6	1	-0.15	12.011
6865	C=O	461	TMC3	C	1	0.5438	12.011
6866	O=C	461	TMC3	O	1	-0.57	15.9994
6867	HCMM	461	TMC3	H	1	0.15	1.0079
6868	HCMM	461	TMC3	H1	1	0.15	1.0079
6869	HCMM	461	TMC3	H2	1	0.15	1.0079
6870	C=O	461	TMC3	C7	1	0.5438	12.011
6871	C=O	461	TMC3	C8	1	0.5438	12.011
6872	O=C	461	TMC3	O1	1	-0.57	15.9994
6873	O=C	461	TMC3	O2	1	-0.57	15.9994
6874	CB	462	TMC3	C1	1	0.0862	12.011
6875	CB	462	TMC3	C2	1	-0.15	12.011
6876	CB	462	TMC3	C3	1	0.0862	12.011
6877	CB	462	TMC3	C4	1	-0.15	12.011
6878	CB	462	TMC3	C5	1	0.0862	12.011
6879	CB	462	TMC3	C6	1	-0.15	12.011
6880	C=O	462	TMC3	C	1	0.5438	12.011
6881	O=C	462	TMC3	O	1	-0.57	15.9994
6882	HCMM	462	TMC3	H	1	0.15	1.0079
6883	HCMM	462	TMC3	H1	1	0.15	1.0079
6884	HCMM	462	TMC3	H2	1	0.15	1.0079
6885	C=O	462	TMC3	C7	1	0.5438	12.011
6886	C=O	462	TMC3	C8	1	0.5438	12.011
6887	O=C	462	TMC3	O1	1	-0.57	15.9994
6888	O=C	462	TMC3	O2	1	-0.57	15.9994
6889	CB	463	MPD2	C	1	-0.15	12.011
6890	CB	463	MPD2	C1	1	0.117	12.011
6891	CB	463	MPD2	C2	1	-0.15	12.011
6892	CB	463	MPD2	C3	1	0.117	12.011
6893	CB	463	MPD2	C4	1	-0.15	12.011
6894	CB	463	MPD2	C5	1	-0.15	12.011
6895	HCMM	463	MPD2	H	1	0.15	1.0079
6896	HCMM	463	MPD2	H1	1	0.15	1.0079
6897	HCMM	463	MPD2	H2	1	0.15	1.0079
6898	HCMM	463	MPD2	H3	1	0.15	1.0079
6899	NC=O	463	MPD2	N	1	-0.547	14.0067
6900	HNCO	463	MPD2	H5	1	0.37	1.0079
6901	NC=O	463	MPD2	N1	1	-0.547	14.0067
6902	HNCO	463	MPD2	H7	1	0.37	1.0079
6903	CB	464	TMC3	C1	1	0.0862	12.011
6904	CB	464	TMC3	C2	1	-0.15	12.011
6905	CB	464	TMC3	C3	1	0.0862	12.011
6906	CB	464	TMC3	C4	1	-0.15	12.011
6907	CB	464	TMC3	C5	1	0.0862	12.011
6908	CB	464	TMC3	C6	1	-0.15	12.011
6909	C=O	464	TMC3	C	1	0.5438	12.011
6910	O=C	464	TMC3	O	1	-0.57	15.9994
6911	HCMM	464	TMC3	H	1	0.15	1.0079
6912	HCMM	464	TMC3	H1	1	0.15	1.0079
6913	HCMM	464	TMC3	H2	1	0.15	1.0079
6914	C=O	464	TMC3	C7	1	0.5438	12.011
6915	C=O	464	TMC3	C8	1	0.5438	12.011
6916	O=C	464	TMC3	O1	1	-0.57	15.9994
6917	O=C	464	TMC3	O2	1	-0.57	15.9994
6918	CB	465	MPD2	C	1	-0.15	12.011
6919	CB	465	MPD2	C1	1	0.117	12.011
6920	CB	465	MPD2	C2	1	-0.15	12.011
6921	CB	465	MPD2	C3	1	0.117	12.011
6922	CB	465	MPD2	C4	1	-0.15	12.011
6923	CB	465	MPD2	C5	1	-0.15	12.011
6924	HCMM	465	MPD2	H	1	0.15	1.0079
6925	HCMM	465	MPD2	H1	1	0.15	1.0079
6926	HCMM	465	MPD2	H2	1	0.15	1.0079
6927	HCMM	465	MPD2	H3	1	0.15	1.0079
6928	NC=O	465	MPD2	N	1	-0.547	14.0067
6929	HNCO	465	MPD2	H5	1	0.37	1.0079
6930	NC=O	465	MPD2	N1	1	-0.547	14.0067
6931	HNCO	465	MPD2	H7	1	0.37	1.0079
6932	CB	466	TMC3	C1	1	0.0862	12.011
6933	CB	466	TMC3	C2	1	-0.15	12.011
6934	CB	466	TMC3	C3	1	0.0862	12.011
6935	CB	466	TMC3	C4	1	-0.15	12.011
6936	CB	466	TMC3	C5	1	0.0862	12.011
6937	CB	466	TMC3	C6	1	-0.15	12.011
6938	C=O	466	TMC3	C	1	0.5438	12.011
6939	O=C	466	TMC3	O	1	-0.57	15.9994
6940	HCMM	466	TMC3	H	1	0.15	1.0079
6941	HCMM	466	TMC3	H1	1	0.15	1.0079
6942	HCMM	466	TMC3	H2	1	0.15	1.0079
6943	C=O	466	TMC3	C7	1	0.5438	12.011
6944	C=O	466	TMC3	C8	1	0.5438	12.011
6945	O=C	466	TMC3	O1	1	-0.57	15.9994
6946	O=C	466	TMC3	O2	1	-0.57	15.9994
6947	CB	467	TMC3	C1	1	0.0862	12.011
6948	CB	467	TMC3	C2	1	-0.15	12.011
6949	CB	467	TMC3	C3	1	0.0862	12.011
6950	CB	467	TMC3	C4	1	-0.15	12.011
6951	CB	467	TMC3	C5	1	0.0862	12.011
6952	CB	467	TMC3	C6	1	-0.15	12.011
6953	C=O	467	TMC3	C	1	0.5438	12.011
6954	O=C	467	TMC3	O	1	-0.57	15.9994
6955	HCMM	467	TMC3	H	1	0.15	1.0079
6956	HCMM	467	TMC3	H1	1	0.15	1.0079
6957	HCMM	467	TMC3	H2	1	0.15	1.0079
6958	C=O	467	TMC3	C7	1	0.5438	12.011
6959	C=O	467	TMC3	C8	1	0.5438	12.011
6960	O=C	467	TMC3	O1	1	-0.57	15.9994
6961	O=C	467	TMC3	O2	1	-0.57	15.9994
6962	CB	468	MPD2	C	1	-0.15	12.011
6963	CB	468	MPD2	C1	1	0.117	12.011
6964	CB	468	MPD2	C2	1	-0.15	12.011
6965	CB	468	MPD2	C3	1	0.117	12.011
6966	CB	468	MPD2	C4	1	-0.15	12.011
6967	CB	468	MPD2	C5	1	-0.15	12.011
6968	HCMM	468	MPD2	H	1	0.15	1.0079
6969	HCMM	468	MPD2	H1	1	0.15	1.0079
6970	HCMM	468	MPD2	H2	1	0.15	1.0079
6971	HCMM	468	MPD2	H3	1	0.15	1.0079
6972	NC=O	468	MPD2	N	1	-0.547	14.0067
6973	HNCO	468	MPD2	H5	1	0.37	1.0079
6974	NC=O	468	MPD2	N1	1	-0.547	14.0067
6975	HNCO	468	MPD2	H7	1	0.37	1.0079
6976	CB	469	TMC3	C1	1	0.0862	12.011
6977	CB	469	TMC3	C2	1	-0.15	12.011
6978	CB	469	TMC3	C3	1	0.0862	12.011
6979	CB	469	TMC3	C4	1	-0.15	12.011
6980	CB	469	TMC3	C5	1	0.0862	12.011
6981	CB	469	TMC3	C6	1	-0.15	12.011
6982	C=O	469	TMC3	C	1	0.5438	12.011
6983	O=C	469	TMC3	O	1	-0.57	15.9994
6984	HCMM	469	TMC3	H	1	0.15	1.0079
6985	HCMM	469	TMC3	H1	1	0.15	1.0079
6986	HCMM	469	TMC3	H2	1	0.15	1.0079
6987	C=O	469	TMC3	C7	1	0.5438	12.011
6988	C=O	469	TMC3	C8	1	0.5438	12.011
6989	O=C	469	TMC3	O1	1	-0.57	15.9994
6990	O=C	469	TMC3	O2	1	-0.57	15.9994
6991	CB	470	TMC3	C1	1	0.0862	12.011
6992	CB	470	TMC3	C2	1	-0.15	12.011
6993	CB	470	TMC3	C3	1	0.0862	12.011
6994	CB	470	TMC3	C4	1	-0.15	12.011
6995	CB	470	TMC3	C5	1	0.0862	12.011
6996	CB	470	TMC3	C6	1	-0.15	12.011
6997	C=O	470	TMC3	C	1	0.5438	12.011
6998	O=C	470	TMC3	O	1	-0.57	15.9994
6999	HCMM	470	TMC3	H	1	0.15	1.0079
7000	HCMM	470	TMC3	H1	1	0.15	1.0079
7001	HCMM	470	TMC3	H2	1	0.15	1.0079
7002	C=O	470	TMC3	C7	1	0.5438	12.011
7003	C=O	470	TMC3	C8	1	0.5438	12.011
7004	O=C	470	TMC3	O1	1	-0.57	15.9994
7005	O=C	470	TMC3	O2	1	-0.57	15.9994
7006	CB	471	MPD2	C	1	-0.15	12.011
7007	CB	471	MPD2	C1	1	0.117	12.011
7008	CB	471	MPD2	C2	1	-0.15	12.011
7009	CB	471	MPD2	C3	1	0.117	12.011
7010	CB	471	MPD2	C4	1	-0.15	12.011
7011	CB	471	MPD2	C5	1	-0.15	12.011
7012	HCMM	471	MPD2	H	1	0.15	1.0079
7013	HCMM	471	MPD2	H1	1	0.15	1.0079
7014	HCMM	471	MPD2	H2	1	0.15	1.0079
7015	HCMM	471	MPD2	H3	1	0.15	1.0079
7016	NC=O	471	MPD2	N	1	-0.547	14.0067
7017	HNCO	471	MPD2	H5	1	0.37	1.0079
7018	NC=O	471	MPD2	N1	1	-0.547	14.0067
7019	HNCO	471	MPD2	H7	1	0.37	1.0079
7020	CB	472	TMC3	C1	1	0.0862	12.011
7021	CB	472	TMC3	C2	1	-0.15	12.011
7022	CB	472	TMC3	C3	1	0.0862	12.011
7023	CB	472	TMC3	C4	1	-0.15	12.011
7024	CB	472	TMC3	C5	1	0.0862	12.011
7025	CB	472	TMC3	C6	1	-0.15	12.011
7026	C=O	472	TMC3	C	1	0.5438	12.011
7027	O=C	472	TMC3	O	1	-0.57	15.9994
7028	HCMM	472	TMC3	H	1	0.15	1.0079
7029	HCMM	472	TMC3	H1	1	0.15	1.0079
7030	HCMM	472	TMC3	H2	1	0.15	1.0079
7031	C=O	472	TMC3	C7	1	0.5438	12.011
7032	C=O	472	TMC3	C8	1	0.5438	12.011
7033	O=C	472	TMC3	O1	1	-0.57	15.9994
7034	O=C	472	TMC3	O2	1	-0.57	15.9994
7035	CB	473	MPD2	C	1	-0.15	12.011
7036	CB	473	MPD2	C1	1	0.117	12.011
7037	CB	473	MPD2	C2	1	-0.15	12.011
7038	CB	473	MPD2	C3	1	0.117	12.011
7039	CB	473	MPD2	C4	1	-0.15	12.011
7040	CB	473	MPD2	C5	1	-0.15	12.011
7041	HCMM	473	MPD2	H	1	0.15	1.0079
7042	HCMM	473	MPD2	H1	1	0.15	1.0079
7043	HCMM	473	MPD2	H2	1	0.15	1.0079
7044	HCMM	473	MPD2	H3	1	0.15	1.0079
7045	NC=O	473	MPD2	N	1	-0.547	14.0067
7046	HNCO	473	MPD2	H5	1	0.37	1.0079
7047	NC=O	473	MPD2	N1	1	-0.547	14.0067
7048	HNCO	473	MPD2	H7	1	0.37	1.0079
7049	CB	474	TMC3	C1	1	0.0862	12.011
7050	CB	474	TMC3	C2	1	-0.15	12.011
7051	CB	474	TMC3	C3	1	0.0862	12.011
7052	CB	474	TMC3	C4	1	-0.15	12.011
7053	CB	474	TMC3	C5	1	0.0862	12.011
7054	CB	474	TMC3	C6	1	-0.15	12.011
7055	C=O	474	TMC3	C	1	0.5438	12.011
7056	O=C	474	TMC3	O	1	-0.57	15.9994
7057	HCMM	474	TMC3	H	1	0.15	1.0079
7058	HCMM	474	TMC3	H1	1	0.15	1.0079
7059	HCMM	474	TMC3	H2	1	0.15	1.0079
7060	C=O	474	TMC3	C7	1	0.5438	12.011
7061	C=O	474	TMC3	C8	1	0.5438	12.011
7062	O=C	474	TMC3	O1	1	-0.57	15.9994
7063	O=C	474	TMC3	O2	1	-0.57	15.9994
7064	CB	475	MPD2	C	1	-0.15	12.011
7065	CB	475	MPD2	C1	1	0.117	12.011
7066	CB	475	MPD2	C2	1	-0.15	12.011
7067	CB	475	MPD2	C3	1	0.117	12.011
7068	CB	475	MPD2	C4	1	-0.15	12.011
7069	CB	475	MPD2	C5	1	-0.15	12.011
7070	HCMM	475	MPD2	H	1	0.15	1.0079
7071	HCMM	475	MPD2	H1	1	0.15	1.0079
7072	HCMM	475	MPD2	H2	1	0.15	1.0079
7073	HCMM	475	MPD2	H3	1	0.15	1.0079
7074	NC=O	475	MPD2	N	1	-0.547	14.0067
7075	HNCO	475	MPD2	H5	1	0.37	1.0079
7076	NC=O	475	MPD2	N1	1	-0.547	14.0067
7077	HNCO	475	MPD2	H7	1	0.37	1.0079
7078	CB	476	TMC3	C1	1	0.0862	12.011
7079	CB	476	TMC3	C2	1	-0.15	12.011
7080	CB	476	TMC3	C3	1	0.0862	12.011
7081	CB	476	TMC3	C4	1	-0.15	12.011
7082	CB	476	TMC3	C5	1	0.0862	12.011
7083	CB	476	TMC3	C6	1	-0.15	12.011
7084	C=O	476	TMC3	C	1	0.5438	12.011
7085	O=C	476	TMC3	O	1	-0.57	15.9994
7086	HCMM	476	TMC3	H	1	0.15	1.0079
7087	HCMM	476	TMC3	H1	1	0.15	1.0079
7088	HCMM	476	TMC3	H2	1	0.15	1.0079
7089	C=O	476	TMC3	C7	1	0.5438	12.011
7090	C=O	476	TMC3	C8	1	0.5438	12.011
7091	O=C	476	TMC3	O1	1	-0.57	15.9994
7092	O=C	476	TMC3	O2	1	-0.57	15.9994
7093	CB	477	MPD2	C	1	-0.15	12.011
7094	CB	477	MPD2	C1	1	0.117	12.011
7095	CB	477	MPD2	C2	1	-0.15	12.011
7096	CB	477	MPD2	C3	1	0.117	12.011
7097	CB	477	MPD2	C4	1	-0.15	12.011
7098	CB	477	MPD2	C5	1	-0.15	12.011
7099	HCMM	477	MPD2	H	1	0.15	1.0079
7100	HCMM	477	MPD2	H1	1	0.15	1.0079
7101	HCMM	477	MPD2	H2	1	0.15	1.0079
7102	HCMM	477	MPD2	H3	1	0.15	1.0079
7103	NC=O	477	MPD2	N	1	-0.547	14.0067
7104	HNCO	477	MPD2	H5	1	0.37	1.0079
7105	NC=O	477	MPD2	N1	1	-0.547	14.0067
7106	HNCO	477	MPD2	H7	1	0.37	1.0079
7107	CB	478	TMC3	C1	1	0.0862	12.011
7108	CB	478	TMC3	C2	1	-0.15	12.011
7109	CB	478	TMC3	C3	1	0.0862	12.011
7110	CB	478	TMC3	C4	1	-0.15	12.011
7111	CB	478	TMC3	C5	1	0.0862	12.011
7112	CB	478	TMC3	C6	1	-0.15	12.011
7113	C=O	478	TMC3	C	1	0.5438	12.011
7114	O=C	478	TMC3	O	1	-0.57	15.9994
7115	HCMM	478	TMC3	H	1	0.15	1.0079
7116	HCMM	478	TMC3	H1	1	0.15	1.0079
7117	HCMM	478	TMC3	H2	1	0.15	1.0079
7118	C=O	478	TMC3	C7	1	0.5438	12.011
7119	C=O	478	TMC3	C8	1	0.5438	12.011
7120	O=C	478	TMC3	O1	1	-0.57	15.9994
7121	O=C	478	TMC3	O2	1	-0.57	15.9994
7122	CB	479	MPD2	C	1	-0.15	12.011
7123	CB	479	MPD2	C1	1	0.117	12.011
7124	CB	479	MPD2	C2	1	-0.15	12.011
7125	CB	479	MPD2	C3	1	0.117	12.011
7126	CB	479	MPD2	C4	1	-0.15	12.011
7127	CB	479	MPD2	C5	1	-0.15	12.011
7128	HCMM	479	MPD2	H	1	0.15	1.0079
7129	HCMM	479	MPD2	H1	1	0.15	1.0079
7130	HCMM	479	MPD2	H2	1	0.15	1.0079
7131	HCMM	479	MPD2	H3	1	0.15	1.0079
7132	NC=O	479	MPD2	N	1	-0.547	14.0067
7133	HNCO	479	MPD2	H5	1	0.37	1.0079
7134	NC=O	479	MPD2	N1	1	-0.547	14.0067
7135	HNCO	479	MPD2	H7	1	0.37	1.0079
7136	CB	480	TMC3	C1	1	0.0862	12.011
7137	CB	480	TMC3	C2	1	-0.15	12.011
7138	CB	480	TMC3	C3	1	0.0862	12.011
7139	CB	480	TMC3	C4	1	-0.15	12.011
7140	CB	480	TMC3	C5	1	0.0862	12.011
7141	CB	480	TMC3	C6	1	-0.15	12.011
7142	C=O	480	TMC3	C	1	0.5438	12.011
7143	O=C	480	TMC3	O	1	-0.57	15.9994
7144	HCMM	480	TMC3	H	1	0.15	1.0079
7145	HCMM	480	TMC3	H1	1	0.15	1.0079
7146	HCMM	480	TMC3	H2	1	0.15	1.0079
7147	C=O	480	TMC3	C7	1	0.5438	12.011
7148	C=O	480	TMC3	C8	1	0.5438	12.011
7149	O=C	480	TMC3	O1	1	-0.57	15.9994
7150	O=C	480	TMC3	O2	1	-0.57	15.9994
7151	CB	481	MPD2	C	1	-0.15	12.011
7152	CB	481	MPD2	C1	1	0.117	12.011
7153	CB	481	MPD2	C2	1	-0.15	12.011
7154	CB	481	MPD2	C3	1	0.117	12.011
7155	CB	481	MPD2	C4	1	-0.15	12.011
7156	CB	481	MPD2	C5	1	-0.15	12.011
7157	HCMM	481	MPD2	H	1	0.15	1.0079
7158	HCMM	481	MPD2	H1	1	0.15	1.0079
7159	HCMM	481	MPD2	H2	1	0.15	1.0079
7160	HCMM	481	MPD2	H3	1	0.15	1.0079
7161	NC=O	481	MPD2	N	1	-0.547	14.0067
7162	HNCO	481	MPD2	H5	1	0.37	1.0079
7163	NC=O	481	MPD2	N1	1	-0.547	14.0067
7164	HNCO	481	MPD2	H7	1	0.37	1.0079
7165	CB	482	TMC3	C1	1	0.0862	12.011
7166	CB	482	TMC3	C2	1	-0.15	12.011
7167	CB	482	TMC3	C3	1	0.0862	12.011
7168	CB	482	TMC3	C4	1	-0.15	12.011
7169	CB	482	TMC3	C5	1	0.0862	12.011
7170	CB	482	TMC3	C6	1	-0.15	12.011
7171	C=O	482	TMC3	C	1	0.5438	12.011
7172	O=C	482	TMC3	O	1	-0.57	15.9994
7173	HCMM	482	TMC3	H	1	0.15	1.0079
7174	HCMM	482	TMC3	H1	1	0.15	1.0079
7175	HCMM	482	TMC3	H2	1	0.15	1.0079
7176	C=O	482	TMC3	C7	1	0.5438	12.011
7177	C=O	482	TMC3	C8	1	0.5438	12.011
7178	O=C	482	TMC3	O1	1	-0.57	15.9994
7179	O=C	482	TMC3	O2	1	-0.57	15.9994
7180	CB	483	TMC3	C1	1	0.0862	12.011
7181	CB	483	TMC3	C2	1	-0.15	12.011
7182	CB	483	TMC3	C3	1	0.0862	12.011
7183	CB	483	TMC3	C4	1	-0.15	12.011
7184	CB	483	TMC3	C5	1	0.0862	12.011
7185	CB	483	TMC3	C6	1	-0.15	12.011
7186	C=O	483	TMC3	C	1	0.5438	12.011
7187	O=C	483	TMC3	O	1	-0.57	15.9994
7188	HCMM	483	TMC3	H	1	0.15	1.0079
7189	HCMM	483	TMC3	H1	1	0.15	1.0079
7190	HCMM	483	TMC3	H2	1	0.15	1.0079
7191	C=O	483	TMC3	C7	1	0.5438	12.011
7192	C=O	483	TMC3	C8	1	0.5438	12.011
7193	O=C	483	TMC3	O1	1	-0.57	15.9994
7194	O=C	483	TMC3	O2	1	-0.57	15.9994
7195	CB	484	MPD2	C	1	-0.15	12.011
7196	CB	484	MPD2	C1	1	0.117	12.011
7197	CB	484	MPD2	C2	1	-0.15	12.011
7198	CB	484	MPD2	C3	1	0.117	12.011
7199	CB	484	MPD2	C4	1	-0.15	12.011
7200	CB	484	MPD2	C5	1	-0.15	12.011
7201	HCMM	484	MPD2	H	1	0.15	1.0079
7202	HCMM	484	MPD2	H1	1	0.15	1.0079
7203	HCMM	484	MPD2	H2	1	0.15	1.0079
7204	HCMM	484	MPD2	H3	1	0.15	1.0079
7205	NC=O	484	MPD2	N	1	-0.547	14.0067
7206	HNCO	484	MPD2	H5	1	0.37	1.0079
7207	NC=O	484	MPD2	N1	1	-0.547	14.0067
7208	HNCO	484	MPD2	H7	1	0.37	1.0079
7209	CB	485	TMC3	C1	1	0.0862	12.011
7210	CB	485	TMC3	C2	1	-0.15	12.011
7211	CB	485	TMC3	C3	1	0.0862	12.011
7212	CB	485	TMC3	C4	1	-0.15	12.011
7213	CB	485	TMC3	C5	1	0.0862	12.011
7214	CB	485	TMC3	C6	1	-0.15	12.011
7215	C=O	485	TMC3	C	1	0.5438	12.011
7216	O=C	485	TMC3	O	1	-0.57	15.9994
7217	HCMM	485	TMC3	H	1	0.15	1.0079
7218	HCMM	485	TMC3	H1	1	0.15	1.0079
7219	HCMM	485	TMC3	H2	1	0.15	1.0079
7220	C=O	485	TMC3	C7	1	0.5438	12.011
7221	C=O	485	TMC3	C8	1	0.5438	12.011
7222	O=C	485	TMC3	O1	1	-0.57	15.9994
7223	O=C	485	TMC3	O2	1	-0.57	15.9994
7224	CB	486	MPD2	C	1	-0.15	12.011
7225	CB	486	MPD2	C1	1	0.117	12.011
7226	CB	486	MPD2	C2	1	-0.15	12.011
7227	CB	486	MPD2	C3	1	0.117	12.011
7228	CB	486	MPD2	C4	1	-0.15	12.011
7229	CB	486	MPD2	C5	1	-0.15	12.011
7230	HCMM	486	MPD2	H	1	0.15	1.0079
7231	HCMM	486	MPD2	H1	1	0.15	1.0079
7232	HCMM	486	MPD2	H2	1	0.15	1.0079
7233	HCMM	486	MPD2	H3	1	0.15	1.0079
7234	NC=O	486	MPD2	N	1	-0.547	14.0067
7235	HNCO	486	MPD2	H5	1	0.37	1.0079
7236	NC=O	486	MPD2	N1	1	-0.547	14.0067
7237	HNCO	486	MPD2	H7	1	0.37	1.0079
7238	CB	487	TMC3	C1	1	0.0862	12.011
7239	CB	487	TMC3	C2	1	-0.15	12.011
7240	CB	487	TMC3	C3	1	0.0862	12.011
7241	CB	487	TMC3	C4	1	-0.15	12.011
7242	CB	487	TMC3	C5	1	0.0862	12.011
7243	CB	487	TMC3	C6	1	-0.15	12.011
7244	C=O	487	TMC3	C	1	0.5438	12.011
7245	O=C	487	TMC3	O	1	-0.57	15.9994
7246	HCMM	487	TMC3	H	1	0.15	1.0079
7247	HCMM	487	TMC3	H1	1	0.15	1.0079
7248	HCMM	487	TMC3	H2	1	0.15	1.0079
7249	C=O	487	TMC3	C7	1	0.5438	12.011
7250	C=O	487	TMC3	C8	1	0.5438	12.011
7251	O=C	487	TMC3	O1	1	-0.57	15.9994
7252	O=C	487	TMC3	O2	1	-0.57	15.9994
7253	CB	488	MPD2	C	1	-0.15	12.011
7254	CB	488	MPD2	C1	1	0.117	12.011
7255	CB	488	MPD2	C2	1	-0.15	12.011
7256	CB	488	MPD2	C3	1	0.117	12.011
7257	CB	488	MPD2	C4	1	-0.15	12.011
7258	CB	488	MPD2	C5	1	-0.15	12.011
7259	HCMM	488	MPD2	H	1	0.15	1.0079
7260	HCMM	488	MPD2	H1	1	0.15	1.0079
7261	HCMM	488	MPD2	H2	1	0.15	1.0079
7262	HCMM	488	MPD2	H3	1	0.15	1.0079
7263	NC=O	488	MPD2	N	1	-0.547	14.0067
7264	HNCO	488	MPD2	H5	1	0.37	1.0079
7265	NC=O	488	MPD2	N1	1	-0.547	14.0067
7266	HNCO	488	MPD2	H7	1	0.37	1.0079
7267	CB	489	TMC3	C1	1	0.0862	12.011
7268	CB	489	TMC3	C2	1	-0.15	12.011
7269	CB	489	TMC3	C3	1	0.0862	12.011
7270	CB	489	TMC3	C4	1	-0.15	12.011
7271	CB	489	TMC3	C5	1	0.0862	12.011
7272	CB	489	TMC3	C6	1	-0.15	12.011
7273	C=O	489	TMC3	C	1	0.5438	12.011
7274	O=C	489	TMC3	O	1	-0.57	15.9994
7275	HCMM	489	TMC3	H	1	0.15	1.0079
7276	HCMM	489	TMC3	H1	1	0.15	1.0079
7277	HCMM	489	TMC3	H2	1	0.15	1.0079
7278	C=O	489	TMC3	C7	1	0.5438	12.011
7279	C=O	489	TMC3	C8	1	0.5438	12.011
7280	O=C	489	TMC3	O1	1	-0.57	15.9994
7281	O=C	489	TMC3	O2	1	-0.57	15.9994
7282	CB	490	MPD2	C	1	-0.15	12.011
7283	CB	490	MPD2	C1	1	0.117	12.011
7284	CB	490	MPD2	C2	1	-0.15	12.011
7285	CB	490	MPD2	C3	1	0.117	12.011
7286	CB	490	MPD2	C4	1	-0.15	12.011
7287	CB	490	MPD2	C5	1	-0.15	12.011
7288	HCMM	490	MPD2	H	1	0.15	1.0079
7289	HCMM	490	MPD2	H1	1	0.15	1.0079
7290	HCMM	490	MPD2	H2	1	0.15	1.0079
7291	HCMM	490	MPD2	H3	1	0.15	1.0079
7292	NC=O	490	MPD2	N	1	-0.547	14.0067
7293	HNCO	490	MPD2	H5	1	0.37	1.0079
7294	NC=O	490	MPD2	N1	1	-0.547	14.0067
7295	HNCO	490	MPD2	H7	1	0.37	1.0079
7296	CB	491	TMC3	C1	1	0.0862	12.011
7297	CB	491	TMC3	C2	1	-0.15	12.011
7298	CB	491	TMC3	C3	1	0.0862	12.011
7299	CB	491	TMC3	C4	1	-0.15	12.011
7300	CB	491	TMC3	C5	1	0.0862	12.011
7301	CB	491	TMC3	C6	1	-0.15	12.011
7302	C=O	491	TMC3	C	1	0.5438	12.011
7303	O=C	491	TMC3	O	1	-0.57	15.9994
7304	HCMM	491	TMC3	H	1	0.15	1.0079
7305	HCMM	491	TMC3	H1	1	0.15	1.0079
7306	HCMM	491	TMC3	H2	1	0.15	1.0079
7307	C=O	491	TMC3	C7	1	0.5438	12.011
7308	C=O	491	TMC3	C8	1	0.5438	12.011
7309	O=C	491	TMC3	O1	1	-0.57	15.9994
7310	O=C	491	TMC3	O2	1	-0.57	15.9994
7311	CB	492	MPD2	C	1	-0.15	12.011
7312	CB	492	MPD2	C1	1	0.117	12.011
7313	CB	492	MPD2	C2	1	-0.15	12.011
7314	CB	492	MPD2	C3	1	0.117	12.011
7315	CB	492	MPD2	C4	1	-0.15	12.011
7316	CB	492	MPD2	C5	1	-0.15	12.011
7317	HCMM	492	MPD2	H	1	0.15	1.0079
7318	HCMM	492	MPD2	H1	1	0.15	1.0079
7319	HCMM	492	MPD2	H2	1	0.15	1.0079
7320	HCMM	492	MPD2	H3	1	0.15	1.0079
7321	NC=O	492	MPD2	N	1	-0.547	14.0067
7322	HNCO	492	MPD2	H5	1	0.37	1.0079
7323	NC=O	492	MPD2	N1	1	-0.547	14.0067
7324	HNCO	492	MPD2	H7	1	0.37	1.0079
7325	CB	493	TMC3	C1	1	0.0862	12.011
7326	CB	493	TMC3	C2	1	-0.15	12.011
7327	CB	493	TMC3	C3	1	0.0862	12.011
7328	CB	493	TMC3	C4	1	-0.15	12.011
7329	CB	493	TMC3	C5	1	0.0862	12.011
7330	CB	493	TMC3	C6	1	-0.15	12.011
7331	C=O	493	TMC3	C	1	0.5438	12.011
7332	O=C	493	TMC3	O	1	-0.57	15.9994
7333	HCMM	493	TMC3	H	1	0.15	1.0079
7334	HCMM	493	TMC3	H1	1	0.15	1.0079
7335	HCMM	493	TMC3	H2	1	0.15	1.0079
7336	C=O	493	TMC3	C7	1	0.5438	12.011
7337	C=O	493	TMC3	C8	1	0.5438	12.011
7338	O=C	493	TMC3	O1	1	-0.57	15.9994
7339	O=C	493	TMC3	O2	1	-0.57	15.9994
7340	CB	494	TMC3	C1	1	0.0862	12.011
7341	CB	494	TMC3	C2	1	-0.15	12.011
7342	CB	494	TMC3	C3	1	0.0862	12.011
7343	CB	494	TMC3	C4	1	-0.15	12.011
7344	CB	494	TMC3	C5	1	0.0862	12.011
7345	CB	494	TMC3	C6	1	-0.15	12.011
7346	C=O	494	TMC3	C	1	0.5438	12.011
7347	O=C	494	TMC3	O	1	-0.57	15.9994
7348	HCMM	494	TMC3	H	1	0.15	1.0079
7349	HCMM	494	TMC3	H1	1	0.15	1.0079
7350	HCMM	494	TMC3	H2	1	0.15	1.0079
7351	C=O	494	TMC3	C7	1	0.5438	12.011
7352	C=O	494	TMC3	C8	1	0.5438	12.011
7353	O=C	494	TMC3	O1	1	-0.57	15.9994
7354	O=C	494	TMC3	O2	1	-0.57	15.9994
7355	CB	495	TMC3	C1	1	0.0862	12.011
7356	CB	495	TMC3	C2	1	-0.15	12.011
7357	CB	495	TMC3	C3	1	0.0862	12.011
7358	CB	495	TMC3	C4	1	-0.15	12.011
7359	CB	495	TMC3	C5	1	0.0862	12.011
7360	CB	495	TMC3	C6	1	-0.15	12.011
7361	C=O	495	TMC3	C	1	0.5438	12.011
7362	O=C	495	TMC3	O	1	-0.57	15.9994
7363	HCMM	495	TMC3	H	1	0.15	1.0079
7364	HCMM	495	TMC3	H1	1	0.15	1.0079
7365	HCMM	495	TMC3	H2	1	0.15	1.0079
7366	C=O	495	TMC3	C7	1	0.5438	12.011
7367	C=O	495	TMC3	C8	1	0.5438	12.011
7368	O=C	495	TMC3	O1	1	-0.57	15.9994
7369	O=C	495	TMC3	O2	1	-0.57	15.9994
7370	CB	496	MPD2	C	1	-0.15	12.011
7371	CB	496	MPD2	C1	1	0.117	12.011
7372	CB	496	MPD2	C2	1	-0.15	12.011
7373	CB	496	MPD2	C3	1	0.117	12.011
7374	CB	496	MPD2	C4	1	-0.15	12.011
7375	CB	496	MPD2	C5	1	-0.15	12.011
7376	HCMM	496	MPD2	H	1	0.15	1.0079
7377	HCMM	496	MPD2	H1	1	0.15	1.0079
7378	HCMM	496	MPD2	H2	1	0.15	1.0079
7379	HCMM	496	MPD2	H3	1	0.15	1.0079
7380	NC=O	496	MPD2	N	1	-0.547	14.0067
7381	HNCO	496	MPD2	H5	1	0.37	1.0079
7382	NC=O	496	MPD2	N1	1	-0.547	14.0067
7383	HNCO	496	MPD2	H7	1	0.37	1.0079
7384	CB	497	TMC3	C1	1	0.0862	12.011
7385	CB	497	TMC3	C2	1	-0.15	12.011
7386	CB	497	TMC3	C3	1	0.0862	12.011
7387	CB	497	TMC3	C4	1	-0.15	12.011
7388	CB	497	TMC3	C5	1	0.0862	12.011
7389	CB	497	TMC3	C6	1	-0.15	12.011
7390	C=O	497	TMC3	C	1	0.5438	12.011
7391	O=C	497	TMC3	O	1	-0.57	15.9994
7392	HCMM	497	TMC3	H	1	0.15	1.0079
7393	HCMM	497	TMC3	H1	1	0.15	1.0079
7394	HCMM	497	TMC3	H2	1	0.15	1.0079
7395	C=O	497	TMC3	C7	1	0.5438	12.011
7396	C=O	497	TMC3	C8	1	0.5438	12.011
7397	O=C	497	TMC3	O1	1	-0.57	15.9994
7398	O=C	497	TMC3	O2	1	-0.57	15.9994
7399	CB	498	MPD2	C	1	-0.15	12.011
7400	CB	498	MPD2	C1	1	0.117	12.011
7401	CB	498	MPD2	C2	1	-0.15	12.011
7402	CB	498	MPD2	C3	1	0.117	12.011
7403	CB	498	MPD2	C4	1	-0.15	12.011
7404	CB	498	MPD2	C5	1	-0.15	12.011
7405	HCMM	498	MPD2	H	1	0.15	1.0079
7406	HCMM	498	MPD2	H1	1	0.15	1.0079
7407	HCMM	498	MPD2	H2	1	0.15	1.0079
7408	HCMM	498	MPD2	H3	1	0.15	1.0079
7409	NC=O	498	MPD2	N	1	-0.547	14.0067
7410	HNCO	498	MPD2	H5	1	0.37	1.0079
7411	NC=O	498	MPD2	N1	1	-0.547	14.0067
7412	HNCO	498	MPD2	H7	1	0.37	1.0079
7413	CB	499	TMC3	C1	1	0.0862	12.011
7414	CB	499	TMC3	C2	1	-0.15	12.011
7415	CB	499	TMC3	C3	1	0.0862	12.011
7416	CB	499	TMC3	C4	1	-0.15	12.011
7417	CB	499	TMC3	C5	1	0.0862	12.011
7418	CB	499	TMC3	C6	1	-0.15	12.011
7419	C=O	499	TMC3	C	1	0.5438	12.011
7420	O=C	499	TMC3	O	1	-0.57	15.9994
7421	HCMM	499	TMC3	H	1	0.15	1.0079
7422	HCMM	499	TMC3	H1	1	0.15	1.0079
7423	HCMM	499	TMC3	H2	1	0.15	1.0079
7424	C=O	499	TMC3	C7	1	0.5438	12.011
7425	C=O	499	TMC3	C8	1	0.5438	12.011
7426	O=C	499	TMC3	O1	1	-0.57	15.9994
7427	O=C	499	TMC3	O2	1	-0.57	15.9994
7428	CB	500	MPD2	C	1	-0.15	12.011
7429	CB	500	MPD2	C1	1	0.117	12.011
7430	CB	500	MPD2	C2	1	-0.15	12.011
7431	CB	500	MPD2	C3	1	0.117	12.011
7432	CB	500	MPD2	C4	1	-0.15	12.011
7433	CB	500	MPD2	C5	1	-0.15	12.011
7434	HCMM	500	MPD2	H	1	0.15	1.0079
7435	HCMM	500	MPD2	H1	1	0.15	1.0079
7436	HCMM	500	MPD2	H2	1	0.15	1.0079
7437	HCMM	500	MPD2	H3	1	0.15	1.0079
7438	NC=O	500	MPD2	N	1	-0.547	14.0067
7439	HNCO	500	MPD2	H5	1	0.37	1.0079
7440	NC=O	500	MPD2	N1	1	-0.547	14.0067
7441	HNCO	500	MPD2	H7	1	0.37	1.0079
7442	CB	501	TMC3	C1	1	0.0862	12.011
7443	CB	501	TMC3	C2	1	-0.15	12.011
7444	CB	501	TMC3	C3	1	0.0862	12.011
7445	CB	501	TMC3	C4	1	-0.15	12.011
7446	CB	501	TMC3	C5	1	0.0862	12.011
7447	CB	501	TMC3	C6	1	-0.15	12.011
7448	C=O	501	TMC3	C	1	0.5438	12.011
7449	O=C	501	TMC3	O	1	-0.57	15.9994
7450	HCMM	501	TMC3	H	1	0.15	1.0079
7451	HCMM	501	TMC3	H1	1	0.15	1.0079
7452	HCMM	501	TMC3	H2	1	0.15	1.0079
7453	C=O	501	TMC3	C7	1	0.5438	12.011
7454	C=O	501	TMC3	C8	1	0.5438	12.011
7455	O=C	501	TMC3	O1	1	-0.57	15.9994
7456	O=C	501	TMC3	O2	1	-0.57	15.9994
7457	CB	502	TMC3	C1	1	0.0862	12.011
7458	CB	502	TMC3	C2	1	-0.15	12.011
7459	CB	502	TMC3	C3	1	0.0862	12.011
7460	CB	502	TMC3	C4	1	-0.15	12.011
7461	CB	502	TMC3	C5	1	0.0862	12.011
7462	CB	502	TMC3	C6	1	-0.15	12.011
7463	C=O	502	TMC3	C	1	0.5438	12.011
7464	O=C	502	TMC3	O	1	-0.57	15.9994
7465	HCMM	502	TMC3	H	1	0.15	1.0079
7466	HCMM	502	TMC3	H1	1	0.15	1.0079
7467	HCMM	502	TMC3	H2	1	0.15	1.0079
7468	C=O	502	TMC3	C7	1	0.5438	12.011
7469	C=O	502	TMC3	C8	1	0.5438	12.011
7470	O=C	502	TMC3	O1	1	-0.57	15.9994
7471	O=C	502	TMC3	O2	1	-0.57	15.9994
7472	CB	503	MPD2	C	1	-0.15	12.011
7473	CB	503	MPD2	C1	1	0.117	12.011
7474	CB	503	MPD2	C2	1	-0.15	12.011
7475	CB	503	MPD2	C3	1	0.117	12.011
7476	CB	503	MPD2	C4	1	-0.15	12.011
7477	CB	503	MPD2	C5	1	-0.15	12.011
7478	HCMM	503	MPD2	H	1	0.15	1.0079
7479	HCMM	503	MPD2	H1	1	0.15	1.0079
7480	HCMM	503	MPD2	H2	1	0.15	1.0079
7481	HCMM	503	MPD2	H3	1	0.15	1.0079
7482	NC=O	503	MPD2	N	1	-0.547	14.0067
7483	HNCO	503	MPD2	H5	1	0.37	1.0079
7484	NC=O	503	MPD2	N1	1	-0.547	14.0067
7485	HNCO	503	MPD2	H7	1	0.37	1.0079
7486	CB	504	TMC3	C1	1	0.0862	12.011
7487	CB	504	TMC3	C2	1	-0.15	12.011
7488	CB	504	TMC3	C3	1	0.0862	12.011
7489	CB	504	TMC3	C4	1	-0.15	12.011
7490	CB	504	TMC3	C5	1	0.0862	12.011
7491	CB	504	TMC3	C6	1	-0.15	12.011
7492	C=O	504	TMC3	C	1	0.5438	12.011
7493	O=C	504	TMC3	O	1	-0.57	15.9994
7494	HCMM	504	TMC3	H	1	0.15	1.0079
7495	HCMM	504	TMC3	H1	1	0.15	1.0079
7496	HCMM	504	TMC3	H2	1	0.15	1.0079
7497	C=O	504	TMC3	C7	1	0.5438	12.011
7498	C=O	504	TMC3	C8	1	0.5438	12.011
7499	O=C	504	TMC3	O1	1	-0.57	15.9994
7500	O=C	504	TMC3	O2	1	-0.57	15.9994
7501	CB	505	MPD2	C	1	-0.15	12.011
7502	CB	505	MPD2	C1	1	0.117	12.011
7503	CB	505	MPD2	C2	1	-0.15	12.011
7504	CB	505	MPD2	C3	1	0.117	12.011
7505	CB	505	MPD2	C4	1	-0.15	12.011
7506	CB	505	MPD2	C5	1	-0.15	12.011
7507	HCMM	505	MPD2	H	1	0.15	1.0079
7508	HCMM	505	MPD2	H1	1	0.15	1.0079
7509	HCMM	505	MPD2	H2	1	0.15	1.0079
7510	HCMM	505	MPD2	H3	1	0.15	1.0079
7511	NC=O	505	MPD2	N	1	-0.547	14.0067
7512	HNCO	505	MPD2	H5	1	0.37	1.0079
7513	NC=O	505	MPD2	N1	1	-0.547	14.0067
7514	HNCO	505	MPD2	H7	1	0.37	1.0079
7515	CB	506	TMC3	C1	1	0.0862	12.011
7516	CB	506	TMC3	C2	1	-0.15	12.011
7517	CB	506	TMC3	C3	1	0.0862	12.011
7518	CB	506	TMC3	C4	1	-0.15	12.011
7519	CB	506	TMC3	C5	1	0.0862	12.011
7520	CB	506	TMC3	C6	1	-0.15	12.011
7521	C=O	506	TMC3	C	1	0.5438	12.011
7522	O=C	506	TMC3	O	1	-0.57	15.9994
7523	HCMM	506	TMC3	H	1	0.15	1.0079
7524	HCMM	506	TMC3	H1	1	0.15	1.0079
7525	HCMM	506	TMC3	H2	1	0.15	1.0079
7526	C=O	506	TMC3	C7	1	0.5438	12.011
7527	C=O	506	TMC3	C8	1	0.5438	12.011
7528	O=C	506	TMC3	O1	1	-0.57	15.9994
7529	O=C	506	TMC3	O2	1	-0.57	15.9994
7530	CB	507	TMC3	C1	1	0.0862	12.011
7531	CB	507	TMC3	C2	1	-0.15	12.011
7532	CB	507	TMC3	C3	1	0.0862	12.011
7533	CB	507	TMC3	C4	1	-0.15	12.011
7534	CB	507	TMC3	C5	1	0.0862	12.011
7535	CB	507	TMC3	C6	1	-0.15	12.011
7536	C=O	507	TMC3	C	1	0.5438	12.011
7537	O=C	507	TMC3	O	1	-0.57	15.9994
7538	HCMM	507	TMC3	H	1	0.15	1.0079
7539	HCMM	507	TMC3	H1	1	0.15	1.0079
7540	HCMM	507	TMC3	H2	1	0.15	1.0079
7541	C=O	507	TMC3	C7	1	0.5438	12.011
7542	C=O	507	TMC3	C8	1	0.5438	12.011
7543	O=C	507	TMC3	O1	1	-0.57	15.9994
7544	O=C	507	TMC3	O2	1	-0.57	15.9994
7545	CB	508	MPD2	C	1	-0.15	12.011
7546	CB	508	MPD2	C1	1	0.117	12.011
7547	CB	508	MPD2	C2	1	-0.15	12.011
7548	CB	508	MPD2	C3	1	0.117	12.011
7549	CB	508	MPD2	C4	1	-0.15	12.011
7550	CB	508	MPD2	C5	1	-0.15	12.011
7551	HCMM	508	MPD2	H	1	0.15	1.0079
7552	HCMM	508	MPD2	H1	1	0.15	1.0079
7553	HCMM	508	MPD2	H2	1	0.15	1.0079
7554	HCMM	508	MPD2	H3	1	0.15	1.0079
7555	NC=O	508	MPD2	N	1	-0.547	14.0067
7556	HNCO	508	MPD2	H5	1	0.37	1.0079
7557	NC=O	508	MPD2	N1	1	-0.547	14.0067
7558	HNCO	508	MPD2	H7	1	0.37	1.0079
7559	CB	509	TMC3	C1	1	0.0862	12.011
7560	CB	509	TMC3	C2	1	-0.15	12.011
7561	CB	509	TMC3	C3	1	0.0862	12.011
7562	CB	509	TMC3	C4	1	-0.15	12.011
7563	CB	509	TMC3	C5	1	0.0862	12.011
7564	CB	509	TMC3	C6	1	-0.15	12.011
7565	C=O	509	TMC3	C	1	0.5438	12.011
7566	O=C	509	TMC3	O	1	-0.57	15.9994
7567	HCMM	509	TMC3	H	1	0.15	1.0079
7568	HCMM	509	TMC3	H1	1	0.15	1.0079
7569	HCMM	509	TMC3	H2	1	0.15	1.0079
7570	C=O	509	TMC3	C7	1	0.5438	12.011
7571	C=O	509	TMC3	C8	1	0.5438	12.011
7572	O=C	509	TMC3	O1	1	-0.57	15.9994
7573	O=C	509	TMC3	O2	1	-0.57	15.9994
7574	CB	510	MPD2	C	1	-0.15	12.011
7575	CB	510	MPD2	C1	1	0.117	12.011
7576	CB	510	MPD2	C2	1	-0.15	12.011
7577	CB	510	MPD2	C3	1	0.117	12.011
7578	CB	510	MPD2	C4	1	-0.15	12.011
7579	CB	510	MPD2	C5	1	-0.15	12.011
7580	HCMM	510	MPD2	H	1	0.15	1.0079
7581	HCMM	510	MPD2	H1	1	0.15	1.0079
7582	HCMM	510	MPD2	H2	1	0.15	1.0079
7583	HCMM	510	MPD2	H3	1	0.15	1.0079
7584	NC=O	510	MPD2	N	1	-0.547	14.0067
7585	HNCO	510	MPD2	H5	1	0.37	1.0079
7586	NC=O	510	MPD2	N1	1	-0.547	14.0067
7587	HNCO	510	MPD2	H7	1	0.37	1.0079
7588	CB	511	TMC3	C1	1	0.0862	12.011
7589	CB	511	TMC3	C2	1	-0.15	12.011
7590	CB	511	TMC3	C3	1	0.0862	12.011
7591	CB	511	TMC3	C4	1	-0.15	12.011
7592	CB	511	TMC3	C5	1	0.0862	12.011
7593	CB	511	TMC3	C6	1	-0.15	12.011
7594	C=O	511	TMC3	C	1	0.5438	12.011
7595	O=C	511	TMC3	O	1	-0.57	15.9994
7596	HCMM	511	TMC3	H	1	0.15	1.0079
7597	HCMM	511	TMC3	H1	1	0.15	1.0079
7598	HCMM	511	TMC3	H2	1	0.15	1.0079
7599	C=O	511	TMC3	C7	1	0.5438	12.011
7600	C=O	511	TMC3	C8	1	0.5438	12.011
7601	O=C	511	TMC3	O1	1	-0.57	15.9994
7602	O=C	511	TMC3	O2	1	-0.57	15.9994
7603	CB	512	TMC3	C1	1	0.0862	12.011
7604	CB	512	TMC3	C2	1	-0.15	12.011
7605	CB	512	TMC3	C3	1	0.0862	12.011
7606	CB	512	TMC3	C4	1	-0.15	12.011
7607	CB	512	TMC3	C5	1	0.0862	12.011
7608	CB	512	TMC3	C6	1	-0.15	12.011
7609	C=O	512	TMC3	C	1	0.5438	12.011
7610	O=C	512	TMC3	O	1	-0.57	15.9994
7611	HCMM	512	TMC3	H	1	0.15	1.0079
7612	HCMM	512	TMC3	H1	1	0.15	1.0079
7613	HCMM	512	TMC3	H2	1	0.15	1.0079
7614	C=O	512	TMC3	C7	1	0.5438	12.011
7615	C=O	512	TMC3	C8	1	0.5438	12.011
7616	O=C	512	TMC3	O1	1	-0.57	15.9994
7617	O=C	512	TMC3	O2	1	-0.57	15.9994
7618	CB	513	MPD2	C	1	-0.15	12.011
7619	CB	513	MPD2	C1	1	0.117	12.011
7620	CB	513	MPD2	C2	1	-0.15	12.011
7621	CB	513	MPD2	C3	1	0.117	12.011
7622	CB	513	MPD2	C4	1	-0.15	12.011
7623	CB	513	MPD2	C5	1	-0.15	12.011
7624	HCMM	513	MPD2	H	1	0.15	1.0079
7625	HCMM	513	MPD2	H1	1	0.15	1.0079
7626	HCMM	513	MPD2	H2	1	0.15	1.0079
7627	HCMM	513	MPD2	H3	1	0.15	1.0079
7628	NC=O	513	MPD2	N	1	-0.547	14.0067
7629	HNCO	513	MPD2	H5	1	0.37	1.0079
7630	NC=O	513	MPD2	N1	1	-0.547	14.0067
7631	HNCO	513	MPD2	H7	1	0.37	1.0079
7632	CB	514	TMC3	C1	1	0.0862	12.011
7633	CB	514	TMC3	C2	1	-0.15	12.011
7634	CB	514	TMC3	C3	1	0.0862	12.011
7635	CB	514	TMC3	C4	1	-0.15	12.011
7636	CB	514	TMC3	C5	1	0.0862	12.011
7637	CB	514	TMC3	C6	1	-0.15	12.011
7638	C=O	514	TMC3	C	1	0.5438	12.011
7639	O=C	514	TMC3	O	1	-0.57	15.9994
7640	HCMM	514	TMC3	H	1	0.15	1.0079
7641	HCMM	514	TMC3	H1	1	0.15	1.0079
7642	HCMM	514	TMC3	H2	1	0.15	1.0079
7643	C=O	514	TMC3	C7	1	0.5438	12.011
7644	C=O	514	TMC3	C8	1	0.5438	12.011
7645	O=C	514	TMC3	O1	1	-0.57	15.9994
7646	O=C	514	TMC3	O2	1	-0.57	15.9994
7647	CB	515	MPD2	C	1	-0.15	12.011
7648	CB	515	MPD2	C1	1	0.117	12.011
7649	CB	515	MPD2	C2	1	-0.15	12.011
7650	CB	515	MPD2	C3	1	0.117	12.011
7651	CB	515	MPD2	C4	1	-0.15	12.011
7652	CB	515	MPD2	C5	1	-0.15	12.011
7653	HCMM	515	MPD2	H	1	0.15	1.0079
7654	HCMM	515	MPD2	H1	1	0.15	1.0079
7655	HCMM	515	MPD2	H2	1	0.15	1.0079
7656	HCMM	515	MPD2	H3	1	0.15	1.0079
7657	NC=O	515	MPD2	N	1	-0.547	14.0067
7658	HNCO	515	MPD2	H5	1	0.37	1.0079
7659	NC=O	515	MPD2	N1	1	-0.547	14.0067
7660	HNCO	515	MPD2	H7	1	0.37	1.0079
7661	CB	516	TMC3	C1	1	0.0862	12.011
7662	CB	516	TMC3	C2	1	-0.15	12.011
7663	CB	516	TMC3	C3	1	0.0862	12.011
7664	CB	516	TMC3	C4	1	-0.15	12.011
7665	CB	516	TMC3	C5	1	0.0862	12.011
7666	CB	516	TMC3	C6	1	-0.15	12.011
7667	C=O	516	TMC3	C	1	0.5438	12.011
7668	O=C	516	TMC3	O	1	-0.57	15.9994
7669	HCMM	516	TMC3	H	1	0.15	1.0079
7670	HCMM	516	TMC3	H1	1	0.15	1.0079
7671	HCMM	516	TMC3	H2	1	0.15	1.0079
7672	C=O	516	TMC3	C7	1	0.5438	12.011
7673	C=O	516	TMC3	C8	1	0.5438	12.011
7674	O=C	516	TMC3	O1	1	-0.57	15.9994
7675	O=C	516	TMC3	O2	1	-0.57	15.9994
7676	CB	517	MPD2	C	1	-0.15	12.011
7677	CB	517	MPD2	C1	1	0.117	12.011
7678	CB	517	MPD2	C2	1	-0.15	12.011
7679	CB	517	MPD2	C3	1	0.117	12.011
7680	CB	517	MPD2	C4	1	-0.15	12.011
7681	CB	517	MPD2	C5	1	-0.15	12.011
7682	HCMM	517	MPD2	H	1	0.15	1.0079
7683	HCMM	517	MPD2	H1	1	0.15	1.0079
7684	HCMM	517	MPD2	H2	1	0.15	1.0079
7685	HCMM	517	MPD2	H3	1	0.15	1.0079
7686	NC=O	517	MPD2	N	1	-0.547	14.0067
7687	HNCO	517	MPD2	H5	1	0.37	1.0079
7688	NC=O	517	MPD2	N1	1	-0.547	14.0067
7689	HNCO	517	MPD2	H7	1	0.37	1.0079
7690	CB	518	TMC3	C1	1	0.0862	12.011
7691	CB	518	TMC3	C2	1	-0.15	12.011
7692	CB	518	TMC3	C3	1	0.0862	12.011
7693	CB	518	TMC3	C4	1	-0.15	12.011
7694	CB	518	TMC3	C5	1	0.0862	12.011
7695	CB	518	TMC3	C6	1	-0.15	12.011
7696	C=O	518	TMC3	C	1	0.5438	12.011
7697	O=C	518	TMC3	O	1	-0.57	15.9994
7698	HCMM	518	TMC3	H	1	0.15	1.0079
7699	HCMM	518	TMC3	H1	1	0.15	1.0079
7700	HCMM	518	TMC3	H2	1	0.15	1.0079
7701	C=O	518	TMC3	C7	1	0.5438	12.011
7702	C=O	518	TMC3	C8	1	0.5438	12.011
7703	O=C	518	TMC3	O1	1	-0.57	15.9994
7704	O=C	518	TMC3	O2	1	-0.57	15.9994
7705	CB	519	MPD2	C	1	-0.15	12.011
7706	CB	519	MPD2	C1	1	0.117	12.011
7707	CB	519	MPD2	C2	1	-0.15	12.011
7708	CB	519	MPD2	C3	1	0.117	12.011
7709	CB	519	MPD2	C4	1	-0.15	12.011
7710	CB	519	MPD2	C5	1	-0.15	12.011
7711	HCMM	519	MPD2	H	1	0.15	1.0079
7712	HCMM	519	MPD2	H1	1	0.15	1.0079
7713	HCMM	519	MPD2	H2	1	0.15	1.0079
7714	HCMM	519	MPD2	H3	1	0.15	1.0079
7715	NC=O	519	MPD2	N	1	-0.547	14.0067
7716	HNCO	519	MPD2	H5	1	0.37	1.0079
7717	NC=O	519	MPD2	N1	1	-0.547	14.0067
7718	HNCO	519	MPD2	H7	1	0.37	1.0079
7719	CB	520	TMC3	C1	1	0.0862	12.011
7720	CB	520	TMC3	C2	1	-0.15	12.011
7721	CB	520	TMC3	C3	1	0.0862	12.011
7722	CB	520	TMC3	C4	1	-0.15	12.011
7723	CB	520	TMC3	C5	1	0.0862	12.011
7724	CB	520	TMC3	C6	1	-0.15	12.011
7725	C=O	520	TMC3	C	1	0.5438	12.011
7726	O=C	520	TMC3	O	1	-0.57	15.9994
7727	HCMM	520	TMC3	H	1	0.15	1.0079
7728	HCMM	520	TMC3	H1	1	0.15	1.0079
7729	HCMM	520	TMC3	H2	1	0.15	1.0079
7730	C=O	520	TMC3	C7	1	0.5438	12.011
7731	C=O	520	TMC3	C8	1	0.5438	12.011
7732	O=C	520	TMC3	O1	1	-0.57	15.9994
7733	O=C	520	TMC3	O2	1	-0.57	15.9994
7734	CB	521	MPD2	C	1	-0.15	12.011
7735	CB	521	MPD2	C1	1	0.117	12.011
7736	CB	521	MPD2	C2	1	-0.15	12.011
7737	CB	521	MPD2	C3	1	0.117	12.011
7738	CB	521	MPD2	C4	1	-0.15	12.011
7739	CB	521	MPD2	C5	1	-0.15	12.011
7740	HCMM	521	MPD2	H	1	0.15	1.0079
7741	HCMM	521	MPD2	H1	1	0.15	1.0079
7742	HCMM	521	MPD2	H2	1	0.15	1.0079
7743	HCMM	521	MPD2	H3	1	0.15	1.0079
7744	NC=O	521	MPD2	N	1	-0.547	14.0067
7745	HNCO	521	MPD2	H5	1	0.37	1.0079
7746	NC=O	521	MPD2	N1	1	-0.547	14.0067
7747	HNCO	521	MPD2	H7	1	0.37	1.0079
7748	CB	522	TMC3	C1	1	0.0862	12.011
7749	CB	522	TMC3	C2	1	-0.15	12.011
7750	CB	522	TMC3	C3	1	0.0862	12.011
7751	CB	522	TMC3	C4	1	-0.15	12.011
7752	CB	522	TMC3	C5	1	0.0862	12.011
7753	CB	522	TMC3	C6	1	-0.15	12.011
7754	C=O	522	TMC3	C	1	0.5438	12.011
7755	O=C	522	TMC3	O	1	-0.57	15.9994
7756	HCMM	522	TMC3	H	1	0.15	1.0079
7757	HCMM	522	TMC3	H1	1	0.15	1.0079
7758	HCMM	522	TMC3	H2	1	0.15	1.0079
7759	C=O	522	TMC3	C7	1	0.5438	12.011
7760	C=O	522	TMC3	C8	1	0.5438	12.011
7761	O=C	522	TMC3	O1	1	-0.57	15.9994
7762	O=C	522	TMC3	O2	1	-0.57	15.9994
7763	CB	523	MPD2	C	1	-0.15	12.011
7764	CB	523	MPD2	C1	1	0.117	12.011
7765	CB	523	MPD2	C2	1	-0.15	12.011
7766	CB	523	MPD2	C3	1	0.117	12.011
7767	CB	523	MPD2	C4	1	-0.15	12.011
7768	CB	523	MPD2	C5	1	-0.15	12.011
7769	HCMM	523	MPD2	H	1	0.15	1.0079
7770	HCMM	523	MPD2	H1	1	0.15	1.0079
7771	HCMM	523	MPD2	H2	1	0.15	1.0079
7772	HCMM	523	MPD2	H3	1	0.15	1.0079
7773	NC=O	523	MPD2	N	1	-0.547	14.0067
7774	HNCO	523	MPD2	H5	1	0.37	1.0079
7775	NC=O	523	MPD2	N1	1	-0.547	14.0067
7776	HNCO	523	MPD2	H7	1	0.37	1.0079
7777	CB	524	TMC3	C1	1	0.0862	12.011
7778	CB	524	TMC3	C2	1	-0.15	12.011
7779	CB	524	TMC3	C3	1	0.0862	12.011
7780	CB	524	TMC3	C4	1	-0.15	12.011
7781	CB	524	TMC3	C5	1	0.0862	12.011
7782	CB	524	TMC3	C6	1	-0.15	12.011
7783	C=O	524	TMC3	C	1	0.5438	12.011
7784	O=C	524	TMC3	O	1	-0.57	15.9994
7785	HCMM	524	TMC3	H	1	0.15	1.0079
7786	HCMM	524	TMC3	H1	1	0.15	1.0079
7787	HCMM	524	TMC3	H2	1	0.15	1.0079
7788	C=O	524	TMC3	C7	1	0.5438	12.011
7789	C=O	524	TMC3	C8	1	0.5438	12.011
7790	O=C	524	TMC3	O1	1	-0.57	15.9994
7791	O=C	524	TMC3	O2	1	-0.57	15.9994
7792	CB	525	MPD2	C	1	-0.15	12.011
7793	CB	525	MPD2	C1	1	0.117	12.011
7794	CB	525	MPD2	C2	1	-0.15	12.011
7795	CB	525	MPD2	C3	1	0.117	12.011
7796	CB	525	MPD2	C4	1	-0.15	12.011
7797	CB	525	MPD2	C5	1	-0.15	12.011
7798	HCMM	525	MPD2	H	1	0.15	1.0079
7799	HCMM	525	MPD2	H1	1	0.15	1.0079
7800	HCMM	525	MPD2	H2	1	0.15	1.0079
7801	HCMM	525	MPD2	H3	1	0.15	1.0079
7802	NC=O	525	MPD2	N	1	-0.547	14.0067
7803	HNCO	525	MPD2	H5	1	0.37	1.0079
7804	NC=O	525	MPD2	N1	1	-0.547	14.0067
7805	HNCO	525	MPD2	H7	1	0.37	1.0079
7806	CB	526	TMC3	C1	1	0.0862	12.011
7807	CB	526	TMC3	C2	1	-0.15	12.011
7808	CB	526	TMC3	C3	1	0.0862	12.011
7809	CB	526	TMC3	C4	1	-0.15	12.011
7810	CB	526	TMC3	C5	1	0.0862	12.011
7811	CB	526	TMC3	C6	1	-0.15	12.011
7812	C=O	526	TMC3	C	1	0.5438	12.011
7813	O=C	526	TMC3	O	1	-0.57	15.9994
7814	HCMM	526	TMC3	H	1	0.15	1.0079
7815	HCMM	526	TMC3	H1	1	0.15	1.0079
7816	HCMM	526	TMC3	H2	1	0.15	1.0079
7817	C=O	526	TMC3	C7	1	0.5438	12.011
7818	C=O	526	TMC3	C8	1	0.5438	12.011
7819	O=C	526	TMC3	O1	1	-0.57	15.9994
7820	O=C	526	TMC3	O2	1	-0.57	15.9994
7821	CB	527	MPD2	C	1	-0.15	12.011
7822	CB	527	MPD2	C1	1	0.117	12.011
7823	CB	527	MPD2	C2	1	-0.15	12.011
7824	CB	527	MPD2	C3	1	0.117	12.011
7825	CB	527	MPD2	C4	1	-0.15	12.011
7826	CB	527	MPD2	C5	1	-0.15	12.011
7827	HCMM	527	MPD2	H	1	0.15	1.0079
7828	HCMM	527	MPD2	H1	1	0.15	1.0079
7829	HCMM	527	MPD2	H2	1	0.15	1.0079
7830	HCMM	527	MPD2	H3	1	0.15	1.0079
7831	NC=O	527	MPD2	N	1	-0.547	14.0067
7832	HNCO	527	MPD2	H5	1	0.37	1.0079
7833	NC=O	527	MPD2	N1	1	-0.547	14.0067
7834	HNCO	527	MPD2	H7	1	0.37	1.0079
7835	CB	528	TMC3	C1	1	0.0862	12.011
7836	CB	528	TMC3	C2	1	-0.15	12.011
7837	CB	528	TMC3	C3	1	0.0862	12.011
7838	CB	528	TMC3	C4	1	-0.15	12.011
7839	CB	528	TMC3	C5	1	0.0862	12.011
7840	CB	528	TMC3	C6	1	-0.15	12.011
7841	C=O	528	TMC3	C	1	0.5438	12.011
7842	O=C	528	TMC3	O	1	-0.57	15.9994
7843	HCMM	528	TMC3	H	1	0.15	1.0079
7844	HCMM	528	TMC3	H1	1	0.15	1.0079
7845	HCMM	528	TMC3	H2	1	0.15	1.0079
7846	C=O	528	TMC3	C7	1	0.5438	12.011
7847	C=O	528	TMC3	C8	1	0.5438	12.011
7848	O=C	528	TMC3	O1	1	-0.57	15.9994
7849	O=C	528	TMC3	O2	1	-0.57	15.9994
7850	CB	529	MPD2	C	1	-0.15	12.011
7851	CB	529	MPD2	C1	1	0.117	12.011
7852	CB	529	MPD2	C2	1	-0.15	12.011
7853	CB	529	MPD2	C3	1	0.117	12.011
7854	CB	529	MPD2	C4	1	-0.15	12.011
7855	CB	529	MPD2	C5	1	-0.15	12.011
7856	HCMM	529	MPD2	H	1	0.15	1.0079
7857	HCMM	529	MPD2	H1	1	0.15	1.0079
7858	HCMM	529	MPD2	H2	1	0.15	1.0079
7859	HCMM	529	MPD2	H3	1	0.15	1.0079
7860	NC=O	529	MPD2	N	1	-0.547	14.0067
7861	HNCO	529	MPD2	H5	1	0.37	1.0079
7862	NC=O	529	MPD2	N1	1	-0.547	14.0067
7863	HNCO	529	MPD2	H7	1	0.37	1.0079
7864	CB	530	TMC3	C1	1	0.0862	12.011
7865	CB	530	TMC3	C2	1	-0.15	12.011
7866	CB	530	TMC3	C3	1	0.0862	12.011
7867	CB	530	TMC3	C4	1	-0.15	12.011
7868	CB	530	TMC3	C5	1	0.0862	12.011
7869	CB	530	TMC3	C6	1	-0.15	12.011
7870	C=O	530	TMC3	C	1	0.5438	12.011
7871	O=C	530	TMC3	O	1	-0.57	15.9994
7872	HCMM	530	TMC3	H	1	0.15	1.0079
7873	HCMM	530	TMC3	H1	1	0.15	1.0079
7874	HCMM	530	TMC3	H2	1	0.15	1.0079
7875	C=O	530	TMC3	C7	1	0.5438	12.011
7876	C=O	530	TMC3	C8	1	0.5438	12.011
7877	O=C	530	TMC3	O1	1	-0.57	15.9994
7878	O=C	530	TMC3	O2	1	-0.57	15.9994
7879	CB	531	MPD2	C	1	-0.15	12.011
7880	CB	531	MPD2	C1	1	0.117	12.011
7881	CB	531	MPD2	C2	1	-0.15	12.011
7882	CB	531	MPD2	C3	1	0.117	12.011
7883	CB	531	MPD2	C4	1	-0.15	12.011
7884	CB	531	MPD2	C5	1	-0.15	12.011
7885	HCMM	531	MPD2	H	1	0.15	1.0079
7886	HCMM	531	MPD2	H1	1	0.15	1.0079
7887	HCMM	531	MPD2	H2	1	0.15	1.0079
7888	HCMM	531	MPD2	H3	1	0.15	1.0079
7889	NC=O	531	MPD2	N	1	-0.547	14.0067
7890	HNCO	531	MPD2	H5	1	0.37	1.0079
7891	NC=O	531	MPD2	N1	1	-0.547	14.0067
7892	HNCO	531	MPD2	H7	1	0.37	1.0079
7893	CB	532	TMC3	C1	1	0.0862	12.011
7894	CB	532	TMC3	C2	1	-0.15	12.011
7895	CB	532	TMC3	C3	1	0.0862	12.011
7896	CB	532	TMC3	C4	1	-0.15	12.011
7897	CB	532	TMC3	C5	1	0.0862	12.011
7898	CB	532	TMC3	C6	1	-0.15	12.011
7899	C=O	532	TMC3	C	1	0.5438	12.011
7900	O=C	532	TMC3	O	1	-0.57	15.9994
7901	HCMM	532	TMC3	H	1	0.15	1.0079
7902	HCMM	532	TMC3	H1	1	0.15	1.0079
7903	HCMM	532	TMC3	H2	1	0.15	1.0079
7904	C=O	532	TMC3	C7	1	0.5438	12.011
7905	C=O	532	TMC3	C8	1	0.5438	12.011
7906	O=C	532	TMC3	O1	1	-0.57	15.9994
7907	O=C	532	TMC3	O2	1	-0.57	15.9994
7908	CB	533	TMC3	C1	1	0.0862	12.011
7909	CB	533	TMC3	C2	1	-0.15	12.011
7910	CB	533	TMC3	C3	1	0.0862	12.011
7911	CB	533	TMC3	C4	1	-0.15	12.011
7912	CB	533	TMC3	C5	1	0.0862	12.011
7913	CB	533	TMC3	C6	1	-0.15	12.011
7914	C=O	533	TMC3	C	1	0.5438	12.011
7915	O=C	533	TMC3	O	1	-0.57	15.9994
7916	HCMM	533	TMC3	H	1	0.15	1.0079
7917	HCMM	533	TMC3	H1	1	0.15	1.0079
7918	HCMM	533	TMC3	H2	1	0.15	1.0079
7919	C=O	533	TMC3	C7	1	0.5438	12.011
7920	C=O	533	TMC3	C8	1	0.5438	12.011
7921	O=C	533	TMC3	O1	1	-0.57	15.9994
7922	O=C	533	TMC3	O2	1	-0.57	15.9994
7923	CB	534	MPD2	C	1	-0.15	12.011
7924	CB	534	MPD2	C1	1	0.117	12.011
7925	CB	534	MPD2	C2	1	-0.15	12.011
7926	CB	534	MPD2	C3	1	0.117	12.011
7927	CB	534	MPD2	C4	1	-0.15	12.011
7928	CB	534	MPD2	C5	1	-0.15	12.011
7929	HCMM	534	MPD2	H	1	0.15	1.0079
7930	HCMM	534	MPD2	H1	1	0.15	1.0079
7931	HCMM	534	MPD2	H2	1	0.15	1.0079
7932	HCMM	534	MPD2	H3	1	0.15	1.0079
7933	NC=O	534	MPD2	N	1	-0.547	14.0067
7934	HNCO	534	MPD2	H5	1	0.37	1.0079
7935	NC=O	534	MPD2	N1	1	-0.547	14.0067
7936	HNCO	534	MPD2	H7	1	0.37	1.0079
7937	CB	535	TMC3	C1	1	0.0862	12.011
7938	CB	535	TMC3	C2	1	-0.15	12.011
7939	CB	535	TMC3	C3	1	0.0862	12.011
7940	CB	535	TMC3	C4	1	-0.15	12.011
7941	CB	535	TMC3	C5	1	0.0862	12.011
7942	CB	535	TMC3	C6	1	-0.15	12.011
7943	C=O	535	TMC3	C	1	0.5438	12.011
7944	O=C	535	TMC3	O	1	-0.57	15.9994
7945	HCMM	535	TMC3	H	1	0.15	1.0079
7946	HCMM	535	TMC3	H1	1	0.15	1.0079
7947	HCMM	535	TMC3	H2	1	0.15	1.0079
7948	C=O	535	TMC3	C7	1	0.5438	12.011
7949	C=O	535	TMC3	C8	1	0.5438	12.011
7950	O=C	535	TMC3	O1	1	-0.57	15.9994
7951	O=C	535	TMC3	O2	1	-0.57	15.9994
7952	CB	536	MPD2	C	1	-0.15	12.011
7953	CB	536	MPD2	C1	1	0.117	12.011
7954	CB	536	MPD2	C2	1	-0.15	12.011
7955	CB	536	MPD2	C3	1	0.117	12.011
7956	CB	536	MPD2	C4	1	-0.15	12.011
7957	CB	536	MPD2	C5	1	-0.15	12.011
7958	HCMM	536	MPD2	H	1	0.15	1.0079
7959	HCMM	536	MPD2	H1	1	0.15	1.0079
7960	HCMM	536	MPD2	H2	1	0.15	1.0079
7961	HCMM	536	MPD2	H3	1	0.15	1.0079
7962	NC=O	536	MPD2	N	1	-0.547	14.0067
7963	HNCO	536	MPD2	H5	1	0.37	1.0079
7964	NC=O	536	MPD2	N1	1	-0.547	14.0067
7965	HNCO	536	MPD2	H7	1	0.37	1.0079
7966	CB	537	TMC3	C1	1	0.0862	12.011
7967	CB	537	TMC3	C2	1	-0.15	12.011
7968	CB	537	TMC3	C3	1	0.0862	12.011
7969	CB	537	TMC3	C4	1	-0.15	12.011
7970	CB	537	TMC3	C5	1	0.0862	12.011
7971	CB	537	TMC3	C6	1	-0.15	12.011
7972	C=O	537	TMC3	C	1	0.5438	12.011
7973	O=C	537	TMC3	O	1	-0.57	15.9994
7974	HCMM	537	TMC3	H	1	0.15	1.0079
7975	HCMM	537	TMC3	H1	1	0.15	1.0079
7976	HCMM	537	TMC3	H2	1	0.15	1.0079
7977	C=O	537	TMC3	C7	1	0.5438	12.011
7978	C=O	537	TMC3	C8	1	0.5438	12.011
7979	O=C	537	TMC3	O1	1	-0.57	15.9994
7980	O=C	537	TMC3	O2	1	-0.57	15.9994
7981	CB	538	TMC3	C1	1	0.0862	12.011
7982	CB	538	TMC3	C2	1	-0.15	12.011
7983	CB	538	TMC3	C3	1	0.0862	12.011
7984	CB	538	TMC3	C4	1	-0.15	12.011
7985	CB	538	TMC3	C5	1	0.0862	12.011
7986	CB	538	TMC3	C6	1	-0.15	12.011
7987	C=O	538	TMC3	C	1	0.5438	12.011
7988	O=C	538	TMC3	O	1	-0.57	15.9994
7989	HCMM	538	TMC3	H	1	0.15	1.0079
7990	HCMM	538	TMC3	H1	1	0.15	1.0079
7991	HCMM	538	TMC3	H2	1	0.15	1.0079
7992	C=O	538	TMC3	C7	1	0.5438	12.011
7993	C=O	538	TMC3	C8	1	0.5438	12.011
7994	O=C	538	TMC3	O1	1	-0.57	15.9994
7995	O=C	538	TMC3	O2	1	-0.57	15.9994
7996	CB	539	MPD2	C	1	-0.15	12.011
7997	CB	539	MPD2	C1	1	0.117	12.011
7998	CB	539	MPD2	C2	1	-0.15	12.011
7999	CB	539	MPD2	C3	1	0.117	12.011
8000	CB	539	MPD2	C4	1	-0.15	12.011
8001	CB	539	MPD2	C5	1	-0.15	12.011
8002	HCMM	539	MPD2	H	1	0.15	1.0079
8003	HCMM	539	MPD2	H1	1	0.15	1.0079
8004	HCMM	539	MPD2	H2	1	0.15	1.0079
8005	HCMM	539	MPD2	H3	1	0.15	1.0079
8006	NC=O	539	MPD2	N	1	-0.547	14.0067
8007	HNCO	539	MPD2	H5	1	0.37	1.0079
8008	NC=O	539	MPD2	N1	1	-0.547	14.0067
8009	HNCO	539	MPD2	H7	1	0.37	1.0079
8010	CB	540	TMC3	C1	1	0.0862	12.011
8011	CB	540	TMC3	C2	1	-0.15	12.011
8012	CB	540	TMC3	C3	1	0.0862	12.011
8013	CB	540	TMC3	C4	1	-0.15	12.011
8014	CB	540	TMC3	C5	1	0.0862	12.011
8015	CB	540	TMC3	C6	1	-0.15	12.011
8016	C=O	540	TMC3	C	1	0.5438	12.011
8017	O=C	540	TMC3	O	1	-0.57	15.9994
8018	HCMM	540	TMC3	H	1	0.15	1.0079
8019	HCMM	540	TMC3	H1	1	0.15	1.0079
8020	HCMM	540	TMC3	H2	1	0.15	1.0079
8021	C=O	540	TMC3	C7	1	0.5438	12.011
8022	C=O	540	TMC3	C8	1	0.5438	12.011
8023	O=C	540	TMC3	O1	1	-0.57	15.9994
8024	O=C	540	TMC3	O2	1	-0.57	15.9994
8025	CB	541	MPD2	C	1	-0.15	12.011
8026	CB	541	MPD2	C1	1	0.117	12.011
8027	CB	541	MPD2	C2	1	-0.15	12.011
8028	CB	541	MPD2	C3	1	0.117	12.011
8029	CB	541	MPD2	C4	1	-0.15	12.011
8030	CB	541	MPD2	C5	1	-0.15	12.011
8031	HCMM	541	MPD2	H	1	0.15	1.0079
8032	HCMM	541	MPD2	H1	1	0.15	1.0079
8033	HCMM	541	MPD2	H2	1	0.15	1.0079
8034	HCMM	541	MPD2	H3	1	0.15	1.0079
8035	NC=O	541	MPD2	N	1	-0.547	14.0067
8036	HNCO	541	MPD2	H5	1	0.37	1.0079
8037	NC=O	541	MPD2	N1	1	-0.547	14.0067
8038	HNCO	541	MPD2	H7	1	0.37	1.0079
8039	CB	542	TMC3	C1	1	0.0862	12.011
8040	CB	542	TMC3	C2	1	-0.15	12.011
8041	CB	542	TMC3	C3	1	0.0862	12.011
8042	CB	542	TMC3	C4	1	-0.15	12.011
8043	CB	542	TMC3	C5	1	0.0862	12.011
8044	CB	542	TMC3	C6	1	-0.15	12.011
8045	C=O	542	TMC3	C	1	0.5438	12.011
8046	O=C	542	TMC3	O	1	-0.57	15.9994
8047	HCMM	542	TMC3	H	1	0.15	1.0079
8048	HCMM	542	TMC3	H1	1	0.15	1.0079
8049	HCMM	542	TMC3	H2	1	0.15	1.0079
8050	C=O	542	TMC3	C7	1	0.5438	12.011
8051	C=O	542	TMC3	C8	1	0.5438	12.011
8052	O=C	542	TMC3	O1	1	-0.57	15.9994
8053	O=C	542	TMC3	O2	1	-0.57	15.9994
8054	CB	543	TMC3	C1	1	0.0862	12.011
8055	CB	543	TMC3	C2	1	-0.15	12.011
8056	CB	543	TMC3	C3	1	0.0862	12.011
8057	CB	543	TMC3	C4	1	-0.15	12.011
8058	CB	543	TMC3	C5	1	0.0862	12.011
8059	CB	543	TMC3	C6	1	-0.15	12.011
8060	C=O	543	TMC3	C	1	0.5438	12.011
8061	O=C	543	TMC3	O	1	-0.57	15.9994
8062	HCMM	543	TMC3	H	1	0.15	1.0079
8063	HCMM	543	TMC3	H1	1	0.15	1.0079
8064	HCMM	543	TMC3	H2	1	0.15	1.0079
8065	C=O	543	TMC3	C7	1	0.5438	12.011
8066	C=O	543	TMC3	C8	1	0.5438	12.011
8067	O=C	543	TMC3	O1	1	-0.57	15.9994
8068	O=C	543	TMC3	O2	1	-0.57	15.9994
8069	CB	544	MPD2	C	1	-0.15	12.011
8070	CB	544	MPD2	C1	1	0.117	12.011
8071	CB	544	MPD2	C2	1	-0.15	12.011
8072	CB	544	MPD2	C3	1	0.117	12.011
8073	CB	544	MPD2	C4	1	-0.15	12.011
8074	CB	544	MPD2	C5	1	-0.15	12.011
8075	HCMM	544	MPD2	H	1	0.15	1.0079
8076	HCMM	544	MPD2	H1	1	0.15	1.0079
8077	HCMM	544	MPD2	H2	1	0.15	1.0079
8078	HCMM	544	MPD2	H3	1	0.15	1.0079
8079	NC=O	544	MPD2	N	1	-0.547	14.0067
8080	HNCO	544	MPD2	H5	1	0.37	1.0079
8081	NC=O	544	MPD2	N1	1	-0.547	14.0067
8082	HNCO	544	MPD2	H7	1	0.37	1.0079
8083	CB	545	TMC3	C1	1	0.0862	12.011
8084	CB	545	TMC3	C2	1	-0.15	12.011
8085	CB	545	TMC3	C3	1	0.0862	12.011
8086	CB	545	TMC3	C4	1	-0.15	12.011
8087	CB	545	TMC3	C5	1	0.0862	12.011
8088	CB	545	TMC3	C6	1	-0.15	12.011
8089	C=O	545	TMC3	C	1	0.5438	12.011
8090	O=C	545	TMC3	O	1	-0.57	15.9994
8091	HCMM	545	TMC3	H	1	0.15	1.0079
8092	HCMM	545	TMC3	H1	1	0.15	1.0079
8093	HCMM	545	TMC3	H2	1	0.15	1.0079
8094	C=O	545	TMC3	C7	1	0.5438	12.011
8095	C=O	545	TMC3	C8	1	0.5438	12.011
8096	O=C	545	TMC3	O1	1	-0.57	15.9994
8097	O=C	545	TMC3	O2	1	-0.57	15.9994
8098	CB	546	MPD2	C	1	-0.15	12.011
8099	CB	546	MPD2	C1	1	0.117	12.011
8100	CB	546	MPD2	C2	1	-0.15	12.011
8101	CB	546	MPD2	C3	1	0.117	12.011
8102	CB	546	MPD2	C4	1	-0.15	12.011
8103	CB	546	MPD2	C5	1	-0.15	12.011
8104	HCMM	546	MPD2	H	1	0.15	1.0079
8105	HCMM	546	MPD2	H1	1	0.15	1.0079
8106	HCMM	546	MPD2	H2	1	0.15	1.0079
8107	HCMM	546	MPD2	H3	1	0.15	1.0079
8108	NC=O	546	MPD2	N	1	-0.547	14.0067
8109	HNCO	546	MPD2	H5	1	0.37	1.0079
8110	NC=O	546	MPD2	N1	1	-0.547	14.0067
8111	HNCO	546	MPD2	H7	1	0.37	1.0079
8112	CB	547	TMC3	C1	1	0.0862	12.011
8113	CB	547	TMC3	C2	1	-0.15	12.011
8114	CB	547	TMC3	C3	1	0.0862	12.011
8115	CB	547	TMC3	C4	1	-0.15	12.011
8116	CB	547	TMC3	C5	1	0.0862	12.011
8117	CB	547	TMC3	C6	1	-0.15	12.011
8118	C=O	547	TMC3	C	1	0.5438	12.011
8119	O=C	547	TMC3	O	1	-0.57	15.9994
8120	HCMM	547	TMC3	H	1	0.15	1.0079
8121	HCMM	547	TMC3	H1	1	0.15	1.0079
8122	HCMM	547	TMC3	H2	1	0.15	1.0079
8123	C=O	547	TMC3	C7	1	0.5438	12.011
8124	C=O	547	TMC3	C8	1	0.5438	12.011
8125	O=C	547	TMC3	O1	1	-0.57	15.9994
8126	O=C	547	TMC3	O2	1	-0.57	15.9994
8127	CB	548	MPD2	C	1	-0.15	12.011
8128	CB	548	MPD2	C1	1	0.117	12.011
8129	CB	548	MPD2	C2	1	-0.15	12.011
8130	CB	548	MPD2	C3	1	0.117	12.011
8131	CB	548	MPD2	C4	1	-0.15	12.011
8132	CB	548	MPD2	C5	1	-0.15	12.011
8133	HCMM	548	MPD2	H	1	0.15	1.0079
8134	HCMM	548	MPD2	H1	1	0.15	1.0079
8135	HCMM	548	MPD2	H2	1	0.15	1.0079
8136	HCMM	548	MPD2	H3	1	0.15	1.0079
8137	NC=O	548	MPD2	N	1	-0.547	14.0067
8138	HNCO	548	MPD2	H5	1	0.37	1.0079
8139	NC=O	548	MPD2	N1	1	-0.547	14.0067
8140	HNCO	548	MPD2	H7	1	0.37	1.0079
8141	CB	549	TMC3	C1	1	0.0862	12.011
8142	CB	549	TMC3	C2	1	-0.15	12.011
8143	CB	549	TMC3	C3	1	0.0862	12.011
8144	CB	549	TMC3	C4	1	-0.15	12.011
8145	CB	549	TMC3	C5	1	0.0862	12.011
8146	CB	549	TMC3	C6	1	-0.15	12.011
8147	C=O	549	TMC3	C	1	0.5438	12.011
8148	O=C	549	TMC3	O	1	-0.57	15.9994
8149	HCMM	549	TMC3	H	1	0.15	1.0079
8150	HCMM	549	TMC3	H1	1	0.15	1.0079
8151	HCMM	549	TMC3	H2	1	0.15	1.0079
8152	C=O	549	TMC3	C7	1	0.5438	12.011
8153	C=O	549	TMC3	C8	1	0.5438	12.011
8154	O=C	549	TMC3	O1	1	-0.57	15.9994
8155	O=C	549	TMC3	O2	1	-0.57	15.9994
8156	CB	550	TMC3	C1	1	0.0862	12.011
8157	CB	550	TMC3	C2	1	-0.15	12.011
8158	CB	550	TMC3	C3	1	0.0862	12.011
8159	CB	550	TMC3	C4	1	-0.15	12.011
8160	CB	550	TMC3	C5	1	0.0862	12.011
8161	CB	550	TMC3	C6	1	-0.15	12.011
8162	C=O	550	TMC3	C	1	0.5438	12.011
8163	O=C	550	TMC3	O	1	-0.57	15.9994
8164	HCMM	550	TMC3	H	1	0.15	1.0079
8165	HCMM	550	TMC3	H1	1	0.15	1.0079
8166	HCMM	550	TMC3	H2	1	0.15	1.0079
8167	C=O	550	TMC3	C7	1	0.5438	12.011
8168	C=O	550	TMC3	C8	1	0.5438	12.011
8169	O=C	550	TMC3	O1	1	-0.57	15.9994
8170	O=C	550	TMC3	O2	1	-0.57	15.9994
8171	CB	551	TMC3	C1	1	0.0862	12.011
8172	CB	551	TMC3	C2	1	-0.15	12.011
8173	CB	551	TMC3	C3	1	0.0862	12.011
8174	CB	551	TMC3	C4	1	-0.15	12.011
8175	CB	551	TMC3	C5	1	0.0862	12.011
8176	CB	551	TMC3	C6	1	-0.15	12.011
8177	C=O	551	TMC3	C	1	0.5438	12.011
8178	O=C	551	TMC3	O	1	-0.57	15.9994
8179	HCMM	551	TMC3	H	1	0.15	1.0079
8180	HCMM	551	TMC3	H1	1	0.15	1.0079
8181	HCMM	551	TMC3	H2	1	0.15	1.0079
8182	C=O	551	TMC3	C7	1	0.5438	12.011
8183	C=O	551	TMC3	C8	1	0.5438	12.011
8184	O=C	551	TMC3	O1	1	-0.57	15.9994
8185	O=C	551	TMC3	O2	1	-0.57	15.9994
8186	CB	552	MPD2	C	1	-0.15	12.011
8187	CB	552	MPD2	C1	1	0.117	12.011
8188	CB	552	MPD2	C2	1	-0.15	12.011
8189	CB	552	MPD2	C3	1	0.117	12.011
8190	CB	552	MPD2	C4	1	-0.15	12.011
8191	CB	552	MPD2	C5	1	-0.15	12.011
8192	HCMM	552	MPD2	H	1	0.15	1.0079
8193	HCMM	552	MPD2	H1	1	0.15	1.0079
8194	HCMM	552	MPD2	H2	1	0.15	1.0079
8195	HCMM	552	MPD2	H3	1	0.15	1.0079
8196	NC=O	552	MPD2	N	1	-0.547	14.0067
8197	HNCO	552	MPD2	H5	1	0.37	1.0079
8198	NC=O	552	MPD2	N1	1	-0.547	14.0067
8199	HNCO	552	MPD2	H7	1	0.37	1.0079
8200	CB	553	TMC3	C1	1	0.0862	12.011
8201	CB	553	TMC3	C2	1	-0.15	12.011
8202	CB	553	TMC3	C3	1	0.0862	12.011
8203	CB	553	TMC3	C4	1	-0.15	12.011
8204	CB	553	TMC3	C5	1	0.0862	12.011
8205	CB	553	TMC3	C6	1	-0.15	12.011
8206	C=O	553	TMC3	C	1	0.5438	12.011
8207	O=C	553	TMC3	O	1	-0.57	15.9994
8208	HCMM	553	TMC3	H	1	0.15	1.0079
8209	HCMM	553	TMC3	H1	1	0.15	1.0079
8210	HCMM	553	TMC3	H2	1	0.15	1.0079
8211	C=O	553	TMC3	C7	1	0.5438	12.011
8212	C=O	553	TMC3	C8	1	0.5438	12.011
8213	O=C	553	TMC3	O1	1	-0.57	15.9994
8214	O=C	553	TMC3	O2	1	-0.57	15.9994
8215	CB	554	TMC3	C1	1	0.0862	12.011
8216	CB	554	TMC3	C2	1	-0.15	12.011
8217	CB	554	TMC3	C3	1	0.0862	12.011
8218	CB	554	TMC3	C4	1	-0.15	12.011
8219	CB	554	TMC3	C5	1	0.0862	12.011
8220	CB	554	TMC3	C6	1	-0.15	12.011
8221	C=O	554	TMC3	C	1	0.5438	12.011
8222	O=C	554	TMC3	O	1	-0.57	15.9994
8223	HCMM	554	TMC3	H	1	0.15	1.0079
8224	HCMM	554	TMC3	H1	1	0.15	1.0079
8225	HCMM	554	TMC3	H2	1	0.15	1.0079
8226	C=O	554	TMC3	C7	1	0.5438	12.011
8227	C=O	554	TMC3	C8	1	0.5438	12.011
8228	O=C	554	TMC3	O1	1	-0.57	15.9994
8229	O=C	554	TMC3	O2	1	-0.57	15.9994
8230	CB	555	TMC3	C1	1	0.0862	12.011
8231	CB	555	TMC3	C2	1	-0.15	12.011
8232	CB	555	TMC3	C3	1	0.0862	12.011
8233	CB	555	TMC3	C4	1	-0.15	12.011
8234	CB	555	TMC3	C5	1	0.0862	12.011
8235	CB	555	TMC3	C6	1	-0.15	12.011
8236	C=O	555	TMC3	C	1	0.5438	12.011
8237	O=C	555	TMC3	O	1	-0.57	15.9994
8238	HCMM	555	TMC3	H	1	0.15	1.0079
8239	HCMM	555	TMC3	H1	1	0.15	1.0079
8240	HCMM	555	TMC3	H2	1	0.15	1.0079
8241	C=O	555	TMC3	C7	1	0.5438	12.011
8242	C=O	555	TMC3	C8	1	0.5438	12.011
8243	O=C	555	TMC3	O1	1	-0.57	15.9994
8244	O=C	555	TMC3	O2	1	-0.57	15.9994
8245	CB	556	MPD2	C	1	-0.15	12.011
8246	CB	556	MPD2	C1	1	0.117	12.011
8247	CB	556	MPD2	C2	1	-0.15	12.011
8248	CB	556	MPD2	C3	1	0.117	12.011
8249	CB	556	MPD2	C4	1	-0.15	12.011
8250	CB	556	MPD2	C5	1	-0.15	12.011
8251	HCMM	556	MPD2	H	1	0.15	1.0079
8252	HCMM	556	MPD2	H1	1	0.15	1.0079
8253	HCMM	556	MPD2	H2	1	0.15	1.0079
8254	HCMM	556	MPD2	H3	1	0.15	1.0079
8255	NC=O	556	MPD2	N	1	-0.547	14.0067
8256	HNCO	556	MPD2	H5	1	0.37	1.0079
8257	NC=O	556	MPD2	N1	1	-0.547	14.0067
8258	HNCO	556	MPD2	H7	1	0.37	1.0079
8259	CB	557	TMC3	C1	1	0.0862	12.011
8260	CB	557	TMC3	C2	1	-0.15	12.011
8261	CB	557	TMC3	C3	1	0.0862	12.011
8262	CB	557	TMC3	C4	1	-0.15	12.011
8263	CB	557	TMC3	C5	1	0.0862	12.011
8264	CB	557	TMC3	C6	1	-0.15	12.011
8265	C=O	557	TMC3	C	1	0.5438	12.011
8266	O=C	557	TMC3	O	1	-0.57	15.9994
8267	HCMM	557	TMC3	H	1	0.15	1.0079
8268	HCMM	557	TMC3	H1	1	0.15	1.0079
8269	HCMM	557	TMC3	H2	1	0.15	1.0079
8270	C=O	557	TMC3	C7	1	0.5438	12.011
8271	C=O	557	TMC3	C8	1	0.5438	12.011
8272	O=C	557	TMC3	O1	1	-0.57	15.9994
8273	O=C	557	TMC3	O2	1	-0.57	15.9994
8274	CB	558	TMC3	C1	1	0.0862	12.011
8275	CB	558	TMC3	C2	1	-0.15	12.011
8276	CB	558	TMC3	C3	1	0.0862	12.011
8277	CB	558	TMC3	C4	1	-0.15	12.011
8278	CB	558	TMC3	C5	1	0.0862	12.011
8279	CB	558	TMC3	C6	1	-0.15	12.011
8280	C=O	558	TMC3	C	1	0.5438	12.011
8281	O=C	558	TMC3	O	1	-0.57	15.9994
8282	HCMM	558	TMC3	H	1	0.15	1.0079
8283	HCMM	558	TMC3	H1	1	0.15	1.0079
8284	HCMM	558	TMC3	H2	1	0.15	1.0079
8285	C=O	558	TMC3	C7	1	0.5438	12.011
8286	C=O	558	TMC3	C8	1	0.5438	12.011
8287	O=C	558	TMC3	O1	1	-0.57	15.9994
8288	O=C	558	TMC3	O2	1	-0.57	15.9994
8289	CB	559	MPD2	C	1	-0.15	12.011
8290	CB	559	MPD2	C1	1	0.117	12.011
8291	CB	559	MPD2	C2	1	-0.15	12.011
8292	CB	559	MPD2	C3	1	0.117	12.011
8293	CB	559	MPD2	C4	1	-0.15	12.011
8294	CB	559	MPD2	C5	1	-0.15	12.011
8295	HCMM	559	MPD2	H	1	0.15	1.0079
8296	HCMM	559	MPD2	H1	1	0.15	1.0079
8297	HCMM	559	MPD2	H2	1	0.15	1.0079
8298	HCMM	559	MPD2	H3	1	0.15	1.0079
8299	NC=O	559	MPD2	N	1	-0.547	14.0067
8300	HNCO	559	MPD2	H5	1	0.37	1.0079
8301	NC=O	559	MPD2	N1	1	-0.547	14.0067
8302	HNCO	559	MPD2	H7	1	0.37	1.0079
8303	CB	560	TMC3	C1	1	0.0862	12.011
8304	CB	560	TMC3	C2	1	-0.15	12.011
8305	CB	560	TMC3	C3	1	0.0862	12.011
8306	CB	560	TMC3	C4	1	-0.15	12.011
8307	CB	560	TMC3	C5	1	0.0862	12.011
8308	CB	560	TMC3	C6	1	-0.15	12.011
8309	C=O	560	TMC3	C	1	0.5438	12.011
8310	O=C	560	TMC3	O	1	-0.57	15.9994
8311	HCMM	560	TMC3	H	1	0.15	1.0079
8312	HCMM	560	TMC3	H1	1	0.15	1.0079
8313	HCMM	560	TMC3	H2	1	0.15	1.0079
8314	C=O	560	TMC3	C7	1	0.5438	12.011
8315	C=O	560	TMC3	C8	1	0.5438	12.011
8316	O=C	560	TMC3	O1	1	-0.57	15.9994
8317	O=C	560	TMC3	O2	1	-0.57	15.9994
8318	CB	561	TMC3	C1	1	0.0862	12.011
8319	CB	561	TMC3	C2	1	-0.15	12.011
8320	CB	561	TMC3	C3	1	0.0862	12.011
8321	CB	561	TMC3	C4	1	-0.15	12.011
8322	CB	561	TMC3	C5	1	0.0862	12.011
8323	CB	561	TMC3	C6	1	-0.15	12.011
8324	C=O	561	TMC3	C	1	0.5438	12.011
8325	O=C	561	TMC3	O	1	-0.57	15.9994
8326	HCMM	561	TMC3	H	1	0.15	1.0079
8327	HCMM	561	TMC3	H1	1	0.15	1.0079
8328	HCMM	561	TMC3	H2	1	0.15	1.0079
8329	C=O	561	TMC3	C7	1	0.5438	12.011
8330	C=O	561	TMC3	C8	1	0.5438	12.011
8331	O=C	561	TMC3	O1	1	-0.57	15.9994
8332	O=C	561	TMC3	O2	1	-0.57	15.9994
8333	CB	562	TMC3	C1	1	0.0862	12.011
8334	CB	562	TMC3	C2	1	-0.15	12.011
8335	CB	562	TMC3	C3	1	0.0862	12.011
8336	CB	562	TMC3	C4	1	-0.15	12.011
8337	CB	562	TMC3	C5	1	0.0862	12.011
8338	CB	562	TMC3	C6	1	-0.15	12.011
8339	C=O	562	TMC3	C	1	0.5438	12.011
8340	O=C	562	TMC3	O	1	-0.57	15.9994
8341	HCMM	562	TMC3	H	1	0.15	1.0079
8342	HCMM	562	TMC3	H1	1	0.15	1.0079
8343	HCMM	562	TMC3	H2	1	0.15	1.0079
8344	C=O	562	TMC3	C7	1	0.5438	12.011
8345	C=O	562	TMC3	C8	1	0.5438	12.011
8346	O=C	562	TMC3	O1	1	-0.57	15.9994
8347	O=C	562	TMC3	O2	1	-0.57	15.9994
8348	CB	563	MPD2	C	1	-0.15	12.011
8349	CB	563	MPD2	C1	1	0.117	12.011
8350	CB	563	MPD2	C2	1	-0.15	12.011
8351	CB	563	MPD2	C3	1	0.117	12.011
8352	CB	563	MPD2	C4	1	-0.15	12.011
8353	CB	563	MPD2	C5	1	-0.15	12.011
8354	HCMM	563	MPD2	H	1	0.15	1.0079
8355	HCMM	563	MPD2	H1	1	0.15	1.0079
8356	HCMM	563	MPD2	H2	1	0.15	1.0079
8357	HCMM	563	MPD2	H3	1	0.15	1.0079
8358	NC=O	563	MPD2	N	1	-0.547	14.0067
8359	HNCO	563	MPD2	H5	1	0.37	1.0079
8360	NC=O	563	MPD2	N1	1	-0.547	14.0067
8361	HNCO	563	MPD2	H7	1	0.37	1.0079
8362	CB	564	TMC3	C1	1	0.0862	12.011
8363	CB	564	TMC3	C2	1	-0.15	12.011
8364	CB	564	TMC3	C3	1	0.0862	12.011
8365	CB	564	TMC3	C4	1	-0.15	12.011
8366	CB	564	TMC3	C5	1	0.0862	12.011
8367	CB	564	TMC3	C6	1	-0.15	12.011
8368	C=O	564	TMC3	C	1	0.5438	12.011
8369	O=C	564	TMC3	O	1	-0.57	15.9994
8370	HCMM	564	TMC3	H	1	0.15	1.0079
8371	HCMM	564	TMC3	H1	1	0.15	1.0079
8372	HCMM	564	TMC3	H2	1	0.15	1.0079
8373	C=O	564	TMC3	C7	1	0.5438	12.011
8374	C=O	564	TMC3	C8	1	0.5438	12.011
8375	O=C	564	TMC3	O1	1	-0.57	15.9994
8376	O=C	564	TMC3	O2	1	-0.57	15.9994
8377	CB	565	TMC3	C1	1	0.0862	12.011
8378	CB	565	TMC3	C2	1	-0.15	12.011
8379	CB	565	TMC3	C3	1	0.0862	12.011
8380	CB	565	TMC3	C4	1	-0.15	12.011
8381	CB	565	TMC3	C5	1	0.0862	12.011
8382	CB	565	TMC3	C6	1	-0.15	12.011
8383	C=O	565	TMC3	C	1	0.5438	12.011
8384	O=C	565	TMC3	O	1	-0.57	15.9994
8385	HCMM	565	TMC3	H	1	0.15	1.0079
8386	HCMM	565	TMC3	H1	1	0.15	1.0079
8387	HCMM	565	TMC3	H2	1	0.15	1.0079
8388	C=O	565	TMC3	C7	1	0.5438	12.011
8389	C=O	565	TMC3	C8	1	0.5438	12.011
8390	O=C	565	TMC3	O1	1	-0.57	15.9994
8391	O=C	565	TMC3	O2	1	-0.57	15.9994
8392	CB	566	MPD2	C	1	-0.15	12.011
8393	CB	566	MPD2	C1	1	0.117	12.011
8394	CB	566	MPD2	C2	1	-0.15	12.011
8395	CB	566	MPD2	C3	1	0.117	12.011
8396	CB	566	MPD2	C4	1	-0.15	12.011
8397	CB	566	MPD2	C5	1	-0.15	12.011
8398	HCMM	566	MPD2	H	1	0.15	1.0079
8399	HCMM	566	MPD2	H1	1	0.15	1.0079
8400	HCMM	566	MPD2	H2	1	0.15	1.0079
8401	HCMM	566	MPD2	H3	1	0.15	1.0079
8402	NC=O	566	MPD2	N	1	-0.547	14.0067
8403	HNCO	566	MPD2	H5	1	0.37	1.0079
8404	NC=O	566	MPD2	N1	1	-0.547	14.0067
8405	HNCO	566	MPD2	H7	1	0.37	1.0079
8406	CB	567	TMC3	C1	1	0.0862	12.011
8407	CB	567	TMC3	C2	1	-0.15	12.011
8408	CB	567	TMC3	C3	1	0.0862	12.011
8409	CB	567	TMC3	C4	1	-0.15	12.011
8410	CB	567	TMC3	C5	1	0.0862	12.011
8411	CB	567	TMC3	C6	1	-0.15	12.011
8412	C=O	567	TMC3	C	1	0.5438	12.011
8413	O=C	567	TMC3	O	1	-0.57	15.9994
8414	HCMM	567	TMC3	H	1	0.15	1.0079
8415	HCMM	567	TMC3	H1	1	0.15	1.0079
8416	HCMM	567	TMC3	H2	1	0.15	1.0079
8417	C=O	567	TMC3	C7	1	0.5438	12.011
8418	C=O	567	TMC3	C8	1	0.5438	12.011
8419	O=C	567	TMC3	O1	1	-0.57	15.9994
8420	O=C	567	TMC3	O2	1	-0.57	15.9994
8421	CB	568	MPD2	C	1	-0.15	12.011
8422	CB	568	MPD2	C1	1	0.117	12.011
8423	CB	568	MPD2	C2	1	-0.15	12.011
8424	CB	568	MPD2	C3	1	0.117	12.011
8425	CB	568	MPD2	C4	1	-0.15	12.011
8426	CB	568	MPD2	C5	1	-0.15	12.011
8427	HCMM	568	MPD2	H	1	0.15	1.0079
8428	HCMM	568	MPD2	H1	1	0.15	1.0079
8429	HCMM	568	MPD2	H2	1	0.15	1.0079
8430	HCMM	568	MPD2	H3	1	0.15	1.0079
8431	NC=O	568	MPD2	N	1	-0.547	14.0067
8432	HNCO	568	MPD2	H5	1	0.37	1.0079
8433	NC=O	568	MPD2	N1	1	-0.547	14.0067
8434	HNCO	568	MPD2	H7	1	0.37	1.0079
8435	CB	569	TMC3	C1	1	0.0862	12.011
8436	CB	569	TMC3	C2	1	-0.15	12.011
8437	CB	569	TMC3	C3	1	0.0862	12.011
8438	CB	569	TMC3	C4	1	-0.15	12.011
8439	CB	569	TMC3	C5	1	0.0862	12.011
8440	CB	569	TMC3	C6	1	-0.15	12.011
8441	C=O	569	TMC3	C	1	0.5438	12.011
8442	O=C	569	TMC3	O	1	-0.57	15.9994
8443	HCMM	569	TMC3	H	1	0.15	1.0079
8444	HCMM	569	TMC3	H1	1	0.15	1.0079
8445	HCMM	569	TMC3	H2	1	0.15	1.0079
8446	C=O	569	TMC3	C7	1	0.5438	12.011
8447	C=O	569	TMC3	C8	1	0.5438	12.011
8448	O=C	569	TMC3	O1	1	-0.57	15.9994
8449	O=C	569	TMC3	O2	1	-0.57	15.9994
8450	CB	570	TMC3	C1	1	0.0862	12.011
8451	CB	570	TMC3	C2	1	-0.15	12.011
8452	CB	570	TMC3	C3	1	0.0862	12.011
8453	CB	570	TMC3	C4	1	-0.15	12.011
8454	CB	570	TMC3	C5	1	0.0862	12.011
8455	CB	570	TMC3	C6	1	-0.15	12.011
8456	C=O	570	TMC3	C	1	0.5438	12.011
8457	O=C	570	TMC3	O	1	-0.57	15.9994
8458	HCMM	570	TMC3	H	1	0.15	1.0079
8459	HCMM	570	TMC3	H1	1	0.15	1.0079
8460	HCMM	570	TMC3	H2	1	0.15	1.0079
8461	C=O	570	TMC3	C7	1	0.5438	12.011
8462	C=O	570	TMC3	C8	1	0.5438	12.011
8463	O=C	570	TMC3	O1	1	-0.57	15.9994
8464	O=C	570	TMC3	O2	1	-0.57	15.9994
8465	CB	571	MPD2	C	1	-0.15	12.011
8466	CB	571	MPD2	C1	1	0.117	12.011
8467	CB	571	MPD2	C2	1	-0.15	12.011
8468	CB	571	MPD2	C3	1	0.117	12.011
8469	CB	571	MPD2	C4	1	-0.15	12.011
8470	CB	571	MPD2	C5	1	-0.15	12.011
8471	HCMM	571	MPD2	H	1	0.15	1.0079
8472	HCMM	571	MPD2	H1	1	0.15	1.0079
8473	HCMM	571	MPD2	H2	1	0.15	1.0079
8474	HCMM	571	MPD2	H3	1	0.15	1.0079
8475	NC=O	571	MPD2	N	1	-0.547	14.0067
8476	HNCO	571	MPD2	H5	1	0.37	1.0079
8477	NC=O	571	MPD2	N1	1	-0.547	14.0067
8478	HNCO	571	MPD2	H7	1	0.37	1.0079
8479	CB	572	TMC3	C1	1	0.0862	12.011
8480	CB	572	TMC3	C2	1	-0.15	12.011
8481	CB	572	TMC3	C3	1	0.0862	12.011
8482	CB	572	TMC3	C4	1	-0.15	12.011
8483	CB	572	TMC3	C5	1	0.0862	12.011
8484	CB	572	TMC3	C6	1	-0.15	12.011
8485	C=O	572	TMC3	C	1	0.5438	12.011
8486	O=C	572	TMC3	O	1	-0.57	15.9994
8487	HCMM	572	TMC3	H	1	0.15	1.0079
8488	HCMM	572	TMC3	H1	1	0.15	1.0079
8489	HCMM	572	TMC3	H2	1	0.15	1.0079
8490	C=O	572	TMC3	C7	1	0.5438	12.011
8491	C=O	572	TMC3	C8	1	0.5438	12.011
8492	O=C	572	TMC3	O1	1	-0.57	15.9994
8493	O=C	572	TMC3	O2	1	-0.57	15.9994
8494	CB	573	MPD2	C	1	-0.15	12.011
8495	CB	573	MPD2	C1	1	0.117	12.011
8496	CB	573	MPD2	C2	1	-0.15	12.011
8497	CB	573	MPD2	C3	1	0.117	12.011
8498	CB	573	MPD2	C4	1	-0.15	12.011
8499	CB	573	MPD2	C5	1	-0.15	12.011
8500	HCMM	573	MPD2	H	1	0.15	1.0079
8501	HCMM	573	MPD2	H1	1	0.15	1.0079
8502	HCMM	573	MPD2	H2	1	0.15	1.0079
8503	HCMM	573	MPD2	H3	1	0.15	1.0079
8504	NC=O	573	MPD2	N	1	-0.547	14.0067
8505	HNCO	573	MPD2	H5	1	0.37	1.0079
8506	NC=O	573	MPD2	N1	1	-0.547	14.0067
8507	HNCO	573	MPD2	H7	1	0.37	1.0079
8508	CB	574	TMC3	C1	1	0.0862	12.011
8509	CB	574	TMC3	C2	1	-0.15	12.011
8510	CB	574	TMC3	C3	1	0.0862	12.011
8511	CB	574	TMC3	C4	1	-0.15	12.011
8512	CB	574	TMC3	C5	1	0.0862	12.011
8513	CB	574	TMC3	C6	1	-0.15	12.011
8514	C=O	574	TMC3	C	1	0.5438	12.011
8515	O=C	574	TMC3	O	1	-0.57	15.9994
8516	HCMM	574	TMC3	H	1	0.15	1.0079
8517	HCMM	574	TMC3	H1	1	0.15	1.0079
8518	HCMM	574	TMC3	H2	1	0.15	1.0079
8519	C=O	574	TMC3	C7	1	0.5438	12.011
8520	C=O	574	TMC3	C8	1	0.5438	12.011
8521	O=C	574	TMC3	O1	1	-0.57	15.9994
8522	O=C	574	TMC3	O2	1	-0.57	15.9994
8523	CB	575	TMC3	C1	1	0.0862	12.011
8524	CB	575	TMC3	C2	1	-0.15	12.011
8525	CB	575	TMC3	C3	1	0.0862	12.011
8526	CB	575	TMC3	C4	1	-0.15	12.011
8527	CB	575	TMC3	C5	1	0.0862	12.011
8528	CB	575	TMC3	C6	1	-0.15	12.011
8529	C=O	575	TMC3	C	1	0.5438	12.011
8530	O=C	575	TMC3	O	1	-0.57	15.9994
8531	HCMM	575	TMC3	H	1	0.15	1.0079
8532	HCMM	575	TMC3	H1	1	0.15	1.0079
8533	HCMM	575	TMC3	H2	1	0.15	1.0079
8534	C=O	575	TMC3	C7	1	0.5438	12.011
8535	C=O	575	TMC3	C8	1	0.5438	12.011
8536	O=C	575	TMC3	O1	1	-0.57	15.9994
8537	O=C	575	TMC3	O2	1	-0.57	15.9994
8538	CB	576	MPD2	C	1	-0.15	12.011
8539	CB	576	MPD2	C1	1	0.117	12.011
8540	CB	576	MPD2	C2	1	-0.15	12.011
8541	CB	576	MPD2	C3	1	0.117	12.011
8542	CB	576	MPD2	C4	1	-0.15	12.011
8543	CB	576	MPD2	C5	1	-0.15	12.011
8544	HCMM	576	MPD2	H	1	0.15	1.0079
8545	HCMM	576	MPD2	H1	1	0.15	1.0079
8546	HCMM	576	MPD2	H2	1	0.15	1.0079
8547	HCMM	576	MPD2	H3	1	0.15	1.0079
8548	NC=O	576	MPD2	N	1	-0.547	14.0067
8549	HNCO	576	MPD2	H5	1	0.37	1.0079
8550	NC=O	576	MPD2	N1	1	-0.547	14.0067
8551	HNCO	576	MPD2	H7	1	0.37	1.0079
8552	CB	577	TMC3	C1	1	0.0862	12.011
8553	CB	577	TMC3	C2	1	-0.15	12.011
8554	CB	577	TMC3	C3	1	0.0862	12.011
8555	CB	577	TMC3	C4	1	-0.15	12.011
8556	CB	577	TMC3	C5	1	0.0862	12.011
8557	CB	577	TMC3	C6	1	-0.15	12.011
8558	C=O	577	TMC3	C	1	0.5438	12.011
8559	O=C	577	TMC3	O	1	-0.57	15.9994
8560	HCMM	577	TMC3	H	1	0.15	1.0079
8561	HCMM	577	TMC3	H1	1	0.15	1.0079
8562	HCMM	577	TMC3	H2	1	0.15	1.0079
8563	C=O	577	TMC3	C7	1	0.5438	12.011
8564	C=O	577	TMC3	C8	1	0.5438	12.011
8565	O=C	577	TMC3	O1	1	-0.57	15.9994
8566	O=C	577	TMC3	O2	1	-0.57	15.9994
8567	CB	578	MPD2	C	1	-0.15	12.011
8568	CB	578	MPD2	C1	1	0.117	12.011
8569	CB	578	MPD2	C2	1	-0.15	12.011
8570	CB	578	MPD2	C3	1	0.117	12.011
8571	CB	578	MPD2	C4	1	-0.15	12.011
8572	CB	578	MPD2	C5	1	-0.15	12.011
8573	HCMM	578	MPD2	H	1	0.15	1.0079
8574	HCMM	578	MPD2	H1	1	0.15	1.0079
8575	HCMM	578	MPD2	H2	1	0.15	1.0079
8576	HCMM	578	MPD2	H3	1	0.15	1.0079
8577	NC=O	578	MPD2	N	1	-0.547	14.0067
8578	HNCO	578	MPD2	H5	1	0.37	1.0079
8579	NC=O	578	MPD2	N1	1	-0.547	14.0067
8580	HNCO	578	MPD2	H7	1	0.37	1.0079
8581	CB	579	TMC3	C1	1	0.0862	12.011
8582	CB	579	TMC3	C2	1	-0.15	12.011
8583	CB	579	TMC3	C3	1	0.0862	12.011
8584	CB	579	TMC3	C4	1	-0.15	12.011
8585	CB	579	TMC3	C5	1	0.0862	12.011
8586	CB	579	TMC3	C6	1	-0.15	12.011
8587	C=O	579	TMC3	C	1	0.5438	12.011
8588	O=C	579	TMC3	O	1	-0.57	15.9994
8589	HCMM	579	TMC3	H	1	0.15	1.0079
8590	HCMM	579	TMC3	H1	1	0.15	1.0079
8591	HCMM	579	TMC3	H2	1	0.15	1.0079
8592	C=O	579	TMC3	C7	1	0.5438	12.011
8593	C=O	579	TMC3	C8	1	0.5438	12.011
8594	O=C	579	TMC3	O1	1	-0.57	15.9994
8595	O=C	579	TMC3	O2	1	-0.57	15.9994
8596	CB	580	TMC3	C1	1	0.0862	12.011
8597	CB	580	TMC3	C2	1	-0.15	12.011
8598	CB	580	TMC3	C3	1	0.0862	12.011
8599	CB	580	TMC3	C4	1	-0.15	12.011
8600	CB	580	TMC3	C5	1	0.0862	12.011
8601	CB	580	TMC3	C6	1	-0.15	12.011
8602	C=O	580	TMC3	C	1	0.5438	12.011
8603	O=C	580	TMC3	O	1	-0.57	15.9994
8604	HCMM	580	TMC3	H	1	0.15	1.0079
8605	HCMM	580	TMC3	H1	1	0.15	1.0079
8606	HCMM	580	TMC3	H2	1	0.15	1.0079
8607	C=O	580	TMC3	C7	1	0.5438	12.011
8608	C=O	580	TMC3	C8	1	0.5438	12.011
8609	O=C	580	TMC3	O1	1	-0.57	15.9994
8610	O=C	580	TMC3	O2	1	-0.57	15.9994
8611	CB	581	MPD2	C	1	-0.15	12.011
8612	CB	581	MPD2	C1	1	0.117	12.011
8613	CB	581	MPD2	C2	1	-0.15	12.011
8614	CB	581	MPD2	C3	1	0.117	12.011
8615	CB	581	MPD2	C4	1	-0.15	12.011
8616	CB	581	MPD2	C5	1	-0.15	12.011
8617	HCMM	581	MPD2	H	1	0.15	1.0079
8618	HCMM	581	MPD2	H1	1	0.15	1.0079
8619	HCMM	581	MPD2	H2	1	0.15	1.0079
8620	HCMM	581	MPD2	H3	1	0.15	1.0079
8621	NC=O	581	MPD2	N	1	-0.547	14.0067
8622	HNCO	581	MPD2	H5	1	0.37	1.0079
8623	NC=O	581	MPD2	N1	1	-0.547	14.0067
8624	HNCO	581	MPD2	H7	1	0.37	1.0079
8625	CB	582	TMC3	C1	1	0.0862	12.011
8626	CB	582	TMC3	C2	1	-0.15	12.011
8627	CB	582	TMC3	C3	1	0.0862	12.011
8628	CB	582	TMC3	C4	1	-0.15	12.011
8629	CB	582	TMC3	C5	1	0.0862	12.011
8630	CB	582	TMC3	C6	1	-0.15	12.011
8631	C=O	582	TMC3	C	1	0.5438	12.011
8632	O=C	582	TMC3	O	1	-0.57	15.9994
8633	HCMM	582	TMC3	H	1	0.15	1.0079
8634	HCMM	582	TMC3	H1	1	0.15	1.0079
8635	HCMM	582	TMC3	H2	1	0.15	1.0079
8636	C=O	582	TMC3	C7	1	0.5438	12.011
8637	C=O	582	TMC3	C8	1	0.5438	12.011
8638	O=C	582	TMC3	O1	1	-0.57	15.9994
8639	O=C	582	TMC3	O2	1	-0.57	15.9994
8640	CB	583	MPD2	C	1	-0.15	12.011
8641	CB	583	MPD2	C1	1	0.117	12.011
8642	CB	583	MPD2	C2	1	-0.15	12.011
8643	CB	583	MPD2	C3	1	0.117	12.011
8644	CB	583	MPD2	C4	1	-0.15	12.011
8645	CB	583	MPD2	C5	1	-0.15	12.011
8646	HCMM	583	MPD2	H	1	0.15	1.0079
8647	HCMM	583	MPD2	H1	1	0.15	1.0079
8648	HCMM	583	MPD2	H2	1	0.15	1.0079
8649	HCMM	583	MPD2	H3	1	0.15	1.0079
8650	NC=O	583	MPD2	N	1	-0.547	14.0067
8651	HNCO	583	MPD2	H5	1	0.37	1.0079
8652	NC=O	583	MPD2	N1	1	-0.547	14.0067
8653	HNCO	583	MPD2	H7	1	0.37	1.0079
8654	CB	584	TMC3	C1	1	0.0862	12.011
8655	CB	584	TMC3	C2	1	-0.15	12.011
8656	CB	584	TMC3	C3	1	0.0862	12.011
8657	CB	584	TMC3	C4	1	-0.15	12.011
8658	CB	584	TMC3	C5	1	0.0862	12.011
8659	CB	584	TMC3	C6	1	-0.15	12.011
8660	C=O	584	TMC3	C	1	0.5438	12.011
8661	O=C	584	TMC3	O	1	-0.57	15.9994
8662	HCMM	584	TMC3	H	1	0.15	1.0079
8663	HCMM	584	TMC3	H1	1	0.15	1.0079
8664	HCMM	584	TMC3	H2	1	0.15	1.0079
8665	C=O	584	TMC3	C7	1	0.5438	12.011
8666	C=O	584	TMC3	C8	1	0.5438	12.011
8667	O=C	584	TMC3	O1	1	-0.57	15.9994
8668	O=C	584	TMC3	O2	1	-0.57	15.9994
8669	CB	585	MPD2	C	1	-0.15	12.011
8670	CB	585	MPD2	C1	1	0.117	12.011
8671	CB	585	MPD2	C2	1	-0.15	12.011
8672	CB	585	MPD2	C3	1	0.117	12.011
8673	CB	585	MPD2	C4	1	-0.15	12.011
8674	CB	585	MPD2	C5	1	-0.15	12.011
8675	HCMM	585	MPD2	H	1	0.15	1.0079
8676	HCMM	585	MPD2	H1	1	0.15	1.0079
8677	HCMM	585	MPD2	H2	1	0.15	1.0079
8678	HCMM	585	MPD2	H3	1	0.15	1.0079
8679	NC=O	585	MPD2	N	1	-0.547	14.0067
8680	HNCO	585	MPD2	H5	1	0.37	1.0079
8681	NC=O	585	MPD2	N1	1	-0.547	14.0067
8682	HNCO	585	MPD2	H7	1	0.37	1.0079
8683	CB	586	TMC3	C1	1	0.0862	12.011
8684	CB	586	TMC3	C2	1	-0.15	12.011
8685	CB	586	TMC3	C3	1	0.0862	12.011
8686	CB	586	TMC3	C4	1	-0.15	12.011
8687	CB	586	TMC3	C5	1	0.0862	12.011
8688	CB	586	TMC3	C6	1	-0.15	12.011
8689	C=O	586	TMC3	C	1	0.5438	12.011
8690	O=C	586	TMC3	O	1	-0.57	15.9994
8691	HCMM	586	TMC3	H	1	0.15	1.0079
8692	HCMM	586	TMC3	H1	1	0.15	1.0079
8693	HCMM	586	TMC3	H2	1	0.15	1.0079
8694	C=O	586	TMC3	C7	1	0.5438	12.011
8695	C=O	586	TMC3	C8	1	0.5438	12.011
8696	O=C	586	TMC3	O1	1	-0.57	15.9994
8697	O=C	586	TMC3	O2	1	-0.57	15.9994
8698	CB	587	TMC3	C1	1	0.0862	12.011
8699	CB	587	TMC3	C2	1	-0.15	12.011
8700	CB	587	TMC3	C3	1	0.0862	12.011
8701	CB	587	TMC3	C4	1	-0.15	12.011
8702	CB	587	TMC3	C5	1	0.0862	12.011
8703	CB	587	TMC3	C6	1	-0.15	12.011
8704	C=O	587	TMC3	C	1	0.5438	12.011
8705	O=C	587	TMC3	O	1	-0.57	15.9994
8706	HCMM	587	TMC3	H	1	0.15	1.0079
8707	HCMM	587	TMC3	H1	1	0.15	1.0079
8708	HCMM	587	TMC3	H2	1	0.15	1.0079
8709	C=O	587	TMC3	C7	1	0.5438	12.011
8710	C=O	587	TMC3	C8	1	0.5438	12.011
8711	O=C	587	TMC3	O1	1	-0.57	15.9994
8712	O=C	587	TMC3	O2	1	-0.57	15.9994
8713	CB	588	TMC3	C1	1	0.0862	12.011
8714	CB	588	TMC3	C2	1	-0.15	12.011
8715	CB	588	TMC3	C3	1	0.0862	12.011
8716	CB	588	TMC3	C4	1	-0.15	12.011
8717	CB	588	TMC3	C5	1	0.0862	12.011
8718	CB	588	TMC3	C6	1	-0.15	12.011
8719	C=O	588	TMC3	C	1	0.5438	12.011
8720	O=C	588	TMC3	O	1	-0.57	15.9994
8721	HCMM	588	TMC3	H	1	0.15	1.0079
8722	HCMM	588	TMC3	H1	1	0.15	1.0079
8723	HCMM	588	TMC3	H2	1	0.15	1.0079
8724	C=O	588	TMC3	C7	1	0.5438	12.011
8725	C=O	588	TMC3	C8	1	0.5438	12.011
8726	O=C	588	TMC3	O1	1	-0.57	15.9994
8727	O=C	588	TMC3	O2	1	-0.57	15.9994
8728	CB	589	TMC3	C1	1	0.0862	12.011
8729	CB	589	TMC3	C2	1	-0.15	12.011
8730	CB	589	TMC3	C3	1	0.0862	12.011
8731	CB	589	TMC3	C4	1	-0.15	12.011
8732	CB	589	TMC3	C5	1	0.0862	12.011
8733	CB	589	TMC3	C6	1	-0.15	12.011
8734	C=O	589	TMC3	C	1	0.5438	12.011
8735	O=C	589	TMC3	O	1	-0.57	15.9994
8736	HCMM	589	TMC3	H	1	0.15	1.0079
8737	HCMM	589	TMC3	H1	1	0.15	1.0079
8738	HCMM	589	TMC3	H2	1	0.15	1.0079
8739	C=O	589	TMC3	C7	1	0.5438	12.011
8740	C=O	589	TMC3	C8	1	0.5438	12.011
8741	O=C	589	TMC3	O1	1	-0.57	15.9994
8742	O=C	589	TMC3	O2	1	-0.57	15.9994
8743	CB	590	MPD2	C	1	-0.15	12.011
8744	CB	590	MPD2	C1	1	0.117	12.011
8745	CB	590	MPD2	C2	1	-0.15	12.011
8746	CB	590	MPD2	C3	1	0.117	12.011
8747	CB	590	MPD2	C4	1	-0.15	12.011
8748	CB	590	MPD2	C5	1	-0.15	12.011
8749	HCMM	590	MPD2	H	1	0.15	1.0079
8750	HCMM	590	MPD2	H1	1	0.15	1.0079
8751	HCMM	590	MPD2	H2	1	0.15	1.0079
8752	HCMM	590	MPD2	H3	1	0.15	1.0079
8753	NC=O	590	MPD2	N	1	-0.547	14.0067
8754	HNCO	590	MPD2	H5	1	0.37	1.0079
8755	NC=O	590	MPD2	N1	1	-0.547	14.0067
8756	HNCO	590	MPD2	H7	1	0.37	1.0079
8757	CB	591	TMC3	C1	1	0.0862	12.011
8758	CB	591	TMC3	C2	1	-0.15	12.011
8759	CB	591	TMC3	C3	1	0.0862	12.011
8760	CB	591	TMC3	C4	1	-0.15	12.011
8761	CB	591	TMC3	C5	1	0.0862	12.011
8762	CB	591	TMC3	C6	1	-0.15	12.011
8763	C=O	591	TMC3	C	1	0.5438	12.011
8764	O=C	591	TMC3	O	1	-0.57	15.9994
8765	HCMM	591	TMC3	H	1	0.15	1.0079
8766	HCMM	591	TMC3	H1	1	0.15	1.0079
8767	HCMM	591	TMC3	H2	1	0.15	1.0079
8768	C=O	591	TMC3	C7	1	0.5438	12.011
8769	C=O	591	TMC3	C8	1	0.5438	12.011
8770	O=C	591	TMC3	O1	1	-0.57	15.9994
8771	O=C	591	TMC3	O2	1	-0.57	15.9994
8772	CB	592	MPD2	C	1	-0.15	12.011
8773	CB	592	MPD2	C1	1	0.117	12.011
8774	CB	592	MPD2	C2	1	-0.15	12.011
8775	CB	592	MPD2	C3	1	0.117	12.011
8776	CB	592	MPD2	C4	1	-0.15	12.011
8777	CB	592	MPD2	C5	1	-0.15	12.011
8778	HCMM	592	MPD2	H	1	0.15	1.0079
8779	HCMM	592	MPD2	H1	1	0.15	1.0079
8780	HCMM	592	MPD2	H2	1	0.15	1.0079
8781	HCMM	592	MPD2	H3	1	0.15	1.0079
8782	NC=O	592	MPD2	N	1	-0.547	14.0067
8783	HNCO	592	MPD2	H5	1	0.37	1.0079
8784	NC=O	592	MPD2	N1	1	-0.547	14.0067
8785	HNCO	592	MPD2	H7	1	0.37	1.0079
8786	CB	593	TMC3	C1	1	0.0862	12.011
8787	CB	593	TMC3	C2	1	-0.15	12.011
8788	CB	593	TMC3	C3	1	0.0862	12.011
8789	CB	593	TMC3	C4	1	-0.15	12.011
8790	CB	593	TMC3	C5	1	0.0862	12.011
8791	CB	593	TMC3	C6	1	-0.15	12.011
8792	C=O	593	TMC3	C	1	0.5438	12.011
8793	O=C	593	TMC3	O	1	-0.57	15.9994
8794	HCMM	593	TMC3	H	1	0.15	1.0079
8795	HCMM	593	TMC3	H1	1	0.15	1.0079
8796	HCMM	593	TMC3	H2	1	0.15	1.0079
8797	C=O	593	TMC3	C7	1	0.5438	12.011
8798	C=O	593	TMC3	C8	1	0.5438	12.011
8799	O=C	593	TMC3	O1	1	-0.57	15.9994
8800	O=C	593	TMC3	O2	1	-0.57	15.9994
8801	CB	594	MPD2	C	1	-0.15	12.011
8802	CB	594	MPD2	C1	1	0.117	12.011
8803	CB	594	MPD2	C2	1	-0.15	12.011
8804	CB	594	MPD2	C3	1	0.117	12.011
8805	CB	594	MPD2	C4	1	-0.15	12.011
8806	CB	594	MPD2	C5	1	-0.15	12.011
8807	HCMM	594	MPD2	H	1	0.15	1.0079
8808	HCMM	594	MPD2	H1	1	0.15	1.0079
8809	HCMM	594	MPD2	H2	1	0.15	1.0079
8810	HCMM	594	MPD2	H3	1	0.15	1.0079
8811	NC=O	594	MPD2	N	1	-0.547	14.0067
8812	HNCO	594	MPD2	H5	1	0.37	1.0079
8813	NC=O	594	MPD2	N1	1	-0.547	14.0067
8814	HNCO	594	MPD2	H7	1	0.37	1.0079
8815	CB	595	TMC3	C1	1	0.0862	12.011
8816	CB	595	TMC3	C2	1	-0.15	12.011
8817	CB	595	TMC3	C3	1	0.0862	12.011
8818	CB	595	TMC3	C4	1	-0.15	12.011
8819	CB	595	TMC3	C5	1	0.0862	12.011
8820	CB	595	TMC3	C6	1	-0.15	12.011
8821	C=O	595	TMC3	C	1	0.5438	12.011
8822	O=C	595	TMC3	O	1	-0.57	15.9994
8823	HCMM	595	TMC3	H	1	0.15	1.0079
8824	HCMM	595	TMC3	H1	1	0.15	1.0079
8825	HCMM	595	TMC3	H2	1	0.15	1.0079
8826	C=O	595	TMC3	C7	1	0.5438	12.011
8827	C=O	595	TMC3	C8	1	0.5438	12.011
8828	O=C	595	TMC3	O1	1	-0.57	15.9994
8829	O=C	595	TMC3	O2	1	-0.57	15.9994
8830	CB	596	MPD2	C	1	-0.15	12.011
8831	CB	596	MPD2	C1	1	0.117	12.011
8832	CB	596	MPD2	C2	1	-0.15	12.011
8833	CB	596	MPD2	C3	1	0.117	12.011
8834	CB	596	MPD2	C4	1	-0.15	12.011
8835	CB	596	MPD2	C5	1	-0.15	12.011
8836	HCMM	596	MPD2	H	1	0.15	1.0079
8837	HCMM	596	MPD2	H1	1	0.15	1.0079
8838	HCMM	596	MPD2	H2	1	0.15	1.0079
8839	HCMM	596	MPD2	H3	1	0.15	1.0079
8840	NC=O	596	MPD2	N	1	-0.547	14.0067
8841	HNCO	596	MPD2	H5	1	0.37	1.0079
8842	NC=O	596	MPD2	N1	1	-0.547	14.0067
8843	HNCO	596	MPD2	H7	1	0.37	1.0079
8844	CB	597	TMC3	C1	1	0.0862	12.011
8845	CB	597	TMC3	C2	1	-0.15	12.011
8846	CB	597	TMC3	C3	1	0.0862	12.011
8847	CB	597	TMC3	C4	1	-0.15	12.011
8848	CB	597	TMC3	C5	1	0.0862	12.011
8849	CB	597	TMC3	C6	1	-0.15	12.011
8850	C=O	597	TMC3	C	1	0.5438	12.011
8851	O=C	597	TMC3	O	1	-0.57	15.9994
8852	HCMM	597	TMC3	H	1	0.15	1.0079
8853	HCMM	597	TMC3	H1	1	0.15	1.0079
8854	HCMM	597	TMC3	H2	1	0.15	1.0079
8855	C=O	597	TMC3	C7	1	0.5438	12.011
8856	C=O	597	TMC3	C8	1	0.5438	12.011
8857	O=C	597	TMC3	O1	1	-0.57	15.9994
8858	O=C	597	TMC3	O2	1	-0.57	15.9994
8859	CB	598	TMC3	C1	1	0.0862	12.011
8860	CB	598	TMC3	C2	1	-0.15	12.011
8861	CB	598	TMC3	C3	1	0.0862	12.011
8862	CB	598	TMC3	C4	1	-0.15	12.011
8863	CB	598	TMC3	C5	1	0.0862	12.011
8864	CB	598	TMC3	C6	1	-0.15	12.011
8865	C=O	598	TMC3	C	1	0.5438	12.011
8866	O=C	598	TMC3	O	1	-0.57	15.9994
8867	HCMM	598	TMC3	H	1	0.15	1.0079
8868	HCMM	598	TMC3	H1	1	0.15	1.0079
8869	HCMM	598	TMC3	H2	1	0.15	1.0079
8870	C=O	598	TMC3	C7	1	0.5438	12.011
8871	C=O	598	TMC3	C8	1	0.5438	12.011
8872	O=C	598	TMC3	O1	1	-0.57	15.9994
8873	O=C	598	TMC3	O2	1	-0.57	15.9994
8874	CB	599	MPD2	C	1	-0.15	12.011
8875	CB	599	MPD2	C1	1	0.117	12.011
8876	CB	599	MPD2	C2	1	-0.15	12.011
8877	CB	599	MPD2	C3	1	0.117	12.011
8878	CB	599	MPD2	C4	1	-0.15	12.011
8879	CB	599	MPD2	C5	1	-0.15	12.011
8880	HCMM	599	MPD2	H	1	0.15	1.0079
8881	HCMM	599	MPD2	H1	1	0.15	1.0079
8882	HCMM	599	MPD2	H2	1	0.15	1.0079
8883	HCMM	599	MPD2	H3	1	0.15	1.0079
8884	NC=O	599	MPD2	N	1	-0.547	14.0067
8885	HNCO	599	MPD2	H5	1	0.37	1.0079
8886	NC=O	599	MPD2	N1	1	-0.547	14.0067
8887	HNCO	599	MPD2	H7	1	0.37	1.0079
8888	CB	600	TMC3	C1	1	0.0862	12.011
8889	CB	600	TMC3	C2	1	-0.15	12.011
8890	CB	600	TMC3	C3	1	0.0862	12.011
8891	CB	600	TMC3	C4	1	-0.15	12.011
8892	CB	600	TMC3	C5	1	0.0862	12.011
8893	CB	600	TMC3	C6	1	-0.15	12.011
8894	C=O	600	TMC3	C	1	0.5438	12.011
8895	O=C	600	TMC3	O	1	-0.57	15.9994
8896	HCMM	600	TMC3	H	1	0.15	1.0079
8897	HCMM	600	TMC3	H1	1	0.15	1.0079
8898	HCMM	600	TMC3	H2	1	0.15	1.0079
8899	C=O	600	TMC3	C7	1	0.5438	12.011
8900	C=O	600	TMC3	C8	1	0.5438	12.011
8901	O=C	600	TMC3	O1	1	-0.57	15.9994
8902	O=C	600	TMC3	O2	1	-0.57	15.9994
8903	CB	601	MPD2	C	1	-0.15	12.011
8904	CB	601	MPD2	C1	1	0.117	12.011
8905	CB	601	MPD2	C2	1	-0.15	12.011
8906	CB	601	MPD2	C3	1	0.117	12.011
8907	CB	601	MPD2	C4	1	-0.15	12.011
8908	CB	601	MPD2	C5	1	-0.15	12.011
8909	HCMM	601	MPD2	H	1	0.15	1.0079
8910	HCMM	601	MPD2	H1	1	0.15	1.0079
8911	HCMM	601	MPD2	H2	1	0.15	1.0079
8912	HCMM	601	MPD2	H3	1	0.15	1.0079
8913	NC=O	601	MPD2	N	1	-0.547	14.0067
8914	HNCO	601	MPD2	H5	1	0.37	1.0079
8915	NC=O	601	MPD2	N1	1	-0.547	14.0067
8916	HNCO	601	MPD2	H7	1	0.37	1.0079
8917	CB	602	TMC3	C1	1	0.0862	12.011
8918	CB	602	TMC3	C2	1	-0.15	12.011
8919	CB	602	TMC3	C3	1	0.0862	12.011
8920	CB	602	TMC3	C4	1	-0.15	12.011
8921	CB	602	TMC3	C5	1	0.0862	12.011
8922	CB	602	TMC3	C6	1	-0.15	12.011
8923	C=O	602	TMC3	C	1	0.5438	12.011
8924	O=C	602	TMC3	O	1	-0.57	15.9994
8925	HCMM	602	TMC3	H	1	0.15	1.0079
8926	HCMM	602	TMC3	H1	1	0.15	1.0079
8927	HCMM	602	TMC3	H2	1	0.15	1.0079
8928	C=O	602	TMC3	C7	1	0.5438	12.011
8929	C=O	602	TMC3	C8	1	0.5438	12.011
8930	O=C	602	TMC3	O1	1	-0.57	15.9994
8931	O=C	602	TMC3	O2	1	-0.57	15.9994
8932	CB	603	TMC3	C1	1	0.0862	12.011
8933	CB	603	TMC3	C2	1	-0.15	12.011
8934	CB	603	TMC3	C3	1	0.0862	12.011
8935	CB	603	TMC3	C4	1	-0.15	12.011
8936	CB	603	TMC3	C5	1	0.0862	12.011
8937	CB	603	TMC3	C6	1	-0.15	12.011
8938	C=O	603	TMC3	C	1	0.5438	12.011
8939	O=C	603	TMC3	O	1	-0.57	15.9994
8940	HCMM	603	TMC3	H	1	0.15	1.0079
8941	HCMM	603	TMC3	H1	1	0.15	1.0079
8942	HCMM	603	TMC3	H2	1	0.15	1.0079
8943	C=O	603	TMC3	C7	1	0.5438	12.011
8944	C=O	603	TMC3	C8	1	0.5438	12.011
8945	O=C	603	TMC3	O1	1	-0.57	15.9994
8946	O=C	603	TMC3	O2	1	-0.57	15.9994
8947	CB	604	MPD2	C	1	-0.15	12.011
8948	CB	604	MPD2	C1	1	0.117	12.011
8949	CB	604	MPD2	C2	1	-0.15	12.011
8950	CB	604	MPD2	C3	1	0.117	12.011
8951	CB	604	MPD2	C4	1	-0.15	12.011
8952	CB	604	MPD2	C5	1	-0.15	12.011
8953	HCMM	604	MPD2	H	1	0.15	1.0079
8954	HCMM	604	MPD2	H1	1	0.15	1.0079
8955	HCMM	604	MPD2	H2	1	0.15	1.0079
8956	HCMM	604	MPD2	H3	1	0.15	1.0079
8957	NC=O	604	MPD2	N	1	-0.547	14.0067
8958	HNCO	604	MPD2	H5	1	0.37	1.0079
8959	NC=O	604	MPD2	N1	1	-0.547	14.0067
8960	HNCO	604	MPD2	H7	1	0.37	1.0079
8961	CB	605	TMC3	C1	1	0.0862	12.011
8962	CB	605	TMC3	C2	1	-0.15	12.011
8963	CB	605	TMC3	C3	1	0.0862	12.011
8964	CB	605	TMC3	C4	1	-0.15	12.011
8965	CB	605	TMC3	C5	1	0.0862	12.011
8966	CB	605	TMC3	C6	1	-0.15	12.011
8967	C=O	605	TMC3	C	1	0.5438	12.011
8968	O=C	605	TMC3	O	1	-0.57	15.9994
8969	HCMM	605	TMC3	H	1	0.15	1.0079
8970	HCMM	605	TMC3	H1	1	0.15	1.0079
8971	HCMM	605	TMC3	H2	1	0.15	1.0079
8972	C=O	605	TMC3	C7	1	0.5438	12.011
8973	C=O	605	TMC3	C8	1	0.5438	12.011
8974	O=C	605	TMC3	O1	1	-0.57	15.9994
8975	O=C	605	TMC3	O2	1	-0.57	15.9994
8976	CB	606	TMC3	C1	1	0.0862	12.011
8977	CB	606	TMC3	C2	1	-0.15	12.011
8978	CB	606	TMC3	C3	1	0.0862	12.011
8979	CB	606	TMC3	C4	1	-0.15	12.011
8980	CB	606	TMC3	C5	1	0.0862	12.011
8981	CB	606	TMC3	C6	1	-0.15	12.011
8982	C=O	606	TMC3	C	1	0.5438	12.011
8983	O=C	606	TMC3	O	1	-0.57	15.9994
8984	HCMM	606	TMC3	H	1	0.15	1.0079
8985	HCMM	606	TMC3	H1	1	0.15	1.0079
8986	HCMM	606	TMC3	H2	1	0.15	1.0079
8987	C=O	606	TMC3	C7	1	0.5438	12.011
8988	C=O	606	TMC3	C8	1	0.5438	12.011
8989	O=C	606	TMC3	O1	1	-0.57	15.9994
8990	O=C	606	TMC3	O2	1	-0.57	15.9994
8991	CB	607	MPD2	C	1	-0.15	12.011
8992	CB	607	MPD2	C1	1	0.117	12.011
8993	CB	607	MPD2	C2	1	-0.15	12.011
8994	CB	607	MPD2	C3	1	0.117	12.011
8995	CB	607	MPD2	C4	1	-0.15	12.011
8996	CB	607	MPD2	C5	1	-0.15	12.011
8997	HCMM	607	MPD2	H	1	0.15	1.0079
8998	HCMM	607	MPD2	H1	1	0.15	1.0079
8999	HCMM	607	MPD2	H2	1	0.15	1.0079
9000	HCMM	607	MPD2	H3	1	0.15	1.0079
9001	NC=O	607	MPD2	N	1	-0.547	14.0067
9002	HNCO	607	MPD2	H5	1	0.37	1.0079
9003	NC=O	607	MPD2	N1	1	-0.547	14.0067
9004	HNCO	607	MPD2	H7	1	0.37	1.0079
9005	CB	608	TMC3	C1	1	0.0862	12.011
9006	CB	608	TMC3	C2	1	-0.15	12.011
9007	CB	608	TMC3	C3	1	0.0862	12.011
9008	CB	608	TMC3	C4	1	-0.15	12.011
9009	CB	608	TMC3	C5	1	0.0862	12.011
9010	CB	608	TMC3	C6	1	-0.15	12.011
9011	C=O	608	TMC3	C	1	0.5438	12.011
9012	O=C	608	TMC3	O	1	-0.57	15.9994
9013	HCMM	608	TMC3	H	1	0.15	1.0079
9014	HCMM	608	TMC3	H1	1	0.15	1.0079
9015	HCMM	608	TMC3	H2	1	0.15	1.0079
9016	C=O	608	TMC3	C7	1	0.5438	12.011
9017	C=O	608	TMC3	C8	1	0.5438	12.011
9018	O=C	608	TMC3	O1	1	-0.57	15.9994
9019	O=C	608	TMC3	O2	1	-0.57	15.9994
9020	CB	609	TMC3	C1	1	0.0862	12.011
9021	CB	609	TMC3	C2	1	-0.15	12.011
9022	CB	609	TMC3	C3	1	0.0862	12.011
9023	CB	609	TMC3	C4	1	-0.15	12.011
9024	CB	609	TMC3	C5	1	0.0862	12.011
9025	CB	609	TMC3	C6	1	-0.15	12.011
9026	C=O	609	TMC3	C	1	0.5438	12.011
9027	O=C	609	TMC3	O	1	-0.57	15.9994
9028	HCMM	609	TMC3	H	1	0.15	1.0079
9029	HCMM	609	TMC3	H1	1	0.15	1.0079
9030	HCMM	609	TMC3	H2	1	0.15	1.0079
9031	C=O	609	TMC3	C7	1	0.5438	12.011
9032	C=O	609	TMC3	C8	1	0.5438	12.011
9033	O=C	609	TMC3	O1	1	-0.57	15.9994
9034	O=C	609	TMC3	O2	1	-0.57	15.9994
9035	CB	610	TMC3	C1	1	0.0862	12.011
9036	CB	610	TMC3	C2	1	-0.15	12.011
9037	CB	610	TMC3	C3	1	0.0862	12.011
9038	CB	610	TMC3	C4	1	-0.15	12.011
9039	CB	610	TMC3	C5	1	0.0862	12.011
9040	CB	610	TMC3	C6	1	-0.15	12.011
9041	C=O	610	TMC3	C	1	0.5438	12.011
9042	O=C	610	TMC3	O	1	-0.57	15.9994
9043	HCMM	610	TMC3	H	1	0.15	1.0079
9044	HCMM	610	TMC3	H1	1	0.15	1.0079
9045	HCMM	610	TMC3	H2	1	0.15	1.0079
9046	C=O	610	TMC3	C7	1	0.5438	12.011
9047	C=O	610	TMC3	C8	1	0.5438	12.011
9048	O=C	610	TMC3	O1	1	-0.57	15.9994
9049	O=C	610	TMC3	O2	1	-0.57	15.9994
9050	CB	611	MPD2	C	1	-0.15	12.011
9051	CB	611	MPD2	C1	1	0.117	12.011
9052	CB	611	MPD2	C2	1	-0.15	12.011
9053	CB	611	MPD2	C3	1	0.117	12.011
9054	CB	611	MPD2	C4	1	-0.15	12.011
9055	CB	611	MPD2	C5	1	-0.15	12.011
9056	HCMM	611	MPD2	H	1	0.15	1.0079
9057	HCMM	611	MPD2	H1	1	0.15	1.0079
9058	HCMM	611	MPD2	H2	1	0.15	1.0079
9059	HCMM	611	MPD2	H3	1	0.15	1.0079
9060	NC=O	611	MPD2	N	1	-0.547	14.0067
9061	HNCO	611	MPD2	H5	1	0.37	1.0079
9062	NC=O	611	MPD2	N1	1	-0.547	14.0067
9063	HNCO	611	MPD2	H7	1	0.37	1.0079
9064	CB	612	TMC3	C1	1	0.0862	12.011
9065	CB	612	TMC3	C2	1	-0.15	12.011
9066	CB	612	TMC3	C3	1	0.0862	12.011
9067	CB	612	TMC3	C4	1	-0.15	12.011
9068	CB	612	TMC3	C5	1	0.0862	12.011
9069	CB	612	TMC3	C6	1	-0.15	12.011
9070	C=O	612	TMC3	C	1	0.5438	12.011
9071	O=C	612	TMC3	O	1	-0.57	15.9994
9072	HCMM	612	TMC3	H	1	0.15	1.0079
9073	HCMM	612	TMC3	H1	1	0.15	1.0079
9074	HCMM	612	TMC3	H2	1	0.15	1.0079
9075	C=O	612	TMC3	C7	1	0.5438	12.011
9076	C=O	612	TMC3	C8	1	0.5438	12.011
9077	O=C	612	TMC3	O1	1	-0.57	15.9994
9078	O=C	612	TMC3	O2	1	-0.57	15.9994
9079	CB	613	MPD2	C	1	-0.15	12.011
9080	CB	613	MPD2	C1	1	0.117	12.011
9081	CB	613	MPD2	C2	1	-0.15	12.011
9082	CB	613	MPD2	C3	1	0.117	12.011
9083	CB	613	MPD2	C4	1	-0.15	12.011
9084	CB	613	MPD2	C5	1	-0.15	12.011
9085	HCMM	613	MPD2	H	1	0.15	1.0079
9086	HCMM	613	MPD2	H1	1	0.15	1.0079
9087	HCMM	613	MPD2	H2	1	0.15	1.0079
9088	HCMM	613	MPD2	H3	1	0.15	1.0079
9089	NC=O	613	MPD2	N	1	-0.547	14.0067
9090	HNCO	613	MPD2	H5	1	0.37	1.0079
9091	NC=O	613	MPD2	N1	1	-0.547	14.0067
9092	HNCO	613	MPD2	H7	1	0.37	1.0079
9093	CB	614	TMC3	C1	1	0.0862	12.011
9094	CB	614	TMC3	C2	1	-0.15	12.011
9095	CB	614	TMC3	C3	1	0.0862	12.011
9096	CB	614	TMC3	C4	1	-0.15	12.011
9097	CB	614	TMC3	C5	1	0.0862	12.011
9098	CB	614	TMC3	C6	1	-0.15	12.011
9099	C=O	614	TMC3	C	1	0.5438	12.011
9100	O=C	614	TMC3	O	1	-0.57	15.9994
9101	HCMM	614	TMC3	H	1	0.15	1.0079
9102	HCMM	614	TMC3	H1	1	0.15	1.0079
9103	HCMM	614	TMC3	H2	1	0.15	1.0079
9104	C=O	614	TMC3	C7	1	0.5438	12.011
9105	C=O	614	TMC3	C8	1	0.5438	12.011
9106	O=C	614	TMC3	O1	1	-0.57	15.9994
9107	O=C	614	TMC3	O2	1	-0.57	15.9994
9108	CB	615	MPD2	C	1	-0.15	12.011
9109	CB	615	MPD2	C1	1	0.117	12.011
9110	CB	615	MPD2	C2	1	-0.15	12.011
9111	CB	615	MPD2	C3	1	0.117	12.011
9112	CB	615	MPD2	C4	1	-0.15	12.011
9113	CB	615	MPD2	C5	1	-0.15	12.011
9114	HCMM	615	MPD2	H	1	0.15	1.0079
9115	HCMM	615	MPD2	H1	1	0.15	1.0079
9116	HCMM	615	MPD2	H2	1	0.15	1.0079
9117	HCMM	615	MPD2	H3	1	0.15	1.0079
9118	NC=O	615	MPD2	N	1	-0.547	14.0067
9119	HNCO	615	MPD2	H5	1	0.37	1.0079
9120	NC=O	615	MPD2	N1	1	-0.547	14.0067
9121	HNCO	615	MPD2	H7	1	0.37	1.0079
9122	CB	616	TMC3	C1	1	0.0862	12.011
9123	CB	616	TMC3	C2	1	-0.15	12.011
9124	CB	616	TMC3	C3	1	0.0862	12.011
9125	CB	616	TMC3	C4	1	-0.15	12.011
9126	CB	616	TMC3	C5	1	0.0862	12.011
9127	CB	616	TMC3	C6	1	-0.15	12.011
9128	C=O	616	TMC3	C	1	0.5438	12.011
9129	O=C	616	TMC3	O	1	-0.57	15.9994
9130	HCMM	616	TMC3	H	1	0.15	1.0079
9131	HCMM	616	TMC3	H1	1	0.15	1.0079
9132	HCMM	616	TMC3	H2	1	0.15	1.0079
9133	C=O	616	TMC3	C7	1	0.5438	12.011
9134	C=O	616	TMC3	C8	1	0.5438	12.011
9135	O=C	616	TMC3	O1	1	-0.57	15.9994
9136	O=C	616	TMC3	O2	1	-0.57	15.9994
9137	CB	617	MPD2	C	1	-0.15	12.011
9138	CB	617	MPD2	C1	1	0.117	12.011
9139	CB	617	MPD2	C2	1	-0.15	12.011
9140	CB	617	MPD2	C3	1	0.117	12.011
9141	CB	617	MPD2	C4	1	-0.15	12.011
9142	CB	617	MPD2	C5	1	-0.15	12.011
9143	HCMM	617	MPD2	H	1	0.15	1.0079
9144	HCMM	617	MPD2	H1	1	0.15	1.0079
9145	HCMM	617	MPD2	H2	1	0.15	1.0079
9146	HCMM	617	MPD2	H3	1	0.15	1.0079
9147	NC=O	617	MPD2	N	1	-0.547	14.0067
9148	HNCO	617	MPD2	H5	1	0.37	1.0079
9149	NC=O	617	MPD2	N1	1	-0.547	14.0067
9150	HNCO	617	MPD2	H7	1	0.37	1.0079
9151	CB	618	TMC3	C1	1	0.0862	12.011
9152	CB	618	TMC3	C2	1	-0.15	12.011
9153	CB	618	TMC3	C3	1	0.0862	12.011
9154	CB	618	TMC3	C4	1	-0.15	12.011
9155	CB	618	TMC3	C5	1	0.0862	12.011
9156	CB	618	TMC3	C6	1	-0.15	12.011
9157	C=O	618	TMC3	C	1	0.5438	12.011
9158	O=C	618	TMC3	O	1	-0.57	15.9994
9159	HCMM	618	TMC3	H	1	0.15	1.0079
9160	HCMM	618	TMC3	H1	1	0.15	1.0079
9161	HCMM	618	TMC3	H2	1	0.15	1.0079
9162	C=O	618	TMC3	C7	1	0.5438	12.011
9163	C=O	618	TMC3	C8	1	0.5438	12.011
9164	O=C	618	TMC3	O1	1	-0.57	15.9994
9165	O=C	618	TMC3	O2	1	-0.57	15.9994
9166	CB	619	MPD2	C	1	-0.15	12.011
9167	CB	619	MPD2	C1	1	0.117	12.011
9168	CB	619	MPD2	C2	1	-0.15	12.011
9169	CB	619	MPD2	C3	1	0.117	12.011
9170	CB	619	MPD2	C4	1	-0.15	12.011
9171	CB	619	MPD2	C5	1	-0.15	12.011
9172	HCMM	619	MPD2	H	1	0.15	1.0079
9173	HCMM	619	MPD2	H1	1	0.15	1.0079
9174	HCMM	619	MPD2	H2	1	0.15	1.0079
9175	HCMM	619	MPD2	H3	1	0.15	1.0079
9176	NC=O	619	MPD2	N	1	-0.547	14.0067
9177	HNCO	619	MPD2	H5	1	0.37	1.0079
9178	NC=O	619	MPD2	N1	1	-0.547	14.0067
9179	HNCO	619	MPD2	H7	1	0.37	1.0079
9180	CB	620	TMC3	C1	1	0.0862	12.011
9181	CB	620	TMC3	C2	1	-0.15	12.011
9182	CB	620	TMC3	C3	1	0.0862	12.011
9183	CB	620	TMC3	C4	1	-0.15	12.011
9184	CB	620	TMC3	C5	1	0.0862	12.011
9185	CB	620	TMC3	C6	1	-0.15	12.011
9186	C=O	620	TMC3	C	1	0.5438	12.011
9187	O=C	620	TMC3	O	1	-0.57	15.9994
9188	HCMM	620	TMC3	H	1	0.15	1.0079
9189	HCMM	620	TMC3	H1	1	0.15	1.0079
9190	HCMM	620	TMC3	H2	1	0.15	1.0079
9191	C=O	620	TMC3	C7	1	0.5438	12.011
9192	C=O	620	TMC3	C8	1	0.5438	12.011
9193	O=C	620	TMC3	O1	1	-0.57	15.9994
9194	O=C	620	TMC3	O2	1	-0.57	15.9994
9195	CB	621	MPD2	C	1	-0.15	12.011
9196	CB	621	MPD2	C1	1	0.117	12.011
9197	CB	621	MPD2	C2	1	-0.15	12.011
9198	CB	621	MPD2	C3	1	0.117	12.011
9199	CB	621	MPD2	C4	1	-0.15	12.011
9200	CB	621	MPD2	C5	1	-0.15	12.011
9201	HCMM	621	MPD2	H	1	0.15	1.0079
9202	HCMM	621	MPD2	H1	1	0.15	1.0079
9203	HCMM	621	MPD2	H2	1	0.15	1.0079
9204	HCMM	621	MPD2	H3	1	0.15	1.0079
9205	NC=O	621	MPD2	N	1	-0.547	14.0067
9206	HNCO	621	MPD2	H5	1	0.37	1.0079
9207	NC=O	621	MPD2	N1	1	-0.547	14.0067
9208	HNCO	621	MPD2	H7	1	0.37	1.0079
9209	CB	622	TMC3	C1	1	0.0862	12.011
9210	CB	622	TMC3	C2	1	-0.15	12.011
9211	CB	622	TMC3	C3	1	0.0862	12.011
9212	CB	622	TMC3	C4	1	-0.15	12.011
9213	CB	622	TMC3	C5	1	0.0862	12.011
9214	CB	622	TMC3	C6	1	-0.15	12.011
9215	C=O	622	TMC3	C	1	0.5438	12.011
9216	O=C	622	TMC3	O	1	-0.57	15.9994
9217	HCMM	622	TMC3	H	1	0.15	1.0079
9218	HCMM	622	TMC3	H1	1	0.15	1.0079
9219	HCMM	622	TMC3	H2	1	0.15	1.0079
9220	C=O	622	TMC3	C7	1	0.5438	12.011
9221	C=O	622	TMC3	C8	1	0.5438	12.011
9222	O=C	622	TMC3	O1	1	-0.57	15.9994
9223	O=C	622	TMC3	O2	1	-0.57	15.9994
9224	CB	623	MPD2	C	1	-0.15	12.011
9225	CB	623	MPD2	C1	1	0.117	12.011
9226	CB	623	MPD2	C2	1	-0.15	12.011
9227	CB	623	MPD2	C3	1	0.117	12.011
9228	CB	623	MPD2	C4	1	-0.15	12.011
9229	CB	623	MPD2	C5	1	-0.15	12.011
9230	HCMM	623	MPD2	H	1	0.15	1.0079
9231	HCMM	623	MPD2	H1	1	0.15	1.0079
9232	HCMM	623	MPD2	H2	1	0.15	1.0079
9233	HCMM	623	MPD2	H3	1	0.15	1.0079
9234	NC=O	623	MPD2	N	1	-0.547	14.0067
9235	HNCO	623	MPD2	H5	1	0.37	1.0079
9236	NC=O	623	MPD2	N1	1	-0.547	14.0067
9237	HNCO	623	MPD2	H7	1	0.37	1.0079
9238	CB	624	TMC3	C1	1	0.0862	12.011
9239	CB	624	TMC3	C2	1	-0.15	12.011
9240	CB	624	TMC3	C3	1	0.0862	12.011
9241	CB	624	TMC3	C4	1	-0.15	12.011
9242	CB	624	TMC3	C5	1	0.0862	12.011
9243	CB	624	TMC3	C6	1	-0.15	12.011
9244	C=O	624	TMC3	C	1	0.5438	12.011
9245	O=C	624	TMC3	O	1	-0.57	15.9994
9246	HCMM	624	TMC3	H	1	0.15	1.0079
9247	HCMM	624	TMC3	H1	1	0.15	1.0079
9248	HCMM	624	TMC3	H2	1	0.15	1.0079
9249	C=O	624	TMC3	C7	1	0.5438	12.011
9250	C=O	624	TMC3	C8	1	0.5438	12.011
9251	O=C	624	TMC3	O1	1	-0.57	15.9994
9252	O=C	624	TMC3	O2	1	-0.57	15.9994
9253	CB	625	MPD2	C	1	-0.15	12.011
9254	CB	625	MPD2	C1	1	0.117	12.011
9255	CB	625	MPD2	C2	1	-0.15	12.011
9256	CB	625	MPD2	C3	1	0.117	12.011
9257	CB	625	MPD2	C4	1	-0.15	12.011
9258	CB	625	MPD2	C5	1	-0.15	12.011
9259	HCMM	625	MPD2	H	1	0.15	1.0079
9260	HCMM	625	MPD2	H1	1	0.15	1.0079
9261	HCMM	625	MPD2	H2	1	0.15	1.0079
9262	HCMM	625	MPD2	H3	1	0.15	1.0079
9263	NC=O	625	MPD2	N	1	-0.547	14.0067
9264	HNCO	625	MPD2	H5	1	0.37	1.0079
9265	NC=O	625	MPD2	N1	1	-0.547	14.0067
9266	HNCO	625	MPD2	H7	1	0.37	1.0079
9267	CB	626	TMC3	C1	1	0.0862	12.011
9268	CB	626	TMC3	C2	1	-0.15	12.011
9269	CB	626	TMC3	C3	1	0.0862	12.011
9270	CB	626	TMC3	C4	1	-0.15	12.011
9271	CB	626	TMC3	C5	1	0.0862	12.011
9272	CB	626	TMC3	C6	1	-0.15	12.011
9273	C=O	626	TMC3	C	1	0.5438	12.011
9274	O=C	626	TMC3	O	1	-0.57	15.9994
9275	HCMM	626	TMC3	H	1	0.15	1.0079
9276	HCMM	626	TMC3	H1	1	0.15	1.0079
9277	HCMM	626	TMC3	H2	1	0.15	1.0079
9278	C=O	626	TMC3	C7	1	0.5438	12.011
9279	C=O	626	TMC3	C8	1	0.5438	12.011
9280	O=C	626	TMC3	O1	1	-0.57	15.9994
9281	O=C	626	TMC3	O2	1	-0.57	15.9994
9282	CB	627	MPD2	C	1	-0.15	12.011
9283	CB	627	MPD2	C1	1	0.117	12.011
9284	CB	627	MPD2	C2	1	-0.15	12.011
9285	CB	627	MPD2	C3	1	0.117	12.011
9286	CB	627	MPD2	C4	1	-0.15	12.011
9287	CB	627	MPD2	C5	1	-0.15	12.011
9288	HCMM	627	MPD2	H	1	0.15	1.0079
9289	HCMM	627	MPD2	H1	1	0.15	1.0079
9290	HCMM	627	MPD2	H2	1	0.15	1.0079
9291	HCMM	627	MPD2	H3	1	0.15	1.0079
9292	NC=O	627	MPD2	N	1	-0.547	14.0067
9293	HNCO	627	MPD2	H5	1	0.37	1.0079
9294	NC=O	627	MPD2	N1	1	-0.547	14.0067
9295	HNCO	627	MPD2	H7	1	0.37	1.0079
9296	CB	628	TMC3	C1	1	0.0862	12.011
9297	CB	628	TMC3	C2	1	-0.15	12.011
9298	CB	628	TMC3	C3	1	0.0862	12.011
9299	CB	628	TMC3	C4	1	-0.15	12.011
9300	CB	628	TMC3	C5	1	0.0862	12.011
9301	CB	628	TMC3	C6	1	-0.15	12.011
9302	C=O	628	TMC3	C	1	0.5438	12.011
9303	O=C	628	TMC3	O	1	-0.57	15.9994
9304	HCMM	628	TMC3	H	1	0.15	1.0079
9305	HCMM	628	TMC3	H1	1	0.15	1.0079
9306	HCMM	628	TMC3	H2	1	0.15	1.0079
9307	C=O	628	TMC3	C7	1	0.5438	12.011
9308	C=O	628	TMC3	C8	1	0.5438	12.011
9309	O=C	628	TMC3	O1	1	-0.57	15.9994
9310	O=C	628	TMC3	O2	1	-0.57	15.9994
9311	CB	629	MPD2	C	1	-0.15	12.011
9312	CB	629	MPD2	C1	1	0.117	12.011
9313	CB	629	MPD2	C2	1	-0.15	12.011
9314	CB	629	MPD2	C3	1	0.117	12.011
9315	CB	629	MPD2	C4	1	-0.15	12.011
9316	CB	629	MPD2	C5	1	-0.15	12.011
9317	HCMM	629	MPD2	H	1	0.15	1.0079
9318	HCMM	629	MPD2	H1	1	0.15	1.0079
9319	HCMM	629	MPD2	H2	1	0.15	1.0079
9320	HCMM	629	MPD2	H3	1	0.15	1.0079
9321	NC=O	629	MPD2	N	1	-0.547	14.0067
9322	HNCO	629	MPD2	H5	1	0.37	1.0079
9323	NC=O	629	MPD2	N1	1	-0.547	14.0067
9324	HNCO	629	MPD2	H7	1	0.37	1.0079
9325	CB	630	TMC3	C1	1	0.0862	12.011
9326	CB	630	TMC3	C2	1	-0.15	12.011
9327	CB	630	TMC3	C3	1	0.0862	12.011
9328	CB	630	TMC3	C4	1	-0.15	12.011
9329	CB	630	TMC3	C5	1	0.0862	12.011
9330	CB	630	TMC3	C6	1	-0.15	12.011
9331	C=O	630	TMC3	C	1	0.5438	12.011
9332	O=C	630	TMC3	O	1	-0.57	15.9994
9333	HCMM	630	TMC3	H	1	0.15	1.0079
9334	HCMM	630	TMC3	H1	1	0.15	1.0079
9335	HCMM	630	TMC3	H2	1	0.15	1.0079
9336	C=O	630	TMC3	C7	1	0.5438	12.011
9337	C=O	630	TMC3	C8	1	0.5438	12.011
9338	O=C	630	TMC3	O1	1	-0.57	15.9994
9339	O=C	630	TMC3	O2	1	-0.57	15.9994
9340	CB	631	MPD2	C	1	-0.15	12.011
9341	CB	631	MPD2	C1	1	0.117	12.011
9342	CB	631	MPD2	C2	1	-0.15	12.011
9343	CB	631	MPD2	C3	1	0.117	12.011
9344	CB	631	MPD2	C4	1	-0.15	12.011
9345	CB	631	MPD2	C5	1	-0.15	12.011
9346	HCMM	631	MPD2	H	1	0.15	1.0079
9347	HCMM	631	MPD2	H1	1	0.15	1.0079
9348	HCMM	631	MPD2	H2	1	0.15	1.0079
9349	HCMM	631	MPD2	H3	1	0.15	1.0079
9350	NC=O	631	MPD2	N	1	-0.547	14.0067
9351	HNCO	631	MPD2	H5	1	0.37	1.0079
9352	NC=O	631	MPD2	N1	1	-0.547	14.0067
9353	HNCO	631	MPD2	H7	1	0.37	1.0079
9354	CB	632	TMC3	C1	1	0.0862	12.011
9355	CB	632	TMC3	C2	1	-0.15	12.011
9356	CB	632	TMC3	C3	1	0.0862	12.011
9357	CB	632	TMC3	C4	1	-0.15	12.011
9358	CB	632	TMC3	C5	1	0.0862	12.011
9359	CB	632	TMC3	C6	1	-0.15	12.011
9360	C=O	632	TMC3	C	1	0.5438	12.011
9361	O=C	632	TMC3	O	1	-0.57	15.9994
9362	HCMM	632	TMC3	H	1	0.15	1.0079
9363	HCMM	632	TMC3	H1	1	0.15	1.0079
9364	HCMM	632	TMC3	H2	1	0.15	1.0079
9365	C=O	632	TMC3	C7	1	0.5438	12.011
9366	C=O	632	TMC3	C8	1	0.5438	12.011
9367	O=C	632	TMC3	O1	1	-0.57	15.9994
9368	O=C	632	TMC3	O2	1	-0.57	15.9994
9369	CB	633	MPD2	C	1	-0.15	12.011
9370	CB	633	MPD2	C1	1	0.117	12.011
9371	CB	633	MPD2	C2	1	-0.15	12.011
9372	CB	633	MPD2	C3	1	0.117	12.011
9373	CB	633	MPD2	C4	1	-0.15	12.011
9374	CB	633	MPD2	C5	1	-0.15	12.011
9375	HCMM	633	MPD2	H	1	0.15	1.0079
9376	HCMM	633	MPD2	H1	1	0.15	1.0079
9377	HCMM	633	MPD2	H2	1	0.15	1.0079
9378	HCMM	633	MPD2	H3	1	0.15	1.0079
9379	NC=O	633	MPD2	N	1	-0.547	14.0067
9380	HNCO	633	MPD2	H5	1	0.37	1.0079
9381	NC=O	633	MPD2	N1	1	-0.547	14.0067
9382	HNCO	633	MPD2	H7	1	0.37	1.0079
9383	CB	634	TMC3	C1	1	0.0862	12.011
9384	CB	634	TMC3	C2	1	-0.15	12.011
9385	CB	634	TMC3	C3	1	0.0862	12.011
9386	CB	634	TMC3	C4	1	-0.15	12.011
9387	CB	634	TMC3	C5	1	0.0862	12.011
9388	CB	634	TMC3	C6	1	-0.15	12.011
9389	C=O	634	TMC3	C	1	0.5438	12.011
9390	O=C	634	TMC3	O	1	-0.57	15.9994
9391	HCMM	634	TMC3	H	1	0.15	1.0079
9392	HCMM	634	TMC3	H1	1	0.15	1.0079
9393	HCMM	634	TMC3	H2	1	0.15	1.0079
9394	C=O	634	TMC3	C7	1	0.5438	12.011
9395	C=O	634	TMC3	C8	1	0.5438	12.011
9396	O=C	634	TMC3	O1	1	-0.57	15.9994
9397	O=C	634	TMC3	O2	1	-0.57	15.9994
9398	CB	635	TMC3	C1	1	0.0862	12.011
9399	CB	635	TMC3	C2	1	-0.15	12.011
9400	CB	635	TMC3	C3	1	0.0862	12.011
9401	CB	635	TMC3	C4	1	-0.15	12.011
9402	CB	635	TMC3	C5	1	0.0862	12.011
9403	CB	635	TMC3	C6	1	-0.15	12.011
9404	C=O	635	TMC3	C	1	0.5438	12.011
9405	O=C	635	TMC3	O	1	-0.57	15.9994
9406	HCMM	635	TMC3	H	1	0.15	1.0079
9407	HCMM	635	TMC3	H1	1	0.15	1.0079
9408	HCMM	635	TMC3	H2	1	0.15	1.0079
9409	C=O	635	TMC3	C7	1	0.5438	12.011
9410	C=O	635	TMC3	C8	1	0.5438	12.011
9411	O=C	635	TMC3	O1	1	-0.57	15.9994
9412	O=C	635	TMC3	O2	1	-0.57	15.9994
9413	CB	636	MPD2	C	1	-0.15	12.011
9414	CB	636	MPD2	C1	1	0.117	12.011
9415	CB	636	MPD2	C2	1	-0.15	12.011
9416	CB	636	MPD2	C3	1	0.117	12.011
9417	CB	636	MPD2	C4	1	-0.15	12.011
9418	CB	636	MPD2	C5	1	-0.15	12.011
9419	HCMM	636	MPD2	H	1	0.15	1.0079
9420	HCMM	636	MPD2	H1	1	0.15	1.0079
9421	HCMM	636	MPD2	H2	1	0.15	1.0079
9422	HCMM	636	MPD2	H3	1	0.15	1.0079
9423	NC=O	636	MPD2	N	1	-0.547	14.0067
9424	HNCO	636	MPD2	H5	1	0.37	1.0079
9425	NC=O	636	MPD2	N1	1	-0.547	14.0067
9426	HNCO	636	MPD2	H7	1	0.37	1.0079
9427	CB	637	TMC3	C1	1	0.0862	12.011
9428	CB	637	TMC3	C2	1	-0.15	12.011
9429	CB	637	TMC3	C3	1	0.0862	12.011
9430	CB	637	TMC3	C4	1	-0.15	12.011
9431	CB	637	TMC3	C5	1	0.0862	12.011
9432	CB	637	TMC3	C6	1	-0.15	12.011
9433	C=O	637	TMC3	C	1	0.5438	12.011
9434	O=C	637	TMC3	O	1	-0.57	15.9994
9435	HCMM	637	TMC3	H	1	0.15	1.0079
9436	HCMM	637	TMC3	H1	1	0.15	1.0079
9437	HCMM	637	TMC3	H2	1	0.15	1.0079
9438	C=O	637	TMC3	C7	1	0.5438	12.011
9439	C=O	637	TMC3	C8	1	0.5438	12.011
9440	O=C	637	TMC3	O1	1	-0.57	15.9994
9441	O=C	637	TMC3	O2	1	-0.57	15.9994
9442	CB	638	MPD2	C	1	-0.15	12.011
9443	CB	638	MPD2	C1	1	0.117	12.011
9444	CB	638	MPD2	C2	1	-0.15	12.011
9445	CB	638	MPD2	C3	1	0.117	12.011
9446	CB	638	MPD2	C4	1	-0.15	12.011
9447	CB	638	MPD2	C5	1	-0.15	12.011
9448	HCMM	638	MPD2	H	1	0.15	1.0079
9449	HCMM	638	MPD2	H1	1	0.15	1.0079
9450	HCMM	638	MPD2	H2	1	0.15	1.0079
9451	HCMM	638	MPD2	H3	1	0.15	1.0079
9452	NC=O	638	MPD2	N	1	-0.547	14.0067
9453	HNCO	638	MPD2	H5	1	0.37	1.0079
9454	NC=O	638	MPD2	N1	1	-0.547	14.0067
9455	HNCO	638	MPD2	H7	1	0.37	1.0079
9456	CB	639	TMC3	C1	1	0.0862	12.011
9457	CB	639	TMC3	C2	1	-0.15	12.011
9458	CB	639	TMC3	C3	1	0.0862	12.011
9459	CB	639	TMC3	C4	1	-0.15	12.011
9460	CB	639	TMC3	C5	1	0.0862	12.011
9461	CB	639	TMC3	C6	1	-0.15	12.011
9462	C=O	639	TMC3	C	1	0.5438	12.011
9463	O=C	639	TMC3	O	1	-0.57	15.9994
9464	HCMM	639	TMC3	H	1	0.15	1.0079
9465	HCMM	639	TMC3	H1	1	0.15	1.0079
9466	HCMM	639	TMC3	H2	1	0.15	1.0079
9467	C=O	639	TMC3	C7	1	0.5438	12.011
9468	C=O	639	TMC3	C8	1	0.5438	12.011
9469	O=C	639	TMC3	O1	1	-0.57	15.9994
9470	O=C	639	TMC3	O2	1	-0.57	15.9994
9471	CB	640	MPD2	C	1	-0.15	12.011
9472	CB	640	MPD2	C1	1	0.117	12.011
9473	CB	640	MPD2	C2	1	-0.15	12.011
9474	CB	640	MPD2	C3	1	0.117	12.011
9475	CB	640	MPD2	C4	1	-0.15	12.011
9476	CB	640	MPD2	C5	1	-0.15	12.011
9477	HCMM	640	MPD2	H	1	0.15	1.0079
9478	HCMM	640	MPD2	H1	1	0.15	1.0079
9479	HCMM	640	MPD2	H2	1	0.15	1.0079
9480	HCMM	640	MPD2	H3	1	0.15	1.0079
9481	NC=O	640	MPD2	N	1	-0.547	14.0067
9482	HNCO	640	MPD2	H5	1	0.37	1.0079
9483	NC=O	640	MPD2	N1	1	-0.547	14.0067
9484	HNCO	640	MPD2	H7	1	0.37	1.0079
9485	CB	641	TMC3	C1	1	0.0862	12.011
9486	CB	641	TMC3	C2	1	-0.15	12.011
9487	CB	641	TMC3	C3	1	0.0862	12.011
9488	CB	641	TMC3	C4	1	-0.15	12.011
9489	CB	641	TMC3	C5	1	0.0862	12.011
9490	CB	641	TMC3	C6	1	-0.15	12.011
9491	C=O	641	TMC3	C	1	0.5438	12.011
9492	O=C	641	TMC3	O	1	-0.57	15.9994
9493	HCMM	641	TMC3	H	1	0.15	1.0079
9494	HCMM	641	TMC3	H1	1	0.15	1.0079
9495	HCMM	641	TMC3	H2	1	0.15	1.0079
9496	C=O	641	TMC3	C7	1	0.5438	12.011
9497	C=O	641	TMC3	C8	1	0.5438	12.011
9498	O=C	641	TMC3	O1	1	-0.57	15.9994
9499	O=C	641	TMC3	O2	1	-0.57	15.9994
9500	CB	642	TMC3	C1	1	0.0862	12.011
9501	CB	642	TMC3	C2	1	-0.15	12.011
9502	CB	642	TMC3	C3	1	0.0862	12.011
9503	CB	642	TMC3	C4	1	-0.15	12.011
9504	CB	642	TMC3	C5	1	0.0862	12.011
9505	CB	642	TMC3	C6	1	-0.15	12.011
9506	C=O	642	TMC3	C	1	0.5438	12.011
9507	O=C	642	TMC3	O	1	-0.57	15.9994
9508	HCMM	642	TMC3	H	1	0.15	1.0079
9509	HCMM	642	TMC3	H1	1	0.15	1.0079
9510	HCMM	642	TMC3	H2	1	0.15	1.0079
9511	C=O	642	TMC3	C7	1	0.5438	12.011
9512	C=O	642	TMC3	C8	1	0.5438	12.011
9513	O=C	642	TMC3	O1	1	-0.57	15.9994
9514	O=C	642	TMC3	O2	1	-0.57	15.9994
9515	CB	643	TMC3	C1	1	0.0862	12.011
9516	CB	643	TMC3	C2	1	-0.15	12.011
9517	CB	643	TMC3	C3	1	0.0862	12.011
9518	CB	643	TMC3	C4	1	-0.15	12.011
9519	CB	643	TMC3	C5	1	0.0862	12.011
9520	CB	643	TMC3	C6	1	-0.15	12.011
9521	C=O	643	TMC3	C	1	0.5438	12.011
9522	O=C	643	TMC3	O	1	-0.57	15.9994
9523	HCMM	643	TMC3	H	1	0.15	1.0079
9524	HCMM	643	TMC3	H1	1	0.15	1.0079
9525	HCMM	643	TMC3	H2	1	0.15	1.0079
9526	C=O	643	TMC3	C7	1	0.5438	12.011
9527	C=O	643	TMC3	C8	1	0.5438	12.011
9528	O=C	643	TMC3	O1	1	-0.57	15.9994
9529	O=C	643	TMC3	O2	1	-0.57	15.9994
9530	CB	644	MPD2	C	1	-0.15	12.011
9531	CB	644	MPD2	C1	1	0.117	12.011
9532	CB	644	MPD2	C2	1	-0.15	12.011
9533	CB	644	MPD2	C3	1	0.117	12.011
9534	CB	644	MPD2	C4	1	-0.15	12.011
9535	CB	644	MPD2	C5	1	-0.15	12.011
9536	HCMM	644	MPD2	H	1	0.15	1.0079
9537	HCMM	644	MPD2	H1	1	0.15	1.0079
9538	HCMM	644	MPD2	H2	1	0.15	1.0079
9539	HCMM	644	MPD2	H3	1	0.15	1.0079
9540	NC=O	644	MPD2	N	1	-0.547	14.0067
9541	HNCO	644	MPD2	H5	1	0.37	1.0079
9542	NC=O	644	MPD2	N1	1	-0.547	14.0067
9543	HNCO	644	MPD2	H7	1	0.37	1.0079
9544	CB	645	TMC3	C1	1	0.0862	12.011
9545	CB	645	TMC3	C2	1	-0.15	12.011
9546	CB	645	TMC3	C3	1	0.0862	12.011
9547	CB	645	TMC3	C4	1	-0.15	12.011
9548	CB	645	TMC3	C5	1	0.0862	12.011
9549	CB	645	TMC3	C6	1	-0.15	12.011
9550	C=O	645	TMC3	C	1	0.5438	12.011
9551	O=C	645	TMC3	O	1	-0.57	15.9994
9552	HCMM	645	TMC3	H	1	0.15	1.0079
9553	HCMM	645	TMC3	H1	1	0.15	1.0079
9554	HCMM	645	TMC3	H2	1	0.15	1.0079
9555	C=O	645	TMC3	C7	1	0.5438	12.011
9556	C=O	645	TMC3	C8	1	0.5438	12.011
9557	O=C	645	TMC3	O1	1	-0.57	15.9994
9558	O=C	645	TMC3	O2	1	-0.57	15.9994
9559	CB	646	MPD2	C	1	-0.15	12.011
9560	CB	646	MPD2	C1	1	0.117	12.011
9561	CB	646	MPD2	C2	1	-0.15	12.011
9562	CB	646	MPD2	C3	1	0.117	12.011
9563	CB	646	MPD2	C4	1	-0.15	12.011
9564	CB	646	MPD2	C5	1	-0.15	12.011
9565	HCMM	646	MPD2	H	1	0.15	1.0079
9566	HCMM	646	MPD2	H1	1	0.15	1.0079
9567	HCMM	646	MPD2	H2	1	0.15	1.0079
9568	HCMM	646	MPD2	H3	1	0.15	1.0079
9569	NC=O	646	MPD2	N	1	-0.547	14.0067
9570	HNCO	646	MPD2	H5	1	0.37	1.0079
9571	NC=O	646	MPD2	N1	1	-0.547	14.0067
9572	HNCO	646	MPD2	H7	1	0.37	1.0079
9573	CB	647	TMC3	C1	1	0.0862	12.011
9574	CB	647	TMC3	C2	1	-0.15	12.011
9575	CB	647	TMC3	C3	1	0.0862	12.011
9576	CB	647	TMC3	C4	1	-0.15	12.011
9577	CB	647	TMC3	C5	1	0.0862	12.011
9578	CB	647	TMC3	C6	1	-0.15	12.011
9579	C=O	647	TMC3	C	1	0.5438	12.011
9580	O=C	647	TMC3	O	1	-0.57	15.9994
9581	HCMM	647	TMC3	H	1	0.15	1.0079
9582	HCMM	647	TMC3	H1	1	0.15	1.0079
9583	HCMM	647	TMC3	H2	1	0.15	1.0079
9584	C=O	647	TMC3	C7	1	0.5438	12.011
9585	C=O	647	TMC3	C8	1	0.5438	12.011
9586	O=C	647	TMC3	O1	1	-0.57	15.9994
9587	O=C	647	TMC3	O2	1	-0.57	15.9994
9588	CB	648	TMC3	C1	1	0.0862	12.011
9589	CB	648	TMC3	C2	1	-0.15	12.011
9590	CB	648	TMC3	C3	1	0.0862	12.011
9591	CB	648	TMC3	C4	1	-0.15	12.011
9592	CB	648	TMC3	C5	1	0.0862	12.011
9593	CB	648	TMC3	C6	1	-0.15	12.011
9594	C=O	648	TMC3	C	1	0.5438	12.011
9595	O=C	648	TMC3	O	1	-0.57	15.9994
9596	HCMM	648	TMC3	H	1	0.15	1.0079
9597	HCMM	648	TMC3	H1	1	0.15	1.0079
9598	HCMM	648	TMC3	H2	1	0.15	1.0079
9599	C=O	648	TMC3	C7	1	0.5438	12.011
9600	C=O	648	TMC3	C8	1	0.5438	12.011
9601	O=C	648	TMC3	O1	1	-0.57	15.9994
9602	O=C	648	TMC3	O2	1	-0.57	15.9994
9603	CB	649	TMC3	C1	1	0.0862	12.011
9604	CB	649	TMC3	C2	1	-0.15	12.011
9605	CB	649	TMC3	C3	1	0.0862	12.011
9606	CB	649	TMC3	C4	1	-0.15	12.011
9607	CB	649	TMC3	C5	1	0.0862	12.011
9608	CB	649	TMC3	C6	1	-0.15	12.011
9609	C=O	649	TMC3	C	1	0.5438	12.011
9610	O=C	649	TMC3	O	1	-0.57	15.9994
9611	HCMM	649	TMC3	H	1	0.15	1.0079
9612	HCMM	649	TMC3	H1	1	0.15	1.0079
9613	HCMM	649	TMC3	H2	1	0.15	1.0079
9614	C=O	649	TMC3	C7	1	0.5438	12.011
9615	C=O	649	TMC3	C8	1	0.5438	12.011
9616	O=C	649	TMC3	O1	1	-0.57	15.9994
9617	O=C	649	TMC3	O2	1	-0.57	15.9994
9618	CB	650	TMC3	C1	1	0.0862	12.011
9619	CB	650	TMC3	C2	1	-0.15	12.011
9620	CB	650	TMC3	C3	1	0.0862	12.011
9621	CB	650	TMC3	C4	1	-0.15	12.011
9622	CB	650	TMC3	C5	1	0.0862	12.011
9623	CB	650	TMC3	C6	1	-0.15	12.011
9624	C=O	650	TMC3	C	1	0.5438	12.011
9625	O=C	650	TMC3	O	1	-0.57	15.9994
9626	HCMM	650	TMC3	H	1	0.15	1.0079
9627	HCMM	650	TMC3	H1	1	0.15	1.0079
9628	HCMM	650	TMC3	H2	1	0.15	1.0079
9629	C=O	650	TMC3	C7	1	0.5438	12.011
9630	C=O	650	TMC3	C8	1	0.5438	12.011
9631	O=C	650	TMC3	O1	1	-0.57	15.9994
9632	O=C	650	TMC3	O2	1	-0.57	15.9994
9633	CB	651	MPD2	C	1	-0.15	12.011
9634	CB	651	MPD2	C1	1	0.117	12.011
9635	CB	651	MPD2	C2	1	-0.15	12.011
9636	CB	651	MPD2	C3	1	0.117	12.011
9637	CB	651	MPD2	C4	1	-0.15	12.011
9638	CB	651	MPD2	C5	1	-0.15	12.011
9639	HCMM	651	MPD2	H	1	0.15	1.0079
9640	HCMM	651	MPD2	H1	1	0.15	1.0079
9641	HCMM	651	MPD2	H2	1	0.15	1.0079
9642	HCMM	651	MPD2	H3	1	0.15	1.0079
9643	NC=O	651	MPD2	N	1	-0.547	14.0067
9644	HNCO	651	MPD2	H5	1	0.37	1.0079
9645	NC=O	651	MPD2	N1	1	-0.547	14.0067
9646	HNCO	651	MPD2	H7	1	0.37	1.0079
9647	CB	652	TMC3	C1	1	0.0862	12.011
9648	CB	652	TMC3	C2	1	-0.15	12.011
9649	CB	652	TMC3	C3	1	0.0862	12.011
9650	CB	652	TMC3	C4	1	-0.15	12.011
9651	CB	652	TMC3	C5	1	0.0862	12.011
9652	CB	652	TMC3	C6	1	-0.15	12.011
9653	C=O	652	TMC3	C	1	0.5438	12.011
9654	O=C	652	TMC3	O	1	-0.57	15.9994
9655	HCMM	652	TMC3	H	1	0.15	1.0079
9656	HCMM	652	TMC3	H1	1	0.15	1.0079
9657	HCMM	652	TMC3	H2	1	0.15	1.0079
9658	C=O	652	TMC3	C7	1	0.5438	12.011
9659	C=O	652	TMC3	C8	1	0.5438	12.011
9660	O=C	652	TMC3	O1	1	-0.57	15.9994
9661	O=C	652	TMC3	O2	1	-0.57	15.9994
9662	CB	653	MPD2	C	1	-0.15	12.011
9663	CB	653	MPD2	C1	1	0.117	12.011
9664	CB	653	MPD2	C2	1	-0.15	12.011
9665	CB	653	MPD2	C3	1	0.117	12.011
9666	CB	653	MPD2	C4	1	-0.15	12.011
9667	CB	653	MPD2	C5	1	-0.15	12.011
9668	HCMM	653	MPD2	H	1	0.15	1.0079
9669	HCMM	653	MPD2	H1	1	0.15	1.0079
9670	HCMM	653	MPD2	H2	1	0.15	1.0079
9671	HCMM	653	MPD2	H3	1	0.15	1.0079
9672	NC=O	653	MPD2	N	1	-0.547	14.0067
9673	HNCO	653	MPD2	H5	1	0.37	1.0079
9674	NC=O	653	MPD2	N1	1	-0.547	14.0067
9675	HNCO	653	MPD2	H7	1	0.37	1.0079
9676	CB	654	TMC3	C1	1	0.0862	12.011
9677	CB	654	TMC3	C2	1	-0.15	12.011
9678	CB	654	TMC3	C3	1	0.0862	12.011
9679	CB	654	TMC3	C4	1	-0.15	12.011
9680	CB	654	TMC3	C5	1	0.0862	12.011
9681	CB	654	TMC3	C6	1	-0.15	12.011
9682	C=O	654	TMC3	C	1	0.5438	12.011
9683	O=C	654	TMC3	O	1	-0.57	15.9994
9684	HCMM	654	TMC3	H	1	0.15	1.0079
9685	HCMM	654	TMC3	H1	1	0.15	1.0079
9686	HCMM	654	TMC3	H2	1	0.15	1.0079
9687	C=O	654	TMC3	C7	1	0.5438	12.011
9688	C=O	654	TMC3	C8	1	0.5438	12.011
9689	O=C	654	TMC3	O1	1	-0.57	15.9994
9690	O=C	654	TMC3	O2	1	-0.57	15.9994
9691	CB	655	MPD2	C	1	-0.15	12.011
9692	CB	655	MPD2	C1	1	0.117	12.011
9693	CB	655	MPD2	C2	1	-0.15	12.011
9694	CB	655	MPD2	C3	1	0.117	12.011
9695	CB	655	MPD2	C4	1	-0.15	12.011
9696	CB	655	MPD2	C5	1	-0.15	12.011
9697	HCMM	655	MPD2	H	1	0.15	1.0079
9698	HCMM	655	MPD2	H1	1	0.15	1.0079
9699	HCMM	655	MPD2	H2	1	0.15	1.0079
9700	HCMM	655	MPD2	H3	1	0.15	1.0079
9701	NC=O	655	MPD2	N	1	-0.547	14.0067
9702	HNCO	655	MPD2	H5	1	0.37	1.0079
9703	NC=O	655	MPD2	N1	1	-0.547	14.0067
9704	HNCO	655	MPD2	H7	1	0.37	1.0079
9705	CB	656	TMC3	C1	1	0.0862	12.011
9706	CB	656	TMC3	C2	1	-0.15	12.011
9707	CB	656	TMC3	C3	1	0.0862	12.011
9708	CB	656	TMC3	C4	1	-0.15	12.011
9709	CB	656	TMC3	C5	1	0.0862	12.011
9710	CB	656	TMC3	C6	1	-0.15	12.011
9711	C=O	656	TMC3	C	1	0.5438	12.011
9712	O=C	656	TMC3	O	1	-0.57	15.9994
9713	HCMM	656	TMC3	H	1	0.15	1.0079
9714	HCMM	656	TMC3	H1	1	0.15	1.0079
9715	HCMM	656	TMC3	H2	1	0.15	1.0079
9716	C=O	656	TMC3	C7	1	0.5438	12.011
9717	C=O	656	TMC3	C8	1	0.5438	12.011
9718	O=C	656	TMC3	O1	1	-0.57	15.9994
9719	O=C	656	TMC3	O2	1	-0.57	15.9994
9720	CB	657	TMC3	C1	1	0.0862	12.011
9721	CB	657	TMC3	C2	1	-0.15	12.011
9722	CB	657	TMC3	C3	1	0.0862	12.011
9723	CB	657	TMC3	C4	1	-0.15	12.011
9724	CB	657	TMC3	C5	1	0.0862	12.011
9725	CB	657	TMC3	C6	1	-0.15	12.011
9726	C=O	657	TMC3	C	1	0.5438	12.011
9727	O=C	657	TMC3	O	1	-0.57	15.9994
9728	HCMM	657	TMC3	H	1	0.15	1.0079
9729	HCMM	657	TMC3	H1	1	0.15	1.0079
9730	HCMM	657	TMC3	H2	1	0.15	1.0079
9731	C=O	657	TMC3	C7	1	0.5438	12.011
9732	C=O	657	TMC3	C8	1	0.5438	12.011
9733	O=C	657	TMC3	O1	1	-0.57	15.9994
9734	O=C	657	TMC3	O2	1	-0.57	15.9994
9735	CB	658	MPD2	C	1	-0.15	12.011
9736	CB	658	MPD2	C1	1	0.117	12.011
9737	CB	658	MPD2	C2	1	-0.15	12.011
9738	CB	658	MPD2	C3	1	0.117	12.011
9739	CB	658	MPD2	C4	1	-0.15	12.011
9740	CB	658	MPD2	C5	1	-0.15	12.011
9741	HCMM	658	MPD2	H	1	0.15	1.0079
9742	HCMM	658	MPD2	H1	1	0.15	1.0079
9743	HCMM	658	MPD2	H2	1	0.15	1.0079
9744	HCMM	658	MPD2	H3	1	0.15	1.0079
9745	NC=O	658	MPD2	N	1	-0.547	14.0067
9746	HNCO	658	MPD2	H5	1	0.37	1.0079
9747	NC=O	658	MPD2	N1	1	-0.547	14.0067
9748	HNCO	658	MPD2	H7	1	0.37	1.0079
9749	CB	659	TMC3	C1	1	0.0862	12.011
9750	CB	659	TMC3	C2	1	-0.15	12.011
9751	CB	659	TMC3	C3	1	0.0862	12.011
9752	CB	659	TMC3	C4	1	-0.15	12.011
9753	CB	659	TMC3	C5	1	0.0862	12.011
9754	CB	659	TMC3	C6	1	-0.15	12.011
9755	C=O	659	TMC3	C	1	0.5438	12.011
9756	O=C	659	TMC3	O	1	-0.57	15.9994
9757	HCMM	659	TMC3	H	1	0.15	1.0079
9758	HCMM	659	TMC3	H1	1	0.15	1.0079
9759	HCMM	659	TMC3	H2	1	0.15	1.0079
9760	C=O	659	TMC3	C7	1	0.5438	12.011
9761	C=O	659	TMC3	C8	1	0.5438	12.011
9762	O=C	659	TMC3	O1	1	-0.57	15.9994
9763	O=C	659	TMC3	O2	1	-0.57	15.9994
9764	CB	660	MPD2	C	1	-0.15	12.011
9765	CB	660	MPD2	C1	1	0.117	12.011
9766	CB	660	MPD2	C2	1	-0.15	12.011
9767	CB	660	MPD2	C3	1	0.117	12.011
9768	CB	660	MPD2	C4	1	-0.15	12.011
9769	CB	660	MPD2	C5	1	-0.15	12.011
9770	HCMM	660	MPD2	H	1	0.15	1.0079
9771	HCMM	660	MPD2	H1	1	0.15	1.0079
9772	HCMM	660	MPD2	H2	1	0.15	1.0079
9773	HCMM	660	MPD2	H3	1	0.15	1.0079
9774	NC=O	660	MPD2	N	1	-0.547	14.0067
9775	HNCO	660	MPD2	H5	1	0.37	1.0079
9776	NC=O	660	MPD2	N1	1	-0.547	14.0067
9777	HNCO	660	MPD2	H7	1	0.37	1.0079
9778	CB	661	TMC3	C1	1	0.0862	12.011
9779	CB	661	TMC3	C2	1	-0.15	12.011
9780	CB	661	TMC3	C3	1	0.0862	12.011
9781	CB	661	TMC3	C4	1	-0.15	12.011
9782	CB	661	TMC3	C5	1	0.0862	12.011
9783	CB	661	TMC3	C6	1	-0.15	12.011
9784	C=O	661	TMC3	C	1	0.5438	12.011
9785	O=C	661	TMC3	O	1	-0.57	15.9994
9786	HCMM	661	TMC3	H	1	0.15	1.0079
9787	HCMM	661	TMC3	H1	1	0.15	1.0079
9788	HCMM	661	TMC3	H2	1	0.15	1.0079
9789	C=O	661	TMC3	C7	1	0.5438	12.011
9790	C=O	661	TMC3	C8	1	0.5438	12.011
9791	O=C	661	TMC3	O1	1	-0.57	15.9994
9792	O=C	661	TMC3	O2	1	-0.57	15.9994
9793	CB	662	MPD2	C	1	-0.15	12.011
9794	CB	662	MPD2	C1	1	0.117	12.011
9795	CB	662	MPD2	C2	1	-0.15	12.011
9796	CB	662	MPD2	C3	1	0.117	12.011
9797	CB	662	MPD2	C4	1	-0.15	12.011
9798	CB	662	MPD2	C5	1	-0.15	12.011
9799	HCMM	662	MPD2	H	1	0.15	1.0079
9800	HCMM	662	MPD2	H1	1	0.15	1.0079
9801	HCMM	662	MPD2	H2	1	0.15	1.0079
9802	HCMM	662	MPD2	H3	1	0.15	1.0079
9803	NC=O	662	MPD2	N	1	-0.547	14.0067
9804	HNCO	662	MPD2	H5	1	0.37	1.0079
9805	NC=O	662	MPD2	N1	1	-0.547	14.0067
9806	HNCO	662	MPD2	H7	1	0.37	1.0079
9807	CB	663	TMC3	C1	1	0.0862	12.011
9808	CB	663	TMC3	C2	1	-0.15	12.011
9809	CB	663	TMC3	C3	1	0.0862	12.011
9810	CB	663	TMC3	C4	1	-0.15	12.011
9811	CB	663	TMC3	C5	1	0.0862	12.011
9812	CB	663	TMC3	C6	1	-0.15	12.011
9813	C=O	663	TMC3	C	1	0.5438	12.011
9814	O=C	663	TMC3	O	1	-0.57	15.9994
9815	HCMM	663	TMC3	H	1	0.15	1.0079
9816	HCMM	663	TMC3	H1	1	0.15	1.0079
9817	HCMM	663	TMC3	H2	1	0.15	1.0079
9818	C=O	663	TMC3	C7	1	0.5438	12.011
9819	C=O	663	TMC3	C8	1	0.5438	12.011
9820	O=C	663	TMC3	O1	1	-0.57	15.9994
9821	O=C	663	TMC3	O2	1	-0.57	15.9994
9822	CB	664	MPD2	C	1	-0.15	12.011
9823	CB	664	MPD2	C1	1	0.117	12.011
9824	CB	664	MPD2	C2	1	-0.15	12.011
9825	CB	664	MPD2	C3	1	0.117	12.011
9826	CB	664	MPD2	C4	1	-0.15	12.011
9827	CB	664	MPD2	C5	1	-0.15	12.011
9828	HCMM	664	MPD2	H	1	0.15	1.0079
9829	HCMM	664	MPD2	H1	1	0.15	1.0079
9830	HCMM	664	MPD2	H2	1	0.15	1.0079
9831	HCMM	664	MPD2	H3	1	0.15	1.0079
9832	NC=O	664	MPD2	N	1	-0.547	14.0067
9833	HNCO	664	MPD2	H5	1	0.37	1.0079
9834	NC=O	664	MPD2	N1	1	-0.547	14.0067
9835	HNCO	664	MPD2	H7	1	0.37	1.0079
9836	CB	665	TMC3	C1	1	0.0862	12.011
9837	CB	665	TMC3	C2	1	-0.15	12.011
9838	CB	665	TMC3	C3	1	0.0862	12.011
9839	CB	665	TMC3	C4	1	-0.15	12.011
9840	CB	665	TMC3	C5	1	0.0862	12.011
9841	CB	665	TMC3	C6	1	-0.15	12.011
9842	C=O	665	TMC3	C	1	0.5438	12.011
9843	O=C	665	TMC3	O	1	-0.57	15.9994
9844	HCMM	665	TMC3	H	1	0.15	1.0079
9845	HCMM	665	TMC3	H1	1	0.15	1.0079
9846	HCMM	665	TMC3	H2	1	0.15	1.0079
9847	C=O	665	TMC3	C7	1	0.5438	12.011
9848	C=O	665	TMC3	C8	1	0.5438	12.011
9849	O=C	665	TMC3	O1	1	-0.57	15.9994
9850	O=C	665	TMC3	O2	1	-0.57	15.9994
9851	CB	666	TMC3	C1	1	0.0862	12.011
9852	CB	666	TMC3	C2	1	-0.15	12.011
9853	CB	666	TMC3	C3	1	0.0862	12.011
9854	CB	666	TMC3	C4	1	-0.15	12.011
9855	CB	666	TMC3	C5	1	0.0862	12.011
9856	CB	666	TMC3	C6	1	-0.15	12.011
9857	C=O	666	TMC3	C	1	0.5438	12.011
9858	O=C	666	TMC3	O	1	-0.57	15.9994
9859	HCMM	666	TMC3	H	1	0.15	1.0079
9860	HCMM	666	TMC3	H1	1	0.15	1.0079
9861	HCMM	666	TMC3	H2	1	0.15	1.0079
9862	C=O	666	TMC3	C7	1	0.5438	12.011
9863	C=O	666	TMC3	C8	1	0.5438	12.011
9864	O=C	666	TMC3	O1	1	-0.57	15.9994
9865	O=C	666	TMC3	O2	1	-0.57	15.9994
9866	CB	667	MPD2	C	1	-0.15	12.011
9867	CB	667	MPD2	C1	1	0.117	12.011
9868	CB	667	MPD2	C2	1	-0.15	12.011
9869	CB	667	MPD2	C3	1	0.117	12.011
9870	CB	667	MPD2	C4	1	-0.15	12.011
9871	CB	667	MPD2	C5	1	-0.15	12.011
9872	HCMM	667	MPD2	H	1	0.15	1.0079
9873	HCMM	667	MPD2	H1	1	0.15	1.0079
9874	HCMM	667	MPD2	H2	1	0.15	1.0079
9875	HCMM	667	MPD2	H3	1	0.15	1.0079
9876	NC=O	667	MPD2	N	1	-0.547	14.0067
9877	HNCO	667	MPD2	H5	1	0.37	1.0079
9878	NC=O	667	MPD2	N1	1	-0.547	14.0067
9879	HNCO	667	MPD2	H7	1	0.37	1.0079
9880	CB	668	TMC3	C1	1	0.0862	12.011
9881	CB	668	TMC3	C2	1	-0.15	12.011
9882	CB	668	TMC3	C3	1	0.0862	12.011
9883	CB	668	TMC3	C4	1	-0.15	12.011
9884	CB	668	TMC3	C5	1	0.0862	12.011
9885	CB	668	TMC3	C6	1	-0.15	12.011
9886	C=O	668	TMC3	C	1	0.5438	12.011
9887	O=C	668	TMC3	O	1	-0.57	15.9994
9888	HCMM	668	TMC3	H	1	0.15	1.0079
9889	HCMM	668	TMC3	H1	1	0.15	1.0079
9890	HCMM	668	TMC3	H2	1	0.15	1.0079
9891	C=O	668	TMC3	C7	1	0.5438	12.011
9892	C=O	668	TMC3	C8	1	0.5438	12.011
9893	O=C	668	TMC3	O1	1	-0.57	15.9994
9894	O=C	668	TMC3	O2	1	-0.57	15.9994
9895	CB	669	TMC3	C1	1	0.0862	12.011
9896	CB	669	TMC3	C2	1	-0.15	12.011
9897	CB	669	TMC3	C3	1	0.0862	12.011
9898	CB	669	TMC3	C4	1	-0.15	12.011
9899	CB	669	TMC3	C5	1	0.0862	12.011
9900	CB	669	TMC3	C6	1	-0.15	12.011
9901	C=O	669	TMC3	C	1	0.5438	12.011
9902	O=C	669	TMC3	O	1	-0.57	15.9994
9903	HCMM	669	TMC3	H	1	0.15	1.0079
9904	HCMM	669	TMC3	H1	1	0.15	1.0079
9905	HCMM	669	TMC3	H2	1	0.15	1.0079
9906	C=O	669	TMC3	C7	1	0.5438	12.011
9907	C=O	669	TMC3	C8	1	0.5438	12.011
9908	O=C	669	TMC3	O1	1	-0.57	15.9994
9909	O=C	669	TMC3	O2	1	-0.57	15.9994
9910	CB	670	MPD2	C	1	-0.15	12.011
9911	CB	670	MPD2	C1	1	0.117	12.011
9912	CB	670	MPD2	C2	1	-0.15	12.011
9913	CB	670	MPD2	C3	1	0.117	12.011
9914	CB	670	MPD2	C4	1	-0.15	12.011
9915	CB	670	MPD2	C5	1	-0.15	12.011
9916	HCMM	670	MPD2	H	1	0.15	1.0079
9917	HCMM	670	MPD2	H1	1	0.15	1.0079
9918	HCMM	670	MPD2	H2	1	0.15	1.0079
9919	HCMM	670	MPD2	H3	1	0.15	1.0079
9920	NC=O	670	MPD2	N	1	-0.547	14.0067
9921	HNCO	670	MPD2	H5	1	0.37	1.0079
9922	NC=O	670	MPD2	N1	1	-0.547	14.0067
9923	HNCO	670	MPD2	H7	1	0.37	1.0079
9924	CB	671	TMC3	C1	1	0.0862	12.011
9925	CB	671	TMC3	C2	1	-0.15	12.011
9926	CB	671	TMC3	C3	1	0.0862	12.011
9927	CB	671	TMC3	C4	1	-0.15	12.011
9928	CB	671	TMC3	C5	1	0.0862	12.011
9929	CB	671	TMC3	C6	1	-0.15	12.011
9930	C=O	671	TMC3	C	1	0.5438	12.011
9931	O=C	671	TMC3	O	1	-0.57	15.9994
9932	HCMM	671	TMC3	H	1	0.15	1.0079
9933	HCMM	671	TMC3	H1	1	0.15	1.0079
9934	HCMM	671	TMC3	H2	1	0.15	1.0079
9935	C=O	671	TMC3	C7	1	0.5438	12.011
9936	C=O	671	TMC3	C8	1	0.5438	12.011
9937	O=C	671	TMC3	O1	1	-0.57	15.9994
9938	O=C	671	TMC3	O2	1	-0.57	15.9994
9939	CB	672	MPD2	C	1	-0.15	12.011
9940	CB	672	MPD2	C1	1	0.117	12.011
9941	CB	672	MPD2	C2	1	-0.15	12.011
9942	CB	672	MPD2	C3	1	0.117	12.011
9943	CB	672	MPD2	C4	1	-0.15	12.011
9944	CB	672	MPD2	C5	1	-0.15	12.011
9945	HCMM	672	MPD2	H	1	0.15	1.0079
9946	HCMM	672	MPD2	H1	1	0.15	1.0079
9947	HCMM	672	MPD2	H2	1	0.15	1.0079
9948	HCMM	672	MPD2	H3	1	0.15	1.0079
9949	NC=O	672	MPD2	N	1	-0.547	14.0067
9950	HNCO	672	MPD2	H5	1	0.37	1.0079
9951	NC=O	672	MPD2	N1	1	-0.547	14.0067
9952	HNCO	672	MPD2	H7	1	0.37	1.0079
9953	CB	673	TMC3	C1	1	0.0862	12.011
9954	CB	673	TMC3	C2	1	-0.15	12.011
9955	CB	673	TMC3	C3	1	0.0862	12.011
9956	CB	673	TMC3	C4	1	-0.15	12.011
9957	CB	673	TMC3	C5	1	0.0862	12.011
9958	CB	673	TMC3	C6	1	-0.15	12.011
9959	C=O	673	TMC3	C	1	0.5438	12.011
9960	O=C	673	TMC3	O	1	-0.57	15.9994
9961	HCMM	673	TMC3	H	1	0.15	1.0079
9962	HCMM	673	TMC3	H1	1	0.15	1.0079
9963	HCMM	673	TMC3	H2	1	0.15	1.0079
9964	C=O	673	TMC3	C7	1	0.5438	12.011
9965	C=O	673	TMC3	C8	1	0.5438	12.011
9966	O=C	673	TMC3	O1	1	-0.57	15.9994
9967	O=C	673	TMC3	O2	1	-0.57	15.9994
9968	CB	674	MPD2	C	1	-0.15	12.011
9969	CB	674	MPD2	C1	1	0.117	12.011
9970	CB	674	MPD2	C2	1	-0.15	12.011
9971	CB	674	MPD2	C3	1	0.117	12.011
9972	CB	674	MPD2	C4	1	-0.15	12.011
9973	CB	674	MPD2	C5	1	-0.15	12.011
9974	HCMM	674	MPD2	H	1	0.15	1.0079
9975	HCMM	674	MPD2	H1	1	0.15	1.0079
9976	HCMM	674	MPD2	H2	1	0.15	1.0079
9977	HCMM	674	MPD2	H3	1	0.15	1.0079
9978	NC=O	674	MPD2	N	1	-0.547	14.0067
9979	HNCO	674	MPD2	H5	1	0.37	1.0079
9980	NC=O	674	MPD2	N1	1	-0.547	14.0067
9981	HNCO	674	MPD2	H7	1	0.37	1.0079
9982	CB	675	TMC3	C1	1	0.0862	12.011
9983	CB	675	TMC3	C2	1	-0.15	12.011
9984	CB	675	TMC3	C3	1	0.0862	12.011
9985	CB	675	TMC3	C4	1	-0.15	12.011
9986	CB	675	TMC3	C5	1	0.0862	12.011
9987	CB	675	TMC3	C6	1	-0.15	12.011
9988	C=O	675	TMC3	C	1	0.5438	12.011
9989	O=C	675	TMC3	O	1	-0.57	15.9994
9990	HCMM	675	TMC3	H	1	0.15	1.0079
9991	HCMM	675	TMC3	H1	1	0.15	1.0079
9992	HCMM	675	TMC3	H2	1	0.15	1.0079
9993	C=O	675	TMC3	C7	1	0.5438	12.011
9994	C=O	675	TMC3	C8	1	0.5438	12.011
9995	O=C	675	TMC3	O1	1	-0.57	15.9994
9996	O=C	675	TMC3	O2	1	-0.57	15.9994
9997	CB	676	MPD2	C	1	-0.15	12.011
9998	CB	676	MPD2	C1	1	0.117	12.011
9999	CB	676	MPD2	C2	1	-0.15	12.011
10000	CB	676	MPD2	C3	1	0.117	12.011
10001	CB	676	MPD2	C4	1	-0.15	12.011
10002	CB	676	MPD2	C5	1	-0.15	12.011
10003	HCMM	676	MPD2	H	1	0.15	1.0079
10004	HCMM	676	MPD2	H1	1	0.15	1.0079
10005	HCMM	676	MPD2	H2	1	0.15	1.0079
10006	HCMM	676	MPD2	H3	1	0.15	1.0079
10007	NC=O	676	MPD2	N	1	-0.547	14.0067
10008	HNCO	676	MPD2	H5	1	0.37	1.0079
10009	NC=O	676	MPD2	N1	1	-0.547	14.0067
10010	HNCO	676	MPD2	H7	1	0.37	1.0079
10011	CB	677	TMC3	C1	1	0.0862	12.011
10012	CB	677	TMC3	C2	1	-0.15	12.011
10013	CB	677	TMC3	C3	1	0.0862	12.011
10014	CB	677	TMC3	C4	1	-0.15	12.011
10015	CB	677	TMC3	C5	1	0.0862	12.011
10016	CB	677	TMC3	C6	1	-0.15	12.011
10017	C=O	677	TMC3	C	1	0.5438	12.011
10018	O=C	677	TMC3	O	1	-0.57	15.9994
10019	HCMM	677	TMC3	H	1	0.15	1.0079
10020	HCMM	677	TMC3	H1	1	0.15	1.0079
10021	HCMM	677	TMC3	H2	1	0.15	1.0079
10022	C=O	677	TMC3	C7	1	0.5438	12.011
10023	C=O	677	TMC3	C8	1	0.5438	12.011
10024	O=C	677	TMC3	O1	1	-0.57	15.9994
10025	O=C	677	TMC3	O2	1	-0.57	15.9994
10026	CB	678	MPD2	C	1	-0.15	12.011
10027	CB	678	MPD2	C1	1	0.117	12.011
10028	CB	678	MPD2	C2	1	-0.15	12.011
10029	CB	678	MPD2	C3	1	0.117	12.011
10030	CB	678	MPD2	C4	1	-0.15	12.011
10031	CB	678	MPD2	C5	1	-0.15	12.011
10032	HCMM	678	MPD2	H	1	0.15	1.0079
10033	HCMM	678	MPD2	H1	1	0.15	1.0079
10034	HCMM	678	MPD2	H2	1	0.15	1.0079
10035	HCMM	678	MPD2	H3	1	0.15	1.0079
10036	NC=O	678	MPD2	N	1	-0.547	14.0067
10037	HNCO	678	MPD2	H5	1	0.37	1.0079
10038	NC=O	678	MPD2	N1	1	-0.547	14.0067
10039	HNCO	678	MPD2	H7	1	0.37	1.0079
10040	CB	679	TMC3	C1	1	0.0862	12.011
10041	CB	679	TMC3	C2	1	-0.15	12.011
10042	CB	679	TMC3	C3	1	0.0862	12.011
10043	CB	679	TMC3	C4	1	-0.15	12.011
10044	CB	679	TMC3	C5	1	0.0862	12.011
10045	CB	679	TMC3	C6	1	-0.15	12.011
10046	C=O	679	TMC3	C	1	0.5438	12.011
10047	O=C	679	TMC3	O	1	-0.57	15.9994
10048	HCMM	679	TMC3	H	1	0.15	1.0079
10049	HCMM	679	TMC3	H1	1	0.15	1.0079
10050	HCMM	679	TMC3	H2	1	0.15	1.0079
10051	C=O	679	TMC3	C7	1	0.5438	12.011
10052	C=O	679	TMC3	C8	1	0.5438	12.011
10053	O=C	679	TMC3	O1	1	-0.57	15.9994
10054	O=C	679	TMC3	O2	1	-0.57	15.9994
10055	CB	680	MPD2	C	1	-0.15	12.011
10056	CB	680	MPD2	C1	1	0.117	12.011
10057	CB	680	MPD2	C2	1	-0.15	12.011
10058	CB	680	MPD2	C3	1	0.117	12.011
10059	CB	680	MPD2	C4	1	-0.15	12.011
10060	CB	680	MPD2	C5	1	-0.15	12.011
10061	HCMM	680	MPD2	H	1	0.15	1.0079
10062	HCMM	680	MPD2	H1	1	0.15	1.0079
10063	HCMM	680	MPD2	H2	1	0.15	1.0079
10064	HCMM	680	MPD2	H3	1	0.15	1.0079
10065	NC=O	680	MPD2	N	1	-0.547	14.0067
10066	HNCO	680	MPD2	H5	1	0.37	1.0079
10067	NC=O	680	MPD2	N1	1	-0.547	14.0067
10068	HNCO	680	MPD2	H7	1	0.37	1.0079
10069	CB	681	TMC3	C1	1	0.0862	12.011
10070	CB	681	TMC3	C2	1	-0.15	12.011
10071	CB	681	TMC3	C3	1	0.0862	12.011
10072	CB	681	TMC3	C4	1	-0.15	12.011
10073	CB	681	TMC3	C5	1	0.0862	12.011
10074	CB	681	TMC3	C6	1	-0.15	12.011
10075	C=O	681	TMC3	C	1	0.5438	12.011
10076	O=C	681	TMC3	O	1	-0.57	15.9994
10077	HCMM	681	TMC3	H	1	0.15	1.0079
10078	HCMM	681	TMC3	H1	1	0.15	1.0079
10079	HCMM	681	TMC3	H2	1	0.15	1.0079
10080	C=O	681	TMC3	C7	1	0.5438	12.011
10081	C=O	681	TMC3	C8	1	0.5438	12.011
10082	O=C	681	TMC3	O1	1	-0.57	15.9994
10083	O=C	681	TMC3	O2	1	-0.57	15.9994
10084	CB	682	MPD2	C	1	-0.15	12.011
10085	CB	682	MPD2	C1	1	0.117	12.011
10086	CB	682	MPD2	C2	1	-0.15	12.011
10087	CB	682	MPD2	C3	1	0.117	12.011
10088	CB	682	MPD2	C4	1	-0.15	12.011
10089	CB	682	MPD2	C5	1	-0.15	12.011
10090	HCMM	682	MPD2	H	1	0.15	1.0079
10091	HCMM	682	MPD2	H1	1	0.15	1.0079
10092	HCMM	682	MPD2	H2	1	0.15	1.0079
10093	HCMM	682	MPD2	H3	1	0.15	1.0079
10094	NC=O	682	MPD2	N	1	-0.547	14.0067
10095	HNCO	682	MPD2	H5	1	0.37	1.0079
10096	NC=O	682	MPD2	N1	1	-0.547	14.0067
10097	HNCO	682	MPD2	H7	1	0.37	1.0079
10098	CB	683	TMC3	C1	1	0.0862	12.011
10099	CB	683	TMC3	C2	1	-0.15	12.011
10100	CB	683	TMC3	C3	1	0.0862	12.011
10101	CB	683	TMC3	C4	1	-0.15	12.011
10102	CB	683	TMC3	C5	1	0.0862	12.011
10103	CB	683	TMC3	C6	1	-0.15	12.011
10104	C=O	683	TMC3	C	1	0.5438	12.011
10105	O=C	683	TMC3	O	1	-0.57	15.9994
10106	HCMM	683	TMC3	H	1	0.15	1.0079
10107	HCMM	683	TMC3	H1	1	0.15	1.0079
10108	HCMM	683	TMC3	H2	1	0.15	1.0079
10109	C=O	683	TMC3	C7	1	0.5438	12.011
10110	C=O	683	TMC3	C8	1	0.5438	12.011
10111	O=C	683	TMC3	O1	1	-0.57	15.9994
10112	O=C	683	TMC3	O2	1	-0.57	15.9994
10113	CB	684	MPD2	C	1	-0.15	12.011
10114	CB	684	MPD2	C1	1	0.117	12.011
10115	CB	684	MPD2	C2	1	-0.15	12.011
10116	CB	684	MPD2	C3	1	0.117	12.011
10117	CB	684	MPD2	C4	1	-0.15	12.011
10118	CB	684	MPD2	C5	1	-0.15	12.011
10119	HCMM	684	MPD2	H	1	0.15	1.0079
10120	HCMM	684	MPD2	H1	1	0.15	1.0079
10121	HCMM	684	MPD2	H2	1	0.15	1.0079
10122	HCMM	684	MPD2	H3	1	0.15	1.0079
10123	NC=O	684	MPD2	N	1	-0.547	14.0067
10124	HNCO	684	MPD2	H5	1	0.37	1.0079
10125	NC=O	684	MPD2	N1	1	-0.547	14.0067
10126	HNCO	684	MPD2	H7	1	0.37	1.0079
10127	CB	685	TMC3	C1	1	0.0862	12.011
10128	CB	685	TMC3	C2	1	-0.15	12.011
10129	CB	685	TMC3	C3	1	0.0862	12.011
10130	CB	685	TMC3	C4	1	-0.15	12.011
10131	CB	685	TMC3	C5	1	0.0862	12.011
10132	CB	685	TMC3	C6	1	-0.15	12.011
10133	C=O	685	TMC3	C	1	0.5438	12.011
10134	O=C	685	TMC3	O	1	-0.57	15.9994
10135	HCMM	685	TMC3	H	1	0.15	1.0079
10136	HCMM	685	TMC3	H1	1	0.15	1.0079
10137	HCMM	685	TMC3	H2	1	0.15	1.0079
10138	C=O	685	TMC3	C7	1	0.5438	12.011
10139	C=O	685	TMC3	C8	1	0.5438	12.011
10140	O=C	685	TMC3	O1	1	-0.57	15.9994
10141	O=C	685	TMC3	O2	1	-0.57	15.9994
10142	CB	686	MPD2	C	1	-0.15	12.011
10143	CB	686	MPD2	C1	1	0.117	12.011
10144	CB	686	MPD2	C2	1	-0.15	12.011
10145	CB	686	MPD2	C3	1	0.117	12.011
10146	CB	686	MPD2	C4	1	-0.15	12.011
10147	CB	686	MPD2	C5	1	-0.15	12.011
10148	HCMM	686	MPD2	H	1	0.15	1.0079
10149	HCMM	686	MPD2	H1	1	0.15	1.0079
10150	HCMM	686	MPD2	H2	1	0.15	1.0079
10151	HCMM	686	MPD2	H3	1	0.15	1.0079
10152	NC=O	686	MPD2	N	1	-0.547	14.0067
10153	HNCO	686	MPD2	H5	1	0.37	1.0079
10154	NC=O	686	MPD2	N1	1	-0.547	14.0067
10155	HNCO	686	MPD2	H7	1	0.37	1.0079
10156	CB	687	TMC3	C1	1	0.0862	12.011
10157	CB	687	TMC3	C2	1	-0.15	12.011
10158	CB	687	TMC3	C3	1	0.0862	12.011
10159	CB	687	TMC3	C4	1	-0.15	12.011
10160	CB	687	TMC3	C5	1	0.0862	12.011
10161	CB	687	TMC3	C6	1	-0.15	12.011
10162	C=O	687	TMC3	C	1	0.5438	12.011
10163	O=C	687	TMC3	O	1	-0.57	15.9994
10164	HCMM	687	TMC3	H	1	0.15	1.0079
10165	HCMM	687	TMC3	H1	1	0.15	1.0079
10166	HCMM	687	TMC3	H2	1	0.15	1.0079
10167	C=O	687	TMC3	C7	1	0.5438	12.011
10168	C=O	687	TMC3	C8	1	0.5438	12.011
10169	O=C	687	TMC3	O1	1	-0.57	15.9994
10170	O=C	687	TMC3	O2	1	-0.57	15.9994
10171	CB	688	MPD2	C	1	-0.15	12.011
10172	CB	688	MPD2	C1	1	0.117	12.011
10173	CB	688	MPD2	C2	1	-0.15	12.011
10174	CB	688	MPD2	C3	1	0.117	12.011
10175	CB	688	MPD2	C4	1	-0.15	12.011
10176	CB	688	MPD2	C5	1	-0.15	12.011
10177	HCMM	688	MPD2	H	1	0.15	1.0079
10178	HCMM	688	MPD2	H1	1	0.15	1.0079
10179	HCMM	688	MPD2	H2	1	0.15	1.0079
10180	HCMM	688	MPD2	H3	1	0.15	1.0079
10181	NC=O	688	MPD2	N	1	-0.547	14.0067
10182	HNCO	688	MPD2	H5	1	0.37	1.0079
10183	NC=O	688	MPD2	N1	1	-0.547	14.0067
10184	HNCO	688	MPD2	H7	1	0.37	1.0079
10185	CB	689	TMC3	C1	1	0.0862	12.011
10186	CB	689	TMC3	C2	1	-0.15	12.011
10187	CB	689	TMC3	C3	1	0.0862	12.011
10188	CB	689	TMC3	C4	1	-0.15	12.011
10189	CB	689	TMC3	C5	1	0.0862	12.011
10190	CB	689	TMC3	C6	1	-0.15	12.011
10191	C=O	689	TMC3	C	1	0.5438	12.011
10192	O=C	689	TMC3	O	1	-0.57	15.9994
10193	HCMM	689	TMC3	H	1	0.15	1.0079
10194	HCMM	689	TMC3	H1	1	0.15	1.0079
10195	HCMM	689	TMC3	H2	1	0.15	1.0079
10196	C=O	689	TMC3	C7	1	0.5438	12.011
10197	C=O	689	TMC3	C8	1	0.5438	12.011
10198	O=C	689	TMC3	O1	1	-0.57	15.9994
10199	O=C	689	TMC3	O2	1	-0.57	15.9994
10200	CB	690	MPD2	C	1	-0.15	12.011
10201	CB	690	MPD2	C1	1	0.117	12.011
10202	CB	690	MPD2	C2	1	-0.15	12.011
10203	CB	690	MPD2	C3	1	0.117	12.011
10204	CB	690	MPD2	C4	1	-0.15	12.011
10205	CB	690	MPD2	C5	1	-0.15	12.011
10206	HCMM	690	MPD2	H	1	0.15	1.0079
10207	HCMM	690	MPD2	H1	1	0.15	1.0079
10208	HCMM	690	MPD2	H2	1	0.15	1.0079
10209	HCMM	690	MPD2	H3	1	0.15	1.0079
10210	NC=O	690	MPD2	N	1	-0.547	14.0067
10211	HNCO	690	MPD2	H5	1	0.37	1.0079
10212	NC=O	690	MPD2	N1	1	-0.547	14.0067
10213	HNCO	690	MPD2	H7	1	0.37	1.0079
10214	CB	691	TMC3	C1	1	0.0862	12.011
10215	CB	691	TMC3	C2	1	-0.15	12.011
10216	CB	691	TMC3	C3	1	0.0862	12.011
10217	CB	691	TMC3	C4	1	-0.15	12.011
10218	CB	691	TMC3	C5	1	0.0862	12.011
10219	CB	691	TMC3	C6	1	-0.15	12.011
10220	C=O	691	TMC3	C	1	0.5438	12.011
10221	O=C	691	TMC3	O	1	-0.57	15.9994
10222	HCMM	691	TMC3	H	1	0.15	1.0079
10223	HCMM	691	TMC3	H1	1	0.15	1.0079
10224	HCMM	691	TMC3	H2	1	0.15	1.0079
10225	C=O	691	TMC3	C7	1	0.5438	12.011
10226	C=O	691	TMC3	C8	1	0.5438	12.011
10227	O=C	691	TMC3	O1	1	-0.57	15.9994
10228	O=C	691	TMC3	O2	1	-0.57	15.9994
10229	CB	692	TMC3	C1	1	0.0862	12.011
10230	CB	692	TMC3	C2	1	-0.15	12.011
10231	CB	692	TMC3	C3	1	0.0862	12.011
10232	CB	692	TMC3	C4	1	-0.15	12.011
10233	CB	692	TMC3	C5	1	0.0862	12.011
10234	CB	692	TMC3	C6	1	-0.15	12.011
10235	C=O	692	TMC3	C	1	0.5438	12.011
10236	O=C	692	TMC3	O	1	-0.57	15.9994
10237	HCMM	692	TMC3	H	1	0.15	1.0079
10238	HCMM	692	TMC3	H1	1	0.15	1.0079
10239	HCMM	692	TMC3	H2	1	0.15	1.0079
10240	C=O	692	TMC3	C7	1	0.5438	12.011
10241	C=O	692	TMC3	C8	1	0.5438	12.011
10242	O=C	692	TMC3	O1	1	-0.57	15.9994
10243	O=C	692	TMC3	O2	1	-0.57	15.9994
10244	CB	693	MPD2	C	1	-0.15	12.011
10245	CB	693	MPD2	C1	1	0.117	12.011
10246	CB	693	MPD2	C2	1	-0.15	12.011
10247	CB	693	MPD2	C3	1	0.117	12.011
10248	CB	693	MPD2	C4	1	-0.15	12.011
10249	CB	693	MPD2	C5	1	-0.15	12.011
10250	HCMM	693	MPD2	H	1	0.15	1.0079
10251	HCMM	693	MPD2	H1	1	0.15	1.0079
10252	HCMM	693	MPD2	H2	1	0.15	1.0079
10253	HCMM	693	MPD2	H3	1	0.15	1.0079
10254	NC=O	693	MPD2	N	1	-0.547	14.0067
10255	HNCO	693	MPD2	H5	1	0.37	1.0079
10256	NC=O	693	MPD2	N1	1	-0.547	14.0067
10257	HNCO	693	MPD2	H7	1	0.37	1.0079
10258	CB	694	TMC3	C1	1	0.0862	12.011
10259	CB	694	TMC3	C2	1	-0.15	12.011
10260	CB	694	TMC3	C3	1	0.0862	12.011
10261	CB	694	TMC3	C4	1	-0.15	12.011
10262	CB	694	TMC3	C5	1	0.0862	12.011
10263	CB	694	TMC3	C6	1	-0.15	12.011
10264	C=O	694	TMC3	C	1	0.5438	12.011
10265	O=C	694	TMC3	O	1	-0.57	15.9994
10266	HCMM	694	TMC3	H	1	0.15	1.0079
10267	HCMM	694	TMC3	H1	1	0.15	1.0079
10268	HCMM	694	TMC3	H2	1	0.15	1.0079
10269	C=O	694	TMC3	C7	1	0.5438	12.011
10270	C=O	694	TMC3	C8	1	0.5438	12.011
10271	O=C	694	TMC3	O1	1	-0.57	15.9994
10272	O=C	694	TMC3	O2	1	-0.57	15.9994
10273	CB	695	MPD2	C	1	-0.15	12.011
10274	CB	695	MPD2	C1	1	0.117	12.011
10275	CB	695	MPD2	C2	1	-0.15	12.011
10276	CB	695	MPD2	C3	1	0.117	12.011
10277	CB	695	MPD2	C4	1	-0.15	12.011
10278	CB	695	MPD2	C5	1	-0.15	12.011
10279	HCMM	695	MPD2	H	1	0.15	1.0079
10280	HCMM	695	MPD2	H1	1	0.15	1.0079
10281	HCMM	695	MPD2	H2	1	0.15	1.0079
10282	HCMM	695	MPD2	H3	1	0.15	1.0079
10283	NC=O	695	MPD2	N	1	-0.547	14.0067
10284	HNCO	695	MPD2	H5	1	0.37	1.0079
10285	NC=O	695	MPD2	N1	1	-0.547	14.0067
10286	HNCO	695	MPD2	H7	1	0.37	1.0079
10287	CB	696	TMC3	C1	1	0.0862	12.011
10288	CB	696	TMC3	C2	1	-0.15	12.011
10289	CB	696	TMC3	C3	1	0.0862	12.011
10290	CB	696	TMC3	C4	1	-0.15	12.011
10291	CB	696	TMC3	C5	1	0.0862	12.011
10292	CB	696	TMC3	C6	1	-0.15	12.011
10293	C=O	696	TMC3	C	1	0.5438	12.011
10294	O=C	696	TMC3	O	1	-0.57	15.9994
10295	HCMM	696	TMC3	H	1	0.15	1.0079
10296	HCMM	696	TMC3	H1	1	0.15	1.0079
10297	HCMM	696	TMC3	H2	1	0.15	1.0079
10298	C=O	696	TMC3	C7	1	0.5438	12.011
10299	C=O	696	TMC3	C8	1	0.5438	12.011
10300	O=C	696	TMC3	O1	1	-0.57	15.9994
10301	O=C	696	TMC3	O2	1	-0.57	15.9994
10302	CB	697	MPD2	C	1	-0.15	12.011
10303	CB	697	MPD2	C1	1	0.117	12.011
10304	CB	697	MPD2	C2	1	-0.15	12.011
10305	CB	697	MPD2	C3	1	0.117	12.011
10306	CB	697	MPD2	C4	1	-0.15	12.011
10307	CB	697	MPD2	C5	1	-0.15	12.011
10308	HCMM	697	MPD2	H	1	0.15	1.0079
10309	HCMM	697	MPD2	H1	1	0.15	1.0079
10310	HCMM	697	MPD2	H2	1	0.15	1.0079
10311	HCMM	697	MPD2	H3	1	0.15	1.0079
10312	NC=O	697	MPD2	N	1	-0.547	14.0067
10313	HNCO	697	MPD2	H5	1	0.37	1.0079
10314	NC=O	697	MPD2	N1	1	-0.547	14.0067
10315	HNCO	697	MPD2	H7	1	0.37	1.0079
10316	CB	698	TMC3	C1	1	0.0862	12.011
10317	CB	698	TMC3	C2	1	-0.15	12.011
10318	CB	698	TMC3	C3	1	0.0862	12.011
10319	CB	698	TMC3	C4	1	-0.15	12.011
10320	CB	698	TMC3	C5	1	0.0862	12.011
10321	CB	698	TMC3	C6	1	-0.15	12.011
10322	C=O	698	TMC3	C	1	0.5438	12.011
10323	O=C	698	TMC3	O	1	-0.57	15.9994
10324	HCMM	698	TMC3	H	1	0.15	1.0079
10325	HCMM	698	TMC3	H1	1	0.15	1.0079
10326	HCMM	698	TMC3	H2	1	0.15	1.0079
10327	C=O	698	TMC3	C7	1	0.5438	12.011
10328	C=O	698	TMC3	C8	1	0.5438	12.011
10329	O=C	698	TMC3	O1	1	-0.57	15.9994
10330	O=C	698	TMC3	O2	1	-0.57	15.9994
10331	CB	699	TMC3	C1	1	0.0862	12.011
10332	CB	699	TMC3	C2	1	-0.15	12.011
10333	CB	699	TMC3	C3	1	0.0862	12.011
10334	CB	699	TMC3	C4	1	-0.15	12.011
10335	CB	699	TMC3	C5	1	0.0862	12.011
10336	CB	699	TMC3	C6	1	-0.15	12.011
10337	C=O	699	TMC3	C	1	0.5438	12.011
10338	O=C	699	TMC3	O	1	-0.57	15.9994
10339	HCMM	699	TMC3	H	1	0.15	1.0079
10340	HCMM	699	TMC3	H1	1	0.15	1.0079
10341	HCMM	699	TMC3	H2	1	0.15	1.0079
10342	C=O	699	TMC3	C7	1	0.5438	12.011
10343	C=O	699	TMC3	C8	1	0.5438	12.011
10344	O=C	699	TMC3	O1	1	-0.57	15.9994
10345	O=C	699	TMC3	O2	1	-0.57	15.9994
10346	CB	700	TMC3	C1	1	0.0862	12.011
10347	CB	700	TMC3	C2	1	-0.15	12.011
10348	CB	700	TMC3	C3	1	0.0862	12.011
10349	CB	700	TMC3	C4	1	-0.15	12.011
10350	CB	700	TMC3	C5	1	0.0862	12.011
10351	CB	700	TMC3	C6	1	-0.15	12.011
10352	C=O	700	TMC3	C	1	0.5438	12.011
10353	O=C	700	TMC3	O	1	-0.57	15.9994
10354	HCMM	700	TMC3	H	1	0.15	1.0079
10355	HCMM	700	TMC3	H1	1	0.15	1.0079
10356	HCMM	700	TMC3	H2	1	0.15	1.0079
10357	C=O	700	TMC3	C7	1	0.5438	12.011
10358	C=O	700	TMC3	C8	1	0.5438	12.011
10359	O=C	700	TMC3	O1	1	-0.57	15.9994
10360	O=C	700	TMC3	O2	1	-0.57	15.9994
10361	CB	701	TMC3	C1	1	0.0862	12.011
10362	CB	701	TMC3	C2	1	-0.15	12.011
10363	CB	701	TMC3	C3	1	0.0862	12.011
10364	CB	701	TMC3	C4	1	-0.15	12.011
10365	CB	701	TMC3	C5	1	0.0862	12.011
10366	CB	701	TMC3	C6	1	-0.15	12.011
10367	C=O	701	TMC3	C	1	0.5438	12.011
10368	O=C	701	TMC3	O	1	-0.57	15.9994
10369	HCMM	701	TMC3	H	1	0.15	1.0079
10370	HCMM	701	TMC3	H1	1	0.15	1.0079
10371	HCMM	701	TMC3	H2	1	0.15	1.0079
10372	C=O	701	TMC3	C7	1	0.5438	12.011
10373	C=O	701	TMC3	C8	1	0.5438	12.011
10374	O=C	701	TMC3	O1	1	-0.57	15.9994
10375	O=C	701	TMC3	O2	1	-0.57	15.9994
10376	CB	702	MPD2	C	1	-0.15	12.011
10377	CB	702	MPD2	C1	1	0.117	12.011
10378	CB	702	MPD2	C2	1	-0.15	12.011
10379	CB	702	MPD2	C3	1	0.117	12.011
10380	CB	702	MPD2	C4	1	-0.15	12.011
10381	CB	702	MPD2	C5	1	-0.15	12.011
10382	HCMM	702	MPD2	H	1	0.15	1.0079
10383	HCMM	702	MPD2	H1	1	0.15	1.0079
10384	HCMM	702	MPD2	H2	1	0.15	1.0079
10385	HCMM	702	MPD2	H3	1	0.15	1.0079
10386	NC=O	702	MPD2	N	1	-0.547	14.0067
10387	HNCO	702	MPD2	H5	1	0.37	1.0079
10388	NC=O	702	MPD2	N1	1	-0.547	14.0067
10389	HNCO	702	MPD2	H7	1	0.37	1.0079
10390	CB	703	TMC3	C1	1	0.0862	12.011
10391	CB	703	TMC3	C2	1	-0.15	12.011
10392	CB	703	TMC3	C3	1	0.0862	12.011
10393	CB	703	TMC3	C4	1	-0.15	12.011
10394	CB	703	TMC3	C5	1	0.0862	12.011
10395	CB	703	TMC3	C6	1	-0.15	12.011
10396	C=O	703	TMC3	C	1	0.5438	12.011
10397	O=C	703	TMC3	O	1	-0.57	15.9994
10398	HCMM	703	TMC3	H	1	0.15	1.0079
10399	HCMM	703	TMC3	H1	1	0.15	1.0079
10400	HCMM	703	TMC3	H2	1	0.15	1.0079
10401	C=O	703	TMC3	C7	1	0.5438	12.011
10402	C=O	703	TMC3	C8	1	0.5438	12.011
10403	O=C	703	TMC3	O1	1	-0.57	15.9994
10404	O=C	703	TMC3	O2	1	-0.57	15.9994
10405	CB	704	TMC3	C1	1	0.0862	12.011
10406	CB	704	TMC3	C2	1	-0.15	12.011
10407	CB	704	TMC3	C3	1	0.0862	12.011
10408	CB	704	TMC3	C4	1	-0.15	12.011
10409	CB	704	TMC3	C5	1	0.0862	12.011
10410	CB	704	TMC3	C6	1	-0.15	12.011
10411	C=O	704	TMC3	C	1	0.5438	12.011
10412	O=C	704	TMC3	O	1	-0.57	15.9994
10413	HCMM	704	TMC3	H	1	0.15	1.0079
10414	HCMM	704	TMC3	H1	1	0.15	1.0079
10415	HCMM	704	TMC3	H2	1	0.15	1.0079
10416	C=O	704	TMC3	C7	1	0.5438	12.011
10417	C=O	704	TMC3	C8	1	0.5438	12.011
10418	O=C	704	TMC3	O1	1	-0.57	15.9994
10419	O=C	704	TMC3	O2	1	-0.57	15.9994
10420	CB	705	MPD2	C	1	-0.15	12.011
10421	CB	705	MPD2	C1	1	0.117	12.011
10422	CB	705	MPD2	C2	1	-0.15	12.011
10423	CB	705	MPD2	C3	1	0.117	12.011
10424	CB	705	MPD2	C4	1	-0.15	12.011
10425	CB	705	MPD2	C5	1	-0.15	12.011
10426	HCMM	705	MPD2	H	1	0.15	1.0079
10427	HCMM	705	MPD2	H1	1	0.15	1.0079
10428	HCMM	705	MPD2	H2	1	0.15	1.0079
10429	HCMM	705	MPD2	H3	1	0.15	1.0079
10430	NC=O	705	MPD2	N	1	-0.547	14.0067
10431	HNCO	705	MPD2	H5	1	0.37	1.0079
10432	NC=O	705	MPD2	N1	1	-0.547	14.0067
10433	HNCO	705	MPD2	H7	1	0.37	1.0079
10434	CB	706	TMC3	C1	1	0.0862	12.011
10435	CB	706	TMC3	C2	1	-0.15	12.011
10436	CB	706	TMC3	C3	1	0.0862	12.011
10437	CB	706	TMC3	C4	1	-0.15	12.011
10438	CB	706	TMC3	C5	1	0.0862	12.011
10439	CB	706	TMC3	C6	1	-0.15	12.011
10440	C=O	706	TMC3	C	1	0.5438	12.011
10441	O=C	706	TMC3	O	1	-0.57	15.9994
10442	HCMM	706	TMC3	H	1	0.15	1.0079
10443	HCMM	706	TMC3	H1	1	0.15	1.0079
10444	HCMM	706	TMC3	H2	1	0.15	1.0079
10445	C=O	706	TMC3	C7	1	0.5438	12.011
10446	C=O	706	TMC3	C8	1	0.5438	12.011
10447	O=C	706	TMC3	O1	1	-0.57	15.9994
10448	O=C	706	TMC3	O2	1	-0.57	15.9994
10449	CB	707	TMC3	C1	1	0.0862	12.011
10450	CB	707	TMC3	C2	1	-0.15	12.011
10451	CB	707	TMC3	C3	1	0.0862	12.011
10452	CB	707	TMC3	C4	1	-0.15	12.011
10453	CB	707	TMC3	C5	1	0.0862	12.011
10454	CB	707	TMC3	C6	1	-0.15	12.011
10455	C=O	707	TMC3	C	1	0.5438	12.011
10456	O=C	707	TMC3	O	1	-0.57	15.9994
10457	HCMM	707	TMC3	H	1	0.15	1.0079
10458	HCMM	707	TMC3	H1	1	0.15	1.0079
10459	HCMM	707	TMC3	H2	1	0.15	1.0079
10460	C=O	707	TMC3	C7	1	0.5438	12.011
10461	C=O	707	TMC3	C8	1	0.5438	12.011
10462	O=C	707	TMC3	O1	1	-0.57	15.9994
10463	O=C	707	TMC3	O2	1	-0.57	15.9994
10464	CB	708	MPD2	C	1	-0.15	12.011
10465	CB	708	MPD2	C1	1	0.117	12.011
10466	CB	708	MPD2	C2	1	-0.15	12.011
10467	CB	708	MPD2	C3	1	0.117	12.011
10468	CB	708	MPD2	C4	1	-0.15	12.011
10469	CB	708	MPD2	C5	1	-0.15	12.011
10470	HCMM	708	MPD2	H	1	0.15	1.0079
10471	HCMM	708	MPD2	H1	1	0.15	1.0079
10472	HCMM	708	MPD2	H2	1	0.15	1.0079
10473	HCMM	708	MPD2	H3	1	0.15	1.0079
10474	NC=O	708	MPD2	N	1	-0.547	14.0067
10475	HNCO	708	MPD2	H5	1	0.37	1.0079
10476	NC=O	708	MPD2	N1	1	-0.547	14.0067
10477	HNCO	708	MPD2	H7	1	0.37	1.0079
10478	CB	709	TMC3	C1	1	0.0862	12.011
10479	CB	709	TMC3	C2	1	-0.15	12.011
10480	CB	709	TMC3	C3	1	0.0862	12.011
10481	CB	709	TMC3	C4	1	-0.15	12.011
10482	CB	709	TMC3	C5	1	0.0862	12.011
10483	CB	709	TMC3	C6	1	-0.15	12.011
10484	C=O	709	TMC3	C	1	0.5438	12.011
10485	O=C	709	TMC3	O	1	-0.57	15.9994
10486	HCMM	709	TMC3	H	1	0.15	1.0079
10487	HCMM	709	TMC3	H1	1	0.15	1.0079
10488	HCMM	709	TMC3	H2	1	0.15	1.0079
10489	C=O	709	TMC3	C7	1	0.5438	12.011
10490	C=O	709	TMC3	C8	1	0.5438	12.011
10491	O=C	709	TMC3	O1	1	-0.57	15.9994
10492	O=C	709	TMC3	O2	1	-0.57	15.9994
10493	CB	710	TMC3	C1	1	0.0862	12.011
10494	CB	710	TMC3	C2	1	-0.15	12.011
10495	CB	710	TMC3	C3	1	0.0862	12.011
10496	CB	710	TMC3	C4	1	-0.15	12.011
10497	CB	710	TMC3	C5	1	0.0862	12.011
10498	CB	710	TMC3	C6	1	-0.15	12.011
10499	C=O	710	TMC3	C	1	0.5438	12.011
10500	O=C	710	TMC3	O	1	-0.57	15.9994
10501	HCMM	710	TMC3	H	1	0.15	1.0079
10502	HCMM	710	TMC3	H1	1	0.15	1.0079
10503	HCMM	710	TMC3	H2	1	0.15	1.0079
10504	C=O	710	TMC3	C7	1	0.5438	12.011
10505	C=O	710	TMC3	C8	1	0.5438	12.011
10506	O=C	710	TMC3	O1	1	-0.57	15.9994
10507	O=C	710	TMC3	O2	1	-0.57	15.9994
10508	CB	711	TMC3	C1	1	0.0862	12.011
10509	CB	711	TMC3	C2	1	-0.15	12.011
10510	CB	711	TMC3	C3	1	0.0862	12.011
10511	CB	711	TMC3	C4	1	-0.15	12.011
10512	CB	711	TMC3	C5	1	0.0862	12.011
10513	CB	711	TMC3	C6	1	-0.15	12.011
10514	C=O	711	TMC3	C	1	0.5438	12.011
10515	O=C	711	TMC3	O	1	-0.57	15.9994
10516	HCMM	711	TMC3	H	1	0.15	1.0079
10517	HCMM	711	TMC3	H1	1	0.15	1.0079
10518	HCMM	711	TMC3	H2	1	0.15	1.0079
10519	C=O	711	TMC3	C7	1	0.5438	12.011
10520	C=O	711	TMC3	C8	1	0.5438	12.011
10521	O=C	711	TMC3	O1	1	-0.57	15.9994
10522	O=C	711	TMC3	O2	1	-0.57	15.9994
10523	CB	712	MPD2	C	1	-0.15	12.011
10524	CB	712	MPD2	C1	1	0.117	12.011
10525	CB	712	MPD2	C2	1	-0.15	12.011
10526	CB	712	MPD2	C3	1	0.117	12.011
10527	CB	712	MPD2	C4	1	-0.15	12.011
10528	CB	712	MPD2	C5	1	-0.15	12.011
10529	HCMM	712	MPD2	H	1	0.15	1.0079
10530	HCMM	712	MPD2	H1	1	0.15	1.0079
10531	HCMM	712	MPD2	H2	1	0.15	1.0079
10532	HCMM	712	MPD2	H3	1	0.15	1.0079
10533	NC=O	712	MPD2	N	1	-0.547	14.0067
10534	HNCO	712	MPD2	H5	1	0.37	1.0079
10535	NC=O	712	MPD2	N1	1	-0.547	14.0067
10536	HNCO	712	MPD2	H7	1	0.37	1.0079
10537	CB	713	TMC3	C1	1	0.0862	12.011
10538	CB	713	TMC3	C2	1	-0.15	12.011
10539	CB	713	TMC3	C3	1	0.0862	12.011
10540	CB	713	TMC3	C4	1	-0.15	12.011
10541	CB	713	TMC3	C5	1	0.0862	12.011
10542	CB	713	TMC3	C6	1	-0.15	12.011
10543	C=O	713	TMC3	C	1	0.5438	12.011
10544	O=C	713	TMC3	O	1	-0.57	15.9994
10545	HCMM	713	TMC3	H	1	0.15	1.0079
10546	HCMM	713	TMC3	H1	1	0.15	1.0079
10547	HCMM	713	TMC3	H2	1	0.15	1.0079
10548	C=O	713	TMC3	C7	1	0.5438	12.011
10549	C=O	713	TMC3	C8	1	0.5438	12.011
10550	O=C	713	TMC3	O1	1	-0.57	15.9994
10551	O=C	713	TMC3	O2	1	-0.57	15.9994
10552	CB	714	MPD2	C	1	-0.15	12.011
10553	CB	714	MPD2	C1	1	0.117	12.011
10554	CB	714	MPD2	C2	1	-0.15	12.011
10555	CB	714	MPD2	C3	1	0.117	12.011
10556	CB	714	MPD2	C4	1	-0.15	12.011
10557	CB	714	MPD2	C5	1	-0.15	12.011
10558	HCMM	714	MPD2	H	1	0.15	1.0079
10559	HCMM	714	MPD2	H1	1	0.15	1.0079
10560	HCMM	714	MPD2	H2	1	0.15	1.0079
10561	HCMM	714	MPD2	H3	1	0.15	1.0079
10562	NC=O	714	MPD2	N	1	-0.547	14.0067
10563	HNCO	714	MPD2	H5	1	0.37	1.0079
10564	NC=O	714	MPD2	N1	1	-0.547	14.0067
10565	HNCO	714	MPD2	H7	1	0.37	1.0079
10566	CB	715	TMC3	C1	1	0.0862	12.011
10567	CB	715	TMC3	C2	1	-0.15	12.011
10568	CB	715	TMC3	C3	1	0.0862	12.011
10569	CB	715	TMC3	C4	1	-0.15	12.011
10570	CB	715	TMC3	C5	1	0.0862	12.011
10571	CB	715	TMC3	C6	1	-0.15	12.011
10572	C=O	715	TMC3	C	1	0.5438	12.011
10573	O=C	715	TMC3	O	1	-0.57	15.9994
10574	HCMM	715	TMC3	H	1	0.15	1.0079
10575	HCMM	715	TMC3	H1	1	0.15	1.0079
10576	HCMM	715	TMC3	H2	1	0.15	1.0079
10577	C=O	715	TMC3	C7	1	0.5438	12.011
10578	C=O	715	TMC3	C8	1	0.5438	12.011
10579	O=C	715	TMC3	O1	1	-0.57	15.9994
10580	O=C	715	TMC3	O2	1	-0.57	15.9994
10581	CB	716	MPD2	C	1	-0.15	12.011
10582	CB	716	MPD2	C1	1	0.117	12.011
10583	CB	716	MPD2	C2	1	-0.15	12.011
10584	CB	716	MPD2	C3	1	0.117	12.011
10585	CB	716	MPD2	C4	1	-0.15	12.011
10586	CB	716	MPD2	C5	1	-0.15	12.011
10587	HCMM	716	MPD2	H	1	0.15	1.0079
10588	HCMM	716	MPD2	H1	1	0.15	1.0079
10589	HCMM	716	MPD2	H2	1	0.15	1.0079
10590	HCMM	716	MPD2	H3	1	0.15	1.0079
10591	NC=O	716	MPD2	N	1	-0.547	14.0067
10592	HNCO	716	MPD2	H5	1	0.37	1.0079
10593	NC=O	716	MPD2	N1	1	-0.547	14.0067
10594	HNCO	716	MPD2	H7	1	0.37	1.0079
10595	CB	717	TMC3	C1	1	0.0862	12.011
10596	CB	717	TMC3	C2	1	-0.15	12.011
10597	CB	717	TMC3	C3	1	0.0862	12.011
10598	CB	717	TMC3	C4	1	-0.15	12.011
10599	CB	717	TMC3	C5	1	0.0862	12.011
10600	CB	717	TMC3	C6	1	-0.15	12.011
10601	C=O	717	TMC3	C	1	0.5438	12.011
10602	O=C	717	TMC3	O	1	-0.57	15.9994
10603	HCMM	717	TMC3	H	1	0.15	1.0079
10604	HCMM	717	TMC3	H1	1	0.15	1.0079
10605	HCMM	717	TMC3	H2	1	0.15	1.0079
10606	C=O	717	TMC3	C7	1	0.5438	12.011
10607	C=O	717	TMC3	C8	1	0.5438	12.011
10608	O=C	717	TMC3	O1	1	-0.57	15.9994
10609	O=C	717	TMC3	O2	1	-0.57	15.9994
10610	CB	718	MPD2	C	1	-0.15	12.011
10611	CB	718	MPD2	C1	1	0.117	12.011
10612	CB	718	MPD2	C2	1	-0.15	12.011
10613	CB	718	MPD2	C3	1	0.117	12.011
10614	CB	718	MPD2	C4	1	-0.15	12.011
10615	CB	718	MPD2	C5	1	-0.15	12.011
10616	HCMM	718	MPD2	H	1	0.15	1.0079
10617	HCMM	718	MPD2	H1	1	0.15	1.0079
10618	HCMM	718	MPD2	H2	1	0.15	1.0079
10619	HCMM	718	MPD2	H3	1	0.15	1.0079
10620	NC=O	718	MPD2	N	1	-0.547	14.0067
10621	HNCO	718	MPD2	H5	1	0.37	1.0079
10622	NC=O	718	MPD2	N1	1	-0.547	14.0067
10623	HNCO	718	MPD2	H7	1	0.37	1.0079
10624	CB	719	TMC3	C1	1	0.0862	12.011
10625	CB	719	TMC3	C2	1	-0.15	12.011
10626	CB	719	TMC3	C3	1	0.0862	12.011
10627	CB	719	TMC3	C4	1	-0.15	12.011
10628	CB	719	TMC3	C5	1	0.0862	12.011
10629	CB	719	TMC3	C6	1	-0.15	12.011
10630	C=O	719	TMC3	C	1	0.5438	12.011
10631	O=C	719	TMC3	O	1	-0.57	15.9994
10632	HCMM	719	TMC3	H	1	0.15	1.0079
10633	HCMM	719	TMC3	H1	1	0.15	1.0079
10634	HCMM	719	TMC3	H2	1	0.15	1.0079
10635	C=O	719	TMC3	C7	1	0.5438	12.011
10636	C=O	719	TMC3	C8	1	0.5438	12.011
10637	O=C	719	TMC3	O1	1	-0.57	15.9994
10638	O=C	719	TMC3	O2	1	-0.57	15.9994
10639	CB	720	MPD2	C	1	-0.15	12.011
10640	CB	720	MPD2	C1	1	0.117	12.011
10641	CB	720	MPD2	C2	1	-0.15	12.011
10642	CB	720	MPD2	C3	1	0.117	12.011
10643	CB	720	MPD2	C4	1	-0.15	12.011
10644	CB	720	MPD2	C5	1	-0.15	12.011
10645	HCMM	720	MPD2	H	1	0.15	1.0079
10646	HCMM	720	MPD2	H1	1	0.15	1.0079
10647	HCMM	720	MPD2	H2	1	0.15	1.0079
10648	HCMM	720	MPD2	H3	1	0.15	1.0079
10649	NC=O	720	MPD2	N	1	-0.547	14.0067
10650	HNCO	720	MPD2	H5	1	0.37	1.0079
10651	NC=O	720	MPD2	N1	1	-0.547	14.0067
10652	HNCO	720	MPD2	H7	1	0.37	1.0079
10653	CB	721	TMC3	C1	1	0.0862	12.011
10654	CB	721	TMC3	C2	1	-0.15	12.011
10655	CB	721	TMC3	C3	1	0.0862	12.011
10656	CB	721	TMC3	C4	1	-0.15	12.011
10657	CB	721	TMC3	C5	1	0.0862	12.011
10658	CB	721	TMC3	C6	1	-0.15	12.011
10659	C=O	721	TMC3	C	1	0.5438	12.011
10660	O=C	721	TMC3	O	1	-0.57	15.9994
10661	HCMM	721	TMC3	H	1	0.15	1.0079
10662	HCMM	721	TMC3	H1	1	0.15	1.0079
10663	HCMM	721	TMC3	H2	1	0.15	1.0079
10664	C=O	721	TMC3	C7	1	0.5438	12.011
10665	C=O	721	TMC3	C8	1	0.5438	12.011
10666	O=C	721	TMC3	O1	1	-0.57	15.9994
10667	O=C	721	TMC3	O2	1	-0.57	15.9994
10668	CB	722	MPD2	C	1	-0.15	12.011
10669	CB	722	MPD2	C1	1	0.117	12.011
10670	CB	722	MPD2	C2	1	-0.15	12.011
10671	CB	722	MPD2	C3	1	0.117	12.011
10672	CB	722	MPD2	C4	1	-0.15	12.011
10673	CB	722	MPD2	C5	1	-0.15	12.011
10674	HCMM	722	MPD2	H	1	0.15	1.0079
10675	HCMM	722	MPD2	H1	1	0.15	1.0079
10676	HCMM	722	MPD2	H2	1	0.15	1.0079
10677	HCMM	722	MPD2	H3	1	0.15	1.0079
10678	NC=O	722	MPD2	N	1	-0.547	14.0067
10679	HNCO	722	MPD2	H5	1	0.37	1.0079
10680	NC=O	722	MPD2	N1	1	-0.547	14.0067
10681	HNCO	722	MPD2	H7	1	0.37	1.0079
10682	CB	723	TMC3	C1	1	0.0862	12.011
10683	CB	723	TMC3	C2	1	-0.15	12.011
10684	CB	723	TMC3	C3	1	0.0862	12.011
10685	CB	723	TMC3	C4	1	-0.15	12.011
10686	CB	723	TMC3	C5	1	0.0862	12.011
10687	CB	723	TMC3	C6	1	-0.15	12.011
10688	C=O	723	TMC3	C	1	0.5438	12.011
10689	O=C	723	TMC3	O	1	-0.57	15.9994
10690	HCMM	723	TMC3	H	1	0.15	1.0079
10691	HCMM	723	TMC3	H1	1	0.15	1.0079
10692	HCMM	723	TMC3	H2	1	0.15	1.0079
10693	C=O	723	TMC3	C7	1	0.5438	12.011
10694	C=O	723	TMC3	C8	1	0.5438	12.011
10695	O=C	723	TMC3	O1	1	-0.57	15.9994
10696	O=C	723	TMC3	O2	1	-0.57	15.9994
10697	CB	724	TMC3	C1	1	0.0862	12.011
10698	CB	724	TMC3	C2	1	-0.15	12.011
10699	CB	724	TMC3	C3	1	0.0862	12.011
10700	CB	724	TMC3	C4	1	-0.15	12.011
10701	CB	724	TMC3	C5	1	0.0862	12.011
10702	CB	724	TMC3	C6	1	-0.15	12.011
10703	C=O	724	TMC3	C	1	0.5438	12.011
10704	O=C	724	TMC3	O	1	-0.57	15.9994
10705	HCMM	724	TMC3	H	1	0.15	1.0079
10706	HCMM	724	TMC3	H1	1	0.15	1.0079
10707	HCMM	724	TMC3	H2	1	0.15	1.0079
10708	C=O	724	TMC3	C7	1	0.5438	12.011
10709	C=O	724	TMC3	C8	1	0.5438	12.011
10710	O=C	724	TMC3	O1	1	-0.57	15.9994
10711	O=C	724	TMC3	O2	1	-0.57	15.9994
10712	CB	725	TMC3	C1	1	0.0862	12.011
10713	CB	725	TMC3	C2	1	-0.15	12.011
10714	CB	725	TMC3	C3	1	0.0862	12.011
10715	CB	725	TMC3	C4	1	-0.15	12.011
10716	CB	725	TMC3	C5	1	0.0862	12.011
10717	CB	725	TMC3	C6	1	-0.15	12.011
10718	C=O	725	TMC3	C	1	0.5438	12.011
10719	O=C	725	TMC3	O	1	-0.57	15.9994
10720	HCMM	725	TMC3	H	1	0.15	1.0079
10721	HCMM	725	TMC3	H1	1	0.15	1.0079
10722	HCMM	725	TMC3	H2	1	0.15	1.0079
10723	C=O	725	TMC3	C7	1	0.5438	12.011
10724	C=O	725	TMC3	C8	1	0.5438	12.011
10725	O=C	725	TMC3	O1	1	-0.57	15.9994
10726	O=C	725	TMC3	O2	1	-0.57	15.9994
10727	CB	726	MPD2	C	1	-0.15	12.011
10728	CB	726	MPD2	C1	1	0.117	12.011
10729	CB	726	MPD2	C2	1	-0.15	12.011
10730	CB	726	MPD2	C3	1	0.117	12.011
10731	CB	726	MPD2	C4	1	-0.15	12.011
10732	CB	726	MPD2	C5	1	-0.15	12.011
10733	HCMM	726	MPD2	H	1	0.15	1.0079
10734	HCMM	726	MPD2	H1	1	0.15	1.0079
10735	HCMM	726	MPD2	H2	1	0.15	1.0079
10736	HCMM	726	MPD2	H3	1	0.15	1.0079
10737	NC=O	726	MPD2	N	1	-0.547	14.0067
10738	HNCO	726	MPD2	H5	1	0.37	1.0079
10739	NC=O	726	MPD2	N1	1	-0.547	14.0067
10740	HNCO	726	MPD2	H7	1	0.37	1.0079
10741	CB	727	TMC3	C1	1	0.0862	12.011
10742	CB	727	TMC3	C2	1	-0.15	12.011
10743	CB	727	TMC3	C3	1	0.0862	12.011
10744	CB	727	TMC3	C4	1	-0.15	12.011
10745	CB	727	TMC3	C5	1	0.0862	12.011
10746	CB	727	TMC3	C6	1	-0.15	12.011
10747	C=O	727	TMC3	C	1	0.5438	12.011
10748	O=C	727	TMC3	O	1	-0.57	15.9994
10749	HCMM	727	TMC3	H	1	0.15	1.0079
10750	HCMM	727	TMC3	H1	1	0.15	1.0079
10751	HCMM	727	TMC3	H2	1	0.15	1.0079
10752	C=O	727	TMC3	C7	1	0.5438	12.011
10753	C=O	727	TMC3	C8	1	0.5438	12.011
10754	O=C	727	TMC3	O1	1	-0.57	15.9994
10755	O=C	727	TMC3	O2	1	-0.57	15.9994
10756	CB	728	TMC3	C1	1	0.0862	12.011
10757	CB	728	TMC3	C2	1	-0.15	12.011
10758	CB	728	TMC3	C3	1	0.0862	12.011
10759	CB	728	TMC3	C4	1	-0.15	12.011
10760	CB	728	TMC3	C5	1	0.0862	12.011
10761	CB	728	TMC3	C6	1	-0.15	12.011
10762	C=O	728	TMC3	C	1	0.5438	12.011
10763	O=C	728	TMC3	O	1	-0.57	15.9994
10764	HCMM	728	TMC3	H	1	0.15	1.0079
10765	HCMM	728	TMC3	H1	1	0.15	1.0079
10766	HCMM	728	TMC3	H2	1	0.15	1.0079
10767	C=O	728	TMC3	C7	1	0.5438	12.011
10768	C=O	728	TMC3	C8	1	0.5438	12.011
10769	O=C	728	TMC3	O1	1	-0.57	15.9994
10770	O=C	728	TMC3	O2	1	-0.57	15.9994
10771	CB	729	MPD2	C	1	-0.15	12.011
10772	CB	729	MPD2	C1	1	0.117	12.011
10773	CB	729	MPD2	C2	1	-0.15	12.011
10774	CB	729	MPD2	C3	1	0.117	12.011
10775	CB	729	MPD2	C4	1	-0.15	12.011
10776	CB	729	MPD2	C5	1	-0.15	12.011
10777	HCMM	729	MPD2	H	1	0.15	1.0079
10778	HCMM	729	MPD2	H1	1	0.15	1.0079
10779	HCMM	729	MPD2	H2	1	0.15	1.0079
10780	HCMM	729	MPD2	H3	1	0.15	1.0079
10781	NC=O	729	MPD2	N	1	-0.547	14.0067
10782	HNCO	729	MPD2	H5	1	0.37	1.0079
10783	NC=O	729	MPD2	N1	1	-0.547	14.0067
10784	HNCO	729	MPD2	H7	1	0.37	1.0079
10785	CB	730	TMC3	C1	1	0.0862	12.011
10786	CB	730	TMC3	C2	1	-0.15	12.011
10787	CB	730	TMC3	C3	1	0.0862	12.011
10788	CB	730	TMC3	C4	1	-0.15	12.011
10789	CB	730	TMC3	C5	1	0.0862	12.011
10790	CB	730	TMC3	C6	1	-0.15	12.011
10791	C=O	730	TMC3	C	1	0.5438	12.011
10792	O=C	730	TMC3	O	1	-0.57	15.9994
10793	HCMM	730	TMC3	H	1	0.15	1.0079
10794	HCMM	730	TMC3	H1	1	0.15	1.0079
10795	HCMM	730	TMC3	H2	1	0.15	1.0079
10796	C=O	730	TMC3	C7	1	0.5438	12.011
10797	C=O	730	TMC3	C8	1	0.5438	12.011
10798	O=C	730	TMC3	O1	1	-0.57	15.9994
10799	O=C	730	TMC3	O2	1	-0.57	15.9994
10800	CB	731	MPD2	C	1	-0.15	12.011
10801	CB	731	MPD2	C1	1	0.117	12.011
10802	CB	731	MPD2	C2	1	-0.15	12.011
10803	CB	731	MPD2	C3	1	0.117	12.011
10804	CB	731	MPD2	C4	1	-0.15	12.011
10805	CB	731	MPD2	C5	1	-0.15	12.011
10806	HCMM	731	MPD2	H	1	0.15	1.0079
10807	HCMM	731	MPD2	H1	1	0.15	1.0079
10808	HCMM	731	MPD2	H2	1	0.15	1.0079
10809	HCMM	731	MPD2	H3	1	0.15	1.0079
10810	NC=O	731	MPD2	N	1	-0.547	14.0067
10811	HNCO	731	MPD2	H5	1	0.37	1.0079
10812	NC=O	731	MPD2	N1	1	-0.547	14.0067
10813	HNCO	731	MPD2	H7	1	0.37	1.0079
10814	CB	732	TMC3	C1	1	0.0862	12.011
10815	CB	732	TMC3	C2	1	-0.15	12.011
10816	CB	732	TMC3	C3	1	0.0862	12.011
10817	CB	732	TMC3	C4	1	-0.15	12.011
10818	CB	732	TMC3	C5	1	0.0862	12.011
10819	CB	732	TMC3	C6	1	-0.15	12.011
10820	C=O	732	TMC3	C	1	0.5438	12.011
10821	O=C	732	TMC3	O	1	-0.57	15.9994
10822	HCMM	732	TMC3	H	1	0.15	1.0079
10823	HCMM	732	TMC3	H1	1	0.15	1.0079
10824	HCMM	732	TMC3	H2	1	0.15	1.0079
10825	C=O	732	TMC3	C7	1	0.5438	12.011
10826	C=O	732	TMC3	C8	1	0.5438	12.011
10827	O=C	732	TMC3	O1	1	-0.57	15.9994
10828	O=C	732	TMC3	O2	1	-0.57	15.9994
10829	CB	733	TMC3	C1	1	0.0862	12.011
10830	CB	733	TMC3	C2	1	-0.15	12.011
10831	CB	733	TMC3	C3	1	0.0862	12.011
10832	CB	733	TMC3	C4	1	-0.15	12.011
10833	CB	733	TMC3	C5	1	0.0862	12.011
10834	CB	733	TMC3	C6	1	-0.15	12.011
10835	C=O	733	TMC3	C	1	0.5438	12.011
10836	O=C	733	TMC3	O	1	-0.57	15.9994
10837	HCMM	733	TMC3	H	1	0.15	1.0079
10838	HCMM	733	TMC3	H1	1	0.15	1.0079
10839	HCMM	733	TMC3	H2	1	0.15	1.0079
10840	C=O	733	TMC3	C7	1	0.5438	12.011
10841	C=O	733	TMC3	C8	1	0.5438	12.011
10842	O=C	733	TMC3	O1	1	-0.57	15.9994
10843	O=C	733	TMC3	O2	1	-0.57	15.9994
10844	CB	734	MPD2	C	1	-0.15	12.011
10845	CB	734	MPD2	C1	1	0.117	12.011
10846	CB	734	MPD2	C2	1	-0.15	12.011
10847	CB	734	MPD2	C3	1	0.117	12.011
10848	CB	734	MPD2	C4	1	-0.15	12.011
10849	CB	734	MPD2	C5	1	-0.15	12.011
10850	HCMM	734	MPD2	H	1	0.15	1.0079
10851	HCMM	734	MPD2	H1	1	0.15	1.0079
10852	HCMM	734	MPD2	H2	1	0.15	1.0079
10853	HCMM	734	MPD2	H3	1	0.15	1.0079
10854	NC=O	734	MPD2	N	1	-0.547	14.0067
10855	HNCO	734	MPD2	H5	1	0.37	1.0079
10856	NC=O	734	MPD2	N1	1	-0.547	14.0067
10857	HNCO	734	MPD2	H7	1	0.37	1.0079
10858	CB	735	TMC3	C1	1	0.0862	12.011
10859	CB	735	TMC3	C2	1	-0.15	12.011
10860	CB	735	TMC3	C3	1	0.0862	12.011
10861	CB	735	TMC3	C4	1	-0.15	12.011
10862	CB	735	TMC3	C5	1	0.0862	12.011
10863	CB	735	TMC3	C6	1	-0.15	12.011
10864	C=O	735	TMC3	C	1	0.5438	12.011
10865	O=C	735	TMC3	O	1	-0.57	15.9994
10866	HCMM	735	TMC3	H	1	0.15	1.0079
10867	HCMM	735	TMC3	H1	1	0.15	1.0079
10868	HCMM	735	TMC3	H2	1	0.15	1.0079
10869	C=O	735	TMC3	C7	1	0.5438	12.011
10870	C=O	735	TMC3	C8	1	0.5438	12.011
10871	O=C	735	TMC3	O1	1	-0.57	15.9994
10872	O=C	735	TMC3	O2	1	-0.57	15.9994
10873	CB	736	MPD2	C	1	-0.15	12.011
10874	CB	736	MPD2	C1	1	0.117	12.011
10875	CB	736	MPD2	C2	1	-0.15	12.011
10876	CB	736	MPD2	C3	1	0.117	12.011
10877	CB	736	MPD2	C4	1	-0.15	12.011
10878	CB	736	MPD2	C5	1	-0.15	12.011
10879	HCMM	736	MPD2	H	1	0.15	1.0079
10880	HCMM	736	MPD2	H1	1	0.15	1.0079
10881	HCMM	736	MPD2	H2	1	0.15	1.0079
10882	HCMM	736	MPD2	H3	1	0.15	1.0079
10883	NC=O	736	MPD2	N	1	-0.547	14.0067
10884	HNCO	736	MPD2	H5	1	0.37	1.0079
10885	NC=O	736	MPD2	N1	1	-0.547	14.0067
10886	HNCO	736	MPD2	H7	1	0.37	1.0079
10887	CB	737	TMC3	C1	1	0.0862	12.011
10888	CB	737	TMC3	C2	1	-0.15	12.011
10889	CB	737	TMC3	C3	1	0.0862	12.011
10890	CB	737	TMC3	C4	1	-0.15	12.011
10891	CB	737	TMC3	C5	1	0.0862	12.011
10892	CB	737	TMC3	C6	1	-0.15	12.011
10893	C=O	737	TMC3	C	1	0.5438	12.011
10894	O=C	737	TMC3	O	1	-0.57	15.9994
10895	HCMM	737	TMC3	H	1	0.15	1.0079
10896	HCMM	737	TMC3	H1	1	0.15	1.0079
10897	HCMM	737	TMC3	H2	1	0.15	1.0079
10898	C=O	737	TMC3	C7	1	0.5438	12.011
10899	C=O	737	TMC3	C8	1	0.5438	12.011
10900	O=C	737	TMC3	O1	1	-0.57	15.9994
10901	O=C	737	TMC3	O2	1	-0.57	15.9994
10902	CB	738	MPD2	C	1	-0.15	12.011
10903	CB	738	MPD2	C1	1	0.117	12.011
10904	CB	738	MPD2	C2	1	-0.15	12.011
10905	CB	738	MPD2	C3	1	0.117	12.011
10906	CB	738	MPD2	C4	1	-0.15	12.011
10907	CB	738	MPD2	C5	1	-0.15	12.011
10908	HCMM	738	MPD2	H	1	0.15	1.0079
10909	HCMM	738	MPD2	H1	1	0.15	1.0079
10910	HCMM	738	MPD2	H2	1	0.15	1.0079
10911	HCMM	738	MPD2	H3	1	0.15	1.0079
10912	NC=O	738	MPD2	N	1	-0.547	14.0067
10913	HNCO	738	MPD2	H5	1	0.37	1.0079
10914	NC=O	738	MPD2	N1	1	-0.547	14.0067
10915	HNCO	738	MPD2	H7	1	0.37	1.0079
10916	CB	739	TMC3	C1	1	0.0862	12.011
10917	CB	739	TMC3	C2	1	-0.15	12.011
10918	CB	739	TMC3	C3	1	0.0862	12.011
10919	CB	739	TMC3	C4	1	-0.15	12.011
10920	CB	739	TMC3	C5	1	0.0862	12.011
10921	CB	739	TMC3	C6	1	-0.15	12.011
10922	C=O	739	TMC3	C	1	0.5438	12.011
10923	O=C	739	TMC3	O	1	-0.57	15.9994
10924	HCMM	739	TMC3	H	1	0.15	1.0079
10925	HCMM	739	TMC3	H1	1	0.15	1.0079
10926	HCMM	739	TMC3	H2	1	0.15	1.0079
10927	C=O	739	TMC3	C7	1	0.5438	12.011
10928	C=O	739	TMC3	C8	1	0.5438	12.011
10929	O=C	739	TMC3	O1	1	-0.57	15.9994
10930	O=C	739	TMC3	O2	1	-0.57	15.9994
10931	CB	740	TMC3	C1	1	0.0862	12.011
10932	CB	740	TMC3	C2	1	-0.15	12.011
10933	CB	740	TMC3	C3	1	0.0862	12.011
10934	CB	740	TMC3	C4	1	-0.15	12.011
10935	CB	740	TMC3	C5	1	0.0862	12.011
10936	CB	740	TMC3	C6	1	-0.15	12.011
10937	C=O	740	TMC3	C	1	0.5438	12.011
10938	O=C	740	TMC3	O	1	-0.57	15.9994
10939	HCMM	740	TMC3	H	1	0.15	1.0079
10940	HCMM	740	TMC3	H1	1	0.15	1.0079
10941	HCMM	740	TMC3	H2	1	0.15	1.0079
10942	C=O	740	TMC3	C7	1	0.5438	12.011
10943	C=O	740	TMC3	C8	1	0.5438	12.011
10944	O=C	740	TMC3	O1	1	-0.57	15.9994
10945	O=C	740	TMC3	O2	1	-0.57	15.9994
10946	CB	741	TMC3	C1	1	0.0862	12.011
10947	CB	741	TMC3	C2	1	-0.15	12.011
10948	CB	741	TMC3	C3	1	0.0862	12.011
10949	CB	741	TMC3	C4	1	-0.15	12.011
10950	CB	741	TMC3	C5	1	0.0862	12.011
10951	CB	741	TMC3	C6	1	-0.15	12.011
10952	C=O	741	TMC3	C	1	0.5438	12.011
10953	O=C	741	TMC3	O	1	-0.57	15.9994
10954	HCMM	741	TMC3	H	1	0.15	1.0079
10955	HCMM	741	TMC3	H1	1	0.15	1.0079
10956	HCMM	741	TMC3	H2	1	0.15	1.0079
10957	C=O	741	TMC3	C7	1	0.5438	12.011
10958	C=O	741	TMC3	C8	1	0.5438	12.011
10959	O=C	741	TMC3	O1	1	-0.57	15.9994
10960	O=C	741	TMC3	O2	1	-0.57	15.9994
10961	CB	742	TMC3	C1	1	0.0862	12.011
10962	CB	742	TMC3	C2	1	-0.15	12.011
10963	CB	742	TMC3	C3	1	0.0862	12.011
10964	CB	742	TMC3	C4	1	-0.15	12.011
10965	CB	742	TMC3	C5	1	0.0862	12.011
10966	CB	742	TMC3	C6	1	-0.15	12.011
10967	C=O	742	TMC3	C	1	0.5438	12.011
10968	O=C	742	TMC3	O	1	-0.57	15.9994
10969	HCMM	742	TMC3	H	1	0.15	1.0079
10970	HCMM	742	TMC3	H1	1	0.15	1.0079
10971	HCMM	742	TMC3	H2	1	0.15	1.0079
10972	C=O	742	TMC3	C7	1	0.5438	12.011
10973	C=O	742	TMC3	C8	1	0.5438	12.011
10974	O=C	742	TMC3	O1	1	-0.57	15.9994
10975	O=C	742	TMC3	O2	1	-0.57	15.9994
10976	CB	743	MPD2	C	1	-0.15	12.011
10977	CB	743	MPD2	C1	1	0.117	12.011
10978	CB	743	MPD2	C2	1	-0.15	12.011
10979	CB	743	MPD2	C3	1	0.117	12.011
10980	CB	743	MPD2	C4	1	-0.15	12.011
10981	CB	743	MPD2	C5	1	-0.15	12.011
10982	HCMM	743	MPD2	H	1	0.15	1.0079
10983	HCMM	743	MPD2	H1	1	0.15	1.0079
10984	HCMM	743	MPD2	H2	1	0.15	1.0079
10985	HCMM	743	MPD2	H3	1	0.15	1.0079
10986	NC=O	743	MPD2	N	1	-0.547	14.0067
10987	HNCO	743	MPD2	H5	1	0.37	1.0079
10988	NC=O	743	MPD2	N1	1	-0.547	14.0067
10989	HNCO	743	MPD2	H7	1	0.37	1.0079
10990	CB	744	TMC3	C1	1	0.0862	12.011
10991	CB	744	TMC3	C2	1	-0.15	12.011
10992	CB	744	TMC3	C3	1	0.0862	12.011
10993	CB	744	TMC3	C4	1	-0.15	12.011
10994	CB	744	TMC3	C5	1	0.0862	12.011
10995	CB	744	TMC3	C6	1	-0.15	12.011
10996	C=O	744	TMC3	C	1	0.5438	12.011
10997	O=C	744	TMC3	O	1	-0.57	15.9994
10998	HCMM	744	TMC3	H	1	0.15	1.0079
10999	HCMM	744	TMC3	H1	1	0.15	1.0079
11000	HCMM	744	TMC3	H2	1	0.15	1.0079
11001	C=O	744	TMC3	C7	1	0.5438	12.011
11002	C=O	744	TMC3	C8	1	0.5438	12.011
11003	O=C	744	TMC3	O1	1	-0.57	15.9994
11004	O=C	744	TMC3	O2	1	-0.57	15.9994
11005	CB	745	TMC3	C1	1	0.0862	12.011
11006	CB	745	TMC3	C2	1	-0.15	12.011
11007	CB	745	TMC3	C3	1	0.0862	12.011
11008	CB	745	TMC3	C4	1	-0.15	12.011
11009	CB	745	TMC3	C5	1	0.0862	12.011
11010	CB	745	TMC3	C6	1	-0.15	12.011
11011	C=O	745	TMC3	C	1	0.5438	12.011
11012	O=C	745	TMC3	O	1	-0.57	15.9994
11013	HCMM	745	TMC3	H	1	0.15	1.0079
11014	HCMM	745	TMC3	H1	1	0.15	1.0079
11015	HCMM	745	TMC3	H2	1	0.15	1.0079
11016	C=O	745	TMC3	C7	1	0.5438	12.011
11017	C=O	745	TMC3	C8	1	0.5438	12.011
11018	O=C	745	TMC3	O1	1	-0.57	15.9994
11019	O=C	745	TMC3	O2	1	-0.57	15.9994
11020	CB	746	TMC3	C1	1	0.0862	12.011
11021	CB	746	TMC3	C2	1	-0.15	12.011
11022	CB	746	TMC3	C3	1	0.0862	12.011
11023	CB	746	TMC3	C4	1	-0.15	12.011
11024	CB	746	TMC3	C5	1	0.0862	12.011
11025	CB	746	TMC3	C6	1	-0.15	12.011
11026	C=O	746	TMC3	C	1	0.5438	12.011
11027	O=C	746	TMC3	O	1	-0.57	15.9994
11028	HCMM	746	TMC3	H	1	0.15	1.0079
11029	HCMM	746	TMC3	H1	1	0.15	1.0079
11030	HCMM	746	TMC3	H2	1	0.15	1.0079
11031	C=O	746	TMC3	C7	1	0.5438	12.011
11032	C=O	746	TMC3	C8	1	0.5438	12.011
11033	O=C	746	TMC3	O1	1	-0.57	15.9994
11034	O=C	746	TMC3	O2	1	-0.57	15.9994
11035	CB	747	TMC3	C1	1	0.0862	12.011
11036	CB	747	TMC3	C2	1	-0.15	12.011
11037	CB	747	TMC3	C3	1	0.0862	12.011
11038	CB	747	TMC3	C4	1	-0.15	12.011
11039	CB	747	TMC3	C5	1	0.0862	12.011
11040	CB	747	TMC3	C6	1	-0.15	12.011
11041	C=O	747	TMC3	C	1	0.5438	12.011
11042	O=C	747	TMC3	O	1	-0.57	15.9994
11043	HCMM	747	TMC3	H	1	0.15	1.0079
11044	HCMM	747	TMC3	H1	1	0.15	1.0079
11045	HCMM	747	TMC3	H2	1	0.15	1.0079
11046	C=O	747	TMC3	C7	1	0.5438	12.011
11047	C=O	747	TMC3	C8	1	0.5438	12.011
11048	O=C	747	TMC3	O1	1	-0.57	15.9994
11049	O=C	747	TMC3	O2	1	-0.57	15.9994
11050	CB	748	MPD2	C	1	-0.15	12.011
11051	CB	748	MPD2	C1	1	0.117	12.011
11052	CB	748	MPD2	C2	1	-0.15	12.011
11053	CB	748	MPD2	C3	1	0.117	12.011
11054	CB	748	MPD2	C4	1	-0.15	12.011
11055	CB	748	MPD2	C5	1	-0.15	12.011
11056	HCMM	748	MPD2	H	1	0.15	1.0079
11057	HCMM	748	MPD2	H1	1	0.15	1.0079
11058	HCMM	748	MPD2	H2	1	0.15	1.0079
11059	HCMM	748	MPD2	H3	1	0.15	1.0079
11060	NC=O	748	MPD2	N	1	-0.547	14.0067
11061	HNCO	748	MPD2	H5	1	0.37	1.0079
11062	NC=O	748	MPD2	N1	1	-0.547	14.0067
11063	HNCO	748	MPD2	H7	1	0.37	1.0079
11064	CB	749	TMC3	C1	1	0.0862	12.011
11065	CB	749	TMC3	C2	1	-0.15	12.011
11066	CB	749	TMC3	C3	1	0.0862	12.011
11067	CB	749	TMC3	C4	1	-0.15	12.011
11068	CB	749	TMC3	C5	1	0.0862	12.011
11069	CB	749	TMC3	C6	1	-0.15	12.011
11070	C=O	749	TMC3	C	1	0.5438	12.011
11071	O=C	749	TMC3	O	1	-0.57	15.9994
11072	HCMM	749	TMC3	H	1	0.15	1.0079
11073	HCMM	749	TMC3	H1	1	0.15	1.0079
11074	HCMM	749	TMC3	H2	1	0.15	1.0079
11075	C=O	749	TMC3	C7	1	0.5438	12.011
11076	C=O	749	TMC3	C8	1	0.5438	12.011
11077	O=C	749	TMC3	O1	1	-0.57	15.9994
11078	O=C	749	TMC3	O2	1	-0.57	15.9994
11079	CB	750	MPD2	C	1	-0.15	12.011
11080	CB	750	MPD2	C1	1	0.117	12.011
11081	CB	750	MPD2	C2	1	-0.15	12.011
11082	CB	750	MPD2	C3	1	0.117	12.011
11083	CB	750	MPD2	C4	1	-0.15	12.011
11084	CB	750	MPD2	C5	1	-0.15	12.011
11085	HCMM	750	MPD2	H	1	0.15	1.0079
11086	HCMM	750	MPD2	H1	1	0.15	1.0079
11087	HCMM	750	MPD2	H2	1	0.15	1.0079
11088	HCMM	750	MPD2	H3	1	0.15	1.0079
11089	NC=O	750	MPD2	N	1	-0.547	14.0067
11090	HNCO	750	MPD2	H5	1	0.37	1.0079
11091	NC=O	750	MPD2	N1	1	-0.547	14.0067
11092	HNCO	750	MPD2	H7	1	0.37	1.0079
11093	CB	751	TMC3	C1	1	0.0862	12.011
11094	CB	751	TMC3	C2	1	-0.15	12.011
11095	CB	751	TMC3	C3	1	0.0862	12.011
11096	CB	751	TMC3	C4	1	-0.15	12.011
11097	CB	751	TMC3	C5	1	0.0862	12.011
11098	CB	751	TMC3	C6	1	-0.15	12.011
11099	C=O	751	TMC3	C	1	0.5438	12.011
11100	O=C	751	TMC3	O	1	-0.57	15.9994
11101	HCMM	751	TMC3	H	1	0.15	1.0079
11102	HCMM	751	TMC3	H1	1	0.15	1.0079
11103	HCMM	751	TMC3	H2	1	0.15	1.0079
11104	C=O	751	TMC3	C7	1	0.5438	12.011
11105	C=O	751	TMC3	C8	1	0.5438	12.011
11106	O=C	751	TMC3	O1	1	-0.57	15.9994
11107	O=C	751	TMC3	O2	1	-0.57	15.9994
11108	CB	752	TMC3	C1	1	0.0862	12.011
11109	CB	752	TMC3	C2	1	-0.15	12.011
11110	CB	752	TMC3	C3	1	0.0862	12.011
11111	CB	752	TMC3	C4	1	-0.15	12.011
11112	CB	752	TMC3	C5	1	0.0862	12.011
11113	CB	752	TMC3	C6	1	-0.15	12.011
11114	C=O	752	TMC3	C	1	0.5438	12.011
11115	O=C	752	TMC3	O	1	-0.57	15.9994
11116	HCMM	752	TMC3	H	1	0.15	1.0079
11117	HCMM	752	TMC3	H1	1	0.15	1.0079
11118	HCMM	752	TMC3	H2	1	0.15	1.0079
11119	C=O	752	TMC3	C7	1	0.5438	12.011
11120	C=O	752	TMC3	C8	1	0.5438	12.011
11121	O=C	752	TMC3	O1	1	-0.57	15.9994
11122	O=C	752	TMC3	O2	1	-0.57	15.9994
11123	CB	753	TMC3	C1	1	0.0862	12.011
11124	CB	753	TMC3	C2	1	-0.15	12.011
11125	CB	753	TMC3	C3	1	0.0862	12.011
11126	CB	753	TMC3	C4	1	-0.15	12.011
11127	CB	753	TMC3	C5	1	0.0862	12.011
11128	CB	753	TMC3	C6	1	-0.15	12.011
11129	C=O	753	TMC3	C	1	0.5438	12.011
11130	O=C	753	TMC3	O	1	-0.57	15.9994
11131	HCMM	753	TMC3	H	1	0.15	1.0079
11132	HCMM	753	TMC3	H1	1	0.15	1.0079
11133	HCMM	753	TMC3	H2	1	0.15	1.0079
11134	C=O	753	TMC3	C7	1	0.5438	12.011
11135	C=O	753	TMC3	C8	1	0.5438	12.011
11136	O=C	753	TMC3	O1	1	-0.57	15.9994
11137	O=C	753	TMC3	O2	1	-0.57	15.9994
11138	CB	754	MPD2	C	1	-0.15	12.011
11139	CB	754	MPD2	C1	1	0.117	12.011
11140	CB	754	MPD2	C2	1	-0.15	12.011
11141	CB	754	MPD2	C3	1	0.117	12.011
11142	CB	754	MPD2	C4	1	-0.15	12.011
11143	CB	754	MPD2	C5	1	-0.15	12.011
11144	HCMM	754	MPD2	H	1	0.15	1.0079
11145	HCMM	754	MPD2	H1	1	0.15	1.0079
11146	HCMM	754	MPD2	H2	1	0.15	1.0079
11147	HCMM	754	MPD2	H3	1	0.15	1.0079
11148	NC=O	754	MPD2	N	1	-0.547	14.0067
11149	HNCO	754	MPD2	H5	1	0.37	1.0079
11150	NC=O	754	MPD2	N1	1	-0.547	14.0067
11151	HNCO	754	MPD2	H7	1	0.37	1.0079
11152	CB	755	MPD2	C	1	-0.15	12.011
11153	CB	755	MPD2	C1	1	0.117	12.011
11154	CB	755	MPD2	C2	1	-0.15	12.011
11155	CB	755	MPD2	C3	1	0.117	12.011
11156	CB	755	MPD2	C4	1	-0.15	12.011
11157	CB	755	MPD2	C5	1	-0.15	12.011
11158	HCMM	755	MPD2	H	1	0.15	1.0079
11159	HCMM	755	MPD2	H1	1	0.15	1.0079
11160	HCMM	755	MPD2	H2	1	0.15	1.0079
11161	HCMM	755	MPD2	H3	1	0.15	1.0079
11162	NC=O	755	MPD2	N	1	-0.547	14.0067
11163	HNCO	755	MPD2	H5	1	0.37	1.0079
11164	NC=O	755	MPD2	N1	1	-0.547	14.0067
11165	HNCO	755	MPD2	H7	1	0.37	1.0079
11166	CB	756	MPD2	C	1	-0.15	12.011
11167	CB	756	MPD2	C1	1	0.117	12.011
11168	CB	756	MPD2	C2	1	-0.15	12.011
11169	CB	756	MPD2	C3	1	0.117	12.011
11170	CB	756	MPD2	C4	1	-0.15	12.011
11171	CB	756	MPD2	C5	1	-0.15	12.011
11172	HCMM	756	MPD2	H	1	0.15	1.0079
11173	HCMM	756	MPD2	H1	1	0.15	1.0079
11174	HCMM	756	MPD2	H2	1	0.15	1.0079
11175	HCMM	756	MPD2	H3	1	0.15	1.0079
11176	NC=O	756	MPD2	N	1	-0.547	14.0067
11177	HNCO	756	MPD2	H5	1	0.37	1.0079
11178	NC=O	756	MPD2	N1	1	-0.547	14.0067
11179	HNCO	756	MPD2	H7	1	0.37	1.0079
11180	CB	757	MPD2	C	1	-0.15	12.011
11181	CB	757	MPD2	C1	1	0.117	12.011
11182	CB	757	MPD2	C2	1	-0.15	12.011
11183	CB	757	MPD2	C3	1	0.117	12.011
11184	CB	757	MPD2	C4	1	-0.15	12.011
11185	CB	757	MPD2	C5	1	-0.15	12.011
11186	HCMM	757	MPD2	H	1	0.15	1.0079
11187	HCMM	757	MPD2	H1	1	0.15	1.0079
11188	HCMM	757	MPD2	H2	1	0.15	1.0079
11189	HCMM	757	MPD2	H3	1	0.15	1.0079
11190	NC=O	757	MPD2	N	1	-0.547	14.0067
11191	HNCO	757	MPD2	H5	1	0.37	1.0079
11192	NC=O	757	MPD2	N1	1	-0.547	14.0067
11193	HNCO	757	MPD2	H7	1	0.37	1.0079
11194	CB	758	MPD2	C	1	-0.15	12.011
11195	CB	758	MPD2	C1	1	0.117	12.011
11196	CB	758	MPD2	C2	1	-0.15	12.011
11197	CB	758	MPD2	C3	1	0.117	12.011
11198	CB	758	MPD2	C4	1	-0.15	12.011
11199	CB	758	MPD2	C5	1	-0.15	12.011
11200	HCMM	758	MPD2	H	1	0.15	1.0079
11201	HCMM	758	MPD2	H1	1	0.15	1.0079
11202	HCMM	758	MPD2	H2	1	0.15	1.0079
11203	HCMM	758	MPD2	H3	1	0.15	1.0079
11204	NC=O	758	MPD2	N	1	-0.547	14.0067
11205	HNCO	758	MPD2	H5	1	0.37	1.0079
11206	NC=O	758	MPD2	N1	1	-0.547	14.0067
11207	HNCO	758	MPD2	H7	1	0.37	1.0079
11208	CB	759	MPD2	C	1	-0.15	12.011
11209	CB	759	MPD2	C1	1	0.117	12.011
11210	CB	759	MPD2	C2	1	-0.15	12.011
11211	CB	759	MPD2	C3	1	0.117	12.011
11212	CB	759	MPD2	C4	1	-0.15	12.011
11213	CB	759	MPD2	C5	1	-0.15	12.011
11214	HCMM	759	MPD2	H	1	0.15	1.0079
11215	HCMM	759	MPD2	H1	1	0.15	1.0079
11216	HCMM	759	MPD2	H2	1	0.15	1.0079
11217	HCMM	759	MPD2	H3	1	0.15	1.0079
11218	NC=O	759	MPD2	N	1	-0.547	14.0067
11219	HNCO	759	MPD2	H5	1	0.37	1.0079
11220	NC=O	759	MPD2	N1	1	-0.547	14.0067
11221	HNCO	759	MPD2	H7	1	0.37	1.0079
11222	CB	760	MPD2	C	1	-0.15	12.011
11223	CB	760	MPD2	C1	1	0.117	12.011
11224	CB	760	MPD2	C2	1	-0.15	12.011
11225	CB	760	MPD2	C3	1	0.117	12.011
11226	CB	760	MPD2	C4	1	-0.15	12.011
11227	CB	760	MPD2	C5	1	-0.15	12.011
11228	HCMM	760	MPD2	H	1	0.15	1.0079
11229	HCMM	760	MPD2	H1	1	0.15	1.0079
11230	HCMM	760	MPD2	H2	1	0.15	1.0079
11231	HCMM	760	MPD2	H3	1	0.15	1.0079
11232	NC=O	760	MPD2	N	1	-0.547	14.0067
11233	HNCO	760	MPD2	H5	1	0.37	1.0079
11234	NC=O	760	MPD2	N1	1	-0.547	14.0067
11235	HNCO	760	MPD2	H7	1	0.37	1.0079
11236	CB	761	MPD2	C	1	-0.15	12.011
11237	CB	761	MPD2	C1	1	0.117	12.011
11238	CB	761	MPD2	C2	1	-0.15	12.011
11239	CB	761	MPD2	C3	1	0.117	12.011
11240	CB	761	MPD2	C4	1	-0.15	12.011
11241	CB	761	MPD2	C5	1	-0.15	12.011
11242	HCMM	761	MPD2	H	1	0.15	1.0079
11243	HCMM	761	MPD2	H1	1	0.15	1.0079
11244	HCMM	761	MPD2	H2	1	0.15	1.0079
11245	HCMM	761	MPD2	H3	1	0.15	1.0079
11246	NC=O	761	MPD2	N	1	-0.547	14.0067
11247	HNCO	761	MPD2	H5	1	0.37	1.0079
11248	NC=O	761	MPD2	N1	1	-0.547	14.0067
11249	HNCO	761	MPD2	H7	1	0.37	1.0079
11250	CB	762	MPD2	C	1	-0.15	12.011
11251	CB	762	MPD2	C1	1	0.117	12.011
11252	CB	762	MPD2	C2	1	-0.15	12.011
11253	CB	762	MPD2	C3	1	0.117	12.011
11254	CB	762	MPD2	C4	1	-0.15	12.011
11255	CB	762	MPD2	C5	1	-0.15	12.011
11256	HCMM	762	MPD2	H	1	0.15	1.0079
11257	HCMM	762	MPD2	H1	1	0.15	1.0079
11258	HCMM	762	MPD2	H2	1	0.15	1.0079
11259	HCMM	762	MPD2	H3	1	0.15	1.0079
11260	NC=O	762	MPD2	N	1	-0.547	14.0067
11261	HNCO	762	MPD2	H5	1	0.37	1.0079
11262	NC=O	762	MPD2	N1	1	-0.547	14.0067
11263	HNCO	762	MPD2	H7	1	0.37	1.0079
11264	CB	763	MPD2	C	1	-0.15	12.011
11265	CB	763	MPD2	C1	1	0.117	12.011
11266	CB	763	MPD2	C2	1	-0.15	12.011
11267	CB	763	MPD2	C3	1	0.117	12.011
11268	CB	763	MPD2	C4	1	-0.15	12.011
11269	CB	763	MPD2	C5	1	-0.15	12.011
11270	HCMM	763	MPD2	H	1	0.15	1.0079
11271	HCMM	763	MPD2	H1	1	0.15	1.0079
11272	HCMM	763	MPD2	H2	1	0.15	1.0079
11273	HCMM	763	MPD2	H3	1	0.15	1.0079
11274	NC=O	763	MPD2	N	1	-0.547	14.0067
11275	HNCO	763	MPD2	H5	1	0.37	1.0079
11276	NC=O	763	MPD2	N1	1	-0.547	14.0067
11277	HNCO	763	MPD2	H7	1	0.37	1.0079
11278	CB	764	MPD2	C	1	-0.15	12.011
11279	CB	764	MPD2	C1	1	0.117	12.011
11280	CB	764	MPD2	C2	1	-0.15	12.011
11281	CB	764	MPD2	C3	1	0.117	12.011
11282	CB	764	MPD2	C4	1	-0.15	12.011
11283	CB	764	MPD2	C5	1	-0.15	12.011
11284	HCMM	764	MPD2	H	1	0.15	1.0079
11285	HCMM	764	MPD2	H1	1	0.15	1.0079
11286	HCMM	764	MPD2	H2	1	0.15	1.0079
11287	HCMM	764	MPD2	H3	1	0.15	1.0079
11288	NC=O	764	MPD2	N	1	-0.547	14.0067
11289	HNCO	764	MPD2	H5	1	0.37	1.0079
11290	NC=O	764	MPD2	N1	1	-0.547	14.0067
11291	HNCO	764	MPD2	H7	1	0.37	1.0079
11292	CB	765	MPD2	C	1	-0.15	12.011
11293	CB	765	MPD2	C1	1	0.117	12.011
11294	CB	765	MPD2	C2	1	-0.15	12.011
11295	CB	765	MPD2	C3	1	0.117	12.011
11296	CB	765	MPD2	C4	1	-0.15	12.011
11297	CB	765	MPD2	C5	1	-0.15	12.011
11298	HCMM	765	MPD2	H	1	0.15	1.0079
11299	HCMM	765	MPD2	H1	1	0.15	1.0079
11300	HCMM	765	MPD2	H2	1	0.15	1.0079
11301	HCMM	765	MPD2	H3	1	0.15	1.0079
11302	NC=O	765	MPD2	N	1	-0.547	14.0067
11303	HNCO	765	MPD2	H5	1	0.37	1.0079
11304	NC=O	765	MPD2	N1	1	-0.547	14.0067
11305	HNCO	765	MPD2	H7	1	0.37	1.0079
11306	CB	766	MPD2	C	1	-0.15	12.011
11307	CB	766	MPD2	C1	1	0.117	12.011
11308	CB	766	MPD2	C2	1	-0.15	12.011
11309	CB	766	MPD2	C3	1	0.117	12.011
11310	CB	766	MPD2	C4	1	-0.15	12.011
11311	CB	766	MPD2	C5	1	-0.15	12.011
11312	HCMM	766	MPD2	H	1	0.15	1.0079
11313	HCMM	766	MPD2	H1	1	0.15	1.0079
11314	HCMM	766	MPD2	H2	1	0.15	1.0079
11315	HCMM	766	MPD2	H3	1	0.15	1.0079
11316	NC=O	766	MPD2	N	1	-0.547	14.0067
11317	HNCO	766	MPD2	H5	1	0.37	1.0079
11318	NC=O	766	MPD2	N1	1	-0.547	14.0067
11319	HNCO	766	MPD2	H7	1	0.37	1.0079
11320	CB	767	MPD2	C	1	-0.15	12.011
11321	CB	767	MPD2	C1	1	0.117	12.011
11322	CB	767	MPD2	C2	1	-0.15	12.011
11323	CB	767	MPD2	C3	1	0.117	12.011
11324	CB	767	MPD2	C4	1	-0.15	12.011
11325	CB	767	MPD2	C5	1	-0.15	12.011
11326	HCMM	767	MPD2	H	1	0.15	1.0079
11327	HCMM	767	MPD2	H1	1	0.15	1.0079
11328	HCMM	767	MPD2	H2	1	0.15	1.0079
11329	HCMM	767	MPD2	H3	1	0.15	1.0079
11330	NC=O	767	MPD2	N	1	-0.547	14.0067
11331	HNCO	767	MPD2	H5	1	0.37	1.0079
11332	NC=O	767	MPD2	N1	1	-0.547	14.0067
11333	HNCO	767	MPD2	H7	1	0.37	1.0079
11334	CB	768	MPD2	C	1	-0.15	12.011
11335	CB	768	MPD2	C1	1	0.117	12.011
11336	CB	768	MPD2	C2	1	-0.15	12.011
11337	CB	768	MPD2	C3	1	0.117	12.011
11338	CB	768	MPD2	C4	1	-0.15	12.011
11339	CB	768	MPD2	C5	1	-0.15	12.011
11340	HCMM	768	MPD2	H	1	0.15	1.0079
11341	HCMM	768	MPD2	H1	1	0.15	1.0079
11342	HCMM	768	MPD2	H2	1	0.15	1.0079
11343	HCMM	768	MPD2	H3	1	0.15	1.0079
11344	NC=O	768	MPD2	N	1	-0.547	14.0067
11345	HNCO	768	MPD2	H5	1	0.37	1.0079
11346	NC=O	768	MPD2	N1	1	-0.547	14.0067
11347	HNCO	768	MPD2	H7	1	0.37	1.0079
11348	CB	769	MPD2	C	1	-0.15	12.011
11349	CB	769	MPD2	C1	1	0.117	12.011
11350	CB	769	MPD2	C2	1	-0.15	12.011
11351	CB	769	MPD2	C3	1	0.117	12.011
11352	CB	769	MPD2	C4	1	-0.15	12.011
11353	CB	769	MPD2	C5	1	-0.15	12.011
11354	HCMM	769	MPD2	H	1	0.15	1.0079
11355	HCMM	769	MPD2	H1	1	0.15	1.0079
11356	HCMM	769	MPD2	H2	1	0.15	1.0079
11357	HCMM	769	MPD2	H3	1	0.15	1.0079
11358	NC=O	769	MPD2	N	1	-0.547	14.0067
11359	HNCO	769	MPD2	H5	1	0.37	1.0079
11360	NC=O	769	MPD2	N1	1	-0.547	14.0067
11361	HNCO	769	MPD2	H7	1	0.37	1.0079
11362	CB	770	MPD2	C	1	-0.15	12.011
11363	CB	770	MPD2	C1	1	0.117	12.011
11364	CB	770	MPD2	C2	1	-0.15	12.011
11365	CB	770	MPD2	C3	1	0.117	12.011
11366	CB	770	MPD2	C4	1	-0.15	12.011
11367	CB	770	MPD2	C5	1	-0.15	12.011
11368	HCMM	770	MPD2	H	1	0.15	1.0079
11369	HCMM	770	MPD2	H1	1	0.15	1.0079
11370	HCMM	770	MPD2	H2	1	0.15	1.0079
11371	HCMM	770	MPD2	H3	1	0.15	1.0079
11372	NC=O	770	MPD2	N	1	-0.547	14.0067
11373	HNCO	770	MPD2	H5	1	0.37	1.0079
11374	NC=O	770	MPD2	N1	1	-0.547	14.0067
11375	HNCO	770	MPD2	H7	1	0.37	1.0079
11376	CB	771	MPD2	C	1	-0.15	12.011
11377	CB	771	MPD2	C1	1	0.117	12.011
11378	CB	771	MPD2	C2	1	-0.15	12.011
11379	CB	771	MPD2	C3	1	0.117	12.011
11380	CB	771	MPD2	C4	1	-0.15	12.011
11381	CB	771	MPD2	C5	1	-0.15	12.011
11382	HCMM	771	MPD2	H	1	0.15	1.0079
11383	HCMM	771	MPD2	H1	1	0.15	1.0079
11384	HCMM	771	MPD2	H2	1	0.15	1.0079
11385	HCMM	771	MPD2	H3	1	0.15	1.0079
11386	NC=O	771	MPD2	N	1	-0.547	14.0067
11387	HNCO	771	MPD2	H5	1	0.37	1.0079
11388	NC=O	771	MPD2	N1	1	-0.547	14.0067
11389	HNCO	771	MPD2	H7	1	0.37	1.0079
11390	CB	772	MPD2	C	1	-0.15	12.011
11391	CB	772	MPD2	C1	1	0.117	12.011
11392	CB	772	MPD2	C2	1	-0.15	12.011
11393	CB	772	MPD2	C3	1	0.117	12.011
11394	CB	772	MPD2	C4	1	-0.15	12.011
11395	CB	772	MPD2	C5	1	-0.15	12.011
11396	HCMM	772	MPD2	H	1	0.15	1.0079
11397	HCMM	772	MPD2	H1	1	0.15	1.0079
11398	HCMM	772	MPD2	H2	1	0.15	1.0079
11399	HCMM	772	MPD2	H3	1	0.15	1.0079
11400	NC=O	772	MPD2	N	1	-0.547	14.0067
11401	HNCO	772	MPD2	H5	1	0.37	1.0079
11402	NC=O	772	MPD2	N1	1	-0.547	14.0067
11403	HNCO	772	MPD2	H7	1	0.37	1.0079
11404	CB	773	MPD2	C	1	-0.15	12.011
11405	CB	773	MPD2	C1	1	0.117	12.011
11406	CB	773	MPD2	C2	1	-0.15	12.011
11407	CB	773	MPD2	C3	1	0.117	12.011
11408	CB	773	MPD2	C4	1	-0.15	12.011
11409	CB	773	MPD2	C5	1	-0.15	12.011
11410	HCMM	773	MPD2	H	1	0.15	1.0079
11411	HCMM	773	MPD2	H1	1	0.15	1.0079
11412	HCMM	773	MPD2	H2	1	0.15	1.0079
11413	HCMM	773	MPD2	H3	1	0.15	1.0079
11414	NC=O	773	MPD2	N	1	-0.547	14.0067
11415	HNCO	773	MPD2	H5	1	0.37	1.0079
11416	NC=O	773	MPD2	N1	1	-0.547	14.0067
11417	HNCO	773	MPD2	H7	1	0.37	1.0079
11418	CB	774	MPD2	C	1	-0.15	12.011
11419	CB	774	MPD2	C1	1	0.117	12.011
11420	CB	774	MPD2	C2	1	-0.15	12.011
11421	CB	774	MPD2	C3	1	0.117	12.011
11422	CB	774	MPD2	C4	1	-0.15	12.011
11423	CB	774	MPD2	C5	1	-0.15	12.011
11424	HCMM	774	MPD2	H	1	0.15	1.0079
11425	HCMM	774	MPD2	H1	1	0.15	1.0079
11426	HCMM	774	MPD2	H2	1	0.15	1.0079
11427	HCMM	774	MPD2	H3	1	0.15	1.0079
11428	NC=O	774	MPD2	N	1	-0.547	14.0067
11429	HNCO	774	MPD2	H5	1	0.37	1.0079
11430	NC=O	774	MPD2	N1	1	-0.547	14.0067
11431	HNCO	774	MPD2	H7	1	0.37	1.0079
11432	CB	775	MPD2	C	1	-0.15	12.011
11433	CB	775	MPD2	C1	1	0.117	12.011
11434	CB	775	MPD2	C2	1	-0.15	12.011
11435	CB	775	MPD2	C3	1	0.117	12.011
11436	CB	775	MPD2	C4	1	-0.15	12.011
11437	CB	775	MPD2	C5	1	-0.15	12.011
11438	HCMM	775	MPD2	H	1	0.15	1.0079
11439	HCMM	775	MPD2	H1	1	0.15	1.0079
11440	HCMM	775	MPD2	H2	1	0.15	1.0079
11441	HCMM	775	MPD2	H3	1	0.15	1.0079
11442	NC=O	775	MPD2	N	1	-0.547	14.0067
11443	HNCO	775	MPD2	H5	1	0.37	1.0079
11444	NC=O	775	MPD2	N1	1	-0.547	14.0067
11445	HNCO	775	MPD2	H7	1	0.37	1.0079
11446	CB	776	MPD2	C	1	-0.15	12.011
11447	CB	776	MPD2	C1	1	0.117	12.011
11448	CB	776	MPD2	C2	1	-0.15	12.011
11449	CB	776	MPD2	C3	1	0.117	12.011
11450	CB	776	MPD2	C4	1	-0.15	12.011
11451	CB	776	MPD2	C5	1	-0.15	12.011
11452	HCMM	776	MPD2	H	1	0.15	1.0079
11453	HCMM	776	MPD2	H1	1	0.15	1.0079
11454	HCMM	776	MPD2	H2	1	0.15	1.0079
11455	HCMM	776	MPD2	H3	1	0.15	1.0079
11456	NC=O	776	MPD2	N	1	-0.547	14.0067
11457	HNCO	776	MPD2	H5	1	0.37	1.0079
11458	NC=O	776	MPD2	N1	1	-0.547	14.0067
11459	HNCO	776	MPD2	H7	1	0.37	1.0079
11460	CB	777	MPD2	C	1	-0.15	12.011
11461	CB	777	MPD2	C1	1	0.117	12.011
11462	CB	777	MPD2	C2	1	-0.15	12.011
11463	CB	777	MPD2	C3	1	0.117	12.011
11464	CB	777	MPD2	C4	1	-0.15	12.011
11465	CB	777	MPD2	C5	1	-0.15	12.011
11466	HCMM	777	MPD2	H	1	0.15	1.0079
11467	HCMM	777	MPD2	H1	1	0.15	1.0079
11468	HCMM	777	MPD2	H2	1	0.15	1.0079
11469	HCMM	777	MPD2	H3	1	0.15	1.0079
11470	NC=O	777	MPD2	N	1	-0.547	14.0067
11471	HNCO	777	MPD2	H5	1	0.37	1.0079
11472	NC=O	777	MPD2	N1	1	-0.547	14.0067
11473	HNCO	777	MPD2	H7	1	0.37	1.0079
11474	CB	778	MPD2	C	1	-0.15	12.011
11475	CB	778	MPD2	C1	1	0.117	12.011
11476	CB	778	MPD2	C2	1	-0.15	12.011
11477	CB	778	MPD2	C3	1	0.117	12.011
11478	CB	778	MPD2	C4	1	-0.15	12.011
11479	CB	778	MPD2	C5	1	-0.15	12.011
11480	HCMM	778	MPD2	H	1	0.15	1.0079
11481	HCMM	778	MPD2	H1	1	0.15	1.0079
11482	HCMM	778	MPD2	H2	1	0.15	1.0079
11483	HCMM	778	MPD2	H3	1	0.15	1.0079
11484	NC=O	778	MPD2	N	1	-0.547	14.0067
11485	HNCO	778	MPD2	H5	1	0.37	1.0079
11486	NC=O	778	MPD2	N1	1	-0.547	14.0067
11487	HNCO	778	MPD2	H7	1	0.37	1.0079
11488	CB	779	MPD2	C	1	-0.15	12.011
11489	CB	779	MPD2	C1	1	0.117	12.011
11490	CB	779	MPD2	C2	1	-0.15	12.011
11491	CB	779	MPD2	C3	1	0.117	12.011
11492	CB	779	MPD2	C4	1	-0.15	12.011
11493	CB	779	MPD2	C5	1	-0.15	12.011
11494	HCMM	779	MPD2	H	1	0.15	1.0079
11495	HCMM	779	MPD2	H1	1	0.15	1.0079
11496	HCMM	779	MPD2	H2	1	0.15	1.0079
11497	HCMM	779	MPD2	H3	1	0.15	1.0079
11498	NC=O	779	MPD2	N	1	-0.547	14.0067
11499	HNCO	779	MPD2	H5	1	0.37	1.0079
11500	NC=O	779	MPD2	N1	1	-0.547	14.0067
11501	HNCO	779	MPD2	H7	1	0.37	1.0079
11502	CB	780	MPD2	C	1	-0.15	12.011
11503	CB	780	MPD2	C1	1	0.117	12.011
11504	CB	780	MPD2	C2	1	-0.15	12.011
11505	CB	780	MPD2	C3	1	0.117	12.011
11506	CB	780	MPD2	C4	1	-0.15	12.011
11507	CB	780	MPD2	C5	1	-0.15	12.011
11508	HCMM	780	MPD2	H	1	0.15	1.0079
11509	HCMM	780	MPD2	H1	1	0.15	1.0079
11510	HCMM	780	MPD2	H2	1	0.15	1.0079
11511	HCMM	780	MPD2	H3	1	0.15	1.0079
11512	NC=O	780	MPD2	N	1	-0.547	14.0067
11513	HNCO	780	MPD2	H5	1	0.37	1.0079
11514	NC=O	780	MPD2	N1	1	-0.547	14.0067
11515	HNCO	780	MPD2	H7	1	0.37	1.0079
11516	CB	781	MPD2	C	1	-0.15	12.011
11517	CB	781	MPD2	C1	1	0.117	12.011
11518	CB	781	MPD2	C2	1	-0.15	12.011
11519	CB	781	MPD2	C3	1	0.117	12.011
11520	CB	781	MPD2	C4	1	-0.15	12.011
11521	CB	781	MPD2	C5	1	-0.15	12.011
11522	HCMM	781	MPD2	H	1	0.15	1.0079
11523	HCMM	781	MPD2	H1	1	0.15	1.0079
11524	HCMM	781	MPD2	H2	1	0.15	1.0079
11525	HCMM	781	MPD2	H3	1	0.15	1.0079
11526	NC=O	781	MPD2	N	1	-0.547	14.0067
11527	HNCO	781	MPD2	H5	1	0.37	1.0079
11528	NC=O	781	MPD2	N1	1	-0.547	14.0067
11529	HNCO	781	MPD2	H7	1	0.37	1.0079
11530	CB	782	MPD2	C	1	-0.15	12.011
11531	CB	782	MPD2	C1	1	0.117	12.011
11532	CB	782	MPD2	C2	1	-0.15	12.011
11533	CB	782	MPD2	C3	1	0.117	12.011
11534	CB	782	MPD2	C4	1	-0.15	12.011
11535	CB	782	MPD2	C5	1	-0.15	12.011
11536	HCMM	782	MPD2	H	1	0.15	1.0079
11537	HCMM	782	MPD2	H1	1	0.15	1.0079
11538	HCMM	782	MPD2	H2	1	0.15	1.0079
11539	HCMM	782	MPD2	H3	1	0.15	1.0079
11540	NC=O	782	MPD2	N	1	-0.547	14.0067
11541	HNCO	782	MPD2	H5	1	0.37	1.0079
11542	NC=O	782	MPD2	N1	1	-0.547	14.0067
11543	HNCO	782	MPD2	H7	1	0.37	1.0079
11544	CB	783	MPD2	C	1	-0.15	12.011
11545	CB	783	MPD2	C1	1	0.117	12.011
11546	CB	783	MPD2	C2	1	-0.15	12.011
11547	CB	783	MPD2	C3	1	0.117	12.011
11548	CB	783	MPD2	C4	1	-0.15	12.011
11549	CB	783	MPD2	C5	1	-0.15	12.011
11550	HCMM	783	MPD2	H	1	0.15	1.0079
11551	HCMM	783	MPD2	H1	1	0.15	1.0079
11552	HCMM	783	MPD2	H2	1	0.15	1.0079
11553	HCMM	783	MPD2	H3	1	0.15	1.0079
11554	NC=O	783	MPD2	N	1	-0.547	14.0067
11555	HNCO	783	MPD2	H5	1	0.37	1.0079
11556	NC=O	783	MPD2	N1	1	-0.547	14.0067
11557	HNCO	783	MPD2	H7	1	0.37	1.0079
11558	CB	784	MPD2	C	1	-0.15	12.011
11559	CB	784	MPD2	C1	1	0.117	12.011
11560	CB	784	MPD2	C2	1	-0.15	12.011
11561	CB	784	MPD2	C3	1	0.117	12.011
11562	CB	784	MPD2	C4	1	-0.15	12.011
11563	CB	784	MPD2	C5	1	-0.15	12.011
11564	HCMM	784	MPD2	H	1	0.15	1.0079
11565	HCMM	784	MPD2	H1	1	0.15	1.0079
11566	HCMM	784	MPD2	H2	1	0.15	1.0079
11567	HCMM	784	MPD2	H3	1	0.15	1.0079
11568	NC=O	784	MPD2	N	1	-0.547	14.0067
11569	HNCO	784	MPD2	H5	1	0.37	1.0079
11570	NC=O	784	MPD2	N1	1	-0.547	14.0067
11571	HNCO	784	MPD2	H7	1	0.37	1.0079
11572	CB	785	MPD2	C	1	-0.15	12.011
11573	CB	785	MPD2	C1	1	0.117	12.011
11574	CB	785	MPD2	C2	1	-0.15	12.011
11575	CB	785	MPD2	C3	1	0.117	12.011
11576	CB	785	MPD2	C4	1	-0.15	12.011
11577	CB	785	MPD2	C5	1	-0.15	12.011
11578	HCMM	785	MPD2	H	1	0.15	1.0079
11579	HCMM	785	MPD2	H1	1	0.15	1.0079
11580	HCMM	785	MPD2	H2	1	0.15	1.0079
11581	HCMM	785	MPD2	H3	1	0.15	1.0079
11582	NC=O	785	MPD2	N	1	-0.547	14.0067
11583	HNCO	785	MPD2	H5	1	0.37	1.0079
11584	NC=O	785	MPD2	N1	1	-0.547	14.0067
11585	HNCO	785	MPD2	H7	1	0.37	1.0079
11586	CB	786	MPD2	C	1	-0.15	12.011
11587	CB	786	MPD2	C1	1	0.117	12.011
11588	CB	786	MPD2	C2	1	-0.15	12.011
11589	CB	786	MPD2	C3	1	0.117	12.011
11590	CB	786	MPD2	C4	1	-0.15	12.011
11591	CB	786	MPD2	C5	1	-0.15	12.011
11592	HCMM	786	MPD2	H	1	0.15	1.0079
11593	HCMM	786	MPD2	H1	1	0.15	1.0079
11594	HCMM	786	MPD2	H2	1	0.15	1.0079
11595	HCMM	786	MPD2	H3	1	0.15	1.0079
11596	NC=O	786	MPD2	N	1	-0.547	14.0067
11597	HNCO	786	MPD2	H5	1	0.37	1.0079
11598	NC=O	786	MPD2	N1	1	-0.547	14.0067
11599	HNCO	786	MPD2	H7	1	0.37	1.0079
11600	CB	787	MPD2	C	1	-0.15	12.011
11601	CB	787	MPD2	C1	1	0.117	12.011
11602	CB	787	MPD2	C2	1	-0.15	12.011
11603	CB	787	MPD2	C3	1	0.117	12.011
11604	CB	787	MPD2	C4	1	-0.15	12.011
11605	CB	787	MPD2	C5	1	-0.15	12.011
11606	HCMM	787	MPD2	H	1	0.15	1.0079
11607	HCMM	787	MPD2	H1	1	0.15	1.0079
11608	HCMM	787	MPD2	H2	1	0.15	1.0079
11609	HCMM	787	MPD2	H3	1	0.15	1.0079
11610	NC=O	787	MPD2	N	1	-0.547	14.0067
11611	HNCO	787	MPD2	H5	1	0.37	1.0079
11612	NC=O	787	MPD2	N1	1	-0.547	14.0067
11613	HNCO	787	MPD2	H7	1	0.37	1.0079
11614	CB	788	MPD2	C	1	-0.15	12.011
11615	CB	788	MPD2	C1	1	0.117	12.011
11616	CB	788	MPD2	C2	1	-0.15	12.011
11617	CB	788	MPD2	C3	1	0.117	12.011
11618	CB	788	MPD2	C4	1	-0.15	12.011
11619	CB	788	MPD2	C5	1	-0.15	12.011
11620	HCMM	788	MPD2	H	1	0.15	1.0079
11621	HCMM	788	MPD2	H1	1	0.15	1.0079
11622	HCMM	788	MPD2	H2	1	0.15	1.0079
11623	HCMM	788	MPD2	H3	1	0.15	1.0079
11624	NC=O	788	MPD2	N	1	-0.547	14.0067
11625	HNCO	788	MPD2	H5	1	0.37	1.0079
11626	NC=O	788	MPD2	N1	1	-0.547	14.0067
11627	HNCO	788	MPD2	H7	1	0.37	1.0079
11628	CB	789	MPD2	C	1	-0.15	12.011
11629	CB	789	MPD2	C1	1	0.117	12.011
11630	CB	789	MPD2	C2	1	-0.15	12.011
11631	CB	789	MPD2	C3	1	0.117	12.011
11632	CB	789	MPD2	C4	1	-0.15	12.011
11633	CB	789	MPD2	C5	1	-0.15	12.011
11634	HCMM	789	MPD2	H	1	0.15	1.0079
11635	HCMM	789	MPD2	H1	1	0.15	1.0079
11636	HCMM	789	MPD2	H2	1	0.15	1.0079
11637	HCMM	789	MPD2	H3	1	0.15	1.0079
11638	NC=O	789	MPD2	N	1	-0.547	14.0067
11639	HNCO	789	MPD2	H5	1	0.37	1.0079
11640	NC=O	789	MPD2	N1	1	-0.547	14.0067
11641	HNCO	789	MPD2	H7	1	0.37	1.0079
11642	CB	790	MPD2	C	1	-0.15	12.011
11643	CB	790	MPD2	C1	1	0.117	12.011
11644	CB	790	MPD2	C2	1	-0.15	12.011
11645	CB	790	MPD2	C3	1	0.117	12.011
11646	CB	790	MPD2	C4	1	-0.15	12.011
11647	CB	790	MPD2	C5	1	-0.15	12.011
11648	HCMM	790	MPD2	H	1	0.15	1.0079
11649	HCMM	790	MPD2	H1	1	0.15	1.0079
11650	HCMM	790	MPD2	H2	1	0.15	1.0079
11651	HCMM	790	MPD2	H3	1	0.15	1.0079
11652	NC=O	790	MPD2	N	1	-0.547	14.0067
11653	HNCO	790	MPD2	H5	1	0.37	1.0079
11654	NC=O	790	MPD2	N1	1	-0.547	14.0067
11655	HNCO	790	MPD2	H7	1	0.37	1.0079
11656	CB	791	MPD2	C	1	-0.15	12.011
11657	CB	791	MPD2	C1	1	0.117	12.011
11658	CB	791	MPD2	C2	1	-0.15	12.011
11659	CB	791	MPD2	C3	1	0.117	12.011
11660	CB	791	MPD2	C4	1	-0.15	12.011
11661	CB	791	MPD2	C5	1	-0.15	12.011
11662	HCMM	791	MPD2	H	1	0.15	1.0079
11663	HCMM	791	MPD2	H1	1	0.15	1.0079
11664	HCMM	791	MPD2	H2	1	0.15	1.0079
11665	HCMM	791	MPD2	H3	1	0.15	1.0079
11666	NC=O	791	MPD2	N	1	-0.547	14.0067
11667	HNCO	791	MPD2	H5	1	0.37	1.0079
11668	NC=O	791	MPD2	N1	1	-0.547	14.0067
11669	HNCO	791	MPD2	H7	1	0.37	1.0079
11670	CB	792	MPD2	C	1	-0.15	12.011
11671	CB	792	MPD2	C1	1	0.117	12.011
11672	CB	792	MPD2	C2	1	-0.15	12.011
11673	CB	792	MPD2	C3	1	0.117	12.011
11674	CB	792	MPD2	C4	1	-0.15	12.011
11675	CB	792	MPD2	C5	1	-0.15	12.011
11676	HCMM	792	MPD2	H	1	0.15	1.0079
11677	HCMM	792	MPD2	H1	1	0.15	1.0079
11678	HCMM	792	MPD2	H2	1	0.15	1.0079
11679	HCMM	792	MPD2	H3	1	0.15	1.0079
11680	NC=O	792	MPD2	N	1	-0.547	14.0067
11681	HNCO	792	MPD2	H5	1	0.37	1.0079
11682	NC=O	792	MPD2	N1	1	-0.547	14.0067
11683	HNCO	792	MPD2	H7	1	0.37	1.0079
11684	CB	793	MPD2	C	1	-0.15	12.011
11685	CB	793	MPD2	C1	1	0.117	12.011
11686	CB	793	MPD2	C2	1	-0.15	12.011
11687	CB	793	MPD2	C3	1	0.117	12.011
11688	CB	793	MPD2	C4	1	-0.15	12.011
11689	CB	793	MPD2	C5	1	-0.15	12.011
11690	HCMM	793	MPD2	H	1	0.15	1.0079
11691	HCMM	793	MPD2	H1	1	0.15	1.0079
11692	HCMM	793	MPD2	H2	1	0.15	1.0079
11693	HCMM	793	MPD2	H3	1	0.15	1.0079
11694	NC=O	793	MPD2	N	1	-0.547	14.0067
11695	HNCO	793	MPD2	H5	1	0.37	1.0079
11696	NC=O	793	MPD2	N1	1	-0.547	14.0067
11697	HNCO	793	MPD2	H7	1	0.37	1.0079
11698	CB	794	MPD2	C	1	-0.15	12.011
11699	CB	794	MPD2	C1	1	0.117	12.011
11700	CB	794	MPD2	C2	1	-0.15	12.011
11701	CB	794	MPD2	C3	1	0.117	12.011
11702	CB	794	MPD2	C4	1	-0.15	12.011
11703	CB	794	MPD2	C5	1	-0.15	12.011
11704	HCMM	794	MPD2	H	1	0.15	1.0079
11705	HCMM	794	MPD2	H1	1	0.15	1.0079
11706	HCMM	794	MPD2	H2	1	0.15	1.0079
11707	HCMM	794	MPD2	H3	1	0.15	1.0079
11708	NC=O	794	MPD2	N	1	-0.547	14.0067
11709	HNCO	794	MPD2	H5	1	0.37	1.0079
11710	NC=O	794	MPD2	N1	1	-0.547	14.0067
11711	HNCO	794	MPD2	H7	1	0.37	1.0079
11712	CB	795	MPD2	C	1	-0.15	12.011
11713	CB	795	MPD2	C1	1	0.117	12.011
11714	CB	795	MPD2	C2	1	-0.15	12.011
11715	CB	795	MPD2	C3	1	0.117	12.011
11716	CB	795	MPD2	C4	1	-0.15	12.011
11717	CB	795	MPD2	C5	1	-0.15	12.011
11718	HCMM	795	MPD2	H	1	0.15	1.0079
11719	HCMM	795	MPD2	H1	1	0.15	1.0079
11720	HCMM	795	MPD2	H2	1	0.15	1.0079
11721	HCMM	795	MPD2	H3	1	0.15	1.0079
11722	NC=O	795	MPD2	N	1	-0.547	14.0067
11723	HNCO	795	MPD2	H5	1	0.37	1.0079
11724	NC=O	795	MPD2	N1	1	-0.547	14.0067
11725	HNCO	795	MPD2	H7	1	0.37	1.0079
11726	CB	796	MPD2	C	1	-0.15	12.011
11727	CB	796	MPD2	C1	1	0.117	12.011
11728	CB	796	MPD2	C2	1	-0.15	12.011
11729	CB	796	MPD2	C3	1	0.117	12.011
11730	CB	796	MPD2	C4	1	-0.15	12.011
11731	CB	796	MPD2	C5	1	-0.15	12.011
11732	HCMM	796	MPD2	H	1	0.15	1.0079
11733	HCMM	796	MPD2	H1	1	0.15	1.0079
11734	HCMM	796	MPD2	H2	1	0.15	1.0079
11735	HCMM	796	MPD2	H3	1	0.15	1.0079
11736	NC=O	796	MPD2	N	1	-0.547	14.0067
11737	HNCO	796	MPD2	H5	1	0.37	1.0079
11738	NC=O	796	MPD2	N1	1	-0.547	14.0067
11739	HNCO	796	MPD2	H7	1	0.37	1.0079
11740	CB	797	MPD2	C	1	-0.15	12.011
11741	CB	797	MPD2	C1	1	0.117	12.011
11742	CB	797	MPD2	C2	1	-0.15	12.011
11743	CB	797	MPD2	C3	1	0.117	12.011
11744	CB	797	MPD2	C4	1	-0.15	12.011
11745	CB	797	MPD2	C5	1	-0.15	12.011
11746	HCMM	797	MPD2	H	1	0.15	1.0079
11747	HCMM	797	MPD2	H1	1	0.15	1.0079
11748	HCMM	797	MPD2	H2	1	0.15	1.0079
11749	HCMM	797	MPD2	H3	1	0.15	1.0079
11750	NC=O	797	MPD2	N	1	-0.547	14.0067
11751	HNCO	797	MPD2	H5	1	0.37	1.0079
11752	NC=O	797	MPD2	N1	1	-0.547	14.0067
11753	HNCO	797	MPD2	H7	1	0.37	1.0079
11754	CB	798	MPD2	C	1	-0.15	12.011
11755	CB	798	MPD2	C1	1	0.117	12.011
11756	CB	798	MPD2	C2	1	-0.15	12.011
11757	CB	798	MPD2	C3	1	0.117	12.011
11758	CB	798	MPD2	C4	1	-0.15	12.011
11759	CB	798	MPD2	C5	1	-0.15	12.011
11760	HCMM	798	MPD2	H	1	0.15	1.0079
11761	HCMM	798	MPD2	H1	1	0.15	1.0079
11762	HCMM	798	MPD2	H2	1	0.15	1.0079
11763	HCMM	798	MPD2	H3	1	0.15	1.0079
11764	NC=O	798	MPD2	N	1	-0.547	14.0067
11765	HNCO	798	MPD2	H5	1	0.37	1.0079
11766	NC=O	798	MPD2	N1	1	-0.547	14.0067
11767	HNCO	798	MPD2	H7	1	0.37	1.0079
11768	CB	799	MPD2	C	1	-0.15	12.011
11769	CB	799	MPD2	C1	1	0.117	12.011
11770	CB	799	MPD2	C2	1	-0.15	12.011
11771	CB	799	MPD2	C3	1	0.117	12.011
11772	CB	799	MPD2	C4	1	-0.15	12.011
11773	CB	799	MPD2	C5	1	-0.15	12.011
11774	HCMM	799	MPD2	H	1	0.15	1.0079
11775	HCMM	799	MPD2	H1	1	0.15	1.0079
11776	HCMM	799	MPD2	H2	1	0.15	1.0079
11777	HCMM	799	MPD2	H3	1	0.15	1.0079
11778	NC=O	799	MPD2	N	1	-0.547	14.0067
11779	HNCO	799	MPD2	H5	1	0.37	1.0079
11780	NC=O	799	MPD2	N1	1	-0.547	14.0067
11781	HNCO	799	MPD2	H7	1	0.37	1.0079
11782	CB	800	MPD2	C	1	-0.15	12.011
11783	CB	800	MPD2	C1	1	0.117	12.011
11784	CB	800	MPD2	C2	1	-0.15	12.011
11785	CB	800	MPD2	C3	1	0.117	12.011
11786	CB	800	MPD2	C4	1	-0.15	12.011
11787	CB	800	MPD2	C5	1	-0.15	12.011
11788	HCMM	800	MPD2	H	1	0.15	1.0079
11789	HCMM	800	MPD2	H1	1	0.15	1.0079
11790	HCMM	800	MPD2	H2	1	0.15	1.0079
11791	HCMM	800	MPD2	H3	1	0.15	1.0079
11792	NC=O	800	MPD2	N	1	-0.547	14.0067
11793	HNCO	800	MPD2	H5	1	0.37	1.0079
11794	NC=O	800	MPD2	N1	1	-0.547	14.0067
11795	HNCO	800	MPD2	H7	1	0.37	1.0079
11796	CB	801	MPD2	C	1	-0.15	12.011
11797	CB	801	MPD2	C1	1	0.117	12.011
11798	CB	801	MPD2	C2	1	-0.15	12.011
11799	CB	801	MPD2	C3	1	0.117	12.011
11800	CB	801	MPD2	C4	1	-0.15	12.011
11801	CB	801	MPD2	C5	1	-0.15	12.011
11802	HCMM	801	MPD2	H	1	0.15	1.0079
11803	HCMM	801	MPD2	H1	1	0.15	1.0079
11804	HCMM	801	MPD2	H2	1	0.15	1.0079
11805	HCMM	801	MPD2	H3	1	0.15	1.0079
11806	NC=O	801	MPD2	N	1	-0.547	14.0067
11807	HNCO	801	MPD2	H5	1	0.37	1.0079
11808	NC=O	801	MPD2	N1	1	-0.547	14.0067
11809	HNCO	801	MPD2	H7	1	0.37	1.0079
11810	CB	802	MPD2	C	1	-0.15	12.011
11811	CB	802	MPD2	C1	1	0.117	12.011
11812	CB	802	MPD2	C2	1	-0.15	12.011
11813	CB	802	MPD2	C3	1	0.117	12.011
11814	CB	802	MPD2	C4	1	-0.15	12.011
11815	CB	802	MPD2	C5	1	-0.15	12.011
11816	HCMM	802	MPD2	H	1	0.15	1.0079
11817	HCMM	802	MPD2	H1	1	0.15	1.0079
11818	HCMM	802	MPD2	H2	1	0.15	1.0079
11819	HCMM	802	MPD2	H3	1	0.15	1.0079
11820	NC=O	802	MPD2	N	1	-0.547	14.0067
11821	HNCO	802	MPD2	H5	1	0.37	1.0079
11822	NC=O	802	MPD2	N1	1	-0.547	14.0067
11823	HNCO	802	MPD2	H7	1	0.37	1.0079
11824	CB	803	MPD2	C	1	-0.15	12.011
11825	CB	803	MPD2	C1	1	0.117	12.011
11826	CB	803	MPD2	C2	1	-0.15	12.011
11827	CB	803	MPD2	C3	1	0.117	12.011
11828	CB	803	MPD2	C4	1	-0.15	12.011
11829	CB	803	MPD2	C5	1	-0.15	12.011
11830	HCMM	803	MPD2	H	1	0.15	1.0079
11831	HCMM	803	MPD2	H1	1	0.15	1.0079
11832	HCMM	803	MPD2	H2	1	0.15	1.0079
11833	HCMM	803	MPD2	H3	1	0.15	1.0079
11834	NC=O	803	MPD2	N	1	-0.547	14.0067
11835	HNCO	803	MPD2	H5	1	0.37	1.0079
11836	NC=O	803	MPD2	N1	1	-0.547	14.0067
11837	HNCO	803	MPD2	H7	1	0.37	1.0079
11838	CB	804	MPD2	C	1	-0.15	12.011
11839	CB	804	MPD2	C1	1	0.117	12.011
11840	CB	804	MPD2	C2	1	-0.15	12.011
11841	CB	804	MPD2	C3	1	0.117	12.011
11842	CB	804	MPD2	C4	1	-0.15	12.011
11843	CB	804	MPD2	C5	1	-0.15	12.011
11844	HCMM	804	MPD2	H	1	0.15	1.0079
11845	HCMM	804	MPD2	H1	1	0.15	1.0079
11846	HCMM	804	MPD2	H2	1	0.15	1.0079
11847	HCMM	804	MPD2	H3	1	0.15	1.0079
11848	NC=O	804	MPD2	N	1	-0.547	14.0067
11849	HNCO	804	MPD2	H5	1	0.37	1.0079
11850	NC=O	804	MPD2	N1	1	-0.547	14.0067
11851	HNCO	804	MPD2	H7	1	0.37	1.0079
11852	CB	805	MPD2	C	1	-0.15	12.011
11853	CB	805	MPD2	C1	1	0.117	12.011
11854	CB	805	MPD2	C2	1	-0.15	12.011
11855	CB	805	MPD2	C3	1	0.117	12.011
11856	CB	805	MPD2	C4	1	-0.15	12.011
11857	CB	805	MPD2	C5	1	-0.15	12.011
11858	HCMM	805	MPD2	H	1	0.15	1.0079
11859	HCMM	805	MPD2	H1	1	0.15	1.0079
11860	HCMM	805	MPD2	H2	1	0.15	1.0079
11861	HCMM	805	MPD2	H3	1	0.15	1.0079
11862	NC=O	805	MPD2	N	1	-0.547	14.0067
11863	HNCO	805	MPD2	H5	1	0.37	1.0079
11864	NC=O	805	MPD2	N1	1	-0.547	14.0067
11865	HNCO	805	MPD2	H7	1	0.37	1.0079
11866	CB	806	MPD2	C	1	-0.15	12.011
11867	CB	806	MPD2	C1	1	0.117	12.011
11868	CB	806	MPD2	C2	1	-0.15	12.011
11869	CB	806	MPD2	C3	1	0.117	12.011
11870	CB	806	MPD2	C4	1	-0.15	12.011
11871	CB	806	MPD2	C5	1	-0.15	12.011
11872	HCMM	806	MPD2	H	1	0.15	1.0079
11873	HCMM	806	MPD2	H1	1	0.15	1.0079
11874	HCMM	806	MPD2	H2	1	0.15	1.0079
11875	HCMM	806	MPD2	H3	1	0.15	1.0079
11876	NC=O	806	MPD2	N	1	-0.547	14.0067
11877	HNCO	806	MPD2	H5	1	0.37	1.0079
11878	NC=O	806	MPD2	N1	1	-0.547	14.0067
11879	HNCO	806	MPD2	H7	1	0.37	1.0079
11880	CB	807	MPD2	C	1	-0.15	12.011
11881	CB	807	MPD2	C1	1	0.117	12.011
11882	CB	807	MPD2	C2	1	-0.15	12.011
11883	CB	807	MPD2	C3	1	0.117	12.011
11884	CB	807	MPD2	C4	1	-0.15	12.011
11885	CB	807	MPD2	C5	1	-0.15	12.011
11886	HCMM	807	MPD2	H	1	0.15	1.0079
11887	HCMM	807	MPD2	H1	1	0.15	1.0079
11888	HCMM	807	MPD2	H2	1	0.15	1.0079
11889	HCMM	807	MPD2	H3	1	0.15	1.0079
11890	NC=O	807	MPD2	N	1	-0.547	14.0067
11891	HNCO	807	MPD2	H5	1	0.37	1.0079
11892	NC=O	807	MPD2	N1	1	-0.547	14.0067
11893	HNCO	807	MPD2	H7	1	0.37	1.0079
11894	CB	808	MPD2	C	1	-0.15	12.011
11895	CB	808	MPD2	C1	1	0.117	12.011
11896	CB	808	MPD2	C2	1	-0.15	12.011
11897	CB	808	MPD2	C3	1	0.117	12.011
11898	CB	808	MPD2	C4	1	-0.15	12.011
11899	CB	808	MPD2	C5	1	-0.15	12.011
11900	HCMM	808	MPD2	H	1	0.15	1.0079
11901	HCMM	808	MPD2	H1	1	0.15	1.0079
11902	HCMM	808	MPD2	H2	1	0.15	1.0079
11903	HCMM	808	MPD2	H3	1	0.15	1.0079
11904	NC=O	808	MPD2	N	1	-0.547	14.0067
11905	HNCO	808	MPD2	H5	1	0.37	1.0079
11906	NC=O	808	MPD2	N1	1	-0.547	14.0067
11907	HNCO	808	MPD2	H7	1	0.37	1.0079
11908	CB	809	MPD2	C	1	-0.15	12.011
11909	CB	809	MPD2	C1	1	0.117	12.011
11910	CB	809	MPD2	C2	1	-0.15	12.011
11911	CB	809	MPD2	C3	1	0.117	12.011
11912	CB	809	MPD2	C4	1	-0.15	12.011
11913	CB	809	MPD2	C5	1	-0.15	12.011
11914	HCMM	809	MPD2	H	1	0.15	1.0079
11915	HCMM	809	MPD2	H1	1	0.15	1.0079
11916	HCMM	809	MPD2	H2	1	0.15	1.0079
11917	HCMM	809	MPD2	H3	1	0.15	1.0079
11918	NC=O	809	MPD2	N	1	-0.547	14.0067
11919	HNCO	809	MPD2	H5	1	0.37	1.0079
11920	NC=O	809	MPD2	N1	1	-0.547	14.0067
11921	HNCO	809	MPD2	H7	1	0.37	1.0079
11922	CB	810	MPD2	C	1	-0.15	12.011
11923	CB	810	MPD2	C1	1	0.117	12.011
11924	CB	810	MPD2	C2	1	-0.15	12.011
11925	CB	810	MPD2	C3	1	0.117	12.011
11926	CB	810	MPD2	C4	1	-0.15	12.011
11927	CB	810	MPD2	C5	1	-0.15	12.011
11928	HCMM	810	MPD2	H	1	0.15	1.0079
11929	HCMM	810	MPD2	H1	1	0.15	1.0079
11930	HCMM	810	MPD2	H2	1	0.15	1.0079
11931	HCMM	810	MPD2	H3	1	0.15	1.0079
11932	NC=O	810	MPD2	N	1	-0.547	14.0067
11933	HNCO	810	MPD2	H5	1	0.37	1.0079
11934	NC=O	810	MPD2	N1	1	-0.547	14.0067
11935	HNCO	810	MPD2	H7	1	0.37	1.0079
11936	CB	811	MPD2	C	1	-0.15	12.011
11937	CB	811	MPD2	C1	1	0.117	12.011
11938	CB	811	MPD2	C2	1	-0.15	12.011
11939	CB	811	MPD2	C3	1	0.117	12.011
11940	CB	811	MPD2	C4	1	-0.15	12.011
11941	CB	811	MPD2	C5	1	-0.15	12.011
11942	HCMM	811	MPD2	H	1	0.15	1.0079
11943	HCMM	811	MPD2	H1	1	0.15	1.0079
11944	HCMM	811	MPD2	H2	1	0.15	1.0079
11945	HCMM	811	MPD2	H3	1	0.15	1.0079
11946	NC=O	811	MPD2	N	1	-0.547	14.0067
11947	HNCO	811	MPD2	H5	1	0.37	1.0079
11948	NC=O	811	MPD2	N1	1	-0.547	14.0067
11949	HNCO	811	MPD2	H7	1	0.37	1.0079
11950	CB	812	MPD2	C	1	-0.15	12.011
11951	CB	812	MPD2	C1	1	0.117	12.011
11952	CB	812	MPD2	C2	1	-0.15	12.011
11953	CB	812	MPD2	C3	1	0.117	12.011
11954	CB	812	MPD2	C4	1	-0.15	12.011
11955	CB	812	MPD2	C5	1	-0.15	12.011
11956	HCMM	812	MPD2	H	1	0.15	1.0079
11957	HCMM	812	MPD2	H1	1	0.15	1.0079
11958	HCMM	812	MPD2	H2	1	0.15	1.0079
11959	HCMM	812	MPD2	H3	1	0.15	1.0079
11960	NC=O	812	MPD2	N	1	-0.547	14.0067
11961	HNCO	812	MPD2	H5	1	0.37	1.0079
11962	NC=O	812	MPD2	N1	1	-0.547	14.0067
11963	HNCO	812	MPD2	H7	1	0.37	1.0079
11964	CB	813	MPD2	C	1	-0.15	12.011
11965	CB	813	MPD2	C1	1	0.117	12.011
11966	CB	813	MPD2	C2	1	-0.15	12.011
11967	CB	813	MPD2	C3	1	0.117	12.011
11968	CB	813	MPD2	C4	1	-0.15	12.011
11969	CB	813	MPD2	C5	1	-0.15	12.011
11970	HCMM	813	MPD2	H	1	0.15	1.0079
11971	HCMM	813	MPD2	H1	1	0.15	1.0079
11972	HCMM	813	MPD2	H2	1	0.15	1.0079
11973	HCMM	813	MPD2	H3	1	0.15	1.0079
11974	NC=O	813	MPD2	N	1	-0.547	14.0067
11975	HNCO	813	MPD2	H5	1	0.37	1.0079
11976	NC=O	813	MPD2	N1	1	-0.547	14.0067
11977	HNCO	813	MPD2	H7	1	0.37	1.0079
11978	CB	814	MPD2	C	1	-0.15	12.011
11979	CB	814	MPD2	C1	1	0.117	12.011
11980	CB	814	MPD2	C2	1	-0.15	12.011
11981	CB	814	MPD2	C3	1	0.117	12.011
11982	CB	814	MPD2	C4	1	-0.15	12.011
11983	CB	814	MPD2	C5	1	-0.15	12.011
11984	HCMM	814	MPD2	H	1	0.15	1.0079
11985	HCMM	814	MPD2	H1	1	0.15	1.0079
11986	HCMM	814	MPD2	H2	1	0.15	1.0079
11987	HCMM	814	MPD2	H3	1	0.15	1.0079
11988	NC=O	814	MPD2	N	1	-0.547	14.0067
11989	HNCO	814	MPD2	H5	1	0.37	1.0079
11990	NC=O	814	MPD2	N1	1	-0.547	14.0067
11991	HNCO	814	MPD2	H7	1	0.37	1.0079
11992	CB	815	MPD2	C	1	-0.15	12.011
11993	CB	815	MPD2	C1	1	0.117	12.011
11994	CB	815	MPD2	C2	1	-0.15	12.011
11995	CB	815	MPD2	C3	1	0.117	12.011
11996	CB	815	MPD2	C4	1	-0.15	12.011
11997	CB	815	MPD2	C5	1	-0.15	12.011
11998	HCMM	815	MPD2	H	1	0.15	1.0079
11999	HCMM	815	MPD2	H1	1	0.15	1.0079
12000	HCMM	815	MPD2	H2	1	0.15	1.0079
12001	HCMM	815	MPD2	H3	1	0.15	1.0079
12002	NC=O	815	MPD2	N	1	-0.547	14.0067
12003	HNCO	815	MPD2	H5	1	0.37	1.0079
12004	NC=O	815	MPD2	N1	1	-0.547	14.0067
12005	HNCO	815	MPD2	H7	1	0.37	1.0079
12006	CB	816	MPD2	C	1	-0.15	12.011
12007	CB	816	MPD2	C1	1	0.117	12.011
12008	CB	816	MPD2	C2	1	-0.15	12.011
12009	CB	816	MPD2	C3	1	0.117	12.011
12010	CB	816	MPD2	C4	1	-0.15	12.011
12011	CB	816	MPD2	C5	1	-0.15	12.011
12012	HCMM	816	MPD2	H	1	0.15	1.0079
12013	HCMM	816	MPD2	H1	1	0.15	1.0079
12014	HCMM	816	MPD2	H2	1	0.15	1.0079
12015	HCMM	816	MPD2	H3	1	0.15	1.0079
12016	NC=O	816	MPD2	N	1	-0.547	14.0067
12017	HNCO	816	MPD2	H5	1	0.37	1.0079
12018	NC=O	816	MPD2	N1	1	-0.547	14.0067
12019	HNCO	816	MPD2	H7	1	0.37	1.0079
12020	CB	817	MPD2	C	1	-0.15	12.011
12021	CB	817	MPD2	C1	1	0.117	12.011
12022	CB	817	MPD2	C2	1	-0.15	12.011
12023	CB	817	MPD2	C3	1	0.117	12.011
12024	CB	817	MPD2	C4	1	-0.15	12.011
12025	CB	817	MPD2	C5	1	-0.15	12.011
12026	HCMM	817	MPD2	H	1	0.15	1.0079
12027	HCMM	817	MPD2	H1	1	0.15	1.0079
12028	HCMM	817	MPD2	H2	1	0.15	1.0079
12029	HCMM	817	MPD2	H3	1	0.15	1.0079
12030	NC=O	817	MPD2	N	1	-0.547	14.0067
12031	HNCO	817	MPD2	H5	1	0.37	1.0079
12032	NC=O	817	MPD2	N1	1	-0.547	14.0067
12033	HNCO	817	MPD2	H7	1	0.37	1.0079
12034	CB	818	MPD2	C	1	-0.15	12.011
12035	CB	818	MPD2	C1	1	0.117	12.011
12036	CB	818	MPD2	C2	1	-0.15	12.011
12037	CB	818	MPD2	C3	1	0.117	12.011
12038	CB	818	MPD2	C4	1	-0.15	12.011
12039	CB	818	MPD2	C5	1	-0.15	12.011
12040	HCMM	818	MPD2	H	1	0.15	1.0079
12041	HCMM	818	MPD2	H1	1	0.15	1.0079
12042	HCMM	818	MPD2	H2	1	0.15	1.0079
12043	HCMM	818	MPD2	H3	1	0.15	1.0079
12044	NC=O	818	MPD2	N	1	-0.547	14.0067
12045	HNCO	818	MPD2	H5	1	0.37	1.0079
12046	NC=O	818	MPD2	N1	1	-0.547	14.0067
12047	HNCO	818	MPD2	H7	1	0.37	1.0079
12048	CB	819	MPD2	C	1	-0.15	12.011
12049	CB	819	MPD2	C1	1	0.117	12.011
12050	CB	819	MPD2	C2	1	-0.15	12.011
12051	CB	819	MPD2	C3	1	0.117	12.011
12052	CB	819	MPD2	C4	1	-0.15	12.011
12053	CB	819	MPD2	C5	1	-0.15	12.011
12054	HCMM	819	MPD2	H	1	0.15	1.0079
12055	HCMM	819	MPD2	H1	1	0.15	1.0079
12056	HCMM	819	MPD2	H2	1	0.15	1.0079
12057	HCMM	819	MPD2	H3	1	0.15	1.0079
12058	NC=O	819	MPD2	N	1	-0.547	14.0067
12059	HNCO	819	MPD2	H5	1	0.37	1.0079
12060	NC=O	819	MPD2	N1	1	-0.547	14.0067
12061	HNCO	819	MPD2	H7	1	0.37	1.0079
12062	CB	820	MPD2	C	1	-0.15	12.011
12063	CB	820	MPD2	C1	1	0.117	12.011
12064	CB	820	MPD2	C2	1	-0.15	12.011
12065	CB	820	MPD2	C3	1	0.117	12.011
12066	CB	820	MPD2	C4	1	-0.15	12.011
12067	CB	820	MPD2	C5	1	-0.15	12.011
12068	HCMM	820	MPD2	H	1	0.15	1.0079
12069	HCMM	820	MPD2	H1	1	0.15	1.0079
12070	HCMM	820	MPD2	H2	1	0.15	1.0079
12071	HCMM	820	MPD2	H3	1	0.15	1.0079
12072	NC=O	820	MPD2	N	1	-0.547	14.0067
12073	HNCO	820	MPD2	H5	1	0.37	1.0079
12074	NC=O	820	MPD2	N1	1	-0.547	14.0067
12075	HNCO	820	MPD2	H7	1	0.37	1.0079
12076	CB	821	MPD2	C	1	-0.15	12.011
12077	CB	821	MPD2	C1	1	0.117	12.011
12078	CB	821	MPD2	C2	1	-0.15	12.011
12079	CB	821	MPD2	C3	1	0.117	12.011
12080	CB	821	MPD2	C4	1	-0.15	12.011
12081	CB	821	MPD2	C5	1	-0.15	12.011
12082	HCMM	821	MPD2	H	1	0.15	1.0079
12083	HCMM	821	MPD2	H1	1	0.15	1.0079
12084	HCMM	821	MPD2	H2	1	0.15	1.0079
12085	HCMM	821	MPD2	H3	1	0.15	1.0079
12086	NC=O	821	MPD2	N	1	-0.547	14.0067
12087	HNCO	821	MPD2	H5	1	0.37	1.0079
12088	NC=O	821	MPD2	N1	1	-0.547	14.0067
12089	HNCO	821	MPD2	H7	1	0.37	1.0079
12090	CB	822	MPD2	C	1	-0.15	12.011
12091	CB	822	MPD2	C1	1	0.117	12.011
12092	CB	822	MPD2	C2	1	-0.15	12.011
12093	CB	822	MPD2	C3	1	0.117	12.011
12094	CB	822	MPD2	C4	1	-0.15	12.011
12095	CB	822	MPD2	C5	1	-0.15	12.011
12096	HCMM	822	MPD2	H	1	0.15	1.0079
12097	HCMM	822	MPD2	H1	1	0.15	1.0079
12098	HCMM	822	MPD2	H2	1	0.15	1.0079
12099	HCMM	822	MPD2	H3	1	0.15	1.0079
12100	NC=O	822	MPD2	N	1	-0.547	14.0067
12101	HNCO	822	MPD2	H5	1	0.37	1.0079
12102	NC=O	822	MPD2	N1	1	-0.547	14.0067
12103	HNCO	822	MPD2	H7	1	0.37	1.0079
12104	CB	823	MPD2	C	1	-0.15	12.011
12105	CB	823	MPD2	C1	1	0.117	12.011
12106	CB	823	MPD2	C2	1	-0.15	12.011
12107	CB	823	MPD2	C3	1	0.117	12.011
12108	CB	823	MPD2	C4	1	-0.15	12.011
12109	CB	823	MPD2	C5	1	-0.15	12.011
12110	HCMM	823	MPD2	H	1	0.15	1.0079
12111	HCMM	823	MPD2	H1	1	0.15	1.0079
12112	HCMM	823	MPD2	H2	1	0.15	1.0079
12113	HCMM	823	MPD2	H3	1	0.15	1.0079
12114	NC=O	823	MPD2	N	1	-0.547	14.0067
12115	HNCO	823	MPD2	H5	1	0.37	1.0079
12116	NC=O	823	MPD2	N1	1	-0.547	14.0067
12117	HNCO	823	MPD2	H7	1	0.37	1.0079
12118	CB	824	MPD2	C	1	-0.15	12.011
12119	CB	824	MPD2	C1	1	0.117	12.011
12120	CB	824	MPD2	C2	1	-0.15	12.011
12121	CB	824	MPD2	C3	1	0.117	12.011
12122	CB	824	MPD2	C4	1	-0.15	12.011
12123	CB	824	MPD2	C5	1	-0.15	12.011
12124	HCMM	824	MPD2	H	1	0.15	1.0079
12125	HCMM	824	MPD2	H1	1	0.15	1.0079
12126	HCMM	824	MPD2	H2	1	0.15	1.0079
12127	HCMM	824	MPD2	H3	1	0.15	1.0079
12128	NC=O	824	MPD2	N	1	-0.547	14.0067
12129	HNCO	824	MPD2	H5	1	0.37	1.0079
12130	NC=O	824	MPD2	N1	1	-0.547	14.0067
12131	HNCO	824	MPD2	H7	1	0.37	1.0079
12132	CB	825	MPD2	C	1	-0.15	12.011
12133	CB	825	MPD2	C1	1	0.117	12.011
12134	CB	825	MPD2	C2	1	-0.15	12.011
12135	CB	825	MPD2	C3	1	0.117	12.011
12136	CB	825	MPD2	C4	1	-0.15	12.011
12137	CB	825	MPD2	C5	1	-0.15	12.011
12138	HCMM	825	MPD2	H	1	0.15	1.0079
12139	HCMM	825	MPD2	H1	1	0.15	1.0079
12140	HCMM	825	MPD2	H2	1	0.15	1.0079
12141	HCMM	825	MPD2	H3	1	0.15	1.0079
12142	NC=O	825	MPD2	N	1	-0.547	14.0067
12143	HNCO	825	MPD2	H5	1	0.37	1.0079
12144	NC=O	825	MPD2	N1	1	-0.547	14.0067
12145	HNCO	825	MPD2	H7	1	0.37	1.0079
12146	CB	826	MPD2	C	1	-0.15	12.011
12147	CB	826	MPD2	C1	1	0.117	12.011
12148	CB	826	MPD2	C2	1	-0.15	12.011
12149	CB	826	MPD2	C3	1	0.117	12.011
12150	CB	826	MPD2	C4	1	-0.15	12.011
12151	CB	826	MPD2	C5	1	-0.15	12.011
12152	HCMM	826	MPD2	H	1	0.15	1.0079
12153	HCMM	826	MPD2	H1	1	0.15	1.0079
12154	HCMM	826	MPD2	H2	1	0.15	1.0079
12155	HCMM	826	MPD2	H3	1	0.15	1.0079
12156	NC=O	826	MPD2	N	1	-0.547	14.0067
12157	HNCO	826	MPD2	H5	1	0.37	1.0079
12158	NC=O	826	MPD2	N1	1	-0.547	14.0067
12159	HNCO	826	MPD2	H7	1	0.37	1.0079
12160	CB	827	MPD2	C	1	-0.15	12.011
12161	CB	827	MPD2	C1	1	0.117	12.011
12162	CB	827	MPD2	C2	1	-0.15	12.011
12163	CB	827	MPD2	C3	1	0.117	12.011
12164	CB	827	MPD2	C4	1	-0.15	12.011
12165	CB	827	MPD2	C5	1	-0.15	12.011
12166	HCMM	827	MPD2	H	1	0.15	1.0079
12167	HCMM	827	MPD2	H1	1	0.15	1.0079
12168	HCMM	827	MPD2	H2	1	0.15	1.0079
12169	HCMM	827	MPD2	H3	1	0.15	1.0079
12170	NC=O	827	MPD2	N	1	-0.547	14.0067
12171	HNCO	827	MPD2	H5	1	0.37	1.0079
12172	NC=O	827	MPD2	N1	1	-0.547	14.0067
12173	HNCO	827	MPD2	H7	1	0.37	1.0079
12174	CB	828	MPD2	C	1	-0.15	12.011
12175	CB	828	MPD2	C1	1	0.117	12.011
12176	CB	828	MPD2	C2	1	-0.15	12.011
12177	CB	828	MPD2	C3	1	0.117	12.011
12178	CB	828	MPD2	C4	1	-0.15	12.011
12179	CB	828	MPD2	C5	1	-0.15	12.011
12180	HCMM	828	MPD2	H	1	0.15	1.0079
12181	HCMM	828	MPD2	H1	1	0.15	1.0079
12182	HCMM	828	MPD2	H2	1	0.15	1.0079
12183	HCMM	828	MPD2	H3	1	0.15	1.0079
12184	NC=O	828	MPD2	N	1	-0.547	14.0067
12185	HNCO	828	MPD2	H5	1	0.37	1.0079
12186	NC=O	828	MPD2	N1	1	-0.547	14.0067
12187	HNCO	828	MPD2	H7	1	0.37	1.0079
12188	CB	829	MPD2	C	1	-0.15	12.011
12189	CB	829	MPD2	C1	1	0.117	12.011
12190	CB	829	MPD2	C2	1	-0.15	12.011
12191	CB	829	MPD2	C3	1	0.117	12.011
12192	CB	829	MPD2	C4	1	-0.15	12.011
12193	CB	829	MPD2	C5	1	-0.15	12.011
12194	HCMM	829	MPD2	H	1	0.15	1.0079
12195	HCMM	829	MPD2	H1	1	0.15	1.0079
12196	HCMM	829	MPD2	H2	1	0.15	1.0079
12197	HCMM	829	MPD2	H3	1	0.15	1.0079
12198	NC=O	829	MPD2	N	1	-0.547	14.0067
12199	HNCO	829	MPD2	H5	1	0.37	1.0079
12200	NC=O	829	MPD2	N1	1	-0.547	14.0067
12201	HNCO	829	MPD2	H7	1	0.37	1.0079
12202	CB	830	MPD2	C	1	-0.15	12.011
12203	CB	830	MPD2	C1	1	0.117	12.011
12204	CB	830	MPD2	C2	1	-0.15	12.011
12205	CB	830	MPD2	C3	1	0.117	12.011
12206	CB	830	MPD2	C4	1	-0.15	12.011
12207	CB	830	MPD2	C5	1	-0.15	12.011
12208	HCMM	830	MPD2	H	1	0.15	1.0079
12209	HCMM	830	MPD2	H1	1	0.15	1.0079
12210	HCMM	830	MPD2	H2	1	0.15	1.0079
12211	HCMM	830	MPD2	H3	1	0.15	1.0079
12212	NC=O	830	MPD2	N	1	-0.547	14.0067
12213	HNCO	830	MPD2	H5	1	0.37	1.0079
12214	NC=O	830	MPD2	N1	1	-0.547	14.0067
12215	HNCO	830	MPD2	H7	1	0.37	1.0079
12216	CB	831	MPD2	C	1	-0.15	12.011
12217	CB	831	MPD2	C1	1	0.117	12.011
12218	CB	831	MPD2	C2	1	-0.15	12.011
12219	CB	831	MPD2	C3	1	0.117	12.011
12220	CB	831	MPD2	C4	1	-0.15	12.011
12221	CB	831	MPD2	C5	1	-0.15	12.011
12222	HCMM	831	MPD2	H	1	0.15	1.0079
12223	HCMM	831	MPD2	H1	1	0.15	1.0079
12224	HCMM	831	MPD2	H2	1	0.15	1.0079
12225	HCMM	831	MPD2	H3	1	0.15	1.0079
12226	NC=O	831	MPD2	N	1	-0.547	14.0067
12227	HNCO	831	MPD2	H5	1	0.37	1.0079
12228	NC=O	831	MPD2	N1	1	-0.547	14.0067
12229	HNCO	831	MPD2	H7	1	0.37	1.0079
12230	CB	832	MPD2	C	1	-0.15	12.011
12231	CB	832	MPD2	C1	1	0.117	12.011
12232	CB	832	MPD2	C2	1	-0.15	12.011
12233	CB	832	MPD2	C3	1	0.117	12.011
12234	CB	832	MPD2	C4	1	-0.15	12.011
12235	CB	832	MPD2	C5	1	-0.15	12.011
12236	HCMM	832	MPD2	H	1	0.15	1.0079
12237	HCMM	832	MPD2	H1	1	0.15	1.0079
12238	HCMM	832	MPD2	H2	1	0.15	1.0079
12239	HCMM	832	MPD2	H3	1	0.15	1.0079
12240	NC=O	832	MPD2	N	1	-0.547	14.0067
12241	HNCO	832	MPD2	H5	1	0.37	1.0079
12242	NC=O	832	MPD2	N1	1	-0.547	14.0067
12243	HNCO	832	MPD2	H7	1	0.37	1.0079
12244	CB	833	MPD2	C	1	-0.15	12.011
12245	CB	833	MPD2	C1	1	0.117	12.011
12246	CB	833	MPD2	C2	1	-0.15	12.011
12247	CB	833	MPD2	C3	1	0.117	12.011
12248	CB	833	MPD2	C4	1	-0.15	12.011
12249	CB	833	MPD2	C5	1	-0.15	12.011
12250	HCMM	833	MPD2	H	1	0.15	1.0079
12251	HCMM	833	MPD2	H1	1	0.15	1.0079
12252	HCMM	833	MPD2	H2	1	0.15	1.0079
12253	HCMM	833	MPD2	H3	1	0.15	1.0079
12254	NC=O	833	MPD2	N	1	-0.547	14.0067
12255	HNCO	833	MPD2	H5	1	0.37	1.0079
12256	NC=O	833	MPD2	N1	1	-0.547	14.0067
12257	HNCO	833	MPD2	H7	1	0.37	1.0079
12258	CB	834	MPD2	C	1	-0.15	12.011
12259	CB	834	MPD2	C1	1	0.117	12.011
12260	CB	834	MPD2	C2	1	-0.15	12.011
12261	CB	834	MPD2	C3	1	0.117	12.011
12262	CB	834	MPD2	C4	1	-0.15	12.011
12263	CB	834	MPD2	C5	1	-0.15	12.011
12264	HCMM	834	MPD2	H	1	0.15	1.0079
12265	HCMM	834	MPD2	H1	1	0.15	1.0079
12266	HCMM	834	MPD2	H2	1	0.15	1.0079
12267	HCMM	834	MPD2	H3	1	0.15	1.0079
12268	NC=O	834	MPD2	N	1	-0.547	14.0067
12269	HNCO	834	MPD2	H5	1	0.37	1.0079
12270	NC=O	834	MPD2	N1	1	-0.547	14.0067
12271	HNCO	834	MPD2	H7	1	0.37	1.0079
12272	CB	835	MPD2	C	1	-0.15	12.011
12273	CB	835	MPD2	C1	1	0.117	12.011
12274	CB	835	MPD2	C2	1	-0.15	12.011
12275	CB	835	MPD2	C3	1	0.117	12.011
12276	CB	835	MPD2	C4	1	-0.15	12.011
12277	CB	835	MPD2	C5	1	-0.15	12.011
12278	HCMM	835	MPD2	H	1	0.15	1.0079
12279	HCMM	835	MPD2	H1	1	0.15	1.0079
12280	HCMM	835	MPD2	H2	1	0.15	1.0079
12281	HCMM	835	MPD2	H3	1	0.15	1.0079
12282	NC=O	835	MPD2	N	1	-0.547	14.0067
12283	HNCO	835	MPD2	H5	1	0.37	1.0079
12284	NC=O	835	MPD2	N1	1	-0.547	14.0067
12285	HNCO	835	MPD2	H7	1	0.37	1.0079
12286	CB	836	MPD2	C	1	-0.15	12.011
12287	CB	836	MPD2	C1	1	0.117	12.011
12288	CB	836	MPD2	C2	1	-0.15	12.011
12289	CB	836	MPD2	C3	1	0.117	12.011
12290	CB	836	MPD2	C4	1	-0.15	12.011
12291	CB	836	MPD2	C5	1	-0.15	12.011
12292	HCMM	836	MPD2	H	1	0.15	1.0079
12293	HCMM	836	MPD2	H1	1	0.15	1.0079
12294	HCMM	836	MPD2	H2	1	0.15	1.0079
12295	HCMM	836	MPD2	H3	1	0.15	1.0079
12296	NC=O	836	MPD2	N	1	-0.547	14.0067
12297	HNCO	836	MPD2	H5	1	0.37	1.0079
12298	NC=O	836	MPD2	N1	1	-0.547	14.0067
12299	HNCO	836	MPD2	H7	1	0.37	1.0079
12300	CB	837	MPD2	C	1	-0.15	12.011
12301	CB	837	MPD2	C1	1	0.117	12.011
12302	CB	837	MPD2	C2	1	-0.15	12.011
12303	CB	837	MPD2	C3	1	0.117	12.011
12304	CB	837	MPD2	C4	1	-0.15	12.011
12305	CB	837	MPD2	C5	1	-0.15	12.011
12306	HCMM	837	MPD2	H	1	0.15	1.0079
12307	HCMM	837	MPD2	H1	1	0.15	1.0079
12308	HCMM	837	MPD2	H2	1	0.15	1.0079
12309	HCMM	837	MPD2	H3	1	0.15	1.0079
12310	NC=O	837	MPD2	N	1	-0.547	14.0067
12311	HNCO	837	MPD2	H5	1	0.37	1.0079
12312	NC=O	837	MPD2	N1	1	-0.547	14.0067
12313	HNCO	837	MPD2	H7	1	0.37	1.0079
12314	CB	838	MPD2	C	1	-0.15	12.011
12315	CB	838	MPD2	C1	1	0.117	12.011
12316	CB	838	MPD2	C2	1	-0.15	12.011
12317	CB	838	MPD2	C3	1	0.117	12.011
12318	CB	838	MPD2	C4	1	-0.15	12.011
12319	CB	838	MPD2	C5	1	-0.15	12.011
12320	HCMM	838	MPD2	H	1	0.15	1.0079
12321	HCMM	838	MPD2	H1	1	0.15	1.0079
12322	HCMM	838	MPD2	H2	1	0.15	1.0079
12323	HCMM	838	MPD2	H3	1	0.15	1.0079
12324	NC=O	838	MPD2	N	1	-0.547	14.0067
12325	HNCO	838	MPD2	H5	1	0.37	1.0079
12326	NC=O	838	MPD2	N1	1	-0.547	14.0067
12327	HNCO	838	MPD2	H7	1	0.37	1.0079
12328	CB	839	MPD2	C	1	-0.15	12.011
12329	CB	839	MPD2	C1	1	0.117	12.011
12330	CB	839	MPD2	C2	1	-0.15	12.011
12331	CB	839	MPD2	C3	1	0.117	12.011
12332	CB	839	MPD2	C4	1	-0.15	12.011
12333	CB	839	MPD2	C5	1	-0.15	12.011
12334	HCMM	839	MPD2	H	1	0.15	1.0079
12335	HCMM	839	MPD2	H1	1	0.15	1.0079
12336	HCMM	839	MPD2	H2	1	0.15	1.0079
12337	HCMM	839	MPD2	H3	1	0.15	1.0079
12338	NC=O	839	MPD2	N	1	-0.547	14.0067
12339	HNCO	839	MPD2	H5	1	0.37	1.0079
12340	NC=O	839	MPD2	N1	1	-0.547	14.0067
12341	HNCO	839	MPD2	H7	1	0.37	1.0079
12342	CB	840	MPD2	C	1	-0.15	12.011
12343	CB	840	MPD2	C1	1	0.117	12.011
12344	CB	840	MPD2	C2	1	-0.15	12.011
12345	CB	840	MPD2	C3	1	0.117	12.011
12346	CB	840	MPD2	C4	1	-0.15	12.011
12347	CB	840	MPD2	C5	1	-0.15	12.011
12348	HCMM	840	MPD2	H	1	0.15	1.0079
12349	HCMM	840	MPD2	H1	1	0.15	1.0079
12350	HCMM	840	MPD2	H2	1	0.15	1.0079
12351	HCMM	840	MPD2	H3	1	0.15	1.0079
12352	NC=O	840	MPD2	N	1	-0.547	14.0067
12353	HNCO	840	MPD2	H5	1	0.37	1.0079
12354	NC=O	840	MPD2	N1	1	-0.547	14.0067
12355	HNCO	840	MPD2	H7	1	0.37	1.0079
12356	CB	841	MPD2	C	1	-0.15	12.011
12357	CB	841	MPD2	C1	1	0.117	12.011
12358	CB	841	MPD2	C2	1	-0.15	12.011
12359	CB	841	MPD2	C3	1	0.117	12.011
12360	CB	841	MPD2	C4	1	-0.15	12.011
12361	CB	841	MPD2	C5	1	-0.15	12.011
12362	HCMM	841	MPD2	H	1	0.15	1.0079
12363	HCMM	841	MPD2	H1	1	0.15	1.0079
12364	HCMM	841	MPD2	H2	1	0.15	1.0079
12365	HCMM	841	MPD2	H3	1	0.15	1.0079
12366	NC=O	841	MPD2	N	1	-0.547	14.0067
12367	HNCO	841	MPD2	H5	1	0.37	1.0079
12368	NC=O	841	MPD2	N1	1	-0.547	14.0067
12369	HNCO	841	MPD2	H7	1	0.37	1.0079
12370	CB	842	MPD2	C	1	-0.15	12.011
12371	CB	842	MPD2	C1	1	0.117	12.011
12372	CB	842	MPD2	C2	1	-0.15	12.011
12373	CB	842	MPD2	C3	1	0.117	12.011
12374	CB	842	MPD2	C4	1	-0.15	12.011
12375	CB	842	MPD2	C5	1	-0.15	12.011
12376	HCMM	842	MPD2	H	1	0.15	1.0079
12377	HCMM	842	MPD2	H1	1	0.15	1.0079
12378	HCMM	842	MPD2	H2	1	0.15	1.0079
12379	HCMM	842	MPD2	H3	1	0.15	1.0079
12380	NC=O	842	MPD2	N	1	-0.547	14.0067
12381	HNCO	842	MPD2	H5	1	0.37	1.0079
12382	NC=O	842	MPD2	N1	1	-0.547	14.0067
12383	HNCO	842	MPD2	H7	1	0.37	1.0079
12384	CB	843	MPD2	C	1	-0.15	12.011
12385	CB	843	MPD2	C1	1	0.117	12.011
12386	CB	843	MPD2	C2	1	-0.15	12.011
12387	CB	843	MPD2	C3	1	0.117	12.011
12388	CB	843	MPD2	C4	1	-0.15	12.011
12389	CB	843	MPD2	C5	1	-0.15	12.011
12390	HCMM	843	MPD2	H	1	0.15	1.0079
12391	HCMM	843	MPD2	H1	1	0.15	1.0079
12392	HCMM	843	MPD2	H2	1	0.15	1.0079
12393	HCMM	843	MPD2	H3	1	0.15	1.0079
12394	NC=O	843	MPD2	N	1	-0.547	14.0067
12395	HNCO	843	MPD2	H5	1	0.37	1.0079
12396	NC=O	843	MPD2	N1	1	-0.547	14.0067
12397	HNCO	843	MPD2	H7	1	0.37	1.0079
12398	CB	844	MPD2	C	1	-0.15	12.011
12399	CB	844	MPD2	C1	1	0.117	12.011
12400	CB	844	MPD2	C2	1	-0.15	12.011
12401	CB	844	MPD2	C3	1	0.117	12.011
12402	CB	844	MPD2	C4	1	-0.15	12.011
12403	CB	844	MPD2	C5	1	-0.15	12.011
12404	HCMM	844	MPD2	H	1	0.15	1.0079
12405	HCMM	844	MPD2	H1	1	0.15	1.0079
12406	HCMM	844	MPD2	H2	1	0.15	1.0079
12407	HCMM	844	MPD2	H3	1	0.15	1.0079
12408	NC=O	844	MPD2	N	1	-0.547	14.0067
12409	HNCO	844	MPD2	H5	1	0.37	1.0079
12410	NC=O	844	MPD2	N1	1	-0.547	14.0067
12411	HNCO	844	MPD2	H7	1	0.37	1.0079
12412	CB	845	MPD2	C	1	-0.15	12.011
12413	CB	845	MPD2	C1	1	0.117	12.011
12414	CB	845	MPD2	C2	1	-0.15	12.011
12415	CB	845	MPD2	C3	1	0.117	12.011
12416	CB	845	MPD2	C4	1	-0.15	12.011
12417	CB	845	MPD2	C5	1	-0.15	12.011
12418	HCMM	845	MPD2	H	1	0.15	1.0079
12419	HCMM	845	MPD2	H1	1	0.15	1.0079
12420	HCMM	845	MPD2	H2	1	0.15	1.0079
12421	HCMM	845	MPD2	H3	1	0.15	1.0079
12422	NC=O	845	MPD2	N	1	-0.547	14.0067
12423	HNCO	845	MPD2	H5	1	0.37	1.0079
12424	NC=O	845	MPD2	N1	1	-0.547	14.0067
12425	HNCO	845	MPD2	H7	1	0.37	1.0079
12426	CB	846	MPD2	C	1	-0.15	12.011
12427	CB	846	MPD2	C1	1	0.117	12.011
12428	CB	846	MPD2	C2	1	-0.15	12.011
12429	CB	846	MPD2	C3	1	0.117	12.011
12430	CB	846	MPD2	C4	1	-0.15	12.011
12431	CB	846	MPD2	C5	1	-0.15	12.011
12432	HCMM	846	MPD2	H	1	0.15	1.0079
12433	HCMM	846	MPD2	H1	1	0.15	1.0079
12434	HCMM	846	MPD2	H2	1	0.15	1.0079
12435	HCMM	846	MPD2	H3	1	0.15	1.0079
12436	NC=O	846	MPD2	N	1	-0.547	14.0067
12437	HNCO	846	MPD2	H5	1	0.37	1.0079
12438	NC=O	846	MPD2	N1	1	-0.547	14.0067
12439	HNCO	846	MPD2	H7	1	0.37	1.0079
12440	CB	847	MPD2	C	1	-0.15	12.011
12441	CB	847	MPD2	C1	1	0.117	12.011
12442	CB	847	MPD2	C2	1	-0.15	12.011
12443	CB	847	MPD2	C3	1	0.117	12.011
12444	CB	847	MPD2	C4	1	-0.15	12.011
12445	CB	847	MPD2	C5	1	-0.15	12.011
12446	HCMM	847	MPD2	H	1	0.15	1.0079
12447	HCMM	847	MPD2	H1	1	0.15	1.0079
12448	HCMM	847	MPD2	H2	1	0.15	1.0079
12449	HCMM	847	MPD2	H3	1	0.15	1.0079
12450	NC=O	847	MPD2	N	1	-0.547	14.0067
12451	HNCO	847	MPD2	H5	1	0.37	1.0079
12452	NC=O	847	MPD2	N1	1	-0.547	14.0067
12453	HNCO	847	MPD2	H7	1	0.37	1.0079
12454	CB	848	MPD2	C	1	-0.15	12.011
12455	CB	848	MPD2	C1	1	0.117	12.011
12456	CB	848	MPD2	C2	1	-0.15	12.011
12457	CB	848	MPD2	C3	1	0.117	12.011
12458	CB	848	MPD2	C4	1	-0.15	12.011
12459	CB	848	MPD2	C5	1	-0.15	12.011
12460	HCMM	848	MPD2	H	1	0.15	1.0079
12461	HCMM	848	MPD2	H1	1	0.15	1.0079
12462	HCMM	848	MPD2	H2	1	0.15	1.0079
12463	HCMM	848	MPD2	H3	1	0.15	1.0079
12464	NC=O	848	MPD2	N	1	-0.547	14.0067
12465	HNCO	848	MPD2	H5	1	0.37	1.0079
12466	NC=O	848	MPD2	N1	1	-0.547	14.0067
12467	HNCO	848	MPD2	H7	1	0.37	1.0079
12468	CB	849	MPD2	C	1	-0.15	12.011
12469	CB	849	MPD2	C1	1	0.117	12.011
12470	CB	849	MPD2	C2	1	-0.15	12.011
12471	CB	849	MPD2	C3	1	0.117	12.011
12472	CB	849	MPD2	C4	1	-0.15	12.011
12473	CB	849	MPD2	C5	1	-0.15	12.011
12474	HCMM	849	MPD2	H	1	0.15	1.0079
12475	HCMM	849	MPD2	H1	1	0.15	1.0079
12476	HCMM	849	MPD2	H2	1	0.15	1.0079
12477	HCMM	849	MPD2	H3	1	0.15	1.0079
12478	NC=O	849	MPD2	N	1	-0.547	14.0067
12479	HNCO	849	MPD2	H5	1	0.37	1.0079
12480	NC=O	849	MPD2	N1	1	-0.547	14.0067
12481	HNCO	849	MPD2	H7	1	0.37	1.0079
12482	CB	850	MPD2	C	1	-0.15	12.011
12483	CB	850	MPD2	C1	1	0.117	12.011
12484	CB	850	MPD2	C2	1	-0.15	12.011
12485	CB	850	MPD2	C3	1	0.117	12.011
12486	CB	850	MPD2	C4	1	-0.15	12.011
12487	CB	850	MPD2	C5	1	-0.15	12.011
12488	HCMM	850	MPD2	H	1	0.15	1.0079
12489	HCMM	850	MPD2	H1	1	0.15	1.0079
12490	HCMM	850	MPD2	H2	1	0.15	1.0079
12491	HCMM	850	MPD2	H3	1	0.15	1.0079
12492	NC=O	850	MPD2	N	1	-0.547	14.0067
12493	HNCO	850	MPD2	H5	1	0.37	1.0079
12494	NC=O	850	MPD2	N1	1	-0.547	14.0067
12495	HNCO	850	MPD2	H7	1	0.37	1.0079
12496	CB	851	MPD2	C	1	-0.15	12.011
12497	CB	851	MPD2	C1	1	0.117	12.011
12498	CB	851	MPD2	C2	1	-0.15	12.011
12499	CB	851	MPD2	C3	1	0.117	12.011
12500	CB	851	MPD2	C4	1	-0.15	12.011
12501	CB	851	MPD2	C5	1	-0.15	12.011
12502	HCMM	851	MPD2	H	1	0.15	1.0079
12503	HCMM	851	MPD2	H1	1	0.15	1.0079
12504	HCMM	851	MPD2	H2	1	0.15	1.0079
12505	HCMM	851	MPD2	H3	1	0.15	1.0079
12506	NC=O	851	MPD2	N	1	-0.547	14.0067
12507	HNCO	851	MPD2	H5	1	0.37	1.0079
12508	NC=O	851	MPD2	N1	1	-0.547	14.0067
12509	HNCO	851	MPD2	H7	1	0.37	1.0079
12510	CB	852	MPD2	C	1	-0.15	12.011
12511	CB	852	MPD2	C1	1	0.117	12.011
12512	CB	852	MPD2	C2	1	-0.15	12.011
12513	CB	852	MPD2	C3	1	0.117	12.011
12514	CB	852	MPD2	C4	1	-0.15	12.011
12515	CB	852	MPD2	C5	1	-0.15	12.011
12516	HCMM	852	MPD2	H	1	0.15	1.0079
12517	HCMM	852	MPD2	H1	1	0.15	1.0079
12518	HCMM	852	MPD2	H2	1	0.15	1.0079
12519	HCMM	852	MPD2	H3	1	0.15	1.0079
12520	NC=O	852	MPD2	N	1	-0.547	14.0067
12521	HNCO	852	MPD2	H5	1	0.37	1.0079
12522	NC=O	852	MPD2	N1	1	-0.547	14.0067
12523	HNCO	852	MPD2	H7	1	0.37	1.0079
12524	CB	853	MPD2	C	1	-0.15	12.011
12525	CB	853	MPD2	C1	1	0.117	12.011
12526	CB	853	MPD2	C2	1	-0.15	12.011
12527	CB	853	MPD2	C3	1	0.117	12.011
12528	CB	853	MPD2	C4	1	-0.15	12.011
12529	CB	853	MPD2	C5	1	-0.15	12.011
12530	HCMM	853	MPD2	H	1	0.15	1.0079
12531	HCMM	853	MPD2	H1	1	0.15	1.0079
12532	HCMM	853	MPD2	H2	1	0.15	1.0079
12533	HCMM	853	MPD2	H3	1	0.15	1.0079
12534	NC=O	853	MPD2	N	1	-0.547	14.0067
12535	HNCO	853	MPD2	H5	1	0.37	1.0079
12536	NC=O	853	MPD2	N1	1	-0.547	14.0067
12537	HNCO	853	MPD2	H7	1	0.37	1.0079
12538	CB	854	MPD2	C	1	-0.15	12.011
12539	CB	854	MPD2	C1	1	0.117	12.011
12540	CB	854	MPD2	C2	1	-0.15	12.011
12541	CB	854	MPD2	C3	1	0.117	12.011
12542	CB	854	MPD2	C4	1	-0.15	12.011
12543	CB	854	MPD2	C5	1	-0.15	12.011
12544	HCMM	854	MPD2	H	1	0.15	1.0079
12545	HCMM	854	MPD2	H1	1	0.15	1.0079
12546	HCMM	854	MPD2	H2	1	0.15	1.0079
12547	HCMM	854	MPD2	H3	1	0.15	1.0079
12548	NC=O	854	MPD2	N	1	-0.547	14.0067
12549	HNCO	854	MPD2	H5	1	0.37	1.0079
12550	NC=O	854	MPD2	N1	1	-0.547	14.0067
12551	HNCO	854	MPD2	H7	1	0.37	1.0079
12552	CB	855	MPD2	C	1	-0.15	12.011
12553	CB	855	MPD2	C1	1	0.117	12.011
12554	CB	855	MPD2	C2	1	-0.15	12.011
12555	CB	855	MPD2	C3	1	0.117	12.011
12556	CB	855	MPD2	C4	1	-0.15	12.011
12557	CB	855	MPD2	C5	1	-0.15	12.011
12558	HCMM	855	MPD2	H	1	0.15	1.0079
12559	HCMM	855	MPD2	H1	1	0.15	1.0079
12560	HCMM	855	MPD2	H2	1	0.15	1.0079
12561	HCMM	855	MPD2	H3	1	0.15	1.0079
12562	NC=O	855	MPD2	N	1	-0.547	14.0067
12563	HNCO	855	MPD2	H5	1	0.37	1.0079
12564	NC=O	855	MPD2	N1	1	-0.547	14.0067
12565	HNCO	855	MPD2	H7	1	0.37	1.0079
12566	CB	856	MPD2	C	1	-0.15	12.011
12567	CB	856	MPD2	C1	1	0.117	12.011
12568	CB	856	MPD2	C2	1	-0.15	12.011
12569	CB	856	MPD2	C3	1	0.117	12.011
12570	CB	856	MPD2	C4	1	-0.15	12.011
12571	CB	856	MPD2	C5	1	-0.15	12.011
12572	HCMM	856	MPD2	H	1	0.15	1.0079
12573	HCMM	856	MPD2	H1	1	0.15	1.0079
12574	HCMM	856	MPD2	H2	1	0.15	1.0079
12575	HCMM	856	MPD2	H3	1	0.15	1.0079
12576	NC=O	856	MPD2	N	1	-0.547	14.0067
12577	HNCO	856	MPD2	H5	1	0.37	1.0079
12578	NC=O	856	MPD2	N1	1	-0.547	14.0067
12579	HNCO	856	MPD2	H7	1	0.37	1.0079
12580	CB	857	MPD2	C	1	-0.15	12.011
12581	CB	857	MPD2	C1	1	0.117	12.011
12582	CB	857	MPD2	C2	1	-0.15	12.011
12583	CB	857	MPD2	C3	1	0.117	12.011
12584	CB	857	MPD2	C4	1	-0.15	12.011
12585	CB	857	MPD2	C5	1	-0.15	12.011
12586	HCMM	857	MPD2	H	1	0.15	1.0079
12587	HCMM	857	MPD2	H1	1	0.15	1.0079
12588	HCMM	857	MPD2	H2	1	0.15	1.0079
12589	HCMM	857	MPD2	H3	1	0.15	1.0079
12590	NC=O	857	MPD2	N	1	-0.547	14.0067
12591	HNCO	857	MPD2	H5	1	0.37	1.0079
12592	NC=O	857	MPD2	N1	1	-0.547	14.0067
12593	HNCO	857	MPD2	H7	1	0.37	1.0079
12594	CB	858	MPD2	C	1	-0.15	12.011
12595	CB	858	MPD2	C1	1	0.117	12.011
12596	CB	858	MPD2	C2	1	-0.15	12.011
12597	CB	858	MPD2	C3	1	0.117	12.011
12598	CB	858	MPD2	C4	1	-0.15	12.011
12599	CB	858	MPD2	C5	1	-0.15	12.011
12600	HCMM	858	MPD2	H	1	0.15	1.0079
12601	HCMM	858	MPD2	H1	1	0.15	1.0079
12602	HCMM	858	MPD2	H2	1	0.15	1.0079
12603	HCMM	858	MPD2	H3	1	0.15	1.0079
12604	NC=O	858	MPD2	N	1	-0.547	14.0067
12605	HNCO	858	MPD2	H5	1	0.37	1.0079
12606	NC=O	858	MPD2	N1	1	-0.547	14.0067
12607	HNCO	858	MPD2	H7	1	0.37	1.0079
12608	CB	859	MPD2	C	1	-0.15	12.011
12609	CB	859	MPD2	C1	1	0.117	12.011
12610	CB	859	MPD2	C2	1	-0.15	12.011
12611	CB	859	MPD2	C3	1	0.117	12.011
12612	CB	859	MPD2	C4	1	-0.15	12.011
12613	CB	859	MPD2	C5	1	-0.15	12.011
12614	HCMM	859	MPD2	H	1	0.15	1.0079
12615	HCMM	859	MPD2	H1	1	0.15	1.0079
12616	HCMM	859	MPD2	H2	1	0.15	1.0079
12617	HCMM	859	MPD2	H3	1	0.15	1.0079
12618	NC=O	859	MPD2	N	1	-0.547	14.0067
12619	HNCO	859	MPD2	H5	1	0.37	1.0079
12620	NC=O	859	MPD2	N1	1	-0.547	14.0067
12621	HNCO	859	MPD2	H7	1	0.37	1.0079
12622	CB	860	MPD2	C	1	-0.15	12.011
12623	CB	860	MPD2	C1	1	0.117	12.011
12624	CB	860	MPD2	C2	1	-0.15	12.011
12625	CB	860	MPD2	C3	1	0.117	12.011
12626	CB	860	MPD2	C4	1	-0.15	12.011
12627	CB	860	MPD2	C5	1	-0.15	12.011
12628	HCMM	860	MPD2	H	1	0.15	1.0079
12629	HCMM	860	MPD2	H1	1	0.15	1.0079
12630	HCMM	860	MPD2	H2	1	0.15	1.0079
12631	HCMM	860	MPD2	H3	1	0.15	1.0079
12632	NC=O	860	MPD2	N	1	-0.547	14.0067
12633	HNCO	860	MPD2	H5	1	0.37	1.0079
12634	NC=O	860	MPD2	N1	1	-0.547	14.0067
12635	HNCO	860	MPD2	H7	1	0.37	1.0079
12636	CB	861	MPD2	C	1	-0.15	12.011
12637	CB	861	MPD2	C1	1	0.117	12.011
12638	CB	861	MPD2	C2	1	-0.15	12.011
12639	CB	861	MPD2	C3	1	0.117	12.011
12640	CB	861	MPD2	C4	1	-0.15	12.011
12641	CB	861	MPD2	C5	1	-0.15	12.011
12642	HCMM	861	MPD2	H	1	0.15	1.0079
12643	HCMM	861	MPD2	H1	1	0.15	1.0079
12644	HCMM	861	MPD2	H2	1	0.15	1.0079
12645	HCMM	861	MPD2	H3	1	0.15	1.0079
12646	NC=O	861	MPD2	N	1	-0.547	14.0067
12647	HNCO	861	MPD2	H5	1	0.37	1.0079
12648	NC=O	861	MPD2	N1	1	-0.547	14.0067
12649	HNCO	861	MPD2	H7	1	0.37	1.0079
12650	CB	862	MPD2	C	1	-0.15	12.011
12651	CB	862	MPD2	C1	1	0.117	12.011
12652	CB	862	MPD2	C2	1	-0.15	12.011
12653	CB	862	MPD2	C3	1	0.117	12.011
12654	CB	862	MPD2	C4	1	-0.15	12.011
12655	CB	862	MPD2	C5	1	-0.15	12.011
12656	HCMM	862	MPD2	H	1	0.15	1.0079
12657	HCMM	862	MPD2	H1	1	0.15	1.0079
12658	HCMM	862	MPD2	H2	1	0.15	1.0079
12659	HCMM	862	MPD2	H3	1	0.15	1.0079
12660	NC=O	862	MPD2	N	1	-0.547	14.0067
12661	HNCO	862	MPD2	H5	1	0.37	1.0079
12662	NC=O	862	MPD2	N1	1	-0.547	14.0067
12663	HNCO	862	MPD2	H7	1	0.37	1.0079
12664	CB	863	MPD2	C	1	-0.15	12.011
12665	CB	863	MPD2	C1	1	0.117	12.011
12666	CB	863	MPD2	C2	1	-0.15	12.011
12667	CB	863	MPD2	C3	1	0.117	12.011
12668	CB	863	MPD2	C4	1	-0.15	12.011
12669	CB	863	MPD2	C5	1	-0.15	12.011
12670	HCMM	863	MPD2	H	1	0.15	1.0079
12671	HCMM	863	MPD2	H1	1	0.15	1.0079
12672	HCMM	863	MPD2	H2	1	0.15	1.0079
12673	HCMM	863	MPD2	H3	1	0.15	1.0079
12674	NC=O	863	MPD2	N	1	-0.547	14.0067
12675	HNCO	863	MPD2	H5	1	0.37	1.0079
12676	NC=O	863	MPD2	N1	1	-0.547	14.0067
12677	HNCO	863	MPD2	H7	1	0.37	1.0079
12678	CB	864	MPD2	C	1	-0.15	12.011
12679	CB	864	MPD2	C1	1	0.117	12.011
12680	CB	864	MPD2	C2	1	-0.15	12.011
12681	CB	864	MPD2	C3	1	0.117	12.011
12682	CB	864	MPD2	C4	1	-0.15	12.011
12683	CB	864	MPD2	C5	1	-0.15	12.011
12684	HCMM	864	MPD2	H	1	0.15	1.0079
12685	HCMM	864	MPD2	H1	1	0.15	1.0079
12686	HCMM	864	MPD2	H2	1	0.15	1.0079
12687	HCMM	864	MPD2	H3	1	0.15	1.0079
12688	NC=O	864	MPD2	N	1	-0.547	14.0067
12689	HNCO	864	MPD2	H5	1	0.37	1.0079
12690	NC=O	864	MPD2	N1	1	-0.547	14.0067
12691	HNCO	864	MPD2	H7	1	0.37	1.0079
12692	CB	865	MPD2	C	1	-0.15	12.011
12693	CB	865	MPD2	C1	1	0.117	12.011
12694	CB	865	MPD2	C2	1	-0.15	12.011
12695	CB	865	MPD2	C3	1	0.117	12.011
12696	CB	865	MPD2	C4	1	-0.15	12.011
12697	CB	865	MPD2	C5	1	-0.15	12.011
12698	HCMM	865	MPD2	H	1	0.15	1.0079
12699	HCMM	865	MPD2	H1	1	0.15	1.0079
12700	HCMM	865	MPD2	H2	1	0.15	1.0079
12701	HCMM	865	MPD2	H3	1	0.15	1.0079
12702	NC=O	865	MPD2	N	1	-0.547	14.0067
12703	HNCO	865	MPD2	H5	1	0.37	1.0079
12704	NC=O	865	MPD2	N1	1	-0.547	14.0067
12705	HNCO	865	MPD2	H7	1	0.37	1.0079
12706	CB	866	MPD2	C	1	-0.15	12.011
12707	CB	866	MPD2	C1	1	0.117	12.011
12708	CB	866	MPD2	C2	1	-0.15	12.011
12709	CB	866	MPD2	C3	1	0.117	12.011
12710	CB	866	MPD2	C4	1	-0.15	12.011
12711	CB	866	MPD2	C5	1	-0.15	12.011
12712	HCMM	866	MPD2	H	1	0.15	1.0079
12713	HCMM	866	MPD2	H1	1	0.15	1.0079
12714	HCMM	866	MPD2	H2	1	0.15	1.0079
12715	HCMM	866	MPD2	H3	1	0.15	1.0079
12716	NC=O	866	MPD2	N	1	-0.547	14.0067
12717	HNCO	866	MPD2	H5	1	0.37	1.0079
12718	NC=O	866	MPD2	N1	1	-0.547	14.0067
12719	HNCO	866	MPD2	H7	1	0.37	1.0079
12720	CB	867	MPD2	C	1	-0.15	12.011
12721	CB	867	MPD2	C1	1	0.117	12.011
12722	CB	867	MPD2	C2	1	-0.15	12.011
12723	CB	867	MPD2	C3	1	0.117	12.011
12724	CB	867	MPD2	C4	1	-0.15	12.011
12725	CB	867	MPD2	C5	1	-0.15	12.011
12726	HCMM	867	MPD2	H	1	0.15	1.0079
12727	HCMM	867	MPD2	H1	1	0.15	1.0079
12728	HCMM	867	MPD2	H2	1	0.15	1.0079
12729	HCMM	867	MPD2	H3	1	0.15	1.0079
12730	NC=O	867	MPD2	N	1	-0.547	14.0067
12731	HNCO	867	MPD2	H5	1	0.37	1.0079
12732	NC=O	867	MPD2	N1	1	-0.547	14.0067
12733	HNCO	867	MPD2	H7	1	0.37	1.0079
12734	CB	868	MPD2	C	1	-0.15	12.011
12735	CB	868	MPD2	C1	1	0.117	12.011
12736	CB	868	MPD2	C2	1	-0.15	12.011
12737	CB	868	MPD2	C3	1	0.117	12.011
12738	CB	868	MPD2	C4	1	-0.15	12.011
12739	CB	868	MPD2	C5	1	-0.15	12.011
12740	HCMM	868	MPD2	H	1	0.15	1.0079
12741	HCMM	868	MPD2	H1	1	0.15	1.0079
12742	HCMM	868	MPD2	H2	1	0.15	1.0079
12743	HCMM	868	MPD2	H3	1	0.15	1.0079
12744	NC=O	868	MPD2	N	1	-0.547	14.0067
12745	HNCO	868	MPD2	H5	1	0.37	1.0079
12746	NC=O	868	MPD2	N1	1	-0.547	14.0067
12747	HNCO	868	MPD2	H7	1	0.37	1.0079
12748	CB	869	MPD2	C	1	-0.15	12.011
12749	CB	869	MPD2	C1	1	0.117	12.011
12750	CB	869	MPD2	C2	1	-0.15	12.011
12751	CB	869	MPD2	C3	1	0.117	12.011
12752	CB	869	MPD2	C4	1	-0.15	12.011
12753	CB	869	MPD2	C5	1	-0.15	12.011
12754	HCMM	869	MPD2	H	1	0.15	1.0079
12755	HCMM	869	MPD2	H1	1	0.15	1.0079
12756	HCMM	869	MPD2	H2	1	0.15	1.0079
12757	HCMM	869	MPD2	H3	1	0.15	1.0079
12758	NC=O	869	MPD2	N	1	-0.547	14.0067
12759	HNCO	869	MPD2	H5	1	0.37	1.0079
12760	NC=O	869	MPD2	N1	1	-0.547	14.0067
12761	HNCO	869	MPD2	H7	1	0.37	1.0079
12762	CB	870	MPD2	C	1	-0.15	12.011
12763	CB	870	MPD2	C1	1	0.117	12.011
12764	CB	870	MPD2	C2	1	-0.15	12.011
12765	CB	870	MPD2	C3	1	0.117	12.011
12766	CB	870	MPD2	C4	1	-0.15	12.011
12767	CB	870	MPD2	C5	1	-0.15	12.011
12768	HCMM	870	MPD2	H	1	0.15	1.0079
12769	HCMM	870	MPD2	H1	1	0.15	1.0079
12770	HCMM	870	MPD2	H2	1	0.15	1.0079
12771	HCMM	870	MPD2	H3	1	0.15	1.0079
12772	NC=O	870	MPD2	N	1	-0.547	14.0067
12773	HNCO	870	MPD2	H5	1	0.37	1.0079
12774	NC=O	870	MPD2	N1	1	-0.547	14.0067
12775	HNCO	870	MPD2	H7	1	0.37	1.0079
12776	CB	871	MPD2	C	1	-0.15	12.011
12777	CB	871	MPD2	C1	1	0.117	12.011
12778	CB	871	MPD2	C2	1	-0.15	12.011
12779	CB	871	MPD2	C3	1	0.117	12.011
12780	CB	871	MPD2	C4	1	-0.15	12.011
12781	CB	871	MPD2	C5	1	-0.15	12.011
12782	HCMM	871	MPD2	H	1	0.15	1.0079
12783	HCMM	871	MPD2	H1	1	0.15	1.0079
12784	HCMM	871	MPD2	H2	1	0.15	1.0079
12785	HCMM	871	MPD2	H3	1	0.15	1.0079
12786	NC=O	871	MPD2	N	1	-0.547	14.0067
12787	HNCO	871	MPD2	H5	1	0.37	1.0079
12788	NC=O	871	MPD2	N1	1	-0.547	14.0067
12789	HNCO	871	MPD2	H7	1	0.37	1.0079
12790	CB	872	MPD2	C	1	-0.15	12.011
12791	CB	872	MPD2	C1	1	0.117	12.011
12792	CB	872	MPD2	C2	1	-0.15	12.011
12793	CB	872	MPD2	C3	1	0.117	12.011
12794	CB	872	MPD2	C4	1	-0.15	12.011
12795	CB	872	MPD2	C5	1	-0.15	12.011
12796	HCMM	872	MPD2	H	1	0.15	1.0079
12797	HCMM	872	MPD2	H1	1	0.15	1.0079
12798	HCMM	872	MPD2	H2	1	0.15	1.0079
12799	HCMM	872	MPD2	H3	1	0.15	1.0079
12800	NC=O	872	MPD2	N	1	-0.547	14.0067
12801	HNCO	872	MPD2	H5	1	0.37	1.0079
12802	NC=O	872	MPD2	N1	1	-0.547	14.0067
12803	HNCO	872	MPD2	H7	1	0.37	1.0079
12804	CB	873	MPD2	C	1	-0.15	12.011
12805	CB	873	MPD2	C1	1	0.117	12.011
12806	CB	873	MPD2	C2	1	-0.15	12.011
12807	CB	873	MPD2	C3	1	0.117	12.011
12808	CB	873	MPD2	C4	1	-0.15	12.011
12809	CB	873	MPD2	C5	1	-0.15	12.011
12810	HCMM	873	MPD2	H	1	0.15	1.0079
12811	HCMM	873	MPD2	H1	1	0.15	1.0079
12812	HCMM	873	MPD2	H2	1	0.15	1.0079
12813	HCMM	873	MPD2	H3	1	0.15	1.0079
12814	NC=O	873	MPD2	N	1	-0.547	14.0067
12815	HNCO	873	MPD2	H5	1	0.37	1.0079
12816	NC=O	873	MPD2	N1	1	-0.547	14.0067
12817	HNCO	873	MPD2	H7	1	0.37	1.0079
12818	CB	874	MPD2	C	1	-0.15	12.011
12819	CB	874	MPD2	C1	1	0.117	12.011
12820	CB	874	MPD2	C2	1	-0.15	12.011
12821	CB	874	MPD2	C3	1	0.117	12.011
12822	CB	874	MPD2	C4	1	-0.15	12.011
12823	CB	874	MPD2	C5	1	-0.15	12.011
12824	HCMM	874	MPD2	H	1	0.15	1.0079
12825	HCMM	874	MPD2	H1	1	0.15	1.0079
12826	HCMM	874	MPD2	H2	1	0.15	1.0079
12827	HCMM	874	MPD2	H3	1	0.15	1.0079
12828	NC=O	874	MPD2	N	1	-0.547	14.0067
12829	HNCO	874	MPD2	H5	1	0.37	1.0079
12830	NC=O	874	MPD2	N1	1	-0.547	14.0067
12831	HNCO	874	MPD2	H7	1	0.37	1.0079
12832	CB	875	MPD2	C	1	-0.15	12.011
12833	CB	875	MPD2	C1	1	0.117	12.011
12834	CB	875	MPD2	C2	1	-0.15	12.011
12835	CB	875	MPD2	C3	1	0.117	12.011
12836	CB	875	MPD2	C4	1	-0.15	12.011
12837	CB	875	MPD2	C5	1	-0.15	12.011
12838	HCMM	875	MPD2	H	1	0.15	1.0079
12839	HCMM	875	MPD2	H1	1	0.15	1.0079
12840	HCMM	875	MPD2	H2	1	0.15	1.0079
12841	HCMM	875	MPD2	H3	1	0.15	1.0079
12842	NC=O	875	MPD2	N	1	-0.547	14.0067
12843	HNCO	875	MPD2	H5	1	0.37	1.0079
12844	NC=O	875	MPD2	N1	1	-0.547	14.0067
12845	HNCO	875	MPD2	H7	1	0.37	1.0079
12846	CB	876	MPD2	C	1	-0.15	12.011
12847	CB	876	MPD2	C1	1	0.117	12.011
12848	CB	876	MPD2	C2	1	-0.15	12.011
12849	CB	876	MPD2	C3	1	0.117	12.011
12850	CB	876	MPD2	C4	1	-0.15	12.011
12851	CB	876	MPD2	C5	1	-0.15	12.011
12852	HCMM	876	MPD2	H	1	0.15	1.0079
12853	HCMM	876	MPD2	H1	1	0.15	1.0079
12854	HCMM	876	MPD2	H2	1	0.15	1.0079
12855	HCMM	876	MPD2	H3	1	0.15	1.0079
12856	NC=O	876	MPD2	N	1	-0.547	14.0067
12857	HNCO	876	MPD2	H5	1	0.37	1.0079
12858	NC=O	876	MPD2	N1	1	-0.547	14.0067
12859	HNCO	876	MPD2	H7	1	0.37	1.0079
12860	CB	877	MPD2	C	1	-0.15	12.011
12861	CB	877	MPD2	C1	1	0.117	12.011
12862	CB	877	MPD2	C2	1	-0.15	12.011
12863	CB	877	MPD2	C3	1	0.117	12.011
12864	CB	877	MPD2	C4	1	-0.15	12.011
12865	CB	877	MPD2	C5	1	-0.15	12.011
12866	HCMM	877	MPD2	H	1	0.15	1.0079
12867	HCMM	877	MPD2	H1	1	0.15	1.0079
12868	HCMM	877	MPD2	H2	1	0.15	1.0079
12869	HCMM	877	MPD2	H3	1	0.15	1.0079
12870	NC=O	877	MPD2	N	1	-0.547	14.0067
12871	HNCO	877	MPD2	H5	1	0.37	1.0079
12872	NC=O	877	MPD2	N1	1	-0.547	14.0067
12873	HNCO	877	MPD2	H7	1	0.37	1.0079
12874	CB	878	MPD2	C	1	-0.15	12.011
12875	CB	878	MPD2	C1	1	0.117	12.011
12876	CB	878	MPD2	C2	1	-0.15	12.011
12877	CB	878	MPD2	C3	1	0.117	12.011
12878	CB	878	MPD2	C4	1	-0.15	12.011
12879	CB	878	MPD2	C5	1	-0.15	12.011
12880	HCMM	878	MPD2	H	1	0.15	1.0079
12881	HCMM	878	MPD2	H1	1	0.15	1.0079
12882	HCMM	878	MPD2	H2	1	0.15	1.0079
12883	HCMM	878	MPD2	H3	1	0.15	1.0079
12884	NC=O	878	MPD2	N	1	-0.547	14.0067
12885	HNCO	878	MPD2	H5	1	0.37	1.0079
12886	NC=O	878	MPD2	N1	1	-0.547	14.0067
12887	HNCO	878	MPD2	H7	1	0.37	1.0079
12888	CB	879	MPD2	C	1	-0.15	12.011
12889	CB	879	MPD2	C1	1	0.117	12.011
12890	CB	879	MPD2	C2	1	-0.15	12.011
12891	CB	879	MPD2	C3	1	0.117	12.011
12892	CB	879	MPD2	C4	1	-0.15	12.011
12893	CB	879	MPD2	C5	1	-0.15	12.011
12894	HCMM	879	MPD2	H	1	0.15	1.0079
12895	HCMM	879	MPD2	H1	1	0.15	1.0079
12896	HCMM	879	MPD2	H2	1	0.15	1.0079
12897	HCMM	879	MPD2	H3	1	0.15	1.0079
12898	NC=O	879	MPD2	N	1	-0.547	14.0067
12899	HNCO	879	MPD2	H5	1	0.37	1.0079
12900	NC=O	879	MPD2	N1	1	-0.547	14.0067
12901	HNCO	879	MPD2	H7	1	0.37	1.0079
12902	CB	880	MPD2	C	1	-0.15	12.011
12903	CB	880	MPD2	C1	1	0.117	12.011
12904	CB	880	MPD2	C2	1	-0.15	12.011
12905	CB	880	MPD2	C3	1	0.117	12.011
12906	CB	880	MPD2	C4	1	-0.15	12.011
12907	CB	880	MPD2	C5	1	-0.15	12.011
12908	HCMM	880	MPD2	H	1	0.15	1.0079
12909	HCMM	880	MPD2	H1	1	0.15	1.0079
12910	HCMM	880	MPD2	H2	1	0.15	1.0079
12911	HCMM	880	MPD2	H3	1	0.15	1.0079
12912	NC=O	880	MPD2	N	1	-0.547	14.0067
12913	HNCO	880	MPD2	H5	1	0.37	1.0079
12914	NC=O	880	MPD2	N1	1	-0.547	14.0067
12915	HNCO	880	MPD2	H7	1	0.37	1.0079
12916	CB	881	MPD2	C	1	-0.15	12.011
12917	CB	881	MPD2	C1	1	0.117	12.011
12918	CB	881	MPD2	C2	1	-0.15	12.011
12919	CB	881	MPD2	C3	1	0.117	12.011
12920	CB	881	MPD2	C4	1	-0.15	12.011
12921	CB	881	MPD2	C5	1	-0.15	12.011
12922	HCMM	881	MPD2	H	1	0.15	1.0079
12923	HCMM	881	MPD2	H1	1	0.15	1.0079
12924	HCMM	881	MPD2	H2	1	0.15	1.0079
12925	HCMM	881	MPD2	H3	1	0.15	1.0079
12926	NC=O	881	MPD2	N	1	-0.547	14.0067
12927	HNCO	881	MPD2	H5	1	0.37	1.0079
12928	NC=O	881	MPD2	N1	1	-0.547	14.0067
12929	HNCO	881	MPD2	H7	1	0.37	1.0079
12930	CB	882	MPD2	C	1	-0.15	12.011
12931	CB	882	MPD2	C1	1	0.117	12.011
12932	CB	882	MPD2	C2	1	-0.15	12.011
12933	CB	882	MPD2	C3	1	0.117	12.011
12934	CB	882	MPD2	C4	1	-0.15	12.011
12935	CB	882	MPD2	C5	1	-0.15	12.011
12936	HCMM	882	MPD2	H	1	0.15	1.0079
12937	HCMM	882	MPD2	H1	1	0.15	1.0079
12938	HCMM	882	MPD2	H2	1	0.15	1.0079
12939	HCMM	882	MPD2	H3	1	0.15	1.0079
12940	NC=O	882	MPD2	N	1	-0.547	14.0067
12941	HNCO	882	MPD2	H5	1	0.37	1.0079
12942	NC=O	882	MPD2	N1	1	-0.547	14.0067
12943	HNCO	882	MPD2	H7	1	0.37	1.0079
12944	CB	883	MPD2	C	1	-0.15	12.011
12945	CB	883	MPD2	C1	1	0.117	12.011
12946	CB	883	MPD2	C2	1	-0.15	12.011
12947	CB	883	MPD2	C3	1	0.117	12.011
12948	CB	883	MPD2	C4	1	-0.15	12.011
12949	CB	883	MPD2	C5	1	-0.15	12.011
12950	HCMM	883	MPD2	H	1	0.15	1.0079
12951	HCMM	883	MPD2	H1	1	0.15	1.0079
12952	HCMM	883	MPD2	H2	1	0.15	1.0079
12953	HCMM	883	MPD2	H3	1	0.15	1.0079
12954	NC=O	883	MPD2	N	1	-0.547	14.0067
12955	HNCO	883	MPD2	H5	1	0.37	1.0079
12956	NC=O	883	MPD2	N1	1	-0.547	14.0067
12957	HNCO	883	MPD2	H7	1	0.37	1.0079
12958	CB	884	MPD2	C	1	-0.15	12.011
12959	CB	884	MPD2	C1	1	0.117	12.011
12960	CB	884	MPD2	C2	1	-0.15	12.011
12961	CB	884	MPD2	C3	1	0.117	12.011
12962	CB	884	MPD2	C4	1	-0.15	12.011
12963	CB	884	MPD2	C5	1	-0.15	12.011
12964	HCMM	884	MPD2	H	1	0.15	1.0079
12965	HCMM	884	MPD2	H1	1	0.15	1.0079
12966	HCMM	884	MPD2	H2	1	0.15	1.0079
12967	HCMM	884	MPD2	H3	1	0.15	1.0079
12968	NC=O	884	MPD2	N	1	-0.547	14.0067
12969	HNCO	884	MPD2	H5	1	0.37	1.0079
12970	NC=O	884	MPD2	N1	1	-0.547	14.0067
12971	HNCO	884	MPD2	H7	1	0.37	1.0079
12972	CB	885	MPD2	C	1	-0.15	12.011
12973	CB	885	MPD2	C1	1	0.117	12.011
12974	CB	885	MPD2	C2	1	-0.15	12.011
12975	CB	885	MPD2	C3	1	0.117	12.011
12976	CB	885	MPD2	C4	1	-0.15	12.011
12977	CB	885	MPD2	C5	1	-0.15	12.011
12978	HCMM	885	MPD2	H	1	0.15	1.0079
12979	HCMM	885	MPD2	H1	1	0.15	1.0079
12980	HCMM	885	MPD2	H2	1	0.15	1.0079
12981	HCMM	885	MPD2	H3	1	0.15	1.0079
12982	NC=O	885	MPD2	N	1	-0.547	14.0067
12983	HNCO	885	MPD2	H5	1	0.37	1.0079
12984	NC=O	885	MPD2	N1	1	-0.547	14.0067
12985	HNCO	885	MPD2	H7	1	0.37	1.0079
12986	CB	886	MPD2	C	1	-0.15	12.011
12987	CB	886	MPD2	C1	1	0.117	12.011
12988	CB	886	MPD2	C2	1	-0.15	12.011
12989	CB	886	MPD2	C3	1	0.117	12.011
12990	CB	886	MPD2	C4	1	-0.15	12.011
12991	CB	886	MPD2	C5	1	-0.15	12.011
12992	HCMM	886	MPD2	H	1	0.15	1.0079
12993	HCMM	886	MPD2	H1	1	0.15	1.0079
12994	HCMM	886	MPD2	H2	1	0.15	1.0079
12995	HCMM	886	MPD2	H3	1	0.15	1.0079
12996	NC=O	886	MPD2	N	1	-0.547	14.0067
12997	HNCO	886	MPD2	H5	1	0.37	1.0079
12998	NC=O	886	MPD2	N1	1	-0.547	14.0067
12999	HNCO	886	MPD2	H7	1	0.37	1.0079
13000	CB	887	MPD2	C	1	-0.15	12.011
13001	CB	887	MPD2	C1	1	0.117	12.011
13002	CB	887	MPD2	C2	1	-0.15	12.011
13003	CB	887	MPD2	C3	1	0.117	12.011
13004	CB	887	MPD2	C4	1	-0.15	12.011
13005	CB	887	MPD2	C5	1	-0.15	12.011
13006	HCMM	887	MPD2	H	1	0.15	1.0079
13007	HCMM	887	MPD2	H1	1	0.15	1.0079
13008	HCMM	887	MPD2	H2	1	0.15	1.0079
13009	HCMM	887	MPD2	H3	1	0.15	1.0079
13010	NC=O	887	MPD2	N	1	-0.547	14.0067
13011	HNCO	887	MPD2	H5	1	0.37	1.0079
13012	NC=O	887	MPD2	N1	1	-0.547	14.0067
13013	HNCO	887	MPD2	H7	1	0.37	1.0079
13014	CB	888	MPD2	C	1	-0.15	12.011
13015	CB	888	MPD2	C1	1	0.117	12.011
13016	CB	888	MPD2	C2	1	-0.15	12.011
13017	CB	888	MPD2	C3	1	0.117	12.011
13018	CB	888	MPD2	C4	1	-0.15	12.011
13019	CB	888	MPD2	C5	1	-0.15	12.011
13020	HCMM	888	MPD2	H	1	0.15	1.0079
13021	HCMM	888	MPD2	H1	1	0.15	1.0079
13022	HCMM	888	MPD2	H2	1	0.15	1.0079
13023	HCMM	888	MPD2	H3	1	0.15	1.0079
13024	NC=O	888	MPD2	N	1	-0.547	14.0067
13025	HNCO	888	MPD2	H5	1	0.37	1.0079
13026	NC=O	888	MPD2	N1	1	-0.547	14.0067
13027	HNCO	888	MPD2	H7	1	0.37	1.0079
13028	CB	889	MPD2	C	1	-0.15	12.011
13029	CB	889	MPD2	C1	1	0.117	12.011
13030	CB	889	MPD2	C2	1	-0.15	12.011
13031	CB	889	MPD2	C3	1	0.117	12.011
13032	CB	889	MPD2	C4	1	-0.15	12.011
13033	CB	889	MPD2	C5	1	-0.15	12.011
13034	HCMM	889	MPD2	H	1	0.15	1.0079
13035	HCMM	889	MPD2	H1	1	0.15	1.0079
13036	HCMM	889	MPD2	H2	1	0.15	1.0079
13037	HCMM	889	MPD2	H3	1	0.15	1.0079
13038	NC=O	889	MPD2	N	1	-0.547	14.0067
13039	HNCO	889	MPD2	H5	1	0.37	1.0079
13040	NC=O	889	MPD2	N1	1	-0.547	14.0067
13041	HNCO	889	MPD2	H7	1	0.37	1.0079
13042	CB	890	MPD2	C	1	-0.15	12.011
13043	CB	890	MPD2	C1	1	0.117	12.011
13044	CB	890	MPD2	C2	1	-0.15	12.011
13045	CB	890	MPD2	C3	1	0.117	12.011
13046	CB	890	MPD2	C4	1	-0.15	12.011
13047	CB	890	MPD2	C5	1	-0.15	12.011
13048	HCMM	890	MPD2	H	1	0.15	1.0079
13049	HCMM	890	MPD2	H1	1	0.15	1.0079
13050	HCMM	890	MPD2	H2	1	0.15	1.0079
13051	HCMM	890	MPD2	H3	1	0.15	1.0079
13052	NC=O	890	MPD2	N	1	-0.547	14.0067
13053	HNCO	890	MPD2	H5	1	0.37	1.0079
13054	NC=O	890	MPD2	N1	1	-0.547	14.0067
13055	HNCO	890	MPD2	H7	1	0.37	1.0079
13056	CB	891	MPD2	C	1	-0.15	12.011
13057	CB	891	MPD2	C1	1	0.117	12.011
13058	CB	891	MPD2	C2	1	-0.15	12.011
13059	CB	891	MPD2	C3	1	0.117	12.011
13060	CB	891	MPD2	C4	1	-0.15	12.011
13061	CB	891	MPD2	C5	1	-0.15	12.011
13062	HCMM	891	MPD2	H	1	0.15	1.0079
13063	HCMM	891	MPD2	H1	1	0.15	1.0079
13064	HCMM	891	MPD2	H2	1	0.15	1.0079
13065	HCMM	891	MPD2	H3	1	0.15	1.0079
13066	NC=O	891	MPD2	N	1	-0.547	14.0067
13067	HNCO	891	MPD2	H5	1	0.37	1.0079
13068	NC=O	891	MPD2	N1	1	-0.547	14.0067
13069	HNCO	891	MPD2	H7	1	0.37	1.0079
13070	CB	892	MPD2	C	1	-0.15	12.011
13071	CB	892	MPD2	C1	1	0.117	12.011
13072	CB	892	MPD2	C2	1	-0.15	12.011
13073	CB	892	MPD2	C3	1	0.117	12.011
13074	CB	892	MPD2	C4	1	-0.15	12.011
13075	CB	892	MPD2	C5	1	-0.15	12.011
13076	HCMM	892	MPD2	H	1	0.15	1.0079
13077	HCMM	892	MPD2	H1	1	0.15	1.0079
13078	HCMM	892	MPD2	H2	1	0.15	1.0079
13079	HCMM	892	MPD2	H3	1	0.15	1.0079
13080	NC=O	892	MPD2	N	1	-0.547	14.0067
13081	HNCO	892	MPD2	H5	1	0.37	1.0079
13082	NC=O	892	MPD2	N1	1	-0.547	14.0067
13083	HNCO	892	MPD2	H7	1	0.37	1.0079
13084	CB	893	MPD2	C	1	-0.15	12.011
13085	CB	893	MPD2	C1	1	0.117	12.011
13086	CB	893	MPD2	C2	1	-0.15	12.011
13087	CB	893	MPD2	C3	1	0.117	12.011
13088	CB	893	MPD2	C4	1	-0.15	12.011
13089	CB	893	MPD2	C5	1	-0.15	12.011
13090	HCMM	893	MPD2	H	1	0.15	1.0079
13091	HCMM	893	MPD2	H1	1	0.15	1.0079
13092	HCMM	893	MPD2	H2	1	0.15	1.0079
13093	HCMM	893	MPD2	H3	1	0.15	1.0079
13094	NC=O	893	MPD2	N	1	-0.547	14.0067
13095	HNCO	893	MPD2	H5	1	0.37	1.0079
13096	NC=O	893	MPD2	N1	1	-0.547	14.0067
13097	HNCO	893	MPD2	H7	1	0.37	1.0079
13098	CB	894	MPD2	C	1	-0.15	12.011
13099	CB	894	MPD2	C1	1	0.117	12.011
13100	CB	894	MPD2	C2	1	-0.15	12.011
13101	CB	894	MPD2	C3	1	0.117	12.011
13102	CB	894	MPD2	C4	1	-0.15	12.011
13103	CB	894	MPD2	C5	1	-0.15	12.011
13104	HCMM	894	MPD2	H	1	0.15	1.0079
13105	HCMM	894	MPD2	H1	1	0.15	1.0079
13106	HCMM	894	MPD2	H2	1	0.15	1.0079
13107	HCMM	894	MPD2	H3	1	0.15	1.0079
13108	NC=O	894	MPD2	N	1	-0.547	14.0067
13109	HNCO	894	MPD2	H5	1	0.37	1.0079
13110	NC=O	894	MPD2	N1	1	-0.547	14.0067
13111	HNCO	894	MPD2	H7	1	0.37	1.0079
13112	CB	895	MPD2	C	1	-0.15	12.011
13113	CB	895	MPD2	C1	1	0.117	12.011
13114	CB	895	MPD2	C2	1	-0.15	12.011
13115	CB	895	MPD2	C3	1	0.117	12.011
13116	CB	895	MPD2	C4	1	-0.15	12.011
13117	CB	895	MPD2	C5	1	-0.15	12.011
13118	HCMM	895	MPD2	H	1	0.15	1.0079
13119	HCMM	895	MPD2	H1	1	0.15	1.0079
13120	HCMM	895	MPD2	H2	1	0.15	1.0079
13121	HCMM	895	MPD2	H3	1	0.15	1.0079
13122	NC=O	895	MPD2	N	1	-0.547	14.0067
13123	HNCO	895	MPD2	H5	1	0.37	1.0079
13124	NC=O	895	MPD2	N1	1	-0.547	14.0067
13125	HNCO	895	MPD2	H7	1	0.37	1.0079
13126	CB	896	MPD2	C	1	-0.15	12.011
13127	CB	896	MPD2	C1	1	0.117	12.011
13128	CB	896	MPD2	C2	1	-0.15	12.011
13129	CB	896	MPD2	C3	1	0.117	12.011
13130	CB	896	MPD2	C4	1	-0.15	12.011
13131	CB	896	MPD2	C5	1	-0.15	12.011
13132	HCMM	896	MPD2	H	1	0.15	1.0079
13133	HCMM	896	MPD2	H1	1	0.15	1.0079
13134	HCMM	896	MPD2	H2	1	0.15	1.0079
13135	HCMM	896	MPD2	H3	1	0.15	1.0079
13136	NC=O	896	MPD2	N	1	-0.547	14.0067
13137	HNCO	896	MPD2	H5	1	0.37	1.0079
13138	NC=O	896	MPD2	N1	1	-0.547	14.0067
13139	HNCO	896	MPD2	H7	1	0.37	1.0079
13140	CB	897	MPD2	C	1	-0.15	12.011
13141	CB	897	MPD2	C1	1	0.117	12.011
13142	CB	897	MPD2	C2	1	-0.15	12.011
13143	CB	897	MPD2	C3	1	0.117	12.011
13144	CB	897	MPD2	C4	1	-0.15	12.011
13145	CB	897	MPD2	C5	1	-0.15	12.011
13146	HCMM	897	MPD2	H	1	0.15	1.0079
13147	HCMM	897	MPD2	H1	1	0.15	1.0079
13148	HCMM	897	MPD2	H2	1	0.15	1.0079
13149	HCMM	897	MPD2	H3	1	0.15	1.0079
13150	NC=O	897	MPD2	N	1	-0.547	14.0067
13151	HNCO	897	MPD2	H5	1	0.37	1.0079
13152	NC=O	897	MPD2	N1	1	-0.547	14.0067
13153	HNCO	897	MPD2	H7	1	0.37	1.0079
13154	CB	898	MPD2	C	1	-0.15	12.011
13155	CB	898	MPD2	C1	1	0.117	12.011
13156	CB	898	MPD2	C2	1	-0.15	12.011
13157	CB	898	MPD2	C3	1	0.117	12.011
13158	CB	898	MPD2	C4	1	-0.15	12.011
13159	CB	898	MPD2	C5	1	-0.15	12.011
13160	HCMM	898	MPD2	H	1	0.15	1.0079
13161	HCMM	898	MPD2	H1	1	0.15	1.0079
13162	HCMM	898	MPD2	H2	1	0.15	1.0079
13163	HCMM	898	MPD2	H3	1	0.15	1.0079
13164	NC=O	898	MPD2	N	1	-0.547	14.0067
13165	HNCO	898	MPD2	H5	1	0.37	1.0079
13166	NC=O	898	MPD2	N1	1	-0.547	14.0067
13167	HNCO	898	MPD2	H7	1	0.37	1.0079
13168	CB	899	MPD2	C	1	-0.15	12.011
13169	CB	899	MPD2	C1	1	0.117	12.011
13170	CB	899	MPD2	C2	1	-0.15	12.011
13171	CB	899	MPD2	C3	1	0.117	12.011
13172	CB	899	MPD2	C4	1	-0.15	12.011
13173	CB	899	MPD2	C5	1	-0.15	12.011
13174	HCMM	899	MPD2	H	1	0.15	1.0079
13175	HCMM	899	MPD2	H1	1	0.15	1.0079
13176	HCMM	899	MPD2	H2	1	0.15	1.0079
13177	HCMM	899	MPD2	H3	1	0.15	1.0079
13178	NC=O	899	MPD2	N	1	-0.547	14.0067
13179	HNCO	899	MPD2	H5	1	0.37	1.0079
13180	NC=O	899	MPD2	N1	1	-0.547	14.0067
13181	HNCO	899	MPD2	H7	1	0.37	1.0079
13182	CB	900	MPD2	C	1	-0.15	12.011
13183	CB	900	MPD2	C1	1	0.117	12.011
13184	CB	900	MPD2	C2	1	-0.15	12.011
13185	CB	900	MPD2	C3	1	0.117	12.011
13186	CB	900	MPD2	C4	1	-0.15	12.011
13187	CB	900	MPD2	C5	1	-0.15	12.011
13188	HCMM	900	MPD2	H	1	0.15	1.0079
13189	HCMM	900	MPD2	H1	1	0.15	1.0079
13190	HCMM	900	MPD2	H2	1	0.15	1.0079
13191	HCMM	900	MPD2	H3	1	0.15	1.0079
13192	NC=O	900	MPD2	N	1	-0.547	14.0067
13193	HNCO	900	MPD2	H5	1	0.37	1.0079
13194	NC=O	900	MPD2	N1	1	-0.547	14.0067
13195	HNCO	900	MPD2	H7	1	0.37	1.0079
13196	CB	901	MPD2	C	1	-0.15	12.011
13197	CB	901	MPD2	C1	1	0.117	12.011
13198	CB	901	MPD2	C2	1	-0.15	12.011
13199	CB	901	MPD2	C3	1	0.117	12.011
13200	CB	901	MPD2	C4	1	-0.15	12.011
13201	CB	901	MPD2	C5	1	-0.15	12.011
13202	HCMM	901	MPD2	H	1	0.15	1.0079
13203	HCMM	901	MPD2	H1	1	0.15	1.0079
13204	HCMM	901	MPD2	H2	1	0.15	1.0079
13205	HCMM	901	MPD2	H3	1	0.15	1.0079
13206	NC=O	901	MPD2	N	1	-0.547	14.0067
13207	HNCO	901	MPD2	H5	1	0.37	1.0079
13208	NC=O	901	MPD2	N1	1	-0.547	14.0067
13209	HNCO	901	MPD2	H7	1	0.37	1.0079
13210	CB	902	MPD2	C	1	-0.15	12.011
13211	CB	902	MPD2	C1	1	0.117	12.011
13212	CB	902	MPD2	C2	1	-0.15	12.011
13213	CB	902	MPD2	C3	1	0.117	12.011
13214	CB	902	MPD2	C4	1	-0.15	12.011
13215	CB	902	MPD2	C5	1	-0.15	12.011
13216	HCMM	902	MPD2	H	1	0.15	1.0079
13217	HCMM	902	MPD2	H1	1	0.15	1.0079
13218	HCMM	902	MPD2	H2	1	0.15	1.0079
13219	HCMM	902	MPD2	H3	1	0.15	1.0079
13220	NC=O	902	MPD2	N	1	-0.547	14.0067
13221	HNCO	902	MPD2	H5	1	0.37	1.0079
13222	NC=O	902	MPD2	N1	1	-0.547	14.0067
13223	HNCO	902	MPD2	H7	1	0.37	1.0079
13224	CB	903	MPD2	C	1	-0.15	12.011
13225	CB	903	MPD2	C1	1	0.117	12.011
13226	CB	903	MPD2	C2	1	-0.15	12.011
13227	CB	903	MPD2	C3	1	0.117	12.011
13228	CB	903	MPD2	C4	1	-0.15	12.011
13229	CB	903	MPD2	C5	1	-0.15	12.011
13230	HCMM	903	MPD2	H	1	0.15	1.0079
13231	HCMM	903	MPD2	H1	1	0.15	1.0079
13232	HCMM	903	MPD2	H2	1	0.15	1.0079
13233	HCMM	903	MPD2	H3	1	0.15	1.0079
13234	NC=O	903	MPD2	N	1	-0.547	14.0067
13235	HNCO	903	MPD2	H5	1	0.37	1.0079
13236	NC=O	903	MPD2	N1	1	-0.547	14.0067
13237	HNCO	903	MPD2	H7	1	0.37	1.0079
13238	CB	904	MPD2	C	1	-0.15	12.011
13239	CB	904	MPD2	C1	1	0.117	12.011
13240	CB	904	MPD2	C2	1	-0.15	12.011
13241	CB	904	MPD2	C3	1	0.117	12.011
13242	CB	904	MPD2	C4	1	-0.15	12.011
13243	CB	904	MPD2	C5	1	-0.15	12.011
13244	HCMM	904	MPD2	H	1	0.15	1.0079
13245	HCMM	904	MPD2	H1	1	0.15	1.0079
13246	HCMM	904	MPD2	H2	1	0.15	1.0079
13247	HCMM	904	MPD2	H3	1	0.15	1.0079
13248	NC=O	904	MPD2	N	1	-0.547	14.0067
13249	HNCO	904	MPD2	H5	1	0.37	1.0079
13250	NC=O	904	MPD2	N1	1	-0.547	14.0067
13251	HNCO	904	MPD2	H7	1	0.37	1.0079
13252	CB	905	MPD2	C	1	-0.15	12.011
13253	CB	905	MPD2	C1	1	0.117	12.011
13254	CB	905	MPD2	C2	1	-0.15	12.011
13255	CB	905	MPD2	C3	1	0.117	12.011
13256	CB	905	MPD2	C4	1	-0.15	12.011
13257	CB	905	MPD2	C5	1	-0.15	12.011
13258	HCMM	905	MPD2	H	1	0.15	1.0079
13259	HCMM	905	MPD2	H1	1	0.15	1.0079
13260	HCMM	905	MPD2	H2	1	0.15	1.0079
13261	HCMM	905	MPD2	H3	1	0.15	1.0079
13262	NC=O	905	MPD2	N	1	-0.547	14.0067
13263	HNCO	905	MPD2	H5	1	0.37	1.0079
13264	NC=O	905	MPD2	N1	1	-0.547	14.0067
13265	HNCO	905	MPD2	H7	1	0.37	1.0079
13266	CB	906	MPD2	C	1	-0.15	12.011
13267	CB	906	MPD2	C1	1	0.117	12.011
13268	CB	906	MPD2	C2	1	-0.15	12.011
13269	CB	906	MPD2	C3	1	0.117	12.011
13270	CB	906	MPD2	C4	1	-0.15	12.011
13271	CB	906	MPD2	C5	1	-0.15	12.011
13272	HCMM	906	MPD2	H	1	0.15	1.0079
13273	HCMM	906	MPD2	H1	1	0.15	1.0079
13274	HCMM	906	MPD2	H2	1	0.15	1.0079
13275	HCMM	906	MPD2	H3	1	0.15	1.0079
13276	NC=O	906	MPD2	N	1	-0.547	14.0067
13277	HNCO	906	MPD2	H5	1	0.37	1.0079
13278	NC=O	906	MPD2	N1	1	-0.547	14.0067
13279	HNCO	906	MPD2	H7	1	0.37	1.0079
13280	CB	907	MPD2	C	1	-0.15	12.011
13281	CB	907	MPD2	C1	1	0.117	12.011
13282	CB	907	MPD2	C2	1	-0.15	12.011
13283	CB	907	MPD2	C3	1	0.117	12.011
13284	CB	907	MPD2	C4	1	-0.15	12.011
13285	CB	907	MPD2	C5	1	-0.15	12.011
13286	HCMM	907	MPD2	H	1	0.15	1.0079
13287	HCMM	907	MPD2	H1	1	0.15	1.0079
13288	HCMM	907	MPD2	H2	1	0.15	1.0079
13289	HCMM	907	MPD2	H3	1	0.15	1.0079
13290	NC=O	907	MPD2	N	1	-0.547	14.0067
13291	HNCO	907	MPD2	H5	1	0.37	1.0079
13292	NC=O	907	MPD2	N1	1	-0.547	14.0067
13293	HNCO	907	MPD2	H7	1	0.37	1.0079
13294	CB	908	MPD2	C	1	-0.15	12.011
13295	CB	908	MPD2	C1	1	0.117	12.011
13296	CB	908	MPD2	C2	1	-0.15	12.011
13297	CB	908	MPD2	C3	1	0.117	12.011
13298	CB	908	MPD2	C4	1	-0.15	12.011
13299	CB	908	MPD2	C5	1	-0.15	12.011
13300	HCMM	908	MPD2	H	1	0.15	1.0079
13301	HCMM	908	MPD2	H1	1	0.15	1.0079
13302	HCMM	908	MPD2	H2	1	0.15	1.0079
13303	HCMM	908	MPD2	H3	1	0.15	1.0079
13304	NC=O	908	MPD2	N	1	-0.547	14.0067
13305	HNCO	908	MPD2	H5	1	0.37	1.0079
13306	NC=O	908	MPD2	N1	1	-0.547	14.0067
13307	HNCO	908	MPD2	H7	1	0.37	1.0079
13308	CB	909	MPD2	C	1	-0.15	12.011
13309	CB	909	MPD2	C1	1	0.117	12.011
13310	CB	909	MPD2	C2	1	-0.15	12.011
13311	CB	909	MPD2	C3	1	0.117	12.011
13312	CB	909	MPD2	C4	1	-0.15	12.011
13313	CB	909	MPD2	C5	1	-0.15	12.011
13314	HCMM	909	MPD2	H	1	0.15	1.0079
13315	HCMM	909	MPD2	H1	1	0.15	1.0079
13316	HCMM	909	MPD2	H2	1	0.15	1.0079
13317	HCMM	909	MPD2	H3	1	0.15	1.0079
13318	NC=O	909	MPD2	N	1	-0.547	14.0067
13319	HNCO	909	MPD2	H5	1	0.37	1.0079
13320	NC=O	909	MPD2	N1	1	-0.547	14.0067
13321	HNCO	909	MPD2	H7	1	0.37	1.0079
13322	CB	910	MPD2	C	1	-0.15	12.011
13323	CB	910	MPD2	C1	1	0.117	12.011
13324	CB	910	MPD2	C2	1	-0.15	12.011
13325	CB	910	MPD2	C3	1	0.117	12.011
13326	CB	910	MPD2	C4	1	-0.15	12.011
13327	CB	910	MPD2	C5	1	-0.15	12.011
13328	HCMM	910	MPD2	H	1	0.15	1.0079
13329	HCMM	910	MPD2	H1	1	0.15	1.0079
13330	HCMM	910	MPD2	H2	1	0.15	1.0079
13331	HCMM	910	MPD2	H3	1	0.15	1.0079
13332	NC=O	910	MPD2	N	1	-0.547	14.0067
13333	HNCO	910	MPD2	H5	1	0.37	1.0079
13334	NC=O	910	MPD2	N1	1	-0.547	14.0067
13335	HNCO	910	MPD2	H7	1	0.37	1.0079
13336	CB	911	MPD2	C	1	-0.15	12.011
13337	CB	911	MPD2	C1	1	0.117	12.011
13338	CB	911	MPD2	C2	1	-0.15	12.011
13339	CB	911	MPD2	C3	1	0.117	12.011
13340	CB	911	MPD2	C4	1	-0.15	12.011
13341	CB	911	MPD2	C5	1	-0.15	12.011
13342	HCMM	911	MPD2	H	1	0.15	1.0079
13343	HCMM	911	MPD2	H1	1	0.15	1.0079
13344	HCMM	911	MPD2	H2	1	0.15	1.0079
13345	HCMM	911	MPD2	H3	1	0.15	1.0079
13346	NC=O	911	MPD2	N	1	-0.547	14.0067
13347	HNCO	911	MPD2	H5	1	0.37	1.0079
13348	NC=O	911	MPD2	N1	1	-0.547	14.0067
13349	HNCO	911	MPD2	H7	1	0.37	1.0079
13350	CB	912	MPD2	C	1	-0.15	12.011
13351	CB	912	MPD2	C1	1	0.117	12.011
13352	CB	912	MPD2	C2	1	-0.15	12.011
13353	CB	912	MPD2	C3	1	0.117	12.011
13354	CB	912	MPD2	C4	1	-0.15	12.011
13355	CB	912	MPD2	C5	1	-0.15	12.011
13356	HCMM	912	MPD2	H	1	0.15	1.0079
13357	HCMM	912	MPD2	H1	1	0.15	1.0079
13358	HCMM	912	MPD2	H2	1	0.15	1.0079
13359	HCMM	912	MPD2	H3	1	0.15	1.0079
13360	NC=O	912	MPD2	N	1	-0.547	14.0067
13361	HNCO	912	MPD2	H5	1	0.37	1.0079
13362	NC=O	912	MPD2	N1	1	-0.547	14.0067
13363	HNCO	912	MPD2	H7	1	0.37	1.0079
13364	CB	913	MPD2	C	1	-0.15	12.011
13365	CB	913	MPD2	C1	1	0.117	12.011
13366	CB	913	MPD2	C2	1	-0.15	12.011
13367	CB	913	MPD2	C3	1	0.117	12.011
13368	CB	913	MPD2	C4	1	-0.15	12.011
13369	CB	913	MPD2	C5	1	-0.15	12.011
13370	HCMM	913	MPD2	H	1	0.15	1.0079
13371	HCMM	913	MPD2	H1	1	0.15	1.0079
13372	HCMM	913	MPD2	H2	1	0.15	1.0079
13373	HCMM	913	MPD2	H3	1	0.15	1.0079
13374	NC=O	913	MPD2	N	1	-0.547	14.0067
13375	HNCO	913	MPD2	H5	1	0.37	1.0079
13376	NC=O	913	MPD2	N1	1	-0.547	14.0067
13377	HNCO	913	MPD2	H7	1	0.37	1.0079
13378	CB	914	MPD2	C	1	-0.15	12.011
13379	CB	914	MPD2	C1	1	0.117	12.011
13380	CB	914	MPD2	C2	1	-0.15	12.011
13381	CB	914	MPD2	C3	1	0.117	12.011
13382	CB	914	MPD2	C4	1	-0.15	12.011
13383	CB	914	MPD2	C5	1	-0.15	12.011
13384	HCMM	914	MPD2	H	1	0.15	1.0079
13385	HCMM	914	MPD2	H1	1	0.15	1.0079
13386	HCMM	914	MPD2	H2	1	0.15	1.0079
13387	HCMM	914	MPD2	H3	1	0.15	1.0079
13388	NC=O	914	MPD2	N	1	-0.547	14.0067
13389	HNCO	914	MPD2	H5	1	0.37	1.0079
13390	NC=O	914	MPD2	N1	1	-0.547	14.0067
13391	HNCO	914	MPD2	H7	1	0.37	1.0079
13392	CB	915	MPD2	C	1	-0.15	12.011
13393	CB	915	MPD2	C1	1	0.117	12.011
13394	CB	915	MPD2	C2	1	-0.15	12.011
13395	CB	915	MPD2	C3	1	0.117	12.011
13396	CB	915	MPD2	C4	1	-0.15	12.011
13397	CB	915	MPD2	C5	1	-0.15	12.011
13398	HCMM	915	MPD2	H	1	0.15	1.0079
13399	HCMM	915	MPD2	H1	1	0.15	1.0079
13400	HCMM	915	MPD2	H2	1	0.15	1.0079
13401	HCMM	915	MPD2	H3	1	0.15	1.0079
13402	NC=O	915	MPD2	N	1	-0.547	14.0067
13403	HNCO	915	MPD2	H5	1	0.37	1.0079
13404	NC=O	915	MPD2	N1	1	-0.547	14.0067
13405	HNCO	915	MPD2	H7	1	0.37	1.0079
13406	CB	916	MPD2	C	1	-0.15	12.011
13407	CB	916	MPD2	C1	1	0.117	12.011
13408	CB	916	MPD2	C2	1	-0.15	12.011
13409	CB	916	MPD2	C3	1	0.117	12.011
13410	CB	916	MPD2	C4	1	-0.15	12.011
13411	CB	916	MPD2	C5	1	-0.15	12.011
13412	HCMM	916	MPD2	H	1	0.15	1.0079
13413	HCMM	916	MPD2	H1	1	0.15	1.0079
13414	HCMM	916	MPD2	H2	1	0.15	1.0079
13415	HCMM	916	MPD2	H3	1	0.15	1.0079
13416	NC=O	916	MPD2	N	1	-0.547	14.0067
13417	HNCO	916	MPD2	H5	1	0.37	1.0079
13418	NC=O	916	MPD2	N1	1	-0.547	14.0067
13419	HNCO	916	MPD2	H7	1	0.37	1.0079
13420	CB	917	MPD2	C	1	-0.15	12.011
13421	CB	917	MPD2	C1	1	0.117	12.011
13422	CB	917	MPD2	C2	1	-0.15	12.011
13423	CB	917	MPD2	C3	1	0.117	12.011
13424	CB	917	MPD2	C4	1	-0.15	12.011
13425	CB	917	MPD2	C5	1	-0.15	12.011
13426	HCMM	917	MPD2	H	1	0.15	1.0079
13427	HCMM	917	MPD2	H1	1	0.15	1.0079
13428	HCMM	917	MPD2	H2	1	0.15	1.0079
13429	HCMM	917	MPD2	H3	1	0.15	1.0079
13430	NC=O	917	MPD2	N	1	-0.547	14.0067
13431	HNCO	917	MPD2	H5	1	0.37	1.0079
13432	NC=O	917	MPD2	N1	1	-0.547	14.0067
13433	HNCO	917	MPD2	H7	1	0.37	1.0079
13434	CB	918	MPD2	C	1	-0.15	12.011
13435	CB	918	MPD2	C1	1	0.117	12.011
13436	CB	918	MPD2	C2	1	-0.15	12.011
13437	CB	918	MPD2	C3	1	0.117	12.011
13438	CB	918	MPD2	C4	1	-0.15	12.011
13439	CB	918	MPD2	C5	1	-0.15	12.011
13440	HCMM	918	MPD2	H	1	0.15	1.0079
13441	HCMM	918	MPD2	H1	1	0.15	1.0079
13442	HCMM	918	MPD2	H2	1	0.15	1.0079
13443	HCMM	918	MPD2	H3	1	0.15	1.0079
13444	NC=O	918	MPD2	N	1	-0.547	14.0067
13445	HNCO	918	MPD2	H5	1	0.37	1.0079
13446	NC=O	918	MPD2	N1	1	-0.547	14.0067
13447	HNCO	918	MPD2	H7	1	0.37	1.0079
13448	CB	919	MPD2	C	1	-0.15	12.011
13449	CB	919	MPD2	C1	1	0.117	12.011
13450	CB	919	MPD2	C2	1	-0.15	12.011
13451	CB	919	MPD2	C3	1	0.117	12.011
13452	CB	919	MPD2	C4	1	-0.15	12.011
13453	CB	919	MPD2	C5	1	-0.15	12.011
13454	HCMM	919	MPD2	H	1	0.15	1.0079
13455	HCMM	919	MPD2	H1	1	0.15	1.0079
13456	HCMM	919	MPD2	H2	1	0.15	1.0079
13457	HCMM	919	MPD2	H3	1	0.15	1.0079
13458	NC=O	919	MPD2	N	1	-0.547	14.0067
13459	HNCO	919	MPD2	H5	1	0.37	1.0079
13460	NC=O	919	MPD2	N1	1	-0.547	14.0067
13461	HNCO	919	MPD2	H7	1	0.37	1.0079
13462	CB	920	MPD2	C	1	-0.15	12.011
13463	CB	920	MPD2	C1	1	0.117	12.011
13464	CB	920	MPD2	C2	1	-0.15	12.011
13465	CB	920	MPD2	C3	1	0.117	12.011
13466	CB	920	MPD2	C4	1	-0.15	12.011
13467	CB	920	MPD2	C5	1	-0.15	12.011
13468	HCMM	920	MPD2	H	1	0.15	1.0079
13469	HCMM	920	MPD2	H1	1	0.15	1.0079
13470	HCMM	920	MPD2	H2	1	0.15	1.0079
13471	HCMM	920	MPD2	H3	1	0.15	1.0079
13472	NC=O	920	MPD2	N	1	-0.547	14.0067
13473	HNCO	920	MPD2	H5	1	0.37	1.0079
13474	NC=O	920	MPD2	N1	1	-0.547	14.0067
13475	HNCO	920	MPD2	H7	1	0.37	1.0079
13476	CB	921	MPD2	C	1	-0.15	12.011
13477	CB	921	MPD2	C1	1	0.117	12.011
13478	CB	921	MPD2	C2	1	-0.15	12.011
13479	CB	921	MPD2	C3	1	0.117	12.011
13480	CB	921	MPD2	C4	1	-0.15	12.011
13481	CB	921	MPD2	C5	1	-0.15	12.011
13482	HCMM	921	MPD2	H	1	0.15	1.0079
13483	HCMM	921	MPD2	H1	1	0.15	1.0079
13484	HCMM	921	MPD2	H2	1	0.15	1.0079
13485	HCMM	921	MPD2	H3	1	0.15	1.0079
13486	NC=O	921	MPD2	N	1	-0.547	14.0067
13487	HNCO	921	MPD2	H5	1	0.37	1.0079
13488	NC=O	921	MPD2	N1	1	-0.547	14.0067
13489	HNCO	921	MPD2	H7	1	0.37	1.0079
13490	CB	922	MPD2	C	1	-0.15	12.011
13491	CB	922	MPD2	C1	1	0.117	12.011
13492	CB	922	MPD2	C2	1	-0.15	12.011
13493	CB	922	MPD2	C3	1	0.117	12.011
13494	CB	922	MPD2	C4	1	-0.15	12.011
13495	CB	922	MPD2	C5	1	-0.15	12.011
13496	HCMM	922	MPD2	H	1	0.15	1.0079
13497	HCMM	922	MPD2	H1	1	0.15	1.0079
13498	HCMM	922	MPD2	H2	1	0.15	1.0079
13499	HCMM	922	MPD2	H3	1	0.15	1.0079
13500	NC=O	922	MPD2	N	1	-0.547	14.0067
13501	HNCO	922	MPD2	H5	1	0.37	1.0079
13502	NC=O	922	MPD2	N1	1	-0.547	14.0067
13503	HNCO	922	MPD2	H7	1	0.37	1.0079
13504	CB	923	MPD2	C	1	-0.15	12.011
13505	CB	923	MPD2	C1	1	0.117	12.011
13506	CB	923	MPD2	C2	1	-0.15	12.011
13507	CB	923	MPD2	C3	1	0.117	12.011
13508	CB	923	MPD2	C4	1	-0.15	12.011
13509	CB	923	MPD2	C5	1	-0.15	12.011
13510	HCMM	923	MPD2	H	1	0.15	1.0079
13511	HCMM	923	MPD2	H1	1	0.15	1.0079
13512	HCMM	923	MPD2	H2	1	0.15	1.0079
13513	HCMM	923	MPD2	H3	1	0.15	1.0079
13514	NC=O	923	MPD2	N	1	-0.547	14.0067
13515	HNCO	923	MPD2	H5	1	0.37	1.0079
13516	NC=O	923	MPD2	N1	1	-0.547	14.0067
13517	HNCO	923	MPD2	H7	1	0.37	1.0079
13518	CB	924	MPD2	C	1	-0.15	12.011
13519	CB	924	MPD2	C1	1	0.117	12.011
13520	CB	924	MPD2	C2	1	-0.15	12.011
13521	CB	924	MPD2	C3	1	0.117	12.011
13522	CB	924	MPD2	C4	1	-0.15	12.011
13523	CB	924	MPD2	C5	1	-0.15	12.011
13524	HCMM	924	MPD2	H	1	0.15	1.0079
13525	HCMM	924	MPD2	H1	1	0.15	1.0079
13526	HCMM	924	MPD2	H2	1	0.15	1.0079
13527	HCMM	924	MPD2	H3	1	0.15	1.0079
13528	NC=O	924	MPD2	N	1	-0.547	14.0067
13529	HNCO	924	MPD2	H5	1	0.37	1.0079
13530	NC=O	924	MPD2	N1	1	-0.547	14.0067
13531	HNCO	924	MPD2	H7	1	0.37	1.0079
13532	CB	925	MPD2	C	1	-0.15	12.011
13533	CB	925	MPD2	C1	1	0.117	12.011
13534	CB	925	MPD2	C2	1	-0.15	12.011
13535	CB	925	MPD2	C3	1	0.117	12.011
13536	CB	925	MPD2	C4	1	-0.15	12.011
13537	CB	925	MPD2	C5	1	-0.15	12.011
13538	HCMM	925	MPD2	H	1	0.15	1.0079
13539	HCMM	925	MPD2	H1	1	0.15	1.0079
13540	HCMM	925	MPD2	H2	1	0.15	1.0079
13541	HCMM	925	MPD2	H3	1	0.15	1.0079
13542	NC=O	925	MPD2	N	1	-0.547	14.0067
13543	HNCO	925	MPD2	H5	1	0.37	1.0079
13544	NC=O	925	MPD2	N1	1	-0.547	14.0067
13545	HNCO	925	MPD2	H7	1	0.37	1.0079
13546	CB	926	MPD2	C	1	-0.15	12.011
13547	CB	926	MPD2	C1	1	0.117	12.011
13548	CB	926	MPD2	C2	1	-0.15	12.011
13549	CB	926	MPD2	C3	1	0.117	12.011
13550	CB	926	MPD2	C4	1	-0.15	12.011
13551	CB	926	MPD2	C5	1	-0.15	12.011
13552	HCMM	926	MPD2	H	1	0.15	1.0079
13553	HCMM	926	MPD2	H1	1	0.15	1.0079
13554	HCMM	926	MPD2	H2	1	0.15	1.0079
13555	HCMM	926	MPD2	H3	1	0.15	1.0079
13556	NC=O	926	MPD2	N	1	-0.547	14.0067
13557	HNCO	926	MPD2	H5	1	0.37	1.0079
13558	NC=O	926	MPD2	N1	1	-0.547	14.0067
13559	HNCO	926	MPD2	H7	1	0.37	1.0079
13560	CB	927	MPD2	C	1	-0.15	12.011
13561	CB	927	MPD2	C1	1	0.117	12.011
13562	CB	927	MPD2	C2	1	-0.15	12.011
13563	CB	927	MPD2	C3	1	0.117	12.011
13564	CB	927	MPD2	C4	1	-0.15	12.011
13565	CB	927	MPD2	C5	1	-0.15	12.011
13566	HCMM	927	MPD2	H	1	0.15	1.0079
13567	HCMM	927	MPD2	H1	1	0.15	1.0079
13568	HCMM	927	MPD2	H2	1	0.15	1.0079
13569	HCMM	927	MPD2	H3	1	0.15	1.0079
13570	NC=O	927	MPD2	N	1	-0.547	14.0067
13571	HNCO	927	MPD2	H5	1	0.37	1.0079
13572	NC=O	927	MPD2	N1	1	-0.547	14.0067
13573	HNCO	927	MPD2	H7	1	0.37	1.0079
13574	CB	928	MPD2	C	1	-0.15	12.011
13575	CB	928	MPD2	C1	1	0.117	12.011
13576	CB	928	MPD2	C2	1	-0.15	12.011
13577	CB	928	MPD2	C3	1	0.117	12.011
13578	CB	928	MPD2	C4	1	-0.15	12.011
13579	CB	928	MPD2	C5	1	-0.15	12.011
13580	HCMM	928	MPD2	H	1	0.15	1.0079
13581	HCMM	928	MPD2	H1	1	0.15	1.0079
13582	HCMM	928	MPD2	H2	1	0.15	1.0079
13583	HCMM	928	MPD2	H3	1	0.15	1.0079
13584	NC=O	928	MPD2	N	1	-0.547	14.0067
13585	HNCO	928	MPD2	H5	1	0.37	1.0079
13586	NC=O	928	MPD2	N1	1	-0.547	14.0067
13587	HNCO	928	MPD2	H7	1	0.37	1.0079
13588	CB	929	MPD2	C	1	-0.15	12.011
13589	CB	929	MPD2	C1	1	0.117	12.011
13590	CB	929	MPD2	C2	1	-0.15	12.011
13591	CB	929	MPD2	C3	1	0.117	12.011
13592	CB	929	MPD2	C4	1	-0.15	12.011
13593	CB	929	MPD2	C5	1	-0.15	12.011
13594	HCMM	929	MPD2	H	1	0.15	1.0079
13595	HCMM	929	MPD2	H1	1	0.15	1.0079
13596	HCMM	929	MPD2	H2	1	0.15	1.0079
13597	HCMM	929	MPD2	H3	1	0.15	1.0079
13598	NC=O	929	MPD2	N	1	-0.547	14.0067
13599	HNCO	929	MPD2	H5	1	0.37	1.0079
13600	NC=O	929	MPD2	N1	1	-0.547	14.0067
13601	HNCO	929	MPD2	H7	1	0.37	1.0079
13602	CB	930	MPD2	C	1	-0.15	12.011
13603	CB	930	MPD2	C1	1	0.117	12.011
13604	CB	930	MPD2	C2	1	-0.15	12.011
13605	CB	930	MPD2	C3	1	0.117	12.011
13606	CB	930	MPD2	C4	1	-0.15	12.011
13607	CB	930	MPD2	C5	1	-0.15	12.011
13608	HCMM	930	MPD2	H	1	0.15	1.0079
13609	HCMM	930	MPD2	H1	1	0.15	1.0079
13610	HCMM	930	MPD2	H2	1	0.15	1.0079
13611	HCMM	930	MPD2	H3	1	0.15	1.0079
13612	NC=O	930	MPD2	N	1	-0.547	14.0067
13613	HNCO	930	MPD2	H5	1	0.37	1.0079
13614	NC=O	930	MPD2	N1	1	-0.547	14.0067
13615	HNCO	930	MPD2	H7	1	0.37	1.0079
13616	CB	931	MPD2	C	1	-0.15	12.011
13617	CB	931	MPD2	C1	1	0.117	12.011
13618	CB	931	MPD2	C2	1	-0.15	12.011
13619	CB	931	MPD2	C3	1	0.117	12.011
13620	CB	931	MPD2	C4	1	-0.15	12.011
13621	CB	931	MPD2	C5	1	-0.15	12.011
13622	HCMM	931	MPD2	H	1	0.15	1.0079
13623	HCMM	931	MPD2	H1	1	0.15	1.0079
13624	HCMM	931	MPD2	H2	1	0.15	1.0079
13625	HCMM	931	MPD2	H3	1	0.15	1.0079
13626	NC=O	931	MPD2	N	1	-0.547	14.0067
13627	HNCO	931	MPD2	H5	1	0.37	1.0079
13628	NC=O	931	MPD2	N1	1	-0.547	14.0067
13629	HNCO	931	MPD2	H7	1	0.37	1.0079
13630	CB	932	MPD2	C	1	-0.15	12.011
13631	CB	932	MPD2	C1	1	0.117	12.011
13632	CB	932	MPD2	C2	1	-0.15	12.011
13633	CB	932	MPD2	C3	1	0.117	12.011
13634	CB	932	MPD2	C4	1	-0.15	12.011
13635	CB	932	MPD2	C5	1	-0.15	12.011
13636	HCMM	932	MPD2	H	1	0.15	1.0079
13637	HCMM	932	MPD2	H1	1	0.15	1.0079
13638	HCMM	932	MPD2	H2	1	0.15	1.0079
13639	HCMM	932	MPD2	H3	1	0.15	1.0079
13640	NC=O	932	MPD2	N	1	-0.547	14.0067
13641	HNCO	932	MPD2	H5	1	0.37	1.0079
13642	NC=O	932	MPD2	N1	1	-0.547	14.0067
13643	HNCO	932	MPD2	H7	1	0.37	1.0079
13644	CB	933	MPD2	C	1	-0.15	12.011
13645	CB	933	MPD2	C1	1	0.117	12.011
13646	CB	933	MPD2	C2	1	-0.15	12.011
13647	CB	933	MPD2	C3	1	0.117	12.011
13648	CB	933	MPD2	C4	1	-0.15	12.011
13649	CB	933	MPD2	C5	1	-0.15	12.011
13650	HCMM	933	MPD2	H	1	0.15	1.0079
13651	HCMM	933	MPD2	H1	1	0.15	1.0079
13652	HCMM	933	MPD2	H2	1	0.15	1.0079
13653	HCMM	933	MPD2	H3	1	0.15	1.0079
13654	NC=O	933	MPD2	N	1	-0.547	14.0067
13655	HNCO	933	MPD2	H5	1	0.37	1.0079
13656	NC=O	933	MPD2	N1	1	-0.547	14.0067
13657	HNCO	933	MPD2	H7	1	0.37	1.0079
13658	CB	934	MPD2	C	1	-0.15	12.011
13659	CB	934	MPD2	C1	1	0.117	12.011
13660	CB	934	MPD2	C2	1	-0.15	12.011
13661	CB	934	MPD2	C3	1	0.117	12.011
13662	CB	934	MPD2	C4	1	-0.15	12.011
13663	CB	934	MPD2	C5	1	-0.15	12.011
13664	HCMM	934	MPD2	H	1	0.15	1.0079
13665	HCMM	934	MPD2	H1	1	0.15	1.0079
13666	HCMM	934	MPD2	H2	1	0.15	1.0079
13667	HCMM	934	MPD2	H3	1	0.15	1.0079
13668	NC=O	934	MPD2	N	1	-0.547	14.0067
13669	HNCO	934	MPD2	H5	1	0.37	1.0079
13670	NC=O	934	MPD2	N1	1	-0.547	14.0067
13671	HNCO	934	MPD2	H7	1	0.37	1.0079
13672	CB	935	MPD2	C	1	-0.15	12.011
13673	CB	935	MPD2	C1	1	0.117	12.011
13674	CB	935	MPD2	C2	1	-0.15	12.011
13675	CB	935	MPD2	C3	1	0.117	12.011
13676	CB	935	MPD2	C4	1	-0.15	12.011
13677	CB	935	MPD2	C5	1	-0.15	12.011
13678	HCMM	935	MPD2	H	1	0.15	1.0079
13679	HCMM	935	MPD2	H1	1	0.15	1.0079
13680	HCMM	935	MPD2	H2	1	0.15	1.0079
13681	HCMM	935	MPD2	H3	1	0.15	1.0079
13682	NC=O	935	MPD2	N	1	-0.547	14.0067
13683	HNCO	935	MPD2	H5	1	0.37	1.0079
13684	NC=O	935	MPD2	N1	1	-0.547	14.0067
13685	HNCO	935	MPD2	H7	1	0.37	1.0079
13686	CB	936	MPD2	C	1	-0.15	12.011
13687	CB	936	MPD2	C1	1	0.117	12.011
13688	CB	936	MPD2	C2	1	-0.15	12.011
13689	CB	936	MPD2	C3	1	0.117	12.011
13690	CB	936	MPD2	C4	1	-0.15	12.011
13691	CB	936	MPD2	C5	1	-0.15	12.011
13692	HCMM	936	MPD2	H	1	0.15	1.0079
13693	HCMM	936	MPD2	H1	1	0.15	1.0079
13694	HCMM	936	MPD2	H2	1	0.15	1.0079
13695	HCMM	936	MPD2	H3	1	0.15	1.0079
13696	NC=O	936	MPD2	N	1	-0.547	14.0067
13697	HNCO	936	MPD2	H5	1	0.37	1.0079
13698	NC=O	936	MPD2	N1	1	-0.547	14.0067
13699	HNCO	936	MPD2	H7	1	0.37	1.0079
13700	CB	937	MPD2	C	1	-0.15	12.011
13701	CB	937	MPD2	C1	1	0.117	12.011
13702	CB	937	MPD2	C2	1	-0.15	12.011
13703	CB	937	MPD2	C3	1	0.117	12.011
13704	CB	937	MPD2	C4	1	-0.15	12.011
13705	CB	937	MPD2	C5	1	-0.15	12.011
13706	HCMM	937	MPD2	H	1	0.15	1.0079
13707	HCMM	937	MPD2	H1	1	0.15	1.0079
13708	HCMM	937	MPD2	H2	1	0.15	1.0079
13709	HCMM	937	MPD2	H3	1	0.15	1.0079
13710	NC=O	937	MPD2	N	1	-0.547	14.0067
13711	HNCO	937	MPD2	H5	1	0.37	1.0079
13712	NC=O	937	MPD2	N1	1	-0.547	14.0067
13713	HNCO	937	MPD2	H7	1	0.37	1.0079
13714	CB	938	MPD2	C	1	-0.15	12.011
13715	CB	938	MPD2	C1	1	0.117	12.011
13716	CB	938	MPD2	C2	1	-0.15	12.011
13717	CB	938	MPD2	C3	1	0.117	12.011
13718	CB	938	MPD2	C4	1	-0.15	12.011
13719	CB	938	MPD2	C5	1	-0.15	12.011
13720	HCMM	938	MPD2	H	1	0.15	1.0079
13721	HCMM	938	MPD2	H1	1	0.15	1.0079
13722	HCMM	938	MPD2	H2	1	0.15	1.0079
13723	HCMM	938	MPD2	H3	1	0.15	1.0079
13724	NC=O	938	MPD2	N	1	-0.547	14.0067
13725	HNCO	938	MPD2	H5	1	0.37	1.0079
13726	NC=O	938	MPD2	N1	1	-0.547	14.0067
13727	HNCO	938	MPD2	H7	1	0.37	1.0079
13728	CB	939	MPD2	C	1	-0.15	12.011
13729	CB	939	MPD2	C1	1	0.117	12.011
13730	CB	939	MPD2	C2	1	-0.15	12.011
13731	CB	939	MPD2	C3	1	0.117	12.011
13732	CB	939	MPD2	C4	1	-0.15	12.011
13733	CB	939	MPD2	C5	1	-0.15	12.011
13734	HCMM	939	MPD2	H	1	0.15	1.0079
13735	HCMM	939	MPD2	H1	1	0.15	1.0079
13736	HCMM	939	MPD2	H2	1	0.15	1.0079
13737	HCMM	939	MPD2	H3	1	0.15	1.0079
13738	NC=O	939	MPD2	N	1	-0.547	14.0067
13739	HNCO	939	MPD2	H5	1	0.37	1.0079
13740	NC=O	939	MPD2	N1	1	-0.547	14.0067
13741	HNCO	939	MPD2	H7	1	0.37	1.0079
13742	CB	940	MPD2	C	1	-0.15	12.011
13743	CB	940	MPD2	C1	1	0.117	12.011
13744	CB	940	MPD2	C2	1	-0.15	12.011
13745	CB	940	MPD2	C3	1	0.117	12.011
13746	CB	940	MPD2	C4	1	-0.15	12.011
13747	CB	940	MPD2	C5	1	-0.15	12.011
13748	HCMM	940	MPD2	H	1	0.15	1.0079
13749	HCMM	940	MPD2	H1	1	0.15	1.0079
13750	HCMM	940	MPD2	H2	1	0.15	1.0079
13751	HCMM	940	MPD2	H3	1	0.15	1.0079
13752	NC=O	940	MPD2	N	1	-0.547	14.0067
13753	HNCO	940	MPD2	H5	1	0.37	1.0079
13754	NC=O	940	MPD2	N1	1	-0.547	14.0067
13755	HNCO	940	MPD2	H7	1	0.37	1.0079
13756	CB	941	MPD2	C	1	-0.15	12.011
13757	CB	941	MPD2	C1	1	0.117	12.011
13758	CB	941	MPD2	C2	1	-0.15	12.011
13759	CB	941	MPD2	C3	1	0.117	12.011
13760	CB	941	MPD2	C4	1	-0.15	12.011
13761	CB	941	MPD2	C5	1	-0.15	12.011
13762	HCMM	941	MPD2	H	1	0.15	1.0079
13763	HCMM	941	MPD2	H1	1	0.15	1.0079
13764	HCMM	941	MPD2	H2	1	0.15	1.0079
13765	HCMM	941	MPD2	H3	1	0.15	1.0079
13766	NC=O	941	MPD2	N	1	-0.547	14.0067
13767	HNCO	941	MPD2	H5	1	0.37	1.0079
13768	NC=O	941	MPD2	N1	1	-0.547	14.0067
13769	HNCO	941	MPD2	H7	1	0.37	1.0079
13770	CB	942	MPD2	C	1	-0.15	12.011
13771	CB	942	MPD2	C1	1	0.117	12.011
13772	CB	942	MPD2	C2	1	-0.15	12.011
13773	CB	942	MPD2	C3	1	0.117	12.011
13774	CB	942	MPD2	C4	1	-0.15	12.011
13775	CB	942	MPD2	C5	1	-0.15	12.011
13776	HCMM	942	MPD2	H	1	0.15	1.0079
13777	HCMM	942	MPD2	H1	1	0.15	1.0079
13778	HCMM	942	MPD2	H2	1	0.15	1.0079
13779	HCMM	942	MPD2	H3	1	0.15	1.0079
13780	NC=O	942	MPD2	N	1	-0.547	14.0067
13781	HNCO	942	MPD2	H5	1	0.37	1.0079
13782	NC=O	942	MPD2	N1	1	-0.547	14.0067
13783	HNCO	942	MPD2	H7	1	0.37	1.0079
13784	CB	943	MPD2	C	1	-0.15	12.011
13785	CB	943	MPD2	C1	1	0.117	12.011
13786	CB	943	MPD2	C2	1	-0.15	12.011
13787	CB	943	MPD2	C3	1	0.117	12.011
13788	CB	943	MPD2	C4	1	-0.15	12.011
13789	CB	943	MPD2	C5	1	-0.15	12.011
13790	HCMM	943	MPD2	H	1	0.15	1.0079
13791	HCMM	943	MPD2	H1	1	0.15	1.0079
13792	HCMM	943	MPD2	H2	1	0.15	1.0079
13793	HCMM	943	MPD2	H3	1	0.15	1.0079
13794	NC=O	943	MPD2	N	1	-0.547	14.0067
13795	HNCO	943	MPD2	H5	1	0.37	1.0079
13796	NC=O	943	MPD2	N1	1	-0.547	14.0067
13797	HNCO	943	MPD2	H7	1	0.37	1.0079
13798	CB	944	MPD2	C	1	-0.15	12.011
13799	CB	944	MPD2	C1	1	0.117	12.011
13800	CB	944	MPD2	C2	1	-0.15	12.011
13801	CB	944	MPD2	C3	1	0.117	12.011
13802	CB	944	MPD2	C4	1	-0.15	12.011
13803	CB	944	MPD2	C5	1	-0.15	12.011
13804	HCMM	944	MPD2	H	1	0.15	1.0079
13805	HCMM	944	MPD2	H1	1	0.15	1.0079
13806	HCMM	944	MPD2	H2	1	0.15	1.0079
13807	HCMM	944	MPD2	H3	1	0.15	1.0079
13808	NC=O	944	MPD2	N	1	-0.547	14.0067
13809	HNCO	944	MPD2	H5	1	0.37	1.0079
13810	NC=O	944	MPD2	N1	1	-0.547	14.0067
13811	HNCO	944	MPD2	H7	1	0.37	1.0079

[ bonds ]
5271	5282	1
5282	5283	1
5282	6333	1
5273	5280	1
5280	5281	1
5280	5290	1
5271	5272	1
5270	5271	1
5272	5273	1
5273	5274	1
5272	5276	1
5270	5275	1
5270	5278	1
5274	5275	1
5274	5277	1
5275	5279	1
4530	4541	1
4541	4542	1
4541	5296	1
4532	4539	1
4539	4540	1
4539	4549	1
4530	4531	1
4529	4530	1
4531	4532	1
4532	4533	1
4531	4535	1
4529	4534	1
4529	4537	1
4533	4534	1
4533	4536	1
4534	4538	1
9794	9805	1
9805	9806	1
9805	9813	1
9796	9803	1
9803	9804	1
9803	8695	1
9794	9795	1
9793	9794	1
9795	9796	1
9796	9797	1
9795	9799	1
9793	9798	1
9793	9801	1
9797	9798	1
9797	9800	1
9798	9802	1
5128	5135	1
5135	5136	1
5135	7702	1
5126	5137	1
5137	5138	1
5137	5145	1
5128	5127	1
5129	5128	1
5127	5126	1
5126	5125	1
5127	5131	1
5129	5130	1
5129	5132	1
5125	5130	1
5125	5133	1
5130	5134	1
1326	1337	1
1337	1338	1
1339	1337	1
1328	1335	1
1335	1336	1
1335	7191	1
1326	1327	1
1325	1326	1
1327	1328	1
1328	1329	1
1327	1331	1
1325	1330	1
1325	1333	1
1329	1330	1
1329	1332	1
1330	1334	1
11559	11570	1
11570	11571	1
11570	4554	1
11561	11568	1
11568	11569	1
11568	9965	1
11559	11560	1
11558	11559	1
11560	11561	1
11561	11562	1
11560	11564	1
11558	11563	1
11558	11566	1
11562	11563	1
11562	11565	1
11563	11567	1
2591	2598	1
2598	2599	1
2598	3916	1
2589	2600	1
2600	2601	1
2600	2602	1
2590	2591	1
2591	2592	1
2589	2590	1
2588	2589	1
2590	2594	1
2592	2593	1
2592	2595	1
2588	2593	1
2588	2596	1
2593	2597	1
777	788	1
788	789	1
788	4468	1
779	786	1
786	787	1
790	786	1
777	778	1
776	777	1
778	779	1
779	780	1
778	782	1
776	781	1
776	784	1
780	781	1
780	783	1
781	785	1
11080	11091	1
11091	11092	1
11091	4308	1
11082	11089	1
11089	11090	1
11089	11099	1
11080	11081	1
11079	11080	1
11081	11082	1
11082	11083	1
11081	11085	1
11079	11084	1
11079	11087	1
11083	11084	1
11083	11086	1
11084	11088	1
11505	11512	1
11512	11513	1
11512	4410	1
11503	11514	1
11514	11515	1
11514	7192	1
11505	11504	1
11506	11505	1
11504	11503	1
11503	11502	1
11504	11508	1
11506	11507	1
11506	11509	1
11502	11507	1
11502	11510	1
11507	11511	1
9823	9834	1
9834	9835	1
9834	5938	1
9825	9832	1
9832	9833	1
9832	9842	1
9823	9824	1
9822	9823	1
9824	9825	1
9825	9826	1
9824	9828	1
9822	9827	1
9822	9830	1
9826	9827	1
9826	9829	1
9827	9831	1
7154	7161	1
7161	7162	1
7161	10928	1
7152	7163	1
7163	7164	1
7163	7171	1
7153	7154	1
7154	7155	1
7152	7153	1
7151	7152	1
7153	7157	1
7155	7156	1
7155	7158	1
7151	7156	1
7151	7159	1
7156	7160	1
2801	2808	1
2808	2809	1
2808	5597	1
2799	2810	1
2810	2812	1
2810	2811	1
2800	2801	1
2801	2802	1
2799	2800	1
2798	2799	1
2800	2804	1
2802	2803	1
2802	2805	1
2798	2803	1
2798	2806	1
2803	2807	1
9472	9483	1
9483	9484	1
9483	9491	1
9474	9481	1
9481	9482	1
9481	5267	1
9472	9473	1
9471	9472	1
9473	9474	1
9474	9475	1
9473	9477	1
9471	9476	1
9471	9479	1
9475	9476	1
9475	9478	1
9476	9480	1
13659	13670	1
13670	13671	1
1529	13670	1
13661	13668	1
13668	13669	1
13668	10577	1
13659	13660	1
13658	13659	1
13660	13661	1
13661	13662	1
13660	13664	1
13658	13663	1
13658	13666	1
13662	13663	1
13662	13665	1
13663	13667	1
52	63	1
63	64	1
2496	63	1
54	61	1
61	62	1
42	61	1
52	53	1
51	52	1
53	54	1
54	55	1
53	57	1
51	56	1
51	59	1
55	56	1
55	58	1
56	60	1
9531	9542	1
9542	9543	1
9542	5441	1
9533	9540	1
9540	9541	1
9540	9550	1
9531	9532	1
9530	9531	1
9532	9533	1
9533	9534	1
9532	9536	1
9530	9535	1
9530	9538	1
9534	9535	1
9534	9537	1
9535	9539	1
4181	4192	1
4192	4193	1
4192	10343	1
4183	4190	1
4190	4191	1
4190	4200	1
4181	4182	1
4180	4181	1
4182	4183	1
4183	4184	1
4182	4186	1
4180	4185	1
4180	4188	1
4184	4185	1
4184	4187	1
4185	4189	1
11251	11262	1
11262	11263	1
11262	4002	1
11253	11260	1
11260	11261	1
11260	10402	1
11251	11252	1
11250	11251	1
11252	11253	1
11253	11254	1
11252	11256	1
11250	11255	1
11250	11258	1
11254	11255	1
11254	11257	1
11255	11259	1
12217	12228	1
12228	12229	1
12228	9717	1
12219	12226	1
12226	12227	1
12226	5705	1
12217	12218	1
12216	12217	1
12218	12219	1
12219	12220	1
12218	12222	1
12216	12221	1
12216	12224	1
12220	12221	1
12220	12223	1
12221	12225	1
11307	11318	1
11318	11319	1
11318	4090	1
11309	11316	1
11316	11317	1
11316	7818	1
11307	11308	1
11306	11307	1
11308	11309	1
11309	11310	1
11308	11312	1
11306	11311	1
11306	11314	1
11310	11311	1
11310	11313	1
11311	11315	1
7999	8006	1
8006	8007	1
8006	8016	1
7997	8008	1
8008	8009	1
8008	7119	1
7999	7998	1
8000	7999	1
7998	7997	1
7997	7996	1
7998	8002	1
8000	8001	1
8000	8003	1
7996	8001	1
7996	8004	1
8001	8005	1
9765	9776	1
9776	9777	1
9776	9784	1
9767	9774	1
9774	9775	1
9774	10337	1
9765	9766	1
9764	9765	1
9766	9767	1
9767	9768	1
9766	9770	1
9764	9769	1
9764	9772	1
9768	9769	1
9768	9771	1
9769	9773	1
13729	13740	1
13740	13741	1
1347	13740	1
13731	13738	1
13738	13739	1
1620	13738	1
13729	13730	1
13728	13729	1
13730	13731	1
13731	13732	1
13730	13734	1
13728	13733	1
13728	13736	1
13732	13733	1
13732	13735	1
13733	13737	1
8904	8915	1
8915	8916	1
8915	8923	1
8906	8913	1
8913	8914	1
8913	8490	1
8904	8905	1
8903	8904	1
8905	8906	1
8906	8907	1
8905	8909	1
8903	8908	1
8903	8911	1
8907	8908	1
8907	8910	1
8908	8912	1
10379	10386	1
10386	10387	1
10386	10396	1
10377	10388	1
10388	10389	1
10388	11032	1
10378	10379	1
10379	10380	1
10377	10378	1
10376	10377	1
10378	10382	1
10380	10381	1
10380	10383	1
10376	10381	1
10376	10384	1
10381	10385	1
4893	4904	1
4904	4905	1
4904	4912	1
4895	4902	1
4902	4903	1
4902	11031	1
4893	4894	1
4892	4893	1
4894	4895	1
4895	4896	1
4894	4898	1
4892	4897	1
4892	4900	1
4896	4897	1
4896	4899	1
4897	4901	1
3011	3018	1
3018	3019	1
3018	7396	1
3009	3020	1
3020	3021	1
3020	3022	1
3010	3011	1
3011	3012	1
3009	3010	1
3008	3009	1
3010	3014	1
3012	3013	1
3012	3015	1
3008	3013	1
3008	3016	1
3013	3017	1
10903	10914	1
10914	10915	1
10914	10328	1
10905	10912	1
10912	10913	1
10912	10922	1
10903	10904	1
10902	10903	1
10904	10905	1
10905	10906	1
10904	10908	1
10902	10907	1
10902	10910	1
10906	10907	1
10906	10909	1
10907	10911	1
11909	11920	1
11920	11921	1
2107	11920	1
11911	11918	1
11918	11919	1
11918	5121	1
11909	11910	1
11908	11909	1
11910	11911	1
11911	11912	1
11910	11914	1
11908	11913	1
11908	11916	1
11912	11913	1
11912	11915	1
11913	11917	1
8570	8577	1
8577	8578	1
8577	8587	1
8568	8579	1
8579	8580	1
8579	6012	1
8570	8569	1
8571	8570	1
8569	8568	1
8568	8567	1
8569	8573	1
8571	8572	1
8571	8574	1
8567	8572	1
8567	8575	1
8572	8576	1
3264	3275	1
3275	3277	1
3275	3276	1
3266	3273	1
3273	3274	1
3273	8938	1
3264	3265	1
3263	3264	1
3265	3266	1
3266	3267	1
3265	3269	1
3263	3268	1
3263	3271	1
3267	3268	1
3267	3270	1
3268	3272	1
3189	3200	1
3200	3202	1
3200	3201	1
3191	3198	1
3198	3199	1
3198	8529	1
3189	3190	1
3188	3189	1
3190	3191	1
3191	3192	1
3190	3194	1
3188	3193	1
3188	3196	1
3192	3193	1
3192	3195	1
3193	3197	1
2816	2823	1
2823	2824	1
2823	5602	1
2814	2825	1
2825	2826	1
2825	2827	1
2815	2816	1
2816	2817	1
2814	2815	1
2813	2814	1
2815	2819	1
2817	2818	1
2817	2820	1
2813	2818	1
2813	2821	1
2818	2822	1
13365	13376	1
13376	13377	1
13376	8534	1
13367	13374	1
13374	13375	1
13374	8389	1
13365	13366	1
13364	13365	1
13366	13367	1
13367	13368	1
13366	13370	1
13364	13369	1
13364	13372	1
13368	13369	1
13368	13371	1
13369	13373	1
3114	3125	1
3125	3126	1
3125	3127	1
3116	3123	1
3123	3124	1
3123	8095	1
3114	3115	1
3113	3114	1
3115	3116	1
3116	3117	1
3115	3119	1
3113	3118	1
3113	3121	1
3117	3118	1
3117	3120	1
3118	3122	1
2344	2355	1
2355	2356	1
2357	2355	1
2346	2353	1
2353	2354	1
2353	6011	1
2344	2345	1
2343	2344	1
2345	2346	1
2346	2347	1
2345	2349	1
2343	2348	1
2343	2351	1
2347	2348	1
2347	2350	1
2348	2352	1
9998	10009	1
10009	10010	1
10009	10017	1
10000	10007	1
10007	10008	1
10007	11026	1
9998	9999	1
9997	9998	1
9999	10000	1
10000	10001	1
9999	10003	1
9997	10002	1
9997	10005	1
10001	10002	1
10001	10004	1
10002	10006	1
5155	5166	1
5166	5167	1
5166	7337	1
5157	5164	1
5164	5165	1
5164	5174	1
5155	5156	1
5154	5155	1
5156	5157	1
5157	5158	1
5156	5160	1
5154	5159	1
5154	5162	1
5158	5159	1
5158	5161	1
5159	5163	1
11449	11456	1
11456	11457	1
554	11456	1
11447	11458	1
11458	11459	1
11458	4307	1
11448	11449	1
11449	11450	1
11447	11448	1
11446	11447	1
11448	11452	1
11450	11451	1
11450	11453	1
11446	11451	1
11446	11454	1
11451	11455	1
4995	5006	1
5006	5007	1
5006	5014	1
4997	5004	1
5004	5005	1
5004	8329	1
4995	4996	1
4994	4995	1
4996	4997	1
4997	4998	1
4996	5000	1
4994	4999	1
4994	5002	1
4998	4999	1
4998	5001	1
4999	5003	1
276	287	1
287	288	1
266	287	1
278	285	1
285	286	1
285	5880	1
276	277	1
275	276	1
277	278	1
278	279	1
277	281	1
275	280	1
275	283	1
279	280	1
279	282	1
280	284	1
11953	11960	1
11960	11961	1
920	11960	1
11951	11962	1
11962	11963	1
11962	5238	1
11952	11953	1
11953	11954	1
11951	11952	1
11950	11951	1
11952	11956	1
11954	11955	1
11954	11957	1
11950	11955	1
11950	11958	1
11955	11959	1
4152	4163	1
4163	4164	1
4163	4171	1
4154	4161	1
4161	4162	1
4161	7920	1
4152	4153	1
4151	4152	1
4153	4154	1
4154	4155	1
4153	4157	1
4151	4156	1
4151	4159	1
4155	4156	1
4155	4158	1
4156	4160	1
3639	3650	1
3650	3652	1
3650	3651	1
3641	3648	1
3648	3649	1
3648	10952	1
3639	3640	1
3638	3639	1
3640	3641	1
3641	3642	1
3640	3644	1
3638	3643	1
3638	3646	1
3642	3643	1
3642	3645	1
3643	3647	1
11237	11248	1
11248	11249	1
11248	4003	1
11239	11246	1
11246	11247	1
11246	11105	1
11237	11238	1
11236	11237	1
11238	11239	1
11239	11240	1
11238	11242	1
11236	11241	1
11236	11244	1
11240	11241	1
11240	11243	1
11241	11245	1
2679	2690	1
2690	2692	1
2690	2691	1
2681	2688	1
2688	2689	1
2688	4946	1
2679	2680	1
2678	2679	1
2680	2681	1
2681	2682	1
2680	2684	1
2678	2683	1
2678	2686	1
2682	2683	1
2682	2685	1
2683	2687	1
10201	10212	1
10212	10213	1
10212	10220	1
10203	10210	1
10210	10211	1
10210	10762	1
10201	10202	1
10200	10201	1
10202	10203	1
10203	10204	1
10202	10206	1
10200	10205	1
10200	10208	1
10204	10205	1
10204	10207	1
10205	10209	1
12329	12340	1
12340	12341	1
12340	10022	1
12331	12338	1
12338	12339	1
12338	5836	1
12329	12330	1
12328	12329	1
12330	12331	1
12331	12332	1
12330	12334	1
12328	12333	1
12328	12336	1
12332	12333	1
12332	12335	1
12333	12337	1
11643	11654	1
11654	11655	1
1150	11654	1
11645	11652	1
11652	11653	1
11652	4699	1
11643	11644	1
11642	11643	1
11644	11645	1
11645	11646	1
11644	11648	1
11642	11647	1
11642	11650	1
11646	11647	1
11646	11649	1
11647	11651	1
5068	5079	1
5079	5080	1
5079	9278	1
5070	5077	1
5077	5078	1
5077	5087	1
5068	5069	1
5067	5068	1
5069	5070	1
5070	5071	1
5069	5073	1
5067	5072	1
5067	5075	1
5071	5072	1
5071	5074	1
5072	5076	1
10274	10285	1
10285	10286	1
10285	7731	1
10276	10283	1
10283	10284	1
10283	10293	1
10274	10275	1
10273	10274	1
10275	10276	1
10276	10277	1
10275	10279	1
10273	10278	1
10273	10281	1
10277	10278	1
10277	10280	1
10278	10282	1
7575	7586	1
7586	7587	1
7586	7594	1
7577	7584	1
7584	7585	1
7584	10937	1
7575	7576	1
7574	7575	1
7576	7577	1
7577	7578	1
7576	7580	1
7574	7579	1
7574	7582	1
7578	7579	1
7578	7581	1
7579	7583	1
11153	11164	1
11164	11165	1
878	11164	1
11155	11162	1
11162	11163	1
11162	3814	1
11153	11154	1
11152	11153	1
11154	11155	1
11155	11156	1
11154	11158	1
11152	11157	1
11152	11160	1
11156	11157	1
11156	11159	1
11157	11161	1
9082	9089	1
9089	9090	1
9089	9439	1
9080	9091	1
9091	9092	1
9091	9099	1
9081	9082	1
9082	9083	1
9080	9081	1
9079	9080	1
9081	9085	1
9083	9084	1
9083	9086	1
9079	9084	1
9079	9087	1
9084	9088	1
535	542	1
542	543	1
546	542	1
533	544	1
544	545	1
544	5237	1
535	534	1
536	535	1
534	533	1
533	532	1
534	538	1
536	537	1
536	539	1
532	537	1
532	540	1
537	541	1
2936	2943	1
2943	2944	1
2943	6638	1
2934	2945	1
2945	2946	1
2945	2947	1
2935	2936	1
2936	2937	1
2934	2935	1
2933	2934	1
2935	2939	1
2937	2938	1
2937	2940	1
2933	2938	1
2933	2941	1
2938	2942	1
9051	9062	1
9062	9063	1
9062	10401	1
9053	9060	1
9060	9061	1
9060	9070	1
9051	9052	1
9050	9051	1
9052	9053	1
9053	9054	1
9052	9056	1
9050	9055	1
9050	9058	1
9054	9055	1
9054	9057	1
9055	9059	1
13463	13474	1
13474	13475	1
13474	9076	1
13465	13472	1
13472	13473	1
13472	8943	1
13463	13464	1
13462	13463	1
13464	13465	1
13465	13466	1
13464	13468	1
13462	13467	1
13462	13470	1
13466	13467	1
13466	13469	1
13467	13471	1
3371	3378	1
3378	3379	1
3378	9410	1
3369	3380	1
3380	3381	1
3380	3382	1
3370	3371	1
3371	3372	1
3369	3370	1
3368	3369	1
3370	3374	1
3372	3373	1
3372	3375	1
3368	3373	1
3368	3376	1
3373	3377	1
7924	7935	1
7935	7936	1
7935	6914	1
7926	7933	1
7933	7934	1
7933	7943	1
7924	7925	1
7923	7924	1
7925	7926	1
7926	7927	1
7925	7929	1
7923	7928	1
7923	7931	1
7927	7928	1
7927	7930	1
7928	7932	1
1067	1078	1
1078	1079	1
1055	1078	1
1069	1076	1
1076	1077	1
1076	5529	1
1067	1068	1
1066	1067	1
1068	1069	1
1069	1070	1
1068	1072	1
1066	1071	1
1066	1074	1
1070	1071	1
1070	1073	1
1071	1075	1
13449	13460	1
13460	13461	1
13460	10899	1
13451	13458	1
13458	13459	1
13458	8944	1
13449	13450	1
13448	13449	1
13450	13451	1
13451	13452	1
13450	13454	1
13448	13453	1
13448	13456	1
13452	13453	1
13452	13455	1
13453	13457	1
10640	10651	1
10651	10652	1
10651	3915	1
10642	10649	1
10649	10650	1
10649	10659	1
10640	10641	1
10639	10640	1
10641	10642	1
10642	10643	1
10641	10645	1
10639	10644	1
10639	10647	1
10643	10644	1
10643	10646	1
10644	10648	1
5563	5574	1
5574	5575	1
2414	5574	1
5565	5572	1
5572	5573	1
5572	5582	1
5563	5564	1
5562	5563	1
5564	5565	1
5565	5566	1
5564	5568	1
5562	5567	1
5562	5570	1
5566	5567	1
5566	5569	1
5567	5571	1
429	440	1
440	441	1
440	6298	1
431	438	1
438	439	1
417	438	1
429	430	1
428	429	1
430	431	1
431	432	1
430	434	1
428	433	1
428	436	1
432	433	1
432	435	1
433	437	1
7094	7105	1
7105	7106	1
7105	7113	1
7096	7103	1
7103	7104	1
7103	8563	1
7094	7095	1
7093	7094	1
7095	7096	1
7096	7097	1
7095	7099	1
7093	7098	1
7093	7101	1
7097	7098	1
7097	7100	1
7098	7102	1
655	666	1
666	667	1
666	10499	1
657	664	1
664	665	1
676	664	1
655	656	1
654	655	1
656	657	1
657	658	1
656	660	1
654	659	1
654	662	1
658	659	1
658	661	1
659	663	1
6642	6653	1
6653	6654	1
6653	8314	1
6644	6651	1
6651	6652	1
6651	6661	1
6642	6643	1
6641	6642	1
6643	6644	1
6644	6645	1
6643	6647	1
6641	6646	1
6641	6649	1
6645	6646	1
6645	6648	1
6646	6650	1
3431	3438	1
3438	3439	1
3438	9555	1
3429	3440	1
3440	3442	1
3440	3441	1
3430	3431	1
3431	3432	1
3429	3430	1
3428	3429	1
3430	3434	1
3432	3433	1
3432	3435	1
3428	3433	1
3428	3436	1
3433	3437	1
13001	13012	1
13012	13013	1
13012	7571	1
13003	13010	1
13010	13011	1
13010	10225	1
13001	13002	1
13000	13001	1
13002	13003	1
13003	13004	1
13002	13006	1
13000	13005	1
13000	13008	1
13004	13005	1
13004	13007	1
13005	13009	1
11363	11374	1
11374	11375	1
11374	7469	1
11365	11372	1
11372	11373	1
11372	4177	1
11363	11364	1
11362	11363	1
11364	11365	1
11365	11366	1
11364	11368	1
11362	11367	1
11362	11370	1
11366	11367	1
11366	11369	1
11367	11371	1
12707	12718	1
12718	12719	1
2504	12718	1
12709	12716	1
12716	12717	1
12716	6666	1
12707	12708	1
12706	12707	1
12708	12709	1
12709	12710	1
12708	12712	1
12706	12711	1
12706	12714	1
12710	12711	1
12710	12713	1
12711	12715	1
3978	3989	1
3989	3990	1
3989	6229	1
3980	3987	1
3987	3988	1
3987	3997	1
3978	3979	1
3977	3978	1
3979	3980	1
3980	3981	1
3979	3983	1
3977	3982	1
3977	3985	1
3981	3982	1
3981	3984	1
3982	3986	1
2254	2265	1
2265	2266	1
2267	2265	1
2256	2263	1
2263	2264	1
2263	10753	1
2254	2255	1
2253	2254	1
2255	2256	1
2256	2257	1
2255	2259	1
2253	2258	1
2253	2261	1
2257	2258	1
2257	2260	1
2258	2262	1
6584	6595	1
6595	6596	1
6595	6603	1
6586	6593	1
6593	6594	1
6593	8899	1
6584	6585	1
6583	6584	1
6585	6586	1
6586	6587	1
6585	6589	1
6583	6588	1
6583	6591	1
6587	6588	1
6587	6590	1
6588	6592	1
7502	7513	1
7513	7514	1
7513	7521	1
7504	7511	1
7511	7512	1
7511	4584	1
7502	7503	1
7501	7502	1
7503	7504	1
7504	7505	1
7503	7507	1
7501	7506	1
7501	7509	1
7505	7506	1
7505	7508	1
7506	7510	1
12763	12774	1
12774	12775	1
12774	6915	1
12765	12772	1
12772	12773	1
2476	12772	1
12763	12764	1
12762	12763	1
12764	12765	1
12765	12766	1
12764	12768	1
12762	12767	1
12762	12770	1
12766	12767	1
12766	12769	1
12767	12771	1
12973	12984	1
12984	12985	1
12984	9279	1
12975	12982	1
12982	12983	1
12982	7498	1
12973	12974	1
12972	12973	1
12974	12975	1
12975	12976	1
12974	12978	1
12972	12977	1
12972	12980	1
12976	12977	1
12976	12979	1
12977	12981	1
4385	4396	1
4396	4397	1
4396	4404	1
4387	4394	1
4394	4395	1
4394	6885	1
4385	4386	1
4384	4385	1
4386	4387	1
4387	4388	1
4386	4390	1
4384	4389	1
4384	4392	1
4388	4389	1
4388	4391	1
4389	4393	1
10728	10739	1
10739	10740	1
10739	10747	1
10730	10737	1
10737	10738	1
10737	5894	1
10728	10729	1
10727	10728	1
10729	10730	1
10730	10731	1
10729	10733	1
10727	10732	1
10727	10735	1
10731	10732	1
10731	10734	1
10732	10736	1
3654	3665	1
3665	3666	1
3665	3667	1
3656	3663	1
3663	3664	1
3663	10957	1
3654	3655	1
3653	3654	1
3655	3656	1
3656	3657	1
3655	3659	1
3653	3658	1
3653	3661	1
3657	3658	1
3657	3660	1
3658	3662	1
10874	10885	1
10885	10886	1
10885	10869	1
10876	10883	1
10883	10884	1
10883	10893	1
10874	10875	1
10873	10874	1
10875	10876	1
10876	10877	1
10875	10879	1
10873	10878	1
10873	10881	1
10877	10878	1
10877	10880	1
10878	10882	1
3491	3498	1
3498	3499	1
3498	9732	1
3489	3500	1
3500	3501	1
3500	3502	1
3490	3491	1
3491	3492	1
3489	3490	1
3488	3489	1
3490	3494	1
3492	3493	1
3492	3495	1
3488	3493	1
3488	3496	1
3493	3497	1
12959	12970	1
12970	12971	1
12970	7468	1
12961	12968	1
12968	12969	1
12968	9467	1
12959	12960	1
12958	12959	1
12960	12961	1
12961	12962	1
12960	12964	1
12958	12963	1
12958	12966	1
12962	12963	1
12962	12965	1
12963	12967	1
9969	9980	1
9980	9981	1
9980	9988	1
9971	9978	1
9978	9979	1
9978	3945	1
9969	9970	1
9968	9969	1
9970	9971	1
9971	9972	1
9970	9974	1
9968	9973	1
9968	9976	1
9972	9973	1
9972	9975	1
9973	9977	1
11293	11304	1
11304	11305	1
11304	4089	1
11295	11302	1
11302	11303	1
11302	10226	1
11293	11294	1
11292	11293	1
11294	11295	1
11295	11296	1
11294	11298	1
11292	11297	1
11292	11300	1
11296	11297	1
11296	11299	1
11297	11301	1
3401	3408	1
3408	3409	1
3408	9496	1
3399	3410	1
3410	3412	1
3410	3411	1
3400	3401	1
3401	3402	1
3399	3400	1
3398	3399	1
3400	3404	1
3402	3403	1
3402	3405	1
3398	3403	1
3398	3406	1
3403	3407	1
9940	9951	1
9951	9952	1
9951	9959	1
9942	9949	1
9949	9950	1
9949	5295	1
9940	9941	1
9939	9940	1
9941	9942	1
9942	9943	1
9941	9945	1
9939	9944	1
9939	9947	1
9943	9944	1
9943	9946	1
9944	9948	1
4922	4933	1
4933	4934	1
4933	4941	1
4924	4931	1
4931	4932	1
4931	5977	1
4922	4923	1
4921	4922	1
4923	4924	1
4924	4925	1
4923	4927	1
4921	4926	1
4921	4929	1
4925	4926	1
4925	4928	1
4926	4930	1
2574	2585	1
2585	2586	1
2585	2587	1
2576	2583	1
2583	2584	1
2583	3823	1
2574	2575	1
2573	2574	1
2575	2576	1
2576	2577	1
2575	2579	1
2573	2578	1
2573	2581	1
2577	2578	1
2577	2580	1
2578	2582	1
3026	3033	1
3033	3034	1
3033	7425	1
3024	3035	1
3035	3036	1
3035	3037	1
3025	3026	1
3026	3027	1
3024	3025	1
3023	3024	1
3025	3029	1
3027	3028	1
3027	3030	1
3023	3028	1
3023	3031	1
3028	3032	1
6846	6857	1
6857	6858	1
6857	6667	1
6848	6855	1
6855	6856	1
6855	6865	1
6846	6847	1
6845	6846	1
6847	6848	1
6848	6849	1
6847	6851	1
6845	6850	1
6845	6853	1
6849	6850	1
6849	6852	1
6850	6854	1
11937	11948	1
11948	11949	1
11948	5179	1
11939	11946	1
11946	11947	1
11946	8725	1
11937	11938	1
11936	11937	1
11938	11939	1
11939	11940	1
11938	11942	1
11936	11941	1
11936	11944	1
11940	11941	1
11940	11943	1
11941	11945	1
11993	12004	1
12004	12005	1
12004	8021	1
11995	12002	1
12002	12003	1
12002	5398	1
11993	11994	1
11992	11993	1
11994	11995	1
11995	11996	1
11994	11998	1
11992	11997	1
11992	12000	1
11996	11997	1
11996	11999	1
11997	12001	1
580	591	1
591	592	1
591	10411	1
582	589	1
589	590	1
568	589	1
580	581	1
579	580	1
581	582	1
582	583	1
581	585	1
579	584	1
579	587	1
583	584	1
583	586	1
584	588	1
13197	13208	1
13208	13209	1
13208	9630	1
13199	13206	1
13206	13207	1
13206	8152	1
13197	13198	1
13196	13197	1
13198	13199	1
13199	13200	1
13198	13202	1
13196	13201	1
13196	13204	1
13200	13201	1
13200	13203	1
13201	13205	1
12063	12074	1
12074	12075	1
12074	10519	1
12065	12072	1
12072	12073	1
12072	5499	1
12063	12064	1
12062	12063	1
12064	12065	1
12065	12066	1
12064	12068	1
12062	12067	1
12062	12070	1
12066	12067	1
12066	12069	1
12067	12071	1
6395	6406	1
6406	6407	1
1761	6406	1
6397	6404	1
6404	6405	1
6404	6414	1
6395	6396	1
6394	6395	1
6396	6397	1
6397	6398	1
6396	6400	1
6394	6399	1
6394	6402	1
6398	6399	1
6398	6401	1
6399	6403	1
3279	3290	1
3290	3292	1
3290	3291	1
3281	3288	1
3288	3289	1
3288	8982	1
3279	3280	1
3278	3279	1
3280	3281	1
3281	3282	1
3280	3284	1
3278	3283	1
3278	3286	1
3282	3283	1
3282	3285	1
3283	3287	1
3159	3170	1
3170	3172	1
3170	3171	1
3161	3168	1
3168	3169	1
3168	8519	1
3159	3160	1
3158	3159	1
3160	3161	1
3161	3162	1
3160	3164	1
3158	3163	1
3158	3166	1
3162	3163	1
3162	3165	1
3163	3167	1
11685	11696	1
11696	11697	1
11696	8286	1
11687	11694	1
11694	11695	1
11694	4728	1
11685	11686	1
11684	11685	1
11686	11687	1
11687	11688	1
11686	11690	1
11684	11689	1
11684	11692	1
11688	11689	1
11688	11691	1
11689	11693	1
12919	12926	1
12926	12927	1
12926	7351	1
12917	12928	1
12928	12929	1
12928	8665	1
12918	12919	1
12919	12920	1
12917	12918	1
12916	12917	1
12918	12922	1
12920	12921	1
12920	12923	1
12916	12921	1
12916	12924	1
12921	12925	1
12315	12326	1
12326	12327	1
12326	5835	1
12317	12324	1
12324	12325	1
12324	8608	1
12315	12316	1
12314	12315	1
12316	12317	1
12317	12318	1
12316	12320	1
12314	12319	1
12314	12322	1
12318	12319	1
12318	12321	1
12319	12323	1
12343	12354	1
12354	12355	1
12354	5864	1
12345	12352	1
12352	12353	1
12352	10270	1
12343	12344	1
12342	12343	1
12344	12345	1
12345	12346	1
12344	12348	1
12342	12347	1
12342	12350	1
12346	12347	1
12346	12349	1
12347	12351	1
3356	3363	1
3363	3364	1
3363	9133	1
3354	3365	1
3365	3366	1
3365	3367	1
3355	3356	1
3356	3357	1
3354	3355	1
3353	3354	1
3355	3359	1
3357	3358	1
3357	3360	1
3353	3358	1
3353	3361	1
3358	3362	1
9196	9207	1
9207	9208	1
9207	9215	1
9198	9205	1
9205	9206	1
9205	9857	1
9196	9197	1
9195	9196	1
9197	9198	1
9198	9199	1
9197	9201	1
9195	9200	1
9195	9203	1
9199	9200	1
9199	9202	1
9200	9204	1
9414	9425	1
9425	9426	1
9425	8344	1
9416	9423	1
9423	9424	1
9423	9433	1
9414	9415	1
9413	9414	1
9415	9416	1
9416	9417	1
9415	9419	1
9413	9418	1
9413	9421	1
9417	9418	1
9417	9420	1
9418	9422	1
12133	12144	1
12144	12145	1
12144	5558	1
12135	12142	1
12142	12143	1
12142	8241	1
12133	12134	1
12132	12133	1
12134	12135	1
12135	12136	1
12134	12138	1
12132	12137	1
12132	12140	1
12136	12137	1
12136	12139	1
12137	12141	1
4966	4977	1
4977	4978	1
4977	10416	1
4968	4975	1
4975	4976	1
4975	4985	1
4966	4967	1
4965	4966	1
4967	4968	1
4968	4969	1
4967	4971	1
4965	4970	1
4965	4973	1
4969	4970	1
4969	4972	1
4970	4974	1
1966	1977	1
1977	1978	1
1979	1977	1
1968	1975	1
1975	1976	1
1975	4467	1
1966	1967	1
1965	1966	1
1967	1968	1
1968	1969	1
1967	1971	1
1965	1970	1
1965	1973	1
1969	1970	1
1969	1972	1
1970	1974	1
7764	7775	1
7775	7776	1
7775	6870	1
7766	7773	1
7773	7774	1
7773	7783	1
7764	7765	1
7763	7764	1
7765	7766	1
7766	7767	1
7765	7769	1
7763	7768	1
7763	7771	1
7767	7768	1
7767	7770	1
7768	7772	1
6555	6566	1
6566	6567	1
6566	9726	1
6557	6564	1
6564	6565	1
6564	6574	1
6555	6556	1
6554	6555	1
6556	6557	1
6557	6558	1
6556	6560	1
6554	6559	1
6554	6562	1
6558	6559	1
6558	6561	1
6559	6563	1
5475	5486	1
5486	5487	1
5486	5494	1
5477	5484	1
5484	5485	1
5484	8636	1
5475	5476	1
5474	5475	1
5476	5477	1
5477	5478	1
5476	5480	1
5474	5479	1
5474	5482	1
5478	5479	1
5478	5481	1
5479	5483	1
8670	8681	1
8681	8682	1
8681	3944	1
8672	8679	1
8679	8680	1
8679	8689	1
8670	8671	1
8669	8670	1
8671	8672	1
8672	8673	1
8671	8675	1
8669	8674	1
8669	8677	1
8673	8674	1
8673	8676	1
8674	8678	1
11965	11976	1
11976	11977	1
11976	7250	1
11967	11974	1
11974	11975	1
11974	5310	1
11965	11966	1
11964	11965	1
11966	11967	1
11967	11968	1
11966	11970	1
11964	11969	1
11964	11972	1
11968	11969	1
11968	11971	1
11969	11973	1
13673	13684	1
13684	13685	1
2214	13684	1
13675	13682	1
13682	13683	1
13682	10578	1
13673	13674	1
13672	13673	1
13674	13675	1
13675	13676	1
13674	13678	1
13672	13677	1
13672	13680	1
13676	13677	1
13676	13679	1
13677	13681	1
11601	11612	1
11612	11613	1
11612	4613	1
11603	11610	1
11610	11611	1
342	11610	1
11601	11602	1
11600	11601	1
11602	11603	1
11603	11604	1
11602	11606	1
11600	11605	1
11600	11608	1
11604	11605	1
11604	11607	1
11605	11609	1
11405	11416	1
11416	11417	1
11416	4758	1
11407	11414	1
11414	11415	1
11414	4234	1
11405	11406	1
11404	11405	1
11406	11407	1
11407	11408	1
11406	11410	1
11404	11409	1
11404	11412	1
11408	11409	1
11408	11411	1
11409	11413	1
13561	13572	1
13572	13573	1
13572	10505	1
13563	13570	1
13570	13571	1
13570	9819	1
13561	13562	1
13560	13561	1
13562	13563	1
13563	13564	1
13562	13566	1
13560	13565	1
13560	13568	1
13564	13565	1
13564	13567	1
13565	13569	1
10582	10593	1
10593	10594	1
10593	9497	1
10584	10591	1
10591	10592	1
10591	10601	1
10582	10583	1
10581	10582	1
10583	10584	1
10584	10585	1
10583	10587	1
10581	10586	1
10581	10589	1
10585	10586	1
10585	10588	1
10586	10590	1
4312	4323	1
4323	4324	1
4323	11076	1
4314	4321	1
4321	4322	1
4321	4331	1
4312	4313	1
4311	4312	1
4313	4314	1
4314	4315	1
4313	4317	1
4311	4316	1
4311	4319	1
4315	4316	1
4315	4318	1
4316	4320	1
2452	2463	1
2463	2464	1
2440	2463	1
2454	2461	1
2461	2462	1
2461	4555	1
2452	2453	1
2451	2452	1
2453	2454	1
2454	2455	1
2453	2457	1
2451	2456	1
2451	2459	1
2455	2456	1
2455	2458	1
2456	2460	1
12651	12662	1
12662	12663	1
12662	6477	1
12653	12660	1
12660	12661	1
12660	7454	1
12651	12652	1
12650	12651	1
12652	12653	1
12653	12654	1
12652	12656	1
12650	12655	1
12650	12658	1
12654	12655	1
12654	12657	1
12655	12659	1
838	849	1
849	850	1
851	849	1
840	847	1
847	848	1
847	6239	1
838	839	1
837	838	1
839	840	1
840	841	1
839	843	1
837	842	1
837	845	1
841	842	1
841	844	1
842	846	1
5315	5326	1
5326	5327	1
5326	10023	1
5317	5324	1
5324	5325	1
5324	5334	1
5315	5316	1
5314	5315	1
5316	5317	1
5317	5318	1
5316	5320	1
5314	5319	1
5314	5322	1
5318	5319	1
5318	5321	1
5319	5323	1
5813	5820	1
5820	5821	1
5820	5830	1
5811	5822	1
5822	5823	1
5822	5889	1
5813	5812	1
5814	5813	1
5812	5811	1
5811	5810	1
5812	5816	1
5814	5815	1
5814	5817	1
5810	5815	1
5810	5818	1
5815	5819	1
11279	11290	1
11290	11291	1
11290	6681	1
11281	11288	1
11288	11289	1
11288	4061	1
11279	11280	1
11278	11279	1
11280	11281	1
11281	11282	1
11280	11284	1
11278	11283	1
11278	11286	1
11282	11283	1
11282	11285	1
11283	11287	1
3384	3395	1
3395	3396	1
3395	3397	1
3386	3393	1
3393	3394	1
3393	9409	1
3384	3385	1
3383	3384	1
3385	3386	1
3386	3387	1
3385	3389	1
3383	3388	1
3383	3391	1
3387	3388	1
3387	3390	1
3388	3392	1
2086	2097	1
2097	2098	1
2099	2097	1
2088	2095	1
2095	2096	1
2095	9220	1
2086	2087	1
2085	2086	1
2087	2088	1
2088	2089	1
2087	2091	1
2085	2090	1
2085	2093	1
2089	2090	1
2089	2092	1
2090	2094	1
3699	3710	1
3710	3712	1
3710	3711	1
3701	3708	1
3708	3709	1
3708	11120	1
3699	3700	1
3698	3699	1
3700	3701	1
3701	3702	1
3700	3704	1
3698	3703	1
3698	3706	1
3702	3703	1
3702	3705	1
3703	3707	1
8948	8959	1
8959	8960	1
8959	8967	1
8950	8957	1
8957	8958	1
8957	6501	1
8948	8949	1
8947	8948	1
8949	8950	1
8950	8951	1
8949	8953	1
8947	8952	1
8947	8955	1
8951	8952	1
8951	8954	1
8952	8956	1
1707	1718	1
1718	1719	1
1718	7987	1
1709	1716	1
1716	1717	1
1695	1716	1
1707	1708	1
1706	1707	1
1708	1709	1
1709	1710	1
1708	1712	1
1706	1711	1
1706	1714	1
1710	1711	1
1710	1713	1
1711	1715	1
8497	8504	1
8504	8505	1
8504	8514	1
8495	8506	1
8506	8507	1
8506	5369	1
8496	8497	1
8497	8498	1
8495	8496	1
8494	8495	1
8496	8500	1
8498	8499	1
8498	8501	1
8494	8499	1
8494	8502	1
8499	8503	1
12077	12088	1
12088	12089	1
12088	11016	1
12079	12086	1
12086	12087	1
12086	5528	1
12077	12078	1
12076	12077	1
12078	12079	1
12079	12080	1
12078	12082	1
12076	12081	1
12076	12084	1
12080	12081	1
12080	12083	1
12081	12085	1
11545	11556	1
11556	11557	1
11556	11104	1
11547	11554	1
11554	11555	1
11554	4525	1
11545	11546	1
11544	11545	1
11546	11547	1
11547	11548	1
11546	11550	1
11544	11549	1
11544	11552	1
11548	11549	1
11548	11551	1
11549	11553	1
13071	13082	1
13082	13083	1
13082	7817	1
13073	13080	1
13080	13081	1
13080	8826	1
13071	13072	1
13070	13071	1
13072	13073	1
13073	13074	1
13072	13076	1
13070	13075	1
13070	13078	1
13074	13075	1
13074	13077	1
13075	13079	1
2649	2660	1
2660	2661	1
2660	2662	1
2651	2658	1
2658	2659	1
2658	4346	1
2649	2650	1
2648	2649	1
2650	2651	1
2651	2652	1
2650	2654	1
2648	2653	1
2648	2656	1
2652	2653	1
2652	2655	1
2653	2657	1
6045	6056	1
6056	6057	1
6056	7541	1
6047	6054	1
6054	6055	1
6054	6069	1
6045	6046	1
6044	6045	1
6046	6047	1
6047	6048	1
6046	6050	1
6044	6049	1
6044	6052	1
6048	6049	1
6048	6051	1
6049	6053	1
13603	13614	1
13614	13615	1
13614	9935	1
13605	13612	1
13612	13613	1
13612	10299	1
13603	13604	1
13602	13603	1
13604	13605	1
13605	13606	1
13604	13608	1
13602	13607	1
13602	13610	1
13606	13607	1
13606	13609	1
13607	13611	1
3144	3155	1
3155	3156	1
3155	3157	1
3146	3153	1
3153	3154	1
3153	8388	1
3144	3145	1
3143	3144	1
3145	3146	1
3146	3147	1
3145	3149	1
3143	3148	1
3143	3151	1
3147	3148	1
3147	3150	1
3148	3152	1
3101	3108	1
3108	3109	1
3108	8065	1
3099	3110	1
3110	3112	1
3110	3111	1
3100	3101	1
3101	3102	1
3099	3100	1
3098	3099	1
3100	3104	1
3102	3103	1
3102	3105	1
3098	3103	1
3098	3106	1
3103	3107	1
13645	13656	1
13656	13657	1
13656	11002	1
13647	13654	1
13654	13655	1
13654	10461	1
13645	13646	1
13644	13645	1
13646	13647	1
13647	13648	1
13646	13650	1
13644	13649	1
13644	13652	1
13648	13649	1
13648	13651	1
13649	13653	1
3176	3183	1
3183	3184	1
3183	8535	1
3174	3185	1
3185	3187	1
3185	3186	1
3175	3176	1
3176	3177	1
3174	3175	1
3173	3174	1
3175	3179	1
3177	3178	1
3177	3180	1
3173	3178	1
3173	3181	1
3178	3182	1
10977	10988	1
10988	10989	1
10988	10996	1
10979	10986	1
10986	10987	1
1091	10986	1
10977	10978	1
10976	10977	1
10978	10979	1
10979	10980	1
10978	10982	1
10976	10981	1
10976	10984	1
10980	10981	1
10980	10983	1
10981	10985	1
12553	12564	1
12564	12565	1
12564	7176	1
12555	12562	1
12562	12563	1
12562	6273	1
12553	12554	1
12552	12553	1
12554	12555	1
12555	12556	1
12554	12558	1
12552	12557	1
12552	12560	1
12556	12557	1
12556	12559	1
12557	12561	1
12035	12046	1
12046	12047	1
12046	5471	1
12037	12044	1
12044	12045	1
12044	9862	1
12035	12036	1
12034	12035	1
12036	12037	1
12037	12038	1
12036	12040	1
12034	12039	1
12034	12042	1
12038	12039	1
12038	12041	1
12039	12043	1
3219	3230	1
3230	3231	1
3230	3232	1
3221	3228	1
3228	3229	1
3228	8856	1
3219	3220	1
3218	3219	1
3220	3221	1
3221	3222	1
3220	3224	1
3218	3223	1
3218	3226	1
3222	3223	1
3222	3225	1
3223	3227	1
12819	12830	1
12830	12831	1
12830	9337	1
12821	12828	1
12828	12829	1
12828	7032	1
12819	12820	1
12818	12819	1
12820	12821	1
12821	12822	1
12820	12824	1
12818	12823	1
12818	12826	1
12822	12823	1
12822	12825	1
12823	12827	1
8128	8139	1
8139	8140	1
8139	8147	1
8130	8137	1
8137	8138	1
8137	9506	1
8128	8129	1
8127	8128	1
8129	8130	1
8130	8131	1
8129	8133	1
8127	8132	1
8127	8135	1
8131	8132	1
8131	8134	1
8132	8136	1
11533	11540	1
11540	11541	1
11540	5895	1
11531	11542	1
11542	11543	1
11542	4526	1
11533	11532	1
11534	11533	1
11532	11531	1
11531	11530	1
11532	11536	1
11534	11535	1
11534	11537	1
11530	11535	1
11530	11538	1
11535	11539	1
12231	12242	1
12242	12243	1
12242	5734	1
12233	12240	1
12240	12241	1
12240	6128	1
12231	12232	1
12230	12231	1
12232	12233	1
12233	12234	1
12232	12236	1
12230	12235	1
12230	12238	1
12234	12235	1
12234	12237	1
12235	12239	1
13505	13516	1
13516	13517	1
13516	9031	1
13507	13514	1
13514	13515	1
13514	10607	1
13505	13506	1
13504	13505	1
13506	13507	1
13507	13508	1
13506	13510	1
13504	13509	1
13504	13512	1
13508	13509	1
13508	13511	1
13509	13513	1
2981	2988	1
2988	2989	1
2988	6997	1
2979	2990	1
2990	2991	1
2990	2992	1
2980	2981	1
2981	2982	1
2979	2980	1
2978	2979	1
2980	2984	1
2982	2983	1
2982	2985	1
2978	2983	1
2978	2986	1
2983	2987	1
8641	8652	1
8652	8653	1
8652	5704	1
8643	8650	1
8650	8651	1
8650	8660	1
8641	8642	1
8640	8641	1
8642	8643	1
8643	8644	1
8642	8646	1
8640	8645	1
8640	8648	1
8644	8645	1
8644	8647	1
8645	8649	1
5665	5676	1
5676	5677	1
5676	5684	1
5667	5674	1
5674	5675	1
5674	4671	1
5665	5666	1
5664	5665	1
5666	5667	1
5667	5668	1
5666	5670	1
5664	5669	1
5664	5672	1
5668	5669	1
5668	5671	1
5669	5673	1
1874	1885	1
1885	1886	1
1885	10708	1
1876	1883	1
1883	1884	1
1887	1883	1
1874	1875	1
1873	1874	1
1875	1876	1
1876	1877	1
1875	1879	1
1873	1878	1
1873	1881	1
1877	1878	1
1877	1880	1
1878	1882	1
5987	5998	1
5998	5999	1
5998	7186	1
5989	5996	1
5996	5997	1
5996	6006	1
5987	5988	1
5986	5987	1
5988	5989	1
5989	5990	1
5988	5992	1
5986	5991	1
5986	5994	1
5990	5991	1
5990	5993	1
5991	5995	1
13743	13754	1
13754	13755	1
634	13754	1
13745	13752	1
13752	13753	1
1578	13752	1
13743	13744	1
13742	13743	1
13744	13745	1
13745	13746	1
13744	13748	1
13742	13747	1
13742	13750	1
13746	13747	1
13746	13749	1
13747	13751	1
2891	2898	1
2898	2899	1
2898	6506	1
2889	2900	1
2900	2902	1
2900	2901	1
2890	2891	1
2891	2892	1
2889	2890	1
2888	2889	1
2890	2894	1
2892	2893	1
2892	2895	1
2888	2893	1
2888	2896	1
2893	2897	1
9254	9265	1
9265	9266	1
9265	9273	1
9256	9263	1
9263	9264	1
9263	4636	1
9254	9255	1
9253	9254	1
9255	9256	1
9256	9257	1
9255	9259	1
9253	9258	1
9253	9261	1
9257	9258	1
9257	9260	1
9258	9262	1
5448	5455	1
5455	5456	1
5455	4918	1
5446	5457	1
5457	5458	1
5457	5465	1
5447	5448	1
5448	5449	1
5446	5447	1
5445	5446	1
5447	5451	1
5449	5450	1
5449	5452	1
5445	5450	1
5445	5453	1
5450	5454	1
13043	13054	1
13054	13055	1
13054	7672	1
13045	13052	1
13052	13053	1
13052	10767	1
13043	13044	1
13042	13043	1
13044	13045	1
13045	13046	1
13044	13048	1
13042	13047	1
13042	13050	1
13046	13047	1
13046	13049	1
13047	13051	1
12371	12382	1
12382	12383	1
12382	9336	1
12373	12380	1
12380	12381	1
12380	5939	1
12371	12372	1
12370	12371	1
12372	12373	1
12373	12374	1
12372	12376	1
12370	12375	1
12370	12378	1
12374	12375	1
12374	12377	1
12375	12379	1
10772	10783	1
10783	10784	1
10783	6938	1
10774	10781	1
10781	10782	1
10781	10791	1
10772	10773	1
10771	10772	1
10773	10774	1
10774	10775	1
10773	10777	1
10771	10776	1
10771	10779	1
10775	10776	1
10775	10778	1
10776	10780	1
2769	2780	1
2780	2782	1
2780	2781	1
2771	2778	1
2778	2779	1
2778	5368	1
2769	2770	1
2768	2769	1
2770	2771	1
2771	2772	1
2770	2774	1
2768	2773	1
2768	2776	1
2772	2773	1
2772	2775	1
2773	2777	1
13435	13446	1
13446	13447	1
13446	9789	1
13437	13444	1
13444	13445	1
13444	8798	1
13435	13436	1
13434	13435	1
13436	13437	1
13437	13438	1
13436	13440	1
13434	13439	1
13434	13442	1
13438	13439	1
13438	13441	1
13439	13443	1
9694	9701	1
9701	9702	1
9701	9761	1
9692	9703	1
9703	9704	1
9703	9711	1
9693	9694	1
9694	9695	1
9692	9693	1
9691	9692	1
9693	9697	1
9695	9696	1
9695	9698	1
9691	9696	1
9691	9699	1
9696	9700	1
11195	11206	1
11206	11207	1
11206	3858	1
11197	11204	1
11204	11205	1
11204	6551	1
11195	11196	1
11194	11195	1
11196	11197	1
11197	11198	1
11196	11200	1
11194	11199	1
11194	11202	1
11198	11199	1
11198	11201	1
11199	11203	1
11463	11470	1
11470	11471	1
11470	9847	1
11461	11472	1
11472	11473	1
11472	4337	1
11463	11462	1
11464	11463	1
11462	11461	1
11461	11460	1
11462	11466	1
11464	11465	1
11464	11467	1
11460	11465	1
11460	11468	1
11465	11469	1
2619	2630	1
2630	2632	1
2630	2631	1
2621	2628	1
2628	2629	1
2628	4235	1
2619	2620	1
2618	2619	1
2620	2621	1
2621	2622	1
2620	2624	1
2618	2623	1
2618	2626	1
2622	2623	1
2622	2625	1
2623	2627	1
3084	3095	1
3095	3096	1
3095	3097	1
3086	3093	1
3093	3094	1
3093	8050	1
3084	3085	1
3083	3084	1
3085	3086	1
3086	3087	1
3085	3089	1
3083	3088	1
3083	3091	1
3087	3088	1
3087	3090	1
3088	3092	1
13281	13292	1
13292	13293	1
13292	8242	1
13283	13290	1
13290	13291	1
13290	9104	1
13281	13282	1
13280	13281	1
13282	13283	1
13283	13284	1
13282	13286	1
13280	13285	1
13280	13288	1
13284	13285	1
13284	13287	1
13285	13289	1
5738	5749	1
5749	5750	1
5749	7220	1
5740	5747	1
5747	5748	1
5747	5757	1
5738	5739	1
5737	5738	1
5739	5740	1
5740	5741	1
5739	5743	1
5737	5742	1
5737	5745	1
5741	5742	1
5741	5744	1
5742	5746	1
9736	9747	1
9747	9748	1
9747	9755	1
9738	9745	1
9745	9746	1
9745	8417	1
9736	9737	1
9735	9736	1
9737	9738	1
9738	9739	1
9737	9741	1
9735	9740	1
9735	9743	1
9739	9740	1
9739	9742	1
9740	9744	1
10245	10256	1
10256	10257	1
10256	10264	1
10247	10254	1
10254	10255	1
10254	7992	1
10245	10246	1
10244	10245	1
10246	10247	1
10247	10248	1
10246	10250	1
10244	10249	1
10244	10252	1
10248	10249	1
10248	10251	1
10249	10253	1
12903	12914	1
12914	12915	1
12914	7352	1
12905	12912	1
12912	12913	1
12912	9964	1
12903	12904	1
12902	12903	1
12904	12905	1
12905	12906	1
12904	12908	1
12902	12907	1
12902	12910	1
12906	12907	1
12906	12909	1
12907	12911	1
2996	3003	1
3003	3004	1
3003	7278	1
2994	3005	1
3005	3007	1
3005	3006	1
2995	2996	1
2996	2997	1
2994	2995	1
2993	2994	1
2995	2999	1
2997	2998	1
2997	3000	1
2993	2998	1
2993	3001	1
2998	3002	1
10174	10181	1
10181	10182	1
10181	8855	1
10172	10183	1
10183	10184	1
10183	10191	1
10173	10174	1
10174	10175	1
10172	10173	1
10171	10172	1
10173	10177	1
10175	10176	1
10175	10178	1
10171	10176	1
10171	10179	1
10176	10180	1
2829	2840	1
2840	2841	1
2840	2842	1
2831	2838	1
2838	2839	1
2838	5699	1
2829	2830	1
2828	2829	1
2830	2831	1
2831	2832	1
2830	2834	1
2828	2833	1
2828	2836	1
2832	2833	1
2832	2835	1
2833	2837	1
4791	4802	1
4802	4803	1
4802	4825	1
4793	4800	1
4800	4801	1
4800	4810	1
4791	4792	1
4790	4791	1
4792	4793	1
4793	4794	1
4792	4796	1
4790	4795	1
4790	4798	1
4794	4795	1
4794	4797	1
4795	4799	1
6249	6260	1
6260	6261	1
6260	6448	1
6251	6258	1
6258	6259	1
6258	6268	1
6249	6250	1
6248	6249	1
6250	6251	1
6251	6252	1
6250	6254	1
6248	6253	1
6248	6256	1
6252	6253	1
6252	6255	1
6253	6257	1
12567	12578	1
12578	12579	1
1787	12578	1
12569	12576	1
12576	12577	1
12576	6288	1
12567	12568	1
12566	12567	1
12568	12569	1
12569	12570	1
12568	12572	1
12566	12571	1
12566	12574	1
12570	12571	1
12570	12573	1
12571	12575	1
5709	5720	1
5720	5721	1
5720	9818	1
5711	5718	1
5718	5719	1
5718	5728	1
5709	5710	1
5708	5709	1
5710	5711	1
5711	5712	1
5710	5714	1
5708	5713	1
5708	5716	1
5712	5713	1
5712	5715	1
5713	5717	1
8422	8433	1
8433	8434	1
8433	5426	1
8424	8431	1
8431	8432	1
8431	8441	1
8422	8423	1
8421	8422	1
8423	8424	1
8424	8425	1
8423	8427	1
8421	8426	1
8421	8429	1
8425	8426	1
8425	8428	1
8426	8430	1
1921	1932	1
1932	1933	1
1932	1934	1
1923	1930	1
1930	1931	1
1909	1930	1
1921	1922	1
1920	1921	1
1922	1923	1
1923	1924	1
1922	1926	1
1920	1925	1
1920	1928	1
1924	1925	1
1924	1927	1
1925	1929	1
7123	7134	1
7134	7135	1
7134	6390	1
7125	7132	1
7132	7133	1
7132	7147	1
7123	7124	1
7122	7123	1
7124	7125	1
7125	7126	1
7124	7128	1
7122	7127	1
7122	7130	1
7126	7127	1
7126	7129	1
7127	7131	1
5373	5384	1
5384	5385	1
5384	5392	1
5375	5382	1
5382	5383	1
5382	10635	1
5373	5374	1
5372	5373	1
5374	5375	1
5375	5376	1
5374	5378	1
5372	5377	1
5372	5380	1
5376	5377	1
5376	5379	1
5377	5381	1
12637	12648	1
12648	12649	1
12648	7118	1
12639	12646	1
12646	12647	1
12646	6478	1
12637	12638	1
12636	12637	1
12638	12639	1
12639	12640	1
12638	12642	1
12636	12641	1
12636	12644	1
12640	12641	1
12640	12643	1
12641	12645	1
7371	7382	1
7382	7383	1
7382	9366	1
7373	7380	1
7380	7381	1
7380	7390	1
7371	7372	1
7370	7371	1
7372	7373	1
7373	7374	1
7372	7376	1
7370	7375	1
7370	7378	1
7374	7375	1
7374	7377	1
7375	7379	1
10143	10154	1
10154	10155	1
1317	10154	1
10145	10152	1
10152	10153	1
10152	10162	1
10143	10144	1
10142	10143	1
10144	10145	1
10145	10146	1
10144	10148	1
10142	10147	1
10142	10150	1
10146	10147	1
10146	10149	1
10147	10151	1
11923	11934	1
11934	11935	1
11934	5180	1
11925	11932	1
11932	11933	1
2275	11932	1
11923	11924	1
11922	11923	1
11924	11925	1
11925	11926	1
11924	11928	1
11922	11927	1
11922	11930	1
11926	11927	1
11926	11929	1
11927	11931	1
8612	8623	1
8623	8624	1
8623	8631	1
8614	8621	1
8621	8622	1
8621	9308	1
8612	8613	1
8611	8612	1
8613	8614	1
8614	8615	1
8613	8617	1
8611	8616	1
8611	8619	1
8615	8616	1
8615	8618	1
8616	8620	1
6132	6143	1
6143	6144	1
6143	7361	1
6134	6141	1
6141	6142	1
6141	6151	1
6132	6133	1
6131	6132	1
6133	6134	1
6134	6135	1
6133	6137	1
6131	6136	1
6131	6139	1
6135	6136	1
6135	6138	1
6136	6140	1
11855	11862	1
11862	11863	1
11862	5064	1
11853	11864	1
11864	11865	1
11864	10520	1
11855	11854	1
11856	11855	1
11854	11853	1
11853	11852	1
11854	11858	1
11856	11857	1
11856	11859	1
11852	11857	1
11852	11860	1
11857	11861	1
6963	6974	1
6974	6975	1
6974	6982	1
6965	6972	1
6972	6973	1
6972	5019	1
6963	6964	1
6962	6963	1
6964	6965	1
6965	6966	1
6964	6968	1
6962	6967	1
6962	6970	1
6966	6967	1
6966	6969	1
6967	6971	1
4210	4221	1
4221	4222	1
4221	4229	1
4212	4219	1
4219	4220	1
4219	7308	1
4210	4211	1
4209	4210	1
4211	4212	1
4212	4213	1
4211	4215	1
4209	4214	1
4209	4217	1
4213	4214	1
4213	4216	1
4214	4218	1
8831	8842	1
8842	8843	1
8842	8850	1
8833	8840	1
8840	8841	1
8840	9594	1
8831	8832	1
8830	8831	1
8832	8833	1
8833	8834	1
8832	8836	1
8830	8835	1
8830	8838	1
8834	8835	1
8834	8837	1
8835	8839	1
6482	6493	1
6493	6494	1
6493	6507	1
6484	6491	1
6491	6492	1
6491	9716	1
6482	6483	1
6481	6482	1
6483	6484	1
6484	6485	1
6483	6487	1
6481	6486	1
6481	6489	1
6485	6486	1
6485	6488	1
6486	6490	1
10085	10096	1
10096	10097	1
10096	5470	1
10087	10094	1
10094	10095	1
10094	10109	1
10085	10086	1
10084	10085	1
10086	10087	1
10087	10088	1
10086	10090	1
10084	10089	1
10084	10092	1
10088	10089	1
10088	10091	1
10089	10093	1
12947	12954	1
12954	12955	1
1396	12954	1
12945	12956	1
12956	12957	1
12956	7395	1
12946	12947	1
12947	12948	1
12945	12946	1
12944	12945	1
12946	12950	1
12948	12949	1
12948	12951	1
12944	12949	1
12944	12952	1
12949	12953	1
8875	8886	1
8886	8887	1
8886	10235	1
8877	8884	1
8884	8885	1
8884	8894	1
8875	8876	1
8874	8875	1
8876	8877	1
8877	8878	1
8876	8880	1
8874	8879	1
8874	8882	1
8878	8879	1
8878	8881	1
8879	8883	1
9111	9118	1
9118	9119	1
9118	10167	1
9109	9120	1
9120	9121	1
9120	9128	1
9110	9111	1
9111	9112	1
9109	9110	1
9108	9109	1
9110	9114	1
9112	9113	1
9112	9115	1
9108	9113	1
9108	9116	1
9113	9117	1
13407	13418	1
13418	13419	1
13418	8769	1
13409	13416	1
13416	13417	1
1011	13416	1
13407	13408	1
13406	13407	1
13408	13409	1
13409	13410	1
13408	13412	1
13406	13411	1
13406	13414	1
13410	13411	1
13410	13413	1
13411	13415	1
3476	3483	1
3483	3484	1
3483	9731	1
3474	3485	1
3485	3487	1
3485	3486	1
3475	3476	1
3476	3477	1
3474	3475	1
3473	3474	1
3475	3479	1
3477	3478	1
3477	3480	1
3473	3478	1
3473	3481	1
3478	3482	1
12539	12550	1
12550	12551	1
12550	9046	1
12541	12548	1
12548	12549	1
12548	6274	1
12539	12540	1
12538	12539	1
12540	12541	1
12541	12542	1
12540	12544	1
12538	12543	1
12538	12546	1
12542	12543	1
12542	12545	1
12543	12547	1
13267	13278	1
13278	13279	1
13278	10269	1
13269	13276	1
13276	13277	1
13276	8226	1
13267	13268	1
13266	13267	1
13268	13269	1
13269	13270	1
13268	13272	1
13266	13271	1
13266	13274	1
13270	13271	1
13270	13273	1
13271	13275	1
7822	7833	1
7833	7834	1
7833	7841	1
7824	7831	1
7831	7832	1
7831	6332	1
7822	7823	1
7821	7822	1
7823	7824	1
7824	7825	1
7823	7827	1
7821	7826	1
7821	7829	1
7825	7826	1
7825	7828	1
7826	7830	1
12161	12172	1
12172	12173	1
12172	5865	1
12163	12170	1
12170	12171	1
12170	5603	1
12161	12162	1
12160	12161	1
12162	12163	1
12163	12164	1
12162	12166	1
12160	12165	1
12160	12168	1
12164	12165	1
12164	12167	1
12165	12169	1
11419	11430	1
11430	11431	1
11430	6959	1
11421	11428	1
11428	11429	1
11428	4249	1
11419	11420	1
11418	11419	1
11420	11421	1
11421	11422	1
11420	11424	1
11418	11423	1
11418	11426	1
11422	11423	1
11422	11425	1
11423	11427	1
13323	13334	1
13334	13335	1
13334	8345	1
13325	13332	1
13332	13333	1
494	13332	1
13323	13324	1
13322	13323	1
13324	13325	1
13325	13326	1
13324	13328	1
13322	13327	1
13322	13330	1
13326	13327	1
13326	13329	1
13327	13331	1
4762	4773	1
4773	4774	1
2228	4773	1
4764	4771	1
4771	4772	1
4771	4781	1
4762	4763	1
4761	4762	1
4763	4764	1
4764	4765	1
4763	4767	1
4761	4766	1
4761	4769	1
4765	4766	1
4765	4768	1
4766	4770	1
180	191	1
191	192	1
170	191	1
182	189	1
189	190	1
189	6289	1
180	181	1
179	180	1
181	182	1
182	183	1
181	185	1
179	184	1
179	187	1
183	184	1
183	186	1
184	188	1
5402	5413	1
5413	5414	1
5413	5421	1
5404	5411	1
5411	5412	1
5411	9688	1
5402	5403	1
5401	5402	1
5403	5404	1
5404	5405	1
5403	5407	1
5401	5406	1
5401	5409	1
5405	5406	1
5405	5408	1
5406	5410	1
6161	6172	1
6172	6173	1
6172	10972	1
6163	6170	1
6170	6171	1
6170	6180	1
6161	6162	1
6160	6161	1
6162	6163	1
6163	6164	1
6162	6166	1
6160	6165	1
6160	6168	1
6164	6165	1
6164	6167	1
6165	6169	1
2664	2675	1
2675	2677	1
2675	2676	1
2666	2673	1
2673	2674	1
2673	4497	1
2664	2665	1
2663	2664	1
2665	2666	1
2666	2667	1
2665	2669	1
2663	2668	1
2663	2671	1
2667	2668	1
2667	2670	1
2668	2672	1
12665	12676	1
12676	12677	1
12676	6550	1
12667	12674	1
12674	12675	1
12674	8124	1
12665	12666	1
12664	12665	1
12666	12667	1
12667	12668	1
12666	12670	1
12664	12669	1
12664	12672	1
12668	12669	1
12668	12671	1
12669	12673	1
3729	3740	1
3740	3741	1
3740	3742	1
3731	3738	1
3738	3739	1
2047	3738	1
3729	3730	1
3728	3729	1
3730	3731	1
3731	3732	1
3730	3734	1
3728	3733	1
3728	3736	1
3732	3733	1
3732	3735	1
3733	3737	1
13239	13250	1
13250	13251	1
13250	8211	1
13241	13248	1
13248	13249	1
1853	13248	1
13239	13240	1
13238	13239	1
13240	13241	1
13241	13242	1
13240	13244	1
13238	13243	1
13238	13246	1
13242	13243	1
13242	13245	1
13243	13247	1
2726	2733	1
2733	2734	1
2733	5063	1
2724	2735	1
2735	2736	1
2735	2737	1
2725	2726	1
2726	2727	1
2724	2725	1
2723	2724	1
2725	2729	1
2727	2728	1
2727	2730	1
2723	2728	1
2723	2731	1
2728	2732	1
9663	9674	1
9674	9675	1
9674	10196	1
9665	9672	1
9672	9673	1
9672	9682	1
9663	9664	1
9662	9663	1
9664	9665	1
9665	9666	1
9664	9668	1
9662	9667	1
9662	9670	1
9666	9667	1
9666	9669	1
9667	9671	1
12247	12254	1
12254	12255	1
12254	5762	1
12245	12256	1
12256	12257	1
12256	7221	1
12247	12246	1
12248	12247	1
12246	12245	1
12245	12244	1
12246	12250	1
12248	12249	1
12248	12251	1
12244	12249	1
12244	12252	1
12249	12253	1
13057	13068	1
13068	13069	1
13068	9244	1
13059	13066	1
13066	13067	1
13066	7759	1
13057	13058	1
13056	13057	1
13058	13059	1
13059	13060	1
13058	13062	1
13056	13061	1
13056	13064	1
13060	13061	1
13060	13063	1
13061	13065	1
6424	6435	1
6435	6436	1
6435	4439	1
6426	6433	1
6433	6434	1
6433	6443	1
6424	6425	1
6423	6424	1
6425	6426	1
6426	6427	1
6425	6429	1
6423	6428	1
6423	6431	1
6427	6428	1
6427	6430	1
6428	6432	1
6759	6770	1
6770	6771	1
6770	10241	1
6761	6768	1
6768	6769	1
6768	6778	1
6759	6760	1
6758	6759	1
6760	6761	1
6761	6762	1
6760	6764	1
6758	6763	1
6758	6766	1
6762	6763	1
6762	6765	1
6763	6767	1
2786	2793	1
2793	2794	1
2793	5436	1
2784	2795	1
2795	2797	1
2795	2796	1
2785	2786	1
2786	2787	1
2784	2785	1
2783	2784	1
2785	2789	1
2787	2788	1
2787	2790	1
2783	2788	1
2783	2791	1
2788	2792	1
1599	1610	1
1610	1611	1
1610	6361	1
1601	1608	1
1608	1609	1
1612	1608	1
1599	1600	1
1598	1599	1
1600	1601	1
1601	1602	1
1600	1604	1
1598	1603	1
1598	1606	1
1602	1603	1
1602	1605	1
1603	1607	1
7283	7294	1
7294	7295	1
7294	7302	1
7285	7292	1
7292	7293	1
7292	8694	1
7283	7284	1
7282	7283	1
7284	7285	1
7285	7286	1
7284	7288	1
7282	7287	1
7282	7290	1
7286	7287	1
7286	7289	1
7287	7291	1
12469	12480	1
12480	12481	1
12480	10489	1
12471	12478	1
12478	12479	1
12478	6157	1
12469	12470	1
12468	12469	1
12470	12471	1
12471	12472	1
12470	12474	1
12468	12473	1
12468	12476	1
12472	12473	1
12472	12475	1
12473	12477	1
1131	1138	1
1138	1139	1
1117	1138	1
1129	1140	1
1140	1141	1
1140	6710	1
1130	1131	1
1131	1132	1
1129	1130	1
1128	1129	1
1130	1134	1
1132	1133	1
1132	1135	1
1128	1133	1
1128	1136	1
1133	1137	1
11265	11276	1
11276	11277	1
11276	4032	1
11267	11274	1
11274	11275	1
11274	6783	1
11265	11266	1
11264	11265	1
11266	11267	1
11267	11268	1
11266	11270	1
11264	11269	1
11264	11272	1
11268	11269	1
11268	11271	1
11269	11273	1
1020	1031	1
1031	1032	1
1033	1031	1
1022	1029	1
1029	1030	1
1142	1029	1
1020	1021	1
1019	1020	1
1021	1022	1
1022	1023	1
1021	1025	1
1019	1024	1
1019	1027	1
1023	1024	1
1023	1026	1
1024	1028	1
13155	13166	1
13166	13167	1
13166	8520	1
13157	13164	1
13164	13165	1
13164	8094	1
13155	13156	1
13154	13155	1
13156	13157	1
13157	13158	1
13156	13160	1
13154	13159	1
13154	13162	1
13158	13159	1
13158	13161	1
13159	13163	1
8248	8255	1
8255	8256	1
8255	8265	1
8246	8257	1
8257	8258	1
8257	11041	1
8248	8247	1
8249	8248	1
8247	8246	1
8246	8245	1
8247	8251	1
8249	8250	1
8249	8252	1
8245	8250	1
8245	8253	1
8250	8254	1
9312	9323	1
9323	9324	1
9323	9331	1
9314	9321	1
9321	9322	1
9321	9134	1
9312	9313	1
9311	9312	1
9313	9314	1
9314	9315	1
9313	9317	1
9311	9316	1
9311	9319	1
9315	9316	1
9315	9318	1
9316	9320	1
5840	5851	1
5851	5852	1
5851	8227	1
5842	5849	1
5849	5850	1
5849	5859	1
5840	5841	1
5839	5840	1
5841	5842	1
5842	5843	1
5841	5845	1
5839	5844	1
5839	5847	1
5843	5844	1
5843	5846	1
5844	5848	1
2844	2855	1
2855	2856	1
2855	2857	1
2846	2853	1
2853	2854	1
2853	5733	1
2844	2845	1
2843	2844	1
2845	2846	1
2846	2847	1
2845	2849	1
2843	2848	1
2843	2851	1
2847	2848	1
2847	2850	1
2848	2852	1
4835	4846	1
4846	4847	1
4846	4854	1
4837	4844	1
4844	4845	1
4844	10298	1
4835	4836	1
4834	4835	1
4836	4837	1
4837	4838	1
4836	4840	1
4834	4839	1
4834	4842	1
4838	4839	1
4838	4841	1
4839	4843	1
7009	7016	1
7016	7017	1
7016	6420	1
7007	7018	1
7018	7019	1
7018	7026	1
7009	7008	1
7010	7009	1
7008	7007	1
7007	7006	1
7008	7012	1
7010	7011	1
7010	7013	1
7006	7011	1
7006	7014	1
7011	7015	1
12483	12494	1
12494	12495	1
12494	6185	1
12485	12492	1
12492	12493	1
12492	9760	1
12483	12484	1
12482	12483	1
12484	12485	1
12485	12486	1
12484	12488	1
12482	12487	1
12482	12490	1
12486	12487	1
12486	12489	1
12487	12491	1
9167	9178	1
9178	9179	1
9178	9186	1
9169	9176	1
9176	9177	1
9176	10549	1
9167	9168	1
9166	9167	1
9168	9169	1
9169	9170	1
9168	9172	1
9166	9171	1
9166	9174	1
9170	9171	1
9170	9173	1
9171	9175	1
7648	7659	1
7659	7660	1
7659	7667	1
7650	7657	1
7657	7658	1
7657	10514	1
7648	7649	1
7647	7648	1
7649	7650	1
7650	7651	1
7649	7653	1
7647	7652	1
7647	7655	1
7651	7652	1
7651	7654	1
7652	7656	1
3416	3423	1
3423	3424	1
3423	9512	1
3414	3425	1
3425	3427	1
3425	3426	1
3415	3416	1
3416	3417	1
3414	3415	1
3413	3414	1
3415	3419	1
3417	3418	1
3417	3420	1
3413	3418	1
3413	3421	1
3418	3422	1
11811	11822	1
11822	11823	1
11822	6886	1
11813	11820	1
11820	11821	1
11820	4947	1
11811	11812	1
11810	11811	1
11812	11813	1
11813	11814	1
11812	11816	1
11810	11815	1
11810	11818	1
11814	11815	1
11814	11817	1
11815	11819	1
3716	3723	1
3723	3724	1
3723	11134	1
3714	3725	1
3725	3727	1
3725	3726	1
3715	3716	1
3716	3717	1
3714	3715	1
3713	3714	1
3715	3719	1
3717	3718	1
3717	3720	1
3713	3718	1
3713	3721	1
3718	3722	1
3444	3455	1
3455	3456	1
3455	3457	1
3446	3453	1
3453	3454	1
3453	9556	1
3444	3445	1
3443	3444	1
3445	3446	1
3446	3447	1
3445	3449	1
3443	3448	1
3443	3451	1
3447	3448	1
3447	3450	1
3448	3452	1
2195	2202	1
2202	2203	1
2206	2202	1
2193	2204	1
2204	2205	1
2204	9521	1
2194	2195	1
2195	2196	1
2193	2194	1
2192	2193	1
2194	2198	1
2196	2197	1
2196	2199	1
2192	2197	1
2192	2200	1
2197	2201	1
3833	3844	1
3844	3845	1
3844	7463	1
3835	3842	1
3842	3843	1
3842	3852	1
3833	3834	1
3832	3833	1
3834	3835	1
3835	3836	1
3834	3838	1
3832	3837	1
3832	3840	1
3836	3837	1
3836	3839	1
3837	3841	1
12413	12424	1
12424	12425	1
12424	6419	1
12415	12422	1
12422	12423	1
12422	5982	1
12413	12414	1
12412	12413	1
12414	12415	1
12415	12416	1
12414	12418	1
12412	12417	1
12412	12420	1
12416	12417	1
12416	12419	1
12417	12421	1
8466	8477	1
8477	8478	1
8477	9404	1
8468	8475	1
8475	8476	1
8475	8485	1
8466	8467	1
8465	8466	1
8467	8468	1
8468	8469	1
8467	8471	1
8465	8470	1
8465	8473	1
8469	8470	1
8469	8472	1
8470	8474	1
11713	11724	1
11724	11725	1
11724	4786	1
11715	11722	1
11722	11723	1
11722	10548	1
11713	11714	1
11712	11713	1
11714	11715	1
11715	11716	1
11714	11718	1
11712	11717	1
11712	11720	1
11716	11717	1
11716	11719	1
11717	11721	1
13393	13404	1
13404	13405	1
13404	8637	1
13395	13402	1
13402	13403	1
13402	10440	1
13393	13394	1
13392	13393	1
13394	13395	1
13395	13396	1
13394	13398	1
13392	13397	1
13392	13400	1
13396	13397	1
13396	13399	1
13397	13401	1
3071	3078	1
3078	3079	1
3078	7789	1
3069	3080	1
3080	3081	1
3080	3082	1
3070	3071	1
3071	3072	1
3069	3070	1
3068	3069	1
3070	3074	1
3072	3073	1
3072	3075	1
3068	3073	1
3068	3076	1
3073	3077	1
3579	3590	1
3590	3592	1
3590	3591	1
3581	3588	1
3588	3589	1
3588	10752	1
3579	3580	1
3578	3579	1
3580	3581	1
3581	3582	1
3580	3584	1
3578	3583	1
3578	3586	1
3582	3583	1
3582	3585	1
3583	3587	1
12021	12032	1
12032	12033	1
12032	7788	1
12023	12030	1
12030	12031	1
12030	5442	1
12021	12022	1
12020	12021	1
12022	12023	1
12023	12024	1
12022	12026	1
12020	12025	1
12020	12028	1
12024	12025	1
12024	12027	1
12025	12029	1
13129	13136	1
13136	13137	1
13136	8593	1
13127	13138	1
13138	13139	1
13138	7949	1
13128	13129	1
13129	13130	1
13127	13128	1
13126	13127	1
13128	13132	1
13130	13131	1
13130	13133	1
13126	13131	1
13126	13134	1
13131	13135	1
6016	6027	1
6027	6028	1
6027	6035	1
6018	6025	1
6025	6026	1
6025	6283	1
6016	6017	1
6015	6016	1
6017	6018	1
6018	6019	1
6017	6021	1
6015	6020	1
6015	6023	1
6019	6020	1
6019	6022	1
6020	6024	1
3506	3513	1
3513	3514	1
3513	9891	1
3504	3515	1
3515	3516	1
3515	3517	1
3505	3506	1
3506	3507	1
3504	3505	1
3503	3504	1
3505	3509	1
3507	3508	1
3507	3510	1
3503	3508	1
3503	3511	1
3508	3512	1
8393	8404	1
8404	8405	1
8404	8412	1
8395	8402	1
8402	8403	1
8402	5588	1
8393	8394	1
8392	8393	1
8394	8395	1
8395	8396	1
8394	8398	1
8392	8397	1
8392	8400	1
8396	8397	1
8396	8399	1
8397	8401	1
7431	7438	1
7438	7439	1
7438	8280	1
7429	7440	1
7440	7441	1
7440	7448	1
7431	7430	1
7432	7431	1
7430	7429	1
7429	7428	1
7430	7434	1
7432	7433	1
7432	7435	1
7428	7433	1
7428	7436	1
7433	7437	1
13227	13234	1
13234	13235	1
13234	10825	1
13225	13236	1
13236	13237	1
13236	8167	1
13226	13227	1
13227	13228	1
13225	13226	1
13224	13225	1
13226	13230	1
13228	13229	1
13228	13231	1
13224	13229	1
13224	13232	1
13229	13233	1
4559	4570	1
4570	4571	1
4570	4578	1
4561	4568	1
4568	4569	1
4568	6195	1
4559	4560	1
4558	4559	1
4560	4561	1
4561	4562	1
4560	4564	1
4558	4563	1
4558	4566	1
4562	4563	1
4562	4565	1
4563	4567	1
13703	13710	1
13710	13711	1
13710	11047	1
13701	13712	1
13712	13713	1
13712	10898	1
13702	13703	1
13703	13704	1
13701	13702	1
13700	13701	1
13702	13706	1
13704	13705	1
13704	13707	1
13700	13705	1
13700	13708	1
13705	13709	1
13211	13222	1
13222	13223	1
13222	10723	1
13213	13220	1
13220	13221	1
13220	8168	1
13211	13212	1
13210	13211	1
13212	13213	1
13213	13214	1
13212	13216	1
13210	13215	1
13210	13218	1
13214	13215	1
13214	13217	1
13215	13219	1
1996	2007	1
2007	2008	1
2017	2007	1
1998	2005	1
2005	2006	1
2005	10709	1
1996	1997	1
1995	1996	1
1997	1998	1
1998	1999	1
1997	2001	1
1995	2000	1
1995	2003	1
1999	2000	1
1999	2002	1
2000	2004	1
12009	12016	1
12016	12017	1
12016	5427	1
12007	12018	1
12018	12019	1
12018	10358	1
12009	12008	1
12010	12009	1
12008	12007	1
12007	12006	1
12008	12012	1
12010	12011	1
12010	12013	1
12006	12011	1
12006	12014	1
12011	12015	1
4443	4454	1
4454	4455	1
4454	8491	1
4445	4452	1
4452	4453	1
4452	4462	1
4443	4444	1
4442	4443	1
4444	4445	1
4445	4446	1
4444	4448	1
4442	4447	1
4442	4450	1
4446	4447	1
4446	4449	1
4447	4451	1
901	908	1
908	909	1
908	8177	1
899	910	1
910	911	1
912	910	1
900	901	1
901	902	1
899	900	1
898	899	1
900	904	1
902	903	1
902	905	1
898	903	1
898	906	1
903	907	1
2874	2885	1
2885	2886	1
2885	2887	1
2876	2883	1
2883	2884	1
2883	5968	1
2874	2875	1
2873	2874	1
2875	2876	1
2876	2877	1
2875	2879	1
2873	2878	1
2873	2881	1
2877	2878	1
2877	2880	1
2878	2882	1
5943	5954	1
5954	5955	1
5954	5962	1
5945	5952	1
5952	5953	1
5952	6245	1
5943	5944	1
5942	5943	1
5944	5945	1
5945	5946	1
5944	5948	1
5942	5947	1
5942	5950	1
5946	5947	1
5946	5949	1
5947	5951	1
12833	12844	1
12844	12845	1
12844	7060	1
12835	12842	1
12842	12843	1
12842	10327	1
12833	12834	1
12832	12833	1
12834	12835	1
12835	12836	1
12834	12838	1
12832	12837	1
12832	12840	1
12836	12837	1
12836	12839	1
12837	12841	1
3626	3633	1
3633	3634	1
3633	10943	1
3624	3635	1
3635	3636	1
3635	3637	1
3625	3626	1
3626	3627	1
3624	3625	1
3623	3624	1
3625	3629	1
3627	3628	1
3627	3630	1
3623	3628	1
3623	3631	1
3628	3632	1
3671	3678	1
3678	3679	1
3678	10967	1
3669	3680	1
3680	3681	1
3680	3682	1
3670	3671	1
3671	3672	1
3669	3670	1
3668	3669	1
3670	3674	1
3672	3673	1
3672	3675	1
3668	3673	1
3668	3676	1
3673	3677	1
4358	4365	1
4365	4366	1
4365	4375	1
4356	4367	1
4367	4368	1
4367	10958	1
4357	4358	1
4358	4359	1
4356	4357	1
4355	4356	1
4357	4361	1
4359	4360	1
4359	4362	1
4355	4360	1
4355	4363	1
4360	4364	1
5607	5618	1
5618	5619	1
5618	7760	1
5609	5616	1
5616	5617	1
5616	5626	1
5607	5608	1
5606	5607	1
5608	5609	1
5609	5610	1
5608	5612	1
5606	5611	1
5606	5614	1
5610	5611	1
5610	5613	1
5611	5615	1
1478	1489	1
1489	1490	1
1489	6739	1
1480	1487	1
1487	1488	1
1491	1487	1
1478	1479	1
1477	1478	1
1479	1480	1
1480	1481	1
1479	1483	1
1477	1482	1
1477	1485	1
1481	1482	1
1481	1484	1
1482	1486	1
990	1001	1
1001	1002	1
1003	1001	1
992	999	1
999	1000	1
999	10372	1
990	991	1
989	990	1
991	992	1
992	993	1
991	995	1
989	994	1
989	997	1
993	994	1
993	996	1
994	998	1
641	652	1
652	653	1
629	652	1
643	650	1
650	651	1
2146	650	1
641	642	1
640	641	1
642	643	1
643	644	1
642	646	1
640	645	1
640	648	1
644	645	1
644	647	1
645	649	1
11433	11444	1
11444	11445	1
11444	8462	1
11435	11442	1
11442	11443	1
11442	4278	1
11433	11434	1
11432	11433	1
11434	11435	1
11435	11436	1
11434	11438	1
11432	11437	1
11432	11440	1
11436	11437	1
11436	11439	1
11437	11441	1
4501	4512	1
4512	4513	1
4512	7336	1
4503	4510	1
4510	4511	1
4510	4520	1
4501	4502	1
4500	4501	1
4502	4503	1
4503	4504	1
4502	4506	1
4500	4505	1
4500	4508	1
4504	4505	1
4504	4507	1
4505	4509	1
10671	10678	1
10678	10679	1
10678	10688	1
10669	10680	1
10680	10681	1
10680	4787	1
10671	10670	1
10672	10671	1
10670	10669	1
10669	10668	1
10670	10674	1
10672	10673	1
10672	10675	1
10668	10673	1
10668	10676	1
10673	10677	1
6103	6114	1
6114	6115	1
6114	10352	1
6105	6112	1
6112	6113	1
6112	6122	1
6103	6104	1
6102	6103	1
6104	6105	1
6105	6106	1
6104	6108	1
6102	6107	1
6102	6110	1
6106	6107	1
6106	6109	1
6107	6111	1
13619	13626	1
13626	13627	1
13626	10051	1
13617	13628	1
13628	13629	1
13628	10504	1
13619	13618	1
13620	13619	1
13618	13617	1
13617	13616	1
13618	13622	1
13620	13621	1
13620	13623	1
13616	13621	1
13616	13624	1
13621	13625	1
6790	6797	1
6797	6798	1
6797	6807	1
6788	6799	1
6799	6800	1
6799	4496	1
6789	6790	1
6790	6791	1
6788	6789	1
6787	6788	1
6789	6793	1
6791	6792	1
6791	6794	1
6787	6792	1
6787	6795	1
6792	6796	1
13533	13544	1
13544	13545	1
13544	10665	1
13535	13542	1
13542	13543	1
13542	9365	1
13533	13534	1
13532	13533	1
13534	13535	1
13535	13536	1
13534	13538	1
13532	13537	1
13532	13540	1
13536	13537	1
13536	13539	1
13537	13541	1
1723	1730	1
1730	1731	1
1734	1730	1
1721	1732	1
1732	1733	1
1732	8592	1
1722	1723	1
1723	1724	1
1721	1722	1
1720	1721	1
1722	1726	1
1724	1725	1
1724	1727	1
1720	1725	1
1720	1728	1
1725	1729	1
6715	6726	1
6726	6727	1
6726	10046	1
6717	6724	1
6724	6725	1
6724	6734	1
6715	6716	1
6714	6715	1
6716	6717	1
6717	6718	1
6716	6720	1
6714	6719	1
6714	6722	1
6718	6719	1
6718	6721	1
6719	6723	1
351	362	1
362	363	1
362	8236	1
353	360	1
360	361	1
364	360	1
351	352	1
350	351	1
352	353	1
353	354	1
352	356	1
350	355	1
350	358	1
354	355	1
354	357	1
355	359	1
3131	3138	1
3138	3139	1
3138	8339	1
3129	3140	1
3140	3141	1
3140	3142	1
3130	3131	1
3131	3132	1
3129	3130	1
3128	3129	1
3130	3134	1
3132	3133	1
3132	3135	1
3128	3133	1
3128	3136	1
3133	3137	1
2133	2144	1
2144	2145	1
2121	2144	1
2135	2142	1
2142	2143	1
2142	4244	1
2133	2134	1
2132	2133	1
2134	2135	1
2135	2136	1
2134	2138	1
2132	2137	1
2132	2140	1
2136	2137	1
2136	2139	1
2137	2141	1
11139	11150	1
11150	11151	1
11150	4250	1
11141	11148	1
11148	11149	1
11148	3813	1
11139	11140	1
11138	11139	1
11140	11141	1
11141	11142	1
11140	11144	1
11138	11143	1
11138	11146	1
11142	11143	1
11142	11145	1
11143	11147	1
2026	2037	1
2037	2038	1
2039	2037	1
2028	2035	1
2035	2036	1
2035	6098	1
2026	2027	1
2025	2026	1
2027	2028	1
2028	2029	1
2027	2031	1
2025	2030	1
2025	2033	1
2029	2030	1
2029	2032	1
2030	2034	1
12583	12590	1
12590	12591	1
12590	10694	1
12581	12592	1
12592	12593	1
12592	6304	1
12583	12582	1
12584	12583	1
12582	12581	1
12581	12580	1
12582	12586	1
12584	12585	1
12584	12587	1
12580	12585	1
12580	12588	1
12585	12589	1
6890	6901	1
6901	6902	1
6901	6909	1
6892	6899	1
6899	6900	1
1987	6899	1
6890	6891	1
6889	6890	1
6891	6892	1
6892	6893	1
6891	6895	1
6889	6894	1
6889	6897	1
6893	6894	1
6893	6896	1
6894	6898	1
11757	11764	1
11764	11765	1
11764	8929	1
11755	11766	1
11766	11767	1
11766	4830	1
11756	11757	1
11757	11758	1
11755	11756	1
11754	11755	1
11756	11760	1
11758	11759	1
11758	11761	1
11754	11759	1
11754	11762	1
11759	11763	1
1862	1869	1
1869	1870	1
1869	5305	1
1860	1871	1
1871	1872	1
1848	1871	1
1862	1861	1
1863	1862	1
1861	1860	1
1860	1859	1
1861	1865	1
1863	1864	1
1863	1866	1
1859	1864	1
1859	1867	1
1864	1868	1
12105	12116	1
12116	12117	1
12116	5544	1
12107	12114	1
12114	12115	1
12114	9394	1
12105	12106	1
12104	12105	1
12106	12107	1
12107	12108	1
12106	12110	1
12104	12109	1
12104	12112	1
12108	12109	1
12108	12111	1
12109	12113	1
3206	3213	1
3213	3214	1
3213	8709	1
3204	3215	1
3215	3216	1
3215	3217	1
3205	3206	1
3206	3207	1
3204	3205	1
3203	3204	1
3205	3209	1
3207	3208	1
3207	3210	1
3203	3208	1
3203	3211	1
3208	3212	1
1646	1657	1
1657	1658	1
1634	1657	1
1648	1655	1
1655	1656	1
1655	9790	1
1646	1647	1
1645	1646	1
1647	1648	1
1648	1649	1
1647	1651	1
1645	1650	1
1645	1653	1
1649	1650	1
1649	1652	1
1650	1654	1
8992	9003	1
9003	9004	1
9003	9011	1
8994	9001	1
9001	9002	1
9001	10870	1
8992	8993	1
8991	8992	1
8993	8994	1
8994	8995	1
8993	8997	1
8991	8996	1
8991	8999	1
8995	8996	1
8995	8998	1
8996	9000	1
12399	12410	1
12410	12411	1
12410	8447	1
12401	12408	1
12408	12409	1
12408	5983	1
12399	12400	1
12398	12399	1
12400	12401	1
12401	12402	1
12400	12404	1
12398	12403	1
12398	12406	1
12402	12403	1
12402	12405	1
12403	12407	1
3296	3303	1
3303	3304	1
3303	9032	1
3294	3305	1
3305	3307	1
3305	3306	1
3295	3296	1
3296	3297	1
3294	3295	1
3293	3294	1
3295	3299	1
3297	3298	1
3297	3300	1
3293	3298	1
3293	3301	1
3298	3302	1
2634	2645	1
2645	2647	1
2645	2646	1
2636	2643	1
2643	2644	1
2643	4351	1
2634	2635	1
2633	2634	1
2635	2636	1
2636	2637	1
2635	2639	1
2633	2638	1
2633	2641	1
2637	2638	1
2637	2640	1
2638	2642	1
2604	2615	1
2615	2616	1
2615	2617	1
2606	2613	1
2613	2614	1
2613	4031	1
2604	2605	1
2603	2604	1
2605	2606	1
2606	2607	1
2605	2609	1
2603	2608	1
2603	2611	1
2607	2608	1
2607	2610	1
2608	2612	1
13547	13558	1
13558	13559	1
13558	10080	1
13549	13556	1
13556	13557	1
13556	9614	1
13547	13548	1
13546	13547	1
13548	13549	1
13549	13550	1
13548	13552	1
13546	13551	1
13546	13554	1
13550	13551	1
13550	13553	1
13551	13555	1
7312	7323	1
7323	7324	1
7323	7331	1
7314	7321	1
7321	7322	1
7321	9016	1
7312	7313	1
7311	7312	1
7313	7314	1
7314	7315	1
7313	7317	1
7311	7316	1
7311	7319	1
7315	7316	1
7315	7318	1
7316	7320	1
13477	13488	1
13488	13489	1
13488	9250	1
13479	13486	1
13486	13487	1
13486	8973	1
13477	13478	1
13476	13477	1
13478	13479	1
13479	13480	1
13478	13482	1
13476	13481	1
13476	13484	1
13480	13481	1
13480	13483	1
13481	13485	1
11797	11808	1
11808	11809	1
11808	4888	1
11799	11806	1
11806	11807	1
11806	5209	1
11797	11798	1
11796	11797	1
11798	11799	1
11799	11800	1
11798	11802	1
11796	11801	1
11796	11804	1
11800	11801	1
11800	11803	1
11801	11805	1
12511	12522	1
12522	12523	1
12522	7527	1
12513	12520	1
12520	12521	1
12520	6200	1
12511	12512	1
12510	12511	1
12512	12513	1
12513	12514	1
12512	12516	1
12510	12515	1
12510	12518	1
12514	12515	1
12514	12517	1
12515	12519	1
7793	7804	1
7804	7805	1
7804	7812	1
7795	7802	1
7802	7803	1
7802	7914	1
7793	7794	1
7792	7793	1
7794	7795	1
7795	7796	1
7794	7798	1
7792	7797	1
7792	7800	1
7796	7797	1
7796	7799	1
7797	7801	1
8744	8755	1
8755	8756	1
8755	5632	1
8746	8753	1
8753	8754	1
8753	8763	1
8744	8745	1
8743	8744	1
8745	8746	1
8746	8747	1
8745	8749	1
8743	8748	1
8743	8751	1
8747	8748	1
8747	8750	1
8748	8752	1
11167	11178	1
11178	11179	1
11178	8285	1
11169	11176	1
11176	11177	1
11176	3829	1
11167	11168	1
11166	11167	1
11168	11169	1
11169	11170	1
11168	11172	1
11166	11171	1
11166	11174	1
11170	11171	1
11170	11173	1
11171	11175	1
4646	4657	1
4657	4658	1
4657	4665	1
4648	4655	1
4655	4656	1
4655	7497	1
4646	4647	1
4645	4646	1
4647	4648	1
4648	4649	1
4647	4651	1
4645	4650	1
4645	4653	1
4649	4650	1
4649	4652	1
4650	4654	1
2754	2765	1
2765	2767	1
2765	2766	1
2756	2763	1
2763	2764	1
2763	5266	1
2754	2755	1
2753	2754	1
2755	2756	1
2756	2757	1
2755	2759	1
2753	2758	1
2753	2761	1
2757	2758	1
2757	2760	1
2758	2762	1
1508	1519	1
1519	1520	1
1521	1519	1
1510	1517	1
1517	1518	1
668	1517	1
1508	1509	1
1507	1508	1
1509	1510	1
1510	1511	1
1509	1513	1
1507	1512	1
1507	1515	1
1511	1512	1
1511	1514	1
1512	1516	1
11321	11332	1
11332	11333	1
11332	9468	1
11323	11330	1
11330	11331	1
11330	4118	1
11321	11322	1
11320	11321	1
11322	11323	1
11323	11324	1
11322	11326	1
11320	11325	1
11320	11328	1
11324	11325	1
11324	11327	1
11325	11329	1
4414	4425	1
4425	4426	1
4425	4433	1
4416	4423	1
4423	4424	1
4423	6040	1
4414	4415	1
4413	4414	1
4415	4416	1
4416	4417	1
4415	4419	1
4413	4418	1
4413	4421	1
4417	4418	1
4417	4420	1
4418	4422	1
8099	8110	1
8110	8111	1
8110	8118	1
8101	8108	1
8108	8109	1
8108	5150	1
8099	8100	1
8098	8099	1
8100	8101	1
8101	8102	1
8100	8104	1
8098	8103	1
8098	8106	1
8102	8103	1
8102	8105	1
8103	8107	1
2919	2930	1
2930	2932	1
2930	2931	1
2921	2928	1
2928	2929	1
2928	6522	1
2919	2920	1
2918	2919	1
2920	2921	1
2921	2922	1
2920	2924	1
2918	2923	1
2918	2926	1
2922	2923	1
2922	2925	1
2923	2927	1
7851	7862	1
7862	7863	1
7862	7870	1
7853	7860	1
7860	7861	1
7860	4060	1
7851	7852	1
7850	7851	1
7852	7853	1
7853	7854	1
7852	7856	1
7850	7855	1
7850	7858	1
7854	7855	1
7854	7857	1
7855	7859	1
11979	11990	1
11990	11991	1
11990	5339	1
11981	11988	1
11988	11989	1
11988	9511	1
11979	11980	1
11978	11979	1
11980	11981	1
11981	11982	1
11980	11984	1
11978	11983	1
11978	11986	1
11982	11983	1
11982	11985	1
11983	11987	1
6817	6828	1
6828	6829	1
6828	6836	1
6819	6826	1
6826	6827	1
6826	6521	1
6817	6818	1
6816	6817	1
6818	6819	1
6819	6820	1
6818	6822	1
6816	6821	1
6816	6824	1
6820	6821	1
6820	6823	1
6821	6825	1
321	332	1
332	333	1
332	6064	1
323	330	1
330	331	1
334	330	1
321	322	1
320	321	1
322	323	1
323	324	1
322	326	1
320	325	1
320	328	1
324	325	1
324	327	1
325	329	1
11391	11402	1
11402	11403	1
11402	4205	1
11393	11400	1
11400	11401	1
1438	11400	1
11391	11392	1
11390	11391	1
11392	11393	1
11393	11394	1
11392	11396	1
11390	11395	1
11390	11398	1
11394	11395	1
11394	11397	1
11395	11399	1
7706	7717	1
7717	7718	1
7717	9936	1
7708	7715	1
7715	7716	1
7715	7725	1
7706	7707	1
7705	7706	1
7707	7708	1
7708	7709	1
7707	7711	1
7705	7710	1
7705	7713	1
7709	7710	1
7709	7712	1
7710	7714	1
4472	4483	1
4483	4484	1
4483	4491	1
4474	4481	1
4481	4482	1
4481	8900	1
4472	4473	1
4471	4472	1
4473	4474	1
4474	4475	1
4473	4477	1
4471	4476	1
4471	4479	1
4475	4476	1
4475	4478	1
4476	4480	1
13575	13586	1
13586	13587	1
13586	11001	1
13577	13584	1
13584	13585	1
13584	9848	1
13575	13576	1
13574	13575	1
13576	13577	1
13577	13578	1
13576	13580	1
13574	13579	1
13574	13582	1
13578	13579	1
13578	13581	1
13579	13583	1
6453	6464	1
6464	6465	1
6464	6472	1
6455	6462	1
6462	6463	1
6462	8022	1
6453	6454	1
6452	6453	1
6454	6455	1
6455	6456	1
6454	6458	1
6452	6457	1
6452	6460	1
6456	6457	1
6456	6459	1
6457	6461	1
6308	6319	1
6319	6320	1
6319	6327	1
6310	6317	1
6317	6318	1
6317	10197	1
6308	6309	1
6307	6308	1
6309	6310	1
6310	6311	1
6309	6313	1
6307	6312	1
6307	6315	1
6311	6312	1
6311	6314	1
6312	6316	1
3609	3620	1
3620	3622	1
3620	3621	1
3611	3618	1
3618	3619	1
3618	10927	1
3609	3610	1
3608	3609	1
3610	3611	1
3611	3612	1
3610	3614	1
3608	3613	1
3608	3616	1
3612	3613	1
3612	3615	1
3613	3617	1
12427	12438	1
12438	12439	1
12438	6041	1
12429	12436	1
12436	12437	1
12436	10942	1
12427	12428	1
12426	12427	1
12428	12429	1
12429	12430	1
12428	12432	1
12426	12431	1
12426	12434	1
12430	12431	1
12430	12433	1
12431	12435	1
2483	2494	1
2494	2495	1
2494	7346	1
2485	2492	1
2492	2493	1
2471	2492	1
2483	2484	1
2482	2483	1
2484	2485	1
2485	2486	1
2484	2488	1
2482	2487	1
2482	2490	1
2486	2487	1
2486	2489	1
2487	2491	1
2964	2975	1
2975	2977	1
2975	2976	1
2966	2973	1
2973	2974	1
2973	6880	1
2964	2965	1
2963	2964	1
2965	2966	1
2966	2967	1
2965	2969	1
2963	2968	1
2963	2971	1
2967	2968	1
2967	2970	1
2968	2972	1
6526	6537	1
6537	6538	1
6537	6545	1
6528	6535	1
6535	6536	1
6535	8060	1
6526	6527	1
6525	6526	1
6527	6528	1
6528	6529	1
6527	6531	1
6525	6530	1
6525	6533	1
6529	6530	1
6529	6532	1
6530	6534	1
976	987	1
987	988	1
987	9658	1
978	985	1
985	986	1
964	985	1
976	977	1
975	976	1
977	978	1
978	979	1
977	981	1
975	980	1
975	983	1
979	980	1
979	982	1
980	984	1
747	758	1
758	759	1
760	758	1
749	756	1
756	757	1
1279	756	1
747	748	1
746	747	1
748	749	1
749	750	1
748	752	1
746	751	1
746	754	1
750	751	1
750	753	1
751	755	1
1298	1305	1
1305	1306	1
1309	1305	1
1296	1307	1
1307	1308	1
1307	5538	1
1298	1297	1
1299	1298	1
1297	1296	1
1296	1295	1
1297	1301	1
1299	1300	1
1299	1302	1
1295	1300	1
1295	1303	1
1300	1304	1
3744	3755	1
3755	3757	1
3755	3756	1
3746	3753	1
3753	3754	1
1457	3753	1
3744	3745	1
3743	3744	1
3745	3746	1
3746	3747	1
3745	3749	1
3743	3748	1
3743	3751	1
3747	3748	1
3747	3750	1
3748	3752	1
12091	12102	1
12102	12103	1
12102	9599	1
12093	12100	1
12100	12101	1
12100	5543	1
12091	12092	1
12090	12091	1
12092	12093	1
12093	12094	1
12092	12096	1
12090	12095	1
12090	12098	1
12094	12095	1
12094	12097	1
12095	12099	1
13311	13318	1
13318	13319	1
13318	8564	1
13309	13320	1
13320	13321	1
13320	8330	1
13311	13310	1
13312	13311	1
13310	13309	1
13309	13308	1
13310	13314	1
13312	13313	1
13312	13315	1
13308	13313	1
13308	13316	1
13313	13317	1
12049	12060	1
12060	12061	1
12060	5500	1
12051	12058	1
12058	12059	1
12058	5689	1
12049	12050	1
12048	12049	1
12050	12051	1
12051	12052	1
12050	12054	1
12048	12053	1
12048	12056	1
12052	12053	1
12052	12055	1
12053	12057	1
9138	9149	1
9149	9150	1
9149	9157	1
9140	9147	1
9147	9148	1
9147	4860	1
9138	9139	1
9137	9138	1
9139	9140	1
9140	9141	1
9139	9143	1
9137	9142	1
9137	9145	1
9141	9142	1
9141	9144	1
9142	9146	1
1159	1170	1
1170	1171	1
1170	5772	1
1161	1168	1
1168	1169	1
1172	1168	1
1159	1160	1
1158	1159	1
1160	1161	1
1161	1162	1
1160	1164	1
1158	1163	1
1158	1166	1
1162	1163	1
1162	1165	1
1163	1167	1
12861	12872	1
12872	12873	1
12872	7148	1
12863	12870	1
12870	12871	1
12870	7366	1
12861	12862	1
12860	12861	1
12862	12863	1
12863	12864	1
12862	12866	1
12860	12865	1
12860	12868	1
12864	12865	1
12864	12867	1
12865	12869	1
3459	3470	1
3470	3471	1
3470	3472	1
3461	3468	1
3468	3469	1
3468	9615	1
3459	3460	1
3458	3459	1
3460	3461	1
3461	3462	1
3460	3464	1
3458	3463	1
3458	3466	1
3462	3463	1
3462	3465	1
3463	3467	1
3041	3048	1
3048	3049	1
3048	7536	1
3039	3050	1
3050	3052	1
3050	3051	1
3040	3041	1
3041	3042	1
3039	3040	1
3038	3039	1
3040	3044	1
3042	3043	1
3042	3045	1
3038	3043	1
3038	3046	1
3043	3047	1
12721	12732	1
12732	12733	1
12732	6813	1
12723	12730	1
12730	12731	1
12730	6682	1
12721	12722	1
12720	12721	1
12722	12723	1
12723	12724	1
12722	12726	1
12720	12725	1
12720	12728	1
12724	12725	1
12724	12727	1
12725	12729	1
3054	3065	1
3065	3067	1
3065	3066	1
3056	3063	1
3063	3064	1
3063	7609	1
3054	3055	1
3053	3054	1
3055	3056	1
3056	3057	1
3055	3059	1
3053	3058	1
3053	3061	1
3057	3058	1
3057	3060	1
3058	3062	1
8070	8081	1
8081	8082	1
8081	8089	1
8072	8079	1
8079	8080	1
8079	8066	1
8070	8071	1
8069	8070	1
8071	8072	1
8072	8073	1
8071	8075	1
8069	8074	1
8069	8077	1
8073	8074	1
8073	8076	1
8074	8078	1
12455	12466	1
12466	12467	1
12466	6127	1
12457	12464	1
12464	12465	1
12464	7031	1
12455	12456	1
12454	12455	1
12456	12457	1
12457	12458	1
12456	12460	1
12454	12459	1
12454	12462	1
12458	12459	1
12458	12461	1
12459	12463	1
4036	4047	1
4047	4048	1
4047	4055	1
4038	4045	1
4045	4046	1
4045	8988	1
4036	4037	1
4035	4036	1
4037	4038	1
4038	4039	1
4037	4041	1
4035	4040	1
4035	4043	1
4039	4040	1
4039	4042	1
4040	4044	1
11699	11710	1
11710	11711	1
11710	4757	1
11701	11708	1
11708	11709	1
11708	6812	1
11699	11700	1
11698	11699	1
11700	11701	1
11701	11702	1
11700	11704	1
11698	11703	1
11698	11706	1
11702	11703	1
11702	11705	1
11703	11707	1
9341	9352	1
9352	9353	1
9352	9360	1
9343	9350	1
9350	9351	1
9350	10168	1
9341	9342	1
9340	9341	1
9342	9343	1
9343	9344	1
9342	9346	1
9340	9345	1
9340	9348	1
9344	9345	1
9344	9347	1
9345	9349	1
12749	12760	1
12760	12761	1
1681	12760	1
12751	12758	1
12758	12759	1
12758	6740	1
12749	12750	1
12748	12749	1
12750	12751	1
12751	12752	1
12750	12754	1
12748	12753	1
12748	12756	1
12752	12753	1
12752	12755	1
12753	12757	1
13757	13768	1
13768	13769	1
1957	13768	1
13759	13766	1
13766	13767	1
524	13766	1
13757	13758	1
13756	13757	1
13758	13759	1
13759	13760	1
13758	13762	1
13756	13761	1
13756	13764	1
13760	13761	1
13760	13763	1
13761	13765	1
10465	10476	1
10476	10477	1
10476	10484	1
10467	10474	1
10474	10475	1
10474	6156	1
10465	10466	1
10464	10465	1
10466	10467	1
10467	10468	1
10466	10470	1
10464	10469	1
10464	10472	1
10468	10469	1
10468	10471	1
10469	10473	1
9560	9571	1
9571	9572	1
9571	9579	1
9562	9569	1
9569	9570	1
9569	4119	1
9560	9561	1
9559	9560	1
9561	9562	1
9562	9563	1
9561	9565	1
9559	9564	1
9559	9567	1
9563	9564	1
9563	9566	1
9564	9568	1
3761	3768	1
3768	3769	1
2365	3768	1
3759	3770	1
3770	3771	1
3770	3772	1
3760	3761	1
3761	3762	1
3759	3760	1
3758	3759	1
3760	3764	1
3762	3763	1
3762	3765	1
3758	3763	1
3758	3766	1
3763	3767	1
12441	12452	1
12452	12453	1
12452	6070	1
12443	12450	1
12450	12451	1
12450	7542	1
12441	12442	1
12440	12441	1
12442	12443	1
12443	12444	1
12442	12446	1
12440	12445	1
12440	12448	1
12444	12445	1
12444	12447	1
12445	12449	1
13379	13390	1
13390	13391	1
13390	8607	1
13381	13388	1
13388	13389	1
13388	9629	1
13379	13380	1
13378	13379	1
13380	13381	1
13381	13382	1
13380	13384	1
13378	13383	1
13378	13386	1
13382	13383	1
13382	13385	1
13383	13387	1
594	605	1
605	606	1
607	605	1
596	603	1
603	604	1
603	4336	1
594	595	1
593	594	1
595	596	1
596	597	1
595	599	1
593	598	1
593	601	1
597	598	1
597	600	1
598	602	1
13351	13362	1
13362	13363	1
13362	8374	1
13353	13360	1
13360	13361	1
13360	8446	1
13351	13352	1
13350	13351	1
13352	13353	1
13353	13354	1
13352	13356	1
13350	13355	1
13350	13358	1
13354	13355	1
13354	13357	1
13355	13359	1
12891	12898	1
12898	12899	1
12898	7978	1
12889	12900	1
12900	12901	1
12900	7307	1
12891	12890	1
12892	12891	1
12890	12889	1
12889	12888	1
12890	12894	1
12892	12893	1
12892	12895	1
12888	12893	1
12888	12896	1
12893	12897	1
2741	2748	1
2748	2749	1
2748	5208	1
2739	2750	1
2750	2751	1
2750	2752	1
2740	2741	1
2741	2742	1
2739	2740	1
2738	2739	1
2740	2744	1
2742	2743	1
2742	2745	1
2738	2743	1
2738	2746	1
2743	2747	1
1768	1779	1
1779	1780	1
1779	10357	1
1770	1777	1
1777	1778	1
1756	1777	1
1768	1769	1
1767	1768	1
1769	1770	1
1770	1771	1
1769	1773	1
1767	1772	1
1767	1775	1
1771	1772	1
1771	1774	1
1772	1776	1
11051	11062	1
11062	11063	1
2534	11062	1
11053	11060	1
11060	11061	1
11060	11070	1
11051	11052	1
11050	11051	1
11052	11053	1
11053	11054	1
11052	11056	1
11050	11055	1
11050	11058	1
11054	11055	1
11054	11057	1
11055	11059	1
885	896	1
896	897	1
896	9163	1
887	894	1
894	895	1
873	894	1
885	886	1
884	885	1
886	887	1
887	888	1
886	890	1
884	889	1
884	892	1
888	889	1
888	891	1
889	893	1
3519	3530	1
3530	3531	1
3530	3532	1
3521	3528	1
3528	3529	1
3528	9993	1
3519	3520	1
3518	3519	1
3520	3521	1
3521	3522	1
3520	3524	1
3518	3523	1
3518	3526	1
3522	3523	1
3522	3525	1
3523	3527	1
12931	12942	1
12942	12943	1
12942	7367	1
12933	12940	1
12940	12941	1
12940	8821	1
12931	12932	1
12930	12931	1
12932	12933	1
12933	12934	1
12932	12936	1
12930	12935	1
12930	12938	1
12934	12935	1
12934	12937	1
12935	12939	1
2421	2432	1
2432	2433	1
2432	8418	1
2423	2430	1
2430	2431	1
2409	2430	1
2421	2422	1
2420	2421	1
2422	2423	1
2423	2424	1
2422	2426	1
2420	2425	1
2420	2428	1
2424	2425	1
2424	2427	1
2425	2429	1
9370	9381	1
9381	9382	1
9381	9389	1
9372	9379	1
9379	9380	1
9379	10796	1
9370	9371	1
9369	9370	1
9371	9372	1
9372	9373	1
9371	9375	1
9369	9374	1
9369	9377	1
9373	9374	1
9373	9376	1
9374	9378	1
12303	12310	1
12310	12311	1
12310	5806	1
12301	12312	1
12312	12313	1
12312	8724	1
12303	12302	1
12304	12303	1
12302	12301	1
12301	12300	1
12302	12306	1
12304	12305	1
12304	12307	1
12300	12305	1
12300	12308	1
12305	12309	1
8187	8198	1
8198	8199	1
8198	8206	1
8189	8196	1
8196	8197	1
8196	9907	1
8187	8188	1
8186	8187	1
8188	8189	1
8189	8190	1
8188	8192	1
8186	8191	1
8186	8194	1
8190	8191	1
8190	8193	1
8191	8195	1
13519	13530	1
13530	13531	1
13530	9438	1
13521	13528	1
13528	13529	1
13528	9105	1
13519	13520	1
13518	13519	1
13520	13521	1
13521	13522	1
13520	13524	1
13518	13523	1
13518	13526	1
13522	13523	1
13522	13525	1
13523	13527	1
9634	9645	1
9645	9646	1
9645	5020	1
9636	9643	1
9643	9644	1
9643	9659	1
9634	9635	1
9633	9634	1
9635	9636	1
9636	9637	1
9635	9639	1
9633	9638	1
9633	9641	1
9637	9638	1
9637	9640	1
9638	9642	1
4007	4018	1
4018	4019	1
4018	4026	1
4009	4016	1
4016	4017	1
4016	7600	1
4007	4008	1
4006	4007	1
4008	4009	1
4009	4010	1
4008	4012	1
4006	4011	1
4006	4014	1
4010	4011	1
4010	4013	1
4011	4015	1
8541	8548	1
8548	8549	1
2553	8548	1
8539	8550	1
8550	8551	1
8550	8558	1
8541	8540	1
8542	8541	1
8540	8539	1
8539	8538	1
8540	8544	1
8542	8543	1
8542	8545	1
8538	8543	1
8538	8546	1
8543	8547	1
7619	7630	1
7630	7631	1
7630	7638	1
7621	7628	1
7628	7629	1
7628	7905	1
7619	7620	1
7618	7619	1
7620	7621	1
7621	7622	1
7620	7624	1
7618	7623	1
7618	7626	1
7622	7623	1
7622	7625	1
7623	7627	1
11741	11752	1
11752	11753	1
11752	8928	1
11743	11750	1
11750	11751	1
11750	4831	1
11741	11742	1
11740	11741	1
11742	11743	1
11743	11744	1
11742	11746	1
11740	11745	1
11740	11748	1
11744	11745	1
11744	11747	1
11745	11749	1
11769	11780	1
11780	11781	1
11780	9307	1
11771	11778	1
11778	11779	1
11778	4859	1
11769	11770	1
11768	11769	1
11770	11771	1
11771	11772	1
11770	11774	1
11768	11773	1
11768	11776	1
11772	11773	1
11772	11775	1
11773	11777	1
3862	3873	1
3873	3874	1
3873	3881	1
3864	3871	1
3871	3872	1
3871	9221	1
3862	3863	1
3861	3862	1
3863	3864	1
3864	3865	1
3863	3867	1
3861	3866	1
3861	3869	1
3865	3866	1
3865	3868	1
3866	3870	1
9443	9454	1
9454	9455	1
9454	7919	1
9445	9452	1
9452	9453	1
9452	9462	1
9443	9444	1
9442	9443	1
9444	9445	1
9445	9446	1
9444	9448	1
9442	9447	1
9442	9450	1
9446	9447	1
9446	9449	1
9447	9451	1
4588	4599	1
4599	4600	1
4599	4607	1
4590	4597	1
4597	4598	1
4597	8182	1
4588	4589	1
4587	4588	1
4589	4590	1
4590	4591	1
4589	4593	1
4587	4592	1
4587	4595	1
4591	4592	1
4591	4594	1
4592	4596	1
12623	12634	1
12634	12635	1
12634	10826	1
12625	12632	1
12632	12633	1
12632	6449	1
12623	12624	1
12622	12623	1
12624	12625	1
12625	12626	1
12624	12628	1
12622	12627	1
12622	12630	1
12626	12627	1
12626	12629	1
12627	12631	1
12875	12886	1
12886	12887	1
12886	7249	1
12877	12884	1
12884	12885	1
12884	10490	1
12875	12876	1
12874	12875	1
12876	12877	1
12877	12878	1
12876	12880	1
12874	12879	1
12874	12882	1
12878	12879	1
12878	12881	1
12879	12883	1
702	713	1
713	714	1
690	713	1
704	711	1
711	712	1
711	6099	1
702	703	1
701	702	1
703	704	1
704	705	1
703	707	1
701	706	1
701	709	1
705	706	1
705	708	1
706	710	1
12147	12158	1
12158	12159	1
2126	12158	1
12149	12156	1
12156	12157	1
12156	5587	1
12147	12148	1
12146	12147	1
12148	12149	1
12149	12150	1
12148	12152	1
12146	12151	1
12146	12154	1
12150	12151	1
12150	12153	1
12151	12155	1
13183	13194	1
13194	13195	1
13194	8153	1
13185	13192	1
13192	13193	1
2305	13192	1
13183	13184	1
13182	13183	1
13184	13185	1
13185	13186	1
13184	13188	1
13182	13187	1
13182	13190	1
13186	13187	1
13186	13189	1
13187	13191	1
7254	7265	1
7265	7266	1
7265	8456	1
7256	7263	1
7263	7264	1
7263	7273	1
7254	7255	1
7253	7254	1
7255	7256	1
7256	7257	1
7255	7259	1
7253	7258	1
7253	7261	1
7257	7258	1
7257	7260	1
7258	7262	1
13631	13642	1
13642	13643	1
13642	10110	1
13633	13640	1
13640	13641	1
2395	13640	1
13631	13632	1
13630	13631	1
13632	13633	1
13633	13634	1
13632	13636	1
13630	13635	1
13630	13638	1
13634	13635	1
13634	13637	1
13635	13639	1
1813	1824	1
1824	1825	1
1824	9162	1
1815	1822	1
1822	1823	1
1826	1822	1
1813	1814	1
1812	1813	1
1814	1815	1
1815	1816	1
1814	1818	1
1812	1817	1
1812	1820	1
1816	1817	1
1816	1819	1
1817	1821	1
12287	12298	1
12298	12299	1
12298	5777	1
12289	12296	1
12296	12297	1
1060	12296	1
12287	12288	1
12286	12287	1
12288	12289	1
12289	12290	1
12288	12292	1
12286	12291	1
12286	12294	1
12290	12291	1
12290	12293	1
12291	12295	1
1417	1428	1
1428	1429	1
1430	1428	1
1419	1426	1
1426	1427	1
1426	6953	1
1417	1418	1
1416	1417	1
1418	1419	1
1419	1420	1
1418	1422	1
1416	1421	1
1416	1424	1
1420	1421	1
1420	1423	1
1421	1425	1
5041	5048	1
5048	5049	1
5048	10446	1
5039	5050	1
5050	5051	1
5050	5058	1
5040	5041	1
5041	5042	1
5039	5040	1
5038	5039	1
5040	5044	1
5042	5043	1
5042	5045	1
5038	5043	1
5038	5046	1
5043	5047	1
84	95	1
95	96	1
74	95	1
86	93	1
93	94	1
93	6987	1
84	85	1
83	84	1
85	86	1
86	87	1
85	89	1
83	88	1
83	91	1
87	88	1
87	90	1
88	92	1
8773	8784	1
8784	8785	1
8784	8792	1
8775	8782	1
8782	8783	1
8782	5340	1
8773	8774	1
8772	8773	1
8774	8775	1
8775	8776	1
8774	8778	1
8772	8777	1
8772	8780	1
8776	8777	1
8776	8779	1
8777	8781	1
1191	1198	1
1198	1199	1
1203	1198	1
1189	1200	1
1200	1202	1
1200	1201	1
1190	1191	1
1191	1192	1
1189	1190	1
1188	1189	1
1190	1194	1
1192	1193	1
1192	1195	1
1188	1193	1
1188	1196	1
1193	1197	1
13771	13782	1
13782	13783	1
1914	13782	1
13773	13780	1
13780	13781	1
726	13780	1
13771	13772	1
13770	13771	1
13772	13773	1
13773	13774	1
13772	13776	1
13770	13775	1
13770	13778	1
13774	13775	1
13774	13777	1
13775	13779	1
1098	1109	1
1109	1110	1
1109	7002	1
1100	1107	1
1107	1108	1
1086	1107	1
1098	1099	1
1097	1098	1
1099	1100	1
1100	1101	1
1099	1103	1
1097	1102	1
1097	1105	1
1101	1102	1
1101	1104	1
1102	1106	1
11657	11668	1
11668	11669	1
11668	4700	1
11659	11666	1
11666	11667	1
2335	11666	1
11657	11658	1
11656	11657	1
11658	11659	1
11659	11660	1
11658	11662	1
11656	11661	1
11656	11664	1
11660	11661	1
11660	11663	1
11661	11665	1
9867	9878	1
9878	9879	1
9878	9886	1
9869	9876	1
9876	9877	1
9876	5909	1
9867	9868	1
9866	9867	1
9868	9869	1
9869	9870	1
9868	9872	1
9866	9871	1
9866	9874	1
9870	9871	1
9870	9873	1
9871	9875	1
11475	11486	1
11486	11487	1
11486	9892	1
11477	11484	1
11484	11485	1
11484	4352	1
11475	11476	1
11474	11475	1
11476	11477	1
11477	11478	1
11476	11480	1
11474	11479	1
11474	11482	1
11478	11479	1
11478	11481	1
11479	11483	1
398	409	1
409	410	1
409	11046	1
400	407	1
407	408	1
386	407	1
398	399	1
397	398	1
399	400	1
400	401	1
399	403	1
397	402	1
397	405	1
401	402	1
401	404	1
402	406	1
445	452	1
452	453	1
456	452	1
443	454	1
454	455	1
454	4381	1
444	445	1
445	446	1
443	444	1
442	443	1
444	448	1
446	447	1
446	449	1
442	447	1
442	450	1
447	451	1
1464	1475	1
1475	1476	1
1475	10367	1
1466	1473	1
1473	1474	1
1452	1473	1
1464	1465	1
1463	1464	1
1465	1466	1
1466	1467	1
1465	1469	1
1463	1468	1
1463	1471	1
1467	1468	1
1467	1470	1
1468	1472	1
824	835	1
835	836	1
812	835	1
826	833	1
833	834	1
573	833	1
824	825	1
823	824	1
825	826	1
826	827	1
825	829	1
823	828	1
823	831	1
827	828	1
827	830	1
828	832	1
2694	2705	1
2705	2706	1
2705	2707	1
2696	2703	1
2703	2704	1
2703	4961	1
2694	2695	1
2693	2694	1
2695	2696	1
2696	2697	1
2695	2699	1
2693	2698	1
2693	2701	1
2697	2698	1
2697	2700	1
2698	2702	1
116	127	1
127	128	1
127	11129	1
118	125	1
125	126	1
106	125	1
116	117	1
115	116	1
117	118	1
118	119	1
117	121	1
115	120	1
115	123	1
119	120	1
119	122	1
120	124	1
3920	3931	1
3931	3932	1
3931	7948	1
3922	3929	1
3929	3930	1
3929	3939	1
3920	3921	1
3919	3920	1
3921	3922	1
3922	3923	1
3921	3925	1
3919	3924	1
3919	3927	1
3923	3924	1
3923	3926	1
3924	3928	1
12357	12368	1
12368	12369	1
2154	12368	1
12359	12366	1
12366	12367	1
12366	5910	1
12357	12358	1
12356	12357	1
12358	12359	1
12359	12360	1
12358	12362	1
12356	12361	1
12356	12364	1
12360	12361	1
12360	12363	1
12361	12365	1
11881	11892	1
11892	11893	1
11892	5093	1
11883	11890	1
11890	11891	1
1377	11890	1
11881	11882	1
11880	11881	1
11882	11883	1
11883	11884	1
11882	11886	1
11880	11885	1
11880	11888	1
11884	11885	1
11884	11887	1
11885	11889	1
10845	10856	1
10856	10857	1
10856	10864	1
10847	10854	1
10854	10855	1
10854	9017	1
10845	10846	1
10844	10845	1
10846	10847	1
10847	10848	1
10846	10850	1
10844	10849	1
10844	10852	1
10848	10849	1
10848	10851	1
10849	10853	1
3891	3902	1
3902	3903	1
3902	6841	1
3893	3900	1
3900	3901	1
3900	3910	1
3891	3892	1
3890	3891	1
3892	3893	1
3893	3894	1
3892	3896	1
3890	3895	1
3890	3898	1
3894	3895	1
3894	3897	1
3895	3899	1
13085	13096	1
13096	13097	1
13096	7846	1
13087	13094	1
13094	13095	1
1211	13094	1
13085	13086	1
13084	13085	1
13086	13087	1
13087	13088	1
13086	13090	1
13084	13089	1
13084	13092	1
13088	13089	1
13088	13091	1
13089	13093	1
13113	13124	1
13124	13125	1
13124	7904	1
13115	13122	1
13122	13123	1
13122	9191	1
13113	13114	1
13112	13113	1
13114	13115	1
13115	13116	1
13114	13118	1
13112	13117	1
13112	13120	1
13116	13117	1
13116	13119	1
13117	13121	1
3324	3335	1
3335	3336	1
3335	3337	1
3326	3333	1
3333	3334	1
3333	9047	1
3324	3325	1
3323	3324	1
3325	3326	1
3326	3327	1
3325	3329	1
3323	3328	1
3323	3331	1
3327	3328	1
3327	3330	1
3328	3332	1
4733	4744	1
4744	4745	1
4744	9527	1
4735	4742	1
4742	4743	1
4742	4752	1
4733	4734	1
4732	4733	1
4734	4735	1
4735	4736	1
4734	4738	1
4732	4737	1
4732	4740	1
4736	4737	1
4736	4739	1
4737	4741	1
11615	11626	1
11626	11627	1
11626	4642	1
11617	11624	1
11624	11625	1
11624	6244	1
11615	11616	1
11614	11615	1
11616	11617	1
11617	11618	1
11616	11620	1
11614	11619	1
11614	11622	1
11618	11619	1
11618	11621	1
11619	11623	1
2240	2251	1
2251	2252	1
2251	9609	1
2242	2249	1
2249	2250	1
2233	2249	1
2240	2241	1
2239	2240	1
2241	2242	1
2242	2243	1
2241	2245	1
2239	2244	1
2239	2247	1
2243	2244	1
2243	2246	1
2244	2248	1
1936	1947	1
1947	1948	1
1949	1947	1
1938	1945	1
1945	1946	1
1945	4962	1
1936	1937	1
1935	1936	1
1937	1938	1
1938	1939	1
1937	1941	1
1935	1940	1
1935	1943	1
1939	1940	1
1939	1942	1
1940	1944	1
11629	11640	1
11640	11641	1
11640	8710	1
11631	11638	1
11638	11639	1
11638	4670	1
11629	11630	1
11628	11629	1
11630	11631	1
11631	11632	1
11630	11634	1
11628	11633	1
11628	11636	1
11632	11633	1
11632	11635	1
11633	11637	1
13169	13180	1
13180	13181	1
13180	8123	1
13171	13178	1
13178	13179	1
13178	9526	1
13169	13170	1
13168	13169	1
13170	13171	1
13171	13172	1
13170	13174	1
13168	13173	1
13168	13176	1
13172	13173	1
13172	13175	1
13173	13177	1
5184	5195	1
5195	5196	1
5195	10081	1
5186	5193	1
5193	5194	1
5193	5203	1
5184	5185	1
5183	5184	1
5185	5186	1
5186	5187	1
5185	5189	1
5183	5188	1
5183	5191	1
5187	5188	1
5187	5190	1
5188	5192	1
12693	12704	1
12704	12705	1
12704	8461	1
12695	12702	1
12702	12703	1
12702	6609	1
12693	12694	1
12692	12693	1
12694	12695	1
12695	12696	1
12694	12698	1
12692	12697	1
12692	12700	1
12696	12697	1
12696	12699	1
12697	12701	1
11489	11500	1
11500	11501	1
11500	7061	1
11491	11498	1
11498	11499	1
11498	4380	1
11489	11490	1
11488	11489	1
11490	11491	1
11491	11492	1
11490	11494	1
11488	11493	1
11488	11496	1
11492	11493	1
11492	11495	1
11493	11497	1
1538	1549	1
1549	1550	1
1559	1549	1
1540	1547	1
1547	1548	1
1547	8183	1
1538	1539	1
1537	1538	1
1539	1540	1
1540	1541	1
1539	1543	1
1537	1542	1
1537	1545	1
1541	1542	1
1541	1544	1
1542	1546	1
6366	6377	1
6377	6378	1
6377	6385	1
6368	6375	1
6375	6376	1
6375	9584	1
6366	6367	1
6365	6366	1
6367	6368	1
6368	6369	1
6367	6371	1
6365	6370	1
6365	6373	1
6369	6370	1
6369	6372	1
6370	6374	1
12777	12788	1
12788	12789	1
12788	9395	1
12779	12786	1
12786	12787	1
12786	6944	1
12777	12778	1
12776	12777	1
12778	12779	1
12779	12780	1
12778	12782	1
12776	12781	1
12776	12784	1
12780	12781	1
12780	12783	1
12781	12785	1
13141	13152	1
13152	13153	1
13152	8270	1
13143	13150	1
13150	13151	1
13150	7993	1
13141	13142	1
13140	13141	1
13142	13143	1
13143	13144	1
13142	13146	1
13140	13145	1
13140	13148	1
13144	13145	1
13144	13147	1
13145	13149	1
13339	13346	1
13346	13347	1
13346	8373	1
13337	13348	1
13348	13349	1
13348	8972	1
13339	13338	1
13340	13339	1
13338	13337	1
13337	13336	1
13338	13342	1
13340	13341	1
13340	13343	1
13336	13341	1
13336	13344	1
13341	13345	1
12679	12690	1
12690	12691	1
12690	7279	1
12681	12688	1
12688	12689	1
12688	6608	1
12679	12680	1
12678	12679	1
12680	12681	1
12681	12682	1
12680	12684	1
12678	12683	1
12678	12686	1
12682	12683	1
12682	12685	1
12683	12687	1
1222	1229	1
1229	1230	1
1229	10417	1
1220	1231	1
1231	1232	1
1233	1231	1
1222	1221	1
1223	1222	1
1221	1220	1
1220	1219	1
1221	1225	1
1223	1224	1
1223	1226	1
1219	1224	1
1219	1227	1
1224	1228	1
7225	7236	1
7236	7237	1
7236	7244	1
7227	7234	1
7234	7235	1
7234	9624	1
7225	7226	1
7224	7225	1
7226	7227	1
7227	7228	1
7226	7230	1
7224	7229	1
7224	7232	1
7228	7229	1
7228	7231	1
7229	7233	1
1585	1596	1
1596	1597	1
1573	1596	1
1587	1594	1
1594	1595	1
1180	1594	1
1585	1586	1
1584	1585	1
1586	1587	1
1587	1588	1
1586	1590	1
1584	1589	1
1584	1592	1
1588	1589	1
1588	1591	1
1589	1593	1
503	514	1
514	515	1
514	5874	1
505	512	1
512	513	1
516	512	1
503	504	1
502	503	1
504	505	1
505	506	1
504	508	1
502	507	1
502	510	1
506	507	1
506	509	1
507	511	1
13015	13026	1
13026	13027	1
13026	8870	1
13017	13024	1
13024	13025	1
13024	7599	1
13015	13016	1
13014	13015	1
13016	13017	1
13017	13018	1
13016	13020	1
13014	13019	1
13014	13022	1
13018	13019	1
13018	13021	1
13019	13023	1
8349	8360	1
8360	8361	1
8360	8368	1
8351	8358	1
8358	8359	1
8358	10139	1
8349	8350	1
8348	8349	1
8350	8351	1
8351	8352	1
8350	8354	1
8348	8353	1
8348	8356	1
8352	8353	1
8352	8355	1
8353	8357	1
4706	4713	1
4713	4714	1
4713	7089	1
4704	4715	1
4715	4716	1
4715	4723	1
4705	4706	1
4706	4707	1
4704	4705	1
4703	4704	1
4705	4709	1
4707	4708	1
4707	4710	1
4703	4708	1
4703	4711	1
4708	4712	1
3686	3693	1
3693	3694	1
3693	11119	1
3684	3695	1
3695	3696	1
3695	3697	1
3685	3686	1
3686	3687	1
3684	3685	1
3683	3684	1
3685	3689	1
3687	3688	1
3687	3690	1
3683	3688	1
3683	3691	1
3688	3692	1
12259	12270	1
12270	12271	1
12270	10104	1
12261	12268	1
12268	12269	1
12268	5763	1
12259	12260	1
12258	12259	1
12260	12261	1
12261	12262	1
12260	12264	1
12258	12263	1
12258	12266	1
12262	12263	1
12262	12265	1
12263	12267	1
5213	5224	1
5224	5225	1
5224	5232	1
5215	5222	1
5222	5223	1
5222	8221	1
5213	5214	1
5212	5213	1
5214	5215	1
5215	5216	1
5214	5218	1
5212	5217	1
5212	5220	1
5216	5217	1
5216	5219	1
5217	5221	1
7677	7688	1
7688	7689	1
7688	7696	1
7679	7686	1
7686	7687	1
7686	4409	1
7677	7678	1
7676	7677	1
7678	7679	1
7679	7680	1
7678	7682	1
7676	7681	1
7676	7684	1
7680	7681	1
7680	7683	1
7681	7685	1
9285	9292	1
9292	9293	1
464	9292	1
9283	9294	1
9294	9295	1
9294	9302	1
9284	9285	1
9285	9286	1
9283	9284	1
9282	9283	1
9284	9288	1
9286	9287	1
9286	9289	1
9282	9287	1
9282	9290	1
9287	9291	1
2056	2067	1
2067	2068	1
2069	2067	1
2058	2065	1
2065	2066	1
2065	9026	1
2056	2057	1
2055	2056	1
2057	2058	1
2058	2059	1
2057	2061	1
2055	2060	1
2055	2063	1
2059	2060	1
2059	2062	1
2060	2064	1
10801	10812	1
10812	10813	1
10812	10820	1
10803	10810	1
10810	10811	1
10810	7644	1
10801	10802	1
10800	10801	1
10802	10803	1
10803	10804	1
10802	10806	1
10800	10805	1
10800	10808	1
10804	10805	1
10804	10807	1
10805	10809	1
13099	13110	1
13110	13111	1
2445	13110	1
13101	13108	1
13108	13109	1
13108	7875	1
13099	13100	1
13098	13099	1
13100	13101	1
13101	13102	1
13100	13104	1
13098	13103	1
13098	13106	1
13102	13103	1
13102	13105	1
13103	13107	1
13591	13598	1
13598	13599	1
13598	9863	1
13589	13600	1
13600	13601	1
969	13600	1
13590	13591	1
13591	13592	1
13589	13590	1
13588	13589	1
13590	13594	1
13592	13593	1
13592	13595	1
13588	13593	1
13588	13596	1
13593	13597	1
11587	11598	1
11598	11599	1
11598	4612	1
11589	11596	1
11596	11597	1
11596	10973	1
11587	11588	1
11586	11587	1
11588	11589	1
11589	11590	1
11588	11592	1
11586	11591	1
11586	11594	1
11590	11591	1
11590	11593	1
11591	11595	1
2316	2323	1
2323	2324	1
2323	4990	1
2314	2325	1
2325	2326	1
2327	2325	1
2316	2315	1
2317	2316	1
2315	2314	1
2314	2313	1
2315	2319	1
2317	2318	1
2317	2320	1
2313	2318	1
2313	2321	1
2318	2322	1
3789	3800	1
3800	3801	1
3800	3808	1
3791	3798	1
3798	3799	1
3798	10718	1
3789	3790	1
3788	3789	1
3790	3791	1
3791	3792	1
3790	3794	1
3788	3793	1
3788	3796	1
3792	3793	1
3792	3795	1
3793	3797	1
13421	13432	1
13432	13433	1
13432	8797	1
13423	13430	1
13430	13431	1
1271	13430	1
13421	13422	1
13420	13421	1
13422	13423	1
13423	13424	1
13422	13426	1
13420	13425	1
13420	13428	1
13424	13425	1
13424	13427	1
13425	13429	1
11783	11794	1
11794	11795	1
11794	4889	1
11785	11792	1
11792	11793	1
11792	11017	1
11783	11784	1
11782	11783	1
11784	11785	1
11785	11786	1
11784	11788	1
11782	11787	1
11782	11790	1
11786	11787	1
11786	11789	1
11787	11791	1
11727	11738	1
11738	11739	1
11738	4816	1
11729	11736	1
11736	11737	1
11736	10240	1
11727	11728	1
11726	11727	1
11728	11729	1
11729	11730	1
11728	11732	1
11726	11731	1
11726	11734	1
11730	11731	1
11730	11733	1
11731	11735	1
929	940	1
940	941	1
942	940	1
931	938	1
938	939	1
938	5904	1
929	930	1
928	929	1
930	931	1
931	932	1
930	934	1
928	933	1
928	936	1
932	933	1
932	935	1
933	937	1
6686	6697	1
6697	6698	1
6697	6705	1
6688	6695	1
6695	6696	1
1122	6695	1
6686	6687	1
6685	6686	1
6687	6688	1
6688	6689	1
6687	6691	1
6685	6690	1
6685	6693	1
6689	6690	1
6689	6692	1
6690	6694	1
6613	6624	1
6624	6625	1
6624	5151	1
6615	6622	1
6622	6623	1
6622	6632	1
6613	6614	1
6612	6613	1
6614	6615	1
6615	6616	1
6614	6618	1
6612	6617	1
6612	6620	1
6616	6617	1
6616	6619	1
6617	6621	1
12385	12396	1
12396	12397	1
1499	12396	1
12387	12394	1
12394	12395	1
12394	5967	1
12385	12386	1
12384	12385	1
12386	12387	1
12387	12388	1
12386	12390	1
12384	12389	1
12384	12392	1
12388	12389	1
12388	12391	1
12389	12393	1
3234	3245	1
3245	3247	1
3245	3246	1
3236	3243	1
3243	3244	1
3243	8865	1
3234	3235	1
3233	3234	1
3235	3236	1
3236	3237	1
3235	3239	1
3233	3238	1
3233	3241	1
3237	3238	1
3237	3240	1
3238	3242	1
733	744	1
744	745	1
721	744	1
735	742	1
742	743	1
742	4956	1
733	734	1
732	733	1
734	735	1
735	736	1
734	738	1
732	737	1
732	740	1
736	737	1
736	739	1
737	741	1
8802	8813	1
8813	8814	1
8813	9906	1
8804	8811	1
8811	8812	1
8811	8827	1
8802	8803	1
8801	8802	1
8803	8804	1
8804	8805	1
8803	8807	1
8801	8806	1
8801	8809	1
8805	8806	1
8805	8808	1
8806	8810	1
12525	12536	1
12536	12537	1
12536	8051	1
12527	12534	1
12534	12535	1
12534	6230	1
12525	12526	1
12524	12525	1
12526	12527	1
12527	12528	1
12526	12530	1
12524	12529	1
12524	12532	1
12528	12529	1
12528	12531	1
12529	12533	1
7473	7484	1
7484	7485	1
7484	9687	1
7475	7482	1
7482	7483	1
7482	7492	1
7473	7474	1
7472	7473	1
7474	7475	1
7475	7476	1
7474	7478	1
7472	7477	1
7472	7480	1
7476	7477	1
7476	7479	1
7477	7481	1
7880	7891	1
7891	7892	1
7891	7899	1
7882	7889	1
7889	7890	1
7889	7643	1
7880	7881	1
7879	7880	1
7881	7882	1
7882	7883	1
7881	7885	1
7879	7884	1
7879	7887	1
7883	7884	1
7883	7886	1
7884	7888	1
12735	12746	1
12746	12747	1
12746	10342	1
12737	12744	1
12744	12745	1
12744	6711	1
12735	12736	1
12734	12735	1
12736	12737	1
12737	12738	1
12736	12740	1
12734	12739	1
12734	12742	1
12738	12739	1
12738	12741	1
12739	12743	1
148	159	1
159	160	1
138	159	1
150	157	1
157	158	1
157	6754	1
148	149	1
147	148	1
149	150	1
150	151	1
149	153	1
147	152	1
147	155	1
151	152	1
151	154	1
152	156	1
11517	11528	1
11528	11529	1
11528	4438	1
11519	11526	1
11526	11527	1
391	11526	1
11517	11518	1
11516	11517	1
11518	11519	1
11519	11520	1
11518	11522	1
11516	11521	1
11516	11524	1
11520	11521	1
11520	11523	1
11521	11525	1
1660	1671	1
1671	1672	1
1671	7847	1
1662	1669	1
1669	1670	1
1673	1669	1
1660	1661	1
1659	1660	1
1661	1662	1
1662	1663	1
1661	1665	1
1659	1664	1
1659	1667	1
1663	1664	1
1663	1666	1
1664	1668	1
2284	2295	1
2295	2296	1
2295	6749	1
2286	2293	1
2293	2294	1
2297	2293	1
2284	2285	1
2283	2284	1
2285	2286	1
2286	2287	1
2285	2289	1
2283	2288	1
2283	2291	1
2287	2288	1
2287	2290	1
2288	2292	1
12805	12816	1
12816	12817	1
12816	8739	1
12807	12814	1
12814	12815	1
12814	7003	1
12805	12806	1
12804	12805	1
12806	12807	1
12807	12808	1
12806	12810	1
12804	12809	1
12804	12812	1
12808	12809	1
12808	12811	1
12809	12813	1
3594	3605	1
3605	3606	1
3605	3607	1
3596	3603	1
3603	3604	1
3603	10768	1
3594	3595	1
3593	3594	1
3595	3596	1
3596	3597	1
3595	3599	1
3593	3598	1
3593	3601	1
3597	3598	1
3597	3600	1
3598	3602	1
5638	5645	1
5645	5646	1
1551	5645	1
5636	5647	1
5647	5648	1
5647	5661	1
5638	5637	1
5639	5638	1
5637	5636	1
5636	5635	1
5637	5641	1
5639	5640	1
5639	5642	1
5635	5640	1
5635	5643	1
5640	5644	1
12987	12998	1
12998	12999	1
12998	7565	1
12989	12996	1
12996	12997	1
12996	9585	1
12987	12988	1
12986	12987	1
12988	12989	1
12989	12990	1
12988	12992	1
12986	12991	1
12986	12994	1
12990	12991	1
12990	12993	1
12991	12995	1
5097	5108	1
5108	5109	1
5108	5116	1
5099	5106	1
5106	5107	1
5106	3886	1
5097	5098	1
5096	5097	1
5098	5099	1
5099	5100	1
5098	5102	1
5096	5101	1
5096	5104	1
5100	5101	1
5100	5103	1
5101	5105	1
3949	3960	1
3960	3961	1
3960	10724	1
3951	3958	1
3958	3959	1
3958	3968	1
3949	3950	1
3948	3949	1
3950	3951	1
3951	3952	1
3950	3954	1
3948	3953	1
3948	3956	1
3952	3953	1
3952	3955	1
3953	3957	1
12175	12186	1
12186	12187	1
12186	5660	1
12177	12184	1
12184	12185	1
817	12184	1
12175	12176	1
12174	12175	1
12176	12177	1
12177	12178	1
12176	12180	1
12174	12179	1
12174	12182	1
12178	12179	1
12178	12181	1
12179	12183	1
10056	10067	1
10067	10068	1
10067	10075	1
10058	10065	1
10065	10066	1
10065	7177	1
10056	10057	1
10055	10056	1
10057	10058	1
10058	10059	1
10057	10061	1
10055	10060	1
10055	10063	1
10059	10060	1
10059	10062	1
10060	10064	1
12609	12620	1
12620	12621	1
12620	6391	1
12611	12618	1
12618	12619	1
950	12618	1
12609	12610	1
12608	12609	1
12610	12611	1
12611	12612	1
12610	12614	1
12608	12613	1
12608	12616	1
12612	12613	1
12612	12615	1
12613	12617	1
9225	9236	1
9236	9237	1
9236	10138	1
9227	9234	1
9234	9235	1
9234	9249	1
9225	9226	1
9224	9225	1
9226	9227	1
9227	9228	1
9226	9230	1
9224	9229	1
9224	9232	1
9228	9229	1
9228	9231	1
9229	9233	1
8026	8037	1
8037	8038	1
8037	5311	1
8028	8035	1
8035	8036	1
8035	8045	1
8026	8027	1
8025	8026	1
8027	8028	1
8028	8029	1
8027	8031	1
8025	8030	1
8025	8033	1
8029	8030	1
8029	8032	1
8030	8034	1
10114	10125	1
10125	10126	1
10125	10133	1
10116	10123	1
10123	10124	1
10123	4815	1
10114	10115	1
10113	10114	1
10115	10116	1
10116	10117	1
10115	10119	1
10113	10118	1
10113	10121	1
10117	10118	1
10117	10120	1
10118	10122	1
9911	9922	1
9922	9923	1
1834	9922	1
9913	9920	1
9920	9921	1
9920	9930	1
9911	9912	1
9910	9911	1
9912	9913	1
9913	9914	1
9912	9916	1
9910	9915	1
9910	9918	1
9914	9915	1
9914	9917	1
9915	9919	1
11377	11388	1
11388	11389	1
11388	4206	1
11379	11386	1
11386	11387	1
11386	7615	1
11377	11378	1
11376	11377	1
11378	11379	1
11379	11380	1
11378	11382	1
11376	11381	1
11376	11384	1
11380	11381	1
11380	11383	1
11381	11385	1
13715	13726	1
13726	13727	1
1742	13726	1
13717	13724	1
13724	13725	1
13724	11075	1
13715	13716	1
13714	13715	1
13716	13717	1
13717	13718	1
13716	13720	1
13714	13719	1
13714	13722	1
13718	13719	1
13718	13721	1
13719	13723	1
2861	2868	1
2868	2869	1
2868	5807	1
2859	2870	1
2870	2871	1
2870	2872	1
2860	2861	1
2861	2862	1
2859	2860	1
2858	2859	1
2860	2864	1
2862	2863	1
2862	2865	1
2858	2863	1
2858	2866	1
2863	2867	1
244	255	1
255	256	1
234	255	1
246	253	1
253	254	1
253	8734	1
244	245	1
243	244	1
245	246	1
246	247	1
245	249	1
243	248	1
243	251	1
247	248	1
247	250	1
248	252	1
13029	13040	1
13040	13041	1
13040	10693	1
13031	13038	1
13038	13039	1
13038	7614	1
13029	13030	1
13028	13029	1
13030	13031	1
13031	13032	1
13030	13034	1
13028	13033	1
13028	13036	1
13032	13033	1
13032	13035	1
13033	13037	1
12847	12858	1
12858	12859	1
12858	7142	1
12849	12856	1
12856	12857	1
12856	8768	1
12847	12848	1
12846	12847	1
12848	12849	1
12849	12850	1
12848	12852	1
12846	12851	1
12846	12854	1
12850	12851	1
12850	12853	1
12851	12855	1
13295	13306	1
13306	13307	1
695	13306	1
13297	13304	1
13304	13305	1
13304	8271	1
13295	13296	1
13294	13295	1
13296	13297	1
13297	13298	1
13296	13300	1
13294	13299	1
13294	13302	1
13298	13299	1
13298	13301	1
13299	13303	1
2374	2385	1
2385	2386	1
2387	2385	1
2376	2383	1
2383	2384	1
2383	8162	1
2374	2375	1
2373	2374	1
2375	2376	1
2376	2377	1
2375	2379	1
2373	2378	1
2373	2381	1
2377	2378	1
2377	2380	1
2378	2382	1
11825	11836	1
11836	11837	1
1241	11836	1
11827	11834	1
11834	11835	1
11834	4991	1
11825	11826	1
11824	11825	1
11826	11827	1
11827	11828	1
11826	11830	1
11824	11829	1
11824	11832	1
11828	11829	1
11828	11831	1
11829	11833	1
2904	2915	1
2915	2916	1
2915	2917	1
2906	2913	1
2913	2914	1
2913	6516	1
2904	2905	1
2903	2904	1
2905	2906	1
2906	2907	1
2905	2909	1
2903	2908	1
2903	2911	1
2907	2908	1
2907	2910	1
2908	2912	1
13785	13796	1
13796	13797	1
2184	13796	1
13787	13794	1
13794	13795	1
1895	13794	1
13785	13786	1
13784	13785	1
13786	13787	1
13787	13788	1
13786	13790	1
13784	13789	1
13784	13792	1
13788	13789	1
13788	13791	1
13789	13793	1
8292	8299	1
8299	8300	1
8299	8309	1
8290	8301	1
8301	8302	1
8301	9653	1
8292	8291	1
8293	8292	1
8291	8290	1
8290	8289	1
8291	8295	1
8293	8294	1
8293	8296	1
8289	8294	1
8289	8297	1
8294	8298	1
1356	1367	1
1367	1368	1
615	1367	1
1358	1365	1
1365	1366	1
1369	1365	1
1356	1357	1
1355	1356	1
1357	1358	1
1358	1359	1
1357	1361	1
1355	1360	1
1355	1363	1
1359	1360	1
1359	1362	1
1360	1364	1
7400	7411	1
7411	7412	1
7411	7419	1
7402	7409	1
7409	7410	1
7409	6201	1
7400	7401	1
7399	7400	1
7401	7402	1
7402	7403	1
7401	7405	1
7399	7404	1
7399	7407	1
7403	7404	1
7403	7406	1
7404	7408	1
11575	11582	1
11582	11583	1
11582	7526	1
11573	11584	1
11584	11585	1
11584	4583	1
11574	11575	1
11575	11576	1
11573	11574	1
11572	11573	1
11574	11578	1
11576	11577	1
11576	11579	1
11572	11577	1
11572	11580	1
11577	11581	1
12205	12212	1
12212	12213	1
12212	6579	1
12203	12214	1
12214	12215	1
12214	5690	1
12204	12205	1
12205	12206	1
12203	12204	1
12202	12203	1
12204	12208	1
12206	12207	1
12206	12209	1
12202	12207	1
12202	12210	1
12207	12211	1
6205	6216	1
6216	6217	1
6216	6224	1
6207	6214	1
6214	6215	1
6214	4147	1
6205	6206	1
6204	6205	1
6206	6207	1
6207	6208	1
6206	6210	1
6204	6209	1
6204	6212	1
6208	6209	1
6208	6211	1
6209	6213	1
4094	4105	1
4105	4106	1
4105	4113	1
4096	4103	1
4103	4104	1
4103	7730	1
4094	4095	1
4093	4094	1
4095	4096	1
4096	4097	1
4095	4099	1
4093	4098	1
4093	4101	1
4097	4098	1
4097	4100	1
4098	4102	1
11671	11682	1
11682	11683	1
11682	8315	1
11673	11680	1
11680	11681	1
11680	4729	1
11671	11672	1
11670	11671	1
11672	11673	1
11673	11674	1
11672	11676	1
11670	11675	1
11670	11678	1
11674	11675	1
11674	11677	1
11675	11679	1
7953	7964	1
7964	7965	1
7964	7972	1
7955	7962	1
7962	7963	1
7962	3857	1
7953	7954	1
7952	7953	1
7954	7955	1
7955	7956	1
7954	7958	1
7952	7957	1
7952	7960	1
7956	7957	1
7956	7959	1
7957	7961	1
4675	4686	1
4686	4687	1
4686	6303	1
4677	4684	1
4684	4685	1
4684	4694	1
4675	4676	1
4674	4675	1
4676	4677	1
4677	4678	1
4676	4680	1
4674	4679	1
4674	4682	1
4678	4679	1
4678	4681	1
4679	4683	1
4617	4628	1
4628	4629	1
859	4628	1
4619	4626	1
4626	4627	1
4626	4641	1
4617	4618	1
4616	4617	1
4618	4619	1
4619	4620	1
4618	4622	1
4616	4621	1
4616	4624	1
4620	4621	1
4620	4623	1
4621	4625	1
10027	10038	1
10038	10039	1
10038	10052	1
10029	10036	1
10036	10037	1
10036	8740	1
10027	10028	1
10026	10027	1
10028	10029	1
10029	10030	1
10028	10032	1
10026	10031	1
10026	10034	1
10030	10031	1
10030	10033	1
10031	10035	1
5782	5793	1
5793	5794	1
5793	5801	1
5784	5791	1
5791	5792	1
5791	8719	1
5782	5783	1
5781	5782	1
5783	5784	1
5784	5785	1
5783	5787	1
5781	5786	1
5781	5789	1
5785	5786	1
5785	5788	1
5786	5790	1
2949	2960	1
2960	2961	1
2960	2962	1
2951	2958	1
2958	2959	1
2958	6676	1
2949	2950	1
2948	2949	1
2950	2951	1
2951	2952	1
2950	2954	1
2948	2953	1
2948	2956	1
2952	2953	1
2952	2955	1
2953	2957	1
6919	6930	1
6930	6931	1
6930	11114	1
6921	6928	1
6928	6929	1
6928	6943	1
6919	6920	1
6918	6919	1
6920	6921	1
6921	6922	1
6920	6924	1
6918	6923	1
6918	6926	1
6922	6923	1
6922	6925	1
6923	6927	1
1250	1261	1
1261	1262	1
1261	7453	1
1252	1259	1
1259	1260	1
1263	1259	1
1250	1251	1
1249	1250	1
1251	1252	1
1252	1253	1
1251	1255	1
1249	1254	1
1249	1257	1
1253	1254	1
1253	1256	1
1254	1258	1
2513	2524	1
2524	2525	1
798	2524	1
2515	2522	1
2522	2523	1
2526	2522	1
2513	2514	1
2512	2513	1
2514	2515	1
2515	2516	1
2514	2518	1
2512	2517	1
2512	2520	1
2516	2517	1
2516	2519	1
2517	2521	1
6339	6346	1
6346	6347	1
6346	7701	1
6337	6348	1
6348	6349	1
6348	6356	1
6339	6338	1
6340	6339	1
6338	6337	1
6337	6336	1
6338	6342	1
6340	6341	1
6340	6343	1
6336	6341	1
6336	6344	1
6341	6345	1
11181	11192	1
11192	11193	1
11192	7424	1
11183	11190	1
11190	11191	1
11190	3828	1
11181	11182	1
11180	11181	1
11182	11183	1
11183	11184	1
11182	11186	1
11180	11185	1
11180	11188	1
11184	11185	1
11184	11187	1
11185	11189	1
10303	10314	1
10314	10315	1
10314	4279	1
10305	10312	1
10312	10313	1
10312	10322	1
10303	10304	1
10302	10303	1
10304	10305	1
10305	10306	1
10304	10308	1
10302	10307	1
10302	10310	1
10306	10307	1
10306	10309	1
10307	10311	1
3776	3783	1
3783	3784	1
768	3783	1
3774	3785	1
3785	3787	1
3785	3786	1
3775	3776	1
3776	3777	1
3774	3775	1
3773	3774	1
3775	3779	1
3777	3778	1
3777	3780	1
3773	3778	1
3773	3781	1
3778	3782	1
11223	11234	1
11234	11235	1
11234	6755	1
11225	11232	1
11232	11233	1
11232	3974	1
11223	11224	1
11222	11223	1
11224	11225	1
11225	11226	1
11224	11228	1
11222	11227	1
11222	11230	1
11226	11227	1
11226	11229	1
11227	11231	1
10524	10535	1
10535	10536	1
10535	11011	1
10526	10533	1
10533	10534	1
10533	10543	1
10524	10525	1
10523	10524	1
10525	10526	1
10526	10527	1
10525	10529	1
10523	10528	1
10523	10531	1
10527	10528	1
10527	10530	1
10528	10532	1
7065	7076	1
7076	7077	1
7076	7084	1
7067	7074	1
7074	7075	1
7074	5879	1
7065	7066	1
7064	7065	1
7066	7067	1
7067	7068	1
7066	7070	1
7064	7069	1
7064	7072	1
7068	7069	1
7068	7071	1
7069	7073	1
1799	1810	1
1810	1811	1
1792	1810	1
1801	1808	1
1808	1809	1
300	1808	1
1799	1800	1
1798	1799	1
1800	1801	1
1801	1802	1
1800	1804	1
1798	1803	1
1798	1806	1
1802	1803	1
1802	1805	1
1803	1807	1
12791	12802	1
12802	12803	1
12802	6958	1
12793	12800	1
12800	12801	1
12800	10664	1
12791	12792	1
12790	12791	1
12792	12793	1
12793	12794	1
12792	12796	1
12790	12795	1
12790	12798	1
12794	12795	1
12794	12797	1
12795	12799	1
3339	3350	1
3350	3351	1
3350	3352	1
3341	3348	1
3348	3349	1
3348	9075	1
3339	3340	1
3338	3339	1
3340	3341	1
3341	3342	1
3340	3344	1
3338	3343	1
3338	3346	1
3342	3343	1
3342	3345	1
3343	3347	1
13491	13502	1
13502	13503	1
13502	8987	1
13493	13500	1
13500	13501	1
13500	10797	1
13491	13492	1
13490	13491	1
13492	13493	1
13493	13494	1
13492	13496	1
13490	13495	1
13490	13498	1
13494	13495	1
13494	13497	1
13495	13499	1
11895	11906	1
11906	11907	1
2009	11906	1
11897	11904	1
11904	11905	1
11904	5122	1
11895	11896	1
11894	11895	1
11896	11897	1
11897	11898	1
11896	11900	1
11894	11899	1
11894	11902	1
11898	11899	1
11898	11901	1
11899	11903	1
11209	11220	1
11220	11221	1
11220	3887	1
11211	11218	1
11218	11219	1
2077	11218	1
11209	11210	1
11208	11209	1
11210	11211	1
11211	11212	1
11210	11214	1
11208	11213	1
11208	11216	1
11212	11213	1
11212	11215	1
11213	11217	1
3564	3575	1
3575	3577	1
3575	3576	1
3566	3573	1
3573	3574	1
3573	10703	1
3564	3565	1
3563	3564	1
3565	3566	1
3566	3567	1
3565	3569	1
3563	3568	1
3563	3571	1
3567	3568	1
3567	3570	1
3568	3572	1
309	316	1
316	317	1
316	7673	1
307	318	1
318	319	1
295	318	1
309	308	1
310	309	1
308	307	1
307	306	1
308	312	1
310	311	1
310	313	1
306	311	1
306	314	1
311	315	1
2560	2571	1
2571	2572	1
2548	2571	1
2562	2569	1
2569	2570	1
422	2569	1
2560	2561	1
2559	2560	1
2561	2562	1
2562	2563	1
2561	2565	1
2559	2564	1
2559	2567	1
2563	2564	1
2563	2566	1
2564	2568	1
5504	5515	1
5515	5516	1
5515	5523	1
5506	5513	1
5513	5514	1
5513	10835	1
5504	5505	1
5503	5504	1
5505	5506	1
5506	5507	1
5505	5509	1
5503	5508	1
5503	5511	1
5507	5508	1
5507	5510	1
5508	5512	1
4283	4294	1
4294	4295	1
4294	4302	1
4285	4292	1
4292	4293	1
4292	8602	1
4283	4284	1
4282	4283	1
4284	4285	1
4285	4286	1
4284	4288	1
4282	4287	1
4282	4290	1
4286	4287	1
4286	4289	1
4287	4291	1
13799	13810	1
13810	13811	1
1287	13810	1
13801	13808	1
13808	13809	1
1639	13808	1
13799	13800	1
13798	13799	1
13800	13801	1
13801	13802	1
13800	13804	1
13798	13803	1
13798	13806	1
13802	13803	1
13802	13805	1
13803	13807	1
3249	3260	1
3260	3261	1
3260	3262	1
3251	3258	1
3258	3259	1
3258	8871	1
3249	3250	1
3248	3249	1
3250	3251	1
3251	3252	1
3250	3254	1
3248	3253	1
3248	3256	1
3252	3253	1
3252	3255	1
3253	3257	1
12497	12508	1
12508	12509	1
12508	6186	1
12499	12506	1
12506	12507	1
12506	6580	1
12497	12498	1
12496	12497	1
12498	12499	1
12499	12500	1
12498	12502	1
12496	12501	1
12496	12504	1
12500	12501	1
12500	12503	1
12501	12505	1
12273	12284	1
12284	12285	1
12284	6988	1
12275	12282	1
12282	12283	1
12282	5778	1
12273	12274	1
12272	12273	1
12274	12275	1
12275	12276	1
12274	12278	1
12272	12277	1
12272	12280	1
12276	12277	1
12276	12279	1
12277	12281	1
11349	11360	1
11360	11361	1
11360	4176	1
11351	11358	1
11358	11359	1
11358	10373	1
11349	11350	1
11348	11349	1
11350	11351	1
11351	11352	1
11350	11354	1
11348	11353	1
11348	11356	1
11352	11353	1
11352	11355	1
11353	11357	1
5242	5253	1
5253	5254	1
5253	5261	1
5244	5251	1
5251	5252	1
5251	7090	1
5242	5243	1
5241	5242	1
5243	5244	1
5244	5245	1
5243	5247	1
5241	5246	1
5241	5249	1
5245	5246	1
5245	5248	1
5246	5250	1
1403	1414	1
1414	1415	1
1391	1414	1
1405	1412	1
1412	1413	1
1412	8704	1
1403	1404	1
1402	1403	1
1404	1405	1
1405	1406	1
1404	1408	1
1402	1407	1
1402	1410	1
1406	1407	1
1406	1409	1
1407	1411	1
12595	12606	1
12606	12607	1
12606	6784	1
12597	12604	1
12604	12605	1
12604	6362	1
12595	12596	1
12594	12595	1
12596	12597	1
12597	12598	1
12596	12600	1
12594	12599	1
12594	12602	1
12598	12599	1
12598	12601	1
12599	12603	1
11839	11850	1
11850	11851	1
11850	8666	1
11841	11848	1
11848	11849	1
11848	5035	1
11839	11840	1
11838	11839	1
11840	11841	1
11841	11842	1
11840	11844	1
11838	11843	1
11838	11846	1
11842	11843	1
11842	11845	1
11843	11847	1
4864	4875	1
4875	4876	1
372	4875	1
4866	4873	1
4873	4874	1
4873	4883	1
4864	4865	1
4863	4864	1
4865	4866	1
4866	4867	1
4865	4869	1
4863	4868	1
4863	4871	1
4867	4868	1
4867	4870	1
4868	4872	1
5916	5923	1
5923	5924	1
5923	7977	1
5914	5925	1
5925	5926	1
5925	5933	1
5915	5916	1
5916	5917	1
5914	5915	1
5913	5914	1
5915	5919	1
5917	5918	1
5917	5920	1
5913	5918	1
5913	5921	1
5918	5922	1
11335	11346	1
11346	11347	1
11346	4917	1
11337	11344	1
11344	11345	1
11344	4148	1
11335	11336	1
11334	11335	1
11336	11337	1
11337	11338	1
11336	11340	1
11334	11339	1
11334	11342	1
11338	11339	1
11338	11341	1
11339	11343	1
12189	12200	1
12200	12201	1
1700	12200	1
12191	12198	1
12198	12199	1
12198	5655	1
12189	12190	1
12188	12189	1
12190	12191	1
12191	12192	1
12190	12194	1
12188	12193	1
12188	12196	1
12192	12193	1
12192	12195	1
12193	12197	1
10611	10622	1
10622	10623	1
10622	10630	1
10613	10620	1
10620	10621	1
10620	10841	1
10611	10612	1
10610	10611	1
10612	10613	1
10613	10614	1
10612	10616	1
10610	10615	1
10610	10618	1
10614	10615	1
10614	10617	1
10615	10619	1
3534	3545	1
3545	3546	1
3545	3547	1
3536	3543	1
3543	3544	1
3543	10460	1
3534	3535	1
3533	3534	1
3535	3536	1
3536	3537	1
3535	3539	1
3533	3538	1
3533	3541	1
3537	3538	1
3537	3540	1
3538	3542	1
473	484	1
484	485	1
484	9901	1
475	482	1
482	483	1
486	482	1
473	474	1
472	473	1
474	475	1
475	476	1
474	478	1
472	477	1
472	480	1
476	477	1
476	479	1
477	481	1
7735	7746	1
7746	7747	1
7746	5034	1
7737	7744	1
7744	7745	1
7744	7754	1
7735	7736	1
7734	7735	1
7736	7737	1
7737	7738	1
7736	7740	1
7734	7739	1
7734	7742	1
7738	7739	1
7738	7741	1
7739	7743	1
11867	11878	1
11878	11879	1
11878	5092	1
11869	11876	1
11876	11877	1
11876	9994	1
11867	11868	1
11866	11867	1
11868	11869	1
11869	11870	1
11868	11872	1
11866	11871	1
11866	11874	1
11870	11871	1
11870	11873	1
11871	11875	1
212	223	1
223	224	1
202	223	1
214	221	1
221	222	1
221	8324	1
212	213	1
211	212	1
213	214	1
214	215	1
213	217	1
211	216	1
211	219	1
215	216	1
215	218	1
216	220	1
10553	10564	1
10564	10565	1
10564	10572	1
10555	10562	1
10562	10563	1
10562	7876	1
10553	10554	1
10552	10553	1
10554	10555	1
10555	10556	1
10554	10558	1
10552	10557	1
10552	10560	1
10556	10557	1
10556	10559	1
10557	10561	1
20	31	1
31	32	1
31	3973	1
22	29	1
29	30	1
10	29	1
20	21	1
19	20	1
21	22	1
22	23	1
21	25	1
19	24	1
19	27	1
23	24	1
23	26	1
24	28	1
2711	2718	1
2718	2719	1
2718	5029	1
2709	2720	1
2720	2721	1
2720	2722	1
2710	2711	1
2711	2712	1
2709	2710	1
2708	2709	1
2710	2714	1
2712	2713	1
2712	2715	1
2708	2713	1
2708	2716	1
2713	2717	1
2165	2172	1
2172	2173	1
2176	2172	1
2163	2174	1
2174	2175	1
2174	8383	1
2164	2165	1
2165	2166	1
2163	2164	1
2162	2163	1
2164	2168	1
2166	2167	1
2166	2169	1
2162	2167	1
2162	2170	1
2167	2171	1
13687	13698	1
13698	13699	1
13698	10840	1
13689	13696	1
13696	13697	1
13696	10636	1
13687	13688	1
13686	13687	1
13688	13689	1
13689	13690	1
13688	13692	1
13686	13691	1
13686	13694	1
13690	13691	1
13690	13693	1
13691	13695	1
7196	7207	1
7207	7208	1
7207	6842	1
7198	7205	1
7205	7206	1
7205	7215	1
7196	7197	1
7195	7196	1
7197	7198	1
7198	7199	1
7197	7201	1
7195	7200	1
7195	7203	1
7199	7200	1
7199	7202	1
7200	7204	1
4065	4076	1
4076	4077	1
4076	4084	1
4067	4074	1
4074	4075	1
4074	5553	1
4065	4066	1
4064	4065	1
4066	4067	1
4067	4068	1
4066	4070	1
4064	4069	1
4064	4072	1
4068	4069	1
4068	4071	1
4069	4073	1
6074	6085	1
6085	6086	1
6085	6093	1
6076	6083	1
6083	6084	1
6083	6871	1
6074	6075	1
6073	6074	1
6075	6076	1
6076	6077	1
6075	6079	1
6073	6078	1
6073	6081	1
6077	6078	1
6077	6080	1
6078	6082	1
4256	4263	1
4263	4264	1
1041	4263	1
4254	4265	1
4265	4266	1
4265	4273	1
4255	4256	1
4256	4257	1
4254	4255	1
4253	4254	1
4255	4259	1
4257	4258	1
4257	4260	1
4253	4258	1
4253	4261	1
4258	4262	1
13255	13262	1
13262	13263	1
13262	9192	1
13253	13264	1
13264	13265	1
13264	8212	1
13254	13255	1
13255	13256	1
13253	13254	1
13252	13253	1
13254	13258	1
13256	13257	1
13256	13259	1
13252	13257	1
13252	13260	1
13257	13261	1
7036	7047	1
7047	7048	1
7047	11135	1
7038	7045	1
7045	7046	1
7045	7055	1
7036	7037	1
7035	7036	1
7037	7038	1
7038	7039	1
7037	7041	1
7035	7040	1
7035	7043	1
7039	7040	1
7039	7042	1
7040	7044	1
4123	4134	1
4134	4135	1
4134	5397	1
4125	4132	1
4132	4133	1
4132	4142	1
4123	4124	1
4122	4123	1
4124	4125	1
4125	4126	1
4124	4128	1
4122	4127	1
4122	4130	1
4126	4127	1
4126	4129	1
4127	4131	1
3551	3558	1
3558	3559	1
3558	10606	1
3549	3560	1
3560	3561	1
3560	3562	1
3550	3551	1
3551	3552	1
3549	3550	1
3548	3549	1
3550	3554	1
3552	3553	1
3552	3555	1
3548	3553	1
3548	3556	1
3553	3557	1
3311	3318	1
3318	3319	1
3318	9041	1
3309	3320	1
3320	3321	1
3320	3322	1
3310	3311	1
3311	3312	1
3309	3310	1
3308	3309	1
3310	3314	1
3312	3313	1
3312	3315	1
3308	3313	1
3308	3316	1
3313	3317	1
7548	7555	1
7555	7556	1
7555	7570	1
7546	7557	1
7557	7558	1
7557	5631	1
7548	7547	1
7549	7548	1
7547	7546	1
7546	7545	1
7547	7551	1
7549	7550	1
7549	7552	1
7545	7550	1
7545	7553	1
7550	7554	1
10421	10432	1
10432	10433	1
10432	10445	1
10423	10430	1
10430	10431	1
10430	6637	1
10421	10422	1
10420	10421	1
10422	10423	1
10423	10424	1
10422	10426	1
10420	10425	1
10420	10428	1
10424	10425	1
10424	10427	1
10425	10429	1
5344	5355	1
5355	5356	1
5355	5363	1
5346	5353	1
5353	5354	1
5353	10455	1
5344	5345	1
5343	5344	1
5345	5346	1
5346	5347	1
5345	5349	1
5343	5348	1
5343	5351	1
5347	5348	1
5347	5350	1
5348	5352	1
12119	12130	1
12130	12131	1
12130	9600	1
12121	12128	1
12128	12129	1
12128	5559	1
12119	12120	1
12118	12119	1
12120	12121	1
12121	12122	1
12120	12124	1
12118	12123	1
12118	12126	1
12122	12123	1
12122	12125	1
12123	12127	1
3802	3803	1
3802	3805	1
3802	3808	1
3803	3804	1
3803	3810	1
3804	3807	1
3804	3814	1
3806	3807	1
3807	3812	1
3805	3806	1
3806	3813	1
3805	3811	1
3813	3815	1
3808	3809	1
3814	3816	1
291	294	1
290	291	1
291	301	1
293	294	1
294	299	1
292	293	1
293	300	1
289	292	1
292	298	1
289	290	1
289	295	1
290	297	1
295	296	1
301	303	1
301	304	1
300	302	1
304	305	1
336	337	1
336	341	1
336	334	1
337	338	1
337	347	1
338	339	1
338	344	1
340	339	1
339	348	1
341	340	1
340	342	1
341	349	1
342	343	1
334	335	1
344	345	1
344	346	1
3817	3820	1
3817	3818	1
3817	3823	1
3820	3821	1
3820	3826	1
3821	3822	1
3821	3828	1
3819	3822	1
3822	3827	1
3818	3819	1
3819	3829	1
3818	3825	1
3829	3831	1
3823	3824	1
3828	3830	1
366	371	1
366	367	1
366	364	1
371	370	1
371	379	1
370	369	1
370	372	1
368	369	1
369	378	1
367	368	1
368	374	1
367	377	1
374	375	1
374	376	1
364	365	1
372	373	1
380	383	1
380	381	1
380	386	1
383	384	1
383	389	1
384	385	1
384	391	1
382	385	1
385	390	1
381	382	1
382	392	1
381	388	1
392	394	1
392	395	1
386	387	1
391	393	1
395	396	1
3846	3849	1
3846	3847	1
3846	3852	1
3849	3850	1
3849	3855	1
3850	3851	1
3850	3857	1
3848	3851	1
3851	3856	1
3847	3848	1
3848	3858	1
3847	3854	1
3858	3860	1
3852	3853	1
3857	3859	1
3875	3878	1
3875	3876	1
3875	3881	1
3878	3879	1
3878	3884	1
3879	3880	1
3879	3886	1
3877	3880	1
3880	3885	1
3876	3877	1
3877	3887	1
3876	3883	1
3887	3889	1
3881	3882	1
3886	3888	1
412	413	1
413	416	1
413	423	1
411	412	1
412	419	1
411	414	1
411	417	1
414	415	1
414	420	1
415	416	1
415	422	1
416	421	1
422	424	1
423	425	1
423	426	1
417	418	1
426	427	1
3904	3907	1
3904	3905	1
3904	3910	1
3907	3908	1
3907	3913	1
3908	3909	1
3908	3915	1
3906	3909	1
3909	3914	1
3905	3906	1
3906	3916	1
3905	3912	1
3916	3918	1
3910	3911	1
3915	3917	1
3933	3934	1
3933	3936	1
3933	3939	1
3934	3935	1
3934	3941	1
3935	3938	1
3935	3945	1
3937	3938	1
3938	3943	1
3936	3937	1
3937	3944	1
3936	3942	1
3944	3946	1
3939	3940	1
3945	3947	1
3962	3965	1
3962	3963	1
3962	3968	1
3965	3966	1
3965	3971	1
3966	3967	1
3966	3973	1
3964	3967	1
3967	3972	1
3963	3964	1
3964	3974	1
3963	3970	1
3974	3976	1
3968	3969	1
3973	3975	1
459	460	1
460	461	1
460	466	1
458	459	1
459	469	1
458	463	1
458	456	1
463	462	1
463	471	1
462	461	1
462	464	1
461	470	1
464	465	1
466	467	1
466	468	1
456	457	1
3991	3994	1
3991	3992	1
3991	3997	1
3994	3995	1
3994	4000	1
3995	3996	1
3995	4002	1
3993	3996	1
3996	4001	1
3992	3993	1
3993	4003	1
3992	3999	1
4003	4005	1
3997	3998	1
4002	4004	1
4020	4021	1
4020	4023	1
4020	4026	1
4021	4022	1
4021	4028	1
4022	4025	1
4022	4032	1
4024	4025	1
4025	4030	1
4023	4024	1
4024	4031	1
4023	4029	1
4031	4033	1
4026	4027	1
4032	4034	1
4049	4050	1
4049	4052	1
4049	4055	1
4050	4051	1
4050	4057	1
4051	4054	1
4051	4061	1
4053	4054	1
4054	4059	1
4052	4053	1
4053	4060	1
4052	4058	1
4060	4062	1
4055	4056	1
4061	4063	1
9	4	1
4	5	1
4	2	1
8	9	1
9	18	1
8	7	1
8	10	1
7	6	1
7	17	1
6	5	1
6	12	1
5	16	1
12	13	1
12	14	1
2	3	1
2	1	1
10	11	1
1	15	1
4078	4079	1
4078	4081	1
4078	4084	1
4079	4080	1
4079	4086	1
4080	4083	1
4080	4090	1
4082	4083	1
4083	4088	1
4081	4082	1
4082	4089	1
4081	4087	1
4089	4091	1
4084	4085	1
4090	4092	1
488	489	1
488	493	1
488	486	1
489	490	1
489	499	1
490	491	1
490	496	1
492	491	1
491	500	1
493	492	1
492	494	1
493	501	1
494	495	1
486	487	1
496	497	1
496	498	1
4107	4108	1
4107	4110	1
4107	4113	1
4108	4109	1
4108	4115	1
4109	4112	1
4109	4119	1
4111	4112	1
4112	4117	1
4110	4111	1
4111	4118	1
4110	4116	1
4118	4120	1
4113	4114	1
4119	4121	1
518	523	1
518	519	1
518	516	1
523	522	1
523	531	1
522	521	1
522	524	1
520	521	1
521	530	1
519	520	1
520	526	1
519	529	1
526	527	1
526	528	1
516	517	1
524	525	1
4136	4137	1
4136	4139	1
4136	4142	1
4137	4138	1
4137	4144	1
4138	4141	1
4138	4148	1
4140	4141	1
4141	4146	1
4139	4140	1
4140	4147	1
4139	4145	1
4147	4149	1
4142	4143	1
4148	4150	1
4165	4166	1
4165	4168	1
4165	4171	1
4166	4167	1
4166	4173	1
4167	4170	1
4167	4177	1
4169	4170	1
4170	4175	1
4168	4169	1
4169	4176	1
4168	4174	1
4176	4178	1
4171	4172	1
4177	4179	1
4194	4197	1
4194	4195	1
4194	4200	1
4197	4198	1
4197	4203	1
4198	4199	1
4198	4205	1
4196	4199	1
4199	4204	1
4195	4196	1
4196	4206	1
4195	4202	1
4206	4208	1
4200	4201	1
4205	4207	1
4223	4224	1
4223	4226	1
4223	4229	1
4224	4225	1
4224	4231	1
4225	4228	1
4225	4235	1
4227	4228	1
4228	4233	1
4226	4227	1
4227	4234	1
4226	4232	1
4234	4236	1
4229	4230	1
4235	4237	1
548	549	1
548	553	1
548	546	1
549	550	1
549	559	1
550	551	1
550	556	1
552	551	1
551	560	1
553	552	1
552	554	1
553	561	1
554	555	1
546	547	1
556	557	1
556	558	1
563	564	1
564	567	1
564	574	1
562	563	1
563	570	1
562	565	1
562	568	1
565	566	1
565	571	1
566	567	1
566	573	1
567	572	1
573	575	1
574	576	1
574	577	1
568	569	1
577	578	1
4238	4241	1
4238	4239	1
4238	4244	1
4241	4242	1
4241	4247	1
4242	4243	1
4242	4249	1
4240	4243	1
4243	4248	1
4239	4240	1
4240	4250	1
4239	4246	1
4250	4252	1
4244	4245	1
4249	4251	1
4269	4272	1
4268	4269	1
4269	4279	1
4271	4272	1
4272	4277	1
4270	4271	1
4271	4278	1
4267	4270	1
4270	4276	1
4267	4268	1
4267	4273	1
4268	4275	1
4273	4274	1
4279	4281	1
4278	4280	1
609	610	1
609	614	1
609	607	1
610	611	1
610	620	1
611	612	1
611	617	1
613	612	1
612	621	1
614	613	1
613	615	1
614	622	1
615	616	1
607	608	1
617	618	1
617	619	1
4296	4299	1
4296	4297	1
4296	4302	1
4299	4300	1
4299	4305	1
4300	4301	1
4300	4307	1
4298	4301	1
4301	4306	1
4297	4298	1
4298	4308	1
4297	4304	1
4308	4310	1
4302	4303	1
4307	4309	1
623	624	1
623	626	1
623	629	1
624	625	1
624	631	1
625	628	1
625	635	1
627	628	1
628	633	1
626	627	1
627	634	1
626	632	1
634	636	1
629	630	1
635	637	1
635	638	1
638	639	1
4325	4328	1
4325	4326	1
4325	4331	1
4328	4329	1
4328	4334	1
4329	4330	1
4329	4336	1
4327	4330	1
4330	4335	1
4326	4327	1
4327	4337	1
4326	4333	1
4337	4339	1
4331	4332	1
4336	4338	1
4340	4341	1
4340	4343	1
4340	4346	1
4341	4342	1
4341	4348	1
4342	4345	1
4342	4352	1
4344	4345	1
4345	4350	1
4343	4344	1
4344	4351	1
4343	4349	1
4351	4353	1
4346	4347	1
4352	4354	1
4369	4370	1
4369	4372	1
4369	4375	1
4370	4371	1
4370	4377	1
4371	4374	1
4371	4381	1
4373	4374	1
4374	4379	1
4372	4373	1
4373	4380	1
4372	4378	1
4380	4382	1
4375	4376	1
4381	4383	1
4398	4399	1
4398	4401	1
4398	4404	1
4399	4400	1
4399	4406	1
4400	4403	1
4400	4410	1
4402	4403	1
4403	4408	1
4401	4402	1
4402	4409	1
4401	4407	1
4409	4411	1
4404	4405	1
4410	4412	1
4427	4430	1
4427	4428	1
4427	4433	1
4430	4431	1
4430	4436	1
4431	4432	1
4431	4438	1
4429	4432	1
4432	4437	1
4428	4429	1
4429	4439	1
4428	4435	1
4439	4441	1
4433	4434	1
4438	4440	1
673	672	1
672	671	1
672	678	1
674	673	1
673	682	1
674	675	1
674	676	1
675	670	1
675	683	1
670	671	1
670	668	1
671	681	1
668	669	1
678	679	1
678	680	1
676	677	1
4456	4457	1
4456	4459	1
4456	4462	1
4457	4458	1
4457	4464	1
4458	4461	1
4458	4468	1
4460	4461	1
4461	4466	1
4459	4460	1
4460	4467	1
4459	4465	1
4467	4469	1
4462	4463	1
4468	4470	1
684	687	1
684	685	1
684	690	1
687	688	1
687	693	1
688	689	1
688	695	1
686	689	1
689	694	1
685	686	1
686	696	1
685	692	1
696	698	1
696	699	1
690	691	1
695	697	1
699	700	1
4485	4488	1
4485	4486	1
4485	4491	1
4488	4489	1
4488	4494	1
4489	4490	1
4489	4496	1
4487	4490	1
4490	4495	1
4486	4487	1
4487	4497	1
4486	4493	1
4497	4499	1
4491	4492	1
4496	4498	1
4514	4517	1
4514	4515	1
4514	4520	1
4517	4518	1
4517	4523	1
4518	4519	1
4518	4525	1
4516	4519	1
4519	4524	1
4515	4516	1
4516	4526	1
4515	4522	1
4526	4528	1
4520	4521	1
4525	4527	1
4543	4546	1
4543	4544	1
4543	4549	1
4546	4547	1
4546	4552	1
4547	4548	1
4547	4554	1
4545	4548	1
4548	4553	1
4544	4545	1
4545	4555	1
4544	4551	1
4555	4557	1
4549	4550	1
4554	4556	1
4572	4573	1
4572	4575	1
4572	4578	1
4573	4574	1
4573	4580	1
4574	4577	1
4574	4584	1
4576	4577	1
4577	4582	1
4575	4576	1
4576	4583	1
4575	4581	1
4583	4585	1
4578	4579	1
4584	4586	1
715	718	1
715	716	1
715	721	1
718	719	1
718	724	1
719	720	1
719	726	1
717	720	1
720	725	1
716	717	1
717	727	1
716	723	1
727	729	1
727	730	1
721	722	1
726	728	1
730	731	1
762	767	1
762	763	1
762	760	1
767	766	1
767	775	1
766	765	1
766	768	1
764	765	1
765	774	1
763	764	1
764	770	1
763	773	1
770	771	1
770	772	1
760	761	1
768	769	1
792	793	1
792	797	1
792	790	1
793	794	1
793	803	1
794	795	1
794	800	1
796	795	1
795	804	1
797	796	1
796	798	1
797	805	1
798	799	1
790	791	1
800	801	1
800	802	1
4602	4603	1
4603	4606	1
4603	4613	1
4601	4602	1
4602	4609	1
4601	4604	1
4601	4607	1
4604	4605	1
4604	4610	1
4605	4606	1
4605	4612	1
4606	4611	1
4612	4614	1
4613	4615	1
4607	4608	1
4634	4635	1
4634	4633	1
4634	4641	1
4635	4632	1
4635	4640	1
4632	4631	1
4632	4642	1
4630	4631	1
4631	4638	1
4633	4630	1
4630	4636	1
4633	4639	1
4636	4637	1
4641	4643	1
4642	4644	1
4659	4660	1
4659	4662	1
4659	4665	1
4660	4661	1
4660	4667	1
4661	4664	1
4661	4671	1
4663	4664	1
4664	4669	1
4662	4663	1
4663	4670	1
4662	4668	1
4670	4672	1
4665	4666	1
4671	4673	1
38	37	1
39	38	1
38	44	1
36	37	1
37	48	1
41	36	1
36	34	1
40	41	1
41	50	1
40	39	1
40	42	1
39	49	1
42	43	1
44	45	1
44	46	1
34	35	1
34	33	1
33	47	1
4688	4689	1
4688	4691	1
4688	4694	1
4689	4690	1
4689	4696	1
4690	4693	1
4690	4700	1
4692	4693	1
4693	4698	1
4691	4692	1
4692	4699	1
4691	4697	1
4699	4701	1
4694	4695	1
4700	4702	1
4717	4720	1
4717	4718	1
4717	4723	1
4720	4721	1
4720	4726	1
4721	4722	1
4721	4728	1
4719	4722	1
4722	4727	1
4718	4719	1
4719	4729	1
4718	4725	1
4729	4731	1
4723	4724	1
4728	4730	1
807	808	1
808	811	1
808	818	1
806	807	1
807	814	1
806	809	1
806	812	1
809	810	1
809	815	1
810	811	1
810	817	1
811	816	1
817	819	1
818	820	1
818	821	1
812	813	1
821	822	1
4746	4749	1
4746	4747	1
4746	4752	1
4749	4750	1
4749	4755	1
4750	4751	1
4750	4757	1
4748	4751	1
4751	4756	1
4747	4748	1
4748	4758	1
4747	4754	1
4758	4760	1
4752	4753	1
4757	4759	1
4775	4778	1
4775	4776	1
4775	4781	1
4778	4779	1
4778	4784	1
4779	4780	1
4779	4786	1
4777	4780	1
4780	4785	1
4776	4777	1
4777	4787	1
4776	4783	1
4787	4789	1
4781	4782	1
4786	4788	1
855	856	1
854	855	1
855	861	1
857	856	1
856	865	1
858	857	1
857	859	1
853	858	1
858	866	1
853	854	1
853	851	1
854	864	1
851	852	1
861	862	1
861	863	1
859	860	1
4804	4807	1
4804	4805	1
4804	4810	1
4807	4808	1
4807	4813	1
4808	4809	1
4808	4815	1
4806	4809	1
4809	4814	1
4805	4806	1
4806	4816	1
4805	4812	1
4816	4818	1
4810	4811	1
4815	4817	1
4819	4822	1
4819	4820	1
4819	4825	1
4822	4823	1
4822	4828	1
4823	4824	1
4823	4830	1
4821	4824	1
4824	4829	1
4820	4821	1
4821	4831	1
4820	4827	1
4831	4833	1
4825	4826	1
4830	4832	1
4848	4849	1
4848	4851	1
4848	4854	1
4849	4850	1
4849	4856	1
4850	4853	1
4850	4860	1
4852	4853	1
4853	4858	1
4851	4852	1
4852	4859	1
4851	4857	1
4859	4861	1
4854	4855	1
4860	4862	1
4877	4880	1
4877	4878	1
4877	4883	1
4880	4881	1
4880	4886	1
4881	4882	1
4881	4888	1
4879	4882	1
4882	4887	1
4878	4879	1
4879	4889	1
4878	4885	1
4889	4891	1
4883	4884	1
4888	4890	1
4906	4907	1
4906	4909	1
4906	4912	1
4907	4908	1
4907	4914	1
4908	4911	1
4908	4918	1
4910	4911	1
4911	4916	1
4909	4910	1
4910	4917	1
4909	4915	1
4917	4919	1
4912	4913	1
4918	4920	1
867	870	1
867	868	1
867	873	1
870	871	1
870	876	1
871	872	1
871	878	1
869	872	1
872	877	1
868	869	1
869	879	1
868	875	1
879	881	1
879	882	1
873	874	1
878	880	1
882	883	1
4935	4936	1
4935	4938	1
4935	4941	1
4936	4937	1
4936	4943	1
4937	4940	1
4937	4947	1
4939	4940	1
4940	4945	1
4938	4939	1
4939	4946	1
4938	4944	1
4946	4948	1
4941	4942	1
4947	4949	1
914	919	1
914	915	1
914	912	1
919	918	1
919	927	1
918	917	1
918	920	1
916	917	1
917	926	1
915	916	1
916	922	1
915	925	1
922	923	1
922	924	1
912	913	1
920	921	1
4950	4951	1
4950	4953	1
4950	4956	1
4951	4952	1
4951	4958	1
4952	4955	1
4952	4962	1
4954	4955	1
4955	4960	1
4953	4954	1
4954	4961	1
4953	4959	1
4961	4963	1
4956	4957	1
4962	4964	1
4979	4980	1
4979	4982	1
4979	4985	1
4980	4981	1
4980	4987	1
4981	4984	1
4981	4991	1
4983	4984	1
4984	4989	1
4982	4983	1
4983	4990	1
4982	4988	1
4990	4992	1
4985	4986	1
4991	4993	1
944	945	1
944	949	1
944	942	1
945	946	1
945	955	1
946	947	1
946	952	1
948	947	1
947	956	1
949	948	1
948	950	1
949	957	1
950	951	1
942	943	1
952	953	1
952	954	1
5008	5009	1
5008	5011	1
5008	5014	1
5009	5010	1
5009	5016	1
5010	5013	1
5010	5020	1
5012	5013	1
5013	5018	1
5011	5012	1
5012	5019	1
5011	5017	1
5019	5021	1
5014	5015	1
5020	5022	1
5023	5024	1
5023	5026	1
5023	5029	1
5024	5025	1
5024	5031	1
5025	5028	1
5025	5035	1
5027	5028	1
5028	5033	1
5026	5027	1
5027	5034	1
5026	5032	1
5034	5036	1
5029	5030	1
5035	5037	1
5052	5053	1
5052	5055	1
5052	5058	1
5053	5054	1
5053	5060	1
5054	5057	1
5054	5064	1
5056	5057	1
5057	5062	1
5055	5056	1
5056	5063	1
5055	5061	1
5063	5065	1
5058	5059	1
5064	5066	1
5081	5082	1
5081	5084	1
5081	5087	1
5082	5083	1
5082	5089	1
5083	5086	1
5083	5093	1
5085	5086	1
5086	5091	1
5084	5085	1
5085	5092	1
5084	5090	1
5092	5094	1
5087	5088	1
5093	5095	1
5110	5113	1
5110	5111	1
5110	5116	1
5113	5114	1
5113	5119	1
5114	5115	1
5114	5121	1
5112	5115	1
5115	5120	1
5111	5112	1
5112	5122	1
5111	5118	1
5122	5124	1
5116	5117	1
5121	5123	1
5139	5142	1
5139	5140	1
5139	5145	1
5142	5143	1
5142	5148	1
5143	5144	1
5143	5150	1
5141	5144	1
5144	5149	1
5140	5141	1
5141	5151	1
5140	5147	1
5151	5153	1
5145	5146	1
5150	5152	1
958	961	1
958	959	1
958	964	1
961	962	1
961	967	1
962	963	1
962	969	1
960	963	1
963	968	1
959	960	1
960	970	1
959	966	1
970	972	1
970	973	1
964	965	1
969	971	1
973	974	1
1005	1006	1
1005	1010	1
1005	1003	1
1006	1007	1
1006	1016	1
1007	1008	1
1007	1013	1
1009	1008	1
1008	1017	1
1010	1009	1
1009	1011	1
1010	1018	1
1011	1012	1
1003	1004	1
1013	1014	1
1013	1015	1
5168	5171	1
5168	5169	1
5168	5174	1
5171	5172	1
5171	5177	1
5172	5173	1
5172	5179	1
5170	5173	1
5173	5178	1
5169	5170	1
5170	5180	1
5169	5176	1
5180	5182	1
5174	5175	1
5179	5181	1
5197	5200	1
5197	5198	1
5197	5203	1
5200	5201	1
5200	5206	1
5201	5202	1
5201	5208	1
5199	5202	1
5202	5207	1
5198	5199	1
5199	5209	1
5198	5205	1
5209	5211	1
5203	5204	1
5208	5210	1
5226	5227	1
5226	5229	1
5226	5232	1
5227	5228	1
5227	5234	1
5228	5231	1
5228	5238	1
5230	5231	1
5231	5236	1
5229	5230	1
5230	5237	1
5229	5235	1
5237	5239	1
5232	5233	1
5238	5240	1
5255	5256	1
5255	5258	1
5255	5261	1
5256	5257	1
5256	5263	1
5257	5260	1
5257	5267	1
5259	5260	1
5260	5265	1
5258	5259	1
5259	5266	1
5258	5264	1
5266	5268	1
5261	5262	1
5267	5269	1
5284	5287	1
5284	5285	1
5284	5290	1
5287	5288	1
5287	5293	1
5288	5289	1
5288	5295	1
5286	5289	1
5289	5294	1
5285	5286	1
5286	5296	1
5285	5292	1
5296	5298	1
5290	5291	1
5295	5297	1
5299	5302	1
5299	5300	1
5299	5305	1
5302	5303	1
5302	5308	1
5303	5304	1
5303	5310	1
5301	5304	1
5304	5309	1
5300	5301	1
5301	5311	1
5300	5307	1
5311	5313	1
5305	5306	1
5310	5312	1
5328	5331	1
5328	5329	1
5328	5334	1
5331	5332	1
5331	5337	1
5332	5333	1
5332	5339	1
5330	5333	1
5333	5338	1
5329	5330	1
5330	5340	1
5329	5336	1
5340	5342	1
5334	5335	1
5339	5341	1
5357	5360	1
5357	5358	1
5357	5363	1
5360	5361	1
5360	5366	1
5361	5362	1
5361	5368	1
5359	5362	1
5362	5367	1
5358	5359	1
5359	5369	1
5358	5365	1
5369	5371	1
5363	5364	1
5368	5370	1
5386	5389	1
5386	5387	1
5386	5392	1
5389	5390	1
5389	5395	1
5390	5391	1
5390	5397	1
5388	5391	1
5391	5396	1
5387	5388	1
5388	5398	1
5387	5394	1
5398	5400	1
5392	5393	1
5397	5399	1
5415	5418	1
5415	5416	1
5415	5421	1
5418	5419	1
5418	5424	1
5419	5420	1
5419	5426	1
5417	5420	1
5420	5425	1
5416	5417	1
5417	5427	1
5416	5423	1
5427	5429	1
5421	5422	1
5426	5428	1
5430	5431	1
5430	5433	1
5430	5436	1
5431	5432	1
5431	5438	1
5432	5435	1
5432	5442	1
5434	5435	1
5435	5440	1
5433	5434	1
5434	5441	1
5433	5439	1
5441	5443	1
5436	5437	1
5442	5444	1
5459	5460	1
5459	5462	1
5459	5465	1
5460	5461	1
5460	5467	1
5461	5464	1
5461	5471	1
5463	5464	1
5464	5469	1
5462	5463	1
5463	5470	1
5462	5468	1
5470	5472	1
5465	5466	1
5471	5473	1
5488	5491	1
5488	5489	1
5488	5494	1
5491	5492	1
5491	5497	1
5492	5493	1
5492	5499	1
5490	5493	1
5493	5498	1
5489	5490	1
5490	5500	1
5489	5496	1
5500	5502	1
5494	5495	1
5499	5501	1
1035	1040	1
1035	1036	1
1035	1033	1
1040	1039	1
1040	1048	1
1039	1038	1
1039	1041	1
1037	1038	1
1038	1047	1
1036	1037	1
1037	1043	1
1036	1046	1
1043	1044	1
1043	1045	1
1033	1034	1
1041	1042	1
5517	5520	1
5517	5518	1
5517	5523	1
5520	5521	1
5520	5526	1
5521	5522	1
5521	5528	1
5519	5522	1
5522	5527	1
5518	5519	1
5519	5529	1
5518	5525	1
5529	5531	1
5523	5524	1
5528	5530	1
5533	5534	1
5534	5537	1
5534	5544	1
5532	5533	1
5533	5540	1
5532	5535	1
5532	5538	1
5535	5536	1
5535	5541	1
5536	5537	1
5536	5543	1
5537	5542	1
5543	5545	1
5544	5546	1
5538	5539	1
5547	5550	1
5547	5548	1
5547	5553	1
5550	5551	1
5550	5556	1
5551	5552	1
5551	5558	1
5549	5552	1
5552	5557	1
5548	5549	1
5549	5559	1
5548	5555	1
5559	5561	1
5553	5554	1
5558	5560	1
5576	5579	1
5576	5577	1
5576	5582	1
5579	5580	1
5579	5585	1
5580	5581	1
5580	5587	1
5578	5581	1
5581	5586	1
5577	5578	1
5578	5588	1
5577	5584	1
5588	5590	1
5582	5583	1
5587	5589	1
1049	1050	1
1049	1052	1
1049	1055	1
1050	1051	1
1050	1057	1
1051	1054	1
1051	1061	1
1053	1054	1
1054	1059	1
1052	1053	1
1053	1060	1
1052	1058	1
1060	1062	1
1055	1056	1
1061	1063	1
1061	1064	1
1064	1065	1
5591	5594	1
5591	5592	1
5591	5597	1
5594	5595	1
5594	5600	1
5595	5596	1
5595	5602	1
5593	5596	1
5596	5601	1
5592	5593	1
5593	5603	1
5592	5599	1
5603	5605	1
5597	5598	1
5602	5604	1
1080	1081	1
1080	1083	1
1080	1086	1
1081	1082	1
1081	1088	1
1082	1085	1
1082	1092	1
1084	1085	1
1085	1090	1
1083	1084	1
1084	1091	1
1083	1089	1
1091	1093	1
1086	1087	1
1092	1094	1
1092	1095	1
1095	1096	1
5620	5623	1
5620	5621	1
5620	5626	1
5623	5624	1
5623	5629	1
5624	5625	1
5624	5631	1
5622	5625	1
5625	5630	1
5621	5622	1
5622	5632	1
5621	5628	1
5632	5634	1
5626	5627	1
5631	5633	1
1112	1113	1
1113	1116	1
1113	1123	1
1111	1112	1
1112	1119	1
1111	1114	1
1111	1117	1
1114	1115	1
1114	1120	1
1115	1116	1
1115	1122	1
1116	1121	1
1122	1124	1
1123	1125	1
1123	1126	1
1117	1118	1
1126	1127	1
5653	5652	1
5654	5653	1
5653	5660	1
5649	5652	1
5652	5658	1
5650	5649	1
5649	5655	1
5651	5650	1
5650	5657	1
5651	5654	1
5651	5661	1
5654	5659	1
5661	5663	1
5660	5662	1
5655	5656	1
5678	5679	1
5678	5681	1
5678	5684	1
5679	5680	1
5679	5686	1
5680	5683	1
5680	5690	1
5682	5683	1
5683	5688	1
5681	5682	1
5682	5689	1
5681	5687	1
5689	5691	1
5684	5685	1
5690	5692	1
5693	5694	1
5693	5696	1
5693	5699	1
5694	5695	1
5694	5701	1
5695	5698	1
5695	5705	1
5697	5698	1
5698	5703	1
5696	5697	1
5697	5704	1
5696	5702	1
5704	5706	1
5699	5700	1
5705	5707	1
1144	1145	1
1144	1149	1
1144	1142	1
1145	1146	1
1145	1155	1
1146	1147	1
1146	1152	1
1148	1147	1
1147	1156	1
1149	1148	1
1148	1150	1
1149	1157	1
1150	1151	1
1142	1143	1
1152	1153	1
1152	1154	1
5722	5725	1
5722	5723	1
5722	5728	1
5725	5726	1
5725	5731	1
5726	5727	1
5726	5733	1
5724	5727	1
5727	5732	1
5723	5724	1
5724	5734	1
5723	5730	1
5734	5736	1
5728	5729	1
5733	5735	1
1174	1175	1
1174	1179	1
1174	1172	1
1175	1176	1
1175	1185	1
1176	1177	1
1176	1182	1
1178	1177	1
1177	1186	1
1179	1178	1
1178	1180	1
1179	1187	1
1180	1181	1
1172	1173	1
1182	1183	1
1182	1184	1
1206	1207	1
1207	1208	1
1207	1213	1
1205	1206	1
1206	1216	1
1205	1210	1
1205	1203	1
1210	1209	1
1210	1218	1
1209	1208	1
1209	1211	1
1208	1217	1
1211	1212	1
1213	1214	1
1213	1215	1
1203	1204	1
5755	5756	1
5754	5755	1
5755	5762	1
5753	5756	1
5756	5761	1
5752	5753	1
5753	5763	1
5751	5752	1
5752	5759	1
5751	5754	1
5751	5757	1
5754	5760	1
5757	5758	1
5762	5764	1
5763	5765	1
5766	5769	1
5766	5767	1
5766	5772	1
5769	5770	1
5769	5775	1
5770	5771	1
5770	5777	1
5768	5771	1
5771	5776	1
5767	5768	1
5768	5778	1
5767	5774	1
5778	5780	1
5772	5773	1
5777	5779	1
5795	5798	1
5795	5796	1
5795	5801	1
5798	5799	1
5798	5804	1
5799	5800	1
5799	5806	1
5797	5800	1
5800	5805	1
5796	5797	1
5797	5807	1
5796	5803	1
5807	5809	1
5801	5802	1
5806	5808	1
5824	5825	1
5824	5827	1
5824	5830	1
5825	5826	1
5825	5832	1
5826	5829	1
5826	5836	1
5828	5829	1
5829	5834	1
5827	5828	1
5828	5835	1
5827	5833	1
5835	5837	1
5830	5831	1
5836	5838	1
5853	5854	1
5853	5856	1
5853	5859	1
5854	5855	1
5854	5861	1
5855	5858	1
5855	5865	1
5857	5858	1
5858	5863	1
5856	5857	1
5857	5864	1
5856	5862	1
5864	5866	1
5859	5860	1
5865	5867	1
5868	5871	1
5868	5869	1
5868	5874	1
5871	5872	1
5871	5877	1
5872	5873	1
5872	5879	1
5870	5873	1
5873	5878	1
5869	5870	1
5870	5880	1
5869	5876	1
5880	5882	1
5874	5875	1
5879	5881	1
5883	5886	1
5883	5884	1
5883	5889	1
5886	5887	1
5886	5892	1
5887	5888	1
5887	5894	1
5885	5888	1
5888	5893	1
5884	5885	1
5885	5895	1
5884	5891	1
5895	5897	1
5889	5890	1
5894	5896	1
1236	1237	1
1237	1238	1
1237	1243	1
1235	1236	1
1236	1246	1
1235	1240	1
1235	1233	1
1240	1239	1
1240	1248	1
1239	1238	1
1239	1241	1
1238	1247	1
1241	1242	1
1243	1244	1
1243	1245	1
1233	1234	1
5898	5899	1
5898	5901	1
5898	5904	1
5899	5900	1
5899	5906	1
5900	5903	1
5900	5910	1
5902	5903	1
5903	5908	1
5901	5902	1
5902	5909	1
5901	5907	1
5909	5911	1
5904	5905	1
5910	5912	1
5927	5930	1
5927	5928	1
5927	5933	1
5930	5931	1
5930	5936	1
5931	5932	1
5931	5938	1
5929	5932	1
5932	5937	1
5928	5929	1
5929	5939	1
5928	5935	1
5939	5941	1
5933	5934	1
5938	5940	1
5956	5959	1
5956	5957	1
5956	5962	1
5959	5960	1
5959	5965	1
5960	5961	1
5960	5967	1
5958	5961	1
5961	5966	1
5957	5958	1
5958	5968	1
5957	5964	1
5968	5970	1
5962	5963	1
5967	5969	1
5971	5974	1
5971	5972	1
5971	5977	1
5974	5975	1
5974	5980	1
5975	5976	1
5975	5982	1
5973	5976	1
5976	5981	1
5972	5973	1
5973	5983	1
5972	5979	1
5983	5985	1
5977	5978	1
5982	5984	1
1265	1266	1
1265	1270	1
1265	1263	1
1266	1267	1
1266	1276	1
1267	1268	1
1267	1273	1
1269	1268	1
1268	1277	1
1270	1269	1
1269	1271	1
1270	1278	1
1271	1272	1
1263	1264	1
1273	1274	1
1273	1275	1
6000	6003	1
6000	6001	1
6000	6006	1
6003	6004	1
6003	6009	1
6004	6005	1
6004	6011	1
6002	6005	1
6005	6010	1
6001	6002	1
6002	6012	1
6001	6008	1
6012	6014	1
6006	6007	1
6011	6013	1
6029	6032	1
6029	6030	1
6029	6035	1
6032	6033	1
6032	6038	1
6033	6034	1
6033	6040	1
6031	6034	1
6034	6039	1
6030	6031	1
6031	6041	1
6030	6037	1
6041	6043	1
6035	6036	1
6040	6042	1
1281	1282	1
1281	1286	1
1281	1279	1
1282	1283	1
1282	1292	1
1283	1284	1
1283	1289	1
1285	1284	1
1284	1293	1
1286	1285	1
1285	1287	1
1286	1294	1
1287	1288	1
1279	1280	1
1289	1290	1
1289	1291	1
6062	6063	1
6062	6061	1
6062	6069	1
6063	6060	1
6063	6068	1
6060	6059	1
6060	6070	1
6058	6059	1
6059	6066	1
6061	6058	1
6058	6064	1
6061	6067	1
6064	6065	1
6069	6071	1
6070	6072	1
6087	6090	1
6087	6088	1
6087	6093	1
6090	6091	1
6090	6096	1
6091	6092	1
6091	6098	1
6089	6092	1
6092	6097	1
6088	6089	1
6089	6099	1
6088	6095	1
6099	6101	1
6093	6094	1
6098	6100	1
6116	6117	1
6116	6119	1
6116	6122	1
6117	6118	1
6117	6124	1
6118	6121	1
6118	6128	1
6120	6121	1
6121	6126	1
6119	6120	1
6120	6127	1
6119	6125	1
6127	6129	1
6122	6123	1
6128	6130	1
6145	6146	1
6145	6148	1
6145	6151	1
6146	6147	1
6146	6153	1
6147	6150	1
6147	6157	1
6149	6150	1
6150	6155	1
6148	6149	1
6149	6156	1
6148	6154	1
6156	6158	1
6151	6152	1
6157	6159	1
6174	6175	1
6174	6177	1
6174	6180	1
6175	6176	1
6175	6182	1
6176	6179	1
6176	6186	1
6178	6179	1
6179	6184	1
6177	6178	1
6178	6185	1
6177	6183	1
6185	6187	1
6180	6181	1
6186	6188	1
6189	6192	1
6189	6190	1
6189	6195	1
6192	6193	1
6192	6198	1
6193	6194	1
6193	6200	1
6191	6194	1
6194	6199	1
6190	6191	1
6191	6201	1
6190	6197	1
6201	6203	1
6195	6196	1
6200	6202	1
6218	6221	1
6218	6219	1
6218	6224	1
6221	6222	1
6221	6227	1
6222	6223	1
6222	6229	1
6220	6223	1
6223	6228	1
6219	6220	1
6220	6230	1
6219	6226	1
6230	6232	1
6224	6225	1
6229	6231	1
6233	6236	1
6233	6234	1
6233	6239	1
6236	6237	1
6236	6242	1
6237	6238	1
6237	6244	1
6235	6238	1
6238	6243	1
6234	6235	1
6235	6245	1
6234	6241	1
6245	6247	1
6239	6240	1
6244	6246	1
6262	6265	1
6262	6263	1
6262	6268	1
6265	6266	1
6265	6271	1
6266	6267	1
6266	6273	1
6264	6267	1
6267	6272	1
6263	6264	1
6264	6274	1
6263	6270	1
6274	6276	1
6268	6269	1
6273	6275	1
6277	6280	1
6277	6278	1
6277	6283	1
6280	6281	1
6280	6286	1
6281	6282	1
6281	6288	1
6279	6282	1
6282	6287	1
6278	6279	1
6279	6289	1
6278	6285	1
6289	6291	1
6283	6284	1
6288	6290	1
6292	6293	1
6292	6295	1
6292	6298	1
6293	6294	1
6293	6300	1
6294	6297	1
6294	6304	1
6296	6297	1
6297	6302	1
6295	6296	1
6296	6303	1
6295	6301	1
6303	6305	1
6298	6299	1
6304	6306	1
6321	6322	1
6321	6324	1
6321	6327	1
6322	6323	1
6322	6329	1
6323	6326	1
6323	6333	1
6325	6326	1
6326	6331	1
6324	6325	1
6325	6332	1
6324	6330	1
6332	6334	1
6327	6328	1
6333	6335	1
6350	6353	1
6350	6351	1
6350	6356	1
6353	6354	1
6353	6359	1
6354	6355	1
6354	6361	1
6352	6355	1
6355	6360	1
6351	6352	1
6352	6362	1
6351	6358	1
6362	6364	1
6356	6357	1
6361	6363	1
6379	6382	1
6379	6380	1
6379	6385	1
6382	6383	1
6382	6388	1
6383	6384	1
6383	6390	1
6381	6384	1
6384	6389	1
6380	6381	1
6381	6391	1
6380	6387	1
6391	6393	1
6385	6386	1
6390	6392	1
6408	6411	1
6408	6409	1
6408	6414	1
6411	6412	1
6411	6417	1
6412	6413	1
6412	6419	1
6410	6413	1
6413	6418	1
6409	6410	1
6410	6420	1
6409	6416	1
6420	6422	1
6414	6415	1
6419	6421	1
6438	6439	1
6439	6442	1
6439	6449	1
6437	6438	1
6438	6445	1
6437	6440	1
6437	6443	1
6440	6441	1
6440	6446	1
6441	6442	1
6441	6448	1
6442	6447	1
6448	6450	1
6449	6451	1
6443	6444	1
6466	6469	1
6466	6467	1
6466	6472	1
6469	6470	1
6469	6475	1
6470	6471	1
6470	6477	1
6468	6471	1
6471	6476	1
6467	6468	1
6468	6478	1
6467	6474	1
6478	6480	1
6472	6473	1
6477	6479	1
1312	1313	1
1313	1314	1
1313	1319	1
1311	1312	1
1312	1322	1
1311	1316	1
1311	1309	1
1316	1315	1
1316	1324	1
1315	1314	1
1315	1317	1
1314	1323	1
1317	1318	1
1319	1320	1
1319	1321	1
1309	1310	1
1341	1342	1
1341	1346	1
1341	1339	1
1342	1343	1
1342	1352	1
1343	1344	1
1343	1349	1
1345	1344	1
1344	1353	1
1346	1345	1
1345	1347	1
1346	1354	1
1347	1348	1
1339	1340	1
1349	1350	1
1349	1351	1
6497	6496	1
6497	6500	1
6497	6507	1
6496	6495	1
6496	6503	1
6495	6498	1
6495	6501	1
6499	6498	1
6498	6504	1
6500	6499	1
6499	6506	1
6500	6505	1
6506	6508	1
6507	6509	1
6501	6502	1
6510	6511	1
6510	6513	1
6510	6516	1
6511	6512	1
6511	6518	1
6512	6515	1
6512	6522	1
6514	6515	1
6515	6520	1
6513	6514	1
6514	6521	1
6513	6519	1
6521	6523	1
6516	6517	1
6522	6524	1
6539	6540	1
6539	6542	1
6539	6545	1
6540	6541	1
6540	6547	1
6541	6544	1
6541	6551	1
6543	6544	1
6544	6549	1
6542	6543	1
6543	6550	1
6542	6548	1
6550	6552	1
6545	6546	1
6551	6553	1
6568	6569	1
6568	6571	1
6568	6574	1
6569	6570	1
6569	6576	1
6570	6573	1
6570	6580	1
6572	6573	1
6573	6578	1
6571	6572	1
6572	6579	1
6571	6577	1
6579	6581	1
6574	6575	1
6580	6582	1
6597	6598	1
6597	6600	1
6597	6603	1
6598	6599	1
6598	6605	1
6599	6602	1
6599	6609	1
6601	6602	1
6602	6607	1
6600	6601	1
6601	6608	1
6600	6606	1
6608	6610	1
6603	6604	1
6609	6611	1
6626	6629	1
6626	6627	1
6626	6632	1
6629	6630	1
6629	6635	1
6630	6631	1
6630	6637	1
6628	6631	1
6631	6636	1
6627	6628	1
6628	6638	1
6627	6634	1
6638	6640	1
6632	6633	1
6637	6639	1
6659	6660	1
6658	6659	1
6659	6666	1
6657	6660	1
6660	6665	1
6656	6657	1
6657	6667	1
6655	6656	1
6656	6663	1
6655	6658	1
6655	6661	1
6658	6664	1
6661	6662	1
6666	6668	1
6667	6669	1
6670	6671	1
6670	6673	1
6670	6676	1
6671	6672	1
6671	6678	1
6672	6675	1
6672	6682	1
6674	6675	1
6675	6680	1
6673	6674	1
6674	6681	1
6673	6679	1
6681	6683	1
6676	6677	1
6682	6684	1
6699	6700	1
6699	6702	1
6699	6705	1
6700	6701	1
6700	6707	1
6701	6704	1
6701	6711	1
6703	6704	1
6704	6709	1
6702	6703	1
6703	6710	1
6702	6708	1
6710	6712	1
6705	6706	1
6711	6713	1
6728	6729	1
6728	6731	1
6728	6734	1
6729	6730	1
6729	6736	1
6730	6733	1
6730	6740	1
6732	6733	1
6733	6738	1
6731	6732	1
6732	6739	1
6731	6737	1
6739	6741	1
6734	6735	1
6740	6742	1
6743	6744	1
6743	6746	1
6743	6749	1
6744	6745	1
6744	6751	1
6745	6748	1
6745	6755	1
6747	6748	1
6748	6753	1
6746	6747	1
6747	6754	1
6746	6752	1
6754	6756	1
6749	6750	1
6755	6757	1
6772	6773	1
6772	6775	1
6772	6778	1
6773	6774	1
6773	6780	1
6774	6777	1
6774	6784	1
6776	6777	1
6777	6782	1
6775	6776	1
6776	6783	1
6775	6781	1
6783	6785	1
6778	6779	1
6784	6786	1
6801	6802	1
6801	6804	1
6801	6807	1
6802	6803	1
6802	6809	1
6803	6806	1
6803	6813	1
6805	6806	1
6806	6811	1
6804	6805	1
6805	6812	1
6804	6810	1
6812	6814	1
6807	6808	1
6813	6815	1
6830	6833	1
6830	6831	1
6830	6836	1
6833	6834	1
6833	6839	1
6834	6835	1
6834	6841	1
6832	6835	1
6835	6840	1
6831	6832	1
6832	6842	1
6831	6838	1
6842	6844	1
6836	6837	1
6841	6843	1
1371	1372	1
1371	1376	1
1371	1369	1
1372	1373	1
1372	1382	1
1373	1374	1
1373	1379	1
1375	1374	1
1374	1383	1
1376	1375	1
1375	1377	1
1376	1384	1
1377	1378	1
1369	1370	1
1379	1380	1
1379	1381	1
1385	1388	1
1385	1386	1
1385	1391	1
1388	1389	1
1388	1394	1
1389	1390	1
1389	1396	1
1387	1390	1
1390	1395	1
1386	1387	1
1387	1397	1
1386	1393	1
1397	1399	1
1397	1400	1
1391	1392	1
1396	1398	1
1400	1401	1
6859	6860	1
6859	6862	1
6859	6865	1
6860	6861	1
6860	6867	1
6861	6864	1
6861	6871	1
6863	6864	1
6864	6869	1
6862	6863	1
6863	6870	1
6862	6868	1
6870	6872	1
6865	6866	1
6871	6873	1
6874	6875	1
6874	6877	1
6874	6880	1
6875	6876	1
6875	6882	1
6876	6879	1
6876	6886	1
6878	6879	1
6879	6884	1
6877	6878	1
6878	6885	1
6877	6883	1
6885	6887	1
6880	6881	1
6886	6888	1
6903	6904	1
6903	6906	1
6903	6909	1
6904	6905	1
6904	6911	1
6905	6908	1
6905	6915	1
6907	6908	1
6908	6913	1
6906	6907	1
6907	6914	1
6906	6912	1
6914	6916	1
6909	6910	1
6915	6917	1
6936	6935	1
6936	6937	1
6936	6943	1
6935	6932	1
6935	6941	1
6932	6933	1
6932	6938	1
6934	6933	1
6933	6940	1
6937	6934	1
6934	6944	1
6937	6942	1
6944	6946	1
6943	6945	1
6938	6939	1
1432	1437	1
1432	1433	1
1432	1430	1
1437	1436	1
1437	1445	1
1436	1435	1
1436	1438	1
1434	1435	1
1435	1444	1
1433	1434	1
1434	1440	1
1433	1443	1
1440	1441	1
1440	1442	1
1430	1431	1
1438	1439	1
6947	6950	1
6947	6948	1
6947	6953	1
6950	6951	1
6950	6956	1
6951	6952	1
6951	6958	1
6949	6952	1
6952	6957	1
6948	6949	1
6949	6959	1
6948	6955	1
6959	6961	1
6953	6954	1
6958	6960	1
1447	1448	1
1448	1451	1
1448	1458	1
1446	1447	1
1447	1454	1
1446	1449	1
1446	1452	1
1449	1450	1
1449	1455	1
1450	1451	1
1450	1457	1
1451	1456	1
1457	1459	1
1458	1460	1
1458	1461	1
1452	1453	1
1461	1462	1
6976	6979	1
6976	6977	1
6976	6982	1
6979	6980	1
6979	6985	1
6980	6981	1
6980	6987	1
6978	6981	1
6981	6986	1
6977	6978	1
6978	6988	1
6977	6984	1
6988	6990	1
6982	6983	1
6987	6989	1
6992	6993	1
6993	6996	1
6993	7003	1
6991	6992	1
6992	6999	1
6991	6994	1
6991	6997	1
6994	6995	1
6994	7000	1
6995	6996	1
6995	7002	1
6996	7001	1
7002	7004	1
7003	7005	1
6997	6998	1
7020	7021	1
7020	7023	1
7020	7026	1
7021	7022	1
7021	7028	1
7022	7025	1
7022	7032	1
7024	7025	1
7025	7030	1
7023	7024	1
7024	7031	1
7023	7029	1
7031	7033	1
7026	7027	1
7032	7034	1
7049	7050	1
7049	7052	1
7049	7055	1
7050	7051	1
7050	7057	1
7051	7054	1
7051	7061	1
7053	7054	1
7054	7059	1
7052	7053	1
7053	7060	1
7052	7058	1
7060	7062	1
7055	7056	1
7061	7063	1
7078	7081	1
7078	7079	1
7078	7084	1
7081	7082	1
7081	7087	1
7082	7083	1
7082	7089	1
7080	7083	1
7083	7088	1
7079	7080	1
7080	7090	1
7079	7086	1
7090	7092	1
7084	7085	1
7089	7091	1
7107	7110	1
7107	7108	1
7107	7113	1
7110	7111	1
7110	7116	1
7111	7112	1
7111	7118	1
7109	7112	1
7112	7117	1
7108	7109	1
7109	7119	1
7108	7115	1
7119	7121	1
7113	7114	1
7118	7120	1
1493	1494	1
1493	1498	1
1493	1491	1
1494	1495	1
1494	1504	1
1495	1496	1
1495	1501	1
1497	1496	1
1496	1505	1
1498	1497	1
1497	1499	1
1498	1506	1
1499	1500	1
1491	1492	1
1501	1502	1
1501	1503	1
7140	7141	1
7140	7139	1
7140	7147	1
7141	7138	1
7141	7146	1
7138	7137	1
7138	7148	1
7136	7137	1
7137	7144	1
7139	7136	1
7136	7142	1
7139	7145	1
7142	7143	1
7147	7149	1
7148	7150	1
7168	7169	1
7169	7170	1
7169	7176	1
7165	7168	1
7168	7174	1
7165	7166	1
7165	7171	1
7166	7167	1
7166	7173	1
7167	7170	1
7167	7177	1
7170	7175	1
7177	7179	1
7176	7178	1
7171	7172	1
72	73	1
72	71	1
72	74	1
73	68	1
73	82	1
68	69	1
68	66	1
70	69	1
69	80	1
71	70	1
70	76	1
71	81	1
76	77	1
76	78	1
74	75	1
66	67	1
66	65	1
65	79	1
7180	7181	1
7180	7183	1
7180	7186	1
7181	7182	1
7181	7188	1
7182	7185	1
7182	7192	1
7184	7185	1
7185	7190	1
7183	7184	1
7184	7191	1
7183	7189	1
7191	7193	1
7186	7187	1
7192	7194	1
7209	7210	1
7209	7212	1
7209	7215	1
7210	7211	1
7210	7217	1
7211	7214	1
7211	7221	1
7213	7214	1
7214	7219	1
7212	7213	1
7213	7220	1
7212	7218	1
7220	7222	1
7215	7216	1
7221	7223	1
7238	7241	1
7238	7239	1
7238	7244	1
7241	7242	1
7241	7247	1
7242	7243	1
7242	7249	1
7240	7243	1
7243	7248	1
7239	7240	1
7240	7250	1
7239	7246	1
7250	7252	1
7244	7245	1
7249	7251	1
7267	7270	1
7267	7268	1
7267	7273	1
7270	7271	1
7270	7276	1
7271	7272	1
7271	7278	1
7269	7272	1
7272	7277	1
7268	7269	1
7269	7279	1
7268	7275	1
7279	7281	1
7273	7274	1
7278	7280	1
7296	7297	1
7296	7299	1
7296	7302	1
7297	7298	1
7297	7304	1
7298	7301	1
7298	7308	1
7300	7301	1
7301	7306	1
7299	7300	1
7300	7307	1
7299	7305	1
7307	7309	1
7302	7303	1
7308	7310	1
1524	1525	1
1525	1526	1
1525	1531	1
1523	1524	1
1524	1534	1
1523	1528	1
1523	1521	1
1528	1527	1
1528	1536	1
1527	1526	1
1527	1529	1
1526	1535	1
1529	1530	1
1531	1532	1
1531	1533	1
1521	1522	1
1557	1558	1
1557	1556	1
1557	1559	1
1558	1553	1
1558	1566	1
1553	1554	1
1553	1551	1
1555	1554	1
1554	1564	1
1556	1555	1
1555	1561	1
1556	1565	1
1561	1562	1
1561	1563	1
1559	1560	1
1551	1552	1
7325	7326	1
7325	7328	1
7325	7331	1
7326	7327	1
7326	7333	1
7327	7330	1
7327	7337	1
7329	7330	1
7330	7335	1
7328	7329	1
7329	7336	1
7328	7334	1
7336	7338	1
7331	7332	1
7337	7339	1
1567	1568	1
1567	1570	1
1567	1573	1
1568	1569	1
1568	1575	1
1569	1572	1
1569	1579	1
1571	1572	1
1572	1577	1
1570	1571	1
1571	1578	1
1570	1576	1
1578	1580	1
1573	1574	1
1579	1581	1
1579	1582	1
1582	1583	1
1615	1616	1
1616	1617	1
1616	1622	1
1614	1615	1
1615	1625	1
1614	1619	1
1614	1612	1
1619	1618	1
1619	1627	1
1618	1617	1
1618	1620	1
1617	1626	1
1620	1621	1
1622	1623	1
1622	1624	1
1612	1613	1
7340	7343	1
7340	7341	1
7340	7346	1
7343	7344	1
7343	7349	1
7344	7345	1
7344	7351	1
7342	7345	1
7345	7350	1
7341	7342	1
7342	7352	1
7341	7348	1
7352	7354	1
7346	7347	1
7351	7353	1
103	102	1
102	101	1
102	108	1
104	103	1
103	113	1
104	105	1
104	106	1
105	100	1
105	114	1
100	101	1
100	98	1
101	112	1
98	99	1
98	97	1
108	109	1
108	110	1
106	107	1
97	111	1
7355	7358	1
7355	7356	1
7355	7361	1
7358	7359	1
7358	7364	1
7359	7360	1
7359	7366	1
7357	7360	1
7360	7365	1
7356	7357	1
7357	7367	1
7356	7363	1
7367	7369	1
7361	7362	1
7366	7368	1
7384	7387	1
7384	7385	1
7384	7390	1
7387	7388	1
7387	7393	1
7388	7389	1
7388	7395	1
7386	7389	1
7389	7394	1
7385	7386	1
7386	7396	1
7385	7392	1
7396	7398	1
7390	7391	1
7395	7397	1
7413	7416	1
7413	7414	1
7413	7419	1
7416	7417	1
7416	7422	1
7417	7418	1
7417	7424	1
7415	7418	1
7418	7423	1
7414	7415	1
7415	7425	1
7414	7421	1
7425	7427	1
7419	7420	1
7424	7426	1
7442	7445	1
7442	7443	1
7442	7448	1
7445	7446	1
7445	7451	1
7446	7447	1
7446	7453	1
7444	7447	1
7447	7452	1
7443	7444	1
7444	7454	1
7443	7450	1
7454	7456	1
7448	7449	1
7453	7455	1
7457	7458	1
7457	7460	1
7457	7463	1
7458	7459	1
7458	7465	1
7459	7462	1
7459	7469	1
7461	7462	1
7462	7467	1
7460	7461	1
7461	7468	1
7460	7466	1
7468	7470	1
7463	7464	1
7469	7471	1
7486	7489	1
7486	7487	1
7486	7492	1
7489	7490	1
7489	7495	1
7490	7491	1
7490	7497	1
7488	7491	1
7491	7496	1
7487	7488	1
7488	7498	1
7487	7494	1
7498	7500	1
7492	7493	1
7497	7499	1
1628	1631	1
1628	1629	1
1628	1634	1
1631	1632	1
1631	1637	1
1632	1633	1
1632	1639	1
1630	1633	1
1633	1638	1
1629	1630	1
1630	1640	1
1629	1636	1
1640	1642	1
1640	1643	1
1634	1635	1
1639	1641	1
1643	1644	1
7515	7518	1
7515	7516	1
7515	7521	1
7518	7519	1
7518	7524	1
7519	7520	1
7519	7526	1
7517	7520	1
7520	7525	1
7516	7517	1
7517	7527	1
7516	7523	1
7527	7529	1
7521	7522	1
7526	7528	1
7530	7531	1
7530	7533	1
7530	7536	1
7531	7532	1
7531	7538	1
7532	7535	1
7532	7542	1
7534	7535	1
7535	7540	1
7533	7534	1
7534	7541	1
7533	7539	1
7541	7543	1
7536	7537	1
7542	7544	1
7563	7564	1
7563	7562	1
7563	7570	1
7564	7561	1
7564	7569	1
7561	7560	1
7561	7571	1
7559	7560	1
7560	7567	1
7562	7559	1
7559	7565	1
7562	7568	1
7565	7566	1
7570	7572	1
7571	7573	1
7588	7591	1
7588	7589	1
7588	7594	1
7591	7592	1
7591	7597	1
7592	7593	1
7592	7599	1
7590	7593	1
7593	7598	1
7589	7590	1
7590	7600	1
7589	7596	1
7600	7602	1
7594	7595	1
7599	7601	1
1675	1680	1
1675	1676	1
1675	1673	1
1680	1679	1
1680	1688	1
1679	1678	1
1679	1681	1
1677	1678	1
1678	1687	1
1676	1677	1
1677	1683	1
1676	1686	1
1683	1684	1
1683	1685	1
1673	1674	1
1681	1682	1
7603	7606	1
7603	7604	1
7603	7609	1
7606	7607	1
7606	7612	1
7607	7608	1
7607	7614	1
7605	7608	1
7608	7613	1
7604	7605	1
7605	7615	1
7604	7611	1
7615	7617	1
7609	7610	1
7614	7616	1
7632	7635	1
7632	7633	1
7632	7638	1
7635	7636	1
7635	7641	1
7636	7637	1
7636	7643	1
7634	7637	1
7637	7642	1
7633	7634	1
7634	7644	1
7633	7640	1
7644	7646	1
7638	7639	1
7643	7645	1
7661	7664	1
7661	7662	1
7661	7667	1
7664	7665	1
7664	7670	1
7665	7666	1
7665	7672	1
7663	7666	1
7666	7671	1
7662	7663	1
7663	7673	1
7662	7669	1
7673	7675	1
7667	7668	1
7672	7674	1
1689	1690	1
1689	1692	1
1689	1695	1
1690	1691	1
1690	1697	1
1691	1694	1
1691	1701	1
1693	1694	1
1694	1699	1
1692	1693	1
1693	1700	1
1692	1698	1
1700	1702	1
1695	1696	1
1701	1703	1
1701	1704	1
1704	1705	1
7694	7695	1
7693	7694	1
7694	7701	1
7692	7695	1
7695	7700	1
7691	7692	1
7692	7702	1
7690	7691	1
7691	7698	1
7690	7693	1
7690	7696	1
7693	7699	1
7696	7697	1
7701	7703	1
7702	7704	1
7719	7720	1
7719	7722	1
7719	7725	1
7720	7721	1
7720	7727	1
7721	7724	1
7721	7731	1
7723	7724	1
7724	7729	1
7722	7723	1
7723	7730	1
7722	7728	1
7730	7732	1
7725	7726	1
7731	7733	1
7748	7749	1
7748	7751	1
7748	7754	1
7749	7750	1
7749	7756	1
7750	7753	1
7750	7760	1
7752	7753	1
7753	7758	1
7751	7752	1
7752	7759	1
7751	7757	1
7759	7761	1
7754	7755	1
7760	7762	1
1736	1737	1
1736	1741	1
1736	1734	1
1737	1738	1
1737	1747	1
1738	1739	1
1738	1744	1
1740	1739	1
1739	1748	1
1741	1740	1
1740	1742	1
1741	1749	1
1742	1743	1
1734	1735	1
1744	1745	1
1744	1746	1
7777	7778	1
7777	7780	1
7777	7783	1
7778	7779	1
7778	7785	1
7779	7782	1
7779	7789	1
7781	7782	1
7782	7787	1
7780	7781	1
7781	7788	1
7780	7786	1
7788	7790	1
7783	7784	1
7789	7791	1
7806	7807	1
7806	7809	1
7806	7812	1
7807	7808	1
7807	7814	1
7808	7811	1
7808	7818	1
7810	7811	1
7811	7816	1
7809	7810	1
7810	7817	1
7809	7815	1
7817	7819	1
7812	7813	1
7818	7820	1
7835	7836	1
7835	7838	1
7835	7841	1
7836	7837	1
7836	7843	1
7837	7840	1
7837	7847	1
7839	7840	1
7840	7845	1
7838	7839	1
7839	7846	1
7838	7844	1
7846	7848	1
7841	7842	1
7847	7849	1
7864	7865	1
7864	7867	1
7864	7870	1
7865	7866	1
7865	7872	1
7866	7869	1
7866	7876	1
7868	7869	1
7869	7874	1
7867	7868	1
7868	7875	1
7867	7873	1
7875	7877	1
7870	7871	1
7876	7878	1
7893	7896	1
7893	7894	1
7893	7899	1
7896	7897	1
7896	7902	1
7897	7898	1
7897	7904	1
7895	7898	1
7898	7903	1
7894	7895	1
7895	7905	1
7894	7901	1
7905	7907	1
7899	7900	1
7904	7906	1
1750	1751	1
1750	1753	1
1750	1756	1
1751	1752	1
1751	1758	1
1752	1755	1
1752	1762	1
1754	1755	1
1755	1760	1
1753	1754	1
1754	1761	1
1753	1759	1
1761	1763	1
1756	1757	1
1762	1764	1
1762	1765	1
1765	1766	1
7908	7909	1
7908	7911	1
7908	7914	1
7909	7910	1
7909	7916	1
7910	7913	1
7910	7920	1
7912	7913	1
7913	7918	1
7911	7912	1
7912	7919	1
7911	7917	1
7919	7921	1
7914	7915	1
7920	7922	1
7937	7938	1
7937	7940	1
7937	7943	1
7938	7939	1
7938	7945	1
7939	7942	1
7939	7949	1
7941	7942	1
7942	7947	1
7940	7941	1
7941	7948	1
7940	7946	1
7948	7950	1
7943	7944	1
7949	7951	1
7966	7969	1
7966	7967	1
7966	7972	1
7969	7970	1
7969	7975	1
7970	7971	1
7970	7977	1
7968	7971	1
7971	7976	1
7967	7968	1
7968	7978	1
7967	7974	1
7978	7980	1
7972	7973	1
7977	7979	1
7981	7984	1
7981	7982	1
7981	7987	1
7984	7985	1
7984	7990	1
7985	7986	1
7985	7992	1
7983	7986	1
7986	7991	1
7982	7983	1
7983	7993	1
7982	7989	1
7993	7995	1
7987	7988	1
7992	7994	1
8010	8011	1
8010	8013	1
8010	8016	1
8011	8012	1
8011	8018	1
8012	8015	1
8012	8022	1
8014	8015	1
8015	8020	1
8013	8014	1
8014	8021	1
8013	8019	1
8021	8023	1
8016	8017	1
8022	8024	1
8039	8040	1
8039	8042	1
8039	8045	1
8040	8041	1
8040	8047	1
8041	8044	1
8041	8051	1
8043	8044	1
8044	8049	1
8042	8043	1
8043	8050	1
8042	8048	1
8050	8052	1
8045	8046	1
8051	8053	1
1785	1784	1
1785	1786	1
1785	1792	1
1784	1781	1
1784	1790	1
1781	1782	1
1781	1787	1
1783	1782	1
1782	1789	1
1786	1783	1
1783	1793	1
1786	1791	1
1793	1795	1
1793	1796	1
1792	1794	1
1787	1788	1
1796	1797	1
8054	8055	1
8054	8057	1
8054	8060	1
8055	8056	1
8055	8062	1
8056	8059	1
8056	8066	1
8058	8059	1
8059	8064	1
8057	8058	1
8058	8065	1
8057	8063	1
8065	8067	1
8060	8061	1
8066	8068	1
8083	8084	1
8083	8086	1
8083	8089	1
8084	8085	1
8084	8091	1
8085	8088	1
8085	8095	1
8087	8088	1
8088	8093	1
8086	8087	1
8087	8094	1
8086	8092	1
8094	8096	1
8089	8090	1
8095	8097	1
8112	8115	1
8112	8113	1
8112	8118	1
8115	8116	1
8115	8121	1
8116	8117	1
8116	8123	1
8114	8117	1
8117	8122	1
8113	8114	1
8114	8124	1
8113	8120	1
8124	8126	1
8118	8119	1
8123	8125	1
8141	8144	1
8141	8142	1
8141	8147	1
8144	8145	1
8144	8150	1
8145	8146	1
8145	8152	1
8143	8146	1
8146	8151	1
8142	8143	1
8143	8153	1
8142	8149	1
8153	8155	1
8147	8148	1
8152	8154	1
8156	8159	1
8156	8157	1
8156	8162	1
8159	8160	1
8159	8165	1
8160	8161	1
8160	8167	1
8158	8161	1
8161	8166	1
8157	8158	1
8158	8168	1
8157	8164	1
8168	8170	1
8162	8163	1
8167	8169	1
8171	8172	1
8171	8174	1
8171	8177	1
8172	8173	1
8172	8179	1
8173	8176	1
8173	8183	1
8175	8176	1
8176	8181	1
8174	8175	1
8175	8182	1
8174	8180	1
8182	8184	1
8177	8178	1
8183	8185	1
8201	8202	1
8202	8205	1
8202	8212	1
8200	8201	1
8201	8208	1
8200	8203	1
8200	8206	1
8203	8204	1
8203	8209	1
8204	8205	1
8204	8211	1
8205	8210	1
8211	8213	1
8212	8214	1
8206	8207	1
1828	1829	1
1828	1833	1
1828	1826	1
1829	1830	1
1829	1839	1
1830	1831	1
1830	1836	1
1832	1831	1
1831	1840	1
1833	1832	1
1832	1834	1
1833	1841	1
1834	1835	1
1826	1827	1
1836	1837	1
1836	1838	1
1842	1843	1
1842	1845	1
1842	1848	1
1843	1844	1
1843	1850	1
1844	1847	1
1844	1854	1
1846	1847	1
1847	1852	1
1845	1846	1
1846	1853	1
1845	1851	1
1853	1855	1
1848	1849	1
1854	1856	1
1854	1857	1
1857	1858	1
8215	8216	1
8215	8218	1
8215	8221	1
8216	8217	1
8216	8223	1
8217	8220	1
8217	8227	1
8219	8220	1
8220	8225	1
8218	8219	1
8219	8226	1
8218	8224	1
8226	8228	1
8221	8222	1
8227	8229	1
1890	1891	1
1891	1892	1
1891	1897	1
1889	1890	1
1890	1900	1
1889	1894	1
1889	1887	1
1894	1893	1
1894	1902	1
1893	1892	1
1893	1895	1
1892	1901	1
1895	1896	1
1897	1898	1
1897	1899	1
1887	1888	1
1903	1906	1
1903	1904	1
1903	1909	1
1906	1907	1
1906	1912	1
1907	1908	1
1907	1914	1
1905	1908	1
1908	1913	1
1904	1905	1
1905	1915	1
1904	1911	1
1915	1917	1
1915	1918	1
1909	1910	1
1914	1916	1
1918	1919	1
135	134	1
134	133	1
134	140	1
136	135	1
135	145	1
136	137	1
136	138	1
137	132	1
137	146	1
132	133	1
132	130	1
133	144	1
130	131	1
130	129	1
140	141	1
140	142	1
138	139	1
129	143	1
167	166	1
166	165	1
166	172	1
168	167	1
167	177	1
168	169	1
168	170	1
169	164	1
169	178	1
164	165	1
164	162	1
165	176	1
162	163	1
162	161	1
172	173	1
172	174	1
170	171	1
161	175	1
1951	1952	1
1951	1956	1
1951	1949	1
1952	1953	1
1952	1962	1
1953	1954	1
1953	1959	1
1955	1954	1
1954	1963	1
1956	1955	1
1955	1957	1
1956	1964	1
1957	1958	1
1949	1950	1
1959	1960	1
1959	1961	1
1982	1983	1
1983	1984	1
1983	1989	1
1981	1982	1
1982	1992	1
1981	1986	1
1981	1979	1
1986	1985	1
1986	1994	1
1985	1984	1
1985	1987	1
1984	1993	1
1987	1988	1
1989	1990	1
1989	1991	1
1979	1980	1
8230	8231	1
8230	8233	1
8230	8236	1
8231	8232	1
8231	8238	1
8232	8235	1
8232	8242	1
8234	8235	1
8235	8240	1
8233	8234	1
8234	8241	1
8233	8239	1
8241	8243	1
8236	8237	1
8242	8244	1
8259	8260	1
8259	8262	1
8259	8265	1
8260	8261	1
8260	8267	1
8261	8264	1
8261	8271	1
8263	8264	1
8264	8269	1
8262	8263	1
8263	8270	1
8262	8268	1
8270	8272	1
8265	8266	1
8271	8273	1
8274	8275	1
8274	8277	1
8274	8280	1
8275	8276	1
8275	8282	1
8276	8279	1
8276	8286	1
8278	8279	1
8279	8284	1
8277	8278	1
8278	8285	1
8277	8283	1
8285	8287	1
8280	8281	1
8286	8288	1
8303	8304	1
8303	8306	1
8303	8309	1
8304	8305	1
8304	8311	1
8305	8308	1
8305	8315	1
8307	8308	1
8308	8313	1
8306	8307	1
8307	8314	1
8306	8312	1
8314	8316	1
8309	8310	1
8315	8317	1
8318	8321	1
8318	8319	1
8318	8324	1
8321	8322	1
8321	8327	1
8322	8323	1
8322	8329	1
8320	8323	1
8323	8328	1
8319	8320	1
8320	8330	1
8319	8326	1
8330	8332	1
8324	8325	1
8329	8331	1
8333	8336	1
8333	8334	1
8333	8339	1
8336	8337	1
8336	8342	1
8337	8338	1
8337	8344	1
8335	8338	1
8338	8343	1
8334	8335	1
8335	8345	1
8334	8341	1
8345	8347	1
8339	8340	1
8344	8346	1
8362	8363	1
8362	8365	1
8362	8368	1
8363	8364	1
8363	8370	1
8364	8367	1
8364	8374	1
8366	8367	1
8367	8372	1
8365	8366	1
8366	8373	1
8365	8371	1
8373	8375	1
8368	8369	1
8374	8376	1
8377	8378	1
8377	8380	1
8377	8383	1
8378	8379	1
8378	8385	1
8379	8382	1
8379	8389	1
8381	8382	1
8382	8387	1
8380	8381	1
8381	8388	1
8380	8386	1
8388	8390	1
8383	8384	1
8389	8391	1
2014	2013	1
2013	2012	1
2013	2019	1
2015	2014	1
2014	2023	1
2015	2016	1
2015	2017	1
2016	2011	1
2016	2024	1
2011	2012	1
2011	2009	1
2012	2022	1
2009	2010	1
2019	2020	1
2019	2021	1
2017	2018	1
8406	8407	1
8406	8409	1
8406	8412	1
8407	8408	1
8407	8414	1
8408	8411	1
8408	8418	1
8410	8411	1
8411	8416	1
8409	8410	1
8410	8417	1
8409	8415	1
8417	8419	1
8412	8413	1
8418	8420	1
2042	2043	1
2043	2044	1
2043	2049	1
2041	2042	1
2042	2052	1
2041	2046	1
2041	2039	1
2046	2045	1
2046	2054	1
2045	2044	1
2045	2047	1
2044	2053	1
2047	2048	1
2049	2050	1
2049	2051	1
2039	2040	1
2072	2073	1
2073	2074	1
2073	2079	1
2071	2072	1
2072	2082	1
2071	2076	1
2071	2069	1
2076	2075	1
2076	2084	1
2075	2074	1
2075	2077	1
2074	2083	1
2077	2078	1
2079	2080	1
2079	2081	1
2069	2070	1
196	197	1
201	196	1
196	194	1
198	197	1
197	208	1
199	198	1
198	204	1
200	199	1
199	209	1
200	201	1
200	202	1
201	210	1
202	203	1
194	195	1
194	193	1
204	205	1
204	206	1
193	207	1
8435	8438	1
8435	8436	1
8435	8441	1
8438	8439	1
8438	8444	1
8439	8440	1
8439	8446	1
8437	8440	1
8440	8445	1
8436	8437	1
8437	8447	1
8436	8443	1
8447	8449	1
8441	8442	1
8446	8448	1
8450	8451	1
8450	8453	1
8450	8456	1
8451	8452	1
8451	8458	1
8452	8455	1
8452	8462	1
8454	8455	1
8455	8460	1
8453	8454	1
8454	8461	1
8453	8459	1
8461	8463	1
8456	8457	1
8462	8464	1
8479	8480	1
8479	8482	1
8479	8485	1
8480	8481	1
8480	8487	1
8481	8484	1
8481	8491	1
8483	8484	1
8484	8489	1
8482	8483	1
8483	8490	1
8482	8488	1
8490	8492	1
8485	8486	1
8491	8493	1
8508	8509	1
8508	8511	1
8508	8514	1
8509	8510	1
8509	8516	1
8510	8513	1
8510	8520	1
8512	8513	1
8513	8518	1
8511	8512	1
8512	8519	1
8511	8517	1
8519	8521	1
8514	8515	1
8520	8522	1
2101	2102	1
2101	2106	1
2101	2099	1
2102	2103	1
2102	2112	1
2103	2104	1
2103	2109	1
2105	2104	1
2104	2113	1
2106	2105	1
2105	2107	1
2106	2114	1
2107	2108	1
2099	2100	1
2109	2110	1
2109	2111	1
8524	8525	1
8525	8528	1
8525	8535	1
8523	8524	1
8524	8531	1
8523	8526	1
8523	8529	1
8526	8527	1
8526	8532	1
8527	8528	1
8527	8534	1
8528	8533	1
8534	8536	1
8535	8537	1
8529	8530	1
8552	8553	1
8552	8555	1
8552	8558	1
8553	8554	1
8553	8560	1
8554	8557	1
8554	8564	1
8556	8557	1
8557	8562	1
8555	8556	1
8556	8563	1
8555	8561	1
8563	8565	1
8558	8559	1
8564	8566	1
8581	8584	1
8581	8582	1
8581	8587	1
8584	8585	1
8584	8590	1
8585	8586	1
8585	8592	1
8583	8586	1
8586	8591	1
8582	8583	1
8583	8593	1
8582	8589	1
8593	8595	1
8587	8588	1
8592	8594	1
8596	8597	1
8596	8599	1
8596	8602	1
8597	8598	1
8597	8604	1
8598	8601	1
8598	8608	1
8600	8601	1
8601	8606	1
8599	8600	1
8600	8607	1
8599	8605	1
8607	8609	1
8602	8603	1
8608	8610	1
8625	8626	1
8625	8628	1
8625	8631	1
8626	8627	1
8626	8633	1
8627	8630	1
8627	8637	1
8629	8630	1
8630	8635	1
8628	8629	1
8629	8636	1
8628	8634	1
8636	8638	1
8631	8632	1
8637	8639	1
8654	8657	1
8654	8655	1
8654	8660	1
8657	8658	1
8657	8663	1
8658	8659	1
8658	8665	1
8656	8659	1
8659	8664	1
8655	8656	1
8656	8666	1
8655	8662	1
8666	8668	1
8660	8661	1
8665	8667	1
8683	8686	1
8683	8684	1
8683	8689	1
8686	8687	1
8686	8692	1
8687	8688	1
8687	8694	1
8685	8688	1
8688	8693	1
8684	8685	1
8685	8695	1
8684	8691	1
8695	8697	1
8689	8690	1
8694	8696	1
8698	8701	1
8698	8699	1
8698	8704	1
8701	8702	1
8701	8707	1
8702	8703	1
8702	8709	1
8700	8703	1
8703	8708	1
8699	8700	1
8700	8710	1
8699	8706	1
8710	8712	1
8704	8705	1
8709	8711	1
8713	8716	1
8713	8714	1
8713	8719	1
8716	8717	1
8716	8722	1
8717	8718	1
8717	8724	1
8715	8718	1
8718	8723	1
8714	8715	1
8715	8725	1
8714	8721	1
8725	8727	1
8719	8720	1
8724	8726	1
8728	8731	1
8728	8729	1
8728	8734	1
8731	8732	1
8731	8737	1
8732	8733	1
8732	8739	1
8730	8733	1
8733	8738	1
8729	8730	1
8730	8740	1
8729	8736	1
8740	8742	1
8734	8735	1
8739	8741	1
8757	8758	1
8757	8760	1
8757	8763	1
8758	8759	1
8758	8765	1
8759	8762	1
8759	8769	1
8761	8762	1
8762	8767	1
8760	8761	1
8761	8768	1
8760	8766	1
8768	8770	1
8763	8764	1
8769	8771	1
8786	8787	1
8786	8789	1
8786	8792	1
8787	8788	1
8787	8794	1
8788	8791	1
8788	8798	1
8790	8791	1
8791	8796	1
8789	8790	1
8790	8797	1
8789	8795	1
8797	8799	1
8792	8793	1
8798	8800	1
8817	8816	1
8817	8820	1
8817	8827	1
8816	8815	1
8816	8823	1
8815	8818	1
8815	8821	1
8819	8818	1
8818	8824	1
8820	8819	1
8819	8826	1
8820	8825	1
8826	8828	1
8827	8829	1
8821	8822	1
8844	8847	1
8844	8845	1
8844	8850	1
8847	8848	1
8847	8853	1
8848	8849	1
8848	8855	1
8846	8849	1
8849	8854	1
8845	8846	1
8846	8856	1
8845	8852	1
8856	8858	1
8850	8851	1
8855	8857	1
8859	8860	1
8859	8862	1
8859	8865	1
8860	8861	1
8860	8867	1
8861	8864	1
8861	8871	1
8863	8864	1
8864	8869	1
8862	8863	1
8863	8870	1
8862	8868	1
8870	8872	1
8865	8866	1
8871	8873	1
8888	8891	1
8888	8889	1
8888	8894	1
8891	8892	1
8891	8897	1
8892	8893	1
8892	8899	1
8890	8893	1
8893	8898	1
8889	8890	1
8890	8900	1
8889	8896	1
8900	8902	1
8894	8895	1
8899	8901	1
8917	8920	1
8917	8918	1
8917	8923	1
8920	8921	1
8920	8926	1
8921	8922	1
8921	8928	1
8919	8922	1
8922	8927	1
8918	8919	1
8919	8929	1
8918	8925	1
8929	8931	1
8923	8924	1
8928	8930	1
8932	8935	1
8932	8933	1
8932	8938	1
8935	8936	1
8935	8941	1
8936	8937	1
8936	8943	1
8934	8937	1
8937	8942	1
8933	8934	1
8934	8944	1
8933	8940	1
8944	8946	1
8938	8939	1
8943	8945	1
8961	8962	1
8961	8964	1
8961	8967	1
8962	8963	1
8962	8969	1
8963	8966	1
8963	8973	1
8965	8966	1
8966	8971	1
8964	8965	1
8965	8972	1
8964	8970	1
8972	8974	1
8967	8968	1
8973	8975	1
8976	8977	1
8976	8979	1
8976	8982	1
8977	8978	1
8977	8984	1
8978	8981	1
8978	8988	1
8980	8981	1
8981	8986	1
8979	8980	1
8980	8987	1
8979	8985	1
8987	8989	1
8982	8983	1
8988	8990	1
9005	9006	1
9005	9008	1
9005	9011	1
9006	9007	1
9006	9013	1
9007	9010	1
9007	9017	1
9009	9010	1
9010	9015	1
9008	9009	1
9009	9016	1
9008	9014	1
9016	9018	1
9011	9012	1
9017	9019	1
9020	9023	1
9020	9021	1
9020	9026	1
9023	9024	1
9023	9029	1
9024	9025	1
9024	9031	1
9022	9025	1
9025	9030	1
9021	9022	1
9022	9032	1
9021	9028	1
9032	9034	1
9026	9027	1
9031	9033	1
9035	9036	1
9035	9038	1
9035	9041	1
9036	9037	1
9036	9043	1
9037	9040	1
9037	9047	1
9039	9040	1
9040	9045	1
9038	9039	1
9039	9046	1
9038	9044	1
9046	9048	1
9041	9042	1
9047	9049	1
2115	2116	1
2115	2118	1
2115	2121	1
2116	2117	1
2116	2123	1
2117	2120	1
2117	2127	1
2119	2120	1
2120	2125	1
2118	2119	1
2119	2126	1
2118	2124	1
2126	2128	1
2121	2122	1
2127	2129	1
2127	2130	1
2130	2131	1
2148	2153	1
2148	2149	1
2148	2146	1
2153	2152	1
2153	2161	1
2152	2151	1
2152	2154	1
2150	2151	1
2151	2160	1
2149	2150	1
2150	2156	1
2149	2159	1
2156	2157	1
2156	2158	1
2146	2147	1
2154	2155	1
9064	9065	1
9064	9067	1
9064	9070	1
9065	9066	1
9065	9072	1
9066	9069	1
9066	9076	1
9068	9069	1
9069	9074	1
9067	9068	1
9068	9075	1
9067	9073	1
9075	9077	1
9070	9071	1
9076	9078	1
9096	9097	1
9097	9098	1
9097	9104	1
9093	9096	1
9096	9102	1
9093	9094	1
9093	9099	1
9094	9095	1
9094	9101	1
9095	9098	1
9095	9105	1
9098	9103	1
9105	9107	1
9104	9106	1
9099	9100	1
9122	9125	1
9122	9123	1
9122	9128	1
9125	9126	1
9125	9131	1
9126	9127	1
9126	9133	1
9124	9127	1
9127	9132	1
9123	9124	1
9124	9134	1
9123	9130	1
9134	9136	1
9128	9129	1
9133	9135	1
2178	2179	1
2178	2183	1
2178	2176	1
2179	2180	1
2179	2189	1
2180	2181	1
2180	2186	1
2182	2181	1
2181	2190	1
2183	2182	1
2182	2184	1
2183	2191	1
2184	2185	1
2176	2177	1
2186	2187	1
2186	2188	1
9151	9154	1
9151	9152	1
9151	9157	1
9154	9155	1
9154	9160	1
9155	9156	1
9155	9162	1
9153	9156	1
9156	9161	1
9152	9153	1
9153	9163	1
9152	9159	1
9163	9165	1
9157	9158	1
9162	9164	1
9180	9183	1
9180	9181	1
9180	9186	1
9183	9184	1
9183	9189	1
9184	9185	1
9184	9191	1
9182	9185	1
9185	9190	1
9181	9182	1
9182	9192	1
9181	9188	1
9192	9194	1
9186	9187	1
9191	9193	1
9209	9212	1
9209	9210	1
9209	9215	1
9212	9213	1
9212	9218	1
9213	9214	1
9213	9220	1
9211	9214	1
9214	9219	1
9210	9211	1
9211	9221	1
9210	9217	1
9221	9223	1
9215	9216	1
9220	9222	1
9242	9241	1
9242	9243	1
9242	9249	1
9241	9238	1
9241	9247	1
9238	9239	1
9238	9244	1
9240	9239	1
9239	9246	1
9243	9240	1
9240	9250	1
9243	9248	1
9250	9252	1
9249	9251	1
9244	9245	1
9267	9270	1
9267	9268	1
9267	9273	1
9270	9271	1
9270	9276	1
9271	9272	1
9271	9278	1
9269	9272	1
9272	9277	1
9268	9269	1
9269	9279	1
9268	9275	1
9279	9281	1
9273	9274	1
9278	9280	1
9296	9297	1
9296	9299	1
9296	9302	1
9297	9298	1
9297	9304	1
9298	9301	1
9298	9308	1
9300	9301	1
9301	9306	1
9299	9300	1
9300	9307	1
9299	9305	1
9307	9309	1
9302	9303	1
9308	9310	1
9325	9326	1
9325	9328	1
9325	9331	1
9326	9327	1
9326	9333	1
9327	9330	1
9327	9337	1
9329	9330	1
9330	9335	1
9328	9329	1
9329	9336	1
9328	9334	1
9336	9338	1
9331	9332	1
9337	9339	1
9354	9357	1
9354	9355	1
9354	9360	1
9357	9358	1
9357	9363	1
9358	9359	1
9358	9365	1
9356	9359	1
9359	9364	1
9355	9356	1
9356	9366	1
9355	9362	1
9366	9368	1
9360	9361	1
9365	9367	1
9383	9386	1
9383	9384	1
9383	9389	1
9386	9387	1
9386	9392	1
9387	9388	1
9387	9394	1
9385	9388	1
9388	9393	1
9384	9385	1
9385	9395	1
9384	9391	1
9395	9397	1
9389	9390	1
9394	9396	1
2208	2209	1
2208	2213	1
2208	2206	1
2209	2210	1
2209	2219	1
2210	2211	1
2210	2216	1
2212	2211	1
2211	2220	1
2213	2212	1
2212	2214	1
2213	2221	1
2214	2215	1
2206	2207	1
2216	2217	1
2216	2218	1
9398	9401	1
9398	9399	1
9398	9404	1
9401	9402	1
9401	9407	1
9402	9403	1
9402	9409	1
9400	9403	1
9403	9408	1
9399	9400	1
9400	9410	1
9399	9406	1
9410	9412	1
9404	9405	1
9409	9411	1
9427	9430	1
9427	9428	1
9427	9433	1
9430	9431	1
9430	9436	1
9431	9432	1
9431	9438	1
9429	9432	1
9432	9437	1
9428	9429	1
9429	9439	1
9428	9435	1
9439	9441	1
9433	9434	1
9438	9440	1
9456	9457	1
9456	9459	1
9456	9462	1
9457	9458	1
9457	9464	1
9458	9461	1
9458	9468	1
9460	9461	1
9461	9466	1
9459	9460	1
9460	9467	1
9459	9465	1
9467	9469	1
9462	9463	1
9468	9470	1
9485	9488	1
9485	9486	1
9485	9491	1
9488	9489	1
9488	9494	1
9489	9490	1
9489	9496	1
9487	9490	1
9490	9495	1
9486	9487	1
9487	9497	1
9486	9493	1
9497	9499	1
9491	9492	1
9496	9498	1
9500	9501	1
9500	9503	1
9500	9506	1
9501	9502	1
9501	9508	1
9502	9505	1
9502	9512	1
9504	9505	1
9505	9510	1
9503	9504	1
9504	9511	1
9503	9509	1
9511	9513	1
9506	9507	1
9512	9514	1
2226	2227	1
2226	2225	1
2226	2233	1
2227	2224	1
2227	2232	1
2224	2223	1
2224	2234	1
2222	2223	1
2223	2230	1
2225	2222	1
2222	2228	1
2225	2231	1
2228	2229	1
2233	2235	1
2234	2236	1
2234	2237	1
2237	2238	1
9515	9516	1
9515	9518	1
9515	9521	1
9516	9517	1
9516	9523	1
9517	9520	1
9517	9527	1
9519	9520	1
9520	9525	1
9518	9519	1
9519	9526	1
9518	9524	1
9526	9528	1
9521	9522	1
9527	9529	1
9544	9545	1
9544	9547	1
9544	9550	1
9545	9546	1
9545	9552	1
9546	9549	1
9546	9556	1
9548	9549	1
9549	9554	1
9547	9548	1
9548	9555	1
9547	9553	1
9555	9557	1
9550	9551	1
9556	9558	1
9573	9574	1
9573	9576	1
9573	9579	1
9574	9575	1
9574	9581	1
9575	9578	1
9575	9585	1
9577	9578	1
9578	9583	1
9576	9577	1
9577	9584	1
9576	9582	1
9584	9586	1
9579	9580	1
9585	9587	1
9588	9591	1
9588	9589	1
9588	9594	1
9591	9592	1
9591	9597	1
9592	9593	1
9592	9599	1
9590	9593	1
9593	9598	1
9589	9590	1
9590	9600	1
9589	9596	1
9600	9602	1
9594	9595	1
9599	9601	1
9603	9606	1
9603	9604	1
9603	9609	1
9606	9607	1
9606	9612	1
9607	9608	1
9607	9614	1
9605	9608	1
9608	9613	1
9604	9605	1
9605	9615	1
9604	9611	1
9615	9617	1
9609	9610	1
9614	9616	1
9618	9619	1
9618	9621	1
9618	9624	1
9619	9620	1
9619	9626	1
9620	9623	1
9620	9630	1
9622	9623	1
9623	9628	1
9621	9622	1
9622	9629	1
9621	9627	1
9629	9631	1
9624	9625	1
9630	9632	1
9649	9648	1
9649	9652	1
9649	9659	1
9648	9647	1
9648	9655	1
9647	9650	1
9647	9653	1
9651	9650	1
9650	9656	1
9652	9651	1
9651	9658	1
9652	9657	1
9658	9660	1
9659	9661	1
9653	9654	1
9676	9677	1
9676	9679	1
9676	9682	1
9677	9678	1
9677	9684	1
9678	9681	1
9678	9688	1
9680	9681	1
9681	9686	1
9679	9680	1
9680	9687	1
9679	9685	1
9687	9689	1
9682	9683	1
9688	9690	1
9705	9706	1
9705	9708	1
9705	9711	1
9706	9707	1
9706	9713	1
9707	9710	1
9707	9717	1
9709	9710	1
9710	9715	1
9708	9709	1
9709	9716	1
9708	9714	1
9716	9718	1
9711	9712	1
9717	9719	1
9720	9721	1
9720	9723	1
9720	9726	1
9721	9722	1
9721	9728	1
9722	9725	1
9722	9732	1
9724	9725	1
9725	9730	1
9723	9724	1
9724	9731	1
9723	9729	1
9731	9733	1
9726	9727	1
9732	9734	1
2269	2270	1
2269	2274	1
2269	2267	1
2270	2271	1
2270	2280	1
2271	2272	1
2271	2277	1
2273	2272	1
2272	2281	1
2274	2273	1
2273	2275	1
2274	2282	1
2275	2276	1
2267	2268	1
2277	2278	1
2277	2279	1
2300	2301	1
2301	2302	1
2301	2307	1
2299	2300	1
2300	2310	1
2299	2304	1
2299	2297	1
2304	2303	1
2304	2312	1
2303	2302	1
2303	2305	1
2302	2311	1
2305	2306	1
2307	2308	1
2307	2309	1
2297	2298	1
228	229	1
233	228	1
228	226	1
230	229	1
229	240	1
231	230	1
230	236	1
232	231	1
231	241	1
232	233	1
232	234	1
233	242	1
234	235	1
226	227	1
226	225	1
236	237	1
236	238	1
225	239	1
9749	9752	1
9749	9750	1
9749	9755	1
9752	9753	1
9752	9758	1
9753	9754	1
9753	9760	1
9751	9754	1
9754	9759	1
9750	9751	1
9751	9761	1
9750	9757	1
9761	9763	1
9755	9756	1
9760	9762	1
9778	9779	1
9778	9781	1
9778	9784	1
9779	9780	1
9779	9786	1
9780	9783	1
9780	9790	1
9782	9783	1
9783	9788	1
9781	9782	1
9782	9789	1
9781	9787	1
9789	9791	1
9784	9785	1
9790	9792	1
9807	9808	1
9807	9810	1
9807	9813	1
9808	9809	1
9808	9815	1
9809	9812	1
9809	9819	1
9811	9812	1
9812	9817	1
9810	9811	1
9811	9818	1
9810	9816	1
9818	9820	1
9813	9814	1
9819	9821	1
9836	9839	1
9836	9837	1
9836	9842	1
9839	9840	1
9839	9845	1
9840	9841	1
9840	9847	1
9838	9841	1
9841	9846	1
9837	9838	1
9838	9848	1
9837	9844	1
9848	9850	1
9842	9843	1
9847	9849	1
9851	9854	1
9851	9852	1
9851	9857	1
9854	9855	1
9854	9860	1
9855	9856	1
9855	9862	1
9853	9856	1
9856	9861	1
9852	9853	1
9853	9863	1
9852	9859	1
9863	9865	1
9857	9858	1
9862	9864	1
2329	2330	1
2329	2334	1
2329	2327	1
2330	2331	1
2330	2340	1
2331	2332	1
2331	2337	1
2333	2332	1
2332	2341	1
2334	2333	1
2333	2335	1
2334	2342	1
2335	2336	1
2327	2328	1
2337	2338	1
2337	2339	1
9880	9881	1
9880	9883	1
9880	9886	1
9881	9882	1
9881	9888	1
9882	9885	1
9882	9892	1
9884	9885	1
9885	9890	1
9883	9884	1
9884	9891	1
9883	9889	1
9891	9893	1
9886	9887	1
9892	9894	1
9895	9898	1
9895	9896	1
9895	9901	1
9898	9899	1
9898	9904	1
9899	9900	1
9899	9906	1
9897	9900	1
9900	9905	1
9896	9897	1
9897	9907	1
9896	9903	1
9907	9909	1
9901	9902	1
9906	9908	1
264	265	1
264	263	1
264	266	1
265	260	1
265	274	1
260	261	1
260	258	1
262	261	1
261	272	1
263	262	1
262	268	1
263	273	1
268	269	1
268	270	1
266	267	1
258	259	1
258	257	1
257	271	1
9924	9925	1
9924	9927	1
9924	9930	1
9925	9926	1
9925	9932	1
9926	9929	1
9926	9936	1
9928	9929	1
9929	9934	1
9927	9928	1
9928	9935	1
9927	9933	1
9935	9937	1
9930	9931	1
9936	9938	1
9953	9954	1
9953	9956	1
9953	9959	1
9954	9955	1
9954	9961	1
9955	9958	1
9955	9965	1
9957	9958	1
9958	9963	1
9956	9957	1
9957	9964	1
9956	9962	1
9964	9966	1
9959	9960	1
9965	9967	1
9982	9985	1
9982	9983	1
9982	9988	1
9985	9986	1
9985	9991	1
9986	9987	1
9986	9993	1
9984	9987	1
9987	9992	1
9983	9984	1
9984	9994	1
9983	9990	1
9994	9996	1
9988	9989	1
9993	9995	1
10011	10014	1
10011	10012	1
10011	10017	1
10014	10015	1
10014	10020	1
10015	10016	1
10015	10022	1
10013	10016	1
10016	10021	1
10012	10013	1
10013	10023	1
10012	10019	1
10023	10025	1
10017	10018	1
10022	10024	1
10042	10041	1
10042	10045	1
10042	10052	1
10041	10040	1
10041	10048	1
10040	10043	1
10040	10046	1
10044	10043	1
10043	10049	1
10045	10044	1
10044	10051	1
10045	10050	1
10051	10053	1
10052	10054	1
10046	10047	1
10069	10070	1
10069	10072	1
10069	10075	1
10070	10071	1
10070	10077	1
10071	10074	1
10071	10081	1
10073	10074	1
10074	10079	1
10072	10073	1
10073	10080	1
10072	10078	1
10080	10082	1
10075	10076	1
10081	10083	1
10102	10103	1
10102	10101	1
10102	10109	1
10103	10100	1
10103	10108	1
10100	10099	1
10100	10110	1
10098	10099	1
10099	10106	1
10101	10098	1
10098	10104	1
10101	10107	1
10104	10105	1
10109	10111	1
10110	10112	1
10127	10128	1
10127	10130	1
10127	10133	1
10128	10129	1
10128	10135	1
10129	10132	1
10129	10139	1
10131	10132	1
10132	10137	1
10130	10131	1
10131	10138	1
10130	10136	1
10138	10140	1
10133	10134	1
10139	10141	1
10156	10157	1
10156	10159	1
10156	10162	1
10157	10158	1
10157	10164	1
10158	10161	1
10158	10168	1
10160	10161	1
10161	10166	1
10159	10160	1
10160	10167	1
10159	10165	1
10167	10169	1
10162	10163	1
10168	10170	1
10185	10186	1
10185	10188	1
10185	10191	1
10186	10187	1
10186	10193	1
10187	10190	1
10187	10197	1
10189	10190	1
10190	10195	1
10188	10189	1
10189	10196	1
10188	10194	1
10196	10198	1
10191	10192	1
10197	10199	1
10214	10217	1
10214	10215	1
10214	10220	1
10217	10218	1
10217	10223	1
10218	10219	1
10218	10225	1
10216	10219	1
10219	10224	1
10215	10216	1
10216	10226	1
10215	10222	1
10226	10228	1
10220	10221	1
10225	10227	1
10229	10232	1
10229	10230	1
10229	10235	1
10232	10233	1
10232	10238	1
10233	10234	1
10233	10240	1
10231	10234	1
10234	10239	1
10230	10231	1
10231	10241	1
10230	10237	1
10241	10243	1
10235	10236	1
10240	10242	1
10258	10259	1
10258	10261	1
10258	10264	1
10259	10260	1
10259	10266	1
10260	10263	1
10260	10270	1
10262	10263	1
10263	10268	1
10261	10262	1
10262	10269	1
10261	10267	1
10269	10271	1
10264	10265	1
10270	10272	1
10287	10288	1
10287	10290	1
10287	10293	1
10288	10289	1
10288	10295	1
10289	10292	1
10289	10299	1
10291	10292	1
10292	10297	1
10290	10291	1
10291	10298	1
10290	10296	1
10298	10300	1
10293	10294	1
10299	10301	1
10316	10317	1
10316	10319	1
10316	10322	1
10317	10318	1
10317	10324	1
10318	10321	1
10318	10328	1
10320	10321	1
10321	10326	1
10319	10320	1
10320	10327	1
10319	10325	1
10327	10329	1
10322	10323	1
10328	10330	1
2359	2360	1
2359	2364	1
2359	2357	1
2360	2361	1
2360	2370	1
2361	2362	1
2361	2367	1
2363	2362	1
2362	2371	1
2364	2363	1
2363	2365	1
2364	2372	1
2365	2366	1
2357	2358	1
2367	2368	1
2367	2369	1
10331	10332	1
10331	10334	1
10331	10337	1
10332	10333	1
10332	10339	1
10333	10336	1
10333	10343	1
10335	10336	1
10336	10341	1
10334	10335	1
10335	10342	1
10334	10340	1
10342	10344	1
10337	10338	1
10343	10345	1
10346	10347	1
10346	10349	1
10346	10352	1
10347	10348	1
10347	10354	1
10348	10351	1
10348	10358	1
10350	10351	1
10351	10356	1
10349	10350	1
10350	10357	1
10349	10355	1
10357	10359	1
10352	10353	1
10358	10360	1
10361	10364	1
10361	10362	1
10361	10367	1
10364	10365	1
10364	10370	1
10365	10366	1
10365	10372	1
10363	10366	1
10366	10371	1
10362	10363	1
10363	10373	1
10362	10369	1
10373	10375	1
10367	10368	1
10372	10374	1
10390	10393	1
10390	10391	1
10390	10396	1
10393	10394	1
10393	10399	1
10394	10395	1
10394	10401	1
10392	10395	1
10395	10400	1
10391	10392	1
10392	10402	1
10391	10398	1
10402	10404	1
10396	10397	1
10401	10403	1
10405	10408	1
10405	10406	1
10405	10411	1
10408	10409	1
10408	10414	1
10409	10410	1
10409	10416	1
10407	10410	1
10410	10415	1
10406	10407	1
10407	10417	1
10406	10413	1
10417	10419	1
10411	10412	1
10416	10418	1
10438	10439	1
10438	10437	1
10438	10445	1
10439	10436	1
10439	10444	1
10436	10435	1
10436	10446	1
10434	10435	1
10435	10442	1
10437	10434	1
10434	10440	1
10437	10443	1
10440	10441	1
10445	10447	1
10446	10448	1
10449	10452	1
10449	10450	1
10449	10455	1
10452	10453	1
10452	10458	1
10453	10454	1
10453	10460	1
10451	10454	1
10454	10459	1
10450	10451	1
10451	10461	1
10450	10457	1
10461	10463	1
10455	10456	1
10460	10462	1
10478	10479	1
10478	10481	1
10478	10484	1
10479	10480	1
10479	10486	1
10480	10483	1
10480	10490	1
10482	10483	1
10483	10488	1
10481	10482	1
10482	10489	1
10481	10487	1
10489	10491	1
10484	10485	1
10490	10492	1
10493	10494	1
10493	10496	1
10493	10499	1
10494	10495	1
10494	10501	1
10495	10498	1
10495	10505	1
10497	10498	1
10498	10503	1
10496	10497	1
10497	10504	1
10496	10502	1
10504	10506	1
10499	10500	1
10505	10507	1
2389	2390	1
2389	2394	1
2389	2387	1
2390	2391	1
2390	2400	1
2391	2392	1
2391	2397	1
2393	2392	1
2392	2401	1
2394	2393	1
2393	2395	1
2394	2402	1
2395	2396	1
2387	2388	1
2397	2398	1
2397	2399	1
10508	10509	1
10508	10511	1
10508	10514	1
10509	10510	1
10509	10516	1
10510	10513	1
10510	10520	1
10512	10513	1
10513	10518	1
10511	10512	1
10512	10519	1
10511	10517	1
10519	10521	1
10514	10515	1
10520	10522	1
2403	2404	1
2403	2406	1
2403	2409	1
2404	2405	1
2404	2411	1
2405	2408	1
2405	2415	1
2407	2408	1
2408	2413	1
2406	2407	1
2407	2414	1
2406	2412	1
2414	2416	1
2409	2410	1
2415	2417	1
2415	2418	1
2418	2419	1
10537	10538	1
10537	10540	1
10537	10543	1
10538	10539	1
10538	10545	1
10539	10542	1
10539	10549	1
10541	10542	1
10542	10547	1
10540	10541	1
10541	10548	1
10540	10546	1
10548	10550	1
10543	10544	1
10549	10551	1
2434	2435	1
2434	2437	1
2434	2440	1
2435	2436	1
2435	2442	1
2436	2439	1
2436	2446	1
2438	2439	1
2439	2444	1
2437	2438	1
2438	2445	1
2437	2443	1
2445	2447	1
2440	2441	1
2446	2448	1
2446	2449	1
2449	2450	1
10567	10568	1
10568	10571	1
10568	10578	1
10566	10567	1
10567	10574	1
10566	10569	1
10566	10572	1
10569	10570	1
10569	10575	1
10570	10571	1
10570	10577	1
10571	10576	1
10577	10579	1
10578	10580	1
10572	10573	1
10595	10598	1
10595	10596	1
10595	10601	1
10598	10599	1
10598	10604	1
10599	10600	1
10599	10606	1
10597	10600	1
10600	10605	1
10596	10597	1
10597	10607	1
10596	10603	1
10607	10609	1
10601	10602	1
10606	10608	1
10624	10625	1
10624	10627	1
10624	10630	1
10625	10626	1
10625	10632	1
10626	10629	1
10626	10636	1
10628	10629	1
10629	10634	1
10627	10628	1
10628	10635	1
10627	10633	1
10635	10637	1
10630	10631	1
10636	10638	1
2466	2467	1
2467	2470	1
2467	2477	1
2465	2466	1
2466	2473	1
2465	2468	1
2465	2471	1
2468	2469	1
2468	2474	1
2469	2470	1
2469	2476	1
2470	2475	1
2476	2478	1
2477	2479	1
2477	2480	1
2471	2472	1
2480	2481	1
2498	2499	1
2498	2503	1
2498	2496	1
2499	2500	1
2499	2509	1
2500	2501	1
2500	2506	1
2502	2501	1
2501	2510	1
2503	2502	1
2502	2504	1
2503	2511	1
2504	2505	1
2496	2497	1
2506	2507	1
2506	2508	1
10653	10654	1
10653	10656	1
10653	10659	1
10654	10655	1
10654	10661	1
10655	10658	1
10655	10665	1
10657	10658	1
10658	10663	1
10656	10657	1
10657	10664	1
10656	10662	1
10664	10666	1
10659	10660	1
10665	10667	1
10682	10685	1
10682	10683	1
10682	10688	1
10685	10686	1
10685	10691	1
10686	10687	1
10686	10693	1
10684	10687	1
10687	10692	1
10683	10684	1
10684	10694	1
10683	10690	1
10694	10696	1
10688	10689	1
10693	10695	1
10701	10702	1
10700	10701	1
10701	10708	1
10699	10702	1
10702	10707	1
10698	10699	1
10699	10709	1
10697	10698	1
10698	10705	1
10697	10700	1
10697	10703	1
10700	10706	1
10703	10704	1
10708	10710	1
10709	10711	1
10712	10715	1
10712	10713	1
10712	10718	1
10715	10716	1
10715	10721	1
10716	10717	1
10716	10723	1
10714	10717	1
10717	10722	1
10713	10714	1
10714	10724	1
10713	10720	1
10724	10726	1
10718	10719	1
10723	10725	1
10741	10744	1
10741	10742	1
10741	10747	1
10744	10745	1
10744	10750	1
10745	10746	1
10745	10752	1
10743	10746	1
10746	10751	1
10742	10743	1
10743	10753	1
10742	10749	1
10753	10755	1
10747	10748	1
10752	10754	1
10756	10757	1
10756	10759	1
10756	10762	1
10757	10758	1
10757	10764	1
10758	10761	1
10758	10768	1
10760	10761	1
10761	10766	1
10759	10760	1
10760	10767	1
10759	10765	1
10767	10769	1
10762	10763	1
10768	10770	1
10785	10786	1
10785	10788	1
10785	10791	1
10786	10787	1
10786	10793	1
10787	10790	1
10787	10797	1
10789	10790	1
10790	10795	1
10788	10789	1
10789	10796	1
10788	10794	1
10796	10798	1
10791	10792	1
10797	10799	1
10814	10817	1
10814	10815	1
10814	10820	1
10817	10818	1
10817	10823	1
10818	10819	1
10818	10825	1
10816	10819	1
10819	10824	1
10815	10816	1
10816	10826	1
10815	10822	1
10826	10828	1
10820	10821	1
10825	10827	1
10829	10832	1
10829	10830	1
10829	10835	1
10832	10833	1
10832	10838	1
10833	10834	1
10833	10840	1
10831	10834	1
10834	10839	1
10830	10831	1
10831	10841	1
10830	10837	1
10841	10843	1
10835	10836	1
10840	10842	1
10858	10859	1
10858	10861	1
10858	10864	1
10859	10860	1
10859	10866	1
10860	10863	1
10860	10870	1
10862	10863	1
10863	10868	1
10861	10862	1
10862	10869	1
10861	10867	1
10869	10871	1
10864	10865	1
10870	10872	1
10887	10888	1
10887	10890	1
10887	10893	1
10888	10889	1
10888	10895	1
10889	10892	1
10889	10899	1
10891	10892	1
10892	10897	1
10890	10891	1
10891	10898	1
10890	10896	1
10898	10900	1
10893	10894	1
10899	10901	1
10916	10917	1
10916	10919	1
10916	10922	1
10917	10918	1
10917	10924	1
10918	10921	1
10918	10928	1
10920	10921	1
10921	10926	1
10919	10920	1
10920	10927	1
10919	10925	1
10927	10929	1
10922	10923	1
10928	10930	1
10931	10934	1
10931	10932	1
10931	10937	1
10934	10935	1
10934	10940	1
10935	10936	1
10935	10942	1
10933	10936	1
10936	10941	1
10932	10933	1
10933	10943	1
10932	10939	1
10943	10945	1
10937	10938	1
10942	10944	1
10946	10949	1
10946	10947	1
10946	10952	1
10949	10950	1
10949	10955	1
10950	10951	1
10950	10957	1
10948	10951	1
10951	10956	1
10947	10948	1
10948	10958	1
10947	10954	1
10958	10960	1
10952	10953	1
10957	10959	1
10961	10964	1
10961	10962	1
10961	10967	1
10964	10965	1
10964	10970	1
10965	10966	1
10965	10972	1
10963	10966	1
10966	10971	1
10962	10963	1
10963	10973	1
10962	10969	1
10973	10975	1
10967	10968	1
10972	10974	1
10990	10991	1
10990	10993	1
10990	10996	1
10991	10992	1
10991	10998	1
10992	10995	1
10992	11002	1
10994	10995	1
10995	11000	1
10993	10994	1
10994	11001	1
10993	10999	1
11001	11003	1
10996	10997	1
11002	11004	1
11005	11008	1
11005	11006	1
11005	11011	1
11008	11009	1
11008	11014	1
11009	11010	1
11009	11016	1
11007	11010	1
11010	11015	1
11006	11007	1
11007	11017	1
11006	11013	1
11017	11019	1
11011	11012	1
11016	11018	1
2528	2533	1
2528	2529	1
2528	2526	1
2533	2532	1
2533	2541	1
2532	2531	1
2532	2534	1
2530	2531	1
2531	2540	1
2529	2530	1
2530	2536	1
2529	2539	1
2536	2537	1
2536	2538	1
2526	2527	1
2534	2535	1
11020	11021	1
11020	11023	1
11020	11026	1
11021	11022	1
11021	11028	1
11022	11025	1
11022	11032	1
11024	11025	1
11025	11030	1
11023	11024	1
11024	11031	1
11023	11029	1
11031	11033	1
11026	11027	1
11032	11034	1
11035	11036	1
11035	11038	1
11035	11041	1
11036	11037	1
11036	11043	1
11037	11040	1
11037	11047	1
11039	11040	1
11040	11045	1
11038	11039	1
11039	11046	1
11038	11044	1
11046	11048	1
11041	11042	1
11047	11049	1
11064	11065	1
11064	11067	1
11064	11070	1
11065	11066	1
11065	11072	1
11066	11069	1
11066	11076	1
11068	11069	1
11069	11074	1
11067	11068	1
11068	11075	1
11067	11073	1
11075	11077	1
11070	11071	1
11076	11078	1
11093	11094	1
11093	11096	1
11093	11099	1
11094	11095	1
11094	11101	1
11095	11098	1
11095	11105	1
11097	11098	1
11098	11103	1
11096	11097	1
11097	11104	1
11096	11102	1
11104	11106	1
11099	11100	1
11105	11107	1
2542	2543	1
2542	2545	1
2542	2548	1
2543	2544	1
2543	2550	1
2544	2547	1
2544	2554	1
2546	2547	1
2547	2552	1
2545	2546	1
2546	2553	1
2545	2551	1
2553	2555	1
2548	2549	1
2554	2556	1
2554	2557	1
2557	2558	1
11108	11109	1
11108	11111	1
11108	11114	1
11109	11110	1
11109	11116	1
11110	11113	1
11110	11120	1
11112	11113	1
11113	11118	1
11111	11112	1
11112	11119	1
11111	11117	1
11119	11121	1
11114	11115	1
11120	11122	1
11123	11126	1
11123	11124	1
11123	11129	1
11126	11127	1
11126	11132	1
11127	11128	1
11127	11134	1
11125	11128	1
11128	11133	1
11124	11125	1
11125	11135	1
11124	11131	1
11135	11137	1
11129	11130	1
11134	11136	1

[ angles ]
5272	5271	5282	1
5270	5271	5282	1
5282	6333	6323	1
5282	6333	6335	1
5272	5273	5280	1
5274	5273	5280	1
5280	5290	5284	1
5280	5290	5291	1
5271	5282	5283	1
5271	5282	6333	1
5271	5272	5273	1
5271	5272	5276	1
5271	5270	5275	1
5271	5270	5278	1
5273	5280	5281	1
5273	5280	5290	1
5273	5272	5276	1
5273	5274	5275	1
5273	5274	5277	1
5270	5271	5272	1
5272	5273	5274	1
5270	5275	5274	1
5270	5275	5279	1
5274	5275	5279	1
5275	5270	5278	1
5275	5274	5277	1
5283	5282	6333	1
5281	5280	5290	1
4531	4530	4541	1
4529	4530	4541	1
4541	5296	5286	1
4541	5296	5298	1
4531	4532	4539	1
4533	4532	4539	1
4539	4549	4543	1
4539	4549	4550	1
4530	4541	4542	1
4530	4541	5296	1
4530	4531	4532	1
4530	4531	4535	1
4530	4529	4534	1
4530	4529	4537	1
4532	4539	4540	1
4532	4539	4549	1
4532	4531	4535	1
4532	4533	4534	1
4532	4533	4536	1
4529	4530	4531	1
4531	4532	4533	1
4529	4534	4533	1
4529	4534	4538	1
4533	4534	4538	1
4534	4529	4537	1
4534	4533	4536	1
4542	4541	5296	1
4540	4539	4549	1
9795	9794	9805	1
9793	9794	9805	1
9805	9813	9807	1
9805	9813	9814	1
9795	9796	9803	1
9797	9796	9803	1
9803	8695	8685	1
9803	8695	8697	1
9794	9805	9806	1
9794	9805	9813	1
9794	9795	9796	1
9794	9795	9799	1
9794	9793	9798	1
9794	9793	9801	1
9796	9803	9804	1
9796	9803	8695	1
9796	9795	9799	1
9796	9797	9798	1
9796	9797	9800	1
9793	9794	9795	1
9795	9796	9797	1
9793	9798	9797	1
9793	9798	9802	1
9797	9798	9802	1
9798	9793	9801	1
9798	9797	9800	1
9806	9805	9813	1
9804	9803	8695	1
5127	5128	5135	1
5129	5128	5135	1
5135	7702	7692	1
5135	7702	7704	1
5127	5126	5137	1
5125	5126	5137	1
5137	5145	5139	1
5137	5145	5146	1
5128	5135	5136	1
5128	5135	7702	1
5128	5127	5126	1
5128	5127	5131	1
5128	5129	5130	1
5128	5129	5132	1
5126	5137	5138	1
5126	5137	5145	1
5126	5127	5131	1
5126	5125	5130	1
5126	5125	5133	1
5129	5128	5127	1
5127	5126	5125	1
5129	5130	5125	1
5129	5130	5134	1
5125	5130	5134	1
5130	5129	5132	1
5130	5125	5133	1
5136	5135	7702	1
5138	5137	5145	1
1327	1326	1337	1
1325	1326	1337	1
1341	1339	1337	1
1340	1339	1337	1
1327	1328	1335	1
1329	1328	1335	1
1335	7191	7184	1
1335	7191	7193	1
1326	1337	1338	1
1339	1337	1326	1
1326	1327	1328	1
1326	1327	1331	1
1326	1325	1330	1
1326	1325	1333	1
1328	1335	1336	1
1328	1335	7191	1
1328	1327	1331	1
1328	1329	1330	1
1328	1329	1332	1
1325	1326	1327	1
1327	1328	1329	1
1325	1330	1329	1
1325	1330	1334	1
1329	1330	1334	1
1330	1325	1333	1
1330	1329	1332	1
1339	1337	1338	1
1336	1335	7191	1
11560	11559	11570	1
11558	11559	11570	1
11570	4554	4547	1
11570	4554	4556	1
11560	11561	11568	1
11562	11561	11568	1
11568	9965	9955	1
11568	9965	9967	1
11559	11570	11571	1
11559	11570	4554	1
11559	11560	11561	1
11559	11560	11564	1
11559	11558	11563	1
11559	11558	11566	1
11561	11568	11569	1
11561	11568	9965	1
11561	11560	11564	1
11561	11562	11563	1
11561	11562	11565	1
11558	11559	11560	1
11560	11561	11562	1
11558	11563	11562	1
11558	11563	11567	1
11562	11563	11567	1
11563	11558	11566	1
11563	11562	11565	1
11571	11570	4554	1
11569	11568	9965	1
2590	2591	2598	1
2592	2591	2598	1
2598	3916	3906	1
2598	3916	3918	1
2590	2589	2600	1
2588	2589	2600	1
2591	2598	2599	1
2591	2598	3916	1
2589	2590	2591	1
2591	2590	2594	1
2591	2592	2593	1
2591	2592	2595	1
2589	2600	2601	1
2589	2600	2602	1
2589	2590	2594	1
2589	2588	2593	1
2589	2588	2596	1
2590	2591	2592	1
2588	2589	2590	1
2588	2593	2592	1
2592	2593	2597	1
2588	2593	2597	1
2593	2592	2595	1
2593	2588	2596	1
2599	2598	3916	1
2601	2600	2602	1
778	777	788	1
776	777	788	1
788	4468	4458	1
788	4468	4470	1
778	779	786	1
780	779	786	1
792	790	786	1
791	790	786	1
777	788	789	1
777	788	4468	1
777	778	779	1
777	778	782	1
777	776	781	1
777	776	784	1
779	786	787	1
790	786	779	1
779	778	782	1
779	780	781	1
779	780	783	1
776	777	778	1
778	779	780	1
776	781	780	1
776	781	785	1
780	781	785	1
781	776	784	1
781	780	783	1
789	788	4468	1
790	786	787	1
11081	11080	11091	1
11079	11080	11091	1
11091	4308	4298	1
11091	4308	4310	1
11081	11082	11089	1
11083	11082	11089	1
11089	11099	11093	1
11089	11099	11100	1
11080	11091	11092	1
11080	11091	4308	1
11080	11081	11082	1
11080	11081	11085	1
11080	11079	11084	1
11080	11079	11087	1
11082	11089	11090	1
11082	11089	11099	1
11082	11081	11085	1
11082	11083	11084	1
11082	11083	11086	1
11079	11080	11081	1
11081	11082	11083	1
11079	11084	11083	1
11079	11084	11088	1
11083	11084	11088	1
11084	11079	11087	1
11084	11083	11086	1
11092	11091	4308	1
11090	11089	11099	1
11504	11505	11512	1
11506	11505	11512	1
11512	4410	4400	1
11512	4410	4412	1
11504	11503	11514	1
11502	11503	11514	1
11514	7192	7182	1
11514	7192	7194	1
11505	11512	11513	1
11505	11512	4410	1
11505	11504	11503	1
11505	11504	11508	1
11505	11506	11507	1
11505	11506	11509	1
11503	11514	11515	1
11503	11514	7192	1
11503	11504	11508	1
11503	11502	11507	1
11503	11502	11510	1
11506	11505	11504	1
11504	11503	11502	1
11506	11507	11502	1
11506	11507	11511	1
11502	11507	11511	1
11507	11506	11509	1
11507	11502	11510	1
11513	11512	4410	1
11515	11514	7192	1
9824	9823	9834	1
9822	9823	9834	1
9834	5938	5931	1
9834	5938	5940	1
9824	9825	9832	1
9826	9825	9832	1
9832	9842	9836	1
9832	9842	9843	1
9823	9834	9835	1
9823	9834	5938	1
9823	9824	9825	1
9823	9824	9828	1
9823	9822	9827	1
9823	9822	9830	1
9825	9832	9833	1
9825	9832	9842	1
9825	9824	9828	1
9825	9826	9827	1
9825	9826	9829	1
9822	9823	9824	1
9824	9825	9826	1
9822	9827	9826	1
9822	9827	9831	1
9826	9827	9831	1
9827	9822	9830	1
9827	9826	9829	1
9835	9834	5938	1
9833	9832	9842	1
7153	7154	7161	1
7155	7154	7161	1
7161	10928	10918	1
7161	10928	10930	1
7153	7152	7163	1
7151	7152	7163	1
7163	7171	7165	1
7163	7171	7172	1
7154	7161	7162	1
7154	7161	10928	1
7152	7153	7154	1
7154	7153	7157	1
7154	7155	7156	1
7154	7155	7158	1
7152	7163	7164	1
7152	7163	7171	1
7152	7153	7157	1
7152	7151	7156	1
7152	7151	7159	1
7153	7154	7155	1
7151	7152	7153	1
7151	7156	7155	1
7155	7156	7160	1
7151	7156	7160	1
7156	7155	7158	1
7156	7151	7159	1
7162	7161	10928	1
7164	7163	7171	1
2800	2801	2808	1
2802	2801	2808	1
2808	5597	5591	1
2808	5597	5598	1
2800	2799	2810	1
2798	2799	2810	1
2801	2808	2809	1
2801	2808	5597	1
2799	2800	2801	1
2801	2800	2804	1
2801	2802	2803	1
2801	2802	2805	1
2799	2810	2812	1
2799	2810	2811	1
2799	2800	2804	1
2799	2798	2803	1
2799	2798	2806	1
2800	2801	2802	1
2798	2799	2800	1
2798	2803	2802	1
2802	2803	2807	1
2798	2803	2807	1
2803	2802	2805	1
2803	2798	2806	1
2809	2808	5597	1
2812	2810	2811	1
9473	9472	9483	1
9471	9472	9483	1
9483	9491	9485	1
9483	9491	9492	1
9473	9474	9481	1
9475	9474	9481	1
9481	5267	5257	1
9481	5267	5269	1
9472	9483	9484	1
9472	9483	9491	1
9472	9473	9474	1
9472	9473	9477	1
9472	9471	9476	1
9472	9471	9479	1
9474	9481	9482	1
9474	9481	5267	1
9474	9473	9477	1
9474	9475	9476	1
9474	9475	9478	1
9471	9472	9473	1
9473	9474	9475	1
9471	9476	9475	1
9471	9476	9480	1
9475	9476	9480	1
9476	9471	9479	1
9476	9475	9478	1
9484	9483	9491	1
9482	9481	5267	1
13660	13659	13670	1
13658	13659	13670	1
1527	1529	13670	1
1530	1529	13670	1
13660	13661	13668	1
13662	13661	13668	1
13668	10577	10570	1
13668	10577	10579	1
13659	13670	13671	1
1529	13670	13659	1
13659	13660	13661	1
13659	13660	13664	1
13659	13658	13663	1
13659	13658	13666	1
13661	13668	13669	1
13661	13668	10577	1
13661	13660	13664	1
13661	13662	13663	1
13661	13662	13665	1
13658	13659	13660	1
13660	13661	13662	1
13658	13663	13662	1
13658	13663	13667	1
13662	13663	13667	1
13663	13658	13666	1
13663	13662	13665	1
1529	13670	13671	1
13669	13668	10577	1
53	52	63	1
51	52	63	1
2498	2496	63	1
2497	2496	63	1
53	54	61	1
55	54	61	1
40	42	61	1
43	42	61	1
52	63	64	1
2496	63	52	1
52	53	54	1
52	53	57	1
52	51	56	1
52	51	59	1
54	61	62	1
42	61	54	1
54	53	57	1
54	55	56	1
54	55	58	1
51	52	53	1
53	54	55	1
51	56	55	1
51	56	60	1
55	56	60	1
56	51	59	1
56	55	58	1
2496	63	64	1
42	61	62	1
9532	9531	9542	1
9530	9531	9542	1
9542	5441	5434	1
9542	5441	5443	1
9532	9533	9540	1
9534	9533	9540	1
9540	9550	9544	1
9540	9550	9551	1
9531	9542	9543	1
9531	9542	5441	1
9531	9532	9533	1
9531	9532	9536	1
9531	9530	9535	1
9531	9530	9538	1
9533	9540	9541	1
9533	9540	9550	1
9533	9532	9536	1
9533	9534	9535	1
9533	9534	9537	1
9530	9531	9532	1
9532	9533	9534	1
9530	9535	9534	1
9530	9535	9539	1
9534	9535	9539	1
9535	9530	9538	1
9535	9534	9537	1
9543	9542	5441	1
9541	9540	9550	1
4182	4181	4192	1
4180	4181	4192	1
4192	10343	10333	1
4192	10343	10345	1
4182	4183	4190	1
4184	4183	4190	1
4190	4200	4194	1
4190	4200	4201	1
4181	4192	4193	1
4181	4192	10343	1
4181	4182	4183	1
4181	4182	4186	1
4181	4180	4185	1
4181	4180	4188	1
4183	4190	4191	1
4183	4190	4200	1
4183	4182	4186	1
4183	4184	4185	1
4183	4184	4187	1
4180	4181	4182	1
4182	4183	4184	1
4180	4185	4184	1
4180	4185	4189	1
4184	4185	4189	1
4185	4180	4188	1
4185	4184	4187	1
4193	4192	10343	1
4191	4190	4200	1
11252	11251	11262	1
11250	11251	11262	1
11262	4002	3995	1
11262	4002	4004	1
11252	11253	11260	1
11254	11253	11260	1
11260	10402	10392	1
11260	10402	10404	1
11251	11262	11263	1
11251	11262	4002	1
11251	11252	11253	1
11251	11252	11256	1
11251	11250	11255	1
11251	11250	11258	1
11253	11260	11261	1
11253	11260	10402	1
11253	11252	11256	1
11253	11254	11255	1
11253	11254	11257	1
11250	11251	11252	1
11252	11253	11254	1
11250	11255	11254	1
11250	11255	11259	1
11254	11255	11259	1
11255	11250	11258	1
11255	11254	11257	1
11263	11262	4002	1
11261	11260	10402	1
12218	12217	12228	1
12216	12217	12228	1
12228	9717	9707	1
12228	9717	9719	1
12218	12219	12226	1
12220	12219	12226	1
12226	5705	5695	1
12226	5705	5707	1
12217	12228	12229	1
12217	12228	9717	1
12217	12218	12219	1
12217	12218	12222	1
12217	12216	12221	1
12217	12216	12224	1
12219	12226	12227	1
12219	12226	5705	1
12219	12218	12222	1
12219	12220	12221	1
12219	12220	12223	1
12216	12217	12218	1
12218	12219	12220	1
12216	12221	12220	1
12216	12221	12225	1
12220	12221	12225	1
12221	12216	12224	1
12221	12220	12223	1
12229	12228	9717	1
12227	12226	5705	1
11308	11307	11318	1
11306	11307	11318	1
11318	4090	4080	1
11318	4090	4092	1
11308	11309	11316	1
11310	11309	11316	1
11316	7818	7808	1
11316	7818	7820	1
11307	11318	11319	1
11307	11318	4090	1
11307	11308	11309	1
11307	11308	11312	1
11307	11306	11311	1
11307	11306	11314	1
11309	11316	11317	1
11309	11316	7818	1
11309	11308	11312	1
11309	11310	11311	1
11309	11310	11313	1
11306	11307	11308	1
11308	11309	11310	1
11306	11311	11310	1
11306	11311	11315	1
11310	11311	11315	1
11311	11306	11314	1
11311	11310	11313	1
11319	11318	4090	1
11317	11316	7818	1
7998	7999	8006	1
8000	7999	8006	1
8006	8016	8010	1
8006	8016	8017	1
7998	7997	8008	1
7996	7997	8008	1
8008	7119	7109	1
8008	7119	7121	1
7999	8006	8007	1
7999	8006	8016	1
7999	7998	7997	1
7999	7998	8002	1
7999	8000	8001	1
7999	8000	8003	1
7997	8008	8009	1
7997	8008	7119	1
7997	7998	8002	1
7997	7996	8001	1
7997	7996	8004	1
8000	7999	7998	1
7998	7997	7996	1
8000	8001	7996	1
8000	8001	8005	1
7996	8001	8005	1
8001	8000	8003	1
8001	7996	8004	1
8007	8006	8016	1
8009	8008	7119	1
9766	9765	9776	1
9764	9765	9776	1
9776	9784	9778	1
9776	9784	9785	1
9766	9767	9774	1
9768	9767	9774	1
9774	10337	10331	1
9774	10337	10338	1
9765	9776	9777	1
9765	9776	9784	1
9765	9766	9767	1
9765	9766	9770	1
9765	9764	9769	1
9765	9764	9772	1
9767	9774	9775	1
9767	9774	10337	1
9767	9766	9770	1
9767	9768	9769	1
9767	9768	9771	1
9764	9765	9766	1
9766	9767	9768	1
9764	9769	9768	1
9764	9769	9773	1
9768	9769	9773	1
9769	9764	9772	1
9769	9768	9771	1
9777	9776	9784	1
9775	9774	10337	1
13730	13729	13740	1
13728	13729	13740	1
1345	1347	13740	1
1348	1347	13740	1
13730	13731	13738	1
13732	13731	13738	1
1618	1620	13738	1
1621	1620	13738	1
13729	13740	13741	1
1347	13740	13729	1
13729	13730	13731	1
13729	13730	13734	1
13729	13728	13733	1
13729	13728	13736	1
13731	13738	13739	1
1620	13738	13731	1
13731	13730	13734	1
13731	13732	13733	1
13731	13732	13735	1
13728	13729	13730	1
13730	13731	13732	1
13728	13733	13732	1
13728	13733	13737	1
13732	13733	13737	1
13733	13728	13736	1
13733	13732	13735	1
1347	13740	13741	1
1620	13738	13739	1
8905	8904	8915	1
8903	8904	8915	1
8915	8923	8917	1
8915	8923	8924	1
8905	8906	8913	1
8907	8906	8913	1
8913	8490	8483	1
8913	8490	8492	1
8904	8915	8916	1
8904	8915	8923	1
8904	8905	8906	1
8904	8905	8909	1
8904	8903	8908	1
8904	8903	8911	1
8906	8913	8914	1
8906	8913	8490	1
8906	8905	8909	1
8906	8907	8908	1
8906	8907	8910	1
8903	8904	8905	1
8905	8906	8907	1
8903	8908	8907	1
8903	8908	8912	1
8907	8908	8912	1
8908	8903	8911	1
8908	8907	8910	1
8916	8915	8923	1
8914	8913	8490	1
10378	10379	10386	1
10380	10379	10386	1
10386	10396	10390	1
10386	10396	10397	1
10378	10377	10388	1
10376	10377	10388	1
10388	11032	11022	1
10388	11032	11034	1
10379	10386	10387	1
10379	10386	10396	1
10377	10378	10379	1
10379	10378	10382	1
10379	10380	10381	1
10379	10380	10383	1
10377	10388	10389	1
10377	10388	11032	1
10377	10378	10382	1
10377	10376	10381	1
10377	10376	10384	1
10378	10379	10380	1
10376	10377	10378	1
10376	10381	10380	1
10380	10381	10385	1
10376	10381	10385	1
10381	10380	10383	1
10381	10376	10384	1
10387	10386	10396	1
10389	10388	11032	1
4894	4893	4904	1
4892	4893	4904	1
4904	4912	4906	1
4904	4912	4913	1
4894	4895	4902	1
4896	4895	4902	1
4902	11031	11024	1
4902	11031	11033	1
4893	4904	4905	1
4893	4904	4912	1
4893	4894	4895	1
4893	4894	4898	1
4893	4892	4897	1
4893	4892	4900	1
4895	4902	4903	1
4895	4902	11031	1
4895	4894	4898	1
4895	4896	4897	1
4895	4896	4899	1
4892	4893	4894	1
4894	4895	4896	1
4892	4897	4896	1
4892	4897	4901	1
4896	4897	4901	1
4897	4892	4900	1
4897	4896	4899	1
4905	4904	4912	1
4903	4902	11031	1
3010	3011	3018	1
3012	3011	3018	1
3018	7396	7386	1
3018	7396	7398	1
3010	3009	3020	1
3008	3009	3020	1
3011	3018	3019	1
3011	3018	7396	1
3009	3010	3011	1
3011	3010	3014	1
3011	3012	3013	1
3011	3012	3015	1
3009	3020	3021	1
3009	3020	3022	1
3009	3010	3014	1
3009	3008	3013	1
3009	3008	3016	1
3010	3011	3012	1
3008	3009	3010	1
3008	3013	3012	1
3012	3013	3017	1
3008	3013	3017	1
3013	3012	3015	1
3013	3008	3016	1
3019	3018	7396	1
3021	3020	3022	1
10904	10903	10914	1
10902	10903	10914	1
10914	10328	10318	1
10914	10328	10330	1
10904	10905	10912	1
10906	10905	10912	1
10912	10922	10916	1
10912	10922	10923	1
10903	10914	10915	1
10903	10914	10328	1
10903	10904	10905	1
10903	10904	10908	1
10903	10902	10907	1
10903	10902	10910	1
10905	10912	10913	1
10905	10912	10922	1
10905	10904	10908	1
10905	10906	10907	1
10905	10906	10909	1
10902	10903	10904	1
10904	10905	10906	1
10902	10907	10906	1
10902	10907	10911	1
10906	10907	10911	1
10907	10902	10910	1
10907	10906	10909	1
10915	10914	10328	1
10913	10912	10922	1
11910	11909	11920	1
11908	11909	11920	1
2105	2107	11920	1
2108	2107	11920	1
11910	11911	11918	1
11912	11911	11918	1
11918	5121	5114	1
11918	5121	5123	1
11909	11920	11921	1
2107	11920	11909	1
11909	11910	11911	1
11909	11910	11914	1
11909	11908	11913	1
11909	11908	11916	1
11911	11918	11919	1
11911	11918	5121	1
11911	11910	11914	1
11911	11912	11913	1
11911	11912	11915	1
11908	11909	11910	1
11910	11911	11912	1
11908	11913	11912	1
11908	11913	11917	1
11912	11913	11917	1
11913	11908	11916	1
11913	11912	11915	1
2107	11920	11921	1
11919	11918	5121	1
8569	8570	8577	1
8571	8570	8577	1
8577	8587	8581	1
8577	8587	8588	1
8569	8568	8579	1
8567	8568	8579	1
8579	6012	6002	1
8579	6012	6014	1
8570	8577	8578	1
8570	8577	8587	1
8570	8569	8568	1
8570	8569	8573	1
8570	8571	8572	1
8570	8571	8574	1
8568	8579	8580	1
8568	8579	6012	1
8568	8569	8573	1
8568	8567	8572	1
8568	8567	8575	1
8571	8570	8569	1
8569	8568	8567	1
8571	8572	8567	1
8571	8572	8576	1
8567	8572	8576	1
8572	8571	8574	1
8572	8567	8575	1
8578	8577	8587	1
8580	8579	6012	1
3265	3264	3275	1
3263	3264	3275	1
3265	3266	3273	1
3267	3266	3273	1
3273	8938	8932	1
3273	8938	8939	1
3264	3275	3277	1
3264	3275	3276	1
3264	3265	3266	1
3264	3265	3269	1
3264	3263	3268	1
3264	3263	3271	1
3266	3273	3274	1
3266	3273	8938	1
3266	3265	3269	1
3266	3267	3268	1
3266	3267	3270	1
3263	3264	3265	1
3265	3266	3267	1
3263	3268	3267	1
3263	3268	3272	1
3267	3268	3272	1
3268	3263	3271	1
3268	3267	3270	1
3277	3275	3276	1
3274	3273	8938	1
3190	3189	3200	1
3188	3189	3200	1
3190	3191	3198	1
3192	3191	3198	1
3198	8529	8523	1
3198	8529	8530	1
3189	3200	3202	1
3189	3200	3201	1
3189	3190	3191	1
3189	3190	3194	1
3189	3188	3193	1
3189	3188	3196	1
3191	3198	3199	1
3191	3198	8529	1
3191	3190	3194	1
3191	3192	3193	1
3191	3192	3195	1
3188	3189	3190	1
3190	3191	3192	1
3188	3193	3192	1
3188	3193	3197	1
3192	3193	3197	1
3193	3188	3196	1
3193	3192	3195	1
3201	3200	3202	1
3199	3198	8529	1
2815	2816	2823	1
2817	2816	2823	1
2823	5602	5595	1
2823	5602	5604	1
2815	2814	2825	1
2813	2814	2825	1
2816	2823	2824	1
2816	2823	5602	1
2814	2815	2816	1
2816	2815	2819	1
2816	2817	2818	1
2816	2817	2820	1
2814	2825	2826	1
2814	2825	2827	1
2814	2815	2819	1
2814	2813	2818	1
2814	2813	2821	1
2815	2816	2817	1
2813	2814	2815	1
2813	2818	2817	1
2817	2818	2822	1
2813	2818	2822	1
2818	2817	2820	1
2818	2813	2821	1
2824	2823	5602	1
2826	2825	2827	1
13366	13365	13376	1
13364	13365	13376	1
13376	8534	8527	1
13376	8534	8536	1
13366	13367	13374	1
13368	13367	13374	1
13374	8389	8379	1
13374	8389	8391	1
13365	13376	13377	1
13365	13376	8534	1
13365	13366	13367	1
13365	13366	13370	1
13365	13364	13369	1
13365	13364	13372	1
13367	13374	13375	1
13367	13374	8389	1
13367	13366	13370	1
13367	13368	13369	1
13367	13368	13371	1
13364	13365	13366	1
13366	13367	13368	1
13364	13369	13368	1
13364	13369	13373	1
13368	13369	13373	1
13369	13364	13372	1
13369	13368	13371	1
13377	13376	8534	1
13375	13374	8389	1
3115	3114	3125	1
3113	3114	3125	1
3115	3116	3123	1
3117	3116	3123	1
3123	8095	8085	1
3123	8095	8097	1
3114	3125	3126	1
3114	3125	3127	1
3114	3115	3116	1
3114	3115	3119	1
3114	3113	3118	1
3114	3113	3121	1
3116	3123	3124	1
3116	3123	8095	1
3116	3115	3119	1
3116	3117	3118	1
3116	3117	3120	1
3113	3114	3115	1
3115	3116	3117	1
3113	3118	3117	1
3113	3118	3122	1
3117	3118	3122	1
3118	3113	3121	1
3118	3117	3120	1
3126	3125	3127	1
3124	3123	8095	1
2345	2344	2355	1
2343	2344	2355	1
2359	2357	2355	1
2358	2357	2355	1
2345	2346	2353	1
2347	2346	2353	1
2353	6011	6004	1
2353	6011	6013	1
2344	2355	2356	1
2357	2355	2344	1
2344	2345	2346	1
2344	2345	2349	1
2344	2343	2348	1
2344	2343	2351	1
2346	2353	2354	1
2346	2353	6011	1
2346	2345	2349	1
2346	2347	2348	1
2346	2347	2350	1
2343	2344	2345	1
2345	2346	2347	1
2343	2348	2347	1
2343	2348	2352	1
2347	2348	2352	1
2348	2343	2351	1
2348	2347	2350	1
2357	2355	2356	1
2354	2353	6011	1
9999	9998	10009	1
9997	9998	10009	1
10009	10017	10011	1
10009	10017	10018	1
9999	10000	10007	1
10001	10000	10007	1
10007	11026	11020	1
10007	11026	11027	1
9998	10009	10010	1
9998	10009	10017	1
9998	9999	10000	1
9998	9999	10003	1
9998	9997	10002	1
9998	9997	10005	1
10000	10007	10008	1
10000	10007	11026	1
10000	9999	10003	1
10000	10001	10002	1
10000	10001	10004	1
9997	9998	9999	1
9999	10000	10001	1
9997	10002	10001	1
9997	10002	10006	1
10001	10002	10006	1
10002	9997	10005	1
10002	10001	10004	1
10010	10009	10017	1
10008	10007	11026	1
5156	5155	5166	1
5154	5155	5166	1
5166	7337	7327	1
5166	7337	7339	1
5156	5157	5164	1
5158	5157	5164	1
5164	5174	5168	1
5164	5174	5175	1
5155	5166	5167	1
5155	5166	7337	1
5155	5156	5157	1
5155	5156	5160	1
5155	5154	5159	1
5155	5154	5162	1
5157	5164	5165	1
5157	5164	5174	1
5157	5156	5160	1
5157	5158	5159	1
5157	5158	5161	1
5154	5155	5156	1
5156	5157	5158	1
5154	5159	5158	1
5154	5159	5163	1
5158	5159	5163	1
5159	5154	5162	1
5159	5158	5161	1
5167	5166	7337	1
5165	5164	5174	1
11448	11449	11456	1
11450	11449	11456	1
552	554	11456	1
555	554	11456	1
11448	11447	11458	1
11446	11447	11458	1
11458	4307	4300	1
11458	4307	4309	1
11449	11456	11457	1
554	11456	11449	1
11447	11448	11449	1
11449	11448	11452	1
11449	11450	11451	1
11449	11450	11453	1
11447	11458	11459	1
11447	11458	4307	1
11447	11448	11452	1
11447	11446	11451	1
11447	11446	11454	1
11448	11449	11450	1
11446	11447	11448	1
11446	11451	11450	1
11450	11451	11455	1
11446	11451	11455	1
11451	11450	11453	1
11451	11446	11454	1
554	11456	11457	1
11459	11458	4307	1
4996	4995	5006	1
4994	4995	5006	1
5006	5014	5008	1
5006	5014	5015	1
4996	4997	5004	1
4998	4997	5004	1
5004	8329	8322	1
5004	8329	8331	1
4995	5006	5007	1
4995	5006	5014	1
4995	4996	4997	1
4995	4996	5000	1
4995	4994	4999	1
4995	4994	5002	1
4997	5004	5005	1
4997	5004	8329	1
4997	4996	5000	1
4997	4998	4999	1
4997	4998	5001	1
4994	4995	4996	1
4996	4997	4998	1
4994	4999	4998	1
4994	4999	5003	1
4998	4999	5003	1
4999	4994	5002	1
4999	4998	5001	1
5007	5006	5014	1
5005	5004	8329	1
277	276	287	1
275	276	287	1
264	266	287	1
267	266	287	1
277	278	285	1
279	278	285	1
285	5880	5870	1
285	5880	5882	1
276	287	288	1
266	287	276	1
276	277	278	1
276	277	281	1
276	275	280	1
276	275	283	1
278	285	286	1
278	285	5880	1
278	277	281	1
278	279	280	1
278	279	282	1
275	276	277	1
277	278	279	1
275	280	279	1
275	280	284	1
279	280	284	1
280	275	283	1
280	279	282	1
266	287	288	1
286	285	5880	1
11952	11953	11960	1
11954	11953	11960	1
918	920	11960	1
921	920	11960	1
11952	11951	11962	1
11950	11951	11962	1
11962	5238	5228	1
11962	5238	5240	1
11953	11960	11961	1
920	11960	11953	1
11951	11952	11953	1
11953	11952	11956	1
11953	11954	11955	1
11953	11954	11957	1
11951	11962	11963	1
11951	11962	5238	1
11951	11952	11956	1
11951	11950	11955	1
11951	11950	11958	1
11952	11953	11954	1
11950	11951	11952	1
11950	11955	11954	1
11954	11955	11959	1
11950	11955	11959	1
11955	11954	11957	1
11955	11950	11958	1
920	11960	11961	1
11963	11962	5238	1
4153	4152	4163	1
4151	4152	4163	1
4163	4171	4165	1
4163	4171	4172	1
4153	4154	4161	1
4155	4154	4161	1
4161	7920	7910	1
4161	7920	7922	1
4152	4163	4164	1
4152	4163	4171	1
4152	4153	4154	1
4152	4153	4157	1
4152	4151	4156	1
4152	4151	4159	1
4154	4161	4162	1
4154	4161	7920	1
4154	4153	4157	1
4154	4155	4156	1
4154	4155	4158	1
4151	4152	4153	1
4153	4154	4155	1
4151	4156	4155	1
4151	4156	4160	1
4155	4156	4160	1
4156	4151	4159	1
4156	4155	4158	1
4164	4163	4171	1
4162	4161	7920	1
3640	3639	3650	1
3638	3639	3650	1
3640	3641	3648	1
3642	3641	3648	1
3648	10952	10946	1
3648	10952	10953	1
3639	3650	3652	1
3639	3650	3651	1
3639	3640	3641	1
3639	3640	3644	1
3639	3638	3643	1
3639	3638	3646	1
3641	3648	3649	1
3641	3648	10952	1
3641	3640	3644	1
3641	3642	3643	1
3641	3642	3645	1
3638	3639	3640	1
3640	3641	3642	1
3638	3643	3642	1
3638	3643	3647	1
3642	3643	3647	1
3643	3638	3646	1
3643	3642	3645	1
3652	3650	3651	1
3649	3648	10952	1
11238	11237	11248	1
11236	11237	11248	1
11248	4003	3993	1
11248	4003	4005	1
11238	11239	11246	1
11240	11239	11246	1
11246	11105	11095	1
11246	11105	11107	1
11237	11248	11249	1
11237	11248	4003	1
11237	11238	11239	1
11237	11238	11242	1
11237	11236	11241	1
11237	11236	11244	1
11239	11246	11247	1
11239	11246	11105	1
11239	11238	11242	1
11239	11240	11241	1
11239	11240	11243	1
11236	11237	11238	1
11238	11239	11240	1
11236	11241	11240	1
11236	11241	11245	1
11240	11241	11245	1
11241	11236	11244	1
11241	11240	11243	1
11249	11248	4003	1
11247	11246	11105	1
2680	2679	2690	1
2678	2679	2690	1
2680	2681	2688	1
2682	2681	2688	1
2688	4946	4939	1
2688	4946	4948	1
2679	2690	2692	1
2679	2690	2691	1
2679	2680	2681	1
2679	2680	2684	1
2679	2678	2683	1
2679	2678	2686	1
2681	2688	2689	1
2681	2688	4946	1
2681	2680	2684	1
2681	2682	2683	1
2681	2682	2685	1
2678	2679	2680	1
2680	2681	2682	1
2678	2683	2682	1
2678	2683	2687	1
2682	2683	2687	1
2683	2678	2686	1
2683	2682	2685	1
2692	2690	2691	1
2689	2688	4946	1
10202	10201	10212	1
10200	10201	10212	1
10212	10220	10214	1
10212	10220	10221	1
10202	10203	10210	1
10204	10203	10210	1
10210	10762	10756	1
10210	10762	10763	1
10201	10212	10213	1
10201	10212	10220	1
10201	10202	10203	1
10201	10202	10206	1
10201	10200	10205	1
10201	10200	10208	1
10203	10210	10211	1
10203	10210	10762	1
10203	10202	10206	1
10203	10204	10205	1
10203	10204	10207	1
10200	10201	10202	1
10202	10203	10204	1
10200	10205	10204	1
10200	10205	10209	1
10204	10205	10209	1
10205	10200	10208	1
10205	10204	10207	1
10213	10212	10220	1
10211	10210	10762	1
12330	12329	12340	1
12328	12329	12340	1
12340	10022	10015	1
12340	10022	10024	1
12330	12331	12338	1
12332	12331	12338	1
12338	5836	5826	1
12338	5836	5838	1
12329	12340	12341	1
12329	12340	10022	1
12329	12330	12331	1
12329	12330	12334	1
12329	12328	12333	1
12329	12328	12336	1
12331	12338	12339	1
12331	12338	5836	1
12331	12330	12334	1
12331	12332	12333	1
12331	12332	12335	1
12328	12329	12330	1
12330	12331	12332	1
12328	12333	12332	1
12328	12333	12337	1
12332	12333	12337	1
12333	12328	12336	1
12333	12332	12335	1
12341	12340	10022	1
12339	12338	5836	1
11644	11643	11654	1
11642	11643	11654	1
1148	1150	11654	1
1151	1150	11654	1
11644	11645	11652	1
11646	11645	11652	1
11652	4699	4692	1
11652	4699	4701	1
11643	11654	11655	1
1150	11654	11643	1
11643	11644	11645	1
11643	11644	11648	1
11643	11642	11647	1
11643	11642	11650	1
11645	11652	11653	1
11645	11652	4699	1
11645	11644	11648	1
11645	11646	11647	1
11645	11646	11649	1
11642	11643	11644	1
11644	11645	11646	1
11642	11647	11646	1
11642	11647	11651	1
11646	11647	11651	1
11647	11642	11650	1
11647	11646	11649	1
1150	11654	11655	1
11653	11652	4699	1
5069	5068	5079	1
5067	5068	5079	1
5079	9278	9271	1
5079	9278	9280	1
5069	5070	5077	1
5071	5070	5077	1
5077	5087	5081	1
5077	5087	5088	1
5068	5079	5080	1
5068	5079	9278	1
5068	5069	5070	1
5068	5069	5073	1
5068	5067	5072	1
5068	5067	5075	1
5070	5077	5078	1
5070	5077	5087	1
5070	5069	5073	1
5070	5071	5072	1
5070	5071	5074	1
5067	5068	5069	1
5069	5070	5071	1
5067	5072	5071	1
5067	5072	5076	1
5071	5072	5076	1
5072	5067	5075	1
5072	5071	5074	1
5080	5079	9278	1
5078	5077	5087	1
10275	10274	10285	1
10273	10274	10285	1
10285	7731	7721	1
10285	7731	7733	1
10275	10276	10283	1
10277	10276	10283	1
10283	10293	10287	1
10283	10293	10294	1
10274	10285	10286	1
10274	10285	7731	1
10274	10275	10276	1
10274	10275	10279	1
10274	10273	10278	1
10274	10273	10281	1
10276	10283	10284	1
10276	10283	10293	1
10276	10275	10279	1
10276	10277	10278	1
10276	10277	10280	1
10273	10274	10275	1
10275	10276	10277	1
10273	10278	10277	1
10273	10278	10282	1
10277	10278	10282	1
10278	10273	10281	1
10278	10277	10280	1
10286	10285	7731	1
10284	10283	10293	1
7576	7575	7586	1
7574	7575	7586	1
7586	7594	7588	1
7586	7594	7595	1
7576	7577	7584	1
7578	7577	7584	1
7584	10937	10931	1
7584	10937	10938	1
7575	7586	7587	1
7575	7586	7594	1
7575	7576	7577	1
7575	7576	7580	1
7575	7574	7579	1
7575	7574	7582	1
7577	7584	7585	1
7577	7584	10937	1
7577	7576	7580	1
7577	7578	7579	1
7577	7578	7581	1
7574	7575	7576	1
7576	7577	7578	1
7574	7579	7578	1
7574	7579	7583	1
7578	7579	7583	1
7579	7574	7582	1
7579	7578	7581	1
7587	7586	7594	1
7585	7584	10937	1
11154	11153	11164	1
11152	11153	11164	1
871	878	11164	1
880	878	11164	1
11154	11155	11162	1
11156	11155	11162	1
11162	3814	3804	1
11162	3814	3816	1
11153	11164	11165	1
878	11164	11153	1
11153	11154	11155	1
11153	11154	11158	1
11153	11152	11157	1
11153	11152	11160	1
11155	11162	11163	1
11155	11162	3814	1
11155	11154	11158	1
11155	11156	11157	1
11155	11156	11159	1
11152	11153	11154	1
11154	11155	11156	1
11152	11157	11156	1
11152	11157	11161	1
11156	11157	11161	1
11157	11152	11160	1
11157	11156	11159	1
878	11164	11165	1
11163	11162	3814	1
9081	9082	9089	1
9083	9082	9089	1
9089	9439	9429	1
9089	9439	9441	1
9081	9080	9091	1
9079	9080	9091	1
9091	9099	9093	1
9091	9099	9100	1
9082	9089	9090	1
9082	9089	9439	1
9080	9081	9082	1
9082	9081	9085	1
9082	9083	9084	1
9082	9083	9086	1
9080	9091	9092	1
9080	9091	9099	1
9080	9081	9085	1
9080	9079	9084	1
9080	9079	9087	1
9081	9082	9083	1
9079	9080	9081	1
9079	9084	9083	1
9083	9084	9088	1
9079	9084	9088	1
9084	9083	9086	1
9084	9079	9087	1
9090	9089	9439	1
9092	9091	9099	1
534	535	542	1
536	535	542	1
548	546	542	1
547	546	542	1
534	533	544	1
532	533	544	1
544	5237	5230	1
544	5237	5239	1
535	542	543	1
546	542	535	1
535	534	533	1
535	534	538	1
535	536	537	1
535	536	539	1
533	544	545	1
533	544	5237	1
533	534	538	1
533	532	537	1
533	532	540	1
536	535	534	1
534	533	532	1
536	537	532	1
536	537	541	1
532	537	541	1
537	536	539	1
537	532	540	1
546	542	543	1
545	544	5237	1
2935	2936	2943	1
2937	2936	2943	1
2943	6638	6628	1
2943	6638	6640	1
2935	2934	2945	1
2933	2934	2945	1
2936	2943	2944	1
2936	2943	6638	1
2934	2935	2936	1
2936	2935	2939	1
2936	2937	2938	1
2936	2937	2940	1
2934	2945	2946	1
2934	2945	2947	1
2934	2935	2939	1
2934	2933	2938	1
2934	2933	2941	1
2935	2936	2937	1
2933	2934	2935	1
2933	2938	2937	1
2937	2938	2942	1
2933	2938	2942	1
2938	2937	2940	1
2938	2933	2941	1
2944	2943	6638	1
2946	2945	2947	1
9052	9051	9062	1
9050	9051	9062	1
9062	10401	10394	1
9062	10401	10403	1
9052	9053	9060	1
9054	9053	9060	1
9060	9070	9064	1
9060	9070	9071	1
9051	9062	9063	1
9051	9062	10401	1
9051	9052	9053	1
9051	9052	9056	1
9051	9050	9055	1
9051	9050	9058	1
9053	9060	9061	1
9053	9060	9070	1
9053	9052	9056	1
9053	9054	9055	1
9053	9054	9057	1
9050	9051	9052	1
9052	9053	9054	1
9050	9055	9054	1
9050	9055	9059	1
9054	9055	9059	1
9055	9050	9058	1
9055	9054	9057	1
9063	9062	10401	1
9061	9060	9070	1
13464	13463	13474	1
13462	13463	13474	1
13474	9076	9066	1
13474	9076	9078	1
13464	13465	13472	1
13466	13465	13472	1
13472	8943	8936	1
13472	8943	8945	1
13463	13474	13475	1
13463	13474	9076	1
13463	13464	13465	1
13463	13464	13468	1
13463	13462	13467	1
13463	13462	13470	1
13465	13472	13473	1
13465	13472	8943	1
13465	13464	13468	1
13465	13466	13467	1
13465	13466	13469	1
13462	13463	13464	1
13464	13465	13466	1
13462	13467	13466	1
13462	13467	13471	1
13466	13467	13471	1
13467	13462	13470	1
13467	13466	13469	1
13475	13474	9076	1
13473	13472	8943	1
3370	3371	3378	1
3372	3371	3378	1
3378	9410	9400	1
3378	9410	9412	1
3370	3369	3380	1
3368	3369	3380	1
3371	3378	3379	1
3371	3378	9410	1
3369	3370	3371	1
3371	3370	3374	1
3371	3372	3373	1
3371	3372	3375	1
3369	3380	3381	1
3369	3380	3382	1
3369	3370	3374	1
3369	3368	3373	1
3369	3368	3376	1
3370	3371	3372	1
3368	3369	3370	1
3368	3373	3372	1
3372	3373	3377	1
3368	3373	3377	1
3373	3372	3375	1
3373	3368	3376	1
3379	3378	9410	1
3381	3380	3382	1
7925	7924	7935	1
7923	7924	7935	1
7935	6914	6907	1
7935	6914	6916	1
7925	7926	7933	1
7927	7926	7933	1
7933	7943	7937	1
7933	7943	7944	1
7924	7935	7936	1
7924	7935	6914	1
7924	7925	7926	1
7924	7925	7929	1
7924	7923	7928	1
7924	7923	7931	1
7926	7933	7934	1
7926	7933	7943	1
7926	7925	7929	1
7926	7927	7928	1
7926	7927	7930	1
7923	7924	7925	1
7925	7926	7927	1
7923	7928	7927	1
7923	7928	7932	1
7927	7928	7932	1
7928	7923	7931	1
7928	7927	7930	1
7936	7935	6914	1
7934	7933	7943	1
1068	1067	1078	1
1066	1067	1078	1
1049	1055	1078	1
1056	1055	1078	1
1068	1069	1076	1
1070	1069	1076	1
1076	5529	5519	1
1076	5529	5531	1
1067	1078	1079	1
1055	1078	1067	1
1067	1068	1069	1
1067	1068	1072	1
1067	1066	1071	1
1067	1066	1074	1
1069	1076	1077	1
1069	1076	5529	1
1069	1068	1072	1
1069	1070	1071	1
1069	1070	1073	1
1066	1067	1068	1
1068	1069	1070	1
1066	1071	1070	1
1066	1071	1075	1
1070	1071	1075	1
1071	1066	1074	1
1071	1070	1073	1
1055	1078	1079	1
1077	1076	5529	1
13450	13449	13460	1
13448	13449	13460	1
13460	10899	10889	1
13460	10899	10901	1
13450	13451	13458	1
13452	13451	13458	1
13458	8944	8934	1
13458	8944	8946	1
13449	13460	13461	1
13449	13460	10899	1
13449	13450	13451	1
13449	13450	13454	1
13449	13448	13453	1
13449	13448	13456	1
13451	13458	13459	1
13451	13458	8944	1
13451	13450	13454	1
13451	13452	13453	1
13451	13452	13455	1
13448	13449	13450	1
13450	13451	13452	1
13448	13453	13452	1
13448	13453	13457	1
13452	13453	13457	1
13453	13448	13456	1
13453	13452	13455	1
13461	13460	10899	1
13459	13458	8944	1
10641	10640	10651	1
10639	10640	10651	1
10651	3915	3908	1
10651	3915	3917	1
10641	10642	10649	1
10643	10642	10649	1
10649	10659	10653	1
10649	10659	10660	1
10640	10651	10652	1
10640	10651	3915	1
10640	10641	10642	1
10640	10641	10645	1
10640	10639	10644	1
10640	10639	10647	1
10642	10649	10650	1
10642	10649	10659	1
10642	10641	10645	1
10642	10643	10644	1
10642	10643	10646	1
10639	10640	10641	1
10641	10642	10643	1
10639	10644	10643	1
10639	10644	10648	1
10643	10644	10648	1
10644	10639	10647	1
10644	10643	10646	1
10652	10651	3915	1
10650	10649	10659	1
5564	5563	5574	1
5562	5563	5574	1
2407	2414	5574	1
2416	2414	5574	1
5564	5565	5572	1
5566	5565	5572	1
5572	5582	5576	1
5572	5582	5583	1
5563	5574	5575	1
2414	5574	5563	1
5563	5564	5565	1
5563	5564	5568	1
5563	5562	5567	1
5563	5562	5570	1
5565	5572	5573	1
5565	5572	5582	1
5565	5564	5568	1
5565	5566	5567	1
5565	5566	5569	1
5562	5563	5564	1
5564	5565	5566	1
5562	5567	5566	1
5562	5567	5571	1
5566	5567	5571	1
5567	5562	5570	1
5567	5566	5569	1
2414	5574	5575	1
5573	5572	5582	1
430	429	440	1
428	429	440	1
440	6298	6292	1
440	6298	6299	1
430	431	438	1
432	431	438	1
411	417	438	1
418	417	438	1
429	440	441	1
429	440	6298	1
429	430	431	1
429	430	434	1
429	428	433	1
429	428	436	1
431	438	439	1
417	438	431	1
431	430	434	1
431	432	433	1
431	432	435	1
428	429	430	1
430	431	432	1
428	433	432	1
428	433	437	1
432	433	437	1
433	428	436	1
433	432	435	1
441	440	6298	1
417	438	439	1
7095	7094	7105	1
7093	7094	7105	1
7105	7113	7107	1
7105	7113	7114	1
7095	7096	7103	1
7097	7096	7103	1
7103	8563	8556	1
7103	8563	8565	1
7094	7105	7106	1
7094	7105	7113	1
7094	7095	7096	1
7094	7095	7099	1
7094	7093	7098	1
7094	7093	7101	1
7096	7103	7104	1
7096	7103	8563	1
7096	7095	7099	1
7096	7097	7098	1
7096	7097	7100	1
7093	7094	7095	1
7095	7096	7097	1
7093	7098	7097	1
7093	7098	7102	1
7097	7098	7102	1
7098	7093	7101	1
7098	7097	7100	1
7106	7105	7113	1
7104	7103	8563	1
656	655	666	1
654	655	666	1
666	10499	10493	1
666	10499	10500	1
656	657	664	1
658	657	664	1
674	676	664	1
677	676	664	1
655	666	667	1
655	666	10499	1
655	656	657	1
655	656	660	1
655	654	659	1
655	654	662	1
657	664	665	1
676	664	657	1
657	656	660	1
657	658	659	1
657	658	661	1
654	655	656	1
656	657	658	1
654	659	658	1
654	659	663	1
658	659	663	1
659	654	662	1
659	658	661	1
667	666	10499	1
676	664	665	1
6643	6642	6653	1
6641	6642	6653	1
6653	8314	8307	1
6653	8314	8316	1
6643	6644	6651	1
6645	6644	6651	1
6651	6661	6655	1
6651	6661	6662	1
6642	6653	6654	1
6642	6653	8314	1
6642	6643	6644	1
6642	6643	6647	1
6642	6641	6646	1
6642	6641	6649	1
6644	6651	6652	1
6644	6651	6661	1
6644	6643	6647	1
6644	6645	6646	1
6644	6645	6648	1
6641	6642	6643	1
6643	6644	6645	1
6641	6646	6645	1
6641	6646	6650	1
6645	6646	6650	1
6646	6641	6649	1
6646	6645	6648	1
6654	6653	8314	1
6652	6651	6661	1
3430	3431	3438	1
3432	3431	3438	1
3438	9555	9548	1
3438	9555	9557	1
3430	3429	3440	1
3428	3429	3440	1
3431	3438	3439	1
3431	3438	9555	1
3429	3430	3431	1
3431	3430	3434	1
3431	3432	3433	1
3431	3432	3435	1
3429	3440	3442	1
3429	3440	3441	1
3429	3430	3434	1
3429	3428	3433	1
3429	3428	3436	1
3430	3431	3432	1
3428	3429	3430	1
3428	3433	3432	1
3432	3433	3437	1
3428	3433	3437	1
3433	3432	3435	1
3433	3428	3436	1
3439	3438	9555	1
3441	3440	3442	1
13002	13001	13012	1
13000	13001	13012	1
13012	7571	7561	1
13012	7571	7573	1
13002	13003	13010	1
13004	13003	13010	1
13010	10225	10218	1
13010	10225	10227	1
13001	13012	13013	1
13001	13012	7571	1
13001	13002	13003	1
13001	13002	13006	1
13001	13000	13005	1
13001	13000	13008	1
13003	13010	13011	1
13003	13010	10225	1
13003	13002	13006	1
13003	13004	13005	1
13003	13004	13007	1
13000	13001	13002	1
13002	13003	13004	1
13000	13005	13004	1
13000	13005	13009	1
13004	13005	13009	1
13005	13000	13008	1
13005	13004	13007	1
13013	13012	7571	1
13011	13010	10225	1
11364	11363	11374	1
11362	11363	11374	1
11374	7469	7459	1
11374	7469	7471	1
11364	11365	11372	1
11366	11365	11372	1
11372	4177	4167	1
11372	4177	4179	1
11363	11374	11375	1
11363	11374	7469	1
11363	11364	11365	1
11363	11364	11368	1
11363	11362	11367	1
11363	11362	11370	1
11365	11372	11373	1
11365	11372	4177	1
11365	11364	11368	1
11365	11366	11367	1
11365	11366	11369	1
11362	11363	11364	1
11364	11365	11366	1
11362	11367	11366	1
11362	11367	11371	1
11366	11367	11371	1
11367	11362	11370	1
11367	11366	11369	1
11375	11374	7469	1
11373	11372	4177	1
12708	12707	12718	1
12706	12707	12718	1
2502	2504	12718	1
2505	2504	12718	1
12708	12709	12716	1
12710	12709	12716	1
12716	6666	6659	1
12716	6666	6668	1
12707	12718	12719	1
2504	12718	12707	1
12707	12708	12709	1
12707	12708	12712	1
12707	12706	12711	1
12707	12706	12714	1
12709	12716	12717	1
12709	12716	6666	1
12709	12708	12712	1
12709	12710	12711	1
12709	12710	12713	1
12706	12707	12708	1
12708	12709	12710	1
12706	12711	12710	1
12706	12711	12715	1
12710	12711	12715	1
12711	12706	12714	1
12711	12710	12713	1
2504	12718	12719	1
12717	12716	6666	1
3979	3978	3989	1
3977	3978	3989	1
3989	6229	6222	1
3989	6229	6231	1
3979	3980	3987	1
3981	3980	3987	1
3987	3997	3991	1
3987	3997	3998	1
3978	3989	3990	1
3978	3989	6229	1
3978	3979	3980	1
3978	3979	3983	1
3978	3977	3982	1
3978	3977	3985	1
3980	3987	3988	1
3980	3987	3997	1
3980	3979	3983	1
3980	3981	3982	1
3980	3981	3984	1
3977	3978	3979	1
3979	3980	3981	1
3977	3982	3981	1
3977	3982	3986	1
3981	3982	3986	1
3982	3977	3985	1
3982	3981	3984	1
3990	3989	6229	1
3988	3987	3997	1
2255	2254	2265	1
2253	2254	2265	1
2269	2267	2265	1
2268	2267	2265	1
2255	2256	2263	1
2257	2256	2263	1
2263	10753	10743	1
2263	10753	10755	1
2254	2265	2266	1
2267	2265	2254	1
2254	2255	2256	1
2254	2255	2259	1
2254	2253	2258	1
2254	2253	2261	1
2256	2263	2264	1
2256	2263	10753	1
2256	2255	2259	1
2256	2257	2258	1
2256	2257	2260	1
2253	2254	2255	1
2255	2256	2257	1
2253	2258	2257	1
2253	2258	2262	1
2257	2258	2262	1
2258	2253	2261	1
2258	2257	2260	1
2267	2265	2266	1
2264	2263	10753	1
6585	6584	6595	1
6583	6584	6595	1
6595	6603	6597	1
6595	6603	6604	1
6585	6586	6593	1
6587	6586	6593	1
6593	8899	8892	1
6593	8899	8901	1
6584	6595	6596	1
6584	6595	6603	1
6584	6585	6586	1
6584	6585	6589	1
6584	6583	6588	1
6584	6583	6591	1
6586	6593	6594	1
6586	6593	8899	1
6586	6585	6589	1
6586	6587	6588	1
6586	6587	6590	1
6583	6584	6585	1
6585	6586	6587	1
6583	6588	6587	1
6583	6588	6592	1
6587	6588	6592	1
6588	6583	6591	1
6588	6587	6590	1
6596	6595	6603	1
6594	6593	8899	1
7503	7502	7513	1
7501	7502	7513	1
7513	7521	7515	1
7513	7521	7522	1
7503	7504	7511	1
7505	7504	7511	1
7511	4584	4574	1
7511	4584	4586	1
7502	7513	7514	1
7502	7513	7521	1
7502	7503	7504	1
7502	7503	7507	1
7502	7501	7506	1
7502	7501	7509	1
7504	7511	7512	1
7504	7511	4584	1
7504	7503	7507	1
7504	7505	7506	1
7504	7505	7508	1
7501	7502	7503	1
7503	7504	7505	1
7501	7506	7505	1
7501	7506	7510	1
7505	7506	7510	1
7506	7501	7509	1
7506	7505	7508	1
7514	7513	7521	1
7512	7511	4584	1
12764	12763	12774	1
12762	12763	12774	1
12774	6915	6905	1
12774	6915	6917	1
12764	12765	12772	1
12766	12765	12772	1
2469	2476	12772	1
2478	2476	12772	1
12763	12774	12775	1
12763	12774	6915	1
12763	12764	12765	1
12763	12764	12768	1
12763	12762	12767	1
12763	12762	12770	1
12765	12772	12773	1
2476	12772	12765	1
12765	12764	12768	1
12765	12766	12767	1
12765	12766	12769	1
12762	12763	12764	1
12764	12765	12766	1
12762	12767	12766	1
12762	12767	12771	1
12766	12767	12771	1
12767	12762	12770	1
12767	12766	12769	1
12775	12774	6915	1
2476	12772	12773	1
12974	12973	12984	1
12972	12973	12984	1
12984	9279	9269	1
12984	9279	9281	1
12974	12975	12982	1
12976	12975	12982	1
12982	7498	7488	1
12982	7498	7500	1
12973	12984	12985	1
12973	12984	9279	1
12973	12974	12975	1
12973	12974	12978	1
12973	12972	12977	1
12973	12972	12980	1
12975	12982	12983	1
12975	12982	7498	1
12975	12974	12978	1
12975	12976	12977	1
12975	12976	12979	1
12972	12973	12974	1
12974	12975	12976	1
12972	12977	12976	1
12972	12977	12981	1
12976	12977	12981	1
12977	12972	12980	1
12977	12976	12979	1
12985	12984	9279	1
12983	12982	7498	1
4386	4385	4396	1
4384	4385	4396	1
4396	4404	4398	1
4396	4404	4405	1
4386	4387	4394	1
4388	4387	4394	1
4394	6885	6878	1
4394	6885	6887	1
4385	4396	4397	1
4385	4396	4404	1
4385	4386	4387	1
4385	4386	4390	1
4385	4384	4389	1
4385	4384	4392	1
4387	4394	4395	1
4387	4394	6885	1
4387	4386	4390	1
4387	4388	4389	1
4387	4388	4391	1
4384	4385	4386	1
4386	4387	4388	1
4384	4389	4388	1
4384	4389	4393	1
4388	4389	4393	1
4389	4384	4392	1
4389	4388	4391	1
4397	4396	4404	1
4395	4394	6885	1
10729	10728	10739	1
10727	10728	10739	1
10739	10747	10741	1
10739	10747	10748	1
10729	10730	10737	1
10731	10730	10737	1
10737	5894	5887	1
10737	5894	5896	1
10728	10739	10740	1
10728	10739	10747	1
10728	10729	10730	1
10728	10729	10733	1
10728	10727	10732	1
10728	10727	10735	1
10730	10737	10738	1
10730	10737	5894	1
10730	10729	10733	1
10730	10731	10732	1
10730	10731	10734	1
10727	10728	10729	1
10729	10730	10731	1
10727	10732	10731	1
10727	10732	10736	1
10731	10732	10736	1
10732	10727	10735	1
10732	10731	10734	1
10740	10739	10747	1
10738	10737	5894	1
3655	3654	3665	1
3653	3654	3665	1
3655	3656	3663	1
3657	3656	3663	1
3663	10957	10950	1
3663	10957	10959	1
3654	3665	3666	1
3654	3665	3667	1
3654	3655	3656	1
3654	3655	3659	1
3654	3653	3658	1
3654	3653	3661	1
3656	3663	3664	1
3656	3663	10957	1
3656	3655	3659	1
3656	3657	3658	1
3656	3657	3660	1
3653	3654	3655	1
3655	3656	3657	1
3653	3658	3657	1
3653	3658	3662	1
3657	3658	3662	1
3658	3653	3661	1
3658	3657	3660	1
3666	3665	3667	1
3664	3663	10957	1
10875	10874	10885	1
10873	10874	10885	1
10885	10869	10862	1
10885	10869	10871	1
10875	10876	10883	1
10877	10876	10883	1
10883	10893	10887	1
10883	10893	10894	1
10874	10885	10886	1
10874	10885	10869	1
10874	10875	10876	1
10874	10875	10879	1
10874	10873	10878	1
10874	10873	10881	1
10876	10883	10884	1
10876	10883	10893	1
10876	10875	10879	1
10876	10877	10878	1
10876	10877	10880	1
10873	10874	10875	1
10875	10876	10877	1
10873	10878	10877	1
10873	10878	10882	1
10877	10878	10882	1
10878	10873	10881	1
10878	10877	10880	1
10886	10885	10869	1
10884	10883	10893	1
3490	3491	3498	1
3492	3491	3498	1
3498	9732	9722	1
3498	9732	9734	1
3490	3489	3500	1
3488	3489	3500	1
3491	3498	3499	1
3491	3498	9732	1
3489	3490	3491	1
3491	3490	3494	1
3491	3492	3493	1
3491	3492	3495	1
3489	3500	3501	1
3489	3500	3502	1
3489	3490	3494	1
3489	3488	3493	1
3489	3488	3496	1
3490	3491	3492	1
3488	3489	3490	1
3488	3493	3492	1
3492	3493	3497	1
3488	3493	3497	1
3493	3492	3495	1
3493	3488	3496	1
3499	3498	9732	1
3501	3500	3502	1
12960	12959	12970	1
12958	12959	12970	1
12970	7468	7461	1
12970	7468	7470	1
12960	12961	12968	1
12962	12961	12968	1
12968	9467	9460	1
12968	9467	9469	1
12959	12970	12971	1
12959	12970	7468	1
12959	12960	12961	1
12959	12960	12964	1
12959	12958	12963	1
12959	12958	12966	1
12961	12968	12969	1
12961	12968	9467	1
12961	12960	12964	1
12961	12962	12963	1
12961	12962	12965	1
12958	12959	12960	1
12960	12961	12962	1
12958	12963	12962	1
12958	12963	12967	1
12962	12963	12967	1
12963	12958	12966	1
12963	12962	12965	1
12971	12970	7468	1
12969	12968	9467	1
9970	9969	9980	1
9968	9969	9980	1
9980	9988	9982	1
9980	9988	9989	1
9970	9971	9978	1
9972	9971	9978	1
9978	3945	3935	1
9978	3945	3947	1
9969	9980	9981	1
9969	9980	9988	1
9969	9970	9971	1
9969	9970	9974	1
9969	9968	9973	1
9969	9968	9976	1
9971	9978	9979	1
9971	9978	3945	1
9971	9970	9974	1
9971	9972	9973	1
9971	9972	9975	1
9968	9969	9970	1
9970	9971	9972	1
9968	9973	9972	1
9968	9973	9977	1
9972	9973	9977	1
9973	9968	9976	1
9973	9972	9975	1
9981	9980	9988	1
9979	9978	3945	1
11294	11293	11304	1
11292	11293	11304	1
11304	4089	4082	1
11304	4089	4091	1
11294	11295	11302	1
11296	11295	11302	1
11302	10226	10216	1
11302	10226	10228	1
11293	11304	11305	1
11293	11304	4089	1
11293	11294	11295	1
11293	11294	11298	1
11293	11292	11297	1
11293	11292	11300	1
11295	11302	11303	1
11295	11302	10226	1
11295	11294	11298	1
11295	11296	11297	1
11295	11296	11299	1
11292	11293	11294	1
11294	11295	11296	1
11292	11297	11296	1
11292	11297	11301	1
11296	11297	11301	1
11297	11292	11300	1
11297	11296	11299	1
11305	11304	4089	1
11303	11302	10226	1
3400	3401	3408	1
3402	3401	3408	1
3408	9496	9489	1
3408	9496	9498	1
3400	3399	3410	1
3398	3399	3410	1
3401	3408	3409	1
3401	3408	9496	1
3399	3400	3401	1
3401	3400	3404	1
3401	3402	3403	1
3401	3402	3405	1
3399	3410	3412	1
3399	3410	3411	1
3399	3400	3404	1
3399	3398	3403	1
3399	3398	3406	1
3400	3401	3402	1
3398	3399	3400	1
3398	3403	3402	1
3402	3403	3407	1
3398	3403	3407	1
3403	3402	3405	1
3403	3398	3406	1
3409	3408	9496	1
3412	3410	3411	1
9941	9940	9951	1
9939	9940	9951	1
9951	9959	9953	1
9951	9959	9960	1
9941	9942	9949	1
9943	9942	9949	1
9949	5295	5288	1
9949	5295	5297	1
9940	9951	9952	1
9940	9951	9959	1
9940	9941	9942	1
9940	9941	9945	1
9940	9939	9944	1
9940	9939	9947	1
9942	9949	9950	1
9942	9949	5295	1
9942	9941	9945	1
9942	9943	9944	1
9942	9943	9946	1
9939	9940	9941	1
9941	9942	9943	1
9939	9944	9943	1
9939	9944	9948	1
9943	9944	9948	1
9944	9939	9947	1
9944	9943	9946	1
9952	9951	9959	1
9950	9949	5295	1
4923	4922	4933	1
4921	4922	4933	1
4933	4941	4935	1
4933	4941	4942	1
4923	4924	4931	1
4925	4924	4931	1
4931	5977	5971	1
4931	5977	5978	1
4922	4933	4934	1
4922	4933	4941	1
4922	4923	4924	1
4922	4923	4927	1
4922	4921	4926	1
4922	4921	4929	1
4924	4931	4932	1
4924	4931	5977	1
4924	4923	4927	1
4924	4925	4926	1
4924	4925	4928	1
4921	4922	4923	1
4923	4924	4925	1
4921	4926	4925	1
4921	4926	4930	1
4925	4926	4930	1
4926	4921	4929	1
4926	4925	4928	1
4934	4933	4941	1
4932	4931	5977	1
2575	2574	2585	1
2573	2574	2585	1
2575	2576	2583	1
2577	2576	2583	1
2583	3823	3817	1
2583	3823	3824	1
2574	2585	2586	1
2574	2585	2587	1
2574	2575	2576	1
2574	2575	2579	1
2574	2573	2578	1
2574	2573	2581	1
2576	2583	2584	1
2576	2583	3823	1
2576	2575	2579	1
2576	2577	2578	1
2576	2577	2580	1
2573	2574	2575	1
2575	2576	2577	1
2573	2578	2577	1
2573	2578	2582	1
2577	2578	2582	1
2578	2573	2581	1
2578	2577	2580	1
2586	2585	2587	1
2584	2583	3823	1
3025	3026	3033	1
3027	3026	3033	1
3033	7425	7415	1
3033	7425	7427	1
3025	3024	3035	1
3023	3024	3035	1
3026	3033	3034	1
3026	3033	7425	1
3024	3025	3026	1
3026	3025	3029	1
3026	3027	3028	1
3026	3027	3030	1
3024	3035	3036	1
3024	3035	3037	1
3024	3025	3029	1
3024	3023	3028	1
3024	3023	3031	1
3025	3026	3027	1
3023	3024	3025	1
3023	3028	3027	1
3027	3028	3032	1
3023	3028	3032	1
3028	3027	3030	1
3028	3023	3031	1
3034	3033	7425	1
3036	3035	3037	1
6847	6846	6857	1
6845	6846	6857	1
6857	6667	6657	1
6857	6667	6669	1
6847	6848	6855	1
6849	6848	6855	1
6855	6865	6859	1
6855	6865	6866	1
6846	6857	6858	1
6846	6857	6667	1
6846	6847	6848	1
6846	6847	6851	1
6846	6845	6850	1
6846	6845	6853	1
6848	6855	6856	1
6848	6855	6865	1
6848	6847	6851	1
6848	6849	6850	1
6848	6849	6852	1
6845	6846	6847	1
6847	6848	6849	1
6845	6850	6849	1
6845	6850	6854	1
6849	6850	6854	1
6850	6845	6853	1
6850	6849	6852	1
6858	6857	6667	1
6856	6855	6865	1
11938	11937	11948	1
11936	11937	11948	1
11948	5179	5172	1
11948	5179	5181	1
11938	11939	11946	1
11940	11939	11946	1
11946	8725	8715	1
11946	8725	8727	1
11937	11948	11949	1
11937	11948	5179	1
11937	11938	11939	1
11937	11938	11942	1
11937	11936	11941	1
11937	11936	11944	1
11939	11946	11947	1
11939	11946	8725	1
11939	11938	11942	1
11939	11940	11941	1
11939	11940	11943	1
11936	11937	11938	1
11938	11939	11940	1
11936	11941	11940	1
11936	11941	11945	1
11940	11941	11945	1
11941	11936	11944	1
11941	11940	11943	1
11949	11948	5179	1
11947	11946	8725	1
11994	11993	12004	1
11992	11993	12004	1
12004	8021	8014	1
12004	8021	8023	1
11994	11995	12002	1
11996	11995	12002	1
12002	5398	5388	1
12002	5398	5400	1
11993	12004	12005	1
11993	12004	8021	1
11993	11994	11995	1
11993	11994	11998	1
11993	11992	11997	1
11993	11992	12000	1
11995	12002	12003	1
11995	12002	5398	1
11995	11994	11998	1
11995	11996	11997	1
11995	11996	11999	1
11992	11993	11994	1
11994	11995	11996	1
11992	11997	11996	1
11992	11997	12001	1
11996	11997	12001	1
11997	11992	12000	1
11997	11996	11999	1
12005	12004	8021	1
12003	12002	5398	1
581	580	591	1
579	580	591	1
591	10411	10405	1
591	10411	10412	1
581	582	589	1
583	582	589	1
562	568	589	1
569	568	589	1
580	591	592	1
580	591	10411	1
580	581	582	1
580	581	585	1
580	579	584	1
580	579	587	1
582	589	590	1
568	589	582	1
582	581	585	1
582	583	584	1
582	583	586	1
579	580	581	1
581	582	583	1
579	584	583	1
579	584	588	1
583	584	588	1
584	579	587	1
584	583	586	1
592	591	10411	1
568	589	590	1
13198	13197	13208	1
13196	13197	13208	1
13208	9630	9620	1
13208	9630	9632	1
13198	13199	13206	1
13200	13199	13206	1
13206	8152	8145	1
13206	8152	8154	1
13197	13208	13209	1
13197	13208	9630	1
13197	13198	13199	1
13197	13198	13202	1
13197	13196	13201	1
13197	13196	13204	1
13199	13206	13207	1
13199	13206	8152	1
13199	13198	13202	1
13199	13200	13201	1
13199	13200	13203	1
13196	13197	13198	1
13198	13199	13200	1
13196	13201	13200	1
13196	13201	13205	1
13200	13201	13205	1
13201	13196	13204	1
13201	13200	13203	1
13209	13208	9630	1
13207	13206	8152	1
12064	12063	12074	1
12062	12063	12074	1
12074	10519	10512	1
12074	10519	10521	1
12064	12065	12072	1
12066	12065	12072	1
12072	5499	5492	1
12072	5499	5501	1
12063	12074	12075	1
12063	12074	10519	1
12063	12064	12065	1
12063	12064	12068	1
12063	12062	12067	1
12063	12062	12070	1
12065	12072	12073	1
12065	12072	5499	1
12065	12064	12068	1
12065	12066	12067	1
12065	12066	12069	1
12062	12063	12064	1
12064	12065	12066	1
12062	12067	12066	1
12062	12067	12071	1
12066	12067	12071	1
12067	12062	12070	1
12067	12066	12069	1
12075	12074	10519	1
12073	12072	5499	1
6396	6395	6406	1
6394	6395	6406	1
1754	1761	6406	1
1763	1761	6406	1
6396	6397	6404	1
6398	6397	6404	1
6404	6414	6408	1
6404	6414	6415	1
6395	6406	6407	1
1761	6406	6395	1
6395	6396	6397	1
6395	6396	6400	1
6395	6394	6399	1
6395	6394	6402	1
6397	6404	6405	1
6397	6404	6414	1
6397	6396	6400	1
6397	6398	6399	1
6397	6398	6401	1
6394	6395	6396	1
6396	6397	6398	1
6394	6399	6398	1
6394	6399	6403	1
6398	6399	6403	1
6399	6394	6402	1
6399	6398	6401	1
1761	6406	6407	1
6405	6404	6414	1
3280	3279	3290	1
3278	3279	3290	1
3280	3281	3288	1
3282	3281	3288	1
3288	8982	8976	1
3288	8982	8983	1
3279	3290	3292	1
3279	3290	3291	1
3279	3280	3281	1
3279	3280	3284	1
3279	3278	3283	1
3279	3278	3286	1
3281	3288	3289	1
3281	3288	8982	1
3281	3280	3284	1
3281	3282	3283	1
3281	3282	3285	1
3278	3279	3280	1
3280	3281	3282	1
3278	3283	3282	1
3278	3283	3287	1
3282	3283	3287	1
3283	3278	3286	1
3283	3282	3285	1
3292	3290	3291	1
3289	3288	8982	1
3160	3159	3170	1
3158	3159	3170	1
3160	3161	3168	1
3162	3161	3168	1
3168	8519	8512	1
3168	8519	8521	1
3159	3170	3172	1
3159	3170	3171	1
3159	3160	3161	1
3159	3160	3164	1
3159	3158	3163	1
3159	3158	3166	1
3161	3168	3169	1
3161	3168	8519	1
3161	3160	3164	1
3161	3162	3163	1
3161	3162	3165	1
3158	3159	3160	1
3160	3161	3162	1
3158	3163	3162	1
3158	3163	3167	1
3162	3163	3167	1
3163	3158	3166	1
3163	3162	3165	1
3172	3170	3171	1
3169	3168	8519	1
11686	11685	11696	1
11684	11685	11696	1
11696	8286	8276	1
11696	8286	8288	1
11686	11687	11694	1
11688	11687	11694	1
11694	4728	4721	1
11694	4728	4730	1
11685	11696	11697	1
11685	11696	8286	1
11685	11686	11687	1
11685	11686	11690	1
11685	11684	11689	1
11685	11684	11692	1
11687	11694	11695	1
11687	11694	4728	1
11687	11686	11690	1
11687	11688	11689	1
11687	11688	11691	1
11684	11685	11686	1
11686	11687	11688	1
11684	11689	11688	1
11684	11689	11693	1
11688	11689	11693	1
11689	11684	11692	1
11689	11688	11691	1
11697	11696	8286	1
11695	11694	4728	1
12918	12919	12926	1
12920	12919	12926	1
12926	7351	7344	1
12926	7351	7353	1
12918	12917	12928	1
12916	12917	12928	1
12928	8665	8658	1
12928	8665	8667	1
12919	12926	12927	1
12919	12926	7351	1
12917	12918	12919	1
12919	12918	12922	1
12919	12920	12921	1
12919	12920	12923	1
12917	12928	12929	1
12917	12928	8665	1
12917	12918	12922	1
12917	12916	12921	1
12917	12916	12924	1
12918	12919	12920	1
12916	12917	12918	1
12916	12921	12920	1
12920	12921	12925	1
12916	12921	12925	1
12921	12920	12923	1
12921	12916	12924	1
12927	12926	7351	1
12929	12928	8665	1
12316	12315	12326	1
12314	12315	12326	1
12326	5835	5828	1
12326	5835	5837	1
12316	12317	12324	1
12318	12317	12324	1
12324	8608	8598	1
12324	8608	8610	1
12315	12326	12327	1
12315	12326	5835	1
12315	12316	12317	1
12315	12316	12320	1
12315	12314	12319	1
12315	12314	12322	1
12317	12324	12325	1
12317	12324	8608	1
12317	12316	12320	1
12317	12318	12319	1
12317	12318	12321	1
12314	12315	12316	1
12316	12317	12318	1
12314	12319	12318	1
12314	12319	12323	1
12318	12319	12323	1
12319	12314	12322	1
12319	12318	12321	1
12327	12326	5835	1
12325	12324	8608	1
12344	12343	12354	1
12342	12343	12354	1
12354	5864	5857	1
12354	5864	5866	1
12344	12345	12352	1
12346	12345	12352	1
12352	10270	10260	1
12352	10270	10272	1
12343	12354	12355	1
12343	12354	5864	1
12343	12344	12345	1
12343	12344	12348	1
12343	12342	12347	1
12343	12342	12350	1
12345	12352	12353	1
12345	12352	10270	1
12345	12344	12348	1
12345	12346	12347	1
12345	12346	12349	1
12342	12343	12344	1
12344	12345	12346	1
12342	12347	12346	1
12342	12347	12351	1
12346	12347	12351	1
12347	12342	12350	1
12347	12346	12349	1
12355	12354	5864	1
12353	12352	10270	1
3355	3356	3363	1
3357	3356	3363	1
3363	9133	9126	1
3363	9133	9135	1
3355	3354	3365	1
3353	3354	3365	1
3356	3363	3364	1
3356	3363	9133	1
3354	3355	3356	1
3356	3355	3359	1
3356	3357	3358	1
3356	3357	3360	1
3354	3365	3366	1
3354	3365	3367	1
3354	3355	3359	1
3354	3353	3358	1
3354	3353	3361	1
3355	3356	3357	1
3353	3354	3355	1
3353	3358	3357	1
3357	3358	3362	1
3353	3358	3362	1
3358	3357	3360	1
3358	3353	3361	1
3364	3363	9133	1
3366	3365	3367	1
9197	9196	9207	1
9195	9196	9207	1
9207	9215	9209	1
9207	9215	9216	1
9197	9198	9205	1
9199	9198	9205	1
9205	9857	9851	1
9205	9857	9858	1
9196	9207	9208	1
9196	9207	9215	1
9196	9197	9198	1
9196	9197	9201	1
9196	9195	9200	1
9196	9195	9203	1
9198	9205	9206	1
9198	9205	9857	1
9198	9197	9201	1
9198	9199	9200	1
9198	9199	9202	1
9195	9196	9197	1
9197	9198	9199	1
9195	9200	9199	1
9195	9200	9204	1
9199	9200	9204	1
9200	9195	9203	1
9200	9199	9202	1
9208	9207	9215	1
9206	9205	9857	1
9415	9414	9425	1
9413	9414	9425	1
9425	8344	8337	1
9425	8344	8346	1
9415	9416	9423	1
9417	9416	9423	1
9423	9433	9427	1
9423	9433	9434	1
9414	9425	9426	1
9414	9425	8344	1
9414	9415	9416	1
9414	9415	9419	1
9414	9413	9418	1
9414	9413	9421	1
9416	9423	9424	1
9416	9423	9433	1
9416	9415	9419	1
9416	9417	9418	1
9416	9417	9420	1
9413	9414	9415	1
9415	9416	9417	1
9413	9418	9417	1
9413	9418	9422	1
9417	9418	9422	1
9418	9413	9421	1
9418	9417	9420	1
9426	9425	8344	1
9424	9423	9433	1
12134	12133	12144	1
12132	12133	12144	1
12144	5558	5551	1
12144	5558	5560	1
12134	12135	12142	1
12136	12135	12142	1
12142	8241	8234	1
12142	8241	8243	1
12133	12144	12145	1
12133	12144	5558	1
12133	12134	12135	1
12133	12134	12138	1
12133	12132	12137	1
12133	12132	12140	1
12135	12142	12143	1
12135	12142	8241	1
12135	12134	12138	1
12135	12136	12137	1
12135	12136	12139	1
12132	12133	12134	1
12134	12135	12136	1
12132	12137	12136	1
12132	12137	12141	1
12136	12137	12141	1
12137	12132	12140	1
12137	12136	12139	1
12145	12144	5558	1
12143	12142	8241	1
4967	4966	4977	1
4965	4966	4977	1
4977	10416	10409	1
4977	10416	10418	1
4967	4968	4975	1
4969	4968	4975	1
4975	4985	4979	1
4975	4985	4986	1
4966	4977	4978	1
4966	4977	10416	1
4966	4967	4968	1
4966	4967	4971	1
4966	4965	4970	1
4966	4965	4973	1
4968	4975	4976	1
4968	4975	4985	1
4968	4967	4971	1
4968	4969	4970	1
4968	4969	4972	1
4965	4966	4967	1
4967	4968	4969	1
4965	4970	4969	1
4965	4970	4974	1
4969	4970	4974	1
4970	4965	4973	1
4970	4969	4972	1
4978	4977	10416	1
4976	4975	4985	1
1967	1966	1977	1
1965	1966	1977	1
1981	1979	1977	1
1980	1979	1977	1
1967	1968	1975	1
1969	1968	1975	1
1975	4467	4460	1
1975	4467	4469	1
1966	1977	1978	1
1979	1977	1966	1
1966	1967	1968	1
1966	1967	1971	1
1966	1965	1970	1
1966	1965	1973	1
1968	1975	1976	1
1968	1975	4467	1
1968	1967	1971	1
1968	1969	1970	1
1968	1969	1972	1
1965	1966	1967	1
1967	1968	1969	1
1965	1970	1969	1
1965	1970	1974	1
1969	1970	1974	1
1970	1965	1973	1
1970	1969	1972	1
1979	1977	1978	1
1976	1975	4467	1
7765	7764	7775	1
7763	7764	7775	1
7775	6870	6863	1
7775	6870	6872	1
7765	7766	7773	1
7767	7766	7773	1
7773	7783	7777	1
7773	7783	7784	1
7764	7775	7776	1
7764	7775	6870	1
7764	7765	7766	1
7764	7765	7769	1
7764	7763	7768	1
7764	7763	7771	1
7766	7773	7774	1
7766	7773	7783	1
7766	7765	7769	1
7766	7767	7768	1
7766	7767	7770	1
7763	7764	7765	1
7765	7766	7767	1
7763	7768	7767	1
7763	7768	7772	1
7767	7768	7772	1
7768	7763	7771	1
7768	7767	7770	1
7776	7775	6870	1
7774	7773	7783	1
6556	6555	6566	1
6554	6555	6566	1
6566	9726	9720	1
6566	9726	9727	1
6556	6557	6564	1
6558	6557	6564	1
6564	6574	6568	1
6564	6574	6575	1
6555	6566	6567	1
6555	6566	9726	1
6555	6556	6557	1
6555	6556	6560	1
6555	6554	6559	1
6555	6554	6562	1
6557	6564	6565	1
6557	6564	6574	1
6557	6556	6560	1
6557	6558	6559	1
6557	6558	6561	1
6554	6555	6556	1
6556	6557	6558	1
6554	6559	6558	1
6554	6559	6563	1
6558	6559	6563	1
6559	6554	6562	1
6559	6558	6561	1
6567	6566	9726	1
6565	6564	6574	1
5476	5475	5486	1
5474	5475	5486	1
5486	5494	5488	1
5486	5494	5495	1
5476	5477	5484	1
5478	5477	5484	1
5484	8636	8629	1
5484	8636	8638	1
5475	5486	5487	1
5475	5486	5494	1
5475	5476	5477	1
5475	5476	5480	1
5475	5474	5479	1
5475	5474	5482	1
5477	5484	5485	1
5477	5484	8636	1
5477	5476	5480	1
5477	5478	5479	1
5477	5478	5481	1
5474	5475	5476	1
5476	5477	5478	1
5474	5479	5478	1
5474	5479	5483	1
5478	5479	5483	1
5479	5474	5482	1
5479	5478	5481	1
5487	5486	5494	1
5485	5484	8636	1
8671	8670	8681	1
8669	8670	8681	1
8681	3944	3937	1
8681	3944	3946	1
8671	8672	8679	1
8673	8672	8679	1
8679	8689	8683	1
8679	8689	8690	1
8670	8681	8682	1
8670	8681	3944	1
8670	8671	8672	1
8670	8671	8675	1
8670	8669	8674	1
8670	8669	8677	1
8672	8679	8680	1
8672	8679	8689	1
8672	8671	8675	1
8672	8673	8674	1
8672	8673	8676	1
8669	8670	8671	1
8671	8672	8673	1
8669	8674	8673	1
8669	8674	8678	1
8673	8674	8678	1
8674	8669	8677	1
8674	8673	8676	1
8682	8681	3944	1
8680	8679	8689	1
11966	11965	11976	1
11964	11965	11976	1
11976	7250	7240	1
11976	7250	7252	1
11966	11967	11974	1
11968	11967	11974	1
11974	5310	5303	1
11974	5310	5312	1
11965	11976	11977	1
11965	11976	7250	1
11965	11966	11967	1
11965	11966	11970	1
11965	11964	11969	1
11965	11964	11972	1
11967	11974	11975	1
11967	11974	5310	1
11967	11966	11970	1
11967	11968	11969	1
11967	11968	11971	1
11964	11965	11966	1
11966	11967	11968	1
11964	11969	11968	1
11964	11969	11973	1
11968	11969	11973	1
11969	11964	11972	1
11969	11968	11971	1
11977	11976	7250	1
11975	11974	5310	1
13674	13673	13684	1
13672	13673	13684	1
2212	2214	13684	1
2215	2214	13684	1
13674	13675	13682	1
13676	13675	13682	1
13682	10578	10568	1
13682	10578	10580	1
13673	13684	13685	1
2214	13684	13673	1
13673	13674	13675	1
13673	13674	13678	1
13673	13672	13677	1
13673	13672	13680	1
13675	13682	13683	1
13675	13682	10578	1
13675	13674	13678	1
13675	13676	13677	1
13675	13676	13679	1
13672	13673	13674	1
13674	13675	13676	1
13672	13677	13676	1
13672	13677	13681	1
13676	13677	13681	1
13677	13672	13680	1
13677	13676	13679	1
2214	13684	13685	1
13683	13682	10578	1
11602	11601	11612	1
11600	11601	11612	1
11612	4613	4603	1
11612	4613	4615	1
11602	11603	11610	1
11604	11603	11610	1
340	342	11610	1
343	342	11610	1
11601	11612	11613	1
11601	11612	4613	1
11601	11602	11603	1
11601	11602	11606	1
11601	11600	11605	1
11601	11600	11608	1
11603	11610	11611	1
342	11610	11603	1
11603	11602	11606	1
11603	11604	11605	1
11603	11604	11607	1
11600	11601	11602	1
11602	11603	11604	1
11600	11605	11604	1
11600	11605	11609	1
11604	11605	11609	1
11605	11600	11608	1
11605	11604	11607	1
11613	11612	4613	1
342	11610	11611	1
11406	11405	11416	1
11404	11405	11416	1
11416	4758	4748	1
11416	4758	4760	1
11406	11407	11414	1
11408	11407	11414	1
11414	4234	4227	1
11414	4234	4236	1
11405	11416	11417	1
11405	11416	4758	1
11405	11406	11407	1
11405	11406	11410	1
11405	11404	11409	1
11405	11404	11412	1
11407	11414	11415	1
11407	11414	4234	1
11407	11406	11410	1
11407	11408	11409	1
11407	11408	11411	1
11404	11405	11406	1
11406	11407	11408	1
11404	11409	11408	1
11404	11409	11413	1
11408	11409	11413	1
11409	11404	11412	1
11409	11408	11411	1
11417	11416	4758	1
11415	11414	4234	1
13562	13561	13572	1
13560	13561	13572	1
13572	10505	10495	1
13572	10505	10507	1
13562	13563	13570	1
13564	13563	13570	1
13570	9819	9809	1
13570	9819	9821	1
13561	13572	13573	1
13561	13572	10505	1
13561	13562	13563	1
13561	13562	13566	1
13561	13560	13565	1
13561	13560	13568	1
13563	13570	13571	1
13563	13570	9819	1
13563	13562	13566	1
13563	13564	13565	1
13563	13564	13567	1
13560	13561	13562	1
13562	13563	13564	1
13560	13565	13564	1
13560	13565	13569	1
13564	13565	13569	1
13565	13560	13568	1
13565	13564	13567	1
13573	13572	10505	1
13571	13570	9819	1
10583	10582	10593	1
10581	10582	10593	1
10593	9497	9487	1
10593	9497	9499	1
10583	10584	10591	1
10585	10584	10591	1
10591	10601	10595	1
10591	10601	10602	1
10582	10593	10594	1
10582	10593	9497	1
10582	10583	10584	1
10582	10583	10587	1
10582	10581	10586	1
10582	10581	10589	1
10584	10591	10592	1
10584	10591	10601	1
10584	10583	10587	1
10584	10585	10586	1
10584	10585	10588	1
10581	10582	10583	1
10583	10584	10585	1
10581	10586	10585	1
10581	10586	10590	1
10585	10586	10590	1
10586	10581	10589	1
10586	10585	10588	1
10594	10593	9497	1
10592	10591	10601	1
4313	4312	4323	1
4311	4312	4323	1
4323	11076	11066	1
4323	11076	11078	1
4313	4314	4321	1
4315	4314	4321	1
4321	4331	4325	1
4321	4331	4332	1
4312	4323	4324	1
4312	4323	11076	1
4312	4313	4314	1
4312	4313	4317	1
4312	4311	4316	1
4312	4311	4319	1
4314	4321	4322	1
4314	4321	4331	1
4314	4313	4317	1
4314	4315	4316	1
4314	4315	4318	1
4311	4312	4313	1
4313	4314	4315	1
4311	4316	4315	1
4311	4316	4320	1
4315	4316	4320	1
4316	4311	4319	1
4316	4315	4318	1
4324	4323	11076	1
4322	4321	4331	1
2453	2452	2463	1
2451	2452	2463	1
2434	2440	2463	1
2441	2440	2463	1
2453	2454	2461	1
2455	2454	2461	1
2461	4555	4545	1
2461	4555	4557	1
2452	2463	2464	1
2440	2463	2452	1
2452	2453	2454	1
2452	2453	2457	1
2452	2451	2456	1
2452	2451	2459	1
2454	2461	2462	1
2454	2461	4555	1
2454	2453	2457	1
2454	2455	2456	1
2454	2455	2458	1
2451	2452	2453	1
2453	2454	2455	1
2451	2456	2455	1
2451	2456	2460	1
2455	2456	2460	1
2456	2451	2459	1
2456	2455	2458	1
2440	2463	2464	1
2462	2461	4555	1
12652	12651	12662	1
12650	12651	12662	1
12662	6477	6470	1
12662	6477	6479	1
12652	12653	12660	1
12654	12653	12660	1
12660	7454	7444	1
12660	7454	7456	1
12651	12662	12663	1
12651	12662	6477	1
12651	12652	12653	1
12651	12652	12656	1
12651	12650	12655	1
12651	12650	12658	1
12653	12660	12661	1
12653	12660	7454	1
12653	12652	12656	1
12653	12654	12655	1
12653	12654	12657	1
12650	12651	12652	1
12652	12653	12654	1
12650	12655	12654	1
12650	12655	12659	1
12654	12655	12659	1
12655	12650	12658	1
12655	12654	12657	1
12663	12662	6477	1
12661	12660	7454	1
839	838	849	1
837	838	849	1
853	851	849	1
852	851	849	1
839	840	847	1
841	840	847	1
847	6239	6233	1
847	6239	6240	1
838	849	850	1
851	849	838	1
838	839	840	1
838	839	843	1
838	837	842	1
838	837	845	1
840	847	848	1
840	847	6239	1
840	839	843	1
840	841	842	1
840	841	844	1
837	838	839	1
839	840	841	1
837	842	841	1
837	842	846	1
841	842	846	1
842	837	845	1
842	841	844	1
851	849	850	1
848	847	6239	1
5316	5315	5326	1
5314	5315	5326	1
5326	10023	10013	1
5326	10023	10025	1
5316	5317	5324	1
5318	5317	5324	1
5324	5334	5328	1
5324	5334	5335	1
5315	5326	5327	1
5315	5326	10023	1
5315	5316	5317	1
5315	5316	5320	1
5315	5314	5319	1
5315	5314	5322	1
5317	5324	5325	1
5317	5324	5334	1
5317	5316	5320	1
5317	5318	5319	1
5317	5318	5321	1
5314	5315	5316	1
5316	5317	5318	1
5314	5319	5318	1
5314	5319	5323	1
5318	5319	5323	1
5319	5314	5322	1
5319	5318	5321	1
5327	5326	10023	1
5325	5324	5334	1
5812	5813	5820	1
5814	5813	5820	1
5820	5830	5824	1
5820	5830	5831	1
5812	5811	5822	1
5810	5811	5822	1
5822	5889	5883	1
5822	5889	5890	1
5813	5820	5821	1
5813	5820	5830	1
5813	5812	5811	1
5813	5812	5816	1
5813	5814	5815	1
5813	5814	5817	1
5811	5822	5823	1
5811	5822	5889	1
5811	5812	5816	1
5811	5810	5815	1
5811	5810	5818	1
5814	5813	5812	1
5812	5811	5810	1
5814	5815	5810	1
5814	5815	5819	1
5810	5815	5819	1
5815	5814	5817	1
5815	5810	5818	1
5821	5820	5830	1
5823	5822	5889	1
11280	11279	11290	1
11278	11279	11290	1
11290	6681	6674	1
11290	6681	6683	1
11280	11281	11288	1
11282	11281	11288	1
11288	4061	4051	1
11288	4061	4063	1
11279	11290	11291	1
11279	11290	6681	1
11279	11280	11281	1
11279	11280	11284	1
11279	11278	11283	1
11279	11278	11286	1
11281	11288	11289	1
11281	11288	4061	1
11281	11280	11284	1
11281	11282	11283	1
11281	11282	11285	1
11278	11279	11280	1
11280	11281	11282	1
11278	11283	11282	1
11278	11283	11287	1
11282	11283	11287	1
11283	11278	11286	1
11283	11282	11285	1
11291	11290	6681	1
11289	11288	4061	1
3385	3384	3395	1
3383	3384	3395	1
3385	3386	3393	1
3387	3386	3393	1
3393	9409	9402	1
3393	9409	9411	1
3384	3395	3396	1
3384	3395	3397	1
3384	3385	3386	1
3384	3385	3389	1
3384	3383	3388	1
3384	3383	3391	1
3386	3393	3394	1
3386	3393	9409	1
3386	3385	3389	1
3386	3387	3388	1
3386	3387	3390	1
3383	3384	3385	1
3385	3386	3387	1
3383	3388	3387	1
3383	3388	3392	1
3387	3388	3392	1
3388	3383	3391	1
3388	3387	3390	1
3396	3395	3397	1
3394	3393	9409	1
2087	2086	2097	1
2085	2086	2097	1
2101	2099	2097	1
2100	2099	2097	1
2087	2088	2095	1
2089	2088	2095	1
2095	9220	9213	1
2095	9220	9222	1
2086	2097	2098	1
2099	2097	2086	1
2086	2087	2088	1
2086	2087	2091	1
2086	2085	2090	1
2086	2085	2093	1
2088	2095	2096	1
2088	2095	9220	1
2088	2087	2091	1
2088	2089	2090	1
2088	2089	2092	1
2085	2086	2087	1
2087	2088	2089	1
2085	2090	2089	1
2085	2090	2094	1
2089	2090	2094	1
2090	2085	2093	1
2090	2089	2092	1
2099	2097	2098	1
2096	2095	9220	1
3700	3699	3710	1
3698	3699	3710	1
3700	3701	3708	1
3702	3701	3708	1
3708	11120	11110	1
3708	11120	11122	1
3699	3710	3712	1
3699	3710	3711	1
3699	3700	3701	1
3699	3700	3704	1
3699	3698	3703	1
3699	3698	3706	1
3701	3708	3709	1
3701	3708	11120	1
3701	3700	3704	1
3701	3702	3703	1
3701	3702	3705	1
3698	3699	3700	1
3700	3701	3702	1
3698	3703	3702	1
3698	3703	3707	1
3702	3703	3707	1
3703	3698	3706	1
3703	3702	3705	1
3711	3710	3712	1
3709	3708	11120	1
8949	8948	8959	1
8947	8948	8959	1
8959	8967	8961	1
8959	8967	8968	1
8949	8950	8957	1
8951	8950	8957	1
8957	6501	6495	1
8957	6501	6502	1
8948	8959	8960	1
8948	8959	8967	1
8948	8949	8950	1
8948	8949	8953	1
8948	8947	8952	1
8948	8947	8955	1
8950	8957	8958	1
8950	8957	6501	1
8950	8949	8953	1
8950	8951	8952	1
8950	8951	8954	1
8947	8948	8949	1
8949	8950	8951	1
8947	8952	8951	1
8947	8952	8956	1
8951	8952	8956	1
8952	8947	8955	1
8952	8951	8954	1
8960	8959	8967	1
8958	8957	6501	1
1708	1707	1718	1
1706	1707	1718	1
1718	7987	7981	1
1718	7987	7988	1
1708	1709	1716	1
1710	1709	1716	1
1689	1695	1716	1
1696	1695	1716	1
1707	1718	1719	1
1707	1718	7987	1
1707	1708	1709	1
1707	1708	1712	1
1707	1706	1711	1
1707	1706	1714	1
1709	1716	1717	1
1695	1716	1709	1
1709	1708	1712	1
1709	1710	1711	1
1709	1710	1713	1
1706	1707	1708	1
1708	1709	1710	1
1706	1711	1710	1
1706	1711	1715	1
1710	1711	1715	1
1711	1706	1714	1
1711	1710	1713	1
1719	1718	7987	1
1695	1716	1717	1
8496	8497	8504	1
8498	8497	8504	1
8504	8514	8508	1
8504	8514	8515	1
8496	8495	8506	1
8494	8495	8506	1
8506	5369	5359	1
8506	5369	5371	1
8497	8504	8505	1
8497	8504	8514	1
8495	8496	8497	1
8497	8496	8500	1
8497	8498	8499	1
8497	8498	8501	1
8495	8506	8507	1
8495	8506	5369	1
8495	8496	8500	1
8495	8494	8499	1
8495	8494	8502	1
8496	8497	8498	1
8494	8495	8496	1
8494	8499	8498	1
8498	8499	8503	1
8494	8499	8503	1
8499	8498	8501	1
8499	8494	8502	1
8505	8504	8514	1
8507	8506	5369	1
12078	12077	12088	1
12076	12077	12088	1
12088	11016	11009	1
12088	11016	11018	1
12078	12079	12086	1
12080	12079	12086	1
12086	5528	5521	1
12086	5528	5530	1
12077	12088	12089	1
12077	12088	11016	1
12077	12078	12079	1
12077	12078	12082	1
12077	12076	12081	1
12077	12076	12084	1
12079	12086	12087	1
12079	12086	5528	1
12079	12078	12082	1
12079	12080	12081	1
12079	12080	12083	1
12076	12077	12078	1
12078	12079	12080	1
12076	12081	12080	1
12076	12081	12085	1
12080	12081	12085	1
12081	12076	12084	1
12081	12080	12083	1
12089	12088	11016	1
12087	12086	5528	1
11546	11545	11556	1
11544	11545	11556	1
11556	11104	11097	1
11556	11104	11106	1
11546	11547	11554	1
11548	11547	11554	1
11554	4525	4518	1
11554	4525	4527	1
11545	11556	11557	1
11545	11556	11104	1
11545	11546	11547	1
11545	11546	11550	1
11545	11544	11549	1
11545	11544	11552	1
11547	11554	11555	1
11547	11554	4525	1
11547	11546	11550	1
11547	11548	11549	1
11547	11548	11551	1
11544	11545	11546	1
11546	11547	11548	1
11544	11549	11548	1
11544	11549	11553	1
11548	11549	11553	1
11549	11544	11552	1
11549	11548	11551	1
11557	11556	11104	1
11555	11554	4525	1
13072	13071	13082	1
13070	13071	13082	1
13082	7817	7810	1
13082	7817	7819	1
13072	13073	13080	1
13074	13073	13080	1
13080	8826	8819	1
13080	8826	8828	1
13071	13082	13083	1
13071	13082	7817	1
13071	13072	13073	1
13071	13072	13076	1
13071	13070	13075	1
13071	13070	13078	1
13073	13080	13081	1
13073	13080	8826	1
13073	13072	13076	1
13073	13074	13075	1
13073	13074	13077	1
13070	13071	13072	1
13072	13073	13074	1
13070	13075	13074	1
13070	13075	13079	1
13074	13075	13079	1
13075	13070	13078	1
13075	13074	13077	1
13083	13082	7817	1
13081	13080	8826	1
2650	2649	2660	1
2648	2649	2660	1
2650	2651	2658	1
2652	2651	2658	1
2658	4346	4340	1
2658	4346	4347	1
2649	2660	2661	1
2649	2660	2662	1
2649	2650	2651	1
2649	2650	2654	1
2649	2648	2653	1
2649	2648	2656	1
2651	2658	2659	1
2651	2658	4346	1
2651	2650	2654	1
2651	2652	2653	1
2651	2652	2655	1
2648	2649	2650	1
2650	2651	2652	1
2648	2653	2652	1
2648	2653	2657	1
2652	2653	2657	1
2653	2648	2656	1
2653	2652	2655	1
2661	2660	2662	1
2659	2658	4346	1
6046	6045	6056	1
6044	6045	6056	1
6056	7541	7534	1
6056	7541	7543	1
6046	6047	6054	1
6048	6047	6054	1
6054	6069	6062	1
6054	6069	6071	1
6045	6056	6057	1
6045	6056	7541	1
6045	6046	6047	1
6045	6046	6050	1
6045	6044	6049	1
6045	6044	6052	1
6047	6054	6055	1
6047	6054	6069	1
6047	6046	6050	1
6047	6048	6049	1
6047	6048	6051	1
6044	6045	6046	1
6046	6047	6048	1
6044	6049	6048	1
6044	6049	6053	1
6048	6049	6053	1
6049	6044	6052	1
6049	6048	6051	1
6057	6056	7541	1
6055	6054	6069	1
13604	13603	13614	1
13602	13603	13614	1
13614	9935	9928	1
13614	9935	9937	1
13604	13605	13612	1
13606	13605	13612	1
13612	10299	10289	1
13612	10299	10301	1
13603	13614	13615	1
13603	13614	9935	1
13603	13604	13605	1
13603	13604	13608	1
13603	13602	13607	1
13603	13602	13610	1
13605	13612	13613	1
13605	13612	10299	1
13605	13604	13608	1
13605	13606	13607	1
13605	13606	13609	1
13602	13603	13604	1
13604	13605	13606	1
13602	13607	13606	1
13602	13607	13611	1
13606	13607	13611	1
13607	13602	13610	1
13607	13606	13609	1
13615	13614	9935	1
13613	13612	10299	1
3145	3144	3155	1
3143	3144	3155	1
3145	3146	3153	1
3147	3146	3153	1
3153	8388	8381	1
3153	8388	8390	1
3144	3155	3156	1
3144	3155	3157	1
3144	3145	3146	1
3144	3145	3149	1
3144	3143	3148	1
3144	3143	3151	1
3146	3153	3154	1
3146	3153	8388	1
3146	3145	3149	1
3146	3147	3148	1
3146	3147	3150	1
3143	3144	3145	1
3145	3146	3147	1
3143	3148	3147	1
3143	3148	3152	1
3147	3148	3152	1
3148	3143	3151	1
3148	3147	3150	1
3156	3155	3157	1
3154	3153	8388	1
3100	3101	3108	1
3102	3101	3108	1
3108	8065	8058	1
3108	8065	8067	1
3100	3099	3110	1
3098	3099	3110	1
3101	3108	3109	1
3101	3108	8065	1
3099	3100	3101	1
3101	3100	3104	1
3101	3102	3103	1
3101	3102	3105	1
3099	3110	3112	1
3099	3110	3111	1
3099	3100	3104	1
3099	3098	3103	1
3099	3098	3106	1
3100	3101	3102	1
3098	3099	3100	1
3098	3103	3102	1
3102	3103	3107	1
3098	3103	3107	1
3103	3102	3105	1
3103	3098	3106	1
3109	3108	8065	1
3112	3110	3111	1
13646	13645	13656	1
13644	13645	13656	1
13656	11002	10992	1
13656	11002	11004	1
13646	13647	13654	1
13648	13647	13654	1
13654	10461	10451	1
13654	10461	10463	1
13645	13656	13657	1
13645	13656	11002	1
13645	13646	13647	1
13645	13646	13650	1
13645	13644	13649	1
13645	13644	13652	1
13647	13654	13655	1
13647	13654	10461	1
13647	13646	13650	1
13647	13648	13649	1
13647	13648	13651	1
13644	13645	13646	1
13646	13647	13648	1
13644	13649	13648	1
13644	13649	13653	1
13648	13649	13653	1
13649	13644	13652	1
13649	13648	13651	1
13657	13656	11002	1
13655	13654	10461	1
3175	3176	3183	1
3177	3176	3183	1
3183	8535	8525	1
3183	8535	8537	1
3175	3174	3185	1
3173	3174	3185	1
3176	3183	3184	1
3176	3183	8535	1
3174	3175	3176	1
3176	3175	3179	1
3176	3177	3178	1
3176	3177	3180	1
3174	3185	3187	1
3174	3185	3186	1
3174	3175	3179	1
3174	3173	3178	1
3174	3173	3181	1
3175	3176	3177	1
3173	3174	3175	1
3173	3178	3177	1
3177	3178	3182	1
3173	3178	3182	1
3178	3177	3180	1
3178	3173	3181	1
3184	3183	8535	1
3187	3185	3186	1
10978	10977	10988	1
10976	10977	10988	1
10988	10996	10990	1
10988	10996	10997	1
10978	10979	10986	1
10980	10979	10986	1
1084	1091	10986	1
1093	1091	10986	1
10977	10988	10989	1
10977	10988	10996	1
10977	10978	10979	1
10977	10978	10982	1
10977	10976	10981	1
10977	10976	10984	1
10979	10986	10987	1
1091	10986	10979	1
10979	10978	10982	1
10979	10980	10981	1
10979	10980	10983	1
10976	10977	10978	1
10978	10979	10980	1
10976	10981	10980	1
10976	10981	10985	1
10980	10981	10985	1
10981	10976	10984	1
10981	10980	10983	1
10989	10988	10996	1
1091	10986	10987	1
12554	12553	12564	1
12552	12553	12564	1
12564	7176	7169	1
12564	7176	7178	1
12554	12555	12562	1
12556	12555	12562	1
12562	6273	6266	1
12562	6273	6275	1
12553	12564	12565	1
12553	12564	7176	1
12553	12554	12555	1
12553	12554	12558	1
12553	12552	12557	1
12553	12552	12560	1
12555	12562	12563	1
12555	12562	6273	1
12555	12554	12558	1
12555	12556	12557	1
12555	12556	12559	1
12552	12553	12554	1
12554	12555	12556	1
12552	12557	12556	1
12552	12557	12561	1
12556	12557	12561	1
12557	12552	12560	1
12557	12556	12559	1
12565	12564	7176	1
12563	12562	6273	1
12036	12035	12046	1
12034	12035	12046	1
12046	5471	5461	1
12046	5471	5473	1
12036	12037	12044	1
12038	12037	12044	1
12044	9862	9855	1
12044	9862	9864	1
12035	12046	12047	1
12035	12046	5471	1
12035	12036	12037	1
12035	12036	12040	1
12035	12034	12039	1
12035	12034	12042	1
12037	12044	12045	1
12037	12044	9862	1
12037	12036	12040	1
12037	12038	12039	1
12037	12038	12041	1
12034	12035	12036	1
12036	12037	12038	1
12034	12039	12038	1
12034	12039	12043	1
12038	12039	12043	1
12039	12034	12042	1
12039	12038	12041	1
12047	12046	5471	1
12045	12044	9862	1
3220	3219	3230	1
3218	3219	3230	1
3220	3221	3228	1
3222	3221	3228	1
3228	8856	8846	1
3228	8856	8858	1
3219	3230	3231	1
3219	3230	3232	1
3219	3220	3221	1
3219	3220	3224	1
3219	3218	3223	1
3219	3218	3226	1
3221	3228	3229	1
3221	3228	8856	1
3221	3220	3224	1
3221	3222	3223	1
3221	3222	3225	1
3218	3219	3220	1
3220	3221	3222	1
3218	3223	3222	1
3218	3223	3227	1
3222	3223	3227	1
3223	3218	3226	1
3223	3222	3225	1
3231	3230	3232	1
3229	3228	8856	1
12820	12819	12830	1
12818	12819	12830	1
12830	9337	9327	1
12830	9337	9339	1
12820	12821	12828	1
12822	12821	12828	1
12828	7032	7022	1
12828	7032	7034	1
12819	12830	12831	1
12819	12830	9337	1
12819	12820	12821	1
12819	12820	12824	1
12819	12818	12823	1
12819	12818	12826	1
12821	12828	12829	1
12821	12828	7032	1
12821	12820	12824	1
12821	12822	12823	1
12821	12822	12825	1
12818	12819	12820	1
12820	12821	12822	1
12818	12823	12822	1
12818	12823	12827	1
12822	12823	12827	1
12823	12818	12826	1
12823	12822	12825	1
12831	12830	9337	1
12829	12828	7032	1
8129	8128	8139	1
8127	8128	8139	1
8139	8147	8141	1
8139	8147	8148	1
8129	8130	8137	1
8131	8130	8137	1
8137	9506	9500	1
8137	9506	9507	1
8128	8139	8140	1
8128	8139	8147	1
8128	8129	8130	1
8128	8129	8133	1
8128	8127	8132	1
8128	8127	8135	1
8130	8137	8138	1
8130	8137	9506	1
8130	8129	8133	1
8130	8131	8132	1
8130	8131	8134	1
8127	8128	8129	1
8129	8130	8131	1
8127	8132	8131	1
8127	8132	8136	1
8131	8132	8136	1
8132	8127	8135	1
8132	8131	8134	1
8140	8139	8147	1
8138	8137	9506	1
11532	11533	11540	1
11534	11533	11540	1
11540	5895	5885	1
11540	5895	5897	1
11532	11531	11542	1
11530	11531	11542	1
11542	4526	4516	1
11542	4526	4528	1
11533	11540	11541	1
11533	11540	5895	1
11533	11532	11531	1
11533	11532	11536	1
11533	11534	11535	1
11533	11534	11537	1
11531	11542	11543	1
11531	11542	4526	1
11531	11532	11536	1
11531	11530	11535	1
11531	11530	11538	1
11534	11533	11532	1
11532	11531	11530	1
11534	11535	11530	1
11534	11535	11539	1
11530	11535	11539	1
11535	11534	11537	1
11535	11530	11538	1
11541	11540	5895	1
11543	11542	4526	1
12232	12231	12242	1
12230	12231	12242	1
12242	5734	5724	1
12242	5734	5736	1
12232	12233	12240	1
12234	12233	12240	1
12240	6128	6118	1
12240	6128	6130	1
12231	12242	12243	1
12231	12242	5734	1
12231	12232	12233	1
12231	12232	12236	1
12231	12230	12235	1
12231	12230	12238	1
12233	12240	12241	1
12233	12240	6128	1
12233	12232	12236	1
12233	12234	12235	1
12233	12234	12237	1
12230	12231	12232	1
12232	12233	12234	1
12230	12235	12234	1
12230	12235	12239	1
12234	12235	12239	1
12235	12230	12238	1
12235	12234	12237	1
12243	12242	5734	1
12241	12240	6128	1
13506	13505	13516	1
13504	13505	13516	1
13516	9031	9024	1
13516	9031	9033	1
13506	13507	13514	1
13508	13507	13514	1
13514	10607	10597	1
13514	10607	10609	1
13505	13516	13517	1
13505	13516	9031	1
13505	13506	13507	1
13505	13506	13510	1
13505	13504	13509	1
13505	13504	13512	1
13507	13514	13515	1
13507	13514	10607	1
13507	13506	13510	1
13507	13508	13509	1
13507	13508	13511	1
13504	13505	13506	1
13506	13507	13508	1
13504	13509	13508	1
13504	13509	13513	1
13508	13509	13513	1
13509	13504	13512	1
13509	13508	13511	1
13517	13516	9031	1
13515	13514	10607	1
2980	2981	2988	1
2982	2981	2988	1
2988	6997	6991	1
2988	6997	6998	1
2980	2979	2990	1
2978	2979	2990	1
2981	2988	2989	1
2981	2988	6997	1
2979	2980	2981	1
2981	2980	2984	1
2981	2982	2983	1
2981	2982	2985	1
2979	2990	2991	1
2979	2990	2992	1
2979	2980	2984	1
2979	2978	2983	1
2979	2978	2986	1
2980	2981	2982	1
2978	2979	2980	1
2978	2983	2982	1
2982	2983	2987	1
2978	2983	2987	1
2983	2982	2985	1
2983	2978	2986	1
2989	2988	6997	1
2991	2990	2992	1
8642	8641	8652	1
8640	8641	8652	1
8652	5704	5697	1
8652	5704	5706	1
8642	8643	8650	1
8644	8643	8650	1
8650	8660	8654	1
8650	8660	8661	1
8641	8652	8653	1
8641	8652	5704	1
8641	8642	8643	1
8641	8642	8646	1
8641	8640	8645	1
8641	8640	8648	1
8643	8650	8651	1
8643	8650	8660	1
8643	8642	8646	1
8643	8644	8645	1
8643	8644	8647	1
8640	8641	8642	1
8642	8643	8644	1
8640	8645	8644	1
8640	8645	8649	1
8644	8645	8649	1
8645	8640	8648	1
8645	8644	8647	1
8653	8652	5704	1
8651	8650	8660	1
5666	5665	5676	1
5664	5665	5676	1
5676	5684	5678	1
5676	5684	5685	1
5666	5667	5674	1
5668	5667	5674	1
5674	4671	4661	1
5674	4671	4673	1
5665	5676	5677	1
5665	5676	5684	1
5665	5666	5667	1
5665	5666	5670	1
5665	5664	5669	1
5665	5664	5672	1
5667	5674	5675	1
5667	5674	4671	1
5667	5666	5670	1
5667	5668	5669	1
5667	5668	5671	1
5664	5665	5666	1
5666	5667	5668	1
5664	5669	5668	1
5664	5669	5673	1
5668	5669	5673	1
5669	5664	5672	1
5669	5668	5671	1
5677	5676	5684	1
5675	5674	4671	1
1875	1874	1885	1
1873	1874	1885	1
1885	10708	10701	1
1885	10708	10710	1
1875	1876	1883	1
1877	1876	1883	1
1889	1887	1883	1
1888	1887	1883	1
1874	1885	1886	1
1874	1885	10708	1
1874	1875	1876	1
1874	1875	1879	1
1874	1873	1878	1
1874	1873	1881	1
1876	1883	1884	1
1887	1883	1876	1
1876	1875	1879	1
1876	1877	1878	1
1876	1877	1880	1
1873	1874	1875	1
1875	1876	1877	1
1873	1878	1877	1
1873	1878	1882	1
1877	1878	1882	1
1878	1873	1881	1
1878	1877	1880	1
1886	1885	10708	1
1887	1883	1884	1
5988	5987	5998	1
5986	5987	5998	1
5998	7186	7180	1
5998	7186	7187	1
5988	5989	5996	1
5990	5989	5996	1
5996	6006	6000	1
5996	6006	6007	1
5987	5998	5999	1
5987	5998	7186	1
5987	5988	5989	1
5987	5988	5992	1
5987	5986	5991	1
5987	5986	5994	1
5989	5996	5997	1
5989	5996	6006	1
5989	5988	5992	1
5989	5990	5991	1
5989	5990	5993	1
5986	5987	5988	1
5988	5989	5990	1
5986	5991	5990	1
5986	5991	5995	1
5990	5991	5995	1
5991	5986	5994	1
5991	5990	5993	1
5999	5998	7186	1
5997	5996	6006	1
13744	13743	13754	1
13742	13743	13754	1
627	634	13754	1
636	634	13754	1
13744	13745	13752	1
13746	13745	13752	1
1571	1578	13752	1
1580	1578	13752	1
13743	13754	13755	1
634	13754	13743	1
13743	13744	13745	1
13743	13744	13748	1
13743	13742	13747	1
13743	13742	13750	1
13745	13752	13753	1
1578	13752	13745	1
13745	13744	13748	1
13745	13746	13747	1
13745	13746	13749	1
13742	13743	13744	1
13744	13745	13746	1
13742	13747	13746	1
13742	13747	13751	1
13746	13747	13751	1
13747	13742	13750	1
13747	13746	13749	1
634	13754	13755	1
1578	13752	13753	1
2890	2891	2898	1
2892	2891	2898	1
2898	6506	6499	1
2898	6506	6508	1
2890	2889	2900	1
2888	2889	2900	1
2891	2898	2899	1
2891	2898	6506	1
2889	2890	2891	1
2891	2890	2894	1
2891	2892	2893	1
2891	2892	2895	1
2889	2900	2902	1
2889	2900	2901	1
2889	2890	2894	1
2889	2888	2893	1
2889	2888	2896	1
2890	2891	2892	1
2888	2889	2890	1
2888	2893	2892	1
2892	2893	2897	1
2888	2893	2897	1
2893	2892	2895	1
2893	2888	2896	1
2899	2898	6506	1
2902	2900	2901	1
9255	9254	9265	1
9253	9254	9265	1
9265	9273	9267	1
9265	9273	9274	1
9255	9256	9263	1
9257	9256	9263	1
9263	4636	4630	1
9263	4636	4637	1
9254	9265	9266	1
9254	9265	9273	1
9254	9255	9256	1
9254	9255	9259	1
9254	9253	9258	1
9254	9253	9261	1
9256	9263	9264	1
9256	9263	4636	1
9256	9255	9259	1
9256	9257	9258	1
9256	9257	9260	1
9253	9254	9255	1
9255	9256	9257	1
9253	9258	9257	1
9253	9258	9262	1
9257	9258	9262	1
9258	9253	9261	1
9258	9257	9260	1
9266	9265	9273	1
9264	9263	4636	1
5447	5448	5455	1
5449	5448	5455	1
5455	4918	4908	1
5455	4918	4920	1
5447	5446	5457	1
5445	5446	5457	1
5457	5465	5459	1
5457	5465	5466	1
5448	5455	5456	1
5448	5455	4918	1
5446	5447	5448	1
5448	5447	5451	1
5448	5449	5450	1
5448	5449	5452	1
5446	5457	5458	1
5446	5457	5465	1
5446	5447	5451	1
5446	5445	5450	1
5446	5445	5453	1
5447	5448	5449	1
5445	5446	5447	1
5445	5450	5449	1
5449	5450	5454	1
5445	5450	5454	1
5450	5449	5452	1
5450	5445	5453	1
5456	5455	4918	1
5458	5457	5465	1
13044	13043	13054	1
13042	13043	13054	1
13054	7672	7665	1
13054	7672	7674	1
13044	13045	13052	1
13046	13045	13052	1
13052	10767	10760	1
13052	10767	10769	1
13043	13054	13055	1
13043	13054	7672	1
13043	13044	13045	1
13043	13044	13048	1
13043	13042	13047	1
13043	13042	13050	1
13045	13052	13053	1
13045	13052	10767	1
13045	13044	13048	1
13045	13046	13047	1
13045	13046	13049	1
13042	13043	13044	1
13044	13045	13046	1
13042	13047	13046	1
13042	13047	13051	1
13046	13047	13051	1
13047	13042	13050	1
13047	13046	13049	1
13055	13054	7672	1
13053	13052	10767	1
12372	12371	12382	1
12370	12371	12382	1
12382	9336	9329	1
12382	9336	9338	1
12372	12373	12380	1
12374	12373	12380	1
12380	5939	5929	1
12380	5939	5941	1
12371	12382	12383	1
12371	12382	9336	1
12371	12372	12373	1
12371	12372	12376	1
12371	12370	12375	1
12371	12370	12378	1
12373	12380	12381	1
12373	12380	5939	1
12373	12372	12376	1
12373	12374	12375	1
12373	12374	12377	1
12370	12371	12372	1
12372	12373	12374	1
12370	12375	12374	1
12370	12375	12379	1
12374	12375	12379	1
12375	12370	12378	1
12375	12374	12377	1
12383	12382	9336	1
12381	12380	5939	1
10773	10772	10783	1
10771	10772	10783	1
10783	6938	6932	1
10783	6938	6939	1
10773	10774	10781	1
10775	10774	10781	1
10781	10791	10785	1
10781	10791	10792	1
10772	10783	10784	1
10772	10783	6938	1
10772	10773	10774	1
10772	10773	10777	1
10772	10771	10776	1
10772	10771	10779	1
10774	10781	10782	1
10774	10781	10791	1
10774	10773	10777	1
10774	10775	10776	1
10774	10775	10778	1
10771	10772	10773	1
10773	10774	10775	1
10771	10776	10775	1
10771	10776	10780	1
10775	10776	10780	1
10776	10771	10779	1
10776	10775	10778	1
10784	10783	6938	1
10782	10781	10791	1
2770	2769	2780	1
2768	2769	2780	1
2770	2771	2778	1
2772	2771	2778	1
2778	5368	5361	1
2778	5368	5370	1
2769	2780	2782	1
2769	2780	2781	1
2769	2770	2771	1
2769	2770	2774	1
2769	2768	2773	1
2769	2768	2776	1
2771	2778	2779	1
2771	2778	5368	1
2771	2770	2774	1
2771	2772	2773	1
2771	2772	2775	1
2768	2769	2770	1
2770	2771	2772	1
2768	2773	2772	1
2768	2773	2777	1
2772	2773	2777	1
2773	2768	2776	1
2773	2772	2775	1
2781	2780	2782	1
2779	2778	5368	1
13436	13435	13446	1
13434	13435	13446	1
13446	9789	9782	1
13446	9789	9791	1
13436	13437	13444	1
13438	13437	13444	1
13444	8798	8788	1
13444	8798	8800	1
13435	13446	13447	1
13435	13446	9789	1
13435	13436	13437	1
13435	13436	13440	1
13435	13434	13439	1
13435	13434	13442	1
13437	13444	13445	1
13437	13444	8798	1
13437	13436	13440	1
13437	13438	13439	1
13437	13438	13441	1
13434	13435	13436	1
13436	13437	13438	1
13434	13439	13438	1
13434	13439	13443	1
13438	13439	13443	1
13439	13434	13442	1
13439	13438	13441	1
13447	13446	9789	1
13445	13444	8798	1
9693	9694	9701	1
9695	9694	9701	1
9701	9761	9751	1
9701	9761	9763	1
9693	9692	9703	1
9691	9692	9703	1
9703	9711	9705	1
9703	9711	9712	1
9694	9701	9702	1
9694	9701	9761	1
9692	9693	9694	1
9694	9693	9697	1
9694	9695	9696	1
9694	9695	9698	1
9692	9703	9704	1
9692	9703	9711	1
9692	9693	9697	1
9692	9691	9696	1
9692	9691	9699	1
9693	9694	9695	1
9691	9692	9693	1
9691	9696	9695	1
9695	9696	9700	1
9691	9696	9700	1
9696	9695	9698	1
9696	9691	9699	1
9702	9701	9761	1
9704	9703	9711	1
11196	11195	11206	1
11194	11195	11206	1
11206	3858	3848	1
11206	3858	3860	1
11196	11197	11204	1
11198	11197	11204	1
11204	6551	6541	1
11204	6551	6553	1
11195	11206	11207	1
11195	11206	3858	1
11195	11196	11197	1
11195	11196	11200	1
11195	11194	11199	1
11195	11194	11202	1
11197	11204	11205	1
11197	11204	6551	1
11197	11196	11200	1
11197	11198	11199	1
11197	11198	11201	1
11194	11195	11196	1
11196	11197	11198	1
11194	11199	11198	1
11194	11199	11203	1
11198	11199	11203	1
11199	11194	11202	1
11199	11198	11201	1
11207	11206	3858	1
11205	11204	6551	1
11462	11463	11470	1
11464	11463	11470	1
11470	9847	9840	1
11470	9847	9849	1
11462	11461	11472	1
11460	11461	11472	1
11472	4337	4327	1
11472	4337	4339	1
11463	11470	11471	1
11463	11470	9847	1
11463	11462	11461	1
11463	11462	11466	1
11463	11464	11465	1
11463	11464	11467	1
11461	11472	11473	1
11461	11472	4337	1
11461	11462	11466	1
11461	11460	11465	1
11461	11460	11468	1
11464	11463	11462	1
11462	11461	11460	1
11464	11465	11460	1
11464	11465	11469	1
11460	11465	11469	1
11465	11464	11467	1
11465	11460	11468	1
11471	11470	9847	1
11473	11472	4337	1
2620	2619	2630	1
2618	2619	2630	1
2620	2621	2628	1
2622	2621	2628	1
2628	4235	4225	1
2628	4235	4237	1
2619	2630	2632	1
2619	2630	2631	1
2619	2620	2621	1
2619	2620	2624	1
2619	2618	2623	1
2619	2618	2626	1
2621	2628	2629	1
2621	2628	4235	1
2621	2620	2624	1
2621	2622	2623	1
2621	2622	2625	1
2618	2619	2620	1
2620	2621	2622	1
2618	2623	2622	1
2618	2623	2627	1
2622	2623	2627	1
2623	2618	2626	1
2623	2622	2625	1
2631	2630	2632	1
2629	2628	4235	1
3085	3084	3095	1
3083	3084	3095	1
3085	3086	3093	1
3087	3086	3093	1
3093	8050	8043	1
3093	8050	8052	1
3084	3095	3096	1
3084	3095	3097	1
3084	3085	3086	1
3084	3085	3089	1
3084	3083	3088	1
3084	3083	3091	1
3086	3093	3094	1
3086	3093	8050	1
3086	3085	3089	1
3086	3087	3088	1
3086	3087	3090	1
3083	3084	3085	1
3085	3086	3087	1
3083	3088	3087	1
3083	3088	3092	1
3087	3088	3092	1
3088	3083	3091	1
3088	3087	3090	1
3096	3095	3097	1
3094	3093	8050	1
13282	13281	13292	1
13280	13281	13292	1
13292	8242	8232	1
13292	8242	8244	1
13282	13283	13290	1
13284	13283	13290	1
13290	9104	9097	1
13290	9104	9106	1
13281	13292	13293	1
13281	13292	8242	1
13281	13282	13283	1
13281	13282	13286	1
13281	13280	13285	1
13281	13280	13288	1
13283	13290	13291	1
13283	13290	9104	1
13283	13282	13286	1
13283	13284	13285	1
13283	13284	13287	1
13280	13281	13282	1
13282	13283	13284	1
13280	13285	13284	1
13280	13285	13289	1
13284	13285	13289	1
13285	13280	13288	1
13285	13284	13287	1
13293	13292	8242	1
13291	13290	9104	1
5739	5738	5749	1
5737	5738	5749	1
5749	7220	7213	1
5749	7220	7222	1
5739	5740	5747	1
5741	5740	5747	1
5747	5757	5751	1
5747	5757	5758	1
5738	5749	5750	1
5738	5749	7220	1
5738	5739	5740	1
5738	5739	5743	1
5738	5737	5742	1
5738	5737	5745	1
5740	5747	5748	1
5740	5747	5757	1
5740	5739	5743	1
5740	5741	5742	1
5740	5741	5744	1
5737	5738	5739	1
5739	5740	5741	1
5737	5742	5741	1
5737	5742	5746	1
5741	5742	5746	1
5742	5737	5745	1
5742	5741	5744	1
5750	5749	7220	1
5748	5747	5757	1
9737	9736	9747	1
9735	9736	9747	1
9747	9755	9749	1
9747	9755	9756	1
9737	9738	9745	1
9739	9738	9745	1
9745	8417	8410	1
9745	8417	8419	1
9736	9747	9748	1
9736	9747	9755	1
9736	9737	9738	1
9736	9737	9741	1
9736	9735	9740	1
9736	9735	9743	1
9738	9745	9746	1
9738	9745	8417	1
9738	9737	9741	1
9738	9739	9740	1
9738	9739	9742	1
9735	9736	9737	1
9737	9738	9739	1
9735	9740	9739	1
9735	9740	9744	1
9739	9740	9744	1
9740	9735	9743	1
9740	9739	9742	1
9748	9747	9755	1
9746	9745	8417	1
10246	10245	10256	1
10244	10245	10256	1
10256	10264	10258	1
10256	10264	10265	1
10246	10247	10254	1
10248	10247	10254	1
10254	7992	7985	1
10254	7992	7994	1
10245	10256	10257	1
10245	10256	10264	1
10245	10246	10247	1
10245	10246	10250	1
10245	10244	10249	1
10245	10244	10252	1
10247	10254	10255	1
10247	10254	7992	1
10247	10246	10250	1
10247	10248	10249	1
10247	10248	10251	1
10244	10245	10246	1
10246	10247	10248	1
10244	10249	10248	1
10244	10249	10253	1
10248	10249	10253	1
10249	10244	10252	1
10249	10248	10251	1
10257	10256	10264	1
10255	10254	7992	1
12904	12903	12914	1
12902	12903	12914	1
12914	7352	7342	1
12914	7352	7354	1
12904	12905	12912	1
12906	12905	12912	1
12912	9964	9957	1
12912	9964	9966	1
12903	12914	12915	1
12903	12914	7352	1
12903	12904	12905	1
12903	12904	12908	1
12903	12902	12907	1
12903	12902	12910	1
12905	12912	12913	1
12905	12912	9964	1
12905	12904	12908	1
12905	12906	12907	1
12905	12906	12909	1
12902	12903	12904	1
12904	12905	12906	1
12902	12907	12906	1
12902	12907	12911	1
12906	12907	12911	1
12907	12902	12910	1
12907	12906	12909	1
12915	12914	7352	1
12913	12912	9964	1
2995	2996	3003	1
2997	2996	3003	1
3003	7278	7271	1
3003	7278	7280	1
2995	2994	3005	1
2993	2994	3005	1
2996	3003	3004	1
2996	3003	7278	1
2994	2995	2996	1
2996	2995	2999	1
2996	2997	2998	1
2996	2997	3000	1
2994	3005	3007	1
2994	3005	3006	1
2994	2995	2999	1
2994	2993	2998	1
2994	2993	3001	1
2995	2996	2997	1
2993	2994	2995	1
2993	2998	2997	1
2997	2998	3002	1
2993	2998	3002	1
2998	2997	3000	1
2998	2993	3001	1
3004	3003	7278	1
3007	3005	3006	1
10173	10174	10181	1
10175	10174	10181	1
10181	8855	8848	1
10181	8855	8857	1
10173	10172	10183	1
10171	10172	10183	1
10183	10191	10185	1
10183	10191	10192	1
10174	10181	10182	1
10174	10181	8855	1
10172	10173	10174	1
10174	10173	10177	1
10174	10175	10176	1
10174	10175	10178	1
10172	10183	10184	1
10172	10183	10191	1
10172	10173	10177	1
10172	10171	10176	1
10172	10171	10179	1
10173	10174	10175	1
10171	10172	10173	1
10171	10176	10175	1
10175	10176	10180	1
10171	10176	10180	1
10176	10175	10178	1
10176	10171	10179	1
10182	10181	8855	1
10184	10183	10191	1
2830	2829	2840	1
2828	2829	2840	1
2830	2831	2838	1
2832	2831	2838	1
2838	5699	5693	1
2838	5699	5700	1
2829	2840	2841	1
2829	2840	2842	1
2829	2830	2831	1
2829	2830	2834	1
2829	2828	2833	1
2829	2828	2836	1
2831	2838	2839	1
2831	2838	5699	1
2831	2830	2834	1
2831	2832	2833	1
2831	2832	2835	1
2828	2829	2830	1
2830	2831	2832	1
2828	2833	2832	1
2828	2833	2837	1
2832	2833	2837	1
2833	2828	2836	1
2833	2832	2835	1
2841	2840	2842	1
2839	2838	5699	1
4792	4791	4802	1
4790	4791	4802	1
4802	4825	4819	1
4802	4825	4826	1
4792	4793	4800	1
4794	4793	4800	1
4800	4810	4804	1
4800	4810	4811	1
4791	4802	4803	1
4791	4802	4825	1
4791	4792	4793	1
4791	4792	4796	1
4791	4790	4795	1
4791	4790	4798	1
4793	4800	4801	1
4793	4800	4810	1
4793	4792	4796	1
4793	4794	4795	1
4793	4794	4797	1
4790	4791	4792	1
4792	4793	4794	1
4790	4795	4794	1
4790	4795	4799	1
4794	4795	4799	1
4795	4790	4798	1
4795	4794	4797	1
4803	4802	4825	1
4801	4800	4810	1
6250	6249	6260	1
6248	6249	6260	1
6260	6448	6441	1
6260	6448	6450	1
6250	6251	6258	1
6252	6251	6258	1
6258	6268	6262	1
6258	6268	6269	1
6249	6260	6261	1
6249	6260	6448	1
6249	6250	6251	1
6249	6250	6254	1
6249	6248	6253	1
6249	6248	6256	1
6251	6258	6259	1
6251	6258	6268	1
6251	6250	6254	1
6251	6252	6253	1
6251	6252	6255	1
6248	6249	6250	1
6250	6251	6252	1
6248	6253	6252	1
6248	6253	6257	1
6252	6253	6257	1
6253	6248	6256	1
6253	6252	6255	1
6261	6260	6448	1
6259	6258	6268	1
12568	12567	12578	1
12566	12567	12578	1
1781	1787	12578	1
1788	1787	12578	1
12568	12569	12576	1
12570	12569	12576	1
12576	6288	6281	1
12576	6288	6290	1
12567	12578	12579	1
1787	12578	12567	1
12567	12568	12569	1
12567	12568	12572	1
12567	12566	12571	1
12567	12566	12574	1
12569	12576	12577	1
12569	12576	6288	1
12569	12568	12572	1
12569	12570	12571	1
12569	12570	12573	1
12566	12567	12568	1
12568	12569	12570	1
12566	12571	12570	1
12566	12571	12575	1
12570	12571	12575	1
12571	12566	12574	1
12571	12570	12573	1
1787	12578	12579	1
12577	12576	6288	1
5710	5709	5720	1
5708	5709	5720	1
5720	9818	9811	1
5720	9818	9820	1
5710	5711	5718	1
5712	5711	5718	1
5718	5728	5722	1
5718	5728	5729	1
5709	5720	5721	1
5709	5720	9818	1
5709	5710	5711	1
5709	5710	5714	1
5709	5708	5713	1
5709	5708	5716	1
5711	5718	5719	1
5711	5718	5728	1
5711	5710	5714	1
5711	5712	5713	1
5711	5712	5715	1
5708	5709	5710	1
5710	5711	5712	1
5708	5713	5712	1
5708	5713	5717	1
5712	5713	5717	1
5713	5708	5716	1
5713	5712	5715	1
5721	5720	9818	1
5719	5718	5728	1
8423	8422	8433	1
8421	8422	8433	1
8433	5426	5419	1
8433	5426	5428	1
8423	8424	8431	1
8425	8424	8431	1
8431	8441	8435	1
8431	8441	8442	1
8422	8433	8434	1
8422	8433	5426	1
8422	8423	8424	1
8422	8423	8427	1
8422	8421	8426	1
8422	8421	8429	1
8424	8431	8432	1
8424	8431	8441	1
8424	8423	8427	1
8424	8425	8426	1
8424	8425	8428	1
8421	8422	8423	1
8423	8424	8425	1
8421	8426	8425	1
8421	8426	8430	1
8425	8426	8430	1
8426	8421	8429	1
8426	8425	8428	1
8434	8433	5426	1
8432	8431	8441	1
1922	1921	1932	1
1920	1921	1932	1
1922	1923	1930	1
1924	1923	1930	1
1903	1909	1930	1
1910	1909	1930	1
1921	1932	1933	1
1921	1932	1934	1
1921	1922	1923	1
1921	1922	1926	1
1921	1920	1925	1
1921	1920	1928	1
1923	1930	1931	1
1909	1930	1923	1
1923	1922	1926	1
1923	1924	1925	1
1923	1924	1927	1
1920	1921	1922	1
1922	1923	1924	1
1920	1925	1924	1
1920	1925	1929	1
1924	1925	1929	1
1925	1920	1928	1
1925	1924	1927	1
1933	1932	1934	1
1909	1930	1931	1
7124	7123	7134	1
7122	7123	7134	1
7134	6390	6383	1
7134	6390	6392	1
7124	7125	7132	1
7126	7125	7132	1
7132	7147	7140	1
7132	7147	7149	1
7123	7134	7135	1
7123	7134	6390	1
7123	7124	7125	1
7123	7124	7128	1
7123	7122	7127	1
7123	7122	7130	1
7125	7132	7133	1
7125	7132	7147	1
7125	7124	7128	1
7125	7126	7127	1
7125	7126	7129	1
7122	7123	7124	1
7124	7125	7126	1
7122	7127	7126	1
7122	7127	7131	1
7126	7127	7131	1
7127	7122	7130	1
7127	7126	7129	1
7135	7134	6390	1
7133	7132	7147	1
5374	5373	5384	1
5372	5373	5384	1
5384	5392	5386	1
5384	5392	5393	1
5374	5375	5382	1
5376	5375	5382	1
5382	10635	10628	1
5382	10635	10637	1
5373	5384	5385	1
5373	5384	5392	1
5373	5374	5375	1
5373	5374	5378	1
5373	5372	5377	1
5373	5372	5380	1
5375	5382	5383	1
5375	5382	10635	1
5375	5374	5378	1
5375	5376	5377	1
5375	5376	5379	1
5372	5373	5374	1
5374	5375	5376	1
5372	5377	5376	1
5372	5377	5381	1
5376	5377	5381	1
5377	5372	5380	1
5377	5376	5379	1
5385	5384	5392	1
5383	5382	10635	1
12638	12637	12648	1
12636	12637	12648	1
12648	7118	7111	1
12648	7118	7120	1
12638	12639	12646	1
12640	12639	12646	1
12646	6478	6468	1
12646	6478	6480	1
12637	12648	12649	1
12637	12648	7118	1
12637	12638	12639	1
12637	12638	12642	1
12637	12636	12641	1
12637	12636	12644	1
12639	12646	12647	1
12639	12646	6478	1
12639	12638	12642	1
12639	12640	12641	1
12639	12640	12643	1
12636	12637	12638	1
12638	12639	12640	1
12636	12641	12640	1
12636	12641	12645	1
12640	12641	12645	1
12641	12636	12644	1
12641	12640	12643	1
12649	12648	7118	1
12647	12646	6478	1
7372	7371	7382	1
7370	7371	7382	1
7382	9366	9356	1
7382	9366	9368	1
7372	7373	7380	1
7374	7373	7380	1
7380	7390	7384	1
7380	7390	7391	1
7371	7382	7383	1
7371	7382	9366	1
7371	7372	7373	1
7371	7372	7376	1
7371	7370	7375	1
7371	7370	7378	1
7373	7380	7381	1
7373	7380	7390	1
7373	7372	7376	1
7373	7374	7375	1
7373	7374	7377	1
7370	7371	7372	1
7372	7373	7374	1
7370	7375	7374	1
7370	7375	7379	1
7374	7375	7379	1
7375	7370	7378	1
7375	7374	7377	1
7383	7382	9366	1
7381	7380	7390	1
10144	10143	10154	1
10142	10143	10154	1
1315	1317	10154	1
1318	1317	10154	1
10144	10145	10152	1
10146	10145	10152	1
10152	10162	10156	1
10152	10162	10163	1
10143	10154	10155	1
1317	10154	10143	1
10143	10144	10145	1
10143	10144	10148	1
10143	10142	10147	1
10143	10142	10150	1
10145	10152	10153	1
10145	10152	10162	1
10145	10144	10148	1
10145	10146	10147	1
10145	10146	10149	1
10142	10143	10144	1
10144	10145	10146	1
10142	10147	10146	1
10142	10147	10151	1
10146	10147	10151	1
10147	10142	10150	1
10147	10146	10149	1
1317	10154	10155	1
10153	10152	10162	1
11924	11923	11934	1
11922	11923	11934	1
11934	5180	5170	1
11934	5180	5182	1
11924	11925	11932	1
11926	11925	11932	1
2273	2275	11932	1
2276	2275	11932	1
11923	11934	11935	1
11923	11934	5180	1
11923	11924	11925	1
11923	11924	11928	1
11923	11922	11927	1
11923	11922	11930	1
11925	11932	11933	1
2275	11932	11925	1
11925	11924	11928	1
11925	11926	11927	1
11925	11926	11929	1
11922	11923	11924	1
11924	11925	11926	1
11922	11927	11926	1
11922	11927	11931	1
11926	11927	11931	1
11927	11922	11930	1
11927	11926	11929	1
11935	11934	5180	1
2275	11932	11933	1
8613	8612	8623	1
8611	8612	8623	1
8623	8631	8625	1
8623	8631	8632	1
8613	8614	8621	1
8615	8614	8621	1
8621	9308	9298	1
8621	9308	9310	1
8612	8623	8624	1
8612	8623	8631	1
8612	8613	8614	1
8612	8613	8617	1
8612	8611	8616	1
8612	8611	8619	1
8614	8621	8622	1
8614	8621	9308	1
8614	8613	8617	1
8614	8615	8616	1
8614	8615	8618	1
8611	8612	8613	1
8613	8614	8615	1
8611	8616	8615	1
8611	8616	8620	1
8615	8616	8620	1
8616	8611	8619	1
8616	8615	8618	1
8624	8623	8631	1
8622	8621	9308	1
6133	6132	6143	1
6131	6132	6143	1
6143	7361	7355	1
6143	7361	7362	1
6133	6134	6141	1
6135	6134	6141	1
6141	6151	6145	1
6141	6151	6152	1
6132	6143	6144	1
6132	6143	7361	1
6132	6133	6134	1
6132	6133	6137	1
6132	6131	6136	1
6132	6131	6139	1
6134	6141	6142	1
6134	6141	6151	1
6134	6133	6137	1
6134	6135	6136	1
6134	6135	6138	1
6131	6132	6133	1
6133	6134	6135	1
6131	6136	6135	1
6131	6136	6140	1
6135	6136	6140	1
6136	6131	6139	1
6136	6135	6138	1
6144	6143	7361	1
6142	6141	6151	1
11854	11855	11862	1
11856	11855	11862	1
11862	5064	5054	1
11862	5064	5066	1
11854	11853	11864	1
11852	11853	11864	1
11864	10520	10510	1
11864	10520	10522	1
11855	11862	11863	1
11855	11862	5064	1
11855	11854	11853	1
11855	11854	11858	1
11855	11856	11857	1
11855	11856	11859	1
11853	11864	11865	1
11853	11864	10520	1
11853	11854	11858	1
11853	11852	11857	1
11853	11852	11860	1
11856	11855	11854	1
11854	11853	11852	1
11856	11857	11852	1
11856	11857	11861	1
11852	11857	11861	1
11857	11856	11859	1
11857	11852	11860	1
11863	11862	5064	1
11865	11864	10520	1
6964	6963	6974	1
6962	6963	6974	1
6974	6982	6976	1
6974	6982	6983	1
6964	6965	6972	1
6966	6965	6972	1
6972	5019	5012	1
6972	5019	5021	1
6963	6974	6975	1
6963	6974	6982	1
6963	6964	6965	1
6963	6964	6968	1
6963	6962	6967	1
6963	6962	6970	1
6965	6972	6973	1
6965	6972	5019	1
6965	6964	6968	1
6965	6966	6967	1
6965	6966	6969	1
6962	6963	6964	1
6964	6965	6966	1
6962	6967	6966	1
6962	6967	6971	1
6966	6967	6971	1
6967	6962	6970	1
6967	6966	6969	1
6975	6974	6982	1
6973	6972	5019	1
4211	4210	4221	1
4209	4210	4221	1
4221	4229	4223	1
4221	4229	4230	1
4211	4212	4219	1
4213	4212	4219	1
4219	7308	7298	1
4219	7308	7310	1
4210	4221	4222	1
4210	4221	4229	1
4210	4211	4212	1
4210	4211	4215	1
4210	4209	4214	1
4210	4209	4217	1
4212	4219	4220	1
4212	4219	7308	1
4212	4211	4215	1
4212	4213	4214	1
4212	4213	4216	1
4209	4210	4211	1
4211	4212	4213	1
4209	4214	4213	1
4209	4214	4218	1
4213	4214	4218	1
4214	4209	4217	1
4214	4213	4216	1
4222	4221	4229	1
4220	4219	7308	1
8832	8831	8842	1
8830	8831	8842	1
8842	8850	8844	1
8842	8850	8851	1
8832	8833	8840	1
8834	8833	8840	1
8840	9594	9588	1
8840	9594	9595	1
8831	8842	8843	1
8831	8842	8850	1
8831	8832	8833	1
8831	8832	8836	1
8831	8830	8835	1
8831	8830	8838	1
8833	8840	8841	1
8833	8840	9594	1
8833	8832	8836	1
8833	8834	8835	1
8833	8834	8837	1
8830	8831	8832	1
8832	8833	8834	1
8830	8835	8834	1
8830	8835	8839	1
8834	8835	8839	1
8835	8830	8838	1
8835	8834	8837	1
8843	8842	8850	1
8841	8840	9594	1
6483	6482	6493	1
6481	6482	6493	1
6493	6507	6497	1
6493	6507	6509	1
6483	6484	6491	1
6485	6484	6491	1
6491	9716	9709	1
6491	9716	9718	1
6482	6493	6494	1
6482	6493	6507	1
6482	6483	6484	1
6482	6483	6487	1
6482	6481	6486	1
6482	6481	6489	1
6484	6491	6492	1
6484	6491	9716	1
6484	6483	6487	1
6484	6485	6486	1
6484	6485	6488	1
6481	6482	6483	1
6483	6484	6485	1
6481	6486	6485	1
6481	6486	6490	1
6485	6486	6490	1
6486	6481	6489	1
6486	6485	6488	1
6494	6493	6507	1
6492	6491	9716	1
10086	10085	10096	1
10084	10085	10096	1
10096	5470	5463	1
10096	5470	5472	1
10086	10087	10094	1
10088	10087	10094	1
10094	10109	10102	1
10094	10109	10111	1
10085	10096	10097	1
10085	10096	5470	1
10085	10086	10087	1
10085	10086	10090	1
10085	10084	10089	1
10085	10084	10092	1
10087	10094	10095	1
10087	10094	10109	1
10087	10086	10090	1
10087	10088	10089	1
10087	10088	10091	1
10084	10085	10086	1
10086	10087	10088	1
10084	10089	10088	1
10084	10089	10093	1
10088	10089	10093	1
10089	10084	10092	1
10089	10088	10091	1
10097	10096	5470	1
10095	10094	10109	1
12946	12947	12954	1
12948	12947	12954	1
1389	1396	12954	1
1398	1396	12954	1
12946	12945	12956	1
12944	12945	12956	1
12956	7395	7388	1
12956	7395	7397	1
12947	12954	12955	1
1396	12954	12947	1
12945	12946	12947	1
12947	12946	12950	1
12947	12948	12949	1
12947	12948	12951	1
12945	12956	12957	1
12945	12956	7395	1
12945	12946	12950	1
12945	12944	12949	1
12945	12944	12952	1
12946	12947	12948	1
12944	12945	12946	1
12944	12949	12948	1
12948	12949	12953	1
12944	12949	12953	1
12949	12948	12951	1
12949	12944	12952	1
1396	12954	12955	1
12957	12956	7395	1
8876	8875	8886	1
8874	8875	8886	1
8886	10235	10229	1
8886	10235	10236	1
8876	8877	8884	1
8878	8877	8884	1
8884	8894	8888	1
8884	8894	8895	1
8875	8886	8887	1
8875	8886	10235	1
8875	8876	8877	1
8875	8876	8880	1
8875	8874	8879	1
8875	8874	8882	1
8877	8884	8885	1
8877	8884	8894	1
8877	8876	8880	1
8877	8878	8879	1
8877	8878	8881	1
8874	8875	8876	1
8876	8877	8878	1
8874	8879	8878	1
8874	8879	8883	1
8878	8879	8883	1
8879	8874	8882	1
8879	8878	8881	1
8887	8886	10235	1
8885	8884	8894	1
9110	9111	9118	1
9112	9111	9118	1
9118	10167	10160	1
9118	10167	10169	1
9110	9109	9120	1
9108	9109	9120	1
9120	9128	9122	1
9120	9128	9129	1
9111	9118	9119	1
9111	9118	10167	1
9109	9110	9111	1
9111	9110	9114	1
9111	9112	9113	1
9111	9112	9115	1
9109	9120	9121	1
9109	9120	9128	1
9109	9110	9114	1
9109	9108	9113	1
9109	9108	9116	1
9110	9111	9112	1
9108	9109	9110	1
9108	9113	9112	1
9112	9113	9117	1
9108	9113	9117	1
9113	9112	9115	1
9113	9108	9116	1
9119	9118	10167	1
9121	9120	9128	1
13408	13407	13418	1
13406	13407	13418	1
13418	8769	8759	1
13418	8769	8771	1
13408	13409	13416	1
13410	13409	13416	1
1009	1011	13416	1
1012	1011	13416	1
13407	13418	13419	1
13407	13418	8769	1
13407	13408	13409	1
13407	13408	13412	1
13407	13406	13411	1
13407	13406	13414	1
13409	13416	13417	1
1011	13416	13409	1
13409	13408	13412	1
13409	13410	13411	1
13409	13410	13413	1
13406	13407	13408	1
13408	13409	13410	1
13406	13411	13410	1
13406	13411	13415	1
13410	13411	13415	1
13411	13406	13414	1
13411	13410	13413	1
13419	13418	8769	1
1011	13416	13417	1
3475	3476	3483	1
3477	3476	3483	1
3483	9731	9724	1
3483	9731	9733	1
3475	3474	3485	1
3473	3474	3485	1
3476	3483	3484	1
3476	3483	9731	1
3474	3475	3476	1
3476	3475	3479	1
3476	3477	3478	1
3476	3477	3480	1
3474	3485	3487	1
3474	3485	3486	1
3474	3475	3479	1
3474	3473	3478	1
3474	3473	3481	1
3475	3476	3477	1
3473	3474	3475	1
3473	3478	3477	1
3477	3478	3482	1
3473	3478	3482	1
3478	3477	3480	1
3478	3473	3481	1
3484	3483	9731	1
3486	3485	3487	1
12540	12539	12550	1
12538	12539	12550	1
12550	9046	9039	1
12550	9046	9048	1
12540	12541	12548	1
12542	12541	12548	1
12548	6274	6264	1
12548	6274	6276	1
12539	12550	12551	1
12539	12550	9046	1
12539	12540	12541	1
12539	12540	12544	1
12539	12538	12543	1
12539	12538	12546	1
12541	12548	12549	1
12541	12548	6274	1
12541	12540	12544	1
12541	12542	12543	1
12541	12542	12545	1
12538	12539	12540	1
12540	12541	12542	1
12538	12543	12542	1
12538	12543	12547	1
12542	12543	12547	1
12543	12538	12546	1
12543	12542	12545	1
12551	12550	9046	1
12549	12548	6274	1
13268	13267	13278	1
13266	13267	13278	1
13278	10269	10262	1
13278	10269	10271	1
13268	13269	13276	1
13270	13269	13276	1
13276	8226	8219	1
13276	8226	8228	1
13267	13278	13279	1
13267	13278	10269	1
13267	13268	13269	1
13267	13268	13272	1
13267	13266	13271	1
13267	13266	13274	1
13269	13276	13277	1
13269	13276	8226	1
13269	13268	13272	1
13269	13270	13271	1
13269	13270	13273	1
13266	13267	13268	1
13268	13269	13270	1
13266	13271	13270	1
13266	13271	13275	1
13270	13271	13275	1
13271	13266	13274	1
13271	13270	13273	1
13279	13278	10269	1
13277	13276	8226	1
7823	7822	7833	1
7821	7822	7833	1
7833	7841	7835	1
7833	7841	7842	1
7823	7824	7831	1
7825	7824	7831	1
7831	6332	6325	1
7831	6332	6334	1
7822	7833	7834	1
7822	7833	7841	1
7822	7823	7824	1
7822	7823	7827	1
7822	7821	7826	1
7822	7821	7829	1
7824	7831	7832	1
7824	7831	6332	1
7824	7823	7827	1
7824	7825	7826	1
7824	7825	7828	1
7821	7822	7823	1
7823	7824	7825	1
7821	7826	7825	1
7821	7826	7830	1
7825	7826	7830	1
7826	7821	7829	1
7826	7825	7828	1
7834	7833	7841	1
7832	7831	6332	1
12162	12161	12172	1
12160	12161	12172	1
12172	5865	5855	1
12172	5865	5867	1
12162	12163	12170	1
12164	12163	12170	1
12170	5603	5593	1
12170	5603	5605	1
12161	12172	12173	1
12161	12172	5865	1
12161	12162	12163	1
12161	12162	12166	1
12161	12160	12165	1
12161	12160	12168	1
12163	12170	12171	1
12163	12170	5603	1
12163	12162	12166	1
12163	12164	12165	1
12163	12164	12167	1
12160	12161	12162	1
12162	12163	12164	1
12160	12165	12164	1
12160	12165	12169	1
12164	12165	12169	1
12165	12160	12168	1
12165	12164	12167	1
12173	12172	5865	1
12171	12170	5603	1
11420	11419	11430	1
11418	11419	11430	1
11430	6959	6949	1
11430	6959	6961	1
11420	11421	11428	1
11422	11421	11428	1
11428	4249	4242	1
11428	4249	4251	1
11419	11430	11431	1
11419	11430	6959	1
11419	11420	11421	1
11419	11420	11424	1
11419	11418	11423	1
11419	11418	11426	1
11421	11428	11429	1
11421	11428	4249	1
11421	11420	11424	1
11421	11422	11423	1
11421	11422	11425	1
11418	11419	11420	1
11420	11421	11422	1
11418	11423	11422	1
11418	11423	11427	1
11422	11423	11427	1
11423	11418	11426	1
11423	11422	11425	1
11431	11430	6959	1
11429	11428	4249	1
13324	13323	13334	1
13322	13323	13334	1
13334	8345	8335	1
13334	8345	8347	1
13324	13325	13332	1
13326	13325	13332	1
492	494	13332	1
495	494	13332	1
13323	13334	13335	1
13323	13334	8345	1
13323	13324	13325	1
13323	13324	13328	1
13323	13322	13327	1
13323	13322	13330	1
13325	13332	13333	1
494	13332	13325	1
13325	13324	13328	1
13325	13326	13327	1
13325	13326	13329	1
13322	13323	13324	1
13324	13325	13326	1
13322	13327	13326	1
13322	13327	13331	1
13326	13327	13331	1
13327	13322	13330	1
13327	13326	13329	1
13335	13334	8345	1
494	13332	13333	1
4763	4762	4773	1
4761	4762	4773	1
2222	2228	4773	1
2229	2228	4773	1
4763	4764	4771	1
4765	4764	4771	1
4771	4781	4775	1
4771	4781	4782	1
4762	4773	4774	1
2228	4773	4762	1
4762	4763	4764	1
4762	4763	4767	1
4762	4761	4766	1
4762	4761	4769	1
4764	4771	4772	1
4764	4771	4781	1
4764	4763	4767	1
4764	4765	4766	1
4764	4765	4768	1
4761	4762	4763	1
4763	4764	4765	1
4761	4766	4765	1
4761	4766	4770	1
4765	4766	4770	1
4766	4761	4769	1
4766	4765	4768	1
2228	4773	4774	1
4772	4771	4781	1
181	180	191	1
179	180	191	1
168	170	191	1
171	170	191	1
181	182	189	1
183	182	189	1
189	6289	6279	1
189	6289	6291	1
180	191	192	1
170	191	180	1
180	181	182	1
180	181	185	1
180	179	184	1
180	179	187	1
182	189	190	1
182	189	6289	1
182	181	185	1
182	183	184	1
182	183	186	1
179	180	181	1
181	182	183	1
179	184	183	1
179	184	188	1
183	184	188	1
184	179	187	1
184	183	186	1
170	191	192	1
190	189	6289	1
5403	5402	5413	1
5401	5402	5413	1
5413	5421	5415	1
5413	5421	5422	1
5403	5404	5411	1
5405	5404	5411	1
5411	9688	9678	1
5411	9688	9690	1
5402	5413	5414	1
5402	5413	5421	1
5402	5403	5404	1
5402	5403	5407	1
5402	5401	5406	1
5402	5401	5409	1
5404	5411	5412	1
5404	5411	9688	1
5404	5403	5407	1
5404	5405	5406	1
5404	5405	5408	1
5401	5402	5403	1
5403	5404	5405	1
5401	5406	5405	1
5401	5406	5410	1
5405	5406	5410	1
5406	5401	5409	1
5406	5405	5408	1
5414	5413	5421	1
5412	5411	9688	1
6162	6161	6172	1
6160	6161	6172	1
6172	10972	10965	1
6172	10972	10974	1
6162	6163	6170	1
6164	6163	6170	1
6170	6180	6174	1
6170	6180	6181	1
6161	6172	6173	1
6161	6172	10972	1
6161	6162	6163	1
6161	6162	6166	1
6161	6160	6165	1
6161	6160	6168	1
6163	6170	6171	1
6163	6170	6180	1
6163	6162	6166	1
6163	6164	6165	1
6163	6164	6167	1
6160	6161	6162	1
6162	6163	6164	1
6160	6165	6164	1
6160	6165	6169	1
6164	6165	6169	1
6165	6160	6168	1
6165	6164	6167	1
6173	6172	10972	1
6171	6170	6180	1
2665	2664	2675	1
2663	2664	2675	1
2665	2666	2673	1
2667	2666	2673	1
2673	4497	4487	1
2673	4497	4499	1
2664	2675	2677	1
2664	2675	2676	1
2664	2665	2666	1
2664	2665	2669	1
2664	2663	2668	1
2664	2663	2671	1
2666	2673	2674	1
2666	2673	4497	1
2666	2665	2669	1
2666	2667	2668	1
2666	2667	2670	1
2663	2664	2665	1
2665	2666	2667	1
2663	2668	2667	1
2663	2668	2672	1
2667	2668	2672	1
2668	2663	2671	1
2668	2667	2670	1
2676	2675	2677	1
2674	2673	4497	1
12666	12665	12676	1
12664	12665	12676	1
12676	6550	6543	1
12676	6550	6552	1
12666	12667	12674	1
12668	12667	12674	1
12674	8124	8114	1
12674	8124	8126	1
12665	12676	12677	1
12665	12676	6550	1
12665	12666	12667	1
12665	12666	12670	1
12665	12664	12669	1
12665	12664	12672	1
12667	12674	12675	1
12667	12674	8124	1
12667	12666	12670	1
12667	12668	12669	1
12667	12668	12671	1
12664	12665	12666	1
12666	12667	12668	1
12664	12669	12668	1
12664	12669	12673	1
12668	12669	12673	1
12669	12664	12672	1
12669	12668	12671	1
12677	12676	6550	1
12675	12674	8124	1
3730	3729	3740	1
3728	3729	3740	1
3730	3731	3738	1
3732	3731	3738	1
2045	2047	3738	1
2048	2047	3738	1
3729	3740	3741	1
3729	3740	3742	1
3729	3730	3731	1
3729	3730	3734	1
3729	3728	3733	1
3729	3728	3736	1
3731	3738	3739	1
2047	3738	3731	1
3731	3730	3734	1
3731	3732	3733	1
3731	3732	3735	1
3728	3729	3730	1
3730	3731	3732	1
3728	3733	3732	1
3728	3733	3737	1
3732	3733	3737	1
3733	3728	3736	1
3733	3732	3735	1
3741	3740	3742	1
2047	3738	3739	1
13240	13239	13250	1
13238	13239	13250	1
13250	8211	8204	1
13250	8211	8213	1
13240	13241	13248	1
13242	13241	13248	1
1846	1853	13248	1
1855	1853	13248	1
13239	13250	13251	1
13239	13250	8211	1
13239	13240	13241	1
13239	13240	13244	1
13239	13238	13243	1
13239	13238	13246	1
13241	13248	13249	1
1853	13248	13241	1
13241	13240	13244	1
13241	13242	13243	1
13241	13242	13245	1
13238	13239	13240	1
13240	13241	13242	1
13238	13243	13242	1
13238	13243	13247	1
13242	13243	13247	1
13243	13238	13246	1
13243	13242	13245	1
13251	13250	8211	1
1853	13248	13249	1
2725	2726	2733	1
2727	2726	2733	1
2733	5063	5056	1
2733	5063	5065	1
2725	2724	2735	1
2723	2724	2735	1
2726	2733	2734	1
2726	2733	5063	1
2724	2725	2726	1
2726	2725	2729	1
2726	2727	2728	1
2726	2727	2730	1
2724	2735	2736	1
2724	2735	2737	1
2724	2725	2729	1
2724	2723	2728	1
2724	2723	2731	1
2725	2726	2727	1
2723	2724	2725	1
2723	2728	2727	1
2727	2728	2732	1
2723	2728	2732	1
2728	2727	2730	1
2728	2723	2731	1
2734	2733	5063	1
2736	2735	2737	1
9664	9663	9674	1
9662	9663	9674	1
9674	10196	10189	1
9674	10196	10198	1
9664	9665	9672	1
9666	9665	9672	1
9672	9682	9676	1
9672	9682	9683	1
9663	9674	9675	1
9663	9674	10196	1
9663	9664	9665	1
9663	9664	9668	1
9663	9662	9667	1
9663	9662	9670	1
9665	9672	9673	1
9665	9672	9682	1
9665	9664	9668	1
9665	9666	9667	1
9665	9666	9669	1
9662	9663	9664	1
9664	9665	9666	1
9662	9667	9666	1
9662	9667	9671	1
9666	9667	9671	1
9667	9662	9670	1
9667	9666	9669	1
9675	9674	10196	1
9673	9672	9682	1
12246	12247	12254	1
12248	12247	12254	1
12254	5762	5755	1
12254	5762	5764	1
12246	12245	12256	1
12244	12245	12256	1
12256	7221	7211	1
12256	7221	7223	1
12247	12254	12255	1
12247	12254	5762	1
12247	12246	12245	1
12247	12246	12250	1
12247	12248	12249	1
12247	12248	12251	1
12245	12256	12257	1
12245	12256	7221	1
12245	12246	12250	1
12245	12244	12249	1
12245	12244	12252	1
12248	12247	12246	1
12246	12245	12244	1
12248	12249	12244	1
12248	12249	12253	1
12244	12249	12253	1
12249	12248	12251	1
12249	12244	12252	1
12255	12254	5762	1
12257	12256	7221	1
13058	13057	13068	1
13056	13057	13068	1
13068	9244	9238	1
13068	9244	9245	1
13058	13059	13066	1
13060	13059	13066	1
13066	7759	7752	1
13066	7759	7761	1
13057	13068	13069	1
13057	13068	9244	1
13057	13058	13059	1
13057	13058	13062	1
13057	13056	13061	1
13057	13056	13064	1
13059	13066	13067	1
13059	13066	7759	1
13059	13058	13062	1
13059	13060	13061	1
13059	13060	13063	1
13056	13057	13058	1
13058	13059	13060	1
13056	13061	13060	1
13056	13061	13065	1
13060	13061	13065	1
13061	13056	13064	1
13061	13060	13063	1
13069	13068	9244	1
13067	13066	7759	1
6425	6424	6435	1
6423	6424	6435	1
6435	4439	4429	1
6435	4439	4441	1
6425	6426	6433	1
6427	6426	6433	1
6433	6443	6437	1
6433	6443	6444	1
6424	6435	6436	1
6424	6435	4439	1
6424	6425	6426	1
6424	6425	6429	1
6424	6423	6428	1
6424	6423	6431	1
6426	6433	6434	1
6426	6433	6443	1
6426	6425	6429	1
6426	6427	6428	1
6426	6427	6430	1
6423	6424	6425	1
6425	6426	6427	1
6423	6428	6427	1
6423	6428	6432	1
6427	6428	6432	1
6428	6423	6431	1
6428	6427	6430	1
6436	6435	4439	1
6434	6433	6443	1
6760	6759	6770	1
6758	6759	6770	1
6770	10241	10231	1
6770	10241	10243	1
6760	6761	6768	1
6762	6761	6768	1
6768	6778	6772	1
6768	6778	6779	1
6759	6770	6771	1
6759	6770	10241	1
6759	6760	6761	1
6759	6760	6764	1
6759	6758	6763	1
6759	6758	6766	1
6761	6768	6769	1
6761	6768	6778	1
6761	6760	6764	1
6761	6762	6763	1
6761	6762	6765	1
6758	6759	6760	1
6760	6761	6762	1
6758	6763	6762	1
6758	6763	6767	1
6762	6763	6767	1
6763	6758	6766	1
6763	6762	6765	1
6771	6770	10241	1
6769	6768	6778	1
2785	2786	2793	1
2787	2786	2793	1
2793	5436	5430	1
2793	5436	5437	1
2785	2784	2795	1
2783	2784	2795	1
2786	2793	2794	1
2786	2793	5436	1
2784	2785	2786	1
2786	2785	2789	1
2786	2787	2788	1
2786	2787	2790	1
2784	2795	2797	1
2784	2795	2796	1
2784	2785	2789	1
2784	2783	2788	1
2784	2783	2791	1
2785	2786	2787	1
2783	2784	2785	1
2783	2788	2787	1
2787	2788	2792	1
2783	2788	2792	1
2788	2787	2790	1
2788	2783	2791	1
2794	2793	5436	1
2796	2795	2797	1
1600	1599	1610	1
1598	1599	1610	1
1610	6361	6354	1
1610	6361	6363	1
1600	1601	1608	1
1602	1601	1608	1
1614	1612	1608	1
1613	1612	1608	1
1599	1610	1611	1
1599	1610	6361	1
1599	1600	1601	1
1599	1600	1604	1
1599	1598	1603	1
1599	1598	1606	1
1601	1608	1609	1
1612	1608	1601	1
1601	1600	1604	1
1601	1602	1603	1
1601	1602	1605	1
1598	1599	1600	1
1600	1601	1602	1
1598	1603	1602	1
1598	1603	1607	1
1602	1603	1607	1
1603	1598	1606	1
1603	1602	1605	1
1611	1610	6361	1
1612	1608	1609	1
7284	7283	7294	1
7282	7283	7294	1
7294	7302	7296	1
7294	7302	7303	1
7284	7285	7292	1
7286	7285	7292	1
7292	8694	8687	1
7292	8694	8696	1
7283	7294	7295	1
7283	7294	7302	1
7283	7284	7285	1
7283	7284	7288	1
7283	7282	7287	1
7283	7282	7290	1
7285	7292	7293	1
7285	7292	8694	1
7285	7284	7288	1
7285	7286	7287	1
7285	7286	7289	1
7282	7283	7284	1
7284	7285	7286	1
7282	7287	7286	1
7282	7287	7291	1
7286	7287	7291	1
7287	7282	7290	1
7287	7286	7289	1
7295	7294	7302	1
7293	7292	8694	1
12470	12469	12480	1
12468	12469	12480	1
12480	10489	10482	1
12480	10489	10491	1
12470	12471	12478	1
12472	12471	12478	1
12478	6157	6147	1
12478	6157	6159	1
12469	12480	12481	1
12469	12480	10489	1
12469	12470	12471	1
12469	12470	12474	1
12469	12468	12473	1
12469	12468	12476	1
12471	12478	12479	1
12471	12478	6157	1
12471	12470	12474	1
12471	12472	12473	1
12471	12472	12475	1
12468	12469	12470	1
12470	12471	12472	1
12468	12473	12472	1
12468	12473	12477	1
12472	12473	12477	1
12473	12468	12476	1
12473	12472	12475	1
12481	12480	10489	1
12479	12478	6157	1
1130	1131	1138	1
1132	1131	1138	1
1111	1117	1138	1
1118	1117	1138	1
1130	1129	1140	1
1128	1129	1140	1
1140	6710	6703	1
1140	6710	6712	1
1131	1138	1139	1
1117	1138	1131	1
1129	1130	1131	1
1131	1130	1134	1
1131	1132	1133	1
1131	1132	1135	1
1129	1140	1141	1
1129	1140	6710	1
1129	1130	1134	1
1129	1128	1133	1
1129	1128	1136	1
1130	1131	1132	1
1128	1129	1130	1
1128	1133	1132	1
1132	1133	1137	1
1128	1133	1137	1
1133	1132	1135	1
1133	1128	1136	1
1117	1138	1139	1
1141	1140	6710	1
11266	11265	11276	1
11264	11265	11276	1
11276	4032	4022	1
11276	4032	4034	1
11266	11267	11274	1
11268	11267	11274	1
11274	6783	6776	1
11274	6783	6785	1
11265	11276	11277	1
11265	11276	4032	1
11265	11266	11267	1
11265	11266	11270	1
11265	11264	11269	1
11265	11264	11272	1
11267	11274	11275	1
11267	11274	6783	1
11267	11266	11270	1
11267	11268	11269	1
11267	11268	11271	1
11264	11265	11266	1
11266	11267	11268	1
11264	11269	11268	1
11264	11269	11273	1
11268	11269	11273	1
11269	11264	11272	1
11269	11268	11271	1
11277	11276	4032	1
11275	11274	6783	1
1021	1020	1031	1
1019	1020	1031	1
1035	1033	1031	1
1034	1033	1031	1
1021	1022	1029	1
1023	1022	1029	1
1144	1142	1029	1
1143	1142	1029	1
1020	1031	1032	1
1033	1031	1020	1
1020	1021	1022	1
1020	1021	1025	1
1020	1019	1024	1
1020	1019	1027	1
1022	1029	1030	1
1142	1029	1022	1
1022	1021	1025	1
1022	1023	1024	1
1022	1023	1026	1
1019	1020	1021	1
1021	1022	1023	1
1019	1024	1023	1
1019	1024	1028	1
1023	1024	1028	1
1024	1019	1027	1
1024	1023	1026	1
1033	1031	1032	1
1142	1029	1030	1
13156	13155	13166	1
13154	13155	13166	1
13166	8520	8510	1
13166	8520	8522	1
13156	13157	13164	1
13158	13157	13164	1
13164	8094	8087	1
13164	8094	8096	1
13155	13166	13167	1
13155	13166	8520	1
13155	13156	13157	1
13155	13156	13160	1
13155	13154	13159	1
13155	13154	13162	1
13157	13164	13165	1
13157	13164	8094	1
13157	13156	13160	1
13157	13158	13159	1
13157	13158	13161	1
13154	13155	13156	1
13156	13157	13158	1
13154	13159	13158	1
13154	13159	13163	1
13158	13159	13163	1
13159	13154	13162	1
13159	13158	13161	1
13167	13166	8520	1
13165	13164	8094	1
8247	8248	8255	1
8249	8248	8255	1
8255	8265	8259	1
8255	8265	8266	1
8247	8246	8257	1
8245	8246	8257	1
8257	11041	11035	1
8257	11041	11042	1
8248	8255	8256	1
8248	8255	8265	1
8248	8247	8246	1
8248	8247	8251	1
8248	8249	8250	1
8248	8249	8252	1
8246	8257	8258	1
8246	8257	11041	1
8246	8247	8251	1
8246	8245	8250	1
8246	8245	8253	1
8249	8248	8247	1
8247	8246	8245	1
8249	8250	8245	1
8249	8250	8254	1
8245	8250	8254	1
8250	8249	8252	1
8250	8245	8253	1
8256	8255	8265	1
8258	8257	11041	1
9313	9312	9323	1
9311	9312	9323	1
9323	9331	9325	1
9323	9331	9332	1
9313	9314	9321	1
9315	9314	9321	1
9321	9134	9124	1
9321	9134	9136	1
9312	9323	9324	1
9312	9323	9331	1
9312	9313	9314	1
9312	9313	9317	1
9312	9311	9316	1
9312	9311	9319	1
9314	9321	9322	1
9314	9321	9134	1
9314	9313	9317	1
9314	9315	9316	1
9314	9315	9318	1
9311	9312	9313	1
9313	9314	9315	1
9311	9316	9315	1
9311	9316	9320	1
9315	9316	9320	1
9316	9311	9319	1
9316	9315	9318	1
9324	9323	9331	1
9322	9321	9134	1
5841	5840	5851	1
5839	5840	5851	1
5851	8227	8217	1
5851	8227	8229	1
5841	5842	5849	1
5843	5842	5849	1
5849	5859	5853	1
5849	5859	5860	1
5840	5851	5852	1
5840	5851	8227	1
5840	5841	5842	1
5840	5841	5845	1
5840	5839	5844	1
5840	5839	5847	1
5842	5849	5850	1
5842	5849	5859	1
5842	5841	5845	1
5842	5843	5844	1
5842	5843	5846	1
5839	5840	5841	1
5841	5842	5843	1
5839	5844	5843	1
5839	5844	5848	1
5843	5844	5848	1
5844	5839	5847	1
5844	5843	5846	1
5852	5851	8227	1
5850	5849	5859	1
2845	2844	2855	1
2843	2844	2855	1
2845	2846	2853	1
2847	2846	2853	1
2853	5733	5726	1
2853	5733	5735	1
2844	2855	2856	1
2844	2855	2857	1
2844	2845	2846	1
2844	2845	2849	1
2844	2843	2848	1
2844	2843	2851	1
2846	2853	2854	1
2846	2853	5733	1
2846	2845	2849	1
2846	2847	2848	1
2846	2847	2850	1
2843	2844	2845	1
2845	2846	2847	1
2843	2848	2847	1
2843	2848	2852	1
2847	2848	2852	1
2848	2843	2851	1
2848	2847	2850	1
2856	2855	2857	1
2854	2853	5733	1
4836	4835	4846	1
4834	4835	4846	1
4846	4854	4848	1
4846	4854	4855	1
4836	4837	4844	1
4838	4837	4844	1
4844	10298	10291	1
4844	10298	10300	1
4835	4846	4847	1
4835	4846	4854	1
4835	4836	4837	1
4835	4836	4840	1
4835	4834	4839	1
4835	4834	4842	1
4837	4844	4845	1
4837	4844	10298	1
4837	4836	4840	1
4837	4838	4839	1
4837	4838	4841	1
4834	4835	4836	1
4836	4837	4838	1
4834	4839	4838	1
4834	4839	4843	1
4838	4839	4843	1
4839	4834	4842	1
4839	4838	4841	1
4847	4846	4854	1
4845	4844	10298	1
7008	7009	7016	1
7010	7009	7016	1
7016	6420	6410	1
7016	6420	6422	1
7008	7007	7018	1
7006	7007	7018	1
7018	7026	7020	1
7018	7026	7027	1
7009	7016	7017	1
7009	7016	6420	1
7009	7008	7007	1
7009	7008	7012	1
7009	7010	7011	1
7009	7010	7013	1
7007	7018	7019	1
7007	7018	7026	1
7007	7008	7012	1
7007	7006	7011	1
7007	7006	7014	1
7010	7009	7008	1
7008	7007	7006	1
7010	7011	7006	1
7010	7011	7015	1
7006	7011	7015	1
7011	7010	7013	1
7011	7006	7014	1
7017	7016	6420	1
7019	7018	7026	1
12484	12483	12494	1
12482	12483	12494	1
12494	6185	6178	1
12494	6185	6187	1
12484	12485	12492	1
12486	12485	12492	1
12492	9760	9753	1
12492	9760	9762	1
12483	12494	12495	1
12483	12494	6185	1
12483	12484	12485	1
12483	12484	12488	1
12483	12482	12487	1
12483	12482	12490	1
12485	12492	12493	1
12485	12492	9760	1
12485	12484	12488	1
12485	12486	12487	1
12485	12486	12489	1
12482	12483	12484	1
12484	12485	12486	1
12482	12487	12486	1
12482	12487	12491	1
12486	12487	12491	1
12487	12482	12490	1
12487	12486	12489	1
12495	12494	6185	1
12493	12492	9760	1
9168	9167	9178	1
9166	9167	9178	1
9178	9186	9180	1
9178	9186	9187	1
9168	9169	9176	1
9170	9169	9176	1
9176	10549	10539	1
9176	10549	10551	1
9167	9178	9179	1
9167	9178	9186	1
9167	9168	9169	1
9167	9168	9172	1
9167	9166	9171	1
9167	9166	9174	1
9169	9176	9177	1
9169	9176	10549	1
9169	9168	9172	1
9169	9170	9171	1
9169	9170	9173	1
9166	9167	9168	1
9168	9169	9170	1
9166	9171	9170	1
9166	9171	9175	1
9170	9171	9175	1
9171	9166	9174	1
9171	9170	9173	1
9179	9178	9186	1
9177	9176	10549	1
7649	7648	7659	1
7647	7648	7659	1
7659	7667	7661	1
7659	7667	7668	1
7649	7650	7657	1
7651	7650	7657	1
7657	10514	10508	1
7657	10514	10515	1
7648	7659	7660	1
7648	7659	7667	1
7648	7649	7650	1
7648	7649	7653	1
7648	7647	7652	1
7648	7647	7655	1
7650	7657	7658	1
7650	7657	10514	1
7650	7649	7653	1
7650	7651	7652	1
7650	7651	7654	1
7647	7648	7649	1
7649	7650	7651	1
7647	7652	7651	1
7647	7652	7656	1
7651	7652	7656	1
7652	7647	7655	1
7652	7651	7654	1
7660	7659	7667	1
7658	7657	10514	1
3415	3416	3423	1
3417	3416	3423	1
3423	9512	9502	1
3423	9512	9514	1
3415	3414	3425	1
3413	3414	3425	1
3416	3423	3424	1
3416	3423	9512	1
3414	3415	3416	1
3416	3415	3419	1
3416	3417	3418	1
3416	3417	3420	1
3414	3425	3427	1
3414	3425	3426	1
3414	3415	3419	1
3414	3413	3418	1
3414	3413	3421	1
3415	3416	3417	1
3413	3414	3415	1
3413	3418	3417	1
3417	3418	3422	1
3413	3418	3422	1
3418	3417	3420	1
3418	3413	3421	1
3424	3423	9512	1
3426	3425	3427	1
11812	11811	11822	1
11810	11811	11822	1
11822	6886	6876	1
11822	6886	6888	1
11812	11813	11820	1
11814	11813	11820	1
11820	4947	4937	1
11820	4947	4949	1
11811	11822	11823	1
11811	11822	6886	1
11811	11812	11813	1
11811	11812	11816	1
11811	11810	11815	1
11811	11810	11818	1
11813	11820	11821	1
11813	11820	4947	1
11813	11812	11816	1
11813	11814	11815	1
11813	11814	11817	1
11810	11811	11812	1
11812	11813	11814	1
11810	11815	11814	1
11810	11815	11819	1
11814	11815	11819	1
11815	11810	11818	1
11815	11814	11817	1
11823	11822	6886	1
11821	11820	4947	1
3715	3716	3723	1
3717	3716	3723	1
3723	11134	11127	1
3723	11134	11136	1
3715	3714	3725	1
3713	3714	3725	1
3716	3723	3724	1
3716	3723	11134	1
3714	3715	3716	1
3716	3715	3719	1
3716	3717	3718	1
3716	3717	3720	1
3714	3725	3727	1
3714	3725	3726	1
3714	3715	3719	1
3714	3713	3718	1
3714	3713	3721	1
3715	3716	3717	1
3713	3714	3715	1
3713	3718	3717	1
3717	3718	3722	1
3713	3718	3722	1
3718	3717	3720	1
3718	3713	3721	1
3724	3723	11134	1
3727	3725	3726	1
3445	3444	3455	1
3443	3444	3455	1
3445	3446	3453	1
3447	3446	3453	1
3453	9556	9546	1
3453	9556	9558	1
3444	3455	3456	1
3444	3455	3457	1
3444	3445	3446	1
3444	3445	3449	1
3444	3443	3448	1
3444	3443	3451	1
3446	3453	3454	1
3446	3453	9556	1
3446	3445	3449	1
3446	3447	3448	1
3446	3447	3450	1
3443	3444	3445	1
3445	3446	3447	1
3443	3448	3447	1
3443	3448	3452	1
3447	3448	3452	1
3448	3443	3451	1
3448	3447	3450	1
3456	3455	3457	1
3454	3453	9556	1
2194	2195	2202	1
2196	2195	2202	1
2208	2206	2202	1
2207	2206	2202	1
2194	2193	2204	1
2192	2193	2204	1
2204	9521	9515	1
2204	9521	9522	1
2195	2202	2203	1
2206	2202	2195	1
2193	2194	2195	1
2195	2194	2198	1
2195	2196	2197	1
2195	2196	2199	1
2193	2204	2205	1
2193	2204	9521	1
2193	2194	2198	1
2193	2192	2197	1
2193	2192	2200	1
2194	2195	2196	1
2192	2193	2194	1
2192	2197	2196	1
2196	2197	2201	1
2192	2197	2201	1
2197	2196	2199	1
2197	2192	2200	1
2206	2202	2203	1
2205	2204	9521	1
3834	3833	3844	1
3832	3833	3844	1
3844	7463	7457	1
3844	7463	7464	1
3834	3835	3842	1
3836	3835	3842	1
3842	3852	3846	1
3842	3852	3853	1
3833	3844	3845	1
3833	3844	7463	1
3833	3834	3835	1
3833	3834	3838	1
3833	3832	3837	1
3833	3832	3840	1
3835	3842	3843	1
3835	3842	3852	1
3835	3834	3838	1
3835	3836	3837	1
3835	3836	3839	1
3832	3833	3834	1
3834	3835	3836	1
3832	3837	3836	1
3832	3837	3841	1
3836	3837	3841	1
3837	3832	3840	1
3837	3836	3839	1
3845	3844	7463	1
3843	3842	3852	1
12414	12413	12424	1
12412	12413	12424	1
12424	6419	6412	1
12424	6419	6421	1
12414	12415	12422	1
12416	12415	12422	1
12422	5982	5975	1
12422	5982	5984	1
12413	12424	12425	1
12413	12424	6419	1
12413	12414	12415	1
12413	12414	12418	1
12413	12412	12417	1
12413	12412	12420	1
12415	12422	12423	1
12415	12422	5982	1
12415	12414	12418	1
12415	12416	12417	1
12415	12416	12419	1
12412	12413	12414	1
12414	12415	12416	1
12412	12417	12416	1
12412	12417	12421	1
12416	12417	12421	1
12417	12412	12420	1
12417	12416	12419	1
12425	12424	6419	1
12423	12422	5982	1
8467	8466	8477	1
8465	8466	8477	1
8477	9404	9398	1
8477	9404	9405	1
8467	8468	8475	1
8469	8468	8475	1
8475	8485	8479	1
8475	8485	8486	1
8466	8477	8478	1
8466	8477	9404	1
8466	8467	8468	1
8466	8467	8471	1
8466	8465	8470	1
8466	8465	8473	1
8468	8475	8476	1
8468	8475	8485	1
8468	8467	8471	1
8468	8469	8470	1
8468	8469	8472	1
8465	8466	8467	1
8467	8468	8469	1
8465	8470	8469	1
8465	8470	8474	1
8469	8470	8474	1
8470	8465	8473	1
8470	8469	8472	1
8478	8477	9404	1
8476	8475	8485	1
11714	11713	11724	1
11712	11713	11724	1
11724	4786	4779	1
11724	4786	4788	1
11714	11715	11722	1
11716	11715	11722	1
11722	10548	10541	1
11722	10548	10550	1
11713	11724	11725	1
11713	11724	4786	1
11713	11714	11715	1
11713	11714	11718	1
11713	11712	11717	1
11713	11712	11720	1
11715	11722	11723	1
11715	11722	10548	1
11715	11714	11718	1
11715	11716	11717	1
11715	11716	11719	1
11712	11713	11714	1
11714	11715	11716	1
11712	11717	11716	1
11712	11717	11721	1
11716	11717	11721	1
11717	11712	11720	1
11717	11716	11719	1
11725	11724	4786	1
11723	11722	10548	1
13394	13393	13404	1
13392	13393	13404	1
13404	8637	8627	1
13404	8637	8639	1
13394	13395	13402	1
13396	13395	13402	1
13402	10440	10434	1
13402	10440	10441	1
13393	13404	13405	1
13393	13404	8637	1
13393	13394	13395	1
13393	13394	13398	1
13393	13392	13397	1
13393	13392	13400	1
13395	13402	13403	1
13395	13402	10440	1
13395	13394	13398	1
13395	13396	13397	1
13395	13396	13399	1
13392	13393	13394	1
13394	13395	13396	1
13392	13397	13396	1
13392	13397	13401	1
13396	13397	13401	1
13397	13392	13400	1
13397	13396	13399	1
13405	13404	8637	1
13403	13402	10440	1
3070	3071	3078	1
3072	3071	3078	1
3078	7789	7779	1
3078	7789	7791	1
3070	3069	3080	1
3068	3069	3080	1
3071	3078	3079	1
3071	3078	7789	1
3069	3070	3071	1
3071	3070	3074	1
3071	3072	3073	1
3071	3072	3075	1
3069	3080	3081	1
3069	3080	3082	1
3069	3070	3074	1
3069	3068	3073	1
3069	3068	3076	1
3070	3071	3072	1
3068	3069	3070	1
3068	3073	3072	1
3072	3073	3077	1
3068	3073	3077	1
3073	3072	3075	1
3073	3068	3076	1
3079	3078	7789	1
3081	3080	3082	1
3580	3579	3590	1
3578	3579	3590	1
3580	3581	3588	1
3582	3581	3588	1
3588	10752	10745	1
3588	10752	10754	1
3579	3590	3592	1
3579	3590	3591	1
3579	3580	3581	1
3579	3580	3584	1
3579	3578	3583	1
3579	3578	3586	1
3581	3588	3589	1
3581	3588	10752	1
3581	3580	3584	1
3581	3582	3583	1
3581	3582	3585	1
3578	3579	3580	1
3580	3581	3582	1
3578	3583	3582	1
3578	3583	3587	1
3582	3583	3587	1
3583	3578	3586	1
3583	3582	3585	1
3592	3590	3591	1
3589	3588	10752	1
12022	12021	12032	1
12020	12021	12032	1
12032	7788	7781	1
12032	7788	7790	1
12022	12023	12030	1
12024	12023	12030	1
12030	5442	5432	1
12030	5442	5444	1
12021	12032	12033	1
12021	12032	7788	1
12021	12022	12023	1
12021	12022	12026	1
12021	12020	12025	1
12021	12020	12028	1
12023	12030	12031	1
12023	12030	5442	1
12023	12022	12026	1
12023	12024	12025	1
12023	12024	12027	1
12020	12021	12022	1
12022	12023	12024	1
12020	12025	12024	1
12020	12025	12029	1
12024	12025	12029	1
12025	12020	12028	1
12025	12024	12027	1
12033	12032	7788	1
12031	12030	5442	1
13128	13129	13136	1
13130	13129	13136	1
13136	8593	8583	1
13136	8593	8595	1
13128	13127	13138	1
13126	13127	13138	1
13138	7949	7939	1
13138	7949	7951	1
13129	13136	13137	1
13129	13136	8593	1
13127	13128	13129	1
13129	13128	13132	1
13129	13130	13131	1
13129	13130	13133	1
13127	13138	13139	1
13127	13138	7949	1
13127	13128	13132	1
13127	13126	13131	1
13127	13126	13134	1
13128	13129	13130	1
13126	13127	13128	1
13126	13131	13130	1
13130	13131	13135	1
13126	13131	13135	1
13131	13130	13133	1
13131	13126	13134	1
13137	13136	8593	1
13139	13138	7949	1
6017	6016	6027	1
6015	6016	6027	1
6027	6035	6029	1
6027	6035	6036	1
6017	6018	6025	1
6019	6018	6025	1
6025	6283	6277	1
6025	6283	6284	1
6016	6027	6028	1
6016	6027	6035	1
6016	6017	6018	1
6016	6017	6021	1
6016	6015	6020	1
6016	6015	6023	1
6018	6025	6026	1
6018	6025	6283	1
6018	6017	6021	1
6018	6019	6020	1
6018	6019	6022	1
6015	6016	6017	1
6017	6018	6019	1
6015	6020	6019	1
6015	6020	6024	1
6019	6020	6024	1
6020	6015	6023	1
6020	6019	6022	1
6028	6027	6035	1
6026	6025	6283	1
3505	3506	3513	1
3507	3506	3513	1
3513	9891	9884	1
3513	9891	9893	1
3505	3504	3515	1
3503	3504	3515	1
3506	3513	3514	1
3506	3513	9891	1
3504	3505	3506	1
3506	3505	3509	1
3506	3507	3508	1
3506	3507	3510	1
3504	3515	3516	1
3504	3515	3517	1
3504	3505	3509	1
3504	3503	3508	1
3504	3503	3511	1
3505	3506	3507	1
3503	3504	3505	1
3503	3508	3507	1
3507	3508	3512	1
3503	3508	3512	1
3508	3507	3510	1
3508	3503	3511	1
3514	3513	9891	1
3516	3515	3517	1
8394	8393	8404	1
8392	8393	8404	1
8404	8412	8406	1
8404	8412	8413	1
8394	8395	8402	1
8396	8395	8402	1
8402	5588	5578	1
8402	5588	5590	1
8393	8404	8405	1
8393	8404	8412	1
8393	8394	8395	1
8393	8394	8398	1
8393	8392	8397	1
8393	8392	8400	1
8395	8402	8403	1
8395	8402	5588	1
8395	8394	8398	1
8395	8396	8397	1
8395	8396	8399	1
8392	8393	8394	1
8394	8395	8396	1
8392	8397	8396	1
8392	8397	8401	1
8396	8397	8401	1
8397	8392	8400	1
8397	8396	8399	1
8405	8404	8412	1
8403	8402	5588	1
7430	7431	7438	1
7432	7431	7438	1
7438	8280	8274	1
7438	8280	8281	1
7430	7429	7440	1
7428	7429	7440	1
7440	7448	7442	1
7440	7448	7449	1
7431	7438	7439	1
7431	7438	8280	1
7431	7430	7429	1
7431	7430	7434	1
7431	7432	7433	1
7431	7432	7435	1
7429	7440	7441	1
7429	7440	7448	1
7429	7430	7434	1
7429	7428	7433	1
7429	7428	7436	1
7432	7431	7430	1
7430	7429	7428	1
7432	7433	7428	1
7432	7433	7437	1
7428	7433	7437	1
7433	7432	7435	1
7433	7428	7436	1
7439	7438	8280	1
7441	7440	7448	1
13226	13227	13234	1
13228	13227	13234	1
13234	10825	10818	1
13234	10825	10827	1
13226	13225	13236	1
13224	13225	13236	1
13236	8167	8160	1
13236	8167	8169	1
13227	13234	13235	1
13227	13234	10825	1
13225	13226	13227	1
13227	13226	13230	1
13227	13228	13229	1
13227	13228	13231	1
13225	13236	13237	1
13225	13236	8167	1
13225	13226	13230	1
13225	13224	13229	1
13225	13224	13232	1
13226	13227	13228	1
13224	13225	13226	1
13224	13229	13228	1
13228	13229	13233	1
13224	13229	13233	1
13229	13228	13231	1
13229	13224	13232	1
13235	13234	10825	1
13237	13236	8167	1
4560	4559	4570	1
4558	4559	4570	1
4570	4578	4572	1
4570	4578	4579	1
4560	4561	4568	1
4562	4561	4568	1
4568	6195	6189	1
4568	6195	6196	1
4559	4570	4571	1
4559	4570	4578	1
4559	4560	4561	1
4559	4560	4564	1
4559	4558	4563	1
4559	4558	4566	1
4561	4568	4569	1
4561	4568	6195	1
4561	4560	4564	1
4561	4562	4563	1
4561	4562	4565	1
4558	4559	4560	1
4560	4561	4562	1
4558	4563	4562	1
4558	4563	4567	1
4562	4563	4567	1
4563	4558	4566	1
4563	4562	4565	1
4571	4570	4578	1
4569	4568	6195	1
13702	13703	13710	1
13704	13703	13710	1
13710	11047	11037	1
13710	11047	11049	1
13702	13701	13712	1
13700	13701	13712	1
13712	10898	10891	1
13712	10898	10900	1
13703	13710	13711	1
13703	13710	11047	1
13701	13702	13703	1
13703	13702	13706	1
13703	13704	13705	1
13703	13704	13707	1
13701	13712	13713	1
13701	13712	10898	1
13701	13702	13706	1
13701	13700	13705	1
13701	13700	13708	1
13702	13703	13704	1
13700	13701	13702	1
13700	13705	13704	1
13704	13705	13709	1
13700	13705	13709	1
13705	13704	13707	1
13705	13700	13708	1
13711	13710	11047	1
13713	13712	10898	1
13212	13211	13222	1
13210	13211	13222	1
13222	10723	10716	1
13222	10723	10725	1
13212	13213	13220	1
13214	13213	13220	1
13220	8168	8158	1
13220	8168	8170	1
13211	13222	13223	1
13211	13222	10723	1
13211	13212	13213	1
13211	13212	13216	1
13211	13210	13215	1
13211	13210	13218	1
13213	13220	13221	1
13213	13220	8168	1
13213	13212	13216	1
13213	13214	13215	1
13213	13214	13217	1
13210	13211	13212	1
13212	13213	13214	1
13210	13215	13214	1
13210	13215	13219	1
13214	13215	13219	1
13215	13210	13218	1
13215	13214	13217	1
13223	13222	10723	1
13221	13220	8168	1
1997	1996	2007	1
1995	1996	2007	1
2015	2017	2007	1
2018	2017	2007	1
1997	1998	2005	1
1999	1998	2005	1
2005	10709	10699	1
2005	10709	10711	1
1996	2007	2008	1
2017	2007	1996	1
1996	1997	1998	1
1996	1997	2001	1
1996	1995	2000	1
1996	1995	2003	1
1998	2005	2006	1
1998	2005	10709	1
1998	1997	2001	1
1998	1999	2000	1
1998	1999	2002	1
1995	1996	1997	1
1997	1998	1999	1
1995	2000	1999	1
1995	2000	2004	1
1999	2000	2004	1
2000	1995	2003	1
2000	1999	2002	1
2017	2007	2008	1
2006	2005	10709	1
12008	12009	12016	1
12010	12009	12016	1
12016	5427	5417	1
12016	5427	5429	1
12008	12007	12018	1
12006	12007	12018	1
12018	10358	10348	1
12018	10358	10360	1
12009	12016	12017	1
12009	12016	5427	1
12009	12008	12007	1
12009	12008	12012	1
12009	12010	12011	1
12009	12010	12013	1
12007	12018	12019	1
12007	12018	10358	1
12007	12008	12012	1
12007	12006	12011	1
12007	12006	12014	1
12010	12009	12008	1
12008	12007	12006	1
12010	12011	12006	1
12010	12011	12015	1
12006	12011	12015	1
12011	12010	12013	1
12011	12006	12014	1
12017	12016	5427	1
12019	12018	10358	1
4444	4443	4454	1
4442	4443	4454	1
4454	8491	8481	1
4454	8491	8493	1
4444	4445	4452	1
4446	4445	4452	1
4452	4462	4456	1
4452	4462	4463	1
4443	4454	4455	1
4443	4454	8491	1
4443	4444	4445	1
4443	4444	4448	1
4443	4442	4447	1
4443	4442	4450	1
4445	4452	4453	1
4445	4452	4462	1
4445	4444	4448	1
4445	4446	4447	1
4445	4446	4449	1
4442	4443	4444	1
4444	4445	4446	1
4442	4447	4446	1
4442	4447	4451	1
4446	4447	4451	1
4447	4442	4450	1
4447	4446	4449	1
4455	4454	8491	1
4453	4452	4462	1
900	901	908	1
902	901	908	1
908	8177	8171	1
908	8177	8178	1
900	899	910	1
898	899	910	1
914	912	910	1
913	912	910	1
901	908	909	1
901	908	8177	1
899	900	901	1
901	900	904	1
901	902	903	1
901	902	905	1
899	910	911	1
912	910	899	1
899	900	904	1
899	898	903	1
899	898	906	1
900	901	902	1
898	899	900	1
898	903	902	1
902	903	907	1
898	903	907	1
903	902	905	1
903	898	906	1
909	908	8177	1
912	910	911	1
2875	2874	2885	1
2873	2874	2885	1
2875	2876	2883	1
2877	2876	2883	1
2883	5968	5958	1
2883	5968	5970	1
2874	2885	2886	1
2874	2885	2887	1
2874	2875	2876	1
2874	2875	2879	1
2874	2873	2878	1
2874	2873	2881	1
2876	2883	2884	1
2876	2883	5968	1
2876	2875	2879	1
2876	2877	2878	1
2876	2877	2880	1
2873	2874	2875	1
2875	2876	2877	1
2873	2878	2877	1
2873	2878	2882	1
2877	2878	2882	1
2878	2873	2881	1
2878	2877	2880	1
2886	2885	2887	1
2884	2883	5968	1
5944	5943	5954	1
5942	5943	5954	1
5954	5962	5956	1
5954	5962	5963	1
5944	5945	5952	1
5946	5945	5952	1
5952	6245	6235	1
5952	6245	6247	1
5943	5954	5955	1
5943	5954	5962	1
5943	5944	5945	1
5943	5944	5948	1
5943	5942	5947	1
5943	5942	5950	1
5945	5952	5953	1
5945	5952	6245	1
5945	5944	5948	1
5945	5946	5947	1
5945	5946	5949	1
5942	5943	5944	1
5944	5945	5946	1
5942	5947	5946	1
5942	5947	5951	1
5946	5947	5951	1
5947	5942	5950	1
5947	5946	5949	1
5955	5954	5962	1
5953	5952	6245	1
12834	12833	12844	1
12832	12833	12844	1
12844	7060	7053	1
12844	7060	7062	1
12834	12835	12842	1
12836	12835	12842	1
12842	10327	10320	1
12842	10327	10329	1
12833	12844	12845	1
12833	12844	7060	1
12833	12834	12835	1
12833	12834	12838	1
12833	12832	12837	1
12833	12832	12840	1
12835	12842	12843	1
12835	12842	10327	1
12835	12834	12838	1
12835	12836	12837	1
12835	12836	12839	1
12832	12833	12834	1
12834	12835	12836	1
12832	12837	12836	1
12832	12837	12841	1
12836	12837	12841	1
12837	12832	12840	1
12837	12836	12839	1
12845	12844	7060	1
12843	12842	10327	1
3625	3626	3633	1
3627	3626	3633	1
3633	10943	10933	1
3633	10943	10945	1
3625	3624	3635	1
3623	3624	3635	1
3626	3633	3634	1
3626	3633	10943	1
3624	3625	3626	1
3626	3625	3629	1
3626	3627	3628	1
3626	3627	3630	1
3624	3635	3636	1
3624	3635	3637	1
3624	3625	3629	1
3624	3623	3628	1
3624	3623	3631	1
3625	3626	3627	1
3623	3624	3625	1
3623	3628	3627	1
3627	3628	3632	1
3623	3628	3632	1
3628	3627	3630	1
3628	3623	3631	1
3634	3633	10943	1
3636	3635	3637	1
3670	3671	3678	1
3672	3671	3678	1
3678	10967	10961	1
3678	10967	10968	1
3670	3669	3680	1
3668	3669	3680	1
3671	3678	3679	1
3671	3678	10967	1
3669	3670	3671	1
3671	3670	3674	1
3671	3672	3673	1
3671	3672	3675	1
3669	3680	3681	1
3669	3680	3682	1
3669	3670	3674	1
3669	3668	3673	1
3669	3668	3676	1
3670	3671	3672	1
3668	3669	3670	1
3668	3673	3672	1
3672	3673	3677	1
3668	3673	3677	1
3673	3672	3675	1
3673	3668	3676	1
3679	3678	10967	1
3681	3680	3682	1
4357	4358	4365	1
4359	4358	4365	1
4365	4375	4369	1
4365	4375	4376	1
4357	4356	4367	1
4355	4356	4367	1
4367	10958	10948	1
4367	10958	10960	1
4358	4365	4366	1
4358	4365	4375	1
4356	4357	4358	1
4358	4357	4361	1
4358	4359	4360	1
4358	4359	4362	1
4356	4367	4368	1
4356	4367	10958	1
4356	4357	4361	1
4356	4355	4360	1
4356	4355	4363	1
4357	4358	4359	1
4355	4356	4357	1
4355	4360	4359	1
4359	4360	4364	1
4355	4360	4364	1
4360	4359	4362	1
4360	4355	4363	1
4366	4365	4375	1
4368	4367	10958	1
5608	5607	5618	1
5606	5607	5618	1
5618	7760	7750	1
5618	7760	7762	1
5608	5609	5616	1
5610	5609	5616	1
5616	5626	5620	1
5616	5626	5627	1
5607	5618	5619	1
5607	5618	7760	1
5607	5608	5609	1
5607	5608	5612	1
5607	5606	5611	1
5607	5606	5614	1
5609	5616	5617	1
5609	5616	5626	1
5609	5608	5612	1
5609	5610	5611	1
5609	5610	5613	1
5606	5607	5608	1
5608	5609	5610	1
5606	5611	5610	1
5606	5611	5615	1
5610	5611	5615	1
5611	5606	5614	1
5611	5610	5613	1
5619	5618	7760	1
5617	5616	5626	1
1479	1478	1489	1
1477	1478	1489	1
1489	6739	6732	1
1489	6739	6741	1
1479	1480	1487	1
1481	1480	1487	1
1493	1491	1487	1
1492	1491	1487	1
1478	1489	1490	1
1478	1489	6739	1
1478	1479	1480	1
1478	1479	1483	1
1478	1477	1482	1
1478	1477	1485	1
1480	1487	1488	1
1491	1487	1480	1
1480	1479	1483	1
1480	1481	1482	1
1480	1481	1484	1
1477	1478	1479	1
1479	1480	1481	1
1477	1482	1481	1
1477	1482	1486	1
1481	1482	1486	1
1482	1477	1485	1
1482	1481	1484	1
1490	1489	6739	1
1491	1487	1488	1
991	990	1001	1
989	990	1001	1
1005	1003	1001	1
1004	1003	1001	1
991	992	999	1
993	992	999	1
999	10372	10365	1
999	10372	10374	1
990	1001	1002	1
1003	1001	990	1
990	991	992	1
990	991	995	1
990	989	994	1
990	989	997	1
992	999	1000	1
992	999	10372	1
992	991	995	1
992	993	994	1
992	993	996	1
989	990	991	1
991	992	993	1
989	994	993	1
989	994	998	1
993	994	998	1
994	989	997	1
994	993	996	1
1003	1001	1002	1
1000	999	10372	1
642	641	652	1
640	641	652	1
623	629	652	1
630	629	652	1
642	643	650	1
644	643	650	1
2148	2146	650	1
2147	2146	650	1
641	652	653	1
629	652	641	1
641	642	643	1
641	642	646	1
641	640	645	1
641	640	648	1
643	650	651	1
2146	650	643	1
643	642	646	1
643	644	645	1
643	644	647	1
640	641	642	1
642	643	644	1
640	645	644	1
640	645	649	1
644	645	649	1
645	640	648	1
645	644	647	1
629	652	653	1
2146	650	651	1
11434	11433	11444	1
11432	11433	11444	1
11444	8462	8452	1
11444	8462	8464	1
11434	11435	11442	1
11436	11435	11442	1
11442	4278	4271	1
11442	4278	4280	1
11433	11444	11445	1
11433	11444	8462	1
11433	11434	11435	1
11433	11434	11438	1
11433	11432	11437	1
11433	11432	11440	1
11435	11442	11443	1
11435	11442	4278	1
11435	11434	11438	1
11435	11436	11437	1
11435	11436	11439	1
11432	11433	11434	1
11434	11435	11436	1
11432	11437	11436	1
11432	11437	11441	1
11436	11437	11441	1
11437	11432	11440	1
11437	11436	11439	1
11445	11444	8462	1
11443	11442	4278	1
4502	4501	4512	1
4500	4501	4512	1
4512	7336	7329	1
4512	7336	7338	1
4502	4503	4510	1
4504	4503	4510	1
4510	4520	4514	1
4510	4520	4521	1
4501	4512	4513	1
4501	4512	7336	1
4501	4502	4503	1
4501	4502	4506	1
4501	4500	4505	1
4501	4500	4508	1
4503	4510	4511	1
4503	4510	4520	1
4503	4502	4506	1
4503	4504	4505	1
4503	4504	4507	1
4500	4501	4502	1
4502	4503	4504	1
4500	4505	4504	1
4500	4505	4509	1
4504	4505	4509	1
4505	4500	4508	1
4505	4504	4507	1
4513	4512	7336	1
4511	4510	4520	1
10670	10671	10678	1
10672	10671	10678	1
10678	10688	10682	1
10678	10688	10689	1
10670	10669	10680	1
10668	10669	10680	1
10680	4787	4777	1
10680	4787	4789	1
10671	10678	10679	1
10671	10678	10688	1
10671	10670	10669	1
10671	10670	10674	1
10671	10672	10673	1
10671	10672	10675	1
10669	10680	10681	1
10669	10680	4787	1
10669	10670	10674	1
10669	10668	10673	1
10669	10668	10676	1
10672	10671	10670	1
10670	10669	10668	1
10672	10673	10668	1
10672	10673	10677	1
10668	10673	10677	1
10673	10672	10675	1
10673	10668	10676	1
10679	10678	10688	1
10681	10680	4787	1
6104	6103	6114	1
6102	6103	6114	1
6114	10352	10346	1
6114	10352	10353	1
6104	6105	6112	1
6106	6105	6112	1
6112	6122	6116	1
6112	6122	6123	1
6103	6114	6115	1
6103	6114	10352	1
6103	6104	6105	1
6103	6104	6108	1
6103	6102	6107	1
6103	6102	6110	1
6105	6112	6113	1
6105	6112	6122	1
6105	6104	6108	1
6105	6106	6107	1
6105	6106	6109	1
6102	6103	6104	1
6104	6105	6106	1
6102	6107	6106	1
6102	6107	6111	1
6106	6107	6111	1
6107	6102	6110	1
6107	6106	6109	1
6115	6114	10352	1
6113	6112	6122	1
13618	13619	13626	1
13620	13619	13626	1
13626	10051	10044	1
13626	10051	10053	1
13618	13617	13628	1
13616	13617	13628	1
13628	10504	10497	1
13628	10504	10506	1
13619	13626	13627	1
13619	13626	10051	1
13619	13618	13617	1
13619	13618	13622	1
13619	13620	13621	1
13619	13620	13623	1
13617	13628	13629	1
13617	13628	10504	1
13617	13618	13622	1
13617	13616	13621	1
13617	13616	13624	1
13620	13619	13618	1
13618	13617	13616	1
13620	13621	13616	1
13620	13621	13625	1
13616	13621	13625	1
13621	13620	13623	1
13621	13616	13624	1
13627	13626	10051	1
13629	13628	10504	1
6789	6790	6797	1
6791	6790	6797	1
6797	6807	6801	1
6797	6807	6808	1
6789	6788	6799	1
6787	6788	6799	1
6799	4496	4489	1
6799	4496	4498	1
6790	6797	6798	1
6790	6797	6807	1
6788	6789	6790	1
6790	6789	6793	1
6790	6791	6792	1
6790	6791	6794	1
6788	6799	6800	1
6788	6799	4496	1
6788	6789	6793	1
6788	6787	6792	1
6788	6787	6795	1
6789	6790	6791	1
6787	6788	6789	1
6787	6792	6791	1
6791	6792	6796	1
6787	6792	6796	1
6792	6791	6794	1
6792	6787	6795	1
6798	6797	6807	1
6800	6799	4496	1
13534	13533	13544	1
13532	13533	13544	1
13544	10665	10655	1
13544	10665	10667	1
13534	13535	13542	1
13536	13535	13542	1
13542	9365	9358	1
13542	9365	9367	1
13533	13544	13545	1
13533	13544	10665	1
13533	13534	13535	1
13533	13534	13538	1
13533	13532	13537	1
13533	13532	13540	1
13535	13542	13543	1
13535	13542	9365	1
13535	13534	13538	1
13535	13536	13537	1
13535	13536	13539	1
13532	13533	13534	1
13534	13535	13536	1
13532	13537	13536	1
13532	13537	13541	1
13536	13537	13541	1
13537	13532	13540	1
13537	13536	13539	1
13545	13544	10665	1
13543	13542	9365	1
1722	1723	1730	1
1724	1723	1730	1
1736	1734	1730	1
1735	1734	1730	1
1722	1721	1732	1
1720	1721	1732	1
1732	8592	8585	1
1732	8592	8594	1
1723	1730	1731	1
1734	1730	1723	1
1721	1722	1723	1
1723	1722	1726	1
1723	1724	1725	1
1723	1724	1727	1
1721	1732	1733	1
1721	1732	8592	1
1721	1722	1726	1
1721	1720	1725	1
1721	1720	1728	1
1722	1723	1724	1
1720	1721	1722	1
1720	1725	1724	1
1724	1725	1729	1
1720	1725	1729	1
1725	1724	1727	1
1725	1720	1728	1
1734	1730	1731	1
1733	1732	8592	1
6716	6715	6726	1
6714	6715	6726	1
6726	10046	10040	1
6726	10046	10047	1
6716	6717	6724	1
6718	6717	6724	1
6724	6734	6728	1
6724	6734	6735	1
6715	6726	6727	1
6715	6726	10046	1
6715	6716	6717	1
6715	6716	6720	1
6715	6714	6719	1
6715	6714	6722	1
6717	6724	6725	1
6717	6724	6734	1
6717	6716	6720	1
6717	6718	6719	1
6717	6718	6721	1
6714	6715	6716	1
6716	6717	6718	1
6714	6719	6718	1
6714	6719	6723	1
6718	6719	6723	1
6719	6714	6722	1
6719	6718	6721	1
6727	6726	10046	1
6725	6724	6734	1
352	351	362	1
350	351	362	1
362	8236	8230	1
362	8236	8237	1
352	353	360	1
354	353	360	1
366	364	360	1
365	364	360	1
351	362	363	1
351	362	8236	1
351	352	353	1
351	352	356	1
351	350	355	1
351	350	358	1
353	360	361	1
364	360	353	1
353	352	356	1
353	354	355	1
353	354	357	1
350	351	352	1
352	353	354	1
350	355	354	1
350	355	359	1
354	355	359	1
355	350	358	1
355	354	357	1
363	362	8236	1
364	360	361	1
3130	3131	3138	1
3132	3131	3138	1
3138	8339	8333	1
3138	8339	8340	1
3130	3129	3140	1
3128	3129	3140	1
3131	3138	3139	1
3131	3138	8339	1
3129	3130	3131	1
3131	3130	3134	1
3131	3132	3133	1
3131	3132	3135	1
3129	3140	3141	1
3129	3140	3142	1
3129	3130	3134	1
3129	3128	3133	1
3129	3128	3136	1
3130	3131	3132	1
3128	3129	3130	1
3128	3133	3132	1
3132	3133	3137	1
3128	3133	3137	1
3133	3132	3135	1
3133	3128	3136	1
3139	3138	8339	1
3142	3140	3141	1
2134	2133	2144	1
2132	2133	2144	1
2115	2121	2144	1
2122	2121	2144	1
2134	2135	2142	1
2136	2135	2142	1
2142	4244	4238	1
2142	4244	4245	1
2133	2144	2145	1
2121	2144	2133	1
2133	2134	2135	1
2133	2134	2138	1
2133	2132	2137	1
2133	2132	2140	1
2135	2142	2143	1
2135	2142	4244	1
2135	2134	2138	1
2135	2136	2137	1
2135	2136	2139	1
2132	2133	2134	1
2134	2135	2136	1
2132	2137	2136	1
2132	2137	2141	1
2136	2137	2141	1
2137	2132	2140	1
2137	2136	2139	1
2121	2144	2145	1
2143	2142	4244	1
11140	11139	11150	1
11138	11139	11150	1
11150	4250	4240	1
11150	4250	4252	1
11140	11141	11148	1
11142	11141	11148	1
11148	3813	3806	1
11148	3813	3815	1
11139	11150	11151	1
11139	11150	4250	1
11139	11140	11141	1
11139	11140	11144	1
11139	11138	11143	1
11139	11138	11146	1
11141	11148	11149	1
11141	11148	3813	1
11141	11140	11144	1
11141	11142	11143	1
11141	11142	11145	1
11138	11139	11140	1
11140	11141	11142	1
11138	11143	11142	1
11138	11143	11147	1
11142	11143	11147	1
11143	11138	11146	1
11143	11142	11145	1
11151	11150	4250	1
11149	11148	3813	1
2027	2026	2037	1
2025	2026	2037	1
2041	2039	2037	1
2040	2039	2037	1
2027	2028	2035	1
2029	2028	2035	1
2035	6098	6091	1
2035	6098	6100	1
2026	2037	2038	1
2039	2037	2026	1
2026	2027	2028	1
2026	2027	2031	1
2026	2025	2030	1
2026	2025	2033	1
2028	2035	2036	1
2028	2035	6098	1
2028	2027	2031	1
2028	2029	2030	1
2028	2029	2032	1
2025	2026	2027	1
2027	2028	2029	1
2025	2030	2029	1
2025	2030	2034	1
2029	2030	2034	1
2030	2025	2033	1
2030	2029	2032	1
2039	2037	2038	1
2036	2035	6098	1
12582	12583	12590	1
12584	12583	12590	1
12590	10694	10684	1
12590	10694	10696	1
12582	12581	12592	1
12580	12581	12592	1
12592	6304	6294	1
12592	6304	6306	1
12583	12590	12591	1
12583	12590	10694	1
12583	12582	12581	1
12583	12582	12586	1
12583	12584	12585	1
12583	12584	12587	1
12581	12592	12593	1
12581	12592	6304	1
12581	12582	12586	1
12581	12580	12585	1
12581	12580	12588	1
12584	12583	12582	1
12582	12581	12580	1
12584	12585	12580	1
12584	12585	12589	1
12580	12585	12589	1
12585	12584	12587	1
12585	12580	12588	1
12591	12590	10694	1
12593	12592	6304	1
6891	6890	6901	1
6889	6890	6901	1
6901	6909	6903	1
6901	6909	6910	1
6891	6892	6899	1
6893	6892	6899	1
1985	1987	6899	1
1988	1987	6899	1
6890	6901	6902	1
6890	6901	6909	1
6890	6891	6892	1
6890	6891	6895	1
6890	6889	6894	1
6890	6889	6897	1
6892	6899	6900	1
1987	6899	6892	1
6892	6891	6895	1
6892	6893	6894	1
6892	6893	6896	1
6889	6890	6891	1
6891	6892	6893	1
6889	6894	6893	1
6889	6894	6898	1
6893	6894	6898	1
6894	6889	6897	1
6894	6893	6896	1
6902	6901	6909	1
1987	6899	6900	1
11756	11757	11764	1
11758	11757	11764	1
11764	8929	8919	1
11764	8929	8931	1
11756	11755	11766	1
11754	11755	11766	1
11766	4830	4823	1
11766	4830	4832	1
11757	11764	11765	1
11757	11764	8929	1
11755	11756	11757	1
11757	11756	11760	1
11757	11758	11759	1
11757	11758	11761	1
11755	11766	11767	1
11755	11766	4830	1
11755	11756	11760	1
11755	11754	11759	1
11755	11754	11762	1
11756	11757	11758	1
11754	11755	11756	1
11754	11759	11758	1
11758	11759	11763	1
11754	11759	11763	1
11759	11758	11761	1
11759	11754	11762	1
11765	11764	8929	1
11767	11766	4830	1
1861	1862	1869	1
1863	1862	1869	1
1869	5305	5299	1
1869	5305	5306	1
1861	1860	1871	1
1859	1860	1871	1
1842	1848	1871	1
1849	1848	1871	1
1862	1869	1870	1
1862	1869	5305	1
1862	1861	1860	1
1862	1861	1865	1
1862	1863	1864	1
1862	1863	1866	1
1860	1871	1872	1
1848	1871	1860	1
1860	1861	1865	1
1860	1859	1864	1
1860	1859	1867	1
1863	1862	1861	1
1861	1860	1859	1
1863	1864	1859	1
1863	1864	1868	1
1859	1864	1868	1
1864	1863	1866	1
1864	1859	1867	1
1870	1869	5305	1
1848	1871	1872	1
12106	12105	12116	1
12104	12105	12116	1
12116	5544	5534	1
12116	5544	5546	1
12106	12107	12114	1
12108	12107	12114	1
12114	9394	9387	1
12114	9394	9396	1
12105	12116	12117	1
12105	12116	5544	1
12105	12106	12107	1
12105	12106	12110	1
12105	12104	12109	1
12105	12104	12112	1
12107	12114	12115	1
12107	12114	9394	1
12107	12106	12110	1
12107	12108	12109	1
12107	12108	12111	1
12104	12105	12106	1
12106	12107	12108	1
12104	12109	12108	1
12104	12109	12113	1
12108	12109	12113	1
12109	12104	12112	1
12109	12108	12111	1
12117	12116	5544	1
12115	12114	9394	1
3205	3206	3213	1
3207	3206	3213	1
3213	8709	8702	1
3213	8709	8711	1
3205	3204	3215	1
3203	3204	3215	1
3206	3213	3214	1
3206	3213	8709	1
3204	3205	3206	1
3206	3205	3209	1
3206	3207	3208	1
3206	3207	3210	1
3204	3215	3216	1
3204	3215	3217	1
3204	3205	3209	1
3204	3203	3208	1
3204	3203	3211	1
3205	3206	3207	1
3203	3204	3205	1
3203	3208	3207	1
3207	3208	3212	1
3203	3208	3212	1
3208	3207	3210	1
3208	3203	3211	1
3214	3213	8709	1
3216	3215	3217	1
1647	1646	1657	1
1645	1646	1657	1
1628	1634	1657	1
1635	1634	1657	1
1647	1648	1655	1
1649	1648	1655	1
1655	9790	9780	1
1655	9790	9792	1
1646	1657	1658	1
1634	1657	1646	1
1646	1647	1648	1
1646	1647	1651	1
1646	1645	1650	1
1646	1645	1653	1
1648	1655	1656	1
1648	1655	9790	1
1648	1647	1651	1
1648	1649	1650	1
1648	1649	1652	1
1645	1646	1647	1
1647	1648	1649	1
1645	1650	1649	1
1645	1650	1654	1
1649	1650	1654	1
1650	1645	1653	1
1650	1649	1652	1
1634	1657	1658	1
1656	1655	9790	1
8993	8992	9003	1
8991	8992	9003	1
9003	9011	9005	1
9003	9011	9012	1
8993	8994	9001	1
8995	8994	9001	1
9001	10870	10860	1
9001	10870	10872	1
8992	9003	9004	1
8992	9003	9011	1
8992	8993	8994	1
8992	8993	8997	1
8992	8991	8996	1
8992	8991	8999	1
8994	9001	9002	1
8994	9001	10870	1
8994	8993	8997	1
8994	8995	8996	1
8994	8995	8998	1
8991	8992	8993	1
8993	8994	8995	1
8991	8996	8995	1
8991	8996	9000	1
8995	8996	9000	1
8996	8991	8999	1
8996	8995	8998	1
9004	9003	9011	1
9002	9001	10870	1
12400	12399	12410	1
12398	12399	12410	1
12410	8447	8437	1
12410	8447	8449	1
12400	12401	12408	1
12402	12401	12408	1
12408	5983	5973	1
12408	5983	5985	1
12399	12410	12411	1
12399	12410	8447	1
12399	12400	12401	1
12399	12400	12404	1
12399	12398	12403	1
12399	12398	12406	1
12401	12408	12409	1
12401	12408	5983	1
12401	12400	12404	1
12401	12402	12403	1
12401	12402	12405	1
12398	12399	12400	1
12400	12401	12402	1
12398	12403	12402	1
12398	12403	12407	1
12402	12403	12407	1
12403	12398	12406	1
12403	12402	12405	1
12411	12410	8447	1
12409	12408	5983	1
3295	3296	3303	1
3297	3296	3303	1
3303	9032	9022	1
3303	9032	9034	1
3295	3294	3305	1
3293	3294	3305	1
3296	3303	3304	1
3296	3303	9032	1
3294	3295	3296	1
3296	3295	3299	1
3296	3297	3298	1
3296	3297	3300	1
3294	3305	3307	1
3294	3305	3306	1
3294	3295	3299	1
3294	3293	3298	1
3294	3293	3301	1
3295	3296	3297	1
3293	3294	3295	1
3293	3298	3297	1
3297	3298	3302	1
3293	3298	3302	1
3298	3297	3300	1
3298	3293	3301	1
3304	3303	9032	1
3306	3305	3307	1
2635	2634	2645	1
2633	2634	2645	1
2635	2636	2643	1
2637	2636	2643	1
2643	4351	4344	1
2643	4351	4353	1
2634	2645	2647	1
2634	2645	2646	1
2634	2635	2636	1
2634	2635	2639	1
2634	2633	2638	1
2634	2633	2641	1
2636	2643	2644	1
2636	2643	4351	1
2636	2635	2639	1
2636	2637	2638	1
2636	2637	2640	1
2633	2634	2635	1
2635	2636	2637	1
2633	2638	2637	1
2633	2638	2642	1
2637	2638	2642	1
2638	2633	2641	1
2638	2637	2640	1
2647	2645	2646	1
2644	2643	4351	1
2605	2604	2615	1
2603	2604	2615	1
2605	2606	2613	1
2607	2606	2613	1
2613	4031	4024	1
2613	4031	4033	1
2604	2615	2616	1
2604	2615	2617	1
2604	2605	2606	1
2604	2605	2609	1
2604	2603	2608	1
2604	2603	2611	1
2606	2613	2614	1
2606	2613	4031	1
2606	2605	2609	1
2606	2607	2608	1
2606	2607	2610	1
2603	2604	2605	1
2605	2606	2607	1
2603	2608	2607	1
2603	2608	2612	1
2607	2608	2612	1
2608	2603	2611	1
2608	2607	2610	1
2616	2615	2617	1
2614	2613	4031	1
13548	13547	13558	1
13546	13547	13558	1
13558	10080	10073	1
13558	10080	10082	1
13548	13549	13556	1
13550	13549	13556	1
13556	9614	9607	1
13556	9614	9616	1
13547	13558	13559	1
13547	13558	10080	1
13547	13548	13549	1
13547	13548	13552	1
13547	13546	13551	1
13547	13546	13554	1
13549	13556	13557	1
13549	13556	9614	1
13549	13548	13552	1
13549	13550	13551	1
13549	13550	13553	1
13546	13547	13548	1
13548	13549	13550	1
13546	13551	13550	1
13546	13551	13555	1
13550	13551	13555	1
13551	13546	13554	1
13551	13550	13553	1
13559	13558	10080	1
13557	13556	9614	1
7313	7312	7323	1
7311	7312	7323	1
7323	7331	7325	1
7323	7331	7332	1
7313	7314	7321	1
7315	7314	7321	1
7321	9016	9009	1
7321	9016	9018	1
7312	7323	7324	1
7312	7323	7331	1
7312	7313	7314	1
7312	7313	7317	1
7312	7311	7316	1
7312	7311	7319	1
7314	7321	7322	1
7314	7321	9016	1
7314	7313	7317	1
7314	7315	7316	1
7314	7315	7318	1
7311	7312	7313	1
7313	7314	7315	1
7311	7316	7315	1
7311	7316	7320	1
7315	7316	7320	1
7316	7311	7319	1
7316	7315	7318	1
7324	7323	7331	1
7322	7321	9016	1
13478	13477	13488	1
13476	13477	13488	1
13488	9250	9240	1
13488	9250	9252	1
13478	13479	13486	1
13480	13479	13486	1
13486	8973	8963	1
13486	8973	8975	1
13477	13488	13489	1
13477	13488	9250	1
13477	13478	13479	1
13477	13478	13482	1
13477	13476	13481	1
13477	13476	13484	1
13479	13486	13487	1
13479	13486	8973	1
13479	13478	13482	1
13479	13480	13481	1
13479	13480	13483	1
13476	13477	13478	1
13478	13479	13480	1
13476	13481	13480	1
13476	13481	13485	1
13480	13481	13485	1
13481	13476	13484	1
13481	13480	13483	1
13489	13488	9250	1
13487	13486	8973	1
11798	11797	11808	1
11796	11797	11808	1
11808	4888	4881	1
11808	4888	4890	1
11798	11799	11806	1
11800	11799	11806	1
11806	5209	5199	1
11806	5209	5211	1
11797	11808	11809	1
11797	11808	4888	1
11797	11798	11799	1
11797	11798	11802	1
11797	11796	11801	1
11797	11796	11804	1
11799	11806	11807	1
11799	11806	5209	1
11799	11798	11802	1
11799	11800	11801	1
11799	11800	11803	1
11796	11797	11798	1
11798	11799	11800	1
11796	11801	11800	1
11796	11801	11805	1
11800	11801	11805	1
11801	11796	11804	1
11801	11800	11803	1
11809	11808	4888	1
11807	11806	5209	1
12512	12511	12522	1
12510	12511	12522	1
12522	7527	7517	1
12522	7527	7529	1
12512	12513	12520	1
12514	12513	12520	1
12520	6200	6193	1
12520	6200	6202	1
12511	12522	12523	1
12511	12522	7527	1
12511	12512	12513	1
12511	12512	12516	1
12511	12510	12515	1
12511	12510	12518	1
12513	12520	12521	1
12513	12520	6200	1
12513	12512	12516	1
12513	12514	12515	1
12513	12514	12517	1
12510	12511	12512	1
12512	12513	12514	1
12510	12515	12514	1
12510	12515	12519	1
12514	12515	12519	1
12515	12510	12518	1
12515	12514	12517	1
12523	12522	7527	1
12521	12520	6200	1
7794	7793	7804	1
7792	7793	7804	1
7804	7812	7806	1
7804	7812	7813	1
7794	7795	7802	1
7796	7795	7802	1
7802	7914	7908	1
7802	7914	7915	1
7793	7804	7805	1
7793	7804	7812	1
7793	7794	7795	1
7793	7794	7798	1
7793	7792	7797	1
7793	7792	7800	1
7795	7802	7803	1
7795	7802	7914	1
7795	7794	7798	1
7795	7796	7797	1
7795	7796	7799	1
7792	7793	7794	1
7794	7795	7796	1
7792	7797	7796	1
7792	7797	7801	1
7796	7797	7801	1
7797	7792	7800	1
7797	7796	7799	1
7805	7804	7812	1
7803	7802	7914	1
8745	8744	8755	1
8743	8744	8755	1
8755	5632	5622	1
8755	5632	5634	1
8745	8746	8753	1
8747	8746	8753	1
8753	8763	8757	1
8753	8763	8764	1
8744	8755	8756	1
8744	8755	5632	1
8744	8745	8746	1
8744	8745	8749	1
8744	8743	8748	1
8744	8743	8751	1
8746	8753	8754	1
8746	8753	8763	1
8746	8745	8749	1
8746	8747	8748	1
8746	8747	8750	1
8743	8744	8745	1
8745	8746	8747	1
8743	8748	8747	1
8743	8748	8752	1
8747	8748	8752	1
8748	8743	8751	1
8748	8747	8750	1
8756	8755	5632	1
8754	8753	8763	1
11168	11167	11178	1
11166	11167	11178	1
11178	8285	8278	1
11178	8285	8287	1
11168	11169	11176	1
11170	11169	11176	1
11176	3829	3819	1
11176	3829	3831	1
11167	11178	11179	1
11167	11178	8285	1
11167	11168	11169	1
11167	11168	11172	1
11167	11166	11171	1
11167	11166	11174	1
11169	11176	11177	1
11169	11176	3829	1
11169	11168	11172	1
11169	11170	11171	1
11169	11170	11173	1
11166	11167	11168	1
11168	11169	11170	1
11166	11171	11170	1
11166	11171	11175	1
11170	11171	11175	1
11171	11166	11174	1
11171	11170	11173	1
11179	11178	8285	1
11177	11176	3829	1
4647	4646	4657	1
4645	4646	4657	1
4657	4665	4659	1
4657	4665	4666	1
4647	4648	4655	1
4649	4648	4655	1
4655	7497	7490	1
4655	7497	7499	1
4646	4657	4658	1
4646	4657	4665	1
4646	4647	4648	1
4646	4647	4651	1
4646	4645	4650	1
4646	4645	4653	1
4648	4655	4656	1
4648	4655	7497	1
4648	4647	4651	1
4648	4649	4650	1
4648	4649	4652	1
4645	4646	4647	1
4647	4648	4649	1
4645	4650	4649	1
4645	4650	4654	1
4649	4650	4654	1
4650	4645	4653	1
4650	4649	4652	1
4658	4657	4665	1
4656	4655	7497	1
2755	2754	2765	1
2753	2754	2765	1
2755	2756	2763	1
2757	2756	2763	1
2763	5266	5259	1
2763	5266	5268	1
2754	2765	2767	1
2754	2765	2766	1
2754	2755	2756	1
2754	2755	2759	1
2754	2753	2758	1
2754	2753	2761	1
2756	2763	2764	1
2756	2763	5266	1
2756	2755	2759	1
2756	2757	2758	1
2756	2757	2760	1
2753	2754	2755	1
2755	2756	2757	1
2753	2758	2757	1
2753	2758	2762	1
2757	2758	2762	1
2758	2753	2761	1
2758	2757	2760	1
2767	2765	2766	1
2764	2763	5266	1
1509	1508	1519	1
1507	1508	1519	1
1523	1521	1519	1
1522	1521	1519	1
1509	1510	1517	1
1511	1510	1517	1
670	668	1517	1
669	668	1517	1
1508	1519	1520	1
1521	1519	1508	1
1508	1509	1510	1
1508	1509	1513	1
1508	1507	1512	1
1508	1507	1515	1
1510	1517	1518	1
668	1517	1510	1
1510	1509	1513	1
1510	1511	1512	1
1510	1511	1514	1
1507	1508	1509	1
1509	1510	1511	1
1507	1512	1511	1
1507	1512	1516	1
1511	1512	1516	1
1512	1507	1515	1
1512	1511	1514	1
1521	1519	1520	1
668	1517	1518	1
11322	11321	11332	1
11320	11321	11332	1
11332	9468	9458	1
11332	9468	9470	1
11322	11323	11330	1
11324	11323	11330	1
11330	4118	4111	1
11330	4118	4120	1
11321	11332	11333	1
11321	11332	9468	1
11321	11322	11323	1
11321	11322	11326	1
11321	11320	11325	1
11321	11320	11328	1
11323	11330	11331	1
11323	11330	4118	1
11323	11322	11326	1
11323	11324	11325	1
11323	11324	11327	1
11320	11321	11322	1
11322	11323	11324	1
11320	11325	11324	1
11320	11325	11329	1
11324	11325	11329	1
11325	11320	11328	1
11325	11324	11327	1
11333	11332	9468	1
11331	11330	4118	1
4415	4414	4425	1
4413	4414	4425	1
4425	4433	4427	1
4425	4433	4434	1
4415	4416	4423	1
4417	4416	4423	1
4423	6040	6033	1
4423	6040	6042	1
4414	4425	4426	1
4414	4425	4433	1
4414	4415	4416	1
4414	4415	4419	1
4414	4413	4418	1
4414	4413	4421	1
4416	4423	4424	1
4416	4423	6040	1
4416	4415	4419	1
4416	4417	4418	1
4416	4417	4420	1
4413	4414	4415	1
4415	4416	4417	1
4413	4418	4417	1
4413	4418	4422	1
4417	4418	4422	1
4418	4413	4421	1
4418	4417	4420	1
4426	4425	4433	1
4424	4423	6040	1
8100	8099	8110	1
8098	8099	8110	1
8110	8118	8112	1
8110	8118	8119	1
8100	8101	8108	1
8102	8101	8108	1
8108	5150	5143	1
8108	5150	5152	1
8099	8110	8111	1
8099	8110	8118	1
8099	8100	8101	1
8099	8100	8104	1
8099	8098	8103	1
8099	8098	8106	1
8101	8108	8109	1
8101	8108	5150	1
8101	8100	8104	1
8101	8102	8103	1
8101	8102	8105	1
8098	8099	8100	1
8100	8101	8102	1
8098	8103	8102	1
8098	8103	8107	1
8102	8103	8107	1
8103	8098	8106	1
8103	8102	8105	1
8111	8110	8118	1
8109	8108	5150	1
2920	2919	2930	1
2918	2919	2930	1
2920	2921	2928	1
2922	2921	2928	1
2928	6522	6512	1
2928	6522	6524	1
2919	2930	2932	1
2919	2930	2931	1
2919	2920	2921	1
2919	2920	2924	1
2919	2918	2923	1
2919	2918	2926	1
2921	2928	2929	1
2921	2928	6522	1
2921	2920	2924	1
2921	2922	2923	1
2921	2922	2925	1
2918	2919	2920	1
2920	2921	2922	1
2918	2923	2922	1
2918	2923	2927	1
2922	2923	2927	1
2923	2918	2926	1
2923	2922	2925	1
2932	2930	2931	1
2929	2928	6522	1
7852	7851	7862	1
7850	7851	7862	1
7862	7870	7864	1
7862	7870	7871	1
7852	7853	7860	1
7854	7853	7860	1
7860	4060	4053	1
7860	4060	4062	1
7851	7862	7863	1
7851	7862	7870	1
7851	7852	7853	1
7851	7852	7856	1
7851	7850	7855	1
7851	7850	7858	1
7853	7860	7861	1
7853	7860	4060	1
7853	7852	7856	1
7853	7854	7855	1
7853	7854	7857	1
7850	7851	7852	1
7852	7853	7854	1
7850	7855	7854	1
7850	7855	7859	1
7854	7855	7859	1
7855	7850	7858	1
7855	7854	7857	1
7863	7862	7870	1
7861	7860	4060	1
11980	11979	11990	1
11978	11979	11990	1
11990	5339	5332	1
11990	5339	5341	1
11980	11981	11988	1
11982	11981	11988	1
11988	9511	9504	1
11988	9511	9513	1
11979	11990	11991	1
11979	11990	5339	1
11979	11980	11981	1
11979	11980	11984	1
11979	11978	11983	1
11979	11978	11986	1
11981	11988	11989	1
11981	11988	9511	1
11981	11980	11984	1
11981	11982	11983	1
11981	11982	11985	1
11978	11979	11980	1
11980	11981	11982	1
11978	11983	11982	1
11978	11983	11987	1
11982	11983	11987	1
11983	11978	11986	1
11983	11982	11985	1
11991	11990	5339	1
11989	11988	9511	1
6818	6817	6828	1
6816	6817	6828	1
6828	6836	6830	1
6828	6836	6837	1
6818	6819	6826	1
6820	6819	6826	1
6826	6521	6514	1
6826	6521	6523	1
6817	6828	6829	1
6817	6828	6836	1
6817	6818	6819	1
6817	6818	6822	1
6817	6816	6821	1
6817	6816	6824	1
6819	6826	6827	1
6819	6826	6521	1
6819	6818	6822	1
6819	6820	6821	1
6819	6820	6823	1
6816	6817	6818	1
6818	6819	6820	1
6816	6821	6820	1
6816	6821	6825	1
6820	6821	6825	1
6821	6816	6824	1
6821	6820	6823	1
6829	6828	6836	1
6827	6826	6521	1
322	321	332	1
320	321	332	1
332	6064	6058	1
332	6064	6065	1
322	323	330	1
324	323	330	1
336	334	330	1
335	334	330	1
321	332	333	1
321	332	6064	1
321	322	323	1
321	322	326	1
321	320	325	1
321	320	328	1
323	330	331	1
334	330	323	1
323	322	326	1
323	324	325	1
323	324	327	1
320	321	322	1
322	323	324	1
320	325	324	1
320	325	329	1
324	325	329	1
325	320	328	1
325	324	327	1
333	332	6064	1
334	330	331	1
11392	11391	11402	1
11390	11391	11402	1
11402	4205	4198	1
11402	4205	4207	1
11392	11393	11400	1
11394	11393	11400	1
1436	1438	11400	1
1439	1438	11400	1
11391	11402	11403	1
11391	11402	4205	1
11391	11392	11393	1
11391	11392	11396	1
11391	11390	11395	1
11391	11390	11398	1
11393	11400	11401	1
1438	11400	11393	1
11393	11392	11396	1
11393	11394	11395	1
11393	11394	11397	1
11390	11391	11392	1
11392	11393	11394	1
11390	11395	11394	1
11390	11395	11399	1
11394	11395	11399	1
11395	11390	11398	1
11395	11394	11397	1
11403	11402	4205	1
1438	11400	11401	1
7707	7706	7717	1
7705	7706	7717	1
7717	9936	9926	1
7717	9936	9938	1
7707	7708	7715	1
7709	7708	7715	1
7715	7725	7719	1
7715	7725	7726	1
7706	7717	7718	1
7706	7717	9936	1
7706	7707	7708	1
7706	7707	7711	1
7706	7705	7710	1
7706	7705	7713	1
7708	7715	7716	1
7708	7715	7725	1
7708	7707	7711	1
7708	7709	7710	1
7708	7709	7712	1
7705	7706	7707	1
7707	7708	7709	1
7705	7710	7709	1
7705	7710	7714	1
7709	7710	7714	1
7710	7705	7713	1
7710	7709	7712	1
7718	7717	9936	1
7716	7715	7725	1
4473	4472	4483	1
4471	4472	4483	1
4483	4491	4485	1
4483	4491	4492	1
4473	4474	4481	1
4475	4474	4481	1
4481	8900	8890	1
4481	8900	8902	1
4472	4483	4484	1
4472	4483	4491	1
4472	4473	4474	1
4472	4473	4477	1
4472	4471	4476	1
4472	4471	4479	1
4474	4481	4482	1
4474	4481	8900	1
4474	4473	4477	1
4474	4475	4476	1
4474	4475	4478	1
4471	4472	4473	1
4473	4474	4475	1
4471	4476	4475	1
4471	4476	4480	1
4475	4476	4480	1
4476	4471	4479	1
4476	4475	4478	1
4484	4483	4491	1
4482	4481	8900	1
13576	13575	13586	1
13574	13575	13586	1
13586	11001	10994	1
13586	11001	11003	1
13576	13577	13584	1
13578	13577	13584	1
13584	9848	9838	1
13584	9848	9850	1
13575	13586	13587	1
13575	13586	11001	1
13575	13576	13577	1
13575	13576	13580	1
13575	13574	13579	1
13575	13574	13582	1
13577	13584	13585	1
13577	13584	9848	1
13577	13576	13580	1
13577	13578	13579	1
13577	13578	13581	1
13574	13575	13576	1
13576	13577	13578	1
13574	13579	13578	1
13574	13579	13583	1
13578	13579	13583	1
13579	13574	13582	1
13579	13578	13581	1
13587	13586	11001	1
13585	13584	9848	1
6454	6453	6464	1
6452	6453	6464	1
6464	6472	6466	1
6464	6472	6473	1
6454	6455	6462	1
6456	6455	6462	1
6462	8022	8012	1
6462	8022	8024	1
6453	6464	6465	1
6453	6464	6472	1
6453	6454	6455	1
6453	6454	6458	1
6453	6452	6457	1
6453	6452	6460	1
6455	6462	6463	1
6455	6462	8022	1
6455	6454	6458	1
6455	6456	6457	1
6455	6456	6459	1
6452	6453	6454	1
6454	6455	6456	1
6452	6457	6456	1
6452	6457	6461	1
6456	6457	6461	1
6457	6452	6460	1
6457	6456	6459	1
6465	6464	6472	1
6463	6462	8022	1
6309	6308	6319	1
6307	6308	6319	1
6319	6327	6321	1
6319	6327	6328	1
6309	6310	6317	1
6311	6310	6317	1
6317	10197	10187	1
6317	10197	10199	1
6308	6319	6320	1
6308	6319	6327	1
6308	6309	6310	1
6308	6309	6313	1
6308	6307	6312	1
6308	6307	6315	1
6310	6317	6318	1
6310	6317	10197	1
6310	6309	6313	1
6310	6311	6312	1
6310	6311	6314	1
6307	6308	6309	1
6309	6310	6311	1
6307	6312	6311	1
6307	6312	6316	1
6311	6312	6316	1
6312	6307	6315	1
6312	6311	6314	1
6320	6319	6327	1
6318	6317	10197	1
3610	3609	3620	1
3608	3609	3620	1
3610	3611	3618	1
3612	3611	3618	1
3618	10927	10920	1
3618	10927	10929	1
3609	3620	3622	1
3609	3620	3621	1
3609	3610	3611	1
3609	3610	3614	1
3609	3608	3613	1
3609	3608	3616	1
3611	3618	3619	1
3611	3618	10927	1
3611	3610	3614	1
3611	3612	3613	1
3611	3612	3615	1
3608	3609	3610	1
3610	3611	3612	1
3608	3613	3612	1
3608	3613	3617	1
3612	3613	3617	1
3613	3608	3616	1
3613	3612	3615	1
3621	3620	3622	1
3619	3618	10927	1
12428	12427	12438	1
12426	12427	12438	1
12438	6041	6031	1
12438	6041	6043	1
12428	12429	12436	1
12430	12429	12436	1
12436	10942	10935	1
12436	10942	10944	1
12427	12438	12439	1
12427	12438	6041	1
12427	12428	12429	1
12427	12428	12432	1
12427	12426	12431	1
12427	12426	12434	1
12429	12436	12437	1
12429	12436	10942	1
12429	12428	12432	1
12429	12430	12431	1
12429	12430	12433	1
12426	12427	12428	1
12428	12429	12430	1
12426	12431	12430	1
12426	12431	12435	1
12430	12431	12435	1
12431	12426	12434	1
12431	12430	12433	1
12439	12438	6041	1
12437	12436	10942	1
2484	2483	2494	1
2482	2483	2494	1
2494	7346	7340	1
2494	7346	7347	1
2484	2485	2492	1
2486	2485	2492	1
2465	2471	2492	1
2472	2471	2492	1
2483	2494	2495	1
2483	2494	7346	1
2483	2484	2485	1
2483	2484	2488	1
2483	2482	2487	1
2483	2482	2490	1
2485	2492	2493	1
2471	2492	2485	1
2485	2484	2488	1
2485	2486	2487	1
2485	2486	2489	1
2482	2483	2484	1
2484	2485	2486	1
2482	2487	2486	1
2482	2487	2491	1
2486	2487	2491	1
2487	2482	2490	1
2487	2486	2489	1
2495	2494	7346	1
2471	2492	2493	1
2965	2964	2975	1
2963	2964	2975	1
2965	2966	2973	1
2967	2966	2973	1
2973	6880	6874	1
2973	6880	6881	1
2964	2975	2977	1
2964	2975	2976	1
2964	2965	2966	1
2964	2965	2969	1
2964	2963	2968	1
2964	2963	2971	1
2966	2973	2974	1
2966	2973	6880	1
2966	2965	2969	1
2966	2967	2968	1
2966	2967	2970	1
2963	2964	2965	1
2965	2966	2967	1
2963	2968	2967	1
2963	2968	2972	1
2967	2968	2972	1
2968	2963	2971	1
2968	2967	2970	1
2977	2975	2976	1
2974	2973	6880	1
6527	6526	6537	1
6525	6526	6537	1
6537	6545	6539	1
6537	6545	6546	1
6527	6528	6535	1
6529	6528	6535	1
6535	8060	8054	1
6535	8060	8061	1
6526	6537	6538	1
6526	6537	6545	1
6526	6527	6528	1
6526	6527	6531	1
6526	6525	6530	1
6526	6525	6533	1
6528	6535	6536	1
6528	6535	8060	1
6528	6527	6531	1
6528	6529	6530	1
6528	6529	6532	1
6525	6526	6527	1
6527	6528	6529	1
6525	6530	6529	1
6525	6530	6534	1
6529	6530	6534	1
6530	6525	6533	1
6530	6529	6532	1
6538	6537	6545	1
6536	6535	8060	1
977	976	987	1
975	976	987	1
987	9658	9651	1
987	9658	9660	1
977	978	985	1
979	978	985	1
958	964	985	1
965	964	985	1
976	987	988	1
976	987	9658	1
976	977	978	1
976	977	981	1
976	975	980	1
976	975	983	1
978	985	986	1
964	985	978	1
978	977	981	1
978	979	980	1
978	979	982	1
975	976	977	1
977	978	979	1
975	980	979	1
975	980	984	1
979	980	984	1
980	975	983	1
980	979	982	1
988	987	9658	1
964	985	986	1
748	747	758	1
746	747	758	1
762	760	758	1
761	760	758	1
748	749	756	1
750	749	756	1
1281	1279	756	1
1280	1279	756	1
747	758	759	1
760	758	747	1
747	748	749	1
747	748	752	1
747	746	751	1
747	746	754	1
749	756	757	1
1279	756	749	1
749	748	752	1
749	750	751	1
749	750	753	1
746	747	748	1
748	749	750	1
746	751	750	1
746	751	755	1
750	751	755	1
751	746	754	1
751	750	753	1
760	758	759	1
1279	756	757	1
1297	1298	1305	1
1299	1298	1305	1
1311	1309	1305	1
1310	1309	1305	1
1297	1296	1307	1
1295	1296	1307	1
1307	5538	5532	1
1307	5538	5539	1
1298	1305	1306	1
1309	1305	1298	1
1298	1297	1296	1
1298	1297	1301	1
1298	1299	1300	1
1298	1299	1302	1
1296	1307	1308	1
1296	1307	5538	1
1296	1297	1301	1
1296	1295	1300	1
1296	1295	1303	1
1299	1298	1297	1
1297	1296	1295	1
1299	1300	1295	1
1299	1300	1304	1
1295	1300	1304	1
1300	1299	1302	1
1300	1295	1303	1
1309	1305	1306	1
1308	1307	5538	1
3745	3744	3755	1
3743	3744	3755	1
3745	3746	3753	1
3747	3746	3753	1
1450	1457	3753	1
1459	1457	3753	1
3744	3755	3757	1
3744	3755	3756	1
3744	3745	3746	1
3744	3745	3749	1
3744	3743	3748	1
3744	3743	3751	1
3746	3753	3754	1
1457	3753	3746	1
3746	3745	3749	1
3746	3747	3748	1
3746	3747	3750	1
3743	3744	3745	1
3745	3746	3747	1
3743	3748	3747	1
3743	3748	3752	1
3747	3748	3752	1
3748	3743	3751	1
3748	3747	3750	1
3757	3755	3756	1
1457	3753	3754	1
12092	12091	12102	1
12090	12091	12102	1
12102	9599	9592	1
12102	9599	9601	1
12092	12093	12100	1
12094	12093	12100	1
12100	5543	5536	1
12100	5543	5545	1
12091	12102	12103	1
12091	12102	9599	1
12091	12092	12093	1
12091	12092	12096	1
12091	12090	12095	1
12091	12090	12098	1
12093	12100	12101	1
12093	12100	5543	1
12093	12092	12096	1
12093	12094	12095	1
12093	12094	12097	1
12090	12091	12092	1
12092	12093	12094	1
12090	12095	12094	1
12090	12095	12099	1
12094	12095	12099	1
12095	12090	12098	1
12095	12094	12097	1
12103	12102	9599	1
12101	12100	5543	1
13310	13311	13318	1
13312	13311	13318	1
13318	8564	8554	1
13318	8564	8566	1
13310	13309	13320	1
13308	13309	13320	1
13320	8330	8320	1
13320	8330	8332	1
13311	13318	13319	1
13311	13318	8564	1
13311	13310	13309	1
13311	13310	13314	1
13311	13312	13313	1
13311	13312	13315	1
13309	13320	13321	1
13309	13320	8330	1
13309	13310	13314	1
13309	13308	13313	1
13309	13308	13316	1
13312	13311	13310	1
13310	13309	13308	1
13312	13313	13308	1
13312	13313	13317	1
13308	13313	13317	1
13313	13312	13315	1
13313	13308	13316	1
13319	13318	8564	1
13321	13320	8330	1
12050	12049	12060	1
12048	12049	12060	1
12060	5500	5490	1
12060	5500	5502	1
12050	12051	12058	1
12052	12051	12058	1
12058	5689	5682	1
12058	5689	5691	1
12049	12060	12061	1
12049	12060	5500	1
12049	12050	12051	1
12049	12050	12054	1
12049	12048	12053	1
12049	12048	12056	1
12051	12058	12059	1
12051	12058	5689	1
12051	12050	12054	1
12051	12052	12053	1
12051	12052	12055	1
12048	12049	12050	1
12050	12051	12052	1
12048	12053	12052	1
12048	12053	12057	1
12052	12053	12057	1
12053	12048	12056	1
12053	12052	12055	1
12061	12060	5500	1
12059	12058	5689	1
9139	9138	9149	1
9137	9138	9149	1
9149	9157	9151	1
9149	9157	9158	1
9139	9140	9147	1
9141	9140	9147	1
9147	4860	4850	1
9147	4860	4862	1
9138	9149	9150	1
9138	9149	9157	1
9138	9139	9140	1
9138	9139	9143	1
9138	9137	9142	1
9138	9137	9145	1
9140	9147	9148	1
9140	9147	4860	1
9140	9139	9143	1
9140	9141	9142	1
9140	9141	9144	1
9137	9138	9139	1
9139	9140	9141	1
9137	9142	9141	1
9137	9142	9146	1
9141	9142	9146	1
9142	9137	9145	1
9142	9141	9144	1
9150	9149	9157	1
9148	9147	4860	1
1160	1159	1170	1
1158	1159	1170	1
1170	5772	5766	1
1170	5772	5773	1
1160	1161	1168	1
1162	1161	1168	1
1174	1172	1168	1
1173	1172	1168	1
1159	1170	1171	1
1159	1170	5772	1
1159	1160	1161	1
1159	1160	1164	1
1159	1158	1163	1
1159	1158	1166	1
1161	1168	1169	1
1172	1168	1161	1
1161	1160	1164	1
1161	1162	1163	1
1161	1162	1165	1
1158	1159	1160	1
1160	1161	1162	1
1158	1163	1162	1
1158	1163	1167	1
1162	1163	1167	1
1163	1158	1166	1
1163	1162	1165	1
1171	1170	5772	1
1172	1168	1169	1
12862	12861	12872	1
12860	12861	12872	1
12872	7148	7138	1
12872	7148	7150	1
12862	12863	12870	1
12864	12863	12870	1
12870	7366	7359	1
12870	7366	7368	1
12861	12872	12873	1
12861	12872	7148	1
12861	12862	12863	1
12861	12862	12866	1
12861	12860	12865	1
12861	12860	12868	1
12863	12870	12871	1
12863	12870	7366	1
12863	12862	12866	1
12863	12864	12865	1
12863	12864	12867	1
12860	12861	12862	1
12862	12863	12864	1
12860	12865	12864	1
12860	12865	12869	1
12864	12865	12869	1
12865	12860	12868	1
12865	12864	12867	1
12873	12872	7148	1
12871	12870	7366	1
3460	3459	3470	1
3458	3459	3470	1
3460	3461	3468	1
3462	3461	3468	1
3468	9615	9605	1
3468	9615	9617	1
3459	3470	3471	1
3459	3470	3472	1
3459	3460	3461	1
3459	3460	3464	1
3459	3458	3463	1
3459	3458	3466	1
3461	3468	3469	1
3461	3468	9615	1
3461	3460	3464	1
3461	3462	3463	1
3461	3462	3465	1
3458	3459	3460	1
3460	3461	3462	1
3458	3463	3462	1
3458	3463	3467	1
3462	3463	3467	1
3463	3458	3466	1
3463	3462	3465	1
3471	3470	3472	1
3469	3468	9615	1
3040	3041	3048	1
3042	3041	3048	1
3048	7536	7530	1
3048	7536	7537	1
3040	3039	3050	1
3038	3039	3050	1
3041	3048	3049	1
3041	3048	7536	1
3039	3040	3041	1
3041	3040	3044	1
3041	3042	3043	1
3041	3042	3045	1
3039	3050	3052	1
3039	3050	3051	1
3039	3040	3044	1
3039	3038	3043	1
3039	3038	3046	1
3040	3041	3042	1
3038	3039	3040	1
3038	3043	3042	1
3042	3043	3047	1
3038	3043	3047	1
3043	3042	3045	1
3043	3038	3046	1
3049	3048	7536	1
3052	3050	3051	1
12722	12721	12732	1
12720	12721	12732	1
12732	6813	6803	1
12732	6813	6815	1
12722	12723	12730	1
12724	12723	12730	1
12730	6682	6672	1
12730	6682	6684	1
12721	12732	12733	1
12721	12732	6813	1
12721	12722	12723	1
12721	12722	12726	1
12721	12720	12725	1
12721	12720	12728	1
12723	12730	12731	1
12723	12730	6682	1
12723	12722	12726	1
12723	12724	12725	1
12723	12724	12727	1
12720	12721	12722	1
12722	12723	12724	1
12720	12725	12724	1
12720	12725	12729	1
12724	12725	12729	1
12725	12720	12728	1
12725	12724	12727	1
12733	12732	6813	1
12731	12730	6682	1
3055	3054	3065	1
3053	3054	3065	1
3055	3056	3063	1
3057	3056	3063	1
3063	7609	7603	1
3063	7609	7610	1
3054	3065	3067	1
3054	3065	3066	1
3054	3055	3056	1
3054	3055	3059	1
3054	3053	3058	1
3054	3053	3061	1
3056	3063	3064	1
3056	3063	7609	1
3056	3055	3059	1
3056	3057	3058	1
3056	3057	3060	1
3053	3054	3055	1
3055	3056	3057	1
3053	3058	3057	1
3053	3058	3062	1
3057	3058	3062	1
3058	3053	3061	1
3058	3057	3060	1
3067	3065	3066	1
3064	3063	7609	1
8071	8070	8081	1
8069	8070	8081	1
8081	8089	8083	1
8081	8089	8090	1
8071	8072	8079	1
8073	8072	8079	1
8079	8066	8056	1
8079	8066	8068	1
8070	8081	8082	1
8070	8081	8089	1
8070	8071	8072	1
8070	8071	8075	1
8070	8069	8074	1
8070	8069	8077	1
8072	8079	8080	1
8072	8079	8066	1
8072	8071	8075	1
8072	8073	8074	1
8072	8073	8076	1
8069	8070	8071	1
8071	8072	8073	1
8069	8074	8073	1
8069	8074	8078	1
8073	8074	8078	1
8074	8069	8077	1
8074	8073	8076	1
8082	8081	8089	1
8080	8079	8066	1
12456	12455	12466	1
12454	12455	12466	1
12466	6127	6120	1
12466	6127	6129	1
12456	12457	12464	1
12458	12457	12464	1
12464	7031	7024	1
12464	7031	7033	1
12455	12466	12467	1
12455	12466	6127	1
12455	12456	12457	1
12455	12456	12460	1
12455	12454	12459	1
12455	12454	12462	1
12457	12464	12465	1
12457	12464	7031	1
12457	12456	12460	1
12457	12458	12459	1
12457	12458	12461	1
12454	12455	12456	1
12456	12457	12458	1
12454	12459	12458	1
12454	12459	12463	1
12458	12459	12463	1
12459	12454	12462	1
12459	12458	12461	1
12467	12466	6127	1
12465	12464	7031	1
4037	4036	4047	1
4035	4036	4047	1
4047	4055	4049	1
4047	4055	4056	1
4037	4038	4045	1
4039	4038	4045	1
4045	8988	8978	1
4045	8988	8990	1
4036	4047	4048	1
4036	4047	4055	1
4036	4037	4038	1
4036	4037	4041	1
4036	4035	4040	1
4036	4035	4043	1
4038	4045	4046	1
4038	4045	8988	1
4038	4037	4041	1
4038	4039	4040	1
4038	4039	4042	1
4035	4036	4037	1
4037	4038	4039	1
4035	4040	4039	1
4035	4040	4044	1
4039	4040	4044	1
4040	4035	4043	1
4040	4039	4042	1
4048	4047	4055	1
4046	4045	8988	1
11700	11699	11710	1
11698	11699	11710	1
11710	4757	4750	1
11710	4757	4759	1
11700	11701	11708	1
11702	11701	11708	1
11708	6812	6805	1
11708	6812	6814	1
11699	11710	11711	1
11699	11710	4757	1
11699	11700	11701	1
11699	11700	11704	1
11699	11698	11703	1
11699	11698	11706	1
11701	11708	11709	1
11701	11708	6812	1
11701	11700	11704	1
11701	11702	11703	1
11701	11702	11705	1
11698	11699	11700	1
11700	11701	11702	1
11698	11703	11702	1
11698	11703	11707	1
11702	11703	11707	1
11703	11698	11706	1
11703	11702	11705	1
11711	11710	4757	1
11709	11708	6812	1
9342	9341	9352	1
9340	9341	9352	1
9352	9360	9354	1
9352	9360	9361	1
9342	9343	9350	1
9344	9343	9350	1
9350	10168	10158	1
9350	10168	10170	1
9341	9352	9353	1
9341	9352	9360	1
9341	9342	9343	1
9341	9342	9346	1
9341	9340	9345	1
9341	9340	9348	1
9343	9350	9351	1
9343	9350	10168	1
9343	9342	9346	1
9343	9344	9345	1
9343	9344	9347	1
9340	9341	9342	1
9342	9343	9344	1
9340	9345	9344	1
9340	9345	9349	1
9344	9345	9349	1
9345	9340	9348	1
9345	9344	9347	1
9353	9352	9360	1
9351	9350	10168	1
12750	12749	12760	1
12748	12749	12760	1
1679	1681	12760	1
1682	1681	12760	1
12750	12751	12758	1
12752	12751	12758	1
12758	6740	6730	1
12758	6740	6742	1
12749	12760	12761	1
1681	12760	12749	1
12749	12750	12751	1
12749	12750	12754	1
12749	12748	12753	1
12749	12748	12756	1
12751	12758	12759	1
12751	12758	6740	1
12751	12750	12754	1
12751	12752	12753	1
12751	12752	12755	1
12748	12749	12750	1
12750	12751	12752	1
12748	12753	12752	1
12748	12753	12757	1
12752	12753	12757	1
12753	12748	12756	1
12753	12752	12755	1
1681	12760	12761	1
12759	12758	6740	1
13758	13757	13768	1
13756	13757	13768	1
1955	1957	13768	1
1958	1957	13768	1
13758	13759	13766	1
13760	13759	13766	1
522	524	13766	1
525	524	13766	1
13757	13768	13769	1
1957	13768	13757	1
13757	13758	13759	1
13757	13758	13762	1
13757	13756	13761	1
13757	13756	13764	1
13759	13766	13767	1
524	13766	13759	1
13759	13758	13762	1
13759	13760	13761	1
13759	13760	13763	1
13756	13757	13758	1
13758	13759	13760	1
13756	13761	13760	1
13756	13761	13765	1
13760	13761	13765	1
13761	13756	13764	1
13761	13760	13763	1
1957	13768	13769	1
524	13766	13767	1
10466	10465	10476	1
10464	10465	10476	1
10476	10484	10478	1
10476	10484	10485	1
10466	10467	10474	1
10468	10467	10474	1
10474	6156	6149	1
10474	6156	6158	1
10465	10476	10477	1
10465	10476	10484	1
10465	10466	10467	1
10465	10466	10470	1
10465	10464	10469	1
10465	10464	10472	1
10467	10474	10475	1
10467	10474	6156	1
10467	10466	10470	1
10467	10468	10469	1
10467	10468	10471	1
10464	10465	10466	1
10466	10467	10468	1
10464	10469	10468	1
10464	10469	10473	1
10468	10469	10473	1
10469	10464	10472	1
10469	10468	10471	1
10477	10476	10484	1
10475	10474	6156	1
9561	9560	9571	1
9559	9560	9571	1
9571	9579	9573	1
9571	9579	9580	1
9561	9562	9569	1
9563	9562	9569	1
9569	4119	4109	1
9569	4119	4121	1
9560	9571	9572	1
9560	9571	9579	1
9560	9561	9562	1
9560	9561	9565	1
9560	9559	9564	1
9560	9559	9567	1
9562	9569	9570	1
9562	9569	4119	1
9562	9561	9565	1
9562	9563	9564	1
9562	9563	9566	1
9559	9560	9561	1
9561	9562	9563	1
9559	9564	9563	1
9559	9564	9568	1
9563	9564	9568	1
9564	9559	9567	1
9564	9563	9566	1
9572	9571	9579	1
9570	9569	4119	1
3760	3761	3768	1
3762	3761	3768	1
2363	2365	3768	1
2366	2365	3768	1
3760	3759	3770	1
3758	3759	3770	1
3761	3768	3769	1
2365	3768	3761	1
3759	3760	3761	1
3761	3760	3764	1
3761	3762	3763	1
3761	3762	3765	1
3759	3770	3771	1
3759	3770	3772	1
3759	3760	3764	1
3759	3758	3763	1
3759	3758	3766	1
3760	3761	3762	1
3758	3759	3760	1
3758	3763	3762	1
3762	3763	3767	1
3758	3763	3767	1
3763	3762	3765	1
3763	3758	3766	1
2365	3768	3769	1
3771	3770	3772	1
12442	12441	12452	1
12440	12441	12452	1
12452	6070	6060	1
12452	6070	6072	1
12442	12443	12450	1
12444	12443	12450	1
12450	7542	7532	1
12450	7542	7544	1
12441	12452	12453	1
12441	12452	6070	1
12441	12442	12443	1
12441	12442	12446	1
12441	12440	12445	1
12441	12440	12448	1
12443	12450	12451	1
12443	12450	7542	1
12443	12442	12446	1
12443	12444	12445	1
12443	12444	12447	1
12440	12441	12442	1
12442	12443	12444	1
12440	12445	12444	1
12440	12445	12449	1
12444	12445	12449	1
12445	12440	12448	1
12445	12444	12447	1
12453	12452	6070	1
12451	12450	7542	1
13380	13379	13390	1
13378	13379	13390	1
13390	8607	8600	1
13390	8607	8609	1
13380	13381	13388	1
13382	13381	13388	1
13388	9629	9622	1
13388	9629	9631	1
13379	13390	13391	1
13379	13390	8607	1
13379	13380	13381	1
13379	13380	13384	1
13379	13378	13383	1
13379	13378	13386	1
13381	13388	13389	1
13381	13388	9629	1
13381	13380	13384	1
13381	13382	13383	1
13381	13382	13385	1
13378	13379	13380	1
13380	13381	13382	1
13378	13383	13382	1
13378	13383	13387	1
13382	13383	13387	1
13383	13378	13386	1
13383	13382	13385	1
13391	13390	8607	1
13389	13388	9629	1
595	594	605	1
593	594	605	1
609	607	605	1
608	607	605	1
595	596	603	1
597	596	603	1
603	4336	4329	1
603	4336	4338	1
594	605	606	1
607	605	594	1
594	595	596	1
594	595	599	1
594	593	598	1
594	593	601	1
596	603	604	1
596	603	4336	1
596	595	599	1
596	597	598	1
596	597	600	1
593	594	595	1
595	596	597	1
593	598	597	1
593	598	602	1
597	598	602	1
598	593	601	1
598	597	600	1
607	605	606	1
604	603	4336	1
13352	13351	13362	1
13350	13351	13362	1
13362	8374	8364	1
13362	8374	8376	1
13352	13353	13360	1
13354	13353	13360	1
13360	8446	8439	1
13360	8446	8448	1
13351	13362	13363	1
13351	13362	8374	1
13351	13352	13353	1
13351	13352	13356	1
13351	13350	13355	1
13351	13350	13358	1
13353	13360	13361	1
13353	13360	8446	1
13353	13352	13356	1
13353	13354	13355	1
13353	13354	13357	1
13350	13351	13352	1
13352	13353	13354	1
13350	13355	13354	1
13350	13355	13359	1
13354	13355	13359	1
13355	13350	13358	1
13355	13354	13357	1
13363	13362	8374	1
13361	13360	8446	1
12890	12891	12898	1
12892	12891	12898	1
12898	7978	7968	1
12898	7978	7980	1
12890	12889	12900	1
12888	12889	12900	1
12900	7307	7300	1
12900	7307	7309	1
12891	12898	12899	1
12891	12898	7978	1
12891	12890	12889	1
12891	12890	12894	1
12891	12892	12893	1
12891	12892	12895	1
12889	12900	12901	1
12889	12900	7307	1
12889	12890	12894	1
12889	12888	12893	1
12889	12888	12896	1
12892	12891	12890	1
12890	12889	12888	1
12892	12893	12888	1
12892	12893	12897	1
12888	12893	12897	1
12893	12892	12895	1
12893	12888	12896	1
12899	12898	7978	1
12901	12900	7307	1
2740	2741	2748	1
2742	2741	2748	1
2748	5208	5201	1
2748	5208	5210	1
2740	2739	2750	1
2738	2739	2750	1
2741	2748	2749	1
2741	2748	5208	1
2739	2740	2741	1
2741	2740	2744	1
2741	2742	2743	1
2741	2742	2745	1
2739	2750	2751	1
2739	2750	2752	1
2739	2740	2744	1
2739	2738	2743	1
2739	2738	2746	1
2740	2741	2742	1
2738	2739	2740	1
2738	2743	2742	1
2742	2743	2747	1
2738	2743	2747	1
2743	2742	2745	1
2743	2738	2746	1
2749	2748	5208	1
2752	2750	2751	1
1769	1768	1779	1
1767	1768	1779	1
1779	10357	10350	1
1779	10357	10359	1
1769	1770	1777	1
1771	1770	1777	1
1750	1756	1777	1
1757	1756	1777	1
1768	1779	1780	1
1768	1779	10357	1
1768	1769	1770	1
1768	1769	1773	1
1768	1767	1772	1
1768	1767	1775	1
1770	1777	1778	1
1756	1777	1770	1
1770	1769	1773	1
1770	1771	1772	1
1770	1771	1774	1
1767	1768	1769	1
1769	1770	1771	1
1767	1772	1771	1
1767	1772	1776	1
1771	1772	1776	1
1772	1767	1775	1
1772	1771	1774	1
1780	1779	10357	1
1756	1777	1778	1
11052	11051	11062	1
11050	11051	11062	1
2532	2534	11062	1
2535	2534	11062	1
11052	11053	11060	1
11054	11053	11060	1
11060	11070	11064	1
11060	11070	11071	1
11051	11062	11063	1
2534	11062	11051	1
11051	11052	11053	1
11051	11052	11056	1
11051	11050	11055	1
11051	11050	11058	1
11053	11060	11061	1
11053	11060	11070	1
11053	11052	11056	1
11053	11054	11055	1
11053	11054	11057	1
11050	11051	11052	1
11052	11053	11054	1
11050	11055	11054	1
11050	11055	11059	1
11054	11055	11059	1
11055	11050	11058	1
11055	11054	11057	1
2534	11062	11063	1
11061	11060	11070	1
886	885	896	1
884	885	896	1
896	9163	9153	1
896	9163	9165	1
886	887	894	1
888	887	894	1
867	873	894	1
874	873	894	1
885	896	897	1
885	896	9163	1
885	886	887	1
885	886	890	1
885	884	889	1
885	884	892	1
887	894	895	1
873	894	887	1
887	886	890	1
887	888	889	1
887	888	891	1
884	885	886	1
886	887	888	1
884	889	888	1
884	889	893	1
888	889	893	1
889	884	892	1
889	888	891	1
897	896	9163	1
873	894	895	1
3520	3519	3530	1
3518	3519	3530	1
3520	3521	3528	1
3522	3521	3528	1
3528	9993	9986	1
3528	9993	9995	1
3519	3530	3531	1
3519	3530	3532	1
3519	3520	3521	1
3519	3520	3524	1
3519	3518	3523	1
3519	3518	3526	1
3521	3528	3529	1
3521	3528	9993	1
3521	3520	3524	1
3521	3522	3523	1
3521	3522	3525	1
3518	3519	3520	1
3520	3521	3522	1
3518	3523	3522	1
3518	3523	3527	1
3522	3523	3527	1
3523	3518	3526	1
3523	3522	3525	1
3532	3530	3531	1
3529	3528	9993	1
12932	12931	12942	1
12930	12931	12942	1
12942	7367	7357	1
12942	7367	7369	1
12932	12933	12940	1
12934	12933	12940	1
12940	8821	8815	1
12940	8821	8822	1
12931	12942	12943	1
12931	12942	7367	1
12931	12932	12933	1
12931	12932	12936	1
12931	12930	12935	1
12931	12930	12938	1
12933	12940	12941	1
12933	12940	8821	1
12933	12932	12936	1
12933	12934	12935	1
12933	12934	12937	1
12930	12931	12932	1
12932	12933	12934	1
12930	12935	12934	1
12930	12935	12939	1
12934	12935	12939	1
12935	12930	12938	1
12935	12934	12937	1
12943	12942	7367	1
12941	12940	8821	1
2422	2421	2432	1
2420	2421	2432	1
2432	8418	8408	1
2432	8418	8420	1
2422	2423	2430	1
2424	2423	2430	1
2403	2409	2430	1
2410	2409	2430	1
2421	2432	2433	1
2421	2432	8418	1
2421	2422	2423	1
2421	2422	2426	1
2421	2420	2425	1
2421	2420	2428	1
2423	2430	2431	1
2409	2430	2423	1
2423	2422	2426	1
2423	2424	2425	1
2423	2424	2427	1
2420	2421	2422	1
2422	2423	2424	1
2420	2425	2424	1
2420	2425	2429	1
2424	2425	2429	1
2425	2420	2428	1
2425	2424	2427	1
2433	2432	8418	1
2409	2430	2431	1
9371	9370	9381	1
9369	9370	9381	1
9381	9389	9383	1
9381	9389	9390	1
9371	9372	9379	1
9373	9372	9379	1
9379	10796	10789	1
9379	10796	10798	1
9370	9381	9382	1
9370	9381	9389	1
9370	9371	9372	1
9370	9371	9375	1
9370	9369	9374	1
9370	9369	9377	1
9372	9379	9380	1
9372	9379	10796	1
9372	9371	9375	1
9372	9373	9374	1
9372	9373	9376	1
9369	9370	9371	1
9371	9372	9373	1
9369	9374	9373	1
9369	9374	9378	1
9373	9374	9378	1
9374	9369	9377	1
9374	9373	9376	1
9382	9381	9389	1
9380	9379	10796	1
12302	12303	12310	1
12304	12303	12310	1
12310	5806	5799	1
12310	5806	5808	1
12302	12301	12312	1
12300	12301	12312	1
12312	8724	8717	1
12312	8724	8726	1
12303	12310	12311	1
12303	12310	5806	1
12303	12302	12301	1
12303	12302	12306	1
12303	12304	12305	1
12303	12304	12307	1
12301	12312	12313	1
12301	12312	8724	1
12301	12302	12306	1
12301	12300	12305	1
12301	12300	12308	1
12304	12303	12302	1
12302	12301	12300	1
12304	12305	12300	1
12304	12305	12309	1
12300	12305	12309	1
12305	12304	12307	1
12305	12300	12308	1
12311	12310	5806	1
12313	12312	8724	1
8188	8187	8198	1
8186	8187	8198	1
8198	8206	8200	1
8198	8206	8207	1
8188	8189	8196	1
8190	8189	8196	1
8196	9907	9897	1
8196	9907	9909	1
8187	8198	8199	1
8187	8198	8206	1
8187	8188	8189	1
8187	8188	8192	1
8187	8186	8191	1
8187	8186	8194	1
8189	8196	8197	1
8189	8196	9907	1
8189	8188	8192	1
8189	8190	8191	1
8189	8190	8193	1
8186	8187	8188	1
8188	8189	8190	1
8186	8191	8190	1
8186	8191	8195	1
8190	8191	8195	1
8191	8186	8194	1
8191	8190	8193	1
8199	8198	8206	1
8197	8196	9907	1
13520	13519	13530	1
13518	13519	13530	1
13530	9438	9431	1
13530	9438	9440	1
13520	13521	13528	1
13522	13521	13528	1
13528	9105	9095	1
13528	9105	9107	1
13519	13530	13531	1
13519	13530	9438	1
13519	13520	13521	1
13519	13520	13524	1
13519	13518	13523	1
13519	13518	13526	1
13521	13528	13529	1
13521	13528	9105	1
13521	13520	13524	1
13521	13522	13523	1
13521	13522	13525	1
13518	13519	13520	1
13520	13521	13522	1
13518	13523	13522	1
13518	13523	13527	1
13522	13523	13527	1
13523	13518	13526	1
13523	13522	13525	1
13531	13530	9438	1
13529	13528	9105	1
9635	9634	9645	1
9633	9634	9645	1
9645	5020	5010	1
9645	5020	5022	1
9635	9636	9643	1
9637	9636	9643	1
9643	9659	9649	1
9643	9659	9661	1
9634	9645	9646	1
9634	9645	5020	1
9634	9635	9636	1
9634	9635	9639	1
9634	9633	9638	1
9634	9633	9641	1
9636	9643	9644	1
9636	9643	9659	1
9636	9635	9639	1
9636	9637	9638	1
9636	9637	9640	1
9633	9634	9635	1
9635	9636	9637	1
9633	9638	9637	1
9633	9638	9642	1
9637	9638	9642	1
9638	9633	9641	1
9638	9637	9640	1
9646	9645	5020	1
9644	9643	9659	1
4008	4007	4018	1
4006	4007	4018	1
4018	4026	4020	1
4018	4026	4027	1
4008	4009	4016	1
4010	4009	4016	1
4016	7600	7590	1
4016	7600	7602	1
4007	4018	4019	1
4007	4018	4026	1
4007	4008	4009	1
4007	4008	4012	1
4007	4006	4011	1
4007	4006	4014	1
4009	4016	4017	1
4009	4016	7600	1
4009	4008	4012	1
4009	4010	4011	1
4009	4010	4013	1
4006	4007	4008	1
4008	4009	4010	1
4006	4011	4010	1
4006	4011	4015	1
4010	4011	4015	1
4011	4006	4014	1
4011	4010	4013	1
4019	4018	4026	1
4017	4016	7600	1
8540	8541	8548	1
8542	8541	8548	1
2546	2553	8548	1
2555	2553	8548	1
8540	8539	8550	1
8538	8539	8550	1
8550	8558	8552	1
8550	8558	8559	1
8541	8548	8549	1
2553	8548	8541	1
8541	8540	8539	1
8541	8540	8544	1
8541	8542	8543	1
8541	8542	8545	1
8539	8550	8551	1
8539	8550	8558	1
8539	8540	8544	1
8539	8538	8543	1
8539	8538	8546	1
8542	8541	8540	1
8540	8539	8538	1
8542	8543	8538	1
8542	8543	8547	1
8538	8543	8547	1
8543	8542	8545	1
8543	8538	8546	1
2553	8548	8549	1
8551	8550	8558	1
7620	7619	7630	1
7618	7619	7630	1
7630	7638	7632	1
7630	7638	7639	1
7620	7621	7628	1
7622	7621	7628	1
7628	7905	7895	1
7628	7905	7907	1
7619	7630	7631	1
7619	7630	7638	1
7619	7620	7621	1
7619	7620	7624	1
7619	7618	7623	1
7619	7618	7626	1
7621	7628	7629	1
7621	7628	7905	1
7621	7620	7624	1
7621	7622	7623	1
7621	7622	7625	1
7618	7619	7620	1
7620	7621	7622	1
7618	7623	7622	1
7618	7623	7627	1
7622	7623	7627	1
7623	7618	7626	1
7623	7622	7625	1
7631	7630	7638	1
7629	7628	7905	1
11742	11741	11752	1
11740	11741	11752	1
11752	8928	8921	1
11752	8928	8930	1
11742	11743	11750	1
11744	11743	11750	1
11750	4831	4821	1
11750	4831	4833	1
11741	11752	11753	1
11741	11752	8928	1
11741	11742	11743	1
11741	11742	11746	1
11741	11740	11745	1
11741	11740	11748	1
11743	11750	11751	1
11743	11750	4831	1
11743	11742	11746	1
11743	11744	11745	1
11743	11744	11747	1
11740	11741	11742	1
11742	11743	11744	1
11740	11745	11744	1
11740	11745	11749	1
11744	11745	11749	1
11745	11740	11748	1
11745	11744	11747	1
11753	11752	8928	1
11751	11750	4831	1
11770	11769	11780	1
11768	11769	11780	1
11780	9307	9300	1
11780	9307	9309	1
11770	11771	11778	1
11772	11771	11778	1
11778	4859	4852	1
11778	4859	4861	1
11769	11780	11781	1
11769	11780	9307	1
11769	11770	11771	1
11769	11770	11774	1
11769	11768	11773	1
11769	11768	11776	1
11771	11778	11779	1
11771	11778	4859	1
11771	11770	11774	1
11771	11772	11773	1
11771	11772	11775	1
11768	11769	11770	1
11770	11771	11772	1
11768	11773	11772	1
11768	11773	11777	1
11772	11773	11777	1
11773	11768	11776	1
11773	11772	11775	1
11781	11780	9307	1
11779	11778	4859	1
3863	3862	3873	1
3861	3862	3873	1
3873	3881	3875	1
3873	3881	3882	1
3863	3864	3871	1
3865	3864	3871	1
3871	9221	9211	1
3871	9221	9223	1
3862	3873	3874	1
3862	3873	3881	1
3862	3863	3864	1
3862	3863	3867	1
3862	3861	3866	1
3862	3861	3869	1
3864	3871	3872	1
3864	3871	9221	1
3864	3863	3867	1
3864	3865	3866	1
3864	3865	3868	1
3861	3862	3863	1
3863	3864	3865	1
3861	3866	3865	1
3861	3866	3870	1
3865	3866	3870	1
3866	3861	3869	1
3866	3865	3868	1
3874	3873	3881	1
3872	3871	9221	1
9444	9443	9454	1
9442	9443	9454	1
9454	7919	7912	1
9454	7919	7921	1
9444	9445	9452	1
9446	9445	9452	1
9452	9462	9456	1
9452	9462	9463	1
9443	9454	9455	1
9443	9454	7919	1
9443	9444	9445	1
9443	9444	9448	1
9443	9442	9447	1
9443	9442	9450	1
9445	9452	9453	1
9445	9452	9462	1
9445	9444	9448	1
9445	9446	9447	1
9445	9446	9449	1
9442	9443	9444	1
9444	9445	9446	1
9442	9447	9446	1
9442	9447	9451	1
9446	9447	9451	1
9447	9442	9450	1
9447	9446	9449	1
9455	9454	7919	1
9453	9452	9462	1
4589	4588	4599	1
4587	4588	4599	1
4599	4607	4601	1
4599	4607	4608	1
4589	4590	4597	1
4591	4590	4597	1
4597	8182	8175	1
4597	8182	8184	1
4588	4599	4600	1
4588	4599	4607	1
4588	4589	4590	1
4588	4589	4593	1
4588	4587	4592	1
4588	4587	4595	1
4590	4597	4598	1
4590	4597	8182	1
4590	4589	4593	1
4590	4591	4592	1
4590	4591	4594	1
4587	4588	4589	1
4589	4590	4591	1
4587	4592	4591	1
4587	4592	4596	1
4591	4592	4596	1
4592	4587	4595	1
4592	4591	4594	1
4600	4599	4607	1
4598	4597	8182	1
12624	12623	12634	1
12622	12623	12634	1
12634	10826	10816	1
12634	10826	10828	1
12624	12625	12632	1
12626	12625	12632	1
12632	6449	6439	1
12632	6449	6451	1
12623	12634	12635	1
12623	12634	10826	1
12623	12624	12625	1
12623	12624	12628	1
12623	12622	12627	1
12623	12622	12630	1
12625	12632	12633	1
12625	12632	6449	1
12625	12624	12628	1
12625	12626	12627	1
12625	12626	12629	1
12622	12623	12624	1
12624	12625	12626	1
12622	12627	12626	1
12622	12627	12631	1
12626	12627	12631	1
12627	12622	12630	1
12627	12626	12629	1
12635	12634	10826	1
12633	12632	6449	1
12876	12875	12886	1
12874	12875	12886	1
12886	7249	7242	1
12886	7249	7251	1
12876	12877	12884	1
12878	12877	12884	1
12884	10490	10480	1
12884	10490	10492	1
12875	12886	12887	1
12875	12886	7249	1
12875	12876	12877	1
12875	12876	12880	1
12875	12874	12879	1
12875	12874	12882	1
12877	12884	12885	1
12877	12884	10490	1
12877	12876	12880	1
12877	12878	12879	1
12877	12878	12881	1
12874	12875	12876	1
12876	12877	12878	1
12874	12879	12878	1
12874	12879	12883	1
12878	12879	12883	1
12879	12874	12882	1
12879	12878	12881	1
12887	12886	7249	1
12885	12884	10490	1
703	702	713	1
701	702	713	1
684	690	713	1
691	690	713	1
703	704	711	1
705	704	711	1
711	6099	6089	1
711	6099	6101	1
702	713	714	1
690	713	702	1
702	703	704	1
702	703	707	1
702	701	706	1
702	701	709	1
704	711	712	1
704	711	6099	1
704	703	707	1
704	705	706	1
704	705	708	1
701	702	703	1
703	704	705	1
701	706	705	1
701	706	710	1
705	706	710	1
706	701	709	1
706	705	708	1
690	713	714	1
712	711	6099	1
12148	12147	12158	1
12146	12147	12158	1
2119	2126	12158	1
2128	2126	12158	1
12148	12149	12156	1
12150	12149	12156	1
12156	5587	5580	1
12156	5587	5589	1
12147	12158	12159	1
2126	12158	12147	1
12147	12148	12149	1
12147	12148	12152	1
12147	12146	12151	1
12147	12146	12154	1
12149	12156	12157	1
12149	12156	5587	1
12149	12148	12152	1
12149	12150	12151	1
12149	12150	12153	1
12146	12147	12148	1
12148	12149	12150	1
12146	12151	12150	1
12146	12151	12155	1
12150	12151	12155	1
12151	12146	12154	1
12151	12150	12153	1
2126	12158	12159	1
12157	12156	5587	1
13184	13183	13194	1
13182	13183	13194	1
13194	8153	8143	1
13194	8153	8155	1
13184	13185	13192	1
13186	13185	13192	1
2303	2305	13192	1
2306	2305	13192	1
13183	13194	13195	1
13183	13194	8153	1
13183	13184	13185	1
13183	13184	13188	1
13183	13182	13187	1
13183	13182	13190	1
13185	13192	13193	1
2305	13192	13185	1
13185	13184	13188	1
13185	13186	13187	1
13185	13186	13189	1
13182	13183	13184	1
13184	13185	13186	1
13182	13187	13186	1
13182	13187	13191	1
13186	13187	13191	1
13187	13182	13190	1
13187	13186	13189	1
13195	13194	8153	1
2305	13192	13193	1
7255	7254	7265	1
7253	7254	7265	1
7265	8456	8450	1
7265	8456	8457	1
7255	7256	7263	1
7257	7256	7263	1
7263	7273	7267	1
7263	7273	7274	1
7254	7265	7266	1
7254	7265	8456	1
7254	7255	7256	1
7254	7255	7259	1
7254	7253	7258	1
7254	7253	7261	1
7256	7263	7264	1
7256	7263	7273	1
7256	7255	7259	1
7256	7257	7258	1
7256	7257	7260	1
7253	7254	7255	1
7255	7256	7257	1
7253	7258	7257	1
7253	7258	7262	1
7257	7258	7262	1
7258	7253	7261	1
7258	7257	7260	1
7266	7265	8456	1
7264	7263	7273	1
13632	13631	13642	1
13630	13631	13642	1
13642	10110	10100	1
13642	10110	10112	1
13632	13633	13640	1
13634	13633	13640	1
2393	2395	13640	1
2396	2395	13640	1
13631	13642	13643	1
13631	13642	10110	1
13631	13632	13633	1
13631	13632	13636	1
13631	13630	13635	1
13631	13630	13638	1
13633	13640	13641	1
2395	13640	13633	1
13633	13632	13636	1
13633	13634	13635	1
13633	13634	13637	1
13630	13631	13632	1
13632	13633	13634	1
13630	13635	13634	1
13630	13635	13639	1
13634	13635	13639	1
13635	13630	13638	1
13635	13634	13637	1
13643	13642	10110	1
2395	13640	13641	1
1814	1813	1824	1
1812	1813	1824	1
1824	9162	9155	1
1824	9162	9164	1
1814	1815	1822	1
1816	1815	1822	1
1828	1826	1822	1
1827	1826	1822	1
1813	1824	1825	1
1813	1824	9162	1
1813	1814	1815	1
1813	1814	1818	1
1813	1812	1817	1
1813	1812	1820	1
1815	1822	1823	1
1826	1822	1815	1
1815	1814	1818	1
1815	1816	1817	1
1815	1816	1819	1
1812	1813	1814	1
1814	1815	1816	1
1812	1817	1816	1
1812	1817	1821	1
1816	1817	1821	1
1817	1812	1820	1
1817	1816	1819	1
1825	1824	9162	1
1826	1822	1823	1
12288	12287	12298	1
12286	12287	12298	1
12298	5777	5770	1
12298	5777	5779	1
12288	12289	12296	1
12290	12289	12296	1
1053	1060	12296	1
1062	1060	12296	1
12287	12298	12299	1
12287	12298	5777	1
12287	12288	12289	1
12287	12288	12292	1
12287	12286	12291	1
12287	12286	12294	1
12289	12296	12297	1
1060	12296	12289	1
12289	12288	12292	1
12289	12290	12291	1
12289	12290	12293	1
12286	12287	12288	1
12288	12289	12290	1
12286	12291	12290	1
12286	12291	12295	1
12290	12291	12295	1
12291	12286	12294	1
12291	12290	12293	1
12299	12298	5777	1
1060	12296	12297	1
1418	1417	1428	1
1416	1417	1428	1
1432	1430	1428	1
1431	1430	1428	1
1418	1419	1426	1
1420	1419	1426	1
1426	6953	6947	1
1426	6953	6954	1
1417	1428	1429	1
1430	1428	1417	1
1417	1418	1419	1
1417	1418	1422	1
1417	1416	1421	1
1417	1416	1424	1
1419	1426	1427	1
1419	1426	6953	1
1419	1418	1422	1
1419	1420	1421	1
1419	1420	1423	1
1416	1417	1418	1
1418	1419	1420	1
1416	1421	1420	1
1416	1421	1425	1
1420	1421	1425	1
1421	1416	1424	1
1421	1420	1423	1
1430	1428	1429	1
1427	1426	6953	1
5040	5041	5048	1
5042	5041	5048	1
5048	10446	10436	1
5048	10446	10448	1
5040	5039	5050	1
5038	5039	5050	1
5050	5058	5052	1
5050	5058	5059	1
5041	5048	5049	1
5041	5048	10446	1
5039	5040	5041	1
5041	5040	5044	1
5041	5042	5043	1
5041	5042	5045	1
5039	5050	5051	1
5039	5050	5058	1
5039	5040	5044	1
5039	5038	5043	1
5039	5038	5046	1
5040	5041	5042	1
5038	5039	5040	1
5038	5043	5042	1
5042	5043	5047	1
5038	5043	5047	1
5043	5042	5045	1
5043	5038	5046	1
5049	5048	10446	1
5051	5050	5058	1
85	84	95	1
83	84	95	1
72	74	95	1
75	74	95	1
85	86	93	1
87	86	93	1
93	6987	6980	1
93	6987	6989	1
84	95	96	1
74	95	84	1
84	85	86	1
84	85	89	1
84	83	88	1
84	83	91	1
86	93	94	1
86	93	6987	1
86	85	89	1
86	87	88	1
86	87	90	1
83	84	85	1
85	86	87	1
83	88	87	1
83	88	92	1
87	88	92	1
88	83	91	1
88	87	90	1
74	95	96	1
94	93	6987	1
8774	8773	8784	1
8772	8773	8784	1
8784	8792	8786	1
8784	8792	8793	1
8774	8775	8782	1
8776	8775	8782	1
8782	5340	5330	1
8782	5340	5342	1
8773	8784	8785	1
8773	8784	8792	1
8773	8774	8775	1
8773	8774	8778	1
8773	8772	8777	1
8773	8772	8780	1
8775	8782	8783	1
8775	8782	5340	1
8775	8774	8778	1
8775	8776	8777	1
8775	8776	8779	1
8772	8773	8774	1
8774	8775	8776	1
8772	8777	8776	1
8772	8777	8781	1
8776	8777	8781	1
8777	8772	8780	1
8777	8776	8779	1
8785	8784	8792	1
8783	8782	5340	1
1190	1191	1198	1
1192	1191	1198	1
1205	1203	1198	1
1204	1203	1198	1
1190	1189	1200	1
1188	1189	1200	1
1191	1198	1199	1
1203	1198	1191	1
1189	1190	1191	1
1191	1190	1194	1
1191	1192	1193	1
1191	1192	1195	1
1189	1200	1202	1
1189	1200	1201	1
1189	1190	1194	1
1189	1188	1193	1
1189	1188	1196	1
1190	1191	1192	1
1188	1189	1190	1
1188	1193	1192	1
1192	1193	1197	1
1188	1193	1197	1
1193	1192	1195	1
1193	1188	1196	1
1203	1198	1199	1
1201	1200	1202	1
13772	13771	13782	1
13770	13771	13782	1
1907	1914	13782	1
1916	1914	13782	1
13772	13773	13780	1
13774	13773	13780	1
719	726	13780	1
728	726	13780	1
13771	13782	13783	1
1914	13782	13771	1
13771	13772	13773	1
13771	13772	13776	1
13771	13770	13775	1
13771	13770	13778	1
13773	13780	13781	1
726	13780	13773	1
13773	13772	13776	1
13773	13774	13775	1
13773	13774	13777	1
13770	13771	13772	1
13772	13773	13774	1
13770	13775	13774	1
13770	13775	13779	1
13774	13775	13779	1
13775	13770	13778	1
13775	13774	13777	1
1914	13782	13783	1
726	13780	13781	1
1099	1098	1109	1
1097	1098	1109	1
1109	7002	6995	1
1109	7002	7004	1
1099	1100	1107	1
1101	1100	1107	1
1080	1086	1107	1
1087	1086	1107	1
1098	1109	1110	1
1098	1109	7002	1
1098	1099	1100	1
1098	1099	1103	1
1098	1097	1102	1
1098	1097	1105	1
1100	1107	1108	1
1086	1107	1100	1
1100	1099	1103	1
1100	1101	1102	1
1100	1101	1104	1
1097	1098	1099	1
1099	1100	1101	1
1097	1102	1101	1
1097	1102	1106	1
1101	1102	1106	1
1102	1097	1105	1
1102	1101	1104	1
1110	1109	7002	1
1086	1107	1108	1
11658	11657	11668	1
11656	11657	11668	1
11668	4700	4690	1
11668	4700	4702	1
11658	11659	11666	1
11660	11659	11666	1
2333	2335	11666	1
2336	2335	11666	1
11657	11668	11669	1
11657	11668	4700	1
11657	11658	11659	1
11657	11658	11662	1
11657	11656	11661	1
11657	11656	11664	1
11659	11666	11667	1
2335	11666	11659	1
11659	11658	11662	1
11659	11660	11661	1
11659	11660	11663	1
11656	11657	11658	1
11658	11659	11660	1
11656	11661	11660	1
11656	11661	11665	1
11660	11661	11665	1
11661	11656	11664	1
11661	11660	11663	1
11669	11668	4700	1
2335	11666	11667	1
9868	9867	9878	1
9866	9867	9878	1
9878	9886	9880	1
9878	9886	9887	1
9868	9869	9876	1
9870	9869	9876	1
9876	5909	5902	1
9876	5909	5911	1
9867	9878	9879	1
9867	9878	9886	1
9867	9868	9869	1
9867	9868	9872	1
9867	9866	9871	1
9867	9866	9874	1
9869	9876	9877	1
9869	9876	5909	1
9869	9868	9872	1
9869	9870	9871	1
9869	9870	9873	1
9866	9867	9868	1
9868	9869	9870	1
9866	9871	9870	1
9866	9871	9875	1
9870	9871	9875	1
9871	9866	9874	1
9871	9870	9873	1
9879	9878	9886	1
9877	9876	5909	1
11476	11475	11486	1
11474	11475	11486	1
11486	9892	9882	1
11486	9892	9894	1
11476	11477	11484	1
11478	11477	11484	1
11484	4352	4342	1
11484	4352	4354	1
11475	11486	11487	1
11475	11486	9892	1
11475	11476	11477	1
11475	11476	11480	1
11475	11474	11479	1
11475	11474	11482	1
11477	11484	11485	1
11477	11484	4352	1
11477	11476	11480	1
11477	11478	11479	1
11477	11478	11481	1
11474	11475	11476	1
11476	11477	11478	1
11474	11479	11478	1
11474	11479	11483	1
11478	11479	11483	1
11479	11474	11482	1
11479	11478	11481	1
11487	11486	9892	1
11485	11484	4352	1
399	398	409	1
397	398	409	1
409	11046	11039	1
409	11046	11048	1
399	400	407	1
401	400	407	1
380	386	407	1
387	386	407	1
398	409	410	1
398	409	11046	1
398	399	400	1
398	399	403	1
398	397	402	1
398	397	405	1
400	407	408	1
386	407	400	1
400	399	403	1
400	401	402	1
400	401	404	1
397	398	399	1
399	400	401	1
397	402	401	1
397	402	406	1
401	402	406	1
402	397	405	1
402	401	404	1
410	409	11046	1
386	407	408	1
444	445	452	1
446	445	452	1
458	456	452	1
457	456	452	1
444	443	454	1
442	443	454	1
454	4381	4371	1
454	4381	4383	1
445	452	453	1
456	452	445	1
443	444	445	1
445	444	448	1
445	446	447	1
445	446	449	1
443	454	455	1
443	454	4381	1
443	444	448	1
443	442	447	1
443	442	450	1
444	445	446	1
442	443	444	1
442	447	446	1
446	447	451	1
442	447	451	1
447	446	449	1
447	442	450	1
456	452	453	1
455	454	4381	1
1465	1464	1475	1
1463	1464	1475	1
1475	10367	10361	1
1475	10367	10368	1
1465	1466	1473	1
1467	1466	1473	1
1446	1452	1473	1
1453	1452	1473	1
1464	1475	1476	1
1464	1475	10367	1
1464	1465	1466	1
1464	1465	1469	1
1464	1463	1468	1
1464	1463	1471	1
1466	1473	1474	1
1452	1473	1466	1
1466	1465	1469	1
1466	1467	1468	1
1466	1467	1470	1
1463	1464	1465	1
1465	1466	1467	1
1463	1468	1467	1
1463	1468	1472	1
1467	1468	1472	1
1468	1463	1471	1
1468	1467	1470	1
1476	1475	10367	1
1452	1473	1474	1
825	824	835	1
823	824	835	1
806	812	835	1
813	812	835	1
825	826	833	1
827	826	833	1
566	573	833	1
575	573	833	1
824	835	836	1
812	835	824	1
824	825	826	1
824	825	829	1
824	823	828	1
824	823	831	1
826	833	834	1
573	833	826	1
826	825	829	1
826	827	828	1
826	827	830	1
823	824	825	1
825	826	827	1
823	828	827	1
823	828	832	1
827	828	832	1
828	823	831	1
828	827	830	1
812	835	836	1
573	833	834	1
2695	2694	2705	1
2693	2694	2705	1
2695	2696	2703	1
2697	2696	2703	1
2703	4961	4954	1
2703	4961	4963	1
2694	2705	2706	1
2694	2705	2707	1
2694	2695	2696	1
2694	2695	2699	1
2694	2693	2698	1
2694	2693	2701	1
2696	2703	2704	1
2696	2703	4961	1
2696	2695	2699	1
2696	2697	2698	1
2696	2697	2700	1
2693	2694	2695	1
2695	2696	2697	1
2693	2698	2697	1
2693	2698	2702	1
2697	2698	2702	1
2698	2693	2701	1
2698	2697	2700	1
2706	2705	2707	1
2704	2703	4961	1
117	116	127	1
115	116	127	1
127	11129	11123	1
127	11129	11130	1
117	118	125	1
119	118	125	1
104	106	125	1
107	106	125	1
116	127	128	1
116	127	11129	1
116	117	118	1
116	117	121	1
116	115	120	1
116	115	123	1
118	125	126	1
106	125	118	1
118	117	121	1
118	119	120	1
118	119	122	1
115	116	117	1
117	118	119	1
115	120	119	1
115	120	124	1
119	120	124	1
120	115	123	1
120	119	122	1
128	127	11129	1
106	125	126	1
3921	3920	3931	1
3919	3920	3931	1
3931	7948	7941	1
3931	7948	7950	1
3921	3922	3929	1
3923	3922	3929	1
3929	3939	3933	1
3929	3939	3940	1
3920	3931	3932	1
3920	3931	7948	1
3920	3921	3922	1
3920	3921	3925	1
3920	3919	3924	1
3920	3919	3927	1
3922	3929	3930	1
3922	3929	3939	1
3922	3921	3925	1
3922	3923	3924	1
3922	3923	3926	1
3919	3920	3921	1
3921	3922	3923	1
3919	3924	3923	1
3919	3924	3928	1
3923	3924	3928	1
3924	3919	3927	1
3924	3923	3926	1
3932	3931	7948	1
3930	3929	3939	1
12358	12357	12368	1
12356	12357	12368	1
2152	2154	12368	1
2155	2154	12368	1
12358	12359	12366	1
12360	12359	12366	1
12366	5910	5900	1
12366	5910	5912	1
12357	12368	12369	1
2154	12368	12357	1
12357	12358	12359	1
12357	12358	12362	1
12357	12356	12361	1
12357	12356	12364	1
12359	12366	12367	1
12359	12366	5910	1
12359	12358	12362	1
12359	12360	12361	1
12359	12360	12363	1
12356	12357	12358	1
12358	12359	12360	1
12356	12361	12360	1
12356	12361	12365	1
12360	12361	12365	1
12361	12356	12364	1
12361	12360	12363	1
2154	12368	12369	1
12367	12366	5910	1
11882	11881	11892	1
11880	11881	11892	1
11892	5093	5083	1
11892	5093	5095	1
11882	11883	11890	1
11884	11883	11890	1
1375	1377	11890	1
1378	1377	11890	1
11881	11892	11893	1
11881	11892	5093	1
11881	11882	11883	1
11881	11882	11886	1
11881	11880	11885	1
11881	11880	11888	1
11883	11890	11891	1
1377	11890	11883	1
11883	11882	11886	1
11883	11884	11885	1
11883	11884	11887	1
11880	11881	11882	1
11882	11883	11884	1
11880	11885	11884	1
11880	11885	11889	1
11884	11885	11889	1
11885	11880	11888	1
11885	11884	11887	1
11893	11892	5093	1
1377	11890	11891	1
10846	10845	10856	1
10844	10845	10856	1
10856	10864	10858	1
10856	10864	10865	1
10846	10847	10854	1
10848	10847	10854	1
10854	9017	9007	1
10854	9017	9019	1
10845	10856	10857	1
10845	10856	10864	1
10845	10846	10847	1
10845	10846	10850	1
10845	10844	10849	1
10845	10844	10852	1
10847	10854	10855	1
10847	10854	9017	1
10847	10846	10850	1
10847	10848	10849	1
10847	10848	10851	1
10844	10845	10846	1
10846	10847	10848	1
10844	10849	10848	1
10844	10849	10853	1
10848	10849	10853	1
10849	10844	10852	1
10849	10848	10851	1
10857	10856	10864	1
10855	10854	9017	1
3892	3891	3902	1
3890	3891	3902	1
3902	6841	6834	1
3902	6841	6843	1
3892	3893	3900	1
3894	3893	3900	1
3900	3910	3904	1
3900	3910	3911	1
3891	3902	3903	1
3891	3902	6841	1
3891	3892	3893	1
3891	3892	3896	1
3891	3890	3895	1
3891	3890	3898	1
3893	3900	3901	1
3893	3900	3910	1
3893	3892	3896	1
3893	3894	3895	1
3893	3894	3897	1
3890	3891	3892	1
3892	3893	3894	1
3890	3895	3894	1
3890	3895	3899	1
3894	3895	3899	1
3895	3890	3898	1
3895	3894	3897	1
3903	3902	6841	1
3901	3900	3910	1
13086	13085	13096	1
13084	13085	13096	1
13096	7846	7839	1
13096	7846	7848	1
13086	13087	13094	1
13088	13087	13094	1
1209	1211	13094	1
1212	1211	13094	1
13085	13096	13097	1
13085	13096	7846	1
13085	13086	13087	1
13085	13086	13090	1
13085	13084	13089	1
13085	13084	13092	1
13087	13094	13095	1
1211	13094	13087	1
13087	13086	13090	1
13087	13088	13089	1
13087	13088	13091	1
13084	13085	13086	1
13086	13087	13088	1
13084	13089	13088	1
13084	13089	13093	1
13088	13089	13093	1
13089	13084	13092	1
13089	13088	13091	1
13097	13096	7846	1
1211	13094	13095	1
13114	13113	13124	1
13112	13113	13124	1
13124	7904	7897	1
13124	7904	7906	1
13114	13115	13122	1
13116	13115	13122	1
13122	9191	9184	1
13122	9191	9193	1
13113	13124	13125	1
13113	13124	7904	1
13113	13114	13115	1
13113	13114	13118	1
13113	13112	13117	1
13113	13112	13120	1
13115	13122	13123	1
13115	13122	9191	1
13115	13114	13118	1
13115	13116	13117	1
13115	13116	13119	1
13112	13113	13114	1
13114	13115	13116	1
13112	13117	13116	1
13112	13117	13121	1
13116	13117	13121	1
13117	13112	13120	1
13117	13116	13119	1
13125	13124	7904	1
13123	13122	9191	1
3325	3324	3335	1
3323	3324	3335	1
3325	3326	3333	1
3327	3326	3333	1
3333	9047	9037	1
3333	9047	9049	1
3324	3335	3336	1
3324	3335	3337	1
3324	3325	3326	1
3324	3325	3329	1
3324	3323	3328	1
3324	3323	3331	1
3326	3333	3334	1
3326	3333	9047	1
3326	3325	3329	1
3326	3327	3328	1
3326	3327	3330	1
3323	3324	3325	1
3325	3326	3327	1
3323	3328	3327	1
3323	3328	3332	1
3327	3328	3332	1
3328	3323	3331	1
3328	3327	3330	1
3336	3335	3337	1
3334	3333	9047	1
4734	4733	4744	1
4732	4733	4744	1
4744	9527	9517	1
4744	9527	9529	1
4734	4735	4742	1
4736	4735	4742	1
4742	4752	4746	1
4742	4752	4753	1
4733	4744	4745	1
4733	4744	9527	1
4733	4734	4735	1
4733	4734	4738	1
4733	4732	4737	1
4733	4732	4740	1
4735	4742	4743	1
4735	4742	4752	1
4735	4734	4738	1
4735	4736	4737	1
4735	4736	4739	1
4732	4733	4734	1
4734	4735	4736	1
4732	4737	4736	1
4732	4737	4741	1
4736	4737	4741	1
4737	4732	4740	1
4737	4736	4739	1
4745	4744	9527	1
4743	4742	4752	1
11616	11615	11626	1
11614	11615	11626	1
11626	4642	4632	1
11626	4642	4644	1
11616	11617	11624	1
11618	11617	11624	1
11624	6244	6237	1
11624	6244	6246	1
11615	11626	11627	1
11615	11626	4642	1
11615	11616	11617	1
11615	11616	11620	1
11615	11614	11619	1
11615	11614	11622	1
11617	11624	11625	1
11617	11624	6244	1
11617	11616	11620	1
11617	11618	11619	1
11617	11618	11621	1
11614	11615	11616	1
11616	11617	11618	1
11614	11619	11618	1
11614	11619	11623	1
11618	11619	11623	1
11619	11614	11622	1
11619	11618	11621	1
11627	11626	4642	1
11625	11624	6244	1
2241	2240	2251	1
2239	2240	2251	1
2251	9609	9603	1
2251	9609	9610	1
2241	2242	2249	1
2243	2242	2249	1
2226	2233	2249	1
2235	2233	2249	1
2240	2251	2252	1
2240	2251	9609	1
2240	2241	2242	1
2240	2241	2245	1
2240	2239	2244	1
2240	2239	2247	1
2242	2249	2250	1
2233	2249	2242	1
2242	2241	2245	1
2242	2243	2244	1
2242	2243	2246	1
2239	2240	2241	1
2241	2242	2243	1
2239	2244	2243	1
2239	2244	2248	1
2243	2244	2248	1
2244	2239	2247	1
2244	2243	2246	1
2252	2251	9609	1
2233	2249	2250	1
1937	1936	1947	1
1935	1936	1947	1
1951	1949	1947	1
1950	1949	1947	1
1937	1938	1945	1
1939	1938	1945	1
1945	4962	4952	1
1945	4962	4964	1
1936	1947	1948	1
1949	1947	1936	1
1936	1937	1938	1
1936	1937	1941	1
1936	1935	1940	1
1936	1935	1943	1
1938	1945	1946	1
1938	1945	4962	1
1938	1937	1941	1
1938	1939	1940	1
1938	1939	1942	1
1935	1936	1937	1
1937	1938	1939	1
1935	1940	1939	1
1935	1940	1944	1
1939	1940	1944	1
1940	1935	1943	1
1940	1939	1942	1
1949	1947	1948	1
1946	1945	4962	1
11630	11629	11640	1
11628	11629	11640	1
11640	8710	8700	1
11640	8710	8712	1
11630	11631	11638	1
11632	11631	11638	1
11638	4670	4663	1
11638	4670	4672	1
11629	11640	11641	1
11629	11640	8710	1
11629	11630	11631	1
11629	11630	11634	1
11629	11628	11633	1
11629	11628	11636	1
11631	11638	11639	1
11631	11638	4670	1
11631	11630	11634	1
11631	11632	11633	1
11631	11632	11635	1
11628	11629	11630	1
11630	11631	11632	1
11628	11633	11632	1
11628	11633	11637	1
11632	11633	11637	1
11633	11628	11636	1
11633	11632	11635	1
11641	11640	8710	1
11639	11638	4670	1
13170	13169	13180	1
13168	13169	13180	1
13180	8123	8116	1
13180	8123	8125	1
13170	13171	13178	1
13172	13171	13178	1
13178	9526	9519	1
13178	9526	9528	1
13169	13180	13181	1
13169	13180	8123	1
13169	13170	13171	1
13169	13170	13174	1
13169	13168	13173	1
13169	13168	13176	1
13171	13178	13179	1
13171	13178	9526	1
13171	13170	13174	1
13171	13172	13173	1
13171	13172	13175	1
13168	13169	13170	1
13170	13171	13172	1
13168	13173	13172	1
13168	13173	13177	1
13172	13173	13177	1
13173	13168	13176	1
13173	13172	13175	1
13181	13180	8123	1
13179	13178	9526	1
5185	5184	5195	1
5183	5184	5195	1
5195	10081	10071	1
5195	10081	10083	1
5185	5186	5193	1
5187	5186	5193	1
5193	5203	5197	1
5193	5203	5204	1
5184	5195	5196	1
5184	5195	10081	1
5184	5185	5186	1
5184	5185	5189	1
5184	5183	5188	1
5184	5183	5191	1
5186	5193	5194	1
5186	5193	5203	1
5186	5185	5189	1
5186	5187	5188	1
5186	5187	5190	1
5183	5184	5185	1
5185	5186	5187	1
5183	5188	5187	1
5183	5188	5192	1
5187	5188	5192	1
5188	5183	5191	1
5188	5187	5190	1
5196	5195	10081	1
5194	5193	5203	1
12694	12693	12704	1
12692	12693	12704	1
12704	8461	8454	1
12704	8461	8463	1
12694	12695	12702	1
12696	12695	12702	1
12702	6609	6599	1
12702	6609	6611	1
12693	12704	12705	1
12693	12704	8461	1
12693	12694	12695	1
12693	12694	12698	1
12693	12692	12697	1
12693	12692	12700	1
12695	12702	12703	1
12695	12702	6609	1
12695	12694	12698	1
12695	12696	12697	1
12695	12696	12699	1
12692	12693	12694	1
12694	12695	12696	1
12692	12697	12696	1
12692	12697	12701	1
12696	12697	12701	1
12697	12692	12700	1
12697	12696	12699	1
12705	12704	8461	1
12703	12702	6609	1
11490	11489	11500	1
11488	11489	11500	1
11500	7061	7051	1
11500	7061	7063	1
11490	11491	11498	1
11492	11491	11498	1
11498	4380	4373	1
11498	4380	4382	1
11489	11500	11501	1
11489	11500	7061	1
11489	11490	11491	1
11489	11490	11494	1
11489	11488	11493	1
11489	11488	11496	1
11491	11498	11499	1
11491	11498	4380	1
11491	11490	11494	1
11491	11492	11493	1
11491	11492	11495	1
11488	11489	11490	1
11490	11491	11492	1
11488	11493	11492	1
11488	11493	11497	1
11492	11493	11497	1
11493	11488	11496	1
11493	11492	11495	1
11501	11500	7061	1
11499	11498	4380	1
1539	1538	1549	1
1537	1538	1549	1
1557	1559	1549	1
1560	1559	1549	1
1539	1540	1547	1
1541	1540	1547	1
1547	8183	8173	1
1547	8183	8185	1
1538	1549	1550	1
1559	1549	1538	1
1538	1539	1540	1
1538	1539	1543	1
1538	1537	1542	1
1538	1537	1545	1
1540	1547	1548	1
1540	1547	8183	1
1540	1539	1543	1
1540	1541	1542	1
1540	1541	1544	1
1537	1538	1539	1
1539	1540	1541	1
1537	1542	1541	1
1537	1542	1546	1
1541	1542	1546	1
1542	1537	1545	1
1542	1541	1544	1
1559	1549	1550	1
1548	1547	8183	1
6367	6366	6377	1
6365	6366	6377	1
6377	6385	6379	1
6377	6385	6386	1
6367	6368	6375	1
6369	6368	6375	1
6375	9584	9577	1
6375	9584	9586	1
6366	6377	6378	1
6366	6377	6385	1
6366	6367	6368	1
6366	6367	6371	1
6366	6365	6370	1
6366	6365	6373	1
6368	6375	6376	1
6368	6375	9584	1
6368	6367	6371	1
6368	6369	6370	1
6368	6369	6372	1
6365	6366	6367	1
6367	6368	6369	1
6365	6370	6369	1
6365	6370	6374	1
6369	6370	6374	1
6370	6365	6373	1
6370	6369	6372	1
6378	6377	6385	1
6376	6375	9584	1
12778	12777	12788	1
12776	12777	12788	1
12788	9395	9385	1
12788	9395	9397	1
12778	12779	12786	1
12780	12779	12786	1
12786	6944	6934	1
12786	6944	6946	1
12777	12788	12789	1
12777	12788	9395	1
12777	12778	12779	1
12777	12778	12782	1
12777	12776	12781	1
12777	12776	12784	1
12779	12786	12787	1
12779	12786	6944	1
12779	12778	12782	1
12779	12780	12781	1
12779	12780	12783	1
12776	12777	12778	1
12778	12779	12780	1
12776	12781	12780	1
12776	12781	12785	1
12780	12781	12785	1
12781	12776	12784	1
12781	12780	12783	1
12789	12788	9395	1
12787	12786	6944	1
13142	13141	13152	1
13140	13141	13152	1
13152	8270	8263	1
13152	8270	8272	1
13142	13143	13150	1
13144	13143	13150	1
13150	7993	7983	1
13150	7993	7995	1
13141	13152	13153	1
13141	13152	8270	1
13141	13142	13143	1
13141	13142	13146	1
13141	13140	13145	1
13141	13140	13148	1
13143	13150	13151	1
13143	13150	7993	1
13143	13142	13146	1
13143	13144	13145	1
13143	13144	13147	1
13140	13141	13142	1
13142	13143	13144	1
13140	13145	13144	1
13140	13145	13149	1
13144	13145	13149	1
13145	13140	13148	1
13145	13144	13147	1
13153	13152	8270	1
13151	13150	7993	1
13338	13339	13346	1
13340	13339	13346	1
13346	8373	8366	1
13346	8373	8375	1
13338	13337	13348	1
13336	13337	13348	1
13348	8972	8965	1
13348	8972	8974	1
13339	13346	13347	1
13339	13346	8373	1
13339	13338	13337	1
13339	13338	13342	1
13339	13340	13341	1
13339	13340	13343	1
13337	13348	13349	1
13337	13348	8972	1
13337	13338	13342	1
13337	13336	13341	1
13337	13336	13344	1
13340	13339	13338	1
13338	13337	13336	1
13340	13341	13336	1
13340	13341	13345	1
13336	13341	13345	1
13341	13340	13343	1
13341	13336	13344	1
13347	13346	8373	1
13349	13348	8972	1
12680	12679	12690	1
12678	12679	12690	1
12690	7279	7269	1
12690	7279	7281	1
12680	12681	12688	1
12682	12681	12688	1
12688	6608	6601	1
12688	6608	6610	1
12679	12690	12691	1
12679	12690	7279	1
12679	12680	12681	1
12679	12680	12684	1
12679	12678	12683	1
12679	12678	12686	1
12681	12688	12689	1
12681	12688	6608	1
12681	12680	12684	1
12681	12682	12683	1
12681	12682	12685	1
12678	12679	12680	1
12680	12681	12682	1
12678	12683	12682	1
12678	12683	12687	1
12682	12683	12687	1
12683	12678	12686	1
12683	12682	12685	1
12691	12690	7279	1
12689	12688	6608	1
1221	1222	1229	1
1223	1222	1229	1
1229	10417	10407	1
1229	10417	10419	1
1221	1220	1231	1
1219	1220	1231	1
1235	1233	1231	1
1234	1233	1231	1
1222	1229	1230	1
1222	1229	10417	1
1222	1221	1220	1
1222	1221	1225	1
1222	1223	1224	1
1222	1223	1226	1
1220	1231	1232	1
1233	1231	1220	1
1220	1221	1225	1
1220	1219	1224	1
1220	1219	1227	1
1223	1222	1221	1
1221	1220	1219	1
1223	1224	1219	1
1223	1224	1228	1
1219	1224	1228	1
1224	1223	1226	1
1224	1219	1227	1
1230	1229	10417	1
1233	1231	1232	1
7226	7225	7236	1
7224	7225	7236	1
7236	7244	7238	1
7236	7244	7245	1
7226	7227	7234	1
7228	7227	7234	1
7234	9624	9618	1
7234	9624	9625	1
7225	7236	7237	1
7225	7236	7244	1
7225	7226	7227	1
7225	7226	7230	1
7225	7224	7229	1
7225	7224	7232	1
7227	7234	7235	1
7227	7234	9624	1
7227	7226	7230	1
7227	7228	7229	1
7227	7228	7231	1
7224	7225	7226	1
7226	7227	7228	1
7224	7229	7228	1
7224	7229	7233	1
7228	7229	7233	1
7229	7224	7232	1
7229	7228	7231	1
7237	7236	7244	1
7235	7234	9624	1
1586	1585	1596	1
1584	1585	1596	1
1567	1573	1596	1
1574	1573	1596	1
1586	1587	1594	1
1588	1587	1594	1
1178	1180	1594	1
1181	1180	1594	1
1585	1596	1597	1
1573	1596	1585	1
1585	1586	1587	1
1585	1586	1590	1
1585	1584	1589	1
1585	1584	1592	1
1587	1594	1595	1
1180	1594	1587	1
1587	1586	1590	1
1587	1588	1589	1
1587	1588	1591	1
1584	1585	1586	1
1586	1587	1588	1
1584	1589	1588	1
1584	1589	1593	1
1588	1589	1593	1
1589	1584	1592	1
1589	1588	1591	1
1573	1596	1597	1
1180	1594	1595	1
504	503	514	1
502	503	514	1
514	5874	5868	1
514	5874	5875	1
504	505	512	1
506	505	512	1
518	516	512	1
517	516	512	1
503	514	515	1
503	514	5874	1
503	504	505	1
503	504	508	1
503	502	507	1
503	502	510	1
505	512	513	1
516	512	505	1
505	504	508	1
505	506	507	1
505	506	509	1
502	503	504	1
504	505	506	1
502	507	506	1
502	507	511	1
506	507	511	1
507	502	510	1
507	506	509	1
515	514	5874	1
516	512	513	1
13016	13015	13026	1
13014	13015	13026	1
13026	8870	8863	1
13026	8870	8872	1
13016	13017	13024	1
13018	13017	13024	1
13024	7599	7592	1
13024	7599	7601	1
13015	13026	13027	1
13015	13026	8870	1
13015	13016	13017	1
13015	13016	13020	1
13015	13014	13019	1
13015	13014	13022	1
13017	13024	13025	1
13017	13024	7599	1
13017	13016	13020	1
13017	13018	13019	1
13017	13018	13021	1
13014	13015	13016	1
13016	13017	13018	1
13014	13019	13018	1
13014	13019	13023	1
13018	13019	13023	1
13019	13014	13022	1
13019	13018	13021	1
13027	13026	8870	1
13025	13024	7599	1
8350	8349	8360	1
8348	8349	8360	1
8360	8368	8362	1
8360	8368	8369	1
8350	8351	8358	1
8352	8351	8358	1
8358	10139	10129	1
8358	10139	10141	1
8349	8360	8361	1
8349	8360	8368	1
8349	8350	8351	1
8349	8350	8354	1
8349	8348	8353	1
8349	8348	8356	1
8351	8358	8359	1
8351	8358	10139	1
8351	8350	8354	1
8351	8352	8353	1
8351	8352	8355	1
8348	8349	8350	1
8350	8351	8352	1
8348	8353	8352	1
8348	8353	8357	1
8352	8353	8357	1
8353	8348	8356	1
8353	8352	8355	1
8361	8360	8368	1
8359	8358	10139	1
4705	4706	4713	1
4707	4706	4713	1
4713	7089	7082	1
4713	7089	7091	1
4705	4704	4715	1
4703	4704	4715	1
4715	4723	4717	1
4715	4723	4724	1
4706	4713	4714	1
4706	4713	7089	1
4704	4705	4706	1
4706	4705	4709	1
4706	4707	4708	1
4706	4707	4710	1
4704	4715	4716	1
4704	4715	4723	1
4704	4705	4709	1
4704	4703	4708	1
4704	4703	4711	1
4705	4706	4707	1
4703	4704	4705	1
4703	4708	4707	1
4707	4708	4712	1
4703	4708	4712	1
4708	4707	4710	1
4708	4703	4711	1
4714	4713	7089	1
4716	4715	4723	1
3685	3686	3693	1
3687	3686	3693	1
3693	11119	11112	1
3693	11119	11121	1
3685	3684	3695	1
3683	3684	3695	1
3686	3693	3694	1
3686	3693	11119	1
3684	3685	3686	1
3686	3685	3689	1
3686	3687	3688	1
3686	3687	3690	1
3684	3695	3696	1
3684	3695	3697	1
3684	3685	3689	1
3684	3683	3688	1
3684	3683	3691	1
3685	3686	3687	1
3683	3684	3685	1
3683	3688	3687	1
3687	3688	3692	1
3683	3688	3692	1
3688	3687	3690	1
3688	3683	3691	1
3694	3693	11119	1
3696	3695	3697	1
12260	12259	12270	1
12258	12259	12270	1
12270	10104	10098	1
12270	10104	10105	1
12260	12261	12268	1
12262	12261	12268	1
12268	5763	5753	1
12268	5763	5765	1
12259	12270	12271	1
12259	12270	10104	1
12259	12260	12261	1
12259	12260	12264	1
12259	12258	12263	1
12259	12258	12266	1
12261	12268	12269	1
12261	12268	5763	1
12261	12260	12264	1
12261	12262	12263	1
12261	12262	12265	1
12258	12259	12260	1
12260	12261	12262	1
12258	12263	12262	1
12258	12263	12267	1
12262	12263	12267	1
12263	12258	12266	1
12263	12262	12265	1
12271	12270	10104	1
12269	12268	5763	1
5214	5213	5224	1
5212	5213	5224	1
5224	5232	5226	1
5224	5232	5233	1
5214	5215	5222	1
5216	5215	5222	1
5222	8221	8215	1
5222	8221	8222	1
5213	5224	5225	1
5213	5224	5232	1
5213	5214	5215	1
5213	5214	5218	1
5213	5212	5217	1
5213	5212	5220	1
5215	5222	5223	1
5215	5222	8221	1
5215	5214	5218	1
5215	5216	5217	1
5215	5216	5219	1
5212	5213	5214	1
5214	5215	5216	1
5212	5217	5216	1
5212	5217	5221	1
5216	5217	5221	1
5217	5212	5220	1
5217	5216	5219	1
5225	5224	5232	1
5223	5222	8221	1
7678	7677	7688	1
7676	7677	7688	1
7688	7696	7690	1
7688	7696	7697	1
7678	7679	7686	1
7680	7679	7686	1
7686	4409	4402	1
7686	4409	4411	1
7677	7688	7689	1
7677	7688	7696	1
7677	7678	7679	1
7677	7678	7682	1
7677	7676	7681	1
7677	7676	7684	1
7679	7686	7687	1
7679	7686	4409	1
7679	7678	7682	1
7679	7680	7681	1
7679	7680	7683	1
7676	7677	7678	1
7678	7679	7680	1
7676	7681	7680	1
7676	7681	7685	1
7680	7681	7685	1
7681	7676	7684	1
7681	7680	7683	1
7689	7688	7696	1
7687	7686	4409	1
9284	9285	9292	1
9286	9285	9292	1
462	464	9292	1
465	464	9292	1
9284	9283	9294	1
9282	9283	9294	1
9294	9302	9296	1
9294	9302	9303	1
9285	9292	9293	1
464	9292	9285	1
9283	9284	9285	1
9285	9284	9288	1
9285	9286	9287	1
9285	9286	9289	1
9283	9294	9295	1
9283	9294	9302	1
9283	9284	9288	1
9283	9282	9287	1
9283	9282	9290	1
9284	9285	9286	1
9282	9283	9284	1
9282	9287	9286	1
9286	9287	9291	1
9282	9287	9291	1
9287	9286	9289	1
9287	9282	9290	1
464	9292	9293	1
9295	9294	9302	1
2057	2056	2067	1
2055	2056	2067	1
2071	2069	2067	1
2070	2069	2067	1
2057	2058	2065	1
2059	2058	2065	1
2065	9026	9020	1
2065	9026	9027	1
2056	2067	2068	1
2069	2067	2056	1
2056	2057	2058	1
2056	2057	2061	1
2056	2055	2060	1
2056	2055	2063	1
2058	2065	2066	1
2058	2065	9026	1
2058	2057	2061	1
2058	2059	2060	1
2058	2059	2062	1
2055	2056	2057	1
2057	2058	2059	1
2055	2060	2059	1
2055	2060	2064	1
2059	2060	2064	1
2060	2055	2063	1
2060	2059	2062	1
2069	2067	2068	1
2066	2065	9026	1
10802	10801	10812	1
10800	10801	10812	1
10812	10820	10814	1
10812	10820	10821	1
10802	10803	10810	1
10804	10803	10810	1
10810	7644	7634	1
10810	7644	7646	1
10801	10812	10813	1
10801	10812	10820	1
10801	10802	10803	1
10801	10802	10806	1
10801	10800	10805	1
10801	10800	10808	1
10803	10810	10811	1
10803	10810	7644	1
10803	10802	10806	1
10803	10804	10805	1
10803	10804	10807	1
10800	10801	10802	1
10802	10803	10804	1
10800	10805	10804	1
10800	10805	10809	1
10804	10805	10809	1
10805	10800	10808	1
10805	10804	10807	1
10813	10812	10820	1
10811	10810	7644	1
13100	13099	13110	1
13098	13099	13110	1
2438	2445	13110	1
2447	2445	13110	1
13100	13101	13108	1
13102	13101	13108	1
13108	7875	7868	1
13108	7875	7877	1
13099	13110	13111	1
2445	13110	13099	1
13099	13100	13101	1
13099	13100	13104	1
13099	13098	13103	1
13099	13098	13106	1
13101	13108	13109	1
13101	13108	7875	1
13101	13100	13104	1
13101	13102	13103	1
13101	13102	13105	1
13098	13099	13100	1
13100	13101	13102	1
13098	13103	13102	1
13098	13103	13107	1
13102	13103	13107	1
13103	13098	13106	1
13103	13102	13105	1
2445	13110	13111	1
13109	13108	7875	1
13590	13591	13598	1
13592	13591	13598	1
13598	9863	9853	1
13598	9863	9865	1
13590	13589	13600	1
13588	13589	13600	1
962	969	13600	1
971	969	13600	1
13591	13598	13599	1
13591	13598	9863	1
13589	13590	13591	1
13591	13590	13594	1
13591	13592	13593	1
13591	13592	13595	1
13589	13600	13601	1
969	13600	13589	1
13589	13590	13594	1
13589	13588	13593	1
13589	13588	13596	1
13590	13591	13592	1
13588	13589	13590	1
13588	13593	13592	1
13592	13593	13597	1
13588	13593	13597	1
13593	13592	13595	1
13593	13588	13596	1
13599	13598	9863	1
969	13600	13601	1
11588	11587	11598	1
11586	11587	11598	1
11598	4612	4605	1
11598	4612	4614	1
11588	11589	11596	1
11590	11589	11596	1
11596	10973	10963	1
11596	10973	10975	1
11587	11598	11599	1
11587	11598	4612	1
11587	11588	11589	1
11587	11588	11592	1
11587	11586	11591	1
11587	11586	11594	1
11589	11596	11597	1
11589	11596	10973	1
11589	11588	11592	1
11589	11590	11591	1
11589	11590	11593	1
11586	11587	11588	1
11588	11589	11590	1
11586	11591	11590	1
11586	11591	11595	1
11590	11591	11595	1
11591	11586	11594	1
11591	11590	11593	1
11599	11598	4612	1
11597	11596	10973	1
2315	2316	2323	1
2317	2316	2323	1
2323	4990	4983	1
2323	4990	4992	1
2315	2314	2325	1
2313	2314	2325	1
2329	2327	2325	1
2328	2327	2325	1
2316	2323	2324	1
2316	2323	4990	1
2316	2315	2314	1
2316	2315	2319	1
2316	2317	2318	1
2316	2317	2320	1
2314	2325	2326	1
2327	2325	2314	1
2314	2315	2319	1
2314	2313	2318	1
2314	2313	2321	1
2317	2316	2315	1
2315	2314	2313	1
2317	2318	2313	1
2317	2318	2322	1
2313	2318	2322	1
2318	2317	2320	1
2318	2313	2321	1
2324	2323	4990	1
2327	2325	2326	1
3790	3789	3800	1
3788	3789	3800	1
3800	3808	3802	1
3800	3808	3809	1
3790	3791	3798	1
3792	3791	3798	1
3798	10718	10712	1
3798	10718	10719	1
3789	3800	3801	1
3789	3800	3808	1
3789	3790	3791	1
3789	3790	3794	1
3789	3788	3793	1
3789	3788	3796	1
3791	3798	3799	1
3791	3798	10718	1
3791	3790	3794	1
3791	3792	3793	1
3791	3792	3795	1
3788	3789	3790	1
3790	3791	3792	1
3788	3793	3792	1
3788	3793	3797	1
3792	3793	3797	1
3793	3788	3796	1
3793	3792	3795	1
3801	3800	3808	1
3799	3798	10718	1
13422	13421	13432	1
13420	13421	13432	1
13432	8797	8790	1
13432	8797	8799	1
13422	13423	13430	1
13424	13423	13430	1
1269	1271	13430	1
1272	1271	13430	1
13421	13432	13433	1
13421	13432	8797	1
13421	13422	13423	1
13421	13422	13426	1
13421	13420	13425	1
13421	13420	13428	1
13423	13430	13431	1
1271	13430	13423	1
13423	13422	13426	1
13423	13424	13425	1
13423	13424	13427	1
13420	13421	13422	1
13422	13423	13424	1
13420	13425	13424	1
13420	13425	13429	1
13424	13425	13429	1
13425	13420	13428	1
13425	13424	13427	1
13433	13432	8797	1
1271	13430	13431	1
11784	11783	11794	1
11782	11783	11794	1
11794	4889	4879	1
11794	4889	4891	1
11784	11785	11792	1
11786	11785	11792	1
11792	11017	11007	1
11792	11017	11019	1
11783	11794	11795	1
11783	11794	4889	1
11783	11784	11785	1
11783	11784	11788	1
11783	11782	11787	1
11783	11782	11790	1
11785	11792	11793	1
11785	11792	11017	1
11785	11784	11788	1
11785	11786	11787	1
11785	11786	11789	1
11782	11783	11784	1
11784	11785	11786	1
11782	11787	11786	1
11782	11787	11791	1
11786	11787	11791	1
11787	11782	11790	1
11787	11786	11789	1
11795	11794	4889	1
11793	11792	11017	1
11728	11727	11738	1
11726	11727	11738	1
11738	4816	4806	1
11738	4816	4818	1
11728	11729	11736	1
11730	11729	11736	1
11736	10240	10233	1
11736	10240	10242	1
11727	11738	11739	1
11727	11738	4816	1
11727	11728	11729	1
11727	11728	11732	1
11727	11726	11731	1
11727	11726	11734	1
11729	11736	11737	1
11729	11736	10240	1
11729	11728	11732	1
11729	11730	11731	1
11729	11730	11733	1
11726	11727	11728	1
11728	11729	11730	1
11726	11731	11730	1
11726	11731	11735	1
11730	11731	11735	1
11731	11726	11734	1
11731	11730	11733	1
11739	11738	4816	1
11737	11736	10240	1
930	929	940	1
928	929	940	1
944	942	940	1
943	942	940	1
930	931	938	1
932	931	938	1
938	5904	5898	1
938	5904	5905	1
929	940	941	1
942	940	929	1
929	930	931	1
929	930	934	1
929	928	933	1
929	928	936	1
931	938	939	1
931	938	5904	1
931	930	934	1
931	932	933	1
931	932	935	1
928	929	930	1
930	931	932	1
928	933	932	1
928	933	937	1
932	933	937	1
933	928	936	1
933	932	935	1
942	940	941	1
939	938	5904	1
6687	6686	6697	1
6685	6686	6697	1
6697	6705	6699	1
6697	6705	6706	1
6687	6688	6695	1
6689	6688	6695	1
1115	1122	6695	1
1124	1122	6695	1
6686	6697	6698	1
6686	6697	6705	1
6686	6687	6688	1
6686	6687	6691	1
6686	6685	6690	1
6686	6685	6693	1
6688	6695	6696	1
1122	6695	6688	1
6688	6687	6691	1
6688	6689	6690	1
6688	6689	6692	1
6685	6686	6687	1
6687	6688	6689	1
6685	6690	6689	1
6685	6690	6694	1
6689	6690	6694	1
6690	6685	6693	1
6690	6689	6692	1
6698	6697	6705	1
1122	6695	6696	1
6614	6613	6624	1
6612	6613	6624	1
6624	5151	5141	1
6624	5151	5153	1
6614	6615	6622	1
6616	6615	6622	1
6622	6632	6626	1
6622	6632	6633	1
6613	6624	6625	1
6613	6624	5151	1
6613	6614	6615	1
6613	6614	6618	1
6613	6612	6617	1
6613	6612	6620	1
6615	6622	6623	1
6615	6622	6632	1
6615	6614	6618	1
6615	6616	6617	1
6615	6616	6619	1
6612	6613	6614	1
6614	6615	6616	1
6612	6617	6616	1
6612	6617	6621	1
6616	6617	6621	1
6617	6612	6620	1
6617	6616	6619	1
6625	6624	5151	1
6623	6622	6632	1
12386	12385	12396	1
12384	12385	12396	1
1497	1499	12396	1
1500	1499	12396	1
12386	12387	12394	1
12388	12387	12394	1
12394	5967	5960	1
12394	5967	5969	1
12385	12396	12397	1
1499	12396	12385	1
12385	12386	12387	1
12385	12386	12390	1
12385	12384	12389	1
12385	12384	12392	1
12387	12394	12395	1
12387	12394	5967	1
12387	12386	12390	1
12387	12388	12389	1
12387	12388	12391	1
12384	12385	12386	1
12386	12387	12388	1
12384	12389	12388	1
12384	12389	12393	1
12388	12389	12393	1
12389	12384	12392	1
12389	12388	12391	1
1499	12396	12397	1
12395	12394	5967	1
3235	3234	3245	1
3233	3234	3245	1
3235	3236	3243	1
3237	3236	3243	1
3243	8865	8859	1
3243	8865	8866	1
3234	3245	3247	1
3234	3245	3246	1
3234	3235	3236	1
3234	3235	3239	1
3234	3233	3238	1
3234	3233	3241	1
3236	3243	3244	1
3236	3243	8865	1
3236	3235	3239	1
3236	3237	3238	1
3236	3237	3240	1
3233	3234	3235	1
3235	3236	3237	1
3233	3238	3237	1
3233	3238	3242	1
3237	3238	3242	1
3238	3233	3241	1
3238	3237	3240	1
3247	3245	3246	1
3244	3243	8865	1
734	733	744	1
732	733	744	1
715	721	744	1
722	721	744	1
734	735	742	1
736	735	742	1
742	4956	4950	1
742	4956	4957	1
733	744	745	1
721	744	733	1
733	734	735	1
733	734	738	1
733	732	737	1
733	732	740	1
735	742	743	1
735	742	4956	1
735	734	738	1
735	736	737	1
735	736	739	1
732	733	734	1
734	735	736	1
732	737	736	1
732	737	741	1
736	737	741	1
737	732	740	1
737	736	739	1
721	744	745	1
743	742	4956	1
8803	8802	8813	1
8801	8802	8813	1
8813	9906	9899	1
8813	9906	9908	1
8803	8804	8811	1
8805	8804	8811	1
8811	8827	8817	1
8811	8827	8829	1
8802	8813	8814	1
8802	8813	9906	1
8802	8803	8804	1
8802	8803	8807	1
8802	8801	8806	1
8802	8801	8809	1
8804	8811	8812	1
8804	8811	8827	1
8804	8803	8807	1
8804	8805	8806	1
8804	8805	8808	1
8801	8802	8803	1
8803	8804	8805	1
8801	8806	8805	1
8801	8806	8810	1
8805	8806	8810	1
8806	8801	8809	1
8806	8805	8808	1
8814	8813	9906	1
8812	8811	8827	1
12526	12525	12536	1
12524	12525	12536	1
12536	8051	8041	1
12536	8051	8053	1
12526	12527	12534	1
12528	12527	12534	1
12534	6230	6220	1
12534	6230	6232	1
12525	12536	12537	1
12525	12536	8051	1
12525	12526	12527	1
12525	12526	12530	1
12525	12524	12529	1
12525	12524	12532	1
12527	12534	12535	1
12527	12534	6230	1
12527	12526	12530	1
12527	12528	12529	1
12527	12528	12531	1
12524	12525	12526	1
12526	12527	12528	1
12524	12529	12528	1
12524	12529	12533	1
12528	12529	12533	1
12529	12524	12532	1
12529	12528	12531	1
12537	12536	8051	1
12535	12534	6230	1
7474	7473	7484	1
7472	7473	7484	1
7484	9687	9680	1
7484	9687	9689	1
7474	7475	7482	1
7476	7475	7482	1
7482	7492	7486	1
7482	7492	7493	1
7473	7484	7485	1
7473	7484	9687	1
7473	7474	7475	1
7473	7474	7478	1
7473	7472	7477	1
7473	7472	7480	1
7475	7482	7483	1
7475	7482	7492	1
7475	7474	7478	1
7475	7476	7477	1
7475	7476	7479	1
7472	7473	7474	1
7474	7475	7476	1
7472	7477	7476	1
7472	7477	7481	1
7476	7477	7481	1
7477	7472	7480	1
7477	7476	7479	1
7485	7484	9687	1
7483	7482	7492	1
7881	7880	7891	1
7879	7880	7891	1
7891	7899	7893	1
7891	7899	7900	1
7881	7882	7889	1
7883	7882	7889	1
7889	7643	7636	1
7889	7643	7645	1
7880	7891	7892	1
7880	7891	7899	1
7880	7881	7882	1
7880	7881	7885	1
7880	7879	7884	1
7880	7879	7887	1
7882	7889	7890	1
7882	7889	7643	1
7882	7881	7885	1
7882	7883	7884	1
7882	7883	7886	1
7879	7880	7881	1
7881	7882	7883	1
7879	7884	7883	1
7879	7884	7888	1
7883	7884	7888	1
7884	7879	7887	1
7884	7883	7886	1
7892	7891	7899	1
7890	7889	7643	1
12736	12735	12746	1
12734	12735	12746	1
12746	10342	10335	1
12746	10342	10344	1
12736	12737	12744	1
12738	12737	12744	1
12744	6711	6701	1
12744	6711	6713	1
12735	12746	12747	1
12735	12746	10342	1
12735	12736	12737	1
12735	12736	12740	1
12735	12734	12739	1
12735	12734	12742	1
12737	12744	12745	1
12737	12744	6711	1
12737	12736	12740	1
12737	12738	12739	1
12737	12738	12741	1
12734	12735	12736	1
12736	12737	12738	1
12734	12739	12738	1
12734	12739	12743	1
12738	12739	12743	1
12739	12734	12742	1
12739	12738	12741	1
12747	12746	10342	1
12745	12744	6711	1
149	148	159	1
147	148	159	1
136	138	159	1
139	138	159	1
149	150	157	1
151	150	157	1
157	6754	6747	1
157	6754	6756	1
148	159	160	1
138	159	148	1
148	149	150	1
148	149	153	1
148	147	152	1
148	147	155	1
150	157	158	1
150	157	6754	1
150	149	153	1
150	151	152	1
150	151	154	1
147	148	149	1
149	150	151	1
147	152	151	1
147	152	156	1
151	152	156	1
152	147	155	1
152	151	154	1
138	159	160	1
158	157	6754	1
11518	11517	11528	1
11516	11517	11528	1
11528	4438	4431	1
11528	4438	4440	1
11518	11519	11526	1
11520	11519	11526	1
384	391	11526	1
393	391	11526	1
11517	11528	11529	1
11517	11528	4438	1
11517	11518	11519	1
11517	11518	11522	1
11517	11516	11521	1
11517	11516	11524	1
11519	11526	11527	1
391	11526	11519	1
11519	11518	11522	1
11519	11520	11521	1
11519	11520	11523	1
11516	11517	11518	1
11518	11519	11520	1
11516	11521	11520	1
11516	11521	11525	1
11520	11521	11525	1
11521	11516	11524	1
11521	11520	11523	1
11529	11528	4438	1
391	11526	11527	1
1661	1660	1671	1
1659	1660	1671	1
1671	7847	7837	1
1671	7847	7849	1
1661	1662	1669	1
1663	1662	1669	1
1675	1673	1669	1
1674	1673	1669	1
1660	1671	1672	1
1660	1671	7847	1
1660	1661	1662	1
1660	1661	1665	1
1660	1659	1664	1
1660	1659	1667	1
1662	1669	1670	1
1673	1669	1662	1
1662	1661	1665	1
1662	1663	1664	1
1662	1663	1666	1
1659	1660	1661	1
1661	1662	1663	1
1659	1664	1663	1
1659	1664	1668	1
1663	1664	1668	1
1664	1659	1667	1
1664	1663	1666	1
1672	1671	7847	1
1673	1669	1670	1
2285	2284	2295	1
2283	2284	2295	1
2295	6749	6743	1
2295	6749	6750	1
2285	2286	2293	1
2287	2286	2293	1
2299	2297	2293	1
2298	2297	2293	1
2284	2295	2296	1
2284	2295	6749	1
2284	2285	2286	1
2284	2285	2289	1
2284	2283	2288	1
2284	2283	2291	1
2286	2293	2294	1
2297	2293	2286	1
2286	2285	2289	1
2286	2287	2288	1
2286	2287	2290	1
2283	2284	2285	1
2285	2286	2287	1
2283	2288	2287	1
2283	2288	2292	1
2287	2288	2292	1
2288	2283	2291	1
2288	2287	2290	1
2296	2295	6749	1
2297	2293	2294	1
12806	12805	12816	1
12804	12805	12816	1
12816	8739	8732	1
12816	8739	8741	1
12806	12807	12814	1
12808	12807	12814	1
12814	7003	6993	1
12814	7003	7005	1
12805	12816	12817	1
12805	12816	8739	1
12805	12806	12807	1
12805	12806	12810	1
12805	12804	12809	1
12805	12804	12812	1
12807	12814	12815	1
12807	12814	7003	1
12807	12806	12810	1
12807	12808	12809	1
12807	12808	12811	1
12804	12805	12806	1
12806	12807	12808	1
12804	12809	12808	1
12804	12809	12813	1
12808	12809	12813	1
12809	12804	12812	1
12809	12808	12811	1
12817	12816	8739	1
12815	12814	7003	1
3595	3594	3605	1
3593	3594	3605	1
3595	3596	3603	1
3597	3596	3603	1
3603	10768	10758	1
3603	10768	10770	1
3594	3605	3606	1
3594	3605	3607	1
3594	3595	3596	1
3594	3595	3599	1
3594	3593	3598	1
3594	3593	3601	1
3596	3603	3604	1
3596	3603	10768	1
3596	3595	3599	1
3596	3597	3598	1
3596	3597	3600	1
3593	3594	3595	1
3595	3596	3597	1
3593	3598	3597	1
3593	3598	3602	1
3597	3598	3602	1
3598	3593	3601	1
3598	3597	3600	1
3606	3605	3607	1
3604	3603	10768	1
5637	5638	5645	1
5639	5638	5645	1
1553	1551	5645	1
1552	1551	5645	1
5637	5636	5647	1
5635	5636	5647	1
5647	5661	5651	1
5647	5661	5663	1
5638	5645	5646	1
1551	5645	5638	1
5638	5637	5636	1
5638	5637	5641	1
5638	5639	5640	1
5638	5639	5642	1
5636	5647	5648	1
5636	5647	5661	1
5636	5637	5641	1
5636	5635	5640	1
5636	5635	5643	1
5639	5638	5637	1
5637	5636	5635	1
5639	5640	5635	1
5639	5640	5644	1
5635	5640	5644	1
5640	5639	5642	1
5640	5635	5643	1
1551	5645	5646	1
5648	5647	5661	1
12988	12987	12998	1
12986	12987	12998	1
12998	7565	7559	1
12998	7565	7566	1
12988	12989	12996	1
12990	12989	12996	1
12996	9585	9575	1
12996	9585	9587	1
12987	12998	12999	1
12987	12998	7565	1
12987	12988	12989	1
12987	12988	12992	1
12987	12986	12991	1
12987	12986	12994	1
12989	12996	12997	1
12989	12996	9585	1
12989	12988	12992	1
12989	12990	12991	1
12989	12990	12993	1
12986	12987	12988	1
12988	12989	12990	1
12986	12991	12990	1
12986	12991	12995	1
12990	12991	12995	1
12991	12986	12994	1
12991	12990	12993	1
12999	12998	7565	1
12997	12996	9585	1
5098	5097	5108	1
5096	5097	5108	1
5108	5116	5110	1
5108	5116	5117	1
5098	5099	5106	1
5100	5099	5106	1
5106	3886	3879	1
5106	3886	3888	1
5097	5108	5109	1
5097	5108	5116	1
5097	5098	5099	1
5097	5098	5102	1
5097	5096	5101	1
5097	5096	5104	1
5099	5106	5107	1
5099	5106	3886	1
5099	5098	5102	1
5099	5100	5101	1
5099	5100	5103	1
5096	5097	5098	1
5098	5099	5100	1
5096	5101	5100	1
5096	5101	5105	1
5100	5101	5105	1
5101	5096	5104	1
5101	5100	5103	1
5109	5108	5116	1
5107	5106	3886	1
3950	3949	3960	1
3948	3949	3960	1
3960	10724	10714	1
3960	10724	10726	1
3950	3951	3958	1
3952	3951	3958	1
3958	3968	3962	1
3958	3968	3969	1
3949	3960	3961	1
3949	3960	10724	1
3949	3950	3951	1
3949	3950	3954	1
3949	3948	3953	1
3949	3948	3956	1
3951	3958	3959	1
3951	3958	3968	1
3951	3950	3954	1
3951	3952	3953	1
3951	3952	3955	1
3948	3949	3950	1
3950	3951	3952	1
3948	3953	3952	1
3948	3953	3957	1
3952	3953	3957	1
3953	3948	3956	1
3953	3952	3955	1
3961	3960	10724	1
3959	3958	3968	1
12176	12175	12186	1
12174	12175	12186	1
12186	5660	5653	1
12186	5660	5662	1
12176	12177	12184	1
12178	12177	12184	1
810	817	12184	1
819	817	12184	1
12175	12186	12187	1
12175	12186	5660	1
12175	12176	12177	1
12175	12176	12180	1
12175	12174	12179	1
12175	12174	12182	1
12177	12184	12185	1
817	12184	12177	1
12177	12176	12180	1
12177	12178	12179	1
12177	12178	12181	1
12174	12175	12176	1
12176	12177	12178	1
12174	12179	12178	1
12174	12179	12183	1
12178	12179	12183	1
12179	12174	12182	1
12179	12178	12181	1
12187	12186	5660	1
817	12184	12185	1
10057	10056	10067	1
10055	10056	10067	1
10067	10075	10069	1
10067	10075	10076	1
10057	10058	10065	1
10059	10058	10065	1
10065	7177	7167	1
10065	7177	7179	1
10056	10067	10068	1
10056	10067	10075	1
10056	10057	10058	1
10056	10057	10061	1
10056	10055	10060	1
10056	10055	10063	1
10058	10065	10066	1
10058	10065	7177	1
10058	10057	10061	1
10058	10059	10060	1
10058	10059	10062	1
10055	10056	10057	1
10057	10058	10059	1
10055	10060	10059	1
10055	10060	10064	1
10059	10060	10064	1
10060	10055	10063	1
10060	10059	10062	1
10068	10067	10075	1
10066	10065	7177	1
12610	12609	12620	1
12608	12609	12620	1
12620	6391	6381	1
12620	6391	6393	1
12610	12611	12618	1
12612	12611	12618	1
948	950	12618	1
951	950	12618	1
12609	12620	12621	1
12609	12620	6391	1
12609	12610	12611	1
12609	12610	12614	1
12609	12608	12613	1
12609	12608	12616	1
12611	12618	12619	1
950	12618	12611	1
12611	12610	12614	1
12611	12612	12613	1
12611	12612	12615	1
12608	12609	12610	1
12610	12611	12612	1
12608	12613	12612	1
12608	12613	12617	1
12612	12613	12617	1
12613	12608	12616	1
12613	12612	12615	1
12621	12620	6391	1
950	12618	12619	1
9226	9225	9236	1
9224	9225	9236	1
9236	10138	10131	1
9236	10138	10140	1
9226	9227	9234	1
9228	9227	9234	1
9234	9249	9242	1
9234	9249	9251	1
9225	9236	9237	1
9225	9236	10138	1
9225	9226	9227	1
9225	9226	9230	1
9225	9224	9229	1
9225	9224	9232	1
9227	9234	9235	1
9227	9234	9249	1
9227	9226	9230	1
9227	9228	9229	1
9227	9228	9231	1
9224	9225	9226	1
9226	9227	9228	1
9224	9229	9228	1
9224	9229	9233	1
9228	9229	9233	1
9229	9224	9232	1
9229	9228	9231	1
9237	9236	10138	1
9235	9234	9249	1
8027	8026	8037	1
8025	8026	8037	1
8037	5311	5301	1
8037	5311	5313	1
8027	8028	8035	1
8029	8028	8035	1
8035	8045	8039	1
8035	8045	8046	1
8026	8037	8038	1
8026	8037	5311	1
8026	8027	8028	1
8026	8027	8031	1
8026	8025	8030	1
8026	8025	8033	1
8028	8035	8036	1
8028	8035	8045	1
8028	8027	8031	1
8028	8029	8030	1
8028	8029	8032	1
8025	8026	8027	1
8027	8028	8029	1
8025	8030	8029	1
8025	8030	8034	1
8029	8030	8034	1
8030	8025	8033	1
8030	8029	8032	1
8038	8037	5311	1
8036	8035	8045	1
10115	10114	10125	1
10113	10114	10125	1
10125	10133	10127	1
10125	10133	10134	1
10115	10116	10123	1
10117	10116	10123	1
10123	4815	4808	1
10123	4815	4817	1
10114	10125	10126	1
10114	10125	10133	1
10114	10115	10116	1
10114	10115	10119	1
10114	10113	10118	1
10114	10113	10121	1
10116	10123	10124	1
10116	10123	4815	1
10116	10115	10119	1
10116	10117	10118	1
10116	10117	10120	1
10113	10114	10115	1
10115	10116	10117	1
10113	10118	10117	1
10113	10118	10122	1
10117	10118	10122	1
10118	10113	10121	1
10118	10117	10120	1
10126	10125	10133	1
10124	10123	4815	1
9912	9911	9922	1
9910	9911	9922	1
1832	1834	9922	1
1835	1834	9922	1
9912	9913	9920	1
9914	9913	9920	1
9920	9930	9924	1
9920	9930	9931	1
9911	9922	9923	1
1834	9922	9911	1
9911	9912	9913	1
9911	9912	9916	1
9911	9910	9915	1
9911	9910	9918	1
9913	9920	9921	1
9913	9920	9930	1
9913	9912	9916	1
9913	9914	9915	1
9913	9914	9917	1
9910	9911	9912	1
9912	9913	9914	1
9910	9915	9914	1
9910	9915	9919	1
9914	9915	9919	1
9915	9910	9918	1
9915	9914	9917	1
1834	9922	9923	1
9921	9920	9930	1
11378	11377	11388	1
11376	11377	11388	1
11388	4206	4196	1
11388	4206	4208	1
11378	11379	11386	1
11380	11379	11386	1
11386	7615	7605	1
11386	7615	7617	1
11377	11388	11389	1
11377	11388	4206	1
11377	11378	11379	1
11377	11378	11382	1
11377	11376	11381	1
11377	11376	11384	1
11379	11386	11387	1
11379	11386	7615	1
11379	11378	11382	1
11379	11380	11381	1
11379	11380	11383	1
11376	11377	11378	1
11378	11379	11380	1
11376	11381	11380	1
11376	11381	11385	1
11380	11381	11385	1
11381	11376	11384	1
11381	11380	11383	1
11389	11388	4206	1
11387	11386	7615	1
13716	13715	13726	1
13714	13715	13726	1
1740	1742	13726	1
1743	1742	13726	1
13716	13717	13724	1
13718	13717	13724	1
13724	11075	11068	1
13724	11075	11077	1
13715	13726	13727	1
1742	13726	13715	1
13715	13716	13717	1
13715	13716	13720	1
13715	13714	13719	1
13715	13714	13722	1
13717	13724	13725	1
13717	13724	11075	1
13717	13716	13720	1
13717	13718	13719	1
13717	13718	13721	1
13714	13715	13716	1
13716	13717	13718	1
13714	13719	13718	1
13714	13719	13723	1
13718	13719	13723	1
13719	13714	13722	1
13719	13718	13721	1
1742	13726	13727	1
13725	13724	11075	1
2860	2861	2868	1
2862	2861	2868	1
2868	5807	5797	1
2868	5807	5809	1
2860	2859	2870	1
2858	2859	2870	1
2861	2868	2869	1
2861	2868	5807	1
2859	2860	2861	1
2861	2860	2864	1
2861	2862	2863	1
2861	2862	2865	1
2859	2870	2871	1
2859	2870	2872	1
2859	2860	2864	1
2859	2858	2863	1
2859	2858	2866	1
2860	2861	2862	1
2858	2859	2860	1
2858	2863	2862	1
2862	2863	2867	1
2858	2863	2867	1
2863	2862	2865	1
2863	2858	2866	1
2869	2868	5807	1
2871	2870	2872	1
245	244	255	1
243	244	255	1
232	234	255	1
235	234	255	1
245	246	253	1
247	246	253	1
253	8734	8728	1
253	8734	8735	1
244	255	256	1
234	255	244	1
244	245	246	1
244	245	249	1
244	243	248	1
244	243	251	1
246	253	254	1
246	253	8734	1
246	245	249	1
246	247	248	1
246	247	250	1
243	244	245	1
245	246	247	1
243	248	247	1
243	248	252	1
247	248	252	1
248	243	251	1
248	247	250	1
234	255	256	1
254	253	8734	1
13030	13029	13040	1
13028	13029	13040	1
13040	10693	10686	1
13040	10693	10695	1
13030	13031	13038	1
13032	13031	13038	1
13038	7614	7607	1
13038	7614	7616	1
13029	13040	13041	1
13029	13040	10693	1
13029	13030	13031	1
13029	13030	13034	1
13029	13028	13033	1
13029	13028	13036	1
13031	13038	13039	1
13031	13038	7614	1
13031	13030	13034	1
13031	13032	13033	1
13031	13032	13035	1
13028	13029	13030	1
13030	13031	13032	1
13028	13033	13032	1
13028	13033	13037	1
13032	13033	13037	1
13033	13028	13036	1
13033	13032	13035	1
13041	13040	10693	1
13039	13038	7614	1
12848	12847	12858	1
12846	12847	12858	1
12858	7142	7136	1
12858	7142	7143	1
12848	12849	12856	1
12850	12849	12856	1
12856	8768	8761	1
12856	8768	8770	1
12847	12858	12859	1
12847	12858	7142	1
12847	12848	12849	1
12847	12848	12852	1
12847	12846	12851	1
12847	12846	12854	1
12849	12856	12857	1
12849	12856	8768	1
12849	12848	12852	1
12849	12850	12851	1
12849	12850	12853	1
12846	12847	12848	1
12848	12849	12850	1
12846	12851	12850	1
12846	12851	12855	1
12850	12851	12855	1
12851	12846	12854	1
12851	12850	12853	1
12859	12858	7142	1
12857	12856	8768	1
13296	13295	13306	1
13294	13295	13306	1
688	695	13306	1
697	695	13306	1
13296	13297	13304	1
13298	13297	13304	1
13304	8271	8261	1
13304	8271	8273	1
13295	13306	13307	1
695	13306	13295	1
13295	13296	13297	1
13295	13296	13300	1
13295	13294	13299	1
13295	13294	13302	1
13297	13304	13305	1
13297	13304	8271	1
13297	13296	13300	1
13297	13298	13299	1
13297	13298	13301	1
13294	13295	13296	1
13296	13297	13298	1
13294	13299	13298	1
13294	13299	13303	1
13298	13299	13303	1
13299	13294	13302	1
13299	13298	13301	1
695	13306	13307	1
13305	13304	8271	1
2375	2374	2385	1
2373	2374	2385	1
2389	2387	2385	1
2388	2387	2385	1
2375	2376	2383	1
2377	2376	2383	1
2383	8162	8156	1
2383	8162	8163	1
2374	2385	2386	1
2387	2385	2374	1
2374	2375	2376	1
2374	2375	2379	1
2374	2373	2378	1
2374	2373	2381	1
2376	2383	2384	1
2376	2383	8162	1
2376	2375	2379	1
2376	2377	2378	1
2376	2377	2380	1
2373	2374	2375	1
2375	2376	2377	1
2373	2378	2377	1
2373	2378	2382	1
2377	2378	2382	1
2378	2373	2381	1
2378	2377	2380	1
2387	2385	2386	1
2384	2383	8162	1
11826	11825	11836	1
11824	11825	11836	1
1239	1241	11836	1
1242	1241	11836	1
11826	11827	11834	1
11828	11827	11834	1
11834	4991	4981	1
11834	4991	4993	1
11825	11836	11837	1
1241	11836	11825	1
11825	11826	11827	1
11825	11826	11830	1
11825	11824	11829	1
11825	11824	11832	1
11827	11834	11835	1
11827	11834	4991	1
11827	11826	11830	1
11827	11828	11829	1
11827	11828	11831	1
11824	11825	11826	1
11826	11827	11828	1
11824	11829	11828	1
11824	11829	11833	1
11828	11829	11833	1
11829	11824	11832	1
11829	11828	11831	1
1241	11836	11837	1
11835	11834	4991	1
2905	2904	2915	1
2903	2904	2915	1
2905	2906	2913	1
2907	2906	2913	1
2913	6516	6510	1
2913	6516	6517	1
2904	2915	2916	1
2904	2915	2917	1
2904	2905	2906	1
2904	2905	2909	1
2904	2903	2908	1
2904	2903	2911	1
2906	2913	2914	1
2906	2913	6516	1
2906	2905	2909	1
2906	2907	2908	1
2906	2907	2910	1
2903	2904	2905	1
2905	2906	2907	1
2903	2908	2907	1
2903	2908	2912	1
2907	2908	2912	1
2908	2903	2911	1
2908	2907	2910	1
2916	2915	2917	1
2914	2913	6516	1
13786	13785	13796	1
13784	13785	13796	1
2182	2184	13796	1
2185	2184	13796	1
13786	13787	13794	1
13788	13787	13794	1
1893	1895	13794	1
1896	1895	13794	1
13785	13796	13797	1
2184	13796	13785	1
13785	13786	13787	1
13785	13786	13790	1
13785	13784	13789	1
13785	13784	13792	1
13787	13794	13795	1
1895	13794	13787	1
13787	13786	13790	1
13787	13788	13789	1
13787	13788	13791	1
13784	13785	13786	1
13786	13787	13788	1
13784	13789	13788	1
13784	13789	13793	1
13788	13789	13793	1
13789	13784	13792	1
13789	13788	13791	1
2184	13796	13797	1
1895	13794	13795	1
8291	8292	8299	1
8293	8292	8299	1
8299	8309	8303	1
8299	8309	8310	1
8291	8290	8301	1
8289	8290	8301	1
8301	9653	9647	1
8301	9653	9654	1
8292	8299	8300	1
8292	8299	8309	1
8292	8291	8290	1
8292	8291	8295	1
8292	8293	8294	1
8292	8293	8296	1
8290	8301	8302	1
8290	8301	9653	1
8290	8291	8295	1
8290	8289	8294	1
8290	8289	8297	1
8293	8292	8291	1
8291	8290	8289	1
8293	8294	8289	1
8293	8294	8298	1
8289	8294	8298	1
8294	8293	8296	1
8294	8289	8297	1
8300	8299	8309	1
8302	8301	9653	1
1357	1356	1367	1
1355	1356	1367	1
613	615	1367	1
616	615	1367	1
1357	1358	1365	1
1359	1358	1365	1
1371	1369	1365	1
1370	1369	1365	1
1356	1367	1368	1
615	1367	1356	1
1356	1357	1358	1
1356	1357	1361	1
1356	1355	1360	1
1356	1355	1363	1
1358	1365	1366	1
1369	1365	1358	1
1358	1357	1361	1
1358	1359	1360	1
1358	1359	1362	1
1355	1356	1357	1
1357	1358	1359	1
1355	1360	1359	1
1355	1360	1364	1
1359	1360	1364	1
1360	1355	1363	1
1360	1359	1362	1
615	1367	1368	1
1369	1365	1366	1
7401	7400	7411	1
7399	7400	7411	1
7411	7419	7413	1
7411	7419	7420	1
7401	7402	7409	1
7403	7402	7409	1
7409	6201	6191	1
7409	6201	6203	1
7400	7411	7412	1
7400	7411	7419	1
7400	7401	7402	1
7400	7401	7405	1
7400	7399	7404	1
7400	7399	7407	1
7402	7409	7410	1
7402	7409	6201	1
7402	7401	7405	1
7402	7403	7404	1
7402	7403	7406	1
7399	7400	7401	1
7401	7402	7403	1
7399	7404	7403	1
7399	7404	7408	1
7403	7404	7408	1
7404	7399	7407	1
7404	7403	7406	1
7412	7411	7419	1
7410	7409	6201	1
11574	11575	11582	1
11576	11575	11582	1
11582	7526	7519	1
11582	7526	7528	1
11574	11573	11584	1
11572	11573	11584	1
11584	4583	4576	1
11584	4583	4585	1
11575	11582	11583	1
11575	11582	7526	1
11573	11574	11575	1
11575	11574	11578	1
11575	11576	11577	1
11575	11576	11579	1
11573	11584	11585	1
11573	11584	4583	1
11573	11574	11578	1
11573	11572	11577	1
11573	11572	11580	1
11574	11575	11576	1
11572	11573	11574	1
11572	11577	11576	1
11576	11577	11581	1
11572	11577	11581	1
11577	11576	11579	1
11577	11572	11580	1
11583	11582	7526	1
11585	11584	4583	1
12204	12205	12212	1
12206	12205	12212	1
12212	6579	6572	1
12212	6579	6581	1
12204	12203	12214	1
12202	12203	12214	1
12214	5690	5680	1
12214	5690	5692	1
12205	12212	12213	1
12205	12212	6579	1
12203	12204	12205	1
12205	12204	12208	1
12205	12206	12207	1
12205	12206	12209	1
12203	12214	12215	1
12203	12214	5690	1
12203	12204	12208	1
12203	12202	12207	1
12203	12202	12210	1
12204	12205	12206	1
12202	12203	12204	1
12202	12207	12206	1
12206	12207	12211	1
12202	12207	12211	1
12207	12206	12209	1
12207	12202	12210	1
12213	12212	6579	1
12215	12214	5690	1
6206	6205	6216	1
6204	6205	6216	1
6216	6224	6218	1
6216	6224	6225	1
6206	6207	6214	1
6208	6207	6214	1
6214	4147	4140	1
6214	4147	4149	1
6205	6216	6217	1
6205	6216	6224	1
6205	6206	6207	1
6205	6206	6210	1
6205	6204	6209	1
6205	6204	6212	1
6207	6214	6215	1
6207	6214	4147	1
6207	6206	6210	1
6207	6208	6209	1
6207	6208	6211	1
6204	6205	6206	1
6206	6207	6208	1
6204	6209	6208	1
6204	6209	6213	1
6208	6209	6213	1
6209	6204	6212	1
6209	6208	6211	1
6217	6216	6224	1
6215	6214	4147	1
4095	4094	4105	1
4093	4094	4105	1
4105	4113	4107	1
4105	4113	4114	1
4095	4096	4103	1
4097	4096	4103	1
4103	7730	7723	1
4103	7730	7732	1
4094	4105	4106	1
4094	4105	4113	1
4094	4095	4096	1
4094	4095	4099	1
4094	4093	4098	1
4094	4093	4101	1
4096	4103	4104	1
4096	4103	7730	1
4096	4095	4099	1
4096	4097	4098	1
4096	4097	4100	1
4093	4094	4095	1
4095	4096	4097	1
4093	4098	4097	1
4093	4098	4102	1
4097	4098	4102	1
4098	4093	4101	1
4098	4097	4100	1
4106	4105	4113	1
4104	4103	7730	1
11672	11671	11682	1
11670	11671	11682	1
11682	8315	8305	1
11682	8315	8317	1
11672	11673	11680	1
11674	11673	11680	1
11680	4729	4719	1
11680	4729	4731	1
11671	11682	11683	1
11671	11682	8315	1
11671	11672	11673	1
11671	11672	11676	1
11671	11670	11675	1
11671	11670	11678	1
11673	11680	11681	1
11673	11680	4729	1
11673	11672	11676	1
11673	11674	11675	1
11673	11674	11677	1
11670	11671	11672	1
11672	11673	11674	1
11670	11675	11674	1
11670	11675	11679	1
11674	11675	11679	1
11675	11670	11678	1
11675	11674	11677	1
11683	11682	8315	1
11681	11680	4729	1
7954	7953	7964	1
7952	7953	7964	1
7964	7972	7966	1
7964	7972	7973	1
7954	7955	7962	1
7956	7955	7962	1
7962	3857	3850	1
7962	3857	3859	1
7953	7964	7965	1
7953	7964	7972	1
7953	7954	7955	1
7953	7954	7958	1
7953	7952	7957	1
7953	7952	7960	1
7955	7962	7963	1
7955	7962	3857	1
7955	7954	7958	1
7955	7956	7957	1
7955	7956	7959	1
7952	7953	7954	1
7954	7955	7956	1
7952	7957	7956	1
7952	7957	7961	1
7956	7957	7961	1
7957	7952	7960	1
7957	7956	7959	1
7965	7964	7972	1
7963	7962	3857	1
4676	4675	4686	1
4674	4675	4686	1
4686	6303	6296	1
4686	6303	6305	1
4676	4677	4684	1
4678	4677	4684	1
4684	4694	4688	1
4684	4694	4695	1
4675	4686	4687	1
4675	4686	6303	1
4675	4676	4677	1
4675	4676	4680	1
4675	4674	4679	1
4675	4674	4682	1
4677	4684	4685	1
4677	4684	4694	1
4677	4676	4680	1
4677	4678	4679	1
4677	4678	4681	1
4674	4675	4676	1
4676	4677	4678	1
4674	4679	4678	1
4674	4679	4683	1
4678	4679	4683	1
4679	4674	4682	1
4679	4678	4681	1
4687	4686	6303	1
4685	4684	4694	1
4618	4617	4628	1
4616	4617	4628	1
857	859	4628	1
860	859	4628	1
4618	4619	4626	1
4620	4619	4626	1
4626	4641	4634	1
4626	4641	4643	1
4617	4628	4629	1
859	4628	4617	1
4617	4618	4619	1
4617	4618	4622	1
4617	4616	4621	1
4617	4616	4624	1
4619	4626	4627	1
4619	4626	4641	1
4619	4618	4622	1
4619	4620	4621	1
4619	4620	4623	1
4616	4617	4618	1
4618	4619	4620	1
4616	4621	4620	1
4616	4621	4625	1
4620	4621	4625	1
4621	4616	4624	1
4621	4620	4623	1
859	4628	4629	1
4627	4626	4641	1
10028	10027	10038	1
10026	10027	10038	1
10038	10052	10042	1
10038	10052	10054	1
10028	10029	10036	1
10030	10029	10036	1
10036	8740	8730	1
10036	8740	8742	1
10027	10038	10039	1
10027	10038	10052	1
10027	10028	10029	1
10027	10028	10032	1
10027	10026	10031	1
10027	10026	10034	1
10029	10036	10037	1
10029	10036	8740	1
10029	10028	10032	1
10029	10030	10031	1
10029	10030	10033	1
10026	10027	10028	1
10028	10029	10030	1
10026	10031	10030	1
10026	10031	10035	1
10030	10031	10035	1
10031	10026	10034	1
10031	10030	10033	1
10039	10038	10052	1
10037	10036	8740	1
5783	5782	5793	1
5781	5782	5793	1
5793	5801	5795	1
5793	5801	5802	1
5783	5784	5791	1
5785	5784	5791	1
5791	8719	8713	1
5791	8719	8720	1
5782	5793	5794	1
5782	5793	5801	1
5782	5783	5784	1
5782	5783	5787	1
5782	5781	5786	1
5782	5781	5789	1
5784	5791	5792	1
5784	5791	8719	1
5784	5783	5787	1
5784	5785	5786	1
5784	5785	5788	1
5781	5782	5783	1
5783	5784	5785	1
5781	5786	5785	1
5781	5786	5790	1
5785	5786	5790	1
5786	5781	5789	1
5786	5785	5788	1
5794	5793	5801	1
5792	5791	8719	1
2950	2949	2960	1
2948	2949	2960	1
2950	2951	2958	1
2952	2951	2958	1
2958	6676	6670	1
2958	6676	6677	1
2949	2960	2961	1
2949	2960	2962	1
2949	2950	2951	1
2949	2950	2954	1
2949	2948	2953	1
2949	2948	2956	1
2951	2958	2959	1
2951	2958	6676	1
2951	2950	2954	1
2951	2952	2953	1
2951	2952	2955	1
2948	2949	2950	1
2950	2951	2952	1
2948	2953	2952	1
2948	2953	2957	1
2952	2953	2957	1
2953	2948	2956	1
2953	2952	2955	1
2961	2960	2962	1
2959	2958	6676	1
6920	6919	6930	1
6918	6919	6930	1
6930	11114	11108	1
6930	11114	11115	1
6920	6921	6928	1
6922	6921	6928	1
6928	6943	6936	1
6928	6943	6945	1
6919	6930	6931	1
6919	6930	11114	1
6919	6920	6921	1
6919	6920	6924	1
6919	6918	6923	1
6919	6918	6926	1
6921	6928	6929	1
6921	6928	6943	1
6921	6920	6924	1
6921	6922	6923	1
6921	6922	6925	1
6918	6919	6920	1
6920	6921	6922	1
6918	6923	6922	1
6918	6923	6927	1
6922	6923	6927	1
6923	6918	6926	1
6923	6922	6925	1
6931	6930	11114	1
6929	6928	6943	1
1251	1250	1261	1
1249	1250	1261	1
1261	7453	7446	1
1261	7453	7455	1
1251	1252	1259	1
1253	1252	1259	1
1265	1263	1259	1
1264	1263	1259	1
1250	1261	1262	1
1250	1261	7453	1
1250	1251	1252	1
1250	1251	1255	1
1250	1249	1254	1
1250	1249	1257	1
1252	1259	1260	1
1263	1259	1252	1
1252	1251	1255	1
1252	1253	1254	1
1252	1253	1256	1
1249	1250	1251	1
1251	1252	1253	1
1249	1254	1253	1
1249	1254	1258	1
1253	1254	1258	1
1254	1249	1257	1
1254	1253	1256	1
1262	1261	7453	1
1263	1259	1260	1
2514	2513	2524	1
2512	2513	2524	1
796	798	2524	1
799	798	2524	1
2514	2515	2522	1
2516	2515	2522	1
2528	2526	2522	1
2527	2526	2522	1
2513	2524	2525	1
798	2524	2513	1
2513	2514	2515	1
2513	2514	2518	1
2513	2512	2517	1
2513	2512	2520	1
2515	2522	2523	1
2526	2522	2515	1
2515	2514	2518	1
2515	2516	2517	1
2515	2516	2519	1
2512	2513	2514	1
2514	2515	2516	1
2512	2517	2516	1
2512	2517	2521	1
2516	2517	2521	1
2517	2512	2520	1
2517	2516	2519	1
798	2524	2525	1
2526	2522	2523	1
6338	6339	6346	1
6340	6339	6346	1
6346	7701	7694	1
6346	7701	7703	1
6338	6337	6348	1
6336	6337	6348	1
6348	6356	6350	1
6348	6356	6357	1
6339	6346	6347	1
6339	6346	7701	1
6339	6338	6337	1
6339	6338	6342	1
6339	6340	6341	1
6339	6340	6343	1
6337	6348	6349	1
6337	6348	6356	1
6337	6338	6342	1
6337	6336	6341	1
6337	6336	6344	1
6340	6339	6338	1
6338	6337	6336	1
6340	6341	6336	1
6340	6341	6345	1
6336	6341	6345	1
6341	6340	6343	1
6341	6336	6344	1
6347	6346	7701	1
6349	6348	6356	1
11182	11181	11192	1
11180	11181	11192	1
11192	7424	7417	1
11192	7424	7426	1
11182	11183	11190	1
11184	11183	11190	1
11190	3828	3821	1
11190	3828	3830	1
11181	11192	11193	1
11181	11192	7424	1
11181	11182	11183	1
11181	11182	11186	1
11181	11180	11185	1
11181	11180	11188	1
11183	11190	11191	1
11183	11190	3828	1
11183	11182	11186	1
11183	11184	11185	1
11183	11184	11187	1
11180	11181	11182	1
11182	11183	11184	1
11180	11185	11184	1
11180	11185	11189	1
11184	11185	11189	1
11185	11180	11188	1
11185	11184	11187	1
11193	11192	7424	1
11191	11190	3828	1
10304	10303	10314	1
10302	10303	10314	1
10314	4279	4269	1
10314	4279	4281	1
10304	10305	10312	1
10306	10305	10312	1
10312	10322	10316	1
10312	10322	10323	1
10303	10314	10315	1
10303	10314	4279	1
10303	10304	10305	1
10303	10304	10308	1
10303	10302	10307	1
10303	10302	10310	1
10305	10312	10313	1
10305	10312	10322	1
10305	10304	10308	1
10305	10306	10307	1
10305	10306	10309	1
10302	10303	10304	1
10304	10305	10306	1
10302	10307	10306	1
10302	10307	10311	1
10306	10307	10311	1
10307	10302	10310	1
10307	10306	10309	1
10315	10314	4279	1
10313	10312	10322	1
3775	3776	3783	1
3777	3776	3783	1
766	768	3783	1
769	768	3783	1
3775	3774	3785	1
3773	3774	3785	1
3776	3783	3784	1
768	3783	3776	1
3774	3775	3776	1
3776	3775	3779	1
3776	3777	3778	1
3776	3777	3780	1
3774	3785	3787	1
3774	3785	3786	1
3774	3775	3779	1
3774	3773	3778	1
3774	3773	3781	1
3775	3776	3777	1
3773	3774	3775	1
3773	3778	3777	1
3777	3778	3782	1
3773	3778	3782	1
3778	3777	3780	1
3778	3773	3781	1
768	3783	3784	1
3786	3785	3787	1
11224	11223	11234	1
11222	11223	11234	1
11234	6755	6745	1
11234	6755	6757	1
11224	11225	11232	1
11226	11225	11232	1
11232	3974	3964	1
11232	3974	3976	1
11223	11234	11235	1
11223	11234	6755	1
11223	11224	11225	1
11223	11224	11228	1
11223	11222	11227	1
11223	11222	11230	1
11225	11232	11233	1
11225	11232	3974	1
11225	11224	11228	1
11225	11226	11227	1
11225	11226	11229	1
11222	11223	11224	1
11224	11225	11226	1
11222	11227	11226	1
11222	11227	11231	1
11226	11227	11231	1
11227	11222	11230	1
11227	11226	11229	1
11235	11234	6755	1
11233	11232	3974	1
10525	10524	10535	1
10523	10524	10535	1
10535	11011	11005	1
10535	11011	11012	1
10525	10526	10533	1
10527	10526	10533	1
10533	10543	10537	1
10533	10543	10544	1
10524	10535	10536	1
10524	10535	11011	1
10524	10525	10526	1
10524	10525	10529	1
10524	10523	10528	1
10524	10523	10531	1
10526	10533	10534	1
10526	10533	10543	1
10526	10525	10529	1
10526	10527	10528	1
10526	10527	10530	1
10523	10524	10525	1
10525	10526	10527	1
10523	10528	10527	1
10523	10528	10532	1
10527	10528	10532	1
10528	10523	10531	1
10528	10527	10530	1
10536	10535	11011	1
10534	10533	10543	1
7066	7065	7076	1
7064	7065	7076	1
7076	7084	7078	1
7076	7084	7085	1
7066	7067	7074	1
7068	7067	7074	1
7074	5879	5872	1
7074	5879	5881	1
7065	7076	7077	1
7065	7076	7084	1
7065	7066	7067	1
7065	7066	7070	1
7065	7064	7069	1
7065	7064	7072	1
7067	7074	7075	1
7067	7074	5879	1
7067	7066	7070	1
7067	7068	7069	1
7067	7068	7071	1
7064	7065	7066	1
7066	7067	7068	1
7064	7069	7068	1
7064	7069	7073	1
7068	7069	7073	1
7069	7064	7072	1
7069	7068	7071	1
7077	7076	7084	1
7075	7074	5879	1
1800	1799	1810	1
1798	1799	1810	1
1785	1792	1810	1
1794	1792	1810	1
1800	1801	1808	1
1802	1801	1808	1
293	300	1808	1
302	300	1808	1
1799	1810	1811	1
1792	1810	1799	1
1799	1800	1801	1
1799	1800	1804	1
1799	1798	1803	1
1799	1798	1806	1
1801	1808	1809	1
300	1808	1801	1
1801	1800	1804	1
1801	1802	1803	1
1801	1802	1805	1
1798	1799	1800	1
1800	1801	1802	1
1798	1803	1802	1
1798	1803	1807	1
1802	1803	1807	1
1803	1798	1806	1
1803	1802	1805	1
1792	1810	1811	1
300	1808	1809	1
12792	12791	12802	1
12790	12791	12802	1
12802	6958	6951	1
12802	6958	6960	1
12792	12793	12800	1
12794	12793	12800	1
12800	10664	10657	1
12800	10664	10666	1
12791	12802	12803	1
12791	12802	6958	1
12791	12792	12793	1
12791	12792	12796	1
12791	12790	12795	1
12791	12790	12798	1
12793	12800	12801	1
12793	12800	10664	1
12793	12792	12796	1
12793	12794	12795	1
12793	12794	12797	1
12790	12791	12792	1
12792	12793	12794	1
12790	12795	12794	1
12790	12795	12799	1
12794	12795	12799	1
12795	12790	12798	1
12795	12794	12797	1
12803	12802	6958	1
12801	12800	10664	1
3340	3339	3350	1
3338	3339	3350	1
3340	3341	3348	1
3342	3341	3348	1
3348	9075	9068	1
3348	9075	9077	1
3339	3350	3351	1
3339	3350	3352	1
3339	3340	3341	1
3339	3340	3344	1
3339	3338	3343	1
3339	3338	3346	1
3341	3348	3349	1
3341	3348	9075	1
3341	3340	3344	1
3341	3342	3343	1
3341	3342	3345	1
3338	3339	3340	1
3340	3341	3342	1
3338	3343	3342	1
3338	3343	3347	1
3342	3343	3347	1
3343	3338	3346	1
3343	3342	3345	1
3351	3350	3352	1
3349	3348	9075	1
13492	13491	13502	1
13490	13491	13502	1
13502	8987	8980	1
13502	8987	8989	1
13492	13493	13500	1
13494	13493	13500	1
13500	10797	10787	1
13500	10797	10799	1
13491	13502	13503	1
13491	13502	8987	1
13491	13492	13493	1
13491	13492	13496	1
13491	13490	13495	1
13491	13490	13498	1
13493	13500	13501	1
13493	13500	10797	1
13493	13492	13496	1
13493	13494	13495	1
13493	13494	13497	1
13490	13491	13492	1
13492	13493	13494	1
13490	13495	13494	1
13490	13495	13499	1
13494	13495	13499	1
13495	13490	13498	1
13495	13494	13497	1
13503	13502	8987	1
13501	13500	10797	1
11896	11895	11906	1
11894	11895	11906	1
2011	2009	11906	1
2010	2009	11906	1
11896	11897	11904	1
11898	11897	11904	1
11904	5122	5112	1
11904	5122	5124	1
11895	11906	11907	1
2009	11906	11895	1
11895	11896	11897	1
11895	11896	11900	1
11895	11894	11899	1
11895	11894	11902	1
11897	11904	11905	1
11897	11904	5122	1
11897	11896	11900	1
11897	11898	11899	1
11897	11898	11901	1
11894	11895	11896	1
11896	11897	11898	1
11894	11899	11898	1
11894	11899	11903	1
11898	11899	11903	1
11899	11894	11902	1
11899	11898	11901	1
2009	11906	11907	1
11905	11904	5122	1
11210	11209	11220	1
11208	11209	11220	1
11220	3887	3877	1
11220	3887	3889	1
11210	11211	11218	1
11212	11211	11218	1
2075	2077	11218	1
2078	2077	11218	1
11209	11220	11221	1
11209	11220	3887	1
11209	11210	11211	1
11209	11210	11214	1
11209	11208	11213	1
11209	11208	11216	1
11211	11218	11219	1
2077	11218	11211	1
11211	11210	11214	1
11211	11212	11213	1
11211	11212	11215	1
11208	11209	11210	1
11210	11211	11212	1
11208	11213	11212	1
11208	11213	11217	1
11212	11213	11217	1
11213	11208	11216	1
11213	11212	11215	1
11221	11220	3887	1
2077	11218	11219	1
3565	3564	3575	1
3563	3564	3575	1
3565	3566	3573	1
3567	3566	3573	1
3573	10703	10697	1
3573	10703	10704	1
3564	3575	3577	1
3564	3575	3576	1
3564	3565	3566	1
3564	3565	3569	1
3564	3563	3568	1
3564	3563	3571	1
3566	3573	3574	1
3566	3573	10703	1
3566	3565	3569	1
3566	3567	3568	1
3566	3567	3570	1
3563	3564	3565	1
3565	3566	3567	1
3563	3568	3567	1
3563	3568	3572	1
3567	3568	3572	1
3568	3563	3571	1
3568	3567	3570	1
3576	3575	3577	1
3574	3573	10703	1
308	309	316	1
310	309	316	1
316	7673	7663	1
316	7673	7675	1
308	307	318	1
306	307	318	1
289	295	318	1
296	295	318	1
309	316	317	1
309	316	7673	1
309	308	307	1
309	308	312	1
309	310	311	1
309	310	313	1
307	318	319	1
295	318	307	1
307	308	312	1
307	306	311	1
307	306	314	1
310	309	308	1
308	307	306	1
310	311	306	1
310	311	315	1
306	311	315	1
311	310	313	1
311	306	314	1
317	316	7673	1
295	318	319	1
2561	2560	2571	1
2559	2560	2571	1
2542	2548	2571	1
2549	2548	2571	1
2561	2562	2569	1
2563	2562	2569	1
415	422	2569	1
424	422	2569	1
2560	2571	2572	1
2548	2571	2560	1
2560	2561	2562	1
2560	2561	2565	1
2560	2559	2564	1
2560	2559	2567	1
2562	2569	2570	1
422	2569	2562	1
2562	2561	2565	1
2562	2563	2564	1
2562	2563	2566	1
2559	2560	2561	1
2561	2562	2563	1
2559	2564	2563	1
2559	2564	2568	1
2563	2564	2568	1
2564	2559	2567	1
2564	2563	2566	1
2548	2571	2572	1
422	2569	2570	1
5505	5504	5515	1
5503	5504	5515	1
5515	5523	5517	1
5515	5523	5524	1
5505	5506	5513	1
5507	5506	5513	1
5513	10835	10829	1
5513	10835	10836	1
5504	5515	5516	1
5504	5515	5523	1
5504	5505	5506	1
5504	5505	5509	1
5504	5503	5508	1
5504	5503	5511	1
5506	5513	5514	1
5506	5513	10835	1
5506	5505	5509	1
5506	5507	5508	1
5506	5507	5510	1
5503	5504	5505	1
5505	5506	5507	1
5503	5508	5507	1
5503	5508	5512	1
5507	5508	5512	1
5508	5503	5511	1
5508	5507	5510	1
5516	5515	5523	1
5514	5513	10835	1
4284	4283	4294	1
4282	4283	4294	1
4294	4302	4296	1
4294	4302	4303	1
4284	4285	4292	1
4286	4285	4292	1
4292	8602	8596	1
4292	8602	8603	1
4283	4294	4295	1
4283	4294	4302	1
4283	4284	4285	1
4283	4284	4288	1
4283	4282	4287	1
4283	4282	4290	1
4285	4292	4293	1
4285	4292	8602	1
4285	4284	4288	1
4285	4286	4287	1
4285	4286	4289	1
4282	4283	4284	1
4284	4285	4286	1
4282	4287	4286	1
4282	4287	4291	1
4286	4287	4291	1
4287	4282	4290	1
4287	4286	4289	1
4295	4294	4302	1
4293	4292	8602	1
13800	13799	13810	1
13798	13799	13810	1
1285	1287	13810	1
1288	1287	13810	1
13800	13801	13808	1
13802	13801	13808	1
1632	1639	13808	1
1641	1639	13808	1
13799	13810	13811	1
1287	13810	13799	1
13799	13800	13801	1
13799	13800	13804	1
13799	13798	13803	1
13799	13798	13806	1
13801	13808	13809	1
1639	13808	13801	1
13801	13800	13804	1
13801	13802	13803	1
13801	13802	13805	1
13798	13799	13800	1
13800	13801	13802	1
13798	13803	13802	1
13798	13803	13807	1
13802	13803	13807	1
13803	13798	13806	1
13803	13802	13805	1
1287	13810	13811	1
1639	13808	13809	1
3250	3249	3260	1
3248	3249	3260	1
3250	3251	3258	1
3252	3251	3258	1
3258	8871	8861	1
3258	8871	8873	1
3249	3260	3261	1
3249	3260	3262	1
3249	3250	3251	1
3249	3250	3254	1
3249	3248	3253	1
3249	3248	3256	1
3251	3258	3259	1
3251	3258	8871	1
3251	3250	3254	1
3251	3252	3253	1
3251	3252	3255	1
3248	3249	3250	1
3250	3251	3252	1
3248	3253	3252	1
3248	3253	3257	1
3252	3253	3257	1
3253	3248	3256	1
3253	3252	3255	1
3261	3260	3262	1
3259	3258	8871	1
12498	12497	12508	1
12496	12497	12508	1
12508	6186	6176	1
12508	6186	6188	1
12498	12499	12506	1
12500	12499	12506	1
12506	6580	6570	1
12506	6580	6582	1
12497	12508	12509	1
12497	12508	6186	1
12497	12498	12499	1
12497	12498	12502	1
12497	12496	12501	1
12497	12496	12504	1
12499	12506	12507	1
12499	12506	6580	1
12499	12498	12502	1
12499	12500	12501	1
12499	12500	12503	1
12496	12497	12498	1
12498	12499	12500	1
12496	12501	12500	1
12496	12501	12505	1
12500	12501	12505	1
12501	12496	12504	1
12501	12500	12503	1
12509	12508	6186	1
12507	12506	6580	1
12274	12273	12284	1
12272	12273	12284	1
12284	6988	6978	1
12284	6988	6990	1
12274	12275	12282	1
12276	12275	12282	1
12282	5778	5768	1
12282	5778	5780	1
12273	12284	12285	1
12273	12284	6988	1
12273	12274	12275	1
12273	12274	12278	1
12273	12272	12277	1
12273	12272	12280	1
12275	12282	12283	1
12275	12282	5778	1
12275	12274	12278	1
12275	12276	12277	1
12275	12276	12279	1
12272	12273	12274	1
12274	12275	12276	1
12272	12277	12276	1
12272	12277	12281	1
12276	12277	12281	1
12277	12272	12280	1
12277	12276	12279	1
12285	12284	6988	1
12283	12282	5778	1
11350	11349	11360	1
11348	11349	11360	1
11360	4176	4169	1
11360	4176	4178	1
11350	11351	11358	1
11352	11351	11358	1
11358	10373	10363	1
11358	10373	10375	1
11349	11360	11361	1
11349	11360	4176	1
11349	11350	11351	1
11349	11350	11354	1
11349	11348	11353	1
11349	11348	11356	1
11351	11358	11359	1
11351	11358	10373	1
11351	11350	11354	1
11351	11352	11353	1
11351	11352	11355	1
11348	11349	11350	1
11350	11351	11352	1
11348	11353	11352	1
11348	11353	11357	1
11352	11353	11357	1
11353	11348	11356	1
11353	11352	11355	1
11361	11360	4176	1
11359	11358	10373	1
5243	5242	5253	1
5241	5242	5253	1
5253	5261	5255	1
5253	5261	5262	1
5243	5244	5251	1
5245	5244	5251	1
5251	7090	7080	1
5251	7090	7092	1
5242	5253	5254	1
5242	5253	5261	1
5242	5243	5244	1
5242	5243	5247	1
5242	5241	5246	1
5242	5241	5249	1
5244	5251	5252	1
5244	5251	7090	1
5244	5243	5247	1
5244	5245	5246	1
5244	5245	5248	1
5241	5242	5243	1
5243	5244	5245	1
5241	5246	5245	1
5241	5246	5250	1
5245	5246	5250	1
5246	5241	5249	1
5246	5245	5248	1
5254	5253	5261	1
5252	5251	7090	1
1404	1403	1414	1
1402	1403	1414	1
1385	1391	1414	1
1392	1391	1414	1
1404	1405	1412	1
1406	1405	1412	1
1412	8704	8698	1
1412	8704	8705	1
1403	1414	1415	1
1391	1414	1403	1
1403	1404	1405	1
1403	1404	1408	1
1403	1402	1407	1
1403	1402	1410	1
1405	1412	1413	1
1405	1412	8704	1
1405	1404	1408	1
1405	1406	1407	1
1405	1406	1409	1
1402	1403	1404	1
1404	1405	1406	1
1402	1407	1406	1
1402	1407	1411	1
1406	1407	1411	1
1407	1402	1410	1
1407	1406	1409	1
1391	1414	1415	1
1413	1412	8704	1
12596	12595	12606	1
12594	12595	12606	1
12606	6784	6774	1
12606	6784	6786	1
12596	12597	12604	1
12598	12597	12604	1
12604	6362	6352	1
12604	6362	6364	1
12595	12606	12607	1
12595	12606	6784	1
12595	12596	12597	1
12595	12596	12600	1
12595	12594	12599	1
12595	12594	12602	1
12597	12604	12605	1
12597	12604	6362	1
12597	12596	12600	1
12597	12598	12599	1
12597	12598	12601	1
12594	12595	12596	1
12596	12597	12598	1
12594	12599	12598	1
12594	12599	12603	1
12598	12599	12603	1
12599	12594	12602	1
12599	12598	12601	1
12607	12606	6784	1
12605	12604	6362	1
11840	11839	11850	1
11838	11839	11850	1
11850	8666	8656	1
11850	8666	8668	1
11840	11841	11848	1
11842	11841	11848	1
11848	5035	5025	1
11848	5035	5037	1
11839	11850	11851	1
11839	11850	8666	1
11839	11840	11841	1
11839	11840	11844	1
11839	11838	11843	1
11839	11838	11846	1
11841	11848	11849	1
11841	11848	5035	1
11841	11840	11844	1
11841	11842	11843	1
11841	11842	11845	1
11838	11839	11840	1
11840	11841	11842	1
11838	11843	11842	1
11838	11843	11847	1
11842	11843	11847	1
11843	11838	11846	1
11843	11842	11845	1
11851	11850	8666	1
11849	11848	5035	1
4865	4864	4875	1
4863	4864	4875	1
370	372	4875	1
373	372	4875	1
4865	4866	4873	1
4867	4866	4873	1
4873	4883	4877	1
4873	4883	4884	1
4864	4875	4876	1
372	4875	4864	1
4864	4865	4866	1
4864	4865	4869	1
4864	4863	4868	1
4864	4863	4871	1
4866	4873	4874	1
4866	4873	4883	1
4866	4865	4869	1
4866	4867	4868	1
4866	4867	4870	1
4863	4864	4865	1
4865	4866	4867	1
4863	4868	4867	1
4863	4868	4872	1
4867	4868	4872	1
4868	4863	4871	1
4868	4867	4870	1
372	4875	4876	1
4874	4873	4883	1
5915	5916	5923	1
5917	5916	5923	1
5923	7977	7970	1
5923	7977	7979	1
5915	5914	5925	1
5913	5914	5925	1
5925	5933	5927	1
5925	5933	5934	1
5916	5923	5924	1
5916	5923	7977	1
5914	5915	5916	1
5916	5915	5919	1
5916	5917	5918	1
5916	5917	5920	1
5914	5925	5926	1
5914	5925	5933	1
5914	5915	5919	1
5914	5913	5918	1
5914	5913	5921	1
5915	5916	5917	1
5913	5914	5915	1
5913	5918	5917	1
5917	5918	5922	1
5913	5918	5922	1
5918	5917	5920	1
5918	5913	5921	1
5924	5923	7977	1
5926	5925	5933	1
11336	11335	11346	1
11334	11335	11346	1
11346	4917	4910	1
11346	4917	4919	1
11336	11337	11344	1
11338	11337	11344	1
11344	4148	4138	1
11344	4148	4150	1
11335	11346	11347	1
11335	11346	4917	1
11335	11336	11337	1
11335	11336	11340	1
11335	11334	11339	1
11335	11334	11342	1
11337	11344	11345	1
11337	11344	4148	1
11337	11336	11340	1
11337	11338	11339	1
11337	11338	11341	1
11334	11335	11336	1
11336	11337	11338	1
11334	11339	11338	1
11334	11339	11343	1
11338	11339	11343	1
11339	11334	11342	1
11339	11338	11341	1
11347	11346	4917	1
11345	11344	4148	1
12190	12189	12200	1
12188	12189	12200	1
1693	1700	12200	1
1702	1700	12200	1
12190	12191	12198	1
12192	12191	12198	1
12198	5655	5649	1
12198	5655	5656	1
12189	12200	12201	1
1700	12200	12189	1
12189	12190	12191	1
12189	12190	12194	1
12189	12188	12193	1
12189	12188	12196	1
12191	12198	12199	1
12191	12198	5655	1
12191	12190	12194	1
12191	12192	12193	1
12191	12192	12195	1
12188	12189	12190	1
12190	12191	12192	1
12188	12193	12192	1
12188	12193	12197	1
12192	12193	12197	1
12193	12188	12196	1
12193	12192	12195	1
1700	12200	12201	1
12199	12198	5655	1
10612	10611	10622	1
10610	10611	10622	1
10622	10630	10624	1
10622	10630	10631	1
10612	10613	10620	1
10614	10613	10620	1
10620	10841	10831	1
10620	10841	10843	1
10611	10622	10623	1
10611	10622	10630	1
10611	10612	10613	1
10611	10612	10616	1
10611	10610	10615	1
10611	10610	10618	1
10613	10620	10621	1
10613	10620	10841	1
10613	10612	10616	1
10613	10614	10615	1
10613	10614	10617	1
10610	10611	10612	1
10612	10613	10614	1
10610	10615	10614	1
10610	10615	10619	1
10614	10615	10619	1
10615	10610	10618	1
10615	10614	10617	1
10623	10622	10630	1
10621	10620	10841	1
3535	3534	3545	1
3533	3534	3545	1
3535	3536	3543	1
3537	3536	3543	1
3543	10460	10453	1
3543	10460	10462	1
3534	3545	3546	1
3534	3545	3547	1
3534	3535	3536	1
3534	3535	3539	1
3534	3533	3538	1
3534	3533	3541	1
3536	3543	3544	1
3536	3543	10460	1
3536	3535	3539	1
3536	3537	3538	1
3536	3537	3540	1
3533	3534	3535	1
3535	3536	3537	1
3533	3538	3537	1
3533	3538	3542	1
3537	3538	3542	1
3538	3533	3541	1
3538	3537	3540	1
3546	3545	3547	1
3544	3543	10460	1
474	473	484	1
472	473	484	1
484	9901	9895	1
484	9901	9902	1
474	475	482	1
476	475	482	1
488	486	482	1
487	486	482	1
473	484	485	1
473	484	9901	1
473	474	475	1
473	474	478	1
473	472	477	1
473	472	480	1
475	482	483	1
486	482	475	1
475	474	478	1
475	476	477	1
475	476	479	1
472	473	474	1
474	475	476	1
472	477	476	1
472	477	481	1
476	477	481	1
477	472	480	1
477	476	479	1
485	484	9901	1
486	482	483	1
7736	7735	7746	1
7734	7735	7746	1
7746	5034	5027	1
7746	5034	5036	1
7736	7737	7744	1
7738	7737	7744	1
7744	7754	7748	1
7744	7754	7755	1
7735	7746	7747	1
7735	7746	5034	1
7735	7736	7737	1
7735	7736	7740	1
7735	7734	7739	1
7735	7734	7742	1
7737	7744	7745	1
7737	7744	7754	1
7737	7736	7740	1
7737	7738	7739	1
7737	7738	7741	1
7734	7735	7736	1
7736	7737	7738	1
7734	7739	7738	1
7734	7739	7743	1
7738	7739	7743	1
7739	7734	7742	1
7739	7738	7741	1
7747	7746	5034	1
7745	7744	7754	1
11868	11867	11878	1
11866	11867	11878	1
11878	5092	5085	1
11878	5092	5094	1
11868	11869	11876	1
11870	11869	11876	1
11876	9994	9984	1
11876	9994	9996	1
11867	11878	11879	1
11867	11878	5092	1
11867	11868	11869	1
11867	11868	11872	1
11867	11866	11871	1
11867	11866	11874	1
11869	11876	11877	1
11869	11876	9994	1
11869	11868	11872	1
11869	11870	11871	1
11869	11870	11873	1
11866	11867	11868	1
11868	11869	11870	1
11866	11871	11870	1
11866	11871	11875	1
11870	11871	11875	1
11871	11866	11874	1
11871	11870	11873	1
11879	11878	5092	1
11877	11876	9994	1
213	212	223	1
211	212	223	1
200	202	223	1
203	202	223	1
213	214	221	1
215	214	221	1
221	8324	8318	1
221	8324	8325	1
212	223	224	1
202	223	212	1
212	213	214	1
212	213	217	1
212	211	216	1
212	211	219	1
214	221	222	1
214	221	8324	1
214	213	217	1
214	215	216	1
214	215	218	1
211	212	213	1
213	214	215	1
211	216	215	1
211	216	220	1
215	216	220	1
216	211	219	1
216	215	218	1
202	223	224	1
222	221	8324	1
10554	10553	10564	1
10552	10553	10564	1
10564	10572	10566	1
10564	10572	10573	1
10554	10555	10562	1
10556	10555	10562	1
10562	7876	7866	1
10562	7876	7878	1
10553	10564	10565	1
10553	10564	10572	1
10553	10554	10555	1
10553	10554	10558	1
10553	10552	10557	1
10553	10552	10560	1
10555	10562	10563	1
10555	10562	7876	1
10555	10554	10558	1
10555	10556	10557	1
10555	10556	10559	1
10552	10553	10554	1
10554	10555	10556	1
10552	10557	10556	1
10552	10557	10561	1
10556	10557	10561	1
10557	10552	10560	1
10557	10556	10559	1
10565	10564	10572	1
10563	10562	7876	1
21	20	31	1
19	20	31	1
31	3973	3966	1
31	3973	3975	1
21	22	29	1
23	22	29	1
8	10	29	1
11	10	29	1
20	31	32	1
20	31	3973	1
20	21	22	1
20	21	25	1
20	19	24	1
20	19	27	1
22	29	30	1
10	29	22	1
22	21	25	1
22	23	24	1
22	23	26	1
19	20	21	1
21	22	23	1
19	24	23	1
19	24	28	1
23	24	28	1
24	19	27	1
24	23	26	1
32	31	3973	1
10	29	30	1
2710	2711	2718	1
2712	2711	2718	1
2718	5029	5023	1
2718	5029	5030	1
2710	2709	2720	1
2708	2709	2720	1
2711	2718	2719	1
2711	2718	5029	1
2709	2710	2711	1
2711	2710	2714	1
2711	2712	2713	1
2711	2712	2715	1
2709	2720	2721	1
2709	2720	2722	1
2709	2710	2714	1
2709	2708	2713	1
2709	2708	2716	1
2710	2711	2712	1
2708	2709	2710	1
2708	2713	2712	1
2712	2713	2717	1
2708	2713	2717	1
2713	2712	2715	1
2713	2708	2716	1
2719	2718	5029	1
2721	2720	2722	1
2164	2165	2172	1
2166	2165	2172	1
2178	2176	2172	1
2177	2176	2172	1
2164	2163	2174	1
2162	2163	2174	1
2174	8383	8377	1
2174	8383	8384	1
2165	2172	2173	1
2176	2172	2165	1
2163	2164	2165	1
2165	2164	2168	1
2165	2166	2167	1
2165	2166	2169	1
2163	2174	2175	1
2163	2174	8383	1
2163	2164	2168	1
2163	2162	2167	1
2163	2162	2170	1
2164	2165	2166	1
2162	2163	2164	1
2162	2167	2166	1
2166	2167	2171	1
2162	2167	2171	1
2167	2166	2169	1
2167	2162	2170	1
2176	2172	2173	1
2175	2174	8383	1
13688	13687	13698	1
13686	13687	13698	1
13698	10840	10833	1
13698	10840	10842	1
13688	13689	13696	1
13690	13689	13696	1
13696	10636	10626	1
13696	10636	10638	1
13687	13698	13699	1
13687	13698	10840	1
13687	13688	13689	1
13687	13688	13692	1
13687	13686	13691	1
13687	13686	13694	1
13689	13696	13697	1
13689	13696	10636	1
13689	13688	13692	1
13689	13690	13691	1
13689	13690	13693	1
13686	13687	13688	1
13688	13689	13690	1
13686	13691	13690	1
13686	13691	13695	1
13690	13691	13695	1
13691	13686	13694	1
13691	13690	13693	1
13699	13698	10840	1
13697	13696	10636	1
7197	7196	7207	1
7195	7196	7207	1
7207	6842	6832	1
7207	6842	6844	1
7197	7198	7205	1
7199	7198	7205	1
7205	7215	7209	1
7205	7215	7216	1
7196	7207	7208	1
7196	7207	6842	1
7196	7197	7198	1
7196	7197	7201	1
7196	7195	7200	1
7196	7195	7203	1
7198	7205	7206	1
7198	7205	7215	1
7198	7197	7201	1
7198	7199	7200	1
7198	7199	7202	1
7195	7196	7197	1
7197	7198	7199	1
7195	7200	7199	1
7195	7200	7204	1
7199	7200	7204	1
7200	7195	7203	1
7200	7199	7202	1
7208	7207	6842	1
7206	7205	7215	1
4066	4065	4076	1
4064	4065	4076	1
4076	4084	4078	1
4076	4084	4085	1
4066	4067	4074	1
4068	4067	4074	1
4074	5553	5547	1
4074	5553	5554	1
4065	4076	4077	1
4065	4076	4084	1
4065	4066	4067	1
4065	4066	4070	1
4065	4064	4069	1
4065	4064	4072	1
4067	4074	4075	1
4067	4074	5553	1
4067	4066	4070	1
4067	4068	4069	1
4067	4068	4071	1
4064	4065	4066	1
4066	4067	4068	1
4064	4069	4068	1
4064	4069	4073	1
4068	4069	4073	1
4069	4064	4072	1
4069	4068	4071	1
4077	4076	4084	1
4075	4074	5553	1
6075	6074	6085	1
6073	6074	6085	1
6085	6093	6087	1
6085	6093	6094	1
6075	6076	6083	1
6077	6076	6083	1
6083	6871	6861	1
6083	6871	6873	1
6074	6085	6086	1
6074	6085	6093	1
6074	6075	6076	1
6074	6075	6079	1
6074	6073	6078	1
6074	6073	6081	1
6076	6083	6084	1
6076	6083	6871	1
6076	6075	6079	1
6076	6077	6078	1
6076	6077	6080	1
6073	6074	6075	1
6075	6076	6077	1
6073	6078	6077	1
6073	6078	6082	1
6077	6078	6082	1
6078	6073	6081	1
6078	6077	6080	1
6086	6085	6093	1
6084	6083	6871	1
4255	4256	4263	1
4257	4256	4263	1
1039	1041	4263	1
1042	1041	4263	1
4255	4254	4265	1
4253	4254	4265	1
4265	4273	4267	1
4265	4273	4274	1
4256	4263	4264	1
1041	4263	4256	1
4254	4255	4256	1
4256	4255	4259	1
4256	4257	4258	1
4256	4257	4260	1
4254	4265	4266	1
4254	4265	4273	1
4254	4255	4259	1
4254	4253	4258	1
4254	4253	4261	1
4255	4256	4257	1
4253	4254	4255	1
4253	4258	4257	1
4257	4258	4262	1
4253	4258	4262	1
4258	4257	4260	1
4258	4253	4261	1
1041	4263	4264	1
4266	4265	4273	1
13254	13255	13262	1
13256	13255	13262	1
13262	9192	9182	1
13262	9192	9194	1
13254	13253	13264	1
13252	13253	13264	1
13264	8212	8202	1
13264	8212	8214	1
13255	13262	13263	1
13255	13262	9192	1
13253	13254	13255	1
13255	13254	13258	1
13255	13256	13257	1
13255	13256	13259	1
13253	13264	13265	1
13253	13264	8212	1
13253	13254	13258	1
13253	13252	13257	1
13253	13252	13260	1
13254	13255	13256	1
13252	13253	13254	1
13252	13257	13256	1
13256	13257	13261	1
13252	13257	13261	1
13257	13256	13259	1
13257	13252	13260	1
13263	13262	9192	1
13265	13264	8212	1
7037	7036	7047	1
7035	7036	7047	1
7047	11135	11125	1
7047	11135	11137	1
7037	7038	7045	1
7039	7038	7045	1
7045	7055	7049	1
7045	7055	7056	1
7036	7047	7048	1
7036	7047	11135	1
7036	7037	7038	1
7036	7037	7041	1
7036	7035	7040	1
7036	7035	7043	1
7038	7045	7046	1
7038	7045	7055	1
7038	7037	7041	1
7038	7039	7040	1
7038	7039	7042	1
7035	7036	7037	1
7037	7038	7039	1
7035	7040	7039	1
7035	7040	7044	1
7039	7040	7044	1
7040	7035	7043	1
7040	7039	7042	1
7048	7047	11135	1
7046	7045	7055	1
4124	4123	4134	1
4122	4123	4134	1
4134	5397	5390	1
4134	5397	5399	1
4124	4125	4132	1
4126	4125	4132	1
4132	4142	4136	1
4132	4142	4143	1
4123	4134	4135	1
4123	4134	5397	1
4123	4124	4125	1
4123	4124	4128	1
4123	4122	4127	1
4123	4122	4130	1
4125	4132	4133	1
4125	4132	4142	1
4125	4124	4128	1
4125	4126	4127	1
4125	4126	4129	1
4122	4123	4124	1
4124	4125	4126	1
4122	4127	4126	1
4122	4127	4131	1
4126	4127	4131	1
4127	4122	4130	1
4127	4126	4129	1
4135	4134	5397	1
4133	4132	4142	1
3550	3551	3558	1
3552	3551	3558	1
3558	10606	10599	1
3558	10606	10608	1
3550	3549	3560	1
3548	3549	3560	1
3551	3558	3559	1
3551	3558	10606	1
3549	3550	3551	1
3551	3550	3554	1
3551	3552	3553	1
3551	3552	3555	1
3549	3560	3561	1
3549	3560	3562	1
3549	3550	3554	1
3549	3548	3553	1
3549	3548	3556	1
3550	3551	3552	1
3548	3549	3550	1
3548	3553	3552	1
3552	3553	3557	1
3548	3553	3557	1
3553	3552	3555	1
3553	3548	3556	1
3559	3558	10606	1
3561	3560	3562	1
3310	3311	3318	1
3312	3311	3318	1
3318	9041	9035	1
3318	9041	9042	1
3310	3309	3320	1
3308	3309	3320	1
3311	3318	3319	1
3311	3318	9041	1
3309	3310	3311	1
3311	3310	3314	1
3311	3312	3313	1
3311	3312	3315	1
3309	3320	3321	1
3309	3320	3322	1
3309	3310	3314	1
3309	3308	3313	1
3309	3308	3316	1
3310	3311	3312	1
3308	3309	3310	1
3308	3313	3312	1
3312	3313	3317	1
3308	3313	3317	1
3313	3312	3315	1
3313	3308	3316	1
3319	3318	9041	1
3321	3320	3322	1
7547	7548	7555	1
7549	7548	7555	1
7555	7570	7563	1
7555	7570	7572	1
7547	7546	7557	1
7545	7546	7557	1
7557	5631	5624	1
7557	5631	5633	1
7548	7555	7556	1
7548	7555	7570	1
7548	7547	7546	1
7548	7547	7551	1
7548	7549	7550	1
7548	7549	7552	1
7546	7557	7558	1
7546	7557	5631	1
7546	7547	7551	1
7546	7545	7550	1
7546	7545	7553	1
7549	7548	7547	1
7547	7546	7545	1
7549	7550	7545	1
7549	7550	7554	1
7545	7550	7554	1
7550	7549	7552	1
7550	7545	7553	1
7556	7555	7570	1
7558	7557	5631	1
10422	10421	10432	1
10420	10421	10432	1
10432	10445	10438	1
10432	10445	10447	1
10422	10423	10430	1
10424	10423	10430	1
10430	6637	6630	1
10430	6637	6639	1
10421	10432	10433	1
10421	10432	10445	1
10421	10422	10423	1
10421	10422	10426	1
10421	10420	10425	1
10421	10420	10428	1
10423	10430	10431	1
10423	10430	6637	1
10423	10422	10426	1
10423	10424	10425	1
10423	10424	10427	1
10420	10421	10422	1
10422	10423	10424	1
10420	10425	10424	1
10420	10425	10429	1
10424	10425	10429	1
10425	10420	10428	1
10425	10424	10427	1
10433	10432	10445	1
10431	10430	6637	1
5345	5344	5355	1
5343	5344	5355	1
5355	5363	5357	1
5355	5363	5364	1
5345	5346	5353	1
5347	5346	5353	1
5353	10455	10449	1
5353	10455	10456	1
5344	5355	5356	1
5344	5355	5363	1
5344	5345	5346	1
5344	5345	5349	1
5344	5343	5348	1
5344	5343	5351	1
5346	5353	5354	1
5346	5353	10455	1
5346	5345	5349	1
5346	5347	5348	1
5346	5347	5350	1
5343	5344	5345	1
5345	5346	5347	1
5343	5348	5347	1
5343	5348	5352	1
5347	5348	5352	1
5348	5343	5351	1
5348	5347	5350	1
5356	5355	5363	1
5354	5353	10455	1
12120	12119	12130	1
12118	12119	12130	1
12130	9600	9590	1
12130	9600	9602	1
12120	12121	12128	1
12122	12121	12128	1
12128	5559	5549	1
12128	5559	5561	1
12119	12130	12131	1
12119	12130	9600	1
12119	12120	12121	1
12119	12120	12124	1
12119	12118	12123	1
12119	12118	12126	1
12121	12128	12129	1
12121	12128	5559	1
12121	12120	12124	1
12121	12122	12123	1
12121	12122	12125	1
12118	12119	12120	1
12120	12121	12122	1
12118	12123	12122	1
12118	12123	12127	1
12122	12123	12127	1
12123	12118	12126	1
12123	12122	12125	1
12131	12130	9600	1
12129	12128	5559	1
3802	3803	3804	1
3802	3803	3810	1
3802	3805	3806	1
3802	3805	3811	1
3802	3808	3809	1
3803	3804	3807	1
3803	3804	3814	1
3803	3802	3805	1
3803	3802	3808	1
3804	3803	3810	1
3804	3807	3806	1
3804	3807	3812	1
3804	3814	3816	1
3807	3804	3814	1
3805	3806	3807	1
3807	3806	3813	1
3806	3807	3812	1
3806	3805	3811	1
3806	3813	3815	1
3805	3806	3813	1
3805	3802	3808	1
291	294	293	1
291	294	299	1
289	290	291	1
291	290	297	1
291	301	303	1
291	301	304	1
292	293	294	1
294	293	300	1
290	291	294	1
294	291	301	1
293	294	299	1
289	292	293	1
293	292	298	1
293	300	302	1
292	293	300	1
290	289	292	1
292	289	295	1
289	292	298	1
289	290	297	1
289	295	296	1
290	289	295	1
290	291	301	1
301	304	305	1
303	301	304	1
336	337	338	1
336	337	347	1
336	341	340	1
336	341	349	1
336	334	335	1
337	338	339	1
337	338	344	1
337	336	341	1
337	336	334	1
338	337	347	1
338	339	340	1
338	339	348	1
338	344	345	1
338	344	346	1
339	338	344	1
341	340	339	1
339	340	342	1
340	339	348	1
340	341	349	1
340	342	343	1
341	340	342	1
341	336	334	1
345	344	346	1
3817	3820	3821	1
3817	3820	3826	1
3817	3818	3819	1
3817	3818	3825	1
3817	3823	3824	1
3820	3821	3822	1
3820	3821	3828	1
3818	3817	3820	1
3820	3817	3823	1
3821	3820	3826	1
3819	3822	3821	1
3821	3822	3827	1
3821	3828	3830	1
3822	3821	3828	1
3818	3819	3822	1
3822	3819	3829	1
3819	3822	3827	1
3819	3818	3825	1
3819	3829	3831	1
3818	3819	3829	1
3818	3817	3823	1
366	371	370	1
366	371	379	1
366	367	368	1
366	367	377	1
366	364	365	1
371	370	369	1
371	370	372	1
367	366	371	1
371	366	364	1
370	371	379	1
368	369	370	1
370	369	378	1
370	372	373	1
369	370	372	1
367	368	369	1
369	368	374	1
368	369	378	1
368	367	377	1
368	374	375	1
368	374	376	1
367	368	374	1
367	366	364	1
375	374	376	1
380	383	384	1
380	383	389	1
380	381	382	1
380	381	388	1
380	386	387	1
383	384	385	1
383	384	391	1
381	380	383	1
383	380	386	1
384	383	389	1
382	385	384	1
384	385	390	1
384	391	393	1
385	384	391	1
381	382	385	1
385	382	392	1
382	385	390	1
382	381	388	1
382	392	394	1
382	392	395	1
381	382	392	1
381	380	386	1
392	395	396	1
394	392	395	1
3846	3849	3850	1
3846	3849	3855	1
3846	3847	3848	1
3846	3847	3854	1
3846	3852	3853	1
3849	3850	3851	1
3849	3850	3857	1
3847	3846	3849	1
3849	3846	3852	1
3850	3849	3855	1
3848	3851	3850	1
3850	3851	3856	1
3850	3857	3859	1
3851	3850	3857	1
3847	3848	3851	1
3851	3848	3858	1
3848	3851	3856	1
3848	3847	3854	1
3848	3858	3860	1
3847	3848	3858	1
3847	3846	3852	1
3875	3878	3879	1
3875	3878	3884	1
3875	3876	3877	1
3875	3876	3883	1
3875	3881	3882	1
3878	3879	3880	1
3878	3879	3886	1
3876	3875	3878	1
3878	3875	3881	1
3879	3878	3884	1
3877	3880	3879	1
3879	3880	3885	1
3879	3886	3888	1
3880	3879	3886	1
3876	3877	3880	1
3880	3877	3887	1
3877	3880	3885	1
3877	3876	3883	1
3877	3887	3889	1
3876	3877	3887	1
3876	3875	3881	1
411	412	413	1
413	412	419	1
413	416	415	1
413	416	421	1
413	423	425	1
413	423	426	1
412	411	414	1
412	411	417	1
412	413	416	1
412	413	423	1
411	412	419	1
411	414	415	1
411	414	420	1
411	417	418	1
414	411	417	1
414	415	416	1
414	415	422	1
415	414	420	1
415	416	421	1
415	422	424	1
416	415	422	1
416	413	423	1
423	426	427	1
425	423	426	1
3904	3907	3908	1
3904	3907	3913	1
3904	3905	3906	1
3904	3905	3912	1
3904	3910	3911	1
3907	3908	3909	1
3907	3908	3915	1
3905	3904	3907	1
3907	3904	3910	1
3908	3907	3913	1
3906	3909	3908	1
3908	3909	3914	1
3908	3915	3917	1
3909	3908	3915	1
3905	3906	3909	1
3909	3906	3916	1
3906	3909	3914	1
3906	3905	3912	1
3906	3916	3918	1
3905	3906	3916	1
3905	3904	3910	1
3933	3934	3935	1
3933	3934	3941	1
3933	3936	3937	1
3933	3936	3942	1
3933	3939	3940	1
3934	3935	3938	1
3934	3935	3945	1
3934	3933	3936	1
3934	3933	3939	1
3935	3934	3941	1
3935	3938	3937	1
3935	3938	3943	1
3935	3945	3947	1
3938	3935	3945	1
3936	3937	3938	1
3938	3937	3944	1
3937	3938	3943	1
3937	3936	3942	1
3937	3944	3946	1
3936	3937	3944	1
3936	3933	3939	1
3962	3965	3966	1
3962	3965	3971	1
3962	3963	3964	1
3962	3963	3970	1
3962	3968	3969	1
3965	3966	3967	1
3965	3966	3973	1
3965	3962	3963	1
3965	3962	3968	1
3966	3965	3971	1
3966	3967	3964	1
3966	3967	3972	1
3966	3973	3975	1
3967	3966	3973	1
3963	3964	3967	1
3967	3964	3974	1
3964	3967	3972	1
3964	3963	3970	1
3964	3974	3976	1
3963	3964	3974	1
3963	3962	3968	1
458	459	460	1
460	459	469	1
460	461	462	1
460	461	470	1
460	466	467	1
460	466	468	1
459	458	463	1
459	458	456	1
459	460	461	1
459	460	466	1
458	459	469	1
458	463	462	1
458	463	471	1
458	456	457	1
463	458	456	1
463	462	461	1
463	462	464	1
462	463	471	1
462	461	470	1
462	464	465	1
461	462	464	1
461	460	466	1
467	466	468	1
3991	3994	3995	1
3991	3994	4000	1
3991	3992	3993	1
3991	3992	3999	1
3991	3997	3998	1
3994	3995	3996	1
3994	3995	4002	1
3994	3991	3992	1
3994	3991	3997	1
3995	3994	4000	1
3995	3996	3993	1
3995	3996	4001	1
3995	4002	4004	1
3996	3995	4002	1
3992	3993	3996	1
3996	3993	4003	1
3993	3996	4001	1
3993	3992	3999	1
3993	4003	4005	1
3992	3993	4003	1
3992	3991	3997	1
4020	4021	4022	1
4020	4021	4028	1
4020	4023	4024	1
4020	4023	4029	1
4020	4026	4027	1
4021	4022	4025	1
4021	4022	4032	1
4021	4020	4023	1
4021	4020	4026	1
4022	4021	4028	1
4022	4025	4024	1
4022	4025	4030	1
4022	4032	4034	1
4025	4022	4032	1
4023	4024	4025	1
4025	4024	4031	1
4024	4025	4030	1
4024	4023	4029	1
4024	4031	4033	1
4023	4024	4031	1
4023	4020	4026	1
4049	4050	4051	1
4049	4050	4057	1
4049	4052	4053	1
4049	4052	4058	1
4049	4055	4056	1
4050	4051	4054	1
4050	4051	4061	1
4050	4049	4052	1
4050	4049	4055	1
4051	4050	4057	1
4051	4054	4053	1
4051	4054	4059	1
4051	4061	4063	1
4054	4051	4061	1
4052	4053	4054	1
4054	4053	4060	1
4053	4054	4059	1
4053	4052	4058	1
4053	4060	4062	1
4052	4053	4060	1
4052	4049	4055	1
8	9	4	1
4	9	18	1
6	5	4	1
4	5	16	1
4	2	3	1
4	2	1	1
7	8	9	1
9	8	10	1
9	4	5	1
9	4	2	1
8	9	18	1
8	7	6	1
8	7	17	1
8	10	11	1
7	8	10	1
7	6	5	1
7	6	12	1
6	7	17	1
6	5	16	1
6	12	13	1
6	12	14	1
5	6	12	1
5	4	2	1
2	1	15	1
13	12	14	1
3	2	1	1
4078	4079	4080	1
4078	4079	4086	1
4078	4081	4082	1
4078	4081	4087	1
4078	4084	4085	1
4079	4080	4083	1
4079	4080	4090	1
4079	4078	4081	1
4079	4078	4084	1
4080	4079	4086	1
4080	4083	4082	1
4080	4083	4088	1
4080	4090	4092	1
4083	4080	4090	1
4081	4082	4083	1
4083	4082	4089	1
4082	4083	4088	1
4082	4081	4087	1
4082	4089	4091	1
4081	4082	4089	1
4081	4078	4084	1
488	489	490	1
488	489	499	1
488	493	492	1
488	493	501	1
488	486	487	1
489	490	491	1
489	490	496	1
489	488	493	1
489	488	486	1
490	489	499	1
490	491	492	1
490	491	500	1
490	496	497	1
490	496	498	1
491	490	496	1
493	492	491	1
491	492	494	1
492	491	500	1
492	493	501	1
492	494	495	1
493	492	494	1
493	488	486	1
497	496	498	1
4107	4108	4109	1
4107	4108	4115	1
4107	4110	4111	1
4107	4110	4116	1
4107	4113	4114	1
4108	4109	4112	1
4108	4109	4119	1
4108	4107	4110	1
4108	4107	4113	1
4109	4108	4115	1
4109	4112	4111	1
4109	4112	4117	1
4109	4119	4121	1
4112	4109	4119	1
4110	4111	4112	1
4112	4111	4118	1
4111	4112	4117	1
4111	4110	4116	1
4111	4118	4120	1
4110	4111	4118	1
4110	4107	4113	1
518	523	522	1
518	523	531	1
518	519	520	1
518	519	529	1
518	516	517	1
523	522	521	1
523	522	524	1
519	518	523	1
523	518	516	1
522	523	531	1
520	521	522	1
522	521	530	1
522	524	525	1
521	522	524	1
519	520	521	1
521	520	526	1
520	521	530	1
520	519	529	1
520	526	527	1
520	526	528	1
519	520	526	1
519	518	516	1
527	526	528	1
4136	4137	4138	1
4136	4137	4144	1
4136	4139	4140	1
4136	4139	4145	1
4136	4142	4143	1
4137	4138	4141	1
4137	4138	4148	1
4137	4136	4139	1
4137	4136	4142	1
4138	4137	4144	1
4138	4141	4140	1
4138	4141	4146	1
4138	4148	4150	1
4141	4138	4148	1
4139	4140	4141	1
4141	4140	4147	1
4140	4141	4146	1
4140	4139	4145	1
4140	4147	4149	1
4139	4140	4147	1
4139	4136	4142	1
4165	4166	4167	1
4165	4166	4173	1
4165	4168	4169	1
4165	4168	4174	1
4165	4171	4172	1
4166	4167	4170	1
4166	4167	4177	1
4166	4165	4168	1
4166	4165	4171	1
4167	4166	4173	1
4167	4170	4169	1
4167	4170	4175	1
4167	4177	4179	1
4170	4167	4177	1
4168	4169	4170	1
4170	4169	4176	1
4169	4170	4175	1
4169	4168	4174	1
4169	4176	4178	1
4168	4169	4176	1
4168	4165	4171	1
4194	4197	4198	1
4194	4197	4203	1
4194	4195	4196	1
4194	4195	4202	1
4194	4200	4201	1
4197	4198	4199	1
4197	4198	4205	1
4197	4194	4195	1
4197	4194	4200	1
4198	4197	4203	1
4198	4199	4196	1
4198	4199	4204	1
4198	4205	4207	1
4199	4198	4205	1
4195	4196	4199	1
4199	4196	4206	1
4196	4199	4204	1
4196	4195	4202	1
4196	4206	4208	1
4195	4196	4206	1
4195	4194	4200	1
4223	4224	4225	1
4223	4224	4231	1
4223	4226	4227	1
4223	4226	4232	1
4223	4229	4230	1
4224	4225	4228	1
4224	4225	4235	1
4226	4223	4224	1
4224	4223	4229	1
4225	4224	4231	1
4227	4228	4225	1
4225	4228	4233	1
4225	4235	4237	1
4228	4225	4235	1
4226	4227	4228	1
4228	4227	4234	1
4227	4228	4233	1
4227	4226	4232	1
4227	4234	4236	1
4226	4227	4234	1
4226	4223	4229	1
548	549	550	1
548	549	559	1
548	553	552	1
548	553	561	1
548	546	547	1
549	550	551	1
549	550	556	1
549	548	553	1
549	548	546	1
550	549	559	1
550	551	552	1
550	551	560	1
550	556	557	1
550	556	558	1
551	550	556	1
553	552	551	1
551	552	554	1
552	551	560	1
552	553	561	1
552	554	555	1
553	552	554	1
553	548	546	1
557	556	558	1
562	563	564	1
564	563	570	1
564	567	566	1
564	567	572	1
564	574	576	1
564	574	577	1
563	562	565	1
563	562	568	1
563	564	567	1
563	564	574	1
562	563	570	1
562	565	566	1
562	565	571	1
562	568	569	1
565	562	568	1
565	566	567	1
565	566	573	1
566	565	571	1
566	567	572	1
566	573	575	1
567	566	573	1
567	564	574	1
574	577	578	1
576	574	577	1
4238	4241	4242	1
4238	4241	4247	1
4238	4239	4240	1
4238	4239	4246	1
4238	4244	4245	1
4241	4242	4243	1
4241	4242	4249	1
4239	4238	4241	1
4241	4238	4244	1
4242	4241	4247	1
4240	4243	4242	1
4242	4243	4248	1
4242	4249	4251	1
4243	4242	4249	1
4239	4240	4243	1
4243	4240	4250	1
4240	4243	4248	1
4240	4239	4246	1
4240	4250	4252	1
4239	4240	4250	1
4239	4238	4244	1
4269	4272	4271	1
4269	4272	4277	1
4267	4268	4269	1
4269	4268	4275	1
4269	4279	4281	1
4270	4271	4272	1
4272	4271	4278	1
4268	4269	4272	1
4272	4269	4279	1
4271	4272	4277	1
4267	4270	4271	1
4271	4270	4276	1
4271	4278	4280	1
4270	4271	4278	1
4268	4267	4270	1
4270	4267	4273	1
4267	4270	4276	1
4267	4268	4275	1
4267	4273	4274	1
4268	4267	4273	1
4268	4269	4279	1
609	610	611	1
609	610	620	1
609	614	613	1
609	614	622	1
609	607	608	1
610	611	612	1
610	611	617	1
610	609	614	1
610	609	607	1
611	610	620	1
611	612	613	1
611	612	621	1
611	617	618	1
611	617	619	1
612	611	617	1
614	613	612	1
612	613	615	1
613	612	621	1
613	614	622	1
613	615	616	1
614	613	615	1
614	609	607	1
618	617	619	1
4296	4299	4300	1
4296	4299	4305	1
4296	4297	4298	1
4296	4297	4304	1
4296	4302	4303	1
4299	4300	4301	1
4299	4300	4307	1
4297	4296	4299	1
4299	4296	4302	1
4300	4299	4305	1
4298	4301	4300	1
4300	4301	4306	1
4300	4307	4309	1
4301	4300	4307	1
4297	4298	4301	1
4301	4298	4308	1
4298	4301	4306	1
4298	4297	4304	1
4298	4308	4310	1
4297	4298	4308	1
4297	4296	4302	1
623	624	625	1
623	624	631	1
623	626	627	1
623	626	632	1
623	629	630	1
624	625	628	1
624	625	635	1
624	623	626	1
624	623	629	1
625	624	631	1
625	628	627	1
625	628	633	1
625	635	637	1
625	635	638	1
628	625	635	1
626	627	628	1
628	627	634	1
627	628	633	1
627	626	632	1
627	634	636	1
626	627	634	1
626	623	629	1
635	638	639	1
637	635	638	1
4325	4328	4329	1
4325	4328	4334	1
4325	4326	4327	1
4325	4326	4333	1
4325	4331	4332	1
4328	4329	4330	1
4328	4329	4336	1
4326	4325	4328	1
4328	4325	4331	1
4329	4328	4334	1
4327	4330	4329	1
4329	4330	4335	1
4329	4336	4338	1
4330	4329	4336	1
4326	4327	4330	1
4330	4327	4337	1
4327	4330	4335	1
4327	4326	4333	1
4327	4337	4339	1
4326	4327	4337	1
4326	4325	4331	1
4340	4341	4342	1
4340	4341	4348	1
4340	4343	4344	1
4340	4343	4349	1
4340	4346	4347	1
4341	4342	4345	1
4341	4342	4352	1
4341	4340	4343	1
4341	4340	4346	1
4342	4341	4348	1
4342	4345	4344	1
4342	4345	4350	1
4342	4352	4354	1
4345	4342	4352	1
4343	4344	4345	1
4345	4344	4351	1
4344	4345	4350	1
4344	4343	4349	1
4344	4351	4353	1
4343	4344	4351	1
4343	4340	4346	1
4369	4370	4371	1
4369	4370	4377	1
4369	4372	4373	1
4369	4372	4378	1
4369	4375	4376	1
4370	4371	4374	1
4370	4371	4381	1
4370	4369	4372	1
4370	4369	4375	1
4371	4370	4377	1
4371	4374	4373	1
4371	4374	4379	1
4371	4381	4383	1
4374	4371	4381	1
4372	4373	4374	1
4374	4373	4380	1
4373	4374	4379	1
4373	4372	4378	1
4373	4380	4382	1
4372	4373	4380	1
4372	4369	4375	1
4398	4399	4400	1
4398	4399	4406	1
4398	4401	4402	1
4398	4401	4407	1
4398	4404	4405	1
4399	4400	4403	1
4399	4400	4410	1
4401	4398	4399	1
4399	4398	4404	1
4400	4399	4406	1
4402	4403	4400	1
4400	4403	4408	1
4400	4410	4412	1
4403	4400	4410	1
4401	4402	4403	1
4403	4402	4409	1
4402	4403	4408	1
4402	4401	4407	1
4402	4409	4411	1
4401	4402	4409	1
4401	4398	4404	1
4427	4430	4431	1
4427	4430	4436	1
4427	4428	4429	1
4427	4428	4435	1
4427	4433	4434	1
4430	4431	4432	1
4430	4431	4438	1
4430	4427	4428	1
4430	4427	4433	1
4431	4430	4436	1
4431	4432	4429	1
4431	4432	4437	1
4431	4438	4440	1
4432	4431	4438	1
4428	4429	4432	1
4432	4429	4439	1
4429	4432	4437	1
4429	4428	4435	1
4429	4439	4441	1
4428	4429	4439	1
4428	4427	4433	1
674	673	672	1
672	673	682	1
672	671	670	1
672	671	681	1
672	678	679	1
672	678	680	1
673	674	675	1
673	674	676	1
673	672	671	1
673	672	678	1
674	673	682	1
674	675	670	1
674	675	683	1
674	676	677	1
675	674	676	1
675	670	671	1
675	670	668	1
670	675	683	1
670	671	681	1
670	668	669	1
671	670	668	1
671	672	678	1
679	678	680	1
4456	4457	4458	1
4456	4457	4464	1
4456	4459	4460	1
4456	4459	4465	1
4456	4462	4463	1
4457	4458	4461	1
4457	4458	4468	1
4457	4456	4459	1
4457	4456	4462	1
4458	4457	4464	1
4458	4461	4460	1
4458	4461	4466	1
4458	4468	4470	1
4461	4458	4468	1
4459	4460	4461	1
4461	4460	4467	1
4460	4461	4466	1
4460	4459	4465	1
4460	4467	4469	1
4459	4460	4467	1
4459	4456	4462	1
684	687	688	1
684	687	693	1
684	685	686	1
684	685	692	1
684	690	691	1
687	688	689	1
687	688	695	1
685	684	687	1
687	684	690	1
688	687	693	1
686	689	688	1
688	689	694	1
688	695	697	1
689	688	695	1
685	686	689	1
689	686	696	1
686	689	694	1
686	685	692	1
686	696	698	1
686	696	699	1
685	686	696	1
685	684	690	1
696	699	700	1
698	696	699	1
4485	4488	4489	1
4485	4488	4494	1
4485	4486	4487	1
4485	4486	4493	1
4485	4491	4492	1
4488	4489	4490	1
4488	4489	4496	1
4486	4485	4488	1
4488	4485	4491	1
4489	4488	4494	1
4487	4490	4489	1
4489	4490	4495	1
4489	4496	4498	1
4490	4489	4496	1
4486	4487	4490	1
4490	4487	4497	1
4487	4490	4495	1
4487	4486	4493	1
4487	4497	4499	1
4486	4487	4497	1
4486	4485	4491	1
4514	4517	4518	1
4514	4517	4523	1
4514	4515	4516	1
4514	4515	4522	1
4514	4520	4521	1
4517	4518	4519	1
4517	4518	4525	1
4515	4514	4517	1
4517	4514	4520	1
4518	4517	4523	1
4516	4519	4518	1
4518	4519	4524	1
4518	4525	4527	1
4519	4518	4525	1
4515	4516	4519	1
4519	4516	4526	1
4516	4519	4524	1
4516	4515	4522	1
4516	4526	4528	1
4515	4516	4526	1
4515	4514	4520	1
4543	4546	4547	1
4543	4546	4552	1
4543	4544	4545	1
4543	4544	4551	1
4543	4549	4550	1
4546	4547	4548	1
4546	4547	4554	1
4544	4543	4546	1
4546	4543	4549	1
4547	4546	4552	1
4545	4548	4547	1
4547	4548	4553	1
4547	4554	4556	1
4548	4547	4554	1
4544	4545	4548	1
4548	4545	4555	1
4545	4548	4553	1
4545	4544	4551	1
4545	4555	4557	1
4544	4545	4555	1
4544	4543	4549	1
4572	4573	4574	1
4572	4573	4580	1
4572	4575	4576	1
4572	4575	4581	1
4572	4578	4579	1
4573	4574	4577	1
4573	4574	4584	1
4573	4572	4575	1
4573	4572	4578	1
4574	4573	4580	1
4574	4577	4576	1
4574	4577	4582	1
4574	4584	4586	1
4577	4574	4584	1
4575	4576	4577	1
4577	4576	4583	1
4576	4577	4582	1
4576	4575	4581	1
4576	4583	4585	1
4575	4576	4583	1
4575	4572	4578	1
715	718	719	1
715	718	724	1
715	716	717	1
715	716	723	1
715	721	722	1
718	719	720	1
718	719	726	1
716	715	718	1
718	715	721	1
719	718	724	1
717	720	719	1
719	720	725	1
719	726	728	1
720	719	726	1
716	717	720	1
720	717	727	1
717	720	725	1
717	716	723	1
717	727	729	1
717	727	730	1
716	717	727	1
716	715	721	1
727	730	731	1
729	727	730	1
762	767	766	1
762	767	775	1
762	763	764	1
762	763	773	1
762	760	761	1
767	766	765	1
767	766	768	1
763	762	767	1
767	762	760	1
766	767	775	1
764	765	766	1
766	765	774	1
766	768	769	1
765	766	768	1
763	764	765	1
765	764	770	1
764	765	774	1
764	763	773	1
764	770	771	1
764	770	772	1
763	764	770	1
763	762	760	1
771	770	772	1
792	793	794	1
792	793	803	1
792	797	796	1
792	797	805	1
792	790	791	1
793	794	795	1
793	794	800	1
793	792	797	1
793	792	790	1
794	793	803	1
794	795	796	1
794	795	804	1
794	800	801	1
794	800	802	1
795	794	800	1
797	796	795	1
795	796	798	1
796	795	804	1
796	797	805	1
796	798	799	1
797	796	798	1
797	792	790	1
801	800	802	1
4601	4602	4603	1
4603	4602	4609	1
4603	4606	4605	1
4603	4606	4611	1
4603	4613	4615	1
4602	4601	4604	1
4602	4601	4607	1
4602	4603	4606	1
4602	4603	4613	1
4601	4602	4609	1
4601	4604	4605	1
4601	4604	4610	1
4601	4607	4608	1
4604	4601	4607	1
4604	4605	4606	1
4604	4605	4612	1
4605	4604	4610	1
4605	4606	4611	1
4605	4612	4614	1
4606	4605	4612	1
4606	4603	4613	1
4634	4635	4632	1
4634	4635	4640	1
4634	4633	4630	1
4634	4633	4639	1
4634	4641	4643	1
4635	4632	4631	1
4635	4632	4642	1
4633	4634	4635	1
4635	4634	4641	1
4632	4635	4640	1
4630	4631	4632	1
4632	4631	4638	1
4632	4642	4644	1
4631	4632	4642	1
4633	4630	4631	1
4631	4630	4636	1
4630	4631	4638	1
4630	4633	4639	1
4630	4636	4637	1
4633	4630	4636	1
4633	4634	4641	1
4659	4660	4661	1
4659	4660	4667	1
4659	4662	4663	1
4659	4662	4668	1
4659	4665	4666	1
4660	4661	4664	1
4660	4661	4671	1
4662	4659	4660	1
4660	4659	4665	1
4661	4660	4667	1
4663	4664	4661	1
4661	4664	4669	1
4661	4671	4673	1
4664	4661	4671	1
4662	4663	4664	1
4664	4663	4670	1
4663	4664	4669	1
4663	4662	4668	1
4663	4670	4672	1
4662	4663	4670	1
4662	4659	4665	1
38	37	36	1
38	37	48	1
40	39	38	1
38	39	49	1
38	44	45	1
38	44	46	1
41	36	37	1
37	36	34	1
39	38	37	1
37	38	44	1
36	37	48	1
40	41	36	1
36	41	50	1
36	34	35	1
36	34	33	1
41	36	34	1
39	40	41	1
41	40	42	1
40	41	50	1
40	39	49	1
40	42	43	1
39	40	42	1
39	38	44	1
34	33	47	1
45	44	46	1
35	34	33	1
4688	4689	4690	1
4688	4689	4696	1
4688	4691	4692	1
4688	4691	4697	1
4688	4694	4695	1
4689	4690	4693	1
4689	4690	4700	1
4689	4688	4691	1
4689	4688	4694	1
4690	4689	4696	1
4690	4693	4692	1
4690	4693	4698	1
4690	4700	4702	1
4693	4690	4700	1
4691	4692	4693	1
4693	4692	4699	1
4692	4693	4698	1
4692	4691	4697	1
4692	4699	4701	1
4691	4692	4699	1
4691	4688	4694	1
4717	4720	4721	1
4717	4720	4726	1
4717	4718	4719	1
4717	4718	4725	1
4717	4723	4724	1
4720	4721	4722	1
4720	4721	4728	1
4718	4717	4720	1
4720	4717	4723	1
4721	4720	4726	1
4719	4722	4721	1
4721	4722	4727	1
4721	4728	4730	1
4722	4721	4728	1
4718	4719	4722	1
4722	4719	4729	1
4719	4722	4727	1
4719	4718	4725	1
4719	4729	4731	1
4718	4719	4729	1
4718	4717	4723	1
806	807	808	1
808	807	814	1
808	811	810	1
808	811	816	1
808	818	820	1
808	818	821	1
807	806	809	1
807	806	812	1
807	808	811	1
807	808	818	1
806	807	814	1
806	809	810	1
806	809	815	1
806	812	813	1
809	806	812	1
809	810	811	1
809	810	817	1
810	809	815	1
810	811	816	1
810	817	819	1
811	810	817	1
811	808	818	1
818	821	822	1
820	818	821	1
4746	4749	4750	1
4746	4749	4755	1
4746	4747	4748	1
4746	4747	4754	1
4746	4752	4753	1
4749	4750	4751	1
4749	4750	4757	1
4747	4746	4749	1
4749	4746	4752	1
4750	4749	4755	1
4748	4751	4750	1
4750	4751	4756	1
4750	4757	4759	1
4751	4750	4757	1
4747	4748	4751	1
4751	4748	4758	1
4748	4751	4756	1
4748	4747	4754	1
4748	4758	4760	1
4747	4748	4758	1
4747	4746	4752	1
4775	4778	4779	1
4775	4778	4784	1
4775	4776	4777	1
4775	4776	4783	1
4775	4781	4782	1
4778	4779	4780	1
4778	4779	4786	1
4776	4775	4778	1
4778	4775	4781	1
4779	4778	4784	1
4777	4780	4779	1
4779	4780	4785	1
4779	4786	4788	1
4780	4779	4786	1
4776	4777	4780	1
4780	4777	4787	1
4777	4780	4785	1
4777	4776	4783	1
4777	4787	4789	1
4776	4777	4787	1
4776	4775	4781	1
855	856	857	1
855	856	865	1
853	854	855	1
855	854	864	1
855	861	862	1
855	861	863	1
858	857	856	1
856	857	859	1
854	855	856	1
856	855	861	1
857	856	865	1
853	858	857	1
857	858	866	1
857	859	860	1
858	857	859	1
854	853	858	1
858	853	851	1
853	858	866	1
853	854	864	1
853	851	852	1
854	853	851	1
854	855	861	1
862	861	863	1
4804	4807	4808	1
4804	4807	4813	1
4804	4805	4806	1
4804	4805	4812	1
4804	4810	4811	1
4807	4808	4809	1
4807	4808	4815	1
4805	4804	4807	1
4807	4804	4810	1
4808	4807	4813	1
4806	4809	4808	1
4808	4809	4814	1
4808	4815	4817	1
4809	4808	4815	1
4805	4806	4809	1
4809	4806	4816	1
4806	4809	4814	1
4806	4805	4812	1
4806	4816	4818	1
4805	4806	4816	1
4805	4804	4810	1
4819	4822	4823	1
4819	4822	4828	1
4819	4820	4821	1
4819	4820	4827	1
4819	4825	4826	1
4822	4823	4824	1
4822	4823	4830	1
4820	4819	4822	1
4822	4819	4825	1
4823	4822	4828	1
4821	4824	4823	1
4823	4824	4829	1
4823	4830	4832	1
4824	4823	4830	1
4820	4821	4824	1
4824	4821	4831	1
4821	4824	4829	1
4821	4820	4827	1
4821	4831	4833	1
4820	4821	4831	1
4820	4819	4825	1
4848	4849	4850	1
4848	4849	4856	1
4848	4851	4852	1
4848	4851	4857	1
4848	4854	4855	1
4849	4850	4853	1
4849	4850	4860	1
4851	4848	4849	1
4849	4848	4854	1
4850	4849	4856	1
4852	4853	4850	1
4850	4853	4858	1
4850	4860	4862	1
4853	4850	4860	1
4851	4852	4853	1
4853	4852	4859	1
4852	4853	4858	1
4852	4851	4857	1
4852	4859	4861	1
4851	4852	4859	1
4851	4848	4854	1
4877	4880	4881	1
4877	4880	4886	1
4877	4878	4879	1
4877	4878	4885	1
4877	4883	4884	1
4880	4881	4882	1
4880	4881	4888	1
4880	4877	4878	1
4880	4877	4883	1
4881	4880	4886	1
4881	4882	4879	1
4881	4882	4887	1
4881	4888	4890	1
4882	4881	4888	1
4878	4879	4882	1
4882	4879	4889	1
4879	4882	4887	1
4879	4878	4885	1
4879	4889	4891	1
4878	4879	4889	1
4878	4877	4883	1
4906	4907	4908	1
4906	4907	4914	1
4906	4909	4910	1
4906	4909	4915	1
4906	4912	4913	1
4907	4908	4911	1
4907	4908	4918	1
4907	4906	4909	1
4907	4906	4912	1
4908	4907	4914	1
4908	4911	4910	1
4908	4911	4916	1
4908	4918	4920	1
4911	4908	4918	1
4909	4910	4911	1
4911	4910	4917	1
4910	4911	4916	1
4910	4909	4915	1
4910	4917	4919	1
4909	4910	4917	1
4909	4906	4912	1
867	870	871	1
867	870	876	1
867	868	869	1
867	868	875	1
867	873	874	1
870	871	872	1
870	871	878	1
868	867	870	1
870	867	873	1
871	870	876	1
869	872	871	1
871	872	877	1
871	878	880	1
872	871	878	1
868	869	872	1
872	869	879	1
869	872	877	1
869	868	875	1
869	879	881	1
869	879	882	1
868	869	879	1
868	867	873	1
879	882	883	1
881	879	882	1
4935	4936	4937	1
4935	4936	4943	1
4935	4938	4939	1
4935	4938	4944	1
4935	4941	4942	1
4936	4937	4940	1
4936	4937	4947	1
4936	4935	4938	1
4936	4935	4941	1
4937	4936	4943	1
4937	4940	4939	1
4937	4940	4945	1
4937	4947	4949	1
4940	4937	4947	1
4938	4939	4940	1
4940	4939	4946	1
4939	4940	4945	1
4939	4938	4944	1
4939	4946	4948	1
4938	4939	4946	1
4938	4935	4941	1
914	919	918	1
914	919	927	1
914	915	916	1
914	915	925	1
914	912	913	1
919	918	917	1
919	918	920	1
915	914	919	1
919	914	912	1
918	919	927	1
916	917	918	1
918	917	926	1
918	920	921	1
917	918	920	1
915	916	917	1
917	916	922	1
916	917	926	1
916	915	925	1
916	922	923	1
916	922	924	1
915	916	922	1
915	914	912	1
923	922	924	1
4950	4951	4952	1
4950	4951	4958	1
4950	4953	4954	1
4950	4953	4959	1
4950	4956	4957	1
4951	4952	4955	1
4951	4952	4962	1
4951	4950	4953	1
4951	4950	4956	1
4952	4951	4958	1
4952	4955	4954	1
4952	4955	4960	1
4952	4962	4964	1
4955	4952	4962	1
4953	4954	4955	1
4955	4954	4961	1
4954	4955	4960	1
4954	4953	4959	1
4954	4961	4963	1
4953	4954	4961	1
4953	4950	4956	1
4979	4980	4981	1
4979	4980	4987	1
4979	4982	4983	1
4979	4982	4988	1
4979	4985	4986	1
4980	4981	4984	1
4980	4981	4991	1
4980	4979	4982	1
4980	4979	4985	1
4981	4980	4987	1
4981	4984	4983	1
4981	4984	4989	1
4981	4991	4993	1
4984	4981	4991	1
4982	4983	4984	1
4984	4983	4990	1
4983	4984	4989	1
4983	4982	4988	1
4983	4990	4992	1
4982	4983	4990	1
4982	4979	4985	1
944	945	946	1
944	945	955	1
944	949	948	1
944	949	957	1
944	942	943	1
945	946	947	1
945	946	952	1
945	944	949	1
945	944	942	1
946	945	955	1
946	947	948	1
946	947	956	1
946	952	953	1
946	952	954	1
947	946	952	1
949	948	947	1
947	948	950	1
948	947	956	1
948	949	957	1
948	950	951	1
949	948	950	1
949	944	942	1
953	952	954	1
5008	5009	5010	1
5008	5009	5016	1
5008	5011	5012	1
5008	5011	5017	1
5008	5014	5015	1
5009	5010	5013	1
5009	5010	5020	1
5009	5008	5011	1
5009	5008	5014	1
5010	5009	5016	1
5010	5013	5012	1
5010	5013	5018	1
5010	5020	5022	1
5013	5010	5020	1
5011	5012	5013	1
5013	5012	5019	1
5012	5013	5018	1
5012	5011	5017	1
5012	5019	5021	1
5011	5012	5019	1
5011	5008	5014	1
5023	5024	5025	1
5023	5024	5031	1
5023	5026	5027	1
5023	5026	5032	1
5023	5029	5030	1
5024	5025	5028	1
5024	5025	5035	1
5024	5023	5026	1
5024	5023	5029	1
5025	5024	5031	1
5025	5028	5027	1
5025	5028	5033	1
5025	5035	5037	1
5028	5025	5035	1
5026	5027	5028	1
5028	5027	5034	1
5027	5028	5033	1
5027	5026	5032	1
5027	5034	5036	1
5026	5027	5034	1
5026	5023	5029	1
5052	5053	5054	1
5052	5053	5060	1
5052	5055	5056	1
5052	5055	5061	1
5052	5058	5059	1
5053	5054	5057	1
5053	5054	5064	1
5055	5052	5053	1
5053	5052	5058	1
5054	5053	5060	1
5056	5057	5054	1
5054	5057	5062	1
5054	5064	5066	1
5057	5054	5064	1
5055	5056	5057	1
5057	5056	5063	1
5056	5057	5062	1
5056	5055	5061	1
5056	5063	5065	1
5055	5056	5063	1
5055	5052	5058	1
5081	5082	5083	1
5081	5082	5089	1
5081	5084	5085	1
5081	5084	5090	1
5081	5087	5088	1
5082	5083	5086	1
5082	5083	5093	1
5084	5081	5082	1
5082	5081	5087	1
5083	5082	5089	1
5085	5086	5083	1
5083	5086	5091	1
5083	5093	5095	1
5086	5083	5093	1
5084	5085	5086	1
5086	5085	5092	1
5085	5086	5091	1
5085	5084	5090	1
5085	5092	5094	1
5084	5085	5092	1
5084	5081	5087	1
5110	5113	5114	1
5110	5113	5119	1
5110	5111	5112	1
5110	5111	5118	1
5110	5116	5117	1
5113	5114	5115	1
5113	5114	5121	1
5111	5110	5113	1
5113	5110	5116	1
5114	5113	5119	1
5112	5115	5114	1
5114	5115	5120	1
5114	5121	5123	1
5115	5114	5121	1
5111	5112	5115	1
5115	5112	5122	1
5112	5115	5120	1
5112	5111	5118	1
5112	5122	5124	1
5111	5112	5122	1
5111	5110	5116	1
5139	5142	5143	1
5139	5142	5148	1
5139	5140	5141	1
5139	5140	5147	1
5139	5145	5146	1
5142	5143	5144	1
5142	5143	5150	1
5140	5139	5142	1
5142	5139	5145	1
5143	5142	5148	1
5141	5144	5143	1
5143	5144	5149	1
5143	5150	5152	1
5144	5143	5150	1
5140	5141	5144	1
5144	5141	5151	1
5141	5144	5149	1
5141	5140	5147	1
5141	5151	5153	1
5140	5141	5151	1
5140	5139	5145	1
958	961	962	1
958	961	967	1
958	959	960	1
958	959	966	1
958	964	965	1
961	962	963	1
961	962	969	1
959	958	961	1
961	958	964	1
962	961	967	1
960	963	962	1
962	963	968	1
962	969	971	1
963	962	969	1
959	960	963	1
963	960	970	1
960	963	968	1
960	959	966	1
960	970	972	1
960	970	973	1
959	960	970	1
959	958	964	1
970	973	974	1
972	970	973	1
1005	1006	1007	1
1005	1006	1016	1
1005	1010	1009	1
1005	1010	1018	1
1005	1003	1004	1
1006	1007	1008	1
1006	1007	1013	1
1006	1005	1010	1
1006	1005	1003	1
1007	1006	1016	1
1007	1008	1009	1
1007	1008	1017	1
1007	1013	1014	1
1007	1013	1015	1
1008	1007	1013	1
1010	1009	1008	1
1008	1009	1011	1
1009	1008	1017	1
1009	1010	1018	1
1009	1011	1012	1
1010	1009	1011	1
1010	1005	1003	1
1014	1013	1015	1
5168	5171	5172	1
5168	5171	5177	1
5168	5169	5170	1
5168	5169	5176	1
5168	5174	5175	1
5171	5172	5173	1
5171	5172	5179	1
5169	5168	5171	1
5171	5168	5174	1
5172	5171	5177	1
5170	5173	5172	1
5172	5173	5178	1
5172	5179	5181	1
5173	5172	5179	1
5169	5170	5173	1
5173	5170	5180	1
5170	5173	5178	1
5170	5169	5176	1
5170	5180	5182	1
5169	5170	5180	1
5169	5168	5174	1
5197	5200	5201	1
5197	5200	5206	1
5197	5198	5199	1
5197	5198	5205	1
5197	5203	5204	1
5200	5201	5202	1
5200	5201	5208	1
5198	5197	5200	1
5200	5197	5203	1
5201	5200	5206	1
5199	5202	5201	1
5201	5202	5207	1
5201	5208	5210	1
5202	5201	5208	1
5198	5199	5202	1
5202	5199	5209	1
5199	5202	5207	1
5199	5198	5205	1
5199	5209	5211	1
5198	5199	5209	1
5198	5197	5203	1
5226	5227	5228	1
5226	5227	5234	1
5226	5229	5230	1
5226	5229	5235	1
5226	5232	5233	1
5227	5228	5231	1
5227	5228	5238	1
5227	5226	5229	1
5227	5226	5232	1
5228	5227	5234	1
5228	5231	5230	1
5228	5231	5236	1
5228	5238	5240	1
5231	5228	5238	1
5229	5230	5231	1
5231	5230	5237	1
5230	5231	5236	1
5230	5229	5235	1
5230	5237	5239	1
5229	5230	5237	1
5229	5226	5232	1
5255	5256	5257	1
5255	5256	5263	1
5255	5258	5259	1
5255	5258	5264	1
5255	5261	5262	1
5256	5257	5260	1
5256	5257	5267	1
5256	5255	5258	1
5256	5255	5261	1
5257	5256	5263	1
5257	5260	5259	1
5257	5260	5265	1
5257	5267	5269	1
5260	5257	5267	1
5258	5259	5260	1
5260	5259	5266	1
5259	5260	5265	1
5259	5258	5264	1
5259	5266	5268	1
5258	5259	5266	1
5258	5255	5261	1
5284	5287	5288	1
5284	5287	5293	1
5284	5285	5286	1
5284	5285	5292	1
5284	5290	5291	1
5287	5288	5289	1
5287	5288	5295	1
5287	5284	5285	1
5287	5284	5290	1
5288	5287	5293	1
5288	5289	5286	1
5288	5289	5294	1
5288	5295	5297	1
5289	5288	5295	1
5285	5286	5289	1
5289	5286	5296	1
5286	5289	5294	1
5286	5285	5292	1
5286	5296	5298	1
5285	5286	5296	1
5285	5284	5290	1
5299	5302	5303	1
5299	5302	5308	1
5299	5300	5301	1
5299	5300	5307	1
5299	5305	5306	1
5302	5303	5304	1
5302	5303	5310	1
5302	5299	5300	1
5302	5299	5305	1
5303	5302	5308	1
5303	5304	5301	1
5303	5304	5309	1
5303	5310	5312	1
5304	5303	5310	1
5300	5301	5304	1
5304	5301	5311	1
5301	5304	5309	1
5301	5300	5307	1
5301	5311	5313	1
5300	5301	5311	1
5300	5299	5305	1
5328	5331	5332	1
5328	5331	5337	1
5328	5329	5330	1
5328	5329	5336	1
5328	5334	5335	1
5331	5332	5333	1
5331	5332	5339	1
5329	5328	5331	1
5331	5328	5334	1
5332	5331	5337	1
5330	5333	5332	1
5332	5333	5338	1
5332	5339	5341	1
5333	5332	5339	1
5329	5330	5333	1
5333	5330	5340	1
5330	5333	5338	1
5330	5329	5336	1
5330	5340	5342	1
5329	5330	5340	1
5329	5328	5334	1
5357	5360	5361	1
5357	5360	5366	1
5357	5358	5359	1
5357	5358	5365	1
5357	5363	5364	1
5360	5361	5362	1
5360	5361	5368	1
5358	5357	5360	1
5360	5357	5363	1
5361	5360	5366	1
5359	5362	5361	1
5361	5362	5367	1
5361	5368	5370	1
5362	5361	5368	1
5358	5359	5362	1
5362	5359	5369	1
5359	5362	5367	1
5359	5358	5365	1
5359	5369	5371	1
5358	5359	5369	1
5358	5357	5363	1
5386	5389	5390	1
5386	5389	5395	1
5386	5387	5388	1
5386	5387	5394	1
5386	5392	5393	1
5389	5390	5391	1
5389	5390	5397	1
5387	5386	5389	1
5389	5386	5392	1
5390	5389	5395	1
5388	5391	5390	1
5390	5391	5396	1
5390	5397	5399	1
5391	5390	5397	1
5387	5388	5391	1
5391	5388	5398	1
5388	5391	5396	1
5388	5387	5394	1
5388	5398	5400	1
5387	5388	5398	1
5387	5386	5392	1
5415	5418	5419	1
5415	5418	5424	1
5415	5416	5417	1
5415	5416	5423	1
5415	5421	5422	1
5418	5419	5420	1
5418	5419	5426	1
5416	5415	5418	1
5418	5415	5421	1
5419	5418	5424	1
5417	5420	5419	1
5419	5420	5425	1
5419	5426	5428	1
5420	5419	5426	1
5416	5417	5420	1
5420	5417	5427	1
5417	5420	5425	1
5417	5416	5423	1
5417	5427	5429	1
5416	5417	5427	1
5416	5415	5421	1
5430	5431	5432	1
5430	5431	5438	1
5430	5433	5434	1
5430	5433	5439	1
5430	5436	5437	1
5431	5432	5435	1
5431	5432	5442	1
5431	5430	5433	1
5431	5430	5436	1
5432	5431	5438	1
5432	5435	5434	1
5432	5435	5440	1
5432	5442	5444	1
5435	5432	5442	1
5433	5434	5435	1
5435	5434	5441	1
5434	5435	5440	1
5434	5433	5439	1
5434	5441	5443	1
5433	5434	5441	1
5433	5430	5436	1
5459	5460	5461	1
5459	5460	5467	1
5459	5462	5463	1
5459	5462	5468	1
5459	5465	5466	1
5460	5461	5464	1
5460	5461	5471	1
5460	5459	5462	1
5460	5459	5465	1
5461	5460	5467	1
5461	5464	5463	1
5461	5464	5469	1
5461	5471	5473	1
5464	5461	5471	1
5462	5463	5464	1
5464	5463	5470	1
5463	5464	5469	1
5463	5462	5468	1
5463	5470	5472	1
5462	5463	5470	1
5462	5459	5465	1
5488	5491	5492	1
5488	5491	5497	1
5488	5489	5490	1
5488	5489	5496	1
5488	5494	5495	1
5491	5492	5493	1
5491	5492	5499	1
5491	5488	5489	1
5491	5488	5494	1
5492	5491	5497	1
5492	5493	5490	1
5492	5493	5498	1
5492	5499	5501	1
5493	5492	5499	1
5489	5490	5493	1
5493	5490	5500	1
5490	5493	5498	1
5490	5489	5496	1
5490	5500	5502	1
5489	5490	5500	1
5489	5488	5494	1
1035	1040	1039	1
1035	1040	1048	1
1035	1036	1037	1
1035	1036	1046	1
1035	1033	1034	1
1040	1039	1038	1
1040	1039	1041	1
1036	1035	1040	1
1040	1035	1033	1
1039	1040	1048	1
1037	1038	1039	1
1039	1038	1047	1
1039	1041	1042	1
1038	1039	1041	1
1036	1037	1038	1
1038	1037	1043	1
1037	1038	1047	1
1037	1036	1046	1
1037	1043	1044	1
1037	1043	1045	1
1036	1037	1043	1
1036	1035	1033	1
1044	1043	1045	1
5517	5520	5521	1
5517	5520	5526	1
5517	5518	5519	1
5517	5518	5525	1
5517	5523	5524	1
5520	5521	5522	1
5520	5521	5528	1
5520	5517	5518	1
5520	5517	5523	1
5521	5520	5526	1
5521	5522	5519	1
5521	5522	5527	1
5521	5528	5530	1
5522	5521	5528	1
5518	5519	5522	1
5522	5519	5529	1
5519	5522	5527	1
5519	5518	5525	1
5519	5529	5531	1
5518	5519	5529	1
5518	5517	5523	1
5532	5533	5534	1
5534	5533	5540	1
5534	5537	5536	1
5534	5537	5542	1
5534	5544	5546	1
5533	5532	5535	1
5533	5532	5538	1
5533	5534	5537	1
5533	5534	5544	1
5532	5533	5540	1
5532	5535	5536	1
5532	5535	5541	1
5532	5538	5539	1
5535	5532	5538	1
5535	5536	5537	1
5535	5536	5543	1
5536	5535	5541	1
5536	5537	5542	1
5536	5543	5545	1
5537	5536	5543	1
5537	5534	5544	1
5547	5550	5551	1
5547	5550	5556	1
5547	5548	5549	1
5547	5548	5555	1
5547	5553	5554	1
5550	5551	5552	1
5550	5551	5558	1
5548	5547	5550	1
5550	5547	5553	1
5551	5550	5556	1
5549	5552	5551	1
5551	5552	5557	1
5551	5558	5560	1
5552	5551	5558	1
5548	5549	5552	1
5552	5549	5559	1
5549	5552	5557	1
5549	5548	5555	1
5549	5559	5561	1
5548	5549	5559	1
5548	5547	5553	1
5576	5579	5580	1
5576	5579	5585	1
5576	5577	5578	1
5576	5577	5584	1
5576	5582	5583	1
5579	5580	5581	1
5579	5580	5587	1
5577	5576	5579	1
5579	5576	5582	1
5580	5579	5585	1
5578	5581	5580	1
5580	5581	5586	1
5580	5587	5589	1
5581	5580	5587	1
5577	5578	5581	1
5581	5578	5588	1
5578	5581	5586	1
5578	5577	5584	1
5578	5588	5590	1
5577	5578	5588	1
5577	5576	5582	1
1049	1050	1051	1
1049	1050	1057	1
1049	1052	1053	1
1049	1052	1058	1
1049	1055	1056	1
1050	1051	1054	1
1050	1051	1061	1
1050	1049	1052	1
1050	1049	1055	1
1051	1050	1057	1
1051	1054	1053	1
1051	1054	1059	1
1051	1061	1063	1
1051	1061	1064	1
1054	1051	1061	1
1052	1053	1054	1
1054	1053	1060	1
1053	1054	1059	1
1053	1052	1058	1
1053	1060	1062	1
1052	1053	1060	1
1052	1049	1055	1
1061	1064	1065	1
1063	1061	1064	1
5591	5594	5595	1
5591	5594	5600	1
5591	5592	5593	1
5591	5592	5599	1
5591	5597	5598	1
5594	5595	5596	1
5594	5595	5602	1
5592	5591	5594	1
5594	5591	5597	1
5595	5594	5600	1
5593	5596	5595	1
5595	5596	5601	1
5595	5602	5604	1
5596	5595	5602	1
5592	5593	5596	1
5596	5593	5603	1
5593	5596	5601	1
5593	5592	5599	1
5593	5603	5605	1
5592	5593	5603	1
5592	5591	5597	1
1080	1081	1082	1
1080	1081	1088	1
1080	1083	1084	1
1080	1083	1089	1
1080	1086	1087	1
1081	1082	1085	1
1081	1082	1092	1
1081	1080	1083	1
1081	1080	1086	1
1082	1081	1088	1
1082	1085	1084	1
1082	1085	1090	1
1082	1092	1094	1
1082	1092	1095	1
1085	1082	1092	1
1083	1084	1085	1
1085	1084	1091	1
1084	1085	1090	1
1084	1083	1089	1
1084	1091	1093	1
1083	1084	1091	1
1083	1080	1086	1
1092	1095	1096	1
1094	1092	1095	1
5620	5623	5624	1
5620	5623	5629	1
5620	5621	5622	1
5620	5621	5628	1
5620	5626	5627	1
5623	5624	5625	1
5623	5624	5631	1
5621	5620	5623	1
5623	5620	5626	1
5624	5623	5629	1
5622	5625	5624	1
5624	5625	5630	1
5624	5631	5633	1
5625	5624	5631	1
5621	5622	5625	1
5625	5622	5632	1
5622	5625	5630	1
5622	5621	5628	1
5622	5632	5634	1
5621	5622	5632	1
5621	5620	5626	1
1111	1112	1113	1
1113	1112	1119	1
1113	1116	1115	1
1113	1116	1121	1
1113	1123	1125	1
1113	1123	1126	1
1112	1111	1114	1
1112	1111	1117	1
1112	1113	1116	1
1112	1113	1123	1
1111	1112	1119	1
1111	1114	1115	1
1111	1114	1120	1
1111	1117	1118	1
1114	1111	1117	1
1114	1115	1116	1
1114	1115	1122	1
1115	1114	1120	1
1115	1116	1121	1
1115	1122	1124	1
1116	1115	1122	1
1116	1113	1123	1
1123	1126	1127	1
1125	1123	1126	1
5649	5652	5653	1
5653	5652	5658	1
5651	5654	5653	1
5653	5654	5659	1
5653	5660	5662	1
5650	5649	5652	1
5652	5649	5655	1
5654	5653	5652	1
5652	5653	5660	1
5649	5652	5658	1
5651	5650	5649	1
5649	5650	5657	1
5649	5655	5656	1
5650	5649	5655	1
5650	5651	5654	1
5650	5651	5661	1
5651	5650	5657	1
5651	5654	5659	1
5651	5661	5663	1
5654	5651	5661	1
5654	5653	5660	1
5678	5679	5680	1
5678	5679	5686	1
5678	5681	5682	1
5678	5681	5687	1
5678	5684	5685	1
5679	5680	5683	1
5679	5680	5690	1
5681	5678	5679	1
5679	5678	5684	1
5680	5679	5686	1
5682	5683	5680	1
5680	5683	5688	1
5680	5690	5692	1
5683	5680	5690	1
5681	5682	5683	1
5683	5682	5689	1
5682	5683	5688	1
5682	5681	5687	1
5682	5689	5691	1
5681	5682	5689	1
5681	5678	5684	1
5693	5694	5695	1
5693	5694	5701	1
5693	5696	5697	1
5693	5696	5702	1
5693	5699	5700	1
5694	5695	5698	1
5694	5695	5705	1
5696	5693	5694	1
5694	5693	5699	1
5695	5694	5701	1
5697	5698	5695	1
5695	5698	5703	1
5695	5705	5707	1
5698	5695	5705	1
5696	5697	5698	1
5698	5697	5704	1
5697	5698	5703	1
5697	5696	5702	1
5697	5704	5706	1
5696	5697	5704	1
5696	5693	5699	1
1144	1145	1146	1
1144	1145	1155	1
1144	1149	1148	1
1144	1149	1157	1
1144	1142	1143	1
1145	1146	1147	1
1145	1146	1152	1
1145	1144	1149	1
1145	1144	1142	1
1146	1145	1155	1
1146	1147	1148	1
1146	1147	1156	1
1146	1152	1153	1
1146	1152	1154	1
1147	1146	1152	1
1149	1148	1147	1
1147	1148	1150	1
1148	1147	1156	1
1148	1149	1157	1
1148	1150	1151	1
1149	1148	1150	1
1149	1144	1142	1
1153	1152	1154	1
5722	5725	5726	1
5722	5725	5731	1
5722	5723	5724	1
5722	5723	5730	1
5722	5728	5729	1
5725	5726	5727	1
5725	5726	5733	1
5723	5722	5725	1
5725	5722	5728	1
5726	5725	5731	1
5724	5727	5726	1
5726	5727	5732	1
5726	5733	5735	1
5727	5726	5733	1
5723	5724	5727	1
5727	5724	5734	1
5724	5727	5732	1
5724	5723	5730	1
5724	5734	5736	1
5723	5724	5734	1
5723	5722	5728	1
1174	1175	1176	1
1174	1175	1185	1
1174	1179	1178	1
1174	1179	1187	1
1174	1172	1173	1
1175	1176	1177	1
1175	1176	1182	1
1175	1174	1179	1
1175	1174	1172	1
1176	1175	1185	1
1176	1177	1178	1
1176	1177	1186	1
1176	1182	1183	1
1176	1182	1184	1
1177	1176	1182	1
1179	1178	1177	1
1177	1178	1180	1
1178	1177	1186	1
1178	1179	1187	1
1178	1180	1181	1
1179	1178	1180	1
1179	1174	1172	1
1183	1182	1184	1
1205	1206	1207	1
1207	1206	1216	1
1207	1208	1209	1
1207	1208	1217	1
1207	1213	1214	1
1207	1213	1215	1
1206	1205	1210	1
1206	1205	1203	1
1206	1207	1208	1
1206	1207	1213	1
1205	1206	1216	1
1205	1210	1209	1
1205	1210	1218	1
1205	1203	1204	1
1210	1205	1203	1
1210	1209	1208	1
1210	1209	1211	1
1209	1210	1218	1
1209	1208	1217	1
1209	1211	1212	1
1208	1209	1211	1
1208	1207	1213	1
1214	1213	1215	1
5753	5756	5755	1
5755	5756	5761	1
5751	5754	5755	1
5755	5754	5760	1
5755	5762	5764	1
5752	5753	5756	1
5756	5753	5763	1
5754	5755	5756	1
5756	5755	5762	1
5753	5756	5761	1
5751	5752	5753	1
5753	5752	5759	1
5753	5763	5765	1
5752	5753	5763	1
5752	5751	5754	1
5752	5751	5757	1
5751	5752	5759	1
5751	5754	5760	1
5751	5757	5758	1
5754	5751	5757	1
5754	5755	5762	1
5766	5769	5770	1
5766	5769	5775	1
5766	5767	5768	1
5766	5767	5774	1
5766	5772	5773	1
5769	5770	5771	1
5769	5770	5777	1
5767	5766	5769	1
5769	5766	5772	1
5770	5769	5775	1
5768	5771	5770	1
5770	5771	5776	1
5770	5777	5779	1
5771	5770	5777	1
5767	5768	5771	1
5771	5768	5778	1
5768	5771	5776	1
5768	5767	5774	1
5768	5778	5780	1
5767	5768	5778	1
5767	5766	5772	1
5795	5798	5799	1
5795	5798	5804	1
5795	5796	5797	1
5795	5796	5803	1
5795	5801	5802	1
5798	5799	5800	1
5798	5799	5806	1
5796	5795	5798	1
5798	5795	5801	1
5799	5798	5804	1
5797	5800	5799	1
5799	5800	5805	1
5799	5806	5808	1
5800	5799	5806	1
5796	5797	5800	1
5800	5797	5807	1
5797	5800	5805	1
5797	5796	5803	1
5797	5807	5809	1
5796	5797	5807	1
5796	5795	5801	1
5824	5825	5826	1
5824	5825	5832	1
5824	5827	5828	1
5824	5827	5833	1
5824	5830	5831	1
5825	5826	5829	1
5825	5826	5836	1
5825	5824	5827	1
5825	5824	5830	1
5826	5825	5832	1
5826	5829	5828	1
5826	5829	5834	1
5826	5836	5838	1
5829	5826	5836	1
5827	5828	5829	1
5829	5828	5835	1
5828	5829	5834	1
5828	5827	5833	1
5828	5835	5837	1
5827	5828	5835	1
5827	5824	5830	1
5853	5854	5855	1
5853	5854	5861	1
5853	5856	5857	1
5853	5856	5862	1
5853	5859	5860	1
5854	5855	5858	1
5854	5855	5865	1
5854	5853	5856	1
5854	5853	5859	1
5855	5854	5861	1
5855	5858	5857	1
5855	5858	5863	1
5855	5865	5867	1
5858	5855	5865	1
5856	5857	5858	1
5858	5857	5864	1
5857	5858	5863	1
5857	5856	5862	1
5857	5864	5866	1
5856	5857	5864	1
5856	5853	5859	1
5868	5871	5872	1
5868	5871	5877	1
5868	5869	5870	1
5868	5869	5876	1
5868	5874	5875	1
5871	5872	5873	1
5871	5872	5879	1
5871	5868	5869	1
5871	5868	5874	1
5872	5871	5877	1
5872	5873	5870	1
5872	5873	5878	1
5872	5879	5881	1
5873	5872	5879	1
5869	5870	5873	1
5873	5870	5880	1
5870	5873	5878	1
5870	5869	5876	1
5870	5880	5882	1
5869	5870	5880	1
5869	5868	5874	1
5883	5886	5887	1
5883	5886	5892	1
5883	5884	5885	1
5883	5884	5891	1
5883	5889	5890	1
5886	5887	5888	1
5886	5887	5894	1
5886	5883	5884	1
5886	5883	5889	1
5887	5886	5892	1
5887	5888	5885	1
5887	5888	5893	1
5887	5894	5896	1
5888	5887	5894	1
5884	5885	5888	1
5888	5885	5895	1
5885	5888	5893	1
5885	5884	5891	1
5885	5895	5897	1
5884	5885	5895	1
5884	5883	5889	1
1235	1236	1237	1
1237	1236	1246	1
1237	1238	1239	1
1237	1238	1247	1
1237	1243	1244	1
1237	1243	1245	1
1236	1235	1240	1
1236	1235	1233	1
1236	1237	1238	1
1236	1237	1243	1
1235	1236	1246	1
1235	1240	1239	1
1235	1240	1248	1
1235	1233	1234	1
1240	1235	1233	1
1240	1239	1238	1
1240	1239	1241	1
1239	1240	1248	1
1239	1238	1247	1
1239	1241	1242	1
1238	1239	1241	1
1238	1237	1243	1
1244	1243	1245	1
5898	5899	5900	1
5898	5899	5906	1
5898	5901	5902	1
5898	5901	5907	1
5898	5904	5905	1
5899	5900	5903	1
5899	5900	5910	1
5899	5898	5901	1
5899	5898	5904	1
5900	5899	5906	1
5900	5903	5902	1
5900	5903	5908	1
5900	5910	5912	1
5903	5900	5910	1
5901	5902	5903	1
5903	5902	5909	1
5902	5903	5908	1
5902	5901	5907	1
5902	5909	5911	1
5901	5902	5909	1
5901	5898	5904	1
5927	5930	5931	1
5927	5930	5936	1
5927	5928	5929	1
5927	5928	5935	1
5927	5933	5934	1
5930	5931	5932	1
5930	5931	5938	1
5928	5927	5930	1
5930	5927	5933	1
5931	5930	5936	1
5929	5932	5931	1
5931	5932	5937	1
5931	5938	5940	1
5932	5931	5938	1
5928	5929	5932	1
5932	5929	5939	1
5929	5932	5937	1
5929	5928	5935	1
5929	5939	5941	1
5928	5929	5939	1
5928	5927	5933	1
5956	5959	5960	1
5956	5959	5965	1
5956	5957	5958	1
5956	5957	5964	1
5956	5962	5963	1
5959	5960	5961	1
5959	5960	5967	1
5957	5956	5959	1
5959	5956	5962	1
5960	5959	5965	1
5958	5961	5960	1
5960	5961	5966	1
5960	5967	5969	1
5961	5960	5967	1
5957	5958	5961	1
5961	5958	5968	1
5958	5961	5966	1
5958	5957	5964	1
5958	5968	5970	1
5957	5958	5968	1
5957	5956	5962	1
5971	5974	5975	1
5971	5974	5980	1
5971	5972	5973	1
5971	5972	5979	1
5971	5977	5978	1
5974	5975	5976	1
5974	5975	5982	1
5972	5971	5974	1
5974	5971	5977	1
5975	5974	5980	1
5973	5976	5975	1
5975	5976	5981	1
5975	5982	5984	1
5976	5975	5982	1
5972	5973	5976	1
5976	5973	5983	1
5973	5976	5981	1
5973	5972	5979	1
5973	5983	5985	1
5972	5973	5983	1
5972	5971	5977	1
1265	1266	1267	1
1265	1266	1276	1
1265	1270	1269	1
1265	1270	1278	1
1265	1263	1264	1
1266	1267	1268	1
1266	1267	1273	1
1266	1265	1270	1
1266	1265	1263	1
1267	1266	1276	1
1267	1268	1269	1
1267	1268	1277	1
1267	1273	1274	1
1267	1273	1275	1
1268	1267	1273	1
1270	1269	1268	1
1268	1269	1271	1
1269	1268	1277	1
1269	1270	1278	1
1269	1271	1272	1
1270	1269	1271	1
1270	1265	1263	1
1274	1273	1275	1
6000	6003	6004	1
6000	6003	6009	1
6000	6001	6002	1
6000	6001	6008	1
6000	6006	6007	1
6003	6004	6005	1
6003	6004	6011	1
6001	6000	6003	1
6003	6000	6006	1
6004	6003	6009	1
6002	6005	6004	1
6004	6005	6010	1
6004	6011	6013	1
6005	6004	6011	1
6001	6002	6005	1
6005	6002	6012	1
6002	6005	6010	1
6002	6001	6008	1
6002	6012	6014	1
6001	6002	6012	1
6001	6000	6006	1
6029	6032	6033	1
6029	6032	6038	1
6029	6030	6031	1
6029	6030	6037	1
6029	6035	6036	1
6032	6033	6034	1
6032	6033	6040	1
6030	6029	6032	1
6032	6029	6035	1
6033	6032	6038	1
6031	6034	6033	1
6033	6034	6039	1
6033	6040	6042	1
6034	6033	6040	1
6030	6031	6034	1
6034	6031	6041	1
6031	6034	6039	1
6031	6030	6037	1
6031	6041	6043	1
6030	6031	6041	1
6030	6029	6035	1
1281	1282	1283	1
1281	1282	1292	1
1281	1286	1285	1
1281	1286	1294	1
1281	1279	1280	1
1282	1283	1284	1
1282	1283	1289	1
1282	1281	1286	1
1282	1281	1279	1
1283	1282	1292	1
1283	1284	1285	1
1283	1284	1293	1
1283	1289	1290	1
1283	1289	1291	1
1284	1283	1289	1
1286	1285	1284	1
1284	1285	1287	1
1285	1284	1293	1
1285	1286	1294	1
1285	1287	1288	1
1286	1285	1287	1
1286	1281	1279	1
1290	1289	1291	1
6062	6063	6060	1
6062	6063	6068	1
6062	6061	6058	1
6062	6061	6067	1
6062	6069	6071	1
6063	6060	6059	1
6063	6060	6070	1
6061	6062	6063	1
6063	6062	6069	1
6060	6063	6068	1
6058	6059	6060	1
6060	6059	6066	1
6060	6070	6072	1
6059	6060	6070	1
6061	6058	6059	1
6059	6058	6064	1
6058	6059	6066	1
6058	6061	6067	1
6058	6064	6065	1
6061	6058	6064	1
6061	6062	6069	1
6087	6090	6091	1
6087	6090	6096	1
6087	6088	6089	1
6087	6088	6095	1
6087	6093	6094	1
6090	6091	6092	1
6090	6091	6098	1
6090	6087	6088	1
6090	6087	6093	1
6091	6090	6096	1
6091	6092	6089	1
6091	6092	6097	1
6091	6098	6100	1
6092	6091	6098	1
6088	6089	6092	1
6092	6089	6099	1
6089	6092	6097	1
6089	6088	6095	1
6089	6099	6101	1
6088	6089	6099	1
6088	6087	6093	1
6116	6117	6118	1
6116	6117	6124	1
6116	6119	6120	1
6116	6119	6125	1
6116	6122	6123	1
6117	6118	6121	1
6117	6118	6128	1
6117	6116	6119	1
6117	6116	6122	1
6118	6117	6124	1
6118	6121	6120	1
6118	6121	6126	1
6118	6128	6130	1
6121	6118	6128	1
6119	6120	6121	1
6121	6120	6127	1
6120	6121	6126	1
6120	6119	6125	1
6120	6127	6129	1
6119	6120	6127	1
6119	6116	6122	1
6145	6146	6147	1
6145	6146	6153	1
6145	6148	6149	1
6145	6148	6154	1
6145	6151	6152	1
6146	6147	6150	1
6146	6147	6157	1
6146	6145	6148	1
6146	6145	6151	1
6147	6146	6153	1
6147	6150	6149	1
6147	6150	6155	1
6147	6157	6159	1
6150	6147	6157	1
6148	6149	6150	1
6150	6149	6156	1
6149	6150	6155	1
6149	6148	6154	1
6149	6156	6158	1
6148	6149	6156	1
6148	6145	6151	1
6174	6175	6176	1
6174	6175	6182	1
6174	6177	6178	1
6174	6177	6183	1
6174	6180	6181	1
6175	6176	6179	1
6175	6176	6186	1
6175	6174	6177	1
6175	6174	6180	1
6176	6175	6182	1
6176	6179	6178	1
6176	6179	6184	1
6176	6186	6188	1
6179	6176	6186	1
6177	6178	6179	1
6179	6178	6185	1
6178	6179	6184	1
6178	6177	6183	1
6178	6185	6187	1
6177	6178	6185	1
6177	6174	6180	1
6189	6192	6193	1
6189	6192	6198	1
6189	6190	6191	1
6189	6190	6197	1
6189	6195	6196	1
6192	6193	6194	1
6192	6193	6200	1
6190	6189	6192	1
6192	6189	6195	1
6193	6192	6198	1
6191	6194	6193	1
6193	6194	6199	1
6193	6200	6202	1
6194	6193	6200	1
6190	6191	6194	1
6194	6191	6201	1
6191	6194	6199	1
6191	6190	6197	1
6191	6201	6203	1
6190	6191	6201	1
6190	6189	6195	1
6218	6221	6222	1
6218	6221	6227	1
6218	6219	6220	1
6218	6219	6226	1
6218	6224	6225	1
6221	6222	6223	1
6221	6222	6229	1
6219	6218	6221	1
6221	6218	6224	1
6222	6221	6227	1
6220	6223	6222	1
6222	6223	6228	1
6222	6229	6231	1
6223	6222	6229	1
6219	6220	6223	1
6223	6220	6230	1
6220	6223	6228	1
6220	6219	6226	1
6220	6230	6232	1
6219	6220	6230	1
6219	6218	6224	1
6233	6236	6237	1
6233	6236	6242	1
6233	6234	6235	1
6233	6234	6241	1
6233	6239	6240	1
6236	6237	6238	1
6236	6237	6244	1
6234	6233	6236	1
6236	6233	6239	1
6237	6236	6242	1
6235	6238	6237	1
6237	6238	6243	1
6237	6244	6246	1
6238	6237	6244	1
6234	6235	6238	1
6238	6235	6245	1
6235	6238	6243	1
6235	6234	6241	1
6235	6245	6247	1
6234	6235	6245	1
6234	6233	6239	1
6262	6265	6266	1
6262	6265	6271	1
6262	6263	6264	1
6262	6263	6270	1
6262	6268	6269	1
6265	6266	6267	1
6265	6266	6273	1
6265	6262	6263	1
6265	6262	6268	1
6266	6265	6271	1
6266	6267	6264	1
6266	6267	6272	1
6266	6273	6275	1
6267	6266	6273	1
6263	6264	6267	1
6267	6264	6274	1
6264	6267	6272	1
6264	6263	6270	1
6264	6274	6276	1
6263	6264	6274	1
6263	6262	6268	1
6277	6280	6281	1
6277	6280	6286	1
6277	6278	6279	1
6277	6278	6285	1
6277	6283	6284	1
6280	6281	6282	1
6280	6281	6288	1
6280	6277	6278	1
6280	6277	6283	1
6281	6280	6286	1
6281	6282	6279	1
6281	6282	6287	1
6281	6288	6290	1
6282	6281	6288	1
6278	6279	6282	1
6282	6279	6289	1
6279	6282	6287	1
6279	6278	6285	1
6279	6289	6291	1
6278	6279	6289	1
6278	6277	6283	1
6292	6293	6294	1
6292	6293	6300	1
6292	6295	6296	1
6292	6295	6301	1
6292	6298	6299	1
6293	6294	6297	1
6293	6294	6304	1
6293	6292	6295	1
6293	6292	6298	1
6294	6293	6300	1
6294	6297	6296	1
6294	6297	6302	1
6294	6304	6306	1
6297	6294	6304	1
6295	6296	6297	1
6297	6296	6303	1
6296	6297	6302	1
6296	6295	6301	1
6296	6303	6305	1
6295	6296	6303	1
6295	6292	6298	1
6321	6322	6323	1
6321	6322	6329	1
6321	6324	6325	1
6321	6324	6330	1
6321	6327	6328	1
6322	6323	6326	1
6322	6323	6333	1
6322	6321	6324	1
6322	6321	6327	1
6323	6322	6329	1
6323	6326	6325	1
6323	6326	6331	1
6323	6333	6335	1
6326	6323	6333	1
6324	6325	6326	1
6326	6325	6332	1
6325	6326	6331	1
6325	6324	6330	1
6325	6332	6334	1
6324	6325	6332	1
6324	6321	6327	1
6350	6353	6354	1
6350	6353	6359	1
6350	6351	6352	1
6350	6351	6358	1
6350	6356	6357	1
6353	6354	6355	1
6353	6354	6361	1
6351	6350	6353	1
6353	6350	6356	1
6354	6353	6359	1
6352	6355	6354	1
6354	6355	6360	1
6354	6361	6363	1
6355	6354	6361	1
6351	6352	6355	1
6355	6352	6362	1
6352	6355	6360	1
6352	6351	6358	1
6352	6362	6364	1
6351	6352	6362	1
6351	6350	6356	1
6379	6382	6383	1
6379	6382	6388	1
6379	6380	6381	1
6379	6380	6387	1
6379	6385	6386	1
6382	6383	6384	1
6382	6383	6390	1
6380	6379	6382	1
6382	6379	6385	1
6383	6382	6388	1
6381	6384	6383	1
6383	6384	6389	1
6383	6390	6392	1
6384	6383	6390	1
6380	6381	6384	1
6384	6381	6391	1
6381	6384	6389	1
6381	6380	6387	1
6381	6391	6393	1
6380	6381	6391	1
6380	6379	6385	1
6408	6411	6412	1
6408	6411	6417	1
6408	6409	6410	1
6408	6409	6416	1
6408	6414	6415	1
6411	6412	6413	1
6411	6412	6419	1
6409	6408	6411	1
6411	6408	6414	1
6412	6411	6417	1
6410	6413	6412	1
6412	6413	6418	1
6412	6419	6421	1
6413	6412	6419	1
6409	6410	6413	1
6413	6410	6420	1
6410	6413	6418	1
6410	6409	6416	1
6410	6420	6422	1
6409	6410	6420	1
6409	6408	6414	1
6437	6438	6439	1
6439	6438	6445	1
6439	6442	6441	1
6439	6442	6447	1
6439	6449	6451	1
6438	6437	6440	1
6438	6437	6443	1
6438	6439	6442	1
6438	6439	6449	1
6437	6438	6445	1
6437	6440	6441	1
6437	6440	6446	1
6437	6443	6444	1
6440	6437	6443	1
6440	6441	6442	1
6440	6441	6448	1
6441	6440	6446	1
6441	6442	6447	1
6441	6448	6450	1
6442	6441	6448	1
6442	6439	6449	1
6466	6469	6470	1
6466	6469	6475	1
6466	6467	6468	1
6466	6467	6474	1
6466	6472	6473	1
6469	6470	6471	1
6469	6470	6477	1
6469	6466	6467	1
6469	6466	6472	1
6470	6469	6475	1
6470	6471	6468	1
6470	6471	6476	1
6470	6477	6479	1
6471	6470	6477	1
6467	6468	6471	1
6471	6468	6478	1
6468	6471	6476	1
6468	6467	6474	1
6468	6478	6480	1
6467	6468	6478	1
6467	6466	6472	1
1311	1312	1313	1
1313	1312	1322	1
1313	1314	1315	1
1313	1314	1323	1
1313	1319	1320	1
1313	1319	1321	1
1312	1311	1316	1
1312	1311	1309	1
1312	1313	1314	1
1312	1313	1319	1
1311	1312	1322	1
1311	1316	1315	1
1311	1316	1324	1
1311	1309	1310	1
1316	1311	1309	1
1316	1315	1314	1
1316	1315	1317	1
1315	1316	1324	1
1315	1314	1323	1
1315	1317	1318	1
1314	1315	1317	1
1314	1313	1319	1
1320	1319	1321	1
1341	1342	1343	1
1341	1342	1352	1
1341	1346	1345	1
1341	1346	1354	1
1341	1339	1340	1
1342	1343	1344	1
1342	1343	1349	1
1342	1341	1346	1
1342	1341	1339	1
1343	1342	1352	1
1343	1344	1345	1
1343	1344	1353	1
1343	1349	1350	1
1343	1349	1351	1
1344	1343	1349	1
1346	1345	1344	1
1344	1345	1347	1
1345	1344	1353	1
1345	1346	1354	1
1345	1347	1348	1
1346	1345	1347	1
1346	1341	1339	1
1350	1349	1351	1
6497	6496	6495	1
6497	6496	6503	1
6497	6500	6499	1
6497	6500	6505	1
6497	6507	6509	1
6496	6495	6498	1
6496	6495	6501	1
6500	6497	6496	1
6496	6497	6507	1
6495	6496	6503	1
6499	6498	6495	1
6495	6498	6504	1
6495	6501	6502	1
6498	6495	6501	1
6500	6499	6498	1
6498	6499	6506	1
6499	6498	6504	1
6499	6500	6505	1
6499	6506	6508	1
6500	6499	6506	1
6500	6497	6507	1
6510	6511	6512	1
6510	6511	6518	1
6510	6513	6514	1
6510	6513	6519	1
6510	6516	6517	1
6511	6512	6515	1
6511	6512	6522	1
6511	6510	6513	1
6511	6510	6516	1
6512	6511	6518	1
6512	6515	6514	1
6512	6515	6520	1
6512	6522	6524	1
6515	6512	6522	1
6513	6514	6515	1
6515	6514	6521	1
6514	6515	6520	1
6514	6513	6519	1
6514	6521	6523	1
6513	6514	6521	1
6513	6510	6516	1
6539	6540	6541	1
6539	6540	6547	1
6539	6542	6543	1
6539	6542	6548	1
6539	6545	6546	1
6540	6541	6544	1
6540	6541	6551	1
6540	6539	6542	1
6540	6539	6545	1
6541	6540	6547	1
6541	6544	6543	1
6541	6544	6549	1
6541	6551	6553	1
6544	6541	6551	1
6542	6543	6544	1
6544	6543	6550	1
6543	6544	6549	1
6543	6542	6548	1
6543	6550	6552	1
6542	6543	6550	1
6542	6539	6545	1
6568	6569	6570	1
6568	6569	6576	1
6568	6571	6572	1
6568	6571	6577	1
6568	6574	6575	1
6569	6570	6573	1
6569	6570	6580	1
6569	6568	6571	1
6569	6568	6574	1
6570	6569	6576	1
6570	6573	6572	1
6570	6573	6578	1
6570	6580	6582	1
6573	6570	6580	1
6571	6572	6573	1
6573	6572	6579	1
6572	6573	6578	1
6572	6571	6577	1
6572	6579	6581	1
6571	6572	6579	1
6571	6568	6574	1
6597	6598	6599	1
6597	6598	6605	1
6597	6600	6601	1
6597	6600	6606	1
6597	6603	6604	1
6598	6599	6602	1
6598	6599	6609	1
6598	6597	6600	1
6598	6597	6603	1
6599	6598	6605	1
6599	6602	6601	1
6599	6602	6607	1
6599	6609	6611	1
6602	6599	6609	1
6600	6601	6602	1
6602	6601	6608	1
6601	6602	6607	1
6601	6600	6606	1
6601	6608	6610	1
6600	6601	6608	1
6600	6597	6603	1
6626	6629	6630	1
6626	6629	6635	1
6626	6627	6628	1
6626	6627	6634	1
6626	6632	6633	1
6629	6630	6631	1
6629	6630	6637	1
6627	6626	6629	1
6629	6626	6632	1
6630	6629	6635	1
6628	6631	6630	1
6630	6631	6636	1
6630	6637	6639	1
6631	6630	6637	1
6627	6628	6631	1
6631	6628	6638	1
6628	6631	6636	1
6628	6627	6634	1
6628	6638	6640	1
6627	6628	6638	1
6627	6626	6632	1
6657	6660	6659	1
6659	6660	6665	1
6655	6658	6659	1
6659	6658	6664	1
6659	6666	6668	1
6656	6657	6660	1
6660	6657	6667	1
6658	6659	6660	1
6660	6659	6666	1
6657	6660	6665	1
6655	6656	6657	1
6657	6656	6663	1
6657	6667	6669	1
6656	6657	6667	1
6656	6655	6658	1
6656	6655	6661	1
6655	6656	6663	1
6655	6658	6664	1
6655	6661	6662	1
6658	6655	6661	1
6658	6659	6666	1
6670	6671	6672	1
6670	6671	6678	1
6670	6673	6674	1
6670	6673	6679	1
6670	6676	6677	1
6671	6672	6675	1
6671	6672	6682	1
6673	6670	6671	1
6671	6670	6676	1
6672	6671	6678	1
6674	6675	6672	1
6672	6675	6680	1
6672	6682	6684	1
6675	6672	6682	1
6673	6674	6675	1
6675	6674	6681	1
6674	6675	6680	1
6674	6673	6679	1
6674	6681	6683	1
6673	6674	6681	1
6673	6670	6676	1
6699	6700	6701	1
6699	6700	6707	1
6699	6702	6703	1
6699	6702	6708	1
6699	6705	6706	1
6700	6701	6704	1
6700	6701	6711	1
6702	6699	6700	1
6700	6699	6705	1
6701	6700	6707	1
6703	6704	6701	1
6701	6704	6709	1
6701	6711	6713	1
6704	6701	6711	1
6702	6703	6704	1
6704	6703	6710	1
6703	6704	6709	1
6703	6702	6708	1
6703	6710	6712	1
6702	6703	6710	1
6702	6699	6705	1
6728	6729	6730	1
6728	6729	6736	1
6728	6731	6732	1
6728	6731	6737	1
6728	6734	6735	1
6729	6730	6733	1
6729	6730	6740	1
6729	6728	6731	1
6729	6728	6734	1
6730	6729	6736	1
6730	6733	6732	1
6730	6733	6738	1
6730	6740	6742	1
6733	6730	6740	1
6731	6732	6733	1
6733	6732	6739	1
6732	6733	6738	1
6732	6731	6737	1
6732	6739	6741	1
6731	6732	6739	1
6731	6728	6734	1
6743	6744	6745	1
6743	6744	6751	1
6743	6746	6747	1
6743	6746	6752	1
6743	6749	6750	1
6744	6745	6748	1
6744	6745	6755	1
6744	6743	6746	1
6744	6743	6749	1
6745	6744	6751	1
6745	6748	6747	1
6745	6748	6753	1
6745	6755	6757	1
6748	6745	6755	1
6746	6747	6748	1
6748	6747	6754	1
6747	6748	6753	1
6747	6746	6752	1
6747	6754	6756	1
6746	6747	6754	1
6746	6743	6749	1
6772	6773	6774	1
6772	6773	6780	1
6772	6775	6776	1
6772	6775	6781	1
6772	6778	6779	1
6773	6774	6777	1
6773	6774	6784	1
6773	6772	6775	1
6773	6772	6778	1
6774	6773	6780	1
6774	6777	6776	1
6774	6777	6782	1
6774	6784	6786	1
6777	6774	6784	1
6775	6776	6777	1
6777	6776	6783	1
6776	6777	6782	1
6776	6775	6781	1
6776	6783	6785	1
6775	6776	6783	1
6775	6772	6778	1
6801	6802	6803	1
6801	6802	6809	1
6801	6804	6805	1
6801	6804	6810	1
6801	6807	6808	1
6802	6803	6806	1
6802	6803	6813	1
6802	6801	6804	1
6802	6801	6807	1
6803	6802	6809	1
6803	6806	6805	1
6803	6806	6811	1
6803	6813	6815	1
6806	6803	6813	1
6804	6805	6806	1
6806	6805	6812	1
6805	6806	6811	1
6805	6804	6810	1
6805	6812	6814	1
6804	6805	6812	1
6804	6801	6807	1
6830	6833	6834	1
6830	6833	6839	1
6830	6831	6832	1
6830	6831	6838	1
6830	6836	6837	1
6833	6834	6835	1
6833	6834	6841	1
6831	6830	6833	1
6833	6830	6836	1
6834	6833	6839	1
6832	6835	6834	1
6834	6835	6840	1
6834	6841	6843	1
6835	6834	6841	1
6831	6832	6835	1
6835	6832	6842	1
6832	6835	6840	1
6832	6831	6838	1
6832	6842	6844	1
6831	6832	6842	1
6831	6830	6836	1
1371	1372	1373	1
1371	1372	1382	1
1371	1376	1375	1
1371	1376	1384	1
1371	1369	1370	1
1372	1373	1374	1
1372	1373	1379	1
1372	1371	1376	1
1372	1371	1369	1
1373	1372	1382	1
1373	1374	1375	1
1373	1374	1383	1
1373	1379	1380	1
1373	1379	1381	1
1374	1373	1379	1
1376	1375	1374	1
1374	1375	1377	1
1375	1374	1383	1
1375	1376	1384	1
1375	1377	1378	1
1376	1375	1377	1
1376	1371	1369	1
1380	1379	1381	1
1385	1388	1389	1
1385	1388	1394	1
1385	1386	1387	1
1385	1386	1393	1
1385	1391	1392	1
1388	1389	1390	1
1388	1389	1396	1
1386	1385	1388	1
1388	1385	1391	1
1389	1388	1394	1
1387	1390	1389	1
1389	1390	1395	1
1389	1396	1398	1
1390	1389	1396	1
1386	1387	1390	1
1390	1387	1397	1
1387	1390	1395	1
1387	1386	1393	1
1387	1397	1399	1
1387	1397	1400	1
1386	1387	1397	1
1386	1385	1391	1
1397	1400	1401	1
1399	1397	1400	1
6859	6860	6861	1
6859	6860	6867	1
6859	6862	6863	1
6859	6862	6868	1
6859	6865	6866	1
6860	6861	6864	1
6860	6861	6871	1
6860	6859	6862	1
6860	6859	6865	1
6861	6860	6867	1
6861	6864	6863	1
6861	6864	6869	1
6861	6871	6873	1
6864	6861	6871	1
6862	6863	6864	1
6864	6863	6870	1
6863	6864	6869	1
6863	6862	6868	1
6863	6870	6872	1
6862	6863	6870	1
6862	6859	6865	1
6874	6875	6876	1
6874	6875	6882	1
6874	6877	6878	1
6874	6877	6883	1
6874	6880	6881	1
6875	6876	6879	1
6875	6876	6886	1
6877	6874	6875	1
6875	6874	6880	1
6876	6875	6882	1
6878	6879	6876	1
6876	6879	6884	1
6876	6886	6888	1
6879	6876	6886	1
6877	6878	6879	1
6879	6878	6885	1
6878	6879	6884	1
6878	6877	6883	1
6878	6885	6887	1
6877	6878	6885	1
6877	6874	6880	1
6903	6904	6905	1
6903	6904	6911	1
6903	6906	6907	1
6903	6906	6912	1
6903	6909	6910	1
6904	6905	6908	1
6904	6905	6915	1
6906	6903	6904	1
6904	6903	6909	1
6905	6904	6911	1
6907	6908	6905	1
6905	6908	6913	1
6905	6915	6917	1
6908	6905	6915	1
6906	6907	6908	1
6908	6907	6914	1
6907	6908	6913	1
6907	6906	6912	1
6907	6914	6916	1
6906	6907	6914	1
6906	6903	6909	1
6936	6935	6932	1
6936	6935	6941	1
6936	6937	6934	1
6936	6937	6942	1
6936	6943	6945	1
6935	6932	6933	1
6935	6932	6938	1
6937	6936	6935	1
6935	6936	6943	1
6932	6935	6941	1
6934	6933	6932	1
6932	6933	6940	1
6932	6938	6939	1
6933	6932	6938	1
6937	6934	6933	1
6933	6934	6944	1
6934	6933	6940	1
6934	6937	6942	1
6934	6944	6946	1
6937	6934	6944	1
6937	6936	6943	1
1432	1437	1436	1
1432	1437	1445	1
1432	1433	1434	1
1432	1433	1443	1
1432	1430	1431	1
1437	1436	1435	1
1437	1436	1438	1
1433	1432	1437	1
1437	1432	1430	1
1436	1437	1445	1
1434	1435	1436	1
1436	1435	1444	1
1436	1438	1439	1
1435	1436	1438	1
1433	1434	1435	1
1435	1434	1440	1
1434	1435	1444	1
1434	1433	1443	1
1434	1440	1441	1
1434	1440	1442	1
1433	1434	1440	1
1433	1432	1430	1
1441	1440	1442	1
6947	6950	6951	1
6947	6950	6956	1
6947	6948	6949	1
6947	6948	6955	1
6947	6953	6954	1
6950	6951	6952	1
6950	6951	6958	1
6948	6947	6950	1
6950	6947	6953	1
6951	6950	6956	1
6949	6952	6951	1
6951	6952	6957	1
6951	6958	6960	1
6952	6951	6958	1
6948	6949	6952	1
6952	6949	6959	1
6949	6952	6957	1
6949	6948	6955	1
6949	6959	6961	1
6948	6949	6959	1
6948	6947	6953	1
1446	1447	1448	1
1448	1447	1454	1
1448	1451	1450	1
1448	1451	1456	1
1448	1458	1460	1
1448	1458	1461	1
1447	1446	1449	1
1447	1446	1452	1
1447	1448	1451	1
1447	1448	1458	1
1446	1447	1454	1
1446	1449	1450	1
1446	1449	1455	1
1446	1452	1453	1
1449	1446	1452	1
1449	1450	1451	1
1449	1450	1457	1
1450	1449	1455	1
1450	1451	1456	1
1450	1457	1459	1
1451	1450	1457	1
1451	1448	1458	1
1458	1461	1462	1
1460	1458	1461	1
6976	6979	6980	1
6976	6979	6985	1
6976	6977	6978	1
6976	6977	6984	1
6976	6982	6983	1
6979	6980	6981	1
6979	6980	6987	1
6977	6976	6979	1
6979	6976	6982	1
6980	6979	6985	1
6978	6981	6980	1
6980	6981	6986	1
6980	6987	6989	1
6981	6980	6987	1
6977	6978	6981	1
6981	6978	6988	1
6978	6981	6986	1
6978	6977	6984	1
6978	6988	6990	1
6977	6978	6988	1
6977	6976	6982	1
6991	6992	6993	1
6993	6992	6999	1
6993	6996	6995	1
6993	6996	7001	1
6993	7003	7005	1
6992	6991	6994	1
6992	6991	6997	1
6992	6993	6996	1
6992	6993	7003	1
6991	6992	6999	1
6991	6994	6995	1
6991	6994	7000	1
6991	6997	6998	1
6994	6991	6997	1
6994	6995	6996	1
6994	6995	7002	1
6995	6994	7000	1
6995	6996	7001	1
6995	7002	7004	1
6996	6995	7002	1
6996	6993	7003	1
7020	7021	7022	1
7020	7021	7028	1
7020	7023	7024	1
7020	7023	7029	1
7020	7026	7027	1
7021	7022	7025	1
7021	7022	7032	1
7021	7020	7023	1
7021	7020	7026	1
7022	7021	7028	1
7022	7025	7024	1
7022	7025	7030	1
7022	7032	7034	1
7025	7022	7032	1
7023	7024	7025	1
7025	7024	7031	1
7024	7025	7030	1
7024	7023	7029	1
7024	7031	7033	1
7023	7024	7031	1
7023	7020	7026	1
7049	7050	7051	1
7049	7050	7057	1
7049	7052	7053	1
7049	7052	7058	1
7049	7055	7056	1
7050	7051	7054	1
7050	7051	7061	1
7050	7049	7052	1
7050	7049	7055	1
7051	7050	7057	1
7051	7054	7053	1
7051	7054	7059	1
7051	7061	7063	1
7054	7051	7061	1
7052	7053	7054	1
7054	7053	7060	1
7053	7054	7059	1
7053	7052	7058	1
7053	7060	7062	1
7052	7053	7060	1
7052	7049	7055	1
7078	7081	7082	1
7078	7081	7087	1
7078	7079	7080	1
7078	7079	7086	1
7078	7084	7085	1
7081	7082	7083	1
7081	7082	7089	1
7081	7078	7079	1
7081	7078	7084	1
7082	7081	7087	1
7082	7083	7080	1
7082	7083	7088	1
7082	7089	7091	1
7083	7082	7089	1
7079	7080	7083	1
7083	7080	7090	1
7080	7083	7088	1
7080	7079	7086	1
7080	7090	7092	1
7079	7080	7090	1
7079	7078	7084	1
7107	7110	7111	1
7107	7110	7116	1
7107	7108	7109	1
7107	7108	7115	1
7107	7113	7114	1
7110	7111	7112	1
7110	7111	7118	1
7110	7107	7108	1
7110	7107	7113	1
7111	7110	7116	1
7111	7112	7109	1
7111	7112	7117	1
7111	7118	7120	1
7112	7111	7118	1
7108	7109	7112	1
7112	7109	7119	1
7109	7112	7117	1
7109	7108	7115	1
7109	7119	7121	1
7108	7109	7119	1
7108	7107	7113	1
1493	1494	1495	1
1493	1494	1504	1
1493	1498	1497	1
1493	1498	1506	1
1493	1491	1492	1
1494	1495	1496	1
1494	1495	1501	1
1494	1493	1498	1
1494	1493	1491	1
1495	1494	1504	1
1495	1496	1497	1
1495	1496	1505	1
1495	1501	1502	1
1495	1501	1503	1
1496	1495	1501	1
1498	1497	1496	1
1496	1497	1499	1
1497	1496	1505	1
1497	1498	1506	1
1497	1499	1500	1
1498	1497	1499	1
1498	1493	1491	1
1502	1501	1503	1
7140	7141	7138	1
7140	7141	7146	1
7140	7139	7136	1
7140	7139	7145	1
7140	7147	7149	1
7141	7138	7137	1
7141	7138	7148	1
7141	7140	7139	1
7141	7140	7147	1
7138	7141	7146	1
7138	7137	7136	1
7138	7137	7144	1
7138	7148	7150	1
7137	7138	7148	1
7139	7136	7137	1
7137	7136	7142	1
7136	7137	7144	1
7136	7139	7145	1
7136	7142	7143	1
7139	7136	7142	1
7139	7140	7147	1
7165	7168	7169	1
7169	7168	7174	1
7167	7170	7169	1
7169	7170	7175	1
7169	7176	7178	1
7166	7165	7168	1
7168	7165	7171	1
7168	7169	7170	1
7168	7169	7176	1
7165	7168	7174	1
7165	7166	7167	1
7165	7166	7173	1
7165	7171	7172	1
7166	7165	7171	1
7166	7167	7170	1
7166	7167	7177	1
7167	7166	7173	1
7167	7170	7175	1
7167	7177	7179	1
7170	7167	7177	1
7170	7169	7176	1
72	73	68	1
72	73	82	1
72	71	70	1
72	71	81	1
72	74	75	1
73	68	69	1
73	68	66	1
71	72	73	1
73	72	74	1
68	73	82	1
70	69	68	1
68	69	80	1
68	66	67	1
68	66	65	1
69	68	66	1
71	70	69	1
69	70	76	1
70	69	80	1
70	71	81	1
70	76	77	1
70	76	78	1
71	70	76	1
71	72	74	1
66	65	79	1
77	76	78	1
67	66	65	1
7180	7181	7182	1
7180	7181	7188	1
7180	7183	7184	1
7180	7183	7189	1
7180	7186	7187	1
7181	7182	7185	1
7181	7182	7192	1
7181	7180	7183	1
7181	7180	7186	1
7182	7181	7188	1
7182	7185	7184	1
7182	7185	7190	1
7182	7192	7194	1
7185	7182	7192	1
7183	7184	7185	1
7185	7184	7191	1
7184	7185	7190	1
7184	7183	7189	1
7184	7191	7193	1
7183	7184	7191	1
7183	7180	7186	1
7209	7210	7211	1
7209	7210	7217	1
7209	7212	7213	1
7209	7212	7218	1
7209	7215	7216	1
7210	7211	7214	1
7210	7211	7221	1
7210	7209	7212	1
7210	7209	7215	1
7211	7210	7217	1
7211	7214	7213	1
7211	7214	7219	1
7211	7221	7223	1
7214	7211	7221	1
7212	7213	7214	1
7214	7213	7220	1
7213	7214	7219	1
7213	7212	7218	1
7213	7220	7222	1
7212	7213	7220	1
7212	7209	7215	1
7238	7241	7242	1
7238	7241	7247	1
7238	7239	7240	1
7238	7239	7246	1
7238	7244	7245	1
7241	7242	7243	1
7241	7242	7249	1
7239	7238	7241	1
7241	7238	7244	1
7242	7241	7247	1
7240	7243	7242	1
7242	7243	7248	1
7242	7249	7251	1
7243	7242	7249	1
7239	7240	7243	1
7243	7240	7250	1
7240	7243	7248	1
7240	7239	7246	1
7240	7250	7252	1
7239	7240	7250	1
7239	7238	7244	1
7267	7270	7271	1
7267	7270	7276	1
7267	7268	7269	1
7267	7268	7275	1
7267	7273	7274	1
7270	7271	7272	1
7270	7271	7278	1
7268	7267	7270	1
7270	7267	7273	1
7271	7270	7276	1
7269	7272	7271	1
7271	7272	7277	1
7271	7278	7280	1
7272	7271	7278	1
7268	7269	7272	1
7272	7269	7279	1
7269	7272	7277	1
7269	7268	7275	1
7269	7279	7281	1
7268	7269	7279	1
7268	7267	7273	1
7296	7297	7298	1
7296	7297	7304	1
7296	7299	7300	1
7296	7299	7305	1
7296	7302	7303	1
7297	7298	7301	1
7297	7298	7308	1
7299	7296	7297	1
7297	7296	7302	1
7298	7297	7304	1
7300	7301	7298	1
7298	7301	7306	1
7298	7308	7310	1
7301	7298	7308	1
7299	7300	7301	1
7301	7300	7307	1
7300	7301	7306	1
7300	7299	7305	1
7300	7307	7309	1
7299	7300	7307	1
7299	7296	7302	1
1523	1524	1525	1
1525	1524	1534	1
1525	1526	1527	1
1525	1526	1535	1
1525	1531	1532	1
1525	1531	1533	1
1524	1523	1528	1
1524	1523	1521	1
1524	1525	1526	1
1524	1525	1531	1
1523	1524	1534	1
1523	1528	1527	1
1523	1528	1536	1
1523	1521	1522	1
1528	1523	1521	1
1528	1527	1526	1
1528	1527	1529	1
1527	1528	1536	1
1527	1526	1535	1
1527	1529	1530	1
1526	1527	1529	1
1526	1525	1531	1
1532	1531	1533	1
1557	1558	1553	1
1557	1558	1566	1
1557	1556	1555	1
1557	1556	1565	1
1557	1559	1560	1
1558	1553	1554	1
1558	1553	1551	1
1556	1557	1558	1
1558	1557	1559	1
1553	1558	1566	1
1555	1554	1553	1
1553	1554	1564	1
1553	1551	1552	1
1554	1553	1551	1
1556	1555	1554	1
1554	1555	1561	1
1555	1554	1564	1
1555	1556	1565	1
1555	1561	1562	1
1555	1561	1563	1
1556	1555	1561	1
1556	1557	1559	1
1562	1561	1563	1
7325	7326	7327	1
7325	7326	7333	1
7325	7328	7329	1
7325	7328	7334	1
7325	7331	7332	1
7326	7327	7330	1
7326	7327	7337	1
7328	7325	7326	1
7326	7325	7331	1
7327	7326	7333	1
7329	7330	7327	1
7327	7330	7335	1
7327	7337	7339	1
7330	7327	7337	1
7328	7329	7330	1
7330	7329	7336	1
7329	7330	7335	1
7329	7328	7334	1
7329	7336	7338	1
7328	7329	7336	1
7328	7325	7331	1
1567	1568	1569	1
1567	1568	1575	1
1567	1570	1571	1
1567	1570	1576	1
1567	1573	1574	1
1568	1569	1572	1
1568	1569	1579	1
1568	1567	1570	1
1568	1567	1573	1
1569	1568	1575	1
1569	1572	1571	1
1569	1572	1577	1
1569	1579	1581	1
1569	1579	1582	1
1572	1569	1579	1
1570	1571	1572	1
1572	1571	1578	1
1571	1572	1577	1
1571	1570	1576	1
1571	1578	1580	1
1570	1571	1578	1
1570	1567	1573	1
1579	1582	1583	1
1581	1579	1582	1
1614	1615	1616	1
1616	1615	1625	1
1616	1617	1618	1
1616	1617	1626	1
1616	1622	1623	1
1616	1622	1624	1
1615	1614	1619	1
1615	1614	1612	1
1615	1616	1617	1
1615	1616	1622	1
1614	1615	1625	1
1614	1619	1618	1
1614	1619	1627	1
1614	1612	1613	1
1619	1614	1612	1
1619	1618	1617	1
1619	1618	1620	1
1618	1619	1627	1
1618	1617	1626	1
1618	1620	1621	1
1617	1618	1620	1
1617	1616	1622	1
1623	1622	1624	1
7340	7343	7344	1
7340	7343	7349	1
7340	7341	7342	1
7340	7341	7348	1
7340	7346	7347	1
7343	7344	7345	1
7343	7344	7351	1
7341	7340	7343	1
7343	7340	7346	1
7344	7343	7349	1
7342	7345	7344	1
7344	7345	7350	1
7344	7351	7353	1
7345	7344	7351	1
7341	7342	7345	1
7345	7342	7352	1
7342	7345	7350	1
7342	7341	7348	1
7342	7352	7354	1
7341	7342	7352	1
7341	7340	7346	1
104	103	102	1
102	103	113	1
102	101	100	1
102	101	112	1
102	108	109	1
102	108	110	1
103	104	105	1
103	104	106	1
103	102	101	1
103	102	108	1
104	103	113	1
104	105	100	1
104	105	114	1
104	106	107	1
105	104	106	1
105	100	101	1
105	100	98	1
100	105	114	1
100	101	112	1
100	98	99	1
100	98	97	1
101	100	98	1
101	102	108	1
98	97	111	1
99	98	97	1
109	108	110	1
7355	7358	7359	1
7355	7358	7364	1
7355	7356	7357	1
7355	7356	7363	1
7355	7361	7362	1
7358	7359	7360	1
7358	7359	7366	1
7356	7355	7358	1
7358	7355	7361	1
7359	7358	7364	1
7357	7360	7359	1
7359	7360	7365	1
7359	7366	7368	1
7360	7359	7366	1
7356	7357	7360	1
7360	7357	7367	1
7357	7360	7365	1
7357	7356	7363	1
7357	7367	7369	1
7356	7357	7367	1
7356	7355	7361	1
7384	7387	7388	1
7384	7387	7393	1
7384	7385	7386	1
7384	7385	7392	1
7384	7390	7391	1
7387	7388	7389	1
7387	7388	7395	1
7385	7384	7387	1
7387	7384	7390	1
7388	7387	7393	1
7386	7389	7388	1
7388	7389	7394	1
7388	7395	7397	1
7389	7388	7395	1
7385	7386	7389	1
7389	7386	7396	1
7386	7389	7394	1
7386	7385	7392	1
7386	7396	7398	1
7385	7386	7396	1
7385	7384	7390	1
7413	7416	7417	1
7413	7416	7422	1
7413	7414	7415	1
7413	7414	7421	1
7413	7419	7420	1
7416	7417	7418	1
7416	7417	7424	1
7414	7413	7416	1
7416	7413	7419	1
7417	7416	7422	1
7415	7418	7417	1
7417	7418	7423	1
7417	7424	7426	1
7418	7417	7424	1
7414	7415	7418	1
7418	7415	7425	1
7415	7418	7423	1
7415	7414	7421	1
7415	7425	7427	1
7414	7415	7425	1
7414	7413	7419	1
7442	7445	7446	1
7442	7445	7451	1
7442	7443	7444	1
7442	7443	7450	1
7442	7448	7449	1
7445	7446	7447	1
7445	7446	7453	1
7443	7442	7445	1
7445	7442	7448	1
7446	7445	7451	1
7444	7447	7446	1
7446	7447	7452	1
7446	7453	7455	1
7447	7446	7453	1
7443	7444	7447	1
7447	7444	7454	1
7444	7447	7452	1
7444	7443	7450	1
7444	7454	7456	1
7443	7444	7454	1
7443	7442	7448	1
7457	7458	7459	1
7457	7458	7465	1
7457	7460	7461	1
7457	7460	7466	1
7457	7463	7464	1
7458	7459	7462	1
7458	7459	7469	1
7458	7457	7460	1
7458	7457	7463	1
7459	7458	7465	1
7459	7462	7461	1
7459	7462	7467	1
7459	7469	7471	1
7462	7459	7469	1
7460	7461	7462	1
7462	7461	7468	1
7461	7462	7467	1
7461	7460	7466	1
7461	7468	7470	1
7460	7461	7468	1
7460	7457	7463	1
7486	7489	7490	1
7486	7489	7495	1
7486	7487	7488	1
7486	7487	7494	1
7486	7492	7493	1
7489	7490	7491	1
7489	7490	7497	1
7489	7486	7487	1
7489	7486	7492	1
7490	7489	7495	1
7490	7491	7488	1
7490	7491	7496	1
7490	7497	7499	1
7491	7490	7497	1
7487	7488	7491	1
7491	7488	7498	1
7488	7491	7496	1
7488	7487	7494	1
7488	7498	7500	1
7487	7488	7498	1
7487	7486	7492	1
1628	1631	1632	1
1628	1631	1637	1
1628	1629	1630	1
1628	1629	1636	1
1628	1634	1635	1
1631	1632	1633	1
1631	1632	1639	1
1629	1628	1631	1
1631	1628	1634	1
1632	1631	1637	1
1630	1633	1632	1
1632	1633	1638	1
1632	1639	1641	1
1633	1632	1639	1
1629	1630	1633	1
1633	1630	1640	1
1630	1633	1638	1
1630	1629	1636	1
1630	1640	1642	1
1630	1640	1643	1
1629	1630	1640	1
1629	1628	1634	1
1640	1643	1644	1
1642	1640	1643	1
7515	7518	7519	1
7515	7518	7524	1
7515	7516	7517	1
7515	7516	7523	1
7515	7521	7522	1
7518	7519	7520	1
7518	7519	7526	1
7518	7515	7516	1
7518	7515	7521	1
7519	7518	7524	1
7519	7520	7517	1
7519	7520	7525	1
7519	7526	7528	1
7520	7519	7526	1
7516	7517	7520	1
7520	7517	7527	1
7517	7520	7525	1
7517	7516	7523	1
7517	7527	7529	1
7516	7517	7527	1
7516	7515	7521	1
7530	7531	7532	1
7530	7531	7538	1
7530	7533	7534	1
7530	7533	7539	1
7530	7536	7537	1
7531	7532	7535	1
7531	7532	7542	1
7531	7530	7533	1
7531	7530	7536	1
7532	7531	7538	1
7532	7535	7534	1
7532	7535	7540	1
7532	7542	7544	1
7535	7532	7542	1
7533	7534	7535	1
7535	7534	7541	1
7534	7535	7540	1
7534	7533	7539	1
7534	7541	7543	1
7533	7534	7541	1
7533	7530	7536	1
7563	7564	7561	1
7563	7564	7569	1
7563	7562	7559	1
7563	7562	7568	1
7563	7570	7572	1
7564	7561	7560	1
7564	7561	7571	1
7564	7563	7562	1
7564	7563	7570	1
7561	7564	7569	1
7561	7560	7559	1
7561	7560	7567	1
7561	7571	7573	1
7560	7561	7571	1
7562	7559	7560	1
7560	7559	7565	1
7559	7560	7567	1
7559	7562	7568	1
7559	7565	7566	1
7562	7559	7565	1
7562	7563	7570	1
7588	7591	7592	1
7588	7591	7597	1
7588	7589	7590	1
7588	7589	7596	1
7588	7594	7595	1
7591	7592	7593	1
7591	7592	7599	1
7589	7588	7591	1
7591	7588	7594	1
7592	7591	7597	1
7590	7593	7592	1
7592	7593	7598	1
7592	7599	7601	1
7593	7592	7599	1
7589	7590	7593	1
7593	7590	7600	1
7590	7593	7598	1
7590	7589	7596	1
7590	7600	7602	1
7589	7590	7600	1
7589	7588	7594	1
1675	1680	1679	1
1675	1680	1688	1
1675	1676	1677	1
1675	1676	1686	1
1675	1673	1674	1
1680	1679	1678	1
1680	1679	1681	1
1676	1675	1680	1
1680	1675	1673	1
1679	1680	1688	1
1677	1678	1679	1
1679	1678	1687	1
1679	1681	1682	1
1678	1679	1681	1
1676	1677	1678	1
1678	1677	1683	1
1677	1678	1687	1
1677	1676	1686	1
1677	1683	1684	1
1677	1683	1685	1
1676	1677	1683	1
1676	1675	1673	1
1684	1683	1685	1
7603	7606	7607	1
7603	7606	7612	1
7603	7604	7605	1
7603	7604	7611	1
7603	7609	7610	1
7606	7607	7608	1
7606	7607	7614	1
7604	7603	7606	1
7606	7603	7609	1
7607	7606	7612	1
7605	7608	7607	1
7607	7608	7613	1
7607	7614	7616	1
7608	7607	7614	1
7604	7605	7608	1
7608	7605	7615	1
7605	7608	7613	1
7605	7604	7611	1
7605	7615	7617	1
7604	7605	7615	1
7604	7603	7609	1
7632	7635	7636	1
7632	7635	7641	1
7632	7633	7634	1
7632	7633	7640	1
7632	7638	7639	1
7635	7636	7637	1
7635	7636	7643	1
7633	7632	7635	1
7635	7632	7638	1
7636	7635	7641	1
7634	7637	7636	1
7636	7637	7642	1
7636	7643	7645	1
7637	7636	7643	1
7633	7634	7637	1
7637	7634	7644	1
7634	7637	7642	1
7634	7633	7640	1
7634	7644	7646	1
7633	7634	7644	1
7633	7632	7638	1
7661	7664	7665	1
7661	7664	7670	1
7661	7662	7663	1
7661	7662	7669	1
7661	7667	7668	1
7664	7665	7666	1
7664	7665	7672	1
7662	7661	7664	1
7664	7661	7667	1
7665	7664	7670	1
7663	7666	7665	1
7665	7666	7671	1
7665	7672	7674	1
7666	7665	7672	1
7662	7663	7666	1
7666	7663	7673	1
7663	7666	7671	1
7663	7662	7669	1
7663	7673	7675	1
7662	7663	7673	1
7662	7661	7667	1
1689	1690	1691	1
1689	1690	1697	1
1689	1692	1693	1
1689	1692	1698	1
1689	1695	1696	1
1690	1691	1694	1
1690	1691	1701	1
1690	1689	1692	1
1690	1689	1695	1
1691	1690	1697	1
1691	1694	1693	1
1691	1694	1699	1
1691	1701	1703	1
1691	1701	1704	1
1694	1691	1701	1
1692	1693	1694	1
1694	1693	1700	1
1693	1694	1699	1
1693	1692	1698	1
1693	1700	1702	1
1692	1693	1700	1
1692	1689	1695	1
1701	1704	1705	1
1703	1701	1704	1
7694	7695	7692	1
7694	7695	7700	1
7690	7693	7694	1
7694	7693	7699	1
7694	7701	7703	1
7691	7692	7695	1
7695	7692	7702	1
7693	7694	7695	1
7695	7694	7701	1
7692	7695	7700	1
7690	7691	7692	1
7692	7691	7698	1
7692	7702	7704	1
7691	7692	7702	1
7693	7690	7691	1
7691	7690	7696	1
7690	7691	7698	1
7690	7693	7699	1
7690	7696	7697	1
7693	7690	7696	1
7693	7694	7701	1
7719	7720	7721	1
7719	7720	7727	1
7719	7722	7723	1
7719	7722	7728	1
7719	7725	7726	1
7720	7721	7724	1
7720	7721	7731	1
7722	7719	7720	1
7720	7719	7725	1
7721	7720	7727	1
7723	7724	7721	1
7721	7724	7729	1
7721	7731	7733	1
7724	7721	7731	1
7722	7723	7724	1
7724	7723	7730	1
7723	7724	7729	1
7723	7722	7728	1
7723	7730	7732	1
7722	7723	7730	1
7722	7719	7725	1
7748	7749	7750	1
7748	7749	7756	1
7748	7751	7752	1
7748	7751	7757	1
7748	7754	7755	1
7749	7750	7753	1
7749	7750	7760	1
7749	7748	7751	1
7749	7748	7754	1
7750	7749	7756	1
7750	7753	7752	1
7750	7753	7758	1
7750	7760	7762	1
7753	7750	7760	1
7751	7752	7753	1
7753	7752	7759	1
7752	7753	7758	1
7752	7751	7757	1
7752	7759	7761	1
7751	7752	7759	1
7751	7748	7754	1
1736	1737	1738	1
1736	1737	1747	1
1736	1741	1740	1
1736	1741	1749	1
1736	1734	1735	1
1737	1738	1739	1
1737	1738	1744	1
1737	1736	1741	1
1737	1736	1734	1
1738	1737	1747	1
1738	1739	1740	1
1738	1739	1748	1
1738	1744	1745	1
1738	1744	1746	1
1739	1738	1744	1
1741	1740	1739	1
1739	1740	1742	1
1740	1739	1748	1
1740	1741	1749	1
1740	1742	1743	1
1741	1740	1742	1
1741	1736	1734	1
1745	1744	1746	1
7777	7778	7779	1
7777	7778	7785	1
7777	7780	7781	1
7777	7780	7786	1
7777	7783	7784	1
7778	7779	7782	1
7778	7779	7789	1
7778	7777	7780	1
7778	7777	7783	1
7779	7778	7785	1
7779	7782	7781	1
7779	7782	7787	1
7779	7789	7791	1
7782	7779	7789	1
7780	7781	7782	1
7782	7781	7788	1
7781	7782	7787	1
7781	7780	7786	1
7781	7788	7790	1
7780	7781	7788	1
7780	7777	7783	1
7806	7807	7808	1
7806	7807	7814	1
7806	7809	7810	1
7806	7809	7815	1
7806	7812	7813	1
7807	7808	7811	1
7807	7808	7818	1
7807	7806	7809	1
7807	7806	7812	1
7808	7807	7814	1
7808	7811	7810	1
7808	7811	7816	1
7808	7818	7820	1
7811	7808	7818	1
7809	7810	7811	1
7811	7810	7817	1
7810	7811	7816	1
7810	7809	7815	1
7810	7817	7819	1
7809	7810	7817	1
7809	7806	7812	1
7835	7836	7837	1
7835	7836	7843	1
7835	7838	7839	1
7835	7838	7844	1
7835	7841	7842	1
7836	7837	7840	1
7836	7837	7847	1
7836	7835	7838	1
7836	7835	7841	1
7837	7836	7843	1
7837	7840	7839	1
7837	7840	7845	1
7837	7847	7849	1
7840	7837	7847	1
7838	7839	7840	1
7840	7839	7846	1
7839	7840	7845	1
7839	7838	7844	1
7839	7846	7848	1
7838	7839	7846	1
7838	7835	7841	1
7864	7865	7866	1
7864	7865	7872	1
7864	7867	7868	1
7864	7867	7873	1
7864	7870	7871	1
7865	7866	7869	1
7865	7866	7876	1
7865	7864	7867	1
7865	7864	7870	1
7866	7865	7872	1
7866	7869	7868	1
7866	7869	7874	1
7866	7876	7878	1
7869	7866	7876	1
7867	7868	7869	1
7869	7868	7875	1
7868	7869	7874	1
7868	7867	7873	1
7868	7875	7877	1
7867	7868	7875	1
7867	7864	7870	1
7893	7896	7897	1
7893	7896	7902	1
7893	7894	7895	1
7893	7894	7901	1
7893	7899	7900	1
7896	7897	7898	1
7896	7897	7904	1
7894	7893	7896	1
7896	7893	7899	1
7897	7896	7902	1
7895	7898	7897	1
7897	7898	7903	1
7897	7904	7906	1
7898	7897	7904	1
7894	7895	7898	1
7898	7895	7905	1
7895	7898	7903	1
7895	7894	7901	1
7895	7905	7907	1
7894	7895	7905	1
7894	7893	7899	1
1750	1751	1752	1
1750	1751	1758	1
1750	1753	1754	1
1750	1753	1759	1
1750	1756	1757	1
1751	1752	1755	1
1751	1752	1762	1
1751	1750	1753	1
1751	1750	1756	1
1752	1751	1758	1
1752	1755	1754	1
1752	1755	1760	1
1752	1762	1764	1
1752	1762	1765	1
1755	1752	1762	1
1753	1754	1755	1
1755	1754	1761	1
1754	1755	1760	1
1754	1753	1759	1
1754	1761	1763	1
1753	1754	1761	1
1753	1750	1756	1
1762	1765	1766	1
1764	1762	1765	1
7908	7909	7910	1
7908	7909	7916	1
7908	7911	7912	1
7908	7911	7917	1
7908	7914	7915	1
7909	7910	7913	1
7909	7910	7920	1
7911	7908	7909	1
7909	7908	7914	1
7910	7909	7916	1
7912	7913	7910	1
7910	7913	7918	1
7910	7920	7922	1
7913	7910	7920	1
7911	7912	7913	1
7913	7912	7919	1
7912	7913	7918	1
7912	7911	7917	1
7912	7919	7921	1
7911	7912	7919	1
7911	7908	7914	1
7937	7938	7939	1
7937	7938	7945	1
7937	7940	7941	1
7937	7940	7946	1
7937	7943	7944	1
7938	7939	7942	1
7938	7939	7949	1
7940	7937	7938	1
7938	7937	7943	1
7939	7938	7945	1
7941	7942	7939	1
7939	7942	7947	1
7939	7949	7951	1
7942	7939	7949	1
7940	7941	7942	1
7942	7941	7948	1
7941	7942	7947	1
7941	7940	7946	1
7941	7948	7950	1
7940	7941	7948	1
7940	7937	7943	1
7966	7969	7970	1
7966	7969	7975	1
7966	7967	7968	1
7966	7967	7974	1
7966	7972	7973	1
7969	7970	7971	1
7969	7970	7977	1
7967	7966	7969	1
7969	7966	7972	1
7970	7969	7975	1
7968	7971	7970	1
7970	7971	7976	1
7970	7977	7979	1
7971	7970	7977	1
7967	7968	7971	1
7971	7968	7978	1
7968	7971	7976	1
7968	7967	7974	1
7968	7978	7980	1
7967	7968	7978	1
7967	7966	7972	1
7981	7984	7985	1
7981	7984	7990	1
7981	7982	7983	1
7981	7982	7989	1
7981	7987	7988	1
7984	7985	7986	1
7984	7985	7992	1
7982	7981	7984	1
7984	7981	7987	1
7985	7984	7990	1
7983	7986	7985	1
7985	7986	7991	1
7985	7992	7994	1
7986	7985	7992	1
7982	7983	7986	1
7986	7983	7993	1
7983	7986	7991	1
7983	7982	7989	1
7983	7993	7995	1
7982	7983	7993	1
7982	7981	7987	1
8010	8011	8012	1
8010	8011	8018	1
8010	8013	8014	1
8010	8013	8019	1
8010	8016	8017	1
8011	8012	8015	1
8011	8012	8022	1
8011	8010	8013	1
8011	8010	8016	1
8012	8011	8018	1
8012	8015	8014	1
8012	8015	8020	1
8012	8022	8024	1
8015	8012	8022	1
8013	8014	8015	1
8015	8014	8021	1
8014	8015	8020	1
8014	8013	8019	1
8014	8021	8023	1
8013	8014	8021	1
8013	8010	8016	1
8039	8040	8041	1
8039	8040	8047	1
8039	8042	8043	1
8039	8042	8048	1
8039	8045	8046	1
8040	8041	8044	1
8040	8041	8051	1
8040	8039	8042	1
8040	8039	8045	1
8041	8040	8047	1
8041	8044	8043	1
8041	8044	8049	1
8041	8051	8053	1
8044	8041	8051	1
8042	8043	8044	1
8044	8043	8050	1
8043	8044	8049	1
8043	8042	8048	1
8043	8050	8052	1
8042	8043	8050	1
8042	8039	8045	1
1785	1784	1781	1
1785	1784	1790	1
1785	1786	1783	1
1785	1786	1791	1
1785	1792	1794	1
1784	1781	1782	1
1784	1781	1787	1
1786	1785	1784	1
1784	1785	1792	1
1781	1784	1790	1
1783	1782	1781	1
1781	1782	1789	1
1781	1787	1788	1
1782	1781	1787	1
1786	1783	1782	1
1782	1783	1793	1
1783	1782	1789	1
1783	1786	1791	1
1783	1793	1795	1
1783	1793	1796	1
1786	1783	1793	1
1786	1785	1792	1
1793	1796	1797	1
1795	1793	1796	1
8054	8055	8056	1
8054	8055	8062	1
8054	8057	8058	1
8054	8057	8063	1
8054	8060	8061	1
8055	8056	8059	1
8055	8056	8066	1
8055	8054	8057	1
8055	8054	8060	1
8056	8055	8062	1
8056	8059	8058	1
8056	8059	8064	1
8056	8066	8068	1
8059	8056	8066	1
8057	8058	8059	1
8059	8058	8065	1
8058	8059	8064	1
8058	8057	8063	1
8058	8065	8067	1
8057	8058	8065	1
8057	8054	8060	1
8083	8084	8085	1
8083	8084	8091	1
8083	8086	8087	1
8083	8086	8092	1
8083	8089	8090	1
8084	8085	8088	1
8084	8085	8095	1
8084	8083	8086	1
8084	8083	8089	1
8085	8084	8091	1
8085	8088	8087	1
8085	8088	8093	1
8085	8095	8097	1
8088	8085	8095	1
8086	8087	8088	1
8088	8087	8094	1
8087	8088	8093	1
8087	8086	8092	1
8087	8094	8096	1
8086	8087	8094	1
8086	8083	8089	1
8112	8115	8116	1
8112	8115	8121	1
8112	8113	8114	1
8112	8113	8120	1
8112	8118	8119	1
8115	8116	8117	1
8115	8116	8123	1
8115	8112	8113	1
8115	8112	8118	1
8116	8115	8121	1
8116	8117	8114	1
8116	8117	8122	1
8116	8123	8125	1
8117	8116	8123	1
8113	8114	8117	1
8117	8114	8124	1
8114	8117	8122	1
8114	8113	8120	1
8114	8124	8126	1
8113	8114	8124	1
8113	8112	8118	1
8141	8144	8145	1
8141	8144	8150	1
8141	8142	8143	1
8141	8142	8149	1
8141	8147	8148	1
8144	8145	8146	1
8144	8145	8152	1
8144	8141	8142	1
8144	8141	8147	1
8145	8144	8150	1
8145	8146	8143	1
8145	8146	8151	1
8145	8152	8154	1
8146	8145	8152	1
8142	8143	8146	1
8146	8143	8153	1
8143	8146	8151	1
8143	8142	8149	1
8143	8153	8155	1
8142	8143	8153	1
8142	8141	8147	1
8156	8159	8160	1
8156	8159	8165	1
8156	8157	8158	1
8156	8157	8164	1
8156	8162	8163	1
8159	8160	8161	1
8159	8160	8167	1
8157	8156	8159	1
8159	8156	8162	1
8160	8159	8165	1
8158	8161	8160	1
8160	8161	8166	1
8160	8167	8169	1
8161	8160	8167	1
8157	8158	8161	1
8161	8158	8168	1
8158	8161	8166	1
8158	8157	8164	1
8158	8168	8170	1
8157	8158	8168	1
8157	8156	8162	1
8171	8172	8173	1
8171	8172	8179	1
8171	8174	8175	1
8171	8174	8180	1
8171	8177	8178	1
8172	8173	8176	1
8172	8173	8183	1
8172	8171	8174	1
8172	8171	8177	1
8173	8172	8179	1
8173	8176	8175	1
8173	8176	8181	1
8173	8183	8185	1
8176	8173	8183	1
8174	8175	8176	1
8176	8175	8182	1
8175	8176	8181	1
8175	8174	8180	1
8175	8182	8184	1
8174	8175	8182	1
8174	8171	8177	1
8200	8201	8202	1
8202	8201	8208	1
8202	8205	8204	1
8202	8205	8210	1
8202	8212	8214	1
8201	8200	8203	1
8201	8200	8206	1
8201	8202	8205	1
8201	8202	8212	1
8200	8201	8208	1
8200	8203	8204	1
8200	8203	8209	1
8200	8206	8207	1
8203	8200	8206	1
8203	8204	8205	1
8203	8204	8211	1
8204	8203	8209	1
8204	8205	8210	1
8204	8211	8213	1
8205	8204	8211	1
8205	8202	8212	1
1828	1829	1830	1
1828	1829	1839	1
1828	1833	1832	1
1828	1833	1841	1
1828	1826	1827	1
1829	1830	1831	1
1829	1830	1836	1
1829	1828	1833	1
1829	1828	1826	1
1830	1829	1839	1
1830	1831	1832	1
1830	1831	1840	1
1830	1836	1837	1
1830	1836	1838	1
1831	1830	1836	1
1833	1832	1831	1
1831	1832	1834	1
1832	1831	1840	1
1832	1833	1841	1
1832	1834	1835	1
1833	1832	1834	1
1833	1828	1826	1
1837	1836	1838	1
1842	1843	1844	1
1842	1843	1850	1
1842	1845	1846	1
1842	1845	1851	1
1842	1848	1849	1
1843	1844	1847	1
1843	1844	1854	1
1843	1842	1845	1
1843	1842	1848	1
1844	1843	1850	1
1844	1847	1846	1
1844	1847	1852	1
1844	1854	1856	1
1844	1854	1857	1
1847	1844	1854	1
1845	1846	1847	1
1847	1846	1853	1
1846	1847	1852	1
1846	1845	1851	1
1846	1853	1855	1
1845	1846	1853	1
1845	1842	1848	1
1854	1857	1858	1
1856	1854	1857	1
8215	8216	8217	1
8215	8216	8223	1
8215	8218	8219	1
8215	8218	8224	1
8215	8221	8222	1
8216	8217	8220	1
8216	8217	8227	1
8216	8215	8218	1
8216	8215	8221	1
8217	8216	8223	1
8217	8220	8219	1
8217	8220	8225	1
8217	8227	8229	1
8220	8217	8227	1
8218	8219	8220	1
8220	8219	8226	1
8219	8220	8225	1
8219	8218	8224	1
8219	8226	8228	1
8218	8219	8226	1
8218	8215	8221	1
1889	1890	1891	1
1891	1890	1900	1
1891	1892	1893	1
1891	1892	1901	1
1891	1897	1898	1
1891	1897	1899	1
1890	1889	1894	1
1890	1889	1887	1
1890	1891	1892	1
1890	1891	1897	1
1889	1890	1900	1
1889	1894	1893	1
1889	1894	1902	1
1889	1887	1888	1
1894	1889	1887	1
1894	1893	1892	1
1894	1893	1895	1
1893	1894	1902	1
1893	1892	1901	1
1893	1895	1896	1
1892	1893	1895	1
1892	1891	1897	1
1898	1897	1899	1
1903	1906	1907	1
1903	1906	1912	1
1903	1904	1905	1
1903	1904	1911	1
1903	1909	1910	1
1906	1907	1908	1
1906	1907	1914	1
1904	1903	1906	1
1906	1903	1909	1
1907	1906	1912	1
1905	1908	1907	1
1907	1908	1913	1
1907	1914	1916	1
1908	1907	1914	1
1904	1905	1908	1
1908	1905	1915	1
1905	1908	1913	1
1905	1904	1911	1
1905	1915	1917	1
1905	1915	1918	1
1904	1905	1915	1
1904	1903	1909	1
1915	1918	1919	1
1917	1915	1918	1
136	135	134	1
134	135	145	1
134	133	132	1
134	133	144	1
134	140	141	1
134	140	142	1
135	136	137	1
135	136	138	1
135	134	133	1
135	134	140	1
136	135	145	1
136	137	132	1
136	137	146	1
136	138	139	1
137	136	138	1
137	132	133	1
137	132	130	1
132	137	146	1
132	133	144	1
132	130	131	1
132	130	129	1
133	132	130	1
133	134	140	1
130	129	143	1
131	130	129	1
141	140	142	1
168	167	166	1
166	167	177	1
166	165	164	1
166	165	176	1
166	172	173	1
166	172	174	1
167	168	169	1
167	168	170	1
167	166	165	1
167	166	172	1
168	167	177	1
168	169	164	1
168	169	178	1
168	170	171	1
169	168	170	1
169	164	165	1
169	164	162	1
164	169	178	1
164	165	176	1
164	162	163	1
164	162	161	1
165	164	162	1
165	166	172	1
162	161	175	1
163	162	161	1
173	172	174	1
1951	1952	1953	1
1951	1952	1962	1
1951	1956	1955	1
1951	1956	1964	1
1951	1949	1950	1
1952	1953	1954	1
1952	1953	1959	1
1952	1951	1956	1
1952	1951	1949	1
1953	1952	1962	1
1953	1954	1955	1
1953	1954	1963	1
1953	1959	1960	1
1953	1959	1961	1
1954	1953	1959	1
1956	1955	1954	1
1954	1955	1957	1
1955	1954	1963	1
1955	1956	1964	1
1955	1957	1958	1
1956	1955	1957	1
1956	1951	1949	1
1960	1959	1961	1
1981	1982	1983	1
1983	1982	1992	1
1983	1984	1985	1
1983	1984	1993	1
1983	1989	1990	1
1983	1989	1991	1
1982	1981	1986	1
1982	1981	1979	1
1982	1983	1984	1
1982	1983	1989	1
1981	1982	1992	1
1981	1986	1985	1
1981	1986	1994	1
1981	1979	1980	1
1986	1981	1979	1
1986	1985	1984	1
1986	1985	1987	1
1985	1986	1994	1
1985	1984	1993	1
1985	1987	1988	1
1984	1985	1987	1
1984	1983	1989	1
1990	1989	1991	1
8230	8231	8232	1
8230	8231	8238	1
8230	8233	8234	1
8230	8233	8239	1
8230	8236	8237	1
8231	8232	8235	1
8231	8232	8242	1
8231	8230	8233	1
8231	8230	8236	1
8232	8231	8238	1
8232	8235	8234	1
8232	8235	8240	1
8232	8242	8244	1
8235	8232	8242	1
8233	8234	8235	1
8235	8234	8241	1
8234	8235	8240	1
8234	8233	8239	1
8234	8241	8243	1
8233	8234	8241	1
8233	8230	8236	1
8259	8260	8261	1
8259	8260	8267	1
8259	8262	8263	1
8259	8262	8268	1
8259	8265	8266	1
8260	8261	8264	1
8260	8261	8271	1
8260	8259	8262	1
8260	8259	8265	1
8261	8260	8267	1
8261	8264	8263	1
8261	8264	8269	1
8261	8271	8273	1
8264	8261	8271	1
8262	8263	8264	1
8264	8263	8270	1
8263	8264	8269	1
8263	8262	8268	1
8263	8270	8272	1
8262	8263	8270	1
8262	8259	8265	1
8274	8275	8276	1
8274	8275	8282	1
8274	8277	8278	1
8274	8277	8283	1
8274	8280	8281	1
8275	8276	8279	1
8275	8276	8286	1
8277	8274	8275	1
8275	8274	8280	1
8276	8275	8282	1
8278	8279	8276	1
8276	8279	8284	1
8276	8286	8288	1
8279	8276	8286	1
8277	8278	8279	1
8279	8278	8285	1
8278	8279	8284	1
8278	8277	8283	1
8278	8285	8287	1
8277	8278	8285	1
8277	8274	8280	1
8303	8304	8305	1
8303	8304	8311	1
8303	8306	8307	1
8303	8306	8312	1
8303	8309	8310	1
8304	8305	8308	1
8304	8305	8315	1
8306	8303	8304	1
8304	8303	8309	1
8305	8304	8311	1
8307	8308	8305	1
8305	8308	8313	1
8305	8315	8317	1
8308	8305	8315	1
8306	8307	8308	1
8308	8307	8314	1
8307	8308	8313	1
8307	8306	8312	1
8307	8314	8316	1
8306	8307	8314	1
8306	8303	8309	1
8318	8321	8322	1
8318	8321	8327	1
8318	8319	8320	1
8318	8319	8326	1
8318	8324	8325	1
8321	8322	8323	1
8321	8322	8329	1
8319	8318	8321	1
8321	8318	8324	1
8322	8321	8327	1
8320	8323	8322	1
8322	8323	8328	1
8322	8329	8331	1
8323	8322	8329	1
8319	8320	8323	1
8323	8320	8330	1
8320	8323	8328	1
8320	8319	8326	1
8320	8330	8332	1
8319	8320	8330	1
8319	8318	8324	1
8333	8336	8337	1
8333	8336	8342	1
8333	8334	8335	1
8333	8334	8341	1
8333	8339	8340	1
8336	8337	8338	1
8336	8337	8344	1
8334	8333	8336	1
8336	8333	8339	1
8337	8336	8342	1
8335	8338	8337	1
8337	8338	8343	1
8337	8344	8346	1
8338	8337	8344	1
8334	8335	8338	1
8338	8335	8345	1
8335	8338	8343	1
8335	8334	8341	1
8335	8345	8347	1
8334	8335	8345	1
8334	8333	8339	1
8362	8363	8364	1
8362	8363	8370	1
8362	8365	8366	1
8362	8365	8371	1
8362	8368	8369	1
8363	8364	8367	1
8363	8364	8374	1
8363	8362	8365	1
8363	8362	8368	1
8364	8363	8370	1
8364	8367	8366	1
8364	8367	8372	1
8364	8374	8376	1
8367	8364	8374	1
8365	8366	8367	1
8367	8366	8373	1
8366	8367	8372	1
8366	8365	8371	1
8366	8373	8375	1
8365	8366	8373	1
8365	8362	8368	1
8377	8378	8379	1
8377	8378	8385	1
8377	8380	8381	1
8377	8380	8386	1
8377	8383	8384	1
8378	8379	8382	1
8378	8379	8389	1
8378	8377	8380	1
8378	8377	8383	1
8379	8378	8385	1
8379	8382	8381	1
8379	8382	8387	1
8379	8389	8391	1
8382	8379	8389	1
8380	8381	8382	1
8382	8381	8388	1
8381	8382	8387	1
8381	8380	8386	1
8381	8388	8390	1
8380	8381	8388	1
8380	8377	8383	1
2015	2014	2013	1
2013	2014	2023	1
2013	2012	2011	1
2013	2012	2022	1
2013	2019	2020	1
2013	2019	2021	1
2014	2015	2016	1
2014	2015	2017	1
2014	2013	2012	1
2014	2013	2019	1
2015	2014	2023	1
2015	2016	2011	1
2015	2016	2024	1
2015	2017	2018	1
2016	2015	2017	1
2016	2011	2012	1
2016	2011	2009	1
2011	2016	2024	1
2011	2012	2022	1
2011	2009	2010	1
2012	2011	2009	1
2012	2013	2019	1
2020	2019	2021	1
8406	8407	8408	1
8406	8407	8414	1
8406	8409	8410	1
8406	8409	8415	1
8406	8412	8413	1
8407	8408	8411	1
8407	8408	8418	1
8407	8406	8409	1
8407	8406	8412	1
8408	8407	8414	1
8408	8411	8410	1
8408	8411	8416	1
8408	8418	8420	1
8411	8408	8418	1
8409	8410	8411	1
8411	8410	8417	1
8410	8411	8416	1
8410	8409	8415	1
8410	8417	8419	1
8409	8410	8417	1
8409	8406	8412	1
2041	2042	2043	1
2043	2042	2052	1
2043	2044	2045	1
2043	2044	2053	1
2043	2049	2050	1
2043	2049	2051	1
2042	2041	2046	1
2042	2041	2039	1
2042	2043	2044	1
2042	2043	2049	1
2041	2042	2052	1
2041	2046	2045	1
2041	2046	2054	1
2041	2039	2040	1
2046	2041	2039	1
2046	2045	2044	1
2046	2045	2047	1
2045	2046	2054	1
2045	2044	2053	1
2045	2047	2048	1
2044	2045	2047	1
2044	2043	2049	1
2050	2049	2051	1
2071	2072	2073	1
2073	2072	2082	1
2073	2074	2075	1
2073	2074	2083	1
2073	2079	2080	1
2073	2079	2081	1
2072	2071	2076	1
2072	2071	2069	1
2072	2073	2074	1
2072	2073	2079	1
2071	2072	2082	1
2071	2076	2075	1
2071	2076	2084	1
2071	2069	2070	1
2076	2071	2069	1
2076	2075	2074	1
2076	2075	2077	1
2075	2076	2084	1
2075	2074	2083	1
2075	2077	2078	1
2074	2075	2077	1
2074	2073	2079	1
2080	2079	2081	1
198	197	196	1
196	197	208	1
200	201	196	1
196	201	210	1
196	194	195	1
196	194	193	1
199	198	197	1
197	198	204	1
201	196	197	1
197	196	194	1
198	197	208	1
200	199	198	1
198	199	209	1
198	204	205	1
198	204	206	1
199	198	204	1
199	200	201	1
199	200	202	1
200	199	209	1
200	201	210	1
200	202	203	1
201	200	202	1
201	196	194	1
194	193	207	1
195	194	193	1
205	204	206	1
8435	8438	8439	1
8435	8438	8444	1
8435	8436	8437	1
8435	8436	8443	1
8435	8441	8442	1
8438	8439	8440	1
8438	8439	8446	1
8436	8435	8438	1
8438	8435	8441	1
8439	8438	8444	1
8437	8440	8439	1
8439	8440	8445	1
8439	8446	8448	1
8440	8439	8446	1
8436	8437	8440	1
8440	8437	8447	1
8437	8440	8445	1
8437	8436	8443	1
8437	8447	8449	1
8436	8437	8447	1
8436	8435	8441	1
8450	8451	8452	1
8450	8451	8458	1
8450	8453	8454	1
8450	8453	8459	1
8450	8456	8457	1
8451	8452	8455	1
8451	8452	8462	1
8453	8450	8451	1
8451	8450	8456	1
8452	8451	8458	1
8454	8455	8452	1
8452	8455	8460	1
8452	8462	8464	1
8455	8452	8462	1
8453	8454	8455	1
8455	8454	8461	1
8454	8455	8460	1
8454	8453	8459	1
8454	8461	8463	1
8453	8454	8461	1
8453	8450	8456	1
8479	8480	8481	1
8479	8480	8487	1
8479	8482	8483	1
8479	8482	8488	1
8479	8485	8486	1
8480	8481	8484	1
8480	8481	8491	1
8482	8479	8480	1
8480	8479	8485	1
8481	8480	8487	1
8483	8484	8481	1
8481	8484	8489	1
8481	8491	8493	1
8484	8481	8491	1
8482	8483	8484	1
8484	8483	8490	1
8483	8484	8489	1
8483	8482	8488	1
8483	8490	8492	1
8482	8483	8490	1
8482	8479	8485	1
8508	8509	8510	1
8508	8509	8516	1
8508	8511	8512	1
8508	8511	8517	1
8508	8514	8515	1
8509	8510	8513	1
8509	8510	8520	1
8509	8508	8511	1
8509	8508	8514	1
8510	8509	8516	1
8510	8513	8512	1
8510	8513	8518	1
8510	8520	8522	1
8513	8510	8520	1
8511	8512	8513	1
8513	8512	8519	1
8512	8513	8518	1
8512	8511	8517	1
8512	8519	8521	1
8511	8512	8519	1
8511	8508	8514	1
2101	2102	2103	1
2101	2102	2112	1
2101	2106	2105	1
2101	2106	2114	1
2101	2099	2100	1
2102	2103	2104	1
2102	2103	2109	1
2102	2101	2106	1
2102	2101	2099	1
2103	2102	2112	1
2103	2104	2105	1
2103	2104	2113	1
2103	2109	2110	1
2103	2109	2111	1
2104	2103	2109	1
2106	2105	2104	1
2104	2105	2107	1
2105	2104	2113	1
2105	2106	2114	1
2105	2107	2108	1
2106	2105	2107	1
2106	2101	2099	1
2110	2109	2111	1
8523	8524	8525	1
8525	8524	8531	1
8525	8528	8527	1
8525	8528	8533	1
8525	8535	8537	1
8524	8523	8526	1
8524	8523	8529	1
8524	8525	8528	1
8524	8525	8535	1
8523	8524	8531	1
8523	8526	8527	1
8523	8526	8532	1
8523	8529	8530	1
8526	8523	8529	1
8526	8527	8528	1
8526	8527	8534	1
8527	8526	8532	1
8527	8528	8533	1
8527	8534	8536	1
8528	8527	8534	1
8528	8525	8535	1
8552	8553	8554	1
8552	8553	8560	1
8552	8555	8556	1
8552	8555	8561	1
8552	8558	8559	1
8553	8554	8557	1
8553	8554	8564	1
8553	8552	8555	1
8553	8552	8558	1
8554	8553	8560	1
8554	8557	8556	1
8554	8557	8562	1
8554	8564	8566	1
8557	8554	8564	1
8555	8556	8557	1
8557	8556	8563	1
8556	8557	8562	1
8556	8555	8561	1
8556	8563	8565	1
8555	8556	8563	1
8555	8552	8558	1
8581	8584	8585	1
8581	8584	8590	1
8581	8582	8583	1
8581	8582	8589	1
8581	8587	8588	1
8584	8585	8586	1
8584	8585	8592	1
8582	8581	8584	1
8584	8581	8587	1
8585	8584	8590	1
8583	8586	8585	1
8585	8586	8591	1
8585	8592	8594	1
8586	8585	8592	1
8582	8583	8586	1
8586	8583	8593	1
8583	8586	8591	1
8583	8582	8589	1
8583	8593	8595	1
8582	8583	8593	1
8582	8581	8587	1
8596	8597	8598	1
8596	8597	8604	1
8596	8599	8600	1
8596	8599	8605	1
8596	8602	8603	1
8597	8598	8601	1
8597	8598	8608	1
8597	8596	8599	1
8597	8596	8602	1
8598	8597	8604	1
8598	8601	8600	1
8598	8601	8606	1
8598	8608	8610	1
8601	8598	8608	1
8599	8600	8601	1
8601	8600	8607	1
8600	8601	8606	1
8600	8599	8605	1
8600	8607	8609	1
8599	8600	8607	1
8599	8596	8602	1
8625	8626	8627	1
8625	8626	8633	1
8625	8628	8629	1
8625	8628	8634	1
8625	8631	8632	1
8626	8627	8630	1
8626	8627	8637	1
8626	8625	8628	1
8626	8625	8631	1
8627	8626	8633	1
8627	8630	8629	1
8627	8630	8635	1
8627	8637	8639	1
8630	8627	8637	1
8628	8629	8630	1
8630	8629	8636	1
8629	8630	8635	1
8629	8628	8634	1
8629	8636	8638	1
8628	8629	8636	1
8628	8625	8631	1
8654	8657	8658	1
8654	8657	8663	1
8654	8655	8656	1
8654	8655	8662	1
8654	8660	8661	1
8657	8658	8659	1
8657	8658	8665	1
8657	8654	8655	1
8657	8654	8660	1
8658	8657	8663	1
8658	8659	8656	1
8658	8659	8664	1
8658	8665	8667	1
8659	8658	8665	1
8655	8656	8659	1
8659	8656	8666	1
8656	8659	8664	1
8656	8655	8662	1
8656	8666	8668	1
8655	8656	8666	1
8655	8654	8660	1
8683	8686	8687	1
8683	8686	8692	1
8683	8684	8685	1
8683	8684	8691	1
8683	8689	8690	1
8686	8687	8688	1
8686	8687	8694	1
8686	8683	8684	1
8686	8683	8689	1
8687	8686	8692	1
8687	8688	8685	1
8687	8688	8693	1
8687	8694	8696	1
8688	8687	8694	1
8684	8685	8688	1
8688	8685	8695	1
8685	8688	8693	1
8685	8684	8691	1
8685	8695	8697	1
8684	8685	8695	1
8684	8683	8689	1
8698	8701	8702	1
8698	8701	8707	1
8698	8699	8700	1
8698	8699	8706	1
8698	8704	8705	1
8701	8702	8703	1
8701	8702	8709	1
8699	8698	8701	1
8701	8698	8704	1
8702	8701	8707	1
8700	8703	8702	1
8702	8703	8708	1
8702	8709	8711	1
8703	8702	8709	1
8699	8700	8703	1
8703	8700	8710	1
8700	8703	8708	1
8700	8699	8706	1
8700	8710	8712	1
8699	8700	8710	1
8699	8698	8704	1
8713	8716	8717	1
8713	8716	8722	1
8713	8714	8715	1
8713	8714	8721	1
8713	8719	8720	1
8716	8717	8718	1
8716	8717	8724	1
8714	8713	8716	1
8716	8713	8719	1
8717	8716	8722	1
8715	8718	8717	1
8717	8718	8723	1
8717	8724	8726	1
8718	8717	8724	1
8714	8715	8718	1
8718	8715	8725	1
8715	8718	8723	1
8715	8714	8721	1
8715	8725	8727	1
8714	8715	8725	1
8714	8713	8719	1
8728	8731	8732	1
8728	8731	8737	1
8728	8729	8730	1
8728	8729	8736	1
8728	8734	8735	1
8731	8732	8733	1
8731	8732	8739	1
8729	8728	8731	1
8731	8728	8734	1
8732	8731	8737	1
8730	8733	8732	1
8732	8733	8738	1
8732	8739	8741	1
8733	8732	8739	1
8729	8730	8733	1
8733	8730	8740	1
8730	8733	8738	1
8730	8729	8736	1
8730	8740	8742	1
8729	8730	8740	1
8729	8728	8734	1
8757	8758	8759	1
8757	8758	8765	1
8757	8760	8761	1
8757	8760	8766	1
8757	8763	8764	1
8758	8759	8762	1
8758	8759	8769	1
8758	8757	8760	1
8758	8757	8763	1
8759	8758	8765	1
8759	8762	8761	1
8759	8762	8767	1
8759	8769	8771	1
8762	8759	8769	1
8760	8761	8762	1
8762	8761	8768	1
8761	8762	8767	1
8761	8760	8766	1
8761	8768	8770	1
8760	8761	8768	1
8760	8757	8763	1
8786	8787	8788	1
8786	8787	8794	1
8786	8789	8790	1
8786	8789	8795	1
8786	8792	8793	1
8787	8788	8791	1
8787	8788	8798	1
8787	8786	8789	1
8787	8786	8792	1
8788	8787	8794	1
8788	8791	8790	1
8788	8791	8796	1
8788	8798	8800	1
8791	8788	8798	1
8789	8790	8791	1
8791	8790	8797	1
8790	8791	8796	1
8790	8789	8795	1
8790	8797	8799	1
8789	8790	8797	1
8789	8786	8792	1
8817	8816	8815	1
8817	8816	8823	1
8817	8820	8819	1
8817	8820	8825	1
8817	8827	8829	1
8816	8815	8818	1
8816	8815	8821	1
8816	8817	8820	1
8816	8817	8827	1
8815	8816	8823	1
8815	8818	8819	1
8815	8818	8824	1
8815	8821	8822	1
8818	8815	8821	1
8820	8819	8818	1
8818	8819	8826	1
8819	8818	8824	1
8819	8820	8825	1
8819	8826	8828	1
8820	8819	8826	1
8820	8817	8827	1
8844	8847	8848	1
8844	8847	8853	1
8844	8845	8846	1
8844	8845	8852	1
8844	8850	8851	1
8847	8848	8849	1
8847	8848	8855	1
8847	8844	8845	1
8847	8844	8850	1
8848	8847	8853	1
8848	8849	8846	1
8848	8849	8854	1
8848	8855	8857	1
8849	8848	8855	1
8845	8846	8849	1
8849	8846	8856	1
8846	8849	8854	1
8846	8845	8852	1
8846	8856	8858	1
8845	8846	8856	1
8845	8844	8850	1
8859	8860	8861	1
8859	8860	8867	1
8859	8862	8863	1
8859	8862	8868	1
8859	8865	8866	1
8860	8861	8864	1
8860	8861	8871	1
8862	8859	8860	1
8860	8859	8865	1
8861	8860	8867	1
8863	8864	8861	1
8861	8864	8869	1
8861	8871	8873	1
8864	8861	8871	1
8862	8863	8864	1
8864	8863	8870	1
8863	8864	8869	1
8863	8862	8868	1
8863	8870	8872	1
8862	8863	8870	1
8862	8859	8865	1
8888	8891	8892	1
8888	8891	8897	1
8888	8889	8890	1
8888	8889	8896	1
8888	8894	8895	1
8891	8892	8893	1
8891	8892	8899	1
8889	8888	8891	1
8891	8888	8894	1
8892	8891	8897	1
8890	8893	8892	1
8892	8893	8898	1
8892	8899	8901	1
8893	8892	8899	1
8889	8890	8893	1
8893	8890	8900	1
8890	8893	8898	1
8890	8889	8896	1
8890	8900	8902	1
8889	8890	8900	1
8889	8888	8894	1
8917	8920	8921	1
8917	8920	8926	1
8917	8918	8919	1
8917	8918	8925	1
8917	8923	8924	1
8920	8921	8922	1
8920	8921	8928	1
8918	8917	8920	1
8920	8917	8923	1
8921	8920	8926	1
8919	8922	8921	1
8921	8922	8927	1
8921	8928	8930	1
8922	8921	8928	1
8918	8919	8922	1
8922	8919	8929	1
8919	8922	8927	1
8919	8918	8925	1
8919	8929	8931	1
8918	8919	8929	1
8918	8917	8923	1
8932	8935	8936	1
8932	8935	8941	1
8932	8933	8934	1
8932	8933	8940	1
8932	8938	8939	1
8935	8936	8937	1
8935	8936	8943	1
8933	8932	8935	1
8935	8932	8938	1
8936	8935	8941	1
8934	8937	8936	1
8936	8937	8942	1
8936	8943	8945	1
8937	8936	8943	1
8933	8934	8937	1
8937	8934	8944	1
8934	8937	8942	1
8934	8933	8940	1
8934	8944	8946	1
8933	8934	8944	1
8933	8932	8938	1
8961	8962	8963	1
8961	8962	8969	1
8961	8964	8965	1
8961	8964	8970	1
8961	8967	8968	1
8962	8963	8966	1
8962	8963	8973	1
8962	8961	8964	1
8962	8961	8967	1
8963	8962	8969	1
8963	8966	8965	1
8963	8966	8971	1
8963	8973	8975	1
8966	8963	8973	1
8964	8965	8966	1
8966	8965	8972	1
8965	8966	8971	1
8965	8964	8970	1
8965	8972	8974	1
8964	8965	8972	1
8964	8961	8967	1
8976	8977	8978	1
8976	8977	8984	1
8976	8979	8980	1
8976	8979	8985	1
8976	8982	8983	1
8977	8978	8981	1
8977	8978	8988	1
8977	8976	8979	1
8977	8976	8982	1
8978	8977	8984	1
8978	8981	8980	1
8978	8981	8986	1
8978	8988	8990	1
8981	8978	8988	1
8979	8980	8981	1
8981	8980	8987	1
8980	8981	8986	1
8980	8979	8985	1
8980	8987	8989	1
8979	8980	8987	1
8979	8976	8982	1
9005	9006	9007	1
9005	9006	9013	1
9005	9008	9009	1
9005	9008	9014	1
9005	9011	9012	1
9006	9007	9010	1
9006	9007	9017	1
9006	9005	9008	1
9006	9005	9011	1
9007	9006	9013	1
9007	9010	9009	1
9007	9010	9015	1
9007	9017	9019	1
9010	9007	9017	1
9008	9009	9010	1
9010	9009	9016	1
9009	9010	9015	1
9009	9008	9014	1
9009	9016	9018	1
9008	9009	9016	1
9008	9005	9011	1
9020	9023	9024	1
9020	9023	9029	1
9020	9021	9022	1
9020	9021	9028	1
9020	9026	9027	1
9023	9024	9025	1
9023	9024	9031	1
9023	9020	9021	1
9023	9020	9026	1
9024	9023	9029	1
9024	9025	9022	1
9024	9025	9030	1
9024	9031	9033	1
9025	9024	9031	1
9021	9022	9025	1
9025	9022	9032	1
9022	9025	9030	1
9022	9021	9028	1
9022	9032	9034	1
9021	9022	9032	1
9021	9020	9026	1
9035	9036	9037	1
9035	9036	9043	1
9035	9038	9039	1
9035	9038	9044	1
9035	9041	9042	1
9036	9037	9040	1
9036	9037	9047	1
9038	9035	9036	1
9036	9035	9041	1
9037	9036	9043	1
9039	9040	9037	1
9037	9040	9045	1
9037	9047	9049	1
9040	9037	9047	1
9038	9039	9040	1
9040	9039	9046	1
9039	9040	9045	1
9039	9038	9044	1
9039	9046	9048	1
9038	9039	9046	1
9038	9035	9041	1
2115	2116	2117	1
2115	2116	2123	1
2115	2118	2119	1
2115	2118	2124	1
2115	2121	2122	1
2116	2117	2120	1
2116	2117	2127	1
2116	2115	2118	1
2116	2115	2121	1
2117	2116	2123	1
2117	2120	2119	1
2117	2120	2125	1
2117	2127	2129	1
2117	2127	2130	1
2120	2117	2127	1
2118	2119	2120	1
2120	2119	2126	1
2119	2120	2125	1
2119	2118	2124	1
2119	2126	2128	1
2118	2119	2126	1
2118	2115	2121	1
2127	2130	2131	1
2129	2127	2130	1
2148	2153	2152	1
2148	2153	2161	1
2148	2149	2150	1
2148	2149	2159	1
2148	2146	2147	1
2153	2152	2151	1
2153	2152	2154	1
2149	2148	2153	1
2153	2148	2146	1
2152	2153	2161	1
2150	2151	2152	1
2152	2151	2160	1
2152	2154	2155	1
2151	2152	2154	1
2149	2150	2151	1
2151	2150	2156	1
2150	2151	2160	1
2150	2149	2159	1
2150	2156	2157	1
2150	2156	2158	1
2149	2150	2156	1
2149	2148	2146	1
2157	2156	2158	1
9064	9065	9066	1
9064	9065	9072	1
9064	9067	9068	1
9064	9067	9073	1
9064	9070	9071	1
9065	9066	9069	1
9065	9066	9076	1
9065	9064	9067	1
9065	9064	9070	1
9066	9065	9072	1
9066	9069	9068	1
9066	9069	9074	1
9066	9076	9078	1
9069	9066	9076	1
9067	9068	9069	1
9069	9068	9075	1
9068	9069	9074	1
9068	9067	9073	1
9068	9075	9077	1
9067	9068	9075	1
9067	9064	9070	1
9093	9096	9097	1
9097	9096	9102	1
9095	9098	9097	1
9097	9098	9103	1
9097	9104	9106	1
9094	9093	9096	1
9096	9093	9099	1
9096	9097	9098	1
9096	9097	9104	1
9093	9096	9102	1
9093	9094	9095	1
9093	9094	9101	1
9093	9099	9100	1
9094	9093	9099	1
9094	9095	9098	1
9094	9095	9105	1
9095	9094	9101	1
9095	9098	9103	1
9095	9105	9107	1
9098	9095	9105	1
9098	9097	9104	1
9122	9125	9126	1
9122	9125	9131	1
9122	9123	9124	1
9122	9123	9130	1
9122	9128	9129	1
9125	9126	9127	1
9125	9126	9133	1
9123	9122	9125	1
9125	9122	9128	1
9126	9125	9131	1
9124	9127	9126	1
9126	9127	9132	1
9126	9133	9135	1
9127	9126	9133	1
9123	9124	9127	1
9127	9124	9134	1
9124	9127	9132	1
9124	9123	9130	1
9124	9134	9136	1
9123	9124	9134	1
9123	9122	9128	1
2178	2179	2180	1
2178	2179	2189	1
2178	2183	2182	1
2178	2183	2191	1
2178	2176	2177	1
2179	2180	2181	1
2179	2180	2186	1
2179	2178	2183	1
2179	2178	2176	1
2180	2179	2189	1
2180	2181	2182	1
2180	2181	2190	1
2180	2186	2187	1
2180	2186	2188	1
2181	2180	2186	1
2183	2182	2181	1
2181	2182	2184	1
2182	2181	2190	1
2182	2183	2191	1
2182	2184	2185	1
2183	2182	2184	1
2183	2178	2176	1
2187	2186	2188	1
9151	9154	9155	1
9151	9154	9160	1
9151	9152	9153	1
9151	9152	9159	1
9151	9157	9158	1
9154	9155	9156	1
9154	9155	9162	1
9152	9151	9154	1
9154	9151	9157	1
9155	9154	9160	1
9153	9156	9155	1
9155	9156	9161	1
9155	9162	9164	1
9156	9155	9162	1
9152	9153	9156	1
9156	9153	9163	1
9153	9156	9161	1
9153	9152	9159	1
9153	9163	9165	1
9152	9153	9163	1
9152	9151	9157	1
9180	9183	9184	1
9180	9183	9189	1
9180	9181	9182	1
9180	9181	9188	1
9180	9186	9187	1
9183	9184	9185	1
9183	9184	9191	1
9181	9180	9183	1
9183	9180	9186	1
9184	9183	9189	1
9182	9185	9184	1
9184	9185	9190	1
9184	9191	9193	1
9185	9184	9191	1
9181	9182	9185	1
9185	9182	9192	1
9182	9185	9190	1
9182	9181	9188	1
9182	9192	9194	1
9181	9182	9192	1
9181	9180	9186	1
9209	9212	9213	1
9209	9212	9218	1
9209	9210	9211	1
9209	9210	9217	1
9209	9215	9216	1
9212	9213	9214	1
9212	9213	9220	1
9210	9209	9212	1
9212	9209	9215	1
9213	9212	9218	1
9211	9214	9213	1
9213	9214	9219	1
9213	9220	9222	1
9214	9213	9220	1
9210	9211	9214	1
9214	9211	9221	1
9211	9214	9219	1
9211	9210	9217	1
9211	9221	9223	1
9210	9211	9221	1
9210	9209	9215	1
9242	9241	9238	1
9242	9241	9247	1
9242	9243	9240	1
9242	9243	9248	1
9242	9249	9251	1
9241	9238	9239	1
9241	9238	9244	1
9241	9242	9243	1
9241	9242	9249	1
9238	9241	9247	1
9238	9239	9240	1
9238	9239	9246	1
9238	9244	9245	1
9239	9238	9244	1
9243	9240	9239	1
9239	9240	9250	1
9240	9239	9246	1
9240	9243	9248	1
9240	9250	9252	1
9243	9240	9250	1
9243	9242	9249	1
9267	9270	9271	1
9267	9270	9276	1
9267	9268	9269	1
9267	9268	9275	1
9267	9273	9274	1
9270	9271	9272	1
9270	9271	9278	1
9270	9267	9268	1
9270	9267	9273	1
9271	9270	9276	1
9271	9272	9269	1
9271	9272	9277	1
9271	9278	9280	1
9272	9271	9278	1
9268	9269	9272	1
9272	9269	9279	1
9269	9272	9277	1
9269	9268	9275	1
9269	9279	9281	1
9268	9269	9279	1
9268	9267	9273	1
9296	9297	9298	1
9296	9297	9304	1
9296	9299	9300	1
9296	9299	9305	1
9296	9302	9303	1
9297	9298	9301	1
9297	9298	9308	1
9297	9296	9299	1
9297	9296	9302	1
9298	9297	9304	1
9298	9301	9300	1
9298	9301	9306	1
9298	9308	9310	1
9301	9298	9308	1
9299	9300	9301	1
9301	9300	9307	1
9300	9301	9306	1
9300	9299	9305	1
9300	9307	9309	1
9299	9300	9307	1
9299	9296	9302	1
9325	9326	9327	1
9325	9326	9333	1
9325	9328	9329	1
9325	9328	9334	1
9325	9331	9332	1
9326	9327	9330	1
9326	9327	9337	1
9326	9325	9328	1
9326	9325	9331	1
9327	9326	9333	1
9327	9330	9329	1
9327	9330	9335	1
9327	9337	9339	1
9330	9327	9337	1
9328	9329	9330	1
9330	9329	9336	1
9329	9330	9335	1
9329	9328	9334	1
9329	9336	9338	1
9328	9329	9336	1
9328	9325	9331	1
9354	9357	9358	1
9354	9357	9363	1
9354	9355	9356	1
9354	9355	9362	1
9354	9360	9361	1
9357	9358	9359	1
9357	9358	9365	1
9355	9354	9357	1
9357	9354	9360	1
9358	9357	9363	1
9356	9359	9358	1
9358	9359	9364	1
9358	9365	9367	1
9359	9358	9365	1
9355	9356	9359	1
9359	9356	9366	1
9356	9359	9364	1
9356	9355	9362	1
9356	9366	9368	1
9355	9356	9366	1
9355	9354	9360	1
9383	9386	9387	1
9383	9386	9392	1
9383	9384	9385	1
9383	9384	9391	1
9383	9389	9390	1
9386	9387	9388	1
9386	9387	9394	1
9384	9383	9386	1
9386	9383	9389	1
9387	9386	9392	1
9385	9388	9387	1
9387	9388	9393	1
9387	9394	9396	1
9388	9387	9394	1
9384	9385	9388	1
9388	9385	9395	1
9385	9388	9393	1
9385	9384	9391	1
9385	9395	9397	1
9384	9385	9395	1
9384	9383	9389	1
2208	2209	2210	1
2208	2209	2219	1
2208	2213	2212	1
2208	2213	2221	1
2208	2206	2207	1
2209	2210	2211	1
2209	2210	2216	1
2209	2208	2213	1
2209	2208	2206	1
2210	2209	2219	1
2210	2211	2212	1
2210	2211	2220	1
2210	2216	2217	1
2210	2216	2218	1
2211	2210	2216	1
2213	2212	2211	1
2211	2212	2214	1
2212	2211	2220	1
2212	2213	2221	1
2212	2214	2215	1
2213	2212	2214	1
2213	2208	2206	1
2217	2216	2218	1
9398	9401	9402	1
9398	9401	9407	1
9398	9399	9400	1
9398	9399	9406	1
9398	9404	9405	1
9401	9402	9403	1
9401	9402	9409	1
9399	9398	9401	1
9401	9398	9404	1
9402	9401	9407	1
9400	9403	9402	1
9402	9403	9408	1
9402	9409	9411	1
9403	9402	9409	1
9399	9400	9403	1
9403	9400	9410	1
9400	9403	9408	1
9400	9399	9406	1
9400	9410	9412	1
9399	9400	9410	1
9399	9398	9404	1
9427	9430	9431	1
9427	9430	9436	1
9427	9428	9429	1
9427	9428	9435	1
9427	9433	9434	1
9430	9431	9432	1
9430	9431	9438	1
9428	9427	9430	1
9430	9427	9433	1
9431	9430	9436	1
9429	9432	9431	1
9431	9432	9437	1
9431	9438	9440	1
9432	9431	9438	1
9428	9429	9432	1
9432	9429	9439	1
9429	9432	9437	1
9429	9428	9435	1
9429	9439	9441	1
9428	9429	9439	1
9428	9427	9433	1
9456	9457	9458	1
9456	9457	9464	1
9456	9459	9460	1
9456	9459	9465	1
9456	9462	9463	1
9457	9458	9461	1
9457	9458	9468	1
9459	9456	9457	1
9457	9456	9462	1
9458	9457	9464	1
9460	9461	9458	1
9458	9461	9466	1
9458	9468	9470	1
9461	9458	9468	1
9459	9460	9461	1
9461	9460	9467	1
9460	9461	9466	1
9460	9459	9465	1
9460	9467	9469	1
9459	9460	9467	1
9459	9456	9462	1
9485	9488	9489	1
9485	9488	9494	1
9485	9486	9487	1
9485	9486	9493	1
9485	9491	9492	1
9488	9489	9490	1
9488	9489	9496	1
9488	9485	9486	1
9488	9485	9491	1
9489	9488	9494	1
9489	9490	9487	1
9489	9490	9495	1
9489	9496	9498	1
9490	9489	9496	1
9486	9487	9490	1
9490	9487	9497	1
9487	9490	9495	1
9487	9486	9493	1
9487	9497	9499	1
9486	9487	9497	1
9486	9485	9491	1
9500	9501	9502	1
9500	9501	9508	1
9500	9503	9504	1
9500	9503	9509	1
9500	9506	9507	1
9501	9502	9505	1
9501	9502	9512	1
9501	9500	9503	1
9501	9500	9506	1
9502	9501	9508	1
9502	9505	9504	1
9502	9505	9510	1
9502	9512	9514	1
9505	9502	9512	1
9503	9504	9505	1
9505	9504	9511	1
9504	9505	9510	1
9504	9503	9509	1
9504	9511	9513	1
9503	9504	9511	1
9503	9500	9506	1
2226	2227	2224	1
2226	2227	2232	1
2226	2225	2222	1
2226	2225	2231	1
2226	2233	2235	1
2227	2224	2223	1
2227	2224	2234	1
2227	2226	2225	1
2227	2226	2233	1
2224	2227	2232	1
2224	2223	2222	1
2224	2223	2230	1
2224	2234	2236	1
2224	2234	2237	1
2223	2224	2234	1
2225	2222	2223	1
2223	2222	2228	1
2222	2223	2230	1
2222	2225	2231	1
2222	2228	2229	1
2225	2222	2228	1
2225	2226	2233	1
2234	2237	2238	1
2236	2234	2237	1
9515	9516	9517	1
9515	9516	9523	1
9515	9518	9519	1
9515	9518	9524	1
9515	9521	9522	1
9516	9517	9520	1
9516	9517	9527	1
9516	9515	9518	1
9516	9515	9521	1
9517	9516	9523	1
9517	9520	9519	1
9517	9520	9525	1
9517	9527	9529	1
9520	9517	9527	1
9518	9519	9520	1
9520	9519	9526	1
9519	9520	9525	1
9519	9518	9524	1
9519	9526	9528	1
9518	9519	9526	1
9518	9515	9521	1
9544	9545	9546	1
9544	9545	9552	1
9544	9547	9548	1
9544	9547	9553	1
9544	9550	9551	1
9545	9546	9549	1
9545	9546	9556	1
9545	9544	9547	1
9545	9544	9550	1
9546	9545	9552	1
9546	9549	9548	1
9546	9549	9554	1
9546	9556	9558	1
9549	9546	9556	1
9547	9548	9549	1
9549	9548	9555	1
9548	9549	9554	1
9548	9547	9553	1
9548	9555	9557	1
9547	9548	9555	1
9547	9544	9550	1
9573	9574	9575	1
9573	9574	9581	1
9573	9576	9577	1
9573	9576	9582	1
9573	9579	9580	1
9574	9575	9578	1
9574	9575	9585	1
9574	9573	9576	1
9574	9573	9579	1
9575	9574	9581	1
9575	9578	9577	1
9575	9578	9583	1
9575	9585	9587	1
9578	9575	9585	1
9576	9577	9578	1
9578	9577	9584	1
9577	9578	9583	1
9577	9576	9582	1
9577	9584	9586	1
9576	9577	9584	1
9576	9573	9579	1
9588	9591	9592	1
9588	9591	9597	1
9588	9589	9590	1
9588	9589	9596	1
9588	9594	9595	1
9591	9592	9593	1
9591	9592	9599	1
9589	9588	9591	1
9591	9588	9594	1
9592	9591	9597	1
9590	9593	9592	1
9592	9593	9598	1
9592	9599	9601	1
9593	9592	9599	1
9589	9590	9593	1
9593	9590	9600	1
9590	9593	9598	1
9590	9589	9596	1
9590	9600	9602	1
9589	9590	9600	1
9589	9588	9594	1
9603	9606	9607	1
9603	9606	9612	1
9603	9604	9605	1
9603	9604	9611	1
9603	9609	9610	1
9606	9607	9608	1
9606	9607	9614	1
9604	9603	9606	1
9606	9603	9609	1
9607	9606	9612	1
9605	9608	9607	1
9607	9608	9613	1
9607	9614	9616	1
9608	9607	9614	1
9604	9605	9608	1
9608	9605	9615	1
9605	9608	9613	1
9605	9604	9611	1
9605	9615	9617	1
9604	9605	9615	1
9604	9603	9609	1
9618	9619	9620	1
9618	9619	9626	1
9618	9621	9622	1
9618	9621	9627	1
9618	9624	9625	1
9619	9620	9623	1
9619	9620	9630	1
9621	9618	9619	1
9619	9618	9624	1
9620	9619	9626	1
9622	9623	9620	1
9620	9623	9628	1
9620	9630	9632	1
9623	9620	9630	1
9621	9622	9623	1
9623	9622	9629	1
9622	9623	9628	1
9622	9621	9627	1
9622	9629	9631	1
9621	9622	9629	1
9621	9618	9624	1
9649	9648	9647	1
9649	9648	9655	1
9649	9652	9651	1
9649	9652	9657	1
9649	9659	9661	1
9648	9647	9650	1
9648	9647	9653	1
9652	9649	9648	1
9648	9649	9659	1
9647	9648	9655	1
9651	9650	9647	1
9647	9650	9656	1
9647	9653	9654	1
9650	9647	9653	1
9652	9651	9650	1
9650	9651	9658	1
9651	9650	9656	1
9651	9652	9657	1
9651	9658	9660	1
9652	9651	9658	1
9652	9649	9659	1
9676	9677	9678	1
9676	9677	9684	1
9676	9679	9680	1
9676	9679	9685	1
9676	9682	9683	1
9677	9678	9681	1
9677	9678	9688	1
9677	9676	9679	1
9677	9676	9682	1
9678	9677	9684	1
9678	9681	9680	1
9678	9681	9686	1
9678	9688	9690	1
9681	9678	9688	1
9679	9680	9681	1
9681	9680	9687	1
9680	9681	9686	1
9680	9679	9685	1
9680	9687	9689	1
9679	9680	9687	1
9679	9676	9682	1
9705	9706	9707	1
9705	9706	9713	1
9705	9708	9709	1
9705	9708	9714	1
9705	9711	9712	1
9706	9707	9710	1
9706	9707	9717	1
9706	9705	9708	1
9706	9705	9711	1
9707	9706	9713	1
9707	9710	9709	1
9707	9710	9715	1
9707	9717	9719	1
9710	9707	9717	1
9708	9709	9710	1
9710	9709	9716	1
9709	9710	9715	1
9709	9708	9714	1
9709	9716	9718	1
9708	9709	9716	1
9708	9705	9711	1
9720	9721	9722	1
9720	9721	9728	1
9720	9723	9724	1
9720	9723	9729	1
9720	9726	9727	1
9721	9722	9725	1
9721	9722	9732	1
9721	9720	9723	1
9721	9720	9726	1
9722	9721	9728	1
9722	9725	9724	1
9722	9725	9730	1
9722	9732	9734	1
9725	9722	9732	1
9723	9724	9725	1
9725	9724	9731	1
9724	9725	9730	1
9724	9723	9729	1
9724	9731	9733	1
9723	9724	9731	1
9723	9720	9726	1
2269	2270	2271	1
2269	2270	2280	1
2269	2274	2273	1
2269	2274	2282	1
2269	2267	2268	1
2270	2271	2272	1
2270	2271	2277	1
2270	2269	2274	1
2270	2269	2267	1
2271	2270	2280	1
2271	2272	2273	1
2271	2272	2281	1
2271	2277	2278	1
2271	2277	2279	1
2272	2271	2277	1
2274	2273	2272	1
2272	2273	2275	1
2273	2272	2281	1
2273	2274	2282	1
2273	2275	2276	1
2274	2273	2275	1
2274	2269	2267	1
2278	2277	2279	1
2299	2300	2301	1
2301	2300	2310	1
2301	2302	2303	1
2301	2302	2311	1
2301	2307	2308	1
2301	2307	2309	1
2300	2299	2304	1
2300	2299	2297	1
2300	2301	2302	1
2300	2301	2307	1
2299	2300	2310	1
2299	2304	2303	1
2299	2304	2312	1
2299	2297	2298	1
2304	2299	2297	1
2304	2303	2302	1
2304	2303	2305	1
2303	2304	2312	1
2303	2302	2311	1
2303	2305	2306	1
2302	2303	2305	1
2302	2301	2307	1
2308	2307	2309	1
230	229	228	1
228	229	240	1
232	233	228	1
228	233	242	1
228	226	227	1
228	226	225	1
231	230	229	1
229	230	236	1
233	228	229	1
229	228	226	1
230	229	240	1
232	231	230	1
230	231	241	1
230	236	237	1
230	236	238	1
231	230	236	1
231	232	233	1
231	232	234	1
232	231	241	1
232	233	242	1
232	234	235	1
233	232	234	1
233	228	226	1
226	225	239	1
227	226	225	1
237	236	238	1
9749	9752	9753	1
9749	9752	9758	1
9749	9750	9751	1
9749	9750	9757	1
9749	9755	9756	1
9752	9753	9754	1
9752	9753	9760	1
9750	9749	9752	1
9752	9749	9755	1
9753	9752	9758	1
9751	9754	9753	1
9753	9754	9759	1
9753	9760	9762	1
9754	9753	9760	1
9750	9751	9754	1
9754	9751	9761	1
9751	9754	9759	1
9751	9750	9757	1
9751	9761	9763	1
9750	9751	9761	1
9750	9749	9755	1
9778	9779	9780	1
9778	9779	9786	1
9778	9781	9782	1
9778	9781	9787	1
9778	9784	9785	1
9779	9780	9783	1
9779	9780	9790	1
9779	9778	9781	1
9779	9778	9784	1
9780	9779	9786	1
9780	9783	9782	1
9780	9783	9788	1
9780	9790	9792	1
9783	9780	9790	1
9781	9782	9783	1
9783	9782	9789	1
9782	9783	9788	1
9782	9781	9787	1
9782	9789	9791	1
9781	9782	9789	1
9781	9778	9784	1
9807	9808	9809	1
9807	9808	9815	1
9807	9810	9811	1
9807	9810	9816	1
9807	9813	9814	1
9808	9809	9812	1
9808	9809	9819	1
9808	9807	9810	1
9808	9807	9813	1
9809	9808	9815	1
9809	9812	9811	1
9809	9812	9817	1
9809	9819	9821	1
9812	9809	9819	1
9810	9811	9812	1
9812	9811	9818	1
9811	9812	9817	1
9811	9810	9816	1
9811	9818	9820	1
9810	9811	9818	1
9810	9807	9813	1
9836	9839	9840	1
9836	9839	9845	1
9836	9837	9838	1
9836	9837	9844	1
9836	9842	9843	1
9839	9840	9841	1
9839	9840	9847	1
9839	9836	9837	1
9839	9836	9842	1
9840	9839	9845	1
9840	9841	9838	1
9840	9841	9846	1
9840	9847	9849	1
9841	9840	9847	1
9837	9838	9841	1
9841	9838	9848	1
9838	9841	9846	1
9838	9837	9844	1
9838	9848	9850	1
9837	9838	9848	1
9837	9836	9842	1
9851	9854	9855	1
9851	9854	9860	1
9851	9852	9853	1
9851	9852	9859	1
9851	9857	9858	1
9854	9855	9856	1
9854	9855	9862	1
9854	9851	9852	1
9854	9851	9857	1
9855	9854	9860	1
9855	9856	9853	1
9855	9856	9861	1
9855	9862	9864	1
9856	9855	9862	1
9852	9853	9856	1
9856	9853	9863	1
9853	9856	9861	1
9853	9852	9859	1
9853	9863	9865	1
9852	9853	9863	1
9852	9851	9857	1
2329	2330	2331	1
2329	2330	2340	1
2329	2334	2333	1
2329	2334	2342	1
2329	2327	2328	1
2330	2331	2332	1
2330	2331	2337	1
2330	2329	2334	1
2330	2329	2327	1
2331	2330	2340	1
2331	2332	2333	1
2331	2332	2341	1
2331	2337	2338	1
2331	2337	2339	1
2332	2331	2337	1
2334	2333	2332	1
2332	2333	2335	1
2333	2332	2341	1
2333	2334	2342	1
2333	2335	2336	1
2334	2333	2335	1
2334	2329	2327	1
2338	2337	2339	1
9880	9881	9882	1
9880	9881	9888	1
9880	9883	9884	1
9880	9883	9889	1
9880	9886	9887	1
9881	9882	9885	1
9881	9882	9892	1
9881	9880	9883	1
9881	9880	9886	1
9882	9881	9888	1
9882	9885	9884	1
9882	9885	9890	1
9882	9892	9894	1
9885	9882	9892	1
9883	9884	9885	1
9885	9884	9891	1
9884	9885	9890	1
9884	9883	9889	1
9884	9891	9893	1
9883	9884	9891	1
9883	9880	9886	1
9895	9898	9899	1
9895	9898	9904	1
9895	9896	9897	1
9895	9896	9903	1
9895	9901	9902	1
9898	9899	9900	1
9898	9899	9906	1
9896	9895	9898	1
9898	9895	9901	1
9899	9898	9904	1
9897	9900	9899	1
9899	9900	9905	1
9899	9906	9908	1
9900	9899	9906	1
9896	9897	9900	1
9900	9897	9907	1
9897	9900	9905	1
9897	9896	9903	1
9897	9907	9909	1
9896	9897	9907	1
9896	9895	9901	1
264	265	260	1
264	265	274	1
264	263	262	1
264	263	273	1
264	266	267	1
265	260	261	1
265	260	258	1
263	264	265	1
265	264	266	1
260	265	274	1
262	261	260	1
260	261	272	1
260	258	259	1
260	258	257	1
261	260	258	1
263	262	261	1
261	262	268	1
262	261	272	1
262	263	273	1
262	268	269	1
262	268	270	1
263	262	268	1
263	264	266	1
258	257	271	1
269	268	270	1
259	258	257	1
9924	9925	9926	1
9924	9925	9932	1
9924	9927	9928	1
9924	9927	9933	1
9924	9930	9931	1
9925	9926	9929	1
9925	9926	9936	1
9925	9924	9927	1
9925	9924	9930	1
9926	9925	9932	1
9926	9929	9928	1
9926	9929	9934	1
9926	9936	9938	1
9929	9926	9936	1
9927	9928	9929	1
9929	9928	9935	1
9928	9929	9934	1
9928	9927	9933	1
9928	9935	9937	1
9927	9928	9935	1
9927	9924	9930	1
9953	9954	9955	1
9953	9954	9961	1
9953	9956	9957	1
9953	9956	9962	1
9953	9959	9960	1
9954	9955	9958	1
9954	9955	9965	1
9954	9953	9956	1
9954	9953	9959	1
9955	9954	9961	1
9955	9958	9957	1
9955	9958	9963	1
9955	9965	9967	1
9958	9955	9965	1
9956	9957	9958	1
9958	9957	9964	1
9957	9958	9963	1
9957	9956	9962	1
9957	9964	9966	1
9956	9957	9964	1
9956	9953	9959	1
9982	9985	9986	1
9982	9985	9991	1
9982	9983	9984	1
9982	9983	9990	1
9982	9988	9989	1
9985	9986	9987	1
9985	9986	9993	1
9983	9982	9985	1
9985	9982	9988	1
9986	9985	9991	1
9984	9987	9986	1
9986	9987	9992	1
9986	9993	9995	1
9987	9986	9993	1
9983	9984	9987	1
9987	9984	9994	1
9984	9987	9992	1
9984	9983	9990	1
9984	9994	9996	1
9983	9984	9994	1
9983	9982	9988	1
10011	10014	10015	1
10011	10014	10020	1
10011	10012	10013	1
10011	10012	10019	1
10011	10017	10018	1
10014	10015	10016	1
10014	10015	10022	1
10012	10011	10014	1
10014	10011	10017	1
10015	10014	10020	1
10013	10016	10015	1
10015	10016	10021	1
10015	10022	10024	1
10016	10015	10022	1
10012	10013	10016	1
10016	10013	10023	1
10013	10016	10021	1
10013	10012	10019	1
10013	10023	10025	1
10012	10013	10023	1
10012	10011	10017	1
10042	10041	10040	1
10042	10041	10048	1
10042	10045	10044	1
10042	10045	10050	1
10042	10052	10054	1
10041	10040	10043	1
10041	10040	10046	1
10045	10042	10041	1
10041	10042	10052	1
10040	10041	10048	1
10044	10043	10040	1
10040	10043	10049	1
10040	10046	10047	1
10043	10040	10046	1
10045	10044	10043	1
10043	10044	10051	1
10044	10043	10049	1
10044	10045	10050	1
10044	10051	10053	1
10045	10044	10051	1
10045	10042	10052	1
10069	10070	10071	1
10069	10070	10077	1
10069	10072	10073	1
10069	10072	10078	1
10069	10075	10076	1
10070	10071	10074	1
10070	10071	10081	1
10072	10069	10070	1
10070	10069	10075	1
10071	10070	10077	1
10073	10074	10071	1
10071	10074	10079	1
10071	10081	10083	1
10074	10071	10081	1
10072	10073	10074	1
10074	10073	10080	1
10073	10074	10079	1
10073	10072	10078	1
10073	10080	10082	1
10072	10073	10080	1
10072	10069	10075	1
10102	10103	10100	1
10102	10103	10108	1
10102	10101	10098	1
10102	10101	10107	1
10102	10109	10111	1
10103	10100	10099	1
10103	10100	10110	1
10103	10102	10101	1
10103	10102	10109	1
10100	10103	10108	1
10100	10099	10098	1
10100	10099	10106	1
10100	10110	10112	1
10099	10100	10110	1
10101	10098	10099	1
10099	10098	10104	1
10098	10099	10106	1
10098	10101	10107	1
10098	10104	10105	1
10101	10098	10104	1
10101	10102	10109	1
10127	10128	10129	1
10127	10128	10135	1
10127	10130	10131	1
10127	10130	10136	1
10127	10133	10134	1
10128	10129	10132	1
10128	10129	10139	1
10128	10127	10130	1
10128	10127	10133	1
10129	10128	10135	1
10129	10132	10131	1
10129	10132	10137	1
10129	10139	10141	1
10132	10129	10139	1
10130	10131	10132	1
10132	10131	10138	1
10131	10132	10137	1
10131	10130	10136	1
10131	10138	10140	1
10130	10131	10138	1
10130	10127	10133	1
10156	10157	10158	1
10156	10157	10164	1
10156	10159	10160	1
10156	10159	10165	1
10156	10162	10163	1
10157	10158	10161	1
10157	10158	10168	1
10157	10156	10159	1
10157	10156	10162	1
10158	10157	10164	1
10158	10161	10160	1
10158	10161	10166	1
10158	10168	10170	1
10161	10158	10168	1
10159	10160	10161	1
10161	10160	10167	1
10160	10161	10166	1
10160	10159	10165	1
10160	10167	10169	1
10159	10160	10167	1
10159	10156	10162	1
10185	10186	10187	1
10185	10186	10193	1
10185	10188	10189	1
10185	10188	10194	1
10185	10191	10192	1
10186	10187	10190	1
10186	10187	10197	1
10186	10185	10188	1
10186	10185	10191	1
10187	10186	10193	1
10187	10190	10189	1
10187	10190	10195	1
10187	10197	10199	1
10190	10187	10197	1
10188	10189	10190	1
10190	10189	10196	1
10189	10190	10195	1
10189	10188	10194	1
10189	10196	10198	1
10188	10189	10196	1
10188	10185	10191	1
10214	10217	10218	1
10214	10217	10223	1
10214	10215	10216	1
10214	10215	10222	1
10214	10220	10221	1
10217	10218	10219	1
10217	10218	10225	1
10215	10214	10217	1
10217	10214	10220	1
10218	10217	10223	1
10216	10219	10218	1
10218	10219	10224	1
10218	10225	10227	1
10219	10218	10225	1
10215	10216	10219	1
10219	10216	10226	1
10216	10219	10224	1
10216	10215	10222	1
10216	10226	10228	1
10215	10216	10226	1
10215	10214	10220	1
10229	10232	10233	1
10229	10232	10238	1
10229	10230	10231	1
10229	10230	10237	1
10229	10235	10236	1
10232	10233	10234	1
10232	10233	10240	1
10230	10229	10232	1
10232	10229	10235	1
10233	10232	10238	1
10231	10234	10233	1
10233	10234	10239	1
10233	10240	10242	1
10234	10233	10240	1
10230	10231	10234	1
10234	10231	10241	1
10231	10234	10239	1
10231	10230	10237	1
10231	10241	10243	1
10230	10231	10241	1
10230	10229	10235	1
10258	10259	10260	1
10258	10259	10266	1
10258	10261	10262	1
10258	10261	10267	1
10258	10264	10265	1
10259	10260	10263	1
10259	10260	10270	1
10261	10258	10259	1
10259	10258	10264	1
10260	10259	10266	1
10262	10263	10260	1
10260	10263	10268	1
10260	10270	10272	1
10263	10260	10270	1
10261	10262	10263	1
10263	10262	10269	1
10262	10263	10268	1
10262	10261	10267	1
10262	10269	10271	1
10261	10262	10269	1
10261	10258	10264	1
10287	10288	10289	1
10287	10288	10295	1
10287	10290	10291	1
10287	10290	10296	1
10287	10293	10294	1
10288	10289	10292	1
10288	10289	10299	1
10290	10287	10288	1
10288	10287	10293	1
10289	10288	10295	1
10291	10292	10289	1
10289	10292	10297	1
10289	10299	10301	1
10292	10289	10299	1
10290	10291	10292	1
10292	10291	10298	1
10291	10292	10297	1
10291	10290	10296	1
10291	10298	10300	1
10290	10291	10298	1
10290	10287	10293	1
10316	10317	10318	1
10316	10317	10324	1
10316	10319	10320	1
10316	10319	10325	1
10316	10322	10323	1
10317	10318	10321	1
10317	10318	10328	1
10317	10316	10319	1
10317	10316	10322	1
10318	10317	10324	1
10318	10321	10320	1
10318	10321	10326	1
10318	10328	10330	1
10321	10318	10328	1
10319	10320	10321	1
10321	10320	10327	1
10320	10321	10326	1
10320	10319	10325	1
10320	10327	10329	1
10319	10320	10327	1
10319	10316	10322	1
2359	2360	2361	1
2359	2360	2370	1
2359	2364	2363	1
2359	2364	2372	1
2359	2357	2358	1
2360	2361	2362	1
2360	2361	2367	1
2360	2359	2364	1
2360	2359	2357	1
2361	2360	2370	1
2361	2362	2363	1
2361	2362	2371	1
2361	2367	2368	1
2361	2367	2369	1
2362	2361	2367	1
2364	2363	2362	1
2362	2363	2365	1
2363	2362	2371	1
2363	2364	2372	1
2363	2365	2366	1
2364	2363	2365	1
2364	2359	2357	1
2368	2367	2369	1
10331	10332	10333	1
10331	10332	10339	1
10331	10334	10335	1
10331	10334	10340	1
10331	10337	10338	1
10332	10333	10336	1
10332	10333	10343	1
10332	10331	10334	1
10332	10331	10337	1
10333	10332	10339	1
10333	10336	10335	1
10333	10336	10341	1
10333	10343	10345	1
10336	10333	10343	1
10334	10335	10336	1
10336	10335	10342	1
10335	10336	10341	1
10335	10334	10340	1
10335	10342	10344	1
10334	10335	10342	1
10334	10331	10337	1
10346	10347	10348	1
10346	10347	10354	1
10346	10349	10350	1
10346	10349	10355	1
10346	10352	10353	1
10347	10348	10351	1
10347	10348	10358	1
10347	10346	10349	1
10347	10346	10352	1
10348	10347	10354	1
10348	10351	10350	1
10348	10351	10356	1
10348	10358	10360	1
10351	10348	10358	1
10349	10350	10351	1
10351	10350	10357	1
10350	10351	10356	1
10350	10349	10355	1
10350	10357	10359	1
10349	10350	10357	1
10349	10346	10352	1
10361	10364	10365	1
10361	10364	10370	1
10361	10362	10363	1
10361	10362	10369	1
10361	10367	10368	1
10364	10365	10366	1
10364	10365	10372	1
10362	10361	10364	1
10364	10361	10367	1
10365	10364	10370	1
10363	10366	10365	1
10365	10366	10371	1
10365	10372	10374	1
10366	10365	10372	1
10362	10363	10366	1
10366	10363	10373	1
10363	10366	10371	1
10363	10362	10369	1
10363	10373	10375	1
10362	10363	10373	1
10362	10361	10367	1
10390	10393	10394	1
10390	10393	10399	1
10390	10391	10392	1
10390	10391	10398	1
10390	10396	10397	1
10393	10394	10395	1
10393	10394	10401	1
10391	10390	10393	1
10393	10390	10396	1
10394	10393	10399	1
10392	10395	10394	1
10394	10395	10400	1
10394	10401	10403	1
10395	10394	10401	1
10391	10392	10395	1
10395	10392	10402	1
10392	10395	10400	1
10392	10391	10398	1
10392	10402	10404	1
10391	10392	10402	1
10391	10390	10396	1
10405	10408	10409	1
10405	10408	10414	1
10405	10406	10407	1
10405	10406	10413	1
10405	10411	10412	1
10408	10409	10410	1
10408	10409	10416	1
10406	10405	10408	1
10408	10405	10411	1
10409	10408	10414	1
10407	10410	10409	1
10409	10410	10415	1
10409	10416	10418	1
10410	10409	10416	1
10406	10407	10410	1
10410	10407	10417	1
10407	10410	10415	1
10407	10406	10413	1
10407	10417	10419	1
10406	10407	10417	1
10406	10405	10411	1
10438	10439	10436	1
10438	10439	10444	1
10438	10437	10434	1
10438	10437	10443	1
10438	10445	10447	1
10439	10436	10435	1
10439	10436	10446	1
10437	10438	10439	1
10439	10438	10445	1
10436	10439	10444	1
10434	10435	10436	1
10436	10435	10442	1
10436	10446	10448	1
10435	10436	10446	1
10437	10434	10435	1
10435	10434	10440	1
10434	10435	10442	1
10434	10437	10443	1
10434	10440	10441	1
10437	10434	10440	1
10437	10438	10445	1
10449	10452	10453	1
10449	10452	10458	1
10449	10450	10451	1
10449	10450	10457	1
10449	10455	10456	1
10452	10453	10454	1
10452	10453	10460	1
10452	10449	10450	1
10452	10449	10455	1
10453	10452	10458	1
10453	10454	10451	1
10453	10454	10459	1
10453	10460	10462	1
10454	10453	10460	1
10450	10451	10454	1
10454	10451	10461	1
10451	10454	10459	1
10451	10450	10457	1
10451	10461	10463	1
10450	10451	10461	1
10450	10449	10455	1
10478	10479	10480	1
10478	10479	10486	1
10478	10481	10482	1
10478	10481	10487	1
10478	10484	10485	1
10479	10480	10483	1
10479	10480	10490	1
10479	10478	10481	1
10479	10478	10484	1
10480	10479	10486	1
10480	10483	10482	1
10480	10483	10488	1
10480	10490	10492	1
10483	10480	10490	1
10481	10482	10483	1
10483	10482	10489	1
10482	10483	10488	1
10482	10481	10487	1
10482	10489	10491	1
10481	10482	10489	1
10481	10478	10484	1
10493	10494	10495	1
10493	10494	10501	1
10493	10496	10497	1
10493	10496	10502	1
10493	10499	10500	1
10494	10495	10498	1
10494	10495	10505	1
10494	10493	10496	1
10494	10493	10499	1
10495	10494	10501	1
10495	10498	10497	1
10495	10498	10503	1
10495	10505	10507	1
10498	10495	10505	1
10496	10497	10498	1
10498	10497	10504	1
10497	10498	10503	1
10497	10496	10502	1
10497	10504	10506	1
10496	10497	10504	1
10496	10493	10499	1
2389	2390	2391	1
2389	2390	2400	1
2389	2394	2393	1
2389	2394	2402	1
2389	2387	2388	1
2390	2391	2392	1
2390	2391	2397	1
2390	2389	2394	1
2390	2389	2387	1
2391	2390	2400	1
2391	2392	2393	1
2391	2392	2401	1
2391	2397	2398	1
2391	2397	2399	1
2392	2391	2397	1
2394	2393	2392	1
2392	2393	2395	1
2393	2392	2401	1
2393	2394	2402	1
2393	2395	2396	1
2394	2393	2395	1
2394	2389	2387	1
2398	2397	2399	1
10508	10509	10510	1
10508	10509	10516	1
10508	10511	10512	1
10508	10511	10517	1
10508	10514	10515	1
10509	10510	10513	1
10509	10510	10520	1
10509	10508	10511	1
10509	10508	10514	1
10510	10509	10516	1
10510	10513	10512	1
10510	10513	10518	1
10510	10520	10522	1
10513	10510	10520	1
10511	10512	10513	1
10513	10512	10519	1
10512	10513	10518	1
10512	10511	10517	1
10512	10519	10521	1
10511	10512	10519	1
10511	10508	10514	1
2403	2404	2405	1
2403	2404	2411	1
2403	2406	2407	1
2403	2406	2412	1
2403	2409	2410	1
2404	2405	2408	1
2404	2405	2415	1
2404	2403	2406	1
2404	2403	2409	1
2405	2404	2411	1
2405	2408	2407	1
2405	2408	2413	1
2405	2415	2417	1
2405	2415	2418	1
2408	2405	2415	1
2406	2407	2408	1
2408	2407	2414	1
2407	2408	2413	1
2407	2406	2412	1
2407	2414	2416	1
2406	2407	2414	1
2406	2403	2409	1
2415	2418	2419	1
2417	2415	2418	1
10537	10538	10539	1
10537	10538	10545	1
10537	10540	10541	1
10537	10540	10546	1
10537	10543	10544	1
10538	10539	10542	1
10538	10539	10549	1
10538	10537	10540	1
10538	10537	10543	1
10539	10538	10545	1
10539	10542	10541	1
10539	10542	10547	1
10539	10549	10551	1
10542	10539	10549	1
10540	10541	10542	1
10542	10541	10548	1
10541	10542	10547	1
10541	10540	10546	1
10541	10548	10550	1
10540	10541	10548	1
10540	10537	10543	1
2434	2435	2436	1
2434	2435	2442	1
2434	2437	2438	1
2434	2437	2443	1
2434	2440	2441	1
2435	2436	2439	1
2435	2436	2446	1
2435	2434	2437	1
2435	2434	2440	1
2436	2435	2442	1
2436	2439	2438	1
2436	2439	2444	1
2436	2446	2448	1
2436	2446	2449	1
2439	2436	2446	1
2437	2438	2439	1
2439	2438	2445	1
2438	2439	2444	1
2438	2437	2443	1
2438	2445	2447	1
2437	2438	2445	1
2437	2434	2440	1
2446	2449	2450	1
2448	2446	2449	1
10566	10567	10568	1
10568	10567	10574	1
10568	10571	10570	1
10568	10571	10576	1
10568	10578	10580	1
10567	10566	10569	1
10567	10566	10572	1
10567	10568	10571	1
10567	10568	10578	1
10566	10567	10574	1
10566	10569	10570	1
10566	10569	10575	1
10566	10572	10573	1
10569	10566	10572	1
10569	10570	10571	1
10569	10570	10577	1
10570	10569	10575	1
10570	10571	10576	1
10570	10577	10579	1
10571	10570	10577	1
10571	10568	10578	1
10595	10598	10599	1
10595	10598	10604	1
10595	10596	10597	1
10595	10596	10603	1
10595	10601	10602	1
10598	10599	10600	1
10598	10599	10606	1
10596	10595	10598	1
10598	10595	10601	1
10599	10598	10604	1
10597	10600	10599	1
10599	10600	10605	1
10599	10606	10608	1
10600	10599	10606	1
10596	10597	10600	1
10600	10597	10607	1
10597	10600	10605	1
10597	10596	10603	1
10597	10607	10609	1
10596	10597	10607	1
10596	10595	10601	1
10624	10625	10626	1
10624	10625	10632	1
10624	10627	10628	1
10624	10627	10633	1
10624	10630	10631	1
10625	10626	10629	1
10625	10626	10636	1
10627	10624	10625	1
10625	10624	10630	1
10626	10625	10632	1
10628	10629	10626	1
10626	10629	10634	1
10626	10636	10638	1
10629	10626	10636	1
10627	10628	10629	1
10629	10628	10635	1
10628	10629	10634	1
10628	10627	10633	1
10628	10635	10637	1
10627	10628	10635	1
10627	10624	10630	1
2465	2466	2467	1
2467	2466	2473	1
2467	2470	2469	1
2467	2470	2475	1
2467	2477	2479	1
2467	2477	2480	1
2466	2465	2468	1
2466	2465	2471	1
2466	2467	2470	1
2466	2467	2477	1
2465	2466	2473	1
2465	2468	2469	1
2465	2468	2474	1
2465	2471	2472	1
2468	2465	2471	1
2468	2469	2470	1
2468	2469	2476	1
2469	2468	2474	1
2469	2470	2475	1
2469	2476	2478	1
2470	2469	2476	1
2470	2467	2477	1
2477	2480	2481	1
2479	2477	2480	1
2498	2499	2500	1
2498	2499	2509	1
2498	2503	2502	1
2498	2503	2511	1
2498	2496	2497	1
2499	2500	2501	1
2499	2500	2506	1
2499	2498	2503	1
2499	2498	2496	1
2500	2499	2509	1
2500	2501	2502	1
2500	2501	2510	1
2500	2506	2507	1
2500	2506	2508	1
2501	2500	2506	1
2503	2502	2501	1
2501	2502	2504	1
2502	2501	2510	1
2502	2503	2511	1
2502	2504	2505	1
2503	2502	2504	1
2503	2498	2496	1
2507	2506	2508	1
10653	10654	10655	1
10653	10654	10661	1
10653	10656	10657	1
10653	10656	10662	1
10653	10659	10660	1
10654	10655	10658	1
10654	10655	10665	1
10656	10653	10654	1
10654	10653	10659	1
10655	10654	10661	1
10657	10658	10655	1
10655	10658	10663	1
10655	10665	10667	1
10658	10655	10665	1
10656	10657	10658	1
10658	10657	10664	1
10657	10658	10663	1
10657	10656	10662	1
10657	10664	10666	1
10656	10657	10664	1
10656	10653	10659	1
10682	10685	10686	1
10682	10685	10691	1
10682	10683	10684	1
10682	10683	10690	1
10682	10688	10689	1
10685	10686	10687	1
10685	10686	10693	1
10683	10682	10685	1
10685	10682	10688	1
10686	10685	10691	1
10684	10687	10686	1
10686	10687	10692	1
10686	10693	10695	1
10687	10686	10693	1
10683	10684	10687	1
10687	10684	10694	1
10684	10687	10692	1
10684	10683	10690	1
10684	10694	10696	1
10683	10684	10694	1
10683	10682	10688	1
10699	10702	10701	1
10701	10702	10707	1
10697	10700	10701	1
10701	10700	10706	1
10701	10708	10710	1
10698	10699	10702	1
10702	10699	10709	1
10700	10701	10702	1
10702	10701	10708	1
10699	10702	10707	1
10697	10698	10699	1
10699	10698	10705	1
10699	10709	10711	1
10698	10699	10709	1
10698	10697	10700	1
10698	10697	10703	1
10697	10698	10705	1
10697	10700	10706	1
10697	10703	10704	1
10700	10697	10703	1
10700	10701	10708	1
10712	10715	10716	1
10712	10715	10721	1
10712	10713	10714	1
10712	10713	10720	1
10712	10718	10719	1
10715	10716	10717	1
10715	10716	10723	1
10713	10712	10715	1
10715	10712	10718	1
10716	10715	10721	1
10714	10717	10716	1
10716	10717	10722	1
10716	10723	10725	1
10717	10716	10723	1
10713	10714	10717	1
10717	10714	10724	1
10714	10717	10722	1
10714	10713	10720	1
10714	10724	10726	1
10713	10714	10724	1
10713	10712	10718	1
10741	10744	10745	1
10741	10744	10750	1
10741	10742	10743	1
10741	10742	10749	1
10741	10747	10748	1
10744	10745	10746	1
10744	10745	10752	1
10742	10741	10744	1
10744	10741	10747	1
10745	10744	10750	1
10743	10746	10745	1
10745	10746	10751	1
10745	10752	10754	1
10746	10745	10752	1
10742	10743	10746	1
10746	10743	10753	1
10743	10746	10751	1
10743	10742	10749	1
10743	10753	10755	1
10742	10743	10753	1
10742	10741	10747	1
10756	10757	10758	1
10756	10757	10764	1
10756	10759	10760	1
10756	10759	10765	1
10756	10762	10763	1
10757	10758	10761	1
10757	10758	10768	1
10757	10756	10759	1
10757	10756	10762	1
10758	10757	10764	1
10758	10761	10760	1
10758	10761	10766	1
10758	10768	10770	1
10761	10758	10768	1
10759	10760	10761	1
10761	10760	10767	1
10760	10761	10766	1
10760	10759	10765	1
10760	10767	10769	1
10759	10760	10767	1
10759	10756	10762	1
10785	10786	10787	1
10785	10786	10793	1
10785	10788	10789	1
10785	10788	10794	1
10785	10791	10792	1
10786	10787	10790	1
10786	10787	10797	1
10786	10785	10788	1
10786	10785	10791	1
10787	10786	10793	1
10787	10790	10789	1
10787	10790	10795	1
10787	10797	10799	1
10790	10787	10797	1
10788	10789	10790	1
10790	10789	10796	1
10789	10790	10795	1
10789	10788	10794	1
10789	10796	10798	1
10788	10789	10796	1
10788	10785	10791	1
10814	10817	10818	1
10814	10817	10823	1
10814	10815	10816	1
10814	10815	10822	1
10814	10820	10821	1
10817	10818	10819	1
10817	10818	10825	1
10817	10814	10815	1
10817	10814	10820	1
10818	10817	10823	1
10818	10819	10816	1
10818	10819	10824	1
10818	10825	10827	1
10819	10818	10825	1
10815	10816	10819	1
10819	10816	10826	1
10816	10819	10824	1
10816	10815	10822	1
10816	10826	10828	1
10815	10816	10826	1
10815	10814	10820	1
10829	10832	10833	1
10829	10832	10838	1
10829	10830	10831	1
10829	10830	10837	1
10829	10835	10836	1
10832	10833	10834	1
10832	10833	10840	1
10832	10829	10830	1
10832	10829	10835	1
10833	10832	10838	1
10833	10834	10831	1
10833	10834	10839	1
10833	10840	10842	1
10834	10833	10840	1
10830	10831	10834	1
10834	10831	10841	1
10831	10834	10839	1
10831	10830	10837	1
10831	10841	10843	1
10830	10831	10841	1
10830	10829	10835	1
10858	10859	10860	1
10858	10859	10866	1
10858	10861	10862	1
10858	10861	10867	1
10858	10864	10865	1
10859	10860	10863	1
10859	10860	10870	1
10859	10858	10861	1
10859	10858	10864	1
10860	10859	10866	1
10860	10863	10862	1
10860	10863	10868	1
10860	10870	10872	1
10863	10860	10870	1
10861	10862	10863	1
10863	10862	10869	1
10862	10863	10868	1
10862	10861	10867	1
10862	10869	10871	1
10861	10862	10869	1
10861	10858	10864	1
10887	10888	10889	1
10887	10888	10895	1
10887	10890	10891	1
10887	10890	10896	1
10887	10893	10894	1
10888	10889	10892	1
10888	10889	10899	1
10888	10887	10890	1
10888	10887	10893	1
10889	10888	10895	1
10889	10892	10891	1
10889	10892	10897	1
10889	10899	10901	1
10892	10889	10899	1
10890	10891	10892	1
10892	10891	10898	1
10891	10892	10897	1
10891	10890	10896	1
10891	10898	10900	1
10890	10891	10898	1
10890	10887	10893	1
10916	10917	10918	1
10916	10917	10924	1
10916	10919	10920	1
10916	10919	10925	1
10916	10922	10923	1
10917	10918	10921	1
10917	10918	10928	1
10917	10916	10919	1
10917	10916	10922	1
10918	10917	10924	1
10918	10921	10920	1
10918	10921	10926	1
10918	10928	10930	1
10921	10918	10928	1
10919	10920	10921	1
10921	10920	10927	1
10920	10921	10926	1
10920	10919	10925	1
10920	10927	10929	1
10919	10920	10927	1
10919	10916	10922	1
10931	10934	10935	1
10931	10934	10940	1
10931	10932	10933	1
10931	10932	10939	1
10931	10937	10938	1
10934	10935	10936	1
10934	10935	10942	1
10932	10931	10934	1
10934	10931	10937	1
10935	10934	10940	1
10933	10936	10935	1
10935	10936	10941	1
10935	10942	10944	1
10936	10935	10942	1
10932	10933	10936	1
10936	10933	10943	1
10933	10936	10941	1
10933	10932	10939	1
10933	10943	10945	1
10932	10933	10943	1
10932	10931	10937	1
10946	10949	10950	1
10946	10949	10955	1
10946	10947	10948	1
10946	10947	10954	1
10946	10952	10953	1
10949	10950	10951	1
10949	10950	10957	1
10947	10946	10949	1
10949	10946	10952	1
10950	10949	10955	1
10948	10951	10950	1
10950	10951	10956	1
10950	10957	10959	1
10951	10950	10957	1
10947	10948	10951	1
10951	10948	10958	1
10948	10951	10956	1
10948	10947	10954	1
10948	10958	10960	1
10947	10948	10958	1
10947	10946	10952	1
10961	10964	10965	1
10961	10964	10970	1
10961	10962	10963	1
10961	10962	10969	1
10961	10967	10968	1
10964	10965	10966	1
10964	10965	10972	1
10962	10961	10964	1
10964	10961	10967	1
10965	10964	10970	1
10963	10966	10965	1
10965	10966	10971	1
10965	10972	10974	1
10966	10965	10972	1
10962	10963	10966	1
10966	10963	10973	1
10963	10966	10971	1
10963	10962	10969	1
10963	10973	10975	1
10962	10963	10973	1
10962	10961	10967	1
10990	10991	10992	1
10990	10991	10998	1
10990	10993	10994	1
10990	10993	10999	1
10990	10996	10997	1
10991	10992	10995	1
10991	10992	11002	1
10993	10990	10991	1
10991	10990	10996	1
10992	10991	10998	1
10994	10995	10992	1
10992	10995	11000	1
10992	11002	11004	1
10995	10992	11002	1
10993	10994	10995	1
10995	10994	11001	1
10994	10995	11000	1
10994	10993	10999	1
10994	11001	11003	1
10993	10994	11001	1
10993	10990	10996	1
11005	11008	11009	1
11005	11008	11014	1
11005	11006	11007	1
11005	11006	11013	1
11005	11011	11012	1
11008	11009	11010	1
11008	11009	11016	1
11008	11005	11006	1
11008	11005	11011	1
11009	11008	11014	1
11009	11010	11007	1
11009	11010	11015	1
11009	11016	11018	1
11010	11009	11016	1
11006	11007	11010	1
11010	11007	11017	1
11007	11010	11015	1
11007	11006	11013	1
11007	11017	11019	1
11006	11007	11017	1
11006	11005	11011	1
2528	2533	2532	1
2528	2533	2541	1
2528	2529	2530	1
2528	2529	2539	1
2528	2526	2527	1
2533	2532	2531	1
2533	2532	2534	1
2529	2528	2533	1
2533	2528	2526	1
2532	2533	2541	1
2530	2531	2532	1
2532	2531	2540	1
2532	2534	2535	1
2531	2532	2534	1
2529	2530	2531	1
2531	2530	2536	1
2530	2531	2540	1
2530	2529	2539	1
2530	2536	2537	1
2530	2536	2538	1
2529	2530	2536	1
2529	2528	2526	1
2537	2536	2538	1
11020	11021	11022	1
11020	11021	11028	1
11020	11023	11024	1
11020	11023	11029	1
11020	11026	11027	1
11021	11022	11025	1
11021	11022	11032	1
11021	11020	11023	1
11021	11020	11026	1
11022	11021	11028	1
11022	11025	11024	1
11022	11025	11030	1
11022	11032	11034	1
11025	11022	11032	1
11023	11024	11025	1
11025	11024	11031	1
11024	11025	11030	1
11024	11023	11029	1
11024	11031	11033	1
11023	11024	11031	1
11023	11020	11026	1
11035	11036	11037	1
11035	11036	11043	1
11035	11038	11039	1
11035	11038	11044	1
11035	11041	11042	1
11036	11037	11040	1
11036	11037	11047	1
11036	11035	11038	1
11036	11035	11041	1
11037	11036	11043	1
11037	11040	11039	1
11037	11040	11045	1
11037	11047	11049	1
11040	11037	11047	1
11038	11039	11040	1
11040	11039	11046	1
11039	11040	11045	1
11039	11038	11044	1
11039	11046	11048	1
11038	11039	11046	1
11038	11035	11041	1
11064	11065	11066	1
11064	11065	11072	1
11064	11067	11068	1
11064	11067	11073	1
11064	11070	11071	1
11065	11066	11069	1
11065	11066	11076	1
11065	11064	11067	1
11065	11064	11070	1
11066	11065	11072	1
11066	11069	11068	1
11066	11069	11074	1
11066	11076	11078	1
11069	11066	11076	1
11067	11068	11069	1
11069	11068	11075	1
11068	11069	11074	1
11068	11067	11073	1
11068	11075	11077	1
11067	11068	11075	1
11067	11064	11070	1
11093	11094	11095	1
11093	11094	11101	1
11093	11096	11097	1
11093	11096	11102	1
11093	11099	11100	1
11094	11095	11098	1
11094	11095	11105	1
11094	11093	11096	1
11094	11093	11099	1
11095	11094	11101	1
11095	11098	11097	1
11095	11098	11103	1
11095	11105	11107	1
11098	11095	11105	1
11096	11097	11098	1
11098	11097	11104	1
11097	11098	11103	1
11097	11096	11102	1
11097	11104	11106	1
11096	11097	11104	1
11096	11093	11099	1
2542	2543	2544	1
2542	2543	2550	1
2542	2545	2546	1
2542	2545	2551	1
2542	2548	2549	1
2543	2544	2547	1
2543	2544	2554	1
2543	2542	2545	1
2543	2542	2548	1
2544	2543	2550	1
2544	2547	2546	1
2544	2547	2552	1
2544	2554	2556	1
2544	2554	2557	1
2547	2544	2554	1
2545	2546	2547	1
2547	2546	2553	1
2546	2547	2552	1
2546	2545	2551	1
2546	2553	2555	1
2545	2546	2553	1
2545	2542	2548	1
2554	2557	2558	1
2556	2554	2557	1
11108	11109	11110	1
11108	11109	11116	1
11108	11111	11112	1
11108	11111	11117	1
11108	11114	11115	1
11109	11110	11113	1
11109	11110	11120	1
11109	11108	11111	1
11109	11108	11114	1
11110	11109	11116	1
11110	11113	11112	1
11110	11113	11118	1
11110	11120	11122	1
11113	11110	11120	1
11111	11112	11113	1
11113	11112	11119	1
11112	11113	11118	1
11112	11111	11117	1
11112	11119	11121	1
11111	11112	11119	1
11111	11108	11114	1
11123	11126	11127	1
11123	11126	11132	1
11123	11124	11125	1
11123	11124	11131	1
11123	11129	11130	1
11126	11127	11128	1
11126	11127	11134	1
11124	11123	11126	1
11126	11123	11129	1
11127	11126	11132	1
11125	11128	11127	1
11127	11128	11133	1
11127	11134	11136	1
11128	11127	11134	1
11124	11125	11128	1
11128	11125	11135	1
11125	11128	11133	1
11125	11124	11131	1
11125	11135	11137	1
11124	11125	11135	1
11124	11123	11129	1

[ dihedrals ]
5273	5272	5271	5282	9
5276	5272	5271	5282	9
5275	5270	5271	5282	9
5278	5270	5271	5282	9
5282	6333	6323	6322	9
5282	6333	6323	6326	9
5271	5272	5273	5280	9
5276	5272	5273	5280	9
5275	5274	5273	5280	9
5277	5274	5273	5280	9
5280	5290	5284	5287	9
5280	5290	5284	5285	9
5271	5282	6333	6323	9
5271	5282	6333	6335	9
5271	5272	5273	5274	9
5271	5270	5275	5274	9
5271	5270	5275	5279	9
5273	5280	5290	5284	9
5273	5280	5290	5291	9
5270	5271	5272	5273	9
5270	5275	5274	5273	9
5273	5274	5275	5279	9
5272	5271	5282	5283	9
5272	5271	5282	6333	9
5272	5271	5270	5275	9
5272	5271	5270	5278	9
5272	5273	5280	5281	9
5272	5273	5280	5290	9
5272	5273	5274	5275	9
5272	5273	5274	5277	9
5270	5271	5282	5283	9
5270	5271	5282	6333	9
5270	5271	5272	5276	9
5270	5275	5274	5277	9
5274	5273	5280	5281	9
5274	5273	5280	5290	9
5274	5273	5272	5276	9
5274	5275	5270	5278	9
5278	5270	5275	5279	9
5277	5274	5275	5279	9
5283	5282	6333	6323	9
5283	5282	6333	6335	9
5281	5280	5290	5284	9
5281	5280	5290	5291	9
4532	4531	4530	4541	9
4535	4531	4530	4541	9
4534	4529	4530	4541	9
4537	4529	4530	4541	9
4541	5296	5286	5289	9
4541	5296	5286	5285	9
4530	4531	4532	4539	9
4535	4531	4532	4539	9
4534	4533	4532	4539	9
4536	4533	4532	4539	9
4539	4549	4543	4546	9
4539	4549	4543	4544	9
4530	4541	5296	5286	9
4530	4541	5296	5298	9
4530	4531	4532	4533	9
4530	4529	4534	4533	9
4530	4529	4534	4538	9
4532	4539	4549	4543	9
4532	4539	4549	4550	9
4529	4530	4531	4532	9
4529	4534	4533	4532	9
4532	4533	4534	4538	9
4531	4530	4541	4542	9
4531	4530	4541	5296	9
4531	4530	4529	4534	9
4531	4530	4529	4537	9
4531	4532	4539	4540	9
4531	4532	4539	4549	9
4531	4532	4533	4534	9
4531	4532	4533	4536	9
4529	4530	4541	4542	9
4529	4530	4541	5296	9
4529	4530	4531	4535	9
4529	4534	4533	4536	9
4533	4532	4539	4540	9
4533	4532	4539	4549	9
4533	4532	4531	4535	9
4533	4534	4529	4537	9
4537	4529	4534	4538	9
4536	4533	4534	4538	9
4542	4541	5296	5286	9
4542	4541	5296	5298	9
4540	4539	4549	4543	9
4540	4539	4549	4550	9
9796	9795	9794	9805	9
9799	9795	9794	9805	9
9798	9793	9794	9805	9
9801	9793	9794	9805	9
9805	9813	9807	9808	9
9805	9813	9807	9810	9
9794	9795	9796	9803	9
9799	9795	9796	9803	9
9798	9797	9796	9803	9
9800	9797	9796	9803	9
9803	8695	8685	8688	9
9803	8695	8685	8684	9
9794	9805	9813	9807	9
9794	9805	9813	9814	9
9794	9795	9796	9797	9
9794	9793	9798	9797	9
9794	9793	9798	9802	9
9796	9803	8695	8685	9
9796	9803	8695	8697	9
9793	9794	9795	9796	9
9793	9798	9797	9796	9
9796	9797	9798	9802	9
9795	9794	9805	9806	9
9795	9794	9805	9813	9
9795	9794	9793	9798	9
9795	9794	9793	9801	9
9795	9796	9803	9804	9
9795	9796	9803	8695	9
9795	9796	9797	9798	9
9795	9796	9797	9800	9
9793	9794	9805	9806	9
9793	9794	9805	9813	9
9793	9794	9795	9799	9
9793	9798	9797	9800	9
9797	9796	9803	9804	9
9797	9796	9803	8695	9
9797	9796	9795	9799	9
9797	9798	9793	9801	9
9801	9793	9798	9802	9
9800	9797	9798	9802	9
9806	9805	9813	9807	9
9806	9805	9813	9814	9
9804	9803	8695	8685	9
9804	9803	8695	8697	9
5126	5127	5128	5135	9
5131	5127	5128	5135	9
5130	5129	5128	5135	9
5132	5129	5128	5135	9
5135	7702	7692	7695	9
5135	7702	7692	7691	9
5128	5127	5126	5137	9
5131	5127	5126	5137	9
5130	5125	5126	5137	9
5133	5125	5126	5137	9
5137	5145	5139	5142	9
5137	5145	5139	5140	9
5128	5135	7702	7692	9
5128	5135	7702	7704	9
5128	5127	5126	5125	9
5128	5129	5130	5125	9
5128	5129	5130	5134	9
5126	5137	5145	5139	9
5126	5137	5145	5146	9
5129	5128	5127	5126	9
5129	5130	5125	5126	9
5126	5125	5130	5134	9
5127	5128	5135	5136	9
5127	5128	5135	7702	9
5127	5128	5129	5130	9
5127	5128	5129	5132	9
5127	5126	5137	5138	9
5127	5126	5137	5145	9
5127	5126	5125	5130	9
5127	5126	5125	5133	9
5129	5128	5135	5136	9
5129	5128	5135	7702	9
5129	5128	5127	5131	9
5129	5130	5125	5133	9
5125	5126	5137	5138	9
5125	5126	5137	5145	9
5125	5126	5127	5131	9
5125	5130	5129	5132	9
5132	5129	5130	5134	9
5133	5125	5130	5134	9
5136	5135	7702	7692	9
5136	5135	7702	7704	9
5138	5137	5145	5139	9
5138	5137	5145	5146	9
1328	1327	1326	1337	9
1331	1327	1326	1337	9
1330	1325	1326	1337	9
1333	1325	1326	1337	9
1342	1341	1339	1337	9
1346	1341	1339	1337	9
1326	1327	1328	1335	9
1331	1327	1328	1335	9
1330	1329	1328	1335	9
1332	1329	1328	1335	9
1335	7191	7184	7185	9
1335	7191	7184	7183	9
1341	1339	1337	1326	9
1340	1339	1337	1326	9
1326	1327	1328	1329	9
1326	1325	1330	1329	9
1326	1325	1330	1334	9
1328	1335	7191	7184	9
1328	1335	7191	7193	9
1325	1326	1327	1328	9
1325	1330	1329	1328	9
1328	1329	1330	1334	9
1327	1326	1337	1338	9
1339	1337	1326	1327	9
1327	1326	1325	1330	9
1327	1326	1325	1333	9
1327	1328	1335	1336	9
1327	1328	1335	7191	9
1327	1328	1329	1330	9
1327	1328	1329	1332	9
1325	1326	1337	1338	9
1339	1337	1326	1325	9
1325	1326	1327	1331	9
1325	1330	1329	1332	9
1329	1328	1335	1336	9
1329	1328	1335	7191	9
1329	1328	1327	1331	9
1329	1330	1325	1333	9
1333	1325	1330	1334	9
1332	1329	1330	1334	9
1341	1339	1337	1338	9
1340	1339	1337	1338	9
1336	1335	7191	7184	9
1336	1335	7191	7193	9
11561	11560	11559	11570	9
11564	11560	11559	11570	9
11563	11558	11559	11570	9
11566	11558	11559	11570	9
11570	4554	4547	4546	9
11570	4554	4547	4548	9
11559	11560	11561	11568	9
11564	11560	11561	11568	9
11563	11562	11561	11568	9
11565	11562	11561	11568	9
11568	9965	9955	9954	9
11568	9965	9955	9958	9
11559	11570	4554	4547	9
11559	11570	4554	4556	9
11559	11560	11561	11562	9
11559	11558	11563	11562	9
11559	11558	11563	11567	9
11561	11568	9965	9955	9
11561	11568	9965	9967	9
11558	11559	11560	11561	9
11558	11563	11562	11561	9
11561	11562	11563	11567	9
11560	11559	11570	11571	9
11560	11559	11570	4554	9
11560	11559	11558	11563	9
11560	11559	11558	11566	9
11560	11561	11568	11569	9
11560	11561	11568	9965	9
11560	11561	11562	11563	9
11560	11561	11562	11565	9
11558	11559	11570	11571	9
11558	11559	11570	4554	9
11558	11559	11560	11564	9
11558	11563	11562	11565	9
11562	11561	11568	11569	9
11562	11561	11568	9965	9
11562	11561	11560	11564	9
11562	11563	11558	11566	9
11566	11558	11563	11567	9
11565	11562	11563	11567	9
11571	11570	4554	4547	9
11571	11570	4554	4556	9
11569	11568	9965	9955	9
11569	11568	9965	9967	9
2589	2590	2591	2598	9
2594	2590	2591	2598	9
2593	2592	2591	2598	9
2595	2592	2591	2598	9
2598	3916	3906	3909	9
2598	3916	3906	3905	9
2591	2590	2589	2600	9
2594	2590	2589	2600	9
2593	2588	2589	2600	9
2596	2588	2589	2600	9
2591	2598	3916	3906	9
2591	2598	3916	3918	9
2588	2589	2590	2591	9
2588	2593	2592	2591	9
2591	2592	2593	2597	9
2589	2590	2591	2592	9
2589	2588	2593	2592	9
2589	2588	2593	2597	9
2590	2591	2598	2599	9
2590	2591	2598	3916	9
2590	2591	2592	2593	9
2590	2591	2592	2595	9
2590	2589	2600	2601	9
2590	2589	2600	2602	9
2590	2589	2588	2593	9
2590	2589	2588	2596	9
2592	2591	2598	2599	9
2592	2591	2598	3916	9
2592	2591	2590	2594	9
2592	2593	2588	2596	9
2588	2589	2600	2601	9
2588	2589	2600	2602	9
2588	2589	2590	2594	9
2588	2593	2592	2595	9
2595	2592	2593	2597	9
2596	2588	2593	2597	9
2599	2598	3916	3906	9
2599	2598	3916	3918	9
779	778	777	788	9
782	778	777	788	9
781	776	777	788	9
784	776	777	788	9
788	4468	4458	4457	9
788	4468	4458	4461	9
777	778	779	786	9
782	778	779	786	9
781	780	779	786	9
783	780	779	786	9
793	792	790	786	9
797	792	790	786	9
777	788	4468	4458	9
777	788	4468	4470	9
777	778	779	780	9
777	776	781	780	9
777	776	781	785	9
792	790	786	779	9
791	790	786	779	9
776	777	778	779	9
776	781	780	779	9
779	780	781	785	9
778	777	788	789	9
778	777	788	4468	9
778	777	776	781	9
778	777	776	784	9
778	779	786	787	9
790	786	779	778	9
778	779	780	781	9
778	779	780	783	9
776	777	788	789	9
776	777	788	4468	9
776	777	778	782	9
776	781	780	783	9
780	779	786	787	9
790	786	779	780	9
780	779	778	782	9
780	781	776	784	9
784	776	781	785	9
783	780	781	785	9
789	788	4468	4458	9
789	788	4468	4470	9
792	790	786	787	9
791	790	786	787	9
11082	11081	11080	11091	9
11085	11081	11080	11091	9
11084	11079	11080	11091	9
11087	11079	11080	11091	9
11091	4308	4298	4301	9
11091	4308	4298	4297	9
11080	11081	11082	11089	9
11085	11081	11082	11089	9
11084	11083	11082	11089	9
11086	11083	11082	11089	9
11089	11099	11093	11094	9
11089	11099	11093	11096	9
11080	11091	4308	4298	9
11080	11091	4308	4310	9
11080	11081	11082	11083	9
11080	11079	11084	11083	9
11080	11079	11084	11088	9
11082	11089	11099	11093	9
11082	11089	11099	11100	9
11079	11080	11081	11082	9
11079	11084	11083	11082	9
11082	11083	11084	11088	9
11081	11080	11091	11092	9
11081	11080	11091	4308	9
11081	11080	11079	11084	9
11081	11080	11079	11087	9
11081	11082	11089	11090	9
11081	11082	11089	11099	9
11081	11082	11083	11084	9
11081	11082	11083	11086	9
11079	11080	11091	11092	9
11079	11080	11091	4308	9
11079	11080	11081	11085	9
11079	11084	11083	11086	9
11083	11082	11089	11090	9
11083	11082	11089	11099	9
11083	11082	11081	11085	9
11083	11084	11079	11087	9
11087	11079	11084	11088	9
11086	11083	11084	11088	9
11092	11091	4308	4298	9
11092	11091	4308	4310	9
11090	11089	11099	11093	9
11090	11089	11099	11100	9
11503	11504	11505	11512	9
11508	11504	11505	11512	9
11507	11506	11505	11512	9
11509	11506	11505	11512	9
11512	4410	4400	4399	9
11512	4410	4400	4403	9
11505	11504	11503	11514	9
11508	11504	11503	11514	9
11507	11502	11503	11514	9
11510	11502	11503	11514	9
11514	7192	7182	7181	9
11514	7192	7182	7185	9
11505	11512	4410	4400	9
11505	11512	4410	4412	9
11505	11504	11503	11502	9
11505	11506	11507	11502	9
11505	11506	11507	11511	9
11503	11514	7192	7182	9
11503	11514	7192	7194	9
11506	11505	11504	11503	9
11506	11507	11502	11503	9
11503	11502	11507	11511	9
11504	11505	11512	11513	9
11504	11505	11512	4410	9
11504	11505	11506	11507	9
11504	11505	11506	11509	9
11504	11503	11514	11515	9
11504	11503	11514	7192	9
11504	11503	11502	11507	9
11504	11503	11502	11510	9
11506	11505	11512	11513	9
11506	11505	11512	4410	9
11506	11505	11504	11508	9
11506	11507	11502	11510	9
11502	11503	11514	11515	9
11502	11503	11514	7192	9
11502	11503	11504	11508	9
11502	11507	11506	11509	9
11509	11506	11507	11511	9
11510	11502	11507	11511	9
11513	11512	4410	4400	9
11513	11512	4410	4412	9
11515	11514	7192	7182	9
11515	11514	7192	7194	9
9825	9824	9823	9834	9
9828	9824	9823	9834	9
9827	9822	9823	9834	9
9830	9822	9823	9834	9
9834	5938	5931	5930	9
9834	5938	5931	5932	9
9823	9824	9825	9832	9
9828	9824	9825	9832	9
9827	9826	9825	9832	9
9829	9826	9825	9832	9
9832	9842	9836	9839	9
9832	9842	9836	9837	9
9823	9834	5938	5931	9
9823	9834	5938	5940	9
9823	9824	9825	9826	9
9823	9822	9827	9826	9
9823	9822	9827	9831	9
9825	9832	9842	9836	9
9825	9832	9842	9843	9
9822	9823	9824	9825	9
9822	9827	9826	9825	9
9825	9826	9827	9831	9
9824	9823	9834	9835	9
9824	9823	9834	5938	9
9824	9823	9822	9827	9
9824	9823	9822	9830	9
9824	9825	9832	9833	9
9824	9825	9832	9842	9
9824	9825	9826	9827	9
9824	9825	9826	9829	9
9822	9823	9834	9835	9
9822	9823	9834	5938	9
9822	9823	9824	9828	9
9822	9827	9826	9829	9
9826	9825	9832	9833	9
9826	9825	9832	9842	9
9826	9825	9824	9828	9
9826	9827	9822	9830	9
9830	9822	9827	9831	9
9829	9826	9827	9831	9
9835	9834	5938	5931	9
9835	9834	5938	5940	9
9833	9832	9842	9836	9
9833	9832	9842	9843	9
7152	7153	7154	7161	9
7157	7153	7154	7161	9
7156	7155	7154	7161	9
7158	7155	7154	7161	9
7161	10928	10918	10917	9
7161	10928	10918	10921	9
7154	7153	7152	7163	9
7157	7153	7152	7163	9
7156	7151	7152	7163	9
7159	7151	7152	7163	9
7163	7171	7165	7168	9
7163	7171	7165	7166	9
7154	7161	10928	10918	9
7154	7161	10928	10930	9
7151	7152	7153	7154	9
7151	7156	7155	7154	9
7154	7155	7156	7160	9
7152	7163	7171	7165	9
7152	7163	7171	7172	9
7152	7153	7154	7155	9
7152	7151	7156	7155	9
7152	7151	7156	7160	9
7153	7154	7161	7162	9
7153	7154	7161	10928	9
7153	7154	7155	7156	9
7153	7154	7155	7158	9
7153	7152	7163	7164	9
7153	7152	7163	7171	9
7153	7152	7151	7156	9
7153	7152	7151	7159	9
7155	7154	7161	7162	9
7155	7154	7161	10928	9
7155	7154	7153	7157	9
7155	7156	7151	7159	9
7151	7152	7163	7164	9
7151	7152	7163	7171	9
7151	7152	7153	7157	9
7151	7156	7155	7158	9
7158	7155	7156	7160	9
7159	7151	7156	7160	9
7162	7161	10928	10918	9
7162	7161	10928	10930	9
7164	7163	7171	7165	9
7164	7163	7171	7172	9
2799	2800	2801	2808	9
2804	2800	2801	2808	9
2803	2802	2801	2808	9
2805	2802	2801	2808	9
2808	5597	5591	5594	9
2808	5597	5591	5592	9
2801	2800	2799	2810	9
2804	2800	2799	2810	9
2803	2798	2799	2810	9
2806	2798	2799	2810	9
2801	2808	5597	5591	9
2801	2808	5597	5598	9
2798	2799	2800	2801	9
2798	2803	2802	2801	9
2801	2802	2803	2807	9
2799	2800	2801	2802	9
2799	2798	2803	2802	9
2799	2798	2803	2807	9
2800	2801	2808	2809	9
2800	2801	2808	5597	9
2800	2801	2802	2803	9
2800	2801	2802	2805	9
2800	2799	2810	2812	9
2800	2799	2810	2811	9
2800	2799	2798	2803	9
2800	2799	2798	2806	9
2802	2801	2808	2809	9
2802	2801	2808	5597	9
2802	2801	2800	2804	9
2802	2803	2798	2806	9
2798	2799	2810	2812	9
2798	2799	2810	2811	9
2798	2799	2800	2804	9
2798	2803	2802	2805	9
2805	2802	2803	2807	9
2806	2798	2803	2807	9
2809	2808	5597	5591	9
2809	2808	5597	5598	9
9474	9473	9472	9483	9
9477	9473	9472	9483	9
9476	9471	9472	9483	9
9479	9471	9472	9483	9
9483	9491	9485	9488	9
9483	9491	9485	9486	9
9472	9473	9474	9481	9
9477	9473	9474	9481	9
9476	9475	9474	9481	9
9478	9475	9474	9481	9
9481	5267	5257	5256	9
9481	5267	5257	5260	9
9472	9483	9491	9485	9
9472	9483	9491	9492	9
9472	9473	9474	9475	9
9472	9471	9476	9475	9
9472	9471	9476	9480	9
9474	9481	5267	5257	9
9474	9481	5267	5269	9
9471	9472	9473	9474	9
9471	9476	9475	9474	9
9474	9475	9476	9480	9
9473	9472	9483	9484	9
9473	9472	9483	9491	9
9473	9472	9471	9476	9
9473	9472	9471	9479	9
9473	9474	9481	9482	9
9473	9474	9481	5267	9
9473	9474	9475	9476	9
9473	9474	9475	9478	9
9471	9472	9483	9484	9
9471	9472	9483	9491	9
9471	9472	9473	9477	9
9471	9476	9475	9478	9
9475	9474	9481	9482	9
9475	9474	9481	5267	9
9475	9474	9473	9477	9
9475	9476	9471	9479	9
9479	9471	9476	9480	9
9478	9475	9476	9480	9
9484	9483	9491	9485	9
9484	9483	9491	9492	9
9482	9481	5267	5257	9
9482	9481	5267	5269	9
13661	13660	13659	13670	9
13664	13660	13659	13670	9
13663	13658	13659	13670	9
13666	13658	13659	13670	9
1528	1527	1529	13670	9
1526	1527	1529	13670	9
13659	13660	13661	13668	9
13664	13660	13661	13668	9
13663	13662	13661	13668	9
13665	13662	13661	13668	9
13668	10577	10570	10569	9
13668	10577	10570	10571	9
1527	1529	13670	13659	9
1530	1529	13670	13659	9
13659	13660	13661	13662	9
13659	13658	13663	13662	9
13659	13658	13663	13667	9
13661	13668	10577	10570	9
13661	13668	10577	10579	9
13658	13659	13660	13661	9
13658	13663	13662	13661	9
13661	13662	13663	13667	9
13660	13659	13670	13671	9
1529	13670	13659	13660	9
13660	13659	13658	13663	9
13660	13659	13658	13666	9
13660	13661	13668	13669	9
13660	13661	13668	10577	9
13660	13661	13662	13663	9
13660	13661	13662	13665	9
13658	13659	13670	13671	9
1529	13670	13659	13658	9
13658	13659	13660	13664	9
13658	13663	13662	13665	9
13662	13661	13668	13669	9
13662	13661	13668	10577	9
13662	13661	13660	13664	9
13662	13663	13658	13666	9
13666	13658	13663	13667	9
13665	13662	13663	13667	9
1527	1529	13670	13671	9
1530	1529	13670	13671	9
13669	13668	10577	10570	9
13669	13668	10577	10579	9
54	53	52	63	9
57	53	52	63	9
56	51	52	63	9
59	51	52	63	9
2499	2498	2496	63	9
2503	2498	2496	63	9
52	53	54	61	9
57	53	54	61	9
56	55	54	61	9
58	55	54	61	9
41	40	42	61	9
39	40	42	61	9
2498	2496	63	52	9
2497	2496	63	52	9
52	53	54	55	9
52	51	56	55	9
52	51	56	60	9
40	42	61	54	9
43	42	61	54	9
51	52	53	54	9
51	56	55	54	9
54	55	56	60	9
53	52	63	64	9
2496	63	52	53	9
53	52	51	56	9
53	52	51	59	9
53	54	61	62	9
42	61	54	53	9
53	54	55	56	9
53	54	55	58	9
51	52	63	64	9
2496	63	52	51	9
51	52	53	57	9
51	56	55	58	9
55	54	61	62	9
42	61	54	55	9
55	54	53	57	9
55	56	51	59	9
59	51	56	60	9
58	55	56	60	9
2498	2496	63	64	9
2497	2496	63	64	9
40	42	61	62	9
43	42	61	62	9
9533	9532	9531	9542	9
9536	9532	9531	9542	9
9535	9530	9531	9542	9
9538	9530	9531	9542	9
9542	5441	5434	5435	9
9542	5441	5434	5433	9
9531	9532	9533	9540	9
9536	9532	9533	9540	9
9535	9534	9533	9540	9
9537	9534	9533	9540	9
9540	9550	9544	9545	9
9540	9550	9544	9547	9
9531	9542	5441	5434	9
9531	9542	5441	5443	9
9531	9532	9533	9534	9
9531	9530	9535	9534	9
9531	9530	9535	9539	9
9533	9540	9550	9544	9
9533	9540	9550	9551	9
9530	9531	9532	9533	9
9530	9535	9534	9533	9
9533	9534	9535	9539	9
9532	9531	9542	9543	9
9532	9531	9542	5441	9
9532	9531	9530	9535	9
9532	9531	9530	9538	9
9532	9533	9540	9541	9
9532	9533	9540	9550	9
9532	9533	9534	9535	9
9532	9533	9534	9537	9
9530	9531	9542	9543	9
9530	9531	9542	5441	9
9530	9531	9532	9536	9
9530	9535	9534	9537	9
9534	9533	9540	9541	9
9534	9533	9540	9550	9
9534	9533	9532	9536	9
9534	9535	9530	9538	9
9538	9530	9535	9539	9
9537	9534	9535	9539	9
9543	9542	5441	5434	9
9543	9542	5441	5443	9
9541	9540	9550	9544	9
9541	9540	9550	9551	9
4183	4182	4181	4192	9
4186	4182	4181	4192	9
4185	4180	4181	4192	9
4188	4180	4181	4192	9
4192	10343	10333	10332	9
4192	10343	10333	10336	9
4181	4182	4183	4190	9
4186	4182	4183	4190	9
4185	4184	4183	4190	9
4187	4184	4183	4190	9
4190	4200	4194	4197	9
4190	4200	4194	4195	9
4181	4192	10343	10333	9
4181	4192	10343	10345	9
4181	4182	4183	4184	9
4181	4180	4185	4184	9
4181	4180	4185	4189	9
4183	4190	4200	4194	9
4183	4190	4200	4201	9
4180	4181	4182	4183	9
4180	4185	4184	4183	9
4183	4184	4185	4189	9
4182	4181	4192	4193	9
4182	4181	4192	10343	9
4182	4181	4180	4185	9
4182	4181	4180	4188	9
4182	4183	4190	4191	9
4182	4183	4190	4200	9
4182	4183	4184	4185	9
4182	4183	4184	4187	9
4180	4181	4192	4193	9
4180	4181	4192	10343	9
4180	4181	4182	4186	9
4180	4185	4184	4187	9
4184	4183	4190	4191	9
4184	4183	4190	4200	9
4184	4183	4182	4186	9
4184	4185	4180	4188	9
4188	4180	4185	4189	9
4187	4184	4185	4189	9
4193	4192	10343	10333	9
4193	4192	10343	10345	9
4191	4190	4200	4194	9
4191	4190	4200	4201	9
11253	11252	11251	11262	9
11256	11252	11251	11262	9
11255	11250	11251	11262	9
11258	11250	11251	11262	9
11262	4002	3995	3994	9
11262	4002	3995	3996	9
11251	11252	11253	11260	9
11256	11252	11253	11260	9
11255	11254	11253	11260	9
11257	11254	11253	11260	9
11260	10402	10392	10395	9
11260	10402	10392	10391	9
11251	11262	4002	3995	9
11251	11262	4002	4004	9
11251	11252	11253	11254	9
11251	11250	11255	11254	9
11251	11250	11255	11259	9
11253	11260	10402	10392	9
11253	11260	10402	10404	9
11250	11251	11252	11253	9
11250	11255	11254	11253	9
11253	11254	11255	11259	9
11252	11251	11262	11263	9
11252	11251	11262	4002	9
11252	11251	11250	11255	9
11252	11251	11250	11258	9
11252	11253	11260	11261	9
11252	11253	11260	10402	9
11252	11253	11254	11255	9
11252	11253	11254	11257	9
11250	11251	11262	11263	9
11250	11251	11262	4002	9
11250	11251	11252	11256	9
11250	11255	11254	11257	9
11254	11253	11260	11261	9
11254	11253	11260	10402	9
11254	11253	11252	11256	9
11254	11255	11250	11258	9
11258	11250	11255	11259	9
11257	11254	11255	11259	9
11263	11262	4002	3995	9
11263	11262	4002	4004	9
11261	11260	10402	10392	9
11261	11260	10402	10404	9
12219	12218	12217	12228	9
12222	12218	12217	12228	9
12221	12216	12217	12228	9
12224	12216	12217	12228	9
12228	9717	9707	9706	9
12228	9717	9707	9710	9
12217	12218	12219	12226	9
12222	12218	12219	12226	9
12221	12220	12219	12226	9
12223	12220	12219	12226	9
12226	5705	5695	5694	9
12226	5705	5695	5698	9
12217	12228	9717	9707	9
12217	12228	9717	9719	9
12217	12218	12219	12220	9
12217	12216	12221	12220	9
12217	12216	12221	12225	9
12219	12226	5705	5695	9
12219	12226	5705	5707	9
12216	12217	12218	12219	9
12216	12221	12220	12219	9
12219	12220	12221	12225	9
12218	12217	12228	12229	9
12218	12217	12228	9717	9
12218	12217	12216	12221	9
12218	12217	12216	12224	9
12218	12219	12226	12227	9
12218	12219	12226	5705	9
12218	12219	12220	12221	9
12218	12219	12220	12223	9
12216	12217	12228	12229	9
12216	12217	12228	9717	9
12216	12217	12218	12222	9
12216	12221	12220	12223	9
12220	12219	12226	12227	9
12220	12219	12226	5705	9
12220	12219	12218	12222	9
12220	12221	12216	12224	9
12224	12216	12221	12225	9
12223	12220	12221	12225	9
12229	12228	9717	9707	9
12229	12228	9717	9719	9
12227	12226	5705	5695	9
12227	12226	5705	5707	9
11309	11308	11307	11318	9
11312	11308	11307	11318	9
11311	11306	11307	11318	9
11314	11306	11307	11318	9
11318	4090	4080	4079	9
11318	4090	4080	4083	9
11307	11308	11309	11316	9
11312	11308	11309	11316	9
11311	11310	11309	11316	9
11313	11310	11309	11316	9
11316	7818	7808	7807	9
11316	7818	7808	7811	9
11307	11318	4090	4080	9
11307	11318	4090	4092	9
11307	11308	11309	11310	9
11307	11306	11311	11310	9
11307	11306	11311	11315	9
11309	11316	7818	7808	9
11309	11316	7818	7820	9
11306	11307	11308	11309	9
11306	11311	11310	11309	9
11309	11310	11311	11315	9
11308	11307	11318	11319	9
11308	11307	11318	4090	9
11308	11307	11306	11311	9
11308	11307	11306	11314	9
11308	11309	11316	11317	9
11308	11309	11316	7818	9
11308	11309	11310	11311	9
11308	11309	11310	11313	9
11306	11307	11318	11319	9
11306	11307	11318	4090	9
11306	11307	11308	11312	9
11306	11311	11310	11313	9
11310	11309	11316	11317	9
11310	11309	11316	7818	9
11310	11309	11308	11312	9
11310	11311	11306	11314	9
11314	11306	11311	11315	9
11313	11310	11311	11315	9
11319	11318	4090	4080	9
11319	11318	4090	4092	9
11317	11316	7818	7808	9
11317	11316	7818	7820	9
7997	7998	7999	8006	9
8002	7998	7999	8006	9
8001	8000	7999	8006	9
8003	8000	7999	8006	9
8006	8016	8010	8011	9
8006	8016	8010	8013	9
7999	7998	7997	8008	9
8002	7998	7997	8008	9
8001	7996	7997	8008	9
8004	7996	7997	8008	9
8008	7119	7109	7112	9
8008	7119	7109	7108	9
7999	8006	8016	8010	9
7999	8006	8016	8017	9
7999	7998	7997	7996	9
7999	8000	8001	7996	9
7999	8000	8001	8005	9
7997	8008	7119	7109	9
7997	8008	7119	7121	9
8000	7999	7998	7997	9
8000	8001	7996	7997	9
7997	7996	8001	8005	9
7998	7999	8006	8007	9
7998	7999	8006	8016	9
7998	7999	8000	8001	9
7998	7999	8000	8003	9
7998	7997	8008	8009	9
7998	7997	8008	7119	9
7998	7997	7996	8001	9
7998	7997	7996	8004	9
8000	7999	8006	8007	9
8000	7999	8006	8016	9
8000	7999	7998	8002	9
8000	8001	7996	8004	9
7996	7997	8008	8009	9
7996	7997	8008	7119	9
7996	7997	7998	8002	9
7996	8001	8000	8003	9
8003	8000	8001	8005	9
8004	7996	8001	8005	9
8007	8006	8016	8010	9
8007	8006	8016	8017	9
8009	8008	7119	7109	9
8009	8008	7119	7121	9
9767	9766	9765	9776	9
9770	9766	9765	9776	9
9769	9764	9765	9776	9
9772	9764	9765	9776	9
9776	9784	9778	9779	9
9776	9784	9778	9781	9
9765	9766	9767	9774	9
9770	9766	9767	9774	9
9769	9768	9767	9774	9
9771	9768	9767	9774	9
9774	10337	10331	10332	9
9774	10337	10331	10334	9
9765	9776	9784	9778	9
9765	9776	9784	9785	9
9765	9766	9767	9768	9
9765	9764	9769	9768	9
9765	9764	9769	9773	9
9767	9774	10337	10331	9
9767	9774	10337	10338	9
9764	9765	9766	9767	9
9764	9769	9768	9767	9
9767	9768	9769	9773	9
9766	9765	9776	9777	9
9766	9765	9776	9784	9
9766	9765	9764	9769	9
9766	9765	9764	9772	9
9766	9767	9774	9775	9
9766	9767	9774	10337	9
9766	9767	9768	9769	9
9766	9767	9768	9771	9
9764	9765	9776	9777	9
9764	9765	9776	9784	9
9764	9765	9766	9770	9
9764	9769	9768	9771	9
9768	9767	9774	9775	9
9768	9767	9774	10337	9
9768	9767	9766	9770	9
9768	9769	9764	9772	9
9772	9764	9769	9773	9
9771	9768	9769	9773	9
9777	9776	9784	9778	9
9777	9776	9784	9785	9
9775	9774	10337	10331	9
9775	9774	10337	10338	9
13731	13730	13729	13740	9
13734	13730	13729	13740	9
13733	13728	13729	13740	9
13736	13728	13729	13740	9
1344	1345	1347	13740	9
1346	1345	1347	13740	9
13729	13730	13731	13738	9
13734	13730	13731	13738	9
13733	13732	13731	13738	9
13735	13732	13731	13738	9
1619	1618	1620	13738	9
1617	1618	1620	13738	9
1345	1347	13740	13729	9
1348	1347	13740	13729	9
13729	13730	13731	13732	9
13729	13728	13733	13732	9
13729	13728	13733	13737	9
1618	1620	13738	13731	9
1621	1620	13738	13731	9
13728	13729	13730	13731	9
13728	13733	13732	13731	9
13731	13732	13733	13737	9
13730	13729	13740	13741	9
1347	13740	13729	13730	9
13730	13729	13728	13733	9
13730	13729	13728	13736	9
13730	13731	13738	13739	9
1620	13738	13731	13730	9
13730	13731	13732	13733	9
13730	13731	13732	13735	9
13728	13729	13740	13741	9
1347	13740	13729	13728	9
13728	13729	13730	13734	9
13728	13733	13732	13735	9
13732	13731	13738	13739	9
1620	13738	13731	13732	9
13732	13731	13730	13734	9
13732	13733	13728	13736	9
13736	13728	13733	13737	9
13735	13732	13733	13737	9
1345	1347	13740	13741	9
1348	1347	13740	13741	9
1618	1620	13738	13739	9
1621	1620	13738	13739	9
8906	8905	8904	8915	9
8909	8905	8904	8915	9
8908	8903	8904	8915	9
8911	8903	8904	8915	9
8915	8923	8917	8920	9
8915	8923	8917	8918	9
8904	8905	8906	8913	9
8909	8905	8906	8913	9
8908	8907	8906	8913	9
8910	8907	8906	8913	9
8913	8490	8483	8484	9
8913	8490	8483	8482	9
8904	8915	8923	8917	9
8904	8915	8923	8924	9
8904	8905	8906	8907	9
8904	8903	8908	8907	9
8904	8903	8908	8912	9
8906	8913	8490	8483	9
8906	8913	8490	8492	9
8903	8904	8905	8906	9
8903	8908	8907	8906	9
8906	8907	8908	8912	9
8905	8904	8915	8916	9
8905	8904	8915	8923	9
8905	8904	8903	8908	9
8905	8904	8903	8911	9
8905	8906	8913	8914	9
8905	8906	8913	8490	9
8905	8906	8907	8908	9
8905	8906	8907	8910	9
8903	8904	8915	8916	9
8903	8904	8915	8923	9
8903	8904	8905	8909	9
8903	8908	8907	8910	9
8907	8906	8913	8914	9
8907	8906	8913	8490	9
8907	8906	8905	8909	9
8907	8908	8903	8911	9
8911	8903	8908	8912	9
8910	8907	8908	8912	9
8916	8915	8923	8917	9
8916	8915	8923	8924	9
8914	8913	8490	8483	9
8914	8913	8490	8492	9
10377	10378	10379	10386	9
10382	10378	10379	10386	9
10381	10380	10379	10386	9
10383	10380	10379	10386	9
10386	10396	10390	10393	9
10386	10396	10390	10391	9
10379	10378	10377	10388	9
10382	10378	10377	10388	9
10381	10376	10377	10388	9
10384	10376	10377	10388	9
10388	11032	11022	11021	9
10388	11032	11022	11025	9
10379	10386	10396	10390	9
10379	10386	10396	10397	9
10376	10377	10378	10379	9
10376	10381	10380	10379	9
10379	10380	10381	10385	9
10377	10388	11032	11022	9
10377	10388	11032	11034	9
10377	10378	10379	10380	9
10377	10376	10381	10380	9
10377	10376	10381	10385	9
10378	10379	10386	10387	9
10378	10379	10386	10396	9
10378	10379	10380	10381	9
10378	10379	10380	10383	9
10378	10377	10388	10389	9
10378	10377	10388	11032	9
10378	10377	10376	10381	9
10378	10377	10376	10384	9
10380	10379	10386	10387	9
10380	10379	10386	10396	9
10380	10379	10378	10382	9
10380	10381	10376	10384	9
10376	10377	10388	10389	9
10376	10377	10388	11032	9
10376	10377	10378	10382	9
10376	10381	10380	10383	9
10383	10380	10381	10385	9
10384	10376	10381	10385	9
10387	10386	10396	10390	9
10387	10386	10396	10397	9
10389	10388	11032	11022	9
10389	10388	11032	11034	9
4895	4894	4893	4904	9
4898	4894	4893	4904	9
4897	4892	4893	4904	9
4900	4892	4893	4904	9
4904	4912	4906	4907	9
4904	4912	4906	4909	9
4893	4894	4895	4902	9
4898	4894	4895	4902	9
4897	4896	4895	4902	9
4899	4896	4895	4902	9
4902	11031	11024	11025	9
4902	11031	11024	11023	9
4893	4904	4912	4906	9
4893	4904	4912	4913	9
4893	4894	4895	4896	9
4893	4892	4897	4896	9
4893	4892	4897	4901	9
4895	4902	11031	11024	9
4895	4902	11031	11033	9
4892	4893	4894	4895	9
4892	4897	4896	4895	9
4895	4896	4897	4901	9
4894	4893	4904	4905	9
4894	4893	4904	4912	9
4894	4893	4892	4897	9
4894	4893	4892	4900	9
4894	4895	4902	4903	9
4894	4895	4902	11031	9
4894	4895	4896	4897	9
4894	4895	4896	4899	9
4892	4893	4904	4905	9
4892	4893	4904	4912	9
4892	4893	4894	4898	9
4892	4897	4896	4899	9
4896	4895	4902	4903	9
4896	4895	4902	11031	9
4896	4895	4894	4898	9
4896	4897	4892	4900	9
4900	4892	4897	4901	9
4899	4896	4897	4901	9
4905	4904	4912	4906	9
4905	4904	4912	4913	9
4903	4902	11031	11024	9
4903	4902	11031	11033	9
3009	3010	3011	3018	9
3014	3010	3011	3018	9
3013	3012	3011	3018	9
3015	3012	3011	3018	9
3018	7396	7386	7389	9
3018	7396	7386	7385	9
3011	3010	3009	3020	9
3014	3010	3009	3020	9
3013	3008	3009	3020	9
3016	3008	3009	3020	9
3011	3018	7396	7386	9
3011	3018	7396	7398	9
3008	3009	3010	3011	9
3008	3013	3012	3011	9
3011	3012	3013	3017	9
3009	3010	3011	3012	9
3009	3008	3013	3012	9
3009	3008	3013	3017	9
3010	3011	3018	3019	9
3010	3011	3018	7396	9
3010	3011	3012	3013	9
3010	3011	3012	3015	9
3010	3009	3020	3021	9
3010	3009	3020	3022	9
3010	3009	3008	3013	9
3010	3009	3008	3016	9
3012	3011	3018	3019	9
3012	3011	3018	7396	9
3012	3011	3010	3014	9
3012	3013	3008	3016	9
3008	3009	3020	3021	9
3008	3009	3020	3022	9
3008	3009	3010	3014	9
3008	3013	3012	3015	9
3015	3012	3013	3017	9
3016	3008	3013	3017	9
3019	3018	7396	7386	9
3019	3018	7396	7398	9
10905	10904	10903	10914	9
10908	10904	10903	10914	9
10907	10902	10903	10914	9
10910	10902	10903	10914	9
10914	10328	10318	10317	9
10914	10328	10318	10321	9
10903	10904	10905	10912	9
10908	10904	10905	10912	9
10907	10906	10905	10912	9
10909	10906	10905	10912	9
10912	10922	10916	10917	9
10912	10922	10916	10919	9
10903	10914	10328	10318	9
10903	10914	10328	10330	9
10903	10904	10905	10906	9
10903	10902	10907	10906	9
10903	10902	10907	10911	9
10905	10912	10922	10916	9
10905	10912	10922	10923	9
10902	10903	10904	10905	9
10902	10907	10906	10905	9
10905	10906	10907	10911	9
10904	10903	10914	10915	9
10904	10903	10914	10328	9
10904	10903	10902	10907	9
10904	10903	10902	10910	9
10904	10905	10912	10913	9
10904	10905	10912	10922	9
10904	10905	10906	10907	9
10904	10905	10906	10909	9
10902	10903	10914	10915	9
10902	10903	10914	10328	9
10902	10903	10904	10908	9
10902	10907	10906	10909	9
10906	10905	10912	10913	9
10906	10905	10912	10922	9
10906	10905	10904	10908	9
10906	10907	10902	10910	9
10910	10902	10907	10911	9
10909	10906	10907	10911	9
10915	10914	10328	10318	9
10915	10914	10328	10330	9
10913	10912	10922	10916	9
10913	10912	10922	10923	9
11911	11910	11909	11920	9
11914	11910	11909	11920	9
11913	11908	11909	11920	9
11916	11908	11909	11920	9
2104	2105	2107	11920	9
2106	2105	2107	11920	9
11909	11910	11911	11918	9
11914	11910	11911	11918	9
11913	11912	11911	11918	9
11915	11912	11911	11918	9
11918	5121	5114	5113	9
11918	5121	5114	5115	9
2105	2107	11920	11909	9
2108	2107	11920	11909	9
11909	11910	11911	11912	9
11909	11908	11913	11912	9
11909	11908	11913	11917	9
11911	11918	5121	5114	9
11911	11918	5121	5123	9
11908	11909	11910	11911	9
11908	11913	11912	11911	9
11911	11912	11913	11917	9
11910	11909	11920	11921	9
2107	11920	11909	11910	9
11910	11909	11908	11913	9
11910	11909	11908	11916	9
11910	11911	11918	11919	9
11910	11911	11918	5121	9
11910	11911	11912	11913	9
11910	11911	11912	11915	9
11908	11909	11920	11921	9
2107	11920	11909	11908	9
11908	11909	11910	11914	9
11908	11913	11912	11915	9
11912	11911	11918	11919	9
11912	11911	11918	5121	9
11912	11911	11910	11914	9
11912	11913	11908	11916	9
11916	11908	11913	11917	9
11915	11912	11913	11917	9
2105	2107	11920	11921	9
2108	2107	11920	11921	9
11919	11918	5121	5114	9
11919	11918	5121	5123	9
8568	8569	8570	8577	9
8573	8569	8570	8577	9
8572	8571	8570	8577	9
8574	8571	8570	8577	9
8577	8587	8581	8584	9
8577	8587	8581	8582	9
8570	8569	8568	8579	9
8573	8569	8568	8579	9
8572	8567	8568	8579	9
8575	8567	8568	8579	9
8579	6012	6002	6005	9
8579	6012	6002	6001	9
8570	8577	8587	8581	9
8570	8577	8587	8588	9
8570	8569	8568	8567	9
8570	8571	8572	8567	9
8570	8571	8572	8576	9
8568	8579	6012	6002	9
8568	8579	6012	6014	9
8571	8570	8569	8568	9
8571	8572	8567	8568	9
8568	8567	8572	8576	9
8569	8570	8577	8578	9
8569	8570	8577	8587	9
8569	8570	8571	8572	9
8569	8570	8571	8574	9
8569	8568	8579	8580	9
8569	8568	8579	6012	9
8569	8568	8567	8572	9
8569	8568	8567	8575	9
8571	8570	8577	8578	9
8571	8570	8577	8587	9
8571	8570	8569	8573	9
8571	8572	8567	8575	9
8567	8568	8579	8580	9
8567	8568	8579	6012	9
8567	8568	8569	8573	9
8567	8572	8571	8574	9
8574	8571	8572	8576	9
8575	8567	8572	8576	9
8578	8577	8587	8581	9
8578	8577	8587	8588	9
8580	8579	6012	6002	9
8580	8579	6012	6014	9
3266	3265	3264	3275	9
3269	3265	3264	3275	9
3268	3263	3264	3275	9
3271	3263	3264	3275	9
3264	3265	3266	3273	9
3269	3265	3266	3273	9
3268	3267	3266	3273	9
3270	3267	3266	3273	9
3273	8938	8932	8935	9
3273	8938	8932	8933	9
3264	3265	3266	3267	9
3264	3263	3268	3267	9
3264	3263	3268	3272	9
3266	3273	8938	8932	9
3266	3273	8938	8939	9
3263	3264	3265	3266	9
3263	3268	3267	3266	9
3266	3267	3268	3272	9
3265	3264	3275	3277	9
3265	3264	3275	3276	9
3265	3264	3263	3268	9
3265	3264	3263	3271	9
3265	3266	3273	3274	9
3265	3266	3273	8938	9
3265	3266	3267	3268	9
3265	3266	3267	3270	9
3263	3264	3275	3277	9
3263	3264	3275	3276	9
3263	3264	3265	3269	9
3263	3268	3267	3270	9
3267	3266	3273	3274	9
3267	3266	3273	8938	9
3267	3266	3265	3269	9
3267	3268	3263	3271	9
3271	3263	3268	3272	9
3270	3267	3268	3272	9
3274	3273	8938	8932	9
3274	3273	8938	8939	9
3191	3190	3189	3200	9
3194	3190	3189	3200	9
3193	3188	3189	3200	9
3196	3188	3189	3200	9
3189	3190	3191	3198	9
3194	3190	3191	3198	9
3193	3192	3191	3198	9
3195	3192	3191	3198	9
3198	8529	8523	8524	9
3198	8529	8523	8526	9
3189	3190	3191	3192	9
3189	3188	3193	3192	9
3189	3188	3193	3197	9
3191	3198	8529	8523	9
3191	3198	8529	8530	9
3188	3189	3190	3191	9
3188	3193	3192	3191	9
3191	3192	3193	3197	9
3190	3189	3200	3202	9
3190	3189	3200	3201	9
3190	3189	3188	3193	9
3190	3189	3188	3196	9
3190	3191	3198	3199	9
3190	3191	3198	8529	9
3190	3191	3192	3193	9
3190	3191	3192	3195	9
3188	3189	3200	3202	9
3188	3189	3200	3201	9
3188	3189	3190	3194	9
3188	3193	3192	3195	9
3192	3191	3198	3199	9
3192	3191	3198	8529	9
3192	3191	3190	3194	9
3192	3193	3188	3196	9
3196	3188	3193	3197	9
3195	3192	3193	3197	9
3199	3198	8529	8523	9
3199	3198	8529	8530	9
2814	2815	2816	2823	9
2819	2815	2816	2823	9
2818	2817	2816	2823	9
2820	2817	2816	2823	9
2823	5602	5595	5594	9
2823	5602	5595	5596	9
2816	2815	2814	2825	9
2819	2815	2814	2825	9
2818	2813	2814	2825	9
2821	2813	2814	2825	9
2816	2823	5602	5595	9
2816	2823	5602	5604	9
2813	2814	2815	2816	9
2813	2818	2817	2816	9
2816	2817	2818	2822	9
2814	2815	2816	2817	9
2814	2813	2818	2817	9
2814	2813	2818	2822	9
2815	2816	2823	2824	9
2815	2816	2823	5602	9
2815	2816	2817	2818	9
2815	2816	2817	2820	9
2815	2814	2825	2826	9
2815	2814	2825	2827	9
2815	2814	2813	2818	9
2815	2814	2813	2821	9
2817	2816	2823	2824	9
2817	2816	2823	5602	9
2817	2816	2815	2819	9
2817	2818	2813	2821	9
2813	2814	2825	2826	9
2813	2814	2825	2827	9
2813	2814	2815	2819	9
2813	2818	2817	2820	9
2820	2817	2818	2822	9
2821	2813	2818	2822	9
2824	2823	5602	5595	9
2824	2823	5602	5604	9
13367	13366	13365	13376	9
13370	13366	13365	13376	9
13369	13364	13365	13376	9
13372	13364	13365	13376	9
13376	8534	8527	8526	9
13376	8534	8527	8528	9
13365	13366	13367	13374	9
13370	13366	13367	13374	9
13369	13368	13367	13374	9
13371	13368	13367	13374	9
13374	8389	8379	8378	9
13374	8389	8379	8382	9
13365	13376	8534	8527	9
13365	13376	8534	8536	9
13365	13366	13367	13368	9
13365	13364	13369	13368	9
13365	13364	13369	13373	9
13367	13374	8389	8379	9
13367	13374	8389	8391	9
13364	13365	13366	13367	9
13364	13369	13368	13367	9
13367	13368	13369	13373	9
13366	13365	13376	13377	9
13366	13365	13376	8534	9
13366	13365	13364	13369	9
13366	13365	13364	13372	9
13366	13367	13374	13375	9
13366	13367	13374	8389	9
13366	13367	13368	13369	9
13366	13367	13368	13371	9
13364	13365	13376	13377	9
13364	13365	13376	8534	9
13364	13365	13366	13370	9
13364	13369	13368	13371	9
13368	13367	13374	13375	9
13368	13367	13374	8389	9
13368	13367	13366	13370	9
13368	13369	13364	13372	9
13372	13364	13369	13373	9
13371	13368	13369	13373	9
13377	13376	8534	8527	9
13377	13376	8534	8536	9
13375	13374	8389	8379	9
13375	13374	8389	8391	9
3116	3115	3114	3125	9
3119	3115	3114	3125	9
3118	3113	3114	3125	9
3121	3113	3114	3125	9
3114	3115	3116	3123	9
3119	3115	3116	3123	9
3118	3117	3116	3123	9
3120	3117	3116	3123	9
3123	8095	8085	8084	9
3123	8095	8085	8088	9
3114	3115	3116	3117	9
3114	3113	3118	3117	9
3114	3113	3118	3122	9
3116	3123	8095	8085	9
3116	3123	8095	8097	9
3113	3114	3115	3116	9
3113	3118	3117	3116	9
3116	3117	3118	3122	9
3115	3114	3125	3126	9
3115	3114	3125	3127	9
3115	3114	3113	3118	9
3115	3114	3113	3121	9
3115	3116	3123	3124	9
3115	3116	3123	8095	9
3115	3116	3117	3118	9
3115	3116	3117	3120	9
3113	3114	3125	3126	9
3113	3114	3125	3127	9
3113	3114	3115	3119	9
3113	3118	3117	3120	9
3117	3116	3123	3124	9
3117	3116	3123	8095	9
3117	3116	3115	3119	9
3117	3118	3113	3121	9
3121	3113	3118	3122	9
3120	3117	3118	3122	9
3124	3123	8095	8085	9
3124	3123	8095	8097	9
2346	2345	2344	2355	9
2349	2345	2344	2355	9
2348	2343	2344	2355	9
2351	2343	2344	2355	9
2360	2359	2357	2355	9
2364	2359	2357	2355	9
2344	2345	2346	2353	9
2349	2345	2346	2353	9
2348	2347	2346	2353	9
2350	2347	2346	2353	9
2353	6011	6004	6003	9
2353	6011	6004	6005	9
2359	2357	2355	2344	9
2358	2357	2355	2344	9
2344	2345	2346	2347	9
2344	2343	2348	2347	9
2344	2343	2348	2352	9
2346	2353	6011	6004	9
2346	2353	6011	6013	9
2343	2344	2345	2346	9
2343	2348	2347	2346	9
2346	2347	2348	2352	9
2345	2344	2355	2356	9
2357	2355	2344	2345	9
2345	2344	2343	2348	9
2345	2344	2343	2351	9
2345	2346	2353	2354	9
2345	2346	2353	6011	9
2345	2346	2347	2348	9
2345	2346	2347	2350	9
2343	2344	2355	2356	9
2357	2355	2344	2343	9
2343	2344	2345	2349	9
2343	2348	2347	2350	9
2347	2346	2353	2354	9
2347	2346	2353	6011	9
2347	2346	2345	2349	9
2347	2348	2343	2351	9
2351	2343	2348	2352	9
2350	2347	2348	2352	9
2359	2357	2355	2356	9
2358	2357	2355	2356	9
2354	2353	6011	6004	9
2354	2353	6011	6013	9
10000	9999	9998	10009	9
10003	9999	9998	10009	9
10002	9997	9998	10009	9
10005	9997	9998	10009	9
10009	10017	10011	10014	9
10009	10017	10011	10012	9
9998	9999	10000	10007	9
10003	9999	10000	10007	9
10002	10001	10000	10007	9
10004	10001	10000	10007	9
10007	11026	11020	11021	9
10007	11026	11020	11023	9
9998	10009	10017	10011	9
9998	10009	10017	10018	9
9998	9999	10000	10001	9
9998	9997	10002	10001	9
9998	9997	10002	10006	9
10000	10007	11026	11020	9
10000	10007	11026	11027	9
9997	9998	9999	10000	9
9997	10002	10001	10000	9
10000	10001	10002	10006	9
9999	9998	10009	10010	9
9999	9998	10009	10017	9
9999	9998	9997	10002	9
9999	9998	9997	10005	9
9999	10000	10007	10008	9
9999	10000	10007	11026	9
9999	10000	10001	10002	9
9999	10000	10001	10004	9
9997	9998	10009	10010	9
9997	9998	10009	10017	9
9997	9998	9999	10003	9
9997	10002	10001	10004	9
10001	10000	10007	10008	9
10001	10000	10007	11026	9
10001	10000	9999	10003	9
10001	10002	9997	10005	9
10005	9997	10002	10006	9
10004	10001	10002	10006	9
10010	10009	10017	10011	9
10010	10009	10017	10018	9
10008	10007	11026	11020	9
10008	10007	11026	11027	9
5157	5156	5155	5166	9
5160	5156	5155	5166	9
5159	5154	5155	5166	9
5162	5154	5155	5166	9
5166	7337	7327	7326	9
5166	7337	7327	7330	9
5155	5156	5157	5164	9
5160	5156	5157	5164	9
5159	5158	5157	5164	9
5161	5158	5157	5164	9
5164	5174	5168	5171	9
5164	5174	5168	5169	9
5155	5166	7337	7327	9
5155	5166	7337	7339	9
5155	5156	5157	5158	9
5155	5154	5159	5158	9
5155	5154	5159	5163	9
5157	5164	5174	5168	9
5157	5164	5174	5175	9
5154	5155	5156	5157	9
5154	5159	5158	5157	9
5157	5158	5159	5163	9
5156	5155	5166	5167	9
5156	5155	5166	7337	9
5156	5155	5154	5159	9
5156	5155	5154	5162	9
5156	5157	5164	5165	9
5156	5157	5164	5174	9
5156	5157	5158	5159	9
5156	5157	5158	5161	9
5154	5155	5166	5167	9
5154	5155	5166	7337	9
5154	5155	5156	5160	9
5154	5159	5158	5161	9
5158	5157	5164	5165	9
5158	5157	5164	5174	9
5158	5157	5156	5160	9
5158	5159	5154	5162	9
5162	5154	5159	5163	9
5161	5158	5159	5163	9
5167	5166	7337	7327	9
5167	5166	7337	7339	9
5165	5164	5174	5168	9
5165	5164	5174	5175	9
11447	11448	11449	11456	9
11452	11448	11449	11456	9
11451	11450	11449	11456	9
11453	11450	11449	11456	9
551	552	554	11456	9
553	552	554	11456	9
11449	11448	11447	11458	9
11452	11448	11447	11458	9
11451	11446	11447	11458	9
11454	11446	11447	11458	9
11458	4307	4300	4299	9
11458	4307	4300	4301	9
552	554	11456	11449	9
555	554	11456	11449	9
11446	11447	11448	11449	9
11446	11451	11450	11449	9
11449	11450	11451	11455	9
11447	11458	4307	4300	9
11447	11458	4307	4309	9
11447	11448	11449	11450	9
11447	11446	11451	11450	9
11447	11446	11451	11455	9
11448	11449	11456	11457	9
554	11456	11449	11448	9
11448	11449	11450	11451	9
11448	11449	11450	11453	9
11448	11447	11458	11459	9
11448	11447	11458	4307	9
11448	11447	11446	11451	9
11448	11447	11446	11454	9
11450	11449	11456	11457	9
554	11456	11449	11450	9
11450	11449	11448	11452	9
11450	11451	11446	11454	9
11446	11447	11458	11459	9
11446	11447	11458	4307	9
11446	11447	11448	11452	9
11446	11451	11450	11453	9
11453	11450	11451	11455	9
11454	11446	11451	11455	9
552	554	11456	11457	9
555	554	11456	11457	9
11459	11458	4307	4300	9
11459	11458	4307	4309	9
4997	4996	4995	5006	9
5000	4996	4995	5006	9
4999	4994	4995	5006	9
5002	4994	4995	5006	9
5006	5014	5008	5009	9
5006	5014	5008	5011	9
4995	4996	4997	5004	9
5000	4996	4997	5004	9
4999	4998	4997	5004	9
5001	4998	4997	5004	9
5004	8329	8322	8321	9
5004	8329	8322	8323	9
4995	5006	5014	5008	9
4995	5006	5014	5015	9
4995	4996	4997	4998	9
4995	4994	4999	4998	9
4995	4994	4999	5003	9
4997	5004	8329	8322	9
4997	5004	8329	8331	9
4994	4995	4996	4997	9
4994	4999	4998	4997	9
4997	4998	4999	5003	9
4996	4995	5006	5007	9
4996	4995	5006	5014	9
4996	4995	4994	4999	9
4996	4995	4994	5002	9
4996	4997	5004	5005	9
4996	4997	5004	8329	9
4996	4997	4998	4999	9
4996	4997	4998	5001	9
4994	4995	5006	5007	9
4994	4995	5006	5014	9
4994	4995	4996	5000	9
4994	4999	4998	5001	9
4998	4997	5004	5005	9
4998	4997	5004	8329	9
4998	4997	4996	5000	9
4998	4999	4994	5002	9
5002	4994	4999	5003	9
5001	4998	4999	5003	9
5007	5006	5014	5008	9
5007	5006	5014	5015	9
5005	5004	8329	8322	9
5005	5004	8329	8331	9
278	277	276	287	9
281	277	276	287	9
280	275	276	287	9
283	275	276	287	9
265	264	266	287	9
263	264	266	287	9
276	277	278	285	9
281	277	278	285	9
280	279	278	285	9
282	279	278	285	9
285	5880	5870	5873	9
285	5880	5870	5869	9
264	266	287	276	9
267	266	287	276	9
276	277	278	279	9
276	275	280	279	9
276	275	280	284	9
278	285	5880	5870	9
278	285	5880	5882	9
275	276	277	278	9
275	280	279	278	9
278	279	280	284	9
277	276	287	288	9
266	287	276	277	9
277	276	275	280	9
277	276	275	283	9
277	278	285	286	9
277	278	285	5880	9
277	278	279	280	9
277	278	279	282	9
275	276	287	288	9
266	287	276	275	9
275	276	277	281	9
275	280	279	282	9
279	278	285	286	9
279	278	285	5880	9
279	278	277	281	9
279	280	275	283	9
283	275	280	284	9
282	279	280	284	9
264	266	287	288	9
267	266	287	288	9
286	285	5880	5870	9
286	285	5880	5882	9
11951	11952	11953	11960	9
11956	11952	11953	11960	9
11955	11954	11953	11960	9
11957	11954	11953	11960	9
919	918	920	11960	9
917	918	920	11960	9
11953	11952	11951	11962	9
11956	11952	11951	11962	9
11955	11950	11951	11962	9
11958	11950	11951	11962	9
11962	5238	5228	5227	9
11962	5238	5228	5231	9
918	920	11960	11953	9
921	920	11960	11953	9
11950	11951	11952	11953	9
11950	11955	11954	11953	9
11953	11954	11955	11959	9
11951	11962	5238	5228	9
11951	11962	5238	5240	9
11951	11952	11953	11954	9
11951	11950	11955	11954	9
11951	11950	11955	11959	9
11952	11953	11960	11961	9
920	11960	11953	11952	9
11952	11953	11954	11955	9
11952	11953	11954	11957	9
11952	11951	11962	11963	9
11952	11951	11962	5238	9
11952	11951	11950	11955	9
11952	11951	11950	11958	9
11954	11953	11960	11961	9
920	11960	11953	11954	9
11954	11953	11952	11956	9
11954	11955	11950	11958	9
11950	11951	11962	11963	9
11950	11951	11962	5238	9
11950	11951	11952	11956	9
11950	11955	11954	11957	9
11957	11954	11955	11959	9
11958	11950	11955	11959	9
918	920	11960	11961	9
921	920	11960	11961	9
11963	11962	5238	5228	9
11963	11962	5238	5240	9
4154	4153	4152	4163	9
4157	4153	4152	4163	9
4156	4151	4152	4163	9
4159	4151	4152	4163	9
4163	4171	4165	4166	9
4163	4171	4165	4168	9
4152	4153	4154	4161	9
4157	4153	4154	4161	9
4156	4155	4154	4161	9
4158	4155	4154	4161	9
4161	7920	7910	7909	9
4161	7920	7910	7913	9
4152	4163	4171	4165	9
4152	4163	4171	4172	9
4152	4153	4154	4155	9
4152	4151	4156	4155	9
4152	4151	4156	4160	9
4154	4161	7920	7910	9
4154	4161	7920	7922	9
4151	4152	4153	4154	9
4151	4156	4155	4154	9
4154	4155	4156	4160	9
4153	4152	4163	4164	9
4153	4152	4163	4171	9
4153	4152	4151	4156	9
4153	4152	4151	4159	9
4153	4154	4161	4162	9
4153	4154	4161	7920	9
4153	4154	4155	4156	9
4153	4154	4155	4158	9
4151	4152	4163	4164	9
4151	4152	4163	4171	9
4151	4152	4153	4157	9
4151	4156	4155	4158	9
4155	4154	4161	4162	9
4155	4154	4161	7920	9
4155	4154	4153	4157	9
4155	4156	4151	4159	9
4159	4151	4156	4160	9
4158	4155	4156	4160	9
4164	4163	4171	4165	9
4164	4163	4171	4172	9
4162	4161	7920	7910	9
4162	4161	7920	7922	9
3641	3640	3639	3650	9
3644	3640	3639	3650	9
3643	3638	3639	3650	9
3646	3638	3639	3650	9
3639	3640	3641	3648	9
3644	3640	3641	3648	9
3643	3642	3641	3648	9
3645	3642	3641	3648	9
3648	10952	10946	10949	9
3648	10952	10946	10947	9
3639	3640	3641	3642	9
3639	3638	3643	3642	9
3639	3638	3643	3647	9
3641	3648	10952	10946	9
3641	3648	10952	10953	9
3638	3639	3640	3641	9
3638	3643	3642	3641	9
3641	3642	3643	3647	9
3640	3639	3650	3652	9
3640	3639	3650	3651	9
3640	3639	3638	3643	9
3640	3639	3638	3646	9
3640	3641	3648	3649	9
3640	3641	3648	10952	9
3640	3641	3642	3643	9
3640	3641	3642	3645	9
3638	3639	3650	3652	9
3638	3639	3650	3651	9
3638	3639	3640	3644	9
3638	3643	3642	3645	9
3642	3641	3648	3649	9
3642	3641	3648	10952	9
3642	3641	3640	3644	9
3642	3643	3638	3646	9
3646	3638	3643	3647	9
3645	3642	3643	3647	9
3649	3648	10952	10946	9
3649	3648	10952	10953	9
11239	11238	11237	11248	9
11242	11238	11237	11248	9
11241	11236	11237	11248	9
11244	11236	11237	11248	9
11248	4003	3993	3996	9
11248	4003	3993	3992	9
11237	11238	11239	11246	9
11242	11238	11239	11246	9
11241	11240	11239	11246	9
11243	11240	11239	11246	9
11246	11105	11095	11094	9
11246	11105	11095	11098	9
11237	11248	4003	3993	9
11237	11248	4003	4005	9
11237	11238	11239	11240	9
11237	11236	11241	11240	9
11237	11236	11241	11245	9
11239	11246	11105	11095	9
11239	11246	11105	11107	9
11236	11237	11238	11239	9
11236	11241	11240	11239	9
11239	11240	11241	11245	9
11238	11237	11248	11249	9
11238	11237	11248	4003	9
11238	11237	11236	11241	9
11238	11237	11236	11244	9
11238	11239	11246	11247	9
11238	11239	11246	11105	9
11238	11239	11240	11241	9
11238	11239	11240	11243	9
11236	11237	11248	11249	9
11236	11237	11248	4003	9
11236	11237	11238	11242	9
11236	11241	11240	11243	9
11240	11239	11246	11247	9
11240	11239	11246	11105	9
11240	11239	11238	11242	9
11240	11241	11236	11244	9
11244	11236	11241	11245	9
11243	11240	11241	11245	9
11249	11248	4003	3993	9
11249	11248	4003	4005	9
11247	11246	11105	11095	9
11247	11246	11105	11107	9
2681	2680	2679	2690	9
2684	2680	2679	2690	9
2683	2678	2679	2690	9
2686	2678	2679	2690	9
2679	2680	2681	2688	9
2684	2680	2681	2688	9
2683	2682	2681	2688	9
2685	2682	2681	2688	9
2688	4946	4939	4940	9
2688	4946	4939	4938	9
2679	2680	2681	2682	9
2679	2678	2683	2682	9
2679	2678	2683	2687	9
2681	2688	4946	4939	9
2681	2688	4946	4948	9
2678	2679	2680	2681	9
2678	2683	2682	2681	9
2681	2682	2683	2687	9
2680	2679	2690	2692	9
2680	2679	2690	2691	9
2680	2679	2678	2683	9
2680	2679	2678	2686	9
2680	2681	2688	2689	9
2680	2681	2688	4946	9
2680	2681	2682	2683	9
2680	2681	2682	2685	9
2678	2679	2690	2692	9
2678	2679	2690	2691	9
2678	2679	2680	2684	9
2678	2683	2682	2685	9
2682	2681	2688	2689	9
2682	2681	2688	4946	9
2682	2681	2680	2684	9
2682	2683	2678	2686	9
2686	2678	2683	2687	9
2685	2682	2683	2687	9
2689	2688	4946	4939	9
2689	2688	4946	4948	9
10203	10202	10201	10212	9
10206	10202	10201	10212	9
10205	10200	10201	10212	9
10208	10200	10201	10212	9
10212	10220	10214	10217	9
10212	10220	10214	10215	9
10201	10202	10203	10210	9
10206	10202	10203	10210	9
10205	10204	10203	10210	9
10207	10204	10203	10210	9
10210	10762	10756	10757	9
10210	10762	10756	10759	9
10201	10212	10220	10214	9
10201	10212	10220	10221	9
10201	10202	10203	10204	9
10201	10200	10205	10204	9
10201	10200	10205	10209	9
10203	10210	10762	10756	9
10203	10210	10762	10763	9
10200	10201	10202	10203	9
10200	10205	10204	10203	9
10203	10204	10205	10209	9
10202	10201	10212	10213	9
10202	10201	10212	10220	9
10202	10201	10200	10205	9
10202	10201	10200	10208	9
10202	10203	10210	10211	9
10202	10203	10210	10762	9
10202	10203	10204	10205	9
10202	10203	10204	10207	9
10200	10201	10212	10213	9
10200	10201	10212	10220	9
10200	10201	10202	10206	9
10200	10205	10204	10207	9
10204	10203	10210	10211	9
10204	10203	10210	10762	9
10204	10203	10202	10206	9
10204	10205	10200	10208	9
10208	10200	10205	10209	9
10207	10204	10205	10209	9
10213	10212	10220	10214	9
10213	10212	10220	10221	9
10211	10210	10762	10756	9
10211	10210	10762	10763	9
12331	12330	12329	12340	9
12334	12330	12329	12340	9
12333	12328	12329	12340	9
12336	12328	12329	12340	9
12340	10022	10015	10014	9
12340	10022	10015	10016	9
12329	12330	12331	12338	9
12334	12330	12331	12338	9
12333	12332	12331	12338	9
12335	12332	12331	12338	9
12338	5836	5826	5825	9
12338	5836	5826	5829	9
12329	12340	10022	10015	9
12329	12340	10022	10024	9
12329	12330	12331	12332	9
12329	12328	12333	12332	9
12329	12328	12333	12337	9
12331	12338	5836	5826	9
12331	12338	5836	5838	9
12328	12329	12330	12331	9
12328	12333	12332	12331	9
12331	12332	12333	12337	9
12330	12329	12340	12341	9
12330	12329	12340	10022	9
12330	12329	12328	12333	9
12330	12329	12328	12336	9
12330	12331	12338	12339	9
12330	12331	12338	5836	9
12330	12331	12332	12333	9
12330	12331	12332	12335	9
12328	12329	12340	12341	9
12328	12329	12340	10022	9
12328	12329	12330	12334	9
12328	12333	12332	12335	9
12332	12331	12338	12339	9
12332	12331	12338	5836	9
12332	12331	12330	12334	9
12332	12333	12328	12336	9
12336	12328	12333	12337	9
12335	12332	12333	12337	9
12341	12340	10022	10015	9
12341	12340	10022	10024	9
12339	12338	5836	5826	9
12339	12338	5836	5838	9
11645	11644	11643	11654	9
11648	11644	11643	11654	9
11647	11642	11643	11654	9
11650	11642	11643	11654	9
1147	1148	1150	11654	9
1149	1148	1150	11654	9
11643	11644	11645	11652	9
11648	11644	11645	11652	9
11647	11646	11645	11652	9
11649	11646	11645	11652	9
11652	4699	4692	4693	9
11652	4699	4692	4691	9
1148	1150	11654	11643	9
1151	1150	11654	11643	9
11643	11644	11645	11646	9
11643	11642	11647	11646	9
11643	11642	11647	11651	9
11645	11652	4699	4692	9
11645	11652	4699	4701	9
11642	11643	11644	11645	9
11642	11647	11646	11645	9
11645	11646	11647	11651	9
11644	11643	11654	11655	9
1150	11654	11643	11644	9
11644	11643	11642	11647	9
11644	11643	11642	11650	9
11644	11645	11652	11653	9
11644	11645	11652	4699	9
11644	11645	11646	11647	9
11644	11645	11646	11649	9
11642	11643	11654	11655	9
1150	11654	11643	11642	9
11642	11643	11644	11648	9
11642	11647	11646	11649	9
11646	11645	11652	11653	9
11646	11645	11652	4699	9
11646	11645	11644	11648	9
11646	11647	11642	11650	9
11650	11642	11647	11651	9
11649	11646	11647	11651	9
1148	1150	11654	11655	9
1151	1150	11654	11655	9
11653	11652	4699	4692	9
11653	11652	4699	4701	9
5070	5069	5068	5079	9
5073	5069	5068	5079	9
5072	5067	5068	5079	9
5075	5067	5068	5079	9
5079	9278	9271	9270	9
5079	9278	9271	9272	9
5068	5069	5070	5077	9
5073	5069	5070	5077	9
5072	5071	5070	5077	9
5074	5071	5070	5077	9
5077	5087	5081	5082	9
5077	5087	5081	5084	9
5068	5079	9278	9271	9
5068	5079	9278	9280	9
5068	5069	5070	5071	9
5068	5067	5072	5071	9
5068	5067	5072	5076	9
5070	5077	5087	5081	9
5070	5077	5087	5088	9
5067	5068	5069	5070	9
5067	5072	5071	5070	9
5070	5071	5072	5076	9
5069	5068	5079	5080	9
5069	5068	5079	9278	9
5069	5068	5067	5072	9
5069	5068	5067	5075	9
5069	5070	5077	5078	9
5069	5070	5077	5087	9
5069	5070	5071	5072	9
5069	5070	5071	5074	9
5067	5068	5079	5080	9
5067	5068	5079	9278	9
5067	5068	5069	5073	9
5067	5072	5071	5074	9
5071	5070	5077	5078	9
5071	5070	5077	5087	9
5071	5070	5069	5073	9
5071	5072	5067	5075	9
5075	5067	5072	5076	9
5074	5071	5072	5076	9
5080	5079	9278	9271	9
5080	5079	9278	9280	9
5078	5077	5087	5081	9
5078	5077	5087	5088	9
10276	10275	10274	10285	9
10279	10275	10274	10285	9
10278	10273	10274	10285	9
10281	10273	10274	10285	9
10285	7731	7721	7720	9
10285	7731	7721	7724	9
10274	10275	10276	10283	9
10279	10275	10276	10283	9
10278	10277	10276	10283	9
10280	10277	10276	10283	9
10283	10293	10287	10288	9
10283	10293	10287	10290	9
10274	10285	7731	7721	9
10274	10285	7731	7733	9
10274	10275	10276	10277	9
10274	10273	10278	10277	9
10274	10273	10278	10282	9
10276	10283	10293	10287	9
10276	10283	10293	10294	9
10273	10274	10275	10276	9
10273	10278	10277	10276	9
10276	10277	10278	10282	9
10275	10274	10285	10286	9
10275	10274	10285	7731	9
10275	10274	10273	10278	9
10275	10274	10273	10281	9
10275	10276	10283	10284	9
10275	10276	10283	10293	9
10275	10276	10277	10278	9
10275	10276	10277	10280	9
10273	10274	10285	10286	9
10273	10274	10285	7731	9
10273	10274	10275	10279	9
10273	10278	10277	10280	9
10277	10276	10283	10284	9
10277	10276	10283	10293	9
10277	10276	10275	10279	9
10277	10278	10273	10281	9
10281	10273	10278	10282	9
10280	10277	10278	10282	9
10286	10285	7731	7721	9
10286	10285	7731	7733	9
10284	10283	10293	10287	9
10284	10283	10293	10294	9
7577	7576	7575	7586	9
7580	7576	7575	7586	9
7579	7574	7575	7586	9
7582	7574	7575	7586	9
7586	7594	7588	7591	9
7586	7594	7588	7589	9
7575	7576	7577	7584	9
7580	7576	7577	7584	9
7579	7578	7577	7584	9
7581	7578	7577	7584	9
7584	10937	10931	10934	9
7584	10937	10931	10932	9
7575	7586	7594	7588	9
7575	7586	7594	7595	9
7575	7576	7577	7578	9
7575	7574	7579	7578	9
7575	7574	7579	7583	9
7577	7584	10937	10931	9
7577	7584	10937	10938	9
7574	7575	7576	7577	9
7574	7579	7578	7577	9
7577	7578	7579	7583	9
7576	7575	7586	7587	9
7576	7575	7586	7594	9
7576	7575	7574	7579	9
7576	7575	7574	7582	9
7576	7577	7584	7585	9
7576	7577	7584	10937	9
7576	7577	7578	7579	9
7576	7577	7578	7581	9
7574	7575	7586	7587	9
7574	7575	7586	7594	9
7574	7575	7576	7580	9
7574	7579	7578	7581	9
7578	7577	7584	7585	9
7578	7577	7584	10937	9
7578	7577	7576	7580	9
7578	7579	7574	7582	9
7582	7574	7579	7583	9
7581	7578	7579	7583	9
7587	7586	7594	7588	9
7587	7586	7594	7595	9
7585	7584	10937	10931	9
7585	7584	10937	10938	9
11155	11154	11153	11164	9
11158	11154	11153	11164	9
11157	11152	11153	11164	9
11160	11152	11153	11164	9
870	871	878	11164	9
872	871	878	11164	9
11153	11154	11155	11162	9
11158	11154	11155	11162	9
11157	11156	11155	11162	9
11159	11156	11155	11162	9
11162	3814	3804	3803	9
11162	3814	3804	3807	9
871	878	11164	11153	9
880	878	11164	11153	9
11153	11154	11155	11156	9
11153	11152	11157	11156	9
11153	11152	11157	11161	9
11155	11162	3814	3804	9
11155	11162	3814	3816	9
11152	11153	11154	11155	9
11152	11157	11156	11155	9
11155	11156	11157	11161	9
11154	11153	11164	11165	9
878	11164	11153	11154	9
11154	11153	11152	11157	9
11154	11153	11152	11160	9
11154	11155	11162	11163	9
11154	11155	11162	3814	9
11154	11155	11156	11157	9
11154	11155	11156	11159	9
11152	11153	11164	11165	9
878	11164	11153	11152	9
11152	11153	11154	11158	9
11152	11157	11156	11159	9
11156	11155	11162	11163	9
11156	11155	11162	3814	9
11156	11155	11154	11158	9
11156	11157	11152	11160	9
11160	11152	11157	11161	9
11159	11156	11157	11161	9
871	878	11164	11165	9
880	878	11164	11165	9
11163	11162	3814	3804	9
11163	11162	3814	3816	9
9080	9081	9082	9089	9
9085	9081	9082	9089	9
9084	9083	9082	9089	9
9086	9083	9082	9089	9
9089	9439	9429	9432	9
9089	9439	9429	9428	9
9082	9081	9080	9091	9
9085	9081	9080	9091	9
9084	9079	9080	9091	9
9087	9079	9080	9091	9
9091	9099	9093	9096	9
9091	9099	9093	9094	9
9082	9089	9439	9429	9
9082	9089	9439	9441	9
9079	9080	9081	9082	9
9079	9084	9083	9082	9
9082	9083	9084	9088	9
9080	9091	9099	9093	9
9080	9091	9099	9100	9
9080	9081	9082	9083	9
9080	9079	9084	9083	9
9080	9079	9084	9088	9
9081	9082	9089	9090	9
9081	9082	9089	9439	9
9081	9082	9083	9084	9
9081	9082	9083	9086	9
9081	9080	9091	9092	9
9081	9080	9091	9099	9
9081	9080	9079	9084	9
9081	9080	9079	9087	9
9083	9082	9089	9090	9
9083	9082	9089	9439	9
9083	9082	9081	9085	9
9083	9084	9079	9087	9
9079	9080	9091	9092	9
9079	9080	9091	9099	9
9079	9080	9081	9085	9
9079	9084	9083	9086	9
9086	9083	9084	9088	9
9087	9079	9084	9088	9
9090	9089	9439	9429	9
9090	9089	9439	9441	9
9092	9091	9099	9093	9
9092	9091	9099	9100	9
533	534	535	542	9
538	534	535	542	9
537	536	535	542	9
539	536	535	542	9
549	548	546	542	9
553	548	546	542	9
535	534	533	544	9
538	534	533	544	9
537	532	533	544	9
540	532	533	544	9
544	5237	5230	5231	9
544	5237	5230	5229	9
548	546	542	535	9
547	546	542	535	9
535	534	533	532	9
535	536	537	532	9
535	536	537	541	9
533	544	5237	5230	9
533	544	5237	5239	9
536	535	534	533	9
536	537	532	533	9
533	532	537	541	9
534	535	542	543	9
546	542	535	534	9
534	535	536	537	9
534	535	536	539	9
534	533	544	545	9
534	533	544	5237	9
534	533	532	537	9
534	533	532	540	9
536	535	542	543	9
546	542	535	536	9
536	535	534	538	9
536	537	532	540	9
532	533	544	545	9
532	533	544	5237	9
532	533	534	538	9
532	537	536	539	9
539	536	537	541	9
540	532	537	541	9
548	546	542	543	9
547	546	542	543	9
545	544	5237	5230	9
545	544	5237	5239	9
2934	2935	2936	2943	9
2939	2935	2936	2943	9
2938	2937	2936	2943	9
2940	2937	2936	2943	9
2943	6638	6628	6631	9
2943	6638	6628	6627	9
2936	2935	2934	2945	9
2939	2935	2934	2945	9
2938	2933	2934	2945	9
2941	2933	2934	2945	9
2936	2943	6638	6628	9
2936	2943	6638	6640	9
2933	2934	2935	2936	9
2933	2938	2937	2936	9
2936	2937	2938	2942	9
2934	2935	2936	2937	9
2934	2933	2938	2937	9
2934	2933	2938	2942	9
2935	2936	2943	2944	9
2935	2936	2943	6638	9
2935	2936	2937	2938	9
2935	2936	2937	2940	9
2935	2934	2945	2946	9
2935	2934	2945	2947	9
2935	2934	2933	2938	9
2935	2934	2933	2941	9
2937	2936	2943	2944	9
2937	2936	2943	6638	9
2937	2936	2935	2939	9
2937	2938	2933	2941	9
2933	2934	2945	2946	9
2933	2934	2945	2947	9
2933	2934	2935	2939	9
2933	2938	2937	2940	9
2940	2937	2938	2942	9
2941	2933	2938	2942	9
2944	2943	6638	6628	9
2944	2943	6638	6640	9
9053	9052	9051	9062	9
9056	9052	9051	9062	9
9055	9050	9051	9062	9
9058	9050	9051	9062	9
9062	10401	10394	10393	9
9062	10401	10394	10395	9
9051	9052	9053	9060	9
9056	9052	9053	9060	9
9055	9054	9053	9060	9
9057	9054	9053	9060	9
9060	9070	9064	9065	9
9060	9070	9064	9067	9
9051	9062	10401	10394	9
9051	9062	10401	10403	9
9051	9052	9053	9054	9
9051	9050	9055	9054	9
9051	9050	9055	9059	9
9053	9060	9070	9064	9
9053	9060	9070	9071	9
9050	9051	9052	9053	9
9050	9055	9054	9053	9
9053	9054	9055	9059	9
9052	9051	9062	9063	9
9052	9051	9062	10401	9
9052	9051	9050	9055	9
9052	9051	9050	9058	9
9052	9053	9060	9061	9
9052	9053	9060	9070	9
9052	9053	9054	9055	9
9052	9053	9054	9057	9
9050	9051	9062	9063	9
9050	9051	9062	10401	9
9050	9051	9052	9056	9
9050	9055	9054	9057	9
9054	9053	9060	9061	9
9054	9053	9060	9070	9
9054	9053	9052	9056	9
9054	9055	9050	9058	9
9058	9050	9055	9059	9
9057	9054	9055	9059	9
9063	9062	10401	10394	9
9063	9062	10401	10403	9
9061	9060	9070	9064	9
9061	9060	9070	9071	9
13465	13464	13463	13474	9
13468	13464	13463	13474	9
13467	13462	13463	13474	9
13470	13462	13463	13474	9
13474	9076	9066	9065	9
13474	9076	9066	9069	9
13463	13464	13465	13472	9
13468	13464	13465	13472	9
13467	13466	13465	13472	9
13469	13466	13465	13472	9
13472	8943	8936	8935	9
13472	8943	8936	8937	9
13463	13474	9076	9066	9
13463	13474	9076	9078	9
13463	13464	13465	13466	9
13463	13462	13467	13466	9
13463	13462	13467	13471	9
13465	13472	8943	8936	9
13465	13472	8943	8945	9
13462	13463	13464	13465	9
13462	13467	13466	13465	9
13465	13466	13467	13471	9
13464	13463	13474	13475	9
13464	13463	13474	9076	9
13464	13463	13462	13467	9
13464	13463	13462	13470	9
13464	13465	13472	13473	9
13464	13465	13472	8943	9
13464	13465	13466	13467	9
13464	13465	13466	13469	9
13462	13463	13474	13475	9
13462	13463	13474	9076	9
13462	13463	13464	13468	9
13462	13467	13466	13469	9
13466	13465	13472	13473	9
13466	13465	13472	8943	9
13466	13465	13464	13468	9
13466	13467	13462	13470	9
13470	13462	13467	13471	9
13469	13466	13467	13471	9
13475	13474	9076	9066	9
13475	13474	9076	9078	9
13473	13472	8943	8936	9
13473	13472	8943	8945	9
3369	3370	3371	3378	9
3374	3370	3371	3378	9
3373	3372	3371	3378	9
3375	3372	3371	3378	9
3378	9410	9400	9403	9
3378	9410	9400	9399	9
3371	3370	3369	3380	9
3374	3370	3369	3380	9
3373	3368	3369	3380	9
3376	3368	3369	3380	9
3371	3378	9410	9400	9
3371	3378	9410	9412	9
3368	3369	3370	3371	9
3368	3373	3372	3371	9
3371	3372	3373	3377	9
3369	3370	3371	3372	9
3369	3368	3373	3372	9
3369	3368	3373	3377	9
3370	3371	3378	3379	9
3370	3371	3378	9410	9
3370	3371	3372	3373	9
3370	3371	3372	3375	9
3370	3369	3380	3381	9
3370	3369	3380	3382	9
3370	3369	3368	3373	9
3370	3369	3368	3376	9
3372	3371	3378	3379	9
3372	3371	3378	9410	9
3372	3371	3370	3374	9
3372	3373	3368	3376	9
3368	3369	3380	3381	9
3368	3369	3380	3382	9
3368	3369	3370	3374	9
3368	3373	3372	3375	9
3375	3372	3373	3377	9
3376	3368	3373	3377	9
3379	3378	9410	9400	9
3379	3378	9410	9412	9
7926	7925	7924	7935	9
7929	7925	7924	7935	9
7928	7923	7924	7935	9
7931	7923	7924	7935	9
7935	6914	6907	6908	9
7935	6914	6907	6906	9
7924	7925	7926	7933	9
7929	7925	7926	7933	9
7928	7927	7926	7933	9
7930	7927	7926	7933	9
7933	7943	7937	7938	9
7933	7943	7937	7940	9
7924	7935	6914	6907	9
7924	7935	6914	6916	9
7924	7925	7926	7927	9
7924	7923	7928	7927	9
7924	7923	7928	7932	9
7926	7933	7943	7937	9
7926	7933	7943	7944	9
7923	7924	7925	7926	9
7923	7928	7927	7926	9
7926	7927	7928	7932	9
7925	7924	7935	7936	9
7925	7924	7935	6914	9
7925	7924	7923	7928	9
7925	7924	7923	7931	9
7925	7926	7933	7934	9
7925	7926	7933	7943	9
7925	7926	7927	7928	9
7925	7926	7927	7930	9
7923	7924	7935	7936	9
7923	7924	7935	6914	9
7923	7924	7925	7929	9
7923	7928	7927	7930	9
7927	7926	7933	7934	9
7927	7926	7933	7943	9
7927	7926	7925	7929	9
7927	7928	7923	7931	9
7931	7923	7928	7932	9
7930	7927	7928	7932	9
7936	7935	6914	6907	9
7936	7935	6914	6916	9
7934	7933	7943	7937	9
7934	7933	7943	7944	9
1069	1068	1067	1078	9
1072	1068	1067	1078	9
1071	1066	1067	1078	9
1074	1066	1067	1078	9
1050	1049	1055	1078	9
1052	1049	1055	1078	9
1067	1068	1069	1076	9
1072	1068	1069	1076	9
1071	1070	1069	1076	9
1073	1070	1069	1076	9
1076	5529	5519	5522	9
1076	5529	5519	5518	9
1049	1055	1078	1067	9
1056	1055	1078	1067	9
1067	1068	1069	1070	9
1067	1066	1071	1070	9
1067	1066	1071	1075	9
1069	1076	5529	5519	9
1069	1076	5529	5531	9
1066	1067	1068	1069	9
1066	1071	1070	1069	9
1069	1070	1071	1075	9
1068	1067	1078	1079	9
1055	1078	1067	1068	9
1068	1067	1066	1071	9
1068	1067	1066	1074	9
1068	1069	1076	1077	9
1068	1069	1076	5529	9
1068	1069	1070	1071	9
1068	1069	1070	1073	9
1066	1067	1078	1079	9
1055	1078	1067	1066	9
1066	1067	1068	1072	9
1066	1071	1070	1073	9
1070	1069	1076	1077	9
1070	1069	1076	5529	9
1070	1069	1068	1072	9
1070	1071	1066	1074	9
1074	1066	1071	1075	9
1073	1070	1071	1075	9
1049	1055	1078	1079	9
1056	1055	1078	1079	9
1077	1076	5529	5519	9
1077	1076	5529	5531	9
13451	13450	13449	13460	9
13454	13450	13449	13460	9
13453	13448	13449	13460	9
13456	13448	13449	13460	9
13460	10899	10889	10888	9
13460	10899	10889	10892	9
13449	13450	13451	13458	9
13454	13450	13451	13458	9
13453	13452	13451	13458	9
13455	13452	13451	13458	9
13458	8944	8934	8937	9
13458	8944	8934	8933	9
13449	13460	10899	10889	9
13449	13460	10899	10901	9
13449	13450	13451	13452	9
13449	13448	13453	13452	9
13449	13448	13453	13457	9
13451	13458	8944	8934	9
13451	13458	8944	8946	9
13448	13449	13450	13451	9
13448	13453	13452	13451	9
13451	13452	13453	13457	9
13450	13449	13460	13461	9
13450	13449	13460	10899	9
13450	13449	13448	13453	9
13450	13449	13448	13456	9
13450	13451	13458	13459	9
13450	13451	13458	8944	9
13450	13451	13452	13453	9
13450	13451	13452	13455	9
13448	13449	13460	13461	9
13448	13449	13460	10899	9
13448	13449	13450	13454	9
13448	13453	13452	13455	9
13452	13451	13458	13459	9
13452	13451	13458	8944	9
13452	13451	13450	13454	9
13452	13453	13448	13456	9
13456	13448	13453	13457	9
13455	13452	13453	13457	9
13461	13460	10899	10889	9
13461	13460	10899	10901	9
13459	13458	8944	8934	9
13459	13458	8944	8946	9
10642	10641	10640	10651	9
10645	10641	10640	10651	9
10644	10639	10640	10651	9
10647	10639	10640	10651	9
10651	3915	3908	3907	9
10651	3915	3908	3909	9
10640	10641	10642	10649	9
10645	10641	10642	10649	9
10644	10643	10642	10649	9
10646	10643	10642	10649	9
10649	10659	10653	10654	9
10649	10659	10653	10656	9
10640	10651	3915	3908	9
10640	10651	3915	3917	9
10640	10641	10642	10643	9
10640	10639	10644	10643	9
10640	10639	10644	10648	9
10642	10649	10659	10653	9
10642	10649	10659	10660	9
10639	10640	10641	10642	9
10639	10644	10643	10642	9
10642	10643	10644	10648	9
10641	10640	10651	10652	9
10641	10640	10651	3915	9
10641	10640	10639	10644	9
10641	10640	10639	10647	9
10641	10642	10649	10650	9
10641	10642	10649	10659	9
10641	10642	10643	10644	9
10641	10642	10643	10646	9
10639	10640	10651	10652	9
10639	10640	10651	3915	9
10639	10640	10641	10645	9
10639	10644	10643	10646	9
10643	10642	10649	10650	9
10643	10642	10649	10659	9
10643	10642	10641	10645	9
10643	10644	10639	10647	9
10647	10639	10644	10648	9
10646	10643	10644	10648	9
10652	10651	3915	3908	9
10652	10651	3915	3917	9
10650	10649	10659	10653	9
10650	10649	10659	10660	9
5565	5564	5563	5574	9
5568	5564	5563	5574	9
5567	5562	5563	5574	9
5570	5562	5563	5574	9
2408	2407	2414	5574	9
2406	2407	2414	5574	9
5563	5564	5565	5572	9
5568	5564	5565	5572	9
5567	5566	5565	5572	9
5569	5566	5565	5572	9
5572	5582	5576	5579	9
5572	5582	5576	5577	9
2407	2414	5574	5563	9
2416	2414	5574	5563	9
5563	5564	5565	5566	9
5563	5562	5567	5566	9
5563	5562	5567	5571	9
5565	5572	5582	5576	9
5565	5572	5582	5583	9
5562	5563	5564	5565	9
5562	5567	5566	5565	9
5565	5566	5567	5571	9
5564	5563	5574	5575	9
2414	5574	5563	5564	9
5564	5563	5562	5567	9
5564	5563	5562	5570	9
5564	5565	5572	5573	9
5564	5565	5572	5582	9
5564	5565	5566	5567	9
5564	5565	5566	5569	9
5562	5563	5574	5575	9
2414	5574	5563	5562	9
5562	5563	5564	5568	9
5562	5567	5566	5569	9
5566	5565	5572	5573	9
5566	5565	5572	5582	9
5566	5565	5564	5568	9
5566	5567	5562	5570	9
5570	5562	5567	5571	9
5569	5566	5567	5571	9
2407	2414	5574	5575	9
2416	2414	5574	5575	9
5573	5572	5582	5576	9
5573	5572	5582	5583	9
431	430	429	440	9
434	430	429	440	9
433	428	429	440	9
436	428	429	440	9
440	6298	6292	6293	9
440	6298	6292	6295	9
429	430	431	438	9
434	430	431	438	9
433	432	431	438	9
435	432	431	438	9
412	411	417	438	9
414	411	417	438	9
429	440	6298	6292	9
429	440	6298	6299	9
429	430	431	432	9
429	428	433	432	9
429	428	433	437	9
411	417	438	431	9
418	417	438	431	9
428	429	430	431	9
428	433	432	431	9
431	432	433	437	9
430	429	440	441	9
430	429	440	6298	9
430	429	428	433	9
430	429	428	436	9
430	431	438	439	9
417	438	431	430	9
430	431	432	433	9
430	431	432	435	9
428	429	440	441	9
428	429	440	6298	9
428	429	430	434	9
428	433	432	435	9
432	431	438	439	9
417	438	431	432	9
432	431	430	434	9
432	433	428	436	9
436	428	433	437	9
435	432	433	437	9
441	440	6298	6292	9
441	440	6298	6299	9
411	417	438	439	9
418	417	438	439	9
7096	7095	7094	7105	9
7099	7095	7094	7105	9
7098	7093	7094	7105	9
7101	7093	7094	7105	9
7105	7113	7107	7110	9
7105	7113	7107	7108	9
7094	7095	7096	7103	9
7099	7095	7096	7103	9
7098	7097	7096	7103	9
7100	7097	7096	7103	9
7103	8563	8556	8557	9
7103	8563	8556	8555	9
7094	7105	7113	7107	9
7094	7105	7113	7114	9
7094	7095	7096	7097	9
7094	7093	7098	7097	9
7094	7093	7098	7102	9
7096	7103	8563	8556	9
7096	7103	8563	8565	9
7093	7094	7095	7096	9
7093	7098	7097	7096	9
7096	7097	7098	7102	9
7095	7094	7105	7106	9
7095	7094	7105	7113	9
7095	7094	7093	7098	9
7095	7094	7093	7101	9
7095	7096	7103	7104	9
7095	7096	7103	8563	9
7095	7096	7097	7098	9
7095	7096	7097	7100	9
7093	7094	7105	7106	9
7093	7094	7105	7113	9
7093	7094	7095	7099	9
7093	7098	7097	7100	9
7097	7096	7103	7104	9
7097	7096	7103	8563	9
7097	7096	7095	7099	9
7097	7098	7093	7101	9
7101	7093	7098	7102	9
7100	7097	7098	7102	9
7106	7105	7113	7107	9
7106	7105	7113	7114	9
7104	7103	8563	8556	9
7104	7103	8563	8565	9
657	656	655	666	9
660	656	655	666	9
659	654	655	666	9
662	654	655	666	9
666	10499	10493	10494	9
666	10499	10493	10496	9
655	656	657	664	9
660	656	657	664	9
659	658	657	664	9
661	658	657	664	9
673	674	676	664	9
675	674	676	664	9
655	666	10499	10493	9
655	666	10499	10500	9
655	656	657	658	9
655	654	659	658	9
655	654	659	663	9
674	676	664	657	9
677	676	664	657	9
654	655	656	657	9
654	659	658	657	9
657	658	659	663	9
656	655	666	667	9
656	655	666	10499	9
656	655	654	659	9
656	655	654	662	9
656	657	664	665	9
676	664	657	656	9
656	657	658	659	9
656	657	658	661	9
654	655	666	667	9
654	655	666	10499	9
654	655	656	660	9
654	659	658	661	9
658	657	664	665	9
676	664	657	658	9
658	657	656	660	9
658	659	654	662	9
662	654	659	663	9
661	658	659	663	9
667	666	10499	10493	9
667	666	10499	10500	9
674	676	664	665	9
677	676	664	665	9
6644	6643	6642	6653	9
6647	6643	6642	6653	9
6646	6641	6642	6653	9
6649	6641	6642	6653	9
6653	8314	8307	8308	9
6653	8314	8307	8306	9
6642	6643	6644	6651	9
6647	6643	6644	6651	9
6646	6645	6644	6651	9
6648	6645	6644	6651	9
6651	6661	6655	6656	9
6651	6661	6655	6658	9
6642	6653	8314	8307	9
6642	6653	8314	8316	9
6642	6643	6644	6645	9
6642	6641	6646	6645	9
6642	6641	6646	6650	9
6644	6651	6661	6655	9
6644	6651	6661	6662	9
6641	6642	6643	6644	9
6641	6646	6645	6644	9
6644	6645	6646	6650	9
6643	6642	6653	6654	9
6643	6642	6653	8314	9
6643	6642	6641	6646	9
6643	6642	6641	6649	9
6643	6644	6651	6652	9
6643	6644	6651	6661	9
6643	6644	6645	6646	9
6643	6644	6645	6648	9
6641	6642	6653	6654	9
6641	6642	6653	8314	9
6641	6642	6643	6647	9
6641	6646	6645	6648	9
6645	6644	6651	6652	9
6645	6644	6651	6661	9
6645	6644	6643	6647	9
6645	6646	6641	6649	9
6649	6641	6646	6650	9
6648	6645	6646	6650	9
6654	6653	8314	8307	9
6654	6653	8314	8316	9
6652	6651	6661	6655	9
6652	6651	6661	6662	9
3429	3430	3431	3438	9
3434	3430	3431	3438	9
3433	3432	3431	3438	9
3435	3432	3431	3438	9
3438	9555	9548	9549	9
3438	9555	9548	9547	9
3431	3430	3429	3440	9
3434	3430	3429	3440	9
3433	3428	3429	3440	9
3436	3428	3429	3440	9
3431	3438	9555	9548	9
3431	3438	9555	9557	9
3428	3429	3430	3431	9
3428	3433	3432	3431	9
3431	3432	3433	3437	9
3429	3430	3431	3432	9
3429	3428	3433	3432	9
3429	3428	3433	3437	9
3430	3431	3438	3439	9
3430	3431	3438	9555	9
3430	3431	3432	3433	9
3430	3431	3432	3435	9
3430	3429	3440	3442	9
3430	3429	3440	3441	9
3430	3429	3428	3433	9
3430	3429	3428	3436	9
3432	3431	3438	3439	9
3432	3431	3438	9555	9
3432	3431	3430	3434	9
3432	3433	3428	3436	9
3428	3429	3440	3442	9
3428	3429	3440	3441	9
3428	3429	3430	3434	9
3428	3433	3432	3435	9
3435	3432	3433	3437	9
3436	3428	3433	3437	9
3439	3438	9555	9548	9
3439	3438	9555	9557	9
13003	13002	13001	13012	9
13006	13002	13001	13012	9
13005	13000	13001	13012	9
13008	13000	13001	13012	9
13012	7571	7561	7564	9
13012	7571	7561	7560	9
13001	13002	13003	13010	9
13006	13002	13003	13010	9
13005	13004	13003	13010	9
13007	13004	13003	13010	9
13010	10225	10218	10217	9
13010	10225	10218	10219	9
13001	13012	7571	7561	9
13001	13012	7571	7573	9
13001	13002	13003	13004	9
13001	13000	13005	13004	9
13001	13000	13005	13009	9
13003	13010	10225	10218	9
13003	13010	10225	10227	9
13000	13001	13002	13003	9
13000	13005	13004	13003	9
13003	13004	13005	13009	9
13002	13001	13012	13013	9
13002	13001	13012	7571	9
13002	13001	13000	13005	9
13002	13001	13000	13008	9
13002	13003	13010	13011	9
13002	13003	13010	10225	9
13002	13003	13004	13005	9
13002	13003	13004	13007	9
13000	13001	13012	13013	9
13000	13001	13012	7571	9
13000	13001	13002	13006	9
13000	13005	13004	13007	9
13004	13003	13010	13011	9
13004	13003	13010	10225	9
13004	13003	13002	13006	9
13004	13005	13000	13008	9
13008	13000	13005	13009	9
13007	13004	13005	13009	9
13013	13012	7571	7561	9
13013	13012	7571	7573	9
13011	13010	10225	10218	9
13011	13010	10225	10227	9
11365	11364	11363	11374	9
11368	11364	11363	11374	9
11367	11362	11363	11374	9
11370	11362	11363	11374	9
11374	7469	7459	7458	9
11374	7469	7459	7462	9
11363	11364	11365	11372	9
11368	11364	11365	11372	9
11367	11366	11365	11372	9
11369	11366	11365	11372	9
11372	4177	4167	4166	9
11372	4177	4167	4170	9
11363	11374	7469	7459	9
11363	11374	7469	7471	9
11363	11364	11365	11366	9
11363	11362	11367	11366	9
11363	11362	11367	11371	9
11365	11372	4177	4167	9
11365	11372	4177	4179	9
11362	11363	11364	11365	9
11362	11367	11366	11365	9
11365	11366	11367	11371	9
11364	11363	11374	11375	9
11364	11363	11374	7469	9
11364	11363	11362	11367	9
11364	11363	11362	11370	9
11364	11365	11372	11373	9
11364	11365	11372	4177	9
11364	11365	11366	11367	9
11364	11365	11366	11369	9
11362	11363	11374	11375	9
11362	11363	11374	7469	9
11362	11363	11364	11368	9
11362	11367	11366	11369	9
11366	11365	11372	11373	9
11366	11365	11372	4177	9
11366	11365	11364	11368	9
11366	11367	11362	11370	9
11370	11362	11367	11371	9
11369	11366	11367	11371	9
11375	11374	7469	7459	9
11375	11374	7469	7471	9
11373	11372	4177	4167	9
11373	11372	4177	4179	9
12709	12708	12707	12718	9
12712	12708	12707	12718	9
12711	12706	12707	12718	9
12714	12706	12707	12718	9
2501	2502	2504	12718	9
2503	2502	2504	12718	9
12707	12708	12709	12716	9
12712	12708	12709	12716	9
12711	12710	12709	12716	9
12713	12710	12709	12716	9
12716	6666	6659	6660	9
12716	6666	6659	6658	9
2502	2504	12718	12707	9
2505	2504	12718	12707	9
12707	12708	12709	12710	9
12707	12706	12711	12710	9
12707	12706	12711	12715	9
12709	12716	6666	6659	9
12709	12716	6666	6668	9
12706	12707	12708	12709	9
12706	12711	12710	12709	9
12709	12710	12711	12715	9
12708	12707	12718	12719	9
2504	12718	12707	12708	9
12708	12707	12706	12711	9
12708	12707	12706	12714	9
12708	12709	12716	12717	9
12708	12709	12716	6666	9
12708	12709	12710	12711	9
12708	12709	12710	12713	9
12706	12707	12718	12719	9
2504	12718	12707	12706	9
12706	12707	12708	12712	9
12706	12711	12710	12713	9
12710	12709	12716	12717	9
12710	12709	12716	6666	9
12710	12709	12708	12712	9
12710	12711	12706	12714	9
12714	12706	12711	12715	9
12713	12710	12711	12715	9
2502	2504	12718	12719	9
2505	2504	12718	12719	9
12717	12716	6666	6659	9
12717	12716	6666	6668	9
3980	3979	3978	3989	9
3983	3979	3978	3989	9
3982	3977	3978	3989	9
3985	3977	3978	3989	9
3989	6229	6222	6221	9
3989	6229	6222	6223	9
3978	3979	3980	3987	9
3983	3979	3980	3987	9
3982	3981	3980	3987	9
3984	3981	3980	3987	9
3987	3997	3991	3994	9
3987	3997	3991	3992	9
3978	3989	6229	6222	9
3978	3989	6229	6231	9
3978	3979	3980	3981	9
3978	3977	3982	3981	9
3978	3977	3982	3986	9
3980	3987	3997	3991	9
3980	3987	3997	3998	9
3977	3978	3979	3980	9
3977	3982	3981	3980	9
3980	3981	3982	3986	9
3979	3978	3989	3990	9
3979	3978	3989	6229	9
3979	3978	3977	3982	9
3979	3978	3977	3985	9
3979	3980	3987	3988	9
3979	3980	3987	3997	9
3979	3980	3981	3982	9
3979	3980	3981	3984	9
3977	3978	3989	3990	9
3977	3978	3989	6229	9
3977	3978	3979	3983	9
3977	3982	3981	3984	9
3981	3980	3987	3988	9
3981	3980	3987	3997	9
3981	3980	3979	3983	9
3981	3982	3977	3985	9
3985	3977	3982	3986	9
3984	3981	3982	3986	9
3990	3989	6229	6222	9
3990	3989	6229	6231	9
3988	3987	3997	3991	9
3988	3987	3997	3998	9
2256	2255	2254	2265	9
2259	2255	2254	2265	9
2258	2253	2254	2265	9
2261	2253	2254	2265	9
2270	2269	2267	2265	9
2274	2269	2267	2265	9
2254	2255	2256	2263	9
2259	2255	2256	2263	9
2258	2257	2256	2263	9
2260	2257	2256	2263	9
2263	10753	10743	10746	9
2263	10753	10743	10742	9
2269	2267	2265	2254	9
2268	2267	2265	2254	9
2254	2255	2256	2257	9
2254	2253	2258	2257	9
2254	2253	2258	2262	9
2256	2263	10753	10743	9
2256	2263	10753	10755	9
2253	2254	2255	2256	9
2253	2258	2257	2256	9
2256	2257	2258	2262	9
2255	2254	2265	2266	9
2267	2265	2254	2255	9
2255	2254	2253	2258	9
2255	2254	2253	2261	9
2255	2256	2263	2264	9
2255	2256	2263	10753	9
2255	2256	2257	2258	9
2255	2256	2257	2260	9
2253	2254	2265	2266	9
2267	2265	2254	2253	9
2253	2254	2255	2259	9
2253	2258	2257	2260	9
2257	2256	2263	2264	9
2257	2256	2263	10753	9
2257	2256	2255	2259	9
2257	2258	2253	2261	9
2261	2253	2258	2262	9
2260	2257	2258	2262	9
2269	2267	2265	2266	9
2268	2267	2265	2266	9
2264	2263	10753	10743	9
2264	2263	10753	10755	9
6586	6585	6584	6595	9
6589	6585	6584	6595	9
6588	6583	6584	6595	9
6591	6583	6584	6595	9
6595	6603	6597	6598	9
6595	6603	6597	6600	9
6584	6585	6586	6593	9
6589	6585	6586	6593	9
6588	6587	6586	6593	9
6590	6587	6586	6593	9
6593	8899	8892	8891	9
6593	8899	8892	8893	9
6584	6595	6603	6597	9
6584	6595	6603	6604	9
6584	6585	6586	6587	9
6584	6583	6588	6587	9
6584	6583	6588	6592	9
6586	6593	8899	8892	9
6586	6593	8899	8901	9
6583	6584	6585	6586	9
6583	6588	6587	6586	9
6586	6587	6588	6592	9
6585	6584	6595	6596	9
6585	6584	6595	6603	9
6585	6584	6583	6588	9
6585	6584	6583	6591	9
6585	6586	6593	6594	9
6585	6586	6593	8899	9
6585	6586	6587	6588	9
6585	6586	6587	6590	9
6583	6584	6595	6596	9
6583	6584	6595	6603	9
6583	6584	6585	6589	9
6583	6588	6587	6590	9
6587	6586	6593	6594	9
6587	6586	6593	8899	9
6587	6586	6585	6589	9
6587	6588	6583	6591	9
6591	6583	6588	6592	9
6590	6587	6588	6592	9
6596	6595	6603	6597	9
6596	6595	6603	6604	9
6594	6593	8899	8892	9
6594	6593	8899	8901	9
7504	7503	7502	7513	9
7507	7503	7502	7513	9
7506	7501	7502	7513	9
7509	7501	7502	7513	9
7513	7521	7515	7518	9
7513	7521	7515	7516	9
7502	7503	7504	7511	9
7507	7503	7504	7511	9
7506	7505	7504	7511	9
7508	7505	7504	7511	9
7511	4584	4574	4573	9
7511	4584	4574	4577	9
7502	7513	7521	7515	9
7502	7513	7521	7522	9
7502	7503	7504	7505	9
7502	7501	7506	7505	9
7502	7501	7506	7510	9
7504	7511	4584	4574	9
7504	7511	4584	4586	9
7501	7502	7503	7504	9
7501	7506	7505	7504	9
7504	7505	7506	7510	9
7503	7502	7513	7514	9
7503	7502	7513	7521	9
7503	7502	7501	7506	9
7503	7502	7501	7509	9
7503	7504	7511	7512	9
7503	7504	7511	4584	9
7503	7504	7505	7506	9
7503	7504	7505	7508	9
7501	7502	7513	7514	9
7501	7502	7513	7521	9
7501	7502	7503	7507	9
7501	7506	7505	7508	9
7505	7504	7511	7512	9
7505	7504	7511	4584	9
7505	7504	7503	7507	9
7505	7506	7501	7509	9
7509	7501	7506	7510	9
7508	7505	7506	7510	9
7514	7513	7521	7515	9
7514	7513	7521	7522	9
7512	7511	4584	4574	9
7512	7511	4584	4586	9
12765	12764	12763	12774	9
12768	12764	12763	12774	9
12767	12762	12763	12774	9
12770	12762	12763	12774	9
12774	6915	6905	6904	9
12774	6915	6905	6908	9
12763	12764	12765	12772	9
12768	12764	12765	12772	9
12767	12766	12765	12772	9
12769	12766	12765	12772	9
2468	2469	2476	12772	9
2470	2469	2476	12772	9
12763	12774	6915	6905	9
12763	12774	6915	6917	9
12763	12764	12765	12766	9
12763	12762	12767	12766	9
12763	12762	12767	12771	9
2469	2476	12772	12765	9
2478	2476	12772	12765	9
12762	12763	12764	12765	9
12762	12767	12766	12765	9
12765	12766	12767	12771	9
12764	12763	12774	12775	9
12764	12763	12774	6915	9
12764	12763	12762	12767	9
12764	12763	12762	12770	9
12764	12765	12772	12773	9
2476	12772	12765	12764	9
12764	12765	12766	12767	9
12764	12765	12766	12769	9
12762	12763	12774	12775	9
12762	12763	12774	6915	9
12762	12763	12764	12768	9
12762	12767	12766	12769	9
12766	12765	12772	12773	9
2476	12772	12765	12766	9
12766	12765	12764	12768	9
12766	12767	12762	12770	9
12770	12762	12767	12771	9
12769	12766	12767	12771	9
12775	12774	6915	6905	9
12775	12774	6915	6917	9
2469	2476	12772	12773	9
2478	2476	12772	12773	9
12975	12974	12973	12984	9
12978	12974	12973	12984	9
12977	12972	12973	12984	9
12980	12972	12973	12984	9
12984	9279	9269	9272	9
12984	9279	9269	9268	9
12973	12974	12975	12982	9
12978	12974	12975	12982	9
12977	12976	12975	12982	9
12979	12976	12975	12982	9
12982	7498	7488	7491	9
12982	7498	7488	7487	9
12973	12984	9279	9269	9
12973	12984	9279	9281	9
12973	12974	12975	12976	9
12973	12972	12977	12976	9
12973	12972	12977	12981	9
12975	12982	7498	7488	9
12975	12982	7498	7500	9
12972	12973	12974	12975	9
12972	12977	12976	12975	9
12975	12976	12977	12981	9
12974	12973	12984	12985	9
12974	12973	12984	9279	9
12974	12973	12972	12977	9
12974	12973	12972	12980	9
12974	12975	12982	12983	9
12974	12975	12982	7498	9
12974	12975	12976	12977	9
12974	12975	12976	12979	9
12972	12973	12984	12985	9
12972	12973	12984	9279	9
12972	12973	12974	12978	9
12972	12977	12976	12979	9
12976	12975	12982	12983	9
12976	12975	12982	7498	9
12976	12975	12974	12978	9
12976	12977	12972	12980	9
12980	12972	12977	12981	9
12979	12976	12977	12981	9
12985	12984	9279	9269	9
12985	12984	9279	9281	9
12983	12982	7498	7488	9
12983	12982	7498	7500	9
4387	4386	4385	4396	9
4390	4386	4385	4396	9
4389	4384	4385	4396	9
4392	4384	4385	4396	9
4396	4404	4398	4399	9
4396	4404	4398	4401	9
4385	4386	4387	4394	9
4390	4386	4387	4394	9
4389	4388	4387	4394	9
4391	4388	4387	4394	9
4394	6885	6878	6879	9
4394	6885	6878	6877	9
4385	4396	4404	4398	9
4385	4396	4404	4405	9
4385	4386	4387	4388	9
4385	4384	4389	4388	9
4385	4384	4389	4393	9
4387	4394	6885	6878	9
4387	4394	6885	6887	9
4384	4385	4386	4387	9
4384	4389	4388	4387	9
4387	4388	4389	4393	9
4386	4385	4396	4397	9
4386	4385	4396	4404	9
4386	4385	4384	4389	9
4386	4385	4384	4392	9
4386	4387	4394	4395	9
4386	4387	4394	6885	9
4386	4387	4388	4389	9
4386	4387	4388	4391	9
4384	4385	4396	4397	9
4384	4385	4396	4404	9
4384	4385	4386	4390	9
4384	4389	4388	4391	9
4388	4387	4394	4395	9
4388	4387	4394	6885	9
4388	4387	4386	4390	9
4388	4389	4384	4392	9
4392	4384	4389	4393	9
4391	4388	4389	4393	9
4397	4396	4404	4398	9
4397	4396	4404	4405	9
4395	4394	6885	6878	9
4395	4394	6885	6887	9
10730	10729	10728	10739	9
10733	10729	10728	10739	9
10732	10727	10728	10739	9
10735	10727	10728	10739	9
10739	10747	10741	10744	9
10739	10747	10741	10742	9
10728	10729	10730	10737	9
10733	10729	10730	10737	9
10732	10731	10730	10737	9
10734	10731	10730	10737	9
10737	5894	5887	5886	9
10737	5894	5887	5888	9
10728	10739	10747	10741	9
10728	10739	10747	10748	9
10728	10729	10730	10731	9
10728	10727	10732	10731	9
10728	10727	10732	10736	9
10730	10737	5894	5887	9
10730	10737	5894	5896	9
10727	10728	10729	10730	9
10727	10732	10731	10730	9
10730	10731	10732	10736	9
10729	10728	10739	10740	9
10729	10728	10739	10747	9
10729	10728	10727	10732	9
10729	10728	10727	10735	9
10729	10730	10737	10738	9
10729	10730	10737	5894	9
10729	10730	10731	10732	9
10729	10730	10731	10734	9
10727	10728	10739	10740	9
10727	10728	10739	10747	9
10727	10728	10729	10733	9
10727	10732	10731	10734	9
10731	10730	10737	10738	9
10731	10730	10737	5894	9
10731	10730	10729	10733	9
10731	10732	10727	10735	9
10735	10727	10732	10736	9
10734	10731	10732	10736	9
10740	10739	10747	10741	9
10740	10739	10747	10748	9
10738	10737	5894	5887	9
10738	10737	5894	5896	9
3656	3655	3654	3665	9
3659	3655	3654	3665	9
3658	3653	3654	3665	9
3661	3653	3654	3665	9
3654	3655	3656	3663	9
3659	3655	3656	3663	9
3658	3657	3656	3663	9
3660	3657	3656	3663	9
3663	10957	10950	10949	9
3663	10957	10950	10951	9
3654	3655	3656	3657	9
3654	3653	3658	3657	9
3654	3653	3658	3662	9
3656	3663	10957	10950	9
3656	3663	10957	10959	9
3653	3654	3655	3656	9
3653	3658	3657	3656	9
3656	3657	3658	3662	9
3655	3654	3665	3666	9
3655	3654	3665	3667	9
3655	3654	3653	3658	9
3655	3654	3653	3661	9
3655	3656	3663	3664	9
3655	3656	3663	10957	9
3655	3656	3657	3658	9
3655	3656	3657	3660	9
3653	3654	3665	3666	9
3653	3654	3665	3667	9
3653	3654	3655	3659	9
3653	3658	3657	3660	9
3657	3656	3663	3664	9
3657	3656	3663	10957	9
3657	3656	3655	3659	9
3657	3658	3653	3661	9
3661	3653	3658	3662	9
3660	3657	3658	3662	9
3664	3663	10957	10950	9
3664	3663	10957	10959	9
10876	10875	10874	10885	9
10879	10875	10874	10885	9
10878	10873	10874	10885	9
10881	10873	10874	10885	9
10885	10869	10862	10863	9
10885	10869	10862	10861	9
10874	10875	10876	10883	9
10879	10875	10876	10883	9
10878	10877	10876	10883	9
10880	10877	10876	10883	9
10883	10893	10887	10888	9
10883	10893	10887	10890	9
10874	10885	10869	10862	9
10874	10885	10869	10871	9
10874	10875	10876	10877	9
10874	10873	10878	10877	9
10874	10873	10878	10882	9
10876	10883	10893	10887	9
10876	10883	10893	10894	9
10873	10874	10875	10876	9
10873	10878	10877	10876	9
10876	10877	10878	10882	9
10875	10874	10885	10886	9
10875	10874	10885	10869	9
10875	10874	10873	10878	9
10875	10874	10873	10881	9
10875	10876	10883	10884	9
10875	10876	10883	10893	9
10875	10876	10877	10878	9
10875	10876	10877	10880	9
10873	10874	10885	10886	9
10873	10874	10885	10869	9
10873	10874	10875	10879	9
10873	10878	10877	10880	9
10877	10876	10883	10884	9
10877	10876	10883	10893	9
10877	10876	10875	10879	9
10877	10878	10873	10881	9
10881	10873	10878	10882	9
10880	10877	10878	10882	9
10886	10885	10869	10862	9
10886	10885	10869	10871	9
10884	10883	10893	10887	9
10884	10883	10893	10894	9
3489	3490	3491	3498	9
3494	3490	3491	3498	9
3493	3492	3491	3498	9
3495	3492	3491	3498	9
3498	9732	9722	9721	9
3498	9732	9722	9725	9
3491	3490	3489	3500	9
3494	3490	3489	3500	9
3493	3488	3489	3500	9
3496	3488	3489	3500	9
3491	3498	9732	9722	9
3491	3498	9732	9734	9
3488	3489	3490	3491	9
3488	3493	3492	3491	9
3491	3492	3493	3497	9
3489	3490	3491	3492	9
3489	3488	3493	3492	9
3489	3488	3493	3497	9
3490	3491	3498	3499	9
3490	3491	3498	9732	9
3490	3491	3492	3493	9
3490	3491	3492	3495	9
3490	3489	3500	3501	9
3490	3489	3500	3502	9
3490	3489	3488	3493	9
3490	3489	3488	3496	9
3492	3491	3498	3499	9
3492	3491	3498	9732	9
3492	3491	3490	3494	9
3492	3493	3488	3496	9
3488	3489	3500	3501	9
3488	3489	3500	3502	9
3488	3489	3490	3494	9
3488	3493	3492	3495	9
3495	3492	3493	3497	9
3496	3488	3493	3497	9
3499	3498	9732	9722	9
3499	3498	9732	9734	9
12961	12960	12959	12970	9
12964	12960	12959	12970	9
12963	12958	12959	12970	9
12966	12958	12959	12970	9
12970	7468	7461	7462	9
12970	7468	7461	7460	9
12959	12960	12961	12968	9
12964	12960	12961	12968	9
12963	12962	12961	12968	9
12965	12962	12961	12968	9
12968	9467	9460	9461	9
12968	9467	9460	9459	9
12959	12970	7468	7461	9
12959	12970	7468	7470	9
12959	12960	12961	12962	9
12959	12958	12963	12962	9
12959	12958	12963	12967	9
12961	12968	9467	9460	9
12961	12968	9467	9469	9
12958	12959	12960	12961	9
12958	12963	12962	12961	9
12961	12962	12963	12967	9
12960	12959	12970	12971	9
12960	12959	12970	7468	9
12960	12959	12958	12963	9
12960	12959	12958	12966	9
12960	12961	12968	12969	9
12960	12961	12968	9467	9
12960	12961	12962	12963	9
12960	12961	12962	12965	9
12958	12959	12970	12971	9
12958	12959	12970	7468	9
12958	12959	12960	12964	9
12958	12963	12962	12965	9
12962	12961	12968	12969	9
12962	12961	12968	9467	9
12962	12961	12960	12964	9
12962	12963	12958	12966	9
12966	12958	12963	12967	9
12965	12962	12963	12967	9
12971	12970	7468	7461	9
12971	12970	7468	7470	9
12969	12968	9467	9460	9
12969	12968	9467	9469	9
9971	9970	9969	9980	9
9974	9970	9969	9980	9
9973	9968	9969	9980	9
9976	9968	9969	9980	9
9980	9988	9982	9985	9
9980	9988	9982	9983	9
9969	9970	9971	9978	9
9974	9970	9971	9978	9
9973	9972	9971	9978	9
9975	9972	9971	9978	9
9978	3945	3935	3934	9
9978	3945	3935	3938	9
9969	9980	9988	9982	9
9969	9980	9988	9989	9
9969	9970	9971	9972	9
9969	9968	9973	9972	9
9969	9968	9973	9977	9
9971	9978	3945	3935	9
9971	9978	3945	3947	9
9968	9969	9970	9971	9
9968	9973	9972	9971	9
9971	9972	9973	9977	9
9970	9969	9980	9981	9
9970	9969	9980	9988	9
9970	9969	9968	9973	9
9970	9969	9968	9976	9
9970	9971	9978	9979	9
9970	9971	9978	3945	9
9970	9971	9972	9973	9
9970	9971	9972	9975	9
9968	9969	9980	9981	9
9968	9969	9980	9988	9
9968	9969	9970	9974	9
9968	9973	9972	9975	9
9972	9971	9978	9979	9
9972	9971	9978	3945	9
9972	9971	9970	9974	9
9972	9973	9968	9976	9
9976	9968	9973	9977	9
9975	9972	9973	9977	9
9981	9980	9988	9982	9
9981	9980	9988	9989	9
9979	9978	3945	3935	9
9979	9978	3945	3947	9
11295	11294	11293	11304	9
11298	11294	11293	11304	9
11297	11292	11293	11304	9
11300	11292	11293	11304	9
11304	4089	4082	4083	9
11304	4089	4082	4081	9
11293	11294	11295	11302	9
11298	11294	11295	11302	9
11297	11296	11295	11302	9
11299	11296	11295	11302	9
11302	10226	10216	10219	9
11302	10226	10216	10215	9
11293	11304	4089	4082	9
11293	11304	4089	4091	9
11293	11294	11295	11296	9
11293	11292	11297	11296	9
11293	11292	11297	11301	9
11295	11302	10226	10216	9
11295	11302	10226	10228	9
11292	11293	11294	11295	9
11292	11297	11296	11295	9
11295	11296	11297	11301	9
11294	11293	11304	11305	9
11294	11293	11304	4089	9
11294	11293	11292	11297	9
11294	11293	11292	11300	9
11294	11295	11302	11303	9
11294	11295	11302	10226	9
11294	11295	11296	11297	9
11294	11295	11296	11299	9
11292	11293	11304	11305	9
11292	11293	11304	4089	9
11292	11293	11294	11298	9
11292	11297	11296	11299	9
11296	11295	11302	11303	9
11296	11295	11302	10226	9
11296	11295	11294	11298	9
11296	11297	11292	11300	9
11300	11292	11297	11301	9
11299	11296	11297	11301	9
11305	11304	4089	4082	9
11305	11304	4089	4091	9
11303	11302	10226	10216	9
11303	11302	10226	10228	9
3399	3400	3401	3408	9
3404	3400	3401	3408	9
3403	3402	3401	3408	9
3405	3402	3401	3408	9
3408	9496	9489	9488	9
3408	9496	9489	9490	9
3401	3400	3399	3410	9
3404	3400	3399	3410	9
3403	3398	3399	3410	9
3406	3398	3399	3410	9
3401	3408	9496	9489	9
3401	3408	9496	9498	9
3398	3399	3400	3401	9
3398	3403	3402	3401	9
3401	3402	3403	3407	9
3399	3400	3401	3402	9
3399	3398	3403	3402	9
3399	3398	3403	3407	9
3400	3401	3408	3409	9
3400	3401	3408	9496	9
3400	3401	3402	3403	9
3400	3401	3402	3405	9
3400	3399	3410	3412	9
3400	3399	3410	3411	9
3400	3399	3398	3403	9
3400	3399	3398	3406	9
3402	3401	3408	3409	9
3402	3401	3408	9496	9
3402	3401	3400	3404	9
3402	3403	3398	3406	9
3398	3399	3410	3412	9
3398	3399	3410	3411	9
3398	3399	3400	3404	9
3398	3403	3402	3405	9
3405	3402	3403	3407	9
3406	3398	3403	3407	9
3409	3408	9496	9489	9
3409	3408	9496	9498	9
9942	9941	9940	9951	9
9945	9941	9940	9951	9
9944	9939	9940	9951	9
9947	9939	9940	9951	9
9951	9959	9953	9954	9
9951	9959	9953	9956	9
9940	9941	9942	9949	9
9945	9941	9942	9949	9
9944	9943	9942	9949	9
9946	9943	9942	9949	9
9949	5295	5288	5287	9
9949	5295	5288	5289	9
9940	9951	9959	9953	9
9940	9951	9959	9960	9
9940	9941	9942	9943	9
9940	9939	9944	9943	9
9940	9939	9944	9948	9
9942	9949	5295	5288	9
9942	9949	5295	5297	9
9939	9940	9941	9942	9
9939	9944	9943	9942	9
9942	9943	9944	9948	9
9941	9940	9951	9952	9
9941	9940	9951	9959	9
9941	9940	9939	9944	9
9941	9940	9939	9947	9
9941	9942	9949	9950	9
9941	9942	9949	5295	9
9941	9942	9943	9944	9
9941	9942	9943	9946	9
9939	9940	9951	9952	9
9939	9940	9951	9959	9
9939	9940	9941	9945	9
9939	9944	9943	9946	9
9943	9942	9949	9950	9
9943	9942	9949	5295	9
9943	9942	9941	9945	9
9943	9944	9939	9947	9
9947	9939	9944	9948	9
9946	9943	9944	9948	9
9952	9951	9959	9953	9
9952	9951	9959	9960	9
9950	9949	5295	5288	9
9950	9949	5295	5297	9
4924	4923	4922	4933	9
4927	4923	4922	4933	9
4926	4921	4922	4933	9
4929	4921	4922	4933	9
4933	4941	4935	4936	9
4933	4941	4935	4938	9
4922	4923	4924	4931	9
4927	4923	4924	4931	9
4926	4925	4924	4931	9
4928	4925	4924	4931	9
4931	5977	5971	5974	9
4931	5977	5971	5972	9
4922	4933	4941	4935	9
4922	4933	4941	4942	9
4922	4923	4924	4925	9
4922	4921	4926	4925	9
4922	4921	4926	4930	9
4924	4931	5977	5971	9
4924	4931	5977	5978	9
4921	4922	4923	4924	9
4921	4926	4925	4924	9
4924	4925	4926	4930	9
4923	4922	4933	4934	9
4923	4922	4933	4941	9
4923	4922	4921	4926	9
4923	4922	4921	4929	9
4923	4924	4931	4932	9
4923	4924	4931	5977	9
4923	4924	4925	4926	9
4923	4924	4925	4928	9
4921	4922	4933	4934	9
4921	4922	4933	4941	9
4921	4922	4923	4927	9
4921	4926	4925	4928	9
4925	4924	4931	4932	9
4925	4924	4931	5977	9
4925	4924	4923	4927	9
4925	4926	4921	4929	9
4929	4921	4926	4930	9
4928	4925	4926	4930	9
4934	4933	4941	4935	9
4934	4933	4941	4942	9
4932	4931	5977	5971	9
4932	4931	5977	5978	9
2576	2575	2574	2585	9
2579	2575	2574	2585	9
2578	2573	2574	2585	9
2581	2573	2574	2585	9
2574	2575	2576	2583	9
2579	2575	2576	2583	9
2578	2577	2576	2583	9
2580	2577	2576	2583	9
2583	3823	3817	3820	9
2583	3823	3817	3818	9
2574	2575	2576	2577	9
2574	2573	2578	2577	9
2574	2573	2578	2582	9
2576	2583	3823	3817	9
2576	2583	3823	3824	9
2573	2574	2575	2576	9
2573	2578	2577	2576	9
2576	2577	2578	2582	9
2575	2574	2585	2586	9
2575	2574	2585	2587	9
2575	2574	2573	2578	9
2575	2574	2573	2581	9
2575	2576	2583	2584	9
2575	2576	2583	3823	9
2575	2576	2577	2578	9
2575	2576	2577	2580	9
2573	2574	2585	2586	9
2573	2574	2585	2587	9
2573	2574	2575	2579	9
2573	2578	2577	2580	9
2577	2576	2583	2584	9
2577	2576	2583	3823	9
2577	2576	2575	2579	9
2577	2578	2573	2581	9
2581	2573	2578	2582	9
2580	2577	2578	2582	9
2584	2583	3823	3817	9
2584	2583	3823	3824	9
3024	3025	3026	3033	9
3029	3025	3026	3033	9
3028	3027	3026	3033	9
3030	3027	3026	3033	9
3033	7425	7415	7418	9
3033	7425	7415	7414	9
3026	3025	3024	3035	9
3029	3025	3024	3035	9
3028	3023	3024	3035	9
3031	3023	3024	3035	9
3026	3033	7425	7415	9
3026	3033	7425	7427	9
3023	3024	3025	3026	9
3023	3028	3027	3026	9
3026	3027	3028	3032	9
3024	3025	3026	3027	9
3024	3023	3028	3027	9
3024	3023	3028	3032	9
3025	3026	3033	3034	9
3025	3026	3033	7425	9
3025	3026	3027	3028	9
3025	3026	3027	3030	9
3025	3024	3035	3036	9
3025	3024	3035	3037	9
3025	3024	3023	3028	9
3025	3024	3023	3031	9
3027	3026	3033	3034	9
3027	3026	3033	7425	9
3027	3026	3025	3029	9
3027	3028	3023	3031	9
3023	3024	3035	3036	9
3023	3024	3035	3037	9
3023	3024	3025	3029	9
3023	3028	3027	3030	9
3030	3027	3028	3032	9
3031	3023	3028	3032	9
3034	3033	7425	7415	9
3034	3033	7425	7427	9
6848	6847	6846	6857	9
6851	6847	6846	6857	9
6850	6845	6846	6857	9
6853	6845	6846	6857	9
6857	6667	6657	6660	9
6857	6667	6657	6656	9
6846	6847	6848	6855	9
6851	6847	6848	6855	9
6850	6849	6848	6855	9
6852	6849	6848	6855	9
6855	6865	6859	6860	9
6855	6865	6859	6862	9
6846	6857	6667	6657	9
6846	6857	6667	6669	9
6846	6847	6848	6849	9
6846	6845	6850	6849	9
6846	6845	6850	6854	9
6848	6855	6865	6859	9
6848	6855	6865	6866	9
6845	6846	6847	6848	9
6845	6850	6849	6848	9
6848	6849	6850	6854	9
6847	6846	6857	6858	9
6847	6846	6857	6667	9
6847	6846	6845	6850	9
6847	6846	6845	6853	9
6847	6848	6855	6856	9
6847	6848	6855	6865	9
6847	6848	6849	6850	9
6847	6848	6849	6852	9
6845	6846	6857	6858	9
6845	6846	6857	6667	9
6845	6846	6847	6851	9
6845	6850	6849	6852	9
6849	6848	6855	6856	9
6849	6848	6855	6865	9
6849	6848	6847	6851	9
6849	6850	6845	6853	9
6853	6845	6850	6854	9
6852	6849	6850	6854	9
6858	6857	6667	6657	9
6858	6857	6667	6669	9
6856	6855	6865	6859	9
6856	6855	6865	6866	9
11939	11938	11937	11948	9
11942	11938	11937	11948	9
11941	11936	11937	11948	9
11944	11936	11937	11948	9
11948	5179	5172	5171	9
11948	5179	5172	5173	9
11937	11938	11939	11946	9
11942	11938	11939	11946	9
11941	11940	11939	11946	9
11943	11940	11939	11946	9
11946	8725	8715	8718	9
11946	8725	8715	8714	9
11937	11948	5179	5172	9
11937	11948	5179	5181	9
11937	11938	11939	11940	9
11937	11936	11941	11940	9
11937	11936	11941	11945	9
11939	11946	8725	8715	9
11939	11946	8725	8727	9
11936	11937	11938	11939	9
11936	11941	11940	11939	9
11939	11940	11941	11945	9
11938	11937	11948	11949	9
11938	11937	11948	5179	9
11938	11937	11936	11941	9
11938	11937	11936	11944	9
11938	11939	11946	11947	9
11938	11939	11946	8725	9
11938	11939	11940	11941	9
11938	11939	11940	11943	9
11936	11937	11948	11949	9
11936	11937	11948	5179	9
11936	11937	11938	11942	9
11936	11941	11940	11943	9
11940	11939	11946	11947	9
11940	11939	11946	8725	9
11940	11939	11938	11942	9
11940	11941	11936	11944	9
11944	11936	11941	11945	9
11943	11940	11941	11945	9
11949	11948	5179	5172	9
11949	11948	5179	5181	9
11947	11946	8725	8715	9
11947	11946	8725	8727	9
11995	11994	11993	12004	9
11998	11994	11993	12004	9
11997	11992	11993	12004	9
12000	11992	11993	12004	9
12004	8021	8014	8015	9
12004	8021	8014	8013	9
11993	11994	11995	12002	9
11998	11994	11995	12002	9
11997	11996	11995	12002	9
11999	11996	11995	12002	9
12002	5398	5388	5391	9
12002	5398	5388	5387	9
11993	12004	8021	8014	9
11993	12004	8021	8023	9
11993	11994	11995	11996	9
11993	11992	11997	11996	9
11993	11992	11997	12001	9
11995	12002	5398	5388	9
11995	12002	5398	5400	9
11992	11993	11994	11995	9
11992	11997	11996	11995	9
11995	11996	11997	12001	9
11994	11993	12004	12005	9
11994	11993	12004	8021	9
11994	11993	11992	11997	9
11994	11993	11992	12000	9
11994	11995	12002	12003	9
11994	11995	12002	5398	9
11994	11995	11996	11997	9
11994	11995	11996	11999	9
11992	11993	12004	12005	9
11992	11993	12004	8021	9
11992	11993	11994	11998	9
11992	11997	11996	11999	9
11996	11995	12002	12003	9
11996	11995	12002	5398	9
11996	11995	11994	11998	9
11996	11997	11992	12000	9
12000	11992	11997	12001	9
11999	11996	11997	12001	9
12005	12004	8021	8014	9
12005	12004	8021	8023	9
12003	12002	5398	5388	9
12003	12002	5398	5400	9
582	581	580	591	9
585	581	580	591	9
584	579	580	591	9
587	579	580	591	9
591	10411	10405	10408	9
591	10411	10405	10406	9
580	581	582	589	9
585	581	582	589	9
584	583	582	589	9
586	583	582	589	9
563	562	568	589	9
565	562	568	589	9
580	591	10411	10405	9
580	591	10411	10412	9
580	581	582	583	9
580	579	584	583	9
580	579	584	588	9
562	568	589	582	9
569	568	589	582	9
579	580	581	582	9
579	584	583	582	9
582	583	584	588	9
581	580	591	592	9
581	580	591	10411	9
581	580	579	584	9
581	580	579	587	9
581	582	589	590	9
568	589	582	581	9
581	582	583	584	9
581	582	583	586	9
579	580	591	592	9
579	580	591	10411	9
579	580	581	585	9
579	584	583	586	9
583	582	589	590	9
568	589	582	583	9
583	582	581	585	9
583	584	579	587	9
587	579	584	588	9
586	583	584	588	9
592	591	10411	10405	9
592	591	10411	10412	9
562	568	589	590	9
569	568	589	590	9
13199	13198	13197	13208	9
13202	13198	13197	13208	9
13201	13196	13197	13208	9
13204	13196	13197	13208	9
13208	9630	9620	9619	9
13208	9630	9620	9623	9
13197	13198	13199	13206	9
13202	13198	13199	13206	9
13201	13200	13199	13206	9
13203	13200	13199	13206	9
13206	8152	8145	8144	9
13206	8152	8145	8146	9
13197	13208	9630	9620	9
13197	13208	9630	9632	9
13197	13198	13199	13200	9
13197	13196	13201	13200	9
13197	13196	13201	13205	9
13199	13206	8152	8145	9
13199	13206	8152	8154	9
13196	13197	13198	13199	9
13196	13201	13200	13199	9
13199	13200	13201	13205	9
13198	13197	13208	13209	9
13198	13197	13208	9630	9
13198	13197	13196	13201	9
13198	13197	13196	13204	9
13198	13199	13206	13207	9
13198	13199	13206	8152	9
13198	13199	13200	13201	9
13198	13199	13200	13203	9
13196	13197	13208	13209	9
13196	13197	13208	9630	9
13196	13197	13198	13202	9
13196	13201	13200	13203	9
13200	13199	13206	13207	9
13200	13199	13206	8152	9
13200	13199	13198	13202	9
13200	13201	13196	13204	9
13204	13196	13201	13205	9
13203	13200	13201	13205	9
13209	13208	9630	9620	9
13209	13208	9630	9632	9
13207	13206	8152	8145	9
13207	13206	8152	8154	9
12065	12064	12063	12074	9
12068	12064	12063	12074	9
12067	12062	12063	12074	9
12070	12062	12063	12074	9
12074	10519	10512	10513	9
12074	10519	10512	10511	9
12063	12064	12065	12072	9
12068	12064	12065	12072	9
12067	12066	12065	12072	9
12069	12066	12065	12072	9
12072	5499	5492	5491	9
12072	5499	5492	5493	9
12063	12074	10519	10512	9
12063	12074	10519	10521	9
12063	12064	12065	12066	9
12063	12062	12067	12066	9
12063	12062	12067	12071	9
12065	12072	5499	5492	9
12065	12072	5499	5501	9
12062	12063	12064	12065	9
12062	12067	12066	12065	9
12065	12066	12067	12071	9
12064	12063	12074	12075	9
12064	12063	12074	10519	9
12064	12063	12062	12067	9
12064	12063	12062	12070	9
12064	12065	12072	12073	9
12064	12065	12072	5499	9
12064	12065	12066	12067	9
12064	12065	12066	12069	9
12062	12063	12074	12075	9
12062	12063	12074	10519	9
12062	12063	12064	12068	9
12062	12067	12066	12069	9
12066	12065	12072	12073	9
12066	12065	12072	5499	9
12066	12065	12064	12068	9
12066	12067	12062	12070	9
12070	12062	12067	12071	9
12069	12066	12067	12071	9
12075	12074	10519	10512	9
12075	12074	10519	10521	9
12073	12072	5499	5492	9
12073	12072	5499	5501	9
6397	6396	6395	6406	9
6400	6396	6395	6406	9
6399	6394	6395	6406	9
6402	6394	6395	6406	9
1755	1754	1761	6406	9
1753	1754	1761	6406	9
6395	6396	6397	6404	9
6400	6396	6397	6404	9
6399	6398	6397	6404	9
6401	6398	6397	6404	9
6404	6414	6408	6411	9
6404	6414	6408	6409	9
1754	1761	6406	6395	9
1763	1761	6406	6395	9
6395	6396	6397	6398	9
6395	6394	6399	6398	9
6395	6394	6399	6403	9
6397	6404	6414	6408	9
6397	6404	6414	6415	9
6394	6395	6396	6397	9
6394	6399	6398	6397	9
6397	6398	6399	6403	9
6396	6395	6406	6407	9
1761	6406	6395	6396	9
6396	6395	6394	6399	9
6396	6395	6394	6402	9
6396	6397	6404	6405	9
6396	6397	6404	6414	9
6396	6397	6398	6399	9
6396	6397	6398	6401	9
6394	6395	6406	6407	9
1761	6406	6395	6394	9
6394	6395	6396	6400	9
6394	6399	6398	6401	9
6398	6397	6404	6405	9
6398	6397	6404	6414	9
6398	6397	6396	6400	9
6398	6399	6394	6402	9
6402	6394	6399	6403	9
6401	6398	6399	6403	9
1754	1761	6406	6407	9
1763	1761	6406	6407	9
6405	6404	6414	6408	9
6405	6404	6414	6415	9
3281	3280	3279	3290	9
3284	3280	3279	3290	9
3283	3278	3279	3290	9
3286	3278	3279	3290	9
3279	3280	3281	3288	9
3284	3280	3281	3288	9
3283	3282	3281	3288	9
3285	3282	3281	3288	9
3288	8982	8976	8977	9
3288	8982	8976	8979	9
3279	3280	3281	3282	9
3279	3278	3283	3282	9
3279	3278	3283	3287	9
3281	3288	8982	8976	9
3281	3288	8982	8983	9
3278	3279	3280	3281	9
3278	3283	3282	3281	9
3281	3282	3283	3287	9
3280	3279	3290	3292	9
3280	3279	3290	3291	9
3280	3279	3278	3283	9
3280	3279	3278	3286	9
3280	3281	3288	3289	9
3280	3281	3288	8982	9
3280	3281	3282	3283	9
3280	3281	3282	3285	9
3278	3279	3290	3292	9
3278	3279	3290	3291	9
3278	3279	3280	3284	9
3278	3283	3282	3285	9
3282	3281	3288	3289	9
3282	3281	3288	8982	9
3282	3281	3280	3284	9
3282	3283	3278	3286	9
3286	3278	3283	3287	9
3285	3282	3283	3287	9
3289	3288	8982	8976	9
3289	3288	8982	8983	9
3161	3160	3159	3170	9
3164	3160	3159	3170	9
3163	3158	3159	3170	9
3166	3158	3159	3170	9
3159	3160	3161	3168	9
3164	3160	3161	3168	9
3163	3162	3161	3168	9
3165	3162	3161	3168	9
3168	8519	8512	8513	9
3168	8519	8512	8511	9
3159	3160	3161	3162	9
3159	3158	3163	3162	9
3159	3158	3163	3167	9
3161	3168	8519	8512	9
3161	3168	8519	8521	9
3158	3159	3160	3161	9
3158	3163	3162	3161	9
3161	3162	3163	3167	9
3160	3159	3170	3172	9
3160	3159	3170	3171	9
3160	3159	3158	3163	9
3160	3159	3158	3166	9
3160	3161	3168	3169	9
3160	3161	3168	8519	9
3160	3161	3162	3163	9
3160	3161	3162	3165	9
3158	3159	3170	3172	9
3158	3159	3170	3171	9
3158	3159	3160	3164	9
3158	3163	3162	3165	9
3162	3161	3168	3169	9
3162	3161	3168	8519	9
3162	3161	3160	3164	9
3162	3163	3158	3166	9
3166	3158	3163	3167	9
3165	3162	3163	3167	9
3169	3168	8519	8512	9
3169	3168	8519	8521	9
11687	11686	11685	11696	9
11690	11686	11685	11696	9
11689	11684	11685	11696	9
11692	11684	11685	11696	9
11696	8286	8276	8275	9
11696	8286	8276	8279	9
11685	11686	11687	11694	9
11690	11686	11687	11694	9
11689	11688	11687	11694	9
11691	11688	11687	11694	9
11694	4728	4721	4720	9
11694	4728	4721	4722	9
11685	11696	8286	8276	9
11685	11696	8286	8288	9
11685	11686	11687	11688	9
11685	11684	11689	11688	9
11685	11684	11689	11693	9
11687	11694	4728	4721	9
11687	11694	4728	4730	9
11684	11685	11686	11687	9
11684	11689	11688	11687	9
11687	11688	11689	11693	9
11686	11685	11696	11697	9
11686	11685	11696	8286	9
11686	11685	11684	11689	9
11686	11685	11684	11692	9
11686	11687	11694	11695	9
11686	11687	11694	4728	9
11686	11687	11688	11689	9
11686	11687	11688	11691	9
11684	11685	11696	11697	9
11684	11685	11696	8286	9
11684	11685	11686	11690	9
11684	11689	11688	11691	9
11688	11687	11694	11695	9
11688	11687	11694	4728	9
11688	11687	11686	11690	9
11688	11689	11684	11692	9
11692	11684	11689	11693	9
11691	11688	11689	11693	9
11697	11696	8286	8276	9
11697	11696	8286	8288	9
11695	11694	4728	4721	9
11695	11694	4728	4730	9
12917	12918	12919	12926	9
12922	12918	12919	12926	9
12921	12920	12919	12926	9
12923	12920	12919	12926	9
12926	7351	7344	7343	9
12926	7351	7344	7345	9
12919	12918	12917	12928	9
12922	12918	12917	12928	9
12921	12916	12917	12928	9
12924	12916	12917	12928	9
12928	8665	8658	8657	9
12928	8665	8658	8659	9
12919	12926	7351	7344	9
12919	12926	7351	7353	9
12916	12917	12918	12919	9
12916	12921	12920	12919	9
12919	12920	12921	12925	9
12917	12928	8665	8658	9
12917	12928	8665	8667	9
12917	12918	12919	12920	9
12917	12916	12921	12920	9
12917	12916	12921	12925	9
12918	12919	12926	12927	9
12918	12919	12926	7351	9
12918	12919	12920	12921	9
12918	12919	12920	12923	9
12918	12917	12928	12929	9
12918	12917	12928	8665	9
12918	12917	12916	12921	9
12918	12917	12916	12924	9
12920	12919	12926	12927	9
12920	12919	12926	7351	9
12920	12919	12918	12922	9
12920	12921	12916	12924	9
12916	12917	12928	12929	9
12916	12917	12928	8665	9
12916	12917	12918	12922	9
12916	12921	12920	12923	9
12923	12920	12921	12925	9
12924	12916	12921	12925	9
12927	12926	7351	7344	9
12927	12926	7351	7353	9
12929	12928	8665	8658	9
12929	12928	8665	8667	9
12317	12316	12315	12326	9
12320	12316	12315	12326	9
12319	12314	12315	12326	9
12322	12314	12315	12326	9
12326	5835	5828	5829	9
12326	5835	5828	5827	9
12315	12316	12317	12324	9
12320	12316	12317	12324	9
12319	12318	12317	12324	9
12321	12318	12317	12324	9
12324	8608	8598	8597	9
12324	8608	8598	8601	9
12315	12326	5835	5828	9
12315	12326	5835	5837	9
12315	12316	12317	12318	9
12315	12314	12319	12318	9
12315	12314	12319	12323	9
12317	12324	8608	8598	9
12317	12324	8608	8610	9
12314	12315	12316	12317	9
12314	12319	12318	12317	9
12317	12318	12319	12323	9
12316	12315	12326	12327	9
12316	12315	12326	5835	9
12316	12315	12314	12319	9
12316	12315	12314	12322	9
12316	12317	12324	12325	9
12316	12317	12324	8608	9
12316	12317	12318	12319	9
12316	12317	12318	12321	9
12314	12315	12326	12327	9
12314	12315	12326	5835	9
12314	12315	12316	12320	9
12314	12319	12318	12321	9
12318	12317	12324	12325	9
12318	12317	12324	8608	9
12318	12317	12316	12320	9
12318	12319	12314	12322	9
12322	12314	12319	12323	9
12321	12318	12319	12323	9
12327	12326	5835	5828	9
12327	12326	5835	5837	9
12325	12324	8608	8598	9
12325	12324	8608	8610	9
12345	12344	12343	12354	9
12348	12344	12343	12354	9
12347	12342	12343	12354	9
12350	12342	12343	12354	9
12354	5864	5857	5858	9
12354	5864	5857	5856	9
12343	12344	12345	12352	9
12348	12344	12345	12352	9
12347	12346	12345	12352	9
12349	12346	12345	12352	9
12352	10270	10260	10259	9
12352	10270	10260	10263	9
12343	12354	5864	5857	9
12343	12354	5864	5866	9
12343	12344	12345	12346	9
12343	12342	12347	12346	9
12343	12342	12347	12351	9
12345	12352	10270	10260	9
12345	12352	10270	10272	9
12342	12343	12344	12345	9
12342	12347	12346	12345	9
12345	12346	12347	12351	9
12344	12343	12354	12355	9
12344	12343	12354	5864	9
12344	12343	12342	12347	9
12344	12343	12342	12350	9
12344	12345	12352	12353	9
12344	12345	12352	10270	9
12344	12345	12346	12347	9
12344	12345	12346	12349	9
12342	12343	12354	12355	9
12342	12343	12354	5864	9
12342	12343	12344	12348	9
12342	12347	12346	12349	9
12346	12345	12352	12353	9
12346	12345	12352	10270	9
12346	12345	12344	12348	9
12346	12347	12342	12350	9
12350	12342	12347	12351	9
12349	12346	12347	12351	9
12355	12354	5864	5857	9
12355	12354	5864	5866	9
12353	12352	10270	10260	9
12353	12352	10270	10272	9
3354	3355	3356	3363	9
3359	3355	3356	3363	9
3358	3357	3356	3363	9
3360	3357	3356	3363	9
3363	9133	9126	9125	9
3363	9133	9126	9127	9
3356	3355	3354	3365	9
3359	3355	3354	3365	9
3358	3353	3354	3365	9
3361	3353	3354	3365	9
3356	3363	9133	9126	9
3356	3363	9133	9135	9
3353	3354	3355	3356	9
3353	3358	3357	3356	9
3356	3357	3358	3362	9
3354	3355	3356	3357	9
3354	3353	3358	3357	9
3354	3353	3358	3362	9
3355	3356	3363	3364	9
3355	3356	3363	9133	9
3355	3356	3357	3358	9
3355	3356	3357	3360	9
3355	3354	3365	3366	9
3355	3354	3365	3367	9
3355	3354	3353	3358	9
3355	3354	3353	3361	9
3357	3356	3363	3364	9
3357	3356	3363	9133	9
3357	3356	3355	3359	9
3357	3358	3353	3361	9
3353	3354	3365	3366	9
3353	3354	3365	3367	9
3353	3354	3355	3359	9
3353	3358	3357	3360	9
3360	3357	3358	3362	9
3361	3353	3358	3362	9
3364	3363	9133	9126	9
3364	3363	9133	9135	9
9198	9197	9196	9207	9
9201	9197	9196	9207	9
9200	9195	9196	9207	9
9203	9195	9196	9207	9
9207	9215	9209	9212	9
9207	9215	9209	9210	9
9196	9197	9198	9205	9
9201	9197	9198	9205	9
9200	9199	9198	9205	9
9202	9199	9198	9205	9
9205	9857	9851	9854	9
9205	9857	9851	9852	9
9196	9207	9215	9209	9
9196	9207	9215	9216	9
9196	9197	9198	9199	9
9196	9195	9200	9199	9
9196	9195	9200	9204	9
9198	9205	9857	9851	9
9198	9205	9857	9858	9
9195	9196	9197	9198	9
9195	9200	9199	9198	9
9198	9199	9200	9204	9
9197	9196	9207	9208	9
9197	9196	9207	9215	9
9197	9196	9195	9200	9
9197	9196	9195	9203	9
9197	9198	9205	9206	9
9197	9198	9205	9857	9
9197	9198	9199	9200	9
9197	9198	9199	9202	9
9195	9196	9207	9208	9
9195	9196	9207	9215	9
9195	9196	9197	9201	9
9195	9200	9199	9202	9
9199	9198	9205	9206	9
9199	9198	9205	9857	9
9199	9198	9197	9201	9
9199	9200	9195	9203	9
9203	9195	9200	9204	9
9202	9199	9200	9204	9
9208	9207	9215	9209	9
9208	9207	9215	9216	9
9206	9205	9857	9851	9
9206	9205	9857	9858	9
9416	9415	9414	9425	9
9419	9415	9414	9425	9
9418	9413	9414	9425	9
9421	9413	9414	9425	9
9425	8344	8337	8336	9
9425	8344	8337	8338	9
9414	9415	9416	9423	9
9419	9415	9416	9423	9
9418	9417	9416	9423	9
9420	9417	9416	9423	9
9423	9433	9427	9430	9
9423	9433	9427	9428	9
9414	9425	8344	8337	9
9414	9425	8344	8346	9
9414	9415	9416	9417	9
9414	9413	9418	9417	9
9414	9413	9418	9422	9
9416	9423	9433	9427	9
9416	9423	9433	9434	9
9413	9414	9415	9416	9
9413	9418	9417	9416	9
9416	9417	9418	9422	9
9415	9414	9425	9426	9
9415	9414	9425	8344	9
9415	9414	9413	9418	9
9415	9414	9413	9421	9
9415	9416	9423	9424	9
9415	9416	9423	9433	9
9415	9416	9417	9418	9
9415	9416	9417	9420	9
9413	9414	9425	9426	9
9413	9414	9425	8344	9
9413	9414	9415	9419	9
9413	9418	9417	9420	9
9417	9416	9423	9424	9
9417	9416	9423	9433	9
9417	9416	9415	9419	9
9417	9418	9413	9421	9
9421	9413	9418	9422	9
9420	9417	9418	9422	9
9426	9425	8344	8337	9
9426	9425	8344	8346	9
9424	9423	9433	9427	9
9424	9423	9433	9434	9
12135	12134	12133	12144	9
12138	12134	12133	12144	9
12137	12132	12133	12144	9
12140	12132	12133	12144	9
12144	5558	5551	5550	9
12144	5558	5551	5552	9
12133	12134	12135	12142	9
12138	12134	12135	12142	9
12137	12136	12135	12142	9
12139	12136	12135	12142	9
12142	8241	8234	8235	9
12142	8241	8234	8233	9
12133	12144	5558	5551	9
12133	12144	5558	5560	9
12133	12134	12135	12136	9
12133	12132	12137	12136	9
12133	12132	12137	12141	9
12135	12142	8241	8234	9
12135	12142	8241	8243	9
12132	12133	12134	12135	9
12132	12137	12136	12135	9
12135	12136	12137	12141	9
12134	12133	12144	12145	9
12134	12133	12144	5558	9
12134	12133	12132	12137	9
12134	12133	12132	12140	9
12134	12135	12142	12143	9
12134	12135	12142	8241	9
12134	12135	12136	12137	9
12134	12135	12136	12139	9
12132	12133	12144	12145	9
12132	12133	12144	5558	9
12132	12133	12134	12138	9
12132	12137	12136	12139	9
12136	12135	12142	12143	9
12136	12135	12142	8241	9
12136	12135	12134	12138	9
12136	12137	12132	12140	9
12140	12132	12137	12141	9
12139	12136	12137	12141	9
12145	12144	5558	5551	9
12145	12144	5558	5560	9
12143	12142	8241	8234	9
12143	12142	8241	8243	9
4968	4967	4966	4977	9
4971	4967	4966	4977	9
4970	4965	4966	4977	9
4973	4965	4966	4977	9
4977	10416	10409	10408	9
4977	10416	10409	10410	9
4966	4967	4968	4975	9
4971	4967	4968	4975	9
4970	4969	4968	4975	9
4972	4969	4968	4975	9
4975	4985	4979	4980	9
4975	4985	4979	4982	9
4966	4977	10416	10409	9
4966	4977	10416	10418	9
4966	4967	4968	4969	9
4966	4965	4970	4969	9
4966	4965	4970	4974	9
4968	4975	4985	4979	9
4968	4975	4985	4986	9
4965	4966	4967	4968	9
4965	4970	4969	4968	9
4968	4969	4970	4974	9
4967	4966	4977	4978	9
4967	4966	4977	10416	9
4967	4966	4965	4970	9
4967	4966	4965	4973	9
4967	4968	4975	4976	9
4967	4968	4975	4985	9
4967	4968	4969	4970	9
4967	4968	4969	4972	9
4965	4966	4977	4978	9
4965	4966	4977	10416	9
4965	4966	4967	4971	9
4965	4970	4969	4972	9
4969	4968	4975	4976	9
4969	4968	4975	4985	9
4969	4968	4967	4971	9
4969	4970	4965	4973	9
4973	4965	4970	4974	9
4972	4969	4970	4974	9
4978	4977	10416	10409	9
4978	4977	10416	10418	9
4976	4975	4985	4979	9
4976	4975	4985	4986	9
1968	1967	1966	1977	9
1971	1967	1966	1977	9
1970	1965	1966	1977	9
1973	1965	1966	1977	9
1982	1981	1979	1977	9
1986	1981	1979	1977	9
1966	1967	1968	1975	9
1971	1967	1968	1975	9
1970	1969	1968	1975	9
1972	1969	1968	1975	9
1975	4467	4460	4461	9
1975	4467	4460	4459	9
1981	1979	1977	1966	9
1980	1979	1977	1966	9
1966	1967	1968	1969	9
1966	1965	1970	1969	9
1966	1965	1970	1974	9
1968	1975	4467	4460	9
1968	1975	4467	4469	9
1965	1966	1967	1968	9
1965	1970	1969	1968	9
1968	1969	1970	1974	9
1967	1966	1977	1978	9
1979	1977	1966	1967	9
1967	1966	1965	1970	9
1967	1966	1965	1973	9
1967	1968	1975	1976	9
1967	1968	1975	4467	9
1967	1968	1969	1970	9
1967	1968	1969	1972	9
1965	1966	1977	1978	9
1979	1977	1966	1965	9
1965	1966	1967	1971	9
1965	1970	1969	1972	9
1969	1968	1975	1976	9
1969	1968	1975	4467	9
1969	1968	1967	1971	9
1969	1970	1965	1973	9
1973	1965	1970	1974	9
1972	1969	1970	1974	9
1981	1979	1977	1978	9
1980	1979	1977	1978	9
1976	1975	4467	4460	9
1976	1975	4467	4469	9
7766	7765	7764	7775	9
7769	7765	7764	7775	9
7768	7763	7764	7775	9
7771	7763	7764	7775	9
7775	6870	6863	6864	9
7775	6870	6863	6862	9
7764	7765	7766	7773	9
7769	7765	7766	7773	9
7768	7767	7766	7773	9
7770	7767	7766	7773	9
7773	7783	7777	7778	9
7773	7783	7777	7780	9
7764	7775	6870	6863	9
7764	7775	6870	6872	9
7764	7765	7766	7767	9
7764	7763	7768	7767	9
7764	7763	7768	7772	9
7766	7773	7783	7777	9
7766	7773	7783	7784	9
7763	7764	7765	7766	9
7763	7768	7767	7766	9
7766	7767	7768	7772	9
7765	7764	7775	7776	9
7765	7764	7775	6870	9
7765	7764	7763	7768	9
7765	7764	7763	7771	9
7765	7766	7773	7774	9
7765	7766	7773	7783	9
7765	7766	7767	7768	9
7765	7766	7767	7770	9
7763	7764	7775	7776	9
7763	7764	7775	6870	9
7763	7764	7765	7769	9
7763	7768	7767	7770	9
7767	7766	7773	7774	9
7767	7766	7773	7783	9
7767	7766	7765	7769	9
7767	7768	7763	7771	9
7771	7763	7768	7772	9
7770	7767	7768	7772	9
7776	7775	6870	6863	9
7776	7775	6870	6872	9
7774	7773	7783	7777	9
7774	7773	7783	7784	9
6557	6556	6555	6566	9
6560	6556	6555	6566	9
6559	6554	6555	6566	9
6562	6554	6555	6566	9
6566	9726	9720	9721	9
6566	9726	9720	9723	9
6555	6556	6557	6564	9
6560	6556	6557	6564	9
6559	6558	6557	6564	9
6561	6558	6557	6564	9
6564	6574	6568	6569	9
6564	6574	6568	6571	9
6555	6566	9726	9720	9
6555	6566	9726	9727	9
6555	6556	6557	6558	9
6555	6554	6559	6558	9
6555	6554	6559	6563	9
6557	6564	6574	6568	9
6557	6564	6574	6575	9
6554	6555	6556	6557	9
6554	6559	6558	6557	9
6557	6558	6559	6563	9
6556	6555	6566	6567	9
6556	6555	6566	9726	9
6556	6555	6554	6559	9
6556	6555	6554	6562	9
6556	6557	6564	6565	9
6556	6557	6564	6574	9
6556	6557	6558	6559	9
6556	6557	6558	6561	9
6554	6555	6566	6567	9
6554	6555	6566	9726	9
6554	6555	6556	6560	9
6554	6559	6558	6561	9
6558	6557	6564	6565	9
6558	6557	6564	6574	9
6558	6557	6556	6560	9
6558	6559	6554	6562	9
6562	6554	6559	6563	9
6561	6558	6559	6563	9
6567	6566	9726	9720	9
6567	6566	9726	9727	9
6565	6564	6574	6568	9
6565	6564	6574	6575	9
5477	5476	5475	5486	9
5480	5476	5475	5486	9
5479	5474	5475	5486	9
5482	5474	5475	5486	9
5486	5494	5488	5491	9
5486	5494	5488	5489	9
5475	5476	5477	5484	9
5480	5476	5477	5484	9
5479	5478	5477	5484	9
5481	5478	5477	5484	9
5484	8636	8629	8630	9
5484	8636	8629	8628	9
5475	5486	5494	5488	9
5475	5486	5494	5495	9
5475	5476	5477	5478	9
5475	5474	5479	5478	9
5475	5474	5479	5483	9
5477	5484	8636	8629	9
5477	5484	8636	8638	9
5474	5475	5476	5477	9
5474	5479	5478	5477	9
5477	5478	5479	5483	9
5476	5475	5486	5487	9
5476	5475	5486	5494	9
5476	5475	5474	5479	9
5476	5475	5474	5482	9
5476	5477	5484	5485	9
5476	5477	5484	8636	9
5476	5477	5478	5479	9
5476	5477	5478	5481	9
5474	5475	5486	5487	9
5474	5475	5486	5494	9
5474	5475	5476	5480	9
5474	5479	5478	5481	9
5478	5477	5484	5485	9
5478	5477	5484	8636	9
5478	5477	5476	5480	9
5478	5479	5474	5482	9
5482	5474	5479	5483	9
5481	5478	5479	5483	9
5487	5486	5494	5488	9
5487	5486	5494	5495	9
5485	5484	8636	8629	9
5485	5484	8636	8638	9
8672	8671	8670	8681	9
8675	8671	8670	8681	9
8674	8669	8670	8681	9
8677	8669	8670	8681	9
8681	3944	3937	3938	9
8681	3944	3937	3936	9
8670	8671	8672	8679	9
8675	8671	8672	8679	9
8674	8673	8672	8679	9
8676	8673	8672	8679	9
8679	8689	8683	8686	9
8679	8689	8683	8684	9
8670	8681	3944	3937	9
8670	8681	3944	3946	9
8670	8671	8672	8673	9
8670	8669	8674	8673	9
8670	8669	8674	8678	9
8672	8679	8689	8683	9
8672	8679	8689	8690	9
8669	8670	8671	8672	9
8669	8674	8673	8672	9
8672	8673	8674	8678	9
8671	8670	8681	8682	9
8671	8670	8681	3944	9
8671	8670	8669	8674	9
8671	8670	8669	8677	9
8671	8672	8679	8680	9
8671	8672	8679	8689	9
8671	8672	8673	8674	9
8671	8672	8673	8676	9
8669	8670	8681	8682	9
8669	8670	8681	3944	9
8669	8670	8671	8675	9
8669	8674	8673	8676	9
8673	8672	8679	8680	9
8673	8672	8679	8689	9
8673	8672	8671	8675	9
8673	8674	8669	8677	9
8677	8669	8674	8678	9
8676	8673	8674	8678	9
8682	8681	3944	3937	9
8682	8681	3944	3946	9
8680	8679	8689	8683	9
8680	8679	8689	8690	9
11967	11966	11965	11976	9
11970	11966	11965	11976	9
11969	11964	11965	11976	9
11972	11964	11965	11976	9
11976	7250	7240	7243	9
11976	7250	7240	7239	9
11965	11966	11967	11974	9
11970	11966	11967	11974	9
11969	11968	11967	11974	9
11971	11968	11967	11974	9
11974	5310	5303	5302	9
11974	5310	5303	5304	9
11965	11976	7250	7240	9
11965	11976	7250	7252	9
11965	11966	11967	11968	9
11965	11964	11969	11968	9
11965	11964	11969	11973	9
11967	11974	5310	5303	9
11967	11974	5310	5312	9
11964	11965	11966	11967	9
11964	11969	11968	11967	9
11967	11968	11969	11973	9
11966	11965	11976	11977	9
11966	11965	11976	7250	9
11966	11965	11964	11969	9
11966	11965	11964	11972	9
11966	11967	11974	11975	9
11966	11967	11974	5310	9
11966	11967	11968	11969	9
11966	11967	11968	11971	9
11964	11965	11976	11977	9
11964	11965	11976	7250	9
11964	11965	11966	11970	9
11964	11969	11968	11971	9
11968	11967	11974	11975	9
11968	11967	11974	5310	9
11968	11967	11966	11970	9
11968	11969	11964	11972	9
11972	11964	11969	11973	9
11971	11968	11969	11973	9
11977	11976	7250	7240	9
11977	11976	7250	7252	9
11975	11974	5310	5303	9
11975	11974	5310	5312	9
13675	13674	13673	13684	9
13678	13674	13673	13684	9
13677	13672	13673	13684	9
13680	13672	13673	13684	9
2211	2212	2214	13684	9
2213	2212	2214	13684	9
13673	13674	13675	13682	9
13678	13674	13675	13682	9
13677	13676	13675	13682	9
13679	13676	13675	13682	9
13682	10578	10568	10567	9
13682	10578	10568	10571	9
2212	2214	13684	13673	9
2215	2214	13684	13673	9
13673	13674	13675	13676	9
13673	13672	13677	13676	9
13673	13672	13677	13681	9
13675	13682	10578	10568	9
13675	13682	10578	10580	9
13672	13673	13674	13675	9
13672	13677	13676	13675	9
13675	13676	13677	13681	9
13674	13673	13684	13685	9
2214	13684	13673	13674	9
13674	13673	13672	13677	9
13674	13673	13672	13680	9
13674	13675	13682	13683	9
13674	13675	13682	10578	9
13674	13675	13676	13677	9
13674	13675	13676	13679	9
13672	13673	13684	13685	9
2214	13684	13673	13672	9
13672	13673	13674	13678	9
13672	13677	13676	13679	9
13676	13675	13682	13683	9
13676	13675	13682	10578	9
13676	13675	13674	13678	9
13676	13677	13672	13680	9
13680	13672	13677	13681	9
13679	13676	13677	13681	9
2212	2214	13684	13685	9
2215	2214	13684	13685	9
13683	13682	10578	10568	9
13683	13682	10578	10580	9
11603	11602	11601	11612	9
11606	11602	11601	11612	9
11605	11600	11601	11612	9
11608	11600	11601	11612	9
11612	4613	4603	4602	9
11612	4613	4603	4606	9
11601	11602	11603	11610	9
11606	11602	11603	11610	9
11605	11604	11603	11610	9
11607	11604	11603	11610	9
339	340	342	11610	9
341	340	342	11610	9
11601	11612	4613	4603	9
11601	11612	4613	4615	9
11601	11602	11603	11604	9
11601	11600	11605	11604	9
11601	11600	11605	11609	9
340	342	11610	11603	9
343	342	11610	11603	9
11600	11601	11602	11603	9
11600	11605	11604	11603	9
11603	11604	11605	11609	9
11602	11601	11612	11613	9
11602	11601	11612	4613	9
11602	11601	11600	11605	9
11602	11601	11600	11608	9
11602	11603	11610	11611	9
342	11610	11603	11602	9
11602	11603	11604	11605	9
11602	11603	11604	11607	9
11600	11601	11612	11613	9
11600	11601	11612	4613	9
11600	11601	11602	11606	9
11600	11605	11604	11607	9
11604	11603	11610	11611	9
342	11610	11603	11604	9
11604	11603	11602	11606	9
11604	11605	11600	11608	9
11608	11600	11605	11609	9
11607	11604	11605	11609	9
11613	11612	4613	4603	9
11613	11612	4613	4615	9
340	342	11610	11611	9
343	342	11610	11611	9
11407	11406	11405	11416	9
11410	11406	11405	11416	9
11409	11404	11405	11416	9
11412	11404	11405	11416	9
11416	4758	4748	4751	9
11416	4758	4748	4747	9
11405	11406	11407	11414	9
11410	11406	11407	11414	9
11409	11408	11407	11414	9
11411	11408	11407	11414	9
11414	4234	4227	4228	9
11414	4234	4227	4226	9
11405	11416	4758	4748	9
11405	11416	4758	4760	9
11405	11406	11407	11408	9
11405	11404	11409	11408	9
11405	11404	11409	11413	9
11407	11414	4234	4227	9
11407	11414	4234	4236	9
11404	11405	11406	11407	9
11404	11409	11408	11407	9
11407	11408	11409	11413	9
11406	11405	11416	11417	9
11406	11405	11416	4758	9
11406	11405	11404	11409	9
11406	11405	11404	11412	9
11406	11407	11414	11415	9
11406	11407	11414	4234	9
11406	11407	11408	11409	9
11406	11407	11408	11411	9
11404	11405	11416	11417	9
11404	11405	11416	4758	9
11404	11405	11406	11410	9
11404	11409	11408	11411	9
11408	11407	11414	11415	9
11408	11407	11414	4234	9
11408	11407	11406	11410	9
11408	11409	11404	11412	9
11412	11404	11409	11413	9
11411	11408	11409	11413	9
11417	11416	4758	4748	9
11417	11416	4758	4760	9
11415	11414	4234	4227	9
11415	11414	4234	4236	9
13563	13562	13561	13572	9
13566	13562	13561	13572	9
13565	13560	13561	13572	9
13568	13560	13561	13572	9
13572	10505	10495	10494	9
13572	10505	10495	10498	9
13561	13562	13563	13570	9
13566	13562	13563	13570	9
13565	13564	13563	13570	9
13567	13564	13563	13570	9
13570	9819	9809	9808	9
13570	9819	9809	9812	9
13561	13572	10505	10495	9
13561	13572	10505	10507	9
13561	13562	13563	13564	9
13561	13560	13565	13564	9
13561	13560	13565	13569	9
13563	13570	9819	9809	9
13563	13570	9819	9821	9
13560	13561	13562	13563	9
13560	13565	13564	13563	9
13563	13564	13565	13569	9
13562	13561	13572	13573	9
13562	13561	13572	10505	9
13562	13561	13560	13565	9
13562	13561	13560	13568	9
13562	13563	13570	13571	9
13562	13563	13570	9819	9
13562	13563	13564	13565	9
13562	13563	13564	13567	9
13560	13561	13572	13573	9
13560	13561	13572	10505	9
13560	13561	13562	13566	9
13560	13565	13564	13567	9
13564	13563	13570	13571	9
13564	13563	13570	9819	9
13564	13563	13562	13566	9
13564	13565	13560	13568	9
13568	13560	13565	13569	9
13567	13564	13565	13569	9
13573	13572	10505	10495	9
13573	13572	10505	10507	9
13571	13570	9819	9809	9
13571	13570	9819	9821	9
10584	10583	10582	10593	9
10587	10583	10582	10593	9
10586	10581	10582	10593	9
10589	10581	10582	10593	9
10593	9497	9487	9490	9
10593	9497	9487	9486	9
10582	10583	10584	10591	9
10587	10583	10584	10591	9
10586	10585	10584	10591	9
10588	10585	10584	10591	9
10591	10601	10595	10598	9
10591	10601	10595	10596	9
10582	10593	9497	9487	9
10582	10593	9497	9499	9
10582	10583	10584	10585	9
10582	10581	10586	10585	9
10582	10581	10586	10590	9
10584	10591	10601	10595	9
10584	10591	10601	10602	9
10581	10582	10583	10584	9
10581	10586	10585	10584	9
10584	10585	10586	10590	9
10583	10582	10593	10594	9
10583	10582	10593	9497	9
10583	10582	10581	10586	9
10583	10582	10581	10589	9
10583	10584	10591	10592	9
10583	10584	10591	10601	9
10583	10584	10585	10586	9
10583	10584	10585	10588	9
10581	10582	10593	10594	9
10581	10582	10593	9497	9
10581	10582	10583	10587	9
10581	10586	10585	10588	9
10585	10584	10591	10592	9
10585	10584	10591	10601	9
10585	10584	10583	10587	9
10585	10586	10581	10589	9
10589	10581	10586	10590	9
10588	10585	10586	10590	9
10594	10593	9497	9487	9
10594	10593	9497	9499	9
10592	10591	10601	10595	9
10592	10591	10601	10602	9
4314	4313	4312	4323	9
4317	4313	4312	4323	9
4316	4311	4312	4323	9
4319	4311	4312	4323	9
4323	11076	11066	11065	9
4323	11076	11066	11069	9
4312	4313	4314	4321	9
4317	4313	4314	4321	9
4316	4315	4314	4321	9
4318	4315	4314	4321	9
4321	4331	4325	4328	9
4321	4331	4325	4326	9
4312	4323	11076	11066	9
4312	4323	11076	11078	9
4312	4313	4314	4315	9
4312	4311	4316	4315	9
4312	4311	4316	4320	9
4314	4321	4331	4325	9
4314	4321	4331	4332	9
4311	4312	4313	4314	9
4311	4316	4315	4314	9
4314	4315	4316	4320	9
4313	4312	4323	4324	9
4313	4312	4323	11076	9
4313	4312	4311	4316	9
4313	4312	4311	4319	9
4313	4314	4321	4322	9
4313	4314	4321	4331	9
4313	4314	4315	4316	9
4313	4314	4315	4318	9
4311	4312	4323	4324	9
4311	4312	4323	11076	9
4311	4312	4313	4317	9
4311	4316	4315	4318	9
4315	4314	4321	4322	9
4315	4314	4321	4331	9
4315	4314	4313	4317	9
4315	4316	4311	4319	9
4319	4311	4316	4320	9
4318	4315	4316	4320	9
4324	4323	11076	11066	9
4324	4323	11076	11078	9
4322	4321	4331	4325	9
4322	4321	4331	4332	9
2454	2453	2452	2463	9
2457	2453	2452	2463	9
2456	2451	2452	2463	9
2459	2451	2452	2463	9
2435	2434	2440	2463	9
2437	2434	2440	2463	9
2452	2453	2454	2461	9
2457	2453	2454	2461	9
2456	2455	2454	2461	9
2458	2455	2454	2461	9
2461	4555	4545	4548	9
2461	4555	4545	4544	9
2434	2440	2463	2452	9
2441	2440	2463	2452	9
2452	2453	2454	2455	9
2452	2451	2456	2455	9
2452	2451	2456	2460	9
2454	2461	4555	4545	9
2454	2461	4555	4557	9
2451	2452	2453	2454	9
2451	2456	2455	2454	9
2454	2455	2456	2460	9
2453	2452	2463	2464	9
2440	2463	2452	2453	9
2453	2452	2451	2456	9
2453	2452	2451	2459	9
2453	2454	2461	2462	9
2453	2454	2461	4555	9
2453	2454	2455	2456	9
2453	2454	2455	2458	9
2451	2452	2463	2464	9
2440	2463	2452	2451	9
2451	2452	2453	2457	9
2451	2456	2455	2458	9
2455	2454	2461	2462	9
2455	2454	2461	4555	9
2455	2454	2453	2457	9
2455	2456	2451	2459	9
2459	2451	2456	2460	9
2458	2455	2456	2460	9
2434	2440	2463	2464	9
2441	2440	2463	2464	9
2462	2461	4555	4545	9
2462	2461	4555	4557	9
12653	12652	12651	12662	9
12656	12652	12651	12662	9
12655	12650	12651	12662	9
12658	12650	12651	12662	9
12662	6477	6470	6469	9
12662	6477	6470	6471	9
12651	12652	12653	12660	9
12656	12652	12653	12660	9
12655	12654	12653	12660	9
12657	12654	12653	12660	9
12660	7454	7444	7447	9
12660	7454	7444	7443	9
12651	12662	6477	6470	9
12651	12662	6477	6479	9
12651	12652	12653	12654	9
12651	12650	12655	12654	9
12651	12650	12655	12659	9
12653	12660	7454	7444	9
12653	12660	7454	7456	9
12650	12651	12652	12653	9
12650	12655	12654	12653	9
12653	12654	12655	12659	9
12652	12651	12662	12663	9
12652	12651	12662	6477	9
12652	12651	12650	12655	9
12652	12651	12650	12658	9
12652	12653	12660	12661	9
12652	12653	12660	7454	9
12652	12653	12654	12655	9
12652	12653	12654	12657	9
12650	12651	12662	12663	9
12650	12651	12662	6477	9
12650	12651	12652	12656	9
12650	12655	12654	12657	9
12654	12653	12660	12661	9
12654	12653	12660	7454	9
12654	12653	12652	12656	9
12654	12655	12650	12658	9
12658	12650	12655	12659	9
12657	12654	12655	12659	9
12663	12662	6477	6470	9
12663	12662	6477	6479	9
12661	12660	7454	7444	9
12661	12660	7454	7456	9
840	839	838	849	9
843	839	838	849	9
842	837	838	849	9
845	837	838	849	9
858	853	851	849	9
854	853	851	849	9
838	839	840	847	9
843	839	840	847	9
842	841	840	847	9
844	841	840	847	9
847	6239	6233	6236	9
847	6239	6233	6234	9
853	851	849	838	9
852	851	849	838	9
838	839	840	841	9
838	837	842	841	9
838	837	842	846	9
840	847	6239	6233	9
840	847	6239	6240	9
837	838	839	840	9
837	842	841	840	9
840	841	842	846	9
839	838	849	850	9
851	849	838	839	9
839	838	837	842	9
839	838	837	845	9
839	840	847	848	9
839	840	847	6239	9
839	840	841	842	9
839	840	841	844	9
837	838	849	850	9
851	849	838	837	9
837	838	839	843	9
837	842	841	844	9
841	840	847	848	9
841	840	847	6239	9
841	840	839	843	9
841	842	837	845	9
845	837	842	846	9
844	841	842	846	9
853	851	849	850	9
852	851	849	850	9
848	847	6239	6233	9
848	847	6239	6240	9
5317	5316	5315	5326	9
5320	5316	5315	5326	9
5319	5314	5315	5326	9
5322	5314	5315	5326	9
5326	10023	10013	10016	9
5326	10023	10013	10012	9
5315	5316	5317	5324	9
5320	5316	5317	5324	9
5319	5318	5317	5324	9
5321	5318	5317	5324	9
5324	5334	5328	5331	9
5324	5334	5328	5329	9
5315	5326	10023	10013	9
5315	5326	10023	10025	9
5315	5316	5317	5318	9
5315	5314	5319	5318	9
5315	5314	5319	5323	9
5317	5324	5334	5328	9
5317	5324	5334	5335	9
5314	5315	5316	5317	9
5314	5319	5318	5317	9
5317	5318	5319	5323	9
5316	5315	5326	5327	9
5316	5315	5326	10023	9
5316	5315	5314	5319	9
5316	5315	5314	5322	9
5316	5317	5324	5325	9
5316	5317	5324	5334	9
5316	5317	5318	5319	9
5316	5317	5318	5321	9
5314	5315	5326	5327	9
5314	5315	5326	10023	9
5314	5315	5316	5320	9
5314	5319	5318	5321	9
5318	5317	5324	5325	9
5318	5317	5324	5334	9
5318	5317	5316	5320	9
5318	5319	5314	5322	9
5322	5314	5319	5323	9
5321	5318	5319	5323	9
5327	5326	10023	10013	9
5327	5326	10023	10025	9
5325	5324	5334	5328	9
5325	5324	5334	5335	9
5811	5812	5813	5820	9
5816	5812	5813	5820	9
5815	5814	5813	5820	9
5817	5814	5813	5820	9
5820	5830	5824	5825	9
5820	5830	5824	5827	9
5813	5812	5811	5822	9
5816	5812	5811	5822	9
5815	5810	5811	5822	9
5818	5810	5811	5822	9
5822	5889	5883	5886	9
5822	5889	5883	5884	9
5813	5820	5830	5824	9
5813	5820	5830	5831	9
5813	5812	5811	5810	9
5813	5814	5815	5810	9
5813	5814	5815	5819	9
5811	5822	5889	5883	9
5811	5822	5889	5890	9
5814	5813	5812	5811	9
5814	5815	5810	5811	9
5811	5810	5815	5819	9
5812	5813	5820	5821	9
5812	5813	5820	5830	9
5812	5813	5814	5815	9
5812	5813	5814	5817	9
5812	5811	5822	5823	9
5812	5811	5822	5889	9
5812	5811	5810	5815	9
5812	5811	5810	5818	9
5814	5813	5820	5821	9
5814	5813	5820	5830	9
5814	5813	5812	5816	9
5814	5815	5810	5818	9
5810	5811	5822	5823	9
5810	5811	5822	5889	9
5810	5811	5812	5816	9
5810	5815	5814	5817	9
5817	5814	5815	5819	9
5818	5810	5815	5819	9
5821	5820	5830	5824	9
5821	5820	5830	5831	9
5823	5822	5889	5883	9
5823	5822	5889	5890	9
11281	11280	11279	11290	9
11284	11280	11279	11290	9
11283	11278	11279	11290	9
11286	11278	11279	11290	9
11290	6681	6674	6675	9
11290	6681	6674	6673	9
11279	11280	11281	11288	9
11284	11280	11281	11288	9
11283	11282	11281	11288	9
11285	11282	11281	11288	9
11288	4061	4051	4050	9
11288	4061	4051	4054	9
11279	11290	6681	6674	9
11279	11290	6681	6683	9
11279	11280	11281	11282	9
11279	11278	11283	11282	9
11279	11278	11283	11287	9
11281	11288	4061	4051	9
11281	11288	4061	4063	9
11278	11279	11280	11281	9
11278	11283	11282	11281	9
11281	11282	11283	11287	9
11280	11279	11290	11291	9
11280	11279	11290	6681	9
11280	11279	11278	11283	9
11280	11279	11278	11286	9
11280	11281	11288	11289	9
11280	11281	11288	4061	9
11280	11281	11282	11283	9
11280	11281	11282	11285	9
11278	11279	11290	11291	9
11278	11279	11290	6681	9
11278	11279	11280	11284	9
11278	11283	11282	11285	9
11282	11281	11288	11289	9
11282	11281	11288	4061	9
11282	11281	11280	11284	9
11282	11283	11278	11286	9
11286	11278	11283	11287	9
11285	11282	11283	11287	9
11291	11290	6681	6674	9
11291	11290	6681	6683	9
11289	11288	4061	4051	9
11289	11288	4061	4063	9
3386	3385	3384	3395	9
3389	3385	3384	3395	9
3388	3383	3384	3395	9
3391	3383	3384	3395	9
3384	3385	3386	3393	9
3389	3385	3386	3393	9
3388	3387	3386	3393	9
3390	3387	3386	3393	9
3393	9409	9402	9401	9
3393	9409	9402	9403	9
3384	3385	3386	3387	9
3384	3383	3388	3387	9
3384	3383	3388	3392	9
3386	3393	9409	9402	9
3386	3393	9409	9411	9
3383	3384	3385	3386	9
3383	3388	3387	3386	9
3386	3387	3388	3392	9
3385	3384	3395	3396	9
3385	3384	3395	3397	9
3385	3384	3383	3388	9
3385	3384	3383	3391	9
3385	3386	3393	3394	9
3385	3386	3393	9409	9
3385	3386	3387	3388	9
3385	3386	3387	3390	9
3383	3384	3395	3396	9
3383	3384	3395	3397	9
3383	3384	3385	3389	9
3383	3388	3387	3390	9
3387	3386	3393	3394	9
3387	3386	3393	9409	9
3387	3386	3385	3389	9
3387	3388	3383	3391	9
3391	3383	3388	3392	9
3390	3387	3388	3392	9
3394	3393	9409	9402	9
3394	3393	9409	9411	9
2088	2087	2086	2097	9
2091	2087	2086	2097	9
2090	2085	2086	2097	9
2093	2085	2086	2097	9
2102	2101	2099	2097	9
2106	2101	2099	2097	9
2086	2087	2088	2095	9
2091	2087	2088	2095	9
2090	2089	2088	2095	9
2092	2089	2088	2095	9
2095	9220	9213	9212	9
2095	9220	9213	9214	9
2101	2099	2097	2086	9
2100	2099	2097	2086	9
2086	2087	2088	2089	9
2086	2085	2090	2089	9
2086	2085	2090	2094	9
2088	2095	9220	9213	9
2088	2095	9220	9222	9
2085	2086	2087	2088	9
2085	2090	2089	2088	9
2088	2089	2090	2094	9
2087	2086	2097	2098	9
2099	2097	2086	2087	9
2087	2086	2085	2090	9
2087	2086	2085	2093	9
2087	2088	2095	2096	9
2087	2088	2095	9220	9
2087	2088	2089	2090	9
2087	2088	2089	2092	9
2085	2086	2097	2098	9
2099	2097	2086	2085	9
2085	2086	2087	2091	9
2085	2090	2089	2092	9
2089	2088	2095	2096	9
2089	2088	2095	9220	9
2089	2088	2087	2091	9
2089	2090	2085	2093	9
2093	2085	2090	2094	9
2092	2089	2090	2094	9
2101	2099	2097	2098	9
2100	2099	2097	2098	9
2096	2095	9220	9213	9
2096	2095	9220	9222	9
3701	3700	3699	3710	9
3704	3700	3699	3710	9
3703	3698	3699	3710	9
3706	3698	3699	3710	9
3699	3700	3701	3708	9
3704	3700	3701	3708	9
3703	3702	3701	3708	9
3705	3702	3701	3708	9
3708	11120	11110	11109	9
3708	11120	11110	11113	9
3699	3700	3701	3702	9
3699	3698	3703	3702	9
3699	3698	3703	3707	9
3701	3708	11120	11110	9
3701	3708	11120	11122	9
3698	3699	3700	3701	9
3698	3703	3702	3701	9
3701	3702	3703	3707	9
3700	3699	3710	3712	9
3700	3699	3710	3711	9
3700	3699	3698	3703	9
3700	3699	3698	3706	9
3700	3701	3708	3709	9
3700	3701	3708	11120	9
3700	3701	3702	3703	9
3700	3701	3702	3705	9
3698	3699	3710	3712	9
3698	3699	3710	3711	9
3698	3699	3700	3704	9
3698	3703	3702	3705	9
3702	3701	3708	3709	9
3702	3701	3708	11120	9
3702	3701	3700	3704	9
3702	3703	3698	3706	9
3706	3698	3703	3707	9
3705	3702	3703	3707	9
3709	3708	11120	11110	9
3709	3708	11120	11122	9
8950	8949	8948	8959	9
8953	8949	8948	8959	9
8952	8947	8948	8959	9
8955	8947	8948	8959	9
8959	8967	8961	8962	9
8959	8967	8961	8964	9
8948	8949	8950	8957	9
8953	8949	8950	8957	9
8952	8951	8950	8957	9
8954	8951	8950	8957	9
8957	6501	6495	6496	9
8957	6501	6495	6498	9
8948	8959	8967	8961	9
8948	8959	8967	8968	9
8948	8949	8950	8951	9
8948	8947	8952	8951	9
8948	8947	8952	8956	9
8950	8957	6501	6495	9
8950	8957	6501	6502	9
8947	8948	8949	8950	9
8947	8952	8951	8950	9
8950	8951	8952	8956	9
8949	8948	8959	8960	9
8949	8948	8959	8967	9
8949	8948	8947	8952	9
8949	8948	8947	8955	9
8949	8950	8957	8958	9
8949	8950	8957	6501	9
8949	8950	8951	8952	9
8949	8950	8951	8954	9
8947	8948	8959	8960	9
8947	8948	8959	8967	9
8947	8948	8949	8953	9
8947	8952	8951	8954	9
8951	8950	8957	8958	9
8951	8950	8957	6501	9
8951	8950	8949	8953	9
8951	8952	8947	8955	9
8955	8947	8952	8956	9
8954	8951	8952	8956	9
8960	8959	8967	8961	9
8960	8959	8967	8968	9
8958	8957	6501	6495	9
8958	8957	6501	6502	9
1709	1708	1707	1718	9
1712	1708	1707	1718	9
1711	1706	1707	1718	9
1714	1706	1707	1718	9
1718	7987	7981	7984	9
1718	7987	7981	7982	9
1707	1708	1709	1716	9
1712	1708	1709	1716	9
1711	1710	1709	1716	9
1713	1710	1709	1716	9
1690	1689	1695	1716	9
1692	1689	1695	1716	9
1707	1718	7987	7981	9
1707	1718	7987	7988	9
1707	1708	1709	1710	9
1707	1706	1711	1710	9
1707	1706	1711	1715	9
1689	1695	1716	1709	9
1696	1695	1716	1709	9
1706	1707	1708	1709	9
1706	1711	1710	1709	9
1709	1710	1711	1715	9
1708	1707	1718	1719	9
1708	1707	1718	7987	9
1708	1707	1706	1711	9
1708	1707	1706	1714	9
1708	1709	1716	1717	9
1695	1716	1709	1708	9
1708	1709	1710	1711	9
1708	1709	1710	1713	9
1706	1707	1718	1719	9
1706	1707	1718	7987	9
1706	1707	1708	1712	9
1706	1711	1710	1713	9
1710	1709	1716	1717	9
1695	1716	1709	1710	9
1710	1709	1708	1712	9
1710	1711	1706	1714	9
1714	1706	1711	1715	9
1713	1710	1711	1715	9
1719	1718	7987	7981	9
1719	1718	7987	7988	9
1689	1695	1716	1717	9
1696	1695	1716	1717	9
8495	8496	8497	8504	9
8500	8496	8497	8504	9
8499	8498	8497	8504	9
8501	8498	8497	8504	9
8504	8514	8508	8509	9
8504	8514	8508	8511	9
8497	8496	8495	8506	9
8500	8496	8495	8506	9
8499	8494	8495	8506	9
8502	8494	8495	8506	9
8506	5369	5359	5362	9
8506	5369	5359	5358	9
8497	8504	8514	8508	9
8497	8504	8514	8515	9
8494	8495	8496	8497	9
8494	8499	8498	8497	9
8497	8498	8499	8503	9
8495	8506	5369	5359	9
8495	8506	5369	5371	9
8495	8496	8497	8498	9
8495	8494	8499	8498	9
8495	8494	8499	8503	9
8496	8497	8504	8505	9
8496	8497	8504	8514	9
8496	8497	8498	8499	9
8496	8497	8498	8501	9
8496	8495	8506	8507	9
8496	8495	8506	5369	9
8496	8495	8494	8499	9
8496	8495	8494	8502	9
8498	8497	8504	8505	9
8498	8497	8504	8514	9
8498	8497	8496	8500	9
8498	8499	8494	8502	9
8494	8495	8506	8507	9
8494	8495	8506	5369	9
8494	8495	8496	8500	9
8494	8499	8498	8501	9
8501	8498	8499	8503	9
8502	8494	8499	8503	9
8505	8504	8514	8508	9
8505	8504	8514	8515	9
8507	8506	5369	5359	9
8507	8506	5369	5371	9
12079	12078	12077	12088	9
12082	12078	12077	12088	9
12081	12076	12077	12088	9
12084	12076	12077	12088	9
12088	11016	11009	11008	9
12088	11016	11009	11010	9
12077	12078	12079	12086	9
12082	12078	12079	12086	9
12081	12080	12079	12086	9
12083	12080	12079	12086	9
12086	5528	5521	5520	9
12086	5528	5521	5522	9
12077	12088	11016	11009	9
12077	12088	11016	11018	9
12077	12078	12079	12080	9
12077	12076	12081	12080	9
12077	12076	12081	12085	9
12079	12086	5528	5521	9
12079	12086	5528	5530	9
12076	12077	12078	12079	9
12076	12081	12080	12079	9
12079	12080	12081	12085	9
12078	12077	12088	12089	9
12078	12077	12088	11016	9
12078	12077	12076	12081	9
12078	12077	12076	12084	9
12078	12079	12086	12087	9
12078	12079	12086	5528	9
12078	12079	12080	12081	9
12078	12079	12080	12083	9
12076	12077	12088	12089	9
12076	12077	12088	11016	9
12076	12077	12078	12082	9
12076	12081	12080	12083	9
12080	12079	12086	12087	9
12080	12079	12086	5528	9
12080	12079	12078	12082	9
12080	12081	12076	12084	9
12084	12076	12081	12085	9
12083	12080	12081	12085	9
12089	12088	11016	11009	9
12089	12088	11016	11018	9
12087	12086	5528	5521	9
12087	12086	5528	5530	9
11547	11546	11545	11556	9
11550	11546	11545	11556	9
11549	11544	11545	11556	9
11552	11544	11545	11556	9
11556	11104	11097	11098	9
11556	11104	11097	11096	9
11545	11546	11547	11554	9
11550	11546	11547	11554	9
11549	11548	11547	11554	9
11551	11548	11547	11554	9
11554	4525	4518	4517	9
11554	4525	4518	4519	9
11545	11556	11104	11097	9
11545	11556	11104	11106	9
11545	11546	11547	11548	9
11545	11544	11549	11548	9
11545	11544	11549	11553	9
11547	11554	4525	4518	9
11547	11554	4525	4527	9
11544	11545	11546	11547	9
11544	11549	11548	11547	9
11547	11548	11549	11553	9
11546	11545	11556	11557	9
11546	11545	11556	11104	9
11546	11545	11544	11549	9
11546	11545	11544	11552	9
11546	11547	11554	11555	9
11546	11547	11554	4525	9
11546	11547	11548	11549	9
11546	11547	11548	11551	9
11544	11545	11556	11557	9
11544	11545	11556	11104	9
11544	11545	11546	11550	9
11544	11549	11548	11551	9
11548	11547	11554	11555	9
11548	11547	11554	4525	9
11548	11547	11546	11550	9
11548	11549	11544	11552	9
11552	11544	11549	11553	9
11551	11548	11549	11553	9
11557	11556	11104	11097	9
11557	11556	11104	11106	9
11555	11554	4525	4518	9
11555	11554	4525	4527	9
13073	13072	13071	13082	9
13076	13072	13071	13082	9
13075	13070	13071	13082	9
13078	13070	13071	13082	9
13082	7817	7810	7811	9
13082	7817	7810	7809	9
13071	13072	13073	13080	9
13076	13072	13073	13080	9
13075	13074	13073	13080	9
13077	13074	13073	13080	9
13080	8826	8819	8818	9
13080	8826	8819	8820	9
13071	13082	7817	7810	9
13071	13082	7817	7819	9
13071	13072	13073	13074	9
13071	13070	13075	13074	9
13071	13070	13075	13079	9
13073	13080	8826	8819	9
13073	13080	8826	8828	9
13070	13071	13072	13073	9
13070	13075	13074	13073	9
13073	13074	13075	13079	9
13072	13071	13082	13083	9
13072	13071	13082	7817	9
13072	13071	13070	13075	9
13072	13071	13070	13078	9
13072	13073	13080	13081	9
13072	13073	13080	8826	9
13072	13073	13074	13075	9
13072	13073	13074	13077	9
13070	13071	13082	13083	9
13070	13071	13082	7817	9
13070	13071	13072	13076	9
13070	13075	13074	13077	9
13074	13073	13080	13081	9
13074	13073	13080	8826	9
13074	13073	13072	13076	9
13074	13075	13070	13078	9
13078	13070	13075	13079	9
13077	13074	13075	13079	9
13083	13082	7817	7810	9
13083	13082	7817	7819	9
13081	13080	8826	8819	9
13081	13080	8826	8828	9
2651	2650	2649	2660	9
2654	2650	2649	2660	9
2653	2648	2649	2660	9
2656	2648	2649	2660	9
2649	2650	2651	2658	9
2654	2650	2651	2658	9
2653	2652	2651	2658	9
2655	2652	2651	2658	9
2658	4346	4340	4341	9
2658	4346	4340	4343	9
2649	2650	2651	2652	9
2649	2648	2653	2652	9
2649	2648	2653	2657	9
2651	2658	4346	4340	9
2651	2658	4346	4347	9
2648	2649	2650	2651	9
2648	2653	2652	2651	9
2651	2652	2653	2657	9
2650	2649	2660	2661	9
2650	2649	2660	2662	9
2650	2649	2648	2653	9
2650	2649	2648	2656	9
2650	2651	2658	2659	9
2650	2651	2658	4346	9
2650	2651	2652	2653	9
2650	2651	2652	2655	9
2648	2649	2660	2661	9
2648	2649	2660	2662	9
2648	2649	2650	2654	9
2648	2653	2652	2655	9
2652	2651	2658	2659	9
2652	2651	2658	4346	9
2652	2651	2650	2654	9
2652	2653	2648	2656	9
2656	2648	2653	2657	9
2655	2652	2653	2657	9
2659	2658	4346	4340	9
2659	2658	4346	4347	9
6047	6046	6045	6056	9
6050	6046	6045	6056	9
6049	6044	6045	6056	9
6052	6044	6045	6056	9
6056	7541	7534	7535	9
6056	7541	7534	7533	9
6045	6046	6047	6054	9
6050	6046	6047	6054	9
6049	6048	6047	6054	9
6051	6048	6047	6054	9
6054	6069	6062	6063	9
6054	6069	6062	6061	9
6045	6056	7541	7534	9
6045	6056	7541	7543	9
6045	6046	6047	6048	9
6045	6044	6049	6048	9
6045	6044	6049	6053	9
6047	6054	6069	6062	9
6047	6054	6069	6071	9
6044	6045	6046	6047	9
6044	6049	6048	6047	9
6047	6048	6049	6053	9
6046	6045	6056	6057	9
6046	6045	6056	7541	9
6046	6045	6044	6049	9
6046	6045	6044	6052	9
6046	6047	6054	6055	9
6046	6047	6054	6069	9
6046	6047	6048	6049	9
6046	6047	6048	6051	9
6044	6045	6056	6057	9
6044	6045	6056	7541	9
6044	6045	6046	6050	9
6044	6049	6048	6051	9
6048	6047	6054	6055	9
6048	6047	6054	6069	9
6048	6047	6046	6050	9
6048	6049	6044	6052	9
6052	6044	6049	6053	9
6051	6048	6049	6053	9
6057	6056	7541	7534	9
6057	6056	7541	7543	9
6055	6054	6069	6062	9
6055	6054	6069	6071	9
13605	13604	13603	13614	9
13608	13604	13603	13614	9
13607	13602	13603	13614	9
13610	13602	13603	13614	9
13614	9935	9928	9929	9
13614	9935	9928	9927	9
13603	13604	13605	13612	9
13608	13604	13605	13612	9
13607	13606	13605	13612	9
13609	13606	13605	13612	9
13612	10299	10289	10288	9
13612	10299	10289	10292	9
13603	13614	9935	9928	9
13603	13614	9935	9937	9
13603	13604	13605	13606	9
13603	13602	13607	13606	9
13603	13602	13607	13611	9
13605	13612	10299	10289	9
13605	13612	10299	10301	9
13602	13603	13604	13605	9
13602	13607	13606	13605	9
13605	13606	13607	13611	9
13604	13603	13614	13615	9
13604	13603	13614	9935	9
13604	13603	13602	13607	9
13604	13603	13602	13610	9
13604	13605	13612	13613	9
13604	13605	13612	10299	9
13604	13605	13606	13607	9
13604	13605	13606	13609	9
13602	13603	13614	13615	9
13602	13603	13614	9935	9
13602	13603	13604	13608	9
13602	13607	13606	13609	9
13606	13605	13612	13613	9
13606	13605	13612	10299	9
13606	13605	13604	13608	9
13606	13607	13602	13610	9
13610	13602	13607	13611	9
13609	13606	13607	13611	9
13615	13614	9935	9928	9
13615	13614	9935	9937	9
13613	13612	10299	10289	9
13613	13612	10299	10301	9
3146	3145	3144	3155	9
3149	3145	3144	3155	9
3148	3143	3144	3155	9
3151	3143	3144	3155	9
3144	3145	3146	3153	9
3149	3145	3146	3153	9
3148	3147	3146	3153	9
3150	3147	3146	3153	9
3153	8388	8381	8382	9
3153	8388	8381	8380	9
3144	3145	3146	3147	9
3144	3143	3148	3147	9
3144	3143	3148	3152	9
3146	3153	8388	8381	9
3146	3153	8388	8390	9
3143	3144	3145	3146	9
3143	3148	3147	3146	9
3146	3147	3148	3152	9
3145	3144	3155	3156	9
3145	3144	3155	3157	9
3145	3144	3143	3148	9
3145	3144	3143	3151	9
3145	3146	3153	3154	9
3145	3146	3153	8388	9
3145	3146	3147	3148	9
3145	3146	3147	3150	9
3143	3144	3155	3156	9
3143	3144	3155	3157	9
3143	3144	3145	3149	9
3143	3148	3147	3150	9
3147	3146	3153	3154	9
3147	3146	3153	8388	9
3147	3146	3145	3149	9
3147	3148	3143	3151	9
3151	3143	3148	3152	9
3150	3147	3148	3152	9
3154	3153	8388	8381	9
3154	3153	8388	8390	9
3099	3100	3101	3108	9
3104	3100	3101	3108	9
3103	3102	3101	3108	9
3105	3102	3101	3108	9
3108	8065	8058	8059	9
3108	8065	8058	8057	9
3101	3100	3099	3110	9
3104	3100	3099	3110	9
3103	3098	3099	3110	9
3106	3098	3099	3110	9
3101	3108	8065	8058	9
3101	3108	8065	8067	9
3098	3099	3100	3101	9
3098	3103	3102	3101	9
3101	3102	3103	3107	9
3099	3100	3101	3102	9
3099	3098	3103	3102	9
3099	3098	3103	3107	9
3100	3101	3108	3109	9
3100	3101	3108	8065	9
3100	3101	3102	3103	9
3100	3101	3102	3105	9
3100	3099	3110	3112	9
3100	3099	3110	3111	9
3100	3099	3098	3103	9
3100	3099	3098	3106	9
3102	3101	3108	3109	9
3102	3101	3108	8065	9
3102	3101	3100	3104	9
3102	3103	3098	3106	9
3098	3099	3110	3112	9
3098	3099	3110	3111	9
3098	3099	3100	3104	9
3098	3103	3102	3105	9
3105	3102	3103	3107	9
3106	3098	3103	3107	9
3109	3108	8065	8058	9
3109	3108	8065	8067	9
13647	13646	13645	13656	9
13650	13646	13645	13656	9
13649	13644	13645	13656	9
13652	13644	13645	13656	9
13656	11002	10992	10991	9
13656	11002	10992	10995	9
13645	13646	13647	13654	9
13650	13646	13647	13654	9
13649	13648	13647	13654	9
13651	13648	13647	13654	9
13654	10461	10451	10454	9
13654	10461	10451	10450	9
13645	13656	11002	10992	9
13645	13656	11002	11004	9
13645	13646	13647	13648	9
13645	13644	13649	13648	9
13645	13644	13649	13653	9
13647	13654	10461	10451	9
13647	13654	10461	10463	9
13644	13645	13646	13647	9
13644	13649	13648	13647	9
13647	13648	13649	13653	9
13646	13645	13656	13657	9
13646	13645	13656	11002	9
13646	13645	13644	13649	9
13646	13645	13644	13652	9
13646	13647	13654	13655	9
13646	13647	13654	10461	9
13646	13647	13648	13649	9
13646	13647	13648	13651	9
13644	13645	13656	13657	9
13644	13645	13656	11002	9
13644	13645	13646	13650	9
13644	13649	13648	13651	9
13648	13647	13654	13655	9
13648	13647	13654	10461	9
13648	13647	13646	13650	9
13648	13649	13644	13652	9
13652	13644	13649	13653	9
13651	13648	13649	13653	9
13657	13656	11002	10992	9
13657	13656	11002	11004	9
13655	13654	10461	10451	9
13655	13654	10461	10463	9
3174	3175	3176	3183	9
3179	3175	3176	3183	9
3178	3177	3176	3183	9
3180	3177	3176	3183	9
3183	8535	8525	8524	9
3183	8535	8525	8528	9
3176	3175	3174	3185	9
3179	3175	3174	3185	9
3178	3173	3174	3185	9
3181	3173	3174	3185	9
3176	3183	8535	8525	9
3176	3183	8535	8537	9
3173	3174	3175	3176	9
3173	3178	3177	3176	9
3176	3177	3178	3182	9
3174	3175	3176	3177	9
3174	3173	3178	3177	9
3174	3173	3178	3182	9
3175	3176	3183	3184	9
3175	3176	3183	8535	9
3175	3176	3177	3178	9
3175	3176	3177	3180	9
3175	3174	3185	3187	9
3175	3174	3185	3186	9
3175	3174	3173	3178	9
3175	3174	3173	3181	9
3177	3176	3183	3184	9
3177	3176	3183	8535	9
3177	3176	3175	3179	9
3177	3178	3173	3181	9
3173	3174	3185	3187	9
3173	3174	3185	3186	9
3173	3174	3175	3179	9
3173	3178	3177	3180	9
3180	3177	3178	3182	9
3181	3173	3178	3182	9
3184	3183	8535	8525	9
3184	3183	8535	8537	9
10979	10978	10977	10988	9
10982	10978	10977	10988	9
10981	10976	10977	10988	9
10984	10976	10977	10988	9
10988	10996	10990	10991	9
10988	10996	10990	10993	9
10977	10978	10979	10986	9
10982	10978	10979	10986	9
10981	10980	10979	10986	9
10983	10980	10979	10986	9
1085	1084	1091	10986	9
1083	1084	1091	10986	9
10977	10988	10996	10990	9
10977	10988	10996	10997	9
10977	10978	10979	10980	9
10977	10976	10981	10980	9
10977	10976	10981	10985	9
1084	1091	10986	10979	9
1093	1091	10986	10979	9
10976	10977	10978	10979	9
10976	10981	10980	10979	9
10979	10980	10981	10985	9
10978	10977	10988	10989	9
10978	10977	10988	10996	9
10978	10977	10976	10981	9
10978	10977	10976	10984	9
10978	10979	10986	10987	9
1091	10986	10979	10978	9
10978	10979	10980	10981	9
10978	10979	10980	10983	9
10976	10977	10988	10989	9
10976	10977	10988	10996	9
10976	10977	10978	10982	9
10976	10981	10980	10983	9
10980	10979	10986	10987	9
1091	10986	10979	10980	9
10980	10979	10978	10982	9
10980	10981	10976	10984	9
10984	10976	10981	10985	9
10983	10980	10981	10985	9
10989	10988	10996	10990	9
10989	10988	10996	10997	9
1084	1091	10986	10987	9
1093	1091	10986	10987	9
12555	12554	12553	12564	9
12558	12554	12553	12564	9
12557	12552	12553	12564	9
12560	12552	12553	12564	9
12564	7176	7169	7168	9
12564	7176	7169	7170	9
12553	12554	12555	12562	9
12558	12554	12555	12562	9
12557	12556	12555	12562	9
12559	12556	12555	12562	9
12562	6273	6266	6265	9
12562	6273	6266	6267	9
12553	12564	7176	7169	9
12553	12564	7176	7178	9
12553	12554	12555	12556	9
12553	12552	12557	12556	9
12553	12552	12557	12561	9
12555	12562	6273	6266	9
12555	12562	6273	6275	9
12552	12553	12554	12555	9
12552	12557	12556	12555	9
12555	12556	12557	12561	9
12554	12553	12564	12565	9
12554	12553	12564	7176	9
12554	12553	12552	12557	9
12554	12553	12552	12560	9
12554	12555	12562	12563	9
12554	12555	12562	6273	9
12554	12555	12556	12557	9
12554	12555	12556	12559	9
12552	12553	12564	12565	9
12552	12553	12564	7176	9
12552	12553	12554	12558	9
12552	12557	12556	12559	9
12556	12555	12562	12563	9
12556	12555	12562	6273	9
12556	12555	12554	12558	9
12556	12557	12552	12560	9
12560	12552	12557	12561	9
12559	12556	12557	12561	9
12565	12564	7176	7169	9
12565	12564	7176	7178	9
12563	12562	6273	6266	9
12563	12562	6273	6275	9
12037	12036	12035	12046	9
12040	12036	12035	12046	9
12039	12034	12035	12046	9
12042	12034	12035	12046	9
12046	5471	5461	5460	9
12046	5471	5461	5464	9
12035	12036	12037	12044	9
12040	12036	12037	12044	9
12039	12038	12037	12044	9
12041	12038	12037	12044	9
12044	9862	9855	9854	9
12044	9862	9855	9856	9
12035	12046	5471	5461	9
12035	12046	5471	5473	9
12035	12036	12037	12038	9
12035	12034	12039	12038	9
12035	12034	12039	12043	9
12037	12044	9862	9855	9
12037	12044	9862	9864	9
12034	12035	12036	12037	9
12034	12039	12038	12037	9
12037	12038	12039	12043	9
12036	12035	12046	12047	9
12036	12035	12046	5471	9
12036	12035	12034	12039	9
12036	12035	12034	12042	9
12036	12037	12044	12045	9
12036	12037	12044	9862	9
12036	12037	12038	12039	9
12036	12037	12038	12041	9
12034	12035	12046	12047	9
12034	12035	12046	5471	9
12034	12035	12036	12040	9
12034	12039	12038	12041	9
12038	12037	12044	12045	9
12038	12037	12044	9862	9
12038	12037	12036	12040	9
12038	12039	12034	12042	9
12042	12034	12039	12043	9
12041	12038	12039	12043	9
12047	12046	5471	5461	9
12047	12046	5471	5473	9
12045	12044	9862	9855	9
12045	12044	9862	9864	9
3221	3220	3219	3230	9
3224	3220	3219	3230	9
3223	3218	3219	3230	9
3226	3218	3219	3230	9
3219	3220	3221	3228	9
3224	3220	3221	3228	9
3223	3222	3221	3228	9
3225	3222	3221	3228	9
3228	8856	8846	8849	9
3228	8856	8846	8845	9
3219	3220	3221	3222	9
3219	3218	3223	3222	9
3219	3218	3223	3227	9
3221	3228	8856	8846	9
3221	3228	8856	8858	9
3218	3219	3220	3221	9
3218	3223	3222	3221	9
3221	3222	3223	3227	9
3220	3219	3230	3231	9
3220	3219	3230	3232	9
3220	3219	3218	3223	9
3220	3219	3218	3226	9
3220	3221	3228	3229	9
3220	3221	3228	8856	9
3220	3221	3222	3223	9
3220	3221	3222	3225	9
3218	3219	3230	3231	9
3218	3219	3230	3232	9
3218	3219	3220	3224	9
3218	3223	3222	3225	9
3222	3221	3228	3229	9
3222	3221	3228	8856	9
3222	3221	3220	3224	9
3222	3223	3218	3226	9
3226	3218	3223	3227	9
3225	3222	3223	3227	9
3229	3228	8856	8846	9
3229	3228	8856	8858	9
12821	12820	12819	12830	9
12824	12820	12819	12830	9
12823	12818	12819	12830	9
12826	12818	12819	12830	9
12830	9337	9327	9326	9
12830	9337	9327	9330	9
12819	12820	12821	12828	9
12824	12820	12821	12828	9
12823	12822	12821	12828	9
12825	12822	12821	12828	9
12828	7032	7022	7021	9
12828	7032	7022	7025	9
12819	12830	9337	9327	9
12819	12830	9337	9339	9
12819	12820	12821	12822	9
12819	12818	12823	12822	9
12819	12818	12823	12827	9
12821	12828	7032	7022	9
12821	12828	7032	7034	9
12818	12819	12820	12821	9
12818	12823	12822	12821	9
12821	12822	12823	12827	9
12820	12819	12830	12831	9
12820	12819	12830	9337	9
12820	12819	12818	12823	9
12820	12819	12818	12826	9
12820	12821	12828	12829	9
12820	12821	12828	7032	9
12820	12821	12822	12823	9
12820	12821	12822	12825	9
12818	12819	12830	12831	9
12818	12819	12830	9337	9
12818	12819	12820	12824	9
12818	12823	12822	12825	9
12822	12821	12828	12829	9
12822	12821	12828	7032	9
12822	12821	12820	12824	9
12822	12823	12818	12826	9
12826	12818	12823	12827	9
12825	12822	12823	12827	9
12831	12830	9337	9327	9
12831	12830	9337	9339	9
12829	12828	7032	7022	9
12829	12828	7032	7034	9
8130	8129	8128	8139	9
8133	8129	8128	8139	9
8132	8127	8128	8139	9
8135	8127	8128	8139	9
8139	8147	8141	8144	9
8139	8147	8141	8142	9
8128	8129	8130	8137	9
8133	8129	8130	8137	9
8132	8131	8130	8137	9
8134	8131	8130	8137	9
8137	9506	9500	9501	9
8137	9506	9500	9503	9
8128	8139	8147	8141	9
8128	8139	8147	8148	9
8128	8129	8130	8131	9
8128	8127	8132	8131	9
8128	8127	8132	8136	9
8130	8137	9506	9500	9
8130	8137	9506	9507	9
8127	8128	8129	8130	9
8127	8132	8131	8130	9
8130	8131	8132	8136	9
8129	8128	8139	8140	9
8129	8128	8139	8147	9
8129	8128	8127	8132	9
8129	8128	8127	8135	9
8129	8130	8137	8138	9
8129	8130	8137	9506	9
8129	8130	8131	8132	9
8129	8130	8131	8134	9
8127	8128	8139	8140	9
8127	8128	8139	8147	9
8127	8128	8129	8133	9
8127	8132	8131	8134	9
8131	8130	8137	8138	9
8131	8130	8137	9506	9
8131	8130	8129	8133	9
8131	8132	8127	8135	9
8135	8127	8132	8136	9
8134	8131	8132	8136	9
8140	8139	8147	8141	9
8140	8139	8147	8148	9
8138	8137	9506	9500	9
8138	8137	9506	9507	9
11531	11532	11533	11540	9
11536	11532	11533	11540	9
11535	11534	11533	11540	9
11537	11534	11533	11540	9
11540	5895	5885	5888	9
11540	5895	5885	5884	9
11533	11532	11531	11542	9
11536	11532	11531	11542	9
11535	11530	11531	11542	9
11538	11530	11531	11542	9
11542	4526	4516	4519	9
11542	4526	4516	4515	9
11533	11540	5895	5885	9
11533	11540	5895	5897	9
11533	11532	11531	11530	9
11533	11534	11535	11530	9
11533	11534	11535	11539	9
11531	11542	4526	4516	9
11531	11542	4526	4528	9
11534	11533	11532	11531	9
11534	11535	11530	11531	9
11531	11530	11535	11539	9
11532	11533	11540	11541	9
11532	11533	11540	5895	9
11532	11533	11534	11535	9
11532	11533	11534	11537	9
11532	11531	11542	11543	9
11532	11531	11542	4526	9
11532	11531	11530	11535	9
11532	11531	11530	11538	9
11534	11533	11540	11541	9
11534	11533	11540	5895	9
11534	11533	11532	11536	9
11534	11535	11530	11538	9
11530	11531	11542	11543	9
11530	11531	11542	4526	9
11530	11531	11532	11536	9
11530	11535	11534	11537	9
11537	11534	11535	11539	9
11538	11530	11535	11539	9
11541	11540	5895	5885	9
11541	11540	5895	5897	9
11543	11542	4526	4516	9
11543	11542	4526	4528	9
12233	12232	12231	12242	9
12236	12232	12231	12242	9
12235	12230	12231	12242	9
12238	12230	12231	12242	9
12242	5734	5724	5727	9
12242	5734	5724	5723	9
12231	12232	12233	12240	9
12236	12232	12233	12240	9
12235	12234	12233	12240	9
12237	12234	12233	12240	9
12240	6128	6118	6117	9
12240	6128	6118	6121	9
12231	12242	5734	5724	9
12231	12242	5734	5736	9
12231	12232	12233	12234	9
12231	12230	12235	12234	9
12231	12230	12235	12239	9
12233	12240	6128	6118	9
12233	12240	6128	6130	9
12230	12231	12232	12233	9
12230	12235	12234	12233	9
12233	12234	12235	12239	9
12232	12231	12242	12243	9
12232	12231	12242	5734	9
12232	12231	12230	12235	9
12232	12231	12230	12238	9
12232	12233	12240	12241	9
12232	12233	12240	6128	9
12232	12233	12234	12235	9
12232	12233	12234	12237	9
12230	12231	12242	12243	9
12230	12231	12242	5734	9
12230	12231	12232	12236	9
12230	12235	12234	12237	9
12234	12233	12240	12241	9
12234	12233	12240	6128	9
12234	12233	12232	12236	9
12234	12235	12230	12238	9
12238	12230	12235	12239	9
12237	12234	12235	12239	9
12243	12242	5734	5724	9
12243	12242	5734	5736	9
12241	12240	6128	6118	9
12241	12240	6128	6130	9
13507	13506	13505	13516	9
13510	13506	13505	13516	9
13509	13504	13505	13516	9
13512	13504	13505	13516	9
13516	9031	9024	9023	9
13516	9031	9024	9025	9
13505	13506	13507	13514	9
13510	13506	13507	13514	9
13509	13508	13507	13514	9
13511	13508	13507	13514	9
13514	10607	10597	10600	9
13514	10607	10597	10596	9
13505	13516	9031	9024	9
13505	13516	9031	9033	9
13505	13506	13507	13508	9
13505	13504	13509	13508	9
13505	13504	13509	13513	9
13507	13514	10607	10597	9
13507	13514	10607	10609	9
13504	13505	13506	13507	9
13504	13509	13508	13507	9
13507	13508	13509	13513	9
13506	13505	13516	13517	9
13506	13505	13516	9031	9
13506	13505	13504	13509	9
13506	13505	13504	13512	9
13506	13507	13514	13515	9
13506	13507	13514	10607	9
13506	13507	13508	13509	9
13506	13507	13508	13511	9
13504	13505	13516	13517	9
13504	13505	13516	9031	9
13504	13505	13506	13510	9
13504	13509	13508	13511	9
13508	13507	13514	13515	9
13508	13507	13514	10607	9
13508	13507	13506	13510	9
13508	13509	13504	13512	9
13512	13504	13509	13513	9
13511	13508	13509	13513	9
13517	13516	9031	9024	9
13517	13516	9031	9033	9
13515	13514	10607	10597	9
13515	13514	10607	10609	9
2979	2980	2981	2988	9
2984	2980	2981	2988	9
2983	2982	2981	2988	9
2985	2982	2981	2988	9
2988	6997	6991	6992	9
2988	6997	6991	6994	9
2981	2980	2979	2990	9
2984	2980	2979	2990	9
2983	2978	2979	2990	9
2986	2978	2979	2990	9
2981	2988	6997	6991	9
2981	2988	6997	6998	9
2978	2979	2980	2981	9
2978	2983	2982	2981	9
2981	2982	2983	2987	9
2979	2980	2981	2982	9
2979	2978	2983	2982	9
2979	2978	2983	2987	9
2980	2981	2988	2989	9
2980	2981	2988	6997	9
2980	2981	2982	2983	9
2980	2981	2982	2985	9
2980	2979	2990	2991	9
2980	2979	2990	2992	9
2980	2979	2978	2983	9
2980	2979	2978	2986	9
2982	2981	2988	2989	9
2982	2981	2988	6997	9
2982	2981	2980	2984	9
2982	2983	2978	2986	9
2978	2979	2990	2991	9
2978	2979	2990	2992	9
2978	2979	2980	2984	9
2978	2983	2982	2985	9
2985	2982	2983	2987	9
2986	2978	2983	2987	9
2989	2988	6997	6991	9
2989	2988	6997	6998	9
8643	8642	8641	8652	9
8646	8642	8641	8652	9
8645	8640	8641	8652	9
8648	8640	8641	8652	9
8652	5704	5697	5698	9
8652	5704	5697	5696	9
8641	8642	8643	8650	9
8646	8642	8643	8650	9
8645	8644	8643	8650	9
8647	8644	8643	8650	9
8650	8660	8654	8657	9
8650	8660	8654	8655	9
8641	8652	5704	5697	9
8641	8652	5704	5706	9
8641	8642	8643	8644	9
8641	8640	8645	8644	9
8641	8640	8645	8649	9
8643	8650	8660	8654	9
8643	8650	8660	8661	9
8640	8641	8642	8643	9
8640	8645	8644	8643	9
8643	8644	8645	8649	9
8642	8641	8652	8653	9
8642	8641	8652	5704	9
8642	8641	8640	8645	9
8642	8641	8640	8648	9
8642	8643	8650	8651	9
8642	8643	8650	8660	9
8642	8643	8644	8645	9
8642	8643	8644	8647	9
8640	8641	8652	8653	9
8640	8641	8652	5704	9
8640	8641	8642	8646	9
8640	8645	8644	8647	9
8644	8643	8650	8651	9
8644	8643	8650	8660	9
8644	8643	8642	8646	9
8644	8645	8640	8648	9
8648	8640	8645	8649	9
8647	8644	8645	8649	9
8653	8652	5704	5697	9
8653	8652	5704	5706	9
8651	8650	8660	8654	9
8651	8650	8660	8661	9
5667	5666	5665	5676	9
5670	5666	5665	5676	9
5669	5664	5665	5676	9
5672	5664	5665	5676	9
5676	5684	5678	5679	9
5676	5684	5678	5681	9
5665	5666	5667	5674	9
5670	5666	5667	5674	9
5669	5668	5667	5674	9
5671	5668	5667	5674	9
5674	4671	4661	4660	9
5674	4671	4661	4664	9
5665	5676	5684	5678	9
5665	5676	5684	5685	9
5665	5666	5667	5668	9
5665	5664	5669	5668	9
5665	5664	5669	5673	9
5667	5674	4671	4661	9
5667	5674	4671	4673	9
5664	5665	5666	5667	9
5664	5669	5668	5667	9
5667	5668	5669	5673	9
5666	5665	5676	5677	9
5666	5665	5676	5684	9
5666	5665	5664	5669	9
5666	5665	5664	5672	9
5666	5667	5674	5675	9
5666	5667	5674	4671	9
5666	5667	5668	5669	9
5666	5667	5668	5671	9
5664	5665	5676	5677	9
5664	5665	5676	5684	9
5664	5665	5666	5670	9
5664	5669	5668	5671	9
5668	5667	5674	5675	9
5668	5667	5674	4671	9
5668	5667	5666	5670	9
5668	5669	5664	5672	9
5672	5664	5669	5673	9
5671	5668	5669	5673	9
5677	5676	5684	5678	9
5677	5676	5684	5685	9
5675	5674	4671	4661	9
5675	5674	4671	4673	9
1876	1875	1874	1885	9
1879	1875	1874	1885	9
1878	1873	1874	1885	9
1881	1873	1874	1885	9
1885	10708	10701	10702	9
1885	10708	10701	10700	9
1874	1875	1876	1883	9
1879	1875	1876	1883	9
1878	1877	1876	1883	9
1880	1877	1876	1883	9
1890	1889	1887	1883	9
1894	1889	1887	1883	9
1874	1885	10708	10701	9
1874	1885	10708	10710	9
1874	1875	1876	1877	9
1874	1873	1878	1877	9
1874	1873	1878	1882	9
1889	1887	1883	1876	9
1888	1887	1883	1876	9
1873	1874	1875	1876	9
1873	1878	1877	1876	9
1876	1877	1878	1882	9
1875	1874	1885	1886	9
1875	1874	1885	10708	9
1875	1874	1873	1878	9
1875	1874	1873	1881	9
1875	1876	1883	1884	9
1887	1883	1876	1875	9
1875	1876	1877	1878	9
1875	1876	1877	1880	9
1873	1874	1885	1886	9
1873	1874	1885	10708	9
1873	1874	1875	1879	9
1873	1878	1877	1880	9
1877	1876	1883	1884	9
1887	1883	1876	1877	9
1877	1876	1875	1879	9
1877	1878	1873	1881	9
1881	1873	1878	1882	9
1880	1877	1878	1882	9
1886	1885	10708	10701	9
1886	1885	10708	10710	9
1889	1887	1883	1884	9
1888	1887	1883	1884	9
5989	5988	5987	5998	9
5992	5988	5987	5998	9
5991	5986	5987	5998	9
5994	5986	5987	5998	9
5998	7186	7180	7181	9
5998	7186	7180	7183	9
5987	5988	5989	5996	9
5992	5988	5989	5996	9
5991	5990	5989	5996	9
5993	5990	5989	5996	9
5996	6006	6000	6003	9
5996	6006	6000	6001	9
5987	5998	7186	7180	9
5987	5998	7186	7187	9
5987	5988	5989	5990	9
5987	5986	5991	5990	9
5987	5986	5991	5995	9
5989	5996	6006	6000	9
5989	5996	6006	6007	9
5986	5987	5988	5989	9
5986	5991	5990	5989	9
5989	5990	5991	5995	9
5988	5987	5998	5999	9
5988	5987	5998	7186	9
5988	5987	5986	5991	9
5988	5987	5986	5994	9
5988	5989	5996	5997	9
5988	5989	5996	6006	9
5988	5989	5990	5991	9
5988	5989	5990	5993	9
5986	5987	5998	5999	9
5986	5987	5998	7186	9
5986	5987	5988	5992	9
5986	5991	5990	5993	9
5990	5989	5996	5997	9
5990	5989	5996	6006	9
5990	5989	5988	5992	9
5990	5991	5986	5994	9
5994	5986	5991	5995	9
5993	5990	5991	5995	9
5999	5998	7186	7180	9
5999	5998	7186	7187	9
5997	5996	6006	6000	9
5997	5996	6006	6007	9
13745	13744	13743	13754	9
13748	13744	13743	13754	9
13747	13742	13743	13754	9
13750	13742	13743	13754	9
628	627	634	13754	9
626	627	634	13754	9
13743	13744	13745	13752	9
13748	13744	13745	13752	9
13747	13746	13745	13752	9
13749	13746	13745	13752	9
1572	1571	1578	13752	9
1570	1571	1578	13752	9
627	634	13754	13743	9
636	634	13754	13743	9
13743	13744	13745	13746	9
13743	13742	13747	13746	9
13743	13742	13747	13751	9
1571	1578	13752	13745	9
1580	1578	13752	13745	9
13742	13743	13744	13745	9
13742	13747	13746	13745	9
13745	13746	13747	13751	9
13744	13743	13754	13755	9
634	13754	13743	13744	9
13744	13743	13742	13747	9
13744	13743	13742	13750	9
13744	13745	13752	13753	9
1578	13752	13745	13744	9
13744	13745	13746	13747	9
13744	13745	13746	13749	9
13742	13743	13754	13755	9
634	13754	13743	13742	9
13742	13743	13744	13748	9
13742	13747	13746	13749	9
13746	13745	13752	13753	9
1578	13752	13745	13746	9
13746	13745	13744	13748	9
13746	13747	13742	13750	9
13750	13742	13747	13751	9
13749	13746	13747	13751	9
627	634	13754	13755	9
636	634	13754	13755	9
1571	1578	13752	13753	9
1580	1578	13752	13753	9
2889	2890	2891	2898	9
2894	2890	2891	2898	9
2893	2892	2891	2898	9
2895	2892	2891	2898	9
2898	6506	6499	6498	9
2898	6506	6499	6500	9
2891	2890	2889	2900	9
2894	2890	2889	2900	9
2893	2888	2889	2900	9
2896	2888	2889	2900	9
2891	2898	6506	6499	9
2891	2898	6506	6508	9
2888	2889	2890	2891	9
2888	2893	2892	2891	9
2891	2892	2893	2897	9
2889	2890	2891	2892	9
2889	2888	2893	2892	9
2889	2888	2893	2897	9
2890	2891	2898	2899	9
2890	2891	2898	6506	9
2890	2891	2892	2893	9
2890	2891	2892	2895	9
2890	2889	2900	2902	9
2890	2889	2900	2901	9
2890	2889	2888	2893	9
2890	2889	2888	2896	9
2892	2891	2898	2899	9
2892	2891	2898	6506	9
2892	2891	2890	2894	9
2892	2893	2888	2896	9
2888	2889	2900	2902	9
2888	2889	2900	2901	9
2888	2889	2890	2894	9
2888	2893	2892	2895	9
2895	2892	2893	2897	9
2896	2888	2893	2897	9
2899	2898	6506	6499	9
2899	2898	6506	6508	9
9256	9255	9254	9265	9
9259	9255	9254	9265	9
9258	9253	9254	9265	9
9261	9253	9254	9265	9
9265	9273	9267	9270	9
9265	9273	9267	9268	9
9254	9255	9256	9263	9
9259	9255	9256	9263	9
9258	9257	9256	9263	9
9260	9257	9256	9263	9
9263	4636	4630	4631	9
9263	4636	4630	4633	9
9254	9265	9273	9267	9
9254	9265	9273	9274	9
9254	9255	9256	9257	9
9254	9253	9258	9257	9
9254	9253	9258	9262	9
9256	9263	4636	4630	9
9256	9263	4636	4637	9
9253	9254	9255	9256	9
9253	9258	9257	9256	9
9256	9257	9258	9262	9
9255	9254	9265	9266	9
9255	9254	9265	9273	9
9255	9254	9253	9258	9
9255	9254	9253	9261	9
9255	9256	9263	9264	9
9255	9256	9263	4636	9
9255	9256	9257	9258	9
9255	9256	9257	9260	9
9253	9254	9265	9266	9
9253	9254	9265	9273	9
9253	9254	9255	9259	9
9253	9258	9257	9260	9
9257	9256	9263	9264	9
9257	9256	9263	4636	9
9257	9256	9255	9259	9
9257	9258	9253	9261	9
9261	9253	9258	9262	9
9260	9257	9258	9262	9
9266	9265	9273	9267	9
9266	9265	9273	9274	9
9264	9263	4636	4630	9
9264	9263	4636	4637	9
5446	5447	5448	5455	9
5451	5447	5448	5455	9
5450	5449	5448	5455	9
5452	5449	5448	5455	9
5455	4918	4908	4907	9
5455	4918	4908	4911	9
5448	5447	5446	5457	9
5451	5447	5446	5457	9
5450	5445	5446	5457	9
5453	5445	5446	5457	9
5457	5465	5459	5460	9
5457	5465	5459	5462	9
5448	5455	4918	4908	9
5448	5455	4918	4920	9
5445	5446	5447	5448	9
5445	5450	5449	5448	9
5448	5449	5450	5454	9
5446	5457	5465	5459	9
5446	5457	5465	5466	9
5446	5447	5448	5449	9
5446	5445	5450	5449	9
5446	5445	5450	5454	9
5447	5448	5455	5456	9
5447	5448	5455	4918	9
5447	5448	5449	5450	9
5447	5448	5449	5452	9
5447	5446	5457	5458	9
5447	5446	5457	5465	9
5447	5446	5445	5450	9
5447	5446	5445	5453	9
5449	5448	5455	5456	9
5449	5448	5455	4918	9
5449	5448	5447	5451	9
5449	5450	5445	5453	9
5445	5446	5457	5458	9
5445	5446	5457	5465	9
5445	5446	5447	5451	9
5445	5450	5449	5452	9
5452	5449	5450	5454	9
5453	5445	5450	5454	9
5456	5455	4918	4908	9
5456	5455	4918	4920	9
5458	5457	5465	5459	9
5458	5457	5465	5466	9
13045	13044	13043	13054	9
13048	13044	13043	13054	9
13047	13042	13043	13054	9
13050	13042	13043	13054	9
13054	7672	7665	7664	9
13054	7672	7665	7666	9
13043	13044	13045	13052	9
13048	13044	13045	13052	9
13047	13046	13045	13052	9
13049	13046	13045	13052	9
13052	10767	10760	10761	9
13052	10767	10760	10759	9
13043	13054	7672	7665	9
13043	13054	7672	7674	9
13043	13044	13045	13046	9
13043	13042	13047	13046	9
13043	13042	13047	13051	9
13045	13052	10767	10760	9
13045	13052	10767	10769	9
13042	13043	13044	13045	9
13042	13047	13046	13045	9
13045	13046	13047	13051	9
13044	13043	13054	13055	9
13044	13043	13054	7672	9
13044	13043	13042	13047	9
13044	13043	13042	13050	9
13044	13045	13052	13053	9
13044	13045	13052	10767	9
13044	13045	13046	13047	9
13044	13045	13046	13049	9
13042	13043	13054	13055	9
13042	13043	13054	7672	9
13042	13043	13044	13048	9
13042	13047	13046	13049	9
13046	13045	13052	13053	9
13046	13045	13052	10767	9
13046	13045	13044	13048	9
13046	13047	13042	13050	9
13050	13042	13047	13051	9
13049	13046	13047	13051	9
13055	13054	7672	7665	9
13055	13054	7672	7674	9
13053	13052	10767	10760	9
13053	13052	10767	10769	9
12373	12372	12371	12382	9
12376	12372	12371	12382	9
12375	12370	12371	12382	9
12378	12370	12371	12382	9
12382	9336	9329	9330	9
12382	9336	9329	9328	9
12371	12372	12373	12380	9
12376	12372	12373	12380	9
12375	12374	12373	12380	9
12377	12374	12373	12380	9
12380	5939	5929	5932	9
12380	5939	5929	5928	9
12371	12382	9336	9329	9
12371	12382	9336	9338	9
12371	12372	12373	12374	9
12371	12370	12375	12374	9
12371	12370	12375	12379	9
12373	12380	5939	5929	9
12373	12380	5939	5941	9
12370	12371	12372	12373	9
12370	12375	12374	12373	9
12373	12374	12375	12379	9
12372	12371	12382	12383	9
12372	12371	12382	9336	9
12372	12371	12370	12375	9
12372	12371	12370	12378	9
12372	12373	12380	12381	9
12372	12373	12380	5939	9
12372	12373	12374	12375	9
12372	12373	12374	12377	9
12370	12371	12382	12383	9
12370	12371	12382	9336	9
12370	12371	12372	12376	9
12370	12375	12374	12377	9
12374	12373	12380	12381	9
12374	12373	12380	5939	9
12374	12373	12372	12376	9
12374	12375	12370	12378	9
12378	12370	12375	12379	9
12377	12374	12375	12379	9
12383	12382	9336	9329	9
12383	12382	9336	9338	9
12381	12380	5939	5929	9
12381	12380	5939	5941	9
10774	10773	10772	10783	9
10777	10773	10772	10783	9
10776	10771	10772	10783	9
10779	10771	10772	10783	9
10783	6938	6932	6935	9
10783	6938	6932	6933	9
10772	10773	10774	10781	9
10777	10773	10774	10781	9
10776	10775	10774	10781	9
10778	10775	10774	10781	9
10781	10791	10785	10786	9
10781	10791	10785	10788	9
10772	10783	6938	6932	9
10772	10783	6938	6939	9
10772	10773	10774	10775	9
10772	10771	10776	10775	9
10772	10771	10776	10780	9
10774	10781	10791	10785	9
10774	10781	10791	10792	9
10771	10772	10773	10774	9
10771	10776	10775	10774	9
10774	10775	10776	10780	9
10773	10772	10783	10784	9
10773	10772	10783	6938	9
10773	10772	10771	10776	9
10773	10772	10771	10779	9
10773	10774	10781	10782	9
10773	10774	10781	10791	9
10773	10774	10775	10776	9
10773	10774	10775	10778	9
10771	10772	10783	10784	9
10771	10772	10783	6938	9
10771	10772	10773	10777	9
10771	10776	10775	10778	9
10775	10774	10781	10782	9
10775	10774	10781	10791	9
10775	10774	10773	10777	9
10775	10776	10771	10779	9
10779	10771	10776	10780	9
10778	10775	10776	10780	9
10784	10783	6938	6932	9
10784	10783	6938	6939	9
10782	10781	10791	10785	9
10782	10781	10791	10792	9
2771	2770	2769	2780	9
2774	2770	2769	2780	9
2773	2768	2769	2780	9
2776	2768	2769	2780	9
2769	2770	2771	2778	9
2774	2770	2771	2778	9
2773	2772	2771	2778	9
2775	2772	2771	2778	9
2778	5368	5361	5360	9
2778	5368	5361	5362	9
2769	2770	2771	2772	9
2769	2768	2773	2772	9
2769	2768	2773	2777	9
2771	2778	5368	5361	9
2771	2778	5368	5370	9
2768	2769	2770	2771	9
2768	2773	2772	2771	9
2771	2772	2773	2777	9
2770	2769	2780	2782	9
2770	2769	2780	2781	9
2770	2769	2768	2773	9
2770	2769	2768	2776	9
2770	2771	2778	2779	9
2770	2771	2778	5368	9
2770	2771	2772	2773	9
2770	2771	2772	2775	9
2768	2769	2780	2782	9
2768	2769	2780	2781	9
2768	2769	2770	2774	9
2768	2773	2772	2775	9
2772	2771	2778	2779	9
2772	2771	2778	5368	9
2772	2771	2770	2774	9
2772	2773	2768	2776	9
2776	2768	2773	2777	9
2775	2772	2773	2777	9
2779	2778	5368	5361	9
2779	2778	5368	5370	9
13437	13436	13435	13446	9
13440	13436	13435	13446	9
13439	13434	13435	13446	9
13442	13434	13435	13446	9
13446	9789	9782	9783	9
13446	9789	9782	9781	9
13435	13436	13437	13444	9
13440	13436	13437	13444	9
13439	13438	13437	13444	9
13441	13438	13437	13444	9
13444	8798	8788	8787	9
13444	8798	8788	8791	9
13435	13446	9789	9782	9
13435	13446	9789	9791	9
13435	13436	13437	13438	9
13435	13434	13439	13438	9
13435	13434	13439	13443	9
13437	13444	8798	8788	9
13437	13444	8798	8800	9
13434	13435	13436	13437	9
13434	13439	13438	13437	9
13437	13438	13439	13443	9
13436	13435	13446	13447	9
13436	13435	13446	9789	9
13436	13435	13434	13439	9
13436	13435	13434	13442	9
13436	13437	13444	13445	9
13436	13437	13444	8798	9
13436	13437	13438	13439	9
13436	13437	13438	13441	9
13434	13435	13446	13447	9
13434	13435	13446	9789	9
13434	13435	13436	13440	9
13434	13439	13438	13441	9
13438	13437	13444	13445	9
13438	13437	13444	8798	9
13438	13437	13436	13440	9
13438	13439	13434	13442	9
13442	13434	13439	13443	9
13441	13438	13439	13443	9
13447	13446	9789	9782	9
13447	13446	9789	9791	9
13445	13444	8798	8788	9
13445	13444	8798	8800	9
9692	9693	9694	9701	9
9697	9693	9694	9701	9
9696	9695	9694	9701	9
9698	9695	9694	9701	9
9701	9761	9751	9754	9
9701	9761	9751	9750	9
9694	9693	9692	9703	9
9697	9693	9692	9703	9
9696	9691	9692	9703	9
9699	9691	9692	9703	9
9703	9711	9705	9706	9
9703	9711	9705	9708	9
9694	9701	9761	9751	9
9694	9701	9761	9763	9
9691	9692	9693	9694	9
9691	9696	9695	9694	9
9694	9695	9696	9700	9
9692	9703	9711	9705	9
9692	9703	9711	9712	9
9692	9693	9694	9695	9
9692	9691	9696	9695	9
9692	9691	9696	9700	9
9693	9694	9701	9702	9
9693	9694	9701	9761	9
9693	9694	9695	9696	9
9693	9694	9695	9698	9
9693	9692	9703	9704	9
9693	9692	9703	9711	9
9693	9692	9691	9696	9
9693	9692	9691	9699	9
9695	9694	9701	9702	9
9695	9694	9701	9761	9
9695	9694	9693	9697	9
9695	9696	9691	9699	9
9691	9692	9703	9704	9
9691	9692	9703	9711	9
9691	9692	9693	9697	9
9691	9696	9695	9698	9
9698	9695	9696	9700	9
9699	9691	9696	9700	9
9702	9701	9761	9751	9
9702	9701	9761	9763	9
9704	9703	9711	9705	9
9704	9703	9711	9712	9
11197	11196	11195	11206	9
11200	11196	11195	11206	9
11199	11194	11195	11206	9
11202	11194	11195	11206	9
11206	3858	3848	3851	9
11206	3858	3848	3847	9
11195	11196	11197	11204	9
11200	11196	11197	11204	9
11199	11198	11197	11204	9
11201	11198	11197	11204	9
11204	6551	6541	6540	9
11204	6551	6541	6544	9
11195	11206	3858	3848	9
11195	11206	3858	3860	9
11195	11196	11197	11198	9
11195	11194	11199	11198	9
11195	11194	11199	11203	9
11197	11204	6551	6541	9
11197	11204	6551	6553	9
11194	11195	11196	11197	9
11194	11199	11198	11197	9
11197	11198	11199	11203	9
11196	11195	11206	11207	9
11196	11195	11206	3858	9
11196	11195	11194	11199	9
11196	11195	11194	11202	9
11196	11197	11204	11205	9
11196	11197	11204	6551	9
11196	11197	11198	11199	9
11196	11197	11198	11201	9
11194	11195	11206	11207	9
11194	11195	11206	3858	9
11194	11195	11196	11200	9
11194	11199	11198	11201	9
11198	11197	11204	11205	9
11198	11197	11204	6551	9
11198	11197	11196	11200	9
11198	11199	11194	11202	9
11202	11194	11199	11203	9
11201	11198	11199	11203	9
11207	11206	3858	3848	9
11207	11206	3858	3860	9
11205	11204	6551	6541	9
11205	11204	6551	6553	9
11461	11462	11463	11470	9
11466	11462	11463	11470	9
11465	11464	11463	11470	9
11467	11464	11463	11470	9
11470	9847	9840	9839	9
11470	9847	9840	9841	9
11463	11462	11461	11472	9
11466	11462	11461	11472	9
11465	11460	11461	11472	9
11468	11460	11461	11472	9
11472	4337	4327	4330	9
11472	4337	4327	4326	9
11463	11470	9847	9840	9
11463	11470	9847	9849	9
11463	11462	11461	11460	9
11463	11464	11465	11460	9
11463	11464	11465	11469	9
11461	11472	4337	4327	9
11461	11472	4337	4339	9
11464	11463	11462	11461	9
11464	11465	11460	11461	9
11461	11460	11465	11469	9
11462	11463	11470	11471	9
11462	11463	11470	9847	9
11462	11463	11464	11465	9
11462	11463	11464	11467	9
11462	11461	11472	11473	9
11462	11461	11472	4337	9
11462	11461	11460	11465	9
11462	11461	11460	11468	9
11464	11463	11470	11471	9
11464	11463	11470	9847	9
11464	11463	11462	11466	9
11464	11465	11460	11468	9
11460	11461	11472	11473	9
11460	11461	11472	4337	9
11460	11461	11462	11466	9
11460	11465	11464	11467	9
11467	11464	11465	11469	9
11468	11460	11465	11469	9
11471	11470	9847	9840	9
11471	11470	9847	9849	9
11473	11472	4337	4327	9
11473	11472	4337	4339	9
2621	2620	2619	2630	9
2624	2620	2619	2630	9
2623	2618	2619	2630	9
2626	2618	2619	2630	9
2619	2620	2621	2628	9
2624	2620	2621	2628	9
2623	2622	2621	2628	9
2625	2622	2621	2628	9
2628	4235	4225	4224	9
2628	4235	4225	4228	9
2619	2620	2621	2622	9
2619	2618	2623	2622	9
2619	2618	2623	2627	9
2621	2628	4235	4225	9
2621	2628	4235	4237	9
2618	2619	2620	2621	9
2618	2623	2622	2621	9
2621	2622	2623	2627	9
2620	2619	2630	2632	9
2620	2619	2630	2631	9
2620	2619	2618	2623	9
2620	2619	2618	2626	9
2620	2621	2628	2629	9
2620	2621	2628	4235	9
2620	2621	2622	2623	9
2620	2621	2622	2625	9
2618	2619	2630	2632	9
2618	2619	2630	2631	9
2618	2619	2620	2624	9
2618	2623	2622	2625	9
2622	2621	2628	2629	9
2622	2621	2628	4235	9
2622	2621	2620	2624	9
2622	2623	2618	2626	9
2626	2618	2623	2627	9
2625	2622	2623	2627	9
2629	2628	4235	4225	9
2629	2628	4235	4237	9
3086	3085	3084	3095	9
3089	3085	3084	3095	9
3088	3083	3084	3095	9
3091	3083	3084	3095	9
3084	3085	3086	3093	9
3089	3085	3086	3093	9
3088	3087	3086	3093	9
3090	3087	3086	3093	9
3093	8050	8043	8044	9
3093	8050	8043	8042	9
3084	3085	3086	3087	9
3084	3083	3088	3087	9
3084	3083	3088	3092	9
3086	3093	8050	8043	9
3086	3093	8050	8052	9
3083	3084	3085	3086	9
3083	3088	3087	3086	9
3086	3087	3088	3092	9
3085	3084	3095	3096	9
3085	3084	3095	3097	9
3085	3084	3083	3088	9
3085	3084	3083	3091	9
3085	3086	3093	3094	9
3085	3086	3093	8050	9
3085	3086	3087	3088	9
3085	3086	3087	3090	9
3083	3084	3095	3096	9
3083	3084	3095	3097	9
3083	3084	3085	3089	9
3083	3088	3087	3090	9
3087	3086	3093	3094	9
3087	3086	3093	8050	9
3087	3086	3085	3089	9
3087	3088	3083	3091	9
3091	3083	3088	3092	9
3090	3087	3088	3092	9
3094	3093	8050	8043	9
3094	3093	8050	8052	9
13283	13282	13281	13292	9
13286	13282	13281	13292	9
13285	13280	13281	13292	9
13288	13280	13281	13292	9
13292	8242	8232	8231	9
13292	8242	8232	8235	9
13281	13282	13283	13290	9
13286	13282	13283	13290	9
13285	13284	13283	13290	9
13287	13284	13283	13290	9
13290	9104	9097	9096	9
13290	9104	9097	9098	9
13281	13292	8242	8232	9
13281	13292	8242	8244	9
13281	13282	13283	13284	9
13281	13280	13285	13284	9
13281	13280	13285	13289	9
13283	13290	9104	9097	9
13283	13290	9104	9106	9
13280	13281	13282	13283	9
13280	13285	13284	13283	9
13283	13284	13285	13289	9
13282	13281	13292	13293	9
13282	13281	13292	8242	9
13282	13281	13280	13285	9
13282	13281	13280	13288	9
13282	13283	13290	13291	9
13282	13283	13290	9104	9
13282	13283	13284	13285	9
13282	13283	13284	13287	9
13280	13281	13292	13293	9
13280	13281	13292	8242	9
13280	13281	13282	13286	9
13280	13285	13284	13287	9
13284	13283	13290	13291	9
13284	13283	13290	9104	9
13284	13283	13282	13286	9
13284	13285	13280	13288	9
13288	13280	13285	13289	9
13287	13284	13285	13289	9
13293	13292	8242	8232	9
13293	13292	8242	8244	9
13291	13290	9104	9097	9
13291	13290	9104	9106	9
5740	5739	5738	5749	9
5743	5739	5738	5749	9
5742	5737	5738	5749	9
5745	5737	5738	5749	9
5749	7220	7213	7214	9
5749	7220	7213	7212	9
5738	5739	5740	5747	9
5743	5739	5740	5747	9
5742	5741	5740	5747	9
5744	5741	5740	5747	9
5747	5757	5751	5752	9
5747	5757	5751	5754	9
5738	5749	7220	7213	9
5738	5749	7220	7222	9
5738	5739	5740	5741	9
5738	5737	5742	5741	9
5738	5737	5742	5746	9
5740	5747	5757	5751	9
5740	5747	5757	5758	9
5737	5738	5739	5740	9
5737	5742	5741	5740	9
5740	5741	5742	5746	9
5739	5738	5749	5750	9
5739	5738	5749	7220	9
5739	5738	5737	5742	9
5739	5738	5737	5745	9
5739	5740	5747	5748	9
5739	5740	5747	5757	9
5739	5740	5741	5742	9
5739	5740	5741	5744	9
5737	5738	5749	5750	9
5737	5738	5749	7220	9
5737	5738	5739	5743	9
5737	5742	5741	5744	9
5741	5740	5747	5748	9
5741	5740	5747	5757	9
5741	5740	5739	5743	9
5741	5742	5737	5745	9
5745	5737	5742	5746	9
5744	5741	5742	5746	9
5750	5749	7220	7213	9
5750	5749	7220	7222	9
5748	5747	5757	5751	9
5748	5747	5757	5758	9
9738	9737	9736	9747	9
9741	9737	9736	9747	9
9740	9735	9736	9747	9
9743	9735	9736	9747	9
9747	9755	9749	9752	9
9747	9755	9749	9750	9
9736	9737	9738	9745	9
9741	9737	9738	9745	9
9740	9739	9738	9745	9
9742	9739	9738	9745	9
9745	8417	8410	8411	9
9745	8417	8410	8409	9
9736	9747	9755	9749	9
9736	9747	9755	9756	9
9736	9737	9738	9739	9
9736	9735	9740	9739	9
9736	9735	9740	9744	9
9738	9745	8417	8410	9
9738	9745	8417	8419	9
9735	9736	9737	9738	9
9735	9740	9739	9738	9
9738	9739	9740	9744	9
9737	9736	9747	9748	9
9737	9736	9747	9755	9
9737	9736	9735	9740	9
9737	9736	9735	9743	9
9737	9738	9745	9746	9
9737	9738	9745	8417	9
9737	9738	9739	9740	9
9737	9738	9739	9742	9
9735	9736	9747	9748	9
9735	9736	9747	9755	9
9735	9736	9737	9741	9
9735	9740	9739	9742	9
9739	9738	9745	9746	9
9739	9738	9745	8417	9
9739	9738	9737	9741	9
9739	9740	9735	9743	9
9743	9735	9740	9744	9
9742	9739	9740	9744	9
9748	9747	9755	9749	9
9748	9747	9755	9756	9
9746	9745	8417	8410	9
9746	9745	8417	8419	9
10247	10246	10245	10256	9
10250	10246	10245	10256	9
10249	10244	10245	10256	9
10252	10244	10245	10256	9
10256	10264	10258	10259	9
10256	10264	10258	10261	9
10245	10246	10247	10254	9
10250	10246	10247	10254	9
10249	10248	10247	10254	9
10251	10248	10247	10254	9
10254	7992	7985	7984	9
10254	7992	7985	7986	9
10245	10256	10264	10258	9
10245	10256	10264	10265	9
10245	10246	10247	10248	9
10245	10244	10249	10248	9
10245	10244	10249	10253	9
10247	10254	7992	7985	9
10247	10254	7992	7994	9
10244	10245	10246	10247	9
10244	10249	10248	10247	9
10247	10248	10249	10253	9
10246	10245	10256	10257	9
10246	10245	10256	10264	9
10246	10245	10244	10249	9
10246	10245	10244	10252	9
10246	10247	10254	10255	9
10246	10247	10254	7992	9
10246	10247	10248	10249	9
10246	10247	10248	10251	9
10244	10245	10256	10257	9
10244	10245	10256	10264	9
10244	10245	10246	10250	9
10244	10249	10248	10251	9
10248	10247	10254	10255	9
10248	10247	10254	7992	9
10248	10247	10246	10250	9
10248	10249	10244	10252	9
10252	10244	10249	10253	9
10251	10248	10249	10253	9
10257	10256	10264	10258	9
10257	10256	10264	10265	9
10255	10254	7992	7985	9
10255	10254	7992	7994	9
12905	12904	12903	12914	9
12908	12904	12903	12914	9
12907	12902	12903	12914	9
12910	12902	12903	12914	9
12914	7352	7342	7345	9
12914	7352	7342	7341	9
12903	12904	12905	12912	9
12908	12904	12905	12912	9
12907	12906	12905	12912	9
12909	12906	12905	12912	9
12912	9964	9957	9958	9
12912	9964	9957	9956	9
12903	12914	7352	7342	9
12903	12914	7352	7354	9
12903	12904	12905	12906	9
12903	12902	12907	12906	9
12903	12902	12907	12911	9
12905	12912	9964	9957	9
12905	12912	9964	9966	9
12902	12903	12904	12905	9
12902	12907	12906	12905	9
12905	12906	12907	12911	9
12904	12903	12914	12915	9
12904	12903	12914	7352	9
12904	12903	12902	12907	9
12904	12903	12902	12910	9
12904	12905	12912	12913	9
12904	12905	12912	9964	9
12904	12905	12906	12907	9
12904	12905	12906	12909	9
12902	12903	12914	12915	9
12902	12903	12914	7352	9
12902	12903	12904	12908	9
12902	12907	12906	12909	9
12906	12905	12912	12913	9
12906	12905	12912	9964	9
12906	12905	12904	12908	9
12906	12907	12902	12910	9
12910	12902	12907	12911	9
12909	12906	12907	12911	9
12915	12914	7352	7342	9
12915	12914	7352	7354	9
12913	12912	9964	9957	9
12913	12912	9964	9966	9
2994	2995	2996	3003	9
2999	2995	2996	3003	9
2998	2997	2996	3003	9
3000	2997	2996	3003	9
3003	7278	7271	7270	9
3003	7278	7271	7272	9
2996	2995	2994	3005	9
2999	2995	2994	3005	9
2998	2993	2994	3005	9
3001	2993	2994	3005	9
2996	3003	7278	7271	9
2996	3003	7278	7280	9
2993	2994	2995	2996	9
2993	2998	2997	2996	9
2996	2997	2998	3002	9
2994	2995	2996	2997	9
2994	2993	2998	2997	9
2994	2993	2998	3002	9
2995	2996	3003	3004	9
2995	2996	3003	7278	9
2995	2996	2997	2998	9
2995	2996	2997	3000	9
2995	2994	3005	3007	9
2995	2994	3005	3006	9
2995	2994	2993	2998	9
2995	2994	2993	3001	9
2997	2996	3003	3004	9
2997	2996	3003	7278	9
2997	2996	2995	2999	9
2997	2998	2993	3001	9
2993	2994	3005	3007	9
2993	2994	3005	3006	9
2993	2994	2995	2999	9
2993	2998	2997	3000	9
3000	2997	2998	3002	9
3001	2993	2998	3002	9
3004	3003	7278	7271	9
3004	3003	7278	7280	9
10172	10173	10174	10181	9
10177	10173	10174	10181	9
10176	10175	10174	10181	9
10178	10175	10174	10181	9
10181	8855	8848	8847	9
10181	8855	8848	8849	9
10174	10173	10172	10183	9
10177	10173	10172	10183	9
10176	10171	10172	10183	9
10179	10171	10172	10183	9
10183	10191	10185	10186	9
10183	10191	10185	10188	9
10174	10181	8855	8848	9
10174	10181	8855	8857	9
10171	10172	10173	10174	9
10171	10176	10175	10174	9
10174	10175	10176	10180	9
10172	10183	10191	10185	9
10172	10183	10191	10192	9
10172	10173	10174	10175	9
10172	10171	10176	10175	9
10172	10171	10176	10180	9
10173	10174	10181	10182	9
10173	10174	10181	8855	9
10173	10174	10175	10176	9
10173	10174	10175	10178	9
10173	10172	10183	10184	9
10173	10172	10183	10191	9
10173	10172	10171	10176	9
10173	10172	10171	10179	9
10175	10174	10181	10182	9
10175	10174	10181	8855	9
10175	10174	10173	10177	9
10175	10176	10171	10179	9
10171	10172	10183	10184	9
10171	10172	10183	10191	9
10171	10172	10173	10177	9
10171	10176	10175	10178	9
10178	10175	10176	10180	9
10179	10171	10176	10180	9
10182	10181	8855	8848	9
10182	10181	8855	8857	9
10184	10183	10191	10185	9
10184	10183	10191	10192	9
2831	2830	2829	2840	9
2834	2830	2829	2840	9
2833	2828	2829	2840	9
2836	2828	2829	2840	9
2829	2830	2831	2838	9
2834	2830	2831	2838	9
2833	2832	2831	2838	9
2835	2832	2831	2838	9
2838	5699	5693	5694	9
2838	5699	5693	5696	9
2829	2830	2831	2832	9
2829	2828	2833	2832	9
2829	2828	2833	2837	9
2831	2838	5699	5693	9
2831	2838	5699	5700	9
2828	2829	2830	2831	9
2828	2833	2832	2831	9
2831	2832	2833	2837	9
2830	2829	2840	2841	9
2830	2829	2840	2842	9
2830	2829	2828	2833	9
2830	2829	2828	2836	9
2830	2831	2838	2839	9
2830	2831	2838	5699	9
2830	2831	2832	2833	9
2830	2831	2832	2835	9
2828	2829	2840	2841	9
2828	2829	2840	2842	9
2828	2829	2830	2834	9
2828	2833	2832	2835	9
2832	2831	2838	2839	9
2832	2831	2838	5699	9
2832	2831	2830	2834	9
2832	2833	2828	2836	9
2836	2828	2833	2837	9
2835	2832	2833	2837	9
2839	2838	5699	5693	9
2839	2838	5699	5700	9
4793	4792	4791	4802	9
4796	4792	4791	4802	9
4795	4790	4791	4802	9
4798	4790	4791	4802	9
4802	4825	4819	4822	9
4802	4825	4819	4820	9
4791	4792	4793	4800	9
4796	4792	4793	4800	9
4795	4794	4793	4800	9
4797	4794	4793	4800	9
4800	4810	4804	4807	9
4800	4810	4804	4805	9
4791	4802	4825	4819	9
4791	4802	4825	4826	9
4791	4792	4793	4794	9
4791	4790	4795	4794	9
4791	4790	4795	4799	9
4793	4800	4810	4804	9
4793	4800	4810	4811	9
4790	4791	4792	4793	9
4790	4795	4794	4793	9
4793	4794	4795	4799	9
4792	4791	4802	4803	9
4792	4791	4802	4825	9
4792	4791	4790	4795	9
4792	4791	4790	4798	9
4792	4793	4800	4801	9
4792	4793	4800	4810	9
4792	4793	4794	4795	9
4792	4793	4794	4797	9
4790	4791	4802	4803	9
4790	4791	4802	4825	9
4790	4791	4792	4796	9
4790	4795	4794	4797	9
4794	4793	4800	4801	9
4794	4793	4800	4810	9
4794	4793	4792	4796	9
4794	4795	4790	4798	9
4798	4790	4795	4799	9
4797	4794	4795	4799	9
4803	4802	4825	4819	9
4803	4802	4825	4826	9
4801	4800	4810	4804	9
4801	4800	4810	4811	9
6251	6250	6249	6260	9
6254	6250	6249	6260	9
6253	6248	6249	6260	9
6256	6248	6249	6260	9
6260	6448	6441	6440	9
6260	6448	6441	6442	9
6249	6250	6251	6258	9
6254	6250	6251	6258	9
6253	6252	6251	6258	9
6255	6252	6251	6258	9
6258	6268	6262	6265	9
6258	6268	6262	6263	9
6249	6260	6448	6441	9
6249	6260	6448	6450	9
6249	6250	6251	6252	9
6249	6248	6253	6252	9
6249	6248	6253	6257	9
6251	6258	6268	6262	9
6251	6258	6268	6269	9
6248	6249	6250	6251	9
6248	6253	6252	6251	9
6251	6252	6253	6257	9
6250	6249	6260	6261	9
6250	6249	6260	6448	9
6250	6249	6248	6253	9
6250	6249	6248	6256	9
6250	6251	6258	6259	9
6250	6251	6258	6268	9
6250	6251	6252	6253	9
6250	6251	6252	6255	9
6248	6249	6260	6261	9
6248	6249	6260	6448	9
6248	6249	6250	6254	9
6248	6253	6252	6255	9
6252	6251	6258	6259	9
6252	6251	6258	6268	9
6252	6251	6250	6254	9
6252	6253	6248	6256	9
6256	6248	6253	6257	9
6255	6252	6253	6257	9
6261	6260	6448	6441	9
6261	6260	6448	6450	9
6259	6258	6268	6262	9
6259	6258	6268	6269	9
12569	12568	12567	12578	9
12572	12568	12567	12578	9
12571	12566	12567	12578	9
12574	12566	12567	12578	9
1784	1781	1787	12578	9
1782	1781	1787	12578	9
12567	12568	12569	12576	9
12572	12568	12569	12576	9
12571	12570	12569	12576	9
12573	12570	12569	12576	9
12576	6288	6281	6280	9
12576	6288	6281	6282	9
1781	1787	12578	12567	9
1788	1787	12578	12567	9
12567	12568	12569	12570	9
12567	12566	12571	12570	9
12567	12566	12571	12575	9
12569	12576	6288	6281	9
12569	12576	6288	6290	9
12566	12567	12568	12569	9
12566	12571	12570	12569	9
12569	12570	12571	12575	9
12568	12567	12578	12579	9
1787	12578	12567	12568	9
12568	12567	12566	12571	9
12568	12567	12566	12574	9
12568	12569	12576	12577	9
12568	12569	12576	6288	9
12568	12569	12570	12571	9
12568	12569	12570	12573	9
12566	12567	12578	12579	9
1787	12578	12567	12566	9
12566	12567	12568	12572	9
12566	12571	12570	12573	9
12570	12569	12576	12577	9
12570	12569	12576	6288	9
12570	12569	12568	12572	9
12570	12571	12566	12574	9
12574	12566	12571	12575	9
12573	12570	12571	12575	9
1781	1787	12578	12579	9
1788	1787	12578	12579	9
12577	12576	6288	6281	9
12577	12576	6288	6290	9
5711	5710	5709	5720	9
5714	5710	5709	5720	9
5713	5708	5709	5720	9
5716	5708	5709	5720	9
5720	9818	9811	9812	9
5720	9818	9811	9810	9
5709	5710	5711	5718	9
5714	5710	5711	5718	9
5713	5712	5711	5718	9
5715	5712	5711	5718	9
5718	5728	5722	5725	9
5718	5728	5722	5723	9
5709	5720	9818	9811	9
5709	5720	9818	9820	9
5709	5710	5711	5712	9
5709	5708	5713	5712	9
5709	5708	5713	5717	9
5711	5718	5728	5722	9
5711	5718	5728	5729	9
5708	5709	5710	5711	9
5708	5713	5712	5711	9
5711	5712	5713	5717	9
5710	5709	5720	5721	9
5710	5709	5720	9818	9
5710	5709	5708	5713	9
5710	5709	5708	5716	9
5710	5711	5718	5719	9
5710	5711	5718	5728	9
5710	5711	5712	5713	9
5710	5711	5712	5715	9
5708	5709	5720	5721	9
5708	5709	5720	9818	9
5708	5709	5710	5714	9
5708	5713	5712	5715	9
5712	5711	5718	5719	9
5712	5711	5718	5728	9
5712	5711	5710	5714	9
5712	5713	5708	5716	9
5716	5708	5713	5717	9
5715	5712	5713	5717	9
5721	5720	9818	9811	9
5721	5720	9818	9820	9
5719	5718	5728	5722	9
5719	5718	5728	5729	9
8424	8423	8422	8433	9
8427	8423	8422	8433	9
8426	8421	8422	8433	9
8429	8421	8422	8433	9
8433	5426	5419	5418	9
8433	5426	5419	5420	9
8422	8423	8424	8431	9
8427	8423	8424	8431	9
8426	8425	8424	8431	9
8428	8425	8424	8431	9
8431	8441	8435	8438	9
8431	8441	8435	8436	9
8422	8433	5426	5419	9
8422	8433	5426	5428	9
8422	8423	8424	8425	9
8422	8421	8426	8425	9
8422	8421	8426	8430	9
8424	8431	8441	8435	9
8424	8431	8441	8442	9
8421	8422	8423	8424	9
8421	8426	8425	8424	9
8424	8425	8426	8430	9
8423	8422	8433	8434	9
8423	8422	8433	5426	9
8423	8422	8421	8426	9
8423	8422	8421	8429	9
8423	8424	8431	8432	9
8423	8424	8431	8441	9
8423	8424	8425	8426	9
8423	8424	8425	8428	9
8421	8422	8433	8434	9
8421	8422	8433	5426	9
8421	8422	8423	8427	9
8421	8426	8425	8428	9
8425	8424	8431	8432	9
8425	8424	8431	8441	9
8425	8424	8423	8427	9
8425	8426	8421	8429	9
8429	8421	8426	8430	9
8428	8425	8426	8430	9
8434	8433	5426	5419	9
8434	8433	5426	5428	9
8432	8431	8441	8435	9
8432	8431	8441	8442	9
1923	1922	1921	1932	9
1926	1922	1921	1932	9
1925	1920	1921	1932	9
1928	1920	1921	1932	9
1921	1922	1923	1930	9
1926	1922	1923	1930	9
1925	1924	1923	1930	9
1927	1924	1923	1930	9
1906	1903	1909	1930	9
1904	1903	1909	1930	9
1921	1922	1923	1924	9
1921	1920	1925	1924	9
1921	1920	1925	1929	9
1903	1909	1930	1923	9
1910	1909	1930	1923	9
1920	1921	1922	1923	9
1920	1925	1924	1923	9
1923	1924	1925	1929	9
1922	1921	1932	1933	9
1922	1921	1932	1934	9
1922	1921	1920	1925	9
1922	1921	1920	1928	9
1922	1923	1930	1931	9
1909	1930	1923	1922	9
1922	1923	1924	1925	9
1922	1923	1924	1927	9
1920	1921	1932	1933	9
1920	1921	1932	1934	9
1920	1921	1922	1926	9
1920	1925	1924	1927	9
1924	1923	1930	1931	9
1909	1930	1923	1924	9
1924	1923	1922	1926	9
1924	1925	1920	1928	9
1928	1920	1925	1929	9
1927	1924	1925	1929	9
1903	1909	1930	1931	9
1910	1909	1930	1931	9
7125	7124	7123	7134	9
7128	7124	7123	7134	9
7127	7122	7123	7134	9
7130	7122	7123	7134	9
7134	6390	6383	6382	9
7134	6390	6383	6384	9
7123	7124	7125	7132	9
7128	7124	7125	7132	9
7127	7126	7125	7132	9
7129	7126	7125	7132	9
7132	7147	7140	7141	9
7132	7147	7140	7139	9
7123	7134	6390	6383	9
7123	7134	6390	6392	9
7123	7124	7125	7126	9
7123	7122	7127	7126	9
7123	7122	7127	7131	9
7125	7132	7147	7140	9
7125	7132	7147	7149	9
7122	7123	7124	7125	9
7122	7127	7126	7125	9
7125	7126	7127	7131	9
7124	7123	7134	7135	9
7124	7123	7134	6390	9
7124	7123	7122	7127	9
7124	7123	7122	7130	9
7124	7125	7132	7133	9
7124	7125	7132	7147	9
7124	7125	7126	7127	9
7124	7125	7126	7129	9
7122	7123	7134	7135	9
7122	7123	7134	6390	9
7122	7123	7124	7128	9
7122	7127	7126	7129	9
7126	7125	7132	7133	9
7126	7125	7132	7147	9
7126	7125	7124	7128	9
7126	7127	7122	7130	9
7130	7122	7127	7131	9
7129	7126	7127	7131	9
7135	7134	6390	6383	9
7135	7134	6390	6392	9
7133	7132	7147	7140	9
7133	7132	7147	7149	9
5375	5374	5373	5384	9
5378	5374	5373	5384	9
5377	5372	5373	5384	9
5380	5372	5373	5384	9
5384	5392	5386	5389	9
5384	5392	5386	5387	9
5373	5374	5375	5382	9
5378	5374	5375	5382	9
5377	5376	5375	5382	9
5379	5376	5375	5382	9
5382	10635	10628	10629	9
5382	10635	10628	10627	9
5373	5384	5392	5386	9
5373	5384	5392	5393	9
5373	5374	5375	5376	9
5373	5372	5377	5376	9
5373	5372	5377	5381	9
5375	5382	10635	10628	9
5375	5382	10635	10637	9
5372	5373	5374	5375	9
5372	5377	5376	5375	9
5375	5376	5377	5381	9
5374	5373	5384	5385	9
5374	5373	5384	5392	9
5374	5373	5372	5377	9
5374	5373	5372	5380	9
5374	5375	5382	5383	9
5374	5375	5382	10635	9
5374	5375	5376	5377	9
5374	5375	5376	5379	9
5372	5373	5384	5385	9
5372	5373	5384	5392	9
5372	5373	5374	5378	9
5372	5377	5376	5379	9
5376	5375	5382	5383	9
5376	5375	5382	10635	9
5376	5375	5374	5378	9
5376	5377	5372	5380	9
5380	5372	5377	5381	9
5379	5376	5377	5381	9
5385	5384	5392	5386	9
5385	5384	5392	5393	9
5383	5382	10635	10628	9
5383	5382	10635	10637	9
12639	12638	12637	12648	9
12642	12638	12637	12648	9
12641	12636	12637	12648	9
12644	12636	12637	12648	9
12648	7118	7111	7110	9
12648	7118	7111	7112	9
12637	12638	12639	12646	9
12642	12638	12639	12646	9
12641	12640	12639	12646	9
12643	12640	12639	12646	9
12646	6478	6468	6471	9
12646	6478	6468	6467	9
12637	12648	7118	7111	9
12637	12648	7118	7120	9
12637	12638	12639	12640	9
12637	12636	12641	12640	9
12637	12636	12641	12645	9
12639	12646	6478	6468	9
12639	12646	6478	6480	9
12636	12637	12638	12639	9
12636	12641	12640	12639	9
12639	12640	12641	12645	9
12638	12637	12648	12649	9
12638	12637	12648	7118	9
12638	12637	12636	12641	9
12638	12637	12636	12644	9
12638	12639	12646	12647	9
12638	12639	12646	6478	9
12638	12639	12640	12641	9
12638	12639	12640	12643	9
12636	12637	12648	12649	9
12636	12637	12648	7118	9
12636	12637	12638	12642	9
12636	12641	12640	12643	9
12640	12639	12646	12647	9
12640	12639	12646	6478	9
12640	12639	12638	12642	9
12640	12641	12636	12644	9
12644	12636	12641	12645	9
12643	12640	12641	12645	9
12649	12648	7118	7111	9
12649	12648	7118	7120	9
12647	12646	6478	6468	9
12647	12646	6478	6480	9
7373	7372	7371	7382	9
7376	7372	7371	7382	9
7375	7370	7371	7382	9
7378	7370	7371	7382	9
7382	9366	9356	9359	9
7382	9366	9356	9355	9
7371	7372	7373	7380	9
7376	7372	7373	7380	9
7375	7374	7373	7380	9
7377	7374	7373	7380	9
7380	7390	7384	7387	9
7380	7390	7384	7385	9
7371	7382	9366	9356	9
7371	7382	9366	9368	9
7371	7372	7373	7374	9
7371	7370	7375	7374	9
7371	7370	7375	7379	9
7373	7380	7390	7384	9
7373	7380	7390	7391	9
7370	7371	7372	7373	9
7370	7375	7374	7373	9
7373	7374	7375	7379	9
7372	7371	7382	7383	9
7372	7371	7382	9366	9
7372	7371	7370	7375	9
7372	7371	7370	7378	9
7372	7373	7380	7381	9
7372	7373	7380	7390	9
7372	7373	7374	7375	9
7372	7373	7374	7377	9
7370	7371	7382	7383	9
7370	7371	7382	9366	9
7370	7371	7372	7376	9
7370	7375	7374	7377	9
7374	7373	7380	7381	9
7374	7373	7380	7390	9
7374	7373	7372	7376	9
7374	7375	7370	7378	9
7378	7370	7375	7379	9
7377	7374	7375	7379	9
7383	7382	9366	9356	9
7383	7382	9366	9368	9
7381	7380	7390	7384	9
7381	7380	7390	7391	9
10145	10144	10143	10154	9
10148	10144	10143	10154	9
10147	10142	10143	10154	9
10150	10142	10143	10154	9
1316	1315	1317	10154	9
1314	1315	1317	10154	9
10143	10144	10145	10152	9
10148	10144	10145	10152	9
10147	10146	10145	10152	9
10149	10146	10145	10152	9
10152	10162	10156	10157	9
10152	10162	10156	10159	9
1315	1317	10154	10143	9
1318	1317	10154	10143	9
10143	10144	10145	10146	9
10143	10142	10147	10146	9
10143	10142	10147	10151	9
10145	10152	10162	10156	9
10145	10152	10162	10163	9
10142	10143	10144	10145	9
10142	10147	10146	10145	9
10145	10146	10147	10151	9
10144	10143	10154	10155	9
1317	10154	10143	10144	9
10144	10143	10142	10147	9
10144	10143	10142	10150	9
10144	10145	10152	10153	9
10144	10145	10152	10162	9
10144	10145	10146	10147	9
10144	10145	10146	10149	9
10142	10143	10154	10155	9
1317	10154	10143	10142	9
10142	10143	10144	10148	9
10142	10147	10146	10149	9
10146	10145	10152	10153	9
10146	10145	10152	10162	9
10146	10145	10144	10148	9
10146	10147	10142	10150	9
10150	10142	10147	10151	9
10149	10146	10147	10151	9
1315	1317	10154	10155	9
1318	1317	10154	10155	9
10153	10152	10162	10156	9
10153	10152	10162	10163	9
11925	11924	11923	11934	9
11928	11924	11923	11934	9
11927	11922	11923	11934	9
11930	11922	11923	11934	9
11934	5180	5170	5173	9
11934	5180	5170	5169	9
11923	11924	11925	11932	9
11928	11924	11925	11932	9
11927	11926	11925	11932	9
11929	11926	11925	11932	9
2272	2273	2275	11932	9
2274	2273	2275	11932	9
11923	11934	5180	5170	9
11923	11934	5180	5182	9
11923	11924	11925	11926	9
11923	11922	11927	11926	9
11923	11922	11927	11931	9
2273	2275	11932	11925	9
2276	2275	11932	11925	9
11922	11923	11924	11925	9
11922	11927	11926	11925	9
11925	11926	11927	11931	9
11924	11923	11934	11935	9
11924	11923	11934	5180	9
11924	11923	11922	11927	9
11924	11923	11922	11930	9
11924	11925	11932	11933	9
2275	11932	11925	11924	9
11924	11925	11926	11927	9
11924	11925	11926	11929	9
11922	11923	11934	11935	9
11922	11923	11934	5180	9
11922	11923	11924	11928	9
11922	11927	11926	11929	9
11926	11925	11932	11933	9
2275	11932	11925	11926	9
11926	11925	11924	11928	9
11926	11927	11922	11930	9
11930	11922	11927	11931	9
11929	11926	11927	11931	9
11935	11934	5180	5170	9
11935	11934	5180	5182	9
2273	2275	11932	11933	9
2276	2275	11932	11933	9
8614	8613	8612	8623	9
8617	8613	8612	8623	9
8616	8611	8612	8623	9
8619	8611	8612	8623	9
8623	8631	8625	8626	9
8623	8631	8625	8628	9
8612	8613	8614	8621	9
8617	8613	8614	8621	9
8616	8615	8614	8621	9
8618	8615	8614	8621	9
8621	9308	9298	9297	9
8621	9308	9298	9301	9
8612	8623	8631	8625	9
8612	8623	8631	8632	9
8612	8613	8614	8615	9
8612	8611	8616	8615	9
8612	8611	8616	8620	9
8614	8621	9308	9298	9
8614	8621	9308	9310	9
8611	8612	8613	8614	9
8611	8616	8615	8614	9
8614	8615	8616	8620	9
8613	8612	8623	8624	9
8613	8612	8623	8631	9
8613	8612	8611	8616	9
8613	8612	8611	8619	9
8613	8614	8621	8622	9
8613	8614	8621	9308	9
8613	8614	8615	8616	9
8613	8614	8615	8618	9
8611	8612	8623	8624	9
8611	8612	8623	8631	9
8611	8612	8613	8617	9
8611	8616	8615	8618	9
8615	8614	8621	8622	9
8615	8614	8621	9308	9
8615	8614	8613	8617	9
8615	8616	8611	8619	9
8619	8611	8616	8620	9
8618	8615	8616	8620	9
8624	8623	8631	8625	9
8624	8623	8631	8632	9
8622	8621	9308	9298	9
8622	8621	9308	9310	9
6134	6133	6132	6143	9
6137	6133	6132	6143	9
6136	6131	6132	6143	9
6139	6131	6132	6143	9
6143	7361	7355	7358	9
6143	7361	7355	7356	9
6132	6133	6134	6141	9
6137	6133	6134	6141	9
6136	6135	6134	6141	9
6138	6135	6134	6141	9
6141	6151	6145	6146	9
6141	6151	6145	6148	9
6132	6143	7361	7355	9
6132	6143	7361	7362	9
6132	6133	6134	6135	9
6132	6131	6136	6135	9
6132	6131	6136	6140	9
6134	6141	6151	6145	9
6134	6141	6151	6152	9
6131	6132	6133	6134	9
6131	6136	6135	6134	9
6134	6135	6136	6140	9
6133	6132	6143	6144	9
6133	6132	6143	7361	9
6133	6132	6131	6136	9
6133	6132	6131	6139	9
6133	6134	6141	6142	9
6133	6134	6141	6151	9
6133	6134	6135	6136	9
6133	6134	6135	6138	9
6131	6132	6143	6144	9
6131	6132	6143	7361	9
6131	6132	6133	6137	9
6131	6136	6135	6138	9
6135	6134	6141	6142	9
6135	6134	6141	6151	9
6135	6134	6133	6137	9
6135	6136	6131	6139	9
6139	6131	6136	6140	9
6138	6135	6136	6140	9
6144	6143	7361	7355	9
6144	6143	7361	7362	9
6142	6141	6151	6145	9
6142	6141	6151	6152	9
11853	11854	11855	11862	9
11858	11854	11855	11862	9
11857	11856	11855	11862	9
11859	11856	11855	11862	9
11862	5064	5054	5053	9
11862	5064	5054	5057	9
11855	11854	11853	11864	9
11858	11854	11853	11864	9
11857	11852	11853	11864	9
11860	11852	11853	11864	9
11864	10520	10510	10509	9
11864	10520	10510	10513	9
11855	11862	5064	5054	9
11855	11862	5064	5066	9
11855	11854	11853	11852	9
11855	11856	11857	11852	9
11855	11856	11857	11861	9
11853	11864	10520	10510	9
11853	11864	10520	10522	9
11856	11855	11854	11853	9
11856	11857	11852	11853	9
11853	11852	11857	11861	9
11854	11855	11862	11863	9
11854	11855	11862	5064	9
11854	11855	11856	11857	9
11854	11855	11856	11859	9
11854	11853	11864	11865	9
11854	11853	11864	10520	9
11854	11853	11852	11857	9
11854	11853	11852	11860	9
11856	11855	11862	11863	9
11856	11855	11862	5064	9
11856	11855	11854	11858	9
11856	11857	11852	11860	9
11852	11853	11864	11865	9
11852	11853	11864	10520	9
11852	11853	11854	11858	9
11852	11857	11856	11859	9
11859	11856	11857	11861	9
11860	11852	11857	11861	9
11863	11862	5064	5054	9
11863	11862	5064	5066	9
11865	11864	10520	10510	9
11865	11864	10520	10522	9
6965	6964	6963	6974	9
6968	6964	6963	6974	9
6967	6962	6963	6974	9
6970	6962	6963	6974	9
6974	6982	6976	6979	9
6974	6982	6976	6977	9
6963	6964	6965	6972	9
6968	6964	6965	6972	9
6967	6966	6965	6972	9
6969	6966	6965	6972	9
6972	5019	5012	5013	9
6972	5019	5012	5011	9
6963	6974	6982	6976	9
6963	6974	6982	6983	9
6963	6964	6965	6966	9
6963	6962	6967	6966	9
6963	6962	6967	6971	9
6965	6972	5019	5012	9
6965	6972	5019	5021	9
6962	6963	6964	6965	9
6962	6967	6966	6965	9
6965	6966	6967	6971	9
6964	6963	6974	6975	9
6964	6963	6974	6982	9
6964	6963	6962	6967	9
6964	6963	6962	6970	9
6964	6965	6972	6973	9
6964	6965	6972	5019	9
6964	6965	6966	6967	9
6964	6965	6966	6969	9
6962	6963	6974	6975	9
6962	6963	6974	6982	9
6962	6963	6964	6968	9
6962	6967	6966	6969	9
6966	6965	6972	6973	9
6966	6965	6972	5019	9
6966	6965	6964	6968	9
6966	6967	6962	6970	9
6970	6962	6967	6971	9
6969	6966	6967	6971	9
6975	6974	6982	6976	9
6975	6974	6982	6983	9
6973	6972	5019	5012	9
6973	6972	5019	5021	9
4212	4211	4210	4221	9
4215	4211	4210	4221	9
4214	4209	4210	4221	9
4217	4209	4210	4221	9
4221	4229	4223	4224	9
4221	4229	4223	4226	9
4210	4211	4212	4219	9
4215	4211	4212	4219	9
4214	4213	4212	4219	9
4216	4213	4212	4219	9
4219	7308	7298	7297	9
4219	7308	7298	7301	9
4210	4221	4229	4223	9
4210	4221	4229	4230	9
4210	4211	4212	4213	9
4210	4209	4214	4213	9
4210	4209	4214	4218	9
4212	4219	7308	7298	9
4212	4219	7308	7310	9
4209	4210	4211	4212	9
4209	4214	4213	4212	9
4212	4213	4214	4218	9
4211	4210	4221	4222	9
4211	4210	4221	4229	9
4211	4210	4209	4214	9
4211	4210	4209	4217	9
4211	4212	4219	4220	9
4211	4212	4219	7308	9
4211	4212	4213	4214	9
4211	4212	4213	4216	9
4209	4210	4221	4222	9
4209	4210	4221	4229	9
4209	4210	4211	4215	9
4209	4214	4213	4216	9
4213	4212	4219	4220	9
4213	4212	4219	7308	9
4213	4212	4211	4215	9
4213	4214	4209	4217	9
4217	4209	4214	4218	9
4216	4213	4214	4218	9
4222	4221	4229	4223	9
4222	4221	4229	4230	9
4220	4219	7308	7298	9
4220	4219	7308	7310	9
8833	8832	8831	8842	9
8836	8832	8831	8842	9
8835	8830	8831	8842	9
8838	8830	8831	8842	9
8842	8850	8844	8847	9
8842	8850	8844	8845	9
8831	8832	8833	8840	9
8836	8832	8833	8840	9
8835	8834	8833	8840	9
8837	8834	8833	8840	9
8840	9594	9588	9591	9
8840	9594	9588	9589	9
8831	8842	8850	8844	9
8831	8842	8850	8851	9
8831	8832	8833	8834	9
8831	8830	8835	8834	9
8831	8830	8835	8839	9
8833	8840	9594	9588	9
8833	8840	9594	9595	9
8830	8831	8832	8833	9
8830	8835	8834	8833	9
8833	8834	8835	8839	9
8832	8831	8842	8843	9
8832	8831	8842	8850	9
8832	8831	8830	8835	9
8832	8831	8830	8838	9
8832	8833	8840	8841	9
8832	8833	8840	9594	9
8832	8833	8834	8835	9
8832	8833	8834	8837	9
8830	8831	8842	8843	9
8830	8831	8842	8850	9
8830	8831	8832	8836	9
8830	8835	8834	8837	9
8834	8833	8840	8841	9
8834	8833	8840	9594	9
8834	8833	8832	8836	9
8834	8835	8830	8838	9
8838	8830	8835	8839	9
8837	8834	8835	8839	9
8843	8842	8850	8844	9
8843	8842	8850	8851	9
8841	8840	9594	9588	9
8841	8840	9594	9595	9
6484	6483	6482	6493	9
6487	6483	6482	6493	9
6486	6481	6482	6493	9
6489	6481	6482	6493	9
6493	6507	6497	6496	9
6493	6507	6497	6500	9
6482	6483	6484	6491	9
6487	6483	6484	6491	9
6486	6485	6484	6491	9
6488	6485	6484	6491	9
6491	9716	9709	9710	9
6491	9716	9709	9708	9
6482	6493	6507	6497	9
6482	6493	6507	6509	9
6482	6483	6484	6485	9
6482	6481	6486	6485	9
6482	6481	6486	6490	9
6484	6491	9716	9709	9
6484	6491	9716	9718	9
6481	6482	6483	6484	9
6481	6486	6485	6484	9
6484	6485	6486	6490	9
6483	6482	6493	6494	9
6483	6482	6493	6507	9
6483	6482	6481	6486	9
6483	6482	6481	6489	9
6483	6484	6491	6492	9
6483	6484	6491	9716	9
6483	6484	6485	6486	9
6483	6484	6485	6488	9
6481	6482	6493	6494	9
6481	6482	6493	6507	9
6481	6482	6483	6487	9
6481	6486	6485	6488	9
6485	6484	6491	6492	9
6485	6484	6491	9716	9
6485	6484	6483	6487	9
6485	6486	6481	6489	9
6489	6481	6486	6490	9
6488	6485	6486	6490	9
6494	6493	6507	6497	9
6494	6493	6507	6509	9
6492	6491	9716	9709	9
6492	6491	9716	9718	9
10087	10086	10085	10096	9
10090	10086	10085	10096	9
10089	10084	10085	10096	9
10092	10084	10085	10096	9
10096	5470	5463	5464	9
10096	5470	5463	5462	9
10085	10086	10087	10094	9
10090	10086	10087	10094	9
10089	10088	10087	10094	9
10091	10088	10087	10094	9
10094	10109	10102	10103	9
10094	10109	10102	10101	9
10085	10096	5470	5463	9
10085	10096	5470	5472	9
10085	10086	10087	10088	9
10085	10084	10089	10088	9
10085	10084	10089	10093	9
10087	10094	10109	10102	9
10087	10094	10109	10111	9
10084	10085	10086	10087	9
10084	10089	10088	10087	9
10087	10088	10089	10093	9
10086	10085	10096	10097	9
10086	10085	10096	5470	9
10086	10085	10084	10089	9
10086	10085	10084	10092	9
10086	10087	10094	10095	9
10086	10087	10094	10109	9
10086	10087	10088	10089	9
10086	10087	10088	10091	9
10084	10085	10096	10097	9
10084	10085	10096	5470	9
10084	10085	10086	10090	9
10084	10089	10088	10091	9
10088	10087	10094	10095	9
10088	10087	10094	10109	9
10088	10087	10086	10090	9
10088	10089	10084	10092	9
10092	10084	10089	10093	9
10091	10088	10089	10093	9
10097	10096	5470	5463	9
10097	10096	5470	5472	9
10095	10094	10109	10102	9
10095	10094	10109	10111	9
12945	12946	12947	12954	9
12950	12946	12947	12954	9
12949	12948	12947	12954	9
12951	12948	12947	12954	9
1388	1389	1396	12954	9
1390	1389	1396	12954	9
12947	12946	12945	12956	9
12950	12946	12945	12956	9
12949	12944	12945	12956	9
12952	12944	12945	12956	9
12956	7395	7388	7387	9
12956	7395	7388	7389	9
1389	1396	12954	12947	9
1398	1396	12954	12947	9
12944	12945	12946	12947	9
12944	12949	12948	12947	9
12947	12948	12949	12953	9
12945	12956	7395	7388	9
12945	12956	7395	7397	9
12945	12946	12947	12948	9
12945	12944	12949	12948	9
12945	12944	12949	12953	9
12946	12947	12954	12955	9
1396	12954	12947	12946	9
12946	12947	12948	12949	9
12946	12947	12948	12951	9
12946	12945	12956	12957	9
12946	12945	12956	7395	9
12946	12945	12944	12949	9
12946	12945	12944	12952	9
12948	12947	12954	12955	9
1396	12954	12947	12948	9
12948	12947	12946	12950	9
12948	12949	12944	12952	9
12944	12945	12956	12957	9
12944	12945	12956	7395	9
12944	12945	12946	12950	9
12944	12949	12948	12951	9
12951	12948	12949	12953	9
12952	12944	12949	12953	9
1389	1396	12954	12955	9
1398	1396	12954	12955	9
12957	12956	7395	7388	9
12957	12956	7395	7397	9
8877	8876	8875	8886	9
8880	8876	8875	8886	9
8879	8874	8875	8886	9
8882	8874	8875	8886	9
8886	10235	10229	10232	9
8886	10235	10229	10230	9
8875	8876	8877	8884	9
8880	8876	8877	8884	9
8879	8878	8877	8884	9
8881	8878	8877	8884	9
8884	8894	8888	8891	9
8884	8894	8888	8889	9
8875	8886	10235	10229	9
8875	8886	10235	10236	9
8875	8876	8877	8878	9
8875	8874	8879	8878	9
8875	8874	8879	8883	9
8877	8884	8894	8888	9
8877	8884	8894	8895	9
8874	8875	8876	8877	9
8874	8879	8878	8877	9
8877	8878	8879	8883	9
8876	8875	8886	8887	9
8876	8875	8886	10235	9
8876	8875	8874	8879	9
8876	8875	8874	8882	9
8876	8877	8884	8885	9
8876	8877	8884	8894	9
8876	8877	8878	8879	9
8876	8877	8878	8881	9
8874	8875	8886	8887	9
8874	8875	8886	10235	9
8874	8875	8876	8880	9
8874	8879	8878	8881	9
8878	8877	8884	8885	9
8878	8877	8884	8894	9
8878	8877	8876	8880	9
8878	8879	8874	8882	9
8882	8874	8879	8883	9
8881	8878	8879	8883	9
8887	8886	10235	10229	9
8887	8886	10235	10236	9
8885	8884	8894	8888	9
8885	8884	8894	8895	9
9109	9110	9111	9118	9
9114	9110	9111	9118	9
9113	9112	9111	9118	9
9115	9112	9111	9118	9
9118	10167	10160	10161	9
9118	10167	10160	10159	9
9111	9110	9109	9120	9
9114	9110	9109	9120	9
9113	9108	9109	9120	9
9116	9108	9109	9120	9
9120	9128	9122	9125	9
9120	9128	9122	9123	9
9111	9118	10167	10160	9
9111	9118	10167	10169	9
9108	9109	9110	9111	9
9108	9113	9112	9111	9
9111	9112	9113	9117	9
9109	9120	9128	9122	9
9109	9120	9128	9129	9
9109	9110	9111	9112	9
9109	9108	9113	9112	9
9109	9108	9113	9117	9
9110	9111	9118	9119	9
9110	9111	9118	10167	9
9110	9111	9112	9113	9
9110	9111	9112	9115	9
9110	9109	9120	9121	9
9110	9109	9120	9128	9
9110	9109	9108	9113	9
9110	9109	9108	9116	9
9112	9111	9118	9119	9
9112	9111	9118	10167	9
9112	9111	9110	9114	9
9112	9113	9108	9116	9
9108	9109	9120	9121	9
9108	9109	9120	9128	9
9108	9109	9110	9114	9
9108	9113	9112	9115	9
9115	9112	9113	9117	9
9116	9108	9113	9117	9
9119	9118	10167	10160	9
9119	9118	10167	10169	9
9121	9120	9128	9122	9
9121	9120	9128	9129	9
13409	13408	13407	13418	9
13412	13408	13407	13418	9
13411	13406	13407	13418	9
13414	13406	13407	13418	9
13418	8769	8759	8758	9
13418	8769	8759	8762	9
13407	13408	13409	13416	9
13412	13408	13409	13416	9
13411	13410	13409	13416	9
13413	13410	13409	13416	9
1008	1009	1011	13416	9
1010	1009	1011	13416	9
13407	13418	8769	8759	9
13407	13418	8769	8771	9
13407	13408	13409	13410	9
13407	13406	13411	13410	9
13407	13406	13411	13415	9
1009	1011	13416	13409	9
1012	1011	13416	13409	9
13406	13407	13408	13409	9
13406	13411	13410	13409	9
13409	13410	13411	13415	9
13408	13407	13418	13419	9
13408	13407	13418	8769	9
13408	13407	13406	13411	9
13408	13407	13406	13414	9
13408	13409	13416	13417	9
1011	13416	13409	13408	9
13408	13409	13410	13411	9
13408	13409	13410	13413	9
13406	13407	13418	13419	9
13406	13407	13418	8769	9
13406	13407	13408	13412	9
13406	13411	13410	13413	9
13410	13409	13416	13417	9
1011	13416	13409	13410	9
13410	13409	13408	13412	9
13410	13411	13406	13414	9
13414	13406	13411	13415	9
13413	13410	13411	13415	9
13419	13418	8769	8759	9
13419	13418	8769	8771	9
1009	1011	13416	13417	9
1012	1011	13416	13417	9
3474	3475	3476	3483	9
3479	3475	3476	3483	9
3478	3477	3476	3483	9
3480	3477	3476	3483	9
3483	9731	9724	9725	9
3483	9731	9724	9723	9
3476	3475	3474	3485	9
3479	3475	3474	3485	9
3478	3473	3474	3485	9
3481	3473	3474	3485	9
3476	3483	9731	9724	9
3476	3483	9731	9733	9
3473	3474	3475	3476	9
3473	3478	3477	3476	9
3476	3477	3478	3482	9
3474	3475	3476	3477	9
3474	3473	3478	3477	9
3474	3473	3478	3482	9
3475	3476	3483	3484	9
3475	3476	3483	9731	9
3475	3476	3477	3478	9
3475	3476	3477	3480	9
3475	3474	3485	3487	9
3475	3474	3485	3486	9
3475	3474	3473	3478	9
3475	3474	3473	3481	9
3477	3476	3483	3484	9
3477	3476	3483	9731	9
3477	3476	3475	3479	9
3477	3478	3473	3481	9
3473	3474	3485	3487	9
3473	3474	3485	3486	9
3473	3474	3475	3479	9
3473	3478	3477	3480	9
3480	3477	3478	3482	9
3481	3473	3478	3482	9
3484	3483	9731	9724	9
3484	3483	9731	9733	9
12541	12540	12539	12550	9
12544	12540	12539	12550	9
12543	12538	12539	12550	9
12546	12538	12539	12550	9
12550	9046	9039	9040	9
12550	9046	9039	9038	9
12539	12540	12541	12548	9
12544	12540	12541	12548	9
12543	12542	12541	12548	9
12545	12542	12541	12548	9
12548	6274	6264	6267	9
12548	6274	6264	6263	9
12539	12550	9046	9039	9
12539	12550	9046	9048	9
12539	12540	12541	12542	9
12539	12538	12543	12542	9
12539	12538	12543	12547	9
12541	12548	6274	6264	9
12541	12548	6274	6276	9
12538	12539	12540	12541	9
12538	12543	12542	12541	9
12541	12542	12543	12547	9
12540	12539	12550	12551	9
12540	12539	12550	9046	9
12540	12539	12538	12543	9
12540	12539	12538	12546	9
12540	12541	12548	12549	9
12540	12541	12548	6274	9
12540	12541	12542	12543	9
12540	12541	12542	12545	9
12538	12539	12550	12551	9
12538	12539	12550	9046	9
12538	12539	12540	12544	9
12538	12543	12542	12545	9
12542	12541	12548	12549	9
12542	12541	12548	6274	9
12542	12541	12540	12544	9
12542	12543	12538	12546	9
12546	12538	12543	12547	9
12545	12542	12543	12547	9
12551	12550	9046	9039	9
12551	12550	9046	9048	9
12549	12548	6274	6264	9
12549	12548	6274	6276	9
13269	13268	13267	13278	9
13272	13268	13267	13278	9
13271	13266	13267	13278	9
13274	13266	13267	13278	9
13278	10269	10262	10263	9
13278	10269	10262	10261	9
13267	13268	13269	13276	9
13272	13268	13269	13276	9
13271	13270	13269	13276	9
13273	13270	13269	13276	9
13276	8226	8219	8220	9
13276	8226	8219	8218	9
13267	13278	10269	10262	9
13267	13278	10269	10271	9
13267	13268	13269	13270	9
13267	13266	13271	13270	9
13267	13266	13271	13275	9
13269	13276	8226	8219	9
13269	13276	8226	8228	9
13266	13267	13268	13269	9
13266	13271	13270	13269	9
13269	13270	13271	13275	9
13268	13267	13278	13279	9
13268	13267	13278	10269	9
13268	13267	13266	13271	9
13268	13267	13266	13274	9
13268	13269	13276	13277	9
13268	13269	13276	8226	9
13268	13269	13270	13271	9
13268	13269	13270	13273	9
13266	13267	13278	13279	9
13266	13267	13278	10269	9
13266	13267	13268	13272	9
13266	13271	13270	13273	9
13270	13269	13276	13277	9
13270	13269	13276	8226	9
13270	13269	13268	13272	9
13270	13271	13266	13274	9
13274	13266	13271	13275	9
13273	13270	13271	13275	9
13279	13278	10269	10262	9
13279	13278	10269	10271	9
13277	13276	8226	8219	9
13277	13276	8226	8228	9
7824	7823	7822	7833	9
7827	7823	7822	7833	9
7826	7821	7822	7833	9
7829	7821	7822	7833	9
7833	7841	7835	7836	9
7833	7841	7835	7838	9
7822	7823	7824	7831	9
7827	7823	7824	7831	9
7826	7825	7824	7831	9
7828	7825	7824	7831	9
7831	6332	6325	6326	9
7831	6332	6325	6324	9
7822	7833	7841	7835	9
7822	7833	7841	7842	9
7822	7823	7824	7825	9
7822	7821	7826	7825	9
7822	7821	7826	7830	9
7824	7831	6332	6325	9
7824	7831	6332	6334	9
7821	7822	7823	7824	9
7821	7826	7825	7824	9
7824	7825	7826	7830	9
7823	7822	7833	7834	9
7823	7822	7833	7841	9
7823	7822	7821	7826	9
7823	7822	7821	7829	9
7823	7824	7831	7832	9
7823	7824	7831	6332	9
7823	7824	7825	7826	9
7823	7824	7825	7828	9
7821	7822	7833	7834	9
7821	7822	7833	7841	9
7821	7822	7823	7827	9
7821	7826	7825	7828	9
7825	7824	7831	7832	9
7825	7824	7831	6332	9
7825	7824	7823	7827	9
7825	7826	7821	7829	9
7829	7821	7826	7830	9
7828	7825	7826	7830	9
7834	7833	7841	7835	9
7834	7833	7841	7842	9
7832	7831	6332	6325	9
7832	7831	6332	6334	9
12163	12162	12161	12172	9
12166	12162	12161	12172	9
12165	12160	12161	12172	9
12168	12160	12161	12172	9
12172	5865	5855	5854	9
12172	5865	5855	5858	9
12161	12162	12163	12170	9
12166	12162	12163	12170	9
12165	12164	12163	12170	9
12167	12164	12163	12170	9
12170	5603	5593	5596	9
12170	5603	5593	5592	9
12161	12172	5865	5855	9
12161	12172	5865	5867	9
12161	12162	12163	12164	9
12161	12160	12165	12164	9
12161	12160	12165	12169	9
12163	12170	5603	5593	9
12163	12170	5603	5605	9
12160	12161	12162	12163	9
12160	12165	12164	12163	9
12163	12164	12165	12169	9
12162	12161	12172	12173	9
12162	12161	12172	5865	9
12162	12161	12160	12165	9
12162	12161	12160	12168	9
12162	12163	12170	12171	9
12162	12163	12170	5603	9
12162	12163	12164	12165	9
12162	12163	12164	12167	9
12160	12161	12172	12173	9
12160	12161	12172	5865	9
12160	12161	12162	12166	9
12160	12165	12164	12167	9
12164	12163	12170	12171	9
12164	12163	12170	5603	9
12164	12163	12162	12166	9
12164	12165	12160	12168	9
12168	12160	12165	12169	9
12167	12164	12165	12169	9
12173	12172	5865	5855	9
12173	12172	5865	5867	9
12171	12170	5603	5593	9
12171	12170	5603	5605	9
11421	11420	11419	11430	9
11424	11420	11419	11430	9
11423	11418	11419	11430	9
11426	11418	11419	11430	9
11430	6959	6949	6952	9
11430	6959	6949	6948	9
11419	11420	11421	11428	9
11424	11420	11421	11428	9
11423	11422	11421	11428	9
11425	11422	11421	11428	9
11428	4249	4242	4241	9
11428	4249	4242	4243	9
11419	11430	6959	6949	9
11419	11430	6959	6961	9
11419	11420	11421	11422	9
11419	11418	11423	11422	9
11419	11418	11423	11427	9
11421	11428	4249	4242	9
11421	11428	4249	4251	9
11418	11419	11420	11421	9
11418	11423	11422	11421	9
11421	11422	11423	11427	9
11420	11419	11430	11431	9
11420	11419	11430	6959	9
11420	11419	11418	11423	9
11420	11419	11418	11426	9
11420	11421	11428	11429	9
11420	11421	11428	4249	9
11420	11421	11422	11423	9
11420	11421	11422	11425	9
11418	11419	11430	11431	9
11418	11419	11430	6959	9
11418	11419	11420	11424	9
11418	11423	11422	11425	9
11422	11421	11428	11429	9
11422	11421	11428	4249	9
11422	11421	11420	11424	9
11422	11423	11418	11426	9
11426	11418	11423	11427	9
11425	11422	11423	11427	9
11431	11430	6959	6949	9
11431	11430	6959	6961	9
11429	11428	4249	4242	9
11429	11428	4249	4251	9
13325	13324	13323	13334	9
13328	13324	13323	13334	9
13327	13322	13323	13334	9
13330	13322	13323	13334	9
13334	8345	8335	8338	9
13334	8345	8335	8334	9
13323	13324	13325	13332	9
13328	13324	13325	13332	9
13327	13326	13325	13332	9
13329	13326	13325	13332	9
491	492	494	13332	9
493	492	494	13332	9
13323	13334	8345	8335	9
13323	13334	8345	8347	9
13323	13324	13325	13326	9
13323	13322	13327	13326	9
13323	13322	13327	13331	9
492	494	13332	13325	9
495	494	13332	13325	9
13322	13323	13324	13325	9
13322	13327	13326	13325	9
13325	13326	13327	13331	9
13324	13323	13334	13335	9
13324	13323	13334	8345	9
13324	13323	13322	13327	9
13324	13323	13322	13330	9
13324	13325	13332	13333	9
494	13332	13325	13324	9
13324	13325	13326	13327	9
13324	13325	13326	13329	9
13322	13323	13334	13335	9
13322	13323	13334	8345	9
13322	13323	13324	13328	9
13322	13327	13326	13329	9
13326	13325	13332	13333	9
494	13332	13325	13326	9
13326	13325	13324	13328	9
13326	13327	13322	13330	9
13330	13322	13327	13331	9
13329	13326	13327	13331	9
13335	13334	8345	8335	9
13335	13334	8345	8347	9
492	494	13332	13333	9
495	494	13332	13333	9
4764	4763	4762	4773	9
4767	4763	4762	4773	9
4766	4761	4762	4773	9
4769	4761	4762	4773	9
2223	2222	2228	4773	9
2225	2222	2228	4773	9
4762	4763	4764	4771	9
4767	4763	4764	4771	9
4766	4765	4764	4771	9
4768	4765	4764	4771	9
4771	4781	4775	4778	9
4771	4781	4775	4776	9
2222	2228	4773	4762	9
2229	2228	4773	4762	9
4762	4763	4764	4765	9
4762	4761	4766	4765	9
4762	4761	4766	4770	9
4764	4771	4781	4775	9
4764	4771	4781	4782	9
4761	4762	4763	4764	9
4761	4766	4765	4764	9
4764	4765	4766	4770	9
4763	4762	4773	4774	9
2228	4773	4762	4763	9
4763	4762	4761	4766	9
4763	4762	4761	4769	9
4763	4764	4771	4772	9
4763	4764	4771	4781	9
4763	4764	4765	4766	9
4763	4764	4765	4768	9
4761	4762	4773	4774	9
2228	4773	4762	4761	9
4761	4762	4763	4767	9
4761	4766	4765	4768	9
4765	4764	4771	4772	9
4765	4764	4771	4781	9
4765	4764	4763	4767	9
4765	4766	4761	4769	9
4769	4761	4766	4770	9
4768	4765	4766	4770	9
2222	2228	4773	4774	9
2229	2228	4773	4774	9
4772	4771	4781	4775	9
4772	4771	4781	4782	9
182	181	180	191	9
185	181	180	191	9
184	179	180	191	9
187	179	180	191	9
167	168	170	191	9
169	168	170	191	9
180	181	182	189	9
185	181	182	189	9
184	183	182	189	9
186	183	182	189	9
189	6289	6279	6282	9
189	6289	6279	6278	9
168	170	191	180	9
171	170	191	180	9
180	181	182	183	9
180	179	184	183	9
180	179	184	188	9
182	189	6289	6279	9
182	189	6289	6291	9
179	180	181	182	9
179	184	183	182	9
182	183	184	188	9
181	180	191	192	9
170	191	180	181	9
181	180	179	184	9
181	180	179	187	9
181	182	189	190	9
181	182	189	6289	9
181	182	183	184	9
181	182	183	186	9
179	180	191	192	9
170	191	180	179	9
179	180	181	185	9
179	184	183	186	9
183	182	189	190	9
183	182	189	6289	9
183	182	181	185	9
183	184	179	187	9
187	179	184	188	9
186	183	184	188	9
168	170	191	192	9
171	170	191	192	9
190	189	6289	6279	9
190	189	6289	6291	9
5404	5403	5402	5413	9
5407	5403	5402	5413	9
5406	5401	5402	5413	9
5409	5401	5402	5413	9
5413	5421	5415	5418	9
5413	5421	5415	5416	9
5402	5403	5404	5411	9
5407	5403	5404	5411	9
5406	5405	5404	5411	9
5408	5405	5404	5411	9
5411	9688	9678	9677	9
5411	9688	9678	9681	9
5402	5413	5421	5415	9
5402	5413	5421	5422	9
5402	5403	5404	5405	9
5402	5401	5406	5405	9
5402	5401	5406	5410	9
5404	5411	9688	9678	9
5404	5411	9688	9690	9
5401	5402	5403	5404	9
5401	5406	5405	5404	9
5404	5405	5406	5410	9
5403	5402	5413	5414	9
5403	5402	5413	5421	9
5403	5402	5401	5406	9
5403	5402	5401	5409	9
5403	5404	5411	5412	9
5403	5404	5411	9688	9
5403	5404	5405	5406	9
5403	5404	5405	5408	9
5401	5402	5413	5414	9
5401	5402	5413	5421	9
5401	5402	5403	5407	9
5401	5406	5405	5408	9
5405	5404	5411	5412	9
5405	5404	5411	9688	9
5405	5404	5403	5407	9
5405	5406	5401	5409	9
5409	5401	5406	5410	9
5408	5405	5406	5410	9
5414	5413	5421	5415	9
5414	5413	5421	5422	9
5412	5411	9688	9678	9
5412	5411	9688	9690	9
6163	6162	6161	6172	9
6166	6162	6161	6172	9
6165	6160	6161	6172	9
6168	6160	6161	6172	9
6172	10972	10965	10964	9
6172	10972	10965	10966	9
6161	6162	6163	6170	9
6166	6162	6163	6170	9
6165	6164	6163	6170	9
6167	6164	6163	6170	9
6170	6180	6174	6175	9
6170	6180	6174	6177	9
6161	6172	10972	10965	9
6161	6172	10972	10974	9
6161	6162	6163	6164	9
6161	6160	6165	6164	9
6161	6160	6165	6169	9
6163	6170	6180	6174	9
6163	6170	6180	6181	9
6160	6161	6162	6163	9
6160	6165	6164	6163	9
6163	6164	6165	6169	9
6162	6161	6172	6173	9
6162	6161	6172	10972	9
6162	6161	6160	6165	9
6162	6161	6160	6168	9
6162	6163	6170	6171	9
6162	6163	6170	6180	9
6162	6163	6164	6165	9
6162	6163	6164	6167	9
6160	6161	6172	6173	9
6160	6161	6172	10972	9
6160	6161	6162	6166	9
6160	6165	6164	6167	9
6164	6163	6170	6171	9
6164	6163	6170	6180	9
6164	6163	6162	6166	9
6164	6165	6160	6168	9
6168	6160	6165	6169	9
6167	6164	6165	6169	9
6173	6172	10972	10965	9
6173	6172	10972	10974	9
6171	6170	6180	6174	9
6171	6170	6180	6181	9
2666	2665	2664	2675	9
2669	2665	2664	2675	9
2668	2663	2664	2675	9
2671	2663	2664	2675	9
2664	2665	2666	2673	9
2669	2665	2666	2673	9
2668	2667	2666	2673	9
2670	2667	2666	2673	9
2673	4497	4487	4490	9
2673	4497	4487	4486	9
2664	2665	2666	2667	9
2664	2663	2668	2667	9
2664	2663	2668	2672	9
2666	2673	4497	4487	9
2666	2673	4497	4499	9
2663	2664	2665	2666	9
2663	2668	2667	2666	9
2666	2667	2668	2672	9
2665	2664	2675	2677	9
2665	2664	2675	2676	9
2665	2664	2663	2668	9
2665	2664	2663	2671	9
2665	2666	2673	2674	9
2665	2666	2673	4497	9
2665	2666	2667	2668	9
2665	2666	2667	2670	9
2663	2664	2675	2677	9
2663	2664	2675	2676	9
2663	2664	2665	2669	9
2663	2668	2667	2670	9
2667	2666	2673	2674	9
2667	2666	2673	4497	9
2667	2666	2665	2669	9
2667	2668	2663	2671	9
2671	2663	2668	2672	9
2670	2667	2668	2672	9
2674	2673	4497	4487	9
2674	2673	4497	4499	9
12667	12666	12665	12676	9
12670	12666	12665	12676	9
12669	12664	12665	12676	9
12672	12664	12665	12676	9
12676	6550	6543	6544	9
12676	6550	6543	6542	9
12665	12666	12667	12674	9
12670	12666	12667	12674	9
12669	12668	12667	12674	9
12671	12668	12667	12674	9
12674	8124	8114	8117	9
12674	8124	8114	8113	9
12665	12676	6550	6543	9
12665	12676	6550	6552	9
12665	12666	12667	12668	9
12665	12664	12669	12668	9
12665	12664	12669	12673	9
12667	12674	8124	8114	9
12667	12674	8124	8126	9
12664	12665	12666	12667	9
12664	12669	12668	12667	9
12667	12668	12669	12673	9
12666	12665	12676	12677	9
12666	12665	12676	6550	9
12666	12665	12664	12669	9
12666	12665	12664	12672	9
12666	12667	12674	12675	9
12666	12667	12674	8124	9
12666	12667	12668	12669	9
12666	12667	12668	12671	9
12664	12665	12676	12677	9
12664	12665	12676	6550	9
12664	12665	12666	12670	9
12664	12669	12668	12671	9
12668	12667	12674	12675	9
12668	12667	12674	8124	9
12668	12667	12666	12670	9
12668	12669	12664	12672	9
12672	12664	12669	12673	9
12671	12668	12669	12673	9
12677	12676	6550	6543	9
12677	12676	6550	6552	9
12675	12674	8124	8114	9
12675	12674	8124	8126	9
3731	3730	3729	3740	9
3734	3730	3729	3740	9
3733	3728	3729	3740	9
3736	3728	3729	3740	9
3729	3730	3731	3738	9
3734	3730	3731	3738	9
3733	3732	3731	3738	9
3735	3732	3731	3738	9
2046	2045	2047	3738	9
2044	2045	2047	3738	9
3729	3730	3731	3732	9
3729	3728	3733	3732	9
3729	3728	3733	3737	9
2045	2047	3738	3731	9
2048	2047	3738	3731	9
3728	3729	3730	3731	9
3728	3733	3732	3731	9
3731	3732	3733	3737	9
3730	3729	3740	3741	9
3730	3729	3740	3742	9
3730	3729	3728	3733	9
3730	3729	3728	3736	9
3730	3731	3738	3739	9
2047	3738	3731	3730	9
3730	3731	3732	3733	9
3730	3731	3732	3735	9
3728	3729	3740	3741	9
3728	3729	3740	3742	9
3728	3729	3730	3734	9
3728	3733	3732	3735	9
3732	3731	3738	3739	9
2047	3738	3731	3732	9
3732	3731	3730	3734	9
3732	3733	3728	3736	9
3736	3728	3733	3737	9
3735	3732	3733	3737	9
2045	2047	3738	3739	9
2048	2047	3738	3739	9
13241	13240	13239	13250	9
13244	13240	13239	13250	9
13243	13238	13239	13250	9
13246	13238	13239	13250	9
13250	8211	8204	8203	9
13250	8211	8204	8205	9
13239	13240	13241	13248	9
13244	13240	13241	13248	9
13243	13242	13241	13248	9
13245	13242	13241	13248	9
1847	1846	1853	13248	9
1845	1846	1853	13248	9
13239	13250	8211	8204	9
13239	13250	8211	8213	9
13239	13240	13241	13242	9
13239	13238	13243	13242	9
13239	13238	13243	13247	9
1846	1853	13248	13241	9
1855	1853	13248	13241	9
13238	13239	13240	13241	9
13238	13243	13242	13241	9
13241	13242	13243	13247	9
13240	13239	13250	13251	9
13240	13239	13250	8211	9
13240	13239	13238	13243	9
13240	13239	13238	13246	9
13240	13241	13248	13249	9
1853	13248	13241	13240	9
13240	13241	13242	13243	9
13240	13241	13242	13245	9
13238	13239	13250	13251	9
13238	13239	13250	8211	9
13238	13239	13240	13244	9
13238	13243	13242	13245	9
13242	13241	13248	13249	9
1853	13248	13241	13242	9
13242	13241	13240	13244	9
13242	13243	13238	13246	9
13246	13238	13243	13247	9
13245	13242	13243	13247	9
13251	13250	8211	8204	9
13251	13250	8211	8213	9
1846	1853	13248	13249	9
1855	1853	13248	13249	9
2724	2725	2726	2733	9
2729	2725	2726	2733	9
2728	2727	2726	2733	9
2730	2727	2726	2733	9
2733	5063	5056	5057	9
2733	5063	5056	5055	9
2726	2725	2724	2735	9
2729	2725	2724	2735	9
2728	2723	2724	2735	9
2731	2723	2724	2735	9
2726	2733	5063	5056	9
2726	2733	5063	5065	9
2723	2724	2725	2726	9
2723	2728	2727	2726	9
2726	2727	2728	2732	9
2724	2725	2726	2727	9
2724	2723	2728	2727	9
2724	2723	2728	2732	9
2725	2726	2733	2734	9
2725	2726	2733	5063	9
2725	2726	2727	2728	9
2725	2726	2727	2730	9
2725	2724	2735	2736	9
2725	2724	2735	2737	9
2725	2724	2723	2728	9
2725	2724	2723	2731	9
2727	2726	2733	2734	9
2727	2726	2733	5063	9
2727	2726	2725	2729	9
2727	2728	2723	2731	9
2723	2724	2735	2736	9
2723	2724	2735	2737	9
2723	2724	2725	2729	9
2723	2728	2727	2730	9
2730	2727	2728	2732	9
2731	2723	2728	2732	9
2734	2733	5063	5056	9
2734	2733	5063	5065	9
9665	9664	9663	9674	9
9668	9664	9663	9674	9
9667	9662	9663	9674	9
9670	9662	9663	9674	9
9674	10196	10189	10190	9
9674	10196	10189	10188	9
9663	9664	9665	9672	9
9668	9664	9665	9672	9
9667	9666	9665	9672	9
9669	9666	9665	9672	9
9672	9682	9676	9677	9
9672	9682	9676	9679	9
9663	9674	10196	10189	9
9663	9674	10196	10198	9
9663	9664	9665	9666	9
9663	9662	9667	9666	9
9663	9662	9667	9671	9
9665	9672	9682	9676	9
9665	9672	9682	9683	9
9662	9663	9664	9665	9
9662	9667	9666	9665	9
9665	9666	9667	9671	9
9664	9663	9674	9675	9
9664	9663	9674	10196	9
9664	9663	9662	9667	9
9664	9663	9662	9670	9
9664	9665	9672	9673	9
9664	9665	9672	9682	9
9664	9665	9666	9667	9
9664	9665	9666	9669	9
9662	9663	9674	9675	9
9662	9663	9674	10196	9
9662	9663	9664	9668	9
9662	9667	9666	9669	9
9666	9665	9672	9673	9
9666	9665	9672	9682	9
9666	9665	9664	9668	9
9666	9667	9662	9670	9
9670	9662	9667	9671	9
9669	9666	9667	9671	9
9675	9674	10196	10189	9
9675	9674	10196	10198	9
9673	9672	9682	9676	9
9673	9672	9682	9683	9
12245	12246	12247	12254	9
12250	12246	12247	12254	9
12249	12248	12247	12254	9
12251	12248	12247	12254	9
12254	5762	5755	5756	9
12254	5762	5755	5754	9
12247	12246	12245	12256	9
12250	12246	12245	12256	9
12249	12244	12245	12256	9
12252	12244	12245	12256	9
12256	7221	7211	7210	9
12256	7221	7211	7214	9
12247	12254	5762	5755	9
12247	12254	5762	5764	9
12247	12246	12245	12244	9
12247	12248	12249	12244	9
12247	12248	12249	12253	9
12245	12256	7221	7211	9
12245	12256	7221	7223	9
12248	12247	12246	12245	9
12248	12249	12244	12245	9
12245	12244	12249	12253	9
12246	12247	12254	12255	9
12246	12247	12254	5762	9
12246	12247	12248	12249	9
12246	12247	12248	12251	9
12246	12245	12256	12257	9
12246	12245	12256	7221	9
12246	12245	12244	12249	9
12246	12245	12244	12252	9
12248	12247	12254	12255	9
12248	12247	12254	5762	9
12248	12247	12246	12250	9
12248	12249	12244	12252	9
12244	12245	12256	12257	9
12244	12245	12256	7221	9
12244	12245	12246	12250	9
12244	12249	12248	12251	9
12251	12248	12249	12253	9
12252	12244	12249	12253	9
12255	12254	5762	5755	9
12255	12254	5762	5764	9
12257	12256	7221	7211	9
12257	12256	7221	7223	9
13059	13058	13057	13068	9
13062	13058	13057	13068	9
13061	13056	13057	13068	9
13064	13056	13057	13068	9
13068	9244	9238	9241	9
13068	9244	9238	9239	9
13057	13058	13059	13066	9
13062	13058	13059	13066	9
13061	13060	13059	13066	9
13063	13060	13059	13066	9
13066	7759	7752	7753	9
13066	7759	7752	7751	9
13057	13068	9244	9238	9
13057	13068	9244	9245	9
13057	13058	13059	13060	9
13057	13056	13061	13060	9
13057	13056	13061	13065	9
13059	13066	7759	7752	9
13059	13066	7759	7761	9
13056	13057	13058	13059	9
13056	13061	13060	13059	9
13059	13060	13061	13065	9
13058	13057	13068	13069	9
13058	13057	13068	9244	9
13058	13057	13056	13061	9
13058	13057	13056	13064	9
13058	13059	13066	13067	9
13058	13059	13066	7759	9
13058	13059	13060	13061	9
13058	13059	13060	13063	9
13056	13057	13068	13069	9
13056	13057	13068	9244	9
13056	13057	13058	13062	9
13056	13061	13060	13063	9
13060	13059	13066	13067	9
13060	13059	13066	7759	9
13060	13059	13058	13062	9
13060	13061	13056	13064	9
13064	13056	13061	13065	9
13063	13060	13061	13065	9
13069	13068	9244	9238	9
13069	13068	9244	9245	9
13067	13066	7759	7752	9
13067	13066	7759	7761	9
6426	6425	6424	6435	9
6429	6425	6424	6435	9
6428	6423	6424	6435	9
6431	6423	6424	6435	9
6435	4439	4429	4432	9
6435	4439	4429	4428	9
6424	6425	6426	6433	9
6429	6425	6426	6433	9
6428	6427	6426	6433	9
6430	6427	6426	6433	9
6433	6443	6437	6438	9
6433	6443	6437	6440	9
6424	6435	4439	4429	9
6424	6435	4439	4441	9
6424	6425	6426	6427	9
6424	6423	6428	6427	9
6424	6423	6428	6432	9
6426	6433	6443	6437	9
6426	6433	6443	6444	9
6423	6424	6425	6426	9
6423	6428	6427	6426	9
6426	6427	6428	6432	9
6425	6424	6435	6436	9
6425	6424	6435	4439	9
6425	6424	6423	6428	9
6425	6424	6423	6431	9
6425	6426	6433	6434	9
6425	6426	6433	6443	9
6425	6426	6427	6428	9
6425	6426	6427	6430	9
6423	6424	6435	6436	9
6423	6424	6435	4439	9
6423	6424	6425	6429	9
6423	6428	6427	6430	9
6427	6426	6433	6434	9
6427	6426	6433	6443	9
6427	6426	6425	6429	9
6427	6428	6423	6431	9
6431	6423	6428	6432	9
6430	6427	6428	6432	9
6436	6435	4439	4429	9
6436	6435	4439	4441	9
6434	6433	6443	6437	9
6434	6433	6443	6444	9
6761	6760	6759	6770	9
6764	6760	6759	6770	9
6763	6758	6759	6770	9
6766	6758	6759	6770	9
6770	10241	10231	10234	9
6770	10241	10231	10230	9
6759	6760	6761	6768	9
6764	6760	6761	6768	9
6763	6762	6761	6768	9
6765	6762	6761	6768	9
6768	6778	6772	6773	9
6768	6778	6772	6775	9
6759	6770	10241	10231	9
6759	6770	10241	10243	9
6759	6760	6761	6762	9
6759	6758	6763	6762	9
6759	6758	6763	6767	9
6761	6768	6778	6772	9
6761	6768	6778	6779	9
6758	6759	6760	6761	9
6758	6763	6762	6761	9
6761	6762	6763	6767	9
6760	6759	6770	6771	9
6760	6759	6770	10241	9
6760	6759	6758	6763	9
6760	6759	6758	6766	9
6760	6761	6768	6769	9
6760	6761	6768	6778	9
6760	6761	6762	6763	9
6760	6761	6762	6765	9
6758	6759	6770	6771	9
6758	6759	6770	10241	9
6758	6759	6760	6764	9
6758	6763	6762	6765	9
6762	6761	6768	6769	9
6762	6761	6768	6778	9
6762	6761	6760	6764	9
6762	6763	6758	6766	9
6766	6758	6763	6767	9
6765	6762	6763	6767	9
6771	6770	10241	10231	9
6771	6770	10241	10243	9
6769	6768	6778	6772	9
6769	6768	6778	6779	9
2784	2785	2786	2793	9
2789	2785	2786	2793	9
2788	2787	2786	2793	9
2790	2787	2786	2793	9
2793	5436	5430	5431	9
2793	5436	5430	5433	9
2786	2785	2784	2795	9
2789	2785	2784	2795	9
2788	2783	2784	2795	9
2791	2783	2784	2795	9
2786	2793	5436	5430	9
2786	2793	5436	5437	9
2783	2784	2785	2786	9
2783	2788	2787	2786	9
2786	2787	2788	2792	9
2784	2785	2786	2787	9
2784	2783	2788	2787	9
2784	2783	2788	2792	9
2785	2786	2793	2794	9
2785	2786	2793	5436	9
2785	2786	2787	2788	9
2785	2786	2787	2790	9
2785	2784	2795	2797	9
2785	2784	2795	2796	9
2785	2784	2783	2788	9
2785	2784	2783	2791	9
2787	2786	2793	2794	9
2787	2786	2793	5436	9
2787	2786	2785	2789	9
2787	2788	2783	2791	9
2783	2784	2795	2797	9
2783	2784	2795	2796	9
2783	2784	2785	2789	9
2783	2788	2787	2790	9
2790	2787	2788	2792	9
2791	2783	2788	2792	9
2794	2793	5436	5430	9
2794	2793	5436	5437	9
1601	1600	1599	1610	9
1604	1600	1599	1610	9
1603	1598	1599	1610	9
1606	1598	1599	1610	9
1610	6361	6354	6353	9
1610	6361	6354	6355	9
1599	1600	1601	1608	9
1604	1600	1601	1608	9
1603	1602	1601	1608	9
1605	1602	1601	1608	9
1615	1614	1612	1608	9
1619	1614	1612	1608	9
1599	1610	6361	6354	9
1599	1610	6361	6363	9
1599	1600	1601	1602	9
1599	1598	1603	1602	9
1599	1598	1603	1607	9
1614	1612	1608	1601	9
1613	1612	1608	1601	9
1598	1599	1600	1601	9
1598	1603	1602	1601	9
1601	1602	1603	1607	9
1600	1599	1610	1611	9
1600	1599	1610	6361	9
1600	1599	1598	1603	9
1600	1599	1598	1606	9
1600	1601	1608	1609	9
1612	1608	1601	1600	9
1600	1601	1602	1603	9
1600	1601	1602	1605	9
1598	1599	1610	1611	9
1598	1599	1610	6361	9
1598	1599	1600	1604	9
1598	1603	1602	1605	9
1602	1601	1608	1609	9
1612	1608	1601	1602	9
1602	1601	1600	1604	9
1602	1603	1598	1606	9
1606	1598	1603	1607	9
1605	1602	1603	1607	9
1611	1610	6361	6354	9
1611	1610	6361	6363	9
1614	1612	1608	1609	9
1613	1612	1608	1609	9
7285	7284	7283	7294	9
7288	7284	7283	7294	9
7287	7282	7283	7294	9
7290	7282	7283	7294	9
7294	7302	7296	7297	9
7294	7302	7296	7299	9
7283	7284	7285	7292	9
7288	7284	7285	7292	9
7287	7286	7285	7292	9
7289	7286	7285	7292	9
7292	8694	8687	8686	9
7292	8694	8687	8688	9
7283	7294	7302	7296	9
7283	7294	7302	7303	9
7283	7284	7285	7286	9
7283	7282	7287	7286	9
7283	7282	7287	7291	9
7285	7292	8694	8687	9
7285	7292	8694	8696	9
7282	7283	7284	7285	9
7282	7287	7286	7285	9
7285	7286	7287	7291	9
7284	7283	7294	7295	9
7284	7283	7294	7302	9
7284	7283	7282	7287	9
7284	7283	7282	7290	9
7284	7285	7292	7293	9
7284	7285	7292	8694	9
7284	7285	7286	7287	9
7284	7285	7286	7289	9
7282	7283	7294	7295	9
7282	7283	7294	7302	9
7282	7283	7284	7288	9
7282	7287	7286	7289	9
7286	7285	7292	7293	9
7286	7285	7292	8694	9
7286	7285	7284	7288	9
7286	7287	7282	7290	9
7290	7282	7287	7291	9
7289	7286	7287	7291	9
7295	7294	7302	7296	9
7295	7294	7302	7303	9
7293	7292	8694	8687	9
7293	7292	8694	8696	9
12471	12470	12469	12480	9
12474	12470	12469	12480	9
12473	12468	12469	12480	9
12476	12468	12469	12480	9
12480	10489	10482	10483	9
12480	10489	10482	10481	9
12469	12470	12471	12478	9
12474	12470	12471	12478	9
12473	12472	12471	12478	9
12475	12472	12471	12478	9
12478	6157	6147	6146	9
12478	6157	6147	6150	9
12469	12480	10489	10482	9
12469	12480	10489	10491	9
12469	12470	12471	12472	9
12469	12468	12473	12472	9
12469	12468	12473	12477	9
12471	12478	6157	6147	9
12471	12478	6157	6159	9
12468	12469	12470	12471	9
12468	12473	12472	12471	9
12471	12472	12473	12477	9
12470	12469	12480	12481	9
12470	12469	12480	10489	9
12470	12469	12468	12473	9
12470	12469	12468	12476	9
12470	12471	12478	12479	9
12470	12471	12478	6157	9
12470	12471	12472	12473	9
12470	12471	12472	12475	9
12468	12469	12480	12481	9
12468	12469	12480	10489	9
12468	12469	12470	12474	9
12468	12473	12472	12475	9
12472	12471	12478	12479	9
12472	12471	12478	6157	9
12472	12471	12470	12474	9
12472	12473	12468	12476	9
12476	12468	12473	12477	9
12475	12472	12473	12477	9
12481	12480	10489	10482	9
12481	12480	10489	10491	9
12479	12478	6157	6147	9
12479	12478	6157	6159	9
1129	1130	1131	1138	9
1134	1130	1131	1138	9
1133	1132	1131	1138	9
1135	1132	1131	1138	9
1112	1111	1117	1138	9
1114	1111	1117	1138	9
1131	1130	1129	1140	9
1134	1130	1129	1140	9
1133	1128	1129	1140	9
1136	1128	1129	1140	9
1140	6710	6703	6704	9
1140	6710	6703	6702	9
1111	1117	1138	1131	9
1118	1117	1138	1131	9
1128	1129	1130	1131	9
1128	1133	1132	1131	9
1131	1132	1133	1137	9
1129	1140	6710	6703	9
1129	1140	6710	6712	9
1129	1130	1131	1132	9
1129	1128	1133	1132	9
1129	1128	1133	1137	9
1130	1131	1138	1139	9
1117	1138	1131	1130	9
1130	1131	1132	1133	9
1130	1131	1132	1135	9
1130	1129	1140	1141	9
1130	1129	1140	6710	9
1130	1129	1128	1133	9
1130	1129	1128	1136	9
1132	1131	1138	1139	9
1117	1138	1131	1132	9
1132	1131	1130	1134	9
1132	1133	1128	1136	9
1128	1129	1140	1141	9
1128	1129	1140	6710	9
1128	1129	1130	1134	9
1128	1133	1132	1135	9
1135	1132	1133	1137	9
1136	1128	1133	1137	9
1111	1117	1138	1139	9
1118	1117	1138	1139	9
1141	1140	6710	6703	9
1141	1140	6710	6712	9
11267	11266	11265	11276	9
11270	11266	11265	11276	9
11269	11264	11265	11276	9
11272	11264	11265	11276	9
11276	4032	4022	4021	9
11276	4032	4022	4025	9
11265	11266	11267	11274	9
11270	11266	11267	11274	9
11269	11268	11267	11274	9
11271	11268	11267	11274	9
11274	6783	6776	6777	9
11274	6783	6776	6775	9
11265	11276	4032	4022	9
11265	11276	4032	4034	9
11265	11266	11267	11268	9
11265	11264	11269	11268	9
11265	11264	11269	11273	9
11267	11274	6783	6776	9
11267	11274	6783	6785	9
11264	11265	11266	11267	9
11264	11269	11268	11267	9
11267	11268	11269	11273	9
11266	11265	11276	11277	9
11266	11265	11276	4032	9
11266	11265	11264	11269	9
11266	11265	11264	11272	9
11266	11267	11274	11275	9
11266	11267	11274	6783	9
11266	11267	11268	11269	9
11266	11267	11268	11271	9
11264	11265	11276	11277	9
11264	11265	11276	4032	9
11264	11265	11266	11270	9
11264	11269	11268	11271	9
11268	11267	11274	11275	9
11268	11267	11274	6783	9
11268	11267	11266	11270	9
11268	11269	11264	11272	9
11272	11264	11269	11273	9
11271	11268	11269	11273	9
11277	11276	4032	4022	9
11277	11276	4032	4034	9
11275	11274	6783	6776	9
11275	11274	6783	6785	9
1022	1021	1020	1031	9
1025	1021	1020	1031	9
1024	1019	1020	1031	9
1027	1019	1020	1031	9
1040	1035	1033	1031	9
1036	1035	1033	1031	9
1020	1021	1022	1029	9
1025	1021	1022	1029	9
1024	1023	1022	1029	9
1026	1023	1022	1029	9
1145	1144	1142	1029	9
1149	1144	1142	1029	9
1035	1033	1031	1020	9
1034	1033	1031	1020	9
1020	1021	1022	1023	9
1020	1019	1024	1023	9
1020	1019	1024	1028	9
1144	1142	1029	1022	9
1143	1142	1029	1022	9
1019	1020	1021	1022	9
1019	1024	1023	1022	9
1022	1023	1024	1028	9
1021	1020	1031	1032	9
1033	1031	1020	1021	9
1021	1020	1019	1024	9
1021	1020	1019	1027	9
1021	1022	1029	1030	9
1142	1029	1022	1021	9
1021	1022	1023	1024	9
1021	1022	1023	1026	9
1019	1020	1031	1032	9
1033	1031	1020	1019	9
1019	1020	1021	1025	9
1019	1024	1023	1026	9
1023	1022	1029	1030	9
1142	1029	1022	1023	9
1023	1022	1021	1025	9
1023	1024	1019	1027	9
1027	1019	1024	1028	9
1026	1023	1024	1028	9
1035	1033	1031	1032	9
1034	1033	1031	1032	9
1144	1142	1029	1030	9
1143	1142	1029	1030	9
13157	13156	13155	13166	9
13160	13156	13155	13166	9
13159	13154	13155	13166	9
13162	13154	13155	13166	9
13166	8520	8510	8509	9
13166	8520	8510	8513	9
13155	13156	13157	13164	9
13160	13156	13157	13164	9
13159	13158	13157	13164	9
13161	13158	13157	13164	9
13164	8094	8087	8088	9
13164	8094	8087	8086	9
13155	13166	8520	8510	9
13155	13166	8520	8522	9
13155	13156	13157	13158	9
13155	13154	13159	13158	9
13155	13154	13159	13163	9
13157	13164	8094	8087	9
13157	13164	8094	8096	9
13154	13155	13156	13157	9
13154	13159	13158	13157	9
13157	13158	13159	13163	9
13156	13155	13166	13167	9
13156	13155	13166	8520	9
13156	13155	13154	13159	9
13156	13155	13154	13162	9
13156	13157	13164	13165	9
13156	13157	13164	8094	9
13156	13157	13158	13159	9
13156	13157	13158	13161	9
13154	13155	13166	13167	9
13154	13155	13166	8520	9
13154	13155	13156	13160	9
13154	13159	13158	13161	9
13158	13157	13164	13165	9
13158	13157	13164	8094	9
13158	13157	13156	13160	9
13158	13159	13154	13162	9
13162	13154	13159	13163	9
13161	13158	13159	13163	9
13167	13166	8520	8510	9
13167	13166	8520	8522	9
13165	13164	8094	8087	9
13165	13164	8094	8096	9
8246	8247	8248	8255	9
8251	8247	8248	8255	9
8250	8249	8248	8255	9
8252	8249	8248	8255	9
8255	8265	8259	8260	9
8255	8265	8259	8262	9
8248	8247	8246	8257	9
8251	8247	8246	8257	9
8250	8245	8246	8257	9
8253	8245	8246	8257	9
8257	11041	11035	11036	9
8257	11041	11035	11038	9
8248	8255	8265	8259	9
8248	8255	8265	8266	9
8248	8247	8246	8245	9
8248	8249	8250	8245	9
8248	8249	8250	8254	9
8246	8257	11041	11035	9
8246	8257	11041	11042	9
8249	8248	8247	8246	9
8249	8250	8245	8246	9
8246	8245	8250	8254	9
8247	8248	8255	8256	9
8247	8248	8255	8265	9
8247	8248	8249	8250	9
8247	8248	8249	8252	9
8247	8246	8257	8258	9
8247	8246	8257	11041	9
8247	8246	8245	8250	9
8247	8246	8245	8253	9
8249	8248	8255	8256	9
8249	8248	8255	8265	9
8249	8248	8247	8251	9
8249	8250	8245	8253	9
8245	8246	8257	8258	9
8245	8246	8257	11041	9
8245	8246	8247	8251	9
8245	8250	8249	8252	9
8252	8249	8250	8254	9
8253	8245	8250	8254	9
8256	8255	8265	8259	9
8256	8255	8265	8266	9
8258	8257	11041	11035	9
8258	8257	11041	11042	9
9314	9313	9312	9323	9
9317	9313	9312	9323	9
9316	9311	9312	9323	9
9319	9311	9312	9323	9
9323	9331	9325	9326	9
9323	9331	9325	9328	9
9312	9313	9314	9321	9
9317	9313	9314	9321	9
9316	9315	9314	9321	9
9318	9315	9314	9321	9
9321	9134	9124	9127	9
9321	9134	9124	9123	9
9312	9323	9331	9325	9
9312	9323	9331	9332	9
9312	9313	9314	9315	9
9312	9311	9316	9315	9
9312	9311	9316	9320	9
9314	9321	9134	9124	9
9314	9321	9134	9136	9
9311	9312	9313	9314	9
9311	9316	9315	9314	9
9314	9315	9316	9320	9
9313	9312	9323	9324	9
9313	9312	9323	9331	9
9313	9312	9311	9316	9
9313	9312	9311	9319	9
9313	9314	9321	9322	9
9313	9314	9321	9134	9
9313	9314	9315	9316	9
9313	9314	9315	9318	9
9311	9312	9323	9324	9
9311	9312	9323	9331	9
9311	9312	9313	9317	9
9311	9316	9315	9318	9
9315	9314	9321	9322	9
9315	9314	9321	9134	9
9315	9314	9313	9317	9
9315	9316	9311	9319	9
9319	9311	9316	9320	9
9318	9315	9316	9320	9
9324	9323	9331	9325	9
9324	9323	9331	9332	9
9322	9321	9134	9124	9
9322	9321	9134	9136	9
5842	5841	5840	5851	9
5845	5841	5840	5851	9
5844	5839	5840	5851	9
5847	5839	5840	5851	9
5851	8227	8217	8216	9
5851	8227	8217	8220	9
5840	5841	5842	5849	9
5845	5841	5842	5849	9
5844	5843	5842	5849	9
5846	5843	5842	5849	9
5849	5859	5853	5854	9
5849	5859	5853	5856	9
5840	5851	8227	8217	9
5840	5851	8227	8229	9
5840	5841	5842	5843	9
5840	5839	5844	5843	9
5840	5839	5844	5848	9
5842	5849	5859	5853	9
5842	5849	5859	5860	9
5839	5840	5841	5842	9
5839	5844	5843	5842	9
5842	5843	5844	5848	9
5841	5840	5851	5852	9
5841	5840	5851	8227	9
5841	5840	5839	5844	9
5841	5840	5839	5847	9
5841	5842	5849	5850	9
5841	5842	5849	5859	9
5841	5842	5843	5844	9
5841	5842	5843	5846	9
5839	5840	5851	5852	9
5839	5840	5851	8227	9
5839	5840	5841	5845	9
5839	5844	5843	5846	9
5843	5842	5849	5850	9
5843	5842	5849	5859	9
5843	5842	5841	5845	9
5843	5844	5839	5847	9
5847	5839	5844	5848	9
5846	5843	5844	5848	9
5852	5851	8227	8217	9
5852	5851	8227	8229	9
5850	5849	5859	5853	9
5850	5849	5859	5860	9
2846	2845	2844	2855	9
2849	2845	2844	2855	9
2848	2843	2844	2855	9
2851	2843	2844	2855	9
2844	2845	2846	2853	9
2849	2845	2846	2853	9
2848	2847	2846	2853	9
2850	2847	2846	2853	9
2853	5733	5726	5725	9
2853	5733	5726	5727	9
2844	2845	2846	2847	9
2844	2843	2848	2847	9
2844	2843	2848	2852	9
2846	2853	5733	5726	9
2846	2853	5733	5735	9
2843	2844	2845	2846	9
2843	2848	2847	2846	9
2846	2847	2848	2852	9
2845	2844	2855	2856	9
2845	2844	2855	2857	9
2845	2844	2843	2848	9
2845	2844	2843	2851	9
2845	2846	2853	2854	9
2845	2846	2853	5733	9
2845	2846	2847	2848	9
2845	2846	2847	2850	9
2843	2844	2855	2856	9
2843	2844	2855	2857	9
2843	2844	2845	2849	9
2843	2848	2847	2850	9
2847	2846	2853	2854	9
2847	2846	2853	5733	9
2847	2846	2845	2849	9
2847	2848	2843	2851	9
2851	2843	2848	2852	9
2850	2847	2848	2852	9
2854	2853	5733	5726	9
2854	2853	5733	5735	9
4837	4836	4835	4846	9
4840	4836	4835	4846	9
4839	4834	4835	4846	9
4842	4834	4835	4846	9
4846	4854	4848	4849	9
4846	4854	4848	4851	9
4835	4836	4837	4844	9
4840	4836	4837	4844	9
4839	4838	4837	4844	9
4841	4838	4837	4844	9
4844	10298	10291	10292	9
4844	10298	10291	10290	9
4835	4846	4854	4848	9
4835	4846	4854	4855	9
4835	4836	4837	4838	9
4835	4834	4839	4838	9
4835	4834	4839	4843	9
4837	4844	10298	10291	9
4837	4844	10298	10300	9
4834	4835	4836	4837	9
4834	4839	4838	4837	9
4837	4838	4839	4843	9
4836	4835	4846	4847	9
4836	4835	4846	4854	9
4836	4835	4834	4839	9
4836	4835	4834	4842	9
4836	4837	4844	4845	9
4836	4837	4844	10298	9
4836	4837	4838	4839	9
4836	4837	4838	4841	9
4834	4835	4846	4847	9
4834	4835	4846	4854	9
4834	4835	4836	4840	9
4834	4839	4838	4841	9
4838	4837	4844	4845	9
4838	4837	4844	10298	9
4838	4837	4836	4840	9
4838	4839	4834	4842	9
4842	4834	4839	4843	9
4841	4838	4839	4843	9
4847	4846	4854	4848	9
4847	4846	4854	4855	9
4845	4844	10298	10291	9
4845	4844	10298	10300	9
7007	7008	7009	7016	9
7012	7008	7009	7016	9
7011	7010	7009	7016	9
7013	7010	7009	7016	9
7016	6420	6410	6413	9
7016	6420	6410	6409	9
7009	7008	7007	7018	9
7012	7008	7007	7018	9
7011	7006	7007	7018	9
7014	7006	7007	7018	9
7018	7026	7020	7021	9
7018	7026	7020	7023	9
7009	7016	6420	6410	9
7009	7016	6420	6422	9
7009	7008	7007	7006	9
7009	7010	7011	7006	9
7009	7010	7011	7015	9
7007	7018	7026	7020	9
7007	7018	7026	7027	9
7010	7009	7008	7007	9
7010	7011	7006	7007	9
7007	7006	7011	7015	9
7008	7009	7016	7017	9
7008	7009	7016	6420	9
7008	7009	7010	7011	9
7008	7009	7010	7013	9
7008	7007	7018	7019	9
7008	7007	7018	7026	9
7008	7007	7006	7011	9
7008	7007	7006	7014	9
7010	7009	7016	7017	9
7010	7009	7016	6420	9
7010	7009	7008	7012	9
7010	7011	7006	7014	9
7006	7007	7018	7019	9
7006	7007	7018	7026	9
7006	7007	7008	7012	9
7006	7011	7010	7013	9
7013	7010	7011	7015	9
7014	7006	7011	7015	9
7017	7016	6420	6410	9
7017	7016	6420	6422	9
7019	7018	7026	7020	9
7019	7018	7026	7027	9
12485	12484	12483	12494	9
12488	12484	12483	12494	9
12487	12482	12483	12494	9
12490	12482	12483	12494	9
12494	6185	6178	6179	9
12494	6185	6178	6177	9
12483	12484	12485	12492	9
12488	12484	12485	12492	9
12487	12486	12485	12492	9
12489	12486	12485	12492	9
12492	9760	9753	9752	9
12492	9760	9753	9754	9
12483	12494	6185	6178	9
12483	12494	6185	6187	9
12483	12484	12485	12486	9
12483	12482	12487	12486	9
12483	12482	12487	12491	9
12485	12492	9760	9753	9
12485	12492	9760	9762	9
12482	12483	12484	12485	9
12482	12487	12486	12485	9
12485	12486	12487	12491	9
12484	12483	12494	12495	9
12484	12483	12494	6185	9
12484	12483	12482	12487	9
12484	12483	12482	12490	9
12484	12485	12492	12493	9
12484	12485	12492	9760	9
12484	12485	12486	12487	9
12484	12485	12486	12489	9
12482	12483	12494	12495	9
12482	12483	12494	6185	9
12482	12483	12484	12488	9
12482	12487	12486	12489	9
12486	12485	12492	12493	9
12486	12485	12492	9760	9
12486	12485	12484	12488	9
12486	12487	12482	12490	9
12490	12482	12487	12491	9
12489	12486	12487	12491	9
12495	12494	6185	6178	9
12495	12494	6185	6187	9
12493	12492	9760	9753	9
12493	12492	9760	9762	9
9169	9168	9167	9178	9
9172	9168	9167	9178	9
9171	9166	9167	9178	9
9174	9166	9167	9178	9
9178	9186	9180	9183	9
9178	9186	9180	9181	9
9167	9168	9169	9176	9
9172	9168	9169	9176	9
9171	9170	9169	9176	9
9173	9170	9169	9176	9
9176	10549	10539	10538	9
9176	10549	10539	10542	9
9167	9178	9186	9180	9
9167	9178	9186	9187	9
9167	9168	9169	9170	9
9167	9166	9171	9170	9
9167	9166	9171	9175	9
9169	9176	10549	10539	9
9169	9176	10549	10551	9
9166	9167	9168	9169	9
9166	9171	9170	9169	9
9169	9170	9171	9175	9
9168	9167	9178	9179	9
9168	9167	9178	9186	9
9168	9167	9166	9171	9
9168	9167	9166	9174	9
9168	9169	9176	9177	9
9168	9169	9176	10549	9
9168	9169	9170	9171	9
9168	9169	9170	9173	9
9166	9167	9178	9179	9
9166	9167	9178	9186	9
9166	9167	9168	9172	9
9166	9171	9170	9173	9
9170	9169	9176	9177	9
9170	9169	9176	10549	9
9170	9169	9168	9172	9
9170	9171	9166	9174	9
9174	9166	9171	9175	9
9173	9170	9171	9175	9
9179	9178	9186	9180	9
9179	9178	9186	9187	9
9177	9176	10549	10539	9
9177	9176	10549	10551	9
7650	7649	7648	7659	9
7653	7649	7648	7659	9
7652	7647	7648	7659	9
7655	7647	7648	7659	9
7659	7667	7661	7664	9
7659	7667	7661	7662	9
7648	7649	7650	7657	9
7653	7649	7650	7657	9
7652	7651	7650	7657	9
7654	7651	7650	7657	9
7657	10514	10508	10509	9
7657	10514	10508	10511	9
7648	7659	7667	7661	9
7648	7659	7667	7668	9
7648	7649	7650	7651	9
7648	7647	7652	7651	9
7648	7647	7652	7656	9
7650	7657	10514	10508	9
7650	7657	10514	10515	9
7647	7648	7649	7650	9
7647	7652	7651	7650	9
7650	7651	7652	7656	9
7649	7648	7659	7660	9
7649	7648	7659	7667	9
7649	7648	7647	7652	9
7649	7648	7647	7655	9
7649	7650	7657	7658	9
7649	7650	7657	10514	9
7649	7650	7651	7652	9
7649	7650	7651	7654	9
7647	7648	7659	7660	9
7647	7648	7659	7667	9
7647	7648	7649	7653	9
7647	7652	7651	7654	9
7651	7650	7657	7658	9
7651	7650	7657	10514	9
7651	7650	7649	7653	9
7651	7652	7647	7655	9
7655	7647	7652	7656	9
7654	7651	7652	7656	9
7660	7659	7667	7661	9
7660	7659	7667	7668	9
7658	7657	10514	10508	9
7658	7657	10514	10515	9
3414	3415	3416	3423	9
3419	3415	3416	3423	9
3418	3417	3416	3423	9
3420	3417	3416	3423	9
3423	9512	9502	9501	9
3423	9512	9502	9505	9
3416	3415	3414	3425	9
3419	3415	3414	3425	9
3418	3413	3414	3425	9
3421	3413	3414	3425	9
3416	3423	9512	9502	9
3416	3423	9512	9514	9
3413	3414	3415	3416	9
3413	3418	3417	3416	9
3416	3417	3418	3422	9
3414	3415	3416	3417	9
3414	3413	3418	3417	9
3414	3413	3418	3422	9
3415	3416	3423	3424	9
3415	3416	3423	9512	9
3415	3416	3417	3418	9
3415	3416	3417	3420	9
3415	3414	3425	3427	9
3415	3414	3425	3426	9
3415	3414	3413	3418	9
3415	3414	3413	3421	9
3417	3416	3423	3424	9
3417	3416	3423	9512	9
3417	3416	3415	3419	9
3417	3418	3413	3421	9
3413	3414	3425	3427	9
3413	3414	3425	3426	9
3413	3414	3415	3419	9
3413	3418	3417	3420	9
3420	3417	3418	3422	9
3421	3413	3418	3422	9
3424	3423	9512	9502	9
3424	3423	9512	9514	9
11813	11812	11811	11822	9
11816	11812	11811	11822	9
11815	11810	11811	11822	9
11818	11810	11811	11822	9
11822	6886	6876	6875	9
11822	6886	6876	6879	9
11811	11812	11813	11820	9
11816	11812	11813	11820	9
11815	11814	11813	11820	9
11817	11814	11813	11820	9
11820	4947	4937	4936	9
11820	4947	4937	4940	9
11811	11822	6886	6876	9
11811	11822	6886	6888	9
11811	11812	11813	11814	9
11811	11810	11815	11814	9
11811	11810	11815	11819	9
11813	11820	4947	4937	9
11813	11820	4947	4949	9
11810	11811	11812	11813	9
11810	11815	11814	11813	9
11813	11814	11815	11819	9
11812	11811	11822	11823	9
11812	11811	11822	6886	9
11812	11811	11810	11815	9
11812	11811	11810	11818	9
11812	11813	11820	11821	9
11812	11813	11820	4947	9
11812	11813	11814	11815	9
11812	11813	11814	11817	9
11810	11811	11822	11823	9
11810	11811	11822	6886	9
11810	11811	11812	11816	9
11810	11815	11814	11817	9
11814	11813	11820	11821	9
11814	11813	11820	4947	9
11814	11813	11812	11816	9
11814	11815	11810	11818	9
11818	11810	11815	11819	9
11817	11814	11815	11819	9
11823	11822	6886	6876	9
11823	11822	6886	6888	9
11821	11820	4947	4937	9
11821	11820	4947	4949	9
3714	3715	3716	3723	9
3719	3715	3716	3723	9
3718	3717	3716	3723	9
3720	3717	3716	3723	9
3723	11134	11127	11126	9
3723	11134	11127	11128	9
3716	3715	3714	3725	9
3719	3715	3714	3725	9
3718	3713	3714	3725	9
3721	3713	3714	3725	9
3716	3723	11134	11127	9
3716	3723	11134	11136	9
3713	3714	3715	3716	9
3713	3718	3717	3716	9
3716	3717	3718	3722	9
3714	3715	3716	3717	9
3714	3713	3718	3717	9
3714	3713	3718	3722	9
3715	3716	3723	3724	9
3715	3716	3723	11134	9
3715	3716	3717	3718	9
3715	3716	3717	3720	9
3715	3714	3725	3727	9
3715	3714	3725	3726	9
3715	3714	3713	3718	9
3715	3714	3713	3721	9
3717	3716	3723	3724	9
3717	3716	3723	11134	9
3717	3716	3715	3719	9
3717	3718	3713	3721	9
3713	3714	3725	3727	9
3713	3714	3725	3726	9
3713	3714	3715	3719	9
3713	3718	3717	3720	9
3720	3717	3718	3722	9
3721	3713	3718	3722	9
3724	3723	11134	11127	9
3724	3723	11134	11136	9
3446	3445	3444	3455	9
3449	3445	3444	3455	9
3448	3443	3444	3455	9
3451	3443	3444	3455	9
3444	3445	3446	3453	9
3449	3445	3446	3453	9
3448	3447	3446	3453	9
3450	3447	3446	3453	9
3453	9556	9546	9545	9
3453	9556	9546	9549	9
3444	3445	3446	3447	9
3444	3443	3448	3447	9
3444	3443	3448	3452	9
3446	3453	9556	9546	9
3446	3453	9556	9558	9
3443	3444	3445	3446	9
3443	3448	3447	3446	9
3446	3447	3448	3452	9
3445	3444	3455	3456	9
3445	3444	3455	3457	9
3445	3444	3443	3448	9
3445	3444	3443	3451	9
3445	3446	3453	3454	9
3445	3446	3453	9556	9
3445	3446	3447	3448	9
3445	3446	3447	3450	9
3443	3444	3455	3456	9
3443	3444	3455	3457	9
3443	3444	3445	3449	9
3443	3448	3447	3450	9
3447	3446	3453	3454	9
3447	3446	3453	9556	9
3447	3446	3445	3449	9
3447	3448	3443	3451	9
3451	3443	3448	3452	9
3450	3447	3448	3452	9
3454	3453	9556	9546	9
3454	3453	9556	9558	9
2193	2194	2195	2202	9
2198	2194	2195	2202	9
2197	2196	2195	2202	9
2199	2196	2195	2202	9
2209	2208	2206	2202	9
2213	2208	2206	2202	9
2195	2194	2193	2204	9
2198	2194	2193	2204	9
2197	2192	2193	2204	9
2200	2192	2193	2204	9
2204	9521	9515	9516	9
2204	9521	9515	9518	9
2208	2206	2202	2195	9
2207	2206	2202	2195	9
2192	2193	2194	2195	9
2192	2197	2196	2195	9
2195	2196	2197	2201	9
2193	2204	9521	9515	9
2193	2204	9521	9522	9
2193	2194	2195	2196	9
2193	2192	2197	2196	9
2193	2192	2197	2201	9
2194	2195	2202	2203	9
2206	2202	2195	2194	9
2194	2195	2196	2197	9
2194	2195	2196	2199	9
2194	2193	2204	2205	9
2194	2193	2204	9521	9
2194	2193	2192	2197	9
2194	2193	2192	2200	9
2196	2195	2202	2203	9
2206	2202	2195	2196	9
2196	2195	2194	2198	9
2196	2197	2192	2200	9
2192	2193	2204	2205	9
2192	2193	2204	9521	9
2192	2193	2194	2198	9
2192	2197	2196	2199	9
2199	2196	2197	2201	9
2200	2192	2197	2201	9
2208	2206	2202	2203	9
2207	2206	2202	2203	9
2205	2204	9521	9515	9
2205	2204	9521	9522	9
3835	3834	3833	3844	9
3838	3834	3833	3844	9
3837	3832	3833	3844	9
3840	3832	3833	3844	9
3844	7463	7457	7458	9
3844	7463	7457	7460	9
3833	3834	3835	3842	9
3838	3834	3835	3842	9
3837	3836	3835	3842	9
3839	3836	3835	3842	9
3842	3852	3846	3849	9
3842	3852	3846	3847	9
3833	3844	7463	7457	9
3833	3844	7463	7464	9
3833	3834	3835	3836	9
3833	3832	3837	3836	9
3833	3832	3837	3841	9
3835	3842	3852	3846	9
3835	3842	3852	3853	9
3832	3833	3834	3835	9
3832	3837	3836	3835	9
3835	3836	3837	3841	9
3834	3833	3844	3845	9
3834	3833	3844	7463	9
3834	3833	3832	3837	9
3834	3833	3832	3840	9
3834	3835	3842	3843	9
3834	3835	3842	3852	9
3834	3835	3836	3837	9
3834	3835	3836	3839	9
3832	3833	3844	3845	9
3832	3833	3844	7463	9
3832	3833	3834	3838	9
3832	3837	3836	3839	9
3836	3835	3842	3843	9
3836	3835	3842	3852	9
3836	3835	3834	3838	9
3836	3837	3832	3840	9
3840	3832	3837	3841	9
3839	3836	3837	3841	9
3845	3844	7463	7457	9
3845	3844	7463	7464	9
3843	3842	3852	3846	9
3843	3842	3852	3853	9
12415	12414	12413	12424	9
12418	12414	12413	12424	9
12417	12412	12413	12424	9
12420	12412	12413	12424	9
12424	6419	6412	6411	9
12424	6419	6412	6413	9
12413	12414	12415	12422	9
12418	12414	12415	12422	9
12417	12416	12415	12422	9
12419	12416	12415	12422	9
12422	5982	5975	5974	9
12422	5982	5975	5976	9
12413	12424	6419	6412	9
12413	12424	6419	6421	9
12413	12414	12415	12416	9
12413	12412	12417	12416	9
12413	12412	12417	12421	9
12415	12422	5982	5975	9
12415	12422	5982	5984	9
12412	12413	12414	12415	9
12412	12417	12416	12415	9
12415	12416	12417	12421	9
12414	12413	12424	12425	9
12414	12413	12424	6419	9
12414	12413	12412	12417	9
12414	12413	12412	12420	9
12414	12415	12422	12423	9
12414	12415	12422	5982	9
12414	12415	12416	12417	9
12414	12415	12416	12419	9
12412	12413	12424	12425	9
12412	12413	12424	6419	9
12412	12413	12414	12418	9
12412	12417	12416	12419	9
12416	12415	12422	12423	9
12416	12415	12422	5982	9
12416	12415	12414	12418	9
12416	12417	12412	12420	9
12420	12412	12417	12421	9
12419	12416	12417	12421	9
12425	12424	6419	6412	9
12425	12424	6419	6421	9
12423	12422	5982	5975	9
12423	12422	5982	5984	9
8468	8467	8466	8477	9
8471	8467	8466	8477	9
8470	8465	8466	8477	9
8473	8465	8466	8477	9
8477	9404	9398	9401	9
8477	9404	9398	9399	9
8466	8467	8468	8475	9
8471	8467	8468	8475	9
8470	8469	8468	8475	9
8472	8469	8468	8475	9
8475	8485	8479	8480	9
8475	8485	8479	8482	9
8466	8477	9404	9398	9
8466	8477	9404	9405	9
8466	8467	8468	8469	9
8466	8465	8470	8469	9
8466	8465	8470	8474	9
8468	8475	8485	8479	9
8468	8475	8485	8486	9
8465	8466	8467	8468	9
8465	8470	8469	8468	9
8468	8469	8470	8474	9
8467	8466	8477	8478	9
8467	8466	8477	9404	9
8467	8466	8465	8470	9
8467	8466	8465	8473	9
8467	8468	8475	8476	9
8467	8468	8475	8485	9
8467	8468	8469	8470	9
8467	8468	8469	8472	9
8465	8466	8477	8478	9
8465	8466	8477	9404	9
8465	8466	8467	8471	9
8465	8470	8469	8472	9
8469	8468	8475	8476	9
8469	8468	8475	8485	9
8469	8468	8467	8471	9
8469	8470	8465	8473	9
8473	8465	8470	8474	9
8472	8469	8470	8474	9
8478	8477	9404	9398	9
8478	8477	9404	9405	9
8476	8475	8485	8479	9
8476	8475	8485	8486	9
11715	11714	11713	11724	9
11718	11714	11713	11724	9
11717	11712	11713	11724	9
11720	11712	11713	11724	9
11724	4786	4779	4778	9
11724	4786	4779	4780	9
11713	11714	11715	11722	9
11718	11714	11715	11722	9
11717	11716	11715	11722	9
11719	11716	11715	11722	9
11722	10548	10541	10542	9
11722	10548	10541	10540	9
11713	11724	4786	4779	9
11713	11724	4786	4788	9
11713	11714	11715	11716	9
11713	11712	11717	11716	9
11713	11712	11717	11721	9
11715	11722	10548	10541	9
11715	11722	10548	10550	9
11712	11713	11714	11715	9
11712	11717	11716	11715	9
11715	11716	11717	11721	9
11714	11713	11724	11725	9
11714	11713	11724	4786	9
11714	11713	11712	11717	9
11714	11713	11712	11720	9
11714	11715	11722	11723	9
11714	11715	11722	10548	9
11714	11715	11716	11717	9
11714	11715	11716	11719	9
11712	11713	11724	11725	9
11712	11713	11724	4786	9
11712	11713	11714	11718	9
11712	11717	11716	11719	9
11716	11715	11722	11723	9
11716	11715	11722	10548	9
11716	11715	11714	11718	9
11716	11717	11712	11720	9
11720	11712	11717	11721	9
11719	11716	11717	11721	9
11725	11724	4786	4779	9
11725	11724	4786	4788	9
11723	11722	10548	10541	9
11723	11722	10548	10550	9
13395	13394	13393	13404	9
13398	13394	13393	13404	9
13397	13392	13393	13404	9
13400	13392	13393	13404	9
13404	8637	8627	8626	9
13404	8637	8627	8630	9
13393	13394	13395	13402	9
13398	13394	13395	13402	9
13397	13396	13395	13402	9
13399	13396	13395	13402	9
13402	10440	10434	10435	9
13402	10440	10434	10437	9
13393	13404	8637	8627	9
13393	13404	8637	8639	9
13393	13394	13395	13396	9
13393	13392	13397	13396	9
13393	13392	13397	13401	9
13395	13402	10440	10434	9
13395	13402	10440	10441	9
13392	13393	13394	13395	9
13392	13397	13396	13395	9
13395	13396	13397	13401	9
13394	13393	13404	13405	9
13394	13393	13404	8637	9
13394	13393	13392	13397	9
13394	13393	13392	13400	9
13394	13395	13402	13403	9
13394	13395	13402	10440	9
13394	13395	13396	13397	9
13394	13395	13396	13399	9
13392	13393	13404	13405	9
13392	13393	13404	8637	9
13392	13393	13394	13398	9
13392	13397	13396	13399	9
13396	13395	13402	13403	9
13396	13395	13402	10440	9
13396	13395	13394	13398	9
13396	13397	13392	13400	9
13400	13392	13397	13401	9
13399	13396	13397	13401	9
13405	13404	8637	8627	9
13405	13404	8637	8639	9
13403	13402	10440	10434	9
13403	13402	10440	10441	9
3069	3070	3071	3078	9
3074	3070	3071	3078	9
3073	3072	3071	3078	9
3075	3072	3071	3078	9
3078	7789	7779	7778	9
3078	7789	7779	7782	9
3071	3070	3069	3080	9
3074	3070	3069	3080	9
3073	3068	3069	3080	9
3076	3068	3069	3080	9
3071	3078	7789	7779	9
3071	3078	7789	7791	9
3068	3069	3070	3071	9
3068	3073	3072	3071	9
3071	3072	3073	3077	9
3069	3070	3071	3072	9
3069	3068	3073	3072	9
3069	3068	3073	3077	9
3070	3071	3078	3079	9
3070	3071	3078	7789	9
3070	3071	3072	3073	9
3070	3071	3072	3075	9
3070	3069	3080	3081	9
3070	3069	3080	3082	9
3070	3069	3068	3073	9
3070	3069	3068	3076	9
3072	3071	3078	3079	9
3072	3071	3078	7789	9
3072	3071	3070	3074	9
3072	3073	3068	3076	9
3068	3069	3080	3081	9
3068	3069	3080	3082	9
3068	3069	3070	3074	9
3068	3073	3072	3075	9
3075	3072	3073	3077	9
3076	3068	3073	3077	9
3079	3078	7789	7779	9
3079	3078	7789	7791	9
3581	3580	3579	3590	9
3584	3580	3579	3590	9
3583	3578	3579	3590	9
3586	3578	3579	3590	9
3579	3580	3581	3588	9
3584	3580	3581	3588	9
3583	3582	3581	3588	9
3585	3582	3581	3588	9
3588	10752	10745	10744	9
3588	10752	10745	10746	9
3579	3580	3581	3582	9
3579	3578	3583	3582	9
3579	3578	3583	3587	9
3581	3588	10752	10745	9
3581	3588	10752	10754	9
3578	3579	3580	3581	9
3578	3583	3582	3581	9
3581	3582	3583	3587	9
3580	3579	3590	3592	9
3580	3579	3590	3591	9
3580	3579	3578	3583	9
3580	3579	3578	3586	9
3580	3581	3588	3589	9
3580	3581	3588	10752	9
3580	3581	3582	3583	9
3580	3581	3582	3585	9
3578	3579	3590	3592	9
3578	3579	3590	3591	9
3578	3579	3580	3584	9
3578	3583	3582	3585	9
3582	3581	3588	3589	9
3582	3581	3588	10752	9
3582	3581	3580	3584	9
3582	3583	3578	3586	9
3586	3578	3583	3587	9
3585	3582	3583	3587	9
3589	3588	10752	10745	9
3589	3588	10752	10754	9
12023	12022	12021	12032	9
12026	12022	12021	12032	9
12025	12020	12021	12032	9
12028	12020	12021	12032	9
12032	7788	7781	7782	9
12032	7788	7781	7780	9
12021	12022	12023	12030	9
12026	12022	12023	12030	9
12025	12024	12023	12030	9
12027	12024	12023	12030	9
12030	5442	5432	5431	9
12030	5442	5432	5435	9
12021	12032	7788	7781	9
12021	12032	7788	7790	9
12021	12022	12023	12024	9
12021	12020	12025	12024	9
12021	12020	12025	12029	9
12023	12030	5442	5432	9
12023	12030	5442	5444	9
12020	12021	12022	12023	9
12020	12025	12024	12023	9
12023	12024	12025	12029	9
12022	12021	12032	12033	9
12022	12021	12032	7788	9
12022	12021	12020	12025	9
12022	12021	12020	12028	9
12022	12023	12030	12031	9
12022	12023	12030	5442	9
12022	12023	12024	12025	9
12022	12023	12024	12027	9
12020	12021	12032	12033	9
12020	12021	12032	7788	9
12020	12021	12022	12026	9
12020	12025	12024	12027	9
12024	12023	12030	12031	9
12024	12023	12030	5442	9
12024	12023	12022	12026	9
12024	12025	12020	12028	9
12028	12020	12025	12029	9
12027	12024	12025	12029	9
12033	12032	7788	7781	9
12033	12032	7788	7790	9
12031	12030	5442	5432	9
12031	12030	5442	5444	9
13127	13128	13129	13136	9
13132	13128	13129	13136	9
13131	13130	13129	13136	9
13133	13130	13129	13136	9
13136	8593	8583	8586	9
13136	8593	8583	8582	9
13129	13128	13127	13138	9
13132	13128	13127	13138	9
13131	13126	13127	13138	9
13134	13126	13127	13138	9
13138	7949	7939	7938	9
13138	7949	7939	7942	9
13129	13136	8593	8583	9
13129	13136	8593	8595	9
13126	13127	13128	13129	9
13126	13131	13130	13129	9
13129	13130	13131	13135	9
13127	13138	7949	7939	9
13127	13138	7949	7951	9
13127	13128	13129	13130	9
13127	13126	13131	13130	9
13127	13126	13131	13135	9
13128	13129	13136	13137	9
13128	13129	13136	8593	9
13128	13129	13130	13131	9
13128	13129	13130	13133	9
13128	13127	13138	13139	9
13128	13127	13138	7949	9
13128	13127	13126	13131	9
13128	13127	13126	13134	9
13130	13129	13136	13137	9
13130	13129	13136	8593	9
13130	13129	13128	13132	9
13130	13131	13126	13134	9
13126	13127	13138	13139	9
13126	13127	13138	7949	9
13126	13127	13128	13132	9
13126	13131	13130	13133	9
13133	13130	13131	13135	9
13134	13126	13131	13135	9
13137	13136	8593	8583	9
13137	13136	8593	8595	9
13139	13138	7949	7939	9
13139	13138	7949	7951	9
6018	6017	6016	6027	9
6021	6017	6016	6027	9
6020	6015	6016	6027	9
6023	6015	6016	6027	9
6027	6035	6029	6032	9
6027	6035	6029	6030	9
6016	6017	6018	6025	9
6021	6017	6018	6025	9
6020	6019	6018	6025	9
6022	6019	6018	6025	9
6025	6283	6277	6280	9
6025	6283	6277	6278	9
6016	6027	6035	6029	9
6016	6027	6035	6036	9
6016	6017	6018	6019	9
6016	6015	6020	6019	9
6016	6015	6020	6024	9
6018	6025	6283	6277	9
6018	6025	6283	6284	9
6015	6016	6017	6018	9
6015	6020	6019	6018	9
6018	6019	6020	6024	9
6017	6016	6027	6028	9
6017	6016	6027	6035	9
6017	6016	6015	6020	9
6017	6016	6015	6023	9
6017	6018	6025	6026	9
6017	6018	6025	6283	9
6017	6018	6019	6020	9
6017	6018	6019	6022	9
6015	6016	6027	6028	9
6015	6016	6027	6035	9
6015	6016	6017	6021	9
6015	6020	6019	6022	9
6019	6018	6025	6026	9
6019	6018	6025	6283	9
6019	6018	6017	6021	9
6019	6020	6015	6023	9
6023	6015	6020	6024	9
6022	6019	6020	6024	9
6028	6027	6035	6029	9
6028	6027	6035	6036	9
6026	6025	6283	6277	9
6026	6025	6283	6284	9
3504	3505	3506	3513	9
3509	3505	3506	3513	9
3508	3507	3506	3513	9
3510	3507	3506	3513	9
3513	9891	9884	9885	9
3513	9891	9884	9883	9
3506	3505	3504	3515	9
3509	3505	3504	3515	9
3508	3503	3504	3515	9
3511	3503	3504	3515	9
3506	3513	9891	9884	9
3506	3513	9891	9893	9
3503	3504	3505	3506	9
3503	3508	3507	3506	9
3506	3507	3508	3512	9
3504	3505	3506	3507	9
3504	3503	3508	3507	9
3504	3503	3508	3512	9
3505	3506	3513	3514	9
3505	3506	3513	9891	9
3505	3506	3507	3508	9
3505	3506	3507	3510	9
3505	3504	3515	3516	9
3505	3504	3515	3517	9
3505	3504	3503	3508	9
3505	3504	3503	3511	9
3507	3506	3513	3514	9
3507	3506	3513	9891	9
3507	3506	3505	3509	9
3507	3508	3503	3511	9
3503	3504	3515	3516	9
3503	3504	3515	3517	9
3503	3504	3505	3509	9
3503	3508	3507	3510	9
3510	3507	3508	3512	9
3511	3503	3508	3512	9
3514	3513	9891	9884	9
3514	3513	9891	9893	9
8395	8394	8393	8404	9
8398	8394	8393	8404	9
8397	8392	8393	8404	9
8400	8392	8393	8404	9
8404	8412	8406	8407	9
8404	8412	8406	8409	9
8393	8394	8395	8402	9
8398	8394	8395	8402	9
8397	8396	8395	8402	9
8399	8396	8395	8402	9
8402	5588	5578	5581	9
8402	5588	5578	5577	9
8393	8404	8412	8406	9
8393	8404	8412	8413	9
8393	8394	8395	8396	9
8393	8392	8397	8396	9
8393	8392	8397	8401	9
8395	8402	5588	5578	9
8395	8402	5588	5590	9
8392	8393	8394	8395	9
8392	8397	8396	8395	9
8395	8396	8397	8401	9
8394	8393	8404	8405	9
8394	8393	8404	8412	9
8394	8393	8392	8397	9
8394	8393	8392	8400	9
8394	8395	8402	8403	9
8394	8395	8402	5588	9
8394	8395	8396	8397	9
8394	8395	8396	8399	9
8392	8393	8404	8405	9
8392	8393	8404	8412	9
8392	8393	8394	8398	9
8392	8397	8396	8399	9
8396	8395	8402	8403	9
8396	8395	8402	5588	9
8396	8395	8394	8398	9
8396	8397	8392	8400	9
8400	8392	8397	8401	9
8399	8396	8397	8401	9
8405	8404	8412	8406	9
8405	8404	8412	8413	9
8403	8402	5588	5578	9
8403	8402	5588	5590	9
7429	7430	7431	7438	9
7434	7430	7431	7438	9
7433	7432	7431	7438	9
7435	7432	7431	7438	9
7438	8280	8274	8275	9
7438	8280	8274	8277	9
7431	7430	7429	7440	9
7434	7430	7429	7440	9
7433	7428	7429	7440	9
7436	7428	7429	7440	9
7440	7448	7442	7445	9
7440	7448	7442	7443	9
7431	7438	8280	8274	9
7431	7438	8280	8281	9
7431	7430	7429	7428	9
7431	7432	7433	7428	9
7431	7432	7433	7437	9
7429	7440	7448	7442	9
7429	7440	7448	7449	9
7432	7431	7430	7429	9
7432	7433	7428	7429	9
7429	7428	7433	7437	9
7430	7431	7438	7439	9
7430	7431	7438	8280	9
7430	7431	7432	7433	9
7430	7431	7432	7435	9
7430	7429	7440	7441	9
7430	7429	7440	7448	9
7430	7429	7428	7433	9
7430	7429	7428	7436	9
7432	7431	7438	7439	9
7432	7431	7438	8280	9
7432	7431	7430	7434	9
7432	7433	7428	7436	9
7428	7429	7440	7441	9
7428	7429	7440	7448	9
7428	7429	7430	7434	9
7428	7433	7432	7435	9
7435	7432	7433	7437	9
7436	7428	7433	7437	9
7439	7438	8280	8274	9
7439	7438	8280	8281	9
7441	7440	7448	7442	9
7441	7440	7448	7449	9
13225	13226	13227	13234	9
13230	13226	13227	13234	9
13229	13228	13227	13234	9
13231	13228	13227	13234	9
13234	10825	10818	10817	9
13234	10825	10818	10819	9
13227	13226	13225	13236	9
13230	13226	13225	13236	9
13229	13224	13225	13236	9
13232	13224	13225	13236	9
13236	8167	8160	8159	9
13236	8167	8160	8161	9
13227	13234	10825	10818	9
13227	13234	10825	10827	9
13224	13225	13226	13227	9
13224	13229	13228	13227	9
13227	13228	13229	13233	9
13225	13236	8167	8160	9
13225	13236	8167	8169	9
13225	13226	13227	13228	9
13225	13224	13229	13228	9
13225	13224	13229	13233	9
13226	13227	13234	13235	9
13226	13227	13234	10825	9
13226	13227	13228	13229	9
13226	13227	13228	13231	9
13226	13225	13236	13237	9
13226	13225	13236	8167	9
13226	13225	13224	13229	9
13226	13225	13224	13232	9
13228	13227	13234	13235	9
13228	13227	13234	10825	9
13228	13227	13226	13230	9
13228	13229	13224	13232	9
13224	13225	13236	13237	9
13224	13225	13236	8167	9
13224	13225	13226	13230	9
13224	13229	13228	13231	9
13231	13228	13229	13233	9
13232	13224	13229	13233	9
13235	13234	10825	10818	9
13235	13234	10825	10827	9
13237	13236	8167	8160	9
13237	13236	8167	8169	9
4561	4560	4559	4570	9
4564	4560	4559	4570	9
4563	4558	4559	4570	9
4566	4558	4559	4570	9
4570	4578	4572	4573	9
4570	4578	4572	4575	9
4559	4560	4561	4568	9
4564	4560	4561	4568	9
4563	4562	4561	4568	9
4565	4562	4561	4568	9
4568	6195	6189	6192	9
4568	6195	6189	6190	9
4559	4570	4578	4572	9
4559	4570	4578	4579	9
4559	4560	4561	4562	9
4559	4558	4563	4562	9
4559	4558	4563	4567	9
4561	4568	6195	6189	9
4561	4568	6195	6196	9
4558	4559	4560	4561	9
4558	4563	4562	4561	9
4561	4562	4563	4567	9
4560	4559	4570	4571	9
4560	4559	4570	4578	9
4560	4559	4558	4563	9
4560	4559	4558	4566	9
4560	4561	4568	4569	9
4560	4561	4568	6195	9
4560	4561	4562	4563	9
4560	4561	4562	4565	9
4558	4559	4570	4571	9
4558	4559	4570	4578	9
4558	4559	4560	4564	9
4558	4563	4562	4565	9
4562	4561	4568	4569	9
4562	4561	4568	6195	9
4562	4561	4560	4564	9
4562	4563	4558	4566	9
4566	4558	4563	4567	9
4565	4562	4563	4567	9
4571	4570	4578	4572	9
4571	4570	4578	4579	9
4569	4568	6195	6189	9
4569	4568	6195	6196	9
13701	13702	13703	13710	9
13706	13702	13703	13710	9
13705	13704	13703	13710	9
13707	13704	13703	13710	9
13710	11047	11037	11036	9
13710	11047	11037	11040	9
13703	13702	13701	13712	9
13706	13702	13701	13712	9
13705	13700	13701	13712	9
13708	13700	13701	13712	9
13712	10898	10891	10892	9
13712	10898	10891	10890	9
13703	13710	11047	11037	9
13703	13710	11047	11049	9
13700	13701	13702	13703	9
13700	13705	13704	13703	9
13703	13704	13705	13709	9
13701	13712	10898	10891	9
13701	13712	10898	10900	9
13701	13702	13703	13704	9
13701	13700	13705	13704	9
13701	13700	13705	13709	9
13702	13703	13710	13711	9
13702	13703	13710	11047	9
13702	13703	13704	13705	9
13702	13703	13704	13707	9
13702	13701	13712	13713	9
13702	13701	13712	10898	9
13702	13701	13700	13705	9
13702	13701	13700	13708	9
13704	13703	13710	13711	9
13704	13703	13710	11047	9
13704	13703	13702	13706	9
13704	13705	13700	13708	9
13700	13701	13712	13713	9
13700	13701	13712	10898	9
13700	13701	13702	13706	9
13700	13705	13704	13707	9
13707	13704	13705	13709	9
13708	13700	13705	13709	9
13711	13710	11047	11037	9
13711	13710	11047	11049	9
13713	13712	10898	10891	9
13713	13712	10898	10900	9
13213	13212	13211	13222	9
13216	13212	13211	13222	9
13215	13210	13211	13222	9
13218	13210	13211	13222	9
13222	10723	10716	10715	9
13222	10723	10716	10717	9
13211	13212	13213	13220	9
13216	13212	13213	13220	9
13215	13214	13213	13220	9
13217	13214	13213	13220	9
13220	8168	8158	8161	9
13220	8168	8158	8157	9
13211	13222	10723	10716	9
13211	13222	10723	10725	9
13211	13212	13213	13214	9
13211	13210	13215	13214	9
13211	13210	13215	13219	9
13213	13220	8168	8158	9
13213	13220	8168	8170	9
13210	13211	13212	13213	9
13210	13215	13214	13213	9
13213	13214	13215	13219	9
13212	13211	13222	13223	9
13212	13211	13222	10723	9
13212	13211	13210	13215	9
13212	13211	13210	13218	9
13212	13213	13220	13221	9
13212	13213	13220	8168	9
13212	13213	13214	13215	9
13212	13213	13214	13217	9
13210	13211	13222	13223	9
13210	13211	13222	10723	9
13210	13211	13212	13216	9
13210	13215	13214	13217	9
13214	13213	13220	13221	9
13214	13213	13220	8168	9
13214	13213	13212	13216	9
13214	13215	13210	13218	9
13218	13210	13215	13219	9
13217	13214	13215	13219	9
13223	13222	10723	10716	9
13223	13222	10723	10725	9
13221	13220	8168	8158	9
13221	13220	8168	8170	9
1998	1997	1996	2007	9
2001	1997	1996	2007	9
2000	1995	1996	2007	9
2003	1995	1996	2007	9
2014	2015	2017	2007	9
2016	2015	2017	2007	9
1996	1997	1998	2005	9
2001	1997	1998	2005	9
2000	1999	1998	2005	9
2002	1999	1998	2005	9
2005	10709	10699	10702	9
2005	10709	10699	10698	9
2015	2017	2007	1996	9
2018	2017	2007	1996	9
1996	1997	1998	1999	9
1996	1995	2000	1999	9
1996	1995	2000	2004	9
1998	2005	10709	10699	9
1998	2005	10709	10711	9
1995	1996	1997	1998	9
1995	2000	1999	1998	9
1998	1999	2000	2004	9
1997	1996	2007	2008	9
2017	2007	1996	1997	9
1997	1996	1995	2000	9
1997	1996	1995	2003	9
1997	1998	2005	2006	9
1997	1998	2005	10709	9
1997	1998	1999	2000	9
1997	1998	1999	2002	9
1995	1996	2007	2008	9
2017	2007	1996	1995	9
1995	1996	1997	2001	9
1995	2000	1999	2002	9
1999	1998	2005	2006	9
1999	1998	2005	10709	9
1999	1998	1997	2001	9
1999	2000	1995	2003	9
2003	1995	2000	2004	9
2002	1999	2000	2004	9
2015	2017	2007	2008	9
2018	2017	2007	2008	9
2006	2005	10709	10699	9
2006	2005	10709	10711	9
12007	12008	12009	12016	9
12012	12008	12009	12016	9
12011	12010	12009	12016	9
12013	12010	12009	12016	9
12016	5427	5417	5420	9
12016	5427	5417	5416	9
12009	12008	12007	12018	9
12012	12008	12007	12018	9
12011	12006	12007	12018	9
12014	12006	12007	12018	9
12018	10358	10348	10347	9
12018	10358	10348	10351	9
12009	12016	5427	5417	9
12009	12016	5427	5429	9
12009	12008	12007	12006	9
12009	12010	12011	12006	9
12009	12010	12011	12015	9
12007	12018	10358	10348	9
12007	12018	10358	10360	9
12010	12009	12008	12007	9
12010	12011	12006	12007	9
12007	12006	12011	12015	9
12008	12009	12016	12017	9
12008	12009	12016	5427	9
12008	12009	12010	12011	9
12008	12009	12010	12013	9
12008	12007	12018	12019	9
12008	12007	12018	10358	9
12008	12007	12006	12011	9
12008	12007	12006	12014	9
12010	12009	12016	12017	9
12010	12009	12016	5427	9
12010	12009	12008	12012	9
12010	12011	12006	12014	9
12006	12007	12018	12019	9
12006	12007	12018	10358	9
12006	12007	12008	12012	9
12006	12011	12010	12013	9
12013	12010	12011	12015	9
12014	12006	12011	12015	9
12017	12016	5427	5417	9
12017	12016	5427	5429	9
12019	12018	10358	10348	9
12019	12018	10358	10360	9
4445	4444	4443	4454	9
4448	4444	4443	4454	9
4447	4442	4443	4454	9
4450	4442	4443	4454	9
4454	8491	8481	8480	9
4454	8491	8481	8484	9
4443	4444	4445	4452	9
4448	4444	4445	4452	9
4447	4446	4445	4452	9
4449	4446	4445	4452	9
4452	4462	4456	4457	9
4452	4462	4456	4459	9
4443	4454	8491	8481	9
4443	4454	8491	8493	9
4443	4444	4445	4446	9
4443	4442	4447	4446	9
4443	4442	4447	4451	9
4445	4452	4462	4456	9
4445	4452	4462	4463	9
4442	4443	4444	4445	9
4442	4447	4446	4445	9
4445	4446	4447	4451	9
4444	4443	4454	4455	9
4444	4443	4454	8491	9
4444	4443	4442	4447	9
4444	4443	4442	4450	9
4444	4445	4452	4453	9
4444	4445	4452	4462	9
4444	4445	4446	4447	9
4444	4445	4446	4449	9
4442	4443	4454	4455	9
4442	4443	4454	8491	9
4442	4443	4444	4448	9
4442	4447	4446	4449	9
4446	4445	4452	4453	9
4446	4445	4452	4462	9
4446	4445	4444	4448	9
4446	4447	4442	4450	9
4450	4442	4447	4451	9
4449	4446	4447	4451	9
4455	4454	8491	8481	9
4455	4454	8491	8493	9
4453	4452	4462	4456	9
4453	4452	4462	4463	9
899	900	901	908	9
904	900	901	908	9
903	902	901	908	9
905	902	901	908	9
908	8177	8171	8172	9
908	8177	8171	8174	9
901	900	899	910	9
904	900	899	910	9
903	898	899	910	9
906	898	899	910	9
919	914	912	910	9
915	914	912	910	9
901	908	8177	8171	9
901	908	8177	8178	9
898	899	900	901	9
898	903	902	901	9
901	902	903	907	9
914	912	910	899	9
913	912	910	899	9
899	900	901	902	9
899	898	903	902	9
899	898	903	907	9
900	901	908	909	9
900	901	908	8177	9
900	901	902	903	9
900	901	902	905	9
900	899	910	911	9
912	910	899	900	9
900	899	898	903	9
900	899	898	906	9
902	901	908	909	9
902	901	908	8177	9
902	901	900	904	9
902	903	898	906	9
898	899	910	911	9
912	910	899	898	9
898	899	900	904	9
898	903	902	905	9
905	902	903	907	9
906	898	903	907	9
909	908	8177	8171	9
909	908	8177	8178	9
914	912	910	911	9
913	912	910	911	9
2876	2875	2874	2885	9
2879	2875	2874	2885	9
2878	2873	2874	2885	9
2881	2873	2874	2885	9
2874	2875	2876	2883	9
2879	2875	2876	2883	9
2878	2877	2876	2883	9
2880	2877	2876	2883	9
2883	5968	5958	5961	9
2883	5968	5958	5957	9
2874	2875	2876	2877	9
2874	2873	2878	2877	9
2874	2873	2878	2882	9
2876	2883	5968	5958	9
2876	2883	5968	5970	9
2873	2874	2875	2876	9
2873	2878	2877	2876	9
2876	2877	2878	2882	9
2875	2874	2885	2886	9
2875	2874	2885	2887	9
2875	2874	2873	2878	9
2875	2874	2873	2881	9
2875	2876	2883	2884	9
2875	2876	2883	5968	9
2875	2876	2877	2878	9
2875	2876	2877	2880	9
2873	2874	2885	2886	9
2873	2874	2885	2887	9
2873	2874	2875	2879	9
2873	2878	2877	2880	9
2877	2876	2883	2884	9
2877	2876	2883	5968	9
2877	2876	2875	2879	9
2877	2878	2873	2881	9
2881	2873	2878	2882	9
2880	2877	2878	2882	9
2884	2883	5968	5958	9
2884	2883	5968	5970	9
5945	5944	5943	5954	9
5948	5944	5943	5954	9
5947	5942	5943	5954	9
5950	5942	5943	5954	9
5954	5962	5956	5959	9
5954	5962	5956	5957	9
5943	5944	5945	5952	9
5948	5944	5945	5952	9
5947	5946	5945	5952	9
5949	5946	5945	5952	9
5952	6245	6235	6238	9
5952	6245	6235	6234	9
5943	5954	5962	5956	9
5943	5954	5962	5963	9
5943	5944	5945	5946	9
5943	5942	5947	5946	9
5943	5942	5947	5951	9
5945	5952	6245	6235	9
5945	5952	6245	6247	9
5942	5943	5944	5945	9
5942	5947	5946	5945	9
5945	5946	5947	5951	9
5944	5943	5954	5955	9
5944	5943	5954	5962	9
5944	5943	5942	5947	9
5944	5943	5942	5950	9
5944	5945	5952	5953	9
5944	5945	5952	6245	9
5944	5945	5946	5947	9
5944	5945	5946	5949	9
5942	5943	5954	5955	9
5942	5943	5954	5962	9
5942	5943	5944	5948	9
5942	5947	5946	5949	9
5946	5945	5952	5953	9
5946	5945	5952	6245	9
5946	5945	5944	5948	9
5946	5947	5942	5950	9
5950	5942	5947	5951	9
5949	5946	5947	5951	9
5955	5954	5962	5956	9
5955	5954	5962	5963	9
5953	5952	6245	6235	9
5953	5952	6245	6247	9
12835	12834	12833	12844	9
12838	12834	12833	12844	9
12837	12832	12833	12844	9
12840	12832	12833	12844	9
12844	7060	7053	7054	9
12844	7060	7053	7052	9
12833	12834	12835	12842	9
12838	12834	12835	12842	9
12837	12836	12835	12842	9
12839	12836	12835	12842	9
12842	10327	10320	10321	9
12842	10327	10320	10319	9
12833	12844	7060	7053	9
12833	12844	7060	7062	9
12833	12834	12835	12836	9
12833	12832	12837	12836	9
12833	12832	12837	12841	9
12835	12842	10327	10320	9
12835	12842	10327	10329	9
12832	12833	12834	12835	9
12832	12837	12836	12835	9
12835	12836	12837	12841	9
12834	12833	12844	12845	9
12834	12833	12844	7060	9
12834	12833	12832	12837	9
12834	12833	12832	12840	9
12834	12835	12842	12843	9
12834	12835	12842	10327	9
12834	12835	12836	12837	9
12834	12835	12836	12839	9
12832	12833	12844	12845	9
12832	12833	12844	7060	9
12832	12833	12834	12838	9
12832	12837	12836	12839	9
12836	12835	12842	12843	9
12836	12835	12842	10327	9
12836	12835	12834	12838	9
12836	12837	12832	12840	9
12840	12832	12837	12841	9
12839	12836	12837	12841	9
12845	12844	7060	7053	9
12845	12844	7060	7062	9
12843	12842	10327	10320	9
12843	12842	10327	10329	9
3624	3625	3626	3633	9
3629	3625	3626	3633	9
3628	3627	3626	3633	9
3630	3627	3626	3633	9
3633	10943	10933	10936	9
3633	10943	10933	10932	9
3626	3625	3624	3635	9
3629	3625	3624	3635	9
3628	3623	3624	3635	9
3631	3623	3624	3635	9
3626	3633	10943	10933	9
3626	3633	10943	10945	9
3623	3624	3625	3626	9
3623	3628	3627	3626	9
3626	3627	3628	3632	9
3624	3625	3626	3627	9
3624	3623	3628	3627	9
3624	3623	3628	3632	9
3625	3626	3633	3634	9
3625	3626	3633	10943	9
3625	3626	3627	3628	9
3625	3626	3627	3630	9
3625	3624	3635	3636	9
3625	3624	3635	3637	9
3625	3624	3623	3628	9
3625	3624	3623	3631	9
3627	3626	3633	3634	9
3627	3626	3633	10943	9
3627	3626	3625	3629	9
3627	3628	3623	3631	9
3623	3624	3635	3636	9
3623	3624	3635	3637	9
3623	3624	3625	3629	9
3623	3628	3627	3630	9
3630	3627	3628	3632	9
3631	3623	3628	3632	9
3634	3633	10943	10933	9
3634	3633	10943	10945	9
3669	3670	3671	3678	9
3674	3670	3671	3678	9
3673	3672	3671	3678	9
3675	3672	3671	3678	9
3678	10967	10961	10964	9
3678	10967	10961	10962	9
3671	3670	3669	3680	9
3674	3670	3669	3680	9
3673	3668	3669	3680	9
3676	3668	3669	3680	9
3671	3678	10967	10961	9
3671	3678	10967	10968	9
3668	3669	3670	3671	9
3668	3673	3672	3671	9
3671	3672	3673	3677	9
3669	3670	3671	3672	9
3669	3668	3673	3672	9
3669	3668	3673	3677	9
3670	3671	3678	3679	9
3670	3671	3678	10967	9
3670	3671	3672	3673	9
3670	3671	3672	3675	9
3670	3669	3680	3681	9
3670	3669	3680	3682	9
3670	3669	3668	3673	9
3670	3669	3668	3676	9
3672	3671	3678	3679	9
3672	3671	3678	10967	9
3672	3671	3670	3674	9
3672	3673	3668	3676	9
3668	3669	3680	3681	9
3668	3669	3680	3682	9
3668	3669	3670	3674	9
3668	3673	3672	3675	9
3675	3672	3673	3677	9
3676	3668	3673	3677	9
3679	3678	10967	10961	9
3679	3678	10967	10968	9
4356	4357	4358	4365	9
4361	4357	4358	4365	9
4360	4359	4358	4365	9
4362	4359	4358	4365	9
4365	4375	4369	4370	9
4365	4375	4369	4372	9
4358	4357	4356	4367	9
4361	4357	4356	4367	9
4360	4355	4356	4367	9
4363	4355	4356	4367	9
4367	10958	10948	10951	9
4367	10958	10948	10947	9
4358	4365	4375	4369	9
4358	4365	4375	4376	9
4355	4356	4357	4358	9
4355	4360	4359	4358	9
4358	4359	4360	4364	9
4356	4367	10958	10948	9
4356	4367	10958	10960	9
4356	4357	4358	4359	9
4356	4355	4360	4359	9
4356	4355	4360	4364	9
4357	4358	4365	4366	9
4357	4358	4365	4375	9
4357	4358	4359	4360	9
4357	4358	4359	4362	9
4357	4356	4367	4368	9
4357	4356	4367	10958	9
4357	4356	4355	4360	9
4357	4356	4355	4363	9
4359	4358	4365	4366	9
4359	4358	4365	4375	9
4359	4358	4357	4361	9
4359	4360	4355	4363	9
4355	4356	4367	4368	9
4355	4356	4367	10958	9
4355	4356	4357	4361	9
4355	4360	4359	4362	9
4362	4359	4360	4364	9
4363	4355	4360	4364	9
4366	4365	4375	4369	9
4366	4365	4375	4376	9
4368	4367	10958	10948	9
4368	4367	10958	10960	9
5609	5608	5607	5618	9
5612	5608	5607	5618	9
5611	5606	5607	5618	9
5614	5606	5607	5618	9
5618	7760	7750	7749	9
5618	7760	7750	7753	9
5607	5608	5609	5616	9
5612	5608	5609	5616	9
5611	5610	5609	5616	9
5613	5610	5609	5616	9
5616	5626	5620	5623	9
5616	5626	5620	5621	9
5607	5618	7760	7750	9
5607	5618	7760	7762	9
5607	5608	5609	5610	9
5607	5606	5611	5610	9
5607	5606	5611	5615	9
5609	5616	5626	5620	9
5609	5616	5626	5627	9
5606	5607	5608	5609	9
5606	5611	5610	5609	9
5609	5610	5611	5615	9
5608	5607	5618	5619	9
5608	5607	5618	7760	9
5608	5607	5606	5611	9
5608	5607	5606	5614	9
5608	5609	5616	5617	9
5608	5609	5616	5626	9
5608	5609	5610	5611	9
5608	5609	5610	5613	9
5606	5607	5618	5619	9
5606	5607	5618	7760	9
5606	5607	5608	5612	9
5606	5611	5610	5613	9
5610	5609	5616	5617	9
5610	5609	5616	5626	9
5610	5609	5608	5612	9
5610	5611	5606	5614	9
5614	5606	5611	5615	9
5613	5610	5611	5615	9
5619	5618	7760	7750	9
5619	5618	7760	7762	9
5617	5616	5626	5620	9
5617	5616	5626	5627	9
1480	1479	1478	1489	9
1483	1479	1478	1489	9
1482	1477	1478	1489	9
1485	1477	1478	1489	9
1489	6739	6732	6733	9
1489	6739	6732	6731	9
1478	1479	1480	1487	9
1483	1479	1480	1487	9
1482	1481	1480	1487	9
1484	1481	1480	1487	9
1494	1493	1491	1487	9
1498	1493	1491	1487	9
1478	1489	6739	6732	9
1478	1489	6739	6741	9
1478	1479	1480	1481	9
1478	1477	1482	1481	9
1478	1477	1482	1486	9
1493	1491	1487	1480	9
1492	1491	1487	1480	9
1477	1478	1479	1480	9
1477	1482	1481	1480	9
1480	1481	1482	1486	9
1479	1478	1489	1490	9
1479	1478	1489	6739	9
1479	1478	1477	1482	9
1479	1478	1477	1485	9
1479	1480	1487	1488	9
1491	1487	1480	1479	9
1479	1480	1481	1482	9
1479	1480	1481	1484	9
1477	1478	1489	1490	9
1477	1478	1489	6739	9
1477	1478	1479	1483	9
1477	1482	1481	1484	9
1481	1480	1487	1488	9
1491	1487	1480	1481	9
1481	1480	1479	1483	9
1481	1482	1477	1485	9
1485	1477	1482	1486	9
1484	1481	1482	1486	9
1490	1489	6739	6732	9
1490	1489	6739	6741	9
1493	1491	1487	1488	9
1492	1491	1487	1488	9
992	991	990	1001	9
995	991	990	1001	9
994	989	990	1001	9
997	989	990	1001	9
1006	1005	1003	1001	9
1010	1005	1003	1001	9
990	991	992	999	9
995	991	992	999	9
994	993	992	999	9
996	993	992	999	9
999	10372	10365	10364	9
999	10372	10365	10366	9
1005	1003	1001	990	9
1004	1003	1001	990	9
990	991	992	993	9
990	989	994	993	9
990	989	994	998	9
992	999	10372	10365	9
992	999	10372	10374	9
989	990	991	992	9
989	994	993	992	9
992	993	994	998	9
991	990	1001	1002	9
1003	1001	990	991	9
991	990	989	994	9
991	990	989	997	9
991	992	999	1000	9
991	992	999	10372	9
991	992	993	994	9
991	992	993	996	9
989	990	1001	1002	9
1003	1001	990	989	9
989	990	991	995	9
989	994	993	996	9
993	992	999	1000	9
993	992	999	10372	9
993	992	991	995	9
993	994	989	997	9
997	989	994	998	9
996	993	994	998	9
1005	1003	1001	1002	9
1004	1003	1001	1002	9
1000	999	10372	10365	9
1000	999	10372	10374	9
643	642	641	652	9
646	642	641	652	9
645	640	641	652	9
648	640	641	652	9
624	623	629	652	9
626	623	629	652	9
641	642	643	650	9
646	642	643	650	9
645	644	643	650	9
647	644	643	650	9
2153	2148	2146	650	9
2149	2148	2146	650	9
623	629	652	641	9
630	629	652	641	9
641	642	643	644	9
641	640	645	644	9
641	640	645	649	9
2148	2146	650	643	9
2147	2146	650	643	9
640	641	642	643	9
640	645	644	643	9
643	644	645	649	9
642	641	652	653	9
629	652	641	642	9
642	641	640	645	9
642	641	640	648	9
642	643	650	651	9
2146	650	643	642	9
642	643	644	645	9
642	643	644	647	9
640	641	652	653	9
629	652	641	640	9
640	641	642	646	9
640	645	644	647	9
644	643	650	651	9
2146	650	643	644	9
644	643	642	646	9
644	645	640	648	9
648	640	645	649	9
647	644	645	649	9
623	629	652	653	9
630	629	652	653	9
2148	2146	650	651	9
2147	2146	650	651	9
11435	11434	11433	11444	9
11438	11434	11433	11444	9
11437	11432	11433	11444	9
11440	11432	11433	11444	9
11444	8462	8452	8451	9
11444	8462	8452	8455	9
11433	11434	11435	11442	9
11438	11434	11435	11442	9
11437	11436	11435	11442	9
11439	11436	11435	11442	9
11442	4278	4271	4272	9
11442	4278	4271	4270	9
11433	11444	8462	8452	9
11433	11444	8462	8464	9
11433	11434	11435	11436	9
11433	11432	11437	11436	9
11433	11432	11437	11441	9
11435	11442	4278	4271	9
11435	11442	4278	4280	9
11432	11433	11434	11435	9
11432	11437	11436	11435	9
11435	11436	11437	11441	9
11434	11433	11444	11445	9
11434	11433	11444	8462	9
11434	11433	11432	11437	9
11434	11433	11432	11440	9
11434	11435	11442	11443	9
11434	11435	11442	4278	9
11434	11435	11436	11437	9
11434	11435	11436	11439	9
11432	11433	11444	11445	9
11432	11433	11444	8462	9
11432	11433	11434	11438	9
11432	11437	11436	11439	9
11436	11435	11442	11443	9
11436	11435	11442	4278	9
11436	11435	11434	11438	9
11436	11437	11432	11440	9
11440	11432	11437	11441	9
11439	11436	11437	11441	9
11445	11444	8462	8452	9
11445	11444	8462	8464	9
11443	11442	4278	4271	9
11443	11442	4278	4280	9
4503	4502	4501	4512	9
4506	4502	4501	4512	9
4505	4500	4501	4512	9
4508	4500	4501	4512	9
4512	7336	7329	7330	9
4512	7336	7329	7328	9
4501	4502	4503	4510	9
4506	4502	4503	4510	9
4505	4504	4503	4510	9
4507	4504	4503	4510	9
4510	4520	4514	4517	9
4510	4520	4514	4515	9
4501	4512	7336	7329	9
4501	4512	7336	7338	9
4501	4502	4503	4504	9
4501	4500	4505	4504	9
4501	4500	4505	4509	9
4503	4510	4520	4514	9
4503	4510	4520	4521	9
4500	4501	4502	4503	9
4500	4505	4504	4503	9
4503	4504	4505	4509	9
4502	4501	4512	4513	9
4502	4501	4512	7336	9
4502	4501	4500	4505	9
4502	4501	4500	4508	9
4502	4503	4510	4511	9
4502	4503	4510	4520	9
4502	4503	4504	4505	9
4502	4503	4504	4507	9
4500	4501	4512	4513	9
4500	4501	4512	7336	9
4500	4501	4502	4506	9
4500	4505	4504	4507	9
4504	4503	4510	4511	9
4504	4503	4510	4520	9
4504	4503	4502	4506	9
4504	4505	4500	4508	9
4508	4500	4505	4509	9
4507	4504	4505	4509	9
4513	4512	7336	7329	9
4513	4512	7336	7338	9
4511	4510	4520	4514	9
4511	4510	4520	4521	9
10669	10670	10671	10678	9
10674	10670	10671	10678	9
10673	10672	10671	10678	9
10675	10672	10671	10678	9
10678	10688	10682	10685	9
10678	10688	10682	10683	9
10671	10670	10669	10680	9
10674	10670	10669	10680	9
10673	10668	10669	10680	9
10676	10668	10669	10680	9
10680	4787	4777	4780	9
10680	4787	4777	4776	9
10671	10678	10688	10682	9
10671	10678	10688	10689	9
10671	10670	10669	10668	9
10671	10672	10673	10668	9
10671	10672	10673	10677	9
10669	10680	4787	4777	9
10669	10680	4787	4789	9
10672	10671	10670	10669	9
10672	10673	10668	10669	9
10669	10668	10673	10677	9
10670	10671	10678	10679	9
10670	10671	10678	10688	9
10670	10671	10672	10673	9
10670	10671	10672	10675	9
10670	10669	10680	10681	9
10670	10669	10680	4787	9
10670	10669	10668	10673	9
10670	10669	10668	10676	9
10672	10671	10678	10679	9
10672	10671	10678	10688	9
10672	10671	10670	10674	9
10672	10673	10668	10676	9
10668	10669	10680	10681	9
10668	10669	10680	4787	9
10668	10669	10670	10674	9
10668	10673	10672	10675	9
10675	10672	10673	10677	9
10676	10668	10673	10677	9
10679	10678	10688	10682	9
10679	10678	10688	10689	9
10681	10680	4787	4777	9
10681	10680	4787	4789	9
6105	6104	6103	6114	9
6108	6104	6103	6114	9
6107	6102	6103	6114	9
6110	6102	6103	6114	9
6114	10352	10346	10347	9
6114	10352	10346	10349	9
6103	6104	6105	6112	9
6108	6104	6105	6112	9
6107	6106	6105	6112	9
6109	6106	6105	6112	9
6112	6122	6116	6117	9
6112	6122	6116	6119	9
6103	6114	10352	10346	9
6103	6114	10352	10353	9
6103	6104	6105	6106	9
6103	6102	6107	6106	9
6103	6102	6107	6111	9
6105	6112	6122	6116	9
6105	6112	6122	6123	9
6102	6103	6104	6105	9
6102	6107	6106	6105	9
6105	6106	6107	6111	9
6104	6103	6114	6115	9
6104	6103	6114	10352	9
6104	6103	6102	6107	9
6104	6103	6102	6110	9
6104	6105	6112	6113	9
6104	6105	6112	6122	9
6104	6105	6106	6107	9
6104	6105	6106	6109	9
6102	6103	6114	6115	9
6102	6103	6114	10352	9
6102	6103	6104	6108	9
6102	6107	6106	6109	9
6106	6105	6112	6113	9
6106	6105	6112	6122	9
6106	6105	6104	6108	9
6106	6107	6102	6110	9
6110	6102	6107	6111	9
6109	6106	6107	6111	9
6115	6114	10352	10346	9
6115	6114	10352	10353	9
6113	6112	6122	6116	9
6113	6112	6122	6123	9
13617	13618	13619	13626	9
13622	13618	13619	13626	9
13621	13620	13619	13626	9
13623	13620	13619	13626	9
13626	10051	10044	10043	9
13626	10051	10044	10045	9
13619	13618	13617	13628	9
13622	13618	13617	13628	9
13621	13616	13617	13628	9
13624	13616	13617	13628	9
13628	10504	10497	10498	9
13628	10504	10497	10496	9
13619	13626	10051	10044	9
13619	13626	10051	10053	9
13619	13618	13617	13616	9
13619	13620	13621	13616	9
13619	13620	13621	13625	9
13617	13628	10504	10497	9
13617	13628	10504	10506	9
13620	13619	13618	13617	9
13620	13621	13616	13617	9
13617	13616	13621	13625	9
13618	13619	13626	13627	9
13618	13619	13626	10051	9
13618	13619	13620	13621	9
13618	13619	13620	13623	9
13618	13617	13628	13629	9
13618	13617	13628	10504	9
13618	13617	13616	13621	9
13618	13617	13616	13624	9
13620	13619	13626	13627	9
13620	13619	13626	10051	9
13620	13619	13618	13622	9
13620	13621	13616	13624	9
13616	13617	13628	13629	9
13616	13617	13628	10504	9
13616	13617	13618	13622	9
13616	13621	13620	13623	9
13623	13620	13621	13625	9
13624	13616	13621	13625	9
13627	13626	10051	10044	9
13627	13626	10051	10053	9
13629	13628	10504	10497	9
13629	13628	10504	10506	9
6788	6789	6790	6797	9
6793	6789	6790	6797	9
6792	6791	6790	6797	9
6794	6791	6790	6797	9
6797	6807	6801	6802	9
6797	6807	6801	6804	9
6790	6789	6788	6799	9
6793	6789	6788	6799	9
6792	6787	6788	6799	9
6795	6787	6788	6799	9
6799	4496	4489	4488	9
6799	4496	4489	4490	9
6790	6797	6807	6801	9
6790	6797	6807	6808	9
6787	6788	6789	6790	9
6787	6792	6791	6790	9
6790	6791	6792	6796	9
6788	6799	4496	4489	9
6788	6799	4496	4498	9
6788	6789	6790	6791	9
6788	6787	6792	6791	9
6788	6787	6792	6796	9
6789	6790	6797	6798	9
6789	6790	6797	6807	9
6789	6790	6791	6792	9
6789	6790	6791	6794	9
6789	6788	6799	6800	9
6789	6788	6799	4496	9
6789	6788	6787	6792	9
6789	6788	6787	6795	9
6791	6790	6797	6798	9
6791	6790	6797	6807	9
6791	6790	6789	6793	9
6791	6792	6787	6795	9
6787	6788	6799	6800	9
6787	6788	6799	4496	9
6787	6788	6789	6793	9
6787	6792	6791	6794	9
6794	6791	6792	6796	9
6795	6787	6792	6796	9
6798	6797	6807	6801	9
6798	6797	6807	6808	9
6800	6799	4496	4489	9
6800	6799	4496	4498	9
13535	13534	13533	13544	9
13538	13534	13533	13544	9
13537	13532	13533	13544	9
13540	13532	13533	13544	9
13544	10665	10655	10654	9
13544	10665	10655	10658	9
13533	13534	13535	13542	9
13538	13534	13535	13542	9
13537	13536	13535	13542	9
13539	13536	13535	13542	9
13542	9365	9358	9357	9
13542	9365	9358	9359	9
13533	13544	10665	10655	9
13533	13544	10665	10667	9
13533	13534	13535	13536	9
13533	13532	13537	13536	9
13533	13532	13537	13541	9
13535	13542	9365	9358	9
13535	13542	9365	9367	9
13532	13533	13534	13535	9
13532	13537	13536	13535	9
13535	13536	13537	13541	9
13534	13533	13544	13545	9
13534	13533	13544	10665	9
13534	13533	13532	13537	9
13534	13533	13532	13540	9
13534	13535	13542	13543	9
13534	13535	13542	9365	9
13534	13535	13536	13537	9
13534	13535	13536	13539	9
13532	13533	13544	13545	9
13532	13533	13544	10665	9
13532	13533	13534	13538	9
13532	13537	13536	13539	9
13536	13535	13542	13543	9
13536	13535	13542	9365	9
13536	13535	13534	13538	9
13536	13537	13532	13540	9
13540	13532	13537	13541	9
13539	13536	13537	13541	9
13545	13544	10665	10655	9
13545	13544	10665	10667	9
13543	13542	9365	9358	9
13543	13542	9365	9367	9
1721	1722	1723	1730	9
1726	1722	1723	1730	9
1725	1724	1723	1730	9
1727	1724	1723	1730	9
1737	1736	1734	1730	9
1741	1736	1734	1730	9
1723	1722	1721	1732	9
1726	1722	1721	1732	9
1725	1720	1721	1732	9
1728	1720	1721	1732	9
1732	8592	8585	8584	9
1732	8592	8585	8586	9
1736	1734	1730	1723	9
1735	1734	1730	1723	9
1720	1721	1722	1723	9
1720	1725	1724	1723	9
1723	1724	1725	1729	9
1721	1732	8592	8585	9
1721	1732	8592	8594	9
1721	1722	1723	1724	9
1721	1720	1725	1724	9
1721	1720	1725	1729	9
1722	1723	1730	1731	9
1734	1730	1723	1722	9
1722	1723	1724	1725	9
1722	1723	1724	1727	9
1722	1721	1732	1733	9
1722	1721	1732	8592	9
1722	1721	1720	1725	9
1722	1721	1720	1728	9
1724	1723	1730	1731	9
1734	1730	1723	1724	9
1724	1723	1722	1726	9
1724	1725	1720	1728	9
1720	1721	1732	1733	9
1720	1721	1732	8592	9
1720	1721	1722	1726	9
1720	1725	1724	1727	9
1727	1724	1725	1729	9
1728	1720	1725	1729	9
1736	1734	1730	1731	9
1735	1734	1730	1731	9
1733	1732	8592	8585	9
1733	1732	8592	8594	9
6717	6716	6715	6726	9
6720	6716	6715	6726	9
6719	6714	6715	6726	9
6722	6714	6715	6726	9
6726	10046	10040	10041	9
6726	10046	10040	10043	9
6715	6716	6717	6724	9
6720	6716	6717	6724	9
6719	6718	6717	6724	9
6721	6718	6717	6724	9
6724	6734	6728	6729	9
6724	6734	6728	6731	9
6715	6726	10046	10040	9
6715	6726	10046	10047	9
6715	6716	6717	6718	9
6715	6714	6719	6718	9
6715	6714	6719	6723	9
6717	6724	6734	6728	9
6717	6724	6734	6735	9
6714	6715	6716	6717	9
6714	6719	6718	6717	9
6717	6718	6719	6723	9
6716	6715	6726	6727	9
6716	6715	6726	10046	9
6716	6715	6714	6719	9
6716	6715	6714	6722	9
6716	6717	6724	6725	9
6716	6717	6724	6734	9
6716	6717	6718	6719	9
6716	6717	6718	6721	9
6714	6715	6726	6727	9
6714	6715	6726	10046	9
6714	6715	6716	6720	9
6714	6719	6718	6721	9
6718	6717	6724	6725	9
6718	6717	6724	6734	9
6718	6717	6716	6720	9
6718	6719	6714	6722	9
6722	6714	6719	6723	9
6721	6718	6719	6723	9
6727	6726	10046	10040	9
6727	6726	10046	10047	9
6725	6724	6734	6728	9
6725	6724	6734	6735	9
353	352	351	362	9
356	352	351	362	9
355	350	351	362	9
358	350	351	362	9
362	8236	8230	8231	9
362	8236	8230	8233	9
351	352	353	360	9
356	352	353	360	9
355	354	353	360	9
357	354	353	360	9
371	366	364	360	9
367	366	364	360	9
351	362	8236	8230	9
351	362	8236	8237	9
351	352	353	354	9
351	350	355	354	9
351	350	355	359	9
366	364	360	353	9
365	364	360	353	9
350	351	352	353	9
350	355	354	353	9
353	354	355	359	9
352	351	362	363	9
352	351	362	8236	9
352	351	350	355	9
352	351	350	358	9
352	353	360	361	9
364	360	353	352	9
352	353	354	355	9
352	353	354	357	9
350	351	362	363	9
350	351	362	8236	9
350	351	352	356	9
350	355	354	357	9
354	353	360	361	9
364	360	353	354	9
354	353	352	356	9
354	355	350	358	9
358	350	355	359	9
357	354	355	359	9
363	362	8236	8230	9
363	362	8236	8237	9
366	364	360	361	9
365	364	360	361	9
3129	3130	3131	3138	9
3134	3130	3131	3138	9
3133	3132	3131	3138	9
3135	3132	3131	3138	9
3138	8339	8333	8336	9
3138	8339	8333	8334	9
3131	3130	3129	3140	9
3134	3130	3129	3140	9
3133	3128	3129	3140	9
3136	3128	3129	3140	9
3131	3138	8339	8333	9
3131	3138	8339	8340	9
3128	3129	3130	3131	9
3128	3133	3132	3131	9
3131	3132	3133	3137	9
3129	3130	3131	3132	9
3129	3128	3133	3132	9
3129	3128	3133	3137	9
3130	3131	3138	3139	9
3130	3131	3138	8339	9
3130	3131	3132	3133	9
3130	3131	3132	3135	9
3130	3129	3140	3141	9
3130	3129	3140	3142	9
3130	3129	3128	3133	9
3130	3129	3128	3136	9
3132	3131	3138	3139	9
3132	3131	3138	8339	9
3132	3131	3130	3134	9
3132	3133	3128	3136	9
3128	3129	3140	3141	9
3128	3129	3140	3142	9
3128	3129	3130	3134	9
3128	3133	3132	3135	9
3135	3132	3133	3137	9
3136	3128	3133	3137	9
3139	3138	8339	8333	9
3139	3138	8339	8340	9
2135	2134	2133	2144	9
2138	2134	2133	2144	9
2137	2132	2133	2144	9
2140	2132	2133	2144	9
2116	2115	2121	2144	9
2118	2115	2121	2144	9
2133	2134	2135	2142	9
2138	2134	2135	2142	9
2137	2136	2135	2142	9
2139	2136	2135	2142	9
2142	4244	4238	4241	9
2142	4244	4238	4239	9
2115	2121	2144	2133	9
2122	2121	2144	2133	9
2133	2134	2135	2136	9
2133	2132	2137	2136	9
2133	2132	2137	2141	9
2135	2142	4244	4238	9
2135	2142	4244	4245	9
2132	2133	2134	2135	9
2132	2137	2136	2135	9
2135	2136	2137	2141	9
2134	2133	2144	2145	9
2121	2144	2133	2134	9
2134	2133	2132	2137	9
2134	2133	2132	2140	9
2134	2135	2142	2143	9
2134	2135	2142	4244	9
2134	2135	2136	2137	9
2134	2135	2136	2139	9
2132	2133	2144	2145	9
2121	2144	2133	2132	9
2132	2133	2134	2138	9
2132	2137	2136	2139	9
2136	2135	2142	2143	9
2136	2135	2142	4244	9
2136	2135	2134	2138	9
2136	2137	2132	2140	9
2140	2132	2137	2141	9
2139	2136	2137	2141	9
2115	2121	2144	2145	9
2122	2121	2144	2145	9
2143	2142	4244	4238	9
2143	2142	4244	4245	9
11141	11140	11139	11150	9
11144	11140	11139	11150	9
11143	11138	11139	11150	9
11146	11138	11139	11150	9
11150	4250	4240	4243	9
11150	4250	4240	4239	9
11139	11140	11141	11148	9
11144	11140	11141	11148	9
11143	11142	11141	11148	9
11145	11142	11141	11148	9
11148	3813	3806	3807	9
11148	3813	3806	3805	9
11139	11150	4250	4240	9
11139	11150	4250	4252	9
11139	11140	11141	11142	9
11139	11138	11143	11142	9
11139	11138	11143	11147	9
11141	11148	3813	3806	9
11141	11148	3813	3815	9
11138	11139	11140	11141	9
11138	11143	11142	11141	9
11141	11142	11143	11147	9
11140	11139	11150	11151	9
11140	11139	11150	4250	9
11140	11139	11138	11143	9
11140	11139	11138	11146	9
11140	11141	11148	11149	9
11140	11141	11148	3813	9
11140	11141	11142	11143	9
11140	11141	11142	11145	9
11138	11139	11150	11151	9
11138	11139	11150	4250	9
11138	11139	11140	11144	9
11138	11143	11142	11145	9
11142	11141	11148	11149	9
11142	11141	11148	3813	9
11142	11141	11140	11144	9
11142	11143	11138	11146	9
11146	11138	11143	11147	9
11145	11142	11143	11147	9
11151	11150	4250	4240	9
11151	11150	4250	4252	9
11149	11148	3813	3806	9
11149	11148	3813	3815	9
2028	2027	2026	2037	9
2031	2027	2026	2037	9
2030	2025	2026	2037	9
2033	2025	2026	2037	9
2042	2041	2039	2037	9
2046	2041	2039	2037	9
2026	2027	2028	2035	9
2031	2027	2028	2035	9
2030	2029	2028	2035	9
2032	2029	2028	2035	9
2035	6098	6091	6090	9
2035	6098	6091	6092	9
2041	2039	2037	2026	9
2040	2039	2037	2026	9
2026	2027	2028	2029	9
2026	2025	2030	2029	9
2026	2025	2030	2034	9
2028	2035	6098	6091	9
2028	2035	6098	6100	9
2025	2026	2027	2028	9
2025	2030	2029	2028	9
2028	2029	2030	2034	9
2027	2026	2037	2038	9
2039	2037	2026	2027	9
2027	2026	2025	2030	9
2027	2026	2025	2033	9
2027	2028	2035	2036	9
2027	2028	2035	6098	9
2027	2028	2029	2030	9
2027	2028	2029	2032	9
2025	2026	2037	2038	9
2039	2037	2026	2025	9
2025	2026	2027	2031	9
2025	2030	2029	2032	9
2029	2028	2035	2036	9
2029	2028	2035	6098	9
2029	2028	2027	2031	9
2029	2030	2025	2033	9
2033	2025	2030	2034	9
2032	2029	2030	2034	9
2041	2039	2037	2038	9
2040	2039	2037	2038	9
2036	2035	6098	6091	9
2036	2035	6098	6100	9
12581	12582	12583	12590	9
12586	12582	12583	12590	9
12585	12584	12583	12590	9
12587	12584	12583	12590	9
12590	10694	10684	10687	9
12590	10694	10684	10683	9
12583	12582	12581	12592	9
12586	12582	12581	12592	9
12585	12580	12581	12592	9
12588	12580	12581	12592	9
12592	6304	6294	6293	9
12592	6304	6294	6297	9
12583	12590	10694	10684	9
12583	12590	10694	10696	9
12583	12582	12581	12580	9
12583	12584	12585	12580	9
12583	12584	12585	12589	9
12581	12592	6304	6294	9
12581	12592	6304	6306	9
12584	12583	12582	12581	9
12584	12585	12580	12581	9
12581	12580	12585	12589	9
12582	12583	12590	12591	9
12582	12583	12590	10694	9
12582	12583	12584	12585	9
12582	12583	12584	12587	9
12582	12581	12592	12593	9
12582	12581	12592	6304	9
12582	12581	12580	12585	9
12582	12581	12580	12588	9
12584	12583	12590	12591	9
12584	12583	12590	10694	9
12584	12583	12582	12586	9
12584	12585	12580	12588	9
12580	12581	12592	12593	9
12580	12581	12592	6304	9
12580	12581	12582	12586	9
12580	12585	12584	12587	9
12587	12584	12585	12589	9
12588	12580	12585	12589	9
12591	12590	10694	10684	9
12591	12590	10694	10696	9
12593	12592	6304	6294	9
12593	12592	6304	6306	9
6892	6891	6890	6901	9
6895	6891	6890	6901	9
6894	6889	6890	6901	9
6897	6889	6890	6901	9
6901	6909	6903	6904	9
6901	6909	6903	6906	9
6890	6891	6892	6899	9
6895	6891	6892	6899	9
6894	6893	6892	6899	9
6896	6893	6892	6899	9
1986	1985	1987	6899	9
1984	1985	1987	6899	9
6890	6901	6909	6903	9
6890	6901	6909	6910	9
6890	6891	6892	6893	9
6890	6889	6894	6893	9
6890	6889	6894	6898	9
1985	1987	6899	6892	9
1988	1987	6899	6892	9
6889	6890	6891	6892	9
6889	6894	6893	6892	9
6892	6893	6894	6898	9
6891	6890	6901	6902	9
6891	6890	6901	6909	9
6891	6890	6889	6894	9
6891	6890	6889	6897	9
6891	6892	6899	6900	9
1987	6899	6892	6891	9
6891	6892	6893	6894	9
6891	6892	6893	6896	9
6889	6890	6901	6902	9
6889	6890	6901	6909	9
6889	6890	6891	6895	9
6889	6894	6893	6896	9
6893	6892	6899	6900	9
1987	6899	6892	6893	9
6893	6892	6891	6895	9
6893	6894	6889	6897	9
6897	6889	6894	6898	9
6896	6893	6894	6898	9
6902	6901	6909	6903	9
6902	6901	6909	6910	9
1985	1987	6899	6900	9
1988	1987	6899	6900	9
11755	11756	11757	11764	9
11760	11756	11757	11764	9
11759	11758	11757	11764	9
11761	11758	11757	11764	9
11764	8929	8919	8922	9
11764	8929	8919	8918	9
11757	11756	11755	11766	9
11760	11756	11755	11766	9
11759	11754	11755	11766	9
11762	11754	11755	11766	9
11766	4830	4823	4822	9
11766	4830	4823	4824	9
11757	11764	8929	8919	9
11757	11764	8929	8931	9
11754	11755	11756	11757	9
11754	11759	11758	11757	9
11757	11758	11759	11763	9
11755	11766	4830	4823	9
11755	11766	4830	4832	9
11755	11756	11757	11758	9
11755	11754	11759	11758	9
11755	11754	11759	11763	9
11756	11757	11764	11765	9
11756	11757	11764	8929	9
11756	11757	11758	11759	9
11756	11757	11758	11761	9
11756	11755	11766	11767	9
11756	11755	11766	4830	9
11756	11755	11754	11759	9
11756	11755	11754	11762	9
11758	11757	11764	11765	9
11758	11757	11764	8929	9
11758	11757	11756	11760	9
11758	11759	11754	11762	9
11754	11755	11766	11767	9
11754	11755	11766	4830	9
11754	11755	11756	11760	9
11754	11759	11758	11761	9
11761	11758	11759	11763	9
11762	11754	11759	11763	9
11765	11764	8929	8919	9
11765	11764	8929	8931	9
11767	11766	4830	4823	9
11767	11766	4830	4832	9
1860	1861	1862	1869	9
1865	1861	1862	1869	9
1864	1863	1862	1869	9
1866	1863	1862	1869	9
1869	5305	5299	5302	9
1869	5305	5299	5300	9
1862	1861	1860	1871	9
1865	1861	1860	1871	9
1864	1859	1860	1871	9
1867	1859	1860	1871	9
1843	1842	1848	1871	9
1845	1842	1848	1871	9
1862	1869	5305	5299	9
1862	1869	5305	5306	9
1862	1861	1860	1859	9
1862	1863	1864	1859	9
1862	1863	1864	1868	9
1842	1848	1871	1860	9
1849	1848	1871	1860	9
1863	1862	1861	1860	9
1863	1864	1859	1860	9
1860	1859	1864	1868	9
1861	1862	1869	1870	9
1861	1862	1869	5305	9
1861	1862	1863	1864	9
1861	1862	1863	1866	9
1861	1860	1871	1872	9
1848	1871	1860	1861	9
1861	1860	1859	1864	9
1861	1860	1859	1867	9
1863	1862	1869	1870	9
1863	1862	1869	5305	9
1863	1862	1861	1865	9
1863	1864	1859	1867	9
1859	1860	1871	1872	9
1848	1871	1860	1859	9
1859	1860	1861	1865	9
1859	1864	1863	1866	9
1866	1863	1864	1868	9
1867	1859	1864	1868	9
1870	1869	5305	5299	9
1870	1869	5305	5306	9
1842	1848	1871	1872	9
1849	1848	1871	1872	9
12107	12106	12105	12116	9
12110	12106	12105	12116	9
12109	12104	12105	12116	9
12112	12104	12105	12116	9
12116	5544	5534	5533	9
12116	5544	5534	5537	9
12105	12106	12107	12114	9
12110	12106	12107	12114	9
12109	12108	12107	12114	9
12111	12108	12107	12114	9
12114	9394	9387	9386	9
12114	9394	9387	9388	9
12105	12116	5544	5534	9
12105	12116	5544	5546	9
12105	12106	12107	12108	9
12105	12104	12109	12108	9
12105	12104	12109	12113	9
12107	12114	9394	9387	9
12107	12114	9394	9396	9
12104	12105	12106	12107	9
12104	12109	12108	12107	9
12107	12108	12109	12113	9
12106	12105	12116	12117	9
12106	12105	12116	5544	9
12106	12105	12104	12109	9
12106	12105	12104	12112	9
12106	12107	12114	12115	9
12106	12107	12114	9394	9
12106	12107	12108	12109	9
12106	12107	12108	12111	9
12104	12105	12116	12117	9
12104	12105	12116	5544	9
12104	12105	12106	12110	9
12104	12109	12108	12111	9
12108	12107	12114	12115	9
12108	12107	12114	9394	9
12108	12107	12106	12110	9
12108	12109	12104	12112	9
12112	12104	12109	12113	9
12111	12108	12109	12113	9
12117	12116	5544	5534	9
12117	12116	5544	5546	9
12115	12114	9394	9387	9
12115	12114	9394	9396	9
3204	3205	3206	3213	9
3209	3205	3206	3213	9
3208	3207	3206	3213	9
3210	3207	3206	3213	9
3213	8709	8702	8701	9
3213	8709	8702	8703	9
3206	3205	3204	3215	9
3209	3205	3204	3215	9
3208	3203	3204	3215	9
3211	3203	3204	3215	9
3206	3213	8709	8702	9
3206	3213	8709	8711	9
3203	3204	3205	3206	9
3203	3208	3207	3206	9
3206	3207	3208	3212	9
3204	3205	3206	3207	9
3204	3203	3208	3207	9
3204	3203	3208	3212	9
3205	3206	3213	3214	9
3205	3206	3213	8709	9
3205	3206	3207	3208	9
3205	3206	3207	3210	9
3205	3204	3215	3216	9
3205	3204	3215	3217	9
3205	3204	3203	3208	9
3205	3204	3203	3211	9
3207	3206	3213	3214	9
3207	3206	3213	8709	9
3207	3206	3205	3209	9
3207	3208	3203	3211	9
3203	3204	3215	3216	9
3203	3204	3215	3217	9
3203	3204	3205	3209	9
3203	3208	3207	3210	9
3210	3207	3208	3212	9
3211	3203	3208	3212	9
3214	3213	8709	8702	9
3214	3213	8709	8711	9
1648	1647	1646	1657	9
1651	1647	1646	1657	9
1650	1645	1646	1657	9
1653	1645	1646	1657	9
1631	1628	1634	1657	9
1629	1628	1634	1657	9
1646	1647	1648	1655	9
1651	1647	1648	1655	9
1650	1649	1648	1655	9
1652	1649	1648	1655	9
1655	9790	9780	9779	9
1655	9790	9780	9783	9
1628	1634	1657	1646	9
1635	1634	1657	1646	9
1646	1647	1648	1649	9
1646	1645	1650	1649	9
1646	1645	1650	1654	9
1648	1655	9790	9780	9
1648	1655	9790	9792	9
1645	1646	1647	1648	9
1645	1650	1649	1648	9
1648	1649	1650	1654	9
1647	1646	1657	1658	9
1634	1657	1646	1647	9
1647	1646	1645	1650	9
1647	1646	1645	1653	9
1647	1648	1655	1656	9
1647	1648	1655	9790	9
1647	1648	1649	1650	9
1647	1648	1649	1652	9
1645	1646	1657	1658	9
1634	1657	1646	1645	9
1645	1646	1647	1651	9
1645	1650	1649	1652	9
1649	1648	1655	1656	9
1649	1648	1655	9790	9
1649	1648	1647	1651	9
1649	1650	1645	1653	9
1653	1645	1650	1654	9
1652	1649	1650	1654	9
1628	1634	1657	1658	9
1635	1634	1657	1658	9
1656	1655	9790	9780	9
1656	1655	9790	9792	9
8994	8993	8992	9003	9
8997	8993	8992	9003	9
8996	8991	8992	9003	9
8999	8991	8992	9003	9
9003	9011	9005	9006	9
9003	9011	9005	9008	9
8992	8993	8994	9001	9
8997	8993	8994	9001	9
8996	8995	8994	9001	9
8998	8995	8994	9001	9
9001	10870	10860	10859	9
9001	10870	10860	10863	9
8992	9003	9011	9005	9
8992	9003	9011	9012	9
8992	8993	8994	8995	9
8992	8991	8996	8995	9
8992	8991	8996	9000	9
8994	9001	10870	10860	9
8994	9001	10870	10872	9
8991	8992	8993	8994	9
8991	8996	8995	8994	9
8994	8995	8996	9000	9
8993	8992	9003	9004	9
8993	8992	9003	9011	9
8993	8992	8991	8996	9
8993	8992	8991	8999	9
8993	8994	9001	9002	9
8993	8994	9001	10870	9
8993	8994	8995	8996	9
8993	8994	8995	8998	9
8991	8992	9003	9004	9
8991	8992	9003	9011	9
8991	8992	8993	8997	9
8991	8996	8995	8998	9
8995	8994	9001	9002	9
8995	8994	9001	10870	9
8995	8994	8993	8997	9
8995	8996	8991	8999	9
8999	8991	8996	9000	9
8998	8995	8996	9000	9
9004	9003	9011	9005	9
9004	9003	9011	9012	9
9002	9001	10870	10860	9
9002	9001	10870	10872	9
12401	12400	12399	12410	9
12404	12400	12399	12410	9
12403	12398	12399	12410	9
12406	12398	12399	12410	9
12410	8447	8437	8440	9
12410	8447	8437	8436	9
12399	12400	12401	12408	9
12404	12400	12401	12408	9
12403	12402	12401	12408	9
12405	12402	12401	12408	9
12408	5983	5973	5976	9
12408	5983	5973	5972	9
12399	12410	8447	8437	9
12399	12410	8447	8449	9
12399	12400	12401	12402	9
12399	12398	12403	12402	9
12399	12398	12403	12407	9
12401	12408	5983	5973	9
12401	12408	5983	5985	9
12398	12399	12400	12401	9
12398	12403	12402	12401	9
12401	12402	12403	12407	9
12400	12399	12410	12411	9
12400	12399	12410	8447	9
12400	12399	12398	12403	9
12400	12399	12398	12406	9
12400	12401	12408	12409	9
12400	12401	12408	5983	9
12400	12401	12402	12403	9
12400	12401	12402	12405	9
12398	12399	12410	12411	9
12398	12399	12410	8447	9
12398	12399	12400	12404	9
12398	12403	12402	12405	9
12402	12401	12408	12409	9
12402	12401	12408	5983	9
12402	12401	12400	12404	9
12402	12403	12398	12406	9
12406	12398	12403	12407	9
12405	12402	12403	12407	9
12411	12410	8447	8437	9
12411	12410	8447	8449	9
12409	12408	5983	5973	9
12409	12408	5983	5985	9
3294	3295	3296	3303	9
3299	3295	3296	3303	9
3298	3297	3296	3303	9
3300	3297	3296	3303	9
3303	9032	9022	9025	9
3303	9032	9022	9021	9
3296	3295	3294	3305	9
3299	3295	3294	3305	9
3298	3293	3294	3305	9
3301	3293	3294	3305	9
3296	3303	9032	9022	9
3296	3303	9032	9034	9
3293	3294	3295	3296	9
3293	3298	3297	3296	9
3296	3297	3298	3302	9
3294	3295	3296	3297	9
3294	3293	3298	3297	9
3294	3293	3298	3302	9
3295	3296	3303	3304	9
3295	3296	3303	9032	9
3295	3296	3297	3298	9
3295	3296	3297	3300	9
3295	3294	3305	3307	9
3295	3294	3305	3306	9
3295	3294	3293	3298	9
3295	3294	3293	3301	9
3297	3296	3303	3304	9
3297	3296	3303	9032	9
3297	3296	3295	3299	9
3297	3298	3293	3301	9
3293	3294	3305	3307	9
3293	3294	3305	3306	9
3293	3294	3295	3299	9
3293	3298	3297	3300	9
3300	3297	3298	3302	9
3301	3293	3298	3302	9
3304	3303	9032	9022	9
3304	3303	9032	9034	9
2636	2635	2634	2645	9
2639	2635	2634	2645	9
2638	2633	2634	2645	9
2641	2633	2634	2645	9
2634	2635	2636	2643	9
2639	2635	2636	2643	9
2638	2637	2636	2643	9
2640	2637	2636	2643	9
2643	4351	4344	4345	9
2643	4351	4344	4343	9
2634	2635	2636	2637	9
2634	2633	2638	2637	9
2634	2633	2638	2642	9
2636	2643	4351	4344	9
2636	2643	4351	4353	9
2633	2634	2635	2636	9
2633	2638	2637	2636	9
2636	2637	2638	2642	9
2635	2634	2645	2647	9
2635	2634	2645	2646	9
2635	2634	2633	2638	9
2635	2634	2633	2641	9
2635	2636	2643	2644	9
2635	2636	2643	4351	9
2635	2636	2637	2638	9
2635	2636	2637	2640	9
2633	2634	2645	2647	9
2633	2634	2645	2646	9
2633	2634	2635	2639	9
2633	2638	2637	2640	9
2637	2636	2643	2644	9
2637	2636	2643	4351	9
2637	2636	2635	2639	9
2637	2638	2633	2641	9
2641	2633	2638	2642	9
2640	2637	2638	2642	9
2644	2643	4351	4344	9
2644	2643	4351	4353	9
2606	2605	2604	2615	9
2609	2605	2604	2615	9
2608	2603	2604	2615	9
2611	2603	2604	2615	9
2604	2605	2606	2613	9
2609	2605	2606	2613	9
2608	2607	2606	2613	9
2610	2607	2606	2613	9
2613	4031	4024	4025	9
2613	4031	4024	4023	9
2604	2605	2606	2607	9
2604	2603	2608	2607	9
2604	2603	2608	2612	9
2606	2613	4031	4024	9
2606	2613	4031	4033	9
2603	2604	2605	2606	9
2603	2608	2607	2606	9
2606	2607	2608	2612	9
2605	2604	2615	2616	9
2605	2604	2615	2617	9
2605	2604	2603	2608	9
2605	2604	2603	2611	9
2605	2606	2613	2614	9
2605	2606	2613	4031	9
2605	2606	2607	2608	9
2605	2606	2607	2610	9
2603	2604	2615	2616	9
2603	2604	2615	2617	9
2603	2604	2605	2609	9
2603	2608	2607	2610	9
2607	2606	2613	2614	9
2607	2606	2613	4031	9
2607	2606	2605	2609	9
2607	2608	2603	2611	9
2611	2603	2608	2612	9
2610	2607	2608	2612	9
2614	2613	4031	4024	9
2614	2613	4031	4033	9
13549	13548	13547	13558	9
13552	13548	13547	13558	9
13551	13546	13547	13558	9
13554	13546	13547	13558	9
13558	10080	10073	10074	9
13558	10080	10073	10072	9
13547	13548	13549	13556	9
13552	13548	13549	13556	9
13551	13550	13549	13556	9
13553	13550	13549	13556	9
13556	9614	9607	9606	9
13556	9614	9607	9608	9
13547	13558	10080	10073	9
13547	13558	10080	10082	9
13547	13548	13549	13550	9
13547	13546	13551	13550	9
13547	13546	13551	13555	9
13549	13556	9614	9607	9
13549	13556	9614	9616	9
13546	13547	13548	13549	9
13546	13551	13550	13549	9
13549	13550	13551	13555	9
13548	13547	13558	13559	9
13548	13547	13558	10080	9
13548	13547	13546	13551	9
13548	13547	13546	13554	9
13548	13549	13556	13557	9
13548	13549	13556	9614	9
13548	13549	13550	13551	9
13548	13549	13550	13553	9
13546	13547	13558	13559	9
13546	13547	13558	10080	9
13546	13547	13548	13552	9
13546	13551	13550	13553	9
13550	13549	13556	13557	9
13550	13549	13556	9614	9
13550	13549	13548	13552	9
13550	13551	13546	13554	9
13554	13546	13551	13555	9
13553	13550	13551	13555	9
13559	13558	10080	10073	9
13559	13558	10080	10082	9
13557	13556	9614	9607	9
13557	13556	9614	9616	9
7314	7313	7312	7323	9
7317	7313	7312	7323	9
7316	7311	7312	7323	9
7319	7311	7312	7323	9
7323	7331	7325	7326	9
7323	7331	7325	7328	9
7312	7313	7314	7321	9
7317	7313	7314	7321	9
7316	7315	7314	7321	9
7318	7315	7314	7321	9
7321	9016	9009	9010	9
7321	9016	9009	9008	9
7312	7323	7331	7325	9
7312	7323	7331	7332	9
7312	7313	7314	7315	9
7312	7311	7316	7315	9
7312	7311	7316	7320	9
7314	7321	9016	9009	9
7314	7321	9016	9018	9
7311	7312	7313	7314	9
7311	7316	7315	7314	9
7314	7315	7316	7320	9
7313	7312	7323	7324	9
7313	7312	7323	7331	9
7313	7312	7311	7316	9
7313	7312	7311	7319	9
7313	7314	7321	7322	9
7313	7314	7321	9016	9
7313	7314	7315	7316	9
7313	7314	7315	7318	9
7311	7312	7323	7324	9
7311	7312	7323	7331	9
7311	7312	7313	7317	9
7311	7316	7315	7318	9
7315	7314	7321	7322	9
7315	7314	7321	9016	9
7315	7314	7313	7317	9
7315	7316	7311	7319	9
7319	7311	7316	7320	9
7318	7315	7316	7320	9
7324	7323	7331	7325	9
7324	7323	7331	7332	9
7322	7321	9016	9009	9
7322	7321	9016	9018	9
13479	13478	13477	13488	9
13482	13478	13477	13488	9
13481	13476	13477	13488	9
13484	13476	13477	13488	9
13488	9250	9240	9239	9
13488	9250	9240	9243	9
13477	13478	13479	13486	9
13482	13478	13479	13486	9
13481	13480	13479	13486	9
13483	13480	13479	13486	9
13486	8973	8963	8962	9
13486	8973	8963	8966	9
13477	13488	9250	9240	9
13477	13488	9250	9252	9
13477	13478	13479	13480	9
13477	13476	13481	13480	9
13477	13476	13481	13485	9
13479	13486	8973	8963	9
13479	13486	8973	8975	9
13476	13477	13478	13479	9
13476	13481	13480	13479	9
13479	13480	13481	13485	9
13478	13477	13488	13489	9
13478	13477	13488	9250	9
13478	13477	13476	13481	9
13478	13477	13476	13484	9
13478	13479	13486	13487	9
13478	13479	13486	8973	9
13478	13479	13480	13481	9
13478	13479	13480	13483	9
13476	13477	13488	13489	9
13476	13477	13488	9250	9
13476	13477	13478	13482	9
13476	13481	13480	13483	9
13480	13479	13486	13487	9
13480	13479	13486	8973	9
13480	13479	13478	13482	9
13480	13481	13476	13484	9
13484	13476	13481	13485	9
13483	13480	13481	13485	9
13489	13488	9250	9240	9
13489	13488	9250	9252	9
13487	13486	8973	8963	9
13487	13486	8973	8975	9
11799	11798	11797	11808	9
11802	11798	11797	11808	9
11801	11796	11797	11808	9
11804	11796	11797	11808	9
11808	4888	4881	4880	9
11808	4888	4881	4882	9
11797	11798	11799	11806	9
11802	11798	11799	11806	9
11801	11800	11799	11806	9
11803	11800	11799	11806	9
11806	5209	5199	5202	9
11806	5209	5199	5198	9
11797	11808	4888	4881	9
11797	11808	4888	4890	9
11797	11798	11799	11800	9
11797	11796	11801	11800	9
11797	11796	11801	11805	9
11799	11806	5209	5199	9
11799	11806	5209	5211	9
11796	11797	11798	11799	9
11796	11801	11800	11799	9
11799	11800	11801	11805	9
11798	11797	11808	11809	9
11798	11797	11808	4888	9
11798	11797	11796	11801	9
11798	11797	11796	11804	9
11798	11799	11806	11807	9
11798	11799	11806	5209	9
11798	11799	11800	11801	9
11798	11799	11800	11803	9
11796	11797	11808	11809	9
11796	11797	11808	4888	9
11796	11797	11798	11802	9
11796	11801	11800	11803	9
11800	11799	11806	11807	9
11800	11799	11806	5209	9
11800	11799	11798	11802	9
11800	11801	11796	11804	9
11804	11796	11801	11805	9
11803	11800	11801	11805	9
11809	11808	4888	4881	9
11809	11808	4888	4890	9
11807	11806	5209	5199	9
11807	11806	5209	5211	9
12513	12512	12511	12522	9
12516	12512	12511	12522	9
12515	12510	12511	12522	9
12518	12510	12511	12522	9
12522	7527	7517	7520	9
12522	7527	7517	7516	9
12511	12512	12513	12520	9
12516	12512	12513	12520	9
12515	12514	12513	12520	9
12517	12514	12513	12520	9
12520	6200	6193	6192	9
12520	6200	6193	6194	9
12511	12522	7527	7517	9
12511	12522	7527	7529	9
12511	12512	12513	12514	9
12511	12510	12515	12514	9
12511	12510	12515	12519	9
12513	12520	6200	6193	9
12513	12520	6200	6202	9
12510	12511	12512	12513	9
12510	12515	12514	12513	9
12513	12514	12515	12519	9
12512	12511	12522	12523	9
12512	12511	12522	7527	9
12512	12511	12510	12515	9
12512	12511	12510	12518	9
12512	12513	12520	12521	9
12512	12513	12520	6200	9
12512	12513	12514	12515	9
12512	12513	12514	12517	9
12510	12511	12522	12523	9
12510	12511	12522	7527	9
12510	12511	12512	12516	9
12510	12515	12514	12517	9
12514	12513	12520	12521	9
12514	12513	12520	6200	9
12514	12513	12512	12516	9
12514	12515	12510	12518	9
12518	12510	12515	12519	9
12517	12514	12515	12519	9
12523	12522	7527	7517	9
12523	12522	7527	7529	9
12521	12520	6200	6193	9
12521	12520	6200	6202	9
7795	7794	7793	7804	9
7798	7794	7793	7804	9
7797	7792	7793	7804	9
7800	7792	7793	7804	9
7804	7812	7806	7807	9
7804	7812	7806	7809	9
7793	7794	7795	7802	9
7798	7794	7795	7802	9
7797	7796	7795	7802	9
7799	7796	7795	7802	9
7802	7914	7908	7909	9
7802	7914	7908	7911	9
7793	7804	7812	7806	9
7793	7804	7812	7813	9
7793	7794	7795	7796	9
7793	7792	7797	7796	9
7793	7792	7797	7801	9
7795	7802	7914	7908	9
7795	7802	7914	7915	9
7792	7793	7794	7795	9
7792	7797	7796	7795	9
7795	7796	7797	7801	9
7794	7793	7804	7805	9
7794	7793	7804	7812	9
7794	7793	7792	7797	9
7794	7793	7792	7800	9
7794	7795	7802	7803	9
7794	7795	7802	7914	9
7794	7795	7796	7797	9
7794	7795	7796	7799	9
7792	7793	7804	7805	9
7792	7793	7804	7812	9
7792	7793	7794	7798	9
7792	7797	7796	7799	9
7796	7795	7802	7803	9
7796	7795	7802	7914	9
7796	7795	7794	7798	9
7796	7797	7792	7800	9
7800	7792	7797	7801	9
7799	7796	7797	7801	9
7805	7804	7812	7806	9
7805	7804	7812	7813	9
7803	7802	7914	7908	9
7803	7802	7914	7915	9
8746	8745	8744	8755	9
8749	8745	8744	8755	9
8748	8743	8744	8755	9
8751	8743	8744	8755	9
8755	5632	5622	5625	9
8755	5632	5622	5621	9
8744	8745	8746	8753	9
8749	8745	8746	8753	9
8748	8747	8746	8753	9
8750	8747	8746	8753	9
8753	8763	8757	8758	9
8753	8763	8757	8760	9
8744	8755	5632	5622	9
8744	8755	5632	5634	9
8744	8745	8746	8747	9
8744	8743	8748	8747	9
8744	8743	8748	8752	9
8746	8753	8763	8757	9
8746	8753	8763	8764	9
8743	8744	8745	8746	9
8743	8748	8747	8746	9
8746	8747	8748	8752	9
8745	8744	8755	8756	9
8745	8744	8755	5632	9
8745	8744	8743	8748	9
8745	8744	8743	8751	9
8745	8746	8753	8754	9
8745	8746	8753	8763	9
8745	8746	8747	8748	9
8745	8746	8747	8750	9
8743	8744	8755	8756	9
8743	8744	8755	5632	9
8743	8744	8745	8749	9
8743	8748	8747	8750	9
8747	8746	8753	8754	9
8747	8746	8753	8763	9
8747	8746	8745	8749	9
8747	8748	8743	8751	9
8751	8743	8748	8752	9
8750	8747	8748	8752	9
8756	8755	5632	5622	9
8756	8755	5632	5634	9
8754	8753	8763	8757	9
8754	8753	8763	8764	9
11169	11168	11167	11178	9
11172	11168	11167	11178	9
11171	11166	11167	11178	9
11174	11166	11167	11178	9
11178	8285	8278	8279	9
11178	8285	8278	8277	9
11167	11168	11169	11176	9
11172	11168	11169	11176	9
11171	11170	11169	11176	9
11173	11170	11169	11176	9
11176	3829	3819	3822	9
11176	3829	3819	3818	9
11167	11178	8285	8278	9
11167	11178	8285	8287	9
11167	11168	11169	11170	9
11167	11166	11171	11170	9
11167	11166	11171	11175	9
11169	11176	3829	3819	9
11169	11176	3829	3831	9
11166	11167	11168	11169	9
11166	11171	11170	11169	9
11169	11170	11171	11175	9
11168	11167	11178	11179	9
11168	11167	11178	8285	9
11168	11167	11166	11171	9
11168	11167	11166	11174	9
11168	11169	11176	11177	9
11168	11169	11176	3829	9
11168	11169	11170	11171	9
11168	11169	11170	11173	9
11166	11167	11178	11179	9
11166	11167	11178	8285	9
11166	11167	11168	11172	9
11166	11171	11170	11173	9
11170	11169	11176	11177	9
11170	11169	11176	3829	9
11170	11169	11168	11172	9
11170	11171	11166	11174	9
11174	11166	11171	11175	9
11173	11170	11171	11175	9
11179	11178	8285	8278	9
11179	11178	8285	8287	9
11177	11176	3829	3819	9
11177	11176	3829	3831	9
4648	4647	4646	4657	9
4651	4647	4646	4657	9
4650	4645	4646	4657	9
4653	4645	4646	4657	9
4657	4665	4659	4660	9
4657	4665	4659	4662	9
4646	4647	4648	4655	9
4651	4647	4648	4655	9
4650	4649	4648	4655	9
4652	4649	4648	4655	9
4655	7497	7490	7489	9
4655	7497	7490	7491	9
4646	4657	4665	4659	9
4646	4657	4665	4666	9
4646	4647	4648	4649	9
4646	4645	4650	4649	9
4646	4645	4650	4654	9
4648	4655	7497	7490	9
4648	4655	7497	7499	9
4645	4646	4647	4648	9
4645	4650	4649	4648	9
4648	4649	4650	4654	9
4647	4646	4657	4658	9
4647	4646	4657	4665	9
4647	4646	4645	4650	9
4647	4646	4645	4653	9
4647	4648	4655	4656	9
4647	4648	4655	7497	9
4647	4648	4649	4650	9
4647	4648	4649	4652	9
4645	4646	4657	4658	9
4645	4646	4657	4665	9
4645	4646	4647	4651	9
4645	4650	4649	4652	9
4649	4648	4655	4656	9
4649	4648	4655	7497	9
4649	4648	4647	4651	9
4649	4650	4645	4653	9
4653	4645	4650	4654	9
4652	4649	4650	4654	9
4658	4657	4665	4659	9
4658	4657	4665	4666	9
4656	4655	7497	7490	9
4656	4655	7497	7499	9
2756	2755	2754	2765	9
2759	2755	2754	2765	9
2758	2753	2754	2765	9
2761	2753	2754	2765	9
2754	2755	2756	2763	9
2759	2755	2756	2763	9
2758	2757	2756	2763	9
2760	2757	2756	2763	9
2763	5266	5259	5260	9
2763	5266	5259	5258	9
2754	2755	2756	2757	9
2754	2753	2758	2757	9
2754	2753	2758	2762	9
2756	2763	5266	5259	9
2756	2763	5266	5268	9
2753	2754	2755	2756	9
2753	2758	2757	2756	9
2756	2757	2758	2762	9
2755	2754	2765	2767	9
2755	2754	2765	2766	9
2755	2754	2753	2758	9
2755	2754	2753	2761	9
2755	2756	2763	2764	9
2755	2756	2763	5266	9
2755	2756	2757	2758	9
2755	2756	2757	2760	9
2753	2754	2765	2767	9
2753	2754	2765	2766	9
2753	2754	2755	2759	9
2753	2758	2757	2760	9
2757	2756	2763	2764	9
2757	2756	2763	5266	9
2757	2756	2755	2759	9
2757	2758	2753	2761	9
2761	2753	2758	2762	9
2760	2757	2758	2762	9
2764	2763	5266	5259	9
2764	2763	5266	5268	9
1510	1509	1508	1519	9
1513	1509	1508	1519	9
1512	1507	1508	1519	9
1515	1507	1508	1519	9
1524	1523	1521	1519	9
1528	1523	1521	1519	9
1508	1509	1510	1517	9
1513	1509	1510	1517	9
1512	1511	1510	1517	9
1514	1511	1510	1517	9
675	670	668	1517	9
671	670	668	1517	9
1523	1521	1519	1508	9
1522	1521	1519	1508	9
1508	1509	1510	1511	9
1508	1507	1512	1511	9
1508	1507	1512	1516	9
670	668	1517	1510	9
669	668	1517	1510	9
1507	1508	1509	1510	9
1507	1512	1511	1510	9
1510	1511	1512	1516	9
1509	1508	1519	1520	9
1521	1519	1508	1509	9
1509	1508	1507	1512	9
1509	1508	1507	1515	9
1509	1510	1517	1518	9
668	1517	1510	1509	9
1509	1510	1511	1512	9
1509	1510	1511	1514	9
1507	1508	1519	1520	9
1521	1519	1508	1507	9
1507	1508	1509	1513	9
1507	1512	1511	1514	9
1511	1510	1517	1518	9
668	1517	1510	1511	9
1511	1510	1509	1513	9
1511	1512	1507	1515	9
1515	1507	1512	1516	9
1514	1511	1512	1516	9
1523	1521	1519	1520	9
1522	1521	1519	1520	9
670	668	1517	1518	9
669	668	1517	1518	9
11323	11322	11321	11332	9
11326	11322	11321	11332	9
11325	11320	11321	11332	9
11328	11320	11321	11332	9
11332	9468	9458	9457	9
11332	9468	9458	9461	9
11321	11322	11323	11330	9
11326	11322	11323	11330	9
11325	11324	11323	11330	9
11327	11324	11323	11330	9
11330	4118	4111	4112	9
11330	4118	4111	4110	9
11321	11332	9468	9458	9
11321	11332	9468	9470	9
11321	11322	11323	11324	9
11321	11320	11325	11324	9
11321	11320	11325	11329	9
11323	11330	4118	4111	9
11323	11330	4118	4120	9
11320	11321	11322	11323	9
11320	11325	11324	11323	9
11323	11324	11325	11329	9
11322	11321	11332	11333	9
11322	11321	11332	9468	9
11322	11321	11320	11325	9
11322	11321	11320	11328	9
11322	11323	11330	11331	9
11322	11323	11330	4118	9
11322	11323	11324	11325	9
11322	11323	11324	11327	9
11320	11321	11332	11333	9
11320	11321	11332	9468	9
11320	11321	11322	11326	9
11320	11325	11324	11327	9
11324	11323	11330	11331	9
11324	11323	11330	4118	9
11324	11323	11322	11326	9
11324	11325	11320	11328	9
11328	11320	11325	11329	9
11327	11324	11325	11329	9
11333	11332	9468	9458	9
11333	11332	9468	9470	9
11331	11330	4118	4111	9
11331	11330	4118	4120	9
4416	4415	4414	4425	9
4419	4415	4414	4425	9
4418	4413	4414	4425	9
4421	4413	4414	4425	9
4425	4433	4427	4430	9
4425	4433	4427	4428	9
4414	4415	4416	4423	9
4419	4415	4416	4423	9
4418	4417	4416	4423	9
4420	4417	4416	4423	9
4423	6040	6033	6032	9
4423	6040	6033	6034	9
4414	4425	4433	4427	9
4414	4425	4433	4434	9
4414	4415	4416	4417	9
4414	4413	4418	4417	9
4414	4413	4418	4422	9
4416	4423	6040	6033	9
4416	4423	6040	6042	9
4413	4414	4415	4416	9
4413	4418	4417	4416	9
4416	4417	4418	4422	9
4415	4414	4425	4426	9
4415	4414	4425	4433	9
4415	4414	4413	4418	9
4415	4414	4413	4421	9
4415	4416	4423	4424	9
4415	4416	4423	6040	9
4415	4416	4417	4418	9
4415	4416	4417	4420	9
4413	4414	4425	4426	9
4413	4414	4425	4433	9
4413	4414	4415	4419	9
4413	4418	4417	4420	9
4417	4416	4423	4424	9
4417	4416	4423	6040	9
4417	4416	4415	4419	9
4417	4418	4413	4421	9
4421	4413	4418	4422	9
4420	4417	4418	4422	9
4426	4425	4433	4427	9
4426	4425	4433	4434	9
4424	4423	6040	6033	9
4424	4423	6040	6042	9
8101	8100	8099	8110	9
8104	8100	8099	8110	9
8103	8098	8099	8110	9
8106	8098	8099	8110	9
8110	8118	8112	8115	9
8110	8118	8112	8113	9
8099	8100	8101	8108	9
8104	8100	8101	8108	9
8103	8102	8101	8108	9
8105	8102	8101	8108	9
8108	5150	5143	5142	9
8108	5150	5143	5144	9
8099	8110	8118	8112	9
8099	8110	8118	8119	9
8099	8100	8101	8102	9
8099	8098	8103	8102	9
8099	8098	8103	8107	9
8101	8108	5150	5143	9
8101	8108	5150	5152	9
8098	8099	8100	8101	9
8098	8103	8102	8101	9
8101	8102	8103	8107	9
8100	8099	8110	8111	9
8100	8099	8110	8118	9
8100	8099	8098	8103	9
8100	8099	8098	8106	9
8100	8101	8108	8109	9
8100	8101	8108	5150	9
8100	8101	8102	8103	9
8100	8101	8102	8105	9
8098	8099	8110	8111	9
8098	8099	8110	8118	9
8098	8099	8100	8104	9
8098	8103	8102	8105	9
8102	8101	8108	8109	9
8102	8101	8108	5150	9
8102	8101	8100	8104	9
8102	8103	8098	8106	9
8106	8098	8103	8107	9
8105	8102	8103	8107	9
8111	8110	8118	8112	9
8111	8110	8118	8119	9
8109	8108	5150	5143	9
8109	8108	5150	5152	9
2921	2920	2919	2930	9
2924	2920	2919	2930	9
2923	2918	2919	2930	9
2926	2918	2919	2930	9
2919	2920	2921	2928	9
2924	2920	2921	2928	9
2923	2922	2921	2928	9
2925	2922	2921	2928	9
2928	6522	6512	6511	9
2928	6522	6512	6515	9
2919	2920	2921	2922	9
2919	2918	2923	2922	9
2919	2918	2923	2927	9
2921	2928	6522	6512	9
2921	2928	6522	6524	9
2918	2919	2920	2921	9
2918	2923	2922	2921	9
2921	2922	2923	2927	9
2920	2919	2930	2932	9
2920	2919	2930	2931	9
2920	2919	2918	2923	9
2920	2919	2918	2926	9
2920	2921	2928	2929	9
2920	2921	2928	6522	9
2920	2921	2922	2923	9
2920	2921	2922	2925	9
2918	2919	2930	2932	9
2918	2919	2930	2931	9
2918	2919	2920	2924	9
2918	2923	2922	2925	9
2922	2921	2928	2929	9
2922	2921	2928	6522	9
2922	2921	2920	2924	9
2922	2923	2918	2926	9
2926	2918	2923	2927	9
2925	2922	2923	2927	9
2929	2928	6522	6512	9
2929	2928	6522	6524	9
7853	7852	7851	7862	9
7856	7852	7851	7862	9
7855	7850	7851	7862	9
7858	7850	7851	7862	9
7862	7870	7864	7865	9
7862	7870	7864	7867	9
7851	7852	7853	7860	9
7856	7852	7853	7860	9
7855	7854	7853	7860	9
7857	7854	7853	7860	9
7860	4060	4053	4054	9
7860	4060	4053	4052	9
7851	7862	7870	7864	9
7851	7862	7870	7871	9
7851	7852	7853	7854	9
7851	7850	7855	7854	9
7851	7850	7855	7859	9
7853	7860	4060	4053	9
7853	7860	4060	4062	9
7850	7851	7852	7853	9
7850	7855	7854	7853	9
7853	7854	7855	7859	9
7852	7851	7862	7863	9
7852	7851	7862	7870	9
7852	7851	7850	7855	9
7852	7851	7850	7858	9
7852	7853	7860	7861	9
7852	7853	7860	4060	9
7852	7853	7854	7855	9
7852	7853	7854	7857	9
7850	7851	7862	7863	9
7850	7851	7862	7870	9
7850	7851	7852	7856	9
7850	7855	7854	7857	9
7854	7853	7860	7861	9
7854	7853	7860	4060	9
7854	7853	7852	7856	9
7854	7855	7850	7858	9
7858	7850	7855	7859	9
7857	7854	7855	7859	9
7863	7862	7870	7864	9
7863	7862	7870	7871	9
7861	7860	4060	4053	9
7861	7860	4060	4062	9
11981	11980	11979	11990	9
11984	11980	11979	11990	9
11983	11978	11979	11990	9
11986	11978	11979	11990	9
11990	5339	5332	5331	9
11990	5339	5332	5333	9
11979	11980	11981	11988	9
11984	11980	11981	11988	9
11983	11982	11981	11988	9
11985	11982	11981	11988	9
11988	9511	9504	9505	9
11988	9511	9504	9503	9
11979	11990	5339	5332	9
11979	11990	5339	5341	9
11979	11980	11981	11982	9
11979	11978	11983	11982	9
11979	11978	11983	11987	9
11981	11988	9511	9504	9
11981	11988	9511	9513	9
11978	11979	11980	11981	9
11978	11983	11982	11981	9
11981	11982	11983	11987	9
11980	11979	11990	11991	9
11980	11979	11990	5339	9
11980	11979	11978	11983	9
11980	11979	11978	11986	9
11980	11981	11988	11989	9
11980	11981	11988	9511	9
11980	11981	11982	11983	9
11980	11981	11982	11985	9
11978	11979	11990	11991	9
11978	11979	11990	5339	9
11978	11979	11980	11984	9
11978	11983	11982	11985	9
11982	11981	11988	11989	9
11982	11981	11988	9511	9
11982	11981	11980	11984	9
11982	11983	11978	11986	9
11986	11978	11983	11987	9
11985	11982	11983	11987	9
11991	11990	5339	5332	9
11991	11990	5339	5341	9
11989	11988	9511	9504	9
11989	11988	9511	9513	9
6819	6818	6817	6828	9
6822	6818	6817	6828	9
6821	6816	6817	6828	9
6824	6816	6817	6828	9
6828	6836	6830	6833	9
6828	6836	6830	6831	9
6817	6818	6819	6826	9
6822	6818	6819	6826	9
6821	6820	6819	6826	9
6823	6820	6819	6826	9
6826	6521	6514	6515	9
6826	6521	6514	6513	9
6817	6828	6836	6830	9
6817	6828	6836	6837	9
6817	6818	6819	6820	9
6817	6816	6821	6820	9
6817	6816	6821	6825	9
6819	6826	6521	6514	9
6819	6826	6521	6523	9
6816	6817	6818	6819	9
6816	6821	6820	6819	9
6819	6820	6821	6825	9
6818	6817	6828	6829	9
6818	6817	6828	6836	9
6818	6817	6816	6821	9
6818	6817	6816	6824	9
6818	6819	6826	6827	9
6818	6819	6826	6521	9
6818	6819	6820	6821	9
6818	6819	6820	6823	9
6816	6817	6828	6829	9
6816	6817	6828	6836	9
6816	6817	6818	6822	9
6816	6821	6820	6823	9
6820	6819	6826	6827	9
6820	6819	6826	6521	9
6820	6819	6818	6822	9
6820	6821	6816	6824	9
6824	6816	6821	6825	9
6823	6820	6821	6825	9
6829	6828	6836	6830	9
6829	6828	6836	6837	9
6827	6826	6521	6514	9
6827	6826	6521	6523	9
323	322	321	332	9
326	322	321	332	9
325	320	321	332	9
328	320	321	332	9
332	6064	6058	6059	9
332	6064	6058	6061	9
321	322	323	330	9
326	322	323	330	9
325	324	323	330	9
327	324	323	330	9
337	336	334	330	9
341	336	334	330	9
321	332	6064	6058	9
321	332	6064	6065	9
321	322	323	324	9
321	320	325	324	9
321	320	325	329	9
336	334	330	323	9
335	334	330	323	9
320	321	322	323	9
320	325	324	323	9
323	324	325	329	9
322	321	332	333	9
322	321	332	6064	9
322	321	320	325	9
322	321	320	328	9
322	323	330	331	9
334	330	323	322	9
322	323	324	325	9
322	323	324	327	9
320	321	332	333	9
320	321	332	6064	9
320	321	322	326	9
320	325	324	327	9
324	323	330	331	9
334	330	323	324	9
324	323	322	326	9
324	325	320	328	9
328	320	325	329	9
327	324	325	329	9
333	332	6064	6058	9
333	332	6064	6065	9
336	334	330	331	9
335	334	330	331	9
11393	11392	11391	11402	9
11396	11392	11391	11402	9
11395	11390	11391	11402	9
11398	11390	11391	11402	9
11402	4205	4198	4197	9
11402	4205	4198	4199	9
11391	11392	11393	11400	9
11396	11392	11393	11400	9
11395	11394	11393	11400	9
11397	11394	11393	11400	9
1437	1436	1438	11400	9
1435	1436	1438	11400	9
11391	11402	4205	4198	9
11391	11402	4205	4207	9
11391	11392	11393	11394	9
11391	11390	11395	11394	9
11391	11390	11395	11399	9
1436	1438	11400	11393	9
1439	1438	11400	11393	9
11390	11391	11392	11393	9
11390	11395	11394	11393	9
11393	11394	11395	11399	9
11392	11391	11402	11403	9
11392	11391	11402	4205	9
11392	11391	11390	11395	9
11392	11391	11390	11398	9
11392	11393	11400	11401	9
1438	11400	11393	11392	9
11392	11393	11394	11395	9
11392	11393	11394	11397	9
11390	11391	11402	11403	9
11390	11391	11402	4205	9
11390	11391	11392	11396	9
11390	11395	11394	11397	9
11394	11393	11400	11401	9
1438	11400	11393	11394	9
11394	11393	11392	11396	9
11394	11395	11390	11398	9
11398	11390	11395	11399	9
11397	11394	11395	11399	9
11403	11402	4205	4198	9
11403	11402	4205	4207	9
1436	1438	11400	11401	9
1439	1438	11400	11401	9
7708	7707	7706	7717	9
7711	7707	7706	7717	9
7710	7705	7706	7717	9
7713	7705	7706	7717	9
7717	9936	9926	9925	9
7717	9936	9926	9929	9
7706	7707	7708	7715	9
7711	7707	7708	7715	9
7710	7709	7708	7715	9
7712	7709	7708	7715	9
7715	7725	7719	7720	9
7715	7725	7719	7722	9
7706	7717	9936	9926	9
7706	7717	9936	9938	9
7706	7707	7708	7709	9
7706	7705	7710	7709	9
7706	7705	7710	7714	9
7708	7715	7725	7719	9
7708	7715	7725	7726	9
7705	7706	7707	7708	9
7705	7710	7709	7708	9
7708	7709	7710	7714	9
7707	7706	7717	7718	9
7707	7706	7717	9936	9
7707	7706	7705	7710	9
7707	7706	7705	7713	9
7707	7708	7715	7716	9
7707	7708	7715	7725	9
7707	7708	7709	7710	9
7707	7708	7709	7712	9
7705	7706	7717	7718	9
7705	7706	7717	9936	9
7705	7706	7707	7711	9
7705	7710	7709	7712	9
7709	7708	7715	7716	9
7709	7708	7715	7725	9
7709	7708	7707	7711	9
7709	7710	7705	7713	9
7713	7705	7710	7714	9
7712	7709	7710	7714	9
7718	7717	9936	9926	9
7718	7717	9936	9938	9
7716	7715	7725	7719	9
7716	7715	7725	7726	9
4474	4473	4472	4483	9
4477	4473	4472	4483	9
4476	4471	4472	4483	9
4479	4471	4472	4483	9
4483	4491	4485	4488	9
4483	4491	4485	4486	9
4472	4473	4474	4481	9
4477	4473	4474	4481	9
4476	4475	4474	4481	9
4478	4475	4474	4481	9
4481	8900	8890	8893	9
4481	8900	8890	8889	9
4472	4483	4491	4485	9
4472	4483	4491	4492	9
4472	4473	4474	4475	9
4472	4471	4476	4475	9
4472	4471	4476	4480	9
4474	4481	8900	8890	9
4474	4481	8900	8902	9
4471	4472	4473	4474	9
4471	4476	4475	4474	9
4474	4475	4476	4480	9
4473	4472	4483	4484	9
4473	4472	4483	4491	9
4473	4472	4471	4476	9
4473	4472	4471	4479	9
4473	4474	4481	4482	9
4473	4474	4481	8900	9
4473	4474	4475	4476	9
4473	4474	4475	4478	9
4471	4472	4483	4484	9
4471	4472	4483	4491	9
4471	4472	4473	4477	9
4471	4476	4475	4478	9
4475	4474	4481	4482	9
4475	4474	4481	8900	9
4475	4474	4473	4477	9
4475	4476	4471	4479	9
4479	4471	4476	4480	9
4478	4475	4476	4480	9
4484	4483	4491	4485	9
4484	4483	4491	4492	9
4482	4481	8900	8890	9
4482	4481	8900	8902	9
13577	13576	13575	13586	9
13580	13576	13575	13586	9
13579	13574	13575	13586	9
13582	13574	13575	13586	9
13586	11001	10994	10995	9
13586	11001	10994	10993	9
13575	13576	13577	13584	9
13580	13576	13577	13584	9
13579	13578	13577	13584	9
13581	13578	13577	13584	9
13584	9848	9838	9841	9
13584	9848	9838	9837	9
13575	13586	11001	10994	9
13575	13586	11001	11003	9
13575	13576	13577	13578	9
13575	13574	13579	13578	9
13575	13574	13579	13583	9
13577	13584	9848	9838	9
13577	13584	9848	9850	9
13574	13575	13576	13577	9
13574	13579	13578	13577	9
13577	13578	13579	13583	9
13576	13575	13586	13587	9
13576	13575	13586	11001	9
13576	13575	13574	13579	9
13576	13575	13574	13582	9
13576	13577	13584	13585	9
13576	13577	13584	9848	9
13576	13577	13578	13579	9
13576	13577	13578	13581	9
13574	13575	13586	13587	9
13574	13575	13586	11001	9
13574	13575	13576	13580	9
13574	13579	13578	13581	9
13578	13577	13584	13585	9
13578	13577	13584	9848	9
13578	13577	13576	13580	9
13578	13579	13574	13582	9
13582	13574	13579	13583	9
13581	13578	13579	13583	9
13587	13586	11001	10994	9
13587	13586	11001	11003	9
13585	13584	9848	9838	9
13585	13584	9848	9850	9
6455	6454	6453	6464	9
6458	6454	6453	6464	9
6457	6452	6453	6464	9
6460	6452	6453	6464	9
6464	6472	6466	6469	9
6464	6472	6466	6467	9
6453	6454	6455	6462	9
6458	6454	6455	6462	9
6457	6456	6455	6462	9
6459	6456	6455	6462	9
6462	8022	8012	8011	9
6462	8022	8012	8015	9
6453	6464	6472	6466	9
6453	6464	6472	6473	9
6453	6454	6455	6456	9
6453	6452	6457	6456	9
6453	6452	6457	6461	9
6455	6462	8022	8012	9
6455	6462	8022	8024	9
6452	6453	6454	6455	9
6452	6457	6456	6455	9
6455	6456	6457	6461	9
6454	6453	6464	6465	9
6454	6453	6464	6472	9
6454	6453	6452	6457	9
6454	6453	6452	6460	9
6454	6455	6462	6463	9
6454	6455	6462	8022	9
6454	6455	6456	6457	9
6454	6455	6456	6459	9
6452	6453	6464	6465	9
6452	6453	6464	6472	9
6452	6453	6454	6458	9
6452	6457	6456	6459	9
6456	6455	6462	6463	9
6456	6455	6462	8022	9
6456	6455	6454	6458	9
6456	6457	6452	6460	9
6460	6452	6457	6461	9
6459	6456	6457	6461	9
6465	6464	6472	6466	9
6465	6464	6472	6473	9
6463	6462	8022	8012	9
6463	6462	8022	8024	9
6310	6309	6308	6319	9
6313	6309	6308	6319	9
6312	6307	6308	6319	9
6315	6307	6308	6319	9
6319	6327	6321	6322	9
6319	6327	6321	6324	9
6308	6309	6310	6317	9
6313	6309	6310	6317	9
6312	6311	6310	6317	9
6314	6311	6310	6317	9
6317	10197	10187	10186	9
6317	10197	10187	10190	9
6308	6319	6327	6321	9
6308	6319	6327	6328	9
6308	6309	6310	6311	9
6308	6307	6312	6311	9
6308	6307	6312	6316	9
6310	6317	10197	10187	9
6310	6317	10197	10199	9
6307	6308	6309	6310	9
6307	6312	6311	6310	9
6310	6311	6312	6316	9
6309	6308	6319	6320	9
6309	6308	6319	6327	9
6309	6308	6307	6312	9
6309	6308	6307	6315	9
6309	6310	6317	6318	9
6309	6310	6317	10197	9
6309	6310	6311	6312	9
6309	6310	6311	6314	9
6307	6308	6319	6320	9
6307	6308	6319	6327	9
6307	6308	6309	6313	9
6307	6312	6311	6314	9
6311	6310	6317	6318	9
6311	6310	6317	10197	9
6311	6310	6309	6313	9
6311	6312	6307	6315	9
6315	6307	6312	6316	9
6314	6311	6312	6316	9
6320	6319	6327	6321	9
6320	6319	6327	6328	9
6318	6317	10197	10187	9
6318	6317	10197	10199	9
3611	3610	3609	3620	9
3614	3610	3609	3620	9
3613	3608	3609	3620	9
3616	3608	3609	3620	9
3609	3610	3611	3618	9
3614	3610	3611	3618	9
3613	3612	3611	3618	9
3615	3612	3611	3618	9
3618	10927	10920	10921	9
3618	10927	10920	10919	9
3609	3610	3611	3612	9
3609	3608	3613	3612	9
3609	3608	3613	3617	9
3611	3618	10927	10920	9
3611	3618	10927	10929	9
3608	3609	3610	3611	9
3608	3613	3612	3611	9
3611	3612	3613	3617	9
3610	3609	3620	3622	9
3610	3609	3620	3621	9
3610	3609	3608	3613	9
3610	3609	3608	3616	9
3610	3611	3618	3619	9
3610	3611	3618	10927	9
3610	3611	3612	3613	9
3610	3611	3612	3615	9
3608	3609	3620	3622	9
3608	3609	3620	3621	9
3608	3609	3610	3614	9
3608	3613	3612	3615	9
3612	3611	3618	3619	9
3612	3611	3618	10927	9
3612	3611	3610	3614	9
3612	3613	3608	3616	9
3616	3608	3613	3617	9
3615	3612	3613	3617	9
3619	3618	10927	10920	9
3619	3618	10927	10929	9
12429	12428	12427	12438	9
12432	12428	12427	12438	9
12431	12426	12427	12438	9
12434	12426	12427	12438	9
12438	6041	6031	6034	9
12438	6041	6031	6030	9
12427	12428	12429	12436	9
12432	12428	12429	12436	9
12431	12430	12429	12436	9
12433	12430	12429	12436	9
12436	10942	10935	10934	9
12436	10942	10935	10936	9
12427	12438	6041	6031	9
12427	12438	6041	6043	9
12427	12428	12429	12430	9
12427	12426	12431	12430	9
12427	12426	12431	12435	9
12429	12436	10942	10935	9
12429	12436	10942	10944	9
12426	12427	12428	12429	9
12426	12431	12430	12429	9
12429	12430	12431	12435	9
12428	12427	12438	12439	9
12428	12427	12438	6041	9
12428	12427	12426	12431	9
12428	12427	12426	12434	9
12428	12429	12436	12437	9
12428	12429	12436	10942	9
12428	12429	12430	12431	9
12428	12429	12430	12433	9
12426	12427	12438	12439	9
12426	12427	12438	6041	9
12426	12427	12428	12432	9
12426	12431	12430	12433	9
12430	12429	12436	12437	9
12430	12429	12436	10942	9
12430	12429	12428	12432	9
12430	12431	12426	12434	9
12434	12426	12431	12435	9
12433	12430	12431	12435	9
12439	12438	6041	6031	9
12439	12438	6041	6043	9
12437	12436	10942	10935	9
12437	12436	10942	10944	9
2485	2484	2483	2494	9
2488	2484	2483	2494	9
2487	2482	2483	2494	9
2490	2482	2483	2494	9
2494	7346	7340	7343	9
2494	7346	7340	7341	9
2483	2484	2485	2492	9
2488	2484	2485	2492	9
2487	2486	2485	2492	9
2489	2486	2485	2492	9
2466	2465	2471	2492	9
2468	2465	2471	2492	9
2483	2494	7346	7340	9
2483	2494	7346	7347	9
2483	2484	2485	2486	9
2483	2482	2487	2486	9
2483	2482	2487	2491	9
2465	2471	2492	2485	9
2472	2471	2492	2485	9
2482	2483	2484	2485	9
2482	2487	2486	2485	9
2485	2486	2487	2491	9
2484	2483	2494	2495	9
2484	2483	2494	7346	9
2484	2483	2482	2487	9
2484	2483	2482	2490	9
2484	2485	2492	2493	9
2471	2492	2485	2484	9
2484	2485	2486	2487	9
2484	2485	2486	2489	9
2482	2483	2494	2495	9
2482	2483	2494	7346	9
2482	2483	2484	2488	9
2482	2487	2486	2489	9
2486	2485	2492	2493	9
2471	2492	2485	2486	9
2486	2485	2484	2488	9
2486	2487	2482	2490	9
2490	2482	2487	2491	9
2489	2486	2487	2491	9
2495	2494	7346	7340	9
2495	2494	7346	7347	9
2465	2471	2492	2493	9
2472	2471	2492	2493	9
2966	2965	2964	2975	9
2969	2965	2964	2975	9
2968	2963	2964	2975	9
2971	2963	2964	2975	9
2964	2965	2966	2973	9
2969	2965	2966	2973	9
2968	2967	2966	2973	9
2970	2967	2966	2973	9
2973	6880	6874	6875	9
2973	6880	6874	6877	9
2964	2965	2966	2967	9
2964	2963	2968	2967	9
2964	2963	2968	2972	9
2966	2973	6880	6874	9
2966	2973	6880	6881	9
2963	2964	2965	2966	9
2963	2968	2967	2966	9
2966	2967	2968	2972	9
2965	2964	2975	2977	9
2965	2964	2975	2976	9
2965	2964	2963	2968	9
2965	2964	2963	2971	9
2965	2966	2973	2974	9
2965	2966	2973	6880	9
2965	2966	2967	2968	9
2965	2966	2967	2970	9
2963	2964	2975	2977	9
2963	2964	2975	2976	9
2963	2964	2965	2969	9
2963	2968	2967	2970	9
2967	2966	2973	2974	9
2967	2966	2973	6880	9
2967	2966	2965	2969	9
2967	2968	2963	2971	9
2971	2963	2968	2972	9
2970	2967	2968	2972	9
2974	2973	6880	6874	9
2974	2973	6880	6881	9
6528	6527	6526	6537	9
6531	6527	6526	6537	9
6530	6525	6526	6537	9
6533	6525	6526	6537	9
6537	6545	6539	6540	9
6537	6545	6539	6542	9
6526	6527	6528	6535	9
6531	6527	6528	6535	9
6530	6529	6528	6535	9
6532	6529	6528	6535	9
6535	8060	8054	8055	9
6535	8060	8054	8057	9
6526	6537	6545	6539	9
6526	6537	6545	6546	9
6526	6527	6528	6529	9
6526	6525	6530	6529	9
6526	6525	6530	6534	9
6528	6535	8060	8054	9
6528	6535	8060	8061	9
6525	6526	6527	6528	9
6525	6530	6529	6528	9
6528	6529	6530	6534	9
6527	6526	6537	6538	9
6527	6526	6537	6545	9
6527	6526	6525	6530	9
6527	6526	6525	6533	9
6527	6528	6535	6536	9
6527	6528	6535	8060	9
6527	6528	6529	6530	9
6527	6528	6529	6532	9
6525	6526	6537	6538	9
6525	6526	6537	6545	9
6525	6526	6527	6531	9
6525	6530	6529	6532	9
6529	6528	6535	6536	9
6529	6528	6535	8060	9
6529	6528	6527	6531	9
6529	6530	6525	6533	9
6533	6525	6530	6534	9
6532	6529	6530	6534	9
6538	6537	6545	6539	9
6538	6537	6545	6546	9
6536	6535	8060	8054	9
6536	6535	8060	8061	9
978	977	976	987	9
981	977	976	987	9
980	975	976	987	9
983	975	976	987	9
987	9658	9651	9650	9
987	9658	9651	9652	9
976	977	978	985	9
981	977	978	985	9
980	979	978	985	9
982	979	978	985	9
961	958	964	985	9
959	958	964	985	9
976	987	9658	9651	9
976	987	9658	9660	9
976	977	978	979	9
976	975	980	979	9
976	975	980	984	9
958	964	985	978	9
965	964	985	978	9
975	976	977	978	9
975	980	979	978	9
978	979	980	984	9
977	976	987	988	9
977	976	987	9658	9
977	976	975	980	9
977	976	975	983	9
977	978	985	986	9
964	985	978	977	9
977	978	979	980	9
977	978	979	982	9
975	976	987	988	9
975	976	987	9658	9
975	976	977	981	9
975	980	979	982	9
979	978	985	986	9
964	985	978	979	9
979	978	977	981	9
979	980	975	983	9
983	975	980	984	9
982	979	980	984	9
988	987	9658	9651	9
988	987	9658	9660	9
958	964	985	986	9
965	964	985	986	9
749	748	747	758	9
752	748	747	758	9
751	746	747	758	9
754	746	747	758	9
767	762	760	758	9
763	762	760	758	9
747	748	749	756	9
752	748	749	756	9
751	750	749	756	9
753	750	749	756	9
1282	1281	1279	756	9
1286	1281	1279	756	9
762	760	758	747	9
761	760	758	747	9
747	748	749	750	9
747	746	751	750	9
747	746	751	755	9
1281	1279	756	749	9
1280	1279	756	749	9
746	747	748	749	9
746	751	750	749	9
749	750	751	755	9
748	747	758	759	9
760	758	747	748	9
748	747	746	751	9
748	747	746	754	9
748	749	756	757	9
1279	756	749	748	9
748	749	750	751	9
748	749	750	753	9
746	747	758	759	9
760	758	747	746	9
746	747	748	752	9
746	751	750	753	9
750	749	756	757	9
1279	756	749	750	9
750	749	748	752	9
750	751	746	754	9
754	746	751	755	9
753	750	751	755	9
762	760	758	759	9
761	760	758	759	9
1281	1279	756	757	9
1280	1279	756	757	9
1296	1297	1298	1305	9
1301	1297	1298	1305	9
1300	1299	1298	1305	9
1302	1299	1298	1305	9
1312	1311	1309	1305	9
1316	1311	1309	1305	9
1298	1297	1296	1307	9
1301	1297	1296	1307	9
1300	1295	1296	1307	9
1303	1295	1296	1307	9
1307	5538	5532	5533	9
1307	5538	5532	5535	9
1311	1309	1305	1298	9
1310	1309	1305	1298	9
1298	1297	1296	1295	9
1298	1299	1300	1295	9
1298	1299	1300	1304	9
1296	1307	5538	5532	9
1296	1307	5538	5539	9
1299	1298	1297	1296	9
1299	1300	1295	1296	9
1296	1295	1300	1304	9
1297	1298	1305	1306	9
1309	1305	1298	1297	9
1297	1298	1299	1300	9
1297	1298	1299	1302	9
1297	1296	1307	1308	9
1297	1296	1307	5538	9
1297	1296	1295	1300	9
1297	1296	1295	1303	9
1299	1298	1305	1306	9
1309	1305	1298	1299	9
1299	1298	1297	1301	9
1299	1300	1295	1303	9
1295	1296	1307	1308	9
1295	1296	1307	5538	9
1295	1296	1297	1301	9
1295	1300	1299	1302	9
1302	1299	1300	1304	9
1303	1295	1300	1304	9
1311	1309	1305	1306	9
1310	1309	1305	1306	9
1308	1307	5538	5532	9
1308	1307	5538	5539	9
3746	3745	3744	3755	9
3749	3745	3744	3755	9
3748	3743	3744	3755	9
3751	3743	3744	3755	9
3744	3745	3746	3753	9
3749	3745	3746	3753	9
3748	3747	3746	3753	9
3750	3747	3746	3753	9
1449	1450	1457	3753	9
1451	1450	1457	3753	9
3744	3745	3746	3747	9
3744	3743	3748	3747	9
3744	3743	3748	3752	9
1450	1457	3753	3746	9
1459	1457	3753	3746	9
3743	3744	3745	3746	9
3743	3748	3747	3746	9
3746	3747	3748	3752	9
3745	3744	3755	3757	9
3745	3744	3755	3756	9
3745	3744	3743	3748	9
3745	3744	3743	3751	9
3745	3746	3753	3754	9
1457	3753	3746	3745	9
3745	3746	3747	3748	9
3745	3746	3747	3750	9
3743	3744	3755	3757	9
3743	3744	3755	3756	9
3743	3744	3745	3749	9
3743	3748	3747	3750	9
3747	3746	3753	3754	9
1457	3753	3746	3747	9
3747	3746	3745	3749	9
3747	3748	3743	3751	9
3751	3743	3748	3752	9
3750	3747	3748	3752	9
1450	1457	3753	3754	9
1459	1457	3753	3754	9
12093	12092	12091	12102	9
12096	12092	12091	12102	9
12095	12090	12091	12102	9
12098	12090	12091	12102	9
12102	9599	9592	9591	9
12102	9599	9592	9593	9
12091	12092	12093	12100	9
12096	12092	12093	12100	9
12095	12094	12093	12100	9
12097	12094	12093	12100	9
12100	5543	5536	5535	9
12100	5543	5536	5537	9
12091	12102	9599	9592	9
12091	12102	9599	9601	9
12091	12092	12093	12094	9
12091	12090	12095	12094	9
12091	12090	12095	12099	9
12093	12100	5543	5536	9
12093	12100	5543	5545	9
12090	12091	12092	12093	9
12090	12095	12094	12093	9
12093	12094	12095	12099	9
12092	12091	12102	12103	9
12092	12091	12102	9599	9
12092	12091	12090	12095	9
12092	12091	12090	12098	9
12092	12093	12100	12101	9
12092	12093	12100	5543	9
12092	12093	12094	12095	9
12092	12093	12094	12097	9
12090	12091	12102	12103	9
12090	12091	12102	9599	9
12090	12091	12092	12096	9
12090	12095	12094	12097	9
12094	12093	12100	12101	9
12094	12093	12100	5543	9
12094	12093	12092	12096	9
12094	12095	12090	12098	9
12098	12090	12095	12099	9
12097	12094	12095	12099	9
12103	12102	9599	9592	9
12103	12102	9599	9601	9
12101	12100	5543	5536	9
12101	12100	5543	5545	9
13309	13310	13311	13318	9
13314	13310	13311	13318	9
13313	13312	13311	13318	9
13315	13312	13311	13318	9
13318	8564	8554	8553	9
13318	8564	8554	8557	9
13311	13310	13309	13320	9
13314	13310	13309	13320	9
13313	13308	13309	13320	9
13316	13308	13309	13320	9
13320	8330	8320	8323	9
13320	8330	8320	8319	9
13311	13318	8564	8554	9
13311	13318	8564	8566	9
13311	13310	13309	13308	9
13311	13312	13313	13308	9
13311	13312	13313	13317	9
13309	13320	8330	8320	9
13309	13320	8330	8332	9
13312	13311	13310	13309	9
13312	13313	13308	13309	9
13309	13308	13313	13317	9
13310	13311	13318	13319	9
13310	13311	13318	8564	9
13310	13311	13312	13313	9
13310	13311	13312	13315	9
13310	13309	13320	13321	9
13310	13309	13320	8330	9
13310	13309	13308	13313	9
13310	13309	13308	13316	9
13312	13311	13318	13319	9
13312	13311	13318	8564	9
13312	13311	13310	13314	9
13312	13313	13308	13316	9
13308	13309	13320	13321	9
13308	13309	13320	8330	9
13308	13309	13310	13314	9
13308	13313	13312	13315	9
13315	13312	13313	13317	9
13316	13308	13313	13317	9
13319	13318	8564	8554	9
13319	13318	8564	8566	9
13321	13320	8330	8320	9
13321	13320	8330	8332	9
12051	12050	12049	12060	9
12054	12050	12049	12060	9
12053	12048	12049	12060	9
12056	12048	12049	12060	9
12060	5500	5490	5493	9
12060	5500	5490	5489	9
12049	12050	12051	12058	9
12054	12050	12051	12058	9
12053	12052	12051	12058	9
12055	12052	12051	12058	9
12058	5689	5682	5683	9
12058	5689	5682	5681	9
12049	12060	5500	5490	9
12049	12060	5500	5502	9
12049	12050	12051	12052	9
12049	12048	12053	12052	9
12049	12048	12053	12057	9
12051	12058	5689	5682	9
12051	12058	5689	5691	9
12048	12049	12050	12051	9
12048	12053	12052	12051	9
12051	12052	12053	12057	9
12050	12049	12060	12061	9
12050	12049	12060	5500	9
12050	12049	12048	12053	9
12050	12049	12048	12056	9
12050	12051	12058	12059	9
12050	12051	12058	5689	9
12050	12051	12052	12053	9
12050	12051	12052	12055	9
12048	12049	12060	12061	9
12048	12049	12060	5500	9
12048	12049	12050	12054	9
12048	12053	12052	12055	9
12052	12051	12058	12059	9
12052	12051	12058	5689	9
12052	12051	12050	12054	9
12052	12053	12048	12056	9
12056	12048	12053	12057	9
12055	12052	12053	12057	9
12061	12060	5500	5490	9
12061	12060	5500	5502	9
12059	12058	5689	5682	9
12059	12058	5689	5691	9
9140	9139	9138	9149	9
9143	9139	9138	9149	9
9142	9137	9138	9149	9
9145	9137	9138	9149	9
9149	9157	9151	9154	9
9149	9157	9151	9152	9
9138	9139	9140	9147	9
9143	9139	9140	9147	9
9142	9141	9140	9147	9
9144	9141	9140	9147	9
9147	4860	4850	4849	9
9147	4860	4850	4853	9
9138	9149	9157	9151	9
9138	9149	9157	9158	9
9138	9139	9140	9141	9
9138	9137	9142	9141	9
9138	9137	9142	9146	9
9140	9147	4860	4850	9
9140	9147	4860	4862	9
9137	9138	9139	9140	9
9137	9142	9141	9140	9
9140	9141	9142	9146	9
9139	9138	9149	9150	9
9139	9138	9149	9157	9
9139	9138	9137	9142	9
9139	9138	9137	9145	9
9139	9140	9147	9148	9
9139	9140	9147	4860	9
9139	9140	9141	9142	9
9139	9140	9141	9144	9
9137	9138	9149	9150	9
9137	9138	9149	9157	9
9137	9138	9139	9143	9
9137	9142	9141	9144	9
9141	9140	9147	9148	9
9141	9140	9147	4860	9
9141	9140	9139	9143	9
9141	9142	9137	9145	9
9145	9137	9142	9146	9
9144	9141	9142	9146	9
9150	9149	9157	9151	9
9150	9149	9157	9158	9
9148	9147	4860	4850	9
9148	9147	4860	4862	9
1161	1160	1159	1170	9
1164	1160	1159	1170	9
1163	1158	1159	1170	9
1166	1158	1159	1170	9
1170	5772	5766	5769	9
1170	5772	5766	5767	9
1159	1160	1161	1168	9
1164	1160	1161	1168	9
1163	1162	1161	1168	9
1165	1162	1161	1168	9
1175	1174	1172	1168	9
1179	1174	1172	1168	9
1159	1170	5772	5766	9
1159	1170	5772	5773	9
1159	1160	1161	1162	9
1159	1158	1163	1162	9
1159	1158	1163	1167	9
1174	1172	1168	1161	9
1173	1172	1168	1161	9
1158	1159	1160	1161	9
1158	1163	1162	1161	9
1161	1162	1163	1167	9
1160	1159	1170	1171	9
1160	1159	1170	5772	9
1160	1159	1158	1163	9
1160	1159	1158	1166	9
1160	1161	1168	1169	9
1172	1168	1161	1160	9
1160	1161	1162	1163	9
1160	1161	1162	1165	9
1158	1159	1170	1171	9
1158	1159	1170	5772	9
1158	1159	1160	1164	9
1158	1163	1162	1165	9
1162	1161	1168	1169	9
1172	1168	1161	1162	9
1162	1161	1160	1164	9
1162	1163	1158	1166	9
1166	1158	1163	1167	9
1165	1162	1163	1167	9
1171	1170	5772	5766	9
1171	1170	5772	5773	9
1174	1172	1168	1169	9
1173	1172	1168	1169	9
12863	12862	12861	12872	9
12866	12862	12861	12872	9
12865	12860	12861	12872	9
12868	12860	12861	12872	9
12872	7148	7138	7141	9
12872	7148	7138	7137	9
12861	12862	12863	12870	9
12866	12862	12863	12870	9
12865	12864	12863	12870	9
12867	12864	12863	12870	9
12870	7366	7359	7358	9
12870	7366	7359	7360	9
12861	12872	7148	7138	9
12861	12872	7148	7150	9
12861	12862	12863	12864	9
12861	12860	12865	12864	9
12861	12860	12865	12869	9
12863	12870	7366	7359	9
12863	12870	7366	7368	9
12860	12861	12862	12863	9
12860	12865	12864	12863	9
12863	12864	12865	12869	9
12862	12861	12872	12873	9
12862	12861	12872	7148	9
12862	12861	12860	12865	9
12862	12861	12860	12868	9
12862	12863	12870	12871	9
12862	12863	12870	7366	9
12862	12863	12864	12865	9
12862	12863	12864	12867	9
12860	12861	12872	12873	9
12860	12861	12872	7148	9
12860	12861	12862	12866	9
12860	12865	12864	12867	9
12864	12863	12870	12871	9
12864	12863	12870	7366	9
12864	12863	12862	12866	9
12864	12865	12860	12868	9
12868	12860	12865	12869	9
12867	12864	12865	12869	9
12873	12872	7148	7138	9
12873	12872	7148	7150	9
12871	12870	7366	7359	9
12871	12870	7366	7368	9
3461	3460	3459	3470	9
3464	3460	3459	3470	9
3463	3458	3459	3470	9
3466	3458	3459	3470	9
3459	3460	3461	3468	9
3464	3460	3461	3468	9
3463	3462	3461	3468	9
3465	3462	3461	3468	9
3468	9615	9605	9608	9
3468	9615	9605	9604	9
3459	3460	3461	3462	9
3459	3458	3463	3462	9
3459	3458	3463	3467	9
3461	3468	9615	9605	9
3461	3468	9615	9617	9
3458	3459	3460	3461	9
3458	3463	3462	3461	9
3461	3462	3463	3467	9
3460	3459	3470	3471	9
3460	3459	3470	3472	9
3460	3459	3458	3463	9
3460	3459	3458	3466	9
3460	3461	3468	3469	9
3460	3461	3468	9615	9
3460	3461	3462	3463	9
3460	3461	3462	3465	9
3458	3459	3470	3471	9
3458	3459	3470	3472	9
3458	3459	3460	3464	9
3458	3463	3462	3465	9
3462	3461	3468	3469	9
3462	3461	3468	9615	9
3462	3461	3460	3464	9
3462	3463	3458	3466	9
3466	3458	3463	3467	9
3465	3462	3463	3467	9
3469	3468	9615	9605	9
3469	3468	9615	9617	9
3039	3040	3041	3048	9
3044	3040	3041	3048	9
3043	3042	3041	3048	9
3045	3042	3041	3048	9
3048	7536	7530	7531	9
3048	7536	7530	7533	9
3041	3040	3039	3050	9
3044	3040	3039	3050	9
3043	3038	3039	3050	9
3046	3038	3039	3050	9
3041	3048	7536	7530	9
3041	3048	7536	7537	9
3038	3039	3040	3041	9
3038	3043	3042	3041	9
3041	3042	3043	3047	9
3039	3040	3041	3042	9
3039	3038	3043	3042	9
3039	3038	3043	3047	9
3040	3041	3048	3049	9
3040	3041	3048	7536	9
3040	3041	3042	3043	9
3040	3041	3042	3045	9
3040	3039	3050	3052	9
3040	3039	3050	3051	9
3040	3039	3038	3043	9
3040	3039	3038	3046	9
3042	3041	3048	3049	9
3042	3041	3048	7536	9
3042	3041	3040	3044	9
3042	3043	3038	3046	9
3038	3039	3050	3052	9
3038	3039	3050	3051	9
3038	3039	3040	3044	9
3038	3043	3042	3045	9
3045	3042	3043	3047	9
3046	3038	3043	3047	9
3049	3048	7536	7530	9
3049	3048	7536	7537	9
12723	12722	12721	12732	9
12726	12722	12721	12732	9
12725	12720	12721	12732	9
12728	12720	12721	12732	9
12732	6813	6803	6802	9
12732	6813	6803	6806	9
12721	12722	12723	12730	9
12726	12722	12723	12730	9
12725	12724	12723	12730	9
12727	12724	12723	12730	9
12730	6682	6672	6671	9
12730	6682	6672	6675	9
12721	12732	6813	6803	9
12721	12732	6813	6815	9
12721	12722	12723	12724	9
12721	12720	12725	12724	9
12721	12720	12725	12729	9
12723	12730	6682	6672	9
12723	12730	6682	6684	9
12720	12721	12722	12723	9
12720	12725	12724	12723	9
12723	12724	12725	12729	9
12722	12721	12732	12733	9
12722	12721	12732	6813	9
12722	12721	12720	12725	9
12722	12721	12720	12728	9
12722	12723	12730	12731	9
12722	12723	12730	6682	9
12722	12723	12724	12725	9
12722	12723	12724	12727	9
12720	12721	12732	12733	9
12720	12721	12732	6813	9
12720	12721	12722	12726	9
12720	12725	12724	12727	9
12724	12723	12730	12731	9
12724	12723	12730	6682	9
12724	12723	12722	12726	9
12724	12725	12720	12728	9
12728	12720	12725	12729	9
12727	12724	12725	12729	9
12733	12732	6813	6803	9
12733	12732	6813	6815	9
12731	12730	6682	6672	9
12731	12730	6682	6684	9
3056	3055	3054	3065	9
3059	3055	3054	3065	9
3058	3053	3054	3065	9
3061	3053	3054	3065	9
3054	3055	3056	3063	9
3059	3055	3056	3063	9
3058	3057	3056	3063	9
3060	3057	3056	3063	9
3063	7609	7603	7606	9
3063	7609	7603	7604	9
3054	3055	3056	3057	9
3054	3053	3058	3057	9
3054	3053	3058	3062	9
3056	3063	7609	7603	9
3056	3063	7609	7610	9
3053	3054	3055	3056	9
3053	3058	3057	3056	9
3056	3057	3058	3062	9
3055	3054	3065	3067	9
3055	3054	3065	3066	9
3055	3054	3053	3058	9
3055	3054	3053	3061	9
3055	3056	3063	3064	9
3055	3056	3063	7609	9
3055	3056	3057	3058	9
3055	3056	3057	3060	9
3053	3054	3065	3067	9
3053	3054	3065	3066	9
3053	3054	3055	3059	9
3053	3058	3057	3060	9
3057	3056	3063	3064	9
3057	3056	3063	7609	9
3057	3056	3055	3059	9
3057	3058	3053	3061	9
3061	3053	3058	3062	9
3060	3057	3058	3062	9
3064	3063	7609	7603	9
3064	3063	7609	7610	9
8072	8071	8070	8081	9
8075	8071	8070	8081	9
8074	8069	8070	8081	9
8077	8069	8070	8081	9
8081	8089	8083	8084	9
8081	8089	8083	8086	9
8070	8071	8072	8079	9
8075	8071	8072	8079	9
8074	8073	8072	8079	9
8076	8073	8072	8079	9
8079	8066	8056	8055	9
8079	8066	8056	8059	9
8070	8081	8089	8083	9
8070	8081	8089	8090	9
8070	8071	8072	8073	9
8070	8069	8074	8073	9
8070	8069	8074	8078	9
8072	8079	8066	8056	9
8072	8079	8066	8068	9
8069	8070	8071	8072	9
8069	8074	8073	8072	9
8072	8073	8074	8078	9
8071	8070	8081	8082	9
8071	8070	8081	8089	9
8071	8070	8069	8074	9
8071	8070	8069	8077	9
8071	8072	8079	8080	9
8071	8072	8079	8066	9
8071	8072	8073	8074	9
8071	8072	8073	8076	9
8069	8070	8081	8082	9
8069	8070	8081	8089	9
8069	8070	8071	8075	9
8069	8074	8073	8076	9
8073	8072	8079	8080	9
8073	8072	8079	8066	9
8073	8072	8071	8075	9
8073	8074	8069	8077	9
8077	8069	8074	8078	9
8076	8073	8074	8078	9
8082	8081	8089	8083	9
8082	8081	8089	8090	9
8080	8079	8066	8056	9
8080	8079	8066	8068	9
12457	12456	12455	12466	9
12460	12456	12455	12466	9
12459	12454	12455	12466	9
12462	12454	12455	12466	9
12466	6127	6120	6121	9
12466	6127	6120	6119	9
12455	12456	12457	12464	9
12460	12456	12457	12464	9
12459	12458	12457	12464	9
12461	12458	12457	12464	9
12464	7031	7024	7025	9
12464	7031	7024	7023	9
12455	12466	6127	6120	9
12455	12466	6127	6129	9
12455	12456	12457	12458	9
12455	12454	12459	12458	9
12455	12454	12459	12463	9
12457	12464	7031	7024	9
12457	12464	7031	7033	9
12454	12455	12456	12457	9
12454	12459	12458	12457	9
12457	12458	12459	12463	9
12456	12455	12466	12467	9
12456	12455	12466	6127	9
12456	12455	12454	12459	9
12456	12455	12454	12462	9
12456	12457	12464	12465	9
12456	12457	12464	7031	9
12456	12457	12458	12459	9
12456	12457	12458	12461	9
12454	12455	12466	12467	9
12454	12455	12466	6127	9
12454	12455	12456	12460	9
12454	12459	12458	12461	9
12458	12457	12464	12465	9
12458	12457	12464	7031	9
12458	12457	12456	12460	9
12458	12459	12454	12462	9
12462	12454	12459	12463	9
12461	12458	12459	12463	9
12467	12466	6127	6120	9
12467	12466	6127	6129	9
12465	12464	7031	7024	9
12465	12464	7031	7033	9
4038	4037	4036	4047	9
4041	4037	4036	4047	9
4040	4035	4036	4047	9
4043	4035	4036	4047	9
4047	4055	4049	4050	9
4047	4055	4049	4052	9
4036	4037	4038	4045	9
4041	4037	4038	4045	9
4040	4039	4038	4045	9
4042	4039	4038	4045	9
4045	8988	8978	8977	9
4045	8988	8978	8981	9
4036	4047	4055	4049	9
4036	4047	4055	4056	9
4036	4037	4038	4039	9
4036	4035	4040	4039	9
4036	4035	4040	4044	9
4038	4045	8988	8978	9
4038	4045	8988	8990	9
4035	4036	4037	4038	9
4035	4040	4039	4038	9
4038	4039	4040	4044	9
4037	4036	4047	4048	9
4037	4036	4047	4055	9
4037	4036	4035	4040	9
4037	4036	4035	4043	9
4037	4038	4045	4046	9
4037	4038	4045	8988	9
4037	4038	4039	4040	9
4037	4038	4039	4042	9
4035	4036	4047	4048	9
4035	4036	4047	4055	9
4035	4036	4037	4041	9
4035	4040	4039	4042	9
4039	4038	4045	4046	9
4039	4038	4045	8988	9
4039	4038	4037	4041	9
4039	4040	4035	4043	9
4043	4035	4040	4044	9
4042	4039	4040	4044	9
4048	4047	4055	4049	9
4048	4047	4055	4056	9
4046	4045	8988	8978	9
4046	4045	8988	8990	9
11701	11700	11699	11710	9
11704	11700	11699	11710	9
11703	11698	11699	11710	9
11706	11698	11699	11710	9
11710	4757	4750	4749	9
11710	4757	4750	4751	9
11699	11700	11701	11708	9
11704	11700	11701	11708	9
11703	11702	11701	11708	9
11705	11702	11701	11708	9
11708	6812	6805	6806	9
11708	6812	6805	6804	9
11699	11710	4757	4750	9
11699	11710	4757	4759	9
11699	11700	11701	11702	9
11699	11698	11703	11702	9
11699	11698	11703	11707	9
11701	11708	6812	6805	9
11701	11708	6812	6814	9
11698	11699	11700	11701	9
11698	11703	11702	11701	9
11701	11702	11703	11707	9
11700	11699	11710	11711	9
11700	11699	11710	4757	9
11700	11699	11698	11703	9
11700	11699	11698	11706	9
11700	11701	11708	11709	9
11700	11701	11708	6812	9
11700	11701	11702	11703	9
11700	11701	11702	11705	9
11698	11699	11710	11711	9
11698	11699	11710	4757	9
11698	11699	11700	11704	9
11698	11703	11702	11705	9
11702	11701	11708	11709	9
11702	11701	11708	6812	9
11702	11701	11700	11704	9
11702	11703	11698	11706	9
11706	11698	11703	11707	9
11705	11702	11703	11707	9
11711	11710	4757	4750	9
11711	11710	4757	4759	9
11709	11708	6812	6805	9
11709	11708	6812	6814	9
9343	9342	9341	9352	9
9346	9342	9341	9352	9
9345	9340	9341	9352	9
9348	9340	9341	9352	9
9352	9360	9354	9357	9
9352	9360	9354	9355	9
9341	9342	9343	9350	9
9346	9342	9343	9350	9
9345	9344	9343	9350	9
9347	9344	9343	9350	9
9350	10168	10158	10157	9
9350	10168	10158	10161	9
9341	9352	9360	9354	9
9341	9352	9360	9361	9
9341	9342	9343	9344	9
9341	9340	9345	9344	9
9341	9340	9345	9349	9
9343	9350	10168	10158	9
9343	9350	10168	10170	9
9340	9341	9342	9343	9
9340	9345	9344	9343	9
9343	9344	9345	9349	9
9342	9341	9352	9353	9
9342	9341	9352	9360	9
9342	9341	9340	9345	9
9342	9341	9340	9348	9
9342	9343	9350	9351	9
9342	9343	9350	10168	9
9342	9343	9344	9345	9
9342	9343	9344	9347	9
9340	9341	9352	9353	9
9340	9341	9352	9360	9
9340	9341	9342	9346	9
9340	9345	9344	9347	9
9344	9343	9350	9351	9
9344	9343	9350	10168	9
9344	9343	9342	9346	9
9344	9345	9340	9348	9
9348	9340	9345	9349	9
9347	9344	9345	9349	9
9353	9352	9360	9354	9
9353	9352	9360	9361	9
9351	9350	10168	10158	9
9351	9350	10168	10170	9
12751	12750	12749	12760	9
12754	12750	12749	12760	9
12753	12748	12749	12760	9
12756	12748	12749	12760	9
1680	1679	1681	12760	9
1678	1679	1681	12760	9
12749	12750	12751	12758	9
12754	12750	12751	12758	9
12753	12752	12751	12758	9
12755	12752	12751	12758	9
12758	6740	6730	6729	9
12758	6740	6730	6733	9
1679	1681	12760	12749	9
1682	1681	12760	12749	9
12749	12750	12751	12752	9
12749	12748	12753	12752	9
12749	12748	12753	12757	9
12751	12758	6740	6730	9
12751	12758	6740	6742	9
12748	12749	12750	12751	9
12748	12753	12752	12751	9
12751	12752	12753	12757	9
12750	12749	12760	12761	9
1681	12760	12749	12750	9
12750	12749	12748	12753	9
12750	12749	12748	12756	9
12750	12751	12758	12759	9
12750	12751	12758	6740	9
12750	12751	12752	12753	9
12750	12751	12752	12755	9
12748	12749	12760	12761	9
1681	12760	12749	12748	9
12748	12749	12750	12754	9
12748	12753	12752	12755	9
12752	12751	12758	12759	9
12752	12751	12758	6740	9
12752	12751	12750	12754	9
12752	12753	12748	12756	9
12756	12748	12753	12757	9
12755	12752	12753	12757	9
1679	1681	12760	12761	9
1682	1681	12760	12761	9
12759	12758	6740	6730	9
12759	12758	6740	6742	9
13759	13758	13757	13768	9
13762	13758	13757	13768	9
13761	13756	13757	13768	9
13764	13756	13757	13768	9
1954	1955	1957	13768	9
1956	1955	1957	13768	9
13757	13758	13759	13766	9
13762	13758	13759	13766	9
13761	13760	13759	13766	9
13763	13760	13759	13766	9
523	522	524	13766	9
521	522	524	13766	9
1955	1957	13768	13757	9
1958	1957	13768	13757	9
13757	13758	13759	13760	9
13757	13756	13761	13760	9
13757	13756	13761	13765	9
522	524	13766	13759	9
525	524	13766	13759	9
13756	13757	13758	13759	9
13756	13761	13760	13759	9
13759	13760	13761	13765	9
13758	13757	13768	13769	9
1957	13768	13757	13758	9
13758	13757	13756	13761	9
13758	13757	13756	13764	9
13758	13759	13766	13767	9
524	13766	13759	13758	9
13758	13759	13760	13761	9
13758	13759	13760	13763	9
13756	13757	13768	13769	9
1957	13768	13757	13756	9
13756	13757	13758	13762	9
13756	13761	13760	13763	9
13760	13759	13766	13767	9
524	13766	13759	13760	9
13760	13759	13758	13762	9
13760	13761	13756	13764	9
13764	13756	13761	13765	9
13763	13760	13761	13765	9
1955	1957	13768	13769	9
1958	1957	13768	13769	9
522	524	13766	13767	9
525	524	13766	13767	9
10467	10466	10465	10476	9
10470	10466	10465	10476	9
10469	10464	10465	10476	9
10472	10464	10465	10476	9
10476	10484	10478	10479	9
10476	10484	10478	10481	9
10465	10466	10467	10474	9
10470	10466	10467	10474	9
10469	10468	10467	10474	9
10471	10468	10467	10474	9
10474	6156	6149	6150	9
10474	6156	6149	6148	9
10465	10476	10484	10478	9
10465	10476	10484	10485	9
10465	10466	10467	10468	9
10465	10464	10469	10468	9
10465	10464	10469	10473	9
10467	10474	6156	6149	9
10467	10474	6156	6158	9
10464	10465	10466	10467	9
10464	10469	10468	10467	9
10467	10468	10469	10473	9
10466	10465	10476	10477	9
10466	10465	10476	10484	9
10466	10465	10464	10469	9
10466	10465	10464	10472	9
10466	10467	10474	10475	9
10466	10467	10474	6156	9
10466	10467	10468	10469	9
10466	10467	10468	10471	9
10464	10465	10476	10477	9
10464	10465	10476	10484	9
10464	10465	10466	10470	9
10464	10469	10468	10471	9
10468	10467	10474	10475	9
10468	10467	10474	6156	9
10468	10467	10466	10470	9
10468	10469	10464	10472	9
10472	10464	10469	10473	9
10471	10468	10469	10473	9
10477	10476	10484	10478	9
10477	10476	10484	10485	9
10475	10474	6156	6149	9
10475	10474	6156	6158	9
9562	9561	9560	9571	9
9565	9561	9560	9571	9
9564	9559	9560	9571	9
9567	9559	9560	9571	9
9571	9579	9573	9574	9
9571	9579	9573	9576	9
9560	9561	9562	9569	9
9565	9561	9562	9569	9
9564	9563	9562	9569	9
9566	9563	9562	9569	9
9569	4119	4109	4108	9
9569	4119	4109	4112	9
9560	9571	9579	9573	9
9560	9571	9579	9580	9
9560	9561	9562	9563	9
9560	9559	9564	9563	9
9560	9559	9564	9568	9
9562	9569	4119	4109	9
9562	9569	4119	4121	9
9559	9560	9561	9562	9
9559	9564	9563	9562	9
9562	9563	9564	9568	9
9561	9560	9571	9572	9
9561	9560	9571	9579	9
9561	9560	9559	9564	9
9561	9560	9559	9567	9
9561	9562	9569	9570	9
9561	9562	9569	4119	9
9561	9562	9563	9564	9
9561	9562	9563	9566	9
9559	9560	9571	9572	9
9559	9560	9571	9579	9
9559	9560	9561	9565	9
9559	9564	9563	9566	9
9563	9562	9569	9570	9
9563	9562	9569	4119	9
9563	9562	9561	9565	9
9563	9564	9559	9567	9
9567	9559	9564	9568	9
9566	9563	9564	9568	9
9572	9571	9579	9573	9
9572	9571	9579	9580	9
9570	9569	4119	4109	9
9570	9569	4119	4121	9
3759	3760	3761	3768	9
3764	3760	3761	3768	9
3763	3762	3761	3768	9
3765	3762	3761	3768	9
2362	2363	2365	3768	9
2364	2363	2365	3768	9
3761	3760	3759	3770	9
3764	3760	3759	3770	9
3763	3758	3759	3770	9
3766	3758	3759	3770	9
2363	2365	3768	3761	9
2366	2365	3768	3761	9
3758	3759	3760	3761	9
3758	3763	3762	3761	9
3761	3762	3763	3767	9
3759	3760	3761	3762	9
3759	3758	3763	3762	9
3759	3758	3763	3767	9
3760	3761	3768	3769	9
2365	3768	3761	3760	9
3760	3761	3762	3763	9
3760	3761	3762	3765	9
3760	3759	3770	3771	9
3760	3759	3770	3772	9
3760	3759	3758	3763	9
3760	3759	3758	3766	9
3762	3761	3768	3769	9
2365	3768	3761	3762	9
3762	3761	3760	3764	9
3762	3763	3758	3766	9
3758	3759	3770	3771	9
3758	3759	3770	3772	9
3758	3759	3760	3764	9
3758	3763	3762	3765	9
3765	3762	3763	3767	9
3766	3758	3763	3767	9
2363	2365	3768	3769	9
2366	2365	3768	3769	9
12443	12442	12441	12452	9
12446	12442	12441	12452	9
12445	12440	12441	12452	9
12448	12440	12441	12452	9
12452	6070	6060	6063	9
12452	6070	6060	6059	9
12441	12442	12443	12450	9
12446	12442	12443	12450	9
12445	12444	12443	12450	9
12447	12444	12443	12450	9
12450	7542	7532	7531	9
12450	7542	7532	7535	9
12441	12452	6070	6060	9
12441	12452	6070	6072	9
12441	12442	12443	12444	9
12441	12440	12445	12444	9
12441	12440	12445	12449	9
12443	12450	7542	7532	9
12443	12450	7542	7544	9
12440	12441	12442	12443	9
12440	12445	12444	12443	9
12443	12444	12445	12449	9
12442	12441	12452	12453	9
12442	12441	12452	6070	9
12442	12441	12440	12445	9
12442	12441	12440	12448	9
12442	12443	12450	12451	9
12442	12443	12450	7542	9
12442	12443	12444	12445	9
12442	12443	12444	12447	9
12440	12441	12452	12453	9
12440	12441	12452	6070	9
12440	12441	12442	12446	9
12440	12445	12444	12447	9
12444	12443	12450	12451	9
12444	12443	12450	7542	9
12444	12443	12442	12446	9
12444	12445	12440	12448	9
12448	12440	12445	12449	9
12447	12444	12445	12449	9
12453	12452	6070	6060	9
12453	12452	6070	6072	9
12451	12450	7542	7532	9
12451	12450	7542	7544	9
13381	13380	13379	13390	9
13384	13380	13379	13390	9
13383	13378	13379	13390	9
13386	13378	13379	13390	9
13390	8607	8600	8601	9
13390	8607	8600	8599	9
13379	13380	13381	13388	9
13384	13380	13381	13388	9
13383	13382	13381	13388	9
13385	13382	13381	13388	9
13388	9629	9622	9623	9
13388	9629	9622	9621	9
13379	13390	8607	8600	9
13379	13390	8607	8609	9
13379	13380	13381	13382	9
13379	13378	13383	13382	9
13379	13378	13383	13387	9
13381	13388	9629	9622	9
13381	13388	9629	9631	9
13378	13379	13380	13381	9
13378	13383	13382	13381	9
13381	13382	13383	13387	9
13380	13379	13390	13391	9
13380	13379	13390	8607	9
13380	13379	13378	13383	9
13380	13379	13378	13386	9
13380	13381	13388	13389	9
13380	13381	13388	9629	9
13380	13381	13382	13383	9
13380	13381	13382	13385	9
13378	13379	13390	13391	9
13378	13379	13390	8607	9
13378	13379	13380	13384	9
13378	13383	13382	13385	9
13382	13381	13388	13389	9
13382	13381	13388	9629	9
13382	13381	13380	13384	9
13382	13383	13378	13386	9
13386	13378	13383	13387	9
13385	13382	13383	13387	9
13391	13390	8607	8600	9
13391	13390	8607	8609	9
13389	13388	9629	9622	9
13389	13388	9629	9631	9
596	595	594	605	9
599	595	594	605	9
598	593	594	605	9
601	593	594	605	9
610	609	607	605	9
614	609	607	605	9
594	595	596	603	9
599	595	596	603	9
598	597	596	603	9
600	597	596	603	9
603	4336	4329	4328	9
603	4336	4329	4330	9
609	607	605	594	9
608	607	605	594	9
594	595	596	597	9
594	593	598	597	9
594	593	598	602	9
596	603	4336	4329	9
596	603	4336	4338	9
593	594	595	596	9
593	598	597	596	9
596	597	598	602	9
595	594	605	606	9
607	605	594	595	9
595	594	593	598	9
595	594	593	601	9
595	596	603	604	9
595	596	603	4336	9
595	596	597	598	9
595	596	597	600	9
593	594	605	606	9
607	605	594	593	9
593	594	595	599	9
593	598	597	600	9
597	596	603	604	9
597	596	603	4336	9
597	596	595	599	9
597	598	593	601	9
601	593	598	602	9
600	597	598	602	9
609	607	605	606	9
608	607	605	606	9
604	603	4336	4329	9
604	603	4336	4338	9
13353	13352	13351	13362	9
13356	13352	13351	13362	9
13355	13350	13351	13362	9
13358	13350	13351	13362	9
13362	8374	8364	8363	9
13362	8374	8364	8367	9
13351	13352	13353	13360	9
13356	13352	13353	13360	9
13355	13354	13353	13360	9
13357	13354	13353	13360	9
13360	8446	8439	8438	9
13360	8446	8439	8440	9
13351	13362	8374	8364	9
13351	13362	8374	8376	9
13351	13352	13353	13354	9
13351	13350	13355	13354	9
13351	13350	13355	13359	9
13353	13360	8446	8439	9
13353	13360	8446	8448	9
13350	13351	13352	13353	9
13350	13355	13354	13353	9
13353	13354	13355	13359	9
13352	13351	13362	13363	9
13352	13351	13362	8374	9
13352	13351	13350	13355	9
13352	13351	13350	13358	9
13352	13353	13360	13361	9
13352	13353	13360	8446	9
13352	13353	13354	13355	9
13352	13353	13354	13357	9
13350	13351	13362	13363	9
13350	13351	13362	8374	9
13350	13351	13352	13356	9
13350	13355	13354	13357	9
13354	13353	13360	13361	9
13354	13353	13360	8446	9
13354	13353	13352	13356	9
13354	13355	13350	13358	9
13358	13350	13355	13359	9
13357	13354	13355	13359	9
13363	13362	8374	8364	9
13363	13362	8374	8376	9
13361	13360	8446	8439	9
13361	13360	8446	8448	9
12889	12890	12891	12898	9
12894	12890	12891	12898	9
12893	12892	12891	12898	9
12895	12892	12891	12898	9
12898	7978	7968	7971	9
12898	7978	7968	7967	9
12891	12890	12889	12900	9
12894	12890	12889	12900	9
12893	12888	12889	12900	9
12896	12888	12889	12900	9
12900	7307	7300	7301	9
12900	7307	7300	7299	9
12891	12898	7978	7968	9
12891	12898	7978	7980	9
12891	12890	12889	12888	9
12891	12892	12893	12888	9
12891	12892	12893	12897	9
12889	12900	7307	7300	9
12889	12900	7307	7309	9
12892	12891	12890	12889	9
12892	12893	12888	12889	9
12889	12888	12893	12897	9
12890	12891	12898	12899	9
12890	12891	12898	7978	9
12890	12891	12892	12893	9
12890	12891	12892	12895	9
12890	12889	12900	12901	9
12890	12889	12900	7307	9
12890	12889	12888	12893	9
12890	12889	12888	12896	9
12892	12891	12898	12899	9
12892	12891	12898	7978	9
12892	12891	12890	12894	9
12892	12893	12888	12896	9
12888	12889	12900	12901	9
12888	12889	12900	7307	9
12888	12889	12890	12894	9
12888	12893	12892	12895	9
12895	12892	12893	12897	9
12896	12888	12893	12897	9
12899	12898	7978	7968	9
12899	12898	7978	7980	9
12901	12900	7307	7300	9
12901	12900	7307	7309	9
2739	2740	2741	2748	9
2744	2740	2741	2748	9
2743	2742	2741	2748	9
2745	2742	2741	2748	9
2748	5208	5201	5200	9
2748	5208	5201	5202	9
2741	2740	2739	2750	9
2744	2740	2739	2750	9
2743	2738	2739	2750	9
2746	2738	2739	2750	9
2741	2748	5208	5201	9
2741	2748	5208	5210	9
2738	2739	2740	2741	9
2738	2743	2742	2741	9
2741	2742	2743	2747	9
2739	2740	2741	2742	9
2739	2738	2743	2742	9
2739	2738	2743	2747	9
2740	2741	2748	2749	9
2740	2741	2748	5208	9
2740	2741	2742	2743	9
2740	2741	2742	2745	9
2740	2739	2750	2751	9
2740	2739	2750	2752	9
2740	2739	2738	2743	9
2740	2739	2738	2746	9
2742	2741	2748	2749	9
2742	2741	2748	5208	9
2742	2741	2740	2744	9
2742	2743	2738	2746	9
2738	2739	2750	2751	9
2738	2739	2750	2752	9
2738	2739	2740	2744	9
2738	2743	2742	2745	9
2745	2742	2743	2747	9
2746	2738	2743	2747	9
2749	2748	5208	5201	9
2749	2748	5208	5210	9
1770	1769	1768	1779	9
1773	1769	1768	1779	9
1772	1767	1768	1779	9
1775	1767	1768	1779	9
1779	10357	10350	10351	9
1779	10357	10350	10349	9
1768	1769	1770	1777	9
1773	1769	1770	1777	9
1772	1771	1770	1777	9
1774	1771	1770	1777	9
1751	1750	1756	1777	9
1753	1750	1756	1777	9
1768	1779	10357	10350	9
1768	1779	10357	10359	9
1768	1769	1770	1771	9
1768	1767	1772	1771	9
1768	1767	1772	1776	9
1750	1756	1777	1770	9
1757	1756	1777	1770	9
1767	1768	1769	1770	9
1767	1772	1771	1770	9
1770	1771	1772	1776	9
1769	1768	1779	1780	9
1769	1768	1779	10357	9
1769	1768	1767	1772	9
1769	1768	1767	1775	9
1769	1770	1777	1778	9
1756	1777	1770	1769	9
1769	1770	1771	1772	9
1769	1770	1771	1774	9
1767	1768	1779	1780	9
1767	1768	1779	10357	9
1767	1768	1769	1773	9
1767	1772	1771	1774	9
1771	1770	1777	1778	9
1756	1777	1770	1771	9
1771	1770	1769	1773	9
1771	1772	1767	1775	9
1775	1767	1772	1776	9
1774	1771	1772	1776	9
1780	1779	10357	10350	9
1780	1779	10357	10359	9
1750	1756	1777	1778	9
1757	1756	1777	1778	9
11053	11052	11051	11062	9
11056	11052	11051	11062	9
11055	11050	11051	11062	9
11058	11050	11051	11062	9
2533	2532	2534	11062	9
2531	2532	2534	11062	9
11051	11052	11053	11060	9
11056	11052	11053	11060	9
11055	11054	11053	11060	9
11057	11054	11053	11060	9
11060	11070	11064	11065	9
11060	11070	11064	11067	9
2532	2534	11062	11051	9
2535	2534	11062	11051	9
11051	11052	11053	11054	9
11051	11050	11055	11054	9
11051	11050	11055	11059	9
11053	11060	11070	11064	9
11053	11060	11070	11071	9
11050	11051	11052	11053	9
11050	11055	11054	11053	9
11053	11054	11055	11059	9
11052	11051	11062	11063	9
2534	11062	11051	11052	9
11052	11051	11050	11055	9
11052	11051	11050	11058	9
11052	11053	11060	11061	9
11052	11053	11060	11070	9
11052	11053	11054	11055	9
11052	11053	11054	11057	9
11050	11051	11062	11063	9
2534	11062	11051	11050	9
11050	11051	11052	11056	9
11050	11055	11054	11057	9
11054	11053	11060	11061	9
11054	11053	11060	11070	9
11054	11053	11052	11056	9
11054	11055	11050	11058	9
11058	11050	11055	11059	9
11057	11054	11055	11059	9
2532	2534	11062	11063	9
2535	2534	11062	11063	9
11061	11060	11070	11064	9
11061	11060	11070	11071	9
887	886	885	896	9
890	886	885	896	9
889	884	885	896	9
892	884	885	896	9
896	9163	9153	9156	9
896	9163	9153	9152	9
885	886	887	894	9
890	886	887	894	9
889	888	887	894	9
891	888	887	894	9
870	867	873	894	9
868	867	873	894	9
885	896	9163	9153	9
885	896	9163	9165	9
885	886	887	888	9
885	884	889	888	9
885	884	889	893	9
867	873	894	887	9
874	873	894	887	9
884	885	886	887	9
884	889	888	887	9
887	888	889	893	9
886	885	896	897	9
886	885	896	9163	9
886	885	884	889	9
886	885	884	892	9
886	887	894	895	9
873	894	887	886	9
886	887	888	889	9
886	887	888	891	9
884	885	896	897	9
884	885	896	9163	9
884	885	886	890	9
884	889	888	891	9
888	887	894	895	9
873	894	887	888	9
888	887	886	890	9
888	889	884	892	9
892	884	889	893	9
891	888	889	893	9
897	896	9163	9153	9
897	896	9163	9165	9
867	873	894	895	9
874	873	894	895	9
3521	3520	3519	3530	9
3524	3520	3519	3530	9
3523	3518	3519	3530	9
3526	3518	3519	3530	9
3519	3520	3521	3528	9
3524	3520	3521	3528	9
3523	3522	3521	3528	9
3525	3522	3521	3528	9
3528	9993	9986	9985	9
3528	9993	9986	9987	9
3519	3520	3521	3522	9
3519	3518	3523	3522	9
3519	3518	3523	3527	9
3521	3528	9993	9986	9
3521	3528	9993	9995	9
3518	3519	3520	3521	9
3518	3523	3522	3521	9
3521	3522	3523	3527	9
3520	3519	3530	3531	9
3520	3519	3530	3532	9
3520	3519	3518	3523	9
3520	3519	3518	3526	9
3520	3521	3528	3529	9
3520	3521	3528	9993	9
3520	3521	3522	3523	9
3520	3521	3522	3525	9
3518	3519	3530	3531	9
3518	3519	3530	3532	9
3518	3519	3520	3524	9
3518	3523	3522	3525	9
3522	3521	3528	3529	9
3522	3521	3528	9993	9
3522	3521	3520	3524	9
3522	3523	3518	3526	9
3526	3518	3523	3527	9
3525	3522	3523	3527	9
3529	3528	9993	9986	9
3529	3528	9993	9995	9
12933	12932	12931	12942	9
12936	12932	12931	12942	9
12935	12930	12931	12942	9
12938	12930	12931	12942	9
12942	7367	7357	7360	9
12942	7367	7357	7356	9
12931	12932	12933	12940	9
12936	12932	12933	12940	9
12935	12934	12933	12940	9
12937	12934	12933	12940	9
12940	8821	8815	8816	9
12940	8821	8815	8818	9
12931	12942	7367	7357	9
12931	12942	7367	7369	9
12931	12932	12933	12934	9
12931	12930	12935	12934	9
12931	12930	12935	12939	9
12933	12940	8821	8815	9
12933	12940	8821	8822	9
12930	12931	12932	12933	9
12930	12935	12934	12933	9
12933	12934	12935	12939	9
12932	12931	12942	12943	9
12932	12931	12942	7367	9
12932	12931	12930	12935	9
12932	12931	12930	12938	9
12932	12933	12940	12941	9
12932	12933	12940	8821	9
12932	12933	12934	12935	9
12932	12933	12934	12937	9
12930	12931	12942	12943	9
12930	12931	12942	7367	9
12930	12931	12932	12936	9
12930	12935	12934	12937	9
12934	12933	12940	12941	9
12934	12933	12940	8821	9
12934	12933	12932	12936	9
12934	12935	12930	12938	9
12938	12930	12935	12939	9
12937	12934	12935	12939	9
12943	12942	7367	7357	9
12943	12942	7367	7369	9
12941	12940	8821	8815	9
12941	12940	8821	8822	9
2423	2422	2421	2432	9
2426	2422	2421	2432	9
2425	2420	2421	2432	9
2428	2420	2421	2432	9
2432	8418	8408	8407	9
2432	8418	8408	8411	9
2421	2422	2423	2430	9
2426	2422	2423	2430	9
2425	2424	2423	2430	9
2427	2424	2423	2430	9
2404	2403	2409	2430	9
2406	2403	2409	2430	9
2421	2432	8418	8408	9
2421	2432	8418	8420	9
2421	2422	2423	2424	9
2421	2420	2425	2424	9
2421	2420	2425	2429	9
2403	2409	2430	2423	9
2410	2409	2430	2423	9
2420	2421	2422	2423	9
2420	2425	2424	2423	9
2423	2424	2425	2429	9
2422	2421	2432	2433	9
2422	2421	2432	8418	9
2422	2421	2420	2425	9
2422	2421	2420	2428	9
2422	2423	2430	2431	9
2409	2430	2423	2422	9
2422	2423	2424	2425	9
2422	2423	2424	2427	9
2420	2421	2432	2433	9
2420	2421	2432	8418	9
2420	2421	2422	2426	9
2420	2425	2424	2427	9
2424	2423	2430	2431	9
2409	2430	2423	2424	9
2424	2423	2422	2426	9
2424	2425	2420	2428	9
2428	2420	2425	2429	9
2427	2424	2425	2429	9
2433	2432	8418	8408	9
2433	2432	8418	8420	9
2403	2409	2430	2431	9
2410	2409	2430	2431	9
9372	9371	9370	9381	9
9375	9371	9370	9381	9
9374	9369	9370	9381	9
9377	9369	9370	9381	9
9381	9389	9383	9386	9
9381	9389	9383	9384	9
9370	9371	9372	9379	9
9375	9371	9372	9379	9
9374	9373	9372	9379	9
9376	9373	9372	9379	9
9379	10796	10789	10790	9
9379	10796	10789	10788	9
9370	9381	9389	9383	9
9370	9381	9389	9390	9
9370	9371	9372	9373	9
9370	9369	9374	9373	9
9370	9369	9374	9378	9
9372	9379	10796	10789	9
9372	9379	10796	10798	9
9369	9370	9371	9372	9
9369	9374	9373	9372	9
9372	9373	9374	9378	9
9371	9370	9381	9382	9
9371	9370	9381	9389	9
9371	9370	9369	9374	9
9371	9370	9369	9377	9
9371	9372	9379	9380	9
9371	9372	9379	10796	9
9371	9372	9373	9374	9
9371	9372	9373	9376	9
9369	9370	9381	9382	9
9369	9370	9381	9389	9
9369	9370	9371	9375	9
9369	9374	9373	9376	9
9373	9372	9379	9380	9
9373	9372	9379	10796	9
9373	9372	9371	9375	9
9373	9374	9369	9377	9
9377	9369	9374	9378	9
9376	9373	9374	9378	9
9382	9381	9389	9383	9
9382	9381	9389	9390	9
9380	9379	10796	10789	9
9380	9379	10796	10798	9
12301	12302	12303	12310	9
12306	12302	12303	12310	9
12305	12304	12303	12310	9
12307	12304	12303	12310	9
12310	5806	5799	5798	9
12310	5806	5799	5800	9
12303	12302	12301	12312	9
12306	12302	12301	12312	9
12305	12300	12301	12312	9
12308	12300	12301	12312	9
12312	8724	8717	8716	9
12312	8724	8717	8718	9
12303	12310	5806	5799	9
12303	12310	5806	5808	9
12303	12302	12301	12300	9
12303	12304	12305	12300	9
12303	12304	12305	12309	9
12301	12312	8724	8717	9
12301	12312	8724	8726	9
12304	12303	12302	12301	9
12304	12305	12300	12301	9
12301	12300	12305	12309	9
12302	12303	12310	12311	9
12302	12303	12310	5806	9
12302	12303	12304	12305	9
12302	12303	12304	12307	9
12302	12301	12312	12313	9
12302	12301	12312	8724	9
12302	12301	12300	12305	9
12302	12301	12300	12308	9
12304	12303	12310	12311	9
12304	12303	12310	5806	9
12304	12303	12302	12306	9
12304	12305	12300	12308	9
12300	12301	12312	12313	9
12300	12301	12312	8724	9
12300	12301	12302	12306	9
12300	12305	12304	12307	9
12307	12304	12305	12309	9
12308	12300	12305	12309	9
12311	12310	5806	5799	9
12311	12310	5806	5808	9
12313	12312	8724	8717	9
12313	12312	8724	8726	9
8189	8188	8187	8198	9
8192	8188	8187	8198	9
8191	8186	8187	8198	9
8194	8186	8187	8198	9
8198	8206	8200	8201	9
8198	8206	8200	8203	9
8187	8188	8189	8196	9
8192	8188	8189	8196	9
8191	8190	8189	8196	9
8193	8190	8189	8196	9
8196	9907	9897	9900	9
8196	9907	9897	9896	9
8187	8198	8206	8200	9
8187	8198	8206	8207	9
8187	8188	8189	8190	9
8187	8186	8191	8190	9
8187	8186	8191	8195	9
8189	8196	9907	9897	9
8189	8196	9907	9909	9
8186	8187	8188	8189	9
8186	8191	8190	8189	9
8189	8190	8191	8195	9
8188	8187	8198	8199	9
8188	8187	8198	8206	9
8188	8187	8186	8191	9
8188	8187	8186	8194	9
8188	8189	8196	8197	9
8188	8189	8196	9907	9
8188	8189	8190	8191	9
8188	8189	8190	8193	9
8186	8187	8198	8199	9
8186	8187	8198	8206	9
8186	8187	8188	8192	9
8186	8191	8190	8193	9
8190	8189	8196	8197	9
8190	8189	8196	9907	9
8190	8189	8188	8192	9
8190	8191	8186	8194	9
8194	8186	8191	8195	9
8193	8190	8191	8195	9
8199	8198	8206	8200	9
8199	8198	8206	8207	9
8197	8196	9907	9897	9
8197	8196	9907	9909	9
13521	13520	13519	13530	9
13524	13520	13519	13530	9
13523	13518	13519	13530	9
13526	13518	13519	13530	9
13530	9438	9431	9430	9
13530	9438	9431	9432	9
13519	13520	13521	13528	9
13524	13520	13521	13528	9
13523	13522	13521	13528	9
13525	13522	13521	13528	9
13528	9105	9095	9094	9
13528	9105	9095	9098	9
13519	13530	9438	9431	9
13519	13530	9438	9440	9
13519	13520	13521	13522	9
13519	13518	13523	13522	9
13519	13518	13523	13527	9
13521	13528	9105	9095	9
13521	13528	9105	9107	9
13518	13519	13520	13521	9
13518	13523	13522	13521	9
13521	13522	13523	13527	9
13520	13519	13530	13531	9
13520	13519	13530	9438	9
13520	13519	13518	13523	9
13520	13519	13518	13526	9
13520	13521	13528	13529	9
13520	13521	13528	9105	9
13520	13521	13522	13523	9
13520	13521	13522	13525	9
13518	13519	13530	13531	9
13518	13519	13530	9438	9
13518	13519	13520	13524	9
13518	13523	13522	13525	9
13522	13521	13528	13529	9
13522	13521	13528	9105	9
13522	13521	13520	13524	9
13522	13523	13518	13526	9
13526	13518	13523	13527	9
13525	13522	13523	13527	9
13531	13530	9438	9431	9
13531	13530	9438	9440	9
13529	13528	9105	9095	9
13529	13528	9105	9107	9
9636	9635	9634	9645	9
9639	9635	9634	9645	9
9638	9633	9634	9645	9
9641	9633	9634	9645	9
9645	5020	5010	5009	9
9645	5020	5010	5013	9
9634	9635	9636	9643	9
9639	9635	9636	9643	9
9638	9637	9636	9643	9
9640	9637	9636	9643	9
9643	9659	9649	9648	9
9643	9659	9649	9652	9
9634	9645	5020	5010	9
9634	9645	5020	5022	9
9634	9635	9636	9637	9
9634	9633	9638	9637	9
9634	9633	9638	9642	9
9636	9643	9659	9649	9
9636	9643	9659	9661	9
9633	9634	9635	9636	9
9633	9638	9637	9636	9
9636	9637	9638	9642	9
9635	9634	9645	9646	9
9635	9634	9645	5020	9
9635	9634	9633	9638	9
9635	9634	9633	9641	9
9635	9636	9643	9644	9
9635	9636	9643	9659	9
9635	9636	9637	9638	9
9635	9636	9637	9640	9
9633	9634	9645	9646	9
9633	9634	9645	5020	9
9633	9634	9635	9639	9
9633	9638	9637	9640	9
9637	9636	9643	9644	9
9637	9636	9643	9659	9
9637	9636	9635	9639	9
9637	9638	9633	9641	9
9641	9633	9638	9642	9
9640	9637	9638	9642	9
9646	9645	5020	5010	9
9646	9645	5020	5022	9
9644	9643	9659	9649	9
9644	9643	9659	9661	9
4009	4008	4007	4018	9
4012	4008	4007	4018	9
4011	4006	4007	4018	9
4014	4006	4007	4018	9
4018	4026	4020	4021	9
4018	4026	4020	4023	9
4007	4008	4009	4016	9
4012	4008	4009	4016	9
4011	4010	4009	4016	9
4013	4010	4009	4016	9
4016	7600	7590	7593	9
4016	7600	7590	7589	9
4007	4018	4026	4020	9
4007	4018	4026	4027	9
4007	4008	4009	4010	9
4007	4006	4011	4010	9
4007	4006	4011	4015	9
4009	4016	7600	7590	9
4009	4016	7600	7602	9
4006	4007	4008	4009	9
4006	4011	4010	4009	9
4009	4010	4011	4015	9
4008	4007	4018	4019	9
4008	4007	4018	4026	9
4008	4007	4006	4011	9
4008	4007	4006	4014	9
4008	4009	4016	4017	9
4008	4009	4016	7600	9
4008	4009	4010	4011	9
4008	4009	4010	4013	9
4006	4007	4018	4019	9
4006	4007	4018	4026	9
4006	4007	4008	4012	9
4006	4011	4010	4013	9
4010	4009	4016	4017	9
4010	4009	4016	7600	9
4010	4009	4008	4012	9
4010	4011	4006	4014	9
4014	4006	4011	4015	9
4013	4010	4011	4015	9
4019	4018	4026	4020	9
4019	4018	4026	4027	9
4017	4016	7600	7590	9
4017	4016	7600	7602	9
8539	8540	8541	8548	9
8544	8540	8541	8548	9
8543	8542	8541	8548	9
8545	8542	8541	8548	9
2547	2546	2553	8548	9
2545	2546	2553	8548	9
8541	8540	8539	8550	9
8544	8540	8539	8550	9
8543	8538	8539	8550	9
8546	8538	8539	8550	9
8550	8558	8552	8553	9
8550	8558	8552	8555	9
2546	2553	8548	8541	9
2555	2553	8548	8541	9
8541	8540	8539	8538	9
8541	8542	8543	8538	9
8541	8542	8543	8547	9
8539	8550	8558	8552	9
8539	8550	8558	8559	9
8542	8541	8540	8539	9
8542	8543	8538	8539	9
8539	8538	8543	8547	9
8540	8541	8548	8549	9
2553	8548	8541	8540	9
8540	8541	8542	8543	9
8540	8541	8542	8545	9
8540	8539	8550	8551	9
8540	8539	8550	8558	9
8540	8539	8538	8543	9
8540	8539	8538	8546	9
8542	8541	8548	8549	9
2553	8548	8541	8542	9
8542	8541	8540	8544	9
8542	8543	8538	8546	9
8538	8539	8550	8551	9
8538	8539	8550	8558	9
8538	8539	8540	8544	9
8538	8543	8542	8545	9
8545	8542	8543	8547	9
8546	8538	8543	8547	9
2546	2553	8548	8549	9
2555	2553	8548	8549	9
8551	8550	8558	8552	9
8551	8550	8558	8559	9
7621	7620	7619	7630	9
7624	7620	7619	7630	9
7623	7618	7619	7630	9
7626	7618	7619	7630	9
7630	7638	7632	7635	9
7630	7638	7632	7633	9
7619	7620	7621	7628	9
7624	7620	7621	7628	9
7623	7622	7621	7628	9
7625	7622	7621	7628	9
7628	7905	7895	7898	9
7628	7905	7895	7894	9
7619	7630	7638	7632	9
7619	7630	7638	7639	9
7619	7620	7621	7622	9
7619	7618	7623	7622	9
7619	7618	7623	7627	9
7621	7628	7905	7895	9
7621	7628	7905	7907	9
7618	7619	7620	7621	9
7618	7623	7622	7621	9
7621	7622	7623	7627	9
7620	7619	7630	7631	9
7620	7619	7630	7638	9
7620	7619	7618	7623	9
7620	7619	7618	7626	9
7620	7621	7628	7629	9
7620	7621	7628	7905	9
7620	7621	7622	7623	9
7620	7621	7622	7625	9
7618	7619	7630	7631	9
7618	7619	7630	7638	9
7618	7619	7620	7624	9
7618	7623	7622	7625	9
7622	7621	7628	7629	9
7622	7621	7628	7905	9
7622	7621	7620	7624	9
7622	7623	7618	7626	9
7626	7618	7623	7627	9
7625	7622	7623	7627	9
7631	7630	7638	7632	9
7631	7630	7638	7639	9
7629	7628	7905	7895	9
7629	7628	7905	7907	9
11743	11742	11741	11752	9
11746	11742	11741	11752	9
11745	11740	11741	11752	9
11748	11740	11741	11752	9
11752	8928	8921	8920	9
11752	8928	8921	8922	9
11741	11742	11743	11750	9
11746	11742	11743	11750	9
11745	11744	11743	11750	9
11747	11744	11743	11750	9
11750	4831	4821	4824	9
11750	4831	4821	4820	9
11741	11752	8928	8921	9
11741	11752	8928	8930	9
11741	11742	11743	11744	9
11741	11740	11745	11744	9
11741	11740	11745	11749	9
11743	11750	4831	4821	9
11743	11750	4831	4833	9
11740	11741	11742	11743	9
11740	11745	11744	11743	9
11743	11744	11745	11749	9
11742	11741	11752	11753	9
11742	11741	11752	8928	9
11742	11741	11740	11745	9
11742	11741	11740	11748	9
11742	11743	11750	11751	9
11742	11743	11750	4831	9
11742	11743	11744	11745	9
11742	11743	11744	11747	9
11740	11741	11752	11753	9
11740	11741	11752	8928	9
11740	11741	11742	11746	9
11740	11745	11744	11747	9
11744	11743	11750	11751	9
11744	11743	11750	4831	9
11744	11743	11742	11746	9
11744	11745	11740	11748	9
11748	11740	11745	11749	9
11747	11744	11745	11749	9
11753	11752	8928	8921	9
11753	11752	8928	8930	9
11751	11750	4831	4821	9
11751	11750	4831	4833	9
11771	11770	11769	11780	9
11774	11770	11769	11780	9
11773	11768	11769	11780	9
11776	11768	11769	11780	9
11780	9307	9300	9301	9
11780	9307	9300	9299	9
11769	11770	11771	11778	9
11774	11770	11771	11778	9
11773	11772	11771	11778	9
11775	11772	11771	11778	9
11778	4859	4852	4853	9
11778	4859	4852	4851	9
11769	11780	9307	9300	9
11769	11780	9307	9309	9
11769	11770	11771	11772	9
11769	11768	11773	11772	9
11769	11768	11773	11777	9
11771	11778	4859	4852	9
11771	11778	4859	4861	9
11768	11769	11770	11771	9
11768	11773	11772	11771	9
11771	11772	11773	11777	9
11770	11769	11780	11781	9
11770	11769	11780	9307	9
11770	11769	11768	11773	9
11770	11769	11768	11776	9
11770	11771	11778	11779	9
11770	11771	11778	4859	9
11770	11771	11772	11773	9
11770	11771	11772	11775	9
11768	11769	11780	11781	9
11768	11769	11780	9307	9
11768	11769	11770	11774	9
11768	11773	11772	11775	9
11772	11771	11778	11779	9
11772	11771	11778	4859	9
11772	11771	11770	11774	9
11772	11773	11768	11776	9
11776	11768	11773	11777	9
11775	11772	11773	11777	9
11781	11780	9307	9300	9
11781	11780	9307	9309	9
11779	11778	4859	4852	9
11779	11778	4859	4861	9
3864	3863	3862	3873	9
3867	3863	3862	3873	9
3866	3861	3862	3873	9
3869	3861	3862	3873	9
3873	3881	3875	3878	9
3873	3881	3875	3876	9
3862	3863	3864	3871	9
3867	3863	3864	3871	9
3866	3865	3864	3871	9
3868	3865	3864	3871	9
3871	9221	9211	9214	9
3871	9221	9211	9210	9
3862	3873	3881	3875	9
3862	3873	3881	3882	9
3862	3863	3864	3865	9
3862	3861	3866	3865	9
3862	3861	3866	3870	9
3864	3871	9221	9211	9
3864	3871	9221	9223	9
3861	3862	3863	3864	9
3861	3866	3865	3864	9
3864	3865	3866	3870	9
3863	3862	3873	3874	9
3863	3862	3873	3881	9
3863	3862	3861	3866	9
3863	3862	3861	3869	9
3863	3864	3871	3872	9
3863	3864	3871	9221	9
3863	3864	3865	3866	9
3863	3864	3865	3868	9
3861	3862	3873	3874	9
3861	3862	3873	3881	9
3861	3862	3863	3867	9
3861	3866	3865	3868	9
3865	3864	3871	3872	9
3865	3864	3871	9221	9
3865	3864	3863	3867	9
3865	3866	3861	3869	9
3869	3861	3866	3870	9
3868	3865	3866	3870	9
3874	3873	3881	3875	9
3874	3873	3881	3882	9
3872	3871	9221	9211	9
3872	3871	9221	9223	9
9445	9444	9443	9454	9
9448	9444	9443	9454	9
9447	9442	9443	9454	9
9450	9442	9443	9454	9
9454	7919	7912	7913	9
9454	7919	7912	7911	9
9443	9444	9445	9452	9
9448	9444	9445	9452	9
9447	9446	9445	9452	9
9449	9446	9445	9452	9
9452	9462	9456	9457	9
9452	9462	9456	9459	9
9443	9454	7919	7912	9
9443	9454	7919	7921	9
9443	9444	9445	9446	9
9443	9442	9447	9446	9
9443	9442	9447	9451	9
9445	9452	9462	9456	9
9445	9452	9462	9463	9
9442	9443	9444	9445	9
9442	9447	9446	9445	9
9445	9446	9447	9451	9
9444	9443	9454	9455	9
9444	9443	9454	7919	9
9444	9443	9442	9447	9
9444	9443	9442	9450	9
9444	9445	9452	9453	9
9444	9445	9452	9462	9
9444	9445	9446	9447	9
9444	9445	9446	9449	9
9442	9443	9454	9455	9
9442	9443	9454	7919	9
9442	9443	9444	9448	9
9442	9447	9446	9449	9
9446	9445	9452	9453	9
9446	9445	9452	9462	9
9446	9445	9444	9448	9
9446	9447	9442	9450	9
9450	9442	9447	9451	9
9449	9446	9447	9451	9
9455	9454	7919	7912	9
9455	9454	7919	7921	9
9453	9452	9462	9456	9
9453	9452	9462	9463	9
4590	4589	4588	4599	9
4593	4589	4588	4599	9
4592	4587	4588	4599	9
4595	4587	4588	4599	9
4599	4607	4601	4602	9
4599	4607	4601	4604	9
4588	4589	4590	4597	9
4593	4589	4590	4597	9
4592	4591	4590	4597	9
4594	4591	4590	4597	9
4597	8182	8175	8176	9
4597	8182	8175	8174	9
4588	4599	4607	4601	9
4588	4599	4607	4608	9
4588	4589	4590	4591	9
4588	4587	4592	4591	9
4588	4587	4592	4596	9
4590	4597	8182	8175	9
4590	4597	8182	8184	9
4587	4588	4589	4590	9
4587	4592	4591	4590	9
4590	4591	4592	4596	9
4589	4588	4599	4600	9
4589	4588	4599	4607	9
4589	4588	4587	4592	9
4589	4588	4587	4595	9
4589	4590	4597	4598	9
4589	4590	4597	8182	9
4589	4590	4591	4592	9
4589	4590	4591	4594	9
4587	4588	4599	4600	9
4587	4588	4599	4607	9
4587	4588	4589	4593	9
4587	4592	4591	4594	9
4591	4590	4597	4598	9
4591	4590	4597	8182	9
4591	4590	4589	4593	9
4591	4592	4587	4595	9
4595	4587	4592	4596	9
4594	4591	4592	4596	9
4600	4599	4607	4601	9
4600	4599	4607	4608	9
4598	4597	8182	8175	9
4598	4597	8182	8184	9
12625	12624	12623	12634	9
12628	12624	12623	12634	9
12627	12622	12623	12634	9
12630	12622	12623	12634	9
12634	10826	10816	10819	9
12634	10826	10816	10815	9
12623	12624	12625	12632	9
12628	12624	12625	12632	9
12627	12626	12625	12632	9
12629	12626	12625	12632	9
12632	6449	6439	6438	9
12632	6449	6439	6442	9
12623	12634	10826	10816	9
12623	12634	10826	10828	9
12623	12624	12625	12626	9
12623	12622	12627	12626	9
12623	12622	12627	12631	9
12625	12632	6449	6439	9
12625	12632	6449	6451	9
12622	12623	12624	12625	9
12622	12627	12626	12625	9
12625	12626	12627	12631	9
12624	12623	12634	12635	9
12624	12623	12634	10826	9
12624	12623	12622	12627	9
12624	12623	12622	12630	9
12624	12625	12632	12633	9
12624	12625	12632	6449	9
12624	12625	12626	12627	9
12624	12625	12626	12629	9
12622	12623	12634	12635	9
12622	12623	12634	10826	9
12622	12623	12624	12628	9
12622	12627	12626	12629	9
12626	12625	12632	12633	9
12626	12625	12632	6449	9
12626	12625	12624	12628	9
12626	12627	12622	12630	9
12630	12622	12627	12631	9
12629	12626	12627	12631	9
12635	12634	10826	10816	9
12635	12634	10826	10828	9
12633	12632	6449	6439	9
12633	12632	6449	6451	9
12877	12876	12875	12886	9
12880	12876	12875	12886	9
12879	12874	12875	12886	9
12882	12874	12875	12886	9
12886	7249	7242	7241	9
12886	7249	7242	7243	9
12875	12876	12877	12884	9
12880	12876	12877	12884	9
12879	12878	12877	12884	9
12881	12878	12877	12884	9
12884	10490	10480	10479	9
12884	10490	10480	10483	9
12875	12886	7249	7242	9
12875	12886	7249	7251	9
12875	12876	12877	12878	9
12875	12874	12879	12878	9
12875	12874	12879	12883	9
12877	12884	10490	10480	9
12877	12884	10490	10492	9
12874	12875	12876	12877	9
12874	12879	12878	12877	9
12877	12878	12879	12883	9
12876	12875	12886	12887	9
12876	12875	12886	7249	9
12876	12875	12874	12879	9
12876	12875	12874	12882	9
12876	12877	12884	12885	9
12876	12877	12884	10490	9
12876	12877	12878	12879	9
12876	12877	12878	12881	9
12874	12875	12886	12887	9
12874	12875	12886	7249	9
12874	12875	12876	12880	9
12874	12879	12878	12881	9
12878	12877	12884	12885	9
12878	12877	12884	10490	9
12878	12877	12876	12880	9
12878	12879	12874	12882	9
12882	12874	12879	12883	9
12881	12878	12879	12883	9
12887	12886	7249	7242	9
12887	12886	7249	7251	9
12885	12884	10490	10480	9
12885	12884	10490	10492	9
704	703	702	713	9
707	703	702	713	9
706	701	702	713	9
709	701	702	713	9
687	684	690	713	9
685	684	690	713	9
702	703	704	711	9
707	703	704	711	9
706	705	704	711	9
708	705	704	711	9
711	6099	6089	6092	9
711	6099	6089	6088	9
684	690	713	702	9
691	690	713	702	9
702	703	704	705	9
702	701	706	705	9
702	701	706	710	9
704	711	6099	6089	9
704	711	6099	6101	9
701	702	703	704	9
701	706	705	704	9
704	705	706	710	9
703	702	713	714	9
690	713	702	703	9
703	702	701	706	9
703	702	701	709	9
703	704	711	712	9
703	704	711	6099	9
703	704	705	706	9
703	704	705	708	9
701	702	713	714	9
690	713	702	701	9
701	702	703	707	9
701	706	705	708	9
705	704	711	712	9
705	704	711	6099	9
705	704	703	707	9
705	706	701	709	9
709	701	706	710	9
708	705	706	710	9
684	690	713	714	9
691	690	713	714	9
712	711	6099	6089	9
712	711	6099	6101	9
12149	12148	12147	12158	9
12152	12148	12147	12158	9
12151	12146	12147	12158	9
12154	12146	12147	12158	9
2120	2119	2126	12158	9
2118	2119	2126	12158	9
12147	12148	12149	12156	9
12152	12148	12149	12156	9
12151	12150	12149	12156	9
12153	12150	12149	12156	9
12156	5587	5580	5579	9
12156	5587	5580	5581	9
2119	2126	12158	12147	9
2128	2126	12158	12147	9
12147	12148	12149	12150	9
12147	12146	12151	12150	9
12147	12146	12151	12155	9
12149	12156	5587	5580	9
12149	12156	5587	5589	9
12146	12147	12148	12149	9
12146	12151	12150	12149	9
12149	12150	12151	12155	9
12148	12147	12158	12159	9
2126	12158	12147	12148	9
12148	12147	12146	12151	9
12148	12147	12146	12154	9
12148	12149	12156	12157	9
12148	12149	12156	5587	9
12148	12149	12150	12151	9
12148	12149	12150	12153	9
12146	12147	12158	12159	9
2126	12158	12147	12146	9
12146	12147	12148	12152	9
12146	12151	12150	12153	9
12150	12149	12156	12157	9
12150	12149	12156	5587	9
12150	12149	12148	12152	9
12150	12151	12146	12154	9
12154	12146	12151	12155	9
12153	12150	12151	12155	9
2119	2126	12158	12159	9
2128	2126	12158	12159	9
12157	12156	5587	5580	9
12157	12156	5587	5589	9
13185	13184	13183	13194	9
13188	13184	13183	13194	9
13187	13182	13183	13194	9
13190	13182	13183	13194	9
13194	8153	8143	8146	9
13194	8153	8143	8142	9
13183	13184	13185	13192	9
13188	13184	13185	13192	9
13187	13186	13185	13192	9
13189	13186	13185	13192	9
2304	2303	2305	13192	9
2302	2303	2305	13192	9
13183	13194	8153	8143	9
13183	13194	8153	8155	9
13183	13184	13185	13186	9
13183	13182	13187	13186	9
13183	13182	13187	13191	9
2303	2305	13192	13185	9
2306	2305	13192	13185	9
13182	13183	13184	13185	9
13182	13187	13186	13185	9
13185	13186	13187	13191	9
13184	13183	13194	13195	9
13184	13183	13194	8153	9
13184	13183	13182	13187	9
13184	13183	13182	13190	9
13184	13185	13192	13193	9
2305	13192	13185	13184	9
13184	13185	13186	13187	9
13184	13185	13186	13189	9
13182	13183	13194	13195	9
13182	13183	13194	8153	9
13182	13183	13184	13188	9
13182	13187	13186	13189	9
13186	13185	13192	13193	9
2305	13192	13185	13186	9
13186	13185	13184	13188	9
13186	13187	13182	13190	9
13190	13182	13187	13191	9
13189	13186	13187	13191	9
13195	13194	8153	8143	9
13195	13194	8153	8155	9
2303	2305	13192	13193	9
2306	2305	13192	13193	9
7256	7255	7254	7265	9
7259	7255	7254	7265	9
7258	7253	7254	7265	9
7261	7253	7254	7265	9
7265	8456	8450	8451	9
7265	8456	8450	8453	9
7254	7255	7256	7263	9
7259	7255	7256	7263	9
7258	7257	7256	7263	9
7260	7257	7256	7263	9
7263	7273	7267	7270	9
7263	7273	7267	7268	9
7254	7265	8456	8450	9
7254	7265	8456	8457	9
7254	7255	7256	7257	9
7254	7253	7258	7257	9
7254	7253	7258	7262	9
7256	7263	7273	7267	9
7256	7263	7273	7274	9
7253	7254	7255	7256	9
7253	7258	7257	7256	9
7256	7257	7258	7262	9
7255	7254	7265	7266	9
7255	7254	7265	8456	9
7255	7254	7253	7258	9
7255	7254	7253	7261	9
7255	7256	7263	7264	9
7255	7256	7263	7273	9
7255	7256	7257	7258	9
7255	7256	7257	7260	9
7253	7254	7265	7266	9
7253	7254	7265	8456	9
7253	7254	7255	7259	9
7253	7258	7257	7260	9
7257	7256	7263	7264	9
7257	7256	7263	7273	9
7257	7256	7255	7259	9
7257	7258	7253	7261	9
7261	7253	7258	7262	9
7260	7257	7258	7262	9
7266	7265	8456	8450	9
7266	7265	8456	8457	9
7264	7263	7273	7267	9
7264	7263	7273	7274	9
13633	13632	13631	13642	9
13636	13632	13631	13642	9
13635	13630	13631	13642	9
13638	13630	13631	13642	9
13642	10110	10100	10103	9
13642	10110	10100	10099	9
13631	13632	13633	13640	9
13636	13632	13633	13640	9
13635	13634	13633	13640	9
13637	13634	13633	13640	9
2392	2393	2395	13640	9
2394	2393	2395	13640	9
13631	13642	10110	10100	9
13631	13642	10110	10112	9
13631	13632	13633	13634	9
13631	13630	13635	13634	9
13631	13630	13635	13639	9
2393	2395	13640	13633	9
2396	2395	13640	13633	9
13630	13631	13632	13633	9
13630	13635	13634	13633	9
13633	13634	13635	13639	9
13632	13631	13642	13643	9
13632	13631	13642	10110	9
13632	13631	13630	13635	9
13632	13631	13630	13638	9
13632	13633	13640	13641	9
2395	13640	13633	13632	9
13632	13633	13634	13635	9
13632	13633	13634	13637	9
13630	13631	13642	13643	9
13630	13631	13642	10110	9
13630	13631	13632	13636	9
13630	13635	13634	13637	9
13634	13633	13640	13641	9
2395	13640	13633	13634	9
13634	13633	13632	13636	9
13634	13635	13630	13638	9
13638	13630	13635	13639	9
13637	13634	13635	13639	9
13643	13642	10110	10100	9
13643	13642	10110	10112	9
2393	2395	13640	13641	9
2396	2395	13640	13641	9
1815	1814	1813	1824	9
1818	1814	1813	1824	9
1817	1812	1813	1824	9
1820	1812	1813	1824	9
1824	9162	9155	9154	9
1824	9162	9155	9156	9
1813	1814	1815	1822	9
1818	1814	1815	1822	9
1817	1816	1815	1822	9
1819	1816	1815	1822	9
1829	1828	1826	1822	9
1833	1828	1826	1822	9
1813	1824	9162	9155	9
1813	1824	9162	9164	9
1813	1814	1815	1816	9
1813	1812	1817	1816	9
1813	1812	1817	1821	9
1828	1826	1822	1815	9
1827	1826	1822	1815	9
1812	1813	1814	1815	9
1812	1817	1816	1815	9
1815	1816	1817	1821	9
1814	1813	1824	1825	9
1814	1813	1824	9162	9
1814	1813	1812	1817	9
1814	1813	1812	1820	9
1814	1815	1822	1823	9
1826	1822	1815	1814	9
1814	1815	1816	1817	9
1814	1815	1816	1819	9
1812	1813	1824	1825	9
1812	1813	1824	9162	9
1812	1813	1814	1818	9
1812	1817	1816	1819	9
1816	1815	1822	1823	9
1826	1822	1815	1816	9
1816	1815	1814	1818	9
1816	1817	1812	1820	9
1820	1812	1817	1821	9
1819	1816	1817	1821	9
1825	1824	9162	9155	9
1825	1824	9162	9164	9
1828	1826	1822	1823	9
1827	1826	1822	1823	9
12289	12288	12287	12298	9
12292	12288	12287	12298	9
12291	12286	12287	12298	9
12294	12286	12287	12298	9
12298	5777	5770	5769	9
12298	5777	5770	5771	9
12287	12288	12289	12296	9
12292	12288	12289	12296	9
12291	12290	12289	12296	9
12293	12290	12289	12296	9
1054	1053	1060	12296	9
1052	1053	1060	12296	9
12287	12298	5777	5770	9
12287	12298	5777	5779	9
12287	12288	12289	12290	9
12287	12286	12291	12290	9
12287	12286	12291	12295	9
1053	1060	12296	12289	9
1062	1060	12296	12289	9
12286	12287	12288	12289	9
12286	12291	12290	12289	9
12289	12290	12291	12295	9
12288	12287	12298	12299	9
12288	12287	12298	5777	9
12288	12287	12286	12291	9
12288	12287	12286	12294	9
12288	12289	12296	12297	9
1060	12296	12289	12288	9
12288	12289	12290	12291	9
12288	12289	12290	12293	9
12286	12287	12298	12299	9
12286	12287	12298	5777	9
12286	12287	12288	12292	9
12286	12291	12290	12293	9
12290	12289	12296	12297	9
1060	12296	12289	12290	9
12290	12289	12288	12292	9
12290	12291	12286	12294	9
12294	12286	12291	12295	9
12293	12290	12291	12295	9
12299	12298	5777	5770	9
12299	12298	5777	5779	9
1053	1060	12296	12297	9
1062	1060	12296	12297	9
1419	1418	1417	1428	9
1422	1418	1417	1428	9
1421	1416	1417	1428	9
1424	1416	1417	1428	9
1437	1432	1430	1428	9
1433	1432	1430	1428	9
1417	1418	1419	1426	9
1422	1418	1419	1426	9
1421	1420	1419	1426	9
1423	1420	1419	1426	9
1426	6953	6947	6950	9
1426	6953	6947	6948	9
1432	1430	1428	1417	9
1431	1430	1428	1417	9
1417	1418	1419	1420	9
1417	1416	1421	1420	9
1417	1416	1421	1425	9
1419	1426	6953	6947	9
1419	1426	6953	6954	9
1416	1417	1418	1419	9
1416	1421	1420	1419	9
1419	1420	1421	1425	9
1418	1417	1428	1429	9
1430	1428	1417	1418	9
1418	1417	1416	1421	9
1418	1417	1416	1424	9
1418	1419	1426	1427	9
1418	1419	1426	6953	9
1418	1419	1420	1421	9
1418	1419	1420	1423	9
1416	1417	1428	1429	9
1430	1428	1417	1416	9
1416	1417	1418	1422	9
1416	1421	1420	1423	9
1420	1419	1426	1427	9
1420	1419	1426	6953	9
1420	1419	1418	1422	9
1420	1421	1416	1424	9
1424	1416	1421	1425	9
1423	1420	1421	1425	9
1432	1430	1428	1429	9
1431	1430	1428	1429	9
1427	1426	6953	6947	9
1427	1426	6953	6954	9
5039	5040	5041	5048	9
5044	5040	5041	5048	9
5043	5042	5041	5048	9
5045	5042	5041	5048	9
5048	10446	10436	10439	9
5048	10446	10436	10435	9
5041	5040	5039	5050	9
5044	5040	5039	5050	9
5043	5038	5039	5050	9
5046	5038	5039	5050	9
5050	5058	5052	5053	9
5050	5058	5052	5055	9
5041	5048	10446	10436	9
5041	5048	10446	10448	9
5038	5039	5040	5041	9
5038	5043	5042	5041	9
5041	5042	5043	5047	9
5039	5050	5058	5052	9
5039	5050	5058	5059	9
5039	5040	5041	5042	9
5039	5038	5043	5042	9
5039	5038	5043	5047	9
5040	5041	5048	5049	9
5040	5041	5048	10446	9
5040	5041	5042	5043	9
5040	5041	5042	5045	9
5040	5039	5050	5051	9
5040	5039	5050	5058	9
5040	5039	5038	5043	9
5040	5039	5038	5046	9
5042	5041	5048	5049	9
5042	5041	5048	10446	9
5042	5041	5040	5044	9
5042	5043	5038	5046	9
5038	5039	5050	5051	9
5038	5039	5050	5058	9
5038	5039	5040	5044	9
5038	5043	5042	5045	9
5045	5042	5043	5047	9
5046	5038	5043	5047	9
5049	5048	10446	10436	9
5049	5048	10446	10448	9
5051	5050	5058	5052	9
5051	5050	5058	5059	9
86	85	84	95	9
89	85	84	95	9
88	83	84	95	9
91	83	84	95	9
73	72	74	95	9
71	72	74	95	9
84	85	86	93	9
89	85	86	93	9
88	87	86	93	9
90	87	86	93	9
93	6987	6980	6979	9
93	6987	6980	6981	9
72	74	95	84	9
75	74	95	84	9
84	85	86	87	9
84	83	88	87	9
84	83	88	92	9
86	93	6987	6980	9
86	93	6987	6989	9
83	84	85	86	9
83	88	87	86	9
86	87	88	92	9
85	84	95	96	9
74	95	84	85	9
85	84	83	88	9
85	84	83	91	9
85	86	93	94	9
85	86	93	6987	9
85	86	87	88	9
85	86	87	90	9
83	84	95	96	9
74	95	84	83	9
83	84	85	89	9
83	88	87	90	9
87	86	93	94	9
87	86	93	6987	9
87	86	85	89	9
87	88	83	91	9
91	83	88	92	9
90	87	88	92	9
72	74	95	96	9
75	74	95	96	9
94	93	6987	6980	9
94	93	6987	6989	9
8775	8774	8773	8784	9
8778	8774	8773	8784	9
8777	8772	8773	8784	9
8780	8772	8773	8784	9
8784	8792	8786	8787	9
8784	8792	8786	8789	9
8773	8774	8775	8782	9
8778	8774	8775	8782	9
8777	8776	8775	8782	9
8779	8776	8775	8782	9
8782	5340	5330	5333	9
8782	5340	5330	5329	9
8773	8784	8792	8786	9
8773	8784	8792	8793	9
8773	8774	8775	8776	9
8773	8772	8777	8776	9
8773	8772	8777	8781	9
8775	8782	5340	5330	9
8775	8782	5340	5342	9
8772	8773	8774	8775	9
8772	8777	8776	8775	9
8775	8776	8777	8781	9
8774	8773	8784	8785	9
8774	8773	8784	8792	9
8774	8773	8772	8777	9
8774	8773	8772	8780	9
8774	8775	8782	8783	9
8774	8775	8782	5340	9
8774	8775	8776	8777	9
8774	8775	8776	8779	9
8772	8773	8784	8785	9
8772	8773	8784	8792	9
8772	8773	8774	8778	9
8772	8777	8776	8779	9
8776	8775	8782	8783	9
8776	8775	8782	5340	9
8776	8775	8774	8778	9
8776	8777	8772	8780	9
8780	8772	8777	8781	9
8779	8776	8777	8781	9
8785	8784	8792	8786	9
8785	8784	8792	8793	9
8783	8782	5340	5330	9
8783	8782	5340	5342	9
1189	1190	1191	1198	9
1194	1190	1191	1198	9
1193	1192	1191	1198	9
1195	1192	1191	1198	9
1206	1205	1203	1198	9
1210	1205	1203	1198	9
1191	1190	1189	1200	9
1194	1190	1189	1200	9
1193	1188	1189	1200	9
1196	1188	1189	1200	9
1205	1203	1198	1191	9
1204	1203	1198	1191	9
1188	1189	1190	1191	9
1188	1193	1192	1191	9
1191	1192	1193	1197	9
1189	1190	1191	1192	9
1189	1188	1193	1192	9
1189	1188	1193	1197	9
1190	1191	1198	1199	9
1203	1198	1191	1190	9
1190	1191	1192	1193	9
1190	1191	1192	1195	9
1190	1189	1200	1202	9
1190	1189	1200	1201	9
1190	1189	1188	1193	9
1190	1189	1188	1196	9
1192	1191	1198	1199	9
1203	1198	1191	1192	9
1192	1191	1190	1194	9
1192	1193	1188	1196	9
1188	1189	1200	1202	9
1188	1189	1200	1201	9
1188	1189	1190	1194	9
1188	1193	1192	1195	9
1195	1192	1193	1197	9
1196	1188	1193	1197	9
1205	1203	1198	1199	9
1204	1203	1198	1199	9
13773	13772	13771	13782	9
13776	13772	13771	13782	9
13775	13770	13771	13782	9
13778	13770	13771	13782	9
1906	1907	1914	13782	9
1908	1907	1914	13782	9
13771	13772	13773	13780	9
13776	13772	13773	13780	9
13775	13774	13773	13780	9
13777	13774	13773	13780	9
718	719	726	13780	9
720	719	726	13780	9
1907	1914	13782	13771	9
1916	1914	13782	13771	9
13771	13772	13773	13774	9
13771	13770	13775	13774	9
13771	13770	13775	13779	9
719	726	13780	13773	9
728	726	13780	13773	9
13770	13771	13772	13773	9
13770	13775	13774	13773	9
13773	13774	13775	13779	9
13772	13771	13782	13783	9
1914	13782	13771	13772	9
13772	13771	13770	13775	9
13772	13771	13770	13778	9
13772	13773	13780	13781	9
726	13780	13773	13772	9
13772	13773	13774	13775	9
13772	13773	13774	13777	9
13770	13771	13782	13783	9
1914	13782	13771	13770	9
13770	13771	13772	13776	9
13770	13775	13774	13777	9
13774	13773	13780	13781	9
726	13780	13773	13774	9
13774	13773	13772	13776	9
13774	13775	13770	13778	9
13778	13770	13775	13779	9
13777	13774	13775	13779	9
1907	1914	13782	13783	9
1916	1914	13782	13783	9
719	726	13780	13781	9
728	726	13780	13781	9
1100	1099	1098	1109	9
1103	1099	1098	1109	9
1102	1097	1098	1109	9
1105	1097	1098	1109	9
1109	7002	6995	6994	9
1109	7002	6995	6996	9
1098	1099	1100	1107	9
1103	1099	1100	1107	9
1102	1101	1100	1107	9
1104	1101	1100	1107	9
1081	1080	1086	1107	9
1083	1080	1086	1107	9
1098	1109	7002	6995	9
1098	1109	7002	7004	9
1098	1099	1100	1101	9
1098	1097	1102	1101	9
1098	1097	1102	1106	9
1080	1086	1107	1100	9
1087	1086	1107	1100	9
1097	1098	1099	1100	9
1097	1102	1101	1100	9
1100	1101	1102	1106	9
1099	1098	1109	1110	9
1099	1098	1109	7002	9
1099	1098	1097	1102	9
1099	1098	1097	1105	9
1099	1100	1107	1108	9
1086	1107	1100	1099	9
1099	1100	1101	1102	9
1099	1100	1101	1104	9
1097	1098	1109	1110	9
1097	1098	1109	7002	9
1097	1098	1099	1103	9
1097	1102	1101	1104	9
1101	1100	1107	1108	9
1086	1107	1100	1101	9
1101	1100	1099	1103	9
1101	1102	1097	1105	9
1105	1097	1102	1106	9
1104	1101	1102	1106	9
1110	1109	7002	6995	9
1110	1109	7002	7004	9
1080	1086	1107	1108	9
1087	1086	1107	1108	9
11659	11658	11657	11668	9
11662	11658	11657	11668	9
11661	11656	11657	11668	9
11664	11656	11657	11668	9
11668	4700	4690	4689	9
11668	4700	4690	4693	9
11657	11658	11659	11666	9
11662	11658	11659	11666	9
11661	11660	11659	11666	9
11663	11660	11659	11666	9
2332	2333	2335	11666	9
2334	2333	2335	11666	9
11657	11668	4700	4690	9
11657	11668	4700	4702	9
11657	11658	11659	11660	9
11657	11656	11661	11660	9
11657	11656	11661	11665	9
2333	2335	11666	11659	9
2336	2335	11666	11659	9
11656	11657	11658	11659	9
11656	11661	11660	11659	9
11659	11660	11661	11665	9
11658	11657	11668	11669	9
11658	11657	11668	4700	9
11658	11657	11656	11661	9
11658	11657	11656	11664	9
11658	11659	11666	11667	9
2335	11666	11659	11658	9
11658	11659	11660	11661	9
11658	11659	11660	11663	9
11656	11657	11668	11669	9
11656	11657	11668	4700	9
11656	11657	11658	11662	9
11656	11661	11660	11663	9
11660	11659	11666	11667	9
2335	11666	11659	11660	9
11660	11659	11658	11662	9
11660	11661	11656	11664	9
11664	11656	11661	11665	9
11663	11660	11661	11665	9
11669	11668	4700	4690	9
11669	11668	4700	4702	9
2333	2335	11666	11667	9
2336	2335	11666	11667	9
9869	9868	9867	9878	9
9872	9868	9867	9878	9
9871	9866	9867	9878	9
9874	9866	9867	9878	9
9878	9886	9880	9881	9
9878	9886	9880	9883	9
9867	9868	9869	9876	9
9872	9868	9869	9876	9
9871	9870	9869	9876	9
9873	9870	9869	9876	9
9876	5909	5902	5903	9
9876	5909	5902	5901	9
9867	9878	9886	9880	9
9867	9878	9886	9887	9
9867	9868	9869	9870	9
9867	9866	9871	9870	9
9867	9866	9871	9875	9
9869	9876	5909	5902	9
9869	9876	5909	5911	9
9866	9867	9868	9869	9
9866	9871	9870	9869	9
9869	9870	9871	9875	9
9868	9867	9878	9879	9
9868	9867	9878	9886	9
9868	9867	9866	9871	9
9868	9867	9866	9874	9
9868	9869	9876	9877	9
9868	9869	9876	5909	9
9868	9869	9870	9871	9
9868	9869	9870	9873	9
9866	9867	9878	9879	9
9866	9867	9878	9886	9
9866	9867	9868	9872	9
9866	9871	9870	9873	9
9870	9869	9876	9877	9
9870	9869	9876	5909	9
9870	9869	9868	9872	9
9870	9871	9866	9874	9
9874	9866	9871	9875	9
9873	9870	9871	9875	9
9879	9878	9886	9880	9
9879	9878	9886	9887	9
9877	9876	5909	5902	9
9877	9876	5909	5911	9
11477	11476	11475	11486	9
11480	11476	11475	11486	9
11479	11474	11475	11486	9
11482	11474	11475	11486	9
11486	9892	9882	9881	9
11486	9892	9882	9885	9
11475	11476	11477	11484	9
11480	11476	11477	11484	9
11479	11478	11477	11484	9
11481	11478	11477	11484	9
11484	4352	4342	4341	9
11484	4352	4342	4345	9
11475	11486	9892	9882	9
11475	11486	9892	9894	9
11475	11476	11477	11478	9
11475	11474	11479	11478	9
11475	11474	11479	11483	9
11477	11484	4352	4342	9
11477	11484	4352	4354	9
11474	11475	11476	11477	9
11474	11479	11478	11477	9
11477	11478	11479	11483	9
11476	11475	11486	11487	9
11476	11475	11486	9892	9
11476	11475	11474	11479	9
11476	11475	11474	11482	9
11476	11477	11484	11485	9
11476	11477	11484	4352	9
11476	11477	11478	11479	9
11476	11477	11478	11481	9
11474	11475	11486	11487	9
11474	11475	11486	9892	9
11474	11475	11476	11480	9
11474	11479	11478	11481	9
11478	11477	11484	11485	9
11478	11477	11484	4352	9
11478	11477	11476	11480	9
11478	11479	11474	11482	9
11482	11474	11479	11483	9
11481	11478	11479	11483	9
11487	11486	9892	9882	9
11487	11486	9892	9894	9
11485	11484	4352	4342	9
11485	11484	4352	4354	9
400	399	398	409	9
403	399	398	409	9
402	397	398	409	9
405	397	398	409	9
409	11046	11039	11040	9
409	11046	11039	11038	9
398	399	400	407	9
403	399	400	407	9
402	401	400	407	9
404	401	400	407	9
383	380	386	407	9
381	380	386	407	9
398	409	11046	11039	9
398	409	11046	11048	9
398	399	400	401	9
398	397	402	401	9
398	397	402	406	9
380	386	407	400	9
387	386	407	400	9
397	398	399	400	9
397	402	401	400	9
400	401	402	406	9
399	398	409	410	9
399	398	409	11046	9
399	398	397	402	9
399	398	397	405	9
399	400	407	408	9
386	407	400	399	9
399	400	401	402	9
399	400	401	404	9
397	398	409	410	9
397	398	409	11046	9
397	398	399	403	9
397	402	401	404	9
401	400	407	408	9
386	407	400	401	9
401	400	399	403	9
401	402	397	405	9
405	397	402	406	9
404	401	402	406	9
410	409	11046	11039	9
410	409	11046	11048	9
380	386	407	408	9
387	386	407	408	9
443	444	445	452	9
448	444	445	452	9
447	446	445	452	9
449	446	445	452	9
459	458	456	452	9
463	458	456	452	9
445	444	443	454	9
448	444	443	454	9
447	442	443	454	9
450	442	443	454	9
454	4381	4371	4370	9
454	4381	4371	4374	9
458	456	452	445	9
457	456	452	445	9
442	443	444	445	9
442	447	446	445	9
445	446	447	451	9
443	454	4381	4371	9
443	454	4381	4383	9
443	444	445	446	9
443	442	447	446	9
443	442	447	451	9
444	445	452	453	9
456	452	445	444	9
444	445	446	447	9
444	445	446	449	9
444	443	454	455	9
444	443	454	4381	9
444	443	442	447	9
444	443	442	450	9
446	445	452	453	9
456	452	445	446	9
446	445	444	448	9
446	447	442	450	9
442	443	454	455	9
442	443	454	4381	9
442	443	444	448	9
442	447	446	449	9
449	446	447	451	9
450	442	447	451	9
458	456	452	453	9
457	456	452	453	9
455	454	4381	4371	9
455	454	4381	4383	9
1466	1465	1464	1475	9
1469	1465	1464	1475	9
1468	1463	1464	1475	9
1471	1463	1464	1475	9
1475	10367	10361	10364	9
1475	10367	10361	10362	9
1464	1465	1466	1473	9
1469	1465	1466	1473	9
1468	1467	1466	1473	9
1470	1467	1466	1473	9
1447	1446	1452	1473	9
1449	1446	1452	1473	9
1464	1475	10367	10361	9
1464	1475	10367	10368	9
1464	1465	1466	1467	9
1464	1463	1468	1467	9
1464	1463	1468	1472	9
1446	1452	1473	1466	9
1453	1452	1473	1466	9
1463	1464	1465	1466	9
1463	1468	1467	1466	9
1466	1467	1468	1472	9
1465	1464	1475	1476	9
1465	1464	1475	10367	9
1465	1464	1463	1468	9
1465	1464	1463	1471	9
1465	1466	1473	1474	9
1452	1473	1466	1465	9
1465	1466	1467	1468	9
1465	1466	1467	1470	9
1463	1464	1475	1476	9
1463	1464	1475	10367	9
1463	1464	1465	1469	9
1463	1468	1467	1470	9
1467	1466	1473	1474	9
1452	1473	1466	1467	9
1467	1466	1465	1469	9
1467	1468	1463	1471	9
1471	1463	1468	1472	9
1470	1467	1468	1472	9
1476	1475	10367	10361	9
1476	1475	10367	10368	9
1446	1452	1473	1474	9
1453	1452	1473	1474	9
826	825	824	835	9
829	825	824	835	9
828	823	824	835	9
831	823	824	835	9
807	806	812	835	9
809	806	812	835	9
824	825	826	833	9
829	825	826	833	9
828	827	826	833	9
830	827	826	833	9
565	566	573	833	9
567	566	573	833	9
806	812	835	824	9
813	812	835	824	9
824	825	826	827	9
824	823	828	827	9
824	823	828	832	9
566	573	833	826	9
575	573	833	826	9
823	824	825	826	9
823	828	827	826	9
826	827	828	832	9
825	824	835	836	9
812	835	824	825	9
825	824	823	828	9
825	824	823	831	9
825	826	833	834	9
573	833	826	825	9
825	826	827	828	9
825	826	827	830	9
823	824	835	836	9
812	835	824	823	9
823	824	825	829	9
823	828	827	830	9
827	826	833	834	9
573	833	826	827	9
827	826	825	829	9
827	828	823	831	9
831	823	828	832	9
830	827	828	832	9
806	812	835	836	9
813	812	835	836	9
566	573	833	834	9
575	573	833	834	9
2696	2695	2694	2705	9
2699	2695	2694	2705	9
2698	2693	2694	2705	9
2701	2693	2694	2705	9
2694	2695	2696	2703	9
2699	2695	2696	2703	9
2698	2697	2696	2703	9
2700	2697	2696	2703	9
2703	4961	4954	4955	9
2703	4961	4954	4953	9
2694	2695	2696	2697	9
2694	2693	2698	2697	9
2694	2693	2698	2702	9
2696	2703	4961	4954	9
2696	2703	4961	4963	9
2693	2694	2695	2696	9
2693	2698	2697	2696	9
2696	2697	2698	2702	9
2695	2694	2705	2706	9
2695	2694	2705	2707	9
2695	2694	2693	2698	9
2695	2694	2693	2701	9
2695	2696	2703	2704	9
2695	2696	2703	4961	9
2695	2696	2697	2698	9
2695	2696	2697	2700	9
2693	2694	2705	2706	9
2693	2694	2705	2707	9
2693	2694	2695	2699	9
2693	2698	2697	2700	9
2697	2696	2703	2704	9
2697	2696	2703	4961	9
2697	2696	2695	2699	9
2697	2698	2693	2701	9
2701	2693	2698	2702	9
2700	2697	2698	2702	9
2704	2703	4961	4954	9
2704	2703	4961	4963	9
118	117	116	127	9
121	117	116	127	9
120	115	116	127	9
123	115	116	127	9
127	11129	11123	11126	9
127	11129	11123	11124	9
116	117	118	125	9
121	117	118	125	9
120	119	118	125	9
122	119	118	125	9
103	104	106	125	9
105	104	106	125	9
116	127	11129	11123	9
116	127	11129	11130	9
116	117	118	119	9
116	115	120	119	9
116	115	120	124	9
104	106	125	118	9
107	106	125	118	9
115	116	117	118	9
115	120	119	118	9
118	119	120	124	9
117	116	127	128	9
117	116	127	11129	9
117	116	115	120	9
117	116	115	123	9
117	118	125	126	9
106	125	118	117	9
117	118	119	120	9
117	118	119	122	9
115	116	127	128	9
115	116	127	11129	9
115	116	117	121	9
115	120	119	122	9
119	118	125	126	9
106	125	118	119	9
119	118	117	121	9
119	120	115	123	9
123	115	120	124	9
122	119	120	124	9
128	127	11129	11123	9
128	127	11129	11130	9
104	106	125	126	9
107	106	125	126	9
3922	3921	3920	3931	9
3925	3921	3920	3931	9
3924	3919	3920	3931	9
3927	3919	3920	3931	9
3931	7948	7941	7942	9
3931	7948	7941	7940	9
3920	3921	3922	3929	9
3925	3921	3922	3929	9
3924	3923	3922	3929	9
3926	3923	3922	3929	9
3929	3939	3933	3934	9
3929	3939	3933	3936	9
3920	3931	7948	7941	9
3920	3931	7948	7950	9
3920	3921	3922	3923	9
3920	3919	3924	3923	9
3920	3919	3924	3928	9
3922	3929	3939	3933	9
3922	3929	3939	3940	9
3919	3920	3921	3922	9
3919	3924	3923	3922	9
3922	3923	3924	3928	9
3921	3920	3931	3932	9
3921	3920	3931	7948	9
3921	3920	3919	3924	9
3921	3920	3919	3927	9
3921	3922	3929	3930	9
3921	3922	3929	3939	9
3921	3922	3923	3924	9
3921	3922	3923	3926	9
3919	3920	3931	3932	9
3919	3920	3931	7948	9
3919	3920	3921	3925	9
3919	3924	3923	3926	9
3923	3922	3929	3930	9
3923	3922	3929	3939	9
3923	3922	3921	3925	9
3923	3924	3919	3927	9
3927	3919	3924	3928	9
3926	3923	3924	3928	9
3932	3931	7948	7941	9
3932	3931	7948	7950	9
3930	3929	3939	3933	9
3930	3929	3939	3940	9
12359	12358	12357	12368	9
12362	12358	12357	12368	9
12361	12356	12357	12368	9
12364	12356	12357	12368	9
2153	2152	2154	12368	9
2151	2152	2154	12368	9
12357	12358	12359	12366	9
12362	12358	12359	12366	9
12361	12360	12359	12366	9
12363	12360	12359	12366	9
12366	5910	5900	5899	9
12366	5910	5900	5903	9
2152	2154	12368	12357	9
2155	2154	12368	12357	9
12357	12358	12359	12360	9
12357	12356	12361	12360	9
12357	12356	12361	12365	9
12359	12366	5910	5900	9
12359	12366	5910	5912	9
12356	12357	12358	12359	9
12356	12361	12360	12359	9
12359	12360	12361	12365	9
12358	12357	12368	12369	9
2154	12368	12357	12358	9
12358	12357	12356	12361	9
12358	12357	12356	12364	9
12358	12359	12366	12367	9
12358	12359	12366	5910	9
12358	12359	12360	12361	9
12358	12359	12360	12363	9
12356	12357	12368	12369	9
2154	12368	12357	12356	9
12356	12357	12358	12362	9
12356	12361	12360	12363	9
12360	12359	12366	12367	9
12360	12359	12366	5910	9
12360	12359	12358	12362	9
12360	12361	12356	12364	9
12364	12356	12361	12365	9
12363	12360	12361	12365	9
2152	2154	12368	12369	9
2155	2154	12368	12369	9
12367	12366	5910	5900	9
12367	12366	5910	5912	9
11883	11882	11881	11892	9
11886	11882	11881	11892	9
11885	11880	11881	11892	9
11888	11880	11881	11892	9
11892	5093	5083	5082	9
11892	5093	5083	5086	9
11881	11882	11883	11890	9
11886	11882	11883	11890	9
11885	11884	11883	11890	9
11887	11884	11883	11890	9
1374	1375	1377	11890	9
1376	1375	1377	11890	9
11881	11892	5093	5083	9
11881	11892	5093	5095	9
11881	11882	11883	11884	9
11881	11880	11885	11884	9
11881	11880	11885	11889	9
1375	1377	11890	11883	9
1378	1377	11890	11883	9
11880	11881	11882	11883	9
11880	11885	11884	11883	9
11883	11884	11885	11889	9
11882	11881	11892	11893	9
11882	11881	11892	5093	9
11882	11881	11880	11885	9
11882	11881	11880	11888	9
11882	11883	11890	11891	9
1377	11890	11883	11882	9
11882	11883	11884	11885	9
11882	11883	11884	11887	9
11880	11881	11892	11893	9
11880	11881	11892	5093	9
11880	11881	11882	11886	9
11880	11885	11884	11887	9
11884	11883	11890	11891	9
1377	11890	11883	11884	9
11884	11883	11882	11886	9
11884	11885	11880	11888	9
11888	11880	11885	11889	9
11887	11884	11885	11889	9
11893	11892	5093	5083	9
11893	11892	5093	5095	9
1375	1377	11890	11891	9
1378	1377	11890	11891	9
10847	10846	10845	10856	9
10850	10846	10845	10856	9
10849	10844	10845	10856	9
10852	10844	10845	10856	9
10856	10864	10858	10859	9
10856	10864	10858	10861	9
10845	10846	10847	10854	9
10850	10846	10847	10854	9
10849	10848	10847	10854	9
10851	10848	10847	10854	9
10854	9017	9007	9006	9
10854	9017	9007	9010	9
10845	10856	10864	10858	9
10845	10856	10864	10865	9
10845	10846	10847	10848	9
10845	10844	10849	10848	9
10845	10844	10849	10853	9
10847	10854	9017	9007	9
10847	10854	9017	9019	9
10844	10845	10846	10847	9
10844	10849	10848	10847	9
10847	10848	10849	10853	9
10846	10845	10856	10857	9
10846	10845	10856	10864	9
10846	10845	10844	10849	9
10846	10845	10844	10852	9
10846	10847	10854	10855	9
10846	10847	10854	9017	9
10846	10847	10848	10849	9
10846	10847	10848	10851	9
10844	10845	10856	10857	9
10844	10845	10856	10864	9
10844	10845	10846	10850	9
10844	10849	10848	10851	9
10848	10847	10854	10855	9
10848	10847	10854	9017	9
10848	10847	10846	10850	9
10848	10849	10844	10852	9
10852	10844	10849	10853	9
10851	10848	10849	10853	9
10857	10856	10864	10858	9
10857	10856	10864	10865	9
10855	10854	9017	9007	9
10855	10854	9017	9019	9
3893	3892	3891	3902	9
3896	3892	3891	3902	9
3895	3890	3891	3902	9
3898	3890	3891	3902	9
3902	6841	6834	6833	9
3902	6841	6834	6835	9
3891	3892	3893	3900	9
3896	3892	3893	3900	9
3895	3894	3893	3900	9
3897	3894	3893	3900	9
3900	3910	3904	3907	9
3900	3910	3904	3905	9
3891	3902	6841	6834	9
3891	3902	6841	6843	9
3891	3892	3893	3894	9
3891	3890	3895	3894	9
3891	3890	3895	3899	9
3893	3900	3910	3904	9
3893	3900	3910	3911	9
3890	3891	3892	3893	9
3890	3895	3894	3893	9
3893	3894	3895	3899	9
3892	3891	3902	3903	9
3892	3891	3902	6841	9
3892	3891	3890	3895	9
3892	3891	3890	3898	9
3892	3893	3900	3901	9
3892	3893	3900	3910	9
3892	3893	3894	3895	9
3892	3893	3894	3897	9
3890	3891	3902	3903	9
3890	3891	3902	6841	9
3890	3891	3892	3896	9
3890	3895	3894	3897	9
3894	3893	3900	3901	9
3894	3893	3900	3910	9
3894	3893	3892	3896	9
3894	3895	3890	3898	9
3898	3890	3895	3899	9
3897	3894	3895	3899	9
3903	3902	6841	6834	9
3903	3902	6841	6843	9
3901	3900	3910	3904	9
3901	3900	3910	3911	9
13087	13086	13085	13096	9
13090	13086	13085	13096	9
13089	13084	13085	13096	9
13092	13084	13085	13096	9
13096	7846	7839	7840	9
13096	7846	7839	7838	9
13085	13086	13087	13094	9
13090	13086	13087	13094	9
13089	13088	13087	13094	9
13091	13088	13087	13094	9
1210	1209	1211	13094	9
1208	1209	1211	13094	9
13085	13096	7846	7839	9
13085	13096	7846	7848	9
13085	13086	13087	13088	9
13085	13084	13089	13088	9
13085	13084	13089	13093	9
1209	1211	13094	13087	9
1212	1211	13094	13087	9
13084	13085	13086	13087	9
13084	13089	13088	13087	9
13087	13088	13089	13093	9
13086	13085	13096	13097	9
13086	13085	13096	7846	9
13086	13085	13084	13089	9
13086	13085	13084	13092	9
13086	13087	13094	13095	9
1211	13094	13087	13086	9
13086	13087	13088	13089	9
13086	13087	13088	13091	9
13084	13085	13096	13097	9
13084	13085	13096	7846	9
13084	13085	13086	13090	9
13084	13089	13088	13091	9
13088	13087	13094	13095	9
1211	13094	13087	13088	9
13088	13087	13086	13090	9
13088	13089	13084	13092	9
13092	13084	13089	13093	9
13091	13088	13089	13093	9
13097	13096	7846	7839	9
13097	13096	7846	7848	9
1209	1211	13094	13095	9
1212	1211	13094	13095	9
13115	13114	13113	13124	9
13118	13114	13113	13124	9
13117	13112	13113	13124	9
13120	13112	13113	13124	9
13124	7904	7897	7896	9
13124	7904	7897	7898	9
13113	13114	13115	13122	9
13118	13114	13115	13122	9
13117	13116	13115	13122	9
13119	13116	13115	13122	9
13122	9191	9184	9183	9
13122	9191	9184	9185	9
13113	13124	7904	7897	9
13113	13124	7904	7906	9
13113	13114	13115	13116	9
13113	13112	13117	13116	9
13113	13112	13117	13121	9
13115	13122	9191	9184	9
13115	13122	9191	9193	9
13112	13113	13114	13115	9
13112	13117	13116	13115	9
13115	13116	13117	13121	9
13114	13113	13124	13125	9
13114	13113	13124	7904	9
13114	13113	13112	13117	9
13114	13113	13112	13120	9
13114	13115	13122	13123	9
13114	13115	13122	9191	9
13114	13115	13116	13117	9
13114	13115	13116	13119	9
13112	13113	13124	13125	9
13112	13113	13124	7904	9
13112	13113	13114	13118	9
13112	13117	13116	13119	9
13116	13115	13122	13123	9
13116	13115	13122	9191	9
13116	13115	13114	13118	9
13116	13117	13112	13120	9
13120	13112	13117	13121	9
13119	13116	13117	13121	9
13125	13124	7904	7897	9
13125	13124	7904	7906	9
13123	13122	9191	9184	9
13123	13122	9191	9193	9
3326	3325	3324	3335	9
3329	3325	3324	3335	9
3328	3323	3324	3335	9
3331	3323	3324	3335	9
3324	3325	3326	3333	9
3329	3325	3326	3333	9
3328	3327	3326	3333	9
3330	3327	3326	3333	9
3333	9047	9037	9036	9
3333	9047	9037	9040	9
3324	3325	3326	3327	9
3324	3323	3328	3327	9
3324	3323	3328	3332	9
3326	3333	9047	9037	9
3326	3333	9047	9049	9
3323	3324	3325	3326	9
3323	3328	3327	3326	9
3326	3327	3328	3332	9
3325	3324	3335	3336	9
3325	3324	3335	3337	9
3325	3324	3323	3328	9
3325	3324	3323	3331	9
3325	3326	3333	3334	9
3325	3326	3333	9047	9
3325	3326	3327	3328	9
3325	3326	3327	3330	9
3323	3324	3335	3336	9
3323	3324	3335	3337	9
3323	3324	3325	3329	9
3323	3328	3327	3330	9
3327	3326	3333	3334	9
3327	3326	3333	9047	9
3327	3326	3325	3329	9
3327	3328	3323	3331	9
3331	3323	3328	3332	9
3330	3327	3328	3332	9
3334	3333	9047	9037	9
3334	3333	9047	9049	9
4735	4734	4733	4744	9
4738	4734	4733	4744	9
4737	4732	4733	4744	9
4740	4732	4733	4744	9
4744	9527	9517	9516	9
4744	9527	9517	9520	9
4733	4734	4735	4742	9
4738	4734	4735	4742	9
4737	4736	4735	4742	9
4739	4736	4735	4742	9
4742	4752	4746	4749	9
4742	4752	4746	4747	9
4733	4744	9527	9517	9
4733	4744	9527	9529	9
4733	4734	4735	4736	9
4733	4732	4737	4736	9
4733	4732	4737	4741	9
4735	4742	4752	4746	9
4735	4742	4752	4753	9
4732	4733	4734	4735	9
4732	4737	4736	4735	9
4735	4736	4737	4741	9
4734	4733	4744	4745	9
4734	4733	4744	9527	9
4734	4733	4732	4737	9
4734	4733	4732	4740	9
4734	4735	4742	4743	9
4734	4735	4742	4752	9
4734	4735	4736	4737	9
4734	4735	4736	4739	9
4732	4733	4744	4745	9
4732	4733	4744	9527	9
4732	4733	4734	4738	9
4732	4737	4736	4739	9
4736	4735	4742	4743	9
4736	4735	4742	4752	9
4736	4735	4734	4738	9
4736	4737	4732	4740	9
4740	4732	4737	4741	9
4739	4736	4737	4741	9
4745	4744	9527	9517	9
4745	4744	9527	9529	9
4743	4742	4752	4746	9
4743	4742	4752	4753	9
11617	11616	11615	11626	9
11620	11616	11615	11626	9
11619	11614	11615	11626	9
11622	11614	11615	11626	9
11626	4642	4632	4635	9
11626	4642	4632	4631	9
11615	11616	11617	11624	9
11620	11616	11617	11624	9
11619	11618	11617	11624	9
11621	11618	11617	11624	9
11624	6244	6237	6236	9
11624	6244	6237	6238	9
11615	11626	4642	4632	9
11615	11626	4642	4644	9
11615	11616	11617	11618	9
11615	11614	11619	11618	9
11615	11614	11619	11623	9
11617	11624	6244	6237	9
11617	11624	6244	6246	9
11614	11615	11616	11617	9
11614	11619	11618	11617	9
11617	11618	11619	11623	9
11616	11615	11626	11627	9
11616	11615	11626	4642	9
11616	11615	11614	11619	9
11616	11615	11614	11622	9
11616	11617	11624	11625	9
11616	11617	11624	6244	9
11616	11617	11618	11619	9
11616	11617	11618	11621	9
11614	11615	11626	11627	9
11614	11615	11626	4642	9
11614	11615	11616	11620	9
11614	11619	11618	11621	9
11618	11617	11624	11625	9
11618	11617	11624	6244	9
11618	11617	11616	11620	9
11618	11619	11614	11622	9
11622	11614	11619	11623	9
11621	11618	11619	11623	9
11627	11626	4642	4632	9
11627	11626	4642	4644	9
11625	11624	6244	6237	9
11625	11624	6244	6246	9
2242	2241	2240	2251	9
2245	2241	2240	2251	9
2244	2239	2240	2251	9
2247	2239	2240	2251	9
2251	9609	9603	9606	9
2251	9609	9603	9604	9
2240	2241	2242	2249	9
2245	2241	2242	2249	9
2244	2243	2242	2249	9
2246	2243	2242	2249	9
2227	2226	2233	2249	9
2225	2226	2233	2249	9
2240	2251	9609	9603	9
2240	2251	9609	9610	9
2240	2241	2242	2243	9
2240	2239	2244	2243	9
2240	2239	2244	2248	9
2226	2233	2249	2242	9
2235	2233	2249	2242	9
2239	2240	2241	2242	9
2239	2244	2243	2242	9
2242	2243	2244	2248	9
2241	2240	2251	2252	9
2241	2240	2251	9609	9
2241	2240	2239	2244	9
2241	2240	2239	2247	9
2241	2242	2249	2250	9
2233	2249	2242	2241	9
2241	2242	2243	2244	9
2241	2242	2243	2246	9
2239	2240	2251	2252	9
2239	2240	2251	9609	9
2239	2240	2241	2245	9
2239	2244	2243	2246	9
2243	2242	2249	2250	9
2233	2249	2242	2243	9
2243	2242	2241	2245	9
2243	2244	2239	2247	9
2247	2239	2244	2248	9
2246	2243	2244	2248	9
2252	2251	9609	9603	9
2252	2251	9609	9610	9
2226	2233	2249	2250	9
2235	2233	2249	2250	9
1938	1937	1936	1947	9
1941	1937	1936	1947	9
1940	1935	1936	1947	9
1943	1935	1936	1947	9
1952	1951	1949	1947	9
1956	1951	1949	1947	9
1936	1937	1938	1945	9
1941	1937	1938	1945	9
1940	1939	1938	1945	9
1942	1939	1938	1945	9
1945	4962	4952	4951	9
1945	4962	4952	4955	9
1951	1949	1947	1936	9
1950	1949	1947	1936	9
1936	1937	1938	1939	9
1936	1935	1940	1939	9
1936	1935	1940	1944	9
1938	1945	4962	4952	9
1938	1945	4962	4964	9
1935	1936	1937	1938	9
1935	1940	1939	1938	9
1938	1939	1940	1944	9
1937	1936	1947	1948	9
1949	1947	1936	1937	9
1937	1936	1935	1940	9
1937	1936	1935	1943	9
1937	1938	1945	1946	9
1937	1938	1945	4962	9
1937	1938	1939	1940	9
1937	1938	1939	1942	9
1935	1936	1947	1948	9
1949	1947	1936	1935	9
1935	1936	1937	1941	9
1935	1940	1939	1942	9
1939	1938	1945	1946	9
1939	1938	1945	4962	9
1939	1938	1937	1941	9
1939	1940	1935	1943	9
1943	1935	1940	1944	9
1942	1939	1940	1944	9
1951	1949	1947	1948	9
1950	1949	1947	1948	9
1946	1945	4962	4952	9
1946	1945	4962	4964	9
11631	11630	11629	11640	9
11634	11630	11629	11640	9
11633	11628	11629	11640	9
11636	11628	11629	11640	9
11640	8710	8700	8703	9
11640	8710	8700	8699	9
11629	11630	11631	11638	9
11634	11630	11631	11638	9
11633	11632	11631	11638	9
11635	11632	11631	11638	9
11638	4670	4663	4664	9
11638	4670	4663	4662	9
11629	11640	8710	8700	9
11629	11640	8710	8712	9
11629	11630	11631	11632	9
11629	11628	11633	11632	9
11629	11628	11633	11637	9
11631	11638	4670	4663	9
11631	11638	4670	4672	9
11628	11629	11630	11631	9
11628	11633	11632	11631	9
11631	11632	11633	11637	9
11630	11629	11640	11641	9
11630	11629	11640	8710	9
11630	11629	11628	11633	9
11630	11629	11628	11636	9
11630	11631	11638	11639	9
11630	11631	11638	4670	9
11630	11631	11632	11633	9
11630	11631	11632	11635	9
11628	11629	11640	11641	9
11628	11629	11640	8710	9
11628	11629	11630	11634	9
11628	11633	11632	11635	9
11632	11631	11638	11639	9
11632	11631	11638	4670	9
11632	11631	11630	11634	9
11632	11633	11628	11636	9
11636	11628	11633	11637	9
11635	11632	11633	11637	9
11641	11640	8710	8700	9
11641	11640	8710	8712	9
11639	11638	4670	4663	9
11639	11638	4670	4672	9
13171	13170	13169	13180	9
13174	13170	13169	13180	9
13173	13168	13169	13180	9
13176	13168	13169	13180	9
13180	8123	8116	8115	9
13180	8123	8116	8117	9
13169	13170	13171	13178	9
13174	13170	13171	13178	9
13173	13172	13171	13178	9
13175	13172	13171	13178	9
13178	9526	9519	9520	9
13178	9526	9519	9518	9
13169	13180	8123	8116	9
13169	13180	8123	8125	9
13169	13170	13171	13172	9
13169	13168	13173	13172	9
13169	13168	13173	13177	9
13171	13178	9526	9519	9
13171	13178	9526	9528	9
13168	13169	13170	13171	9
13168	13173	13172	13171	9
13171	13172	13173	13177	9
13170	13169	13180	13181	9
13170	13169	13180	8123	9
13170	13169	13168	13173	9
13170	13169	13168	13176	9
13170	13171	13178	13179	9
13170	13171	13178	9526	9
13170	13171	13172	13173	9
13170	13171	13172	13175	9
13168	13169	13180	13181	9
13168	13169	13180	8123	9
13168	13169	13170	13174	9
13168	13173	13172	13175	9
13172	13171	13178	13179	9
13172	13171	13178	9526	9
13172	13171	13170	13174	9
13172	13173	13168	13176	9
13176	13168	13173	13177	9
13175	13172	13173	13177	9
13181	13180	8123	8116	9
13181	13180	8123	8125	9
13179	13178	9526	9519	9
13179	13178	9526	9528	9
5186	5185	5184	5195	9
5189	5185	5184	5195	9
5188	5183	5184	5195	9
5191	5183	5184	5195	9
5195	10081	10071	10070	9
5195	10081	10071	10074	9
5184	5185	5186	5193	9
5189	5185	5186	5193	9
5188	5187	5186	5193	9
5190	5187	5186	5193	9
5193	5203	5197	5200	9
5193	5203	5197	5198	9
5184	5195	10081	10071	9
5184	5195	10081	10083	9
5184	5185	5186	5187	9
5184	5183	5188	5187	9
5184	5183	5188	5192	9
5186	5193	5203	5197	9
5186	5193	5203	5204	9
5183	5184	5185	5186	9
5183	5188	5187	5186	9
5186	5187	5188	5192	9
5185	5184	5195	5196	9
5185	5184	5195	10081	9
5185	5184	5183	5188	9
5185	5184	5183	5191	9
5185	5186	5193	5194	9
5185	5186	5193	5203	9
5185	5186	5187	5188	9
5185	5186	5187	5190	9
5183	5184	5195	5196	9
5183	5184	5195	10081	9
5183	5184	5185	5189	9
5183	5188	5187	5190	9
5187	5186	5193	5194	9
5187	5186	5193	5203	9
5187	5186	5185	5189	9
5187	5188	5183	5191	9
5191	5183	5188	5192	9
5190	5187	5188	5192	9
5196	5195	10081	10071	9
5196	5195	10081	10083	9
5194	5193	5203	5197	9
5194	5193	5203	5204	9
12695	12694	12693	12704	9
12698	12694	12693	12704	9
12697	12692	12693	12704	9
12700	12692	12693	12704	9
12704	8461	8454	8455	9
12704	8461	8454	8453	9
12693	12694	12695	12702	9
12698	12694	12695	12702	9
12697	12696	12695	12702	9
12699	12696	12695	12702	9
12702	6609	6599	6598	9
12702	6609	6599	6602	9
12693	12704	8461	8454	9
12693	12704	8461	8463	9
12693	12694	12695	12696	9
12693	12692	12697	12696	9
12693	12692	12697	12701	9
12695	12702	6609	6599	9
12695	12702	6609	6611	9
12692	12693	12694	12695	9
12692	12697	12696	12695	9
12695	12696	12697	12701	9
12694	12693	12704	12705	9
12694	12693	12704	8461	9
12694	12693	12692	12697	9
12694	12693	12692	12700	9
12694	12695	12702	12703	9
12694	12695	12702	6609	9
12694	12695	12696	12697	9
12694	12695	12696	12699	9
12692	12693	12704	12705	9
12692	12693	12704	8461	9
12692	12693	12694	12698	9
12692	12697	12696	12699	9
12696	12695	12702	12703	9
12696	12695	12702	6609	9
12696	12695	12694	12698	9
12696	12697	12692	12700	9
12700	12692	12697	12701	9
12699	12696	12697	12701	9
12705	12704	8461	8454	9
12705	12704	8461	8463	9
12703	12702	6609	6599	9
12703	12702	6609	6611	9
11491	11490	11489	11500	9
11494	11490	11489	11500	9
11493	11488	11489	11500	9
11496	11488	11489	11500	9
11500	7061	7051	7050	9
11500	7061	7051	7054	9
11489	11490	11491	11498	9
11494	11490	11491	11498	9
11493	11492	11491	11498	9
11495	11492	11491	11498	9
11498	4380	4373	4374	9
11498	4380	4373	4372	9
11489	11500	7061	7051	9
11489	11500	7061	7063	9
11489	11490	11491	11492	9
11489	11488	11493	11492	9
11489	11488	11493	11497	9
11491	11498	4380	4373	9
11491	11498	4380	4382	9
11488	11489	11490	11491	9
11488	11493	11492	11491	9
11491	11492	11493	11497	9
11490	11489	11500	11501	9
11490	11489	11500	7061	9
11490	11489	11488	11493	9
11490	11489	11488	11496	9
11490	11491	11498	11499	9
11490	11491	11498	4380	9
11490	11491	11492	11493	9
11490	11491	11492	11495	9
11488	11489	11500	11501	9
11488	11489	11500	7061	9
11488	11489	11490	11494	9
11488	11493	11492	11495	9
11492	11491	11498	11499	9
11492	11491	11498	4380	9
11492	11491	11490	11494	9
11492	11493	11488	11496	9
11496	11488	11493	11497	9
11495	11492	11493	11497	9
11501	11500	7061	7051	9
11501	11500	7061	7063	9
11499	11498	4380	4373	9
11499	11498	4380	4382	9
1540	1539	1538	1549	9
1543	1539	1538	1549	9
1542	1537	1538	1549	9
1545	1537	1538	1549	9
1558	1557	1559	1549	9
1556	1557	1559	1549	9
1538	1539	1540	1547	9
1543	1539	1540	1547	9
1542	1541	1540	1547	9
1544	1541	1540	1547	9
1547	8183	8173	8172	9
1547	8183	8173	8176	9
1557	1559	1549	1538	9
1560	1559	1549	1538	9
1538	1539	1540	1541	9
1538	1537	1542	1541	9
1538	1537	1542	1546	9
1540	1547	8183	8173	9
1540	1547	8183	8185	9
1537	1538	1539	1540	9
1537	1542	1541	1540	9
1540	1541	1542	1546	9
1539	1538	1549	1550	9
1559	1549	1538	1539	9
1539	1538	1537	1542	9
1539	1538	1537	1545	9
1539	1540	1547	1548	9
1539	1540	1547	8183	9
1539	1540	1541	1542	9
1539	1540	1541	1544	9
1537	1538	1549	1550	9
1559	1549	1538	1537	9
1537	1538	1539	1543	9
1537	1542	1541	1544	9
1541	1540	1547	1548	9
1541	1540	1547	8183	9
1541	1540	1539	1543	9
1541	1542	1537	1545	9
1545	1537	1542	1546	9
1544	1541	1542	1546	9
1557	1559	1549	1550	9
1560	1559	1549	1550	9
1548	1547	8183	8173	9
1548	1547	8183	8185	9
6368	6367	6366	6377	9
6371	6367	6366	6377	9
6370	6365	6366	6377	9
6373	6365	6366	6377	9
6377	6385	6379	6382	9
6377	6385	6379	6380	9
6366	6367	6368	6375	9
6371	6367	6368	6375	9
6370	6369	6368	6375	9
6372	6369	6368	6375	9
6375	9584	9577	9578	9
6375	9584	9577	9576	9
6366	6377	6385	6379	9
6366	6377	6385	6386	9
6366	6367	6368	6369	9
6366	6365	6370	6369	9
6366	6365	6370	6374	9
6368	6375	9584	9577	9
6368	6375	9584	9586	9
6365	6366	6367	6368	9
6365	6370	6369	6368	9
6368	6369	6370	6374	9
6367	6366	6377	6378	9
6367	6366	6377	6385	9
6367	6366	6365	6370	9
6367	6366	6365	6373	9
6367	6368	6375	6376	9
6367	6368	6375	9584	9
6367	6368	6369	6370	9
6367	6368	6369	6372	9
6365	6366	6377	6378	9
6365	6366	6377	6385	9
6365	6366	6367	6371	9
6365	6370	6369	6372	9
6369	6368	6375	6376	9
6369	6368	6375	9584	9
6369	6368	6367	6371	9
6369	6370	6365	6373	9
6373	6365	6370	6374	9
6372	6369	6370	6374	9
6378	6377	6385	6379	9
6378	6377	6385	6386	9
6376	6375	9584	9577	9
6376	6375	9584	9586	9
12779	12778	12777	12788	9
12782	12778	12777	12788	9
12781	12776	12777	12788	9
12784	12776	12777	12788	9
12788	9395	9385	9388	9
12788	9395	9385	9384	9
12777	12778	12779	12786	9
12782	12778	12779	12786	9
12781	12780	12779	12786	9
12783	12780	12779	12786	9
12786	6944	6934	6933	9
12786	6944	6934	6937	9
12777	12788	9395	9385	9
12777	12788	9395	9397	9
12777	12778	12779	12780	9
12777	12776	12781	12780	9
12777	12776	12781	12785	9
12779	12786	6944	6934	9
12779	12786	6944	6946	9
12776	12777	12778	12779	9
12776	12781	12780	12779	9
12779	12780	12781	12785	9
12778	12777	12788	12789	9
12778	12777	12788	9395	9
12778	12777	12776	12781	9
12778	12777	12776	12784	9
12778	12779	12786	12787	9
12778	12779	12786	6944	9
12778	12779	12780	12781	9
12778	12779	12780	12783	9
12776	12777	12788	12789	9
12776	12777	12788	9395	9
12776	12777	12778	12782	9
12776	12781	12780	12783	9
12780	12779	12786	12787	9
12780	12779	12786	6944	9
12780	12779	12778	12782	9
12780	12781	12776	12784	9
12784	12776	12781	12785	9
12783	12780	12781	12785	9
12789	12788	9395	9385	9
12789	12788	9395	9397	9
12787	12786	6944	6934	9
12787	12786	6944	6946	9
13143	13142	13141	13152	9
13146	13142	13141	13152	9
13145	13140	13141	13152	9
13148	13140	13141	13152	9
13152	8270	8263	8264	9
13152	8270	8263	8262	9
13141	13142	13143	13150	9
13146	13142	13143	13150	9
13145	13144	13143	13150	9
13147	13144	13143	13150	9
13150	7993	7983	7986	9
13150	7993	7983	7982	9
13141	13152	8270	8263	9
13141	13152	8270	8272	9
13141	13142	13143	13144	9
13141	13140	13145	13144	9
13141	13140	13145	13149	9
13143	13150	7993	7983	9
13143	13150	7993	7995	9
13140	13141	13142	13143	9
13140	13145	13144	13143	9
13143	13144	13145	13149	9
13142	13141	13152	13153	9
13142	13141	13152	8270	9
13142	13141	13140	13145	9
13142	13141	13140	13148	9
13142	13143	13150	13151	9
13142	13143	13150	7993	9
13142	13143	13144	13145	9
13142	13143	13144	13147	9
13140	13141	13152	13153	9
13140	13141	13152	8270	9
13140	13141	13142	13146	9
13140	13145	13144	13147	9
13144	13143	13150	13151	9
13144	13143	13150	7993	9
13144	13143	13142	13146	9
13144	13145	13140	13148	9
13148	13140	13145	13149	9
13147	13144	13145	13149	9
13153	13152	8270	8263	9
13153	13152	8270	8272	9
13151	13150	7993	7983	9
13151	13150	7993	7995	9
13337	13338	13339	13346	9
13342	13338	13339	13346	9
13341	13340	13339	13346	9
13343	13340	13339	13346	9
13346	8373	8366	8367	9
13346	8373	8366	8365	9
13339	13338	13337	13348	9
13342	13338	13337	13348	9
13341	13336	13337	13348	9
13344	13336	13337	13348	9
13348	8972	8965	8966	9
13348	8972	8965	8964	9
13339	13346	8373	8366	9
13339	13346	8373	8375	9
13339	13338	13337	13336	9
13339	13340	13341	13336	9
13339	13340	13341	13345	9
13337	13348	8972	8965	9
13337	13348	8972	8974	9
13340	13339	13338	13337	9
13340	13341	13336	13337	9
13337	13336	13341	13345	9
13338	13339	13346	13347	9
13338	13339	13346	8373	9
13338	13339	13340	13341	9
13338	13339	13340	13343	9
13338	13337	13348	13349	9
13338	13337	13348	8972	9
13338	13337	13336	13341	9
13338	13337	13336	13344	9
13340	13339	13346	13347	9
13340	13339	13346	8373	9
13340	13339	13338	13342	9
13340	13341	13336	13344	9
13336	13337	13348	13349	9
13336	13337	13348	8972	9
13336	13337	13338	13342	9
13336	13341	13340	13343	9
13343	13340	13341	13345	9
13344	13336	13341	13345	9
13347	13346	8373	8366	9
13347	13346	8373	8375	9
13349	13348	8972	8965	9
13349	13348	8972	8974	9
12681	12680	12679	12690	9
12684	12680	12679	12690	9
12683	12678	12679	12690	9
12686	12678	12679	12690	9
12690	7279	7269	7272	9
12690	7279	7269	7268	9
12679	12680	12681	12688	9
12684	12680	12681	12688	9
12683	12682	12681	12688	9
12685	12682	12681	12688	9
12688	6608	6601	6602	9
12688	6608	6601	6600	9
12679	12690	7279	7269	9
12679	12690	7279	7281	9
12679	12680	12681	12682	9
12679	12678	12683	12682	9
12679	12678	12683	12687	9
12681	12688	6608	6601	9
12681	12688	6608	6610	9
12678	12679	12680	12681	9
12678	12683	12682	12681	9
12681	12682	12683	12687	9
12680	12679	12690	12691	9
12680	12679	12690	7279	9
12680	12679	12678	12683	9
12680	12679	12678	12686	9
12680	12681	12688	12689	9
12680	12681	12688	6608	9
12680	12681	12682	12683	9
12680	12681	12682	12685	9
12678	12679	12690	12691	9
12678	12679	12690	7279	9
12678	12679	12680	12684	9
12678	12683	12682	12685	9
12682	12681	12688	12689	9
12682	12681	12688	6608	9
12682	12681	12680	12684	9
12682	12683	12678	12686	9
12686	12678	12683	12687	9
12685	12682	12683	12687	9
12691	12690	7279	7269	9
12691	12690	7279	7281	9
12689	12688	6608	6601	9
12689	12688	6608	6610	9
1220	1221	1222	1229	9
1225	1221	1222	1229	9
1224	1223	1222	1229	9
1226	1223	1222	1229	9
1229	10417	10407	10410	9
1229	10417	10407	10406	9
1222	1221	1220	1231	9
1225	1221	1220	1231	9
1224	1219	1220	1231	9
1227	1219	1220	1231	9
1236	1235	1233	1231	9
1240	1235	1233	1231	9
1222	1229	10417	10407	9
1222	1229	10417	10419	9
1222	1221	1220	1219	9
1222	1223	1224	1219	9
1222	1223	1224	1228	9
1235	1233	1231	1220	9
1234	1233	1231	1220	9
1223	1222	1221	1220	9
1223	1224	1219	1220	9
1220	1219	1224	1228	9
1221	1222	1229	1230	9
1221	1222	1229	10417	9
1221	1222	1223	1224	9
1221	1222	1223	1226	9
1221	1220	1231	1232	9
1233	1231	1220	1221	9
1221	1220	1219	1224	9
1221	1220	1219	1227	9
1223	1222	1229	1230	9
1223	1222	1229	10417	9
1223	1222	1221	1225	9
1223	1224	1219	1227	9
1219	1220	1231	1232	9
1233	1231	1220	1219	9
1219	1220	1221	1225	9
1219	1224	1223	1226	9
1226	1223	1224	1228	9
1227	1219	1224	1228	9
1230	1229	10417	10407	9
1230	1229	10417	10419	9
1235	1233	1231	1232	9
1234	1233	1231	1232	9
7227	7226	7225	7236	9
7230	7226	7225	7236	9
7229	7224	7225	7236	9
7232	7224	7225	7236	9
7236	7244	7238	7241	9
7236	7244	7238	7239	9
7225	7226	7227	7234	9
7230	7226	7227	7234	9
7229	7228	7227	7234	9
7231	7228	7227	7234	9
7234	9624	9618	9619	9
7234	9624	9618	9621	9
7225	7236	7244	7238	9
7225	7236	7244	7245	9
7225	7226	7227	7228	9
7225	7224	7229	7228	9
7225	7224	7229	7233	9
7227	7234	9624	9618	9
7227	7234	9624	9625	9
7224	7225	7226	7227	9
7224	7229	7228	7227	9
7227	7228	7229	7233	9
7226	7225	7236	7237	9
7226	7225	7236	7244	9
7226	7225	7224	7229	9
7226	7225	7224	7232	9
7226	7227	7234	7235	9
7226	7227	7234	9624	9
7226	7227	7228	7229	9
7226	7227	7228	7231	9
7224	7225	7236	7237	9
7224	7225	7236	7244	9
7224	7225	7226	7230	9
7224	7229	7228	7231	9
7228	7227	7234	7235	9
7228	7227	7234	9624	9
7228	7227	7226	7230	9
7228	7229	7224	7232	9
7232	7224	7229	7233	9
7231	7228	7229	7233	9
7237	7236	7244	7238	9
7237	7236	7244	7245	9
7235	7234	9624	9618	9
7235	7234	9624	9625	9
1587	1586	1585	1596	9
1590	1586	1585	1596	9
1589	1584	1585	1596	9
1592	1584	1585	1596	9
1568	1567	1573	1596	9
1570	1567	1573	1596	9
1585	1586	1587	1594	9
1590	1586	1587	1594	9
1589	1588	1587	1594	9
1591	1588	1587	1594	9
1177	1178	1180	1594	9
1179	1178	1180	1594	9
1567	1573	1596	1585	9
1574	1573	1596	1585	9
1585	1586	1587	1588	9
1585	1584	1589	1588	9
1585	1584	1589	1593	9
1178	1180	1594	1587	9
1181	1180	1594	1587	9
1584	1585	1586	1587	9
1584	1589	1588	1587	9
1587	1588	1589	1593	9
1586	1585	1596	1597	9
1573	1596	1585	1586	9
1586	1585	1584	1589	9
1586	1585	1584	1592	9
1586	1587	1594	1595	9
1180	1594	1587	1586	9
1586	1587	1588	1589	9
1586	1587	1588	1591	9
1584	1585	1596	1597	9
1573	1596	1585	1584	9
1584	1585	1586	1590	9
1584	1589	1588	1591	9
1588	1587	1594	1595	9
1180	1594	1587	1588	9
1588	1587	1586	1590	9
1588	1589	1584	1592	9
1592	1584	1589	1593	9
1591	1588	1589	1593	9
1567	1573	1596	1597	9
1574	1573	1596	1597	9
1178	1180	1594	1595	9
1181	1180	1594	1595	9
505	504	503	514	9
508	504	503	514	9
507	502	503	514	9
510	502	503	514	9
514	5874	5868	5871	9
514	5874	5868	5869	9
503	504	505	512	9
508	504	505	512	9
507	506	505	512	9
509	506	505	512	9
523	518	516	512	9
519	518	516	512	9
503	514	5874	5868	9
503	514	5874	5875	9
503	504	505	506	9
503	502	507	506	9
503	502	507	511	9
518	516	512	505	9
517	516	512	505	9
502	503	504	505	9
502	507	506	505	9
505	506	507	511	9
504	503	514	515	9
504	503	514	5874	9
504	503	502	507	9
504	503	502	510	9
504	505	512	513	9
516	512	505	504	9
504	505	506	507	9
504	505	506	509	9
502	503	514	515	9
502	503	514	5874	9
502	503	504	508	9
502	507	506	509	9
506	505	512	513	9
516	512	505	506	9
506	505	504	508	9
506	507	502	510	9
510	502	507	511	9
509	506	507	511	9
515	514	5874	5868	9
515	514	5874	5875	9
518	516	512	513	9
517	516	512	513	9
13017	13016	13015	13026	9
13020	13016	13015	13026	9
13019	13014	13015	13026	9
13022	13014	13015	13026	9
13026	8870	8863	8864	9
13026	8870	8863	8862	9
13015	13016	13017	13024	9
13020	13016	13017	13024	9
13019	13018	13017	13024	9
13021	13018	13017	13024	9
13024	7599	7592	7591	9
13024	7599	7592	7593	9
13015	13026	8870	8863	9
13015	13026	8870	8872	9
13015	13016	13017	13018	9
13015	13014	13019	13018	9
13015	13014	13019	13023	9
13017	13024	7599	7592	9
13017	13024	7599	7601	9
13014	13015	13016	13017	9
13014	13019	13018	13017	9
13017	13018	13019	13023	9
13016	13015	13026	13027	9
13016	13015	13026	8870	9
13016	13015	13014	13019	9
13016	13015	13014	13022	9
13016	13017	13024	13025	9
13016	13017	13024	7599	9
13016	13017	13018	13019	9
13016	13017	13018	13021	9
13014	13015	13026	13027	9
13014	13015	13026	8870	9
13014	13015	13016	13020	9
13014	13019	13018	13021	9
13018	13017	13024	13025	9
13018	13017	13024	7599	9
13018	13017	13016	13020	9
13018	13019	13014	13022	9
13022	13014	13019	13023	9
13021	13018	13019	13023	9
13027	13026	8870	8863	9
13027	13026	8870	8872	9
13025	13024	7599	7592	9
13025	13024	7599	7601	9
8351	8350	8349	8360	9
8354	8350	8349	8360	9
8353	8348	8349	8360	9
8356	8348	8349	8360	9
8360	8368	8362	8363	9
8360	8368	8362	8365	9
8349	8350	8351	8358	9
8354	8350	8351	8358	9
8353	8352	8351	8358	9
8355	8352	8351	8358	9
8358	10139	10129	10128	9
8358	10139	10129	10132	9
8349	8360	8368	8362	9
8349	8360	8368	8369	9
8349	8350	8351	8352	9
8349	8348	8353	8352	9
8349	8348	8353	8357	9
8351	8358	10139	10129	9
8351	8358	10139	10141	9
8348	8349	8350	8351	9
8348	8353	8352	8351	9
8351	8352	8353	8357	9
8350	8349	8360	8361	9
8350	8349	8360	8368	9
8350	8349	8348	8353	9
8350	8349	8348	8356	9
8350	8351	8358	8359	9
8350	8351	8358	10139	9
8350	8351	8352	8353	9
8350	8351	8352	8355	9
8348	8349	8360	8361	9
8348	8349	8360	8368	9
8348	8349	8350	8354	9
8348	8353	8352	8355	9
8352	8351	8358	8359	9
8352	8351	8358	10139	9
8352	8351	8350	8354	9
8352	8353	8348	8356	9
8356	8348	8353	8357	9
8355	8352	8353	8357	9
8361	8360	8368	8362	9
8361	8360	8368	8369	9
8359	8358	10139	10129	9
8359	8358	10139	10141	9
4704	4705	4706	4713	9
4709	4705	4706	4713	9
4708	4707	4706	4713	9
4710	4707	4706	4713	9
4713	7089	7082	7081	9
4713	7089	7082	7083	9
4706	4705	4704	4715	9
4709	4705	4704	4715	9
4708	4703	4704	4715	9
4711	4703	4704	4715	9
4715	4723	4717	4720	9
4715	4723	4717	4718	9
4706	4713	7089	7082	9
4706	4713	7089	7091	9
4703	4704	4705	4706	9
4703	4708	4707	4706	9
4706	4707	4708	4712	9
4704	4715	4723	4717	9
4704	4715	4723	4724	9
4704	4705	4706	4707	9
4704	4703	4708	4707	9
4704	4703	4708	4712	9
4705	4706	4713	4714	9
4705	4706	4713	7089	9
4705	4706	4707	4708	9
4705	4706	4707	4710	9
4705	4704	4715	4716	9
4705	4704	4715	4723	9
4705	4704	4703	4708	9
4705	4704	4703	4711	9
4707	4706	4713	4714	9
4707	4706	4713	7089	9
4707	4706	4705	4709	9
4707	4708	4703	4711	9
4703	4704	4715	4716	9
4703	4704	4715	4723	9
4703	4704	4705	4709	9
4703	4708	4707	4710	9
4710	4707	4708	4712	9
4711	4703	4708	4712	9
4714	4713	7089	7082	9
4714	4713	7089	7091	9
4716	4715	4723	4717	9
4716	4715	4723	4724	9
3684	3685	3686	3693	9
3689	3685	3686	3693	9
3688	3687	3686	3693	9
3690	3687	3686	3693	9
3693	11119	11112	11113	9
3693	11119	11112	11111	9
3686	3685	3684	3695	9
3689	3685	3684	3695	9
3688	3683	3684	3695	9
3691	3683	3684	3695	9
3686	3693	11119	11112	9
3686	3693	11119	11121	9
3683	3684	3685	3686	9
3683	3688	3687	3686	9
3686	3687	3688	3692	9
3684	3685	3686	3687	9
3684	3683	3688	3687	9
3684	3683	3688	3692	9
3685	3686	3693	3694	9
3685	3686	3693	11119	9
3685	3686	3687	3688	9
3685	3686	3687	3690	9
3685	3684	3695	3696	9
3685	3684	3695	3697	9
3685	3684	3683	3688	9
3685	3684	3683	3691	9
3687	3686	3693	3694	9
3687	3686	3693	11119	9
3687	3686	3685	3689	9
3687	3688	3683	3691	9
3683	3684	3695	3696	9
3683	3684	3695	3697	9
3683	3684	3685	3689	9
3683	3688	3687	3690	9
3690	3687	3688	3692	9
3691	3683	3688	3692	9
3694	3693	11119	11112	9
3694	3693	11119	11121	9
12261	12260	12259	12270	9
12264	12260	12259	12270	9
12263	12258	12259	12270	9
12266	12258	12259	12270	9
12270	10104	10098	10099	9
12270	10104	10098	10101	9
12259	12260	12261	12268	9
12264	12260	12261	12268	9
12263	12262	12261	12268	9
12265	12262	12261	12268	9
12268	5763	5753	5756	9
12268	5763	5753	5752	9
12259	12270	10104	10098	9
12259	12270	10104	10105	9
12259	12260	12261	12262	9
12259	12258	12263	12262	9
12259	12258	12263	12267	9
12261	12268	5763	5753	9
12261	12268	5763	5765	9
12258	12259	12260	12261	9
12258	12263	12262	12261	9
12261	12262	12263	12267	9
12260	12259	12270	12271	9
12260	12259	12270	10104	9
12260	12259	12258	12263	9
12260	12259	12258	12266	9
12260	12261	12268	12269	9
12260	12261	12268	5763	9
12260	12261	12262	12263	9
12260	12261	12262	12265	9
12258	12259	12270	12271	9
12258	12259	12270	10104	9
12258	12259	12260	12264	9
12258	12263	12262	12265	9
12262	12261	12268	12269	9
12262	12261	12268	5763	9
12262	12261	12260	12264	9
12262	12263	12258	12266	9
12266	12258	12263	12267	9
12265	12262	12263	12267	9
12271	12270	10104	10098	9
12271	12270	10104	10105	9
12269	12268	5763	5753	9
12269	12268	5763	5765	9
5215	5214	5213	5224	9
5218	5214	5213	5224	9
5217	5212	5213	5224	9
5220	5212	5213	5224	9
5224	5232	5226	5227	9
5224	5232	5226	5229	9
5213	5214	5215	5222	9
5218	5214	5215	5222	9
5217	5216	5215	5222	9
5219	5216	5215	5222	9
5222	8221	8215	8216	9
5222	8221	8215	8218	9
5213	5224	5232	5226	9
5213	5224	5232	5233	9
5213	5214	5215	5216	9
5213	5212	5217	5216	9
5213	5212	5217	5221	9
5215	5222	8221	8215	9
5215	5222	8221	8222	9
5212	5213	5214	5215	9
5212	5217	5216	5215	9
5215	5216	5217	5221	9
5214	5213	5224	5225	9
5214	5213	5224	5232	9
5214	5213	5212	5217	9
5214	5213	5212	5220	9
5214	5215	5222	5223	9
5214	5215	5222	8221	9
5214	5215	5216	5217	9
5214	5215	5216	5219	9
5212	5213	5224	5225	9
5212	5213	5224	5232	9
5212	5213	5214	5218	9
5212	5217	5216	5219	9
5216	5215	5222	5223	9
5216	5215	5222	8221	9
5216	5215	5214	5218	9
5216	5217	5212	5220	9
5220	5212	5217	5221	9
5219	5216	5217	5221	9
5225	5224	5232	5226	9
5225	5224	5232	5233	9
5223	5222	8221	8215	9
5223	5222	8221	8222	9
7679	7678	7677	7688	9
7682	7678	7677	7688	9
7681	7676	7677	7688	9
7684	7676	7677	7688	9
7688	7696	7690	7691	9
7688	7696	7690	7693	9
7677	7678	7679	7686	9
7682	7678	7679	7686	9
7681	7680	7679	7686	9
7683	7680	7679	7686	9
7686	4409	4402	4403	9
7686	4409	4402	4401	9
7677	7688	7696	7690	9
7677	7688	7696	7697	9
7677	7678	7679	7680	9
7677	7676	7681	7680	9
7677	7676	7681	7685	9
7679	7686	4409	4402	9
7679	7686	4409	4411	9
7676	7677	7678	7679	9
7676	7681	7680	7679	9
7679	7680	7681	7685	9
7678	7677	7688	7689	9
7678	7677	7688	7696	9
7678	7677	7676	7681	9
7678	7677	7676	7684	9
7678	7679	7686	7687	9
7678	7679	7686	4409	9
7678	7679	7680	7681	9
7678	7679	7680	7683	9
7676	7677	7688	7689	9
7676	7677	7688	7696	9
7676	7677	7678	7682	9
7676	7681	7680	7683	9
7680	7679	7686	7687	9
7680	7679	7686	4409	9
7680	7679	7678	7682	9
7680	7681	7676	7684	9
7684	7676	7681	7685	9
7683	7680	7681	7685	9
7689	7688	7696	7690	9
7689	7688	7696	7697	9
7687	7686	4409	4402	9
7687	7686	4409	4411	9
9283	9284	9285	9292	9
9288	9284	9285	9292	9
9287	9286	9285	9292	9
9289	9286	9285	9292	9
463	462	464	9292	9
461	462	464	9292	9
9285	9284	9283	9294	9
9288	9284	9283	9294	9
9287	9282	9283	9294	9
9290	9282	9283	9294	9
9294	9302	9296	9297	9
9294	9302	9296	9299	9
462	464	9292	9285	9
465	464	9292	9285	9
9282	9283	9284	9285	9
9282	9287	9286	9285	9
9285	9286	9287	9291	9
9283	9294	9302	9296	9
9283	9294	9302	9303	9
9283	9284	9285	9286	9
9283	9282	9287	9286	9
9283	9282	9287	9291	9
9284	9285	9292	9293	9
464	9292	9285	9284	9
9284	9285	9286	9287	9
9284	9285	9286	9289	9
9284	9283	9294	9295	9
9284	9283	9294	9302	9
9284	9283	9282	9287	9
9284	9283	9282	9290	9
9286	9285	9292	9293	9
464	9292	9285	9286	9
9286	9285	9284	9288	9
9286	9287	9282	9290	9
9282	9283	9294	9295	9
9282	9283	9294	9302	9
9282	9283	9284	9288	9
9282	9287	9286	9289	9
9289	9286	9287	9291	9
9290	9282	9287	9291	9
462	464	9292	9293	9
465	464	9292	9293	9
9295	9294	9302	9296	9
9295	9294	9302	9303	9
2058	2057	2056	2067	9
2061	2057	2056	2067	9
2060	2055	2056	2067	9
2063	2055	2056	2067	9
2072	2071	2069	2067	9
2076	2071	2069	2067	9
2056	2057	2058	2065	9
2061	2057	2058	2065	9
2060	2059	2058	2065	9
2062	2059	2058	2065	9
2065	9026	9020	9023	9
2065	9026	9020	9021	9
2071	2069	2067	2056	9
2070	2069	2067	2056	9
2056	2057	2058	2059	9
2056	2055	2060	2059	9
2056	2055	2060	2064	9
2058	2065	9026	9020	9
2058	2065	9026	9027	9
2055	2056	2057	2058	9
2055	2060	2059	2058	9
2058	2059	2060	2064	9
2057	2056	2067	2068	9
2069	2067	2056	2057	9
2057	2056	2055	2060	9
2057	2056	2055	2063	9
2057	2058	2065	2066	9
2057	2058	2065	9026	9
2057	2058	2059	2060	9
2057	2058	2059	2062	9
2055	2056	2067	2068	9
2069	2067	2056	2055	9
2055	2056	2057	2061	9
2055	2060	2059	2062	9
2059	2058	2065	2066	9
2059	2058	2065	9026	9
2059	2058	2057	2061	9
2059	2060	2055	2063	9
2063	2055	2060	2064	9
2062	2059	2060	2064	9
2071	2069	2067	2068	9
2070	2069	2067	2068	9
2066	2065	9026	9020	9
2066	2065	9026	9027	9
10803	10802	10801	10812	9
10806	10802	10801	10812	9
10805	10800	10801	10812	9
10808	10800	10801	10812	9
10812	10820	10814	10817	9
10812	10820	10814	10815	9
10801	10802	10803	10810	9
10806	10802	10803	10810	9
10805	10804	10803	10810	9
10807	10804	10803	10810	9
10810	7644	7634	7637	9
10810	7644	7634	7633	9
10801	10812	10820	10814	9
10801	10812	10820	10821	9
10801	10802	10803	10804	9
10801	10800	10805	10804	9
10801	10800	10805	10809	9
10803	10810	7644	7634	9
10803	10810	7644	7646	9
10800	10801	10802	10803	9
10800	10805	10804	10803	9
10803	10804	10805	10809	9
10802	10801	10812	10813	9
10802	10801	10812	10820	9
10802	10801	10800	10805	9
10802	10801	10800	10808	9
10802	10803	10810	10811	9
10802	10803	10810	7644	9
10802	10803	10804	10805	9
10802	10803	10804	10807	9
10800	10801	10812	10813	9
10800	10801	10812	10820	9
10800	10801	10802	10806	9
10800	10805	10804	10807	9
10804	10803	10810	10811	9
10804	10803	10810	7644	9
10804	10803	10802	10806	9
10804	10805	10800	10808	9
10808	10800	10805	10809	9
10807	10804	10805	10809	9
10813	10812	10820	10814	9
10813	10812	10820	10821	9
10811	10810	7644	7634	9
10811	10810	7644	7646	9
13101	13100	13099	13110	9
13104	13100	13099	13110	9
13103	13098	13099	13110	9
13106	13098	13099	13110	9
2439	2438	2445	13110	9
2437	2438	2445	13110	9
13099	13100	13101	13108	9
13104	13100	13101	13108	9
13103	13102	13101	13108	9
13105	13102	13101	13108	9
13108	7875	7868	7869	9
13108	7875	7868	7867	9
2438	2445	13110	13099	9
2447	2445	13110	13099	9
13099	13100	13101	13102	9
13099	13098	13103	13102	9
13099	13098	13103	13107	9
13101	13108	7875	7868	9
13101	13108	7875	7877	9
13098	13099	13100	13101	9
13098	13103	13102	13101	9
13101	13102	13103	13107	9
13100	13099	13110	13111	9
2445	13110	13099	13100	9
13100	13099	13098	13103	9
13100	13099	13098	13106	9
13100	13101	13108	13109	9
13100	13101	13108	7875	9
13100	13101	13102	13103	9
13100	13101	13102	13105	9
13098	13099	13110	13111	9
2445	13110	13099	13098	9
13098	13099	13100	13104	9
13098	13103	13102	13105	9
13102	13101	13108	13109	9
13102	13101	13108	7875	9
13102	13101	13100	13104	9
13102	13103	13098	13106	9
13106	13098	13103	13107	9
13105	13102	13103	13107	9
2438	2445	13110	13111	9
2447	2445	13110	13111	9
13109	13108	7875	7868	9
13109	13108	7875	7877	9
13589	13590	13591	13598	9
13594	13590	13591	13598	9
13593	13592	13591	13598	9
13595	13592	13591	13598	9
13598	9863	9853	9856	9
13598	9863	9853	9852	9
13591	13590	13589	13600	9
13594	13590	13589	13600	9
13593	13588	13589	13600	9
13596	13588	13589	13600	9
961	962	969	13600	9
963	962	969	13600	9
13591	13598	9863	9853	9
13591	13598	9863	9865	9
13588	13589	13590	13591	9
13588	13593	13592	13591	9
13591	13592	13593	13597	9
962	969	13600	13589	9
971	969	13600	13589	9
13589	13590	13591	13592	9
13589	13588	13593	13592	9
13589	13588	13593	13597	9
13590	13591	13598	13599	9
13590	13591	13598	9863	9
13590	13591	13592	13593	9
13590	13591	13592	13595	9
13590	13589	13600	13601	9
969	13600	13589	13590	9
13590	13589	13588	13593	9
13590	13589	13588	13596	9
13592	13591	13598	13599	9
13592	13591	13598	9863	9
13592	13591	13590	13594	9
13592	13593	13588	13596	9
13588	13589	13600	13601	9
969	13600	13589	13588	9
13588	13589	13590	13594	9
13588	13593	13592	13595	9
13595	13592	13593	13597	9
13596	13588	13593	13597	9
13599	13598	9863	9853	9
13599	13598	9863	9865	9
962	969	13600	13601	9
971	969	13600	13601	9
11589	11588	11587	11598	9
11592	11588	11587	11598	9
11591	11586	11587	11598	9
11594	11586	11587	11598	9
11598	4612	4605	4604	9
11598	4612	4605	4606	9
11587	11588	11589	11596	9
11592	11588	11589	11596	9
11591	11590	11589	11596	9
11593	11590	11589	11596	9
11596	10973	10963	10966	9
11596	10973	10963	10962	9
11587	11598	4612	4605	9
11587	11598	4612	4614	9
11587	11588	11589	11590	9
11587	11586	11591	11590	9
11587	11586	11591	11595	9
11589	11596	10973	10963	9
11589	11596	10973	10975	9
11586	11587	11588	11589	9
11586	11591	11590	11589	9
11589	11590	11591	11595	9
11588	11587	11598	11599	9
11588	11587	11598	4612	9
11588	11587	11586	11591	9
11588	11587	11586	11594	9
11588	11589	11596	11597	9
11588	11589	11596	10973	9
11588	11589	11590	11591	9
11588	11589	11590	11593	9
11586	11587	11598	11599	9
11586	11587	11598	4612	9
11586	11587	11588	11592	9
11586	11591	11590	11593	9
11590	11589	11596	11597	9
11590	11589	11596	10973	9
11590	11589	11588	11592	9
11590	11591	11586	11594	9
11594	11586	11591	11595	9
11593	11590	11591	11595	9
11599	11598	4612	4605	9
11599	11598	4612	4614	9
11597	11596	10973	10963	9
11597	11596	10973	10975	9
2314	2315	2316	2323	9
2319	2315	2316	2323	9
2318	2317	2316	2323	9
2320	2317	2316	2323	9
2323	4990	4983	4984	9
2323	4990	4983	4982	9
2316	2315	2314	2325	9
2319	2315	2314	2325	9
2318	2313	2314	2325	9
2321	2313	2314	2325	9
2330	2329	2327	2325	9
2334	2329	2327	2325	9
2316	2323	4990	4983	9
2316	2323	4990	4992	9
2316	2315	2314	2313	9
2316	2317	2318	2313	9
2316	2317	2318	2322	9
2329	2327	2325	2314	9
2328	2327	2325	2314	9
2317	2316	2315	2314	9
2317	2318	2313	2314	9
2314	2313	2318	2322	9
2315	2316	2323	2324	9
2315	2316	2323	4990	9
2315	2316	2317	2318	9
2315	2316	2317	2320	9
2315	2314	2325	2326	9
2327	2325	2314	2315	9
2315	2314	2313	2318	9
2315	2314	2313	2321	9
2317	2316	2323	2324	9
2317	2316	2323	4990	9
2317	2316	2315	2319	9
2317	2318	2313	2321	9
2313	2314	2325	2326	9
2327	2325	2314	2313	9
2313	2314	2315	2319	9
2313	2318	2317	2320	9
2320	2317	2318	2322	9
2321	2313	2318	2322	9
2324	2323	4990	4983	9
2324	2323	4990	4992	9
2329	2327	2325	2326	9
2328	2327	2325	2326	9
3791	3790	3789	3800	9
3794	3790	3789	3800	9
3793	3788	3789	3800	9
3796	3788	3789	3800	9
3800	3808	3802	3803	9
3800	3808	3802	3805	9
3789	3790	3791	3798	9
3794	3790	3791	3798	9
3793	3792	3791	3798	9
3795	3792	3791	3798	9
3798	10718	10712	10715	9
3798	10718	10712	10713	9
3789	3800	3808	3802	9
3789	3800	3808	3809	9
3789	3790	3791	3792	9
3789	3788	3793	3792	9
3789	3788	3793	3797	9
3791	3798	10718	10712	9
3791	3798	10718	10719	9
3788	3789	3790	3791	9
3788	3793	3792	3791	9
3791	3792	3793	3797	9
3790	3789	3800	3801	9
3790	3789	3800	3808	9
3790	3789	3788	3793	9
3790	3789	3788	3796	9
3790	3791	3798	3799	9
3790	3791	3798	10718	9
3790	3791	3792	3793	9
3790	3791	3792	3795	9
3788	3789	3800	3801	9
3788	3789	3800	3808	9
3788	3789	3790	3794	9
3788	3793	3792	3795	9
3792	3791	3798	3799	9
3792	3791	3798	10718	9
3792	3791	3790	3794	9
3792	3793	3788	3796	9
3796	3788	3793	3797	9
3795	3792	3793	3797	9
3801	3800	3808	3802	9
3801	3800	3808	3809	9
3799	3798	10718	10712	9
3799	3798	10718	10719	9
13423	13422	13421	13432	9
13426	13422	13421	13432	9
13425	13420	13421	13432	9
13428	13420	13421	13432	9
13432	8797	8790	8791	9
13432	8797	8790	8789	9
13421	13422	13423	13430	9
13426	13422	13423	13430	9
13425	13424	13423	13430	9
13427	13424	13423	13430	9
1268	1269	1271	13430	9
1270	1269	1271	13430	9
13421	13432	8797	8790	9
13421	13432	8797	8799	9
13421	13422	13423	13424	9
13421	13420	13425	13424	9
13421	13420	13425	13429	9
1269	1271	13430	13423	9
1272	1271	13430	13423	9
13420	13421	13422	13423	9
13420	13425	13424	13423	9
13423	13424	13425	13429	9
13422	13421	13432	13433	9
13422	13421	13432	8797	9
13422	13421	13420	13425	9
13422	13421	13420	13428	9
13422	13423	13430	13431	9
1271	13430	13423	13422	9
13422	13423	13424	13425	9
13422	13423	13424	13427	9
13420	13421	13432	13433	9
13420	13421	13432	8797	9
13420	13421	13422	13426	9
13420	13425	13424	13427	9
13424	13423	13430	13431	9
1271	13430	13423	13424	9
13424	13423	13422	13426	9
13424	13425	13420	13428	9
13428	13420	13425	13429	9
13427	13424	13425	13429	9
13433	13432	8797	8790	9
13433	13432	8797	8799	9
1269	1271	13430	13431	9
1272	1271	13430	13431	9
11785	11784	11783	11794	9
11788	11784	11783	11794	9
11787	11782	11783	11794	9
11790	11782	11783	11794	9
11794	4889	4879	4882	9
11794	4889	4879	4878	9
11783	11784	11785	11792	9
11788	11784	11785	11792	9
11787	11786	11785	11792	9
11789	11786	11785	11792	9
11792	11017	11007	11010	9
11792	11017	11007	11006	9
11783	11794	4889	4879	9
11783	11794	4889	4891	9
11783	11784	11785	11786	9
11783	11782	11787	11786	9
11783	11782	11787	11791	9
11785	11792	11017	11007	9
11785	11792	11017	11019	9
11782	11783	11784	11785	9
11782	11787	11786	11785	9
11785	11786	11787	11791	9
11784	11783	11794	11795	9
11784	11783	11794	4889	9
11784	11783	11782	11787	9
11784	11783	11782	11790	9
11784	11785	11792	11793	9
11784	11785	11792	11017	9
11784	11785	11786	11787	9
11784	11785	11786	11789	9
11782	11783	11794	11795	9
11782	11783	11794	4889	9
11782	11783	11784	11788	9
11782	11787	11786	11789	9
11786	11785	11792	11793	9
11786	11785	11792	11017	9
11786	11785	11784	11788	9
11786	11787	11782	11790	9
11790	11782	11787	11791	9
11789	11786	11787	11791	9
11795	11794	4889	4879	9
11795	11794	4889	4891	9
11793	11792	11017	11007	9
11793	11792	11017	11019	9
11729	11728	11727	11738	9
11732	11728	11727	11738	9
11731	11726	11727	11738	9
11734	11726	11727	11738	9
11738	4816	4806	4809	9
11738	4816	4806	4805	9
11727	11728	11729	11736	9
11732	11728	11729	11736	9
11731	11730	11729	11736	9
11733	11730	11729	11736	9
11736	10240	10233	10232	9
11736	10240	10233	10234	9
11727	11738	4816	4806	9
11727	11738	4816	4818	9
11727	11728	11729	11730	9
11727	11726	11731	11730	9
11727	11726	11731	11735	9
11729	11736	10240	10233	9
11729	11736	10240	10242	9
11726	11727	11728	11729	9
11726	11731	11730	11729	9
11729	11730	11731	11735	9
11728	11727	11738	11739	9
11728	11727	11738	4816	9
11728	11727	11726	11731	9
11728	11727	11726	11734	9
11728	11729	11736	11737	9
11728	11729	11736	10240	9
11728	11729	11730	11731	9
11728	11729	11730	11733	9
11726	11727	11738	11739	9
11726	11727	11738	4816	9
11726	11727	11728	11732	9
11726	11731	11730	11733	9
11730	11729	11736	11737	9
11730	11729	11736	10240	9
11730	11729	11728	11732	9
11730	11731	11726	11734	9
11734	11726	11731	11735	9
11733	11730	11731	11735	9
11739	11738	4816	4806	9
11739	11738	4816	4818	9
11737	11736	10240	10233	9
11737	11736	10240	10242	9
931	930	929	940	9
934	930	929	940	9
933	928	929	940	9
936	928	929	940	9
945	944	942	940	9
949	944	942	940	9
929	930	931	938	9
934	930	931	938	9
933	932	931	938	9
935	932	931	938	9
938	5904	5898	5899	9
938	5904	5898	5901	9
944	942	940	929	9
943	942	940	929	9
929	930	931	932	9
929	928	933	932	9
929	928	933	937	9
931	938	5904	5898	9
931	938	5904	5905	9
928	929	930	931	9
928	933	932	931	9
931	932	933	937	9
930	929	940	941	9
942	940	929	930	9
930	929	928	933	9
930	929	928	936	9
930	931	938	939	9
930	931	938	5904	9
930	931	932	933	9
930	931	932	935	9
928	929	940	941	9
942	940	929	928	9
928	929	930	934	9
928	933	932	935	9
932	931	938	939	9
932	931	938	5904	9
932	931	930	934	9
932	933	928	936	9
936	928	933	937	9
935	932	933	937	9
944	942	940	941	9
943	942	940	941	9
939	938	5904	5898	9
939	938	5904	5905	9
6688	6687	6686	6697	9
6691	6687	6686	6697	9
6690	6685	6686	6697	9
6693	6685	6686	6697	9
6697	6705	6699	6700	9
6697	6705	6699	6702	9
6686	6687	6688	6695	9
6691	6687	6688	6695	9
6690	6689	6688	6695	9
6692	6689	6688	6695	9
1114	1115	1122	6695	9
1116	1115	1122	6695	9
6686	6697	6705	6699	9
6686	6697	6705	6706	9
6686	6687	6688	6689	9
6686	6685	6690	6689	9
6686	6685	6690	6694	9
1115	1122	6695	6688	9
1124	1122	6695	6688	9
6685	6686	6687	6688	9
6685	6690	6689	6688	9
6688	6689	6690	6694	9
6687	6686	6697	6698	9
6687	6686	6697	6705	9
6687	6686	6685	6690	9
6687	6686	6685	6693	9
6687	6688	6695	6696	9
1122	6695	6688	6687	9
6687	6688	6689	6690	9
6687	6688	6689	6692	9
6685	6686	6697	6698	9
6685	6686	6697	6705	9
6685	6686	6687	6691	9
6685	6690	6689	6692	9
6689	6688	6695	6696	9
1122	6695	6688	6689	9
6689	6688	6687	6691	9
6689	6690	6685	6693	9
6693	6685	6690	6694	9
6692	6689	6690	6694	9
6698	6697	6705	6699	9
6698	6697	6705	6706	9
1115	1122	6695	6696	9
1124	1122	6695	6696	9
6615	6614	6613	6624	9
6618	6614	6613	6624	9
6617	6612	6613	6624	9
6620	6612	6613	6624	9
6624	5151	5141	5144	9
6624	5151	5141	5140	9
6613	6614	6615	6622	9
6618	6614	6615	6622	9
6617	6616	6615	6622	9
6619	6616	6615	6622	9
6622	6632	6626	6629	9
6622	6632	6626	6627	9
6613	6624	5151	5141	9
6613	6624	5151	5153	9
6613	6614	6615	6616	9
6613	6612	6617	6616	9
6613	6612	6617	6621	9
6615	6622	6632	6626	9
6615	6622	6632	6633	9
6612	6613	6614	6615	9
6612	6617	6616	6615	9
6615	6616	6617	6621	9
6614	6613	6624	6625	9
6614	6613	6624	5151	9
6614	6613	6612	6617	9
6614	6613	6612	6620	9
6614	6615	6622	6623	9
6614	6615	6622	6632	9
6614	6615	6616	6617	9
6614	6615	6616	6619	9
6612	6613	6624	6625	9
6612	6613	6624	5151	9
6612	6613	6614	6618	9
6612	6617	6616	6619	9
6616	6615	6622	6623	9
6616	6615	6622	6632	9
6616	6615	6614	6618	9
6616	6617	6612	6620	9
6620	6612	6617	6621	9
6619	6616	6617	6621	9
6625	6624	5151	5141	9
6625	6624	5151	5153	9
6623	6622	6632	6626	9
6623	6622	6632	6633	9
12387	12386	12385	12396	9
12390	12386	12385	12396	9
12389	12384	12385	12396	9
12392	12384	12385	12396	9
1496	1497	1499	12396	9
1498	1497	1499	12396	9
12385	12386	12387	12394	9
12390	12386	12387	12394	9
12389	12388	12387	12394	9
12391	12388	12387	12394	9
12394	5967	5960	5959	9
12394	5967	5960	5961	9
1497	1499	12396	12385	9
1500	1499	12396	12385	9
12385	12386	12387	12388	9
12385	12384	12389	12388	9
12385	12384	12389	12393	9
12387	12394	5967	5960	9
12387	12394	5967	5969	9
12384	12385	12386	12387	9
12384	12389	12388	12387	9
12387	12388	12389	12393	9
12386	12385	12396	12397	9
1499	12396	12385	12386	9
12386	12385	12384	12389	9
12386	12385	12384	12392	9
12386	12387	12394	12395	9
12386	12387	12394	5967	9
12386	12387	12388	12389	9
12386	12387	12388	12391	9
12384	12385	12396	12397	9
1499	12396	12385	12384	9
12384	12385	12386	12390	9
12384	12389	12388	12391	9
12388	12387	12394	12395	9
12388	12387	12394	5967	9
12388	12387	12386	12390	9
12388	12389	12384	12392	9
12392	12384	12389	12393	9
12391	12388	12389	12393	9
1497	1499	12396	12397	9
1500	1499	12396	12397	9
12395	12394	5967	5960	9
12395	12394	5967	5969	9
3236	3235	3234	3245	9
3239	3235	3234	3245	9
3238	3233	3234	3245	9
3241	3233	3234	3245	9
3234	3235	3236	3243	9
3239	3235	3236	3243	9
3238	3237	3236	3243	9
3240	3237	3236	3243	9
3243	8865	8859	8860	9
3243	8865	8859	8862	9
3234	3235	3236	3237	9
3234	3233	3238	3237	9
3234	3233	3238	3242	9
3236	3243	8865	8859	9
3236	3243	8865	8866	9
3233	3234	3235	3236	9
3233	3238	3237	3236	9
3236	3237	3238	3242	9
3235	3234	3245	3247	9
3235	3234	3245	3246	9
3235	3234	3233	3238	9
3235	3234	3233	3241	9
3235	3236	3243	3244	9
3235	3236	3243	8865	9
3235	3236	3237	3238	9
3235	3236	3237	3240	9
3233	3234	3245	3247	9
3233	3234	3245	3246	9
3233	3234	3235	3239	9
3233	3238	3237	3240	9
3237	3236	3243	3244	9
3237	3236	3243	8865	9
3237	3236	3235	3239	9
3237	3238	3233	3241	9
3241	3233	3238	3242	9
3240	3237	3238	3242	9
3244	3243	8865	8859	9
3244	3243	8865	8866	9
735	734	733	744	9
738	734	733	744	9
737	732	733	744	9
740	732	733	744	9
718	715	721	744	9
716	715	721	744	9
733	734	735	742	9
738	734	735	742	9
737	736	735	742	9
739	736	735	742	9
742	4956	4950	4951	9
742	4956	4950	4953	9
715	721	744	733	9
722	721	744	733	9
733	734	735	736	9
733	732	737	736	9
733	732	737	741	9
735	742	4956	4950	9
735	742	4956	4957	9
732	733	734	735	9
732	737	736	735	9
735	736	737	741	9
734	733	744	745	9
721	744	733	734	9
734	733	732	737	9
734	733	732	740	9
734	735	742	743	9
734	735	742	4956	9
734	735	736	737	9
734	735	736	739	9
732	733	744	745	9
721	744	733	732	9
732	733	734	738	9
732	737	736	739	9
736	735	742	743	9
736	735	742	4956	9
736	735	734	738	9
736	737	732	740	9
740	732	737	741	9
739	736	737	741	9
715	721	744	745	9
722	721	744	745	9
743	742	4956	4950	9
743	742	4956	4957	9
8804	8803	8802	8813	9
8807	8803	8802	8813	9
8806	8801	8802	8813	9
8809	8801	8802	8813	9
8813	9906	9899	9898	9
8813	9906	9899	9900	9
8802	8803	8804	8811	9
8807	8803	8804	8811	9
8806	8805	8804	8811	9
8808	8805	8804	8811	9
8811	8827	8817	8816	9
8811	8827	8817	8820	9
8802	8813	9906	9899	9
8802	8813	9906	9908	9
8802	8803	8804	8805	9
8802	8801	8806	8805	9
8802	8801	8806	8810	9
8804	8811	8827	8817	9
8804	8811	8827	8829	9
8801	8802	8803	8804	9
8801	8806	8805	8804	9
8804	8805	8806	8810	9
8803	8802	8813	8814	9
8803	8802	8813	9906	9
8803	8802	8801	8806	9
8803	8802	8801	8809	9
8803	8804	8811	8812	9
8803	8804	8811	8827	9
8803	8804	8805	8806	9
8803	8804	8805	8808	9
8801	8802	8813	8814	9
8801	8802	8813	9906	9
8801	8802	8803	8807	9
8801	8806	8805	8808	9
8805	8804	8811	8812	9
8805	8804	8811	8827	9
8805	8804	8803	8807	9
8805	8806	8801	8809	9
8809	8801	8806	8810	9
8808	8805	8806	8810	9
8814	8813	9906	9899	9
8814	8813	9906	9908	9
8812	8811	8827	8817	9
8812	8811	8827	8829	9
12527	12526	12525	12536	9
12530	12526	12525	12536	9
12529	12524	12525	12536	9
12532	12524	12525	12536	9
12536	8051	8041	8040	9
12536	8051	8041	8044	9
12525	12526	12527	12534	9
12530	12526	12527	12534	9
12529	12528	12527	12534	9
12531	12528	12527	12534	9
12534	6230	6220	6223	9
12534	6230	6220	6219	9
12525	12536	8051	8041	9
12525	12536	8051	8053	9
12525	12526	12527	12528	9
12525	12524	12529	12528	9
12525	12524	12529	12533	9
12527	12534	6230	6220	9
12527	12534	6230	6232	9
12524	12525	12526	12527	9
12524	12529	12528	12527	9
12527	12528	12529	12533	9
12526	12525	12536	12537	9
12526	12525	12536	8051	9
12526	12525	12524	12529	9
12526	12525	12524	12532	9
12526	12527	12534	12535	9
12526	12527	12534	6230	9
12526	12527	12528	12529	9
12526	12527	12528	12531	9
12524	12525	12536	12537	9
12524	12525	12536	8051	9
12524	12525	12526	12530	9
12524	12529	12528	12531	9
12528	12527	12534	12535	9
12528	12527	12534	6230	9
12528	12527	12526	12530	9
12528	12529	12524	12532	9
12532	12524	12529	12533	9
12531	12528	12529	12533	9
12537	12536	8051	8041	9
12537	12536	8051	8053	9
12535	12534	6230	6220	9
12535	12534	6230	6232	9
7475	7474	7473	7484	9
7478	7474	7473	7484	9
7477	7472	7473	7484	9
7480	7472	7473	7484	9
7484	9687	9680	9681	9
7484	9687	9680	9679	9
7473	7474	7475	7482	9
7478	7474	7475	7482	9
7477	7476	7475	7482	9
7479	7476	7475	7482	9
7482	7492	7486	7489	9
7482	7492	7486	7487	9
7473	7484	9687	9680	9
7473	7484	9687	9689	9
7473	7474	7475	7476	9
7473	7472	7477	7476	9
7473	7472	7477	7481	9
7475	7482	7492	7486	9
7475	7482	7492	7493	9
7472	7473	7474	7475	9
7472	7477	7476	7475	9
7475	7476	7477	7481	9
7474	7473	7484	7485	9
7474	7473	7484	9687	9
7474	7473	7472	7477	9
7474	7473	7472	7480	9
7474	7475	7482	7483	9
7474	7475	7482	7492	9
7474	7475	7476	7477	9
7474	7475	7476	7479	9
7472	7473	7484	7485	9
7472	7473	7484	9687	9
7472	7473	7474	7478	9
7472	7477	7476	7479	9
7476	7475	7482	7483	9
7476	7475	7482	7492	9
7476	7475	7474	7478	9
7476	7477	7472	7480	9
7480	7472	7477	7481	9
7479	7476	7477	7481	9
7485	7484	9687	9680	9
7485	7484	9687	9689	9
7483	7482	7492	7486	9
7483	7482	7492	7493	9
7882	7881	7880	7891	9
7885	7881	7880	7891	9
7884	7879	7880	7891	9
7887	7879	7880	7891	9
7891	7899	7893	7896	9
7891	7899	7893	7894	9
7880	7881	7882	7889	9
7885	7881	7882	7889	9
7884	7883	7882	7889	9
7886	7883	7882	7889	9
7889	7643	7636	7635	9
7889	7643	7636	7637	9
7880	7891	7899	7893	9
7880	7891	7899	7900	9
7880	7881	7882	7883	9
7880	7879	7884	7883	9
7880	7879	7884	7888	9
7882	7889	7643	7636	9
7882	7889	7643	7645	9
7879	7880	7881	7882	9
7879	7884	7883	7882	9
7882	7883	7884	7888	9
7881	7880	7891	7892	9
7881	7880	7891	7899	9
7881	7880	7879	7884	9
7881	7880	7879	7887	9
7881	7882	7889	7890	9
7881	7882	7889	7643	9
7881	7882	7883	7884	9
7881	7882	7883	7886	9
7879	7880	7891	7892	9
7879	7880	7891	7899	9
7879	7880	7881	7885	9
7879	7884	7883	7886	9
7883	7882	7889	7890	9
7883	7882	7889	7643	9
7883	7882	7881	7885	9
7883	7884	7879	7887	9
7887	7879	7884	7888	9
7886	7883	7884	7888	9
7892	7891	7899	7893	9
7892	7891	7899	7900	9
7890	7889	7643	7636	9
7890	7889	7643	7645	9
12737	12736	12735	12746	9
12740	12736	12735	12746	9
12739	12734	12735	12746	9
12742	12734	12735	12746	9
12746	10342	10335	10336	9
12746	10342	10335	10334	9
12735	12736	12737	12744	9
12740	12736	12737	12744	9
12739	12738	12737	12744	9
12741	12738	12737	12744	9
12744	6711	6701	6700	9
12744	6711	6701	6704	9
12735	12746	10342	10335	9
12735	12746	10342	10344	9
12735	12736	12737	12738	9
12735	12734	12739	12738	9
12735	12734	12739	12743	9
12737	12744	6711	6701	9
12737	12744	6711	6713	9
12734	12735	12736	12737	9
12734	12739	12738	12737	9
12737	12738	12739	12743	9
12736	12735	12746	12747	9
12736	12735	12746	10342	9
12736	12735	12734	12739	9
12736	12735	12734	12742	9
12736	12737	12744	12745	9
12736	12737	12744	6711	9
12736	12737	12738	12739	9
12736	12737	12738	12741	9
12734	12735	12746	12747	9
12734	12735	12746	10342	9
12734	12735	12736	12740	9
12734	12739	12738	12741	9
12738	12737	12744	12745	9
12738	12737	12744	6711	9
12738	12737	12736	12740	9
12738	12739	12734	12742	9
12742	12734	12739	12743	9
12741	12738	12739	12743	9
12747	12746	10342	10335	9
12747	12746	10342	10344	9
12745	12744	6711	6701	9
12745	12744	6711	6713	9
150	149	148	159	9
153	149	148	159	9
152	147	148	159	9
155	147	148	159	9
135	136	138	159	9
137	136	138	159	9
148	149	150	157	9
153	149	150	157	9
152	151	150	157	9
154	151	150	157	9
157	6754	6747	6748	9
157	6754	6747	6746	9
136	138	159	148	9
139	138	159	148	9
148	149	150	151	9
148	147	152	151	9
148	147	152	156	9
150	157	6754	6747	9
150	157	6754	6756	9
147	148	149	150	9
147	152	151	150	9
150	151	152	156	9
149	148	159	160	9
138	159	148	149	9
149	148	147	152	9
149	148	147	155	9
149	150	157	158	9
149	150	157	6754	9
149	150	151	152	9
149	150	151	154	9
147	148	159	160	9
138	159	148	147	9
147	148	149	153	9
147	152	151	154	9
151	150	157	158	9
151	150	157	6754	9
151	150	149	153	9
151	152	147	155	9
155	147	152	156	9
154	151	152	156	9
136	138	159	160	9
139	138	159	160	9
158	157	6754	6747	9
158	157	6754	6756	9
11519	11518	11517	11528	9
11522	11518	11517	11528	9
11521	11516	11517	11528	9
11524	11516	11517	11528	9
11528	4438	4431	4430	9
11528	4438	4431	4432	9
11517	11518	11519	11526	9
11522	11518	11519	11526	9
11521	11520	11519	11526	9
11523	11520	11519	11526	9
383	384	391	11526	9
385	384	391	11526	9
11517	11528	4438	4431	9
11517	11528	4438	4440	9
11517	11518	11519	11520	9
11517	11516	11521	11520	9
11517	11516	11521	11525	9
384	391	11526	11519	9
393	391	11526	11519	9
11516	11517	11518	11519	9
11516	11521	11520	11519	9
11519	11520	11521	11525	9
11518	11517	11528	11529	9
11518	11517	11528	4438	9
11518	11517	11516	11521	9
11518	11517	11516	11524	9
11518	11519	11526	11527	9
391	11526	11519	11518	9
11518	11519	11520	11521	9
11518	11519	11520	11523	9
11516	11517	11528	11529	9
11516	11517	11528	4438	9
11516	11517	11518	11522	9
11516	11521	11520	11523	9
11520	11519	11526	11527	9
391	11526	11519	11520	9
11520	11519	11518	11522	9
11520	11521	11516	11524	9
11524	11516	11521	11525	9
11523	11520	11521	11525	9
11529	11528	4438	4431	9
11529	11528	4438	4440	9
384	391	11526	11527	9
393	391	11526	11527	9
1662	1661	1660	1671	9
1665	1661	1660	1671	9
1664	1659	1660	1671	9
1667	1659	1660	1671	9
1671	7847	7837	7836	9
1671	7847	7837	7840	9
1660	1661	1662	1669	9
1665	1661	1662	1669	9
1664	1663	1662	1669	9
1666	1663	1662	1669	9
1680	1675	1673	1669	9
1676	1675	1673	1669	9
1660	1671	7847	7837	9
1660	1671	7847	7849	9
1660	1661	1662	1663	9
1660	1659	1664	1663	9
1660	1659	1664	1668	9
1675	1673	1669	1662	9
1674	1673	1669	1662	9
1659	1660	1661	1662	9
1659	1664	1663	1662	9
1662	1663	1664	1668	9
1661	1660	1671	1672	9
1661	1660	1671	7847	9
1661	1660	1659	1664	9
1661	1660	1659	1667	9
1661	1662	1669	1670	9
1673	1669	1662	1661	9
1661	1662	1663	1664	9
1661	1662	1663	1666	9
1659	1660	1671	1672	9
1659	1660	1671	7847	9
1659	1660	1661	1665	9
1659	1664	1663	1666	9
1663	1662	1669	1670	9
1673	1669	1662	1663	9
1663	1662	1661	1665	9
1663	1664	1659	1667	9
1667	1659	1664	1668	9
1666	1663	1664	1668	9
1672	1671	7847	7837	9
1672	1671	7847	7849	9
1675	1673	1669	1670	9
1674	1673	1669	1670	9
2286	2285	2284	2295	9
2289	2285	2284	2295	9
2288	2283	2284	2295	9
2291	2283	2284	2295	9
2295	6749	6743	6744	9
2295	6749	6743	6746	9
2284	2285	2286	2293	9
2289	2285	2286	2293	9
2288	2287	2286	2293	9
2290	2287	2286	2293	9
2300	2299	2297	2293	9
2304	2299	2297	2293	9
2284	2295	6749	6743	9
2284	2295	6749	6750	9
2284	2285	2286	2287	9
2284	2283	2288	2287	9
2284	2283	2288	2292	9
2299	2297	2293	2286	9
2298	2297	2293	2286	9
2283	2284	2285	2286	9
2283	2288	2287	2286	9
2286	2287	2288	2292	9
2285	2284	2295	2296	9
2285	2284	2295	6749	9
2285	2284	2283	2288	9
2285	2284	2283	2291	9
2285	2286	2293	2294	9
2297	2293	2286	2285	9
2285	2286	2287	2288	9
2285	2286	2287	2290	9
2283	2284	2295	2296	9
2283	2284	2295	6749	9
2283	2284	2285	2289	9
2283	2288	2287	2290	9
2287	2286	2293	2294	9
2297	2293	2286	2287	9
2287	2286	2285	2289	9
2287	2288	2283	2291	9
2291	2283	2288	2292	9
2290	2287	2288	2292	9
2296	2295	6749	6743	9
2296	2295	6749	6750	9
2299	2297	2293	2294	9
2298	2297	2293	2294	9
12807	12806	12805	12816	9
12810	12806	12805	12816	9
12809	12804	12805	12816	9
12812	12804	12805	12816	9
12816	8739	8732	8731	9
12816	8739	8732	8733	9
12805	12806	12807	12814	9
12810	12806	12807	12814	9
12809	12808	12807	12814	9
12811	12808	12807	12814	9
12814	7003	6993	6992	9
12814	7003	6993	6996	9
12805	12816	8739	8732	9
12805	12816	8739	8741	9
12805	12806	12807	12808	9
12805	12804	12809	12808	9
12805	12804	12809	12813	9
12807	12814	7003	6993	9
12807	12814	7003	7005	9
12804	12805	12806	12807	9
12804	12809	12808	12807	9
12807	12808	12809	12813	9
12806	12805	12816	12817	9
12806	12805	12816	8739	9
12806	12805	12804	12809	9
12806	12805	12804	12812	9
12806	12807	12814	12815	9
12806	12807	12814	7003	9
12806	12807	12808	12809	9
12806	12807	12808	12811	9
12804	12805	12816	12817	9
12804	12805	12816	8739	9
12804	12805	12806	12810	9
12804	12809	12808	12811	9
12808	12807	12814	12815	9
12808	12807	12814	7003	9
12808	12807	12806	12810	9
12808	12809	12804	12812	9
12812	12804	12809	12813	9
12811	12808	12809	12813	9
12817	12816	8739	8732	9
12817	12816	8739	8741	9
12815	12814	7003	6993	9
12815	12814	7003	7005	9
3596	3595	3594	3605	9
3599	3595	3594	3605	9
3598	3593	3594	3605	9
3601	3593	3594	3605	9
3594	3595	3596	3603	9
3599	3595	3596	3603	9
3598	3597	3596	3603	9
3600	3597	3596	3603	9
3603	10768	10758	10757	9
3603	10768	10758	10761	9
3594	3595	3596	3597	9
3594	3593	3598	3597	9
3594	3593	3598	3602	9
3596	3603	10768	10758	9
3596	3603	10768	10770	9
3593	3594	3595	3596	9
3593	3598	3597	3596	9
3596	3597	3598	3602	9
3595	3594	3605	3606	9
3595	3594	3605	3607	9
3595	3594	3593	3598	9
3595	3594	3593	3601	9
3595	3596	3603	3604	9
3595	3596	3603	10768	9
3595	3596	3597	3598	9
3595	3596	3597	3600	9
3593	3594	3605	3606	9
3593	3594	3605	3607	9
3593	3594	3595	3599	9
3593	3598	3597	3600	9
3597	3596	3603	3604	9
3597	3596	3603	10768	9
3597	3596	3595	3599	9
3597	3598	3593	3601	9
3601	3593	3598	3602	9
3600	3597	3598	3602	9
3604	3603	10768	10758	9
3604	3603	10768	10770	9
5636	5637	5638	5645	9
5641	5637	5638	5645	9
5640	5639	5638	5645	9
5642	5639	5638	5645	9
1558	1553	1551	5645	9
1554	1553	1551	5645	9
5638	5637	5636	5647	9
5641	5637	5636	5647	9
5640	5635	5636	5647	9
5643	5635	5636	5647	9
5647	5661	5651	5650	9
5647	5661	5651	5654	9
1553	1551	5645	5638	9
1552	1551	5645	5638	9
5638	5637	5636	5635	9
5638	5639	5640	5635	9
5638	5639	5640	5644	9
5636	5647	5661	5651	9
5636	5647	5661	5663	9
5639	5638	5637	5636	9
5639	5640	5635	5636	9
5636	5635	5640	5644	9
5637	5638	5645	5646	9
1551	5645	5638	5637	9
5637	5638	5639	5640	9
5637	5638	5639	5642	9
5637	5636	5647	5648	9
5637	5636	5647	5661	9
5637	5636	5635	5640	9
5637	5636	5635	5643	9
5639	5638	5645	5646	9
1551	5645	5638	5639	9
5639	5638	5637	5641	9
5639	5640	5635	5643	9
5635	5636	5647	5648	9
5635	5636	5647	5661	9
5635	5636	5637	5641	9
5635	5640	5639	5642	9
5642	5639	5640	5644	9
5643	5635	5640	5644	9
1553	1551	5645	5646	9
1552	1551	5645	5646	9
5648	5647	5661	5651	9
5648	5647	5661	5663	9
12989	12988	12987	12998	9
12992	12988	12987	12998	9
12991	12986	12987	12998	9
12994	12986	12987	12998	9
12998	7565	7559	7560	9
12998	7565	7559	7562	9
12987	12988	12989	12996	9
12992	12988	12989	12996	9
12991	12990	12989	12996	9
12993	12990	12989	12996	9
12996	9585	9575	9574	9
12996	9585	9575	9578	9
12987	12998	7565	7559	9
12987	12998	7565	7566	9
12987	12988	12989	12990	9
12987	12986	12991	12990	9
12987	12986	12991	12995	9
12989	12996	9585	9575	9
12989	12996	9585	9587	9
12986	12987	12988	12989	9
12986	12991	12990	12989	9
12989	12990	12991	12995	9
12988	12987	12998	12999	9
12988	12987	12998	7565	9
12988	12987	12986	12991	9
12988	12987	12986	12994	9
12988	12989	12996	12997	9
12988	12989	12996	9585	9
12988	12989	12990	12991	9
12988	12989	12990	12993	9
12986	12987	12998	12999	9
12986	12987	12998	7565	9
12986	12987	12988	12992	9
12986	12991	12990	12993	9
12990	12989	12996	12997	9
12990	12989	12996	9585	9
12990	12989	12988	12992	9
12990	12991	12986	12994	9
12994	12986	12991	12995	9
12993	12990	12991	12995	9
12999	12998	7565	7559	9
12999	12998	7565	7566	9
12997	12996	9585	9575	9
12997	12996	9585	9587	9
5099	5098	5097	5108	9
5102	5098	5097	5108	9
5101	5096	5097	5108	9
5104	5096	5097	5108	9
5108	5116	5110	5113	9
5108	5116	5110	5111	9
5097	5098	5099	5106	9
5102	5098	5099	5106	9
5101	5100	5099	5106	9
5103	5100	5099	5106	9
5106	3886	3879	3878	9
5106	3886	3879	3880	9
5097	5108	5116	5110	9
5097	5108	5116	5117	9
5097	5098	5099	5100	9
5097	5096	5101	5100	9
5097	5096	5101	5105	9
5099	5106	3886	3879	9
5099	5106	3886	3888	9
5096	5097	5098	5099	9
5096	5101	5100	5099	9
5099	5100	5101	5105	9
5098	5097	5108	5109	9
5098	5097	5108	5116	9
5098	5097	5096	5101	9
5098	5097	5096	5104	9
5098	5099	5106	5107	9
5098	5099	5106	3886	9
5098	5099	5100	5101	9
5098	5099	5100	5103	9
5096	5097	5108	5109	9
5096	5097	5108	5116	9
5096	5097	5098	5102	9
5096	5101	5100	5103	9
5100	5099	5106	5107	9
5100	5099	5106	3886	9
5100	5099	5098	5102	9
5100	5101	5096	5104	9
5104	5096	5101	5105	9
5103	5100	5101	5105	9
5109	5108	5116	5110	9
5109	5108	5116	5117	9
5107	5106	3886	3879	9
5107	5106	3886	3888	9
3951	3950	3949	3960	9
3954	3950	3949	3960	9
3953	3948	3949	3960	9
3956	3948	3949	3960	9
3960	10724	10714	10717	9
3960	10724	10714	10713	9
3949	3950	3951	3958	9
3954	3950	3951	3958	9
3953	3952	3951	3958	9
3955	3952	3951	3958	9
3958	3968	3962	3965	9
3958	3968	3962	3963	9
3949	3960	10724	10714	9
3949	3960	10724	10726	9
3949	3950	3951	3952	9
3949	3948	3953	3952	9
3949	3948	3953	3957	9
3951	3958	3968	3962	9
3951	3958	3968	3969	9
3948	3949	3950	3951	9
3948	3953	3952	3951	9
3951	3952	3953	3957	9
3950	3949	3960	3961	9
3950	3949	3960	10724	9
3950	3949	3948	3953	9
3950	3949	3948	3956	9
3950	3951	3958	3959	9
3950	3951	3958	3968	9
3950	3951	3952	3953	9
3950	3951	3952	3955	9
3948	3949	3960	3961	9
3948	3949	3960	10724	9
3948	3949	3950	3954	9
3948	3953	3952	3955	9
3952	3951	3958	3959	9
3952	3951	3958	3968	9
3952	3951	3950	3954	9
3952	3953	3948	3956	9
3956	3948	3953	3957	9
3955	3952	3953	3957	9
3961	3960	10724	10714	9
3961	3960	10724	10726	9
3959	3958	3968	3962	9
3959	3958	3968	3969	9
12177	12176	12175	12186	9
12180	12176	12175	12186	9
12179	12174	12175	12186	9
12182	12174	12175	12186	9
12186	5660	5653	5652	9
12186	5660	5653	5654	9
12175	12176	12177	12184	9
12180	12176	12177	12184	9
12179	12178	12177	12184	9
12181	12178	12177	12184	9
809	810	817	12184	9
811	810	817	12184	9
12175	12186	5660	5653	9
12175	12186	5660	5662	9
12175	12176	12177	12178	9
12175	12174	12179	12178	9
12175	12174	12179	12183	9
810	817	12184	12177	9
819	817	12184	12177	9
12174	12175	12176	12177	9
12174	12179	12178	12177	9
12177	12178	12179	12183	9
12176	12175	12186	12187	9
12176	12175	12186	5660	9
12176	12175	12174	12179	9
12176	12175	12174	12182	9
12176	12177	12184	12185	9
817	12184	12177	12176	9
12176	12177	12178	12179	9
12176	12177	12178	12181	9
12174	12175	12186	12187	9
12174	12175	12186	5660	9
12174	12175	12176	12180	9
12174	12179	12178	12181	9
12178	12177	12184	12185	9
817	12184	12177	12178	9
12178	12177	12176	12180	9
12178	12179	12174	12182	9
12182	12174	12179	12183	9
12181	12178	12179	12183	9
12187	12186	5660	5653	9
12187	12186	5660	5662	9
810	817	12184	12185	9
819	817	12184	12185	9
10058	10057	10056	10067	9
10061	10057	10056	10067	9
10060	10055	10056	10067	9
10063	10055	10056	10067	9
10067	10075	10069	10070	9
10067	10075	10069	10072	9
10056	10057	10058	10065	9
10061	10057	10058	10065	9
10060	10059	10058	10065	9
10062	10059	10058	10065	9
10065	7177	7167	7166	9
10065	7177	7167	7170	9
10056	10067	10075	10069	9
10056	10067	10075	10076	9
10056	10057	10058	10059	9
10056	10055	10060	10059	9
10056	10055	10060	10064	9
10058	10065	7177	7167	9
10058	10065	7177	7179	9
10055	10056	10057	10058	9
10055	10060	10059	10058	9
10058	10059	10060	10064	9
10057	10056	10067	10068	9
10057	10056	10067	10075	9
10057	10056	10055	10060	9
10057	10056	10055	10063	9
10057	10058	10065	10066	9
10057	10058	10065	7177	9
10057	10058	10059	10060	9
10057	10058	10059	10062	9
10055	10056	10067	10068	9
10055	10056	10067	10075	9
10055	10056	10057	10061	9
10055	10060	10059	10062	9
10059	10058	10065	10066	9
10059	10058	10065	7177	9
10059	10058	10057	10061	9
10059	10060	10055	10063	9
10063	10055	10060	10064	9
10062	10059	10060	10064	9
10068	10067	10075	10069	9
10068	10067	10075	10076	9
10066	10065	7177	7167	9
10066	10065	7177	7179	9
12611	12610	12609	12620	9
12614	12610	12609	12620	9
12613	12608	12609	12620	9
12616	12608	12609	12620	9
12620	6391	6381	6384	9
12620	6391	6381	6380	9
12609	12610	12611	12618	9
12614	12610	12611	12618	9
12613	12612	12611	12618	9
12615	12612	12611	12618	9
947	948	950	12618	9
949	948	950	12618	9
12609	12620	6391	6381	9
12609	12620	6391	6393	9
12609	12610	12611	12612	9
12609	12608	12613	12612	9
12609	12608	12613	12617	9
948	950	12618	12611	9
951	950	12618	12611	9
12608	12609	12610	12611	9
12608	12613	12612	12611	9
12611	12612	12613	12617	9
12610	12609	12620	12621	9
12610	12609	12620	6391	9
12610	12609	12608	12613	9
12610	12609	12608	12616	9
12610	12611	12618	12619	9
950	12618	12611	12610	9
12610	12611	12612	12613	9
12610	12611	12612	12615	9
12608	12609	12620	12621	9
12608	12609	12620	6391	9
12608	12609	12610	12614	9
12608	12613	12612	12615	9
12612	12611	12618	12619	9
950	12618	12611	12612	9
12612	12611	12610	12614	9
12612	12613	12608	12616	9
12616	12608	12613	12617	9
12615	12612	12613	12617	9
12621	12620	6391	6381	9
12621	12620	6391	6393	9
948	950	12618	12619	9
951	950	12618	12619	9
9227	9226	9225	9236	9
9230	9226	9225	9236	9
9229	9224	9225	9236	9
9232	9224	9225	9236	9
9236	10138	10131	10132	9
9236	10138	10131	10130	9
9225	9226	9227	9234	9
9230	9226	9227	9234	9
9229	9228	9227	9234	9
9231	9228	9227	9234	9
9234	9249	9242	9241	9
9234	9249	9242	9243	9
9225	9236	10138	10131	9
9225	9236	10138	10140	9
9225	9226	9227	9228	9
9225	9224	9229	9228	9
9225	9224	9229	9233	9
9227	9234	9249	9242	9
9227	9234	9249	9251	9
9224	9225	9226	9227	9
9224	9229	9228	9227	9
9227	9228	9229	9233	9
9226	9225	9236	9237	9
9226	9225	9236	10138	9
9226	9225	9224	9229	9
9226	9225	9224	9232	9
9226	9227	9234	9235	9
9226	9227	9234	9249	9
9226	9227	9228	9229	9
9226	9227	9228	9231	9
9224	9225	9236	9237	9
9224	9225	9236	10138	9
9224	9225	9226	9230	9
9224	9229	9228	9231	9
9228	9227	9234	9235	9
9228	9227	9234	9249	9
9228	9227	9226	9230	9
9228	9229	9224	9232	9
9232	9224	9229	9233	9
9231	9228	9229	9233	9
9237	9236	10138	10131	9
9237	9236	10138	10140	9
9235	9234	9249	9242	9
9235	9234	9249	9251	9
8028	8027	8026	8037	9
8031	8027	8026	8037	9
8030	8025	8026	8037	9
8033	8025	8026	8037	9
8037	5311	5301	5304	9
8037	5311	5301	5300	9
8026	8027	8028	8035	9
8031	8027	8028	8035	9
8030	8029	8028	8035	9
8032	8029	8028	8035	9
8035	8045	8039	8040	9
8035	8045	8039	8042	9
8026	8037	5311	5301	9
8026	8037	5311	5313	9
8026	8027	8028	8029	9
8026	8025	8030	8029	9
8026	8025	8030	8034	9
8028	8035	8045	8039	9
8028	8035	8045	8046	9
8025	8026	8027	8028	9
8025	8030	8029	8028	9
8028	8029	8030	8034	9
8027	8026	8037	8038	9
8027	8026	8037	5311	9
8027	8026	8025	8030	9
8027	8026	8025	8033	9
8027	8028	8035	8036	9
8027	8028	8035	8045	9
8027	8028	8029	8030	9
8027	8028	8029	8032	9
8025	8026	8037	8038	9
8025	8026	8037	5311	9
8025	8026	8027	8031	9
8025	8030	8029	8032	9
8029	8028	8035	8036	9
8029	8028	8035	8045	9
8029	8028	8027	8031	9
8029	8030	8025	8033	9
8033	8025	8030	8034	9
8032	8029	8030	8034	9
8038	8037	5311	5301	9
8038	8037	5311	5313	9
8036	8035	8045	8039	9
8036	8035	8045	8046	9
10116	10115	10114	10125	9
10119	10115	10114	10125	9
10118	10113	10114	10125	9
10121	10113	10114	10125	9
10125	10133	10127	10128	9
10125	10133	10127	10130	9
10114	10115	10116	10123	9
10119	10115	10116	10123	9
10118	10117	10116	10123	9
10120	10117	10116	10123	9
10123	4815	4808	4807	9
10123	4815	4808	4809	9
10114	10125	10133	10127	9
10114	10125	10133	10134	9
10114	10115	10116	10117	9
10114	10113	10118	10117	9
10114	10113	10118	10122	9
10116	10123	4815	4808	9
10116	10123	4815	4817	9
10113	10114	10115	10116	9
10113	10118	10117	10116	9
10116	10117	10118	10122	9
10115	10114	10125	10126	9
10115	10114	10125	10133	9
10115	10114	10113	10118	9
10115	10114	10113	10121	9
10115	10116	10123	10124	9
10115	10116	10123	4815	9
10115	10116	10117	10118	9
10115	10116	10117	10120	9
10113	10114	10125	10126	9
10113	10114	10125	10133	9
10113	10114	10115	10119	9
10113	10118	10117	10120	9
10117	10116	10123	10124	9
10117	10116	10123	4815	9
10117	10116	10115	10119	9
10117	10118	10113	10121	9
10121	10113	10118	10122	9
10120	10117	10118	10122	9
10126	10125	10133	10127	9
10126	10125	10133	10134	9
10124	10123	4815	4808	9
10124	10123	4815	4817	9
9913	9912	9911	9922	9
9916	9912	9911	9922	9
9915	9910	9911	9922	9
9918	9910	9911	9922	9
1831	1832	1834	9922	9
1833	1832	1834	9922	9
9911	9912	9913	9920	9
9916	9912	9913	9920	9
9915	9914	9913	9920	9
9917	9914	9913	9920	9
9920	9930	9924	9925	9
9920	9930	9924	9927	9
1832	1834	9922	9911	9
1835	1834	9922	9911	9
9911	9912	9913	9914	9
9911	9910	9915	9914	9
9911	9910	9915	9919	9
9913	9920	9930	9924	9
9913	9920	9930	9931	9
9910	9911	9912	9913	9
9910	9915	9914	9913	9
9913	9914	9915	9919	9
9912	9911	9922	9923	9
1834	9922	9911	9912	9
9912	9911	9910	9915	9
9912	9911	9910	9918	9
9912	9913	9920	9921	9
9912	9913	9920	9930	9
9912	9913	9914	9915	9
9912	9913	9914	9917	9
9910	9911	9922	9923	9
1834	9922	9911	9910	9
9910	9911	9912	9916	9
9910	9915	9914	9917	9
9914	9913	9920	9921	9
9914	9913	9920	9930	9
9914	9913	9912	9916	9
9914	9915	9910	9918	9
9918	9910	9915	9919	9
9917	9914	9915	9919	9
1832	1834	9922	9923	9
1835	1834	9922	9923	9
9921	9920	9930	9924	9
9921	9920	9930	9931	9
11379	11378	11377	11388	9
11382	11378	11377	11388	9
11381	11376	11377	11388	9
11384	11376	11377	11388	9
11388	4206	4196	4199	9
11388	4206	4196	4195	9
11377	11378	11379	11386	9
11382	11378	11379	11386	9
11381	11380	11379	11386	9
11383	11380	11379	11386	9
11386	7615	7605	7608	9
11386	7615	7605	7604	9
11377	11388	4206	4196	9
11377	11388	4206	4208	9
11377	11378	11379	11380	9
11377	11376	11381	11380	9
11377	11376	11381	11385	9
11379	11386	7615	7605	9
11379	11386	7615	7617	9
11376	11377	11378	11379	9
11376	11381	11380	11379	9
11379	11380	11381	11385	9
11378	11377	11388	11389	9
11378	11377	11388	4206	9
11378	11377	11376	11381	9
11378	11377	11376	11384	9
11378	11379	11386	11387	9
11378	11379	11386	7615	9
11378	11379	11380	11381	9
11378	11379	11380	11383	9
11376	11377	11388	11389	9
11376	11377	11388	4206	9
11376	11377	11378	11382	9
11376	11381	11380	11383	9
11380	11379	11386	11387	9
11380	11379	11386	7615	9
11380	11379	11378	11382	9
11380	11381	11376	11384	9
11384	11376	11381	11385	9
11383	11380	11381	11385	9
11389	11388	4206	4196	9
11389	11388	4206	4208	9
11387	11386	7615	7605	9
11387	11386	7615	7617	9
13717	13716	13715	13726	9
13720	13716	13715	13726	9
13719	13714	13715	13726	9
13722	13714	13715	13726	9
1739	1740	1742	13726	9
1741	1740	1742	13726	9
13715	13716	13717	13724	9
13720	13716	13717	13724	9
13719	13718	13717	13724	9
13721	13718	13717	13724	9
13724	11075	11068	11069	9
13724	11075	11068	11067	9
1740	1742	13726	13715	9
1743	1742	13726	13715	9
13715	13716	13717	13718	9
13715	13714	13719	13718	9
13715	13714	13719	13723	9
13717	13724	11075	11068	9
13717	13724	11075	11077	9
13714	13715	13716	13717	9
13714	13719	13718	13717	9
13717	13718	13719	13723	9
13716	13715	13726	13727	9
1742	13726	13715	13716	9
13716	13715	13714	13719	9
13716	13715	13714	13722	9
13716	13717	13724	13725	9
13716	13717	13724	11075	9
13716	13717	13718	13719	9
13716	13717	13718	13721	9
13714	13715	13726	13727	9
1742	13726	13715	13714	9
13714	13715	13716	13720	9
13714	13719	13718	13721	9
13718	13717	13724	13725	9
13718	13717	13724	11075	9
13718	13717	13716	13720	9
13718	13719	13714	13722	9
13722	13714	13719	13723	9
13721	13718	13719	13723	9
1740	1742	13726	13727	9
1743	1742	13726	13727	9
13725	13724	11075	11068	9
13725	13724	11075	11077	9
2859	2860	2861	2868	9
2864	2860	2861	2868	9
2863	2862	2861	2868	9
2865	2862	2861	2868	9
2868	5807	5797	5800	9
2868	5807	5797	5796	9
2861	2860	2859	2870	9
2864	2860	2859	2870	9
2863	2858	2859	2870	9
2866	2858	2859	2870	9
2861	2868	5807	5797	9
2861	2868	5807	5809	9
2858	2859	2860	2861	9
2858	2863	2862	2861	9
2861	2862	2863	2867	9
2859	2860	2861	2862	9
2859	2858	2863	2862	9
2859	2858	2863	2867	9
2860	2861	2868	2869	9
2860	2861	2868	5807	9
2860	2861	2862	2863	9
2860	2861	2862	2865	9
2860	2859	2870	2871	9
2860	2859	2870	2872	9
2860	2859	2858	2863	9
2860	2859	2858	2866	9
2862	2861	2868	2869	9
2862	2861	2868	5807	9
2862	2861	2860	2864	9
2862	2863	2858	2866	9
2858	2859	2870	2871	9
2858	2859	2870	2872	9
2858	2859	2860	2864	9
2858	2863	2862	2865	9
2865	2862	2863	2867	9
2866	2858	2863	2867	9
2869	2868	5807	5797	9
2869	2868	5807	5809	9
246	245	244	255	9
249	245	244	255	9
248	243	244	255	9
251	243	244	255	9
231	232	234	255	9
233	232	234	255	9
244	245	246	253	9
249	245	246	253	9
248	247	246	253	9
250	247	246	253	9
253	8734	8728	8731	9
253	8734	8728	8729	9
232	234	255	244	9
235	234	255	244	9
244	245	246	247	9
244	243	248	247	9
244	243	248	252	9
246	253	8734	8728	9
246	253	8734	8735	9
243	244	245	246	9
243	248	247	246	9
246	247	248	252	9
245	244	255	256	9
234	255	244	245	9
245	244	243	248	9
245	244	243	251	9
245	246	253	254	9
245	246	253	8734	9
245	246	247	248	9
245	246	247	250	9
243	244	255	256	9
234	255	244	243	9
243	244	245	249	9
243	248	247	250	9
247	246	253	254	9
247	246	253	8734	9
247	246	245	249	9
247	248	243	251	9
251	243	248	252	9
250	247	248	252	9
232	234	255	256	9
235	234	255	256	9
254	253	8734	8728	9
254	253	8734	8735	9
13031	13030	13029	13040	9
13034	13030	13029	13040	9
13033	13028	13029	13040	9
13036	13028	13029	13040	9
13040	10693	10686	10685	9
13040	10693	10686	10687	9
13029	13030	13031	13038	9
13034	13030	13031	13038	9
13033	13032	13031	13038	9
13035	13032	13031	13038	9
13038	7614	7607	7606	9
13038	7614	7607	7608	9
13029	13040	10693	10686	9
13029	13040	10693	10695	9
13029	13030	13031	13032	9
13029	13028	13033	13032	9
13029	13028	13033	13037	9
13031	13038	7614	7607	9
13031	13038	7614	7616	9
13028	13029	13030	13031	9
13028	13033	13032	13031	9
13031	13032	13033	13037	9
13030	13029	13040	13041	9
13030	13029	13040	10693	9
13030	13029	13028	13033	9
13030	13029	13028	13036	9
13030	13031	13038	13039	9
13030	13031	13038	7614	9
13030	13031	13032	13033	9
13030	13031	13032	13035	9
13028	13029	13040	13041	9
13028	13029	13040	10693	9
13028	13029	13030	13034	9
13028	13033	13032	13035	9
13032	13031	13038	13039	9
13032	13031	13038	7614	9
13032	13031	13030	13034	9
13032	13033	13028	13036	9
13036	13028	13033	13037	9
13035	13032	13033	13037	9
13041	13040	10693	10686	9
13041	13040	10693	10695	9
13039	13038	7614	7607	9
13039	13038	7614	7616	9
12849	12848	12847	12858	9
12852	12848	12847	12858	9
12851	12846	12847	12858	9
12854	12846	12847	12858	9
12858	7142	7136	7137	9
12858	7142	7136	7139	9
12847	12848	12849	12856	9
12852	12848	12849	12856	9
12851	12850	12849	12856	9
12853	12850	12849	12856	9
12856	8768	8761	8762	9
12856	8768	8761	8760	9
12847	12858	7142	7136	9
12847	12858	7142	7143	9
12847	12848	12849	12850	9
12847	12846	12851	12850	9
12847	12846	12851	12855	9
12849	12856	8768	8761	9
12849	12856	8768	8770	9
12846	12847	12848	12849	9
12846	12851	12850	12849	9
12849	12850	12851	12855	9
12848	12847	12858	12859	9
12848	12847	12858	7142	9
12848	12847	12846	12851	9
12848	12847	12846	12854	9
12848	12849	12856	12857	9
12848	12849	12856	8768	9
12848	12849	12850	12851	9
12848	12849	12850	12853	9
12846	12847	12858	12859	9
12846	12847	12858	7142	9
12846	12847	12848	12852	9
12846	12851	12850	12853	9
12850	12849	12856	12857	9
12850	12849	12856	8768	9
12850	12849	12848	12852	9
12850	12851	12846	12854	9
12854	12846	12851	12855	9
12853	12850	12851	12855	9
12859	12858	7142	7136	9
12859	12858	7142	7143	9
12857	12856	8768	8761	9
12857	12856	8768	8770	9
13297	13296	13295	13306	9
13300	13296	13295	13306	9
13299	13294	13295	13306	9
13302	13294	13295	13306	9
687	688	695	13306	9
689	688	695	13306	9
13295	13296	13297	13304	9
13300	13296	13297	13304	9
13299	13298	13297	13304	9
13301	13298	13297	13304	9
13304	8271	8261	8260	9
13304	8271	8261	8264	9
688	695	13306	13295	9
697	695	13306	13295	9
13295	13296	13297	13298	9
13295	13294	13299	13298	9
13295	13294	13299	13303	9
13297	13304	8271	8261	9
13297	13304	8271	8273	9
13294	13295	13296	13297	9
13294	13299	13298	13297	9
13297	13298	13299	13303	9
13296	13295	13306	13307	9
695	13306	13295	13296	9
13296	13295	13294	13299	9
13296	13295	13294	13302	9
13296	13297	13304	13305	9
13296	13297	13304	8271	9
13296	13297	13298	13299	9
13296	13297	13298	13301	9
13294	13295	13306	13307	9
695	13306	13295	13294	9
13294	13295	13296	13300	9
13294	13299	13298	13301	9
13298	13297	13304	13305	9
13298	13297	13304	8271	9
13298	13297	13296	13300	9
13298	13299	13294	13302	9
13302	13294	13299	13303	9
13301	13298	13299	13303	9
688	695	13306	13307	9
697	695	13306	13307	9
13305	13304	8271	8261	9
13305	13304	8271	8273	9
2376	2375	2374	2385	9
2379	2375	2374	2385	9
2378	2373	2374	2385	9
2381	2373	2374	2385	9
2390	2389	2387	2385	9
2394	2389	2387	2385	9
2374	2375	2376	2383	9
2379	2375	2376	2383	9
2378	2377	2376	2383	9
2380	2377	2376	2383	9
2383	8162	8156	8159	9
2383	8162	8156	8157	9
2389	2387	2385	2374	9
2388	2387	2385	2374	9
2374	2375	2376	2377	9
2374	2373	2378	2377	9
2374	2373	2378	2382	9
2376	2383	8162	8156	9
2376	2383	8162	8163	9
2373	2374	2375	2376	9
2373	2378	2377	2376	9
2376	2377	2378	2382	9
2375	2374	2385	2386	9
2387	2385	2374	2375	9
2375	2374	2373	2378	9
2375	2374	2373	2381	9
2375	2376	2383	2384	9
2375	2376	2383	8162	9
2375	2376	2377	2378	9
2375	2376	2377	2380	9
2373	2374	2385	2386	9
2387	2385	2374	2373	9
2373	2374	2375	2379	9
2373	2378	2377	2380	9
2377	2376	2383	2384	9
2377	2376	2383	8162	9
2377	2376	2375	2379	9
2377	2378	2373	2381	9
2381	2373	2378	2382	9
2380	2377	2378	2382	9
2389	2387	2385	2386	9
2388	2387	2385	2386	9
2384	2383	8162	8156	9
2384	2383	8162	8163	9
11827	11826	11825	11836	9
11830	11826	11825	11836	9
11829	11824	11825	11836	9
11832	11824	11825	11836	9
1240	1239	1241	11836	9
1238	1239	1241	11836	9
11825	11826	11827	11834	9
11830	11826	11827	11834	9
11829	11828	11827	11834	9
11831	11828	11827	11834	9
11834	4991	4981	4980	9
11834	4991	4981	4984	9
1239	1241	11836	11825	9
1242	1241	11836	11825	9
11825	11826	11827	11828	9
11825	11824	11829	11828	9
11825	11824	11829	11833	9
11827	11834	4991	4981	9
11827	11834	4991	4993	9
11824	11825	11826	11827	9
11824	11829	11828	11827	9
11827	11828	11829	11833	9
11826	11825	11836	11837	9
1241	11836	11825	11826	9
11826	11825	11824	11829	9
11826	11825	11824	11832	9
11826	11827	11834	11835	9
11826	11827	11834	4991	9
11826	11827	11828	11829	9
11826	11827	11828	11831	9
11824	11825	11836	11837	9
1241	11836	11825	11824	9
11824	11825	11826	11830	9
11824	11829	11828	11831	9
11828	11827	11834	11835	9
11828	11827	11834	4991	9
11828	11827	11826	11830	9
11828	11829	11824	11832	9
11832	11824	11829	11833	9
11831	11828	11829	11833	9
1239	1241	11836	11837	9
1242	1241	11836	11837	9
11835	11834	4991	4981	9
11835	11834	4991	4993	9
2906	2905	2904	2915	9
2909	2905	2904	2915	9
2908	2903	2904	2915	9
2911	2903	2904	2915	9
2904	2905	2906	2913	9
2909	2905	2906	2913	9
2908	2907	2906	2913	9
2910	2907	2906	2913	9
2913	6516	6510	6511	9
2913	6516	6510	6513	9
2904	2905	2906	2907	9
2904	2903	2908	2907	9
2904	2903	2908	2912	9
2906	2913	6516	6510	9
2906	2913	6516	6517	9
2903	2904	2905	2906	9
2903	2908	2907	2906	9
2906	2907	2908	2912	9
2905	2904	2915	2916	9
2905	2904	2915	2917	9
2905	2904	2903	2908	9
2905	2904	2903	2911	9
2905	2906	2913	2914	9
2905	2906	2913	6516	9
2905	2906	2907	2908	9
2905	2906	2907	2910	9
2903	2904	2915	2916	9
2903	2904	2915	2917	9
2903	2904	2905	2909	9
2903	2908	2907	2910	9
2907	2906	2913	2914	9
2907	2906	2913	6516	9
2907	2906	2905	2909	9
2907	2908	2903	2911	9
2911	2903	2908	2912	9
2910	2907	2908	2912	9
2914	2913	6516	6510	9
2914	2913	6516	6517	9
13787	13786	13785	13796	9
13790	13786	13785	13796	9
13789	13784	13785	13796	9
13792	13784	13785	13796	9
2181	2182	2184	13796	9
2183	2182	2184	13796	9
13785	13786	13787	13794	9
13790	13786	13787	13794	9
13789	13788	13787	13794	9
13791	13788	13787	13794	9
1894	1893	1895	13794	9
1892	1893	1895	13794	9
2182	2184	13796	13785	9
2185	2184	13796	13785	9
13785	13786	13787	13788	9
13785	13784	13789	13788	9
13785	13784	13789	13793	9
1893	1895	13794	13787	9
1896	1895	13794	13787	9
13784	13785	13786	13787	9
13784	13789	13788	13787	9
13787	13788	13789	13793	9
13786	13785	13796	13797	9
2184	13796	13785	13786	9
13786	13785	13784	13789	9
13786	13785	13784	13792	9
13786	13787	13794	13795	9
1895	13794	13787	13786	9
13786	13787	13788	13789	9
13786	13787	13788	13791	9
13784	13785	13796	13797	9
2184	13796	13785	13784	9
13784	13785	13786	13790	9
13784	13789	13788	13791	9
13788	13787	13794	13795	9
1895	13794	13787	13788	9
13788	13787	13786	13790	9
13788	13789	13784	13792	9
13792	13784	13789	13793	9
13791	13788	13789	13793	9
2182	2184	13796	13797	9
2185	2184	13796	13797	9
1893	1895	13794	13795	9
1896	1895	13794	13795	9
8290	8291	8292	8299	9
8295	8291	8292	8299	9
8294	8293	8292	8299	9
8296	8293	8292	8299	9
8299	8309	8303	8304	9
8299	8309	8303	8306	9
8292	8291	8290	8301	9
8295	8291	8290	8301	9
8294	8289	8290	8301	9
8297	8289	8290	8301	9
8301	9653	9647	9648	9
8301	9653	9647	9650	9
8292	8299	8309	8303	9
8292	8299	8309	8310	9
8292	8291	8290	8289	9
8292	8293	8294	8289	9
8292	8293	8294	8298	9
8290	8301	9653	9647	9
8290	8301	9653	9654	9
8293	8292	8291	8290	9
8293	8294	8289	8290	9
8290	8289	8294	8298	9
8291	8292	8299	8300	9
8291	8292	8299	8309	9
8291	8292	8293	8294	9
8291	8292	8293	8296	9
8291	8290	8301	8302	9
8291	8290	8301	9653	9
8291	8290	8289	8294	9
8291	8290	8289	8297	9
8293	8292	8299	8300	9
8293	8292	8299	8309	9
8293	8292	8291	8295	9
8293	8294	8289	8297	9
8289	8290	8301	8302	9
8289	8290	8301	9653	9
8289	8290	8291	8295	9
8289	8294	8293	8296	9
8296	8293	8294	8298	9
8297	8289	8294	8298	9
8300	8299	8309	8303	9
8300	8299	8309	8310	9
8302	8301	9653	9647	9
8302	8301	9653	9654	9
1358	1357	1356	1367	9
1361	1357	1356	1367	9
1360	1355	1356	1367	9
1363	1355	1356	1367	9
612	613	615	1367	9
614	613	615	1367	9
1356	1357	1358	1365	9
1361	1357	1358	1365	9
1360	1359	1358	1365	9
1362	1359	1358	1365	9
1372	1371	1369	1365	9
1376	1371	1369	1365	9
613	615	1367	1356	9
616	615	1367	1356	9
1356	1357	1358	1359	9
1356	1355	1360	1359	9
1356	1355	1360	1364	9
1371	1369	1365	1358	9
1370	1369	1365	1358	9
1355	1356	1357	1358	9
1355	1360	1359	1358	9
1358	1359	1360	1364	9
1357	1356	1367	1368	9
615	1367	1356	1357	9
1357	1356	1355	1360	9
1357	1356	1355	1363	9
1357	1358	1365	1366	9
1369	1365	1358	1357	9
1357	1358	1359	1360	9
1357	1358	1359	1362	9
1355	1356	1367	1368	9
615	1367	1356	1355	9
1355	1356	1357	1361	9
1355	1360	1359	1362	9
1359	1358	1365	1366	9
1369	1365	1358	1359	9
1359	1358	1357	1361	9
1359	1360	1355	1363	9
1363	1355	1360	1364	9
1362	1359	1360	1364	9
613	615	1367	1368	9
616	615	1367	1368	9
1371	1369	1365	1366	9
1370	1369	1365	1366	9
7402	7401	7400	7411	9
7405	7401	7400	7411	9
7404	7399	7400	7411	9
7407	7399	7400	7411	9
7411	7419	7413	7416	9
7411	7419	7413	7414	9
7400	7401	7402	7409	9
7405	7401	7402	7409	9
7404	7403	7402	7409	9
7406	7403	7402	7409	9
7409	6201	6191	6194	9
7409	6201	6191	6190	9
7400	7411	7419	7413	9
7400	7411	7419	7420	9
7400	7401	7402	7403	9
7400	7399	7404	7403	9
7400	7399	7404	7408	9
7402	7409	6201	6191	9
7402	7409	6201	6203	9
7399	7400	7401	7402	9
7399	7404	7403	7402	9
7402	7403	7404	7408	9
7401	7400	7411	7412	9
7401	7400	7411	7419	9
7401	7400	7399	7404	9
7401	7400	7399	7407	9
7401	7402	7409	7410	9
7401	7402	7409	6201	9
7401	7402	7403	7404	9
7401	7402	7403	7406	9
7399	7400	7411	7412	9
7399	7400	7411	7419	9
7399	7400	7401	7405	9
7399	7404	7403	7406	9
7403	7402	7409	7410	9
7403	7402	7409	6201	9
7403	7402	7401	7405	9
7403	7404	7399	7407	9
7407	7399	7404	7408	9
7406	7403	7404	7408	9
7412	7411	7419	7413	9
7412	7411	7419	7420	9
7410	7409	6201	6191	9
7410	7409	6201	6203	9
11573	11574	11575	11582	9
11578	11574	11575	11582	9
11577	11576	11575	11582	9
11579	11576	11575	11582	9
11582	7526	7519	7518	9
11582	7526	7519	7520	9
11575	11574	11573	11584	9
11578	11574	11573	11584	9
11577	11572	11573	11584	9
11580	11572	11573	11584	9
11584	4583	4576	4577	9
11584	4583	4576	4575	9
11575	11582	7526	7519	9
11575	11582	7526	7528	9
11572	11573	11574	11575	9
11572	11577	11576	11575	9
11575	11576	11577	11581	9
11573	11584	4583	4576	9
11573	11584	4583	4585	9
11573	11574	11575	11576	9
11573	11572	11577	11576	9
11573	11572	11577	11581	9
11574	11575	11582	11583	9
11574	11575	11582	7526	9
11574	11575	11576	11577	9
11574	11575	11576	11579	9
11574	11573	11584	11585	9
11574	11573	11584	4583	9
11574	11573	11572	11577	9
11574	11573	11572	11580	9
11576	11575	11582	11583	9
11576	11575	11582	7526	9
11576	11575	11574	11578	9
11576	11577	11572	11580	9
11572	11573	11584	11585	9
11572	11573	11584	4583	9
11572	11573	11574	11578	9
11572	11577	11576	11579	9
11579	11576	11577	11581	9
11580	11572	11577	11581	9
11583	11582	7526	7519	9
11583	11582	7526	7528	9
11585	11584	4583	4576	9
11585	11584	4583	4585	9
12203	12204	12205	12212	9
12208	12204	12205	12212	9
12207	12206	12205	12212	9
12209	12206	12205	12212	9
12212	6579	6572	6573	9
12212	6579	6572	6571	9
12205	12204	12203	12214	9
12208	12204	12203	12214	9
12207	12202	12203	12214	9
12210	12202	12203	12214	9
12214	5690	5680	5679	9
12214	5690	5680	5683	9
12205	12212	6579	6572	9
12205	12212	6579	6581	9
12202	12203	12204	12205	9
12202	12207	12206	12205	9
12205	12206	12207	12211	9
12203	12214	5690	5680	9
12203	12214	5690	5692	9
12203	12204	12205	12206	9
12203	12202	12207	12206	9
12203	12202	12207	12211	9
12204	12205	12212	12213	9
12204	12205	12212	6579	9
12204	12205	12206	12207	9
12204	12205	12206	12209	9
12204	12203	12214	12215	9
12204	12203	12214	5690	9
12204	12203	12202	12207	9
12204	12203	12202	12210	9
12206	12205	12212	12213	9
12206	12205	12212	6579	9
12206	12205	12204	12208	9
12206	12207	12202	12210	9
12202	12203	12214	12215	9
12202	12203	12214	5690	9
12202	12203	12204	12208	9
12202	12207	12206	12209	9
12209	12206	12207	12211	9
12210	12202	12207	12211	9
12213	12212	6579	6572	9
12213	12212	6579	6581	9
12215	12214	5690	5680	9
12215	12214	5690	5692	9
6207	6206	6205	6216	9
6210	6206	6205	6216	9
6209	6204	6205	6216	9
6212	6204	6205	6216	9
6216	6224	6218	6221	9
6216	6224	6218	6219	9
6205	6206	6207	6214	9
6210	6206	6207	6214	9
6209	6208	6207	6214	9
6211	6208	6207	6214	9
6214	4147	4140	4141	9
6214	4147	4140	4139	9
6205	6216	6224	6218	9
6205	6216	6224	6225	9
6205	6206	6207	6208	9
6205	6204	6209	6208	9
6205	6204	6209	6213	9
6207	6214	4147	4140	9
6207	6214	4147	4149	9
6204	6205	6206	6207	9
6204	6209	6208	6207	9
6207	6208	6209	6213	9
6206	6205	6216	6217	9
6206	6205	6216	6224	9
6206	6205	6204	6209	9
6206	6205	6204	6212	9
6206	6207	6214	6215	9
6206	6207	6214	4147	9
6206	6207	6208	6209	9
6206	6207	6208	6211	9
6204	6205	6216	6217	9
6204	6205	6216	6224	9
6204	6205	6206	6210	9
6204	6209	6208	6211	9
6208	6207	6214	6215	9
6208	6207	6214	4147	9
6208	6207	6206	6210	9
6208	6209	6204	6212	9
6212	6204	6209	6213	9
6211	6208	6209	6213	9
6217	6216	6224	6218	9
6217	6216	6224	6225	9
6215	6214	4147	4140	9
6215	6214	4147	4149	9
4096	4095	4094	4105	9
4099	4095	4094	4105	9
4098	4093	4094	4105	9
4101	4093	4094	4105	9
4105	4113	4107	4108	9
4105	4113	4107	4110	9
4094	4095	4096	4103	9
4099	4095	4096	4103	9
4098	4097	4096	4103	9
4100	4097	4096	4103	9
4103	7730	7723	7724	9
4103	7730	7723	7722	9
4094	4105	4113	4107	9
4094	4105	4113	4114	9
4094	4095	4096	4097	9
4094	4093	4098	4097	9
4094	4093	4098	4102	9
4096	4103	7730	7723	9
4096	4103	7730	7732	9
4093	4094	4095	4096	9
4093	4098	4097	4096	9
4096	4097	4098	4102	9
4095	4094	4105	4106	9
4095	4094	4105	4113	9
4095	4094	4093	4098	9
4095	4094	4093	4101	9
4095	4096	4103	4104	9
4095	4096	4103	7730	9
4095	4096	4097	4098	9
4095	4096	4097	4100	9
4093	4094	4105	4106	9
4093	4094	4105	4113	9
4093	4094	4095	4099	9
4093	4098	4097	4100	9
4097	4096	4103	4104	9
4097	4096	4103	7730	9
4097	4096	4095	4099	9
4097	4098	4093	4101	9
4101	4093	4098	4102	9
4100	4097	4098	4102	9
4106	4105	4113	4107	9
4106	4105	4113	4114	9
4104	4103	7730	7723	9
4104	4103	7730	7732	9
11673	11672	11671	11682	9
11676	11672	11671	11682	9
11675	11670	11671	11682	9
11678	11670	11671	11682	9
11682	8315	8305	8304	9
11682	8315	8305	8308	9
11671	11672	11673	11680	9
11676	11672	11673	11680	9
11675	11674	11673	11680	9
11677	11674	11673	11680	9
11680	4729	4719	4722	9
11680	4729	4719	4718	9
11671	11682	8315	8305	9
11671	11682	8315	8317	9
11671	11672	11673	11674	9
11671	11670	11675	11674	9
11671	11670	11675	11679	9
11673	11680	4729	4719	9
11673	11680	4729	4731	9
11670	11671	11672	11673	9
11670	11675	11674	11673	9
11673	11674	11675	11679	9
11672	11671	11682	11683	9
11672	11671	11682	8315	9
11672	11671	11670	11675	9
11672	11671	11670	11678	9
11672	11673	11680	11681	9
11672	11673	11680	4729	9
11672	11673	11674	11675	9
11672	11673	11674	11677	9
11670	11671	11682	11683	9
11670	11671	11682	8315	9
11670	11671	11672	11676	9
11670	11675	11674	11677	9
11674	11673	11680	11681	9
11674	11673	11680	4729	9
11674	11673	11672	11676	9
11674	11675	11670	11678	9
11678	11670	11675	11679	9
11677	11674	11675	11679	9
11683	11682	8315	8305	9
11683	11682	8315	8317	9
11681	11680	4729	4719	9
11681	11680	4729	4731	9
7955	7954	7953	7964	9
7958	7954	7953	7964	9
7957	7952	7953	7964	9
7960	7952	7953	7964	9
7964	7972	7966	7969	9
7964	7972	7966	7967	9
7953	7954	7955	7962	9
7958	7954	7955	7962	9
7957	7956	7955	7962	9
7959	7956	7955	7962	9
7962	3857	3850	3849	9
7962	3857	3850	3851	9
7953	7964	7972	7966	9
7953	7964	7972	7973	9
7953	7954	7955	7956	9
7953	7952	7957	7956	9
7953	7952	7957	7961	9
7955	7962	3857	3850	9
7955	7962	3857	3859	9
7952	7953	7954	7955	9
7952	7957	7956	7955	9
7955	7956	7957	7961	9
7954	7953	7964	7965	9
7954	7953	7964	7972	9
7954	7953	7952	7957	9
7954	7953	7952	7960	9
7954	7955	7962	7963	9
7954	7955	7962	3857	9
7954	7955	7956	7957	9
7954	7955	7956	7959	9
7952	7953	7964	7965	9
7952	7953	7964	7972	9
7952	7953	7954	7958	9
7952	7957	7956	7959	9
7956	7955	7962	7963	9
7956	7955	7962	3857	9
7956	7955	7954	7958	9
7956	7957	7952	7960	9
7960	7952	7957	7961	9
7959	7956	7957	7961	9
7965	7964	7972	7966	9
7965	7964	7972	7973	9
7963	7962	3857	3850	9
7963	7962	3857	3859	9
4677	4676	4675	4686	9
4680	4676	4675	4686	9
4679	4674	4675	4686	9
4682	4674	4675	4686	9
4686	6303	6296	6297	9
4686	6303	6296	6295	9
4675	4676	4677	4684	9
4680	4676	4677	4684	9
4679	4678	4677	4684	9
4681	4678	4677	4684	9
4684	4694	4688	4689	9
4684	4694	4688	4691	9
4675	4686	6303	6296	9
4675	4686	6303	6305	9
4675	4676	4677	4678	9
4675	4674	4679	4678	9
4675	4674	4679	4683	9
4677	4684	4694	4688	9
4677	4684	4694	4695	9
4674	4675	4676	4677	9
4674	4679	4678	4677	9
4677	4678	4679	4683	9
4676	4675	4686	4687	9
4676	4675	4686	6303	9
4676	4675	4674	4679	9
4676	4675	4674	4682	9
4676	4677	4684	4685	9
4676	4677	4684	4694	9
4676	4677	4678	4679	9
4676	4677	4678	4681	9
4674	4675	4686	4687	9
4674	4675	4686	6303	9
4674	4675	4676	4680	9
4674	4679	4678	4681	9
4678	4677	4684	4685	9
4678	4677	4684	4694	9
4678	4677	4676	4680	9
4678	4679	4674	4682	9
4682	4674	4679	4683	9
4681	4678	4679	4683	9
4687	4686	6303	6296	9
4687	4686	6303	6305	9
4685	4684	4694	4688	9
4685	4684	4694	4695	9
4619	4618	4617	4628	9
4622	4618	4617	4628	9
4621	4616	4617	4628	9
4624	4616	4617	4628	9
856	857	859	4628	9
858	857	859	4628	9
4617	4618	4619	4626	9
4622	4618	4619	4626	9
4621	4620	4619	4626	9
4623	4620	4619	4626	9
4626	4641	4634	4635	9
4626	4641	4634	4633	9
857	859	4628	4617	9
860	859	4628	4617	9
4617	4618	4619	4620	9
4617	4616	4621	4620	9
4617	4616	4621	4625	9
4619	4626	4641	4634	9
4619	4626	4641	4643	9
4616	4617	4618	4619	9
4616	4621	4620	4619	9
4619	4620	4621	4625	9
4618	4617	4628	4629	9
859	4628	4617	4618	9
4618	4617	4616	4621	9
4618	4617	4616	4624	9
4618	4619	4626	4627	9
4618	4619	4626	4641	9
4618	4619	4620	4621	9
4618	4619	4620	4623	9
4616	4617	4628	4629	9
859	4628	4617	4616	9
4616	4617	4618	4622	9
4616	4621	4620	4623	9
4620	4619	4626	4627	9
4620	4619	4626	4641	9
4620	4619	4618	4622	9
4620	4621	4616	4624	9
4624	4616	4621	4625	9
4623	4620	4621	4625	9
857	859	4628	4629	9
860	859	4628	4629	9
4627	4626	4641	4634	9
4627	4626	4641	4643	9
10029	10028	10027	10038	9
10032	10028	10027	10038	9
10031	10026	10027	10038	9
10034	10026	10027	10038	9
10038	10052	10042	10041	9
10038	10052	10042	10045	9
10027	10028	10029	10036	9
10032	10028	10029	10036	9
10031	10030	10029	10036	9
10033	10030	10029	10036	9
10036	8740	8730	8733	9
10036	8740	8730	8729	9
10027	10038	10052	10042	9
10027	10038	10052	10054	9
10027	10028	10029	10030	9
10027	10026	10031	10030	9
10027	10026	10031	10035	9
10029	10036	8740	8730	9
10029	10036	8740	8742	9
10026	10027	10028	10029	9
10026	10031	10030	10029	9
10029	10030	10031	10035	9
10028	10027	10038	10039	9
10028	10027	10038	10052	9
10028	10027	10026	10031	9
10028	10027	10026	10034	9
10028	10029	10036	10037	9
10028	10029	10036	8740	9
10028	10029	10030	10031	9
10028	10029	10030	10033	9
10026	10027	10038	10039	9
10026	10027	10038	10052	9
10026	10027	10028	10032	9
10026	10031	10030	10033	9
10030	10029	10036	10037	9
10030	10029	10036	8740	9
10030	10029	10028	10032	9
10030	10031	10026	10034	9
10034	10026	10031	10035	9
10033	10030	10031	10035	9
10039	10038	10052	10042	9
10039	10038	10052	10054	9
10037	10036	8740	8730	9
10037	10036	8740	8742	9
5784	5783	5782	5793	9
5787	5783	5782	5793	9
5786	5781	5782	5793	9
5789	5781	5782	5793	9
5793	5801	5795	5798	9
5793	5801	5795	5796	9
5782	5783	5784	5791	9
5787	5783	5784	5791	9
5786	5785	5784	5791	9
5788	5785	5784	5791	9
5791	8719	8713	8716	9
5791	8719	8713	8714	9
5782	5793	5801	5795	9
5782	5793	5801	5802	9
5782	5783	5784	5785	9
5782	5781	5786	5785	9
5782	5781	5786	5790	9
5784	5791	8719	8713	9
5784	5791	8719	8720	9
5781	5782	5783	5784	9
5781	5786	5785	5784	9
5784	5785	5786	5790	9
5783	5782	5793	5794	9
5783	5782	5793	5801	9
5783	5782	5781	5786	9
5783	5782	5781	5789	9
5783	5784	5791	5792	9
5783	5784	5791	8719	9
5783	5784	5785	5786	9
5783	5784	5785	5788	9
5781	5782	5793	5794	9
5781	5782	5793	5801	9
5781	5782	5783	5787	9
5781	5786	5785	5788	9
5785	5784	5791	5792	9
5785	5784	5791	8719	9
5785	5784	5783	5787	9
5785	5786	5781	5789	9
5789	5781	5786	5790	9
5788	5785	5786	5790	9
5794	5793	5801	5795	9
5794	5793	5801	5802	9
5792	5791	8719	8713	9
5792	5791	8719	8720	9
2951	2950	2949	2960	9
2954	2950	2949	2960	9
2953	2948	2949	2960	9
2956	2948	2949	2960	9
2949	2950	2951	2958	9
2954	2950	2951	2958	9
2953	2952	2951	2958	9
2955	2952	2951	2958	9
2958	6676	6670	6671	9
2958	6676	6670	6673	9
2949	2950	2951	2952	9
2949	2948	2953	2952	9
2949	2948	2953	2957	9
2951	2958	6676	6670	9
2951	2958	6676	6677	9
2948	2949	2950	2951	9
2948	2953	2952	2951	9
2951	2952	2953	2957	9
2950	2949	2960	2961	9
2950	2949	2960	2962	9
2950	2949	2948	2953	9
2950	2949	2948	2956	9
2950	2951	2958	2959	9
2950	2951	2958	6676	9
2950	2951	2952	2953	9
2950	2951	2952	2955	9
2948	2949	2960	2961	9
2948	2949	2960	2962	9
2948	2949	2950	2954	9
2948	2953	2952	2955	9
2952	2951	2958	2959	9
2952	2951	2958	6676	9
2952	2951	2950	2954	9
2952	2953	2948	2956	9
2956	2948	2953	2957	9
2955	2952	2953	2957	9
2959	2958	6676	6670	9
2959	2958	6676	6677	9
6921	6920	6919	6930	9
6924	6920	6919	6930	9
6923	6918	6919	6930	9
6926	6918	6919	6930	9
6930	11114	11108	11109	9
6930	11114	11108	11111	9
6919	6920	6921	6928	9
6924	6920	6921	6928	9
6923	6922	6921	6928	9
6925	6922	6921	6928	9
6928	6943	6936	6935	9
6928	6943	6936	6937	9
6919	6930	11114	11108	9
6919	6930	11114	11115	9
6919	6920	6921	6922	9
6919	6918	6923	6922	9
6919	6918	6923	6927	9
6921	6928	6943	6936	9
6921	6928	6943	6945	9
6918	6919	6920	6921	9
6918	6923	6922	6921	9
6921	6922	6923	6927	9
6920	6919	6930	6931	9
6920	6919	6930	11114	9
6920	6919	6918	6923	9
6920	6919	6918	6926	9
6920	6921	6928	6929	9
6920	6921	6928	6943	9
6920	6921	6922	6923	9
6920	6921	6922	6925	9
6918	6919	6930	6931	9
6918	6919	6930	11114	9
6918	6919	6920	6924	9
6918	6923	6922	6925	9
6922	6921	6928	6929	9
6922	6921	6928	6943	9
6922	6921	6920	6924	9
6922	6923	6918	6926	9
6926	6918	6923	6927	9
6925	6922	6923	6927	9
6931	6930	11114	11108	9
6931	6930	11114	11115	9
6929	6928	6943	6936	9
6929	6928	6943	6945	9
1252	1251	1250	1261	9
1255	1251	1250	1261	9
1254	1249	1250	1261	9
1257	1249	1250	1261	9
1261	7453	7446	7445	9
1261	7453	7446	7447	9
1250	1251	1252	1259	9
1255	1251	1252	1259	9
1254	1253	1252	1259	9
1256	1253	1252	1259	9
1266	1265	1263	1259	9
1270	1265	1263	1259	9
1250	1261	7453	7446	9
1250	1261	7453	7455	9
1250	1251	1252	1253	9
1250	1249	1254	1253	9
1250	1249	1254	1258	9
1265	1263	1259	1252	9
1264	1263	1259	1252	9
1249	1250	1251	1252	9
1249	1254	1253	1252	9
1252	1253	1254	1258	9
1251	1250	1261	1262	9
1251	1250	1261	7453	9
1251	1250	1249	1254	9
1251	1250	1249	1257	9
1251	1252	1259	1260	9
1263	1259	1252	1251	9
1251	1252	1253	1254	9
1251	1252	1253	1256	9
1249	1250	1261	1262	9
1249	1250	1261	7453	9
1249	1250	1251	1255	9
1249	1254	1253	1256	9
1253	1252	1259	1260	9
1263	1259	1252	1253	9
1253	1252	1251	1255	9
1253	1254	1249	1257	9
1257	1249	1254	1258	9
1256	1253	1254	1258	9
1262	1261	7453	7446	9
1262	1261	7453	7455	9
1265	1263	1259	1260	9
1264	1263	1259	1260	9
2515	2514	2513	2524	9
2518	2514	2513	2524	9
2517	2512	2513	2524	9
2520	2512	2513	2524	9
795	796	798	2524	9
797	796	798	2524	9
2513	2514	2515	2522	9
2518	2514	2515	2522	9
2517	2516	2515	2522	9
2519	2516	2515	2522	9
2533	2528	2526	2522	9
2529	2528	2526	2522	9
796	798	2524	2513	9
799	798	2524	2513	9
2513	2514	2515	2516	9
2513	2512	2517	2516	9
2513	2512	2517	2521	9
2528	2526	2522	2515	9
2527	2526	2522	2515	9
2512	2513	2514	2515	9
2512	2517	2516	2515	9
2515	2516	2517	2521	9
2514	2513	2524	2525	9
798	2524	2513	2514	9
2514	2513	2512	2517	9
2514	2513	2512	2520	9
2514	2515	2522	2523	9
2526	2522	2515	2514	9
2514	2515	2516	2517	9
2514	2515	2516	2519	9
2512	2513	2524	2525	9
798	2524	2513	2512	9
2512	2513	2514	2518	9
2512	2517	2516	2519	9
2516	2515	2522	2523	9
2526	2522	2515	2516	9
2516	2515	2514	2518	9
2516	2517	2512	2520	9
2520	2512	2517	2521	9
2519	2516	2517	2521	9
796	798	2524	2525	9
799	798	2524	2525	9
2528	2526	2522	2523	9
2527	2526	2522	2523	9
6337	6338	6339	6346	9
6342	6338	6339	6346	9
6341	6340	6339	6346	9
6343	6340	6339	6346	9
6346	7701	7694	7695	9
6346	7701	7694	7693	9
6339	6338	6337	6348	9
6342	6338	6337	6348	9
6341	6336	6337	6348	9
6344	6336	6337	6348	9
6348	6356	6350	6353	9
6348	6356	6350	6351	9
6339	6346	7701	7694	9
6339	6346	7701	7703	9
6339	6338	6337	6336	9
6339	6340	6341	6336	9
6339	6340	6341	6345	9
6337	6348	6356	6350	9
6337	6348	6356	6357	9
6340	6339	6338	6337	9
6340	6341	6336	6337	9
6337	6336	6341	6345	9
6338	6339	6346	6347	9
6338	6339	6346	7701	9
6338	6339	6340	6341	9
6338	6339	6340	6343	9
6338	6337	6348	6349	9
6338	6337	6348	6356	9
6338	6337	6336	6341	9
6338	6337	6336	6344	9
6340	6339	6346	6347	9
6340	6339	6346	7701	9
6340	6339	6338	6342	9
6340	6341	6336	6344	9
6336	6337	6348	6349	9
6336	6337	6348	6356	9
6336	6337	6338	6342	9
6336	6341	6340	6343	9
6343	6340	6341	6345	9
6344	6336	6341	6345	9
6347	6346	7701	7694	9
6347	6346	7701	7703	9
6349	6348	6356	6350	9
6349	6348	6356	6357	9
11183	11182	11181	11192	9
11186	11182	11181	11192	9
11185	11180	11181	11192	9
11188	11180	11181	11192	9
11192	7424	7417	7416	9
11192	7424	7417	7418	9
11181	11182	11183	11190	9
11186	11182	11183	11190	9
11185	11184	11183	11190	9
11187	11184	11183	11190	9
11190	3828	3821	3820	9
11190	3828	3821	3822	9
11181	11192	7424	7417	9
11181	11192	7424	7426	9
11181	11182	11183	11184	9
11181	11180	11185	11184	9
11181	11180	11185	11189	9
11183	11190	3828	3821	9
11183	11190	3828	3830	9
11180	11181	11182	11183	9
11180	11185	11184	11183	9
11183	11184	11185	11189	9
11182	11181	11192	11193	9
11182	11181	11192	7424	9
11182	11181	11180	11185	9
11182	11181	11180	11188	9
11182	11183	11190	11191	9
11182	11183	11190	3828	9
11182	11183	11184	11185	9
11182	11183	11184	11187	9
11180	11181	11192	11193	9
11180	11181	11192	7424	9
11180	11181	11182	11186	9
11180	11185	11184	11187	9
11184	11183	11190	11191	9
11184	11183	11190	3828	9
11184	11183	11182	11186	9
11184	11185	11180	11188	9
11188	11180	11185	11189	9
11187	11184	11185	11189	9
11193	11192	7424	7417	9
11193	11192	7424	7426	9
11191	11190	3828	3821	9
11191	11190	3828	3830	9
10305	10304	10303	10314	9
10308	10304	10303	10314	9
10307	10302	10303	10314	9
10310	10302	10303	10314	9
10314	4279	4269	4272	9
10314	4279	4269	4268	9
10303	10304	10305	10312	9
10308	10304	10305	10312	9
10307	10306	10305	10312	9
10309	10306	10305	10312	9
10312	10322	10316	10317	9
10312	10322	10316	10319	9
10303	10314	4279	4269	9
10303	10314	4279	4281	9
10303	10304	10305	10306	9
10303	10302	10307	10306	9
10303	10302	10307	10311	9
10305	10312	10322	10316	9
10305	10312	10322	10323	9
10302	10303	10304	10305	9
10302	10307	10306	10305	9
10305	10306	10307	10311	9
10304	10303	10314	10315	9
10304	10303	10314	4279	9
10304	10303	10302	10307	9
10304	10303	10302	10310	9
10304	10305	10312	10313	9
10304	10305	10312	10322	9
10304	10305	10306	10307	9
10304	10305	10306	10309	9
10302	10303	10314	10315	9
10302	10303	10314	4279	9
10302	10303	10304	10308	9
10302	10307	10306	10309	9
10306	10305	10312	10313	9
10306	10305	10312	10322	9
10306	10305	10304	10308	9
10306	10307	10302	10310	9
10310	10302	10307	10311	9
10309	10306	10307	10311	9
10315	10314	4279	4269	9
10315	10314	4279	4281	9
10313	10312	10322	10316	9
10313	10312	10322	10323	9
3774	3775	3776	3783	9
3779	3775	3776	3783	9
3778	3777	3776	3783	9
3780	3777	3776	3783	9
767	766	768	3783	9
765	766	768	3783	9
3776	3775	3774	3785	9
3779	3775	3774	3785	9
3778	3773	3774	3785	9
3781	3773	3774	3785	9
766	768	3783	3776	9
769	768	3783	3776	9
3773	3774	3775	3776	9
3773	3778	3777	3776	9
3776	3777	3778	3782	9
3774	3775	3776	3777	9
3774	3773	3778	3777	9
3774	3773	3778	3782	9
3775	3776	3783	3784	9
768	3783	3776	3775	9
3775	3776	3777	3778	9
3775	3776	3777	3780	9
3775	3774	3785	3787	9
3775	3774	3785	3786	9
3775	3774	3773	3778	9
3775	3774	3773	3781	9
3777	3776	3783	3784	9
768	3783	3776	3777	9
3777	3776	3775	3779	9
3777	3778	3773	3781	9
3773	3774	3785	3787	9
3773	3774	3785	3786	9
3773	3774	3775	3779	9
3773	3778	3777	3780	9
3780	3777	3778	3782	9
3781	3773	3778	3782	9
766	768	3783	3784	9
769	768	3783	3784	9
11225	11224	11223	11234	9
11228	11224	11223	11234	9
11227	11222	11223	11234	9
11230	11222	11223	11234	9
11234	6755	6745	6744	9
11234	6755	6745	6748	9
11223	11224	11225	11232	9
11228	11224	11225	11232	9
11227	11226	11225	11232	9
11229	11226	11225	11232	9
11232	3974	3964	3967	9
11232	3974	3964	3963	9
11223	11234	6755	6745	9
11223	11234	6755	6757	9
11223	11224	11225	11226	9
11223	11222	11227	11226	9
11223	11222	11227	11231	9
11225	11232	3974	3964	9
11225	11232	3974	3976	9
11222	11223	11224	11225	9
11222	11227	11226	11225	9
11225	11226	11227	11231	9
11224	11223	11234	11235	9
11224	11223	11234	6755	9
11224	11223	11222	11227	9
11224	11223	11222	11230	9
11224	11225	11232	11233	9
11224	11225	11232	3974	9
11224	11225	11226	11227	9
11224	11225	11226	11229	9
11222	11223	11234	11235	9
11222	11223	11234	6755	9
11222	11223	11224	11228	9
11222	11227	11226	11229	9
11226	11225	11232	11233	9
11226	11225	11232	3974	9
11226	11225	11224	11228	9
11226	11227	11222	11230	9
11230	11222	11227	11231	9
11229	11226	11227	11231	9
11235	11234	6755	6745	9
11235	11234	6755	6757	9
11233	11232	3974	3964	9
11233	11232	3974	3976	9
10526	10525	10524	10535	9
10529	10525	10524	10535	9
10528	10523	10524	10535	9
10531	10523	10524	10535	9
10535	11011	11005	11008	9
10535	11011	11005	11006	9
10524	10525	10526	10533	9
10529	10525	10526	10533	9
10528	10527	10526	10533	9
10530	10527	10526	10533	9
10533	10543	10537	10538	9
10533	10543	10537	10540	9
10524	10535	11011	11005	9
10524	10535	11011	11012	9
10524	10525	10526	10527	9
10524	10523	10528	10527	9
10524	10523	10528	10532	9
10526	10533	10543	10537	9
10526	10533	10543	10544	9
10523	10524	10525	10526	9
10523	10528	10527	10526	9
10526	10527	10528	10532	9
10525	10524	10535	10536	9
10525	10524	10535	11011	9
10525	10524	10523	10528	9
10525	10524	10523	10531	9
10525	10526	10533	10534	9
10525	10526	10533	10543	9
10525	10526	10527	10528	9
10525	10526	10527	10530	9
10523	10524	10535	10536	9
10523	10524	10535	11011	9
10523	10524	10525	10529	9
10523	10528	10527	10530	9
10527	10526	10533	10534	9
10527	10526	10533	10543	9
10527	10526	10525	10529	9
10527	10528	10523	10531	9
10531	10523	10528	10532	9
10530	10527	10528	10532	9
10536	10535	11011	11005	9
10536	10535	11011	11012	9
10534	10533	10543	10537	9
10534	10533	10543	10544	9
7067	7066	7065	7076	9
7070	7066	7065	7076	9
7069	7064	7065	7076	9
7072	7064	7065	7076	9
7076	7084	7078	7081	9
7076	7084	7078	7079	9
7065	7066	7067	7074	9
7070	7066	7067	7074	9
7069	7068	7067	7074	9
7071	7068	7067	7074	9
7074	5879	5872	5871	9
7074	5879	5872	5873	9
7065	7076	7084	7078	9
7065	7076	7084	7085	9
7065	7066	7067	7068	9
7065	7064	7069	7068	9
7065	7064	7069	7073	9
7067	7074	5879	5872	9
7067	7074	5879	5881	9
7064	7065	7066	7067	9
7064	7069	7068	7067	9
7067	7068	7069	7073	9
7066	7065	7076	7077	9
7066	7065	7076	7084	9
7066	7065	7064	7069	9
7066	7065	7064	7072	9
7066	7067	7074	7075	9
7066	7067	7074	5879	9
7066	7067	7068	7069	9
7066	7067	7068	7071	9
7064	7065	7076	7077	9
7064	7065	7076	7084	9
7064	7065	7066	7070	9
7064	7069	7068	7071	9
7068	7067	7074	7075	9
7068	7067	7074	5879	9
7068	7067	7066	7070	9
7068	7069	7064	7072	9
7072	7064	7069	7073	9
7071	7068	7069	7073	9
7077	7076	7084	7078	9
7077	7076	7084	7085	9
7075	7074	5879	5872	9
7075	7074	5879	5881	9
1801	1800	1799	1810	9
1804	1800	1799	1810	9
1803	1798	1799	1810	9
1806	1798	1799	1810	9
1784	1785	1792	1810	9
1786	1785	1792	1810	9
1799	1800	1801	1808	9
1804	1800	1801	1808	9
1803	1802	1801	1808	9
1805	1802	1801	1808	9
294	293	300	1808	9
292	293	300	1808	9
1785	1792	1810	1799	9
1794	1792	1810	1799	9
1799	1800	1801	1802	9
1799	1798	1803	1802	9
1799	1798	1803	1807	9
293	300	1808	1801	9
302	300	1808	1801	9
1798	1799	1800	1801	9
1798	1803	1802	1801	9
1801	1802	1803	1807	9
1800	1799	1810	1811	9
1792	1810	1799	1800	9
1800	1799	1798	1803	9
1800	1799	1798	1806	9
1800	1801	1808	1809	9
300	1808	1801	1800	9
1800	1801	1802	1803	9
1800	1801	1802	1805	9
1798	1799	1810	1811	9
1792	1810	1799	1798	9
1798	1799	1800	1804	9
1798	1803	1802	1805	9
1802	1801	1808	1809	9
300	1808	1801	1802	9
1802	1801	1800	1804	9
1802	1803	1798	1806	9
1806	1798	1803	1807	9
1805	1802	1803	1807	9
1785	1792	1810	1811	9
1794	1792	1810	1811	9
293	300	1808	1809	9
302	300	1808	1809	9
12793	12792	12791	12802	9
12796	12792	12791	12802	9
12795	12790	12791	12802	9
12798	12790	12791	12802	9
12802	6958	6951	6950	9
12802	6958	6951	6952	9
12791	12792	12793	12800	9
12796	12792	12793	12800	9
12795	12794	12793	12800	9
12797	12794	12793	12800	9
12800	10664	10657	10658	9
12800	10664	10657	10656	9
12791	12802	6958	6951	9
12791	12802	6958	6960	9
12791	12792	12793	12794	9
12791	12790	12795	12794	9
12791	12790	12795	12799	9
12793	12800	10664	10657	9
12793	12800	10664	10666	9
12790	12791	12792	12793	9
12790	12795	12794	12793	9
12793	12794	12795	12799	9
12792	12791	12802	12803	9
12792	12791	12802	6958	9
12792	12791	12790	12795	9
12792	12791	12790	12798	9
12792	12793	12800	12801	9
12792	12793	12800	10664	9
12792	12793	12794	12795	9
12792	12793	12794	12797	9
12790	12791	12802	12803	9
12790	12791	12802	6958	9
12790	12791	12792	12796	9
12790	12795	12794	12797	9
12794	12793	12800	12801	9
12794	12793	12800	10664	9
12794	12793	12792	12796	9
12794	12795	12790	12798	9
12798	12790	12795	12799	9
12797	12794	12795	12799	9
12803	12802	6958	6951	9
12803	12802	6958	6960	9
12801	12800	10664	10657	9
12801	12800	10664	10666	9
3341	3340	3339	3350	9
3344	3340	3339	3350	9
3343	3338	3339	3350	9
3346	3338	3339	3350	9
3339	3340	3341	3348	9
3344	3340	3341	3348	9
3343	3342	3341	3348	9
3345	3342	3341	3348	9
3348	9075	9068	9069	9
3348	9075	9068	9067	9
3339	3340	3341	3342	9
3339	3338	3343	3342	9
3339	3338	3343	3347	9
3341	3348	9075	9068	9
3341	3348	9075	9077	9
3338	3339	3340	3341	9
3338	3343	3342	3341	9
3341	3342	3343	3347	9
3340	3339	3350	3351	9
3340	3339	3350	3352	9
3340	3339	3338	3343	9
3340	3339	3338	3346	9
3340	3341	3348	3349	9
3340	3341	3348	9075	9
3340	3341	3342	3343	9
3340	3341	3342	3345	9
3338	3339	3350	3351	9
3338	3339	3350	3352	9
3338	3339	3340	3344	9
3338	3343	3342	3345	9
3342	3341	3348	3349	9
3342	3341	3348	9075	9
3342	3341	3340	3344	9
3342	3343	3338	3346	9
3346	3338	3343	3347	9
3345	3342	3343	3347	9
3349	3348	9075	9068	9
3349	3348	9075	9077	9
13493	13492	13491	13502	9
13496	13492	13491	13502	9
13495	13490	13491	13502	9
13498	13490	13491	13502	9
13502	8987	8980	8981	9
13502	8987	8980	8979	9
13491	13492	13493	13500	9
13496	13492	13493	13500	9
13495	13494	13493	13500	9
13497	13494	13493	13500	9
13500	10797	10787	10786	9
13500	10797	10787	10790	9
13491	13502	8987	8980	9
13491	13502	8987	8989	9
13491	13492	13493	13494	9
13491	13490	13495	13494	9
13491	13490	13495	13499	9
13493	13500	10797	10787	9
13493	13500	10797	10799	9
13490	13491	13492	13493	9
13490	13495	13494	13493	9
13493	13494	13495	13499	9
13492	13491	13502	13503	9
13492	13491	13502	8987	9
13492	13491	13490	13495	9
13492	13491	13490	13498	9
13492	13493	13500	13501	9
13492	13493	13500	10797	9
13492	13493	13494	13495	9
13492	13493	13494	13497	9
13490	13491	13502	13503	9
13490	13491	13502	8987	9
13490	13491	13492	13496	9
13490	13495	13494	13497	9
13494	13493	13500	13501	9
13494	13493	13500	10797	9
13494	13493	13492	13496	9
13494	13495	13490	13498	9
13498	13490	13495	13499	9
13497	13494	13495	13499	9
13503	13502	8987	8980	9
13503	13502	8987	8989	9
13501	13500	10797	10787	9
13501	13500	10797	10799	9
11897	11896	11895	11906	9
11900	11896	11895	11906	9
11899	11894	11895	11906	9
11902	11894	11895	11906	9
2016	2011	2009	11906	9
2012	2011	2009	11906	9
11895	11896	11897	11904	9
11900	11896	11897	11904	9
11899	11898	11897	11904	9
11901	11898	11897	11904	9
11904	5122	5112	5115	9
11904	5122	5112	5111	9
2011	2009	11906	11895	9
2010	2009	11906	11895	9
11895	11896	11897	11898	9
11895	11894	11899	11898	9
11895	11894	11899	11903	9
11897	11904	5122	5112	9
11897	11904	5122	5124	9
11894	11895	11896	11897	9
11894	11899	11898	11897	9
11897	11898	11899	11903	9
11896	11895	11906	11907	9
2009	11906	11895	11896	9
11896	11895	11894	11899	9
11896	11895	11894	11902	9
11896	11897	11904	11905	9
11896	11897	11904	5122	9
11896	11897	11898	11899	9
11896	11897	11898	11901	9
11894	11895	11906	11907	9
2009	11906	11895	11894	9
11894	11895	11896	11900	9
11894	11899	11898	11901	9
11898	11897	11904	11905	9
11898	11897	11904	5122	9
11898	11897	11896	11900	9
11898	11899	11894	11902	9
11902	11894	11899	11903	9
11901	11898	11899	11903	9
2011	2009	11906	11907	9
2010	2009	11906	11907	9
11905	11904	5122	5112	9
11905	11904	5122	5124	9
11211	11210	11209	11220	9
11214	11210	11209	11220	9
11213	11208	11209	11220	9
11216	11208	11209	11220	9
11220	3887	3877	3880	9
11220	3887	3877	3876	9
11209	11210	11211	11218	9
11214	11210	11211	11218	9
11213	11212	11211	11218	9
11215	11212	11211	11218	9
2076	2075	2077	11218	9
2074	2075	2077	11218	9
11209	11220	3887	3877	9
11209	11220	3887	3889	9
11209	11210	11211	11212	9
11209	11208	11213	11212	9
11209	11208	11213	11217	9
2075	2077	11218	11211	9
2078	2077	11218	11211	9
11208	11209	11210	11211	9
11208	11213	11212	11211	9
11211	11212	11213	11217	9
11210	11209	11220	11221	9
11210	11209	11220	3887	9
11210	11209	11208	11213	9
11210	11209	11208	11216	9
11210	11211	11218	11219	9
2077	11218	11211	11210	9
11210	11211	11212	11213	9
11210	11211	11212	11215	9
11208	11209	11220	11221	9
11208	11209	11220	3887	9
11208	11209	11210	11214	9
11208	11213	11212	11215	9
11212	11211	11218	11219	9
2077	11218	11211	11212	9
11212	11211	11210	11214	9
11212	11213	11208	11216	9
11216	11208	11213	11217	9
11215	11212	11213	11217	9
11221	11220	3887	3877	9
11221	11220	3887	3889	9
2075	2077	11218	11219	9
2078	2077	11218	11219	9
3566	3565	3564	3575	9
3569	3565	3564	3575	9
3568	3563	3564	3575	9
3571	3563	3564	3575	9
3564	3565	3566	3573	9
3569	3565	3566	3573	9
3568	3567	3566	3573	9
3570	3567	3566	3573	9
3573	10703	10697	10698	9
3573	10703	10697	10700	9
3564	3565	3566	3567	9
3564	3563	3568	3567	9
3564	3563	3568	3572	9
3566	3573	10703	10697	9
3566	3573	10703	10704	9
3563	3564	3565	3566	9
3563	3568	3567	3566	9
3566	3567	3568	3572	9
3565	3564	3575	3577	9
3565	3564	3575	3576	9
3565	3564	3563	3568	9
3565	3564	3563	3571	9
3565	3566	3573	3574	9
3565	3566	3573	10703	9
3565	3566	3567	3568	9
3565	3566	3567	3570	9
3563	3564	3575	3577	9
3563	3564	3575	3576	9
3563	3564	3565	3569	9
3563	3568	3567	3570	9
3567	3566	3573	3574	9
3567	3566	3573	10703	9
3567	3566	3565	3569	9
3567	3568	3563	3571	9
3571	3563	3568	3572	9
3570	3567	3568	3572	9
3574	3573	10703	10697	9
3574	3573	10703	10704	9
307	308	309	316	9
312	308	309	316	9
311	310	309	316	9
313	310	309	316	9
316	7673	7663	7666	9
316	7673	7663	7662	9
309	308	307	318	9
312	308	307	318	9
311	306	307	318	9
314	306	307	318	9
292	289	295	318	9
290	289	295	318	9
309	316	7673	7663	9
309	316	7673	7675	9
309	308	307	306	9
309	310	311	306	9
309	310	311	315	9
289	295	318	307	9
296	295	318	307	9
310	309	308	307	9
310	311	306	307	9
307	306	311	315	9
308	309	316	317	9
308	309	316	7673	9
308	309	310	311	9
308	309	310	313	9
308	307	318	319	9
295	318	307	308	9
308	307	306	311	9
308	307	306	314	9
310	309	316	317	9
310	309	316	7673	9
310	309	308	312	9
310	311	306	314	9
306	307	318	319	9
295	318	307	306	9
306	307	308	312	9
306	311	310	313	9
313	310	311	315	9
314	306	311	315	9
317	316	7673	7663	9
317	316	7673	7675	9
289	295	318	319	9
296	295	318	319	9
2562	2561	2560	2571	9
2565	2561	2560	2571	9
2564	2559	2560	2571	9
2567	2559	2560	2571	9
2543	2542	2548	2571	9
2545	2542	2548	2571	9
2560	2561	2562	2569	9
2565	2561	2562	2569	9
2564	2563	2562	2569	9
2566	2563	2562	2569	9
414	415	422	2569	9
416	415	422	2569	9
2542	2548	2571	2560	9
2549	2548	2571	2560	9
2560	2561	2562	2563	9
2560	2559	2564	2563	9
2560	2559	2564	2568	9
415	422	2569	2562	9
424	422	2569	2562	9
2559	2560	2561	2562	9
2559	2564	2563	2562	9
2562	2563	2564	2568	9
2561	2560	2571	2572	9
2548	2571	2560	2561	9
2561	2560	2559	2564	9
2561	2560	2559	2567	9
2561	2562	2569	2570	9
422	2569	2562	2561	9
2561	2562	2563	2564	9
2561	2562	2563	2566	9
2559	2560	2571	2572	9
2548	2571	2560	2559	9
2559	2560	2561	2565	9
2559	2564	2563	2566	9
2563	2562	2569	2570	9
422	2569	2562	2563	9
2563	2562	2561	2565	9
2563	2564	2559	2567	9
2567	2559	2564	2568	9
2566	2563	2564	2568	9
2542	2548	2571	2572	9
2549	2548	2571	2572	9
415	422	2569	2570	9
424	422	2569	2570	9
5506	5505	5504	5515	9
5509	5505	5504	5515	9
5508	5503	5504	5515	9
5511	5503	5504	5515	9
5515	5523	5517	5520	9
5515	5523	5517	5518	9
5504	5505	5506	5513	9
5509	5505	5506	5513	9
5508	5507	5506	5513	9
5510	5507	5506	5513	9
5513	10835	10829	10832	9
5513	10835	10829	10830	9
5504	5515	5523	5517	9
5504	5515	5523	5524	9
5504	5505	5506	5507	9
5504	5503	5508	5507	9
5504	5503	5508	5512	9
5506	5513	10835	10829	9
5506	5513	10835	10836	9
5503	5504	5505	5506	9
5503	5508	5507	5506	9
5506	5507	5508	5512	9
5505	5504	5515	5516	9
5505	5504	5515	5523	9
5505	5504	5503	5508	9
5505	5504	5503	5511	9
5505	5506	5513	5514	9
5505	5506	5513	10835	9
5505	5506	5507	5508	9
5505	5506	5507	5510	9
5503	5504	5515	5516	9
5503	5504	5515	5523	9
5503	5504	5505	5509	9
5503	5508	5507	5510	9
5507	5506	5513	5514	9
5507	5506	5513	10835	9
5507	5506	5505	5509	9
5507	5508	5503	5511	9
5511	5503	5508	5512	9
5510	5507	5508	5512	9
5516	5515	5523	5517	9
5516	5515	5523	5524	9
5514	5513	10835	10829	9
5514	5513	10835	10836	9
4285	4284	4283	4294	9
4288	4284	4283	4294	9
4287	4282	4283	4294	9
4290	4282	4283	4294	9
4294	4302	4296	4299	9
4294	4302	4296	4297	9
4283	4284	4285	4292	9
4288	4284	4285	4292	9
4287	4286	4285	4292	9
4289	4286	4285	4292	9
4292	8602	8596	8597	9
4292	8602	8596	8599	9
4283	4294	4302	4296	9
4283	4294	4302	4303	9
4283	4284	4285	4286	9
4283	4282	4287	4286	9
4283	4282	4287	4291	9
4285	4292	8602	8596	9
4285	4292	8602	8603	9
4282	4283	4284	4285	9
4282	4287	4286	4285	9
4285	4286	4287	4291	9
4284	4283	4294	4295	9
4284	4283	4294	4302	9
4284	4283	4282	4287	9
4284	4283	4282	4290	9
4284	4285	4292	4293	9
4284	4285	4292	8602	9
4284	4285	4286	4287	9
4284	4285	4286	4289	9
4282	4283	4294	4295	9
4282	4283	4294	4302	9
4282	4283	4284	4288	9
4282	4287	4286	4289	9
4286	4285	4292	4293	9
4286	4285	4292	8602	9
4286	4285	4284	4288	9
4286	4287	4282	4290	9
4290	4282	4287	4291	9
4289	4286	4287	4291	9
4295	4294	4302	4296	9
4295	4294	4302	4303	9
4293	4292	8602	8596	9
4293	4292	8602	8603	9
13801	13800	13799	13810	9
13804	13800	13799	13810	9
13803	13798	13799	13810	9
13806	13798	13799	13810	9
1284	1285	1287	13810	9
1286	1285	1287	13810	9
13799	13800	13801	13808	9
13804	13800	13801	13808	9
13803	13802	13801	13808	9
13805	13802	13801	13808	9
1631	1632	1639	13808	9
1633	1632	1639	13808	9
1285	1287	13810	13799	9
1288	1287	13810	13799	9
13799	13800	13801	13802	9
13799	13798	13803	13802	9
13799	13798	13803	13807	9
1632	1639	13808	13801	9
1641	1639	13808	13801	9
13798	13799	13800	13801	9
13798	13803	13802	13801	9
13801	13802	13803	13807	9
13800	13799	13810	13811	9
1287	13810	13799	13800	9
13800	13799	13798	13803	9
13800	13799	13798	13806	9
13800	13801	13808	13809	9
1639	13808	13801	13800	9
13800	13801	13802	13803	9
13800	13801	13802	13805	9
13798	13799	13810	13811	9
1287	13810	13799	13798	9
13798	13799	13800	13804	9
13798	13803	13802	13805	9
13802	13801	13808	13809	9
1639	13808	13801	13802	9
13802	13801	13800	13804	9
13802	13803	13798	13806	9
13806	13798	13803	13807	9
13805	13802	13803	13807	9
1285	1287	13810	13811	9
1288	1287	13810	13811	9
1632	1639	13808	13809	9
1641	1639	13808	13809	9
3251	3250	3249	3260	9
3254	3250	3249	3260	9
3253	3248	3249	3260	9
3256	3248	3249	3260	9
3249	3250	3251	3258	9
3254	3250	3251	3258	9
3253	3252	3251	3258	9
3255	3252	3251	3258	9
3258	8871	8861	8860	9
3258	8871	8861	8864	9
3249	3250	3251	3252	9
3249	3248	3253	3252	9
3249	3248	3253	3257	9
3251	3258	8871	8861	9
3251	3258	8871	8873	9
3248	3249	3250	3251	9
3248	3253	3252	3251	9
3251	3252	3253	3257	9
3250	3249	3260	3261	9
3250	3249	3260	3262	9
3250	3249	3248	3253	9
3250	3249	3248	3256	9
3250	3251	3258	3259	9
3250	3251	3258	8871	9
3250	3251	3252	3253	9
3250	3251	3252	3255	9
3248	3249	3260	3261	9
3248	3249	3260	3262	9
3248	3249	3250	3254	9
3248	3253	3252	3255	9
3252	3251	3258	3259	9
3252	3251	3258	8871	9
3252	3251	3250	3254	9
3252	3253	3248	3256	9
3256	3248	3253	3257	9
3255	3252	3253	3257	9
3259	3258	8871	8861	9
3259	3258	8871	8873	9
12499	12498	12497	12508	9
12502	12498	12497	12508	9
12501	12496	12497	12508	9
12504	12496	12497	12508	9
12508	6186	6176	6175	9
12508	6186	6176	6179	9
12497	12498	12499	12506	9
12502	12498	12499	12506	9
12501	12500	12499	12506	9
12503	12500	12499	12506	9
12506	6580	6570	6569	9
12506	6580	6570	6573	9
12497	12508	6186	6176	9
12497	12508	6186	6188	9
12497	12498	12499	12500	9
12497	12496	12501	12500	9
12497	12496	12501	12505	9
12499	12506	6580	6570	9
12499	12506	6580	6582	9
12496	12497	12498	12499	9
12496	12501	12500	12499	9
12499	12500	12501	12505	9
12498	12497	12508	12509	9
12498	12497	12508	6186	9
12498	12497	12496	12501	9
12498	12497	12496	12504	9
12498	12499	12506	12507	9
12498	12499	12506	6580	9
12498	12499	12500	12501	9
12498	12499	12500	12503	9
12496	12497	12508	12509	9
12496	12497	12508	6186	9
12496	12497	12498	12502	9
12496	12501	12500	12503	9
12500	12499	12506	12507	9
12500	12499	12506	6580	9
12500	12499	12498	12502	9
12500	12501	12496	12504	9
12504	12496	12501	12505	9
12503	12500	12501	12505	9
12509	12508	6186	6176	9
12509	12508	6186	6188	9
12507	12506	6580	6570	9
12507	12506	6580	6582	9
12275	12274	12273	12284	9
12278	12274	12273	12284	9
12277	12272	12273	12284	9
12280	12272	12273	12284	9
12284	6988	6978	6981	9
12284	6988	6978	6977	9
12273	12274	12275	12282	9
12278	12274	12275	12282	9
12277	12276	12275	12282	9
12279	12276	12275	12282	9
12282	5778	5768	5771	9
12282	5778	5768	5767	9
12273	12284	6988	6978	9
12273	12284	6988	6990	9
12273	12274	12275	12276	9
12273	12272	12277	12276	9
12273	12272	12277	12281	9
12275	12282	5778	5768	9
12275	12282	5778	5780	9
12272	12273	12274	12275	9
12272	12277	12276	12275	9
12275	12276	12277	12281	9
12274	12273	12284	12285	9
12274	12273	12284	6988	9
12274	12273	12272	12277	9
12274	12273	12272	12280	9
12274	12275	12282	12283	9
12274	12275	12282	5778	9
12274	12275	12276	12277	9
12274	12275	12276	12279	9
12272	12273	12284	12285	9
12272	12273	12284	6988	9
12272	12273	12274	12278	9
12272	12277	12276	12279	9
12276	12275	12282	12283	9
12276	12275	12282	5778	9
12276	12275	12274	12278	9
12276	12277	12272	12280	9
12280	12272	12277	12281	9
12279	12276	12277	12281	9
12285	12284	6988	6978	9
12285	12284	6988	6990	9
12283	12282	5778	5768	9
12283	12282	5778	5780	9
11351	11350	11349	11360	9
11354	11350	11349	11360	9
11353	11348	11349	11360	9
11356	11348	11349	11360	9
11360	4176	4169	4170	9
11360	4176	4169	4168	9
11349	11350	11351	11358	9
11354	11350	11351	11358	9
11353	11352	11351	11358	9
11355	11352	11351	11358	9
11358	10373	10363	10366	9
11358	10373	10363	10362	9
11349	11360	4176	4169	9
11349	11360	4176	4178	9
11349	11350	11351	11352	9
11349	11348	11353	11352	9
11349	11348	11353	11357	9
11351	11358	10373	10363	9
11351	11358	10373	10375	9
11348	11349	11350	11351	9
11348	11353	11352	11351	9
11351	11352	11353	11357	9
11350	11349	11360	11361	9
11350	11349	11360	4176	9
11350	11349	11348	11353	9
11350	11349	11348	11356	9
11350	11351	11358	11359	9
11350	11351	11358	10373	9
11350	11351	11352	11353	9
11350	11351	11352	11355	9
11348	11349	11360	11361	9
11348	11349	11360	4176	9
11348	11349	11350	11354	9
11348	11353	11352	11355	9
11352	11351	11358	11359	9
11352	11351	11358	10373	9
11352	11351	11350	11354	9
11352	11353	11348	11356	9
11356	11348	11353	11357	9
11355	11352	11353	11357	9
11361	11360	4176	4169	9
11361	11360	4176	4178	9
11359	11358	10373	10363	9
11359	11358	10373	10375	9
5244	5243	5242	5253	9
5247	5243	5242	5253	9
5246	5241	5242	5253	9
5249	5241	5242	5253	9
5253	5261	5255	5256	9
5253	5261	5255	5258	9
5242	5243	5244	5251	9
5247	5243	5244	5251	9
5246	5245	5244	5251	9
5248	5245	5244	5251	9
5251	7090	7080	7083	9
5251	7090	7080	7079	9
5242	5253	5261	5255	9
5242	5253	5261	5262	9
5242	5243	5244	5245	9
5242	5241	5246	5245	9
5242	5241	5246	5250	9
5244	5251	7090	7080	9
5244	5251	7090	7092	9
5241	5242	5243	5244	9
5241	5246	5245	5244	9
5244	5245	5246	5250	9
5243	5242	5253	5254	9
5243	5242	5253	5261	9
5243	5242	5241	5246	9
5243	5242	5241	5249	9
5243	5244	5251	5252	9
5243	5244	5251	7090	9
5243	5244	5245	5246	9
5243	5244	5245	5248	9
5241	5242	5253	5254	9
5241	5242	5253	5261	9
5241	5242	5243	5247	9
5241	5246	5245	5248	9
5245	5244	5251	5252	9
5245	5244	5251	7090	9
5245	5244	5243	5247	9
5245	5246	5241	5249	9
5249	5241	5246	5250	9
5248	5245	5246	5250	9
5254	5253	5261	5255	9
5254	5253	5261	5262	9
5252	5251	7090	7080	9
5252	5251	7090	7092	9
1405	1404	1403	1414	9
1408	1404	1403	1414	9
1407	1402	1403	1414	9
1410	1402	1403	1414	9
1388	1385	1391	1414	9
1386	1385	1391	1414	9
1403	1404	1405	1412	9
1408	1404	1405	1412	9
1407	1406	1405	1412	9
1409	1406	1405	1412	9
1412	8704	8698	8701	9
1412	8704	8698	8699	9
1385	1391	1414	1403	9
1392	1391	1414	1403	9
1403	1404	1405	1406	9
1403	1402	1407	1406	9
1403	1402	1407	1411	9
1405	1412	8704	8698	9
1405	1412	8704	8705	9
1402	1403	1404	1405	9
1402	1407	1406	1405	9
1405	1406	1407	1411	9
1404	1403	1414	1415	9
1391	1414	1403	1404	9
1404	1403	1402	1407	9
1404	1403	1402	1410	9
1404	1405	1412	1413	9
1404	1405	1412	8704	9
1404	1405	1406	1407	9
1404	1405	1406	1409	9
1402	1403	1414	1415	9
1391	1414	1403	1402	9
1402	1403	1404	1408	9
1402	1407	1406	1409	9
1406	1405	1412	1413	9
1406	1405	1412	8704	9
1406	1405	1404	1408	9
1406	1407	1402	1410	9
1410	1402	1407	1411	9
1409	1406	1407	1411	9
1385	1391	1414	1415	9
1392	1391	1414	1415	9
1413	1412	8704	8698	9
1413	1412	8704	8705	9
12597	12596	12595	12606	9
12600	12596	12595	12606	9
12599	12594	12595	12606	9
12602	12594	12595	12606	9
12606	6784	6774	6773	9
12606	6784	6774	6777	9
12595	12596	12597	12604	9
12600	12596	12597	12604	9
12599	12598	12597	12604	9
12601	12598	12597	12604	9
12604	6362	6352	6355	9
12604	6362	6352	6351	9
12595	12606	6784	6774	9
12595	12606	6784	6786	9
12595	12596	12597	12598	9
12595	12594	12599	12598	9
12595	12594	12599	12603	9
12597	12604	6362	6352	9
12597	12604	6362	6364	9
12594	12595	12596	12597	9
12594	12599	12598	12597	9
12597	12598	12599	12603	9
12596	12595	12606	12607	9
12596	12595	12606	6784	9
12596	12595	12594	12599	9
12596	12595	12594	12602	9
12596	12597	12604	12605	9
12596	12597	12604	6362	9
12596	12597	12598	12599	9
12596	12597	12598	12601	9
12594	12595	12606	12607	9
12594	12595	12606	6784	9
12594	12595	12596	12600	9
12594	12599	12598	12601	9
12598	12597	12604	12605	9
12598	12597	12604	6362	9
12598	12597	12596	12600	9
12598	12599	12594	12602	9
12602	12594	12599	12603	9
12601	12598	12599	12603	9
12607	12606	6784	6774	9
12607	12606	6784	6786	9
12605	12604	6362	6352	9
12605	12604	6362	6364	9
11841	11840	11839	11850	9
11844	11840	11839	11850	9
11843	11838	11839	11850	9
11846	11838	11839	11850	9
11850	8666	8656	8659	9
11850	8666	8656	8655	9
11839	11840	11841	11848	9
11844	11840	11841	11848	9
11843	11842	11841	11848	9
11845	11842	11841	11848	9
11848	5035	5025	5024	9
11848	5035	5025	5028	9
11839	11850	8666	8656	9
11839	11850	8666	8668	9
11839	11840	11841	11842	9
11839	11838	11843	11842	9
11839	11838	11843	11847	9
11841	11848	5035	5025	9
11841	11848	5035	5037	9
11838	11839	11840	11841	9
11838	11843	11842	11841	9
11841	11842	11843	11847	9
11840	11839	11850	11851	9
11840	11839	11850	8666	9
11840	11839	11838	11843	9
11840	11839	11838	11846	9
11840	11841	11848	11849	9
11840	11841	11848	5035	9
11840	11841	11842	11843	9
11840	11841	11842	11845	9
11838	11839	11850	11851	9
11838	11839	11850	8666	9
11838	11839	11840	11844	9
11838	11843	11842	11845	9
11842	11841	11848	11849	9
11842	11841	11848	5035	9
11842	11841	11840	11844	9
11842	11843	11838	11846	9
11846	11838	11843	11847	9
11845	11842	11843	11847	9
11851	11850	8666	8656	9
11851	11850	8666	8668	9
11849	11848	5035	5025	9
11849	11848	5035	5037	9
4866	4865	4864	4875	9
4869	4865	4864	4875	9
4868	4863	4864	4875	9
4871	4863	4864	4875	9
371	370	372	4875	9
369	370	372	4875	9
4864	4865	4866	4873	9
4869	4865	4866	4873	9
4868	4867	4866	4873	9
4870	4867	4866	4873	9
4873	4883	4877	4880	9
4873	4883	4877	4878	9
370	372	4875	4864	9
373	372	4875	4864	9
4864	4865	4866	4867	9
4864	4863	4868	4867	9
4864	4863	4868	4872	9
4866	4873	4883	4877	9
4866	4873	4883	4884	9
4863	4864	4865	4866	9
4863	4868	4867	4866	9
4866	4867	4868	4872	9
4865	4864	4875	4876	9
372	4875	4864	4865	9
4865	4864	4863	4868	9
4865	4864	4863	4871	9
4865	4866	4873	4874	9
4865	4866	4873	4883	9
4865	4866	4867	4868	9
4865	4866	4867	4870	9
4863	4864	4875	4876	9
372	4875	4864	4863	9
4863	4864	4865	4869	9
4863	4868	4867	4870	9
4867	4866	4873	4874	9
4867	4866	4873	4883	9
4867	4866	4865	4869	9
4867	4868	4863	4871	9
4871	4863	4868	4872	9
4870	4867	4868	4872	9
370	372	4875	4876	9
373	372	4875	4876	9
4874	4873	4883	4877	9
4874	4873	4883	4884	9
5914	5915	5916	5923	9
5919	5915	5916	5923	9
5918	5917	5916	5923	9
5920	5917	5916	5923	9
5923	7977	7970	7969	9
5923	7977	7970	7971	9
5916	5915	5914	5925	9
5919	5915	5914	5925	9
5918	5913	5914	5925	9
5921	5913	5914	5925	9
5925	5933	5927	5930	9
5925	5933	5927	5928	9
5916	5923	7977	7970	9
5916	5923	7977	7979	9
5913	5914	5915	5916	9
5913	5918	5917	5916	9
5916	5917	5918	5922	9
5914	5925	5933	5927	9
5914	5925	5933	5934	9
5914	5915	5916	5917	9
5914	5913	5918	5917	9
5914	5913	5918	5922	9
5915	5916	5923	5924	9
5915	5916	5923	7977	9
5915	5916	5917	5918	9
5915	5916	5917	5920	9
5915	5914	5925	5926	9
5915	5914	5925	5933	9
5915	5914	5913	5918	9
5915	5914	5913	5921	9
5917	5916	5923	5924	9
5917	5916	5923	7977	9
5917	5916	5915	5919	9
5917	5918	5913	5921	9
5913	5914	5925	5926	9
5913	5914	5925	5933	9
5913	5914	5915	5919	9
5913	5918	5917	5920	9
5920	5917	5918	5922	9
5921	5913	5918	5922	9
5924	5923	7977	7970	9
5924	5923	7977	7979	9
5926	5925	5933	5927	9
5926	5925	5933	5934	9
11337	11336	11335	11346	9
11340	11336	11335	11346	9
11339	11334	11335	11346	9
11342	11334	11335	11346	9
11346	4917	4910	4911	9
11346	4917	4910	4909	9
11335	11336	11337	11344	9
11340	11336	11337	11344	9
11339	11338	11337	11344	9
11341	11338	11337	11344	9
11344	4148	4138	4137	9
11344	4148	4138	4141	9
11335	11346	4917	4910	9
11335	11346	4917	4919	9
11335	11336	11337	11338	9
11335	11334	11339	11338	9
11335	11334	11339	11343	9
11337	11344	4148	4138	9
11337	11344	4148	4150	9
11334	11335	11336	11337	9
11334	11339	11338	11337	9
11337	11338	11339	11343	9
11336	11335	11346	11347	9
11336	11335	11346	4917	9
11336	11335	11334	11339	9
11336	11335	11334	11342	9
11336	11337	11344	11345	9
11336	11337	11344	4148	9
11336	11337	11338	11339	9
11336	11337	11338	11341	9
11334	11335	11346	11347	9
11334	11335	11346	4917	9
11334	11335	11336	11340	9
11334	11339	11338	11341	9
11338	11337	11344	11345	9
11338	11337	11344	4148	9
11338	11337	11336	11340	9
11338	11339	11334	11342	9
11342	11334	11339	11343	9
11341	11338	11339	11343	9
11347	11346	4917	4910	9
11347	11346	4917	4919	9
11345	11344	4148	4138	9
11345	11344	4148	4150	9
12191	12190	12189	12200	9
12194	12190	12189	12200	9
12193	12188	12189	12200	9
12196	12188	12189	12200	9
1694	1693	1700	12200	9
1692	1693	1700	12200	9
12189	12190	12191	12198	9
12194	12190	12191	12198	9
12193	12192	12191	12198	9
12195	12192	12191	12198	9
12198	5655	5649	5652	9
12198	5655	5649	5650	9
1693	1700	12200	12189	9
1702	1700	12200	12189	9
12189	12190	12191	12192	9
12189	12188	12193	12192	9
12189	12188	12193	12197	9
12191	12198	5655	5649	9
12191	12198	5655	5656	9
12188	12189	12190	12191	9
12188	12193	12192	12191	9
12191	12192	12193	12197	9
12190	12189	12200	12201	9
1700	12200	12189	12190	9
12190	12189	12188	12193	9
12190	12189	12188	12196	9
12190	12191	12198	12199	9
12190	12191	12198	5655	9
12190	12191	12192	12193	9
12190	12191	12192	12195	9
12188	12189	12200	12201	9
1700	12200	12189	12188	9
12188	12189	12190	12194	9
12188	12193	12192	12195	9
12192	12191	12198	12199	9
12192	12191	12198	5655	9
12192	12191	12190	12194	9
12192	12193	12188	12196	9
12196	12188	12193	12197	9
12195	12192	12193	12197	9
1693	1700	12200	12201	9
1702	1700	12200	12201	9
12199	12198	5655	5649	9
12199	12198	5655	5656	9
10613	10612	10611	10622	9
10616	10612	10611	10622	9
10615	10610	10611	10622	9
10618	10610	10611	10622	9
10622	10630	10624	10625	9
10622	10630	10624	10627	9
10611	10612	10613	10620	9
10616	10612	10613	10620	9
10615	10614	10613	10620	9
10617	10614	10613	10620	9
10620	10841	10831	10834	9
10620	10841	10831	10830	9
10611	10622	10630	10624	9
10611	10622	10630	10631	9
10611	10612	10613	10614	9
10611	10610	10615	10614	9
10611	10610	10615	10619	9
10613	10620	10841	10831	9
10613	10620	10841	10843	9
10610	10611	10612	10613	9
10610	10615	10614	10613	9
10613	10614	10615	10619	9
10612	10611	10622	10623	9
10612	10611	10622	10630	9
10612	10611	10610	10615	9
10612	10611	10610	10618	9
10612	10613	10620	10621	9
10612	10613	10620	10841	9
10612	10613	10614	10615	9
10612	10613	10614	10617	9
10610	10611	10622	10623	9
10610	10611	10622	10630	9
10610	10611	10612	10616	9
10610	10615	10614	10617	9
10614	10613	10620	10621	9
10614	10613	10620	10841	9
10614	10613	10612	10616	9
10614	10615	10610	10618	9
10618	10610	10615	10619	9
10617	10614	10615	10619	9
10623	10622	10630	10624	9
10623	10622	10630	10631	9
10621	10620	10841	10831	9
10621	10620	10841	10843	9
3536	3535	3534	3545	9
3539	3535	3534	3545	9
3538	3533	3534	3545	9
3541	3533	3534	3545	9
3534	3535	3536	3543	9
3539	3535	3536	3543	9
3538	3537	3536	3543	9
3540	3537	3536	3543	9
3543	10460	10453	10452	9
3543	10460	10453	10454	9
3534	3535	3536	3537	9
3534	3533	3538	3537	9
3534	3533	3538	3542	9
3536	3543	10460	10453	9
3536	3543	10460	10462	9
3533	3534	3535	3536	9
3533	3538	3537	3536	9
3536	3537	3538	3542	9
3535	3534	3545	3546	9
3535	3534	3545	3547	9
3535	3534	3533	3538	9
3535	3534	3533	3541	9
3535	3536	3543	3544	9
3535	3536	3543	10460	9
3535	3536	3537	3538	9
3535	3536	3537	3540	9
3533	3534	3545	3546	9
3533	3534	3545	3547	9
3533	3534	3535	3539	9
3533	3538	3537	3540	9
3537	3536	3543	3544	9
3537	3536	3543	10460	9
3537	3536	3535	3539	9
3537	3538	3533	3541	9
3541	3533	3538	3542	9
3540	3537	3538	3542	9
3544	3543	10460	10453	9
3544	3543	10460	10462	9
475	474	473	484	9
478	474	473	484	9
477	472	473	484	9
480	472	473	484	9
484	9901	9895	9898	9
484	9901	9895	9896	9
473	474	475	482	9
478	474	475	482	9
477	476	475	482	9
479	476	475	482	9
489	488	486	482	9
493	488	486	482	9
473	484	9901	9895	9
473	484	9901	9902	9
473	474	475	476	9
473	472	477	476	9
473	472	477	481	9
488	486	482	475	9
487	486	482	475	9
472	473	474	475	9
472	477	476	475	9
475	476	477	481	9
474	473	484	485	9
474	473	484	9901	9
474	473	472	477	9
474	473	472	480	9
474	475	482	483	9
486	482	475	474	9
474	475	476	477	9
474	475	476	479	9
472	473	484	485	9
472	473	484	9901	9
472	473	474	478	9
472	477	476	479	9
476	475	482	483	9
486	482	475	476	9
476	475	474	478	9
476	477	472	480	9
480	472	477	481	9
479	476	477	481	9
485	484	9901	9895	9
485	484	9901	9902	9
488	486	482	483	9
487	486	482	483	9
7737	7736	7735	7746	9
7740	7736	7735	7746	9
7739	7734	7735	7746	9
7742	7734	7735	7746	9
7746	5034	5027	5028	9
7746	5034	5027	5026	9
7735	7736	7737	7744	9
7740	7736	7737	7744	9
7739	7738	7737	7744	9
7741	7738	7737	7744	9
7744	7754	7748	7749	9
7744	7754	7748	7751	9
7735	7746	5034	5027	9
7735	7746	5034	5036	9
7735	7736	7737	7738	9
7735	7734	7739	7738	9
7735	7734	7739	7743	9
7737	7744	7754	7748	9
7737	7744	7754	7755	9
7734	7735	7736	7737	9
7734	7739	7738	7737	9
7737	7738	7739	7743	9
7736	7735	7746	7747	9
7736	7735	7746	5034	9
7736	7735	7734	7739	9
7736	7735	7734	7742	9
7736	7737	7744	7745	9
7736	7737	7744	7754	9
7736	7737	7738	7739	9
7736	7737	7738	7741	9
7734	7735	7746	7747	9
7734	7735	7746	5034	9
7734	7735	7736	7740	9
7734	7739	7738	7741	9
7738	7737	7744	7745	9
7738	7737	7744	7754	9
7738	7737	7736	7740	9
7738	7739	7734	7742	9
7742	7734	7739	7743	9
7741	7738	7739	7743	9
7747	7746	5034	5027	9
7747	7746	5034	5036	9
7745	7744	7754	7748	9
7745	7744	7754	7755	9
11869	11868	11867	11878	9
11872	11868	11867	11878	9
11871	11866	11867	11878	9
11874	11866	11867	11878	9
11878	5092	5085	5086	9
11878	5092	5085	5084	9
11867	11868	11869	11876	9
11872	11868	11869	11876	9
11871	11870	11869	11876	9
11873	11870	11869	11876	9
11876	9994	9984	9987	9
11876	9994	9984	9983	9
11867	11878	5092	5085	9
11867	11878	5092	5094	9
11867	11868	11869	11870	9
11867	11866	11871	11870	9
11867	11866	11871	11875	9
11869	11876	9994	9984	9
11869	11876	9994	9996	9
11866	11867	11868	11869	9
11866	11871	11870	11869	9
11869	11870	11871	11875	9
11868	11867	11878	11879	9
11868	11867	11878	5092	9
11868	11867	11866	11871	9
11868	11867	11866	11874	9
11868	11869	11876	11877	9
11868	11869	11876	9994	9
11868	11869	11870	11871	9
11868	11869	11870	11873	9
11866	11867	11878	11879	9
11866	11867	11878	5092	9
11866	11867	11868	11872	9
11866	11871	11870	11873	9
11870	11869	11876	11877	9
11870	11869	11876	9994	9
11870	11869	11868	11872	9
11870	11871	11866	11874	9
11874	11866	11871	11875	9
11873	11870	11871	11875	9
11879	11878	5092	5085	9
11879	11878	5092	5094	9
11877	11876	9994	9984	9
11877	11876	9994	9996	9
214	213	212	223	9
217	213	212	223	9
216	211	212	223	9
219	211	212	223	9
199	200	202	223	9
201	200	202	223	9
212	213	214	221	9
217	213	214	221	9
216	215	214	221	9
218	215	214	221	9
221	8324	8318	8321	9
221	8324	8318	8319	9
200	202	223	212	9
203	202	223	212	9
212	213	214	215	9
212	211	216	215	9
212	211	216	220	9
214	221	8324	8318	9
214	221	8324	8325	9
211	212	213	214	9
211	216	215	214	9
214	215	216	220	9
213	212	223	224	9
202	223	212	213	9
213	212	211	216	9
213	212	211	219	9
213	214	221	222	9
213	214	221	8324	9
213	214	215	216	9
213	214	215	218	9
211	212	223	224	9
202	223	212	211	9
211	212	213	217	9
211	216	215	218	9
215	214	221	222	9
215	214	221	8324	9
215	214	213	217	9
215	216	211	219	9
219	211	216	220	9
218	215	216	220	9
200	202	223	224	9
203	202	223	224	9
222	221	8324	8318	9
222	221	8324	8325	9
10555	10554	10553	10564	9
10558	10554	10553	10564	9
10557	10552	10553	10564	9
10560	10552	10553	10564	9
10564	10572	10566	10567	9
10564	10572	10566	10569	9
10553	10554	10555	10562	9
10558	10554	10555	10562	9
10557	10556	10555	10562	9
10559	10556	10555	10562	9
10562	7876	7866	7865	9
10562	7876	7866	7869	9
10553	10564	10572	10566	9
10553	10564	10572	10573	9
10553	10554	10555	10556	9
10553	10552	10557	10556	9
10553	10552	10557	10561	9
10555	10562	7876	7866	9
10555	10562	7876	7878	9
10552	10553	10554	10555	9
10552	10557	10556	10555	9
10555	10556	10557	10561	9
10554	10553	10564	10565	9
10554	10553	10564	10572	9
10554	10553	10552	10557	9
10554	10553	10552	10560	9
10554	10555	10562	10563	9
10554	10555	10562	7876	9
10554	10555	10556	10557	9
10554	10555	10556	10559	9
10552	10553	10564	10565	9
10552	10553	10564	10572	9
10552	10553	10554	10558	9
10552	10557	10556	10559	9
10556	10555	10562	10563	9
10556	10555	10562	7876	9
10556	10555	10554	10558	9
10556	10557	10552	10560	9
10560	10552	10557	10561	9
10559	10556	10557	10561	9
10565	10564	10572	10566	9
10565	10564	10572	10573	9
10563	10562	7876	7866	9
10563	10562	7876	7878	9
22	21	20	31	9
25	21	20	31	9
24	19	20	31	9
27	19	20	31	9
31	3973	3966	3965	9
31	3973	3966	3967	9
20	21	22	29	9
25	21	22	29	9
24	23	22	29	9
26	23	22	29	9
9	8	10	29	9
7	8	10	29	9
20	31	3973	3966	9
20	31	3973	3975	9
20	21	22	23	9
20	19	24	23	9
20	19	24	28	9
8	10	29	22	9
11	10	29	22	9
19	20	21	22	9
19	24	23	22	9
22	23	24	28	9
21	20	31	32	9
21	20	31	3973	9
21	20	19	24	9
21	20	19	27	9
21	22	29	30	9
10	29	22	21	9
21	22	23	24	9
21	22	23	26	9
19	20	31	32	9
19	20	31	3973	9
19	20	21	25	9
19	24	23	26	9
23	22	29	30	9
10	29	22	23	9
23	22	21	25	9
23	24	19	27	9
27	19	24	28	9
26	23	24	28	9
32	31	3973	3966	9
32	31	3973	3975	9
8	10	29	30	9
11	10	29	30	9
2709	2710	2711	2718	9
2714	2710	2711	2718	9
2713	2712	2711	2718	9
2715	2712	2711	2718	9
2718	5029	5023	5024	9
2718	5029	5023	5026	9
2711	2710	2709	2720	9
2714	2710	2709	2720	9
2713	2708	2709	2720	9
2716	2708	2709	2720	9
2711	2718	5029	5023	9
2711	2718	5029	5030	9
2708	2709	2710	2711	9
2708	2713	2712	2711	9
2711	2712	2713	2717	9
2709	2710	2711	2712	9
2709	2708	2713	2712	9
2709	2708	2713	2717	9
2710	2711	2718	2719	9
2710	2711	2718	5029	9
2710	2711	2712	2713	9
2710	2711	2712	2715	9
2710	2709	2720	2721	9
2710	2709	2720	2722	9
2710	2709	2708	2713	9
2710	2709	2708	2716	9
2712	2711	2718	2719	9
2712	2711	2718	5029	9
2712	2711	2710	2714	9
2712	2713	2708	2716	9
2708	2709	2720	2721	9
2708	2709	2720	2722	9
2708	2709	2710	2714	9
2708	2713	2712	2715	9
2715	2712	2713	2717	9
2716	2708	2713	2717	9
2719	2718	5029	5023	9
2719	2718	5029	5030	9
2163	2164	2165	2172	9
2168	2164	2165	2172	9
2167	2166	2165	2172	9
2169	2166	2165	2172	9
2179	2178	2176	2172	9
2183	2178	2176	2172	9
2165	2164	2163	2174	9
2168	2164	2163	2174	9
2167	2162	2163	2174	9
2170	2162	2163	2174	9
2174	8383	8377	8378	9
2174	8383	8377	8380	9
2178	2176	2172	2165	9
2177	2176	2172	2165	9
2162	2163	2164	2165	9
2162	2167	2166	2165	9
2165	2166	2167	2171	9
2163	2174	8383	8377	9
2163	2174	8383	8384	9
2163	2164	2165	2166	9
2163	2162	2167	2166	9
2163	2162	2167	2171	9
2164	2165	2172	2173	9
2176	2172	2165	2164	9
2164	2165	2166	2167	9
2164	2165	2166	2169	9
2164	2163	2174	2175	9
2164	2163	2174	8383	9
2164	2163	2162	2167	9
2164	2163	2162	2170	9
2166	2165	2172	2173	9
2176	2172	2165	2166	9
2166	2165	2164	2168	9
2166	2167	2162	2170	9
2162	2163	2174	2175	9
2162	2163	2174	8383	9
2162	2163	2164	2168	9
2162	2167	2166	2169	9
2169	2166	2167	2171	9
2170	2162	2167	2171	9
2178	2176	2172	2173	9
2177	2176	2172	2173	9
2175	2174	8383	8377	9
2175	2174	8383	8384	9
13689	13688	13687	13698	9
13692	13688	13687	13698	9
13691	13686	13687	13698	9
13694	13686	13687	13698	9
13698	10840	10833	10832	9
13698	10840	10833	10834	9
13687	13688	13689	13696	9
13692	13688	13689	13696	9
13691	13690	13689	13696	9
13693	13690	13689	13696	9
13696	10636	10626	10625	9
13696	10636	10626	10629	9
13687	13698	10840	10833	9
13687	13698	10840	10842	9
13687	13688	13689	13690	9
13687	13686	13691	13690	9
13687	13686	13691	13695	9
13689	13696	10636	10626	9
13689	13696	10636	10638	9
13686	13687	13688	13689	9
13686	13691	13690	13689	9
13689	13690	13691	13695	9
13688	13687	13698	13699	9
13688	13687	13698	10840	9
13688	13687	13686	13691	9
13688	13687	13686	13694	9
13688	13689	13696	13697	9
13688	13689	13696	10636	9
13688	13689	13690	13691	9
13688	13689	13690	13693	9
13686	13687	13698	13699	9
13686	13687	13698	10840	9
13686	13687	13688	13692	9
13686	13691	13690	13693	9
13690	13689	13696	13697	9
13690	13689	13696	10636	9
13690	13689	13688	13692	9
13690	13691	13686	13694	9
13694	13686	13691	13695	9
13693	13690	13691	13695	9
13699	13698	10840	10833	9
13699	13698	10840	10842	9
13697	13696	10636	10626	9
13697	13696	10636	10638	9
7198	7197	7196	7207	9
7201	7197	7196	7207	9
7200	7195	7196	7207	9
7203	7195	7196	7207	9
7207	6842	6832	6835	9
7207	6842	6832	6831	9
7196	7197	7198	7205	9
7201	7197	7198	7205	9
7200	7199	7198	7205	9
7202	7199	7198	7205	9
7205	7215	7209	7210	9
7205	7215	7209	7212	9
7196	7207	6842	6832	9
7196	7207	6842	6844	9
7196	7197	7198	7199	9
7196	7195	7200	7199	9
7196	7195	7200	7204	9
7198	7205	7215	7209	9
7198	7205	7215	7216	9
7195	7196	7197	7198	9
7195	7200	7199	7198	9
7198	7199	7200	7204	9
7197	7196	7207	7208	9
7197	7196	7207	6842	9
7197	7196	7195	7200	9
7197	7196	7195	7203	9
7197	7198	7205	7206	9
7197	7198	7205	7215	9
7197	7198	7199	7200	9
7197	7198	7199	7202	9
7195	7196	7207	7208	9
7195	7196	7207	6842	9
7195	7196	7197	7201	9
7195	7200	7199	7202	9
7199	7198	7205	7206	9
7199	7198	7205	7215	9
7199	7198	7197	7201	9
7199	7200	7195	7203	9
7203	7195	7200	7204	9
7202	7199	7200	7204	9
7208	7207	6842	6832	9
7208	7207	6842	6844	9
7206	7205	7215	7209	9
7206	7205	7215	7216	9
4067	4066	4065	4076	9
4070	4066	4065	4076	9
4069	4064	4065	4076	9
4072	4064	4065	4076	9
4076	4084	4078	4079	9
4076	4084	4078	4081	9
4065	4066	4067	4074	9
4070	4066	4067	4074	9
4069	4068	4067	4074	9
4071	4068	4067	4074	9
4074	5553	5547	5550	9
4074	5553	5547	5548	9
4065	4076	4084	4078	9
4065	4076	4084	4085	9
4065	4066	4067	4068	9
4065	4064	4069	4068	9
4065	4064	4069	4073	9
4067	4074	5553	5547	9
4067	4074	5553	5554	9
4064	4065	4066	4067	9
4064	4069	4068	4067	9
4067	4068	4069	4073	9
4066	4065	4076	4077	9
4066	4065	4076	4084	9
4066	4065	4064	4069	9
4066	4065	4064	4072	9
4066	4067	4074	4075	9
4066	4067	4074	5553	9
4066	4067	4068	4069	9
4066	4067	4068	4071	9
4064	4065	4076	4077	9
4064	4065	4076	4084	9
4064	4065	4066	4070	9
4064	4069	4068	4071	9
4068	4067	4074	4075	9
4068	4067	4074	5553	9
4068	4067	4066	4070	9
4068	4069	4064	4072	9
4072	4064	4069	4073	9
4071	4068	4069	4073	9
4077	4076	4084	4078	9
4077	4076	4084	4085	9
4075	4074	5553	5547	9
4075	4074	5553	5554	9
6076	6075	6074	6085	9
6079	6075	6074	6085	9
6078	6073	6074	6085	9
6081	6073	6074	6085	9
6085	6093	6087	6090	9
6085	6093	6087	6088	9
6074	6075	6076	6083	9
6079	6075	6076	6083	9
6078	6077	6076	6083	9
6080	6077	6076	6083	9
6083	6871	6861	6860	9
6083	6871	6861	6864	9
6074	6085	6093	6087	9
6074	6085	6093	6094	9
6074	6075	6076	6077	9
6074	6073	6078	6077	9
6074	6073	6078	6082	9
6076	6083	6871	6861	9
6076	6083	6871	6873	9
6073	6074	6075	6076	9
6073	6078	6077	6076	9
6076	6077	6078	6082	9
6075	6074	6085	6086	9
6075	6074	6085	6093	9
6075	6074	6073	6078	9
6075	6074	6073	6081	9
6075	6076	6083	6084	9
6075	6076	6083	6871	9
6075	6076	6077	6078	9
6075	6076	6077	6080	9
6073	6074	6085	6086	9
6073	6074	6085	6093	9
6073	6074	6075	6079	9
6073	6078	6077	6080	9
6077	6076	6083	6084	9
6077	6076	6083	6871	9
6077	6076	6075	6079	9
6077	6078	6073	6081	9
6081	6073	6078	6082	9
6080	6077	6078	6082	9
6086	6085	6093	6087	9
6086	6085	6093	6094	9
6084	6083	6871	6861	9
6084	6083	6871	6873	9
4254	4255	4256	4263	9
4259	4255	4256	4263	9
4258	4257	4256	4263	9
4260	4257	4256	4263	9
1040	1039	1041	4263	9
1038	1039	1041	4263	9
4256	4255	4254	4265	9
4259	4255	4254	4265	9
4258	4253	4254	4265	9
4261	4253	4254	4265	9
4265	4273	4267	4270	9
4265	4273	4267	4268	9
1039	1041	4263	4256	9
1042	1041	4263	4256	9
4253	4254	4255	4256	9
4253	4258	4257	4256	9
4256	4257	4258	4262	9
4254	4265	4273	4267	9
4254	4265	4273	4274	9
4254	4255	4256	4257	9
4254	4253	4258	4257	9
4254	4253	4258	4262	9
4255	4256	4263	4264	9
1041	4263	4256	4255	9
4255	4256	4257	4258	9
4255	4256	4257	4260	9
4255	4254	4265	4266	9
4255	4254	4265	4273	9
4255	4254	4253	4258	9
4255	4254	4253	4261	9
4257	4256	4263	4264	9
1041	4263	4256	4257	9
4257	4256	4255	4259	9
4257	4258	4253	4261	9
4253	4254	4265	4266	9
4253	4254	4265	4273	9
4253	4254	4255	4259	9
4253	4258	4257	4260	9
4260	4257	4258	4262	9
4261	4253	4258	4262	9
1039	1041	4263	4264	9
1042	1041	4263	4264	9
4266	4265	4273	4267	9
4266	4265	4273	4274	9
13253	13254	13255	13262	9
13258	13254	13255	13262	9
13257	13256	13255	13262	9
13259	13256	13255	13262	9
13262	9192	9182	9185	9
13262	9192	9182	9181	9
13255	13254	13253	13264	9
13258	13254	13253	13264	9
13257	13252	13253	13264	9
13260	13252	13253	13264	9
13264	8212	8202	8201	9
13264	8212	8202	8205	9
13255	13262	9192	9182	9
13255	13262	9192	9194	9
13252	13253	13254	13255	9
13252	13257	13256	13255	9
13255	13256	13257	13261	9
13253	13264	8212	8202	9
13253	13264	8212	8214	9
13253	13254	13255	13256	9
13253	13252	13257	13256	9
13253	13252	13257	13261	9
13254	13255	13262	13263	9
13254	13255	13262	9192	9
13254	13255	13256	13257	9
13254	13255	13256	13259	9
13254	13253	13264	13265	9
13254	13253	13264	8212	9
13254	13253	13252	13257	9
13254	13253	13252	13260	9
13256	13255	13262	13263	9
13256	13255	13262	9192	9
13256	13255	13254	13258	9
13256	13257	13252	13260	9
13252	13253	13264	13265	9
13252	13253	13264	8212	9
13252	13253	13254	13258	9
13252	13257	13256	13259	9
13259	13256	13257	13261	9
13260	13252	13257	13261	9
13263	13262	9192	9182	9
13263	13262	9192	9194	9
13265	13264	8212	8202	9
13265	13264	8212	8214	9
7038	7037	7036	7047	9
7041	7037	7036	7047	9
7040	7035	7036	7047	9
7043	7035	7036	7047	9
7047	11135	11125	11128	9
7047	11135	11125	11124	9
7036	7037	7038	7045	9
7041	7037	7038	7045	9
7040	7039	7038	7045	9
7042	7039	7038	7045	9
7045	7055	7049	7050	9
7045	7055	7049	7052	9
7036	7047	11135	11125	9
7036	7047	11135	11137	9
7036	7037	7038	7039	9
7036	7035	7040	7039	9
7036	7035	7040	7044	9
7038	7045	7055	7049	9
7038	7045	7055	7056	9
7035	7036	7037	7038	9
7035	7040	7039	7038	9
7038	7039	7040	7044	9
7037	7036	7047	7048	9
7037	7036	7047	11135	9
7037	7036	7035	7040	9
7037	7036	7035	7043	9
7037	7038	7045	7046	9
7037	7038	7045	7055	9
7037	7038	7039	7040	9
7037	7038	7039	7042	9
7035	7036	7047	7048	9
7035	7036	7047	11135	9
7035	7036	7037	7041	9
7035	7040	7039	7042	9
7039	7038	7045	7046	9
7039	7038	7045	7055	9
7039	7038	7037	7041	9
7039	7040	7035	7043	9
7043	7035	7040	7044	9
7042	7039	7040	7044	9
7048	7047	11135	11125	9
7048	7047	11135	11137	9
7046	7045	7055	7049	9
7046	7045	7055	7056	9
4125	4124	4123	4134	9
4128	4124	4123	4134	9
4127	4122	4123	4134	9
4130	4122	4123	4134	9
4134	5397	5390	5389	9
4134	5397	5390	5391	9
4123	4124	4125	4132	9
4128	4124	4125	4132	9
4127	4126	4125	4132	9
4129	4126	4125	4132	9
4132	4142	4136	4137	9
4132	4142	4136	4139	9
4123	4134	5397	5390	9
4123	4134	5397	5399	9
4123	4124	4125	4126	9
4123	4122	4127	4126	9
4123	4122	4127	4131	9
4125	4132	4142	4136	9
4125	4132	4142	4143	9
4122	4123	4124	4125	9
4122	4127	4126	4125	9
4125	4126	4127	4131	9
4124	4123	4134	4135	9
4124	4123	4134	5397	9
4124	4123	4122	4127	9
4124	4123	4122	4130	9
4124	4125	4132	4133	9
4124	4125	4132	4142	9
4124	4125	4126	4127	9
4124	4125	4126	4129	9
4122	4123	4134	4135	9
4122	4123	4134	5397	9
4122	4123	4124	4128	9
4122	4127	4126	4129	9
4126	4125	4132	4133	9
4126	4125	4132	4142	9
4126	4125	4124	4128	9
4126	4127	4122	4130	9
4130	4122	4127	4131	9
4129	4126	4127	4131	9
4135	4134	5397	5390	9
4135	4134	5397	5399	9
4133	4132	4142	4136	9
4133	4132	4142	4143	9
3549	3550	3551	3558	9
3554	3550	3551	3558	9
3553	3552	3551	3558	9
3555	3552	3551	3558	9
3558	10606	10599	10598	9
3558	10606	10599	10600	9
3551	3550	3549	3560	9
3554	3550	3549	3560	9
3553	3548	3549	3560	9
3556	3548	3549	3560	9
3551	3558	10606	10599	9
3551	3558	10606	10608	9
3548	3549	3550	3551	9
3548	3553	3552	3551	9
3551	3552	3553	3557	9
3549	3550	3551	3552	9
3549	3548	3553	3552	9
3549	3548	3553	3557	9
3550	3551	3558	3559	9
3550	3551	3558	10606	9
3550	3551	3552	3553	9
3550	3551	3552	3555	9
3550	3549	3560	3561	9
3550	3549	3560	3562	9
3550	3549	3548	3553	9
3550	3549	3548	3556	9
3552	3551	3558	3559	9
3552	3551	3558	10606	9
3552	3551	3550	3554	9
3552	3553	3548	3556	9
3548	3549	3560	3561	9
3548	3549	3560	3562	9
3548	3549	3550	3554	9
3548	3553	3552	3555	9
3555	3552	3553	3557	9
3556	3548	3553	3557	9
3559	3558	10606	10599	9
3559	3558	10606	10608	9
3309	3310	3311	3318	9
3314	3310	3311	3318	9
3313	3312	3311	3318	9
3315	3312	3311	3318	9
3318	9041	9035	9036	9
3318	9041	9035	9038	9
3311	3310	3309	3320	9
3314	3310	3309	3320	9
3313	3308	3309	3320	9
3316	3308	3309	3320	9
3311	3318	9041	9035	9
3311	3318	9041	9042	9
3308	3309	3310	3311	9
3308	3313	3312	3311	9
3311	3312	3313	3317	9
3309	3310	3311	3312	9
3309	3308	3313	3312	9
3309	3308	3313	3317	9
3310	3311	3318	3319	9
3310	3311	3318	9041	9
3310	3311	3312	3313	9
3310	3311	3312	3315	9
3310	3309	3320	3321	9
3310	3309	3320	3322	9
3310	3309	3308	3313	9
3310	3309	3308	3316	9
3312	3311	3318	3319	9
3312	3311	3318	9041	9
3312	3311	3310	3314	9
3312	3313	3308	3316	9
3308	3309	3320	3321	9
3308	3309	3320	3322	9
3308	3309	3310	3314	9
3308	3313	3312	3315	9
3315	3312	3313	3317	9
3316	3308	3313	3317	9
3319	3318	9041	9035	9
3319	3318	9041	9042	9
7546	7547	7548	7555	9
7551	7547	7548	7555	9
7550	7549	7548	7555	9
7552	7549	7548	7555	9
7555	7570	7563	7564	9
7555	7570	7563	7562	9
7548	7547	7546	7557	9
7551	7547	7546	7557	9
7550	7545	7546	7557	9
7553	7545	7546	7557	9
7557	5631	5624	5623	9
7557	5631	5624	5625	9
7548	7555	7570	7563	9
7548	7555	7570	7572	9
7548	7547	7546	7545	9
7548	7549	7550	7545	9
7548	7549	7550	7554	9
7546	7557	5631	5624	9
7546	7557	5631	5633	9
7549	7548	7547	7546	9
7549	7550	7545	7546	9
7546	7545	7550	7554	9
7547	7548	7555	7556	9
7547	7548	7555	7570	9
7547	7548	7549	7550	9
7547	7548	7549	7552	9
7547	7546	7557	7558	9
7547	7546	7557	5631	9
7547	7546	7545	7550	9
7547	7546	7545	7553	9
7549	7548	7555	7556	9
7549	7548	7555	7570	9
7549	7548	7547	7551	9
7549	7550	7545	7553	9
7545	7546	7557	7558	9
7545	7546	7557	5631	9
7545	7546	7547	7551	9
7545	7550	7549	7552	9
7552	7549	7550	7554	9
7553	7545	7550	7554	9
7556	7555	7570	7563	9
7556	7555	7570	7572	9
7558	7557	5631	5624	9
7558	7557	5631	5633	9
10423	10422	10421	10432	9
10426	10422	10421	10432	9
10425	10420	10421	10432	9
10428	10420	10421	10432	9
10432	10445	10438	10439	9
10432	10445	10438	10437	9
10421	10422	10423	10430	9
10426	10422	10423	10430	9
10425	10424	10423	10430	9
10427	10424	10423	10430	9
10430	6637	6630	6629	9
10430	6637	6630	6631	9
10421	10432	10445	10438	9
10421	10432	10445	10447	9
10421	10422	10423	10424	9
10421	10420	10425	10424	9
10421	10420	10425	10429	9
10423	10430	6637	6630	9
10423	10430	6637	6639	9
10420	10421	10422	10423	9
10420	10425	10424	10423	9
10423	10424	10425	10429	9
10422	10421	10432	10433	9
10422	10421	10432	10445	9
10422	10421	10420	10425	9
10422	10421	10420	10428	9
10422	10423	10430	10431	9
10422	10423	10430	6637	9
10422	10423	10424	10425	9
10422	10423	10424	10427	9
10420	10421	10432	10433	9
10420	10421	10432	10445	9
10420	10421	10422	10426	9
10420	10425	10424	10427	9
10424	10423	10430	10431	9
10424	10423	10430	6637	9
10424	10423	10422	10426	9
10424	10425	10420	10428	9
10428	10420	10425	10429	9
10427	10424	10425	10429	9
10433	10432	10445	10438	9
10433	10432	10445	10447	9
10431	10430	6637	6630	9
10431	10430	6637	6639	9
5346	5345	5344	5355	9
5349	5345	5344	5355	9
5348	5343	5344	5355	9
5351	5343	5344	5355	9
5355	5363	5357	5360	9
5355	5363	5357	5358	9
5344	5345	5346	5353	9
5349	5345	5346	5353	9
5348	5347	5346	5353	9
5350	5347	5346	5353	9
5353	10455	10449	10452	9
5353	10455	10449	10450	9
5344	5355	5363	5357	9
5344	5355	5363	5364	9
5344	5345	5346	5347	9
5344	5343	5348	5347	9
5344	5343	5348	5352	9
5346	5353	10455	10449	9
5346	5353	10455	10456	9
5343	5344	5345	5346	9
5343	5348	5347	5346	9
5346	5347	5348	5352	9
5345	5344	5355	5356	9
5345	5344	5355	5363	9
5345	5344	5343	5348	9
5345	5344	5343	5351	9
5345	5346	5353	5354	9
5345	5346	5353	10455	9
5345	5346	5347	5348	9
5345	5346	5347	5350	9
5343	5344	5355	5356	9
5343	5344	5355	5363	9
5343	5344	5345	5349	9
5343	5348	5347	5350	9
5347	5346	5353	5354	9
5347	5346	5353	10455	9
5347	5346	5345	5349	9
5347	5348	5343	5351	9
5351	5343	5348	5352	9
5350	5347	5348	5352	9
5356	5355	5363	5357	9
5356	5355	5363	5364	9
5354	5353	10455	10449	9
5354	5353	10455	10456	9
12121	12120	12119	12130	9
12124	12120	12119	12130	9
12123	12118	12119	12130	9
12126	12118	12119	12130	9
12130	9600	9590	9593	9
12130	9600	9590	9589	9
12119	12120	12121	12128	9
12124	12120	12121	12128	9
12123	12122	12121	12128	9
12125	12122	12121	12128	9
12128	5559	5549	5552	9
12128	5559	5549	5548	9
12119	12130	9600	9590	9
12119	12130	9600	9602	9
12119	12120	12121	12122	9
12119	12118	12123	12122	9
12119	12118	12123	12127	9
12121	12128	5559	5549	9
12121	12128	5559	5561	9
12118	12119	12120	12121	9
12118	12123	12122	12121	9
12121	12122	12123	12127	9
12120	12119	12130	12131	9
12120	12119	12130	9600	9
12120	12119	12118	12123	9
12120	12119	12118	12126	9
12120	12121	12128	12129	9
12120	12121	12128	5559	9
12120	12121	12122	12123	9
12120	12121	12122	12125	9
12118	12119	12130	12131	9
12118	12119	12130	9600	9
12118	12119	12120	12124	9
12118	12123	12122	12125	9
12122	12121	12128	12129	9
12122	12121	12128	5559	9
12122	12121	12120	12124	9
12122	12123	12118	12126	9
12126	12118	12123	12127	9
12125	12122	12123	12127	9
12131	12130	9600	9590	9
12131	12130	9600	9602	9
12129	12128	5559	5549	9
12129	12128	5559	5561	9
3802	3803	3804	3807	9
3802	3803	3804	3814	9
3802	3805	3806	3807	9
3802	3805	3806	3813	9
3803	3804	3807	3806	9
3803	3804	3807	3812	9
3803	3804	3814	3816	9
3803	3802	3805	3806	9
3803	3802	3805	3811	9
3803	3802	3808	3809	9
3804	3803	3802	3805	9
3804	3803	3802	3808	9
3804	3807	3806	3805	9
3804	3807	3806	3813	9
3807	3804	3803	3810	9
3807	3804	3814	3816	9
3807	3806	3805	3811	9
3807	3806	3813	3815	9
3806	3807	3804	3814	9
3806	3805	3802	3808	9
3805	3806	3807	3812	9
3805	3806	3813	3815	9
3805	3802	3803	3810	9
3805	3802	3808	3809	9
3812	3807	3806	3813	9
3811	3805	3806	3813	9
3808	3802	3803	3810	9
3808	3802	3805	3811	9
3810	3803	3804	3814	9
3812	3807	3804	3814	9
291	294	293	292	9
291	294	293	300	9
291	290	289	292	9
291	290	289	295	9
291	301	304	305	9
289	292	293	294	9
294	293	292	298	9
294	293	300	302	9
289	290	291	294	9
294	291	290	297	9
294	291	301	303	9
294	291	301	304	9
290	291	294	293	9
293	294	291	301	9
290	289	292	293	9
293	292	289	295	9
292	293	294	299	9
292	293	300	302	9
292	289	290	297	9
292	289	295	296	9
289	292	293	300	9
289	290	291	301	9
290	289	292	298	9
290	289	295	296	9
290	291	294	299	9
290	291	301	303	9
290	291	301	304	9
295	289	292	298	9
295	289	290	297	9
299	294	291	301	9
297	290	291	301	9
299	294	293	300	9
298	292	293	300	9
303	301	304	305	9
336	337	338	339	9
336	337	338	344	9
336	341	340	339	9
336	341	340	342	9
337	338	339	340	9
337	338	339	348	9
337	338	344	345	9
337	338	344	346	9
337	336	341	340	9
337	336	341	349	9
337	336	334	335	9
338	337	336	341	9
338	337	336	334	9
338	339	340	341	9
338	339	340	342	9
339	338	337	347	9
339	338	344	345	9
339	338	344	346	9
339	340	341	349	9
339	340	342	343	9
340	339	338	344	9
340	341	336	334	9
341	340	339	348	9
341	340	342	343	9
341	336	337	347	9
341	336	334	335	9
348	339	340	342	9
349	341	340	342	9
334	336	337	347	9
334	336	341	349	9
347	337	338	344	9
348	339	338	344	9
3817	3820	3821	3822	9
3817	3820	3821	3828	9
3817	3818	3819	3822	9
3817	3818	3819	3829	9
3819	3822	3821	3820	9
3820	3821	3822	3827	9
3820	3821	3828	3830	9
3819	3818	3817	3820	9
3820	3817	3818	3825	9
3820	3817	3823	3824	9
3818	3817	3820	3821	9
3821	3820	3817	3823	9
3818	3819	3822	3821	9
3821	3822	3819	3829	9
3822	3821	3820	3826	9
3822	3821	3828	3830	9
3822	3819	3818	3825	9
3822	3819	3829	3831	9
3819	3822	3821	3828	9
3819	3818	3817	3823	9
3818	3819	3822	3827	9
3818	3819	3829	3831	9
3818	3817	3820	3826	9
3818	3817	3823	3824	9
3827	3822	3819	3829	9
3825	3818	3819	3829	9
3823	3817	3820	3826	9
3823	3817	3818	3825	9
3826	3820	3821	3828	9
3827	3822	3821	3828	9
366	371	370	369	9
366	371	370	372	9
366	367	368	369	9
366	367	368	374	9
368	369	370	371	9
371	370	369	378	9
371	370	372	373	9
368	367	366	371	9
371	366	367	377	9
371	366	364	365	9
367	366	371	370	9
370	371	366	364	9
367	368	369	370	9
370	369	368	374	9
369	370	371	379	9
369	370	372	373	9
369	368	367	377	9
369	368	374	375	9
369	368	374	376	9
368	369	370	372	9
368	367	366	364	9
367	368	369	378	9
367	368	374	375	9
367	368	374	376	9
367	366	371	379	9
367	366	364	365	9
378	369	368	374	9
377	367	368	374	9
364	366	371	379	9
364	366	367	377	9
379	371	370	372	9
378	369	370	372	9
380	383	384	385	9
380	383	384	391	9
380	381	382	385	9
380	381	382	392	9
382	385	384	383	9
383	384	385	390	9
383	384	391	393	9
382	381	380	383	9
383	380	381	388	9
383	380	386	387	9
381	380	383	384	9
384	383	380	386	9
381	382	385	384	9
384	385	382	392	9
385	384	383	389	9
385	384	391	393	9
385	382	381	388	9
385	382	392	394	9
385	382	392	395	9
382	385	384	391	9
382	381	380	386	9
382	392	395	396	9
381	382	385	390	9
381	382	392	394	9
381	382	392	395	9
381	380	383	389	9
381	380	386	387	9
390	385	382	392	9
388	381	382	392	9
386	380	383	389	9
386	380	381	388	9
389	383	384	391	9
390	385	384	391	9
394	392	395	396	9
3846	3849	3850	3851	9
3846	3849	3850	3857	9
3846	3847	3848	3851	9
3846	3847	3848	3858	9
3848	3851	3850	3849	9
3849	3850	3851	3856	9
3849	3850	3857	3859	9
3848	3847	3846	3849	9
3849	3846	3847	3854	9
3849	3846	3852	3853	9
3847	3846	3849	3850	9
3850	3849	3846	3852	9
3847	3848	3851	3850	9
3850	3851	3848	3858	9
3851	3850	3849	3855	9
3851	3850	3857	3859	9
3851	3848	3847	3854	9
3851	3848	3858	3860	9
3848	3851	3850	3857	9
3848	3847	3846	3852	9
3847	3848	3851	3856	9
3847	3848	3858	3860	9
3847	3846	3849	3855	9
3847	3846	3852	3853	9
3856	3851	3848	3858	9
3854	3847	3848	3858	9
3852	3846	3849	3855	9
3852	3846	3847	3854	9
3855	3849	3850	3857	9
3856	3851	3850	3857	9
3875	3878	3879	3880	9
3875	3878	3879	3886	9
3875	3876	3877	3880	9
3875	3876	3877	3887	9
3877	3880	3879	3878	9
3878	3879	3880	3885	9
3878	3879	3886	3888	9
3877	3876	3875	3878	9
3878	3875	3876	3883	9
3878	3875	3881	3882	9
3876	3875	3878	3879	9
3879	3878	3875	3881	9
3876	3877	3880	3879	9
3879	3880	3877	3887	9
3880	3879	3878	3884	9
3880	3879	3886	3888	9
3880	3877	3876	3883	9
3880	3877	3887	3889	9
3877	3880	3879	3886	9
3877	3876	3875	3881	9
3876	3877	3880	3885	9
3876	3877	3887	3889	9
3876	3875	3878	3884	9
3876	3875	3881	3882	9
3885	3880	3877	3887	9
3883	3876	3877	3887	9
3881	3875	3878	3884	9
3881	3875	3876	3883	9
3884	3878	3879	3886	9
3885	3880	3879	3886	9
413	412	411	414	9
413	412	411	417	9
413	416	415	414	9
413	416	415	422	9
413	423	426	427	9
412	411	414	415	9
412	411	414	420	9
412	411	417	418	9
412	413	416	415	9
412	413	416	421	9
412	413	423	425	9
412	413	423	426	9
411	412	413	416	9
411	412	413	423	9
411	414	415	416	9
411	414	415	422	9
414	411	412	419	9
414	411	417	418	9
414	415	416	421	9
414	415	422	424	9
415	414	411	417	9
415	416	413	423	9
416	415	414	420	9
416	415	422	424	9
416	413	412	419	9
416	413	423	425	9
416	413	423	426	9
420	414	415	422	9
421	416	415	422	9
419	412	413	423	9
421	416	413	423	9
417	411	412	419	9
417	411	414	420	9
425	423	426	427	9
3904	3907	3908	3909	9
3904	3907	3908	3915	9
3904	3905	3906	3909	9
3904	3905	3906	3916	9
3906	3909	3908	3907	9
3907	3908	3909	3914	9
3907	3908	3915	3917	9
3906	3905	3904	3907	9
3907	3904	3905	3912	9
3907	3904	3910	3911	9
3905	3904	3907	3908	9
3908	3907	3904	3910	9
3905	3906	3909	3908	9
3908	3909	3906	3916	9
3909	3908	3907	3913	9
3909	3908	3915	3917	9
3909	3906	3905	3912	9
3909	3906	3916	3918	9
3906	3909	3908	3915	9
3906	3905	3904	3910	9
3905	3906	3909	3914	9
3905	3906	3916	3918	9
3905	3904	3907	3913	9
3905	3904	3910	3911	9
3914	3909	3906	3916	9
3912	3905	3906	3916	9
3910	3904	3907	3913	9
3910	3904	3905	3912	9
3913	3907	3908	3915	9
3914	3909	3908	3915	9
3933	3934	3935	3938	9
3933	3934	3935	3945	9
3933	3936	3937	3938	9
3933	3936	3937	3944	9
3934	3935	3938	3937	9
3934	3935	3938	3943	9
3934	3935	3945	3947	9
3934	3933	3936	3937	9
3934	3933	3936	3942	9
3934	3933	3939	3940	9
3935	3934	3933	3936	9
3935	3934	3933	3939	9
3935	3938	3937	3936	9
3935	3938	3937	3944	9
3938	3935	3934	3941	9
3938	3935	3945	3947	9
3938	3937	3936	3942	9
3938	3937	3944	3946	9
3937	3938	3935	3945	9
3937	3936	3933	3939	9
3936	3937	3938	3943	9
3936	3937	3944	3946	9
3936	3933	3934	3941	9
3936	3933	3939	3940	9
3943	3938	3937	3944	9
3942	3936	3937	3944	9
3939	3933	3934	3941	9
3939	3933	3936	3942	9
3941	3934	3935	3945	9
3943	3938	3935	3945	9
3962	3965	3966	3967	9
3962	3965	3966	3973	9
3962	3963	3964	3967	9
3962	3963	3964	3974	9
3965	3966	3967	3964	9
3965	3966	3967	3972	9
3965	3966	3973	3975	9
3965	3962	3963	3964	9
3965	3962	3963	3970	9
3965	3962	3968	3969	9
3966	3965	3962	3963	9
3966	3965	3962	3968	9
3966	3967	3964	3963	9
3966	3967	3964	3974	9
3967	3966	3965	3971	9
3967	3966	3973	3975	9
3967	3964	3963	3970	9
3967	3964	3974	3976	9
3964	3967	3966	3973	9
3964	3963	3962	3968	9
3963	3964	3967	3972	9
3963	3964	3974	3976	9
3963	3962	3965	3971	9
3963	3962	3968	3969	9
3972	3967	3964	3974	9
3970	3963	3964	3974	9
3968	3962	3965	3971	9
3968	3962	3963	3970	9
3971	3965	3966	3973	9
3972	3967	3966	3973	9
460	459	458	463	9
460	459	458	456	9
460	461	462	463	9
460	461	462	464	9
459	458	463	462	9
459	458	463	471	9
459	458	456	457	9
459	460	461	462	9
459	460	461	470	9
459	460	466	467	9
459	460	466	468	9
458	459	460	461	9
458	459	460	466	9
458	463	462	461	9
458	463	462	464	9
463	458	459	469	9
463	458	456	457	9
463	462	461	470	9
463	462	464	465	9
462	463	458	456	9
462	461	460	466	9
461	462	463	471	9
461	462	464	465	9
461	460	459	469	9
461	460	466	467	9
461	460	466	468	9
471	463	462	464	9
470	461	462	464	9
469	459	460	466	9
470	461	460	466	9
456	458	459	469	9
456	458	463	471	9
3991	3994	3995	3996	9
3991	3994	3995	4002	9
3991	3992	3993	3996	9
3991	3992	3993	4003	9
3994	3995	3996	3993	9
3994	3995	3996	4001	9
3994	3995	4002	4004	9
3994	3991	3992	3993	9
3994	3991	3992	3999	9
3994	3991	3997	3998	9
3995	3994	3991	3992	9
3995	3994	3991	3997	9
3995	3996	3993	3992	9
3995	3996	3993	4003	9
3996	3995	3994	4000	9
3996	3995	4002	4004	9
3996	3993	3992	3999	9
3996	3993	4003	4005	9
3993	3996	3995	4002	9
3993	3992	3991	3997	9
3992	3993	3996	4001	9
3992	3993	4003	4005	9
3992	3991	3994	4000	9
3992	3991	3997	3998	9
4001	3996	3993	4003	9
3999	3992	3993	4003	9
3997	3991	3994	4000	9
3997	3991	3992	3999	9
4000	3994	3995	4002	9
4001	3996	3995	4002	9
4020	4021	4022	4025	9
4020	4021	4022	4032	9
4020	4023	4024	4025	9
4020	4023	4024	4031	9
4021	4022	4025	4024	9
4021	4022	4025	4030	9
4021	4022	4032	4034	9
4021	4020	4023	4024	9
4021	4020	4023	4029	9
4021	4020	4026	4027	9
4022	4021	4020	4023	9
4022	4021	4020	4026	9
4022	4025	4024	4023	9
4022	4025	4024	4031	9
4025	4022	4021	4028	9
4025	4022	4032	4034	9
4025	4024	4023	4029	9
4025	4024	4031	4033	9
4024	4025	4022	4032	9
4024	4023	4020	4026	9
4023	4024	4025	4030	9
4023	4024	4031	4033	9
4023	4020	4021	4028	9
4023	4020	4026	4027	9
4030	4025	4024	4031	9
4029	4023	4024	4031	9
4026	4020	4021	4028	9
4026	4020	4023	4029	9
4028	4021	4022	4032	9
4030	4025	4022	4032	9
4049	4050	4051	4054	9
4049	4050	4051	4061	9
4049	4052	4053	4054	9
4049	4052	4053	4060	9
4050	4051	4054	4053	9
4050	4051	4054	4059	9
4050	4051	4061	4063	9
4050	4049	4052	4053	9
4050	4049	4052	4058	9
4050	4049	4055	4056	9
4051	4050	4049	4052	9
4051	4050	4049	4055	9
4051	4054	4053	4052	9
4051	4054	4053	4060	9
4054	4051	4050	4057	9
4054	4051	4061	4063	9
4054	4053	4052	4058	9
4054	4053	4060	4062	9
4053	4054	4051	4061	9
4053	4052	4049	4055	9
4052	4053	4054	4059	9
4052	4053	4060	4062	9
4052	4049	4050	4057	9
4052	4049	4055	4056	9
4059	4054	4053	4060	9
4058	4052	4053	4060	9
4055	4049	4050	4057	9
4055	4049	4052	4058	9
4057	4050	4051	4061	9
4059	4054	4051	4061	9
7	8	9	4	9
4	9	8	10	9
7	6	5	4	9
4	5	6	12	9
4	2	1	15	9
6	7	8	9	9
9	8	7	17	9
9	8	10	11	9
6	5	4	9	9
9	4	5	16	9
9	4	2	3	9
9	4	2	1	9
8	9	4	5	9
8	9	4	2	9
8	7	6	5	9
8	7	6	12	9
7	8	9	18	9
7	8	10	11	9
7	6	5	16	9
7	6	12	13	9
7	6	12	14	9
6	7	8	10	9
6	5	4	2	9
5	6	7	17	9
5	6	12	13	9
5	6	12	14	9
5	4	9	18	9
5	4	2	3	9
5	4	2	1	9
17	7	6	12	9
16	5	6	12	9
18	9	4	2	9
16	5	4	2	9
10	8	9	18	9
10	8	7	17	9
3	2	1	15	9
4078	4079	4080	4083	9
4078	4079	4080	4090	9
4078	4081	4082	4083	9
4078	4081	4082	4089	9
4079	4080	4083	4082	9
4079	4080	4083	4088	9
4079	4080	4090	4092	9
4079	4078	4081	4082	9
4079	4078	4081	4087	9
4079	4078	4084	4085	9
4080	4079	4078	4081	9
4080	4079	4078	4084	9
4080	4083	4082	4081	9
4080	4083	4082	4089	9
4083	4080	4079	4086	9
4083	4080	4090	4092	9
4083	4082	4081	4087	9
4083	4082	4089	4091	9
4082	4083	4080	4090	9
4082	4081	4078	4084	9
4081	4082	4083	4088	9
4081	4082	4089	4091	9
4081	4078	4079	4086	9
4081	4078	4084	4085	9
4088	4083	4082	4089	9
4087	4081	4082	4089	9
4084	4078	4079	4086	9
4084	4078	4081	4087	9
4086	4079	4080	4090	9
4088	4083	4080	4090	9
488	489	490	491	9
488	489	490	496	9
488	493	492	491	9
488	493	492	494	9
489	490	491	492	9
489	490	491	500	9
489	490	496	497	9
489	490	496	498	9
489	488	493	492	9
489	488	493	501	9
489	488	486	487	9
490	489	488	493	9
490	489	488	486	9
490	491	492	493	9
490	491	492	494	9
491	490	489	499	9
491	490	496	497	9
491	490	496	498	9
491	492	493	501	9
491	492	494	495	9
492	491	490	496	9
492	493	488	486	9
493	492	491	500	9
493	492	494	495	9
493	488	489	499	9
493	488	486	487	9
500	491	492	494	9
501	493	492	494	9
486	488	489	499	9
486	488	493	501	9
499	489	490	496	9
500	491	490	496	9
4107	4108	4109	4112	9
4107	4108	4109	4119	9
4107	4110	4111	4112	9
4107	4110	4111	4118	9
4108	4109	4112	4111	9
4108	4109	4112	4117	9
4108	4109	4119	4121	9
4108	4107	4110	4111	9
4108	4107	4110	4116	9
4108	4107	4113	4114	9
4109	4108	4107	4110	9
4109	4108	4107	4113	9
4109	4112	4111	4110	9
4109	4112	4111	4118	9
4112	4109	4108	4115	9
4112	4109	4119	4121	9
4112	4111	4110	4116	9
4112	4111	4118	4120	9
4111	4112	4109	4119	9
4111	4110	4107	4113	9
4110	4111	4112	4117	9
4110	4111	4118	4120	9
4110	4107	4108	4115	9
4110	4107	4113	4114	9
4117	4112	4111	4118	9
4116	4110	4111	4118	9
4113	4107	4108	4115	9
4113	4107	4110	4116	9
4115	4108	4109	4119	9
4117	4112	4109	4119	9
518	523	522	521	9
518	523	522	524	9
518	519	520	521	9
518	519	520	526	9
520	521	522	523	9
523	522	521	530	9
523	522	524	525	9
520	519	518	523	9
523	518	519	529	9
523	518	516	517	9
519	518	523	522	9
522	523	518	516	9
519	520	521	522	9
522	521	520	526	9
521	522	523	531	9
521	522	524	525	9
521	520	519	529	9
521	520	526	527	9
521	520	526	528	9
520	521	522	524	9
520	519	518	516	9
519	520	521	530	9
519	520	526	527	9
519	520	526	528	9
519	518	523	531	9
519	518	516	517	9
530	521	520	526	9
529	519	520	526	9
516	518	523	531	9
516	518	519	529	9
531	523	522	524	9
530	521	522	524	9
4136	4137	4138	4141	9
4136	4137	4138	4148	9
4136	4139	4140	4141	9
4136	4139	4140	4147	9
4137	4138	4141	4140	9
4137	4138	4141	4146	9
4137	4138	4148	4150	9
4137	4136	4139	4140	9
4137	4136	4139	4145	9
4137	4136	4142	4143	9
4138	4137	4136	4139	9
4138	4137	4136	4142	9
4138	4141	4140	4139	9
4138	4141	4140	4147	9
4141	4138	4137	4144	9
4141	4138	4148	4150	9
4141	4140	4139	4145	9
4141	4140	4147	4149	9
4140	4141	4138	4148	9
4140	4139	4136	4142	9
4139	4140	4141	4146	9
4139	4140	4147	4149	9
4139	4136	4137	4144	9
4139	4136	4142	4143	9
4146	4141	4140	4147	9
4145	4139	4140	4147	9
4142	4136	4137	4144	9
4142	4136	4139	4145	9
4144	4137	4138	4148	9
4146	4141	4138	4148	9
4165	4166	4167	4170	9
4165	4166	4167	4177	9
4165	4168	4169	4170	9
4165	4168	4169	4176	9
4166	4167	4170	4169	9
4166	4167	4170	4175	9
4166	4167	4177	4179	9
4166	4165	4168	4169	9
4166	4165	4168	4174	9
4166	4165	4171	4172	9
4167	4166	4165	4168	9
4167	4166	4165	4171	9
4167	4170	4169	4168	9
4167	4170	4169	4176	9
4170	4167	4166	4173	9
4170	4167	4177	4179	9
4170	4169	4168	4174	9
4170	4169	4176	4178	9
4169	4170	4167	4177	9
4169	4168	4165	4171	9
4168	4169	4170	4175	9
4168	4169	4176	4178	9
4168	4165	4166	4173	9
4168	4165	4171	4172	9
4175	4170	4169	4176	9
4174	4168	4169	4176	9
4171	4165	4166	4173	9
4171	4165	4168	4174	9
4173	4166	4167	4177	9
4175	4170	4167	4177	9
4194	4197	4198	4199	9
4194	4197	4198	4205	9
4194	4195	4196	4199	9
4194	4195	4196	4206	9
4197	4198	4199	4196	9
4197	4198	4199	4204	9
4197	4198	4205	4207	9
4197	4194	4195	4196	9
4197	4194	4195	4202	9
4197	4194	4200	4201	9
4198	4197	4194	4195	9
4198	4197	4194	4200	9
4198	4199	4196	4195	9
4198	4199	4196	4206	9
4199	4198	4197	4203	9
4199	4198	4205	4207	9
4199	4196	4195	4202	9
4199	4196	4206	4208	9
4196	4199	4198	4205	9
4196	4195	4194	4200	9
4195	4196	4199	4204	9
4195	4196	4206	4208	9
4195	4194	4197	4203	9
4195	4194	4200	4201	9
4204	4199	4196	4206	9
4202	4195	4196	4206	9
4200	4194	4197	4203	9
4200	4194	4195	4202	9
4203	4197	4198	4205	9
4204	4199	4198	4205	9
4223	4224	4225	4228	9
4223	4224	4225	4235	9
4223	4226	4227	4228	9
4223	4226	4227	4234	9
4227	4228	4225	4224	9
4224	4225	4228	4233	9
4224	4225	4235	4237	9
4227	4226	4223	4224	9
4224	4223	4226	4232	9
4224	4223	4229	4230	9
4226	4223	4224	4225	9
4225	4224	4223	4229	9
4226	4227	4228	4225	9
4225	4228	4227	4234	9
4228	4225	4224	4231	9
4228	4225	4235	4237	9
4228	4227	4226	4232	9
4228	4227	4234	4236	9
4227	4228	4225	4235	9
4227	4226	4223	4229	9
4226	4227	4228	4233	9
4226	4227	4234	4236	9
4226	4223	4224	4231	9
4226	4223	4229	4230	9
4233	4228	4227	4234	9
4232	4226	4227	4234	9
4229	4223	4224	4231	9
4229	4223	4226	4232	9
4231	4224	4225	4235	9
4233	4228	4225	4235	9
548	549	550	551	9
548	549	550	556	9
548	553	552	551	9
548	553	552	554	9
549	550	551	552	9
549	550	551	560	9
549	550	556	557	9
549	550	556	558	9
549	548	553	552	9
549	548	553	561	9
549	548	546	547	9
550	549	548	553	9
550	549	548	546	9
550	551	552	553	9
550	551	552	554	9
551	550	549	559	9
551	550	556	557	9
551	550	556	558	9
551	552	553	561	9
551	552	554	555	9
552	551	550	556	9
552	553	548	546	9
553	552	551	560	9
553	552	554	555	9
553	548	549	559	9
553	548	546	547	9
560	551	552	554	9
561	553	552	554	9
546	548	549	559	9
546	548	553	561	9
559	549	550	556	9
560	551	550	556	9
564	563	562	565	9
564	563	562	568	9
564	567	566	565	9
564	567	566	573	9
564	574	577	578	9
563	562	565	566	9
563	562	565	571	9
563	562	568	569	9
563	564	567	566	9
563	564	567	572	9
563	564	574	576	9
563	564	574	577	9
562	563	564	567	9
562	563	564	574	9
562	565	566	567	9
562	565	566	573	9
565	562	563	570	9
565	562	568	569	9
565	566	567	572	9
565	566	573	575	9
566	565	562	568	9
566	567	564	574	9
567	566	565	571	9
567	566	573	575	9
567	564	563	570	9
567	564	574	576	9
567	564	574	577	9
571	565	566	573	9
572	567	566	573	9
570	563	564	574	9
572	567	564	574	9
568	562	563	570	9
568	562	565	571	9
576	574	577	578	9
4238	4241	4242	4243	9
4238	4241	4242	4249	9
4238	4239	4240	4243	9
4238	4239	4240	4250	9
4240	4243	4242	4241	9
4241	4242	4243	4248	9
4241	4242	4249	4251	9
4240	4239	4238	4241	9
4241	4238	4239	4246	9
4241	4238	4244	4245	9
4239	4238	4241	4242	9
4242	4241	4238	4244	9
4239	4240	4243	4242	9
4242	4243	4240	4250	9
4243	4242	4241	4247	9
4243	4242	4249	4251	9
4243	4240	4239	4246	9
4243	4240	4250	4252	9
4240	4243	4242	4249	9
4240	4239	4238	4244	9
4239	4240	4243	4248	9
4239	4240	4250	4252	9
4239	4238	4241	4247	9
4239	4238	4244	4245	9
4248	4243	4240	4250	9
4246	4239	4240	4250	9
4244	4238	4241	4247	9
4244	4238	4239	4246	9
4247	4241	4242	4249	9
4248	4243	4242	4249	9
4269	4272	4271	4270	9
4269	4272	4271	4278	9
4269	4268	4267	4270	9
4269	4268	4267	4273	9
4267	4270	4271	4272	9
4272	4271	4270	4276	9
4272	4271	4278	4280	9
4267	4268	4269	4272	9
4272	4269	4268	4275	9
4272	4269	4279	4281	9
4268	4269	4272	4271	9
4271	4272	4269	4279	9
4268	4267	4270	4271	9
4271	4270	4267	4273	9
4270	4271	4272	4277	9
4270	4271	4278	4280	9
4270	4267	4268	4275	9
4270	4267	4273	4274	9
4267	4270	4271	4278	9
4267	4268	4269	4279	9
4268	4267	4270	4276	9
4268	4267	4273	4274	9
4268	4269	4272	4277	9
4268	4269	4279	4281	9
4273	4267	4270	4276	9
4273	4267	4268	4275	9
4277	4272	4269	4279	9
4275	4268	4269	4279	9
4277	4272	4271	4278	9
4276	4270	4271	4278	9
609	610	611	612	9
609	610	611	617	9
609	614	613	612	9
609	614	613	615	9
610	611	612	613	9
610	611	612	621	9
610	611	617	618	9
610	611	617	619	9
610	609	614	613	9
610	609	614	622	9
610	609	607	608	9
611	610	609	614	9
611	610	609	607	9
611	612	613	614	9
611	612	613	615	9
612	611	610	620	9
612	611	617	618	9
612	611	617	619	9
612	613	614	622	9
612	613	615	616	9
613	612	611	617	9
613	614	609	607	9
614	613	612	621	9
614	613	615	616	9
614	609	610	620	9
614	609	607	608	9
621	612	613	615	9
622	614	613	615	9
607	609	610	620	9
607	609	614	622	9
620	610	611	617	9
621	612	611	617	9
4296	4299	4300	4301	9
4296	4299	4300	4307	9
4296	4297	4298	4301	9
4296	4297	4298	4308	9
4298	4301	4300	4299	9
4299	4300	4301	4306	9
4299	4300	4307	4309	9
4298	4297	4296	4299	9
4299	4296	4297	4304	9
4299	4296	4302	4303	9
4297	4296	4299	4300	9
4300	4299	4296	4302	9
4297	4298	4301	4300	9
4300	4301	4298	4308	9
4301	4300	4299	4305	9
4301	4300	4307	4309	9
4301	4298	4297	4304	9
4301	4298	4308	4310	9
4298	4301	4300	4307	9
4298	4297	4296	4302	9
4297	4298	4301	4306	9
4297	4298	4308	4310	9
4297	4296	4299	4305	9
4297	4296	4302	4303	9
4306	4301	4298	4308	9
4304	4297	4298	4308	9
4302	4296	4299	4305	9
4302	4296	4297	4304	9
4305	4299	4300	4307	9
4306	4301	4300	4307	9
623	624	625	628	9
623	624	625	635	9
623	626	627	628	9
623	626	627	634	9
624	625	628	627	9
624	625	628	633	9
624	625	635	637	9
624	625	635	638	9
624	623	626	627	9
624	623	626	632	9
624	623	629	630	9
625	624	623	626	9
625	624	623	629	9
625	628	627	626	9
625	628	627	634	9
625	635	638	639	9
628	625	624	631	9
628	625	635	637	9
628	625	635	638	9
628	627	626	632	9
628	627	634	636	9
627	628	625	635	9
627	626	623	629	9
626	627	628	633	9
626	627	634	636	9
626	623	624	631	9
626	623	629	630	9
633	628	627	634	9
632	626	627	634	9
629	623	624	631	9
629	623	626	632	9
631	624	625	635	9
633	628	625	635	9
637	635	638	639	9
4325	4328	4329	4330	9
4325	4328	4329	4336	9
4325	4326	4327	4330	9
4325	4326	4327	4337	9
4327	4330	4329	4328	9
4328	4329	4330	4335	9
4328	4329	4336	4338	9
4327	4326	4325	4328	9
4328	4325	4326	4333	9
4328	4325	4331	4332	9
4326	4325	4328	4329	9
4329	4328	4325	4331	9
4326	4327	4330	4329	9
4329	4330	4327	4337	9
4330	4329	4328	4334	9
4330	4329	4336	4338	9
4330	4327	4326	4333	9
4330	4327	4337	4339	9
4327	4330	4329	4336	9
4327	4326	4325	4331	9
4326	4327	4330	4335	9
4326	4327	4337	4339	9
4326	4325	4328	4334	9
4326	4325	4331	4332	9
4335	4330	4327	4337	9
4333	4326	4327	4337	9
4331	4325	4328	4334	9
4331	4325	4326	4333	9
4334	4328	4329	4336	9
4335	4330	4329	4336	9
4340	4341	4342	4345	9
4340	4341	4342	4352	9
4340	4343	4344	4345	9
4340	4343	4344	4351	9
4341	4342	4345	4344	9
4341	4342	4345	4350	9
4341	4342	4352	4354	9
4341	4340	4343	4344	9
4341	4340	4343	4349	9
4341	4340	4346	4347	9
4342	4341	4340	4343	9
4342	4341	4340	4346	9
4342	4345	4344	4343	9
4342	4345	4344	4351	9
4345	4342	4341	4348	9
4345	4342	4352	4354	9
4345	4344	4343	4349	9
4345	4344	4351	4353	9
4344	4345	4342	4352	9
4344	4343	4340	4346	9
4343	4344	4345	4350	9
4343	4344	4351	4353	9
4343	4340	4341	4348	9
4343	4340	4346	4347	9
4350	4345	4344	4351	9
4349	4343	4344	4351	9
4346	4340	4341	4348	9
4346	4340	4343	4349	9
4348	4341	4342	4352	9
4350	4345	4342	4352	9
4369	4370	4371	4374	9
4369	4370	4371	4381	9
4369	4372	4373	4374	9
4369	4372	4373	4380	9
4370	4371	4374	4373	9
4370	4371	4374	4379	9
4370	4371	4381	4383	9
4370	4369	4372	4373	9
4370	4369	4372	4378	9
4370	4369	4375	4376	9
4371	4370	4369	4372	9
4371	4370	4369	4375	9
4371	4374	4373	4372	9
4371	4374	4373	4380	9
4374	4371	4370	4377	9
4374	4371	4381	4383	9
4374	4373	4372	4378	9
4374	4373	4380	4382	9
4373	4374	4371	4381	9
4373	4372	4369	4375	9
4372	4373	4374	4379	9
4372	4373	4380	4382	9
4372	4369	4370	4377	9
4372	4369	4375	4376	9
4379	4374	4373	4380	9
4378	4372	4373	4380	9
4375	4369	4370	4377	9
4375	4369	4372	4378	9
4377	4370	4371	4381	9
4379	4374	4371	4381	9
4398	4399	4400	4403	9
4398	4399	4400	4410	9
4398	4401	4402	4403	9
4398	4401	4402	4409	9
4402	4403	4400	4399	9
4399	4400	4403	4408	9
4399	4400	4410	4412	9
4402	4401	4398	4399	9
4399	4398	4401	4407	9
4399	4398	4404	4405	9
4401	4398	4399	4400	9
4400	4399	4398	4404	9
4401	4402	4403	4400	9
4400	4403	4402	4409	9
4403	4400	4399	4406	9
4403	4400	4410	4412	9
4403	4402	4401	4407	9
4403	4402	4409	4411	9
4402	4403	4400	4410	9
4402	4401	4398	4404	9
4401	4402	4403	4408	9
4401	4402	4409	4411	9
4401	4398	4399	4406	9
4401	4398	4404	4405	9
4408	4403	4402	4409	9
4407	4401	4402	4409	9
4404	4398	4399	4406	9
4404	4398	4401	4407	9
4406	4399	4400	4410	9
4408	4403	4400	4410	9
4427	4430	4431	4432	9
4427	4430	4431	4438	9
4427	4428	4429	4432	9
4427	4428	4429	4439	9
4430	4431	4432	4429	9
4430	4431	4432	4437	9
4430	4431	4438	4440	9
4430	4427	4428	4429	9
4430	4427	4428	4435	9
4430	4427	4433	4434	9
4431	4430	4427	4428	9
4431	4430	4427	4433	9
4431	4432	4429	4428	9
4431	4432	4429	4439	9
4432	4431	4430	4436	9
4432	4431	4438	4440	9
4432	4429	4428	4435	9
4432	4429	4439	4441	9
4429	4432	4431	4438	9
4429	4428	4427	4433	9
4428	4429	4432	4437	9
4428	4429	4439	4441	9
4428	4427	4430	4436	9
4428	4427	4433	4434	9
4437	4432	4429	4439	9
4435	4428	4429	4439	9
4433	4427	4430	4436	9
4433	4427	4428	4435	9
4436	4430	4431	4438	9
4437	4432	4431	4438	9
672	673	674	675	9
672	673	674	676	9
672	671	670	675	9
672	671	670	668	9
673	674	675	670	9
673	674	675	683	9
673	674	676	677	9
673	672	671	670	9
673	672	671	681	9
673	672	678	679	9
673	672	678	680	9
674	673	672	671	9
674	673	672	678	9
674	675	670	671	9
674	675	670	668	9
675	674	673	682	9
675	674	676	677	9
675	670	671	681	9
675	670	668	669	9
670	675	674	676	9
670	671	672	678	9
671	670	675	683	9
671	670	668	669	9
671	672	673	682	9
671	672	678	679	9
671	672	678	680	9
683	675	670	668	9
681	671	670	668	9
682	673	672	678	9
681	671	672	678	9
676	674	673	682	9
676	674	675	683	9
4456	4457	4458	4461	9
4456	4457	4458	4468	9
4456	4459	4460	4461	9
4456	4459	4460	4467	9
4457	4458	4461	4460	9
4457	4458	4461	4466	9
4457	4458	4468	4470	9
4457	4456	4459	4460	9
4457	4456	4459	4465	9
4457	4456	4462	4463	9
4458	4457	4456	4459	9
4458	4457	4456	4462	9
4458	4461	4460	4459	9
4458	4461	4460	4467	9
4461	4458	4457	4464	9
4461	4458	4468	4470	9
4461	4460	4459	4465	9
4461	4460	4467	4469	9
4460	4461	4458	4468	9
4460	4459	4456	4462	9
4459	4460	4461	4466	9
4459	4460	4467	4469	9
4459	4456	4457	4464	9
4459	4456	4462	4463	9
4466	4461	4460	4467	9
4465	4459	4460	4467	9
4462	4456	4457	4464	9
4462	4456	4459	4465	9
4464	4457	4458	4468	9
4466	4461	4458	4468	9
684	687	688	689	9
684	687	688	695	9
684	685	686	689	9
684	685	686	696	9
686	689	688	687	9
687	688	689	694	9
687	688	695	697	9
686	685	684	687	9
687	684	685	692	9
687	684	690	691	9
685	684	687	688	9
688	687	684	690	9
685	686	689	688	9
688	689	686	696	9
689	688	687	693	9
689	688	695	697	9
689	686	685	692	9
689	686	696	698	9
689	686	696	699	9
686	689	688	695	9
686	685	684	690	9
686	696	699	700	9
685	686	689	694	9
685	686	696	698	9
685	686	696	699	9
685	684	687	693	9
685	684	690	691	9
694	689	686	696	9
692	685	686	696	9
690	684	687	693	9
690	684	685	692	9
693	687	688	695	9
694	689	688	695	9
698	696	699	700	9
4485	4488	4489	4490	9
4485	4488	4489	4496	9
4485	4486	4487	4490	9
4485	4486	4487	4497	9
4487	4490	4489	4488	9
4488	4489	4490	4495	9
4488	4489	4496	4498	9
4487	4486	4485	4488	9
4488	4485	4486	4493	9
4488	4485	4491	4492	9
4486	4485	4488	4489	9
4489	4488	4485	4491	9
4486	4487	4490	4489	9
4489	4490	4487	4497	9
4490	4489	4488	4494	9
4490	4489	4496	4498	9
4490	4487	4486	4493	9
4490	4487	4497	4499	9
4487	4490	4489	4496	9
4487	4486	4485	4491	9
4486	4487	4490	4495	9
4486	4487	4497	4499	9
4486	4485	4488	4494	9
4486	4485	4491	4492	9
4495	4490	4487	4497	9
4493	4486	4487	4497	9
4491	4485	4488	4494	9
4491	4485	4486	4493	9
4494	4488	4489	4496	9
4495	4490	4489	4496	9
4514	4517	4518	4519	9
4514	4517	4518	4525	9
4514	4515	4516	4519	9
4514	4515	4516	4526	9
4516	4519	4518	4517	9
4517	4518	4519	4524	9
4517	4518	4525	4527	9
4516	4515	4514	4517	9
4517	4514	4515	4522	9
4517	4514	4520	4521	9
4515	4514	4517	4518	9
4518	4517	4514	4520	9
4515	4516	4519	4518	9
4518	4519	4516	4526	9
4519	4518	4517	4523	9
4519	4518	4525	4527	9
4519	4516	4515	4522	9
4519	4516	4526	4528	9
4516	4519	4518	4525	9
4516	4515	4514	4520	9
4515	4516	4519	4524	9
4515	4516	4526	4528	9
4515	4514	4517	4523	9
4515	4514	4520	4521	9
4524	4519	4516	4526	9
4522	4515	4516	4526	9
4520	4514	4517	4523	9
4520	4514	4515	4522	9
4523	4517	4518	4525	9
4524	4519	4518	4525	9
4543	4546	4547	4548	9
4543	4546	4547	4554	9
4543	4544	4545	4548	9
4543	4544	4545	4555	9
4545	4548	4547	4546	9
4546	4547	4548	4553	9
4546	4547	4554	4556	9
4545	4544	4543	4546	9
4546	4543	4544	4551	9
4546	4543	4549	4550	9
4544	4543	4546	4547	9
4547	4546	4543	4549	9
4544	4545	4548	4547	9
4547	4548	4545	4555	9
4548	4547	4546	4552	9
4548	4547	4554	4556	9
4548	4545	4544	4551	9
4548	4545	4555	4557	9
4545	4548	4547	4554	9
4545	4544	4543	4549	9
4544	4545	4548	4553	9
4544	4545	4555	4557	9
4544	4543	4546	4552	9
4544	4543	4549	4550	9
4553	4548	4545	4555	9
4551	4544	4545	4555	9
4549	4543	4546	4552	9
4549	4543	4544	4551	9
4552	4546	4547	4554	9
4553	4548	4547	4554	9
4572	4573	4574	4577	9
4572	4573	4574	4584	9
4572	4575	4576	4577	9
4572	4575	4576	4583	9
4573	4574	4577	4576	9
4573	4574	4577	4582	9
4573	4574	4584	4586	9
4573	4572	4575	4576	9
4573	4572	4575	4581	9
4573	4572	4578	4579	9
4574	4573	4572	4575	9
4574	4573	4572	4578	9
4574	4577	4576	4575	9
4574	4577	4576	4583	9
4577	4574	4573	4580	9
4577	4574	4584	4586	9
4577	4576	4575	4581	9
4577	4576	4583	4585	9
4576	4577	4574	4584	9
4576	4575	4572	4578	9
4575	4576	4577	4582	9
4575	4576	4583	4585	9
4575	4572	4573	4580	9
4575	4572	4578	4579	9
4582	4577	4576	4583	9
4581	4575	4576	4583	9
4578	4572	4573	4580	9
4578	4572	4575	4581	9
4580	4573	4574	4584	9
4582	4577	4574	4584	9
715	718	719	720	9
715	718	719	726	9
715	716	717	720	9
715	716	717	727	9
717	720	719	718	9
718	719	720	725	9
718	719	726	728	9
717	716	715	718	9
718	715	716	723	9
718	715	721	722	9
716	715	718	719	9
719	718	715	721	9
716	717	720	719	9
719	720	717	727	9
720	719	718	724	9
720	719	726	728	9
720	717	716	723	9
720	717	727	729	9
720	717	727	730	9
717	720	719	726	9
717	716	715	721	9
717	727	730	731	9
716	717	720	725	9
716	717	727	729	9
716	717	727	730	9
716	715	718	724	9
716	715	721	722	9
725	720	717	727	9
723	716	717	727	9
721	715	718	724	9
721	715	716	723	9
724	718	719	726	9
725	720	719	726	9
729	727	730	731	9
762	767	766	765	9
762	767	766	768	9
762	763	764	765	9
762	763	764	770	9
764	765	766	767	9
767	766	765	774	9
767	766	768	769	9
764	763	762	767	9
767	762	763	773	9
767	762	760	761	9
763	762	767	766	9
766	767	762	760	9
763	764	765	766	9
766	765	764	770	9
765	766	767	775	9
765	766	768	769	9
765	764	763	773	9
765	764	770	771	9
765	764	770	772	9
764	765	766	768	9
764	763	762	760	9
763	764	765	774	9
763	764	770	771	9
763	764	770	772	9
763	762	767	775	9
763	762	760	761	9
774	765	764	770	9
773	763	764	770	9
760	762	767	775	9
760	762	763	773	9
775	767	766	768	9
774	765	766	768	9
792	793	794	795	9
792	793	794	800	9
792	797	796	795	9
792	797	796	798	9
793	794	795	796	9
793	794	795	804	9
793	794	800	801	9
793	794	800	802	9
793	792	797	796	9
793	792	797	805	9
793	792	790	791	9
794	793	792	797	9
794	793	792	790	9
794	795	796	797	9
794	795	796	798	9
795	794	793	803	9
795	794	800	801	9
795	794	800	802	9
795	796	797	805	9
795	796	798	799	9
796	795	794	800	9
796	797	792	790	9
797	796	795	804	9
797	796	798	799	9
797	792	793	803	9
797	792	790	791	9
804	795	796	798	9
805	797	796	798	9
790	792	793	803	9
790	792	797	805	9
803	793	794	800	9
804	795	794	800	9
4603	4602	4601	4604	9
4603	4602	4601	4607	9
4603	4606	4605	4604	9
4603	4606	4605	4612	9
4602	4601	4604	4605	9
4602	4601	4604	4610	9
4602	4601	4607	4608	9
4602	4603	4606	4605	9
4602	4603	4606	4611	9
4602	4603	4613	4615	9
4601	4602	4603	4606	9
4601	4602	4603	4613	9
4601	4604	4605	4606	9
4601	4604	4605	4612	9
4604	4601	4602	4609	9
4604	4601	4607	4608	9
4604	4605	4606	4611	9
4604	4605	4612	4614	9
4605	4604	4601	4607	9
4605	4606	4603	4613	9
4606	4605	4604	4610	9
4606	4605	4612	4614	9
4606	4603	4602	4609	9
4606	4603	4613	4615	9
4610	4604	4605	4612	9
4611	4606	4605	4612	9
4609	4602	4603	4613	9
4611	4606	4603	4613	9
4607	4601	4602	4609	9
4607	4601	4604	4610	9
4634	4635	4632	4631	9
4634	4635	4632	4642	9
4634	4633	4630	4631	9
4634	4633	4630	4636	9
4630	4631	4632	4635	9
4635	4632	4631	4638	9
4635	4632	4642	4644	9
4630	4633	4634	4635	9
4635	4634	4633	4639	9
4635	4634	4641	4643	9
4633	4634	4635	4632	9
4632	4635	4634	4641	9
4633	4630	4631	4632	9
4632	4631	4630	4636	9
4631	4632	4635	4640	9
4631	4632	4642	4644	9
4631	4630	4633	4639	9
4631	4630	4636	4637	9
4630	4631	4632	4642	9
4630	4633	4634	4641	9
4633	4630	4631	4638	9
4633	4630	4636	4637	9
4633	4634	4635	4640	9
4633	4634	4641	4643	9
4638	4631	4630	4636	9
4639	4633	4630	4636	9
4641	4634	4635	4640	9
4641	4634	4633	4639	9
4640	4635	4632	4642	9
4638	4631	4632	4642	9
4659	4660	4661	4664	9
4659	4660	4661	4671	9
4659	4662	4663	4664	9
4659	4662	4663	4670	9
4663	4664	4661	4660	9
4660	4661	4664	4669	9
4660	4661	4671	4673	9
4663	4662	4659	4660	9
4660	4659	4662	4668	9
4660	4659	4665	4666	9
4662	4659	4660	4661	9
4661	4660	4659	4665	9
4662	4663	4664	4661	9
4661	4664	4663	4670	9
4664	4661	4660	4667	9
4664	4661	4671	4673	9
4664	4663	4662	4668	9
4664	4663	4670	4672	9
4663	4664	4661	4671	9
4663	4662	4659	4665	9
4662	4663	4664	4669	9
4662	4663	4670	4672	9
4662	4659	4660	4667	9
4662	4659	4665	4666	9
4669	4664	4663	4670	9
4668	4662	4663	4670	9
4665	4659	4660	4667	9
4665	4659	4662	4668	9
4667	4660	4661	4671	9
4669	4664	4661	4671	9
38	37	36	41	9
38	37	36	34	9
38	39	40	41	9
38	39	40	42	9
40	41	36	37	9
37	36	41	50	9
37	36	34	35	9
37	36	34	33	9
40	39	38	37	9
37	38	39	49	9
37	38	44	45	9
37	38	44	46	9
39	38	37	36	9
36	37	38	44	9
39	40	41	36	9
36	41	40	42	9
36	34	33	47	9
41	36	37	48	9
41	36	34	35	9
41	36	34	33	9
41	40	39	49	9
41	40	42	43	9
40	41	36	34	9
40	39	38	44	9
39	40	41	50	9
39	40	42	43	9
39	38	37	48	9
39	38	44	45	9
39	38	44	46	9
42	40	41	50	9
42	40	39	49	9
48	37	38	44	9
49	39	38	44	9
48	37	36	34	9
50	41	36	34	9
35	34	33	47	9
4688	4689	4690	4693	9
4688	4689	4690	4700	9
4688	4691	4692	4693	9
4688	4691	4692	4699	9
4689	4690	4693	4692	9
4689	4690	4693	4698	9
4689	4690	4700	4702	9
4689	4688	4691	4692	9
4689	4688	4691	4697	9
4689	4688	4694	4695	9
4690	4689	4688	4691	9
4690	4689	4688	4694	9
4690	4693	4692	4691	9
4690	4693	4692	4699	9
4693	4690	4689	4696	9
4693	4690	4700	4702	9
4693	4692	4691	4697	9
4693	4692	4699	4701	9
4692	4693	4690	4700	9
4692	4691	4688	4694	9
4691	4692	4693	4698	9
4691	4692	4699	4701	9
4691	4688	4689	4696	9
4691	4688	4694	4695	9
4698	4693	4692	4699	9
4697	4691	4692	4699	9
4694	4688	4689	4696	9
4694	4688	4691	4697	9
4696	4689	4690	4700	9
4698	4693	4690	4700	9
4717	4720	4721	4722	9
4717	4720	4721	4728	9
4717	4718	4719	4722	9
4717	4718	4719	4729	9
4719	4722	4721	4720	9
4720	4721	4722	4727	9
4720	4721	4728	4730	9
4719	4718	4717	4720	9
4720	4717	4718	4725	9
4720	4717	4723	4724	9
4718	4717	4720	4721	9
4721	4720	4717	4723	9
4718	4719	4722	4721	9
4721	4722	4719	4729	9
4722	4721	4720	4726	9
4722	4721	4728	4730	9
4722	4719	4718	4725	9
4722	4719	4729	4731	9
4719	4722	4721	4728	9
4719	4718	4717	4723	9
4718	4719	4722	4727	9
4718	4719	4729	4731	9
4718	4717	4720	4726	9
4718	4717	4723	4724	9
4727	4722	4719	4729	9
4725	4718	4719	4729	9
4723	4717	4720	4726	9
4723	4717	4718	4725	9
4726	4720	4721	4728	9
4727	4722	4721	4728	9
808	807	806	809	9
808	807	806	812	9
808	811	810	809	9
808	811	810	817	9
808	818	821	822	9
807	806	809	810	9
807	806	809	815	9
807	806	812	813	9
807	808	811	810	9
807	808	811	816	9
807	808	818	820	9
807	808	818	821	9
806	807	808	811	9
806	807	808	818	9
806	809	810	811	9
806	809	810	817	9
809	806	807	814	9
809	806	812	813	9
809	810	811	816	9
809	810	817	819	9
810	809	806	812	9
810	811	808	818	9
811	810	809	815	9
811	810	817	819	9
811	808	807	814	9
811	808	818	820	9
811	808	818	821	9
815	809	810	817	9
816	811	810	817	9
814	807	808	818	9
816	811	808	818	9
812	806	807	814	9
812	806	809	815	9
820	818	821	822	9
4746	4749	4750	4751	9
4746	4749	4750	4757	9
4746	4747	4748	4751	9
4746	4747	4748	4758	9
4748	4751	4750	4749	9
4749	4750	4751	4756	9
4749	4750	4757	4759	9
4748	4747	4746	4749	9
4749	4746	4747	4754	9
4749	4746	4752	4753	9
4747	4746	4749	4750	9
4750	4749	4746	4752	9
4747	4748	4751	4750	9
4750	4751	4748	4758	9
4751	4750	4749	4755	9
4751	4750	4757	4759	9
4751	4748	4747	4754	9
4751	4748	4758	4760	9
4748	4751	4750	4757	9
4748	4747	4746	4752	9
4747	4748	4751	4756	9
4747	4748	4758	4760	9
4747	4746	4749	4755	9
4747	4746	4752	4753	9
4756	4751	4748	4758	9
4754	4747	4748	4758	9
4752	4746	4749	4755	9
4752	4746	4747	4754	9
4755	4749	4750	4757	9
4756	4751	4750	4757	9
4775	4778	4779	4780	9
4775	4778	4779	4786	9
4775	4776	4777	4780	9
4775	4776	4777	4787	9
4777	4780	4779	4778	9
4778	4779	4780	4785	9
4778	4779	4786	4788	9
4777	4776	4775	4778	9
4778	4775	4776	4783	9
4778	4775	4781	4782	9
4776	4775	4778	4779	9
4779	4778	4775	4781	9
4776	4777	4780	4779	9
4779	4780	4777	4787	9
4780	4779	4778	4784	9
4780	4779	4786	4788	9
4780	4777	4776	4783	9
4780	4777	4787	4789	9
4777	4780	4779	4786	9
4777	4776	4775	4781	9
4776	4777	4780	4785	9
4776	4777	4787	4789	9
4776	4775	4778	4784	9
4776	4775	4781	4782	9
4785	4780	4777	4787	9
4783	4776	4777	4787	9
4781	4775	4778	4784	9
4781	4775	4776	4783	9
4784	4778	4779	4786	9
4785	4780	4779	4786	9
855	856	857	858	9
855	856	857	859	9
855	854	853	858	9
855	854	853	851	9
853	858	857	856	9
856	857	858	866	9
856	857	859	860	9
853	854	855	856	9
856	855	854	864	9
856	855	861	862	9
856	855	861	863	9
854	855	856	857	9
857	856	855	861	9
854	853	858	857	9
857	858	853	851	9
858	857	856	865	9
858	857	859	860	9
858	853	854	864	9
858	853	851	852	9
853	858	857	859	9
853	854	855	861	9
854	853	858	866	9
854	853	851	852	9
854	855	856	865	9
854	855	861	862	9
854	855	861	863	9
851	853	858	866	9
851	853	854	864	9
865	856	855	861	9
864	854	855	861	9
865	856	857	859	9
866	858	857	859	9
4804	4807	4808	4809	9
4804	4807	4808	4815	9
4804	4805	4806	4809	9
4804	4805	4806	4816	9
4806	4809	4808	4807	9
4807	4808	4809	4814	9
4807	4808	4815	4817	9
4806	4805	4804	4807	9
4807	4804	4805	4812	9
4807	4804	4810	4811	9
4805	4804	4807	4808	9
4808	4807	4804	4810	9
4805	4806	4809	4808	9
4808	4809	4806	4816	9
4809	4808	4807	4813	9
4809	4808	4815	4817	9
4809	4806	4805	4812	9
4809	4806	4816	4818	9
4806	4809	4808	4815	9
4806	4805	4804	4810	9
4805	4806	4809	4814	9
4805	4806	4816	4818	9
4805	4804	4807	4813	9
4805	4804	4810	4811	9
4814	4809	4806	4816	9
4812	4805	4806	4816	9
4810	4804	4807	4813	9
4810	4804	4805	4812	9
4813	4807	4808	4815	9
4814	4809	4808	4815	9
4819	4822	4823	4824	9
4819	4822	4823	4830	9
4819	4820	4821	4824	9
4819	4820	4821	4831	9
4821	4824	4823	4822	9
4822	4823	4824	4829	9
4822	4823	4830	4832	9
4821	4820	4819	4822	9
4822	4819	4820	4827	9
4822	4819	4825	4826	9
4820	4819	4822	4823	9
4823	4822	4819	4825	9
4820	4821	4824	4823	9
4823	4824	4821	4831	9
4824	4823	4822	4828	9
4824	4823	4830	4832	9
4824	4821	4820	4827	9
4824	4821	4831	4833	9
4821	4824	4823	4830	9
4821	4820	4819	4825	9
4820	4821	4824	4829	9
4820	4821	4831	4833	9
4820	4819	4822	4828	9
4820	4819	4825	4826	9
4829	4824	4821	4831	9
4827	4820	4821	4831	9
4825	4819	4822	4828	9
4825	4819	4820	4827	9
4828	4822	4823	4830	9
4829	4824	4823	4830	9
4848	4849	4850	4853	9
4848	4849	4850	4860	9
4848	4851	4852	4853	9
4848	4851	4852	4859	9
4852	4853	4850	4849	9
4849	4850	4853	4858	9
4849	4850	4860	4862	9
4852	4851	4848	4849	9
4849	4848	4851	4857	9
4849	4848	4854	4855	9
4851	4848	4849	4850	9
4850	4849	4848	4854	9
4851	4852	4853	4850	9
4850	4853	4852	4859	9
4853	4850	4849	4856	9
4853	4850	4860	4862	9
4853	4852	4851	4857	9
4853	4852	4859	4861	9
4852	4853	4850	4860	9
4852	4851	4848	4854	9
4851	4852	4853	4858	9
4851	4852	4859	4861	9
4851	4848	4849	4856	9
4851	4848	4854	4855	9
4858	4853	4852	4859	9
4857	4851	4852	4859	9
4854	4848	4849	4856	9
4854	4848	4851	4857	9
4856	4849	4850	4860	9
4858	4853	4850	4860	9
4877	4880	4881	4882	9
4877	4880	4881	4888	9
4877	4878	4879	4882	9
4877	4878	4879	4889	9
4880	4881	4882	4879	9
4880	4881	4882	4887	9
4880	4881	4888	4890	9
4880	4877	4878	4879	9
4880	4877	4878	4885	9
4880	4877	4883	4884	9
4881	4880	4877	4878	9
4881	4880	4877	4883	9
4881	4882	4879	4878	9
4881	4882	4879	4889	9
4882	4881	4880	4886	9
4882	4881	4888	4890	9
4882	4879	4878	4885	9
4882	4879	4889	4891	9
4879	4882	4881	4888	9
4879	4878	4877	4883	9
4878	4879	4882	4887	9
4878	4879	4889	4891	9
4878	4877	4880	4886	9
4878	4877	4883	4884	9
4887	4882	4879	4889	9
4885	4878	4879	4889	9
4883	4877	4880	4886	9
4883	4877	4878	4885	9
4886	4880	4881	4888	9
4887	4882	4881	4888	9
4906	4907	4908	4911	9
4906	4907	4908	4918	9
4906	4909	4910	4911	9
4906	4909	4910	4917	9
4907	4908	4911	4910	9
4907	4908	4911	4916	9
4907	4908	4918	4920	9
4907	4906	4909	4910	9
4907	4906	4909	4915	9
4907	4906	4912	4913	9
4908	4907	4906	4909	9
4908	4907	4906	4912	9
4908	4911	4910	4909	9
4908	4911	4910	4917	9
4911	4908	4907	4914	9
4911	4908	4918	4920	9
4911	4910	4909	4915	9
4911	4910	4917	4919	9
4910	4911	4908	4918	9
4910	4909	4906	4912	9
4909	4910	4911	4916	9
4909	4910	4917	4919	9
4909	4906	4907	4914	9
4909	4906	4912	4913	9
4916	4911	4910	4917	9
4915	4909	4910	4917	9
4912	4906	4907	4914	9
4912	4906	4909	4915	9
4914	4907	4908	4918	9
4916	4911	4908	4918	9
867	870	871	872	9
867	870	871	878	9
867	868	869	872	9
867	868	869	879	9
869	872	871	870	9
870	871	872	877	9
870	871	878	880	9
869	868	867	870	9
870	867	868	875	9
870	867	873	874	9
868	867	870	871	9
871	870	867	873	9
868	869	872	871	9
871	872	869	879	9
872	871	870	876	9
872	871	878	880	9
872	869	868	875	9
872	869	879	881	9
872	869	879	882	9
869	872	871	878	9
869	868	867	873	9
869	879	882	883	9
868	869	872	877	9
868	869	879	881	9
868	869	879	882	9
868	867	870	876	9
868	867	873	874	9
877	872	869	879	9
875	868	869	879	9
873	867	870	876	9
873	867	868	875	9
876	870	871	878	9
877	872	871	878	9
881	879	882	883	9
4935	4936	4937	4940	9
4935	4936	4937	4947	9
4935	4938	4939	4940	9
4935	4938	4939	4946	9
4936	4937	4940	4939	9
4936	4937	4940	4945	9
4936	4937	4947	4949	9
4936	4935	4938	4939	9
4936	4935	4938	4944	9
4936	4935	4941	4942	9
4937	4936	4935	4938	9
4937	4936	4935	4941	9
4937	4940	4939	4938	9
4937	4940	4939	4946	9
4940	4937	4936	4943	9
4940	4937	4947	4949	9
4940	4939	4938	4944	9
4940	4939	4946	4948	9
4939	4940	4937	4947	9
4939	4938	4935	4941	9
4938	4939	4940	4945	9
4938	4939	4946	4948	9
4938	4935	4936	4943	9
4938	4935	4941	4942	9
4945	4940	4939	4946	9
4944	4938	4939	4946	9
4941	4935	4936	4943	9
4941	4935	4938	4944	9
4943	4936	4937	4947	9
4945	4940	4937	4947	9
914	919	918	917	9
914	919	918	920	9
914	915	916	917	9
914	915	916	922	9
916	917	918	919	9
919	918	917	926	9
919	918	920	921	9
916	915	914	919	9
919	914	915	925	9
919	914	912	913	9
915	914	919	918	9
918	919	914	912	9
915	916	917	918	9
918	917	916	922	9
917	918	919	927	9
917	918	920	921	9
917	916	915	925	9
917	916	922	923	9
917	916	922	924	9
916	917	918	920	9
916	915	914	912	9
915	916	917	926	9
915	916	922	923	9
915	916	922	924	9
915	914	919	927	9
915	914	912	913	9
926	917	916	922	9
925	915	916	922	9
912	914	919	927	9
912	914	915	925	9
927	919	918	920	9
926	917	918	920	9
4950	4951	4952	4955	9
4950	4951	4952	4962	9
4950	4953	4954	4955	9
4950	4953	4954	4961	9
4951	4952	4955	4954	9
4951	4952	4955	4960	9
4951	4952	4962	4964	9
4951	4950	4953	4954	9
4951	4950	4953	4959	9
4951	4950	4956	4957	9
4952	4951	4950	4953	9
4952	4951	4950	4956	9
4952	4955	4954	4953	9
4952	4955	4954	4961	9
4955	4952	4951	4958	9
4955	4952	4962	4964	9
4955	4954	4953	4959	9
4955	4954	4961	4963	9
4954	4955	4952	4962	9
4954	4953	4950	4956	9
4953	4954	4955	4960	9
4953	4954	4961	4963	9
4953	4950	4951	4958	9
4953	4950	4956	4957	9
4960	4955	4954	4961	9
4959	4953	4954	4961	9
4956	4950	4951	4958	9
4956	4950	4953	4959	9
4958	4951	4952	4962	9
4960	4955	4952	4962	9
4979	4980	4981	4984	9
4979	4980	4981	4991	9
4979	4982	4983	4984	9
4979	4982	4983	4990	9
4980	4981	4984	4983	9
4980	4981	4984	4989	9
4980	4981	4991	4993	9
4980	4979	4982	4983	9
4980	4979	4982	4988	9
4980	4979	4985	4986	9
4981	4980	4979	4982	9
4981	4980	4979	4985	9
4981	4984	4983	4982	9
4981	4984	4983	4990	9
4984	4981	4980	4987	9
4984	4981	4991	4993	9
4984	4983	4982	4988	9
4984	4983	4990	4992	9
4983	4984	4981	4991	9
4983	4982	4979	4985	9
4982	4983	4984	4989	9
4982	4983	4990	4992	9
4982	4979	4980	4987	9
4982	4979	4985	4986	9
4989	4984	4983	4990	9
4988	4982	4983	4990	9
4985	4979	4980	4987	9
4985	4979	4982	4988	9
4987	4980	4981	4991	9
4989	4984	4981	4991	9
944	945	946	947	9
944	945	946	952	9
944	949	948	947	9
944	949	948	950	9
945	946	947	948	9
945	946	947	956	9
945	946	952	953	9
945	946	952	954	9
945	944	949	948	9
945	944	949	957	9
945	944	942	943	9
946	945	944	949	9
946	945	944	942	9
946	947	948	949	9
946	947	948	950	9
947	946	945	955	9
947	946	952	953	9
947	946	952	954	9
947	948	949	957	9
947	948	950	951	9
948	947	946	952	9
948	949	944	942	9
949	948	947	956	9
949	948	950	951	9
949	944	945	955	9
949	944	942	943	9
956	947	948	950	9
957	949	948	950	9
942	944	945	955	9
942	944	949	957	9
955	945	946	952	9
956	947	946	952	9
5008	5009	5010	5013	9
5008	5009	5010	5020	9
5008	5011	5012	5013	9
5008	5011	5012	5019	9
5009	5010	5013	5012	9
5009	5010	5013	5018	9
5009	5010	5020	5022	9
5009	5008	5011	5012	9
5009	5008	5011	5017	9
5009	5008	5014	5015	9
5010	5009	5008	5011	9
5010	5009	5008	5014	9
5010	5013	5012	5011	9
5010	5013	5012	5019	9
5013	5010	5009	5016	9
5013	5010	5020	5022	9
5013	5012	5011	5017	9
5013	5012	5019	5021	9
5012	5013	5010	5020	9
5012	5011	5008	5014	9
5011	5012	5013	5018	9
5011	5012	5019	5021	9
5011	5008	5009	5016	9
5011	5008	5014	5015	9
5018	5013	5012	5019	9
5017	5011	5012	5019	9
5014	5008	5009	5016	9
5014	5008	5011	5017	9
5016	5009	5010	5020	9
5018	5013	5010	5020	9
5023	5024	5025	5028	9
5023	5024	5025	5035	9
5023	5026	5027	5028	9
5023	5026	5027	5034	9
5024	5025	5028	5027	9
5024	5025	5028	5033	9
5024	5025	5035	5037	9
5024	5023	5026	5027	9
5024	5023	5026	5032	9
5024	5023	5029	5030	9
5025	5024	5023	5026	9
5025	5024	5023	5029	9
5025	5028	5027	5026	9
5025	5028	5027	5034	9
5028	5025	5024	5031	9
5028	5025	5035	5037	9
5028	5027	5026	5032	9
5028	5027	5034	5036	9
5027	5028	5025	5035	9
5027	5026	5023	5029	9
5026	5027	5028	5033	9
5026	5027	5034	5036	9
5026	5023	5024	5031	9
5026	5023	5029	5030	9
5033	5028	5027	5034	9
5032	5026	5027	5034	9
5029	5023	5024	5031	9
5029	5023	5026	5032	9
5031	5024	5025	5035	9
5033	5028	5025	5035	9
5052	5053	5054	5057	9
5052	5053	5054	5064	9
5052	5055	5056	5057	9
5052	5055	5056	5063	9
5056	5057	5054	5053	9
5053	5054	5057	5062	9
5053	5054	5064	5066	9
5056	5055	5052	5053	9
5053	5052	5055	5061	9
5053	5052	5058	5059	9
5055	5052	5053	5054	9
5054	5053	5052	5058	9
5055	5056	5057	5054	9
5054	5057	5056	5063	9
5057	5054	5053	5060	9
5057	5054	5064	5066	9
5057	5056	5055	5061	9
5057	5056	5063	5065	9
5056	5057	5054	5064	9
5056	5055	5052	5058	9
5055	5056	5057	5062	9
5055	5056	5063	5065	9
5055	5052	5053	5060	9
5055	5052	5058	5059	9
5062	5057	5056	5063	9
5061	5055	5056	5063	9
5058	5052	5053	5060	9
5058	5052	5055	5061	9
5060	5053	5054	5064	9
5062	5057	5054	5064	9
5081	5082	5083	5086	9
5081	5082	5083	5093	9
5081	5084	5085	5086	9
5081	5084	5085	5092	9
5085	5086	5083	5082	9
5082	5083	5086	5091	9
5082	5083	5093	5095	9
5085	5084	5081	5082	9
5082	5081	5084	5090	9
5082	5081	5087	5088	9
5084	5081	5082	5083	9
5083	5082	5081	5087	9
5084	5085	5086	5083	9
5083	5086	5085	5092	9
5086	5083	5082	5089	9
5086	5083	5093	5095	9
5086	5085	5084	5090	9
5086	5085	5092	5094	9
5085	5086	5083	5093	9
5085	5084	5081	5087	9
5084	5085	5086	5091	9
5084	5085	5092	5094	9
5084	5081	5082	5089	9
5084	5081	5087	5088	9
5091	5086	5085	5092	9
5090	5084	5085	5092	9
5087	5081	5082	5089	9
5087	5081	5084	5090	9
5089	5082	5083	5093	9
5091	5086	5083	5093	9
5110	5113	5114	5115	9
5110	5113	5114	5121	9
5110	5111	5112	5115	9
5110	5111	5112	5122	9
5112	5115	5114	5113	9
5113	5114	5115	5120	9
5113	5114	5121	5123	9
5112	5111	5110	5113	9
5113	5110	5111	5118	9
5113	5110	5116	5117	9
5111	5110	5113	5114	9
5114	5113	5110	5116	9
5111	5112	5115	5114	9
5114	5115	5112	5122	9
5115	5114	5113	5119	9
5115	5114	5121	5123	9
5115	5112	5111	5118	9
5115	5112	5122	5124	9
5112	5115	5114	5121	9
5112	5111	5110	5116	9
5111	5112	5115	5120	9
5111	5112	5122	5124	9
5111	5110	5113	5119	9
5111	5110	5116	5117	9
5120	5115	5112	5122	9
5118	5111	5112	5122	9
5116	5110	5113	5119	9
5116	5110	5111	5118	9
5119	5113	5114	5121	9
5120	5115	5114	5121	9
5139	5142	5143	5144	9
5139	5142	5143	5150	9
5139	5140	5141	5144	9
5139	5140	5141	5151	9
5141	5144	5143	5142	9
5142	5143	5144	5149	9
5142	5143	5150	5152	9
5141	5140	5139	5142	9
5142	5139	5140	5147	9
5142	5139	5145	5146	9
5140	5139	5142	5143	9
5143	5142	5139	5145	9
5140	5141	5144	5143	9
5143	5144	5141	5151	9
5144	5143	5142	5148	9
5144	5143	5150	5152	9
5144	5141	5140	5147	9
5144	5141	5151	5153	9
5141	5144	5143	5150	9
5141	5140	5139	5145	9
5140	5141	5144	5149	9
5140	5141	5151	5153	9
5140	5139	5142	5148	9
5140	5139	5145	5146	9
5149	5144	5141	5151	9
5147	5140	5141	5151	9
5145	5139	5142	5148	9
5145	5139	5140	5147	9
5148	5142	5143	5150	9
5149	5144	5143	5150	9
958	961	962	963	9
958	961	962	969	9
958	959	960	963	9
958	959	960	970	9
960	963	962	961	9
961	962	963	968	9
961	962	969	971	9
960	959	958	961	9
961	958	959	966	9
961	958	964	965	9
959	958	961	962	9
962	961	958	964	9
959	960	963	962	9
962	963	960	970	9
963	962	961	967	9
963	962	969	971	9
963	960	959	966	9
963	960	970	972	9
963	960	970	973	9
960	963	962	969	9
960	959	958	964	9
960	970	973	974	9
959	960	963	968	9
959	960	970	972	9
959	960	970	973	9
959	958	961	967	9
959	958	964	965	9
968	963	960	970	9
966	959	960	970	9
964	958	961	967	9
964	958	959	966	9
967	961	962	969	9
968	963	962	969	9
972	970	973	974	9
1005	1006	1007	1008	9
1005	1006	1007	1013	9
1005	1010	1009	1008	9
1005	1010	1009	1011	9
1006	1007	1008	1009	9
1006	1007	1008	1017	9
1006	1007	1013	1014	9
1006	1007	1013	1015	9
1006	1005	1010	1009	9
1006	1005	1010	1018	9
1006	1005	1003	1004	9
1007	1006	1005	1010	9
1007	1006	1005	1003	9
1007	1008	1009	1010	9
1007	1008	1009	1011	9
1008	1007	1006	1016	9
1008	1007	1013	1014	9
1008	1007	1013	1015	9
1008	1009	1010	1018	9
1008	1009	1011	1012	9
1009	1008	1007	1013	9
1009	1010	1005	1003	9
1010	1009	1008	1017	9
1010	1009	1011	1012	9
1010	1005	1006	1016	9
1010	1005	1003	1004	9
1017	1008	1009	1011	9
1018	1010	1009	1011	9
1003	1005	1006	1016	9
1003	1005	1010	1018	9
1016	1006	1007	1013	9
1017	1008	1007	1013	9
5168	5171	5172	5173	9
5168	5171	5172	5179	9
5168	5169	5170	5173	9
5168	5169	5170	5180	9
5170	5173	5172	5171	9
5171	5172	5173	5178	9
5171	5172	5179	5181	9
5170	5169	5168	5171	9
5171	5168	5169	5176	9
5171	5168	5174	5175	9
5169	5168	5171	5172	9
5172	5171	5168	5174	9
5169	5170	5173	5172	9
5172	5173	5170	5180	9
5173	5172	5171	5177	9
5173	5172	5179	5181	9
5173	5170	5169	5176	9
5173	5170	5180	5182	9
5170	5173	5172	5179	9
5170	5169	5168	5174	9
5169	5170	5173	5178	9
5169	5170	5180	5182	9
5169	5168	5171	5177	9
5169	5168	5174	5175	9
5178	5173	5170	5180	9
5176	5169	5170	5180	9
5174	5168	5171	5177	9
5174	5168	5169	5176	9
5177	5171	5172	5179	9
5178	5173	5172	5179	9
5197	5200	5201	5202	9
5197	5200	5201	5208	9
5197	5198	5199	5202	9
5197	5198	5199	5209	9
5199	5202	5201	5200	9
5200	5201	5202	5207	9
5200	5201	5208	5210	9
5199	5198	5197	5200	9
5200	5197	5198	5205	9
5200	5197	5203	5204	9
5198	5197	5200	5201	9
5201	5200	5197	5203	9
5198	5199	5202	5201	9
5201	5202	5199	5209	9
5202	5201	5200	5206	9
5202	5201	5208	5210	9
5202	5199	5198	5205	9
5202	5199	5209	5211	9
5199	5202	5201	5208	9
5199	5198	5197	5203	9
5198	5199	5202	5207	9
5198	5199	5209	5211	9
5198	5197	5200	5206	9
5198	5197	5203	5204	9
5207	5202	5199	5209	9
5205	5198	5199	5209	9
5203	5197	5200	5206	9
5203	5197	5198	5205	9
5206	5200	5201	5208	9
5207	5202	5201	5208	9
5226	5227	5228	5231	9
5226	5227	5228	5238	9
5226	5229	5230	5231	9
5226	5229	5230	5237	9
5227	5228	5231	5230	9
5227	5228	5231	5236	9
5227	5228	5238	5240	9
5227	5226	5229	5230	9
5227	5226	5229	5235	9
5227	5226	5232	5233	9
5228	5227	5226	5229	9
5228	5227	5226	5232	9
5228	5231	5230	5229	9
5228	5231	5230	5237	9
5231	5228	5227	5234	9
5231	5228	5238	5240	9
5231	5230	5229	5235	9
5231	5230	5237	5239	9
5230	5231	5228	5238	9
5230	5229	5226	5232	9
5229	5230	5231	5236	9
5229	5230	5237	5239	9
5229	5226	5227	5234	9
5229	5226	5232	5233	9
5236	5231	5230	5237	9
5235	5229	5230	5237	9
5232	5226	5227	5234	9
5232	5226	5229	5235	9
5234	5227	5228	5238	9
5236	5231	5228	5238	9
5255	5256	5257	5260	9
5255	5256	5257	5267	9
5255	5258	5259	5260	9
5255	5258	5259	5266	9
5256	5257	5260	5259	9
5256	5257	5260	5265	9
5256	5257	5267	5269	9
5256	5255	5258	5259	9
5256	5255	5258	5264	9
5256	5255	5261	5262	9
5257	5256	5255	5258	9
5257	5256	5255	5261	9
5257	5260	5259	5258	9
5257	5260	5259	5266	9
5260	5257	5256	5263	9
5260	5257	5267	5269	9
5260	5259	5258	5264	9
5260	5259	5266	5268	9
5259	5260	5257	5267	9
5259	5258	5255	5261	9
5258	5259	5260	5265	9
5258	5259	5266	5268	9
5258	5255	5256	5263	9
5258	5255	5261	5262	9
5265	5260	5259	5266	9
5264	5258	5259	5266	9
5261	5255	5256	5263	9
5261	5255	5258	5264	9
5263	5256	5257	5267	9
5265	5260	5257	5267	9
5284	5287	5288	5289	9
5284	5287	5288	5295	9
5284	5285	5286	5289	9
5284	5285	5286	5296	9
5287	5288	5289	5286	9
5287	5288	5289	5294	9
5287	5288	5295	5297	9
5287	5284	5285	5286	9
5287	5284	5285	5292	9
5287	5284	5290	5291	9
5288	5287	5284	5285	9
5288	5287	5284	5290	9
5288	5289	5286	5285	9
5288	5289	5286	5296	9
5289	5288	5287	5293	9
5289	5288	5295	5297	9
5289	5286	5285	5292	9
5289	5286	5296	5298	9
5286	5289	5288	5295	9
5286	5285	5284	5290	9
5285	5286	5289	5294	9
5285	5286	5296	5298	9
5285	5284	5287	5293	9
5285	5284	5290	5291	9
5294	5289	5286	5296	9
5292	5285	5286	5296	9
5290	5284	5287	5293	9
5290	5284	5285	5292	9
5293	5287	5288	5295	9
5294	5289	5288	5295	9
5299	5302	5303	5304	9
5299	5302	5303	5310	9
5299	5300	5301	5304	9
5299	5300	5301	5311	9
5302	5303	5304	5301	9
5302	5303	5304	5309	9
5302	5303	5310	5312	9
5302	5299	5300	5301	9
5302	5299	5300	5307	9
5302	5299	5305	5306	9
5303	5302	5299	5300	9
5303	5302	5299	5305	9
5303	5304	5301	5300	9
5303	5304	5301	5311	9
5304	5303	5302	5308	9
5304	5303	5310	5312	9
5304	5301	5300	5307	9
5304	5301	5311	5313	9
5301	5304	5303	5310	9
5301	5300	5299	5305	9
5300	5301	5304	5309	9
5300	5301	5311	5313	9
5300	5299	5302	5308	9
5300	5299	5305	5306	9
5309	5304	5301	5311	9
5307	5300	5301	5311	9
5305	5299	5302	5308	9
5305	5299	5300	5307	9
5308	5302	5303	5310	9
5309	5304	5303	5310	9
5328	5331	5332	5333	9
5328	5331	5332	5339	9
5328	5329	5330	5333	9
5328	5329	5330	5340	9
5330	5333	5332	5331	9
5331	5332	5333	5338	9
5331	5332	5339	5341	9
5330	5329	5328	5331	9
5331	5328	5329	5336	9
5331	5328	5334	5335	9
5329	5328	5331	5332	9
5332	5331	5328	5334	9
5329	5330	5333	5332	9
5332	5333	5330	5340	9
5333	5332	5331	5337	9
5333	5332	5339	5341	9
5333	5330	5329	5336	9
5333	5330	5340	5342	9
5330	5333	5332	5339	9
5330	5329	5328	5334	9
5329	5330	5333	5338	9
5329	5330	5340	5342	9
5329	5328	5331	5337	9
5329	5328	5334	5335	9
5338	5333	5330	5340	9
5336	5329	5330	5340	9
5334	5328	5331	5337	9
5334	5328	5329	5336	9
5337	5331	5332	5339	9
5338	5333	5332	5339	9
5357	5360	5361	5362	9
5357	5360	5361	5368	9
5357	5358	5359	5362	9
5357	5358	5359	5369	9
5359	5362	5361	5360	9
5360	5361	5362	5367	9
5360	5361	5368	5370	9
5359	5358	5357	5360	9
5360	5357	5358	5365	9
5360	5357	5363	5364	9
5358	5357	5360	5361	9
5361	5360	5357	5363	9
5358	5359	5362	5361	9
5361	5362	5359	5369	9
5362	5361	5360	5366	9
5362	5361	5368	5370	9
5362	5359	5358	5365	9
5362	5359	5369	5371	9
5359	5362	5361	5368	9
5359	5358	5357	5363	9
5358	5359	5362	5367	9
5358	5359	5369	5371	9
5358	5357	5360	5366	9
5358	5357	5363	5364	9
5367	5362	5359	5369	9
5365	5358	5359	5369	9
5363	5357	5360	5366	9
5363	5357	5358	5365	9
5366	5360	5361	5368	9
5367	5362	5361	5368	9
5386	5389	5390	5391	9
5386	5389	5390	5397	9
5386	5387	5388	5391	9
5386	5387	5388	5398	9
5388	5391	5390	5389	9
5389	5390	5391	5396	9
5389	5390	5397	5399	9
5388	5387	5386	5389	9
5389	5386	5387	5394	9
5389	5386	5392	5393	9
5387	5386	5389	5390	9
5390	5389	5386	5392	9
5387	5388	5391	5390	9
5390	5391	5388	5398	9
5391	5390	5389	5395	9
5391	5390	5397	5399	9
5391	5388	5387	5394	9
5391	5388	5398	5400	9
5388	5391	5390	5397	9
5388	5387	5386	5392	9
5387	5388	5391	5396	9
5387	5388	5398	5400	9
5387	5386	5389	5395	9
5387	5386	5392	5393	9
5396	5391	5388	5398	9
5394	5387	5388	5398	9
5392	5386	5389	5395	9
5392	5386	5387	5394	9
5395	5389	5390	5397	9
5396	5391	5390	5397	9
5415	5418	5419	5420	9
5415	5418	5419	5426	9
5415	5416	5417	5420	9
5415	5416	5417	5427	9
5417	5420	5419	5418	9
5418	5419	5420	5425	9
5418	5419	5426	5428	9
5417	5416	5415	5418	9
5418	5415	5416	5423	9
5418	5415	5421	5422	9
5416	5415	5418	5419	9
5419	5418	5415	5421	9
5416	5417	5420	5419	9
5419	5420	5417	5427	9
5420	5419	5418	5424	9
5420	5419	5426	5428	9
5420	5417	5416	5423	9
5420	5417	5427	5429	9
5417	5420	5419	5426	9
5417	5416	5415	5421	9
5416	5417	5420	5425	9
5416	5417	5427	5429	9
5416	5415	5418	5424	9
5416	5415	5421	5422	9
5425	5420	5417	5427	9
5423	5416	5417	5427	9
5421	5415	5418	5424	9
5421	5415	5416	5423	9
5424	5418	5419	5426	9
5425	5420	5419	5426	9
5430	5431	5432	5435	9
5430	5431	5432	5442	9
5430	5433	5434	5435	9
5430	5433	5434	5441	9
5431	5432	5435	5434	9
5431	5432	5435	5440	9
5431	5432	5442	5444	9
5431	5430	5433	5434	9
5431	5430	5433	5439	9
5431	5430	5436	5437	9
5432	5431	5430	5433	9
5432	5431	5430	5436	9
5432	5435	5434	5433	9
5432	5435	5434	5441	9
5435	5432	5431	5438	9
5435	5432	5442	5444	9
5435	5434	5433	5439	9
5435	5434	5441	5443	9
5434	5435	5432	5442	9
5434	5433	5430	5436	9
5433	5434	5435	5440	9
5433	5434	5441	5443	9
5433	5430	5431	5438	9
5433	5430	5436	5437	9
5440	5435	5434	5441	9
5439	5433	5434	5441	9
5436	5430	5431	5438	9
5436	5430	5433	5439	9
5438	5431	5432	5442	9
5440	5435	5432	5442	9
5459	5460	5461	5464	9
5459	5460	5461	5471	9
5459	5462	5463	5464	9
5459	5462	5463	5470	9
5460	5461	5464	5463	9
5460	5461	5464	5469	9
5460	5461	5471	5473	9
5460	5459	5462	5463	9
5460	5459	5462	5468	9
5460	5459	5465	5466	9
5461	5460	5459	5462	9
5461	5460	5459	5465	9
5461	5464	5463	5462	9
5461	5464	5463	5470	9
5464	5461	5460	5467	9
5464	5461	5471	5473	9
5464	5463	5462	5468	9
5464	5463	5470	5472	9
5463	5464	5461	5471	9
5463	5462	5459	5465	9
5462	5463	5464	5469	9
5462	5463	5470	5472	9
5462	5459	5460	5467	9
5462	5459	5465	5466	9
5469	5464	5463	5470	9
5468	5462	5463	5470	9
5465	5459	5460	5467	9
5465	5459	5462	5468	9
5467	5460	5461	5471	9
5469	5464	5461	5471	9
5488	5491	5492	5493	9
5488	5491	5492	5499	9
5488	5489	5490	5493	9
5488	5489	5490	5500	9
5491	5492	5493	5490	9
5491	5492	5493	5498	9
5491	5492	5499	5501	9
5491	5488	5489	5490	9
5491	5488	5489	5496	9
5491	5488	5494	5495	9
5492	5491	5488	5489	9
5492	5491	5488	5494	9
5492	5493	5490	5489	9
5492	5493	5490	5500	9
5493	5492	5491	5497	9
5493	5492	5499	5501	9
5493	5490	5489	5496	9
5493	5490	5500	5502	9
5490	5493	5492	5499	9
5490	5489	5488	5494	9
5489	5490	5493	5498	9
5489	5490	5500	5502	9
5489	5488	5491	5497	9
5489	5488	5494	5495	9
5498	5493	5490	5500	9
5496	5489	5490	5500	9
5494	5488	5491	5497	9
5494	5488	5489	5496	9
5497	5491	5492	5499	9
5498	5493	5492	5499	9
1035	1040	1039	1038	9
1035	1040	1039	1041	9
1035	1036	1037	1038	9
1035	1036	1037	1043	9
1037	1038	1039	1040	9
1040	1039	1038	1047	9
1040	1039	1041	1042	9
1037	1036	1035	1040	9
1040	1035	1036	1046	9
1040	1035	1033	1034	9
1036	1035	1040	1039	9
1039	1040	1035	1033	9
1036	1037	1038	1039	9
1039	1038	1037	1043	9
1038	1039	1040	1048	9
1038	1039	1041	1042	9
1038	1037	1036	1046	9
1038	1037	1043	1044	9
1038	1037	1043	1045	9
1037	1038	1039	1041	9
1037	1036	1035	1033	9
1036	1037	1038	1047	9
1036	1037	1043	1044	9
1036	1037	1043	1045	9
1036	1035	1040	1048	9
1036	1035	1033	1034	9
1047	1038	1037	1043	9
1046	1036	1037	1043	9
1033	1035	1040	1048	9
1033	1035	1036	1046	9
1048	1040	1039	1041	9
1047	1038	1039	1041	9
5517	5520	5521	5522	9
5517	5520	5521	5528	9
5517	5518	5519	5522	9
5517	5518	5519	5529	9
5520	5521	5522	5519	9
5520	5521	5522	5527	9
5520	5521	5528	5530	9
5520	5517	5518	5519	9
5520	5517	5518	5525	9
5520	5517	5523	5524	9
5521	5520	5517	5518	9
5521	5520	5517	5523	9
5521	5522	5519	5518	9
5521	5522	5519	5529	9
5522	5521	5520	5526	9
5522	5521	5528	5530	9
5522	5519	5518	5525	9
5522	5519	5529	5531	9
5519	5522	5521	5528	9
5519	5518	5517	5523	9
5518	5519	5522	5527	9
5518	5519	5529	5531	9
5518	5517	5520	5526	9
5518	5517	5523	5524	9
5527	5522	5519	5529	9
5525	5518	5519	5529	9
5523	5517	5520	5526	9
5523	5517	5518	5525	9
5526	5520	5521	5528	9
5527	5522	5521	5528	9
5534	5533	5532	5535	9
5534	5533	5532	5538	9
5534	5537	5536	5535	9
5534	5537	5536	5543	9
5533	5532	5535	5536	9
5533	5532	5535	5541	9
5533	5532	5538	5539	9
5533	5534	5537	5536	9
5533	5534	5537	5542	9
5533	5534	5544	5546	9
5532	5533	5534	5537	9
5532	5533	5534	5544	9
5532	5535	5536	5537	9
5532	5535	5536	5543	9
5535	5532	5533	5540	9
5535	5532	5538	5539	9
5535	5536	5537	5542	9
5535	5536	5543	5545	9
5536	5535	5532	5538	9
5536	5537	5534	5544	9
5537	5536	5535	5541	9
5537	5536	5543	5545	9
5537	5534	5533	5540	9
5537	5534	5544	5546	9
5541	5535	5536	5543	9
5542	5537	5536	5543	9
5540	5533	5534	5544	9
5542	5537	5534	5544	9
5538	5532	5533	5540	9
5538	5532	5535	5541	9
5547	5550	5551	5552	9
5547	5550	5551	5558	9
5547	5548	5549	5552	9
5547	5548	5549	5559	9
5549	5552	5551	5550	9
5550	5551	5552	5557	9
5550	5551	5558	5560	9
5549	5548	5547	5550	9
5550	5547	5548	5555	9
5550	5547	5553	5554	9
5548	5547	5550	5551	9
5551	5550	5547	5553	9
5548	5549	5552	5551	9
5551	5552	5549	5559	9
5552	5551	5550	5556	9
5552	5551	5558	5560	9
5552	5549	5548	5555	9
5552	5549	5559	5561	9
5549	5552	5551	5558	9
5549	5548	5547	5553	9
5548	5549	5552	5557	9
5548	5549	5559	5561	9
5548	5547	5550	5556	9
5548	5547	5553	5554	9
5557	5552	5549	5559	9
5555	5548	5549	5559	9
5553	5547	5550	5556	9
5553	5547	5548	5555	9
5556	5550	5551	5558	9
5557	5552	5551	5558	9
5576	5579	5580	5581	9
5576	5579	5580	5587	9
5576	5577	5578	5581	9
5576	5577	5578	5588	9
5578	5581	5580	5579	9
5579	5580	5581	5586	9
5579	5580	5587	5589	9
5578	5577	5576	5579	9
5579	5576	5577	5584	9
5579	5576	5582	5583	9
5577	5576	5579	5580	9
5580	5579	5576	5582	9
5577	5578	5581	5580	9
5580	5581	5578	5588	9
5581	5580	5579	5585	9
5581	5580	5587	5589	9
5581	5578	5577	5584	9
5581	5578	5588	5590	9
5578	5581	5580	5587	9
5578	5577	5576	5582	9
5577	5578	5581	5586	9
5577	5578	5588	5590	9
5577	5576	5579	5585	9
5577	5576	5582	5583	9
5586	5581	5578	5588	9
5584	5577	5578	5588	9
5582	5576	5579	5585	9
5582	5576	5577	5584	9
5585	5579	5580	5587	9
5586	5581	5580	5587	9
1049	1050	1051	1054	9
1049	1050	1051	1061	9
1049	1052	1053	1054	9
1049	1052	1053	1060	9
1050	1051	1054	1053	9
1050	1051	1054	1059	9
1050	1051	1061	1063	9
1050	1051	1061	1064	9
1050	1049	1052	1053	9
1050	1049	1052	1058	9
1050	1049	1055	1056	9
1051	1050	1049	1052	9
1051	1050	1049	1055	9
1051	1054	1053	1052	9
1051	1054	1053	1060	9
1051	1061	1064	1065	9
1054	1051	1050	1057	9
1054	1051	1061	1063	9
1054	1051	1061	1064	9
1054	1053	1052	1058	9
1054	1053	1060	1062	9
1053	1054	1051	1061	9
1053	1052	1049	1055	9
1052	1053	1054	1059	9
1052	1053	1060	1062	9
1052	1049	1050	1057	9
1052	1049	1055	1056	9
1059	1054	1053	1060	9
1058	1052	1053	1060	9
1055	1049	1050	1057	9
1055	1049	1052	1058	9
1057	1050	1051	1061	9
1059	1054	1051	1061	9
1063	1061	1064	1065	9
5591	5594	5595	5596	9
5591	5594	5595	5602	9
5591	5592	5593	5596	9
5591	5592	5593	5603	9
5593	5596	5595	5594	9
5594	5595	5596	5601	9
5594	5595	5602	5604	9
5593	5592	5591	5594	9
5594	5591	5592	5599	9
5594	5591	5597	5598	9
5592	5591	5594	5595	9
5595	5594	5591	5597	9
5592	5593	5596	5595	9
5595	5596	5593	5603	9
5596	5595	5594	5600	9
5596	5595	5602	5604	9
5596	5593	5592	5599	9
5596	5593	5603	5605	9
5593	5596	5595	5602	9
5593	5592	5591	5597	9
5592	5593	5596	5601	9
5592	5593	5603	5605	9
5592	5591	5594	5600	9
5592	5591	5597	5598	9
5601	5596	5593	5603	9
5599	5592	5593	5603	9
5597	5591	5594	5600	9
5597	5591	5592	5599	9
5600	5594	5595	5602	9
5601	5596	5595	5602	9
1080	1081	1082	1085	9
1080	1081	1082	1092	9
1080	1083	1084	1085	9
1080	1083	1084	1091	9
1081	1082	1085	1084	9
1081	1082	1085	1090	9
1081	1082	1092	1094	9
1081	1082	1092	1095	9
1081	1080	1083	1084	9
1081	1080	1083	1089	9
1081	1080	1086	1087	9
1082	1081	1080	1083	9
1082	1081	1080	1086	9
1082	1085	1084	1083	9
1082	1085	1084	1091	9
1082	1092	1095	1096	9
1085	1082	1081	1088	9
1085	1082	1092	1094	9
1085	1082	1092	1095	9
1085	1084	1083	1089	9
1085	1084	1091	1093	9
1084	1085	1082	1092	9
1084	1083	1080	1086	9
1083	1084	1085	1090	9
1083	1084	1091	1093	9
1083	1080	1081	1088	9
1083	1080	1086	1087	9
1090	1085	1084	1091	9
1089	1083	1084	1091	9
1086	1080	1081	1088	9
1086	1080	1083	1089	9
1088	1081	1082	1092	9
1090	1085	1082	1092	9
1094	1092	1095	1096	9
5620	5623	5624	5625	9
5620	5623	5624	5631	9
5620	5621	5622	5625	9
5620	5621	5622	5632	9
5622	5625	5624	5623	9
5623	5624	5625	5630	9
5623	5624	5631	5633	9
5622	5621	5620	5623	9
5623	5620	5621	5628	9
5623	5620	5626	5627	9
5621	5620	5623	5624	9
5624	5623	5620	5626	9
5621	5622	5625	5624	9
5624	5625	5622	5632	9
5625	5624	5623	5629	9
5625	5624	5631	5633	9
5625	5622	5621	5628	9
5625	5622	5632	5634	9
5622	5625	5624	5631	9
5622	5621	5620	5626	9
5621	5622	5625	5630	9
5621	5622	5632	5634	9
5621	5620	5623	5629	9
5621	5620	5626	5627	9
5630	5625	5622	5632	9
5628	5621	5622	5632	9
5626	5620	5623	5629	9
5626	5620	5621	5628	9
5629	5623	5624	5631	9
5630	5625	5624	5631	9
1113	1112	1111	1114	9
1113	1112	1111	1117	9
1113	1116	1115	1114	9
1113	1116	1115	1122	9
1113	1123	1126	1127	9
1112	1111	1114	1115	9
1112	1111	1114	1120	9
1112	1111	1117	1118	9
1112	1113	1116	1115	9
1112	1113	1116	1121	9
1112	1113	1123	1125	9
1112	1113	1123	1126	9
1111	1112	1113	1116	9
1111	1112	1113	1123	9
1111	1114	1115	1116	9
1111	1114	1115	1122	9
1114	1111	1112	1119	9
1114	1111	1117	1118	9
1114	1115	1116	1121	9
1114	1115	1122	1124	9
1115	1114	1111	1117	9
1115	1116	1113	1123	9
1116	1115	1114	1120	9
1116	1115	1122	1124	9
1116	1113	1112	1119	9
1116	1113	1123	1125	9
1116	1113	1123	1126	9
1120	1114	1115	1122	9
1121	1116	1115	1122	9
1119	1112	1113	1123	9
1121	1116	1113	1123	9
1117	1111	1112	1119	9
1117	1111	1114	1120	9
1125	1123	1126	1127	9
5650	5649	5652	5653	9
5653	5652	5649	5655	9
5650	5651	5654	5653	9
5653	5654	5651	5661	9
5651	5650	5649	5652	9
5652	5649	5650	5657	9
5652	5649	5655	5656	9
5651	5654	5653	5652	9
5652	5653	5654	5659	9
5652	5653	5660	5662	9
5649	5652	5653	5654	9
5649	5652	5653	5660	9
5649	5650	5651	5654	9
5649	5650	5651	5661	9
5650	5649	5652	5658	9
5650	5649	5655	5656	9
5650	5651	5654	5659	9
5650	5651	5661	5663	9
5651	5650	5649	5655	9
5651	5654	5653	5660	9
5654	5651	5650	5657	9
5654	5651	5661	5663	9
5654	5653	5652	5658	9
5654	5653	5660	5662	9
5661	5651	5650	5657	9
5661	5651	5654	5659	9
5658	5652	5653	5660	9
5659	5654	5653	5660	9
5658	5652	5649	5655	9
5657	5650	5649	5655	9
5678	5679	5680	5683	9
5678	5679	5680	5690	9
5678	5681	5682	5683	9
5678	5681	5682	5689	9
5682	5683	5680	5679	9
5679	5680	5683	5688	9
5679	5680	5690	5692	9
5682	5681	5678	5679	9
5679	5678	5681	5687	9
5679	5678	5684	5685	9
5681	5678	5679	5680	9
5680	5679	5678	5684	9
5681	5682	5683	5680	9
5680	5683	5682	5689	9
5683	5680	5679	5686	9
5683	5680	5690	5692	9
5683	5682	5681	5687	9
5683	5682	5689	5691	9
5682	5683	5680	5690	9
5682	5681	5678	5684	9
5681	5682	5683	5688	9
5681	5682	5689	5691	9
5681	5678	5679	5686	9
5681	5678	5684	5685	9
5688	5683	5682	5689	9
5687	5681	5682	5689	9
5684	5678	5679	5686	9
5684	5678	5681	5687	9
5686	5679	5680	5690	9
5688	5683	5680	5690	9
5693	5694	5695	5698	9
5693	5694	5695	5705	9
5693	5696	5697	5698	9
5693	5696	5697	5704	9
5697	5698	5695	5694	9
5694	5695	5698	5703	9
5694	5695	5705	5707	9
5697	5696	5693	5694	9
5694	5693	5696	5702	9
5694	5693	5699	5700	9
5696	5693	5694	5695	9
5695	5694	5693	5699	9
5696	5697	5698	5695	9
5695	5698	5697	5704	9
5698	5695	5694	5701	9
5698	5695	5705	5707	9
5698	5697	5696	5702	9
5698	5697	5704	5706	9
5697	5698	5695	5705	9
5697	5696	5693	5699	9
5696	5697	5698	5703	9
5696	5697	5704	5706	9
5696	5693	5694	5701	9
5696	5693	5699	5700	9
5703	5698	5697	5704	9
5702	5696	5697	5704	9
5699	5693	5694	5701	9
5699	5693	5696	5702	9
5701	5694	5695	5705	9
5703	5698	5695	5705	9
1144	1145	1146	1147	9
1144	1145	1146	1152	9
1144	1149	1148	1147	9
1144	1149	1148	1150	9
1145	1146	1147	1148	9
1145	1146	1147	1156	9
1145	1146	1152	1153	9
1145	1146	1152	1154	9
1145	1144	1149	1148	9
1145	1144	1149	1157	9
1145	1144	1142	1143	9
1146	1145	1144	1149	9
1146	1145	1144	1142	9
1146	1147	1148	1149	9
1146	1147	1148	1150	9
1147	1146	1145	1155	9
1147	1146	1152	1153	9
1147	1146	1152	1154	9
1147	1148	1149	1157	9
1147	1148	1150	1151	9
1148	1147	1146	1152	9
1148	1149	1144	1142	9
1149	1148	1147	1156	9
1149	1148	1150	1151	9
1149	1144	1145	1155	9
1149	1144	1142	1143	9
1156	1147	1148	1150	9
1157	1149	1148	1150	9
1142	1144	1145	1155	9
1142	1144	1149	1157	9
1155	1145	1146	1152	9
1156	1147	1146	1152	9
5722	5725	5726	5727	9
5722	5725	5726	5733	9
5722	5723	5724	5727	9
5722	5723	5724	5734	9
5724	5727	5726	5725	9
5725	5726	5727	5732	9
5725	5726	5733	5735	9
5724	5723	5722	5725	9
5725	5722	5723	5730	9
5725	5722	5728	5729	9
5723	5722	5725	5726	9
5726	5725	5722	5728	9
5723	5724	5727	5726	9
5726	5727	5724	5734	9
5727	5726	5725	5731	9
5727	5726	5733	5735	9
5727	5724	5723	5730	9
5727	5724	5734	5736	9
5724	5727	5726	5733	9
5724	5723	5722	5728	9
5723	5724	5727	5732	9
5723	5724	5734	5736	9
5723	5722	5725	5731	9
5723	5722	5728	5729	9
5732	5727	5724	5734	9
5730	5723	5724	5734	9
5728	5722	5725	5731	9
5728	5722	5723	5730	9
5731	5725	5726	5733	9
5732	5727	5726	5733	9
1174	1175	1176	1177	9
1174	1175	1176	1182	9
1174	1179	1178	1177	9
1174	1179	1178	1180	9
1175	1176	1177	1178	9
1175	1176	1177	1186	9
1175	1176	1182	1183	9
1175	1176	1182	1184	9
1175	1174	1179	1178	9
1175	1174	1179	1187	9
1175	1174	1172	1173	9
1176	1175	1174	1179	9
1176	1175	1174	1172	9
1176	1177	1178	1179	9
1176	1177	1178	1180	9
1177	1176	1175	1185	9
1177	1176	1182	1183	9
1177	1176	1182	1184	9
1177	1178	1179	1187	9
1177	1178	1180	1181	9
1178	1177	1176	1182	9
1178	1179	1174	1172	9
1179	1178	1177	1186	9
1179	1178	1180	1181	9
1179	1174	1175	1185	9
1179	1174	1172	1173	9
1186	1177	1178	1180	9
1187	1179	1178	1180	9
1172	1174	1175	1185	9
1172	1174	1179	1187	9
1185	1175	1176	1182	9
1186	1177	1176	1182	9
1207	1206	1205	1210	9
1207	1206	1205	1203	9
1207	1208	1209	1210	9
1207	1208	1209	1211	9
1206	1205	1210	1209	9
1206	1205	1210	1218	9
1206	1205	1203	1204	9
1206	1207	1208	1209	9
1206	1207	1208	1217	9
1206	1207	1213	1214	9
1206	1207	1213	1215	9
1205	1206	1207	1208	9
1205	1206	1207	1213	9
1205	1210	1209	1208	9
1205	1210	1209	1211	9
1210	1205	1206	1216	9
1210	1205	1203	1204	9
1210	1209	1208	1217	9
1210	1209	1211	1212	9
1209	1210	1205	1203	9
1209	1208	1207	1213	9
1208	1209	1210	1218	9
1208	1209	1211	1212	9
1208	1207	1206	1216	9
1208	1207	1213	1214	9
1208	1207	1213	1215	9
1218	1210	1209	1211	9
1217	1208	1209	1211	9
1216	1206	1207	1213	9
1217	1208	1207	1213	9
1203	1205	1206	1216	9
1203	1205	1210	1218	9
5752	5753	5756	5755	9
5755	5756	5753	5763	9
5752	5751	5754	5755	9
5755	5754	5751	5757	9
5751	5752	5753	5756	9
5756	5753	5752	5759	9
5756	5753	5763	5765	9
5751	5754	5755	5756	9
5756	5755	5754	5760	9
5756	5755	5762	5764	9
5753	5756	5755	5754	9
5753	5756	5755	5762	9
5753	5752	5751	5754	9
5753	5752	5751	5757	9
5752	5753	5756	5761	9
5752	5753	5763	5765	9
5752	5751	5754	5760	9
5752	5751	5757	5758	9
5751	5752	5753	5763	9
5751	5754	5755	5762	9
5754	5751	5752	5759	9
5754	5751	5757	5758	9
5754	5755	5756	5761	9
5754	5755	5762	5764	9
5757	5751	5752	5759	9
5757	5751	5754	5760	9
5761	5756	5755	5762	9
5760	5754	5755	5762	9
5761	5756	5753	5763	9
5759	5752	5753	5763	9
5766	5769	5770	5771	9
5766	5769	5770	5777	9
5766	5767	5768	5771	9
5766	5767	5768	5778	9
5768	5771	5770	5769	9
5769	5770	5771	5776	9
5769	5770	5777	5779	9
5768	5767	5766	5769	9
5769	5766	5767	5774	9
5769	5766	5772	5773	9
5767	5766	5769	5770	9
5770	5769	5766	5772	9
5767	5768	5771	5770	9
5770	5771	5768	5778	9
5771	5770	5769	5775	9
5771	5770	5777	5779	9
5771	5768	5767	5774	9
5771	5768	5778	5780	9
5768	5771	5770	5777	9
5768	5767	5766	5772	9
5767	5768	5771	5776	9
5767	5768	5778	5780	9
5767	5766	5769	5775	9
5767	5766	5772	5773	9
5776	5771	5768	5778	9
5774	5767	5768	5778	9
5772	5766	5769	5775	9
5772	5766	5767	5774	9
5775	5769	5770	5777	9
5776	5771	5770	5777	9
5795	5798	5799	5800	9
5795	5798	5799	5806	9
5795	5796	5797	5800	9
5795	5796	5797	5807	9
5797	5800	5799	5798	9
5798	5799	5800	5805	9
5798	5799	5806	5808	9
5797	5796	5795	5798	9
5798	5795	5796	5803	9
5798	5795	5801	5802	9
5796	5795	5798	5799	9
5799	5798	5795	5801	9
5796	5797	5800	5799	9
5799	5800	5797	5807	9
5800	5799	5798	5804	9
5800	5799	5806	5808	9
5800	5797	5796	5803	9
5800	5797	5807	5809	9
5797	5800	5799	5806	9
5797	5796	5795	5801	9
5796	5797	5800	5805	9
5796	5797	5807	5809	9
5796	5795	5798	5804	9
5796	5795	5801	5802	9
5805	5800	5797	5807	9
5803	5796	5797	5807	9
5801	5795	5798	5804	9
5801	5795	5796	5803	9
5804	5798	5799	5806	9
5805	5800	5799	5806	9
5824	5825	5826	5829	9
5824	5825	5826	5836	9
5824	5827	5828	5829	9
5824	5827	5828	5835	9
5825	5826	5829	5828	9
5825	5826	5829	5834	9
5825	5826	5836	5838	9
5825	5824	5827	5828	9
5825	5824	5827	5833	9
5825	5824	5830	5831	9
5826	5825	5824	5827	9
5826	5825	5824	5830	9
5826	5829	5828	5827	9
5826	5829	5828	5835	9
5829	5826	5825	5832	9
5829	5826	5836	5838	9
5829	5828	5827	5833	9
5829	5828	5835	5837	9
5828	5829	5826	5836	9
5828	5827	5824	5830	9
5827	5828	5829	5834	9
5827	5828	5835	5837	9
5827	5824	5825	5832	9
5827	5824	5830	5831	9
5834	5829	5828	5835	9
5833	5827	5828	5835	9
5830	5824	5825	5832	9
5830	5824	5827	5833	9
5832	5825	5826	5836	9
5834	5829	5826	5836	9
5853	5854	5855	5858	9
5853	5854	5855	5865	9
5853	5856	5857	5858	9
5853	5856	5857	5864	9
5854	5855	5858	5857	9
5854	5855	5858	5863	9
5854	5855	5865	5867	9
5854	5853	5856	5857	9
5854	5853	5856	5862	9
5854	5853	5859	5860	9
5855	5854	5853	5856	9
5855	5854	5853	5859	9
5855	5858	5857	5856	9
5855	5858	5857	5864	9
5858	5855	5854	5861	9
5858	5855	5865	5867	9
5858	5857	5856	5862	9
5858	5857	5864	5866	9
5857	5858	5855	5865	9
5857	5856	5853	5859	9
5856	5857	5858	5863	9
5856	5857	5864	5866	9
5856	5853	5854	5861	9
5856	5853	5859	5860	9
5863	5858	5857	5864	9
5862	5856	5857	5864	9
5859	5853	5854	5861	9
5859	5853	5856	5862	9
5861	5854	5855	5865	9
5863	5858	5855	5865	9
5868	5871	5872	5873	9
5868	5871	5872	5879	9
5868	5869	5870	5873	9
5868	5869	5870	5880	9
5871	5872	5873	5870	9
5871	5872	5873	5878	9
5871	5872	5879	5881	9
5871	5868	5869	5870	9
5871	5868	5869	5876	9
5871	5868	5874	5875	9
5872	5871	5868	5869	9
5872	5871	5868	5874	9
5872	5873	5870	5869	9
5872	5873	5870	5880	9
5873	5872	5871	5877	9
5873	5872	5879	5881	9
5873	5870	5869	5876	9
5873	5870	5880	5882	9
5870	5873	5872	5879	9
5870	5869	5868	5874	9
5869	5870	5873	5878	9
5869	5870	5880	5882	9
5869	5868	5871	5877	9
5869	5868	5874	5875	9
5878	5873	5870	5880	9
5876	5869	5870	5880	9
5874	5868	5871	5877	9
5874	5868	5869	5876	9
5877	5871	5872	5879	9
5878	5873	5872	5879	9
5883	5886	5887	5888	9
5883	5886	5887	5894	9
5883	5884	5885	5888	9
5883	5884	5885	5895	9
5886	5887	5888	5885	9
5886	5887	5888	5893	9
5886	5887	5894	5896	9
5886	5883	5884	5885	9
5886	5883	5884	5891	9
5886	5883	5889	5890	9
5887	5886	5883	5884	9
5887	5886	5883	5889	9
5887	5888	5885	5884	9
5887	5888	5885	5895	9
5888	5887	5886	5892	9
5888	5887	5894	5896	9
5888	5885	5884	5891	9
5888	5885	5895	5897	9
5885	5888	5887	5894	9
5885	5884	5883	5889	9
5884	5885	5888	5893	9
5884	5885	5895	5897	9
5884	5883	5886	5892	9
5884	5883	5889	5890	9
5893	5888	5885	5895	9
5891	5884	5885	5895	9
5889	5883	5886	5892	9
5889	5883	5884	5891	9
5892	5886	5887	5894	9
5893	5888	5887	5894	9
1237	1236	1235	1240	9
1237	1236	1235	1233	9
1237	1238	1239	1240	9
1237	1238	1239	1241	9
1236	1235	1240	1239	9
1236	1235	1240	1248	9
1236	1235	1233	1234	9
1236	1237	1238	1239	9
1236	1237	1238	1247	9
1236	1237	1243	1244	9
1236	1237	1243	1245	9
1235	1236	1237	1238	9
1235	1236	1237	1243	9
1235	1240	1239	1238	9
1235	1240	1239	1241	9
1240	1235	1236	1246	9
1240	1235	1233	1234	9
1240	1239	1238	1247	9
1240	1239	1241	1242	9
1239	1240	1235	1233	9
1239	1238	1237	1243	9
1238	1239	1240	1248	9
1238	1239	1241	1242	9
1238	1237	1236	1246	9
1238	1237	1243	1244	9
1238	1237	1243	1245	9
1248	1240	1239	1241	9
1247	1238	1239	1241	9
1246	1236	1237	1243	9
1247	1238	1237	1243	9
1233	1235	1236	1246	9
1233	1235	1240	1248	9
5898	5899	5900	5903	9
5898	5899	5900	5910	9
5898	5901	5902	5903	9
5898	5901	5902	5909	9
5899	5900	5903	5902	9
5899	5900	5903	5908	9
5899	5900	5910	5912	9
5899	5898	5901	5902	9
5899	5898	5901	5907	9
5899	5898	5904	5905	9
5900	5899	5898	5901	9
5900	5899	5898	5904	9
5900	5903	5902	5901	9
5900	5903	5902	5909	9
5903	5900	5899	5906	9
5903	5900	5910	5912	9
5903	5902	5901	5907	9
5903	5902	5909	5911	9
5902	5903	5900	5910	9
5902	5901	5898	5904	9
5901	5902	5903	5908	9
5901	5902	5909	5911	9
5901	5898	5899	5906	9
5901	5898	5904	5905	9
5908	5903	5902	5909	9
5907	5901	5902	5909	9
5904	5898	5899	5906	9
5904	5898	5901	5907	9
5906	5899	5900	5910	9
5908	5903	5900	5910	9
5927	5930	5931	5932	9
5927	5930	5931	5938	9
5927	5928	5929	5932	9
5927	5928	5929	5939	9
5929	5932	5931	5930	9
5930	5931	5932	5937	9
5930	5931	5938	5940	9
5929	5928	5927	5930	9
5930	5927	5928	5935	9
5930	5927	5933	5934	9
5928	5927	5930	5931	9
5931	5930	5927	5933	9
5928	5929	5932	5931	9
5931	5932	5929	5939	9
5932	5931	5930	5936	9
5932	5931	5938	5940	9
5932	5929	5928	5935	9
5932	5929	5939	5941	9
5929	5932	5931	5938	9
5929	5928	5927	5933	9
5928	5929	5932	5937	9
5928	5929	5939	5941	9
5928	5927	5930	5936	9
5928	5927	5933	5934	9
5937	5932	5929	5939	9
5935	5928	5929	5939	9
5933	5927	5930	5936	9
5933	5927	5928	5935	9
5936	5930	5931	5938	9
5937	5932	5931	5938	9
5956	5959	5960	5961	9
5956	5959	5960	5967	9
5956	5957	5958	5961	9
5956	5957	5958	5968	9
5958	5961	5960	5959	9
5959	5960	5961	5966	9
5959	5960	5967	5969	9
5958	5957	5956	5959	9
5959	5956	5957	5964	9
5959	5956	5962	5963	9
5957	5956	5959	5960	9
5960	5959	5956	5962	9
5957	5958	5961	5960	9
5960	5961	5958	5968	9
5961	5960	5959	5965	9
5961	5960	5967	5969	9
5961	5958	5957	5964	9
5961	5958	5968	5970	9
5958	5961	5960	5967	9
5958	5957	5956	5962	9
5957	5958	5961	5966	9
5957	5958	5968	5970	9
5957	5956	5959	5965	9
5957	5956	5962	5963	9
5966	5961	5958	5968	9
5964	5957	5958	5968	9
5962	5956	5959	5965	9
5962	5956	5957	5964	9
5965	5959	5960	5967	9
5966	5961	5960	5967	9
5971	5974	5975	5976	9
5971	5974	5975	5982	9
5971	5972	5973	5976	9
5971	5972	5973	5983	9
5973	5976	5975	5974	9
5974	5975	5976	5981	9
5974	5975	5982	5984	9
5973	5972	5971	5974	9
5974	5971	5972	5979	9
5974	5971	5977	5978	9
5972	5971	5974	5975	9
5975	5974	5971	5977	9
5972	5973	5976	5975	9
5975	5976	5973	5983	9
5976	5975	5974	5980	9
5976	5975	5982	5984	9
5976	5973	5972	5979	9
5976	5973	5983	5985	9
5973	5976	5975	5982	9
5973	5972	5971	5977	9
5972	5973	5976	5981	9
5972	5973	5983	5985	9
5972	5971	5974	5980	9
5972	5971	5977	5978	9
5981	5976	5973	5983	9
5979	5972	5973	5983	9
5977	5971	5974	5980	9
5977	5971	5972	5979	9
5980	5974	5975	5982	9
5981	5976	5975	5982	9
1265	1266	1267	1268	9
1265	1266	1267	1273	9
1265	1270	1269	1268	9
1265	1270	1269	1271	9
1266	1267	1268	1269	9
1266	1267	1268	1277	9
1266	1267	1273	1274	9
1266	1267	1273	1275	9
1266	1265	1270	1269	9
1266	1265	1270	1278	9
1266	1265	1263	1264	9
1267	1266	1265	1270	9
1267	1266	1265	1263	9
1267	1268	1269	1270	9
1267	1268	1269	1271	9
1268	1267	1266	1276	9
1268	1267	1273	1274	9
1268	1267	1273	1275	9
1268	1269	1270	1278	9
1268	1269	1271	1272	9
1269	1268	1267	1273	9
1269	1270	1265	1263	9
1270	1269	1268	1277	9
1270	1269	1271	1272	9
1270	1265	1266	1276	9
1270	1265	1263	1264	9
1277	1268	1269	1271	9
1278	1270	1269	1271	9
1263	1265	1266	1276	9
1263	1265	1270	1278	9
1276	1266	1267	1273	9
1277	1268	1267	1273	9
6000	6003	6004	6005	9
6000	6003	6004	6011	9
6000	6001	6002	6005	9
6000	6001	6002	6012	9
6002	6005	6004	6003	9
6003	6004	6005	6010	9
6003	6004	6011	6013	9
6002	6001	6000	6003	9
6003	6000	6001	6008	9
6003	6000	6006	6007	9
6001	6000	6003	6004	9
6004	6003	6000	6006	9
6001	6002	6005	6004	9
6004	6005	6002	6012	9
6005	6004	6003	6009	9
6005	6004	6011	6013	9
6005	6002	6001	6008	9
6005	6002	6012	6014	9
6002	6005	6004	6011	9
6002	6001	6000	6006	9
6001	6002	6005	6010	9
6001	6002	6012	6014	9
6001	6000	6003	6009	9
6001	6000	6006	6007	9
6010	6005	6002	6012	9
6008	6001	6002	6012	9
6006	6000	6003	6009	9
6006	6000	6001	6008	9
6009	6003	6004	6011	9
6010	6005	6004	6011	9
6029	6032	6033	6034	9
6029	6032	6033	6040	9
6029	6030	6031	6034	9
6029	6030	6031	6041	9
6031	6034	6033	6032	9
6032	6033	6034	6039	9
6032	6033	6040	6042	9
6031	6030	6029	6032	9
6032	6029	6030	6037	9
6032	6029	6035	6036	9
6030	6029	6032	6033	9
6033	6032	6029	6035	9
6030	6031	6034	6033	9
6033	6034	6031	6041	9
6034	6033	6032	6038	9
6034	6033	6040	6042	9
6034	6031	6030	6037	9
6034	6031	6041	6043	9
6031	6034	6033	6040	9
6031	6030	6029	6035	9
6030	6031	6034	6039	9
6030	6031	6041	6043	9
6030	6029	6032	6038	9
6030	6029	6035	6036	9
6039	6034	6031	6041	9
6037	6030	6031	6041	9
6035	6029	6032	6038	9
6035	6029	6030	6037	9
6038	6032	6033	6040	9
6039	6034	6033	6040	9
1281	1282	1283	1284	9
1281	1282	1283	1289	9
1281	1286	1285	1284	9
1281	1286	1285	1287	9
1282	1283	1284	1285	9
1282	1283	1284	1293	9
1282	1283	1289	1290	9
1282	1283	1289	1291	9
1282	1281	1286	1285	9
1282	1281	1286	1294	9
1282	1281	1279	1280	9
1283	1282	1281	1286	9
1283	1282	1281	1279	9
1283	1284	1285	1286	9
1283	1284	1285	1287	9
1284	1283	1282	1292	9
1284	1283	1289	1290	9
1284	1283	1289	1291	9
1284	1285	1286	1294	9
1284	1285	1287	1288	9
1285	1284	1283	1289	9
1285	1286	1281	1279	9
1286	1285	1284	1293	9
1286	1285	1287	1288	9
1286	1281	1282	1292	9
1286	1281	1279	1280	9
1293	1284	1285	1287	9
1294	1286	1285	1287	9
1279	1281	1282	1292	9
1279	1281	1286	1294	9
1292	1282	1283	1289	9
1293	1284	1283	1289	9
6062	6063	6060	6059	9
6062	6063	6060	6070	9
6062	6061	6058	6059	9
6062	6061	6058	6064	9
6058	6059	6060	6063	9
6063	6060	6059	6066	9
6063	6060	6070	6072	9
6058	6061	6062	6063	9
6063	6062	6061	6067	9
6063	6062	6069	6071	9
6061	6062	6063	6060	9
6060	6063	6062	6069	9
6061	6058	6059	6060	9
6060	6059	6058	6064	9
6059	6060	6063	6068	9
6059	6060	6070	6072	9
6059	6058	6061	6067	9
6059	6058	6064	6065	9
6058	6059	6060	6070	9
6058	6061	6062	6069	9
6061	6058	6059	6066	9
6061	6058	6064	6065	9
6061	6062	6063	6068	9
6061	6062	6069	6071	9
6066	6059	6058	6064	9
6067	6061	6058	6064	9
6069	6062	6063	6068	9
6069	6062	6061	6067	9
6068	6063	6060	6070	9
6066	6059	6060	6070	9
6087	6090	6091	6092	9
6087	6090	6091	6098	9
6087	6088	6089	6092	9
6087	6088	6089	6099	9
6090	6091	6092	6089	9
6090	6091	6092	6097	9
6090	6091	6098	6100	9
6090	6087	6088	6089	9
6090	6087	6088	6095	9
6090	6087	6093	6094	9
6091	6090	6087	6088	9
6091	6090	6087	6093	9
6091	6092	6089	6088	9
6091	6092	6089	6099	9
6092	6091	6090	6096	9
6092	6091	6098	6100	9
6092	6089	6088	6095	9
6092	6089	6099	6101	9
6089	6092	6091	6098	9
6089	6088	6087	6093	9
6088	6089	6092	6097	9
6088	6089	6099	6101	9
6088	6087	6090	6096	9
6088	6087	6093	6094	9
6097	6092	6089	6099	9
6095	6088	6089	6099	9
6093	6087	6090	6096	9
6093	6087	6088	6095	9
6096	6090	6091	6098	9
6097	6092	6091	6098	9
6116	6117	6118	6121	9
6116	6117	6118	6128	9
6116	6119	6120	6121	9
6116	6119	6120	6127	9
6117	6118	6121	6120	9
6117	6118	6121	6126	9
6117	6118	6128	6130	9
6117	6116	6119	6120	9
6117	6116	6119	6125	9
6117	6116	6122	6123	9
6118	6117	6116	6119	9
6118	6117	6116	6122	9
6118	6121	6120	6119	9
6118	6121	6120	6127	9
6121	6118	6117	6124	9
6121	6118	6128	6130	9
6121	6120	6119	6125	9
6121	6120	6127	6129	9
6120	6121	6118	6128	9
6120	6119	6116	6122	9
6119	6120	6121	6126	9
6119	6120	6127	6129	9
6119	6116	6117	6124	9
6119	6116	6122	6123	9
6126	6121	6120	6127	9
6125	6119	6120	6127	9
6122	6116	6117	6124	9
6122	6116	6119	6125	9
6124	6117	6118	6128	9
6126	6121	6118	6128	9
6145	6146	6147	6150	9
6145	6146	6147	6157	9
6145	6148	6149	6150	9
6145	6148	6149	6156	9
6146	6147	6150	6149	9
6146	6147	6150	6155	9
6146	6147	6157	6159	9
6146	6145	6148	6149	9
6146	6145	6148	6154	9
6146	6145	6151	6152	9
6147	6146	6145	6148	9
6147	6146	6145	6151	9
6147	6150	6149	6148	9
6147	6150	6149	6156	9
6150	6147	6146	6153	9
6150	6147	6157	6159	9
6150	6149	6148	6154	9
6150	6149	6156	6158	9
6149	6150	6147	6157	9
6149	6148	6145	6151	9
6148	6149	6150	6155	9
6148	6149	6156	6158	9
6148	6145	6146	6153	9
6148	6145	6151	6152	9
6155	6150	6149	6156	9
6154	6148	6149	6156	9
6151	6145	6146	6153	9
6151	6145	6148	6154	9
6153	6146	6147	6157	9
6155	6150	6147	6157	9
6174	6175	6176	6179	9
6174	6175	6176	6186	9
6174	6177	6178	6179	9
6174	6177	6178	6185	9
6175	6176	6179	6178	9
6175	6176	6179	6184	9
6175	6176	6186	6188	9
6175	6174	6177	6178	9
6175	6174	6177	6183	9
6175	6174	6180	6181	9
6176	6175	6174	6177	9
6176	6175	6174	6180	9
6176	6179	6178	6177	9
6176	6179	6178	6185	9
6179	6176	6175	6182	9
6179	6176	6186	6188	9
6179	6178	6177	6183	9
6179	6178	6185	6187	9
6178	6179	6176	6186	9
6178	6177	6174	6180	9
6177	6178	6179	6184	9
6177	6178	6185	6187	9
6177	6174	6175	6182	9
6177	6174	6180	6181	9
6184	6179	6178	6185	9
6183	6177	6178	6185	9
6180	6174	6175	6182	9
6180	6174	6177	6183	9
6182	6175	6176	6186	9
6184	6179	6176	6186	9
6189	6192	6193	6194	9
6189	6192	6193	6200	9
6189	6190	6191	6194	9
6189	6190	6191	6201	9
6191	6194	6193	6192	9
6192	6193	6194	6199	9
6192	6193	6200	6202	9
6191	6190	6189	6192	9
6192	6189	6190	6197	9
6192	6189	6195	6196	9
6190	6189	6192	6193	9
6193	6192	6189	6195	9
6190	6191	6194	6193	9
6193	6194	6191	6201	9
6194	6193	6192	6198	9
6194	6193	6200	6202	9
6194	6191	6190	6197	9
6194	6191	6201	6203	9
6191	6194	6193	6200	9
6191	6190	6189	6195	9
6190	6191	6194	6199	9
6190	6191	6201	6203	9
6190	6189	6192	6198	9
6190	6189	6195	6196	9
6199	6194	6191	6201	9
6197	6190	6191	6201	9
6195	6189	6192	6198	9
6195	6189	6190	6197	9
6198	6192	6193	6200	9
6199	6194	6193	6200	9
6218	6221	6222	6223	9
6218	6221	6222	6229	9
6218	6219	6220	6223	9
6218	6219	6220	6230	9
6220	6223	6222	6221	9
6221	6222	6223	6228	9
6221	6222	6229	6231	9
6220	6219	6218	6221	9
6221	6218	6219	6226	9
6221	6218	6224	6225	9
6219	6218	6221	6222	9
6222	6221	6218	6224	9
6219	6220	6223	6222	9
6222	6223	6220	6230	9
6223	6222	6221	6227	9
6223	6222	6229	6231	9
6223	6220	6219	6226	9
6223	6220	6230	6232	9
6220	6223	6222	6229	9
6220	6219	6218	6224	9
6219	6220	6223	6228	9
6219	6220	6230	6232	9
6219	6218	6221	6227	9
6219	6218	6224	6225	9
6228	6223	6220	6230	9
6226	6219	6220	6230	9
6224	6218	6221	6227	9
6224	6218	6219	6226	9
6227	6221	6222	6229	9
6228	6223	6222	6229	9
6233	6236	6237	6238	9
6233	6236	6237	6244	9
6233	6234	6235	6238	9
6233	6234	6235	6245	9
6235	6238	6237	6236	9
6236	6237	6238	6243	9
6236	6237	6244	6246	9
6235	6234	6233	6236	9
6236	6233	6234	6241	9
6236	6233	6239	6240	9
6234	6233	6236	6237	9
6237	6236	6233	6239	9
6234	6235	6238	6237	9
6237	6238	6235	6245	9
6238	6237	6236	6242	9
6238	6237	6244	6246	9
6238	6235	6234	6241	9
6238	6235	6245	6247	9
6235	6238	6237	6244	9
6235	6234	6233	6239	9
6234	6235	6238	6243	9
6234	6235	6245	6247	9
6234	6233	6236	6242	9
6234	6233	6239	6240	9
6243	6238	6235	6245	9
6241	6234	6235	6245	9
6239	6233	6236	6242	9
6239	6233	6234	6241	9
6242	6236	6237	6244	9
6243	6238	6237	6244	9
6262	6265	6266	6267	9
6262	6265	6266	6273	9
6262	6263	6264	6267	9
6262	6263	6264	6274	9
6265	6266	6267	6264	9
6265	6266	6267	6272	9
6265	6266	6273	6275	9
6265	6262	6263	6264	9
6265	6262	6263	6270	9
6265	6262	6268	6269	9
6266	6265	6262	6263	9
6266	6265	6262	6268	9
6266	6267	6264	6263	9
6266	6267	6264	6274	9
6267	6266	6265	6271	9
6267	6266	6273	6275	9
6267	6264	6263	6270	9
6267	6264	6274	6276	9
6264	6267	6266	6273	9
6264	6263	6262	6268	9
6263	6264	6267	6272	9
6263	6264	6274	6276	9
6263	6262	6265	6271	9
6263	6262	6268	6269	9
6272	6267	6264	6274	9
6270	6263	6264	6274	9
6268	6262	6265	6271	9
6268	6262	6263	6270	9
6271	6265	6266	6273	9
6272	6267	6266	6273	9
6277	6280	6281	6282	9
6277	6280	6281	6288	9
6277	6278	6279	6282	9
6277	6278	6279	6289	9
6280	6281	6282	6279	9
6280	6281	6282	6287	9
6280	6281	6288	6290	9
6280	6277	6278	6279	9
6280	6277	6278	6285	9
6280	6277	6283	6284	9
6281	6280	6277	6278	9
6281	6280	6277	6283	9
6281	6282	6279	6278	9
6281	6282	6279	6289	9
6282	6281	6280	6286	9
6282	6281	6288	6290	9
6282	6279	6278	6285	9
6282	6279	6289	6291	9
6279	6282	6281	6288	9
6279	6278	6277	6283	9
6278	6279	6282	6287	9
6278	6279	6289	6291	9
6278	6277	6280	6286	9
6278	6277	6283	6284	9
6287	6282	6279	6289	9
6285	6278	6279	6289	9
6283	6277	6280	6286	9
6283	6277	6278	6285	9
6286	6280	6281	6288	9
6287	6282	6281	6288	9
6292	6293	6294	6297	9
6292	6293	6294	6304	9
6292	6295	6296	6297	9
6292	6295	6296	6303	9
6293	6294	6297	6296	9
6293	6294	6297	6302	9
6293	6294	6304	6306	9
6293	6292	6295	6296	9
6293	6292	6295	6301	9
6293	6292	6298	6299	9
6294	6293	6292	6295	9
6294	6293	6292	6298	9
6294	6297	6296	6295	9
6294	6297	6296	6303	9
6297	6294	6293	6300	9
6297	6294	6304	6306	9
6297	6296	6295	6301	9
6297	6296	6303	6305	9
6296	6297	6294	6304	9
6296	6295	6292	6298	9
6295	6296	6297	6302	9
6295	6296	6303	6305	9
6295	6292	6293	6300	9
6295	6292	6298	6299	9
6302	6297	6296	6303	9
6301	6295	6296	6303	9
6298	6292	6293	6300	9
6298	6292	6295	6301	9
6300	6293	6294	6304	9
6302	6297	6294	6304	9
6321	6322	6323	6326	9
6321	6322	6323	6333	9
6321	6324	6325	6326	9
6321	6324	6325	6332	9
6322	6323	6326	6325	9
6322	6323	6326	6331	9
6322	6323	6333	6335	9
6322	6321	6324	6325	9
6322	6321	6324	6330	9
6322	6321	6327	6328	9
6323	6322	6321	6324	9
6323	6322	6321	6327	9
6323	6326	6325	6324	9
6323	6326	6325	6332	9
6326	6323	6322	6329	9
6326	6323	6333	6335	9
6326	6325	6324	6330	9
6326	6325	6332	6334	9
6325	6326	6323	6333	9
6325	6324	6321	6327	9
6324	6325	6326	6331	9
6324	6325	6332	6334	9
6324	6321	6322	6329	9
6324	6321	6327	6328	9
6331	6326	6325	6332	9
6330	6324	6325	6332	9
6327	6321	6322	6329	9
6327	6321	6324	6330	9
6329	6322	6323	6333	9
6331	6326	6323	6333	9
6350	6353	6354	6355	9
6350	6353	6354	6361	9
6350	6351	6352	6355	9
6350	6351	6352	6362	9
6352	6355	6354	6353	9
6353	6354	6355	6360	9
6353	6354	6361	6363	9
6352	6351	6350	6353	9
6353	6350	6351	6358	9
6353	6350	6356	6357	9
6351	6350	6353	6354	9
6354	6353	6350	6356	9
6351	6352	6355	6354	9
6354	6355	6352	6362	9
6355	6354	6353	6359	9
6355	6354	6361	6363	9
6355	6352	6351	6358	9
6355	6352	6362	6364	9
6352	6355	6354	6361	9
6352	6351	6350	6356	9
6351	6352	6355	6360	9
6351	6352	6362	6364	9
6351	6350	6353	6359	9
6351	6350	6356	6357	9
6360	6355	6352	6362	9
6358	6351	6352	6362	9
6356	6350	6353	6359	9
6356	6350	6351	6358	9
6359	6353	6354	6361	9
6360	6355	6354	6361	9
6379	6382	6383	6384	9
6379	6382	6383	6390	9
6379	6380	6381	6384	9
6379	6380	6381	6391	9
6381	6384	6383	6382	9
6382	6383	6384	6389	9
6382	6383	6390	6392	9
6381	6380	6379	6382	9
6382	6379	6380	6387	9
6382	6379	6385	6386	9
6380	6379	6382	6383	9
6383	6382	6379	6385	9
6380	6381	6384	6383	9
6383	6384	6381	6391	9
6384	6383	6382	6388	9
6384	6383	6390	6392	9
6384	6381	6380	6387	9
6384	6381	6391	6393	9
6381	6384	6383	6390	9
6381	6380	6379	6385	9
6380	6381	6384	6389	9
6380	6381	6391	6393	9
6380	6379	6382	6388	9
6380	6379	6385	6386	9
6389	6384	6381	6391	9
6387	6380	6381	6391	9
6385	6379	6382	6388	9
6385	6379	6380	6387	9
6388	6382	6383	6390	9
6389	6384	6383	6390	9
6408	6411	6412	6413	9
6408	6411	6412	6419	9
6408	6409	6410	6413	9
6408	6409	6410	6420	9
6410	6413	6412	6411	9
6411	6412	6413	6418	9
6411	6412	6419	6421	9
6410	6409	6408	6411	9
6411	6408	6409	6416	9
6411	6408	6414	6415	9
6409	6408	6411	6412	9
6412	6411	6408	6414	9
6409	6410	6413	6412	9
6412	6413	6410	6420	9
6413	6412	6411	6417	9
6413	6412	6419	6421	9
6413	6410	6409	6416	9
6413	6410	6420	6422	9
6410	6413	6412	6419	9
6410	6409	6408	6414	9
6409	6410	6413	6418	9
6409	6410	6420	6422	9
6409	6408	6411	6417	9
6409	6408	6414	6415	9
6418	6413	6410	6420	9
6416	6409	6410	6420	9
6414	6408	6411	6417	9
6414	6408	6409	6416	9
6417	6411	6412	6419	9
6418	6413	6412	6419	9
6439	6438	6437	6440	9
6439	6438	6437	6443	9
6439	6442	6441	6440	9
6439	6442	6441	6448	9
6438	6437	6440	6441	9
6438	6437	6440	6446	9
6438	6437	6443	6444	9
6438	6439	6442	6441	9
6438	6439	6442	6447	9
6438	6439	6449	6451	9
6437	6438	6439	6442	9
6437	6438	6439	6449	9
6437	6440	6441	6442	9
6437	6440	6441	6448	9
6440	6437	6438	6445	9
6440	6437	6443	6444	9
6440	6441	6442	6447	9
6440	6441	6448	6450	9
6441	6440	6437	6443	9
6441	6442	6439	6449	9
6442	6441	6440	6446	9
6442	6441	6448	6450	9
6442	6439	6438	6445	9
6442	6439	6449	6451	9
6446	6440	6441	6448	9
6447	6442	6441	6448	9
6445	6438	6439	6449	9
6447	6442	6439	6449	9
6443	6437	6438	6445	9
6443	6437	6440	6446	9
6466	6469	6470	6471	9
6466	6469	6470	6477	9
6466	6467	6468	6471	9
6466	6467	6468	6478	9
6469	6470	6471	6468	9
6469	6470	6471	6476	9
6469	6470	6477	6479	9
6469	6466	6467	6468	9
6469	6466	6467	6474	9
6469	6466	6472	6473	9
6470	6469	6466	6467	9
6470	6469	6466	6472	9
6470	6471	6468	6467	9
6470	6471	6468	6478	9
6471	6470	6469	6475	9
6471	6470	6477	6479	9
6471	6468	6467	6474	9
6471	6468	6478	6480	9
6468	6471	6470	6477	9
6468	6467	6466	6472	9
6467	6468	6471	6476	9
6467	6468	6478	6480	9
6467	6466	6469	6475	9
6467	6466	6472	6473	9
6476	6471	6468	6478	9
6474	6467	6468	6478	9
6472	6466	6469	6475	9
6472	6466	6467	6474	9
6475	6469	6470	6477	9
6476	6471	6470	6477	9
1313	1312	1311	1316	9
1313	1312	1311	1309	9
1313	1314	1315	1316	9
1313	1314	1315	1317	9
1312	1311	1316	1315	9
1312	1311	1316	1324	9
1312	1311	1309	1310	9
1312	1313	1314	1315	9
1312	1313	1314	1323	9
1312	1313	1319	1320	9
1312	1313	1319	1321	9
1311	1312	1313	1314	9
1311	1312	1313	1319	9
1311	1316	1315	1314	9
1311	1316	1315	1317	9
1316	1311	1312	1322	9
1316	1311	1309	1310	9
1316	1315	1314	1323	9
1316	1315	1317	1318	9
1315	1316	1311	1309	9
1315	1314	1313	1319	9
1314	1315	1316	1324	9
1314	1315	1317	1318	9
1314	1313	1312	1322	9
1314	1313	1319	1320	9
1314	1313	1319	1321	9
1324	1316	1315	1317	9
1323	1314	1315	1317	9
1322	1312	1313	1319	9
1323	1314	1313	1319	9
1309	1311	1312	1322	9
1309	1311	1316	1324	9
1341	1342	1343	1344	9
1341	1342	1343	1349	9
1341	1346	1345	1344	9
1341	1346	1345	1347	9
1342	1343	1344	1345	9
1342	1343	1344	1353	9
1342	1343	1349	1350	9
1342	1343	1349	1351	9
1342	1341	1346	1345	9
1342	1341	1346	1354	9
1342	1341	1339	1340	9
1343	1342	1341	1346	9
1343	1342	1341	1339	9
1343	1344	1345	1346	9
1343	1344	1345	1347	9
1344	1343	1342	1352	9
1344	1343	1349	1350	9
1344	1343	1349	1351	9
1344	1345	1346	1354	9
1344	1345	1347	1348	9
1345	1344	1343	1349	9
1345	1346	1341	1339	9
1346	1345	1344	1353	9
1346	1345	1347	1348	9
1346	1341	1342	1352	9
1346	1341	1339	1340	9
1353	1344	1345	1347	9
1354	1346	1345	1347	9
1339	1341	1342	1352	9
1339	1341	1346	1354	9
1352	1342	1343	1349	9
1353	1344	1343	1349	9
6497	6496	6495	6498	9
6497	6496	6495	6501	9
6497	6500	6499	6498	9
6497	6500	6499	6506	9
6499	6498	6495	6496	9
6496	6495	6498	6504	9
6496	6495	6501	6502	9
6499	6500	6497	6496	9
6496	6497	6500	6505	9
6496	6497	6507	6509	9
6500	6497	6496	6495	9
6495	6496	6497	6507	9
6500	6499	6498	6495	9
6495	6498	6499	6506	9
6498	6495	6496	6503	9
6498	6495	6501	6502	9
6498	6499	6500	6505	9
6498	6499	6506	6508	9
6499	6498	6495	6501	9
6499	6500	6497	6507	9
6500	6499	6498	6504	9
6500	6499	6506	6508	9
6500	6497	6496	6503	9
6500	6497	6507	6509	9
6504	6498	6499	6506	9
6505	6500	6499	6506	9
6507	6497	6496	6503	9
6507	6497	6500	6505	9
6503	6496	6495	6501	9
6504	6498	6495	6501	9
6510	6511	6512	6515	9
6510	6511	6512	6522	9
6510	6513	6514	6515	9
6510	6513	6514	6521	9
6511	6512	6515	6514	9
6511	6512	6515	6520	9
6511	6512	6522	6524	9
6511	6510	6513	6514	9
6511	6510	6513	6519	9
6511	6510	6516	6517	9
6512	6511	6510	6513	9
6512	6511	6510	6516	9
6512	6515	6514	6513	9
6512	6515	6514	6521	9
6515	6512	6511	6518	9
6515	6512	6522	6524	9
6515	6514	6513	6519	9
6515	6514	6521	6523	9
6514	6515	6512	6522	9
6514	6513	6510	6516	9
6513	6514	6515	6520	9
6513	6514	6521	6523	9
6513	6510	6511	6518	9
6513	6510	6516	6517	9
6520	6515	6514	6521	9
6519	6513	6514	6521	9
6516	6510	6511	6518	9
6516	6510	6513	6519	9
6518	6511	6512	6522	9
6520	6515	6512	6522	9
6539	6540	6541	6544	9
6539	6540	6541	6551	9
6539	6542	6543	6544	9
6539	6542	6543	6550	9
6540	6541	6544	6543	9
6540	6541	6544	6549	9
6540	6541	6551	6553	9
6540	6539	6542	6543	9
6540	6539	6542	6548	9
6540	6539	6545	6546	9
6541	6540	6539	6542	9
6541	6540	6539	6545	9
6541	6544	6543	6542	9
6541	6544	6543	6550	9
6544	6541	6540	6547	9
6544	6541	6551	6553	9
6544	6543	6542	6548	9
6544	6543	6550	6552	9
6543	6544	6541	6551	9
6543	6542	6539	6545	9
6542	6543	6544	6549	9
6542	6543	6550	6552	9
6542	6539	6540	6547	9
6542	6539	6545	6546	9
6549	6544	6543	6550	9
6548	6542	6543	6550	9
6545	6539	6540	6547	9
6545	6539	6542	6548	9
6547	6540	6541	6551	9
6549	6544	6541	6551	9
6568	6569	6570	6573	9
6568	6569	6570	6580	9
6568	6571	6572	6573	9
6568	6571	6572	6579	9
6569	6570	6573	6572	9
6569	6570	6573	6578	9
6569	6570	6580	6582	9
6569	6568	6571	6572	9
6569	6568	6571	6577	9
6569	6568	6574	6575	9
6570	6569	6568	6571	9
6570	6569	6568	6574	9
6570	6573	6572	6571	9
6570	6573	6572	6579	9
6573	6570	6569	6576	9
6573	6570	6580	6582	9
6573	6572	6571	6577	9
6573	6572	6579	6581	9
6572	6573	6570	6580	9
6572	6571	6568	6574	9
6571	6572	6573	6578	9
6571	6572	6579	6581	9
6571	6568	6569	6576	9
6571	6568	6574	6575	9
6578	6573	6572	6579	9
6577	6571	6572	6579	9
6574	6568	6569	6576	9
6574	6568	6571	6577	9
6576	6569	6570	6580	9
6578	6573	6570	6580	9
6597	6598	6599	6602	9
6597	6598	6599	6609	9
6597	6600	6601	6602	9
6597	6600	6601	6608	9
6598	6599	6602	6601	9
6598	6599	6602	6607	9
6598	6599	6609	6611	9
6598	6597	6600	6601	9
6598	6597	6600	6606	9
6598	6597	6603	6604	9
6599	6598	6597	6600	9
6599	6598	6597	6603	9
6599	6602	6601	6600	9
6599	6602	6601	6608	9
6602	6599	6598	6605	9
6602	6599	6609	6611	9
6602	6601	6600	6606	9
6602	6601	6608	6610	9
6601	6602	6599	6609	9
6601	6600	6597	6603	9
6600	6601	6602	6607	9
6600	6601	6608	6610	9
6600	6597	6598	6605	9
6600	6597	6603	6604	9
6607	6602	6601	6608	9
6606	6600	6601	6608	9
6603	6597	6598	6605	9
6603	6597	6600	6606	9
6605	6598	6599	6609	9
6607	6602	6599	6609	9
6626	6629	6630	6631	9
6626	6629	6630	6637	9
6626	6627	6628	6631	9
6626	6627	6628	6638	9
6628	6631	6630	6629	9
6629	6630	6631	6636	9
6629	6630	6637	6639	9
6628	6627	6626	6629	9
6629	6626	6627	6634	9
6629	6626	6632	6633	9
6627	6626	6629	6630	9
6630	6629	6626	6632	9
6627	6628	6631	6630	9
6630	6631	6628	6638	9
6631	6630	6629	6635	9
6631	6630	6637	6639	9
6631	6628	6627	6634	9
6631	6628	6638	6640	9
6628	6631	6630	6637	9
6628	6627	6626	6632	9
6627	6628	6631	6636	9
6627	6628	6638	6640	9
6627	6626	6629	6635	9
6627	6626	6632	6633	9
6636	6631	6628	6638	9
6634	6627	6628	6638	9
6632	6626	6629	6635	9
6632	6626	6627	6634	9
6635	6629	6630	6637	9
6636	6631	6630	6637	9
6656	6657	6660	6659	9
6659	6660	6657	6667	9
6656	6655	6658	6659	9
6659	6658	6655	6661	9
6655	6656	6657	6660	9
6660	6657	6656	6663	9
6660	6657	6667	6669	9
6655	6658	6659	6660	9
6660	6659	6658	6664	9
6660	6659	6666	6668	9
6657	6660	6659	6658	9
6657	6660	6659	6666	9
6657	6656	6655	6658	9
6657	6656	6655	6661	9
6656	6657	6660	6665	9
6656	6657	6667	6669	9
6656	6655	6658	6664	9
6656	6655	6661	6662	9
6655	6656	6657	6667	9
6655	6658	6659	6666	9
6658	6655	6656	6663	9
6658	6655	6661	6662	9
6658	6659	6660	6665	9
6658	6659	6666	6668	9
6661	6655	6656	6663	9
6661	6655	6658	6664	9
6665	6660	6659	6666	9
6664	6658	6659	6666	9
6665	6660	6657	6667	9
6663	6656	6657	6667	9
6670	6671	6672	6675	9
6670	6671	6672	6682	9
6670	6673	6674	6675	9
6670	6673	6674	6681	9
6674	6675	6672	6671	9
6671	6672	6675	6680	9
6671	6672	6682	6684	9
6674	6673	6670	6671	9
6671	6670	6673	6679	9
6671	6670	6676	6677	9
6673	6670	6671	6672	9
6672	6671	6670	6676	9
6673	6674	6675	6672	9
6672	6675	6674	6681	9
6675	6672	6671	6678	9
6675	6672	6682	6684	9
6675	6674	6673	6679	9
6675	6674	6681	6683	9
6674	6675	6672	6682	9
6674	6673	6670	6676	9
6673	6674	6675	6680	9
6673	6674	6681	6683	9
6673	6670	6671	6678	9
6673	6670	6676	6677	9
6680	6675	6674	6681	9
6679	6673	6674	6681	9
6676	6670	6671	6678	9
6676	6670	6673	6679	9
6678	6671	6672	6682	9
6680	6675	6672	6682	9
6699	6700	6701	6704	9
6699	6700	6701	6711	9
6699	6702	6703	6704	9
6699	6702	6703	6710	9
6703	6704	6701	6700	9
6700	6701	6704	6709	9
6700	6701	6711	6713	9
6703	6702	6699	6700	9
6700	6699	6702	6708	9
6700	6699	6705	6706	9
6702	6699	6700	6701	9
6701	6700	6699	6705	9
6702	6703	6704	6701	9
6701	6704	6703	6710	9
6704	6701	6700	6707	9
6704	6701	6711	6713	9
6704	6703	6702	6708	9
6704	6703	6710	6712	9
6703	6704	6701	6711	9
6703	6702	6699	6705	9
6702	6703	6704	6709	9
6702	6703	6710	6712	9
6702	6699	6700	6707	9
6702	6699	6705	6706	9
6709	6704	6703	6710	9
6708	6702	6703	6710	9
6705	6699	6700	6707	9
6705	6699	6702	6708	9
6707	6700	6701	6711	9
6709	6704	6701	6711	9
6728	6729	6730	6733	9
6728	6729	6730	6740	9
6728	6731	6732	6733	9
6728	6731	6732	6739	9
6729	6730	6733	6732	9
6729	6730	6733	6738	9
6729	6730	6740	6742	9
6729	6728	6731	6732	9
6729	6728	6731	6737	9
6729	6728	6734	6735	9
6730	6729	6728	6731	9
6730	6729	6728	6734	9
6730	6733	6732	6731	9
6730	6733	6732	6739	9
6733	6730	6729	6736	9
6733	6730	6740	6742	9
6733	6732	6731	6737	9
6733	6732	6739	6741	9
6732	6733	6730	6740	9
6732	6731	6728	6734	9
6731	6732	6733	6738	9
6731	6732	6739	6741	9
6731	6728	6729	6736	9
6731	6728	6734	6735	9
6738	6733	6732	6739	9
6737	6731	6732	6739	9
6734	6728	6729	6736	9
6734	6728	6731	6737	9
6736	6729	6730	6740	9
6738	6733	6730	6740	9
6743	6744	6745	6748	9
6743	6744	6745	6755	9
6743	6746	6747	6748	9
6743	6746	6747	6754	9
6744	6745	6748	6747	9
6744	6745	6748	6753	9
6744	6745	6755	6757	9
6744	6743	6746	6747	9
6744	6743	6746	6752	9
6744	6743	6749	6750	9
6745	6744	6743	6746	9
6745	6744	6743	6749	9
6745	6748	6747	6746	9
6745	6748	6747	6754	9
6748	6745	6744	6751	9
6748	6745	6755	6757	9
6748	6747	6746	6752	9
6748	6747	6754	6756	9
6747	6748	6745	6755	9
6747	6746	6743	6749	9
6746	6747	6748	6753	9
6746	6747	6754	6756	9
6746	6743	6744	6751	9
6746	6743	6749	6750	9
6753	6748	6747	6754	9
6752	6746	6747	6754	9
6749	6743	6744	6751	9
6749	6743	6746	6752	9
6751	6744	6745	6755	9
6753	6748	6745	6755	9
6772	6773	6774	6777	9
6772	6773	6774	6784	9
6772	6775	6776	6777	9
6772	6775	6776	6783	9
6773	6774	6777	6776	9
6773	6774	6777	6782	9
6773	6774	6784	6786	9
6773	6772	6775	6776	9
6773	6772	6775	6781	9
6773	6772	6778	6779	9
6774	6773	6772	6775	9
6774	6773	6772	6778	9
6774	6777	6776	6775	9
6774	6777	6776	6783	9
6777	6774	6773	6780	9
6777	6774	6784	6786	9
6777	6776	6775	6781	9
6777	6776	6783	6785	9
6776	6777	6774	6784	9
6776	6775	6772	6778	9
6775	6776	6777	6782	9
6775	6776	6783	6785	9
6775	6772	6773	6780	9
6775	6772	6778	6779	9
6782	6777	6776	6783	9
6781	6775	6776	6783	9
6778	6772	6773	6780	9
6778	6772	6775	6781	9
6780	6773	6774	6784	9
6782	6777	6774	6784	9
6801	6802	6803	6806	9
6801	6802	6803	6813	9
6801	6804	6805	6806	9
6801	6804	6805	6812	9
6802	6803	6806	6805	9
6802	6803	6806	6811	9
6802	6803	6813	6815	9
6802	6801	6804	6805	9
6802	6801	6804	6810	9
6802	6801	6807	6808	9
6803	6802	6801	6804	9
6803	6802	6801	6807	9
6803	6806	6805	6804	9
6803	6806	6805	6812	9
6806	6803	6802	6809	9
6806	6803	6813	6815	9
6806	6805	6804	6810	9
6806	6805	6812	6814	9
6805	6806	6803	6813	9
6805	6804	6801	6807	9
6804	6805	6806	6811	9
6804	6805	6812	6814	9
6804	6801	6802	6809	9
6804	6801	6807	6808	9
6811	6806	6805	6812	9
6810	6804	6805	6812	9
6807	6801	6802	6809	9
6807	6801	6804	6810	9
6809	6802	6803	6813	9
6811	6806	6803	6813	9
6830	6833	6834	6835	9
6830	6833	6834	6841	9
6830	6831	6832	6835	9
6830	6831	6832	6842	9
6832	6835	6834	6833	9
6833	6834	6835	6840	9
6833	6834	6841	6843	9
6832	6831	6830	6833	9
6833	6830	6831	6838	9
6833	6830	6836	6837	9
6831	6830	6833	6834	9
6834	6833	6830	6836	9
6831	6832	6835	6834	9
6834	6835	6832	6842	9
6835	6834	6833	6839	9
6835	6834	6841	6843	9
6835	6832	6831	6838	9
6835	6832	6842	6844	9
6832	6835	6834	6841	9
6832	6831	6830	6836	9
6831	6832	6835	6840	9
6831	6832	6842	6844	9
6831	6830	6833	6839	9
6831	6830	6836	6837	9
6840	6835	6832	6842	9
6838	6831	6832	6842	9
6836	6830	6833	6839	9
6836	6830	6831	6838	9
6839	6833	6834	6841	9
6840	6835	6834	6841	9
1371	1372	1373	1374	9
1371	1372	1373	1379	9
1371	1376	1375	1374	9
1371	1376	1375	1377	9
1372	1373	1374	1375	9
1372	1373	1374	1383	9
1372	1373	1379	1380	9
1372	1373	1379	1381	9
1372	1371	1376	1375	9
1372	1371	1376	1384	9
1372	1371	1369	1370	9
1373	1372	1371	1376	9
1373	1372	1371	1369	9
1373	1374	1375	1376	9
1373	1374	1375	1377	9
1374	1373	1372	1382	9
1374	1373	1379	1380	9
1374	1373	1379	1381	9
1374	1375	1376	1384	9
1374	1375	1377	1378	9
1375	1374	1373	1379	9
1375	1376	1371	1369	9
1376	1375	1374	1383	9
1376	1375	1377	1378	9
1376	1371	1372	1382	9
1376	1371	1369	1370	9
1383	1374	1375	1377	9
1384	1376	1375	1377	9
1369	1371	1372	1382	9
1369	1371	1376	1384	9
1382	1372	1373	1379	9
1383	1374	1373	1379	9
1385	1388	1389	1390	9
1385	1388	1389	1396	9
1385	1386	1387	1390	9
1385	1386	1387	1397	9
1387	1390	1389	1388	9
1388	1389	1390	1395	9
1388	1389	1396	1398	9
1387	1386	1385	1388	9
1388	1385	1386	1393	9
1388	1385	1391	1392	9
1386	1385	1388	1389	9
1389	1388	1385	1391	9
1386	1387	1390	1389	9
1389	1390	1387	1397	9
1390	1389	1388	1394	9
1390	1389	1396	1398	9
1390	1387	1386	1393	9
1390	1387	1397	1399	9
1390	1387	1397	1400	9
1387	1390	1389	1396	9
1387	1386	1385	1391	9
1387	1397	1400	1401	9
1386	1387	1390	1395	9
1386	1387	1397	1399	9
1386	1387	1397	1400	9
1386	1385	1388	1394	9
1386	1385	1391	1392	9
1395	1390	1387	1397	9
1393	1386	1387	1397	9
1391	1385	1388	1394	9
1391	1385	1386	1393	9
1394	1388	1389	1396	9
1395	1390	1389	1396	9
1399	1397	1400	1401	9
6859	6860	6861	6864	9
6859	6860	6861	6871	9
6859	6862	6863	6864	9
6859	6862	6863	6870	9
6860	6861	6864	6863	9
6860	6861	6864	6869	9
6860	6861	6871	6873	9
6860	6859	6862	6863	9
6860	6859	6862	6868	9
6860	6859	6865	6866	9
6861	6860	6859	6862	9
6861	6860	6859	6865	9
6861	6864	6863	6862	9
6861	6864	6863	6870	9
6864	6861	6860	6867	9
6864	6861	6871	6873	9
6864	6863	6862	6868	9
6864	6863	6870	6872	9
6863	6864	6861	6871	9
6863	6862	6859	6865	9
6862	6863	6864	6869	9
6862	6863	6870	6872	9
6862	6859	6860	6867	9
6862	6859	6865	6866	9
6869	6864	6863	6870	9
6868	6862	6863	6870	9
6865	6859	6860	6867	9
6865	6859	6862	6868	9
6867	6860	6861	6871	9
6869	6864	6861	6871	9
6874	6875	6876	6879	9
6874	6875	6876	6886	9
6874	6877	6878	6879	9
6874	6877	6878	6885	9
6878	6879	6876	6875	9
6875	6876	6879	6884	9
6875	6876	6886	6888	9
6878	6877	6874	6875	9
6875	6874	6877	6883	9
6875	6874	6880	6881	9
6877	6874	6875	6876	9
6876	6875	6874	6880	9
6877	6878	6879	6876	9
6876	6879	6878	6885	9
6879	6876	6875	6882	9
6879	6876	6886	6888	9
6879	6878	6877	6883	9
6879	6878	6885	6887	9
6878	6879	6876	6886	9
6878	6877	6874	6880	9
6877	6878	6879	6884	9
6877	6878	6885	6887	9
6877	6874	6875	6882	9
6877	6874	6880	6881	9
6884	6879	6878	6885	9
6883	6877	6878	6885	9
6880	6874	6875	6882	9
6880	6874	6877	6883	9
6882	6875	6876	6886	9
6884	6879	6876	6886	9
6903	6904	6905	6908	9
6903	6904	6905	6915	9
6903	6906	6907	6908	9
6903	6906	6907	6914	9
6907	6908	6905	6904	9
6904	6905	6908	6913	9
6904	6905	6915	6917	9
6907	6906	6903	6904	9
6904	6903	6906	6912	9
6904	6903	6909	6910	9
6906	6903	6904	6905	9
6905	6904	6903	6909	9
6906	6907	6908	6905	9
6905	6908	6907	6914	9
6908	6905	6904	6911	9
6908	6905	6915	6917	9
6908	6907	6906	6912	9
6908	6907	6914	6916	9
6907	6908	6905	6915	9
6907	6906	6903	6909	9
6906	6907	6908	6913	9
6906	6907	6914	6916	9
6906	6903	6904	6911	9
6906	6903	6909	6910	9
6913	6908	6907	6914	9
6912	6906	6907	6914	9
6909	6903	6904	6911	9
6909	6903	6906	6912	9
6911	6904	6905	6915	9
6913	6908	6905	6915	9
6936	6935	6932	6933	9
6936	6935	6932	6938	9
6936	6937	6934	6933	9
6936	6937	6934	6944	9
6934	6933	6932	6935	9
6935	6932	6933	6940	9
6935	6932	6938	6939	9
6934	6937	6936	6935	9
6935	6936	6937	6942	9
6935	6936	6943	6945	9
6937	6936	6935	6932	9
6932	6935	6936	6943	9
6937	6934	6933	6932	9
6932	6933	6934	6944	9
6933	6932	6935	6941	9
6933	6932	6938	6939	9
6933	6934	6937	6942	9
6933	6934	6944	6946	9
6934	6933	6932	6938	9
6934	6937	6936	6943	9
6937	6934	6933	6940	9
6937	6934	6944	6946	9
6937	6936	6935	6941	9
6937	6936	6943	6945	9
6940	6933	6934	6944	9
6942	6937	6934	6944	9
6943	6936	6935	6941	9
6943	6936	6937	6942	9
6941	6935	6932	6938	9
6940	6933	6932	6938	9
1432	1437	1436	1435	9
1432	1437	1436	1438	9
1432	1433	1434	1435	9
1432	1433	1434	1440	9
1434	1435	1436	1437	9
1437	1436	1435	1444	9
1437	1436	1438	1439	9
1434	1433	1432	1437	9
1437	1432	1433	1443	9
1437	1432	1430	1431	9
1433	1432	1437	1436	9
1436	1437	1432	1430	9
1433	1434	1435	1436	9
1436	1435	1434	1440	9
1435	1436	1437	1445	9
1435	1436	1438	1439	9
1435	1434	1433	1443	9
1435	1434	1440	1441	9
1435	1434	1440	1442	9
1434	1435	1436	1438	9
1434	1433	1432	1430	9
1433	1434	1435	1444	9
1433	1434	1440	1441	9
1433	1434	1440	1442	9
1433	1432	1437	1445	9
1433	1432	1430	1431	9
1444	1435	1434	1440	9
1443	1433	1434	1440	9
1430	1432	1437	1445	9
1430	1432	1433	1443	9
1445	1437	1436	1438	9
1444	1435	1436	1438	9
6947	6950	6951	6952	9
6947	6950	6951	6958	9
6947	6948	6949	6952	9
6947	6948	6949	6959	9
6949	6952	6951	6950	9
6950	6951	6952	6957	9
6950	6951	6958	6960	9
6949	6948	6947	6950	9
6950	6947	6948	6955	9
6950	6947	6953	6954	9
6948	6947	6950	6951	9
6951	6950	6947	6953	9
6948	6949	6952	6951	9
6951	6952	6949	6959	9
6952	6951	6950	6956	9
6952	6951	6958	6960	9
6952	6949	6948	6955	9
6952	6949	6959	6961	9
6949	6952	6951	6958	9
6949	6948	6947	6953	9
6948	6949	6952	6957	9
6948	6949	6959	6961	9
6948	6947	6950	6956	9
6948	6947	6953	6954	9
6957	6952	6949	6959	9
6955	6948	6949	6959	9
6953	6947	6950	6956	9
6953	6947	6948	6955	9
6956	6950	6951	6958	9
6957	6952	6951	6958	9
1448	1447	1446	1449	9
1448	1447	1446	1452	9
1448	1451	1450	1449	9
1448	1451	1450	1457	9
1448	1458	1461	1462	9
1447	1446	1449	1450	9
1447	1446	1449	1455	9
1447	1446	1452	1453	9
1447	1448	1451	1450	9
1447	1448	1451	1456	9
1447	1448	1458	1460	9
1447	1448	1458	1461	9
1446	1447	1448	1451	9
1446	1447	1448	1458	9
1446	1449	1450	1451	9
1446	1449	1450	1457	9
1449	1446	1447	1454	9
1449	1446	1452	1453	9
1449	1450	1451	1456	9
1449	1450	1457	1459	9
1450	1449	1446	1452	9
1450	1451	1448	1458	9
1451	1450	1449	1455	9
1451	1450	1457	1459	9
1451	1448	1447	1454	9
1451	1448	1458	1460	9
1451	1448	1458	1461	9
1455	1449	1450	1457	9
1456	1451	1450	1457	9
1454	1447	1448	1458	9
1456	1451	1448	1458	9
1452	1446	1447	1454	9
1452	1446	1449	1455	9
1460	1458	1461	1462	9
6976	6979	6980	6981	9
6976	6979	6980	6987	9
6976	6977	6978	6981	9
6976	6977	6978	6988	9
6978	6981	6980	6979	9
6979	6980	6981	6986	9
6979	6980	6987	6989	9
6978	6977	6976	6979	9
6979	6976	6977	6984	9
6979	6976	6982	6983	9
6977	6976	6979	6980	9
6980	6979	6976	6982	9
6977	6978	6981	6980	9
6980	6981	6978	6988	9
6981	6980	6979	6985	9
6981	6980	6987	6989	9
6981	6978	6977	6984	9
6981	6978	6988	6990	9
6978	6981	6980	6987	9
6978	6977	6976	6982	9
6977	6978	6981	6986	9
6977	6978	6988	6990	9
6977	6976	6979	6985	9
6977	6976	6982	6983	9
6986	6981	6978	6988	9
6984	6977	6978	6988	9
6982	6976	6979	6985	9
6982	6976	6977	6984	9
6985	6979	6980	6987	9
6986	6981	6980	6987	9
6993	6992	6991	6994	9
6993	6992	6991	6997	9
6993	6996	6995	6994	9
6993	6996	6995	7002	9
6992	6991	6994	6995	9
6992	6991	6994	7000	9
6992	6991	6997	6998	9
6992	6993	6996	6995	9
6992	6993	6996	7001	9
6992	6993	7003	7005	9
6991	6992	6993	6996	9
6991	6992	6993	7003	9
6991	6994	6995	6996	9
6991	6994	6995	7002	9
6994	6991	6992	6999	9
6994	6991	6997	6998	9
6994	6995	6996	7001	9
6994	6995	7002	7004	9
6995	6994	6991	6997	9
6995	6996	6993	7003	9
6996	6995	6994	7000	9
6996	6995	7002	7004	9
6996	6993	6992	6999	9
6996	6993	7003	7005	9
7000	6994	6995	7002	9
7001	6996	6995	7002	9
6999	6992	6993	7003	9
7001	6996	6993	7003	9
6997	6991	6992	6999	9
6997	6991	6994	7000	9
7020	7021	7022	7025	9
7020	7021	7022	7032	9
7020	7023	7024	7025	9
7020	7023	7024	7031	9
7021	7022	7025	7024	9
7021	7022	7025	7030	9
7021	7022	7032	7034	9
7021	7020	7023	7024	9
7021	7020	7023	7029	9
7021	7020	7026	7027	9
7022	7021	7020	7023	9
7022	7021	7020	7026	9
7022	7025	7024	7023	9
7022	7025	7024	7031	9
7025	7022	7021	7028	9
7025	7022	7032	7034	9
7025	7024	7023	7029	9
7025	7024	7031	7033	9
7024	7025	7022	7032	9
7024	7023	7020	7026	9
7023	7024	7025	7030	9
7023	7024	7031	7033	9
7023	7020	7021	7028	9
7023	7020	7026	7027	9
7030	7025	7024	7031	9
7029	7023	7024	7031	9
7026	7020	7021	7028	9
7026	7020	7023	7029	9
7028	7021	7022	7032	9
7030	7025	7022	7032	9
7049	7050	7051	7054	9
7049	7050	7051	7061	9
7049	7052	7053	7054	9
7049	7052	7053	7060	9
7050	7051	7054	7053	9
7050	7051	7054	7059	9
7050	7051	7061	7063	9
7050	7049	7052	7053	9
7050	7049	7052	7058	9
7050	7049	7055	7056	9
7051	7050	7049	7052	9
7051	7050	7049	7055	9
7051	7054	7053	7052	9
7051	7054	7053	7060	9
7054	7051	7050	7057	9
7054	7051	7061	7063	9
7054	7053	7052	7058	9
7054	7053	7060	7062	9
7053	7054	7051	7061	9
7053	7052	7049	7055	9
7052	7053	7054	7059	9
7052	7053	7060	7062	9
7052	7049	7050	7057	9
7052	7049	7055	7056	9
7059	7054	7053	7060	9
7058	7052	7053	7060	9
7055	7049	7050	7057	9
7055	7049	7052	7058	9
7057	7050	7051	7061	9
7059	7054	7051	7061	9
7078	7081	7082	7083	9
7078	7081	7082	7089	9
7078	7079	7080	7083	9
7078	7079	7080	7090	9
7081	7082	7083	7080	9
7081	7082	7083	7088	9
7081	7082	7089	7091	9
7081	7078	7079	7080	9
7081	7078	7079	7086	9
7081	7078	7084	7085	9
7082	7081	7078	7079	9
7082	7081	7078	7084	9
7082	7083	7080	7079	9
7082	7083	7080	7090	9
7083	7082	7081	7087	9
7083	7082	7089	7091	9
7083	7080	7079	7086	9
7083	7080	7090	7092	9
7080	7083	7082	7089	9
7080	7079	7078	7084	9
7079	7080	7083	7088	9
7079	7080	7090	7092	9
7079	7078	7081	7087	9
7079	7078	7084	7085	9
7088	7083	7080	7090	9
7086	7079	7080	7090	9
7084	7078	7081	7087	9
7084	7078	7079	7086	9
7087	7081	7082	7089	9
7088	7083	7082	7089	9
7107	7110	7111	7112	9
7107	7110	7111	7118	9
7107	7108	7109	7112	9
7107	7108	7109	7119	9
7110	7111	7112	7109	9
7110	7111	7112	7117	9
7110	7111	7118	7120	9
7110	7107	7108	7109	9
7110	7107	7108	7115	9
7110	7107	7113	7114	9
7111	7110	7107	7108	9
7111	7110	7107	7113	9
7111	7112	7109	7108	9
7111	7112	7109	7119	9
7112	7111	7110	7116	9
7112	7111	7118	7120	9
7112	7109	7108	7115	9
7112	7109	7119	7121	9
7109	7112	7111	7118	9
7109	7108	7107	7113	9
7108	7109	7112	7117	9
7108	7109	7119	7121	9
7108	7107	7110	7116	9
7108	7107	7113	7114	9
7117	7112	7109	7119	9
7115	7108	7109	7119	9
7113	7107	7110	7116	9
7113	7107	7108	7115	9
7116	7110	7111	7118	9
7117	7112	7111	7118	9
1493	1494	1495	1496	9
1493	1494	1495	1501	9
1493	1498	1497	1496	9
1493	1498	1497	1499	9
1494	1495	1496	1497	9
1494	1495	1496	1505	9
1494	1495	1501	1502	9
1494	1495	1501	1503	9
1494	1493	1498	1497	9
1494	1493	1498	1506	9
1494	1493	1491	1492	9
1495	1494	1493	1498	9
1495	1494	1493	1491	9
1495	1496	1497	1498	9
1495	1496	1497	1499	9
1496	1495	1494	1504	9
1496	1495	1501	1502	9
1496	1495	1501	1503	9
1496	1497	1498	1506	9
1496	1497	1499	1500	9
1497	1496	1495	1501	9
1497	1498	1493	1491	9
1498	1497	1496	1505	9
1498	1497	1499	1500	9
1498	1493	1494	1504	9
1498	1493	1491	1492	9
1505	1496	1497	1499	9
1506	1498	1497	1499	9
1491	1493	1494	1504	9
1491	1493	1498	1506	9
1504	1494	1495	1501	9
1505	1496	1495	1501	9
7140	7141	7138	7137	9
7140	7141	7138	7148	9
7140	7139	7136	7137	9
7140	7139	7136	7142	9
7141	7138	7137	7136	9
7141	7138	7137	7144	9
7141	7138	7148	7150	9
7141	7140	7139	7136	9
7141	7140	7139	7145	9
7141	7140	7147	7149	9
7138	7141	7140	7139	9
7138	7141	7140	7147	9
7138	7137	7136	7139	9
7138	7137	7136	7142	9
7137	7138	7141	7146	9
7137	7138	7148	7150	9
7137	7136	7139	7145	9
7137	7136	7142	7143	9
7136	7137	7138	7148	9
7136	7139	7140	7147	9
7139	7136	7137	7144	9
7139	7136	7142	7143	9
7139	7140	7141	7146	9
7139	7140	7147	7149	9
7144	7137	7136	7142	9
7145	7139	7136	7142	9
7147	7140	7141	7146	9
7147	7140	7139	7145	9
7146	7141	7138	7148	9
7144	7137	7138	7148	9
7166	7165	7168	7169	9
7169	7168	7165	7171	9
7166	7167	7170	7169	9
7169	7170	7167	7177	9
7167	7166	7165	7168	9
7168	7165	7166	7173	9
7168	7165	7171	7172	9
7167	7170	7169	7168	9
7168	7169	7170	7175	9
7168	7169	7176	7178	9
7165	7168	7169	7170	9
7165	7168	7169	7176	9
7165	7166	7167	7170	9
7165	7166	7167	7177	9
7166	7165	7168	7174	9
7166	7165	7171	7172	9
7166	7167	7170	7175	9
7166	7167	7177	7179	9
7167	7166	7165	7171	9
7167	7170	7169	7176	9
7170	7167	7166	7173	9
7170	7167	7177	7179	9
7170	7169	7168	7174	9
7170	7169	7176	7178	9
7173	7166	7167	7177	9
7175	7170	7167	7177	9
7174	7168	7169	7176	9
7175	7170	7169	7176	9
7171	7165	7168	7174	9
7171	7165	7166	7173	9
72	73	68	69	9
72	73	68	66	9
72	71	70	69	9
72	71	70	76	9
70	69	68	73	9
73	68	69	80	9
73	68	66	67	9
73	68	66	65	9
70	71	72	73	9
73	72	71	81	9
73	72	74	75	9
71	72	73	68	9
68	73	72	74	9
71	70	69	68	9
68	69	70	76	9
68	66	65	79	9
69	68	73	82	9
69	68	66	67	9
69	68	66	65	9
69	70	71	81	9
69	70	76	77	9
69	70	76	78	9
70	69	68	66	9
70	71	72	74	9
71	70	69	80	9
71	70	76	77	9
71	70	76	78	9
71	72	73	82	9
71	72	74	75	9
80	69	70	76	9
81	71	70	76	9
74	72	73	82	9
74	72	71	81	9
82	73	68	66	9
80	69	68	66	9
67	66	65	79	9
7180	7181	7182	7185	9
7180	7181	7182	7192	9
7180	7183	7184	7185	9
7180	7183	7184	7191	9
7181	7182	7185	7184	9
7181	7182	7185	7190	9
7181	7182	7192	7194	9
7181	7180	7183	7184	9
7181	7180	7183	7189	9
7181	7180	7186	7187	9
7182	7181	7180	7183	9
7182	7181	7180	7186	9
7182	7185	7184	7183	9
7182	7185	7184	7191	9
7185	7182	7181	7188	9
7185	7182	7192	7194	9
7185	7184	7183	7189	9
7185	7184	7191	7193	9
7184	7185	7182	7192	9
7184	7183	7180	7186	9
7183	7184	7185	7190	9
7183	7184	7191	7193	9
7183	7180	7181	7188	9
7183	7180	7186	7187	9
7190	7185	7184	7191	9
7189	7183	7184	7191	9
7186	7180	7181	7188	9
7186	7180	7183	7189	9
7188	7181	7182	7192	9
7190	7185	7182	7192	9
7209	7210	7211	7214	9
7209	7210	7211	7221	9
7209	7212	7213	7214	9
7209	7212	7213	7220	9
7210	7211	7214	7213	9
7210	7211	7214	7219	9
7210	7211	7221	7223	9
7210	7209	7212	7213	9
7210	7209	7212	7218	9
7210	7209	7215	7216	9
7211	7210	7209	7212	9
7211	7210	7209	7215	9
7211	7214	7213	7212	9
7211	7214	7213	7220	9
7214	7211	7210	7217	9
7214	7211	7221	7223	9
7214	7213	7212	7218	9
7214	7213	7220	7222	9
7213	7214	7211	7221	9
7213	7212	7209	7215	9
7212	7213	7214	7219	9
7212	7213	7220	7222	9
7212	7209	7210	7217	9
7212	7209	7215	7216	9
7219	7214	7213	7220	9
7218	7212	7213	7220	9
7215	7209	7210	7217	9
7215	7209	7212	7218	9
7217	7210	7211	7221	9
7219	7214	7211	7221	9
7238	7241	7242	7243	9
7238	7241	7242	7249	9
7238	7239	7240	7243	9
7238	7239	7240	7250	9
7240	7243	7242	7241	9
7241	7242	7243	7248	9
7241	7242	7249	7251	9
7240	7239	7238	7241	9
7241	7238	7239	7246	9
7241	7238	7244	7245	9
7239	7238	7241	7242	9
7242	7241	7238	7244	9
7239	7240	7243	7242	9
7242	7243	7240	7250	9
7243	7242	7241	7247	9
7243	7242	7249	7251	9
7243	7240	7239	7246	9
7243	7240	7250	7252	9
7240	7243	7242	7249	9
7240	7239	7238	7244	9
7239	7240	7243	7248	9
7239	7240	7250	7252	9
7239	7238	7241	7247	9
7239	7238	7244	7245	9
7248	7243	7240	7250	9
7246	7239	7240	7250	9
7244	7238	7241	7247	9
7244	7238	7239	7246	9
7247	7241	7242	7249	9
7248	7243	7242	7249	9
7267	7270	7271	7272	9
7267	7270	7271	7278	9
7267	7268	7269	7272	9
7267	7268	7269	7279	9
7269	7272	7271	7270	9
7270	7271	7272	7277	9
7270	7271	7278	7280	9
7269	7268	7267	7270	9
7270	7267	7268	7275	9
7270	7267	7273	7274	9
7268	7267	7270	7271	9
7271	7270	7267	7273	9
7268	7269	7272	7271	9
7271	7272	7269	7279	9
7272	7271	7270	7276	9
7272	7271	7278	7280	9
7272	7269	7268	7275	9
7272	7269	7279	7281	9
7269	7272	7271	7278	9
7269	7268	7267	7273	9
7268	7269	7272	7277	9
7268	7269	7279	7281	9
7268	7267	7270	7276	9
7268	7267	7273	7274	9
7277	7272	7269	7279	9
7275	7268	7269	7279	9
7273	7267	7270	7276	9
7273	7267	7268	7275	9
7276	7270	7271	7278	9
7277	7272	7271	7278	9
7296	7297	7298	7301	9
7296	7297	7298	7308	9
7296	7299	7300	7301	9
7296	7299	7300	7307	9
7300	7301	7298	7297	9
7297	7298	7301	7306	9
7297	7298	7308	7310	9
7300	7299	7296	7297	9
7297	7296	7299	7305	9
7297	7296	7302	7303	9
7299	7296	7297	7298	9
7298	7297	7296	7302	9
7299	7300	7301	7298	9
7298	7301	7300	7307	9
7301	7298	7297	7304	9
7301	7298	7308	7310	9
7301	7300	7299	7305	9
7301	7300	7307	7309	9
7300	7301	7298	7308	9
7300	7299	7296	7302	9
7299	7300	7301	7306	9
7299	7300	7307	7309	9
7299	7296	7297	7304	9
7299	7296	7302	7303	9
7306	7301	7300	7307	9
7305	7299	7300	7307	9
7302	7296	7297	7304	9
7302	7296	7299	7305	9
7304	7297	7298	7308	9
7306	7301	7298	7308	9
1525	1524	1523	1528	9
1525	1524	1523	1521	9
1525	1526	1527	1528	9
1525	1526	1527	1529	9
1524	1523	1528	1527	9
1524	1523	1528	1536	9
1524	1523	1521	1522	9
1524	1525	1526	1527	9
1524	1525	1526	1535	9
1524	1525	1531	1532	9
1524	1525	1531	1533	9
1523	1524	1525	1526	9
1523	1524	1525	1531	9
1523	1528	1527	1526	9
1523	1528	1527	1529	9
1528	1523	1524	1534	9
1528	1523	1521	1522	9
1528	1527	1526	1535	9
1528	1527	1529	1530	9
1527	1528	1523	1521	9
1527	1526	1525	1531	9
1526	1527	1528	1536	9
1526	1527	1529	1530	9
1526	1525	1524	1534	9
1526	1525	1531	1532	9
1526	1525	1531	1533	9
1536	1528	1527	1529	9
1535	1526	1527	1529	9
1534	1524	1525	1531	9
1535	1526	1525	1531	9
1521	1523	1524	1534	9
1521	1523	1528	1536	9
1557	1558	1553	1554	9
1557	1558	1553	1551	9
1557	1556	1555	1554	9
1557	1556	1555	1561	9
1555	1554	1553	1558	9
1558	1553	1554	1564	9
1558	1553	1551	1552	9
1555	1556	1557	1558	9
1558	1557	1556	1565	9
1558	1557	1559	1560	9
1556	1557	1558	1553	9
1553	1558	1557	1559	9
1556	1555	1554	1553	9
1553	1554	1555	1561	9
1554	1553	1558	1566	9
1554	1553	1551	1552	9
1554	1555	1556	1565	9
1554	1555	1561	1562	9
1554	1555	1561	1563	9
1555	1554	1553	1551	9
1555	1556	1557	1559	9
1556	1555	1554	1564	9
1556	1555	1561	1562	9
1556	1555	1561	1563	9
1556	1557	1558	1566	9
1556	1557	1559	1560	9
1564	1554	1555	1561	9
1565	1556	1555	1561	9
1559	1557	1558	1566	9
1559	1557	1556	1565	9
1566	1558	1553	1551	9
1564	1554	1553	1551	9
7325	7326	7327	7330	9
7325	7326	7327	7337	9
7325	7328	7329	7330	9
7325	7328	7329	7336	9
7329	7330	7327	7326	9
7326	7327	7330	7335	9
7326	7327	7337	7339	9
7329	7328	7325	7326	9
7326	7325	7328	7334	9
7326	7325	7331	7332	9
7328	7325	7326	7327	9
7327	7326	7325	7331	9
7328	7329	7330	7327	9
7327	7330	7329	7336	9
7330	7327	7326	7333	9
7330	7327	7337	7339	9
7330	7329	7328	7334	9
7330	7329	7336	7338	9
7329	7330	7327	7337	9
7329	7328	7325	7331	9
7328	7329	7330	7335	9
7328	7329	7336	7338	9
7328	7325	7326	7333	9
7328	7325	7331	7332	9
7335	7330	7329	7336	9
7334	7328	7329	7336	9
7331	7325	7326	7333	9
7331	7325	7328	7334	9
7333	7326	7327	7337	9
7335	7330	7327	7337	9
1567	1568	1569	1572	9
1567	1568	1569	1579	9
1567	1570	1571	1572	9
1567	1570	1571	1578	9
1568	1569	1572	1571	9
1568	1569	1572	1577	9
1568	1569	1579	1581	9
1568	1569	1579	1582	9
1568	1567	1570	1571	9
1568	1567	1570	1576	9
1568	1567	1573	1574	9
1569	1568	1567	1570	9
1569	1568	1567	1573	9
1569	1572	1571	1570	9
1569	1572	1571	1578	9
1569	1579	1582	1583	9
1572	1569	1568	1575	9
1572	1569	1579	1581	9
1572	1569	1579	1582	9
1572	1571	1570	1576	9
1572	1571	1578	1580	9
1571	1572	1569	1579	9
1571	1570	1567	1573	9
1570	1571	1572	1577	9
1570	1571	1578	1580	9
1570	1567	1568	1575	9
1570	1567	1573	1574	9
1577	1572	1571	1578	9
1576	1570	1571	1578	9
1573	1567	1568	1575	9
1573	1567	1570	1576	9
1575	1568	1569	1579	9
1577	1572	1569	1579	9
1581	1579	1582	1583	9
1616	1615	1614	1619	9
1616	1615	1614	1612	9
1616	1617	1618	1619	9
1616	1617	1618	1620	9
1615	1614	1619	1618	9
1615	1614	1619	1627	9
1615	1614	1612	1613	9
1615	1616	1617	1618	9
1615	1616	1617	1626	9
1615	1616	1622	1623	9
1615	1616	1622	1624	9
1614	1615	1616	1617	9
1614	1615	1616	1622	9
1614	1619	1618	1617	9
1614	1619	1618	1620	9
1619	1614	1615	1625	9
1619	1614	1612	1613	9
1619	1618	1617	1626	9
1619	1618	1620	1621	9
1618	1619	1614	1612	9
1618	1617	1616	1622	9
1617	1618	1619	1627	9
1617	1618	1620	1621	9
1617	1616	1615	1625	9
1617	1616	1622	1623	9
1617	1616	1622	1624	9
1627	1619	1618	1620	9
1626	1617	1618	1620	9
1625	1615	1616	1622	9
1626	1617	1616	1622	9
1612	1614	1615	1625	9
1612	1614	1619	1627	9
7340	7343	7344	7345	9
7340	7343	7344	7351	9
7340	7341	7342	7345	9
7340	7341	7342	7352	9
7342	7345	7344	7343	9
7343	7344	7345	7350	9
7343	7344	7351	7353	9
7342	7341	7340	7343	9
7343	7340	7341	7348	9
7343	7340	7346	7347	9
7341	7340	7343	7344	9
7344	7343	7340	7346	9
7341	7342	7345	7344	9
7344	7345	7342	7352	9
7345	7344	7343	7349	9
7345	7344	7351	7353	9
7345	7342	7341	7348	9
7345	7342	7352	7354	9
7342	7345	7344	7351	9
7342	7341	7340	7346	9
7341	7342	7345	7350	9
7341	7342	7352	7354	9
7341	7340	7343	7349	9
7341	7340	7346	7347	9
7350	7345	7342	7352	9
7348	7341	7342	7352	9
7346	7340	7343	7349	9
7346	7340	7341	7348	9
7349	7343	7344	7351	9
7350	7345	7344	7351	9
102	103	104	105	9
102	103	104	106	9
102	101	100	105	9
102	101	100	98	9
103	104	105	100	9
103	104	105	114	9
103	104	106	107	9
103	102	101	100	9
103	102	101	112	9
103	102	108	109	9
103	102	108	110	9
104	103	102	101	9
104	103	102	108	9
104	105	100	101	9
104	105	100	98	9
105	104	103	113	9
105	104	106	107	9
105	100	101	112	9
105	100	98	99	9
105	100	98	97	9
100	105	104	106	9
100	101	102	108	9
100	98	97	111	9
101	100	105	114	9
101	100	98	99	9
101	100	98	97	9
101	102	103	113	9
101	102	108	109	9
101	102	108	110	9
114	105	100	98	9
112	101	100	98	9
113	103	102	108	9
112	101	102	108	9
106	104	103	113	9
106	104	105	114	9
99	98	97	111	9
7355	7358	7359	7360	9
7355	7358	7359	7366	9
7355	7356	7357	7360	9
7355	7356	7357	7367	9
7357	7360	7359	7358	9
7358	7359	7360	7365	9
7358	7359	7366	7368	9
7357	7356	7355	7358	9
7358	7355	7356	7363	9
7358	7355	7361	7362	9
7356	7355	7358	7359	9
7359	7358	7355	7361	9
7356	7357	7360	7359	9
7359	7360	7357	7367	9
7360	7359	7358	7364	9
7360	7359	7366	7368	9
7360	7357	7356	7363	9
7360	7357	7367	7369	9
7357	7360	7359	7366	9
7357	7356	7355	7361	9
7356	7357	7360	7365	9
7356	7357	7367	7369	9
7356	7355	7358	7364	9
7356	7355	7361	7362	9
7365	7360	7357	7367	9
7363	7356	7357	7367	9
7361	7355	7358	7364	9
7361	7355	7356	7363	9
7364	7358	7359	7366	9
7365	7360	7359	7366	9
7384	7387	7388	7389	9
7384	7387	7388	7395	9
7384	7385	7386	7389	9
7384	7385	7386	7396	9
7386	7389	7388	7387	9
7387	7388	7389	7394	9
7387	7388	7395	7397	9
7386	7385	7384	7387	9
7387	7384	7385	7392	9
7387	7384	7390	7391	9
7385	7384	7387	7388	9
7388	7387	7384	7390	9
7385	7386	7389	7388	9
7388	7389	7386	7396	9
7389	7388	7387	7393	9
7389	7388	7395	7397	9
7389	7386	7385	7392	9
7389	7386	7396	7398	9
7386	7389	7388	7395	9
7386	7385	7384	7390	9
7385	7386	7389	7394	9
7385	7386	7396	7398	9
7385	7384	7387	7393	9
7385	7384	7390	7391	9
7394	7389	7386	7396	9
7392	7385	7386	7396	9
7390	7384	7387	7393	9
7390	7384	7385	7392	9
7393	7387	7388	7395	9
7394	7389	7388	7395	9
7413	7416	7417	7418	9
7413	7416	7417	7424	9
7413	7414	7415	7418	9
7413	7414	7415	7425	9
7415	7418	7417	7416	9
7416	7417	7418	7423	9
7416	7417	7424	7426	9
7415	7414	7413	7416	9
7416	7413	7414	7421	9
7416	7413	7419	7420	9
7414	7413	7416	7417	9
7417	7416	7413	7419	9
7414	7415	7418	7417	9
7417	7418	7415	7425	9
7418	7417	7416	7422	9
7418	7417	7424	7426	9
7418	7415	7414	7421	9
7418	7415	7425	7427	9
7415	7418	7417	7424	9
7415	7414	7413	7419	9
7414	7415	7418	7423	9
7414	7415	7425	7427	9
7414	7413	7416	7422	9
7414	7413	7419	7420	9
7423	7418	7415	7425	9
7421	7414	7415	7425	9
7419	7413	7416	7422	9
7419	7413	7414	7421	9
7422	7416	7417	7424	9
7423	7418	7417	7424	9
7442	7445	7446	7447	9
7442	7445	7446	7453	9
7442	7443	7444	7447	9
7442	7443	7444	7454	9
7444	7447	7446	7445	9
7445	7446	7447	7452	9
7445	7446	7453	7455	9
7444	7443	7442	7445	9
7445	7442	7443	7450	9
7445	7442	7448	7449	9
7443	7442	7445	7446	9
7446	7445	7442	7448	9
7443	7444	7447	7446	9
7446	7447	7444	7454	9
7447	7446	7445	7451	9
7447	7446	7453	7455	9
7447	7444	7443	7450	9
7447	7444	7454	7456	9
7444	7447	7446	7453	9
7444	7443	7442	7448	9
7443	7444	7447	7452	9
7443	7444	7454	7456	9
7443	7442	7445	7451	9
7443	7442	7448	7449	9
7452	7447	7444	7454	9
7450	7443	7444	7454	9
7448	7442	7445	7451	9
7448	7442	7443	7450	9
7451	7445	7446	7453	9
7452	7447	7446	7453	9
7457	7458	7459	7462	9
7457	7458	7459	7469	9
7457	7460	7461	7462	9
7457	7460	7461	7468	9
7458	7459	7462	7461	9
7458	7459	7462	7467	9
7458	7459	7469	7471	9
7458	7457	7460	7461	9
7458	7457	7460	7466	9
7458	7457	7463	7464	9
7459	7458	7457	7460	9
7459	7458	7457	7463	9
7459	7462	7461	7460	9
7459	7462	7461	7468	9
7462	7459	7458	7465	9
7462	7459	7469	7471	9
7462	7461	7460	7466	9
7462	7461	7468	7470	9
7461	7462	7459	7469	9
7461	7460	7457	7463	9
7460	7461	7462	7467	9
7460	7461	7468	7470	9
7460	7457	7458	7465	9
7460	7457	7463	7464	9
7467	7462	7461	7468	9
7466	7460	7461	7468	9
7463	7457	7458	7465	9
7463	7457	7460	7466	9
7465	7458	7459	7469	9
7467	7462	7459	7469	9
7486	7489	7490	7491	9
7486	7489	7490	7497	9
7486	7487	7488	7491	9
7486	7487	7488	7498	9
7489	7490	7491	7488	9
7489	7490	7491	7496	9
7489	7490	7497	7499	9
7489	7486	7487	7488	9
7489	7486	7487	7494	9
7489	7486	7492	7493	9
7490	7489	7486	7487	9
7490	7489	7486	7492	9
7490	7491	7488	7487	9
7490	7491	7488	7498	9
7491	7490	7489	7495	9
7491	7490	7497	7499	9
7491	7488	7487	7494	9
7491	7488	7498	7500	9
7488	7491	7490	7497	9
7488	7487	7486	7492	9
7487	7488	7491	7496	9
7487	7488	7498	7500	9
7487	7486	7489	7495	9
7487	7486	7492	7493	9
7496	7491	7488	7498	9
7494	7487	7488	7498	9
7492	7486	7489	7495	9
7492	7486	7487	7494	9
7495	7489	7490	7497	9
7496	7491	7490	7497	9
1628	1631	1632	1633	9
1628	1631	1632	1639	9
1628	1629	1630	1633	9
1628	1629	1630	1640	9
1630	1633	1632	1631	9
1631	1632	1633	1638	9
1631	1632	1639	1641	9
1630	1629	1628	1631	9
1631	1628	1629	1636	9
1631	1628	1634	1635	9
1629	1628	1631	1632	9
1632	1631	1628	1634	9
1629	1630	1633	1632	9
1632	1633	1630	1640	9
1633	1632	1631	1637	9
1633	1632	1639	1641	9
1633	1630	1629	1636	9
1633	1630	1640	1642	9
1633	1630	1640	1643	9
1630	1633	1632	1639	9
1630	1629	1628	1634	9
1630	1640	1643	1644	9
1629	1630	1633	1638	9
1629	1630	1640	1642	9
1629	1630	1640	1643	9
1629	1628	1631	1637	9
1629	1628	1634	1635	9
1638	1633	1630	1640	9
1636	1629	1630	1640	9
1634	1628	1631	1637	9
1634	1628	1629	1636	9
1637	1631	1632	1639	9
1638	1633	1632	1639	9
1642	1640	1643	1644	9
7515	7518	7519	7520	9
7515	7518	7519	7526	9
7515	7516	7517	7520	9
7515	7516	7517	7527	9
7518	7519	7520	7517	9
7518	7519	7520	7525	9
7518	7519	7526	7528	9
7518	7515	7516	7517	9
7518	7515	7516	7523	9
7518	7515	7521	7522	9
7519	7518	7515	7516	9
7519	7518	7515	7521	9
7519	7520	7517	7516	9
7519	7520	7517	7527	9
7520	7519	7518	7524	9
7520	7519	7526	7528	9
7520	7517	7516	7523	9
7520	7517	7527	7529	9
7517	7520	7519	7526	9
7517	7516	7515	7521	9
7516	7517	7520	7525	9
7516	7517	7527	7529	9
7516	7515	7518	7524	9
7516	7515	7521	7522	9
7525	7520	7517	7527	9
7523	7516	7517	7527	9
7521	7515	7518	7524	9
7521	7515	7516	7523	9
7524	7518	7519	7526	9
7525	7520	7519	7526	9
7530	7531	7532	7535	9
7530	7531	7532	7542	9
7530	7533	7534	7535	9
7530	7533	7534	7541	9
7531	7532	7535	7534	9
7531	7532	7535	7540	9
7531	7532	7542	7544	9
7531	7530	7533	7534	9
7531	7530	7533	7539	9
7531	7530	7536	7537	9
7532	7531	7530	7533	9
7532	7531	7530	7536	9
7532	7535	7534	7533	9
7532	7535	7534	7541	9
7535	7532	7531	7538	9
7535	7532	7542	7544	9
7535	7534	7533	7539	9
7535	7534	7541	7543	9
7534	7535	7532	7542	9
7534	7533	7530	7536	9
7533	7534	7535	7540	9
7533	7534	7541	7543	9
7533	7530	7531	7538	9
7533	7530	7536	7537	9
7540	7535	7534	7541	9
7539	7533	7534	7541	9
7536	7530	7531	7538	9
7536	7530	7533	7539	9
7538	7531	7532	7542	9
7540	7535	7532	7542	9
7563	7564	7561	7560	9
7563	7564	7561	7571	9
7563	7562	7559	7560	9
7563	7562	7559	7565	9
7564	7561	7560	7559	9
7564	7561	7560	7567	9
7564	7561	7571	7573	9
7564	7563	7562	7559	9
7564	7563	7562	7568	9
7564	7563	7570	7572	9
7561	7564	7563	7562	9
7561	7564	7563	7570	9
7561	7560	7559	7562	9
7561	7560	7559	7565	9
7560	7561	7564	7569	9
7560	7561	7571	7573	9
7560	7559	7562	7568	9
7560	7559	7565	7566	9
7559	7560	7561	7571	9
7559	7562	7563	7570	9
7562	7559	7560	7567	9
7562	7559	7565	7566	9
7562	7563	7564	7569	9
7562	7563	7570	7572	9
7567	7560	7559	7565	9
7568	7562	7559	7565	9
7570	7563	7564	7569	9
7570	7563	7562	7568	9
7569	7564	7561	7571	9
7567	7560	7561	7571	9
7588	7591	7592	7593	9
7588	7591	7592	7599	9
7588	7589	7590	7593	9
7588	7589	7590	7600	9
7590	7593	7592	7591	9
7591	7592	7593	7598	9
7591	7592	7599	7601	9
7590	7589	7588	7591	9
7591	7588	7589	7596	9
7591	7588	7594	7595	9
7589	7588	7591	7592	9
7592	7591	7588	7594	9
7589	7590	7593	7592	9
7592	7593	7590	7600	9
7593	7592	7591	7597	9
7593	7592	7599	7601	9
7593	7590	7589	7596	9
7593	7590	7600	7602	9
7590	7593	7592	7599	9
7590	7589	7588	7594	9
7589	7590	7593	7598	9
7589	7590	7600	7602	9
7589	7588	7591	7597	9
7589	7588	7594	7595	9
7598	7593	7590	7600	9
7596	7589	7590	7600	9
7594	7588	7591	7597	9
7594	7588	7589	7596	9
7597	7591	7592	7599	9
7598	7593	7592	7599	9
1675	1680	1679	1678	9
1675	1680	1679	1681	9
1675	1676	1677	1678	9
1675	1676	1677	1683	9
1677	1678	1679	1680	9
1680	1679	1678	1687	9
1680	1679	1681	1682	9
1677	1676	1675	1680	9
1680	1675	1676	1686	9
1680	1675	1673	1674	9
1676	1675	1680	1679	9
1679	1680	1675	1673	9
1676	1677	1678	1679	9
1679	1678	1677	1683	9
1678	1679	1680	1688	9
1678	1679	1681	1682	9
1678	1677	1676	1686	9
1678	1677	1683	1684	9
1678	1677	1683	1685	9
1677	1678	1679	1681	9
1677	1676	1675	1673	9
1676	1677	1678	1687	9
1676	1677	1683	1684	9
1676	1677	1683	1685	9
1676	1675	1680	1688	9
1676	1675	1673	1674	9
1687	1678	1677	1683	9
1686	1676	1677	1683	9
1673	1675	1680	1688	9
1673	1675	1676	1686	9
1688	1680	1679	1681	9
1687	1678	1679	1681	9
7603	7606	7607	7608	9
7603	7606	7607	7614	9
7603	7604	7605	7608	9
7603	7604	7605	7615	9
7605	7608	7607	7606	9
7606	7607	7608	7613	9
7606	7607	7614	7616	9
7605	7604	7603	7606	9
7606	7603	7604	7611	9
7606	7603	7609	7610	9
7604	7603	7606	7607	9
7607	7606	7603	7609	9
7604	7605	7608	7607	9
7607	7608	7605	7615	9
7608	7607	7606	7612	9
7608	7607	7614	7616	9
7608	7605	7604	7611	9
7608	7605	7615	7617	9
7605	7608	7607	7614	9
7605	7604	7603	7609	9
7604	7605	7608	7613	9
7604	7605	7615	7617	9
7604	7603	7606	7612	9
7604	7603	7609	7610	9
7613	7608	7605	7615	9
7611	7604	7605	7615	9
7609	7603	7606	7612	9
7609	7603	7604	7611	9
7612	7606	7607	7614	9
7613	7608	7607	7614	9
7632	7635	7636	7637	9
7632	7635	7636	7643	9
7632	7633	7634	7637	9
7632	7633	7634	7644	9
7634	7637	7636	7635	9
7635	7636	7637	7642	9
7635	7636	7643	7645	9
7634	7633	7632	7635	9
7635	7632	7633	7640	9
7635	7632	7638	7639	9
7633	7632	7635	7636	9
7636	7635	7632	7638	9
7633	7634	7637	7636	9
7636	7637	7634	7644	9
7637	7636	7635	7641	9
7637	7636	7643	7645	9
7637	7634	7633	7640	9
7637	7634	7644	7646	9
7634	7637	7636	7643	9
7634	7633	7632	7638	9
7633	7634	7637	7642	9
7633	7634	7644	7646	9
7633	7632	7635	7641	9
7633	7632	7638	7639	9
7642	7637	7634	7644	9
7640	7633	7634	7644	9
7638	7632	7635	7641	9
7638	7632	7633	7640	9
7641	7635	7636	7643	9
7642	7637	7636	7643	9
7661	7664	7665	7666	9
7661	7664	7665	7672	9
7661	7662	7663	7666	9
7661	7662	7663	7673	9
7663	7666	7665	7664	9
7664	7665	7666	7671	9
7664	7665	7672	7674	9
7663	7662	7661	7664	9
7664	7661	7662	7669	9
7664	7661	7667	7668	9
7662	7661	7664	7665	9
7665	7664	7661	7667	9
7662	7663	7666	7665	9
7665	7666	7663	7673	9
7666	7665	7664	7670	9
7666	7665	7672	7674	9
7666	7663	7662	7669	9
7666	7663	7673	7675	9
7663	7666	7665	7672	9
7663	7662	7661	7667	9
7662	7663	7666	7671	9
7662	7663	7673	7675	9
7662	7661	7664	7670	9
7662	7661	7667	7668	9
7671	7666	7663	7673	9
7669	7662	7663	7673	9
7667	7661	7664	7670	9
7667	7661	7662	7669	9
7670	7664	7665	7672	9
7671	7666	7665	7672	9
1689	1690	1691	1694	9
1689	1690	1691	1701	9
1689	1692	1693	1694	9
1689	1692	1693	1700	9
1690	1691	1694	1693	9
1690	1691	1694	1699	9
1690	1691	1701	1703	9
1690	1691	1701	1704	9
1690	1689	1692	1693	9
1690	1689	1692	1698	9
1690	1689	1695	1696	9
1691	1690	1689	1692	9
1691	1690	1689	1695	9
1691	1694	1693	1692	9
1691	1694	1693	1700	9
1691	1701	1704	1705	9
1694	1691	1690	1697	9
1694	1691	1701	1703	9
1694	1691	1701	1704	9
1694	1693	1692	1698	9
1694	1693	1700	1702	9
1693	1694	1691	1701	9
1693	1692	1689	1695	9
1692	1693	1694	1699	9
1692	1693	1700	1702	9
1692	1689	1690	1697	9
1692	1689	1695	1696	9
1699	1694	1693	1700	9
1698	1692	1693	1700	9
1695	1689	1690	1697	9
1695	1689	1692	1698	9
1697	1690	1691	1701	9
1699	1694	1691	1701	9
1703	1701	1704	1705	9
7694	7695	7692	7691	9
7694	7695	7692	7702	9
7694	7693	7690	7691	9
7694	7693	7690	7696	9
7690	7691	7692	7695	9
7695	7692	7691	7698	9
7695	7692	7702	7704	9
7690	7693	7694	7695	9
7695	7694	7693	7699	9
7695	7694	7701	7703	9
7693	7694	7695	7692	9
7692	7695	7694	7701	9
7693	7690	7691	7692	9
7692	7691	7690	7696	9
7691	7692	7695	7700	9
7691	7692	7702	7704	9
7691	7690	7693	7699	9
7691	7690	7696	7697	9
7690	7691	7692	7702	9
7690	7693	7694	7701	9
7693	7690	7691	7698	9
7693	7690	7696	7697	9
7693	7694	7695	7700	9
7693	7694	7701	7703	9
7696	7690	7691	7698	9
7696	7690	7693	7699	9
7700	7695	7694	7701	9
7699	7693	7694	7701	9
7700	7695	7692	7702	9
7698	7691	7692	7702	9
7719	7720	7721	7724	9
7719	7720	7721	7731	9
7719	7722	7723	7724	9
7719	7722	7723	7730	9
7723	7724	7721	7720	9
7720	7721	7724	7729	9
7720	7721	7731	7733	9
7723	7722	7719	7720	9
7720	7719	7722	7728	9
7720	7719	7725	7726	9
7722	7719	7720	7721	9
7721	7720	7719	7725	9
7722	7723	7724	7721	9
7721	7724	7723	7730	9
7724	7721	7720	7727	9
7724	7721	7731	7733	9
7724	7723	7722	7728	9
7724	7723	7730	7732	9
7723	7724	7721	7731	9
7723	7722	7719	7725	9
7722	7723	7724	7729	9
7722	7723	7730	7732	9
7722	7719	7720	7727	9
7722	7719	7725	7726	9
7729	7724	7723	7730	9
7728	7722	7723	7730	9
7725	7719	7720	7727	9
7725	7719	7722	7728	9
7727	7720	7721	7731	9
7729	7724	7721	7731	9
7748	7749	7750	7753	9
7748	7749	7750	7760	9
7748	7751	7752	7753	9
7748	7751	7752	7759	9
7749	7750	7753	7752	9
7749	7750	7753	7758	9
7749	7750	7760	7762	9
7749	7748	7751	7752	9
7749	7748	7751	7757	9
7749	7748	7754	7755	9
7750	7749	7748	7751	9
7750	7749	7748	7754	9
7750	7753	7752	7751	9
7750	7753	7752	7759	9
7753	7750	7749	7756	9
7753	7750	7760	7762	9
7753	7752	7751	7757	9
7753	7752	7759	7761	9
7752	7753	7750	7760	9
7752	7751	7748	7754	9
7751	7752	7753	7758	9
7751	7752	7759	7761	9
7751	7748	7749	7756	9
7751	7748	7754	7755	9
7758	7753	7752	7759	9
7757	7751	7752	7759	9
7754	7748	7749	7756	9
7754	7748	7751	7757	9
7756	7749	7750	7760	9
7758	7753	7750	7760	9
1736	1737	1738	1739	9
1736	1737	1738	1744	9
1736	1741	1740	1739	9
1736	1741	1740	1742	9
1737	1738	1739	1740	9
1737	1738	1739	1748	9
1737	1738	1744	1745	9
1737	1738	1744	1746	9
1737	1736	1741	1740	9
1737	1736	1741	1749	9
1737	1736	1734	1735	9
1738	1737	1736	1741	9
1738	1737	1736	1734	9
1738	1739	1740	1741	9
1738	1739	1740	1742	9
1739	1738	1737	1747	9
1739	1738	1744	1745	9
1739	1738	1744	1746	9
1739	1740	1741	1749	9
1739	1740	1742	1743	9
1740	1739	1738	1744	9
1740	1741	1736	1734	9
1741	1740	1739	1748	9
1741	1740	1742	1743	9
1741	1736	1737	1747	9
1741	1736	1734	1735	9
1748	1739	1740	1742	9
1749	1741	1740	1742	9
1734	1736	1737	1747	9
1734	1736	1741	1749	9
1747	1737	1738	1744	9
1748	1739	1738	1744	9
7777	7778	7779	7782	9
7777	7778	7779	7789	9
7777	7780	7781	7782	9
7777	7780	7781	7788	9
7778	7779	7782	7781	9
7778	7779	7782	7787	9
7778	7779	7789	7791	9
7778	7777	7780	7781	9
7778	7777	7780	7786	9
7778	7777	7783	7784	9
7779	7778	7777	7780	9
7779	7778	7777	7783	9
7779	7782	7781	7780	9
7779	7782	7781	7788	9
7782	7779	7778	7785	9
7782	7779	7789	7791	9
7782	7781	7780	7786	9
7782	7781	7788	7790	9
7781	7782	7779	7789	9
7781	7780	7777	7783	9
7780	7781	7782	7787	9
7780	7781	7788	7790	9
7780	7777	7778	7785	9
7780	7777	7783	7784	9
7787	7782	7781	7788	9
7786	7780	7781	7788	9
7783	7777	7778	7785	9
7783	7777	7780	7786	9
7785	7778	7779	7789	9
7787	7782	7779	7789	9
7806	7807	7808	7811	9
7806	7807	7808	7818	9
7806	7809	7810	7811	9
7806	7809	7810	7817	9
7807	7808	7811	7810	9
7807	7808	7811	7816	9
7807	7808	7818	7820	9
7807	7806	7809	7810	9
7807	7806	7809	7815	9
7807	7806	7812	7813	9
7808	7807	7806	7809	9
7808	7807	7806	7812	9
7808	7811	7810	7809	9
7808	7811	7810	7817	9
7811	7808	7807	7814	9
7811	7808	7818	7820	9
7811	7810	7809	7815	9
7811	7810	7817	7819	9
7810	7811	7808	7818	9
7810	7809	7806	7812	9
7809	7810	7811	7816	9
7809	7810	7817	7819	9
7809	7806	7807	7814	9
7809	7806	7812	7813	9
7816	7811	7810	7817	9
7815	7809	7810	7817	9
7812	7806	7807	7814	9
7812	7806	7809	7815	9
7814	7807	7808	7818	9
7816	7811	7808	7818	9
7835	7836	7837	7840	9
7835	7836	7837	7847	9
7835	7838	7839	7840	9
7835	7838	7839	7846	9
7836	7837	7840	7839	9
7836	7837	7840	7845	9
7836	7837	7847	7849	9
7836	7835	7838	7839	9
7836	7835	7838	7844	9
7836	7835	7841	7842	9
7837	7836	7835	7838	9
7837	7836	7835	7841	9
7837	7840	7839	7838	9
7837	7840	7839	7846	9
7840	7837	7836	7843	9
7840	7837	7847	7849	9
7840	7839	7838	7844	9
7840	7839	7846	7848	9
7839	7840	7837	7847	9
7839	7838	7835	7841	9
7838	7839	7840	7845	9
7838	7839	7846	7848	9
7838	7835	7836	7843	9
7838	7835	7841	7842	9
7845	7840	7839	7846	9
7844	7838	7839	7846	9
7841	7835	7836	7843	9
7841	7835	7838	7844	9
7843	7836	7837	7847	9
7845	7840	7837	7847	9
7864	7865	7866	7869	9
7864	7865	7866	7876	9
7864	7867	7868	7869	9
7864	7867	7868	7875	9
7865	7866	7869	7868	9
7865	7866	7869	7874	9
7865	7866	7876	7878	9
7865	7864	7867	7868	9
7865	7864	7867	7873	9
7865	7864	7870	7871	9
7866	7865	7864	7867	9
7866	7865	7864	7870	9
7866	7869	7868	7867	9
7866	7869	7868	7875	9
7869	7866	7865	7872	9
7869	7866	7876	7878	9
7869	7868	7867	7873	9
7869	7868	7875	7877	9
7868	7869	7866	7876	9
7868	7867	7864	7870	9
7867	7868	7869	7874	9
7867	7868	7875	7877	9
7867	7864	7865	7872	9
7867	7864	7870	7871	9
7874	7869	7868	7875	9
7873	7867	7868	7875	9
7870	7864	7865	7872	9
7870	7864	7867	7873	9
7872	7865	7866	7876	9
7874	7869	7866	7876	9
7893	7896	7897	7898	9
7893	7896	7897	7904	9
7893	7894	7895	7898	9
7893	7894	7895	7905	9
7895	7898	7897	7896	9
7896	7897	7898	7903	9
7896	7897	7904	7906	9
7895	7894	7893	7896	9
7896	7893	7894	7901	9
7896	7893	7899	7900	9
7894	7893	7896	7897	9
7897	7896	7893	7899	9
7894	7895	7898	7897	9
7897	7898	7895	7905	9
7898	7897	7896	7902	9
7898	7897	7904	7906	9
7898	7895	7894	7901	9
7898	7895	7905	7907	9
7895	7898	7897	7904	9
7895	7894	7893	7899	9
7894	7895	7898	7903	9
7894	7895	7905	7907	9
7894	7893	7896	7902	9
7894	7893	7899	7900	9
7903	7898	7895	7905	9
7901	7894	7895	7905	9
7899	7893	7896	7902	9
7899	7893	7894	7901	9
7902	7896	7897	7904	9
7903	7898	7897	7904	9
1750	1751	1752	1755	9
1750	1751	1752	1762	9
1750	1753	1754	1755	9
1750	1753	1754	1761	9
1751	1752	1755	1754	9
1751	1752	1755	1760	9
1751	1752	1762	1764	9
1751	1752	1762	1765	9
1751	1750	1753	1754	9
1751	1750	1753	1759	9
1751	1750	1756	1757	9
1752	1751	1750	1753	9
1752	1751	1750	1756	9
1752	1755	1754	1753	9
1752	1755	1754	1761	9
1752	1762	1765	1766	9
1755	1752	1751	1758	9
1755	1752	1762	1764	9
1755	1752	1762	1765	9
1755	1754	1753	1759	9
1755	1754	1761	1763	9
1754	1755	1752	1762	9
1754	1753	1750	1756	9
1753	1754	1755	1760	9
1753	1754	1761	1763	9
1753	1750	1751	1758	9
1753	1750	1756	1757	9
1760	1755	1754	1761	9
1759	1753	1754	1761	9
1756	1750	1751	1758	9
1756	1750	1753	1759	9
1758	1751	1752	1762	9
1760	1755	1752	1762	9
1764	1762	1765	1766	9
7908	7909	7910	7913	9
7908	7909	7910	7920	9
7908	7911	7912	7913	9
7908	7911	7912	7919	9
7912	7913	7910	7909	9
7909	7910	7913	7918	9
7909	7910	7920	7922	9
7912	7911	7908	7909	9
7909	7908	7911	7917	9
7909	7908	7914	7915	9
7911	7908	7909	7910	9
7910	7909	7908	7914	9
7911	7912	7913	7910	9
7910	7913	7912	7919	9
7913	7910	7909	7916	9
7913	7910	7920	7922	9
7913	7912	7911	7917	9
7913	7912	7919	7921	9
7912	7913	7910	7920	9
7912	7911	7908	7914	9
7911	7912	7913	7918	9
7911	7912	7919	7921	9
7911	7908	7909	7916	9
7911	7908	7914	7915	9
7918	7913	7912	7919	9
7917	7911	7912	7919	9
7914	7908	7909	7916	9
7914	7908	7911	7917	9
7916	7909	7910	7920	9
7918	7913	7910	7920	9
7937	7938	7939	7942	9
7937	7938	7939	7949	9
7937	7940	7941	7942	9
7937	7940	7941	7948	9
7941	7942	7939	7938	9
7938	7939	7942	7947	9
7938	7939	7949	7951	9
7941	7940	7937	7938	9
7938	7937	7940	7946	9
7938	7937	7943	7944	9
7940	7937	7938	7939	9
7939	7938	7937	7943	9
7940	7941	7942	7939	9
7939	7942	7941	7948	9
7942	7939	7938	7945	9
7942	7939	7949	7951	9
7942	7941	7940	7946	9
7942	7941	7948	7950	9
7941	7942	7939	7949	9
7941	7940	7937	7943	9
7940	7941	7942	7947	9
7940	7941	7948	7950	9
7940	7937	7938	7945	9
7940	7937	7943	7944	9
7947	7942	7941	7948	9
7946	7940	7941	7948	9
7943	7937	7938	7945	9
7943	7937	7940	7946	9
7945	7938	7939	7949	9
7947	7942	7939	7949	9
7966	7969	7970	7971	9
7966	7969	7970	7977	9
7966	7967	7968	7971	9
7966	7967	7968	7978	9
7968	7971	7970	7969	9
7969	7970	7971	7976	9
7969	7970	7977	7979	9
7968	7967	7966	7969	9
7969	7966	7967	7974	9
7969	7966	7972	7973	9
7967	7966	7969	7970	9
7970	7969	7966	7972	9
7967	7968	7971	7970	9
7970	7971	7968	7978	9
7971	7970	7969	7975	9
7971	7970	7977	7979	9
7971	7968	7967	7974	9
7971	7968	7978	7980	9
7968	7971	7970	7977	9
7968	7967	7966	7972	9
7967	7968	7971	7976	9
7967	7968	7978	7980	9
7967	7966	7969	7975	9
7967	7966	7972	7973	9
7976	7971	7968	7978	9
7974	7967	7968	7978	9
7972	7966	7969	7975	9
7972	7966	7967	7974	9
7975	7969	7970	7977	9
7976	7971	7970	7977	9
7981	7984	7985	7986	9
7981	7984	7985	7992	9
7981	7982	7983	7986	9
7981	7982	7983	7993	9
7983	7986	7985	7984	9
7984	7985	7986	7991	9
7984	7985	7992	7994	9
7983	7982	7981	7984	9
7984	7981	7982	7989	9
7984	7981	7987	7988	9
7982	7981	7984	7985	9
7985	7984	7981	7987	9
7982	7983	7986	7985	9
7985	7986	7983	7993	9
7986	7985	7984	7990	9
7986	7985	7992	7994	9
7986	7983	7982	7989	9
7986	7983	7993	7995	9
7983	7986	7985	7992	9
7983	7982	7981	7987	9
7982	7983	7986	7991	9
7982	7983	7993	7995	9
7982	7981	7984	7990	9
7982	7981	7987	7988	9
7991	7986	7983	7993	9
7989	7982	7983	7993	9
7987	7981	7984	7990	9
7987	7981	7982	7989	9
7990	7984	7985	7992	9
7991	7986	7985	7992	9
8010	8011	8012	8015	9
8010	8011	8012	8022	9
8010	8013	8014	8015	9
8010	8013	8014	8021	9
8011	8012	8015	8014	9
8011	8012	8015	8020	9
8011	8012	8022	8024	9
8011	8010	8013	8014	9
8011	8010	8013	8019	9
8011	8010	8016	8017	9
8012	8011	8010	8013	9
8012	8011	8010	8016	9
8012	8015	8014	8013	9
8012	8015	8014	8021	9
8015	8012	8011	8018	9
8015	8012	8022	8024	9
8015	8014	8013	8019	9
8015	8014	8021	8023	9
8014	8015	8012	8022	9
8014	8013	8010	8016	9
8013	8014	8015	8020	9
8013	8014	8021	8023	9
8013	8010	8011	8018	9
8013	8010	8016	8017	9
8020	8015	8014	8021	9
8019	8013	8014	8021	9
8016	8010	8011	8018	9
8016	8010	8013	8019	9
8018	8011	8012	8022	9
8020	8015	8012	8022	9
8039	8040	8041	8044	9
8039	8040	8041	8051	9
8039	8042	8043	8044	9
8039	8042	8043	8050	9
8040	8041	8044	8043	9
8040	8041	8044	8049	9
8040	8041	8051	8053	9
8040	8039	8042	8043	9
8040	8039	8042	8048	9
8040	8039	8045	8046	9
8041	8040	8039	8042	9
8041	8040	8039	8045	9
8041	8044	8043	8042	9
8041	8044	8043	8050	9
8044	8041	8040	8047	9
8044	8041	8051	8053	9
8044	8043	8042	8048	9
8044	8043	8050	8052	9
8043	8044	8041	8051	9
8043	8042	8039	8045	9
8042	8043	8044	8049	9
8042	8043	8050	8052	9
8042	8039	8040	8047	9
8042	8039	8045	8046	9
8049	8044	8043	8050	9
8048	8042	8043	8050	9
8045	8039	8040	8047	9
8045	8039	8042	8048	9
8047	8040	8041	8051	9
8049	8044	8041	8051	9
1785	1784	1781	1782	9
1785	1784	1781	1787	9
1785	1786	1783	1782	9
1785	1786	1783	1793	9
1783	1782	1781	1784	9
1784	1781	1782	1789	9
1784	1781	1787	1788	9
1783	1786	1785	1784	9
1784	1785	1786	1791	9
1784	1785	1792	1794	9
1786	1785	1784	1781	9
1781	1784	1785	1792	9
1786	1783	1782	1781	9
1781	1782	1783	1793	9
1782	1781	1784	1790	9
1782	1781	1787	1788	9
1782	1783	1786	1791	9
1782	1783	1793	1795	9
1782	1783	1793	1796	9
1783	1782	1781	1787	9
1783	1786	1785	1792	9
1783	1793	1796	1797	9
1786	1783	1782	1789	9
1786	1783	1793	1795	9
1786	1783	1793	1796	9
1786	1785	1784	1790	9
1786	1785	1792	1794	9
1789	1782	1783	1793	9
1791	1786	1783	1793	9
1792	1785	1784	1790	9
1792	1785	1786	1791	9
1790	1784	1781	1787	9
1789	1782	1781	1787	9
1795	1793	1796	1797	9
8054	8055	8056	8059	9
8054	8055	8056	8066	9
8054	8057	8058	8059	9
8054	8057	8058	8065	9
8055	8056	8059	8058	9
8055	8056	8059	8064	9
8055	8056	8066	8068	9
8055	8054	8057	8058	9
8055	8054	8057	8063	9
8055	8054	8060	8061	9
8056	8055	8054	8057	9
8056	8055	8054	8060	9
8056	8059	8058	8057	9
8056	8059	8058	8065	9
8059	8056	8055	8062	9
8059	8056	8066	8068	9
8059	8058	8057	8063	9
8059	8058	8065	8067	9
8058	8059	8056	8066	9
8058	8057	8054	8060	9
8057	8058	8059	8064	9
8057	8058	8065	8067	9
8057	8054	8055	8062	9
8057	8054	8060	8061	9
8064	8059	8058	8065	9
8063	8057	8058	8065	9
8060	8054	8055	8062	9
8060	8054	8057	8063	9
8062	8055	8056	8066	9
8064	8059	8056	8066	9
8083	8084	8085	8088	9
8083	8084	8085	8095	9
8083	8086	8087	8088	9
8083	8086	8087	8094	9
8084	8085	8088	8087	9
8084	8085	8088	8093	9
8084	8085	8095	8097	9
8084	8083	8086	8087	9
8084	8083	8086	8092	9
8084	8083	8089	8090	9
8085	8084	8083	8086	9
8085	8084	8083	8089	9
8085	8088	8087	8086	9
8085	8088	8087	8094	9
8088	8085	8084	8091	9
8088	8085	8095	8097	9
8088	8087	8086	8092	9
8088	8087	8094	8096	9
8087	8088	8085	8095	9
8087	8086	8083	8089	9
8086	8087	8088	8093	9
8086	8087	8094	8096	9
8086	8083	8084	8091	9
8086	8083	8089	8090	9
8093	8088	8087	8094	9
8092	8086	8087	8094	9
8089	8083	8084	8091	9
8089	8083	8086	8092	9
8091	8084	8085	8095	9
8093	8088	8085	8095	9
8112	8115	8116	8117	9
8112	8115	8116	8123	9
8112	8113	8114	8117	9
8112	8113	8114	8124	9
8115	8116	8117	8114	9
8115	8116	8117	8122	9
8115	8116	8123	8125	9
8115	8112	8113	8114	9
8115	8112	8113	8120	9
8115	8112	8118	8119	9
8116	8115	8112	8113	9
8116	8115	8112	8118	9
8116	8117	8114	8113	9
8116	8117	8114	8124	9
8117	8116	8115	8121	9
8117	8116	8123	8125	9
8117	8114	8113	8120	9
8117	8114	8124	8126	9
8114	8117	8116	8123	9
8114	8113	8112	8118	9
8113	8114	8117	8122	9
8113	8114	8124	8126	9
8113	8112	8115	8121	9
8113	8112	8118	8119	9
8122	8117	8114	8124	9
8120	8113	8114	8124	9
8118	8112	8115	8121	9
8118	8112	8113	8120	9
8121	8115	8116	8123	9
8122	8117	8116	8123	9
8141	8144	8145	8146	9
8141	8144	8145	8152	9
8141	8142	8143	8146	9
8141	8142	8143	8153	9
8144	8145	8146	8143	9
8144	8145	8146	8151	9
8144	8145	8152	8154	9
8144	8141	8142	8143	9
8144	8141	8142	8149	9
8144	8141	8147	8148	9
8145	8144	8141	8142	9
8145	8144	8141	8147	9
8145	8146	8143	8142	9
8145	8146	8143	8153	9
8146	8145	8144	8150	9
8146	8145	8152	8154	9
8146	8143	8142	8149	9
8146	8143	8153	8155	9
8143	8146	8145	8152	9
8143	8142	8141	8147	9
8142	8143	8146	8151	9
8142	8143	8153	8155	9
8142	8141	8144	8150	9
8142	8141	8147	8148	9
8151	8146	8143	8153	9
8149	8142	8143	8153	9
8147	8141	8144	8150	9
8147	8141	8142	8149	9
8150	8144	8145	8152	9
8151	8146	8145	8152	9
8156	8159	8160	8161	9
8156	8159	8160	8167	9
8156	8157	8158	8161	9
8156	8157	8158	8168	9
8158	8161	8160	8159	9
8159	8160	8161	8166	9
8159	8160	8167	8169	9
8158	8157	8156	8159	9
8159	8156	8157	8164	9
8159	8156	8162	8163	9
8157	8156	8159	8160	9
8160	8159	8156	8162	9
8157	8158	8161	8160	9
8160	8161	8158	8168	9
8161	8160	8159	8165	9
8161	8160	8167	8169	9
8161	8158	8157	8164	9
8161	8158	8168	8170	9
8158	8161	8160	8167	9
8158	8157	8156	8162	9
8157	8158	8161	8166	9
8157	8158	8168	8170	9
8157	8156	8159	8165	9
8157	8156	8162	8163	9
8166	8161	8158	8168	9
8164	8157	8158	8168	9
8162	8156	8159	8165	9
8162	8156	8157	8164	9
8165	8159	8160	8167	9
8166	8161	8160	8167	9
8171	8172	8173	8176	9
8171	8172	8173	8183	9
8171	8174	8175	8176	9
8171	8174	8175	8182	9
8172	8173	8176	8175	9
8172	8173	8176	8181	9
8172	8173	8183	8185	9
8172	8171	8174	8175	9
8172	8171	8174	8180	9
8172	8171	8177	8178	9
8173	8172	8171	8174	9
8173	8172	8171	8177	9
8173	8176	8175	8174	9
8173	8176	8175	8182	9
8176	8173	8172	8179	9
8176	8173	8183	8185	9
8176	8175	8174	8180	9
8176	8175	8182	8184	9
8175	8176	8173	8183	9
8175	8174	8171	8177	9
8174	8175	8176	8181	9
8174	8175	8182	8184	9
8174	8171	8172	8179	9
8174	8171	8177	8178	9
8181	8176	8175	8182	9
8180	8174	8175	8182	9
8177	8171	8172	8179	9
8177	8171	8174	8180	9
8179	8172	8173	8183	9
8181	8176	8173	8183	9
8202	8201	8200	8203	9
8202	8201	8200	8206	9
8202	8205	8204	8203	9
8202	8205	8204	8211	9
8201	8200	8203	8204	9
8201	8200	8203	8209	9
8201	8200	8206	8207	9
8201	8202	8205	8204	9
8201	8202	8205	8210	9
8201	8202	8212	8214	9
8200	8201	8202	8205	9
8200	8201	8202	8212	9
8200	8203	8204	8205	9
8200	8203	8204	8211	9
8203	8200	8201	8208	9
8203	8200	8206	8207	9
8203	8204	8205	8210	9
8203	8204	8211	8213	9
8204	8203	8200	8206	9
8204	8205	8202	8212	9
8205	8204	8203	8209	9
8205	8204	8211	8213	9
8205	8202	8201	8208	9
8205	8202	8212	8214	9
8209	8203	8204	8211	9
8210	8205	8204	8211	9
8208	8201	8202	8212	9
8210	8205	8202	8212	9
8206	8200	8201	8208	9
8206	8200	8203	8209	9
1828	1829	1830	1831	9
1828	1829	1830	1836	9
1828	1833	1832	1831	9
1828	1833	1832	1834	9
1829	1830	1831	1832	9
1829	1830	1831	1840	9
1829	1830	1836	1837	9
1829	1830	1836	1838	9
1829	1828	1833	1832	9
1829	1828	1833	1841	9
1829	1828	1826	1827	9
1830	1829	1828	1833	9
1830	1829	1828	1826	9
1830	1831	1832	1833	9
1830	1831	1832	1834	9
1831	1830	1829	1839	9
1831	1830	1836	1837	9
1831	1830	1836	1838	9
1831	1832	1833	1841	9
1831	1832	1834	1835	9
1832	1831	1830	1836	9
1832	1833	1828	1826	9
1833	1832	1831	1840	9
1833	1832	1834	1835	9
1833	1828	1829	1839	9
1833	1828	1826	1827	9
1840	1831	1832	1834	9
1841	1833	1832	1834	9
1826	1828	1829	1839	9
1826	1828	1833	1841	9
1839	1829	1830	1836	9
1840	1831	1830	1836	9
1842	1843	1844	1847	9
1842	1843	1844	1854	9
1842	1845	1846	1847	9
1842	1845	1846	1853	9
1843	1844	1847	1846	9
1843	1844	1847	1852	9
1843	1844	1854	1856	9
1843	1844	1854	1857	9
1843	1842	1845	1846	9
1843	1842	1845	1851	9
1843	1842	1848	1849	9
1844	1843	1842	1845	9
1844	1843	1842	1848	9
1844	1847	1846	1845	9
1844	1847	1846	1853	9
1844	1854	1857	1858	9
1847	1844	1843	1850	9
1847	1844	1854	1856	9
1847	1844	1854	1857	9
1847	1846	1845	1851	9
1847	1846	1853	1855	9
1846	1847	1844	1854	9
1846	1845	1842	1848	9
1845	1846	1847	1852	9
1845	1846	1853	1855	9
1845	1842	1843	1850	9
1845	1842	1848	1849	9
1852	1847	1846	1853	9
1851	1845	1846	1853	9
1848	1842	1843	1850	9
1848	1842	1845	1851	9
1850	1843	1844	1854	9
1852	1847	1844	1854	9
1856	1854	1857	1858	9
8215	8216	8217	8220	9
8215	8216	8217	8227	9
8215	8218	8219	8220	9
8215	8218	8219	8226	9
8216	8217	8220	8219	9
8216	8217	8220	8225	9
8216	8217	8227	8229	9
8216	8215	8218	8219	9
8216	8215	8218	8224	9
8216	8215	8221	8222	9
8217	8216	8215	8218	9
8217	8216	8215	8221	9
8217	8220	8219	8218	9
8217	8220	8219	8226	9
8220	8217	8216	8223	9
8220	8217	8227	8229	9
8220	8219	8218	8224	9
8220	8219	8226	8228	9
8219	8220	8217	8227	9
8219	8218	8215	8221	9
8218	8219	8220	8225	9
8218	8219	8226	8228	9
8218	8215	8216	8223	9
8218	8215	8221	8222	9
8225	8220	8219	8226	9
8224	8218	8219	8226	9
8221	8215	8216	8223	9
8221	8215	8218	8224	9
8223	8216	8217	8227	9
8225	8220	8217	8227	9
1891	1890	1889	1894	9
1891	1890	1889	1887	9
1891	1892	1893	1894	9
1891	1892	1893	1895	9
1890	1889	1894	1893	9
1890	1889	1894	1902	9
1890	1889	1887	1888	9
1890	1891	1892	1893	9
1890	1891	1892	1901	9
1890	1891	1897	1898	9
1890	1891	1897	1899	9
1889	1890	1891	1892	9
1889	1890	1891	1897	9
1889	1894	1893	1892	9
1889	1894	1893	1895	9
1894	1889	1890	1900	9
1894	1889	1887	1888	9
1894	1893	1892	1901	9
1894	1893	1895	1896	9
1893	1894	1889	1887	9
1893	1892	1891	1897	9
1892	1893	1894	1902	9
1892	1893	1895	1896	9
1892	1891	1890	1900	9
1892	1891	1897	1898	9
1892	1891	1897	1899	9
1902	1894	1893	1895	9
1901	1892	1893	1895	9
1900	1890	1891	1897	9
1901	1892	1891	1897	9
1887	1889	1890	1900	9
1887	1889	1894	1902	9
1903	1906	1907	1908	9
1903	1906	1907	1914	9
1903	1904	1905	1908	9
1903	1904	1905	1915	9
1905	1908	1907	1906	9
1906	1907	1908	1913	9
1906	1907	1914	1916	9
1905	1904	1903	1906	9
1906	1903	1904	1911	9
1906	1903	1909	1910	9
1904	1903	1906	1907	9
1907	1906	1903	1909	9
1904	1905	1908	1907	9
1907	1908	1905	1915	9
1908	1907	1906	1912	9
1908	1907	1914	1916	9
1908	1905	1904	1911	9
1908	1905	1915	1917	9
1908	1905	1915	1918	9
1905	1908	1907	1914	9
1905	1904	1903	1909	9
1905	1915	1918	1919	9
1904	1905	1908	1913	9
1904	1905	1915	1917	9
1904	1905	1915	1918	9
1904	1903	1906	1912	9
1904	1903	1909	1910	9
1913	1908	1905	1915	9
1911	1904	1905	1915	9
1909	1903	1906	1912	9
1909	1903	1904	1911	9
1912	1906	1907	1914	9
1913	1908	1907	1914	9
1917	1915	1918	1919	9
134	135	136	137	9
134	135	136	138	9
134	133	132	137	9
134	133	132	130	9
135	136	137	132	9
135	136	137	146	9
135	136	138	139	9
135	134	133	132	9
135	134	133	144	9
135	134	140	141	9
135	134	140	142	9
136	135	134	133	9
136	135	134	140	9
136	137	132	133	9
136	137	132	130	9
137	136	135	145	9
137	136	138	139	9
137	132	133	144	9
137	132	130	131	9
137	132	130	129	9
132	137	136	138	9
132	133	134	140	9
132	130	129	143	9
133	132	137	146	9
133	132	130	131	9
133	132	130	129	9
133	134	135	145	9
133	134	140	141	9
133	134	140	142	9
146	137	132	130	9
144	133	132	130	9
145	135	134	140	9
144	133	134	140	9
138	136	135	145	9
138	136	137	146	9
131	130	129	143	9
166	167	168	169	9
166	167	168	170	9
166	165	164	169	9
166	165	164	162	9
167	168	169	164	9
167	168	169	178	9
167	168	170	171	9
167	166	165	164	9
167	166	165	176	9
167	166	172	173	9
167	166	172	174	9
168	167	166	165	9
168	167	166	172	9
168	169	164	165	9
168	169	164	162	9
169	168	167	177	9
169	168	170	171	9
169	164	165	176	9
169	164	162	163	9
169	164	162	161	9
164	169	168	170	9
164	165	166	172	9
164	162	161	175	9
165	164	169	178	9
165	164	162	163	9
165	164	162	161	9
165	166	167	177	9
165	166	172	173	9
165	166	172	174	9
178	169	164	162	9
176	165	164	162	9
177	167	166	172	9
176	165	166	172	9
170	168	167	177	9
170	168	169	178	9
163	162	161	175	9
1951	1952	1953	1954	9
1951	1952	1953	1959	9
1951	1956	1955	1954	9
1951	1956	1955	1957	9
1952	1953	1954	1955	9
1952	1953	1954	1963	9
1952	1953	1959	1960	9
1952	1953	1959	1961	9
1952	1951	1956	1955	9
1952	1951	1956	1964	9
1952	1951	1949	1950	9
1953	1952	1951	1956	9
1953	1952	1951	1949	9
1953	1954	1955	1956	9
1953	1954	1955	1957	9
1954	1953	1952	1962	9
1954	1953	1959	1960	9
1954	1953	1959	1961	9
1954	1955	1956	1964	9
1954	1955	1957	1958	9
1955	1954	1953	1959	9
1955	1956	1951	1949	9
1956	1955	1954	1963	9
1956	1955	1957	1958	9
1956	1951	1952	1962	9
1956	1951	1949	1950	9
1963	1954	1955	1957	9
1964	1956	1955	1957	9
1949	1951	1952	1962	9
1949	1951	1956	1964	9
1962	1952	1953	1959	9
1963	1954	1953	1959	9
1983	1982	1981	1986	9
1983	1982	1981	1979	9
1983	1984	1985	1986	9
1983	1984	1985	1987	9
1982	1981	1986	1985	9
1982	1981	1986	1994	9
1982	1981	1979	1980	9
1982	1983	1984	1985	9
1982	1983	1984	1993	9
1982	1983	1989	1990	9
1982	1983	1989	1991	9
1981	1982	1983	1984	9
1981	1982	1983	1989	9
1981	1986	1985	1984	9
1981	1986	1985	1987	9
1986	1981	1982	1992	9
1986	1981	1979	1980	9
1986	1985	1984	1993	9
1986	1985	1987	1988	9
1985	1986	1981	1979	9
1985	1984	1983	1989	9
1984	1985	1986	1994	9
1984	1985	1987	1988	9
1984	1983	1982	1992	9
1984	1983	1989	1990	9
1984	1983	1989	1991	9
1994	1986	1985	1987	9
1993	1984	1985	1987	9
1992	1982	1983	1989	9
1993	1984	1983	1989	9
1979	1981	1982	1992	9
1979	1981	1986	1994	9
8230	8231	8232	8235	9
8230	8231	8232	8242	9
8230	8233	8234	8235	9
8230	8233	8234	8241	9
8231	8232	8235	8234	9
8231	8232	8235	8240	9
8231	8232	8242	8244	9
8231	8230	8233	8234	9
8231	8230	8233	8239	9
8231	8230	8236	8237	9
8232	8231	8230	8233	9
8232	8231	8230	8236	9
8232	8235	8234	8233	9
8232	8235	8234	8241	9
8235	8232	8231	8238	9
8235	8232	8242	8244	9
8235	8234	8233	8239	9
8235	8234	8241	8243	9
8234	8235	8232	8242	9
8234	8233	8230	8236	9
8233	8234	8235	8240	9
8233	8234	8241	8243	9
8233	8230	8231	8238	9
8233	8230	8236	8237	9
8240	8235	8234	8241	9
8239	8233	8234	8241	9
8236	8230	8231	8238	9
8236	8230	8233	8239	9
8238	8231	8232	8242	9
8240	8235	8232	8242	9
8259	8260	8261	8264	9
8259	8260	8261	8271	9
8259	8262	8263	8264	9
8259	8262	8263	8270	9
8260	8261	8264	8263	9
8260	8261	8264	8269	9
8260	8261	8271	8273	9
8260	8259	8262	8263	9
8260	8259	8262	8268	9
8260	8259	8265	8266	9
8261	8260	8259	8262	9
8261	8260	8259	8265	9
8261	8264	8263	8262	9
8261	8264	8263	8270	9
8264	8261	8260	8267	9
8264	8261	8271	8273	9
8264	8263	8262	8268	9
8264	8263	8270	8272	9
8263	8264	8261	8271	9
8263	8262	8259	8265	9
8262	8263	8264	8269	9
8262	8263	8270	8272	9
8262	8259	8260	8267	9
8262	8259	8265	8266	9
8269	8264	8263	8270	9
8268	8262	8263	8270	9
8265	8259	8260	8267	9
8265	8259	8262	8268	9
8267	8260	8261	8271	9
8269	8264	8261	8271	9
8274	8275	8276	8279	9
8274	8275	8276	8286	9
8274	8277	8278	8279	9
8274	8277	8278	8285	9
8278	8279	8276	8275	9
8275	8276	8279	8284	9
8275	8276	8286	8288	9
8278	8277	8274	8275	9
8275	8274	8277	8283	9
8275	8274	8280	8281	9
8277	8274	8275	8276	9
8276	8275	8274	8280	9
8277	8278	8279	8276	9
8276	8279	8278	8285	9
8279	8276	8275	8282	9
8279	8276	8286	8288	9
8279	8278	8277	8283	9
8279	8278	8285	8287	9
8278	8279	8276	8286	9
8278	8277	8274	8280	9
8277	8278	8279	8284	9
8277	8278	8285	8287	9
8277	8274	8275	8282	9
8277	8274	8280	8281	9
8284	8279	8278	8285	9
8283	8277	8278	8285	9
8280	8274	8275	8282	9
8280	8274	8277	8283	9
8282	8275	8276	8286	9
8284	8279	8276	8286	9
8303	8304	8305	8308	9
8303	8304	8305	8315	9
8303	8306	8307	8308	9
8303	8306	8307	8314	9
8307	8308	8305	8304	9
8304	8305	8308	8313	9
8304	8305	8315	8317	9
8307	8306	8303	8304	9
8304	8303	8306	8312	9
8304	8303	8309	8310	9
8306	8303	8304	8305	9
8305	8304	8303	8309	9
8306	8307	8308	8305	9
8305	8308	8307	8314	9
8308	8305	8304	8311	9
8308	8305	8315	8317	9
8308	8307	8306	8312	9
8308	8307	8314	8316	9
8307	8308	8305	8315	9
8307	8306	8303	8309	9
8306	8307	8308	8313	9
8306	8307	8314	8316	9
8306	8303	8304	8311	9
8306	8303	8309	8310	9
8313	8308	8307	8314	9
8312	8306	8307	8314	9
8309	8303	8304	8311	9
8309	8303	8306	8312	9
8311	8304	8305	8315	9
8313	8308	8305	8315	9
8318	8321	8322	8323	9
8318	8321	8322	8329	9
8318	8319	8320	8323	9
8318	8319	8320	8330	9
8320	8323	8322	8321	9
8321	8322	8323	8328	9
8321	8322	8329	8331	9
8320	8319	8318	8321	9
8321	8318	8319	8326	9
8321	8318	8324	8325	9
8319	8318	8321	8322	9
8322	8321	8318	8324	9
8319	8320	8323	8322	9
8322	8323	8320	8330	9
8323	8322	8321	8327	9
8323	8322	8329	8331	9
8323	8320	8319	8326	9
8323	8320	8330	8332	9
8320	8323	8322	8329	9
8320	8319	8318	8324	9
8319	8320	8323	8328	9
8319	8320	8330	8332	9
8319	8318	8321	8327	9
8319	8318	8324	8325	9
8328	8323	8320	8330	9
8326	8319	8320	8330	9
8324	8318	8321	8327	9
8324	8318	8319	8326	9
8327	8321	8322	8329	9
8328	8323	8322	8329	9
8333	8336	8337	8338	9
8333	8336	8337	8344	9
8333	8334	8335	8338	9
8333	8334	8335	8345	9
8335	8338	8337	8336	9
8336	8337	8338	8343	9
8336	8337	8344	8346	9
8335	8334	8333	8336	9
8336	8333	8334	8341	9
8336	8333	8339	8340	9
8334	8333	8336	8337	9
8337	8336	8333	8339	9
8334	8335	8338	8337	9
8337	8338	8335	8345	9
8338	8337	8336	8342	9
8338	8337	8344	8346	9
8338	8335	8334	8341	9
8338	8335	8345	8347	9
8335	8338	8337	8344	9
8335	8334	8333	8339	9
8334	8335	8338	8343	9
8334	8335	8345	8347	9
8334	8333	8336	8342	9
8334	8333	8339	8340	9
8343	8338	8335	8345	9
8341	8334	8335	8345	9
8339	8333	8336	8342	9
8339	8333	8334	8341	9
8342	8336	8337	8344	9
8343	8338	8337	8344	9
8362	8363	8364	8367	9
8362	8363	8364	8374	9
8362	8365	8366	8367	9
8362	8365	8366	8373	9
8363	8364	8367	8366	9
8363	8364	8367	8372	9
8363	8364	8374	8376	9
8363	8362	8365	8366	9
8363	8362	8365	8371	9
8363	8362	8368	8369	9
8364	8363	8362	8365	9
8364	8363	8362	8368	9
8364	8367	8366	8365	9
8364	8367	8366	8373	9
8367	8364	8363	8370	9
8367	8364	8374	8376	9
8367	8366	8365	8371	9
8367	8366	8373	8375	9
8366	8367	8364	8374	9
8366	8365	8362	8368	9
8365	8366	8367	8372	9
8365	8366	8373	8375	9
8365	8362	8363	8370	9
8365	8362	8368	8369	9
8372	8367	8366	8373	9
8371	8365	8366	8373	9
8368	8362	8363	8370	9
8368	8362	8365	8371	9
8370	8363	8364	8374	9
8372	8367	8364	8374	9
8377	8378	8379	8382	9
8377	8378	8379	8389	9
8377	8380	8381	8382	9
8377	8380	8381	8388	9
8378	8379	8382	8381	9
8378	8379	8382	8387	9
8378	8379	8389	8391	9
8378	8377	8380	8381	9
8378	8377	8380	8386	9
8378	8377	8383	8384	9
8379	8378	8377	8380	9
8379	8378	8377	8383	9
8379	8382	8381	8380	9
8379	8382	8381	8388	9
8382	8379	8378	8385	9
8382	8379	8389	8391	9
8382	8381	8380	8386	9
8382	8381	8388	8390	9
8381	8382	8379	8389	9
8381	8380	8377	8383	9
8380	8381	8382	8387	9
8380	8381	8388	8390	9
8380	8377	8378	8385	9
8380	8377	8383	8384	9
8387	8382	8381	8388	9
8386	8380	8381	8388	9
8383	8377	8378	8385	9
8383	8377	8380	8386	9
8385	8378	8379	8389	9
8387	8382	8379	8389	9
2013	2014	2015	2016	9
2013	2014	2015	2017	9
2013	2012	2011	2016	9
2013	2012	2011	2009	9
2014	2015	2016	2011	9
2014	2015	2016	2024	9
2014	2015	2017	2018	9
2014	2013	2012	2011	9
2014	2013	2012	2022	9
2014	2013	2019	2020	9
2014	2013	2019	2021	9
2015	2014	2013	2012	9
2015	2014	2013	2019	9
2015	2016	2011	2012	9
2015	2016	2011	2009	9
2016	2015	2014	2023	9
2016	2015	2017	2018	9
2016	2011	2012	2022	9
2016	2011	2009	2010	9
2011	2016	2015	2017	9
2011	2012	2013	2019	9
2012	2011	2016	2024	9
2012	2011	2009	2010	9
2012	2013	2014	2023	9
2012	2013	2019	2020	9
2012	2013	2019	2021	9
2024	2016	2011	2009	9
2022	2012	2011	2009	9
2023	2014	2013	2019	9
2022	2012	2013	2019	9
2017	2015	2014	2023	9
2017	2015	2016	2024	9
8406	8407	8408	8411	9
8406	8407	8408	8418	9
8406	8409	8410	8411	9
8406	8409	8410	8417	9
8407	8408	8411	8410	9
8407	8408	8411	8416	9
8407	8408	8418	8420	9
8407	8406	8409	8410	9
8407	8406	8409	8415	9
8407	8406	8412	8413	9
8408	8407	8406	8409	9
8408	8407	8406	8412	9
8408	8411	8410	8409	9
8408	8411	8410	8417	9
8411	8408	8407	8414	9
8411	8408	8418	8420	9
8411	8410	8409	8415	9
8411	8410	8417	8419	9
8410	8411	8408	8418	9
8410	8409	8406	8412	9
8409	8410	8411	8416	9
8409	8410	8417	8419	9
8409	8406	8407	8414	9
8409	8406	8412	8413	9
8416	8411	8410	8417	9
8415	8409	8410	8417	9
8412	8406	8407	8414	9
8412	8406	8409	8415	9
8414	8407	8408	8418	9
8416	8411	8408	8418	9
2043	2042	2041	2046	9
2043	2042	2041	2039	9
2043	2044	2045	2046	9
2043	2044	2045	2047	9
2042	2041	2046	2045	9
2042	2041	2046	2054	9
2042	2041	2039	2040	9
2042	2043	2044	2045	9
2042	2043	2044	2053	9
2042	2043	2049	2050	9
2042	2043	2049	2051	9
2041	2042	2043	2044	9
2041	2042	2043	2049	9
2041	2046	2045	2044	9
2041	2046	2045	2047	9
2046	2041	2042	2052	9
2046	2041	2039	2040	9
2046	2045	2044	2053	9
2046	2045	2047	2048	9
2045	2046	2041	2039	9
2045	2044	2043	2049	9
2044	2045	2046	2054	9
2044	2045	2047	2048	9
2044	2043	2042	2052	9
2044	2043	2049	2050	9
2044	2043	2049	2051	9
2054	2046	2045	2047	9
2053	2044	2045	2047	9
2052	2042	2043	2049	9
2053	2044	2043	2049	9
2039	2041	2042	2052	9
2039	2041	2046	2054	9
2073	2072	2071	2076	9
2073	2072	2071	2069	9
2073	2074	2075	2076	9
2073	2074	2075	2077	9
2072	2071	2076	2075	9
2072	2071	2076	2084	9
2072	2071	2069	2070	9
2072	2073	2074	2075	9
2072	2073	2074	2083	9
2072	2073	2079	2080	9
2072	2073	2079	2081	9
2071	2072	2073	2074	9
2071	2072	2073	2079	9
2071	2076	2075	2074	9
2071	2076	2075	2077	9
2076	2071	2072	2082	9
2076	2071	2069	2070	9
2076	2075	2074	2083	9
2076	2075	2077	2078	9
2075	2076	2071	2069	9
2075	2074	2073	2079	9
2074	2075	2076	2084	9
2074	2075	2077	2078	9
2074	2073	2072	2082	9
2074	2073	2079	2080	9
2074	2073	2079	2081	9
2084	2076	2075	2077	9
2083	2074	2075	2077	9
2082	2072	2073	2079	9
2083	2074	2073	2079	9
2069	2071	2072	2082	9
2069	2071	2076	2084	9
199	198	197	196	9
196	197	198	204	9
199	200	201	196	9
196	201	200	202	9
196	194	193	207	9
200	199	198	197	9
197	198	199	209	9
197	198	204	205	9
197	198	204	206	9
200	201	196	197	9
197	196	201	210	9
197	196	194	195	9
197	196	194	193	9
198	197	196	201	9
198	197	196	194	9
198	199	200	201	9
198	199	200	202	9
199	198	197	208	9
199	198	204	205	9
199	198	204	206	9
199	200	201	210	9
199	200	202	203	9
200	199	198	204	9
200	201	196	194	9
201	200	199	209	9
201	200	202	203	9
201	196	197	208	9
201	196	194	195	9
201	196	194	193	9
202	200	199	209	9
202	200	201	210	9
208	197	196	194	9
210	201	196	194	9
208	197	198	204	9
209	199	198	204	9
195	194	193	207	9
8435	8438	8439	8440	9
8435	8438	8439	8446	9
8435	8436	8437	8440	9
8435	8436	8437	8447	9
8437	8440	8439	8438	9
8438	8439	8440	8445	9
8438	8439	8446	8448	9
8437	8436	8435	8438	9
8438	8435	8436	8443	9
8438	8435	8441	8442	9
8436	8435	8438	8439	9
8439	8438	8435	8441	9
8436	8437	8440	8439	9
8439	8440	8437	8447	9
8440	8439	8438	8444	9
8440	8439	8446	8448	9
8440	8437	8436	8443	9
8440	8437	8447	8449	9
8437	8440	8439	8446	9
8437	8436	8435	8441	9
8436	8437	8440	8445	9
8436	8437	8447	8449	9
8436	8435	8438	8444	9
8436	8435	8441	8442	9
8445	8440	8437	8447	9
8443	8436	8437	8447	9
8441	8435	8438	8444	9
8441	8435	8436	8443	9
8444	8438	8439	8446	9
8445	8440	8439	8446	9
8450	8451	8452	8455	9
8450	8451	8452	8462	9
8450	8453	8454	8455	9
8450	8453	8454	8461	9
8454	8455	8452	8451	9
8451	8452	8455	8460	9
8451	8452	8462	8464	9
8454	8453	8450	8451	9
8451	8450	8453	8459	9
8451	8450	8456	8457	9
8453	8450	8451	8452	9
8452	8451	8450	8456	9
8453	8454	8455	8452	9
8452	8455	8454	8461	9
8455	8452	8451	8458	9
8455	8452	8462	8464	9
8455	8454	8453	8459	9
8455	8454	8461	8463	9
8454	8455	8452	8462	9
8454	8453	8450	8456	9
8453	8454	8455	8460	9
8453	8454	8461	8463	9
8453	8450	8451	8458	9
8453	8450	8456	8457	9
8460	8455	8454	8461	9
8459	8453	8454	8461	9
8456	8450	8451	8458	9
8456	8450	8453	8459	9
8458	8451	8452	8462	9
8460	8455	8452	8462	9
8479	8480	8481	8484	9
8479	8480	8481	8491	9
8479	8482	8483	8484	9
8479	8482	8483	8490	9
8483	8484	8481	8480	9
8480	8481	8484	8489	9
8480	8481	8491	8493	9
8483	8482	8479	8480	9
8480	8479	8482	8488	9
8480	8479	8485	8486	9
8482	8479	8480	8481	9
8481	8480	8479	8485	9
8482	8483	8484	8481	9
8481	8484	8483	8490	9
8484	8481	8480	8487	9
8484	8481	8491	8493	9
8484	8483	8482	8488	9
8484	8483	8490	8492	9
8483	8484	8481	8491	9
8483	8482	8479	8485	9
8482	8483	8484	8489	9
8482	8483	8490	8492	9
8482	8479	8480	8487	9
8482	8479	8485	8486	9
8489	8484	8483	8490	9
8488	8482	8483	8490	9
8485	8479	8480	8487	9
8485	8479	8482	8488	9
8487	8480	8481	8491	9
8489	8484	8481	8491	9
8508	8509	8510	8513	9
8508	8509	8510	8520	9
8508	8511	8512	8513	9
8508	8511	8512	8519	9
8509	8510	8513	8512	9
8509	8510	8513	8518	9
8509	8510	8520	8522	9
8509	8508	8511	8512	9
8509	8508	8511	8517	9
8509	8508	8514	8515	9
8510	8509	8508	8511	9
8510	8509	8508	8514	9
8510	8513	8512	8511	9
8510	8513	8512	8519	9
8513	8510	8509	8516	9
8513	8510	8520	8522	9
8513	8512	8511	8517	9
8513	8512	8519	8521	9
8512	8513	8510	8520	9
8512	8511	8508	8514	9
8511	8512	8513	8518	9
8511	8512	8519	8521	9
8511	8508	8509	8516	9
8511	8508	8514	8515	9
8518	8513	8512	8519	9
8517	8511	8512	8519	9
8514	8508	8509	8516	9
8514	8508	8511	8517	9
8516	8509	8510	8520	9
8518	8513	8510	8520	9
2101	2102	2103	2104	9
2101	2102	2103	2109	9
2101	2106	2105	2104	9
2101	2106	2105	2107	9
2102	2103	2104	2105	9
2102	2103	2104	2113	9
2102	2103	2109	2110	9
2102	2103	2109	2111	9
2102	2101	2106	2105	9
2102	2101	2106	2114	9
2102	2101	2099	2100	9
2103	2102	2101	2106	9
2103	2102	2101	2099	9
2103	2104	2105	2106	9
2103	2104	2105	2107	9
2104	2103	2102	2112	9
2104	2103	2109	2110	9
2104	2103	2109	2111	9
2104	2105	2106	2114	9
2104	2105	2107	2108	9
2105	2104	2103	2109	9
2105	2106	2101	2099	9
2106	2105	2104	2113	9
2106	2105	2107	2108	9
2106	2101	2102	2112	9
2106	2101	2099	2100	9
2113	2104	2105	2107	9
2114	2106	2105	2107	9
2099	2101	2102	2112	9
2099	2101	2106	2114	9
2112	2102	2103	2109	9
2113	2104	2103	2109	9
8525	8524	8523	8526	9
8525	8524	8523	8529	9
8525	8528	8527	8526	9
8525	8528	8527	8534	9
8524	8523	8526	8527	9
8524	8523	8526	8532	9
8524	8523	8529	8530	9
8524	8525	8528	8527	9
8524	8525	8528	8533	9
8524	8525	8535	8537	9
8523	8524	8525	8528	9
8523	8524	8525	8535	9
8523	8526	8527	8528	9
8523	8526	8527	8534	9
8526	8523	8524	8531	9
8526	8523	8529	8530	9
8526	8527	8528	8533	9
8526	8527	8534	8536	9
8527	8526	8523	8529	9
8527	8528	8525	8535	9
8528	8527	8526	8532	9
8528	8527	8534	8536	9
8528	8525	8524	8531	9
8528	8525	8535	8537	9
8532	8526	8527	8534	9
8533	8528	8527	8534	9
8531	8524	8525	8535	9
8533	8528	8525	8535	9
8529	8523	8524	8531	9
8529	8523	8526	8532	9
8552	8553	8554	8557	9
8552	8553	8554	8564	9
8552	8555	8556	8557	9
8552	8555	8556	8563	9
8553	8554	8557	8556	9
8553	8554	8557	8562	9
8553	8554	8564	8566	9
8553	8552	8555	8556	9
8553	8552	8555	8561	9
8553	8552	8558	8559	9
8554	8553	8552	8555	9
8554	8553	8552	8558	9
8554	8557	8556	8555	9
8554	8557	8556	8563	9
8557	8554	8553	8560	9
8557	8554	8564	8566	9
8557	8556	8555	8561	9
8557	8556	8563	8565	9
8556	8557	8554	8564	9
8556	8555	8552	8558	9
8555	8556	8557	8562	9
8555	8556	8563	8565	9
8555	8552	8553	8560	9
8555	8552	8558	8559	9
8562	8557	8556	8563	9
8561	8555	8556	8563	9
8558	8552	8553	8560	9
8558	8552	8555	8561	9
8560	8553	8554	8564	9
8562	8557	8554	8564	9
8581	8584	8585	8586	9
8581	8584	8585	8592	9
8581	8582	8583	8586	9
8581	8582	8583	8593	9
8583	8586	8585	8584	9
8584	8585	8586	8591	9
8584	8585	8592	8594	9
8583	8582	8581	8584	9
8584	8581	8582	8589	9
8584	8581	8587	8588	9
8582	8581	8584	8585	9
8585	8584	8581	8587	9
8582	8583	8586	8585	9
8585	8586	8583	8593	9
8586	8585	8584	8590	9
8586	8585	8592	8594	9
8586	8583	8582	8589	9
8586	8583	8593	8595	9
8583	8586	8585	8592	9
8583	8582	8581	8587	9
8582	8583	8586	8591	9
8582	8583	8593	8595	9
8582	8581	8584	8590	9
8582	8581	8587	8588	9
8591	8586	8583	8593	9
8589	8582	8583	8593	9
8587	8581	8584	8590	9
8587	8581	8582	8589	9
8590	8584	8585	8592	9
8591	8586	8585	8592	9
8596	8597	8598	8601	9
8596	8597	8598	8608	9
8596	8599	8600	8601	9
8596	8599	8600	8607	9
8597	8598	8601	8600	9
8597	8598	8601	8606	9
8597	8598	8608	8610	9
8597	8596	8599	8600	9
8597	8596	8599	8605	9
8597	8596	8602	8603	9
8598	8597	8596	8599	9
8598	8597	8596	8602	9
8598	8601	8600	8599	9
8598	8601	8600	8607	9
8601	8598	8597	8604	9
8601	8598	8608	8610	9
8601	8600	8599	8605	9
8601	8600	8607	8609	9
8600	8601	8598	8608	9
8600	8599	8596	8602	9
8599	8600	8601	8606	9
8599	8600	8607	8609	9
8599	8596	8597	8604	9
8599	8596	8602	8603	9
8606	8601	8600	8607	9
8605	8599	8600	8607	9
8602	8596	8597	8604	9
8602	8596	8599	8605	9
8604	8597	8598	8608	9
8606	8601	8598	8608	9
8625	8626	8627	8630	9
8625	8626	8627	8637	9
8625	8628	8629	8630	9
8625	8628	8629	8636	9
8626	8627	8630	8629	9
8626	8627	8630	8635	9
8626	8627	8637	8639	9
8626	8625	8628	8629	9
8626	8625	8628	8634	9
8626	8625	8631	8632	9
8627	8626	8625	8628	9
8627	8626	8625	8631	9
8627	8630	8629	8628	9
8627	8630	8629	8636	9
8630	8627	8626	8633	9
8630	8627	8637	8639	9
8630	8629	8628	8634	9
8630	8629	8636	8638	9
8629	8630	8627	8637	9
8629	8628	8625	8631	9
8628	8629	8630	8635	9
8628	8629	8636	8638	9
8628	8625	8626	8633	9
8628	8625	8631	8632	9
8635	8630	8629	8636	9
8634	8628	8629	8636	9
8631	8625	8626	8633	9
8631	8625	8628	8634	9
8633	8626	8627	8637	9
8635	8630	8627	8637	9
8654	8657	8658	8659	9
8654	8657	8658	8665	9
8654	8655	8656	8659	9
8654	8655	8656	8666	9
8657	8658	8659	8656	9
8657	8658	8659	8664	9
8657	8658	8665	8667	9
8657	8654	8655	8656	9
8657	8654	8655	8662	9
8657	8654	8660	8661	9
8658	8657	8654	8655	9
8658	8657	8654	8660	9
8658	8659	8656	8655	9
8658	8659	8656	8666	9
8659	8658	8657	8663	9
8659	8658	8665	8667	9
8659	8656	8655	8662	9
8659	8656	8666	8668	9
8656	8659	8658	8665	9
8656	8655	8654	8660	9
8655	8656	8659	8664	9
8655	8656	8666	8668	9
8655	8654	8657	8663	9
8655	8654	8660	8661	9
8664	8659	8656	8666	9
8662	8655	8656	8666	9
8660	8654	8657	8663	9
8660	8654	8655	8662	9
8663	8657	8658	8665	9
8664	8659	8658	8665	9
8683	8686	8687	8688	9
8683	8686	8687	8694	9
8683	8684	8685	8688	9
8683	8684	8685	8695	9
8686	8687	8688	8685	9
8686	8687	8688	8693	9
8686	8687	8694	8696	9
8686	8683	8684	8685	9
8686	8683	8684	8691	9
8686	8683	8689	8690	9
8687	8686	8683	8684	9
8687	8686	8683	8689	9
8687	8688	8685	8684	9
8687	8688	8685	8695	9
8688	8687	8686	8692	9
8688	8687	8694	8696	9
8688	8685	8684	8691	9
8688	8685	8695	8697	9
8685	8688	8687	8694	9
8685	8684	8683	8689	9
8684	8685	8688	8693	9
8684	8685	8695	8697	9
8684	8683	8686	8692	9
8684	8683	8689	8690	9
8693	8688	8685	8695	9
8691	8684	8685	8695	9
8689	8683	8686	8692	9
8689	8683	8684	8691	9
8692	8686	8687	8694	9
8693	8688	8687	8694	9
8698	8701	8702	8703	9
8698	8701	8702	8709	9
8698	8699	8700	8703	9
8698	8699	8700	8710	9
8700	8703	8702	8701	9
8701	8702	8703	8708	9
8701	8702	8709	8711	9
8700	8699	8698	8701	9
8701	8698	8699	8706	9
8701	8698	8704	8705	9
8699	8698	8701	8702	9
8702	8701	8698	8704	9
8699	8700	8703	8702	9
8702	8703	8700	8710	9
8703	8702	8701	8707	9
8703	8702	8709	8711	9
8703	8700	8699	8706	9
8703	8700	8710	8712	9
8700	8703	8702	8709	9
8700	8699	8698	8704	9
8699	8700	8703	8708	9
8699	8700	8710	8712	9
8699	8698	8701	8707	9
8699	8698	8704	8705	9
8708	8703	8700	8710	9
8706	8699	8700	8710	9
8704	8698	8701	8707	9
8704	8698	8699	8706	9
8707	8701	8702	8709	9
8708	8703	8702	8709	9
8713	8716	8717	8718	9
8713	8716	8717	8724	9
8713	8714	8715	8718	9
8713	8714	8715	8725	9
8715	8718	8717	8716	9
8716	8717	8718	8723	9
8716	8717	8724	8726	9
8715	8714	8713	8716	9
8716	8713	8714	8721	9
8716	8713	8719	8720	9
8714	8713	8716	8717	9
8717	8716	8713	8719	9
8714	8715	8718	8717	9
8717	8718	8715	8725	9
8718	8717	8716	8722	9
8718	8717	8724	8726	9
8718	8715	8714	8721	9
8718	8715	8725	8727	9
8715	8718	8717	8724	9
8715	8714	8713	8719	9
8714	8715	8718	8723	9
8714	8715	8725	8727	9
8714	8713	8716	8722	9
8714	8713	8719	8720	9
8723	8718	8715	8725	9
8721	8714	8715	8725	9
8719	8713	8716	8722	9
8719	8713	8714	8721	9
8722	8716	8717	8724	9
8723	8718	8717	8724	9
8728	8731	8732	8733	9
8728	8731	8732	8739	9
8728	8729	8730	8733	9
8728	8729	8730	8740	9
8730	8733	8732	8731	9
8731	8732	8733	8738	9
8731	8732	8739	8741	9
8730	8729	8728	8731	9
8731	8728	8729	8736	9
8731	8728	8734	8735	9
8729	8728	8731	8732	9
8732	8731	8728	8734	9
8729	8730	8733	8732	9
8732	8733	8730	8740	9
8733	8732	8731	8737	9
8733	8732	8739	8741	9
8733	8730	8729	8736	9
8733	8730	8740	8742	9
8730	8733	8732	8739	9
8730	8729	8728	8734	9
8729	8730	8733	8738	9
8729	8730	8740	8742	9
8729	8728	8731	8737	9
8729	8728	8734	8735	9
8738	8733	8730	8740	9
8736	8729	8730	8740	9
8734	8728	8731	8737	9
8734	8728	8729	8736	9
8737	8731	8732	8739	9
8738	8733	8732	8739	9
8757	8758	8759	8762	9
8757	8758	8759	8769	9
8757	8760	8761	8762	9
8757	8760	8761	8768	9
8758	8759	8762	8761	9
8758	8759	8762	8767	9
8758	8759	8769	8771	9
8758	8757	8760	8761	9
8758	8757	8760	8766	9
8758	8757	8763	8764	9
8759	8758	8757	8760	9
8759	8758	8757	8763	9
8759	8762	8761	8760	9
8759	8762	8761	8768	9
8762	8759	8758	8765	9
8762	8759	8769	8771	9
8762	8761	8760	8766	9
8762	8761	8768	8770	9
8761	8762	8759	8769	9
8761	8760	8757	8763	9
8760	8761	8762	8767	9
8760	8761	8768	8770	9
8760	8757	8758	8765	9
8760	8757	8763	8764	9
8767	8762	8761	8768	9
8766	8760	8761	8768	9
8763	8757	8758	8765	9
8763	8757	8760	8766	9
8765	8758	8759	8769	9
8767	8762	8759	8769	9
8786	8787	8788	8791	9
8786	8787	8788	8798	9
8786	8789	8790	8791	9
8786	8789	8790	8797	9
8787	8788	8791	8790	9
8787	8788	8791	8796	9
8787	8788	8798	8800	9
8787	8786	8789	8790	9
8787	8786	8789	8795	9
8787	8786	8792	8793	9
8788	8787	8786	8789	9
8788	8787	8786	8792	9
8788	8791	8790	8789	9
8788	8791	8790	8797	9
8791	8788	8787	8794	9
8791	8788	8798	8800	9
8791	8790	8789	8795	9
8791	8790	8797	8799	9
8790	8791	8788	8798	9
8790	8789	8786	8792	9
8789	8790	8791	8796	9
8789	8790	8797	8799	9
8789	8786	8787	8794	9
8789	8786	8792	8793	9
8796	8791	8790	8797	9
8795	8789	8790	8797	9
8792	8786	8787	8794	9
8792	8786	8789	8795	9
8794	8787	8788	8798	9
8796	8791	8788	8798	9
8817	8816	8815	8818	9
8817	8816	8815	8821	9
8817	8820	8819	8818	9
8817	8820	8819	8826	9
8816	8815	8818	8819	9
8816	8815	8818	8824	9
8816	8815	8821	8822	9
8816	8817	8820	8819	9
8816	8817	8820	8825	9
8816	8817	8827	8829	9
8815	8816	8817	8820	9
8815	8816	8817	8827	9
8815	8818	8819	8820	9
8815	8818	8819	8826	9
8818	8815	8816	8823	9
8818	8815	8821	8822	9
8818	8819	8820	8825	9
8818	8819	8826	8828	9
8819	8818	8815	8821	9
8819	8820	8817	8827	9
8820	8819	8818	8824	9
8820	8819	8826	8828	9
8820	8817	8816	8823	9
8820	8817	8827	8829	9
8824	8818	8819	8826	9
8825	8820	8819	8826	9
8827	8817	8816	8823	9
8827	8817	8820	8825	9
8823	8816	8815	8821	9
8824	8818	8815	8821	9
8844	8847	8848	8849	9
8844	8847	8848	8855	9
8844	8845	8846	8849	9
8844	8845	8846	8856	9
8847	8848	8849	8846	9
8847	8848	8849	8854	9
8847	8848	8855	8857	9
8847	8844	8845	8846	9
8847	8844	8845	8852	9
8847	8844	8850	8851	9
8848	8847	8844	8845	9
8848	8847	8844	8850	9
8848	8849	8846	8845	9
8848	8849	8846	8856	9
8849	8848	8847	8853	9
8849	8848	8855	8857	9
8849	8846	8845	8852	9
8849	8846	8856	8858	9
8846	8849	8848	8855	9
8846	8845	8844	8850	9
8845	8846	8849	8854	9
8845	8846	8856	8858	9
8845	8844	8847	8853	9
8845	8844	8850	8851	9
8854	8849	8846	8856	9
8852	8845	8846	8856	9
8850	8844	8847	8853	9
8850	8844	8845	8852	9
8853	8847	8848	8855	9
8854	8849	8848	8855	9
8859	8860	8861	8864	9
8859	8860	8861	8871	9
8859	8862	8863	8864	9
8859	8862	8863	8870	9
8863	8864	8861	8860	9
8860	8861	8864	8869	9
8860	8861	8871	8873	9
8863	8862	8859	8860	9
8860	8859	8862	8868	9
8860	8859	8865	8866	9
8862	8859	8860	8861	9
8861	8860	8859	8865	9
8862	8863	8864	8861	9
8861	8864	8863	8870	9
8864	8861	8860	8867	9
8864	8861	8871	8873	9
8864	8863	8862	8868	9
8864	8863	8870	8872	9
8863	8864	8861	8871	9
8863	8862	8859	8865	9
8862	8863	8864	8869	9
8862	8863	8870	8872	9
8862	8859	8860	8867	9
8862	8859	8865	8866	9
8869	8864	8863	8870	9
8868	8862	8863	8870	9
8865	8859	8860	8867	9
8865	8859	8862	8868	9
8867	8860	8861	8871	9
8869	8864	8861	8871	9
8888	8891	8892	8893	9
8888	8891	8892	8899	9
8888	8889	8890	8893	9
8888	8889	8890	8900	9
8890	8893	8892	8891	9
8891	8892	8893	8898	9
8891	8892	8899	8901	9
8890	8889	8888	8891	9
8891	8888	8889	8896	9
8891	8888	8894	8895	9
8889	8888	8891	8892	9
8892	8891	8888	8894	9
8889	8890	8893	8892	9
8892	8893	8890	8900	9
8893	8892	8891	8897	9
8893	8892	8899	8901	9
8893	8890	8889	8896	9
8893	8890	8900	8902	9
8890	8893	8892	8899	9
8890	8889	8888	8894	9
8889	8890	8893	8898	9
8889	8890	8900	8902	9
8889	8888	8891	8897	9
8889	8888	8894	8895	9
8898	8893	8890	8900	9
8896	8889	8890	8900	9
8894	8888	8891	8897	9
8894	8888	8889	8896	9
8897	8891	8892	8899	9
8898	8893	8892	8899	9
8917	8920	8921	8922	9
8917	8920	8921	8928	9
8917	8918	8919	8922	9
8917	8918	8919	8929	9
8919	8922	8921	8920	9
8920	8921	8922	8927	9
8920	8921	8928	8930	9
8919	8918	8917	8920	9
8920	8917	8918	8925	9
8920	8917	8923	8924	9
8918	8917	8920	8921	9
8921	8920	8917	8923	9
8918	8919	8922	8921	9
8921	8922	8919	8929	9
8922	8921	8920	8926	9
8922	8921	8928	8930	9
8922	8919	8918	8925	9
8922	8919	8929	8931	9
8919	8922	8921	8928	9
8919	8918	8917	8923	9
8918	8919	8922	8927	9
8918	8919	8929	8931	9
8918	8917	8920	8926	9
8918	8917	8923	8924	9
8927	8922	8919	8929	9
8925	8918	8919	8929	9
8923	8917	8920	8926	9
8923	8917	8918	8925	9
8926	8920	8921	8928	9
8927	8922	8921	8928	9
8932	8935	8936	8937	9
8932	8935	8936	8943	9
8932	8933	8934	8937	9
8932	8933	8934	8944	9
8934	8937	8936	8935	9
8935	8936	8937	8942	9
8935	8936	8943	8945	9
8934	8933	8932	8935	9
8935	8932	8933	8940	9
8935	8932	8938	8939	9
8933	8932	8935	8936	9
8936	8935	8932	8938	9
8933	8934	8937	8936	9
8936	8937	8934	8944	9
8937	8936	8935	8941	9
8937	8936	8943	8945	9
8937	8934	8933	8940	9
8937	8934	8944	8946	9
8934	8937	8936	8943	9
8934	8933	8932	8938	9
8933	8934	8937	8942	9
8933	8934	8944	8946	9
8933	8932	8935	8941	9
8933	8932	8938	8939	9
8942	8937	8934	8944	9
8940	8933	8934	8944	9
8938	8932	8935	8941	9
8938	8932	8933	8940	9
8941	8935	8936	8943	9
8942	8937	8936	8943	9
8961	8962	8963	8966	9
8961	8962	8963	8973	9
8961	8964	8965	8966	9
8961	8964	8965	8972	9
8962	8963	8966	8965	9
8962	8963	8966	8971	9
8962	8963	8973	8975	9
8962	8961	8964	8965	9
8962	8961	8964	8970	9
8962	8961	8967	8968	9
8963	8962	8961	8964	9
8963	8962	8961	8967	9
8963	8966	8965	8964	9
8963	8966	8965	8972	9
8966	8963	8962	8969	9
8966	8963	8973	8975	9
8966	8965	8964	8970	9
8966	8965	8972	8974	9
8965	8966	8963	8973	9
8965	8964	8961	8967	9
8964	8965	8966	8971	9
8964	8965	8972	8974	9
8964	8961	8962	8969	9
8964	8961	8967	8968	9
8971	8966	8965	8972	9
8970	8964	8965	8972	9
8967	8961	8962	8969	9
8967	8961	8964	8970	9
8969	8962	8963	8973	9
8971	8966	8963	8973	9
8976	8977	8978	8981	9
8976	8977	8978	8988	9
8976	8979	8980	8981	9
8976	8979	8980	8987	9
8977	8978	8981	8980	9
8977	8978	8981	8986	9
8977	8978	8988	8990	9
8977	8976	8979	8980	9
8977	8976	8979	8985	9
8977	8976	8982	8983	9
8978	8977	8976	8979	9
8978	8977	8976	8982	9
8978	8981	8980	8979	9
8978	8981	8980	8987	9
8981	8978	8977	8984	9
8981	8978	8988	8990	9
8981	8980	8979	8985	9
8981	8980	8987	8989	9
8980	8981	8978	8988	9
8980	8979	8976	8982	9
8979	8980	8981	8986	9
8979	8980	8987	8989	9
8979	8976	8977	8984	9
8979	8976	8982	8983	9
8986	8981	8980	8987	9
8985	8979	8980	8987	9
8982	8976	8977	8984	9
8982	8976	8979	8985	9
8984	8977	8978	8988	9
8986	8981	8978	8988	9
9005	9006	9007	9010	9
9005	9006	9007	9017	9
9005	9008	9009	9010	9
9005	9008	9009	9016	9
9006	9007	9010	9009	9
9006	9007	9010	9015	9
9006	9007	9017	9019	9
9006	9005	9008	9009	9
9006	9005	9008	9014	9
9006	9005	9011	9012	9
9007	9006	9005	9008	9
9007	9006	9005	9011	9
9007	9010	9009	9008	9
9007	9010	9009	9016	9
9010	9007	9006	9013	9
9010	9007	9017	9019	9
9010	9009	9008	9014	9
9010	9009	9016	9018	9
9009	9010	9007	9017	9
9009	9008	9005	9011	9
9008	9009	9010	9015	9
9008	9009	9016	9018	9
9008	9005	9006	9013	9
9008	9005	9011	9012	9
9015	9010	9009	9016	9
9014	9008	9009	9016	9
9011	9005	9006	9013	9
9011	9005	9008	9014	9
9013	9006	9007	9017	9
9015	9010	9007	9017	9
9020	9023	9024	9025	9
9020	9023	9024	9031	9
9020	9021	9022	9025	9
9020	9021	9022	9032	9
9023	9024	9025	9022	9
9023	9024	9025	9030	9
9023	9024	9031	9033	9
9023	9020	9021	9022	9
9023	9020	9021	9028	9
9023	9020	9026	9027	9
9024	9023	9020	9021	9
9024	9023	9020	9026	9
9024	9025	9022	9021	9
9024	9025	9022	9032	9
9025	9024	9023	9029	9
9025	9024	9031	9033	9
9025	9022	9021	9028	9
9025	9022	9032	9034	9
9022	9025	9024	9031	9
9022	9021	9020	9026	9
9021	9022	9025	9030	9
9021	9022	9032	9034	9
9021	9020	9023	9029	9
9021	9020	9026	9027	9
9030	9025	9022	9032	9
9028	9021	9022	9032	9
9026	9020	9023	9029	9
9026	9020	9021	9028	9
9029	9023	9024	9031	9
9030	9025	9024	9031	9
9035	9036	9037	9040	9
9035	9036	9037	9047	9
9035	9038	9039	9040	9
9035	9038	9039	9046	9
9039	9040	9037	9036	9
9036	9037	9040	9045	9
9036	9037	9047	9049	9
9039	9038	9035	9036	9
9036	9035	9038	9044	9
9036	9035	9041	9042	9
9038	9035	9036	9037	9
9037	9036	9035	9041	9
9038	9039	9040	9037	9
9037	9040	9039	9046	9
9040	9037	9036	9043	9
9040	9037	9047	9049	9
9040	9039	9038	9044	9
9040	9039	9046	9048	9
9039	9040	9037	9047	9
9039	9038	9035	9041	9
9038	9039	9040	9045	9
9038	9039	9046	9048	9
9038	9035	9036	9043	9
9038	9035	9041	9042	9
9045	9040	9039	9046	9
9044	9038	9039	9046	9
9041	9035	9036	9043	9
9041	9035	9038	9044	9
9043	9036	9037	9047	9
9045	9040	9037	9047	9
2115	2116	2117	2120	9
2115	2116	2117	2127	9
2115	2118	2119	2120	9
2115	2118	2119	2126	9
2116	2117	2120	2119	9
2116	2117	2120	2125	9
2116	2117	2127	2129	9
2116	2117	2127	2130	9
2116	2115	2118	2119	9
2116	2115	2118	2124	9
2116	2115	2121	2122	9
2117	2116	2115	2118	9
2117	2116	2115	2121	9
2117	2120	2119	2118	9
2117	2120	2119	2126	9
2117	2127	2130	2131	9
2120	2117	2116	2123	9
2120	2117	2127	2129	9
2120	2117	2127	2130	9
2120	2119	2118	2124	9
2120	2119	2126	2128	9
2119	2120	2117	2127	9
2119	2118	2115	2121	9
2118	2119	2120	2125	9
2118	2119	2126	2128	9
2118	2115	2116	2123	9
2118	2115	2121	2122	9
2125	2120	2119	2126	9
2124	2118	2119	2126	9
2121	2115	2116	2123	9
2121	2115	2118	2124	9
2123	2116	2117	2127	9
2125	2120	2117	2127	9
2129	2127	2130	2131	9
2148	2153	2152	2151	9
2148	2153	2152	2154	9
2148	2149	2150	2151	9
2148	2149	2150	2156	9
2150	2151	2152	2153	9
2153	2152	2151	2160	9
2153	2152	2154	2155	9
2150	2149	2148	2153	9
2153	2148	2149	2159	9
2153	2148	2146	2147	9
2149	2148	2153	2152	9
2152	2153	2148	2146	9
2149	2150	2151	2152	9
2152	2151	2150	2156	9
2151	2152	2153	2161	9
2151	2152	2154	2155	9
2151	2150	2149	2159	9
2151	2150	2156	2157	9
2151	2150	2156	2158	9
2150	2151	2152	2154	9
2150	2149	2148	2146	9
2149	2150	2151	2160	9
2149	2150	2156	2157	9
2149	2150	2156	2158	9
2149	2148	2153	2161	9
2149	2148	2146	2147	9
2160	2151	2150	2156	9
2159	2149	2150	2156	9
2146	2148	2153	2161	9
2146	2148	2149	2159	9
2161	2153	2152	2154	9
2160	2151	2152	2154	9
9064	9065	9066	9069	9
9064	9065	9066	9076	9
9064	9067	9068	9069	9
9064	9067	9068	9075	9
9065	9066	9069	9068	9
9065	9066	9069	9074	9
9065	9066	9076	9078	9
9065	9064	9067	9068	9
9065	9064	9067	9073	9
9065	9064	9070	9071	9
9066	9065	9064	9067	9
9066	9065	9064	9070	9
9066	9069	9068	9067	9
9066	9069	9068	9075	9
9069	9066	9065	9072	9
9069	9066	9076	9078	9
9069	9068	9067	9073	9
9069	9068	9075	9077	9
9068	9069	9066	9076	9
9068	9067	9064	9070	9
9067	9068	9069	9074	9
9067	9068	9075	9077	9
9067	9064	9065	9072	9
9067	9064	9070	9071	9
9074	9069	9068	9075	9
9073	9067	9068	9075	9
9070	9064	9065	9072	9
9070	9064	9067	9073	9
9072	9065	9066	9076	9
9074	9069	9066	9076	9
9094	9093	9096	9097	9
9097	9096	9093	9099	9
9094	9095	9098	9097	9
9097	9098	9095	9105	9
9095	9094	9093	9096	9
9096	9093	9094	9101	9
9096	9093	9099	9100	9
9095	9098	9097	9096	9
9096	9097	9098	9103	9
9096	9097	9104	9106	9
9093	9096	9097	9098	9
9093	9096	9097	9104	9
9093	9094	9095	9098	9
9093	9094	9095	9105	9
9094	9093	9096	9102	9
9094	9093	9099	9100	9
9094	9095	9098	9103	9
9094	9095	9105	9107	9
9095	9094	9093	9099	9
9095	9098	9097	9104	9
9098	9095	9094	9101	9
9098	9095	9105	9107	9
9098	9097	9096	9102	9
9098	9097	9104	9106	9
9101	9094	9095	9105	9
9103	9098	9095	9105	9
9102	9096	9097	9104	9
9103	9098	9097	9104	9
9099	9093	9096	9102	9
9099	9093	9094	9101	9
9122	9125	9126	9127	9
9122	9125	9126	9133	9
9122	9123	9124	9127	9
9122	9123	9124	9134	9
9124	9127	9126	9125	9
9125	9126	9127	9132	9
9125	9126	9133	9135	9
9124	9123	9122	9125	9
9125	9122	9123	9130	9
9125	9122	9128	9129	9
9123	9122	9125	9126	9
9126	9125	9122	9128	9
9123	9124	9127	9126	9
9126	9127	9124	9134	9
9127	9126	9125	9131	9
9127	9126	9133	9135	9
9127	9124	9123	9130	9
9127	9124	9134	9136	9
9124	9127	9126	9133	9
9124	9123	9122	9128	9
9123	9124	9127	9132	9
9123	9124	9134	9136	9
9123	9122	9125	9131	9
9123	9122	9128	9129	9
9132	9127	9124	9134	9
9130	9123	9124	9134	9
9128	9122	9125	9131	9
9128	9122	9123	9130	9
9131	9125	9126	9133	9
9132	9127	9126	9133	9
2178	2179	2180	2181	9
2178	2179	2180	2186	9
2178	2183	2182	2181	9
2178	2183	2182	2184	9
2179	2180	2181	2182	9
2179	2180	2181	2190	9
2179	2180	2186	2187	9
2179	2180	2186	2188	9
2179	2178	2183	2182	9
2179	2178	2183	2191	9
2179	2178	2176	2177	9
2180	2179	2178	2183	9
2180	2179	2178	2176	9
2180	2181	2182	2183	9
2180	2181	2182	2184	9
2181	2180	2179	2189	9
2181	2180	2186	2187	9
2181	2180	2186	2188	9
2181	2182	2183	2191	9
2181	2182	2184	2185	9
2182	2181	2180	2186	9
2182	2183	2178	2176	9
2183	2182	2181	2190	9
2183	2182	2184	2185	9
2183	2178	2179	2189	9
2183	2178	2176	2177	9
2190	2181	2182	2184	9
2191	2183	2182	2184	9
2176	2178	2179	2189	9
2176	2178	2183	2191	9
2189	2179	2180	2186	9
2190	2181	2180	2186	9
9151	9154	9155	9156	9
9151	9154	9155	9162	9
9151	9152	9153	9156	9
9151	9152	9153	9163	9
9153	9156	9155	9154	9
9154	9155	9156	9161	9
9154	9155	9162	9164	9
9153	9152	9151	9154	9
9154	9151	9152	9159	9
9154	9151	9157	9158	9
9152	9151	9154	9155	9
9155	9154	9151	9157	9
9152	9153	9156	9155	9
9155	9156	9153	9163	9
9156	9155	9154	9160	9
9156	9155	9162	9164	9
9156	9153	9152	9159	9
9156	9153	9163	9165	9
9153	9156	9155	9162	9
9153	9152	9151	9157	9
9152	9153	9156	9161	9
9152	9153	9163	9165	9
9152	9151	9154	9160	9
9152	9151	9157	9158	9
9161	9156	9153	9163	9
9159	9152	9153	9163	9
9157	9151	9154	9160	9
9157	9151	9152	9159	9
9160	9154	9155	9162	9
9161	9156	9155	9162	9
9180	9183	9184	9185	9
9180	9183	9184	9191	9
9180	9181	9182	9185	9
9180	9181	9182	9192	9
9182	9185	9184	9183	9
9183	9184	9185	9190	9
9183	9184	9191	9193	9
9182	9181	9180	9183	9
9183	9180	9181	9188	9
9183	9180	9186	9187	9
9181	9180	9183	9184	9
9184	9183	9180	9186	9
9181	9182	9185	9184	9
9184	9185	9182	9192	9
9185	9184	9183	9189	9
9185	9184	9191	9193	9
9185	9182	9181	9188	9
9185	9182	9192	9194	9
9182	9185	9184	9191	9
9182	9181	9180	9186	9
9181	9182	9185	9190	9
9181	9182	9192	9194	9
9181	9180	9183	9189	9
9181	9180	9186	9187	9
9190	9185	9182	9192	9
9188	9181	9182	9192	9
9186	9180	9183	9189	9
9186	9180	9181	9188	9
9189	9183	9184	9191	9
9190	9185	9184	9191	9
9209	9212	9213	9214	9
9209	9212	9213	9220	9
9209	9210	9211	9214	9
9209	9210	9211	9221	9
9211	9214	9213	9212	9
9212	9213	9214	9219	9
9212	9213	9220	9222	9
9211	9210	9209	9212	9
9212	9209	9210	9217	9
9212	9209	9215	9216	9
9210	9209	9212	9213	9
9213	9212	9209	9215	9
9210	9211	9214	9213	9
9213	9214	9211	9221	9
9214	9213	9212	9218	9
9214	9213	9220	9222	9
9214	9211	9210	9217	9
9214	9211	9221	9223	9
9211	9214	9213	9220	9
9211	9210	9209	9215	9
9210	9211	9214	9219	9
9210	9211	9221	9223	9
9210	9209	9212	9218	9
9210	9209	9215	9216	9
9219	9214	9211	9221	9
9217	9210	9211	9221	9
9215	9209	9212	9218	9
9215	9209	9210	9217	9
9218	9212	9213	9220	9
9219	9214	9213	9220	9
9242	9241	9238	9239	9
9242	9241	9238	9244	9
9242	9243	9240	9239	9
9242	9243	9240	9250	9
9241	9238	9239	9240	9
9241	9238	9239	9246	9
9241	9238	9244	9245	9
9241	9242	9243	9240	9
9241	9242	9243	9248	9
9241	9242	9249	9251	9
9238	9241	9242	9243	9
9238	9241	9242	9249	9
9238	9239	9240	9243	9
9238	9239	9240	9250	9
9239	9238	9241	9247	9
9239	9238	9244	9245	9
9239	9240	9243	9248	9
9239	9240	9250	9252	9
9240	9239	9238	9244	9
9240	9243	9242	9249	9
9243	9240	9239	9246	9
9243	9240	9250	9252	9
9243	9242	9241	9247	9
9243	9242	9249	9251	9
9246	9239	9240	9250	9
9248	9243	9240	9250	9
9249	9242	9241	9247	9
9249	9242	9243	9248	9
9247	9241	9238	9244	9
9246	9239	9238	9244	9
9267	9270	9271	9272	9
9267	9270	9271	9278	9
9267	9268	9269	9272	9
9267	9268	9269	9279	9
9270	9271	9272	9269	9
9270	9271	9272	9277	9
9270	9271	9278	9280	9
9270	9267	9268	9269	9
9270	9267	9268	9275	9
9270	9267	9273	9274	9
9271	9270	9267	9268	9
9271	9270	9267	9273	9
9271	9272	9269	9268	9
9271	9272	9269	9279	9
9272	9271	9270	9276	9
9272	9271	9278	9280	9
9272	9269	9268	9275	9
9272	9269	9279	9281	9
9269	9272	9271	9278	9
9269	9268	9267	9273	9
9268	9269	9272	9277	9
9268	9269	9279	9281	9
9268	9267	9270	9276	9
9268	9267	9273	9274	9
9277	9272	9269	9279	9
9275	9268	9269	9279	9
9273	9267	9270	9276	9
9273	9267	9268	9275	9
9276	9270	9271	9278	9
9277	9272	9271	9278	9
9296	9297	9298	9301	9
9296	9297	9298	9308	9
9296	9299	9300	9301	9
9296	9299	9300	9307	9
9297	9298	9301	9300	9
9297	9298	9301	9306	9
9297	9298	9308	9310	9
9297	9296	9299	9300	9
9297	9296	9299	9305	9
9297	9296	9302	9303	9
9298	9297	9296	9299	9
9298	9297	9296	9302	9
9298	9301	9300	9299	9
9298	9301	9300	9307	9
9301	9298	9297	9304	9
9301	9298	9308	9310	9
9301	9300	9299	9305	9
9301	9300	9307	9309	9
9300	9301	9298	9308	9
9300	9299	9296	9302	9
9299	9300	9301	9306	9
9299	9300	9307	9309	9
9299	9296	9297	9304	9
9299	9296	9302	9303	9
9306	9301	9300	9307	9
9305	9299	9300	9307	9
9302	9296	9297	9304	9
9302	9296	9299	9305	9
9304	9297	9298	9308	9
9306	9301	9298	9308	9
9325	9326	9327	9330	9
9325	9326	9327	9337	9
9325	9328	9329	9330	9
9325	9328	9329	9336	9
9326	9327	9330	9329	9
9326	9327	9330	9335	9
9326	9327	9337	9339	9
9326	9325	9328	9329	9
9326	9325	9328	9334	9
9326	9325	9331	9332	9
9327	9326	9325	9328	9
9327	9326	9325	9331	9
9327	9330	9329	9328	9
9327	9330	9329	9336	9
9330	9327	9326	9333	9
9330	9327	9337	9339	9
9330	9329	9328	9334	9
9330	9329	9336	9338	9
9329	9330	9327	9337	9
9329	9328	9325	9331	9
9328	9329	9330	9335	9
9328	9329	9336	9338	9
9328	9325	9326	9333	9
9328	9325	9331	9332	9
9335	9330	9329	9336	9
9334	9328	9329	9336	9
9331	9325	9326	9333	9
9331	9325	9328	9334	9
9333	9326	9327	9337	9
9335	9330	9327	9337	9
9354	9357	9358	9359	9
9354	9357	9358	9365	9
9354	9355	9356	9359	9
9354	9355	9356	9366	9
9356	9359	9358	9357	9
9357	9358	9359	9364	9
9357	9358	9365	9367	9
9356	9355	9354	9357	9
9357	9354	9355	9362	9
9357	9354	9360	9361	9
9355	9354	9357	9358	9
9358	9357	9354	9360	9
9355	9356	9359	9358	9
9358	9359	9356	9366	9
9359	9358	9357	9363	9
9359	9358	9365	9367	9
9359	9356	9355	9362	9
9359	9356	9366	9368	9
9356	9359	9358	9365	9
9356	9355	9354	9360	9
9355	9356	9359	9364	9
9355	9356	9366	9368	9
9355	9354	9357	9363	9
9355	9354	9360	9361	9
9364	9359	9356	9366	9
9362	9355	9356	9366	9
9360	9354	9357	9363	9
9360	9354	9355	9362	9
9363	9357	9358	9365	9
9364	9359	9358	9365	9
9383	9386	9387	9388	9
9383	9386	9387	9394	9
9383	9384	9385	9388	9
9383	9384	9385	9395	9
9385	9388	9387	9386	9
9386	9387	9388	9393	9
9386	9387	9394	9396	9
9385	9384	9383	9386	9
9386	9383	9384	9391	9
9386	9383	9389	9390	9
9384	9383	9386	9387	9
9387	9386	9383	9389	9
9384	9385	9388	9387	9
9387	9388	9385	9395	9
9388	9387	9386	9392	9
9388	9387	9394	9396	9
9388	9385	9384	9391	9
9388	9385	9395	9397	9
9385	9388	9387	9394	9
9385	9384	9383	9389	9
9384	9385	9388	9393	9
9384	9385	9395	9397	9
9384	9383	9386	9392	9
9384	9383	9389	9390	9
9393	9388	9385	9395	9
9391	9384	9385	9395	9
9389	9383	9386	9392	9
9389	9383	9384	9391	9
9392	9386	9387	9394	9
9393	9388	9387	9394	9
2208	2209	2210	2211	9
2208	2209	2210	2216	9
2208	2213	2212	2211	9
2208	2213	2212	2214	9
2209	2210	2211	2212	9
2209	2210	2211	2220	9
2209	2210	2216	2217	9
2209	2210	2216	2218	9
2209	2208	2213	2212	9
2209	2208	2213	2221	9
2209	2208	2206	2207	9
2210	2209	2208	2213	9
2210	2209	2208	2206	9
2210	2211	2212	2213	9
2210	2211	2212	2214	9
2211	2210	2209	2219	9
2211	2210	2216	2217	9
2211	2210	2216	2218	9
2211	2212	2213	2221	9
2211	2212	2214	2215	9
2212	2211	2210	2216	9
2212	2213	2208	2206	9
2213	2212	2211	2220	9
2213	2212	2214	2215	9
2213	2208	2209	2219	9
2213	2208	2206	2207	9
2220	2211	2212	2214	9
2221	2213	2212	2214	9
2206	2208	2209	2219	9
2206	2208	2213	2221	9
2219	2209	2210	2216	9
2220	2211	2210	2216	9
9398	9401	9402	9403	9
9398	9401	9402	9409	9
9398	9399	9400	9403	9
9398	9399	9400	9410	9
9400	9403	9402	9401	9
9401	9402	9403	9408	9
9401	9402	9409	9411	9
9400	9399	9398	9401	9
9401	9398	9399	9406	9
9401	9398	9404	9405	9
9399	9398	9401	9402	9
9402	9401	9398	9404	9
9399	9400	9403	9402	9
9402	9403	9400	9410	9
9403	9402	9401	9407	9
9403	9402	9409	9411	9
9403	9400	9399	9406	9
9403	9400	9410	9412	9
9400	9403	9402	9409	9
9400	9399	9398	9404	9
9399	9400	9403	9408	9
9399	9400	9410	9412	9
9399	9398	9401	9407	9
9399	9398	9404	9405	9
9408	9403	9400	9410	9
9406	9399	9400	9410	9
9404	9398	9401	9407	9
9404	9398	9399	9406	9
9407	9401	9402	9409	9
9408	9403	9402	9409	9
9427	9430	9431	9432	9
9427	9430	9431	9438	9
9427	9428	9429	9432	9
9427	9428	9429	9439	9
9429	9432	9431	9430	9
9430	9431	9432	9437	9
9430	9431	9438	9440	9
9429	9428	9427	9430	9
9430	9427	9428	9435	9
9430	9427	9433	9434	9
9428	9427	9430	9431	9
9431	9430	9427	9433	9
9428	9429	9432	9431	9
9431	9432	9429	9439	9
9432	9431	9430	9436	9
9432	9431	9438	9440	9
9432	9429	9428	9435	9
9432	9429	9439	9441	9
9429	9432	9431	9438	9
9429	9428	9427	9433	9
9428	9429	9432	9437	9
9428	9429	9439	9441	9
9428	9427	9430	9436	9
9428	9427	9433	9434	9
9437	9432	9429	9439	9
9435	9428	9429	9439	9
9433	9427	9430	9436	9
9433	9427	9428	9435	9
9436	9430	9431	9438	9
9437	9432	9431	9438	9
9456	9457	9458	9461	9
9456	9457	9458	9468	9
9456	9459	9460	9461	9
9456	9459	9460	9467	9
9460	9461	9458	9457	9
9457	9458	9461	9466	9
9457	9458	9468	9470	9
9460	9459	9456	9457	9
9457	9456	9459	9465	9
9457	9456	9462	9463	9
9459	9456	9457	9458	9
9458	9457	9456	9462	9
9459	9460	9461	9458	9
9458	9461	9460	9467	9
9461	9458	9457	9464	9
9461	9458	9468	9470	9
9461	9460	9459	9465	9
9461	9460	9467	9469	9
9460	9461	9458	9468	9
9460	9459	9456	9462	9
9459	9460	9461	9466	9
9459	9460	9467	9469	9
9459	9456	9457	9464	9
9459	9456	9462	9463	9
9466	9461	9460	9467	9
9465	9459	9460	9467	9
9462	9456	9457	9464	9
9462	9456	9459	9465	9
9464	9457	9458	9468	9
9466	9461	9458	9468	9
9485	9488	9489	9490	9
9485	9488	9489	9496	9
9485	9486	9487	9490	9
9485	9486	9487	9497	9
9488	9489	9490	9487	9
9488	9489	9490	9495	9
9488	9489	9496	9498	9
9488	9485	9486	9487	9
9488	9485	9486	9493	9
9488	9485	9491	9492	9
9489	9488	9485	9486	9
9489	9488	9485	9491	9
9489	9490	9487	9486	9
9489	9490	9487	9497	9
9490	9489	9488	9494	9
9490	9489	9496	9498	9
9490	9487	9486	9493	9
9490	9487	9497	9499	9
9487	9490	9489	9496	9
9487	9486	9485	9491	9
9486	9487	9490	9495	9
9486	9487	9497	9499	9
9486	9485	9488	9494	9
9486	9485	9491	9492	9
9495	9490	9487	9497	9
9493	9486	9487	9497	9
9491	9485	9488	9494	9
9491	9485	9486	9493	9
9494	9488	9489	9496	9
9495	9490	9489	9496	9
9500	9501	9502	9505	9
9500	9501	9502	9512	9
9500	9503	9504	9505	9
9500	9503	9504	9511	9
9501	9502	9505	9504	9
9501	9502	9505	9510	9
9501	9502	9512	9514	9
9501	9500	9503	9504	9
9501	9500	9503	9509	9
9501	9500	9506	9507	9
9502	9501	9500	9503	9
9502	9501	9500	9506	9
9502	9505	9504	9503	9
9502	9505	9504	9511	9
9505	9502	9501	9508	9
9505	9502	9512	9514	9
9505	9504	9503	9509	9
9505	9504	9511	9513	9
9504	9505	9502	9512	9
9504	9503	9500	9506	9
9503	9504	9505	9510	9
9503	9504	9511	9513	9
9503	9500	9501	9508	9
9503	9500	9506	9507	9
9510	9505	9504	9511	9
9509	9503	9504	9511	9
9506	9500	9501	9508	9
9506	9500	9503	9509	9
9508	9501	9502	9512	9
9510	9505	9502	9512	9
2226	2227	2224	2223	9
2226	2227	2224	2234	9
2226	2225	2222	2223	9
2226	2225	2222	2228	9
2227	2224	2223	2222	9
2227	2224	2223	2230	9
2227	2224	2234	2236	9
2227	2224	2234	2237	9
2227	2226	2225	2222	9
2227	2226	2225	2231	9
2227	2226	2233	2235	9
2224	2227	2226	2225	9
2224	2227	2226	2233	9
2224	2223	2222	2225	9
2224	2223	2222	2228	9
2224	2234	2237	2238	9
2223	2224	2227	2232	9
2223	2224	2234	2236	9
2223	2224	2234	2237	9
2223	2222	2225	2231	9
2223	2222	2228	2229	9
2222	2223	2224	2234	9
2222	2225	2226	2233	9
2225	2222	2223	2230	9
2225	2222	2228	2229	9
2225	2226	2227	2232	9
2225	2226	2233	2235	9
2230	2223	2222	2228	9
2231	2225	2222	2228	9
2233	2226	2227	2232	9
2233	2226	2225	2231	9
2232	2227	2224	2234	9
2230	2223	2224	2234	9
2236	2234	2237	2238	9
9515	9516	9517	9520	9
9515	9516	9517	9527	9
9515	9518	9519	9520	9
9515	9518	9519	9526	9
9516	9517	9520	9519	9
9516	9517	9520	9525	9
9516	9517	9527	9529	9
9516	9515	9518	9519	9
9516	9515	9518	9524	9
9516	9515	9521	9522	9
9517	9516	9515	9518	9
9517	9516	9515	9521	9
9517	9520	9519	9518	9
9517	9520	9519	9526	9
9520	9517	9516	9523	9
9520	9517	9527	9529	9
9520	9519	9518	9524	9
9520	9519	9526	9528	9
9519	9520	9517	9527	9
9519	9518	9515	9521	9
9518	9519	9520	9525	9
9518	9519	9526	9528	9
9518	9515	9516	9523	9
9518	9515	9521	9522	9
9525	9520	9519	9526	9
9524	9518	9519	9526	9
9521	9515	9516	9523	9
9521	9515	9518	9524	9
9523	9516	9517	9527	9
9525	9520	9517	9527	9
9544	9545	9546	9549	9
9544	9545	9546	9556	9
9544	9547	9548	9549	9
9544	9547	9548	9555	9
9545	9546	9549	9548	9
9545	9546	9549	9554	9
9545	9546	9556	9558	9
9545	9544	9547	9548	9
9545	9544	9547	9553	9
9545	9544	9550	9551	9
9546	9545	9544	9547	9
9546	9545	9544	9550	9
9546	9549	9548	9547	9
9546	9549	9548	9555	9
9549	9546	9545	9552	9
9549	9546	9556	9558	9
9549	9548	9547	9553	9
9549	9548	9555	9557	9
9548	9549	9546	9556	9
9548	9547	9544	9550	9
9547	9548	9549	9554	9
9547	9548	9555	9557	9
9547	9544	9545	9552	9
9547	9544	9550	9551	9
9554	9549	9548	9555	9
9553	9547	9548	9555	9
9550	9544	9545	9552	9
9550	9544	9547	9553	9
9552	9545	9546	9556	9
9554	9549	9546	9556	9
9573	9574	9575	9578	9
9573	9574	9575	9585	9
9573	9576	9577	9578	9
9573	9576	9577	9584	9
9574	9575	9578	9577	9
9574	9575	9578	9583	9
9574	9575	9585	9587	9
9574	9573	9576	9577	9
9574	9573	9576	9582	9
9574	9573	9579	9580	9
9575	9574	9573	9576	9
9575	9574	9573	9579	9
9575	9578	9577	9576	9
9575	9578	9577	9584	9
9578	9575	9574	9581	9
9578	9575	9585	9587	9
9578	9577	9576	9582	9
9578	9577	9584	9586	9
9577	9578	9575	9585	9
9577	9576	9573	9579	9
9576	9577	9578	9583	9
9576	9577	9584	9586	9
9576	9573	9574	9581	9
9576	9573	9579	9580	9
9583	9578	9577	9584	9
9582	9576	9577	9584	9
9579	9573	9574	9581	9
9579	9573	9576	9582	9
9581	9574	9575	9585	9
9583	9578	9575	9585	9
9588	9591	9592	9593	9
9588	9591	9592	9599	9
9588	9589	9590	9593	9
9588	9589	9590	9600	9
9590	9593	9592	9591	9
9591	9592	9593	9598	9
9591	9592	9599	9601	9
9590	9589	9588	9591	9
9591	9588	9589	9596	9
9591	9588	9594	9595	9
9589	9588	9591	9592	9
9592	9591	9588	9594	9
9589	9590	9593	9592	9
9592	9593	9590	9600	9
9593	9592	9591	9597	9
9593	9592	9599	9601	9
9593	9590	9589	9596	9
9593	9590	9600	9602	9
9590	9593	9592	9599	9
9590	9589	9588	9594	9
9589	9590	9593	9598	9
9589	9590	9600	9602	9
9589	9588	9591	9597	9
9589	9588	9594	9595	9
9598	9593	9590	9600	9
9596	9589	9590	9600	9
9594	9588	9591	9597	9
9594	9588	9589	9596	9
9597	9591	9592	9599	9
9598	9593	9592	9599	9
9603	9606	9607	9608	9
9603	9606	9607	9614	9
9603	9604	9605	9608	9
9603	9604	9605	9615	9
9605	9608	9607	9606	9
9606	9607	9608	9613	9
9606	9607	9614	9616	9
9605	9604	9603	9606	9
9606	9603	9604	9611	9
9606	9603	9609	9610	9
9604	9603	9606	9607	9
9607	9606	9603	9609	9
9604	9605	9608	9607	9
9607	9608	9605	9615	9
9608	9607	9606	9612	9
9608	9607	9614	9616	9
9608	9605	9604	9611	9
9608	9605	9615	9617	9
9605	9608	9607	9614	9
9605	9604	9603	9609	9
9604	9605	9608	9613	9
9604	9605	9615	9617	9
9604	9603	9606	9612	9
9604	9603	9609	9610	9
9613	9608	9605	9615	9
9611	9604	9605	9615	9
9609	9603	9606	9612	9
9609	9603	9604	9611	9
9612	9606	9607	9614	9
9613	9608	9607	9614	9
9618	9619	9620	9623	9
9618	9619	9620	9630	9
9618	9621	9622	9623	9
9618	9621	9622	9629	9
9622	9623	9620	9619	9
9619	9620	9623	9628	9
9619	9620	9630	9632	9
9622	9621	9618	9619	9
9619	9618	9621	9627	9
9619	9618	9624	9625	9
9621	9618	9619	9620	9
9620	9619	9618	9624	9
9621	9622	9623	9620	9
9620	9623	9622	9629	9
9623	9620	9619	9626	9
9623	9620	9630	9632	9
9623	9622	9621	9627	9
9623	9622	9629	9631	9
9622	9623	9620	9630	9
9622	9621	9618	9624	9
9621	9622	9623	9628	9
9621	9622	9629	9631	9
9621	9618	9619	9626	9
9621	9618	9624	9625	9
9628	9623	9622	9629	9
9627	9621	9622	9629	9
9624	9618	9619	9626	9
9624	9618	9621	9627	9
9626	9619	9620	9630	9
9628	9623	9620	9630	9
9649	9648	9647	9650	9
9649	9648	9647	9653	9
9649	9652	9651	9650	9
9649	9652	9651	9658	9
9651	9650	9647	9648	9
9648	9647	9650	9656	9
9648	9647	9653	9654	9
9651	9652	9649	9648	9
9648	9649	9652	9657	9
9648	9649	9659	9661	9
9652	9649	9648	9647	9
9647	9648	9649	9659	9
9652	9651	9650	9647	9
9647	9650	9651	9658	9
9650	9647	9648	9655	9
9650	9647	9653	9654	9
9650	9651	9652	9657	9
9650	9651	9658	9660	9
9651	9650	9647	9653	9
9651	9652	9649	9659	9
9652	9651	9650	9656	9
9652	9651	9658	9660	9
9652	9649	9648	9655	9
9652	9649	9659	9661	9
9656	9650	9651	9658	9
9657	9652	9651	9658	9
9659	9649	9648	9655	9
9659	9649	9652	9657	9
9655	9648	9647	9653	9
9656	9650	9647	9653	9
9676	9677	9678	9681	9
9676	9677	9678	9688	9
9676	9679	9680	9681	9
9676	9679	9680	9687	9
9677	9678	9681	9680	9
9677	9678	9681	9686	9
9677	9678	9688	9690	9
9677	9676	9679	9680	9
9677	9676	9679	9685	9
9677	9676	9682	9683	9
9678	9677	9676	9679	9
9678	9677	9676	9682	9
9678	9681	9680	9679	9
9678	9681	9680	9687	9
9681	9678	9677	9684	9
9681	9678	9688	9690	9
9681	9680	9679	9685	9
9681	9680	9687	9689	9
9680	9681	9678	9688	9
9680	9679	9676	9682	9
9679	9680	9681	9686	9
9679	9680	9687	9689	9
9679	9676	9677	9684	9
9679	9676	9682	9683	9
9686	9681	9680	9687	9
9685	9679	9680	9687	9
9682	9676	9677	9684	9
9682	9676	9679	9685	9
9684	9677	9678	9688	9
9686	9681	9678	9688	9
9705	9706	9707	9710	9
9705	9706	9707	9717	9
9705	9708	9709	9710	9
9705	9708	9709	9716	9
9706	9707	9710	9709	9
9706	9707	9710	9715	9
9706	9707	9717	9719	9
9706	9705	9708	9709	9
9706	9705	9708	9714	9
9706	9705	9711	9712	9
9707	9706	9705	9708	9
9707	9706	9705	9711	9
9707	9710	9709	9708	9
9707	9710	9709	9716	9
9710	9707	9706	9713	9
9710	9707	9717	9719	9
9710	9709	9708	9714	9
9710	9709	9716	9718	9
9709	9710	9707	9717	9
9709	9708	9705	9711	9
9708	9709	9710	9715	9
9708	9709	9716	9718	9
9708	9705	9706	9713	9
9708	9705	9711	9712	9
9715	9710	9709	9716	9
9714	9708	9709	9716	9
9711	9705	9706	9713	9
9711	9705	9708	9714	9
9713	9706	9707	9717	9
9715	9710	9707	9717	9
9720	9721	9722	9725	9
9720	9721	9722	9732	9
9720	9723	9724	9725	9
9720	9723	9724	9731	9
9721	9722	9725	9724	9
9721	9722	9725	9730	9
9721	9722	9732	9734	9
9721	9720	9723	9724	9
9721	9720	9723	9729	9
9721	9720	9726	9727	9
9722	9721	9720	9723	9
9722	9721	9720	9726	9
9722	9725	9724	9723	9
9722	9725	9724	9731	9
9725	9722	9721	9728	9
9725	9722	9732	9734	9
9725	9724	9723	9729	9
9725	9724	9731	9733	9
9724	9725	9722	9732	9
9724	9723	9720	9726	9
9723	9724	9725	9730	9
9723	9724	9731	9733	9
9723	9720	9721	9728	9
9723	9720	9726	9727	9
9730	9725	9724	9731	9
9729	9723	9724	9731	9
9726	9720	9721	9728	9
9726	9720	9723	9729	9
9728	9721	9722	9732	9
9730	9725	9722	9732	9
2269	2270	2271	2272	9
2269	2270	2271	2277	9
2269	2274	2273	2272	9
2269	2274	2273	2275	9
2270	2271	2272	2273	9
2270	2271	2272	2281	9
2270	2271	2277	2278	9
2270	2271	2277	2279	9
2270	2269	2274	2273	9
2270	2269	2274	2282	9
2270	2269	2267	2268	9
2271	2270	2269	2274	9
2271	2270	2269	2267	9
2271	2272	2273	2274	9
2271	2272	2273	2275	9
2272	2271	2270	2280	9
2272	2271	2277	2278	9
2272	2271	2277	2279	9
2272	2273	2274	2282	9
2272	2273	2275	2276	9
2273	2272	2271	2277	9
2273	2274	2269	2267	9
2274	2273	2272	2281	9
2274	2273	2275	2276	9
2274	2269	2270	2280	9
2274	2269	2267	2268	9
2281	2272	2273	2275	9
2282	2274	2273	2275	9
2267	2269	2270	2280	9
2267	2269	2274	2282	9
2280	2270	2271	2277	9
2281	2272	2271	2277	9
2301	2300	2299	2304	9
2301	2300	2299	2297	9
2301	2302	2303	2304	9
2301	2302	2303	2305	9
2300	2299	2304	2303	9
2300	2299	2304	2312	9
2300	2299	2297	2298	9
2300	2301	2302	2303	9
2300	2301	2302	2311	9
2300	2301	2307	2308	9
2300	2301	2307	2309	9
2299	2300	2301	2302	9
2299	2300	2301	2307	9
2299	2304	2303	2302	9
2299	2304	2303	2305	9
2304	2299	2300	2310	9
2304	2299	2297	2298	9
2304	2303	2302	2311	9
2304	2303	2305	2306	9
2303	2304	2299	2297	9
2303	2302	2301	2307	9
2302	2303	2304	2312	9
2302	2303	2305	2306	9
2302	2301	2300	2310	9
2302	2301	2307	2308	9
2302	2301	2307	2309	9
2312	2304	2303	2305	9
2311	2302	2303	2305	9
2310	2300	2301	2307	9
2311	2302	2301	2307	9
2297	2299	2300	2310	9
2297	2299	2304	2312	9
231	230	229	228	9
228	229	230	236	9
231	232	233	228	9
228	233	232	234	9
228	226	225	239	9
232	231	230	229	9
229	230	231	241	9
229	230	236	237	9
229	230	236	238	9
232	233	228	229	9
229	228	233	242	9
229	228	226	227	9
229	228	226	225	9
230	229	228	233	9
230	229	228	226	9
230	231	232	233	9
230	231	232	234	9
231	230	229	240	9
231	230	236	237	9
231	230	236	238	9
231	232	233	242	9
231	232	234	235	9
232	231	230	236	9
232	233	228	226	9
233	232	231	241	9
233	232	234	235	9
233	228	229	240	9
233	228	226	227	9
233	228	226	225	9
234	232	231	241	9
234	232	233	242	9
240	229	228	226	9
242	233	228	226	9
240	229	230	236	9
241	231	230	236	9
227	226	225	239	9
9749	9752	9753	9754	9
9749	9752	9753	9760	9
9749	9750	9751	9754	9
9749	9750	9751	9761	9
9751	9754	9753	9752	9
9752	9753	9754	9759	9
9752	9753	9760	9762	9
9751	9750	9749	9752	9
9752	9749	9750	9757	9
9752	9749	9755	9756	9
9750	9749	9752	9753	9
9753	9752	9749	9755	9
9750	9751	9754	9753	9
9753	9754	9751	9761	9
9754	9753	9752	9758	9
9754	9753	9760	9762	9
9754	9751	9750	9757	9
9754	9751	9761	9763	9
9751	9754	9753	9760	9
9751	9750	9749	9755	9
9750	9751	9754	9759	9
9750	9751	9761	9763	9
9750	9749	9752	9758	9
9750	9749	9755	9756	9
9759	9754	9751	9761	9
9757	9750	9751	9761	9
9755	9749	9752	9758	9
9755	9749	9750	9757	9
9758	9752	9753	9760	9
9759	9754	9753	9760	9
9778	9779	9780	9783	9
9778	9779	9780	9790	9
9778	9781	9782	9783	9
9778	9781	9782	9789	9
9779	9780	9783	9782	9
9779	9780	9783	9788	9
9779	9780	9790	9792	9
9779	9778	9781	9782	9
9779	9778	9781	9787	9
9779	9778	9784	9785	9
9780	9779	9778	9781	9
9780	9779	9778	9784	9
9780	9783	9782	9781	9
9780	9783	9782	9789	9
9783	9780	9779	9786	9
9783	9780	9790	9792	9
9783	9782	9781	9787	9
9783	9782	9789	9791	9
9782	9783	9780	9790	9
9782	9781	9778	9784	9
9781	9782	9783	9788	9
9781	9782	9789	9791	9
9781	9778	9779	9786	9
9781	9778	9784	9785	9
9788	9783	9782	9789	9
9787	9781	9782	9789	9
9784	9778	9779	9786	9
9784	9778	9781	9787	9
9786	9779	9780	9790	9
9788	9783	9780	9790	9
9807	9808	9809	9812	9
9807	9808	9809	9819	9
9807	9810	9811	9812	9
9807	9810	9811	9818	9
9808	9809	9812	9811	9
9808	9809	9812	9817	9
9808	9809	9819	9821	9
9808	9807	9810	9811	9
9808	9807	9810	9816	9
9808	9807	9813	9814	9
9809	9808	9807	9810	9
9809	9808	9807	9813	9
9809	9812	9811	9810	9
9809	9812	9811	9818	9
9812	9809	9808	9815	9
9812	9809	9819	9821	9
9812	9811	9810	9816	9
9812	9811	9818	9820	9
9811	9812	9809	9819	9
9811	9810	9807	9813	9
9810	9811	9812	9817	9
9810	9811	9818	9820	9
9810	9807	9808	9815	9
9810	9807	9813	9814	9
9817	9812	9811	9818	9
9816	9810	9811	9818	9
9813	9807	9808	9815	9
9813	9807	9810	9816	9
9815	9808	9809	9819	9
9817	9812	9809	9819	9
9836	9839	9840	9841	9
9836	9839	9840	9847	9
9836	9837	9838	9841	9
9836	9837	9838	9848	9
9839	9840	9841	9838	9
9839	9840	9841	9846	9
9839	9840	9847	9849	9
9839	9836	9837	9838	9
9839	9836	9837	9844	9
9839	9836	9842	9843	9
9840	9839	9836	9837	9
9840	9839	9836	9842	9
9840	9841	9838	9837	9
9840	9841	9838	9848	9
9841	9840	9839	9845	9
9841	9840	9847	9849	9
9841	9838	9837	9844	9
9841	9838	9848	9850	9
9838	9841	9840	9847	9
9838	9837	9836	9842	9
9837	9838	9841	9846	9
9837	9838	9848	9850	9
9837	9836	9839	9845	9
9837	9836	9842	9843	9
9846	9841	9838	9848	9
9844	9837	9838	9848	9
9842	9836	9839	9845	9
9842	9836	9837	9844	9
9845	9839	9840	9847	9
9846	9841	9840	9847	9
9851	9854	9855	9856	9
9851	9854	9855	9862	9
9851	9852	9853	9856	9
9851	9852	9853	9863	9
9854	9855	9856	9853	9
9854	9855	9856	9861	9
9854	9855	9862	9864	9
9854	9851	9852	9853	9
9854	9851	9852	9859	9
9854	9851	9857	9858	9
9855	9854	9851	9852	9
9855	9854	9851	9857	9
9855	9856	9853	9852	9
9855	9856	9853	9863	9
9856	9855	9854	9860	9
9856	9855	9862	9864	9
9856	9853	9852	9859	9
9856	9853	9863	9865	9
9853	9856	9855	9862	9
9853	9852	9851	9857	9
9852	9853	9856	9861	9
9852	9853	9863	9865	9
9852	9851	9854	9860	9
9852	9851	9857	9858	9
9861	9856	9853	9863	9
9859	9852	9853	9863	9
9857	9851	9854	9860	9
9857	9851	9852	9859	9
9860	9854	9855	9862	9
9861	9856	9855	9862	9
2329	2330	2331	2332	9
2329	2330	2331	2337	9
2329	2334	2333	2332	9
2329	2334	2333	2335	9
2330	2331	2332	2333	9
2330	2331	2332	2341	9
2330	2331	2337	2338	9
2330	2331	2337	2339	9
2330	2329	2334	2333	9
2330	2329	2334	2342	9
2330	2329	2327	2328	9
2331	2330	2329	2334	9
2331	2330	2329	2327	9
2331	2332	2333	2334	9
2331	2332	2333	2335	9
2332	2331	2330	2340	9
2332	2331	2337	2338	9
2332	2331	2337	2339	9
2332	2333	2334	2342	9
2332	2333	2335	2336	9
2333	2332	2331	2337	9
2333	2334	2329	2327	9
2334	2333	2332	2341	9
2334	2333	2335	2336	9
2334	2329	2330	2340	9
2334	2329	2327	2328	9
2341	2332	2333	2335	9
2342	2334	2333	2335	9
2327	2329	2330	2340	9
2327	2329	2334	2342	9
2340	2330	2331	2337	9
2341	2332	2331	2337	9
9880	9881	9882	9885	9
9880	9881	9882	9892	9
9880	9883	9884	9885	9
9880	9883	9884	9891	9
9881	9882	9885	9884	9
9881	9882	9885	9890	9
9881	9882	9892	9894	9
9881	9880	9883	9884	9
9881	9880	9883	9889	9
9881	9880	9886	9887	9
9882	9881	9880	9883	9
9882	9881	9880	9886	9
9882	9885	9884	9883	9
9882	9885	9884	9891	9
9885	9882	9881	9888	9
9885	9882	9892	9894	9
9885	9884	9883	9889	9
9885	9884	9891	9893	9
9884	9885	9882	9892	9
9884	9883	9880	9886	9
9883	9884	9885	9890	9
9883	9884	9891	9893	9
9883	9880	9881	9888	9
9883	9880	9886	9887	9
9890	9885	9884	9891	9
9889	9883	9884	9891	9
9886	9880	9881	9888	9
9886	9880	9883	9889	9
9888	9881	9882	9892	9
9890	9885	9882	9892	9
9895	9898	9899	9900	9
9895	9898	9899	9906	9
9895	9896	9897	9900	9
9895	9896	9897	9907	9
9897	9900	9899	9898	9
9898	9899	9900	9905	9
9898	9899	9906	9908	9
9897	9896	9895	9898	9
9898	9895	9896	9903	9
9898	9895	9901	9902	9
9896	9895	9898	9899	9
9899	9898	9895	9901	9
9896	9897	9900	9899	9
9899	9900	9897	9907	9
9900	9899	9898	9904	9
9900	9899	9906	9908	9
9900	9897	9896	9903	9
9900	9897	9907	9909	9
9897	9900	9899	9906	9
9897	9896	9895	9901	9
9896	9897	9900	9905	9
9896	9897	9907	9909	9
9896	9895	9898	9904	9
9896	9895	9901	9902	9
9905	9900	9897	9907	9
9903	9896	9897	9907	9
9901	9895	9898	9904	9
9901	9895	9896	9903	9
9904	9898	9899	9906	9
9905	9900	9899	9906	9
264	265	260	261	9
264	265	260	258	9
264	263	262	261	9
264	263	262	268	9
262	261	260	265	9
265	260	261	272	9
265	260	258	259	9
265	260	258	257	9
262	263	264	265	9
265	264	263	273	9
265	264	266	267	9
263	264	265	260	9
260	265	264	266	9
263	262	261	260	9
260	261	262	268	9
260	258	257	271	9
261	260	265	274	9
261	260	258	259	9
261	260	258	257	9
261	262	263	273	9
261	262	268	269	9
261	262	268	270	9
262	261	260	258	9
262	263	264	266	9
263	262	261	272	9
263	262	268	269	9
263	262	268	270	9
263	264	265	274	9
263	264	266	267	9
272	261	262	268	9
273	263	262	268	9
266	264	265	274	9
266	264	263	273	9
274	265	260	258	9
272	261	260	258	9
259	258	257	271	9
9924	9925	9926	9929	9
9924	9925	9926	9936	9
9924	9927	9928	9929	9
9924	9927	9928	9935	9
9925	9926	9929	9928	9
9925	9926	9929	9934	9
9925	9926	9936	9938	9
9925	9924	9927	9928	9
9925	9924	9927	9933	9
9925	9924	9930	9931	9
9926	9925	9924	9927	9
9926	9925	9924	9930	9
9926	9929	9928	9927	9
9926	9929	9928	9935	9
9929	9926	9925	9932	9
9929	9926	9936	9938	9
9929	9928	9927	9933	9
9929	9928	9935	9937	9
9928	9929	9926	9936	9
9928	9927	9924	9930	9
9927	9928	9929	9934	9
9927	9928	9935	9937	9
9927	9924	9925	9932	9
9927	9924	9930	9931	9
9934	9929	9928	9935	9
9933	9927	9928	9935	9
9930	9924	9925	9932	9
9930	9924	9927	9933	9
9932	9925	9926	9936	9
9934	9929	9926	9936	9
9953	9954	9955	9958	9
9953	9954	9955	9965	9
9953	9956	9957	9958	9
9953	9956	9957	9964	9
9954	9955	9958	9957	9
9954	9955	9958	9963	9
9954	9955	9965	9967	9
9954	9953	9956	9957	9
9954	9953	9956	9962	9
9954	9953	9959	9960	9
9955	9954	9953	9956	9
9955	9954	9953	9959	9
9955	9958	9957	9956	9
9955	9958	9957	9964	9
9958	9955	9954	9961	9
9958	9955	9965	9967	9
9958	9957	9956	9962	9
9958	9957	9964	9966	9
9957	9958	9955	9965	9
9957	9956	9953	9959	9
9956	9957	9958	9963	9
9956	9957	9964	9966	9
9956	9953	9954	9961	9
9956	9953	9959	9960	9
9963	9958	9957	9964	9
9962	9956	9957	9964	9
9959	9953	9954	9961	9
9959	9953	9956	9962	9
9961	9954	9955	9965	9
9963	9958	9955	9965	9
9982	9985	9986	9987	9
9982	9985	9986	9993	9
9982	9983	9984	9987	9
9982	9983	9984	9994	9
9984	9987	9986	9985	9
9985	9986	9987	9992	9
9985	9986	9993	9995	9
9984	9983	9982	9985	9
9985	9982	9983	9990	9
9985	9982	9988	9989	9
9983	9982	9985	9986	9
9986	9985	9982	9988	9
9983	9984	9987	9986	9
9986	9987	9984	9994	9
9987	9986	9985	9991	9
9987	9986	9993	9995	9
9987	9984	9983	9990	9
9987	9984	9994	9996	9
9984	9987	9986	9993	9
9984	9983	9982	9988	9
9983	9984	9987	9992	9
9983	9984	9994	9996	9
9983	9982	9985	9991	9
9983	9982	9988	9989	9
9992	9987	9984	9994	9
9990	9983	9984	9994	9
9988	9982	9985	9991	9
9988	9982	9983	9990	9
9991	9985	9986	9993	9
9992	9987	9986	9993	9
10011	10014	10015	10016	9
10011	10014	10015	10022	9
10011	10012	10013	10016	9
10011	10012	10013	10023	9
10013	10016	10015	10014	9
10014	10015	10016	10021	9
10014	10015	10022	10024	9
10013	10012	10011	10014	9
10014	10011	10012	10019	9
10014	10011	10017	10018	9
10012	10011	10014	10015	9
10015	10014	10011	10017	9
10012	10013	10016	10015	9
10015	10016	10013	10023	9
10016	10015	10014	10020	9
10016	10015	10022	10024	9
10016	10013	10012	10019	9
10016	10013	10023	10025	9
10013	10016	10015	10022	9
10013	10012	10011	10017	9
10012	10013	10016	10021	9
10012	10013	10023	10025	9
10012	10011	10014	10020	9
10012	10011	10017	10018	9
10021	10016	10013	10023	9
10019	10012	10013	10023	9
10017	10011	10014	10020	9
10017	10011	10012	10019	9
10020	10014	10015	10022	9
10021	10016	10015	10022	9
10042	10041	10040	10043	9
10042	10041	10040	10046	9
10042	10045	10044	10043	9
10042	10045	10044	10051	9
10044	10043	10040	10041	9
10041	10040	10043	10049	9
10041	10040	10046	10047	9
10044	10045	10042	10041	9
10041	10042	10045	10050	9
10041	10042	10052	10054	9
10045	10042	10041	10040	9
10040	10041	10042	10052	9
10045	10044	10043	10040	9
10040	10043	10044	10051	9
10043	10040	10041	10048	9
10043	10040	10046	10047	9
10043	10044	10045	10050	9
10043	10044	10051	10053	9
10044	10043	10040	10046	9
10044	10045	10042	10052	9
10045	10044	10043	10049	9
10045	10044	10051	10053	9
10045	10042	10041	10048	9
10045	10042	10052	10054	9
10049	10043	10044	10051	9
10050	10045	10044	10051	9
10052	10042	10041	10048	9
10052	10042	10045	10050	9
10048	10041	10040	10046	9
10049	10043	10040	10046	9
10069	10070	10071	10074	9
10069	10070	10071	10081	9
10069	10072	10073	10074	9
10069	10072	10073	10080	9
10073	10074	10071	10070	9
10070	10071	10074	10079	9
10070	10071	10081	10083	9
10073	10072	10069	10070	9
10070	10069	10072	10078	9
10070	10069	10075	10076	9
10072	10069	10070	10071	9
10071	10070	10069	10075	9
10072	10073	10074	10071	9
10071	10074	10073	10080	9
10074	10071	10070	10077	9
10074	10071	10081	10083	9
10074	10073	10072	10078	9
10074	10073	10080	10082	9
10073	10074	10071	10081	9
10073	10072	10069	10075	9
10072	10073	10074	10079	9
10072	10073	10080	10082	9
10072	10069	10070	10077	9
10072	10069	10075	10076	9
10079	10074	10073	10080	9
10078	10072	10073	10080	9
10075	10069	10070	10077	9
10075	10069	10072	10078	9
10077	10070	10071	10081	9
10079	10074	10071	10081	9
10102	10103	10100	10099	9
10102	10103	10100	10110	9
10102	10101	10098	10099	9
10102	10101	10098	10104	9
10103	10100	10099	10098	9
10103	10100	10099	10106	9
10103	10100	10110	10112	9
10103	10102	10101	10098	9
10103	10102	10101	10107	9
10103	10102	10109	10111	9
10100	10103	10102	10101	9
10100	10103	10102	10109	9
10100	10099	10098	10101	9
10100	10099	10098	10104	9
10099	10100	10103	10108	9
10099	10100	10110	10112	9
10099	10098	10101	10107	9
10099	10098	10104	10105	9
10098	10099	10100	10110	9
10098	10101	10102	10109	9
10101	10098	10099	10106	9
10101	10098	10104	10105	9
10101	10102	10103	10108	9
10101	10102	10109	10111	9
10106	10099	10098	10104	9
10107	10101	10098	10104	9
10109	10102	10103	10108	9
10109	10102	10101	10107	9
10108	10103	10100	10110	9
10106	10099	10100	10110	9
10127	10128	10129	10132	9
10127	10128	10129	10139	9
10127	10130	10131	10132	9
10127	10130	10131	10138	9
10128	10129	10132	10131	9
10128	10129	10132	10137	9
10128	10129	10139	10141	9
10128	10127	10130	10131	9
10128	10127	10130	10136	9
10128	10127	10133	10134	9
10129	10128	10127	10130	9
10129	10128	10127	10133	9
10129	10132	10131	10130	9
10129	10132	10131	10138	9
10132	10129	10128	10135	9
10132	10129	10139	10141	9
10132	10131	10130	10136	9
10132	10131	10138	10140	9
10131	10132	10129	10139	9
10131	10130	10127	10133	9
10130	10131	10132	10137	9
10130	10131	10138	10140	9
10130	10127	10128	10135	9
10130	10127	10133	10134	9
10137	10132	10131	10138	9
10136	10130	10131	10138	9
10133	10127	10128	10135	9
10133	10127	10130	10136	9
10135	10128	10129	10139	9
10137	10132	10129	10139	9
10156	10157	10158	10161	9
10156	10157	10158	10168	9
10156	10159	10160	10161	9
10156	10159	10160	10167	9
10157	10158	10161	10160	9
10157	10158	10161	10166	9
10157	10158	10168	10170	9
10157	10156	10159	10160	9
10157	10156	10159	10165	9
10157	10156	10162	10163	9
10158	10157	10156	10159	9
10158	10157	10156	10162	9
10158	10161	10160	10159	9
10158	10161	10160	10167	9
10161	10158	10157	10164	9
10161	10158	10168	10170	9
10161	10160	10159	10165	9
10161	10160	10167	10169	9
10160	10161	10158	10168	9
10160	10159	10156	10162	9
10159	10160	10161	10166	9
10159	10160	10167	10169	9
10159	10156	10157	10164	9
10159	10156	10162	10163	9
10166	10161	10160	10167	9
10165	10159	10160	10167	9
10162	10156	10157	10164	9
10162	10156	10159	10165	9
10164	10157	10158	10168	9
10166	10161	10158	10168	9
10185	10186	10187	10190	9
10185	10186	10187	10197	9
10185	10188	10189	10190	9
10185	10188	10189	10196	9
10186	10187	10190	10189	9
10186	10187	10190	10195	9
10186	10187	10197	10199	9
10186	10185	10188	10189	9
10186	10185	10188	10194	9
10186	10185	10191	10192	9
10187	10186	10185	10188	9
10187	10186	10185	10191	9
10187	10190	10189	10188	9
10187	10190	10189	10196	9
10190	10187	10186	10193	9
10190	10187	10197	10199	9
10190	10189	10188	10194	9
10190	10189	10196	10198	9
10189	10190	10187	10197	9
10189	10188	10185	10191	9
10188	10189	10190	10195	9
10188	10189	10196	10198	9
10188	10185	10186	10193	9
10188	10185	10191	10192	9
10195	10190	10189	10196	9
10194	10188	10189	10196	9
10191	10185	10186	10193	9
10191	10185	10188	10194	9
10193	10186	10187	10197	9
10195	10190	10187	10197	9
10214	10217	10218	10219	9
10214	10217	10218	10225	9
10214	10215	10216	10219	9
10214	10215	10216	10226	9
10216	10219	10218	10217	9
10217	10218	10219	10224	9
10217	10218	10225	10227	9
10216	10215	10214	10217	9
10217	10214	10215	10222	9
10217	10214	10220	10221	9
10215	10214	10217	10218	9
10218	10217	10214	10220	9
10215	10216	10219	10218	9
10218	10219	10216	10226	9
10219	10218	10217	10223	9
10219	10218	10225	10227	9
10219	10216	10215	10222	9
10219	10216	10226	10228	9
10216	10219	10218	10225	9
10216	10215	10214	10220	9
10215	10216	10219	10224	9
10215	10216	10226	10228	9
10215	10214	10217	10223	9
10215	10214	10220	10221	9
10224	10219	10216	10226	9
10222	10215	10216	10226	9
10220	10214	10217	10223	9
10220	10214	10215	10222	9
10223	10217	10218	10225	9
10224	10219	10218	10225	9
10229	10232	10233	10234	9
10229	10232	10233	10240	9
10229	10230	10231	10234	9
10229	10230	10231	10241	9
10231	10234	10233	10232	9
10232	10233	10234	10239	9
10232	10233	10240	10242	9
10231	10230	10229	10232	9
10232	10229	10230	10237	9
10232	10229	10235	10236	9
10230	10229	10232	10233	9
10233	10232	10229	10235	9
10230	10231	10234	10233	9
10233	10234	10231	10241	9
10234	10233	10232	10238	9
10234	10233	10240	10242	9
10234	10231	10230	10237	9
10234	10231	10241	10243	9
10231	10234	10233	10240	9
10231	10230	10229	10235	9
10230	10231	10234	10239	9
10230	10231	10241	10243	9
10230	10229	10232	10238	9
10230	10229	10235	10236	9
10239	10234	10231	10241	9
10237	10230	10231	10241	9
10235	10229	10232	10238	9
10235	10229	10230	10237	9
10238	10232	10233	10240	9
10239	10234	10233	10240	9
10258	10259	10260	10263	9
10258	10259	10260	10270	9
10258	10261	10262	10263	9
10258	10261	10262	10269	9
10262	10263	10260	10259	9
10259	10260	10263	10268	9
10259	10260	10270	10272	9
10262	10261	10258	10259	9
10259	10258	10261	10267	9
10259	10258	10264	10265	9
10261	10258	10259	10260	9
10260	10259	10258	10264	9
10261	10262	10263	10260	9
10260	10263	10262	10269	9
10263	10260	10259	10266	9
10263	10260	10270	10272	9
10263	10262	10261	10267	9
10263	10262	10269	10271	9
10262	10263	10260	10270	9
10262	10261	10258	10264	9
10261	10262	10263	10268	9
10261	10262	10269	10271	9
10261	10258	10259	10266	9
10261	10258	10264	10265	9
10268	10263	10262	10269	9
10267	10261	10262	10269	9
10264	10258	10259	10266	9
10264	10258	10261	10267	9
10266	10259	10260	10270	9
10268	10263	10260	10270	9
10287	10288	10289	10292	9
10287	10288	10289	10299	9
10287	10290	10291	10292	9
10287	10290	10291	10298	9
10291	10292	10289	10288	9
10288	10289	10292	10297	9
10288	10289	10299	10301	9
10291	10290	10287	10288	9
10288	10287	10290	10296	9
10288	10287	10293	10294	9
10290	10287	10288	10289	9
10289	10288	10287	10293	9
10290	10291	10292	10289	9
10289	10292	10291	10298	9
10292	10289	10288	10295	9
10292	10289	10299	10301	9
10292	10291	10290	10296	9
10292	10291	10298	10300	9
10291	10292	10289	10299	9
10291	10290	10287	10293	9
10290	10291	10292	10297	9
10290	10291	10298	10300	9
10290	10287	10288	10295	9
10290	10287	10293	10294	9
10297	10292	10291	10298	9
10296	10290	10291	10298	9
10293	10287	10288	10295	9
10293	10287	10290	10296	9
10295	10288	10289	10299	9
10297	10292	10289	10299	9
10316	10317	10318	10321	9
10316	10317	10318	10328	9
10316	10319	10320	10321	9
10316	10319	10320	10327	9
10317	10318	10321	10320	9
10317	10318	10321	10326	9
10317	10318	10328	10330	9
10317	10316	10319	10320	9
10317	10316	10319	10325	9
10317	10316	10322	10323	9
10318	10317	10316	10319	9
10318	10317	10316	10322	9
10318	10321	10320	10319	9
10318	10321	10320	10327	9
10321	10318	10317	10324	9
10321	10318	10328	10330	9
10321	10320	10319	10325	9
10321	10320	10327	10329	9
10320	10321	10318	10328	9
10320	10319	10316	10322	9
10319	10320	10321	10326	9
10319	10320	10327	10329	9
10319	10316	10317	10324	9
10319	10316	10322	10323	9
10326	10321	10320	10327	9
10325	10319	10320	10327	9
10322	10316	10317	10324	9
10322	10316	10319	10325	9
10324	10317	10318	10328	9
10326	10321	10318	10328	9
2359	2360	2361	2362	9
2359	2360	2361	2367	9
2359	2364	2363	2362	9
2359	2364	2363	2365	9
2360	2361	2362	2363	9
2360	2361	2362	2371	9
2360	2361	2367	2368	9
2360	2361	2367	2369	9
2360	2359	2364	2363	9
2360	2359	2364	2372	9
2360	2359	2357	2358	9
2361	2360	2359	2364	9
2361	2360	2359	2357	9
2361	2362	2363	2364	9
2361	2362	2363	2365	9
2362	2361	2360	2370	9
2362	2361	2367	2368	9
2362	2361	2367	2369	9
2362	2363	2364	2372	9
2362	2363	2365	2366	9
2363	2362	2361	2367	9
2363	2364	2359	2357	9
2364	2363	2362	2371	9
2364	2363	2365	2366	9
2364	2359	2360	2370	9
2364	2359	2357	2358	9
2371	2362	2363	2365	9
2372	2364	2363	2365	9
2357	2359	2360	2370	9
2357	2359	2364	2372	9
2370	2360	2361	2367	9
2371	2362	2361	2367	9
10331	10332	10333	10336	9
10331	10332	10333	10343	9
10331	10334	10335	10336	9
10331	10334	10335	10342	9
10332	10333	10336	10335	9
10332	10333	10336	10341	9
10332	10333	10343	10345	9
10332	10331	10334	10335	9
10332	10331	10334	10340	9
10332	10331	10337	10338	9
10333	10332	10331	10334	9
10333	10332	10331	10337	9
10333	10336	10335	10334	9
10333	10336	10335	10342	9
10336	10333	10332	10339	9
10336	10333	10343	10345	9
10336	10335	10334	10340	9
10336	10335	10342	10344	9
10335	10336	10333	10343	9
10335	10334	10331	10337	9
10334	10335	10336	10341	9
10334	10335	10342	10344	9
10334	10331	10332	10339	9
10334	10331	10337	10338	9
10341	10336	10335	10342	9
10340	10334	10335	10342	9
10337	10331	10332	10339	9
10337	10331	10334	10340	9
10339	10332	10333	10343	9
10341	10336	10333	10343	9
10346	10347	10348	10351	9
10346	10347	10348	10358	9
10346	10349	10350	10351	9
10346	10349	10350	10357	9
10347	10348	10351	10350	9
10347	10348	10351	10356	9
10347	10348	10358	10360	9
10347	10346	10349	10350	9
10347	10346	10349	10355	9
10347	10346	10352	10353	9
10348	10347	10346	10349	9
10348	10347	10346	10352	9
10348	10351	10350	10349	9
10348	10351	10350	10357	9
10351	10348	10347	10354	9
10351	10348	10358	10360	9
10351	10350	10349	10355	9
10351	10350	10357	10359	9
10350	10351	10348	10358	9
10350	10349	10346	10352	9
10349	10350	10351	10356	9
10349	10350	10357	10359	9
10349	10346	10347	10354	9
10349	10346	10352	10353	9
10356	10351	10350	10357	9
10355	10349	10350	10357	9
10352	10346	10347	10354	9
10352	10346	10349	10355	9
10354	10347	10348	10358	9
10356	10351	10348	10358	9
10361	10364	10365	10366	9
10361	10364	10365	10372	9
10361	10362	10363	10366	9
10361	10362	10363	10373	9
10363	10366	10365	10364	9
10364	10365	10366	10371	9
10364	10365	10372	10374	9
10363	10362	10361	10364	9
10364	10361	10362	10369	9
10364	10361	10367	10368	9
10362	10361	10364	10365	9
10365	10364	10361	10367	9
10362	10363	10366	10365	9
10365	10366	10363	10373	9
10366	10365	10364	10370	9
10366	10365	10372	10374	9
10366	10363	10362	10369	9
10366	10363	10373	10375	9
10363	10366	10365	10372	9
10363	10362	10361	10367	9
10362	10363	10366	10371	9
10362	10363	10373	10375	9
10362	10361	10364	10370	9
10362	10361	10367	10368	9
10371	10366	10363	10373	9
10369	10362	10363	10373	9
10367	10361	10364	10370	9
10367	10361	10362	10369	9
10370	10364	10365	10372	9
10371	10366	10365	10372	9
10390	10393	10394	10395	9
10390	10393	10394	10401	9
10390	10391	10392	10395	9
10390	10391	10392	10402	9
10392	10395	10394	10393	9
10393	10394	10395	10400	9
10393	10394	10401	10403	9
10392	10391	10390	10393	9
10393	10390	10391	10398	9
10393	10390	10396	10397	9
10391	10390	10393	10394	9
10394	10393	10390	10396	9
10391	10392	10395	10394	9
10394	10395	10392	10402	9
10395	10394	10393	10399	9
10395	10394	10401	10403	9
10395	10392	10391	10398	9
10395	10392	10402	10404	9
10392	10395	10394	10401	9
10392	10391	10390	10396	9
10391	10392	10395	10400	9
10391	10392	10402	10404	9
10391	10390	10393	10399	9
10391	10390	10396	10397	9
10400	10395	10392	10402	9
10398	10391	10392	10402	9
10396	10390	10393	10399	9
10396	10390	10391	10398	9
10399	10393	10394	10401	9
10400	10395	10394	10401	9
10405	10408	10409	10410	9
10405	10408	10409	10416	9
10405	10406	10407	10410	9
10405	10406	10407	10417	9
10407	10410	10409	10408	9
10408	10409	10410	10415	9
10408	10409	10416	10418	9
10407	10406	10405	10408	9
10408	10405	10406	10413	9
10408	10405	10411	10412	9
10406	10405	10408	10409	9
10409	10408	10405	10411	9
10406	10407	10410	10409	9
10409	10410	10407	10417	9
10410	10409	10408	10414	9
10410	10409	10416	10418	9
10410	10407	10406	10413	9
10410	10407	10417	10419	9
10407	10410	10409	10416	9
10407	10406	10405	10411	9
10406	10407	10410	10415	9
10406	10407	10417	10419	9
10406	10405	10408	10414	9
10406	10405	10411	10412	9
10415	10410	10407	10417	9
10413	10406	10407	10417	9
10411	10405	10408	10414	9
10411	10405	10406	10413	9
10414	10408	10409	10416	9
10415	10410	10409	10416	9
10438	10439	10436	10435	9
10438	10439	10436	10446	9
10438	10437	10434	10435	9
10438	10437	10434	10440	9
10434	10435	10436	10439	9
10439	10436	10435	10442	9
10439	10436	10446	10448	9
10434	10437	10438	10439	9
10439	10438	10437	10443	9
10439	10438	10445	10447	9
10437	10438	10439	10436	9
10436	10439	10438	10445	9
10437	10434	10435	10436	9
10436	10435	10434	10440	9
10435	10436	10439	10444	9
10435	10436	10446	10448	9
10435	10434	10437	10443	9
10435	10434	10440	10441	9
10434	10435	10436	10446	9
10434	10437	10438	10445	9
10437	10434	10435	10442	9
10437	10434	10440	10441	9
10437	10438	10439	10444	9
10437	10438	10445	10447	9
10442	10435	10434	10440	9
10443	10437	10434	10440	9
10445	10438	10439	10444	9
10445	10438	10437	10443	9
10444	10439	10436	10446	9
10442	10435	10436	10446	9
10449	10452	10453	10454	9
10449	10452	10453	10460	9
10449	10450	10451	10454	9
10449	10450	10451	10461	9
10452	10453	10454	10451	9
10452	10453	10454	10459	9
10452	10453	10460	10462	9
10452	10449	10450	10451	9
10452	10449	10450	10457	9
10452	10449	10455	10456	9
10453	10452	10449	10450	9
10453	10452	10449	10455	9
10453	10454	10451	10450	9
10453	10454	10451	10461	9
10454	10453	10452	10458	9
10454	10453	10460	10462	9
10454	10451	10450	10457	9
10454	10451	10461	10463	9
10451	10454	10453	10460	9
10451	10450	10449	10455	9
10450	10451	10454	10459	9
10450	10451	10461	10463	9
10450	10449	10452	10458	9
10450	10449	10455	10456	9
10459	10454	10451	10461	9
10457	10450	10451	10461	9
10455	10449	10452	10458	9
10455	10449	10450	10457	9
10458	10452	10453	10460	9
10459	10454	10453	10460	9
10478	10479	10480	10483	9
10478	10479	10480	10490	9
10478	10481	10482	10483	9
10478	10481	10482	10489	9
10479	10480	10483	10482	9
10479	10480	10483	10488	9
10479	10480	10490	10492	9
10479	10478	10481	10482	9
10479	10478	10481	10487	9
10479	10478	10484	10485	9
10480	10479	10478	10481	9
10480	10479	10478	10484	9
10480	10483	10482	10481	9
10480	10483	10482	10489	9
10483	10480	10479	10486	9
10483	10480	10490	10492	9
10483	10482	10481	10487	9
10483	10482	10489	10491	9
10482	10483	10480	10490	9
10482	10481	10478	10484	9
10481	10482	10483	10488	9
10481	10482	10489	10491	9
10481	10478	10479	10486	9
10481	10478	10484	10485	9
10488	10483	10482	10489	9
10487	10481	10482	10489	9
10484	10478	10479	10486	9
10484	10478	10481	10487	9
10486	10479	10480	10490	9
10488	10483	10480	10490	9
10493	10494	10495	10498	9
10493	10494	10495	10505	9
10493	10496	10497	10498	9
10493	10496	10497	10504	9
10494	10495	10498	10497	9
10494	10495	10498	10503	9
10494	10495	10505	10507	9
10494	10493	10496	10497	9
10494	10493	10496	10502	9
10494	10493	10499	10500	9
10495	10494	10493	10496	9
10495	10494	10493	10499	9
10495	10498	10497	10496	9
10495	10498	10497	10504	9
10498	10495	10494	10501	9
10498	10495	10505	10507	9
10498	10497	10496	10502	9
10498	10497	10504	10506	9
10497	10498	10495	10505	9
10497	10496	10493	10499	9
10496	10497	10498	10503	9
10496	10497	10504	10506	9
10496	10493	10494	10501	9
10496	10493	10499	10500	9
10503	10498	10497	10504	9
10502	10496	10497	10504	9
10499	10493	10494	10501	9
10499	10493	10496	10502	9
10501	10494	10495	10505	9
10503	10498	10495	10505	9
2389	2390	2391	2392	9
2389	2390	2391	2397	9
2389	2394	2393	2392	9
2389	2394	2393	2395	9
2390	2391	2392	2393	9
2390	2391	2392	2401	9
2390	2391	2397	2398	9
2390	2391	2397	2399	9
2390	2389	2394	2393	9
2390	2389	2394	2402	9
2390	2389	2387	2388	9
2391	2390	2389	2394	9
2391	2390	2389	2387	9
2391	2392	2393	2394	9
2391	2392	2393	2395	9
2392	2391	2390	2400	9
2392	2391	2397	2398	9
2392	2391	2397	2399	9
2392	2393	2394	2402	9
2392	2393	2395	2396	9
2393	2392	2391	2397	9
2393	2394	2389	2387	9
2394	2393	2392	2401	9
2394	2393	2395	2396	9
2394	2389	2390	2400	9
2394	2389	2387	2388	9
2401	2392	2393	2395	9
2402	2394	2393	2395	9
2387	2389	2390	2400	9
2387	2389	2394	2402	9
2400	2390	2391	2397	9
2401	2392	2391	2397	9
10508	10509	10510	10513	9
10508	10509	10510	10520	9
10508	10511	10512	10513	9
10508	10511	10512	10519	9
10509	10510	10513	10512	9
10509	10510	10513	10518	9
10509	10510	10520	10522	9
10509	10508	10511	10512	9
10509	10508	10511	10517	9
10509	10508	10514	10515	9
10510	10509	10508	10511	9
10510	10509	10508	10514	9
10510	10513	10512	10511	9
10510	10513	10512	10519	9
10513	10510	10509	10516	9
10513	10510	10520	10522	9
10513	10512	10511	10517	9
10513	10512	10519	10521	9
10512	10513	10510	10520	9
10512	10511	10508	10514	9
10511	10512	10513	10518	9
10511	10512	10519	10521	9
10511	10508	10509	10516	9
10511	10508	10514	10515	9
10518	10513	10512	10519	9
10517	10511	10512	10519	9
10514	10508	10509	10516	9
10514	10508	10511	10517	9
10516	10509	10510	10520	9
10518	10513	10510	10520	9
2403	2404	2405	2408	9
2403	2404	2405	2415	9
2403	2406	2407	2408	9
2403	2406	2407	2414	9
2404	2405	2408	2407	9
2404	2405	2408	2413	9
2404	2405	2415	2417	9
2404	2405	2415	2418	9
2404	2403	2406	2407	9
2404	2403	2406	2412	9
2404	2403	2409	2410	9
2405	2404	2403	2406	9
2405	2404	2403	2409	9
2405	2408	2407	2406	9
2405	2408	2407	2414	9
2405	2415	2418	2419	9
2408	2405	2404	2411	9
2408	2405	2415	2417	9
2408	2405	2415	2418	9
2408	2407	2406	2412	9
2408	2407	2414	2416	9
2407	2408	2405	2415	9
2407	2406	2403	2409	9
2406	2407	2408	2413	9
2406	2407	2414	2416	9
2406	2403	2404	2411	9
2406	2403	2409	2410	9
2413	2408	2407	2414	9
2412	2406	2407	2414	9
2409	2403	2404	2411	9
2409	2403	2406	2412	9
2411	2404	2405	2415	9
2413	2408	2405	2415	9
2417	2415	2418	2419	9
10537	10538	10539	10542	9
10537	10538	10539	10549	9
10537	10540	10541	10542	9
10537	10540	10541	10548	9
10538	10539	10542	10541	9
10538	10539	10542	10547	9
10538	10539	10549	10551	9
10538	10537	10540	10541	9
10538	10537	10540	10546	9
10538	10537	10543	10544	9
10539	10538	10537	10540	9
10539	10538	10537	10543	9
10539	10542	10541	10540	9
10539	10542	10541	10548	9
10542	10539	10538	10545	9
10542	10539	10549	10551	9
10542	10541	10540	10546	9
10542	10541	10548	10550	9
10541	10542	10539	10549	9
10541	10540	10537	10543	9
10540	10541	10542	10547	9
10540	10541	10548	10550	9
10540	10537	10538	10545	9
10540	10537	10543	10544	9
10547	10542	10541	10548	9
10546	10540	10541	10548	9
10543	10537	10538	10545	9
10543	10537	10540	10546	9
10545	10538	10539	10549	9
10547	10542	10539	10549	9
2434	2435	2436	2439	9
2434	2435	2436	2446	9
2434	2437	2438	2439	9
2434	2437	2438	2445	9
2435	2436	2439	2438	9
2435	2436	2439	2444	9
2435	2436	2446	2448	9
2435	2436	2446	2449	9
2435	2434	2437	2438	9
2435	2434	2437	2443	9
2435	2434	2440	2441	9
2436	2435	2434	2437	9
2436	2435	2434	2440	9
2436	2439	2438	2437	9
2436	2439	2438	2445	9
2436	2446	2449	2450	9
2439	2436	2435	2442	9
2439	2436	2446	2448	9
2439	2436	2446	2449	9
2439	2438	2437	2443	9
2439	2438	2445	2447	9
2438	2439	2436	2446	9
2438	2437	2434	2440	9
2437	2438	2439	2444	9
2437	2438	2445	2447	9
2437	2434	2435	2442	9
2437	2434	2440	2441	9
2444	2439	2438	2445	9
2443	2437	2438	2445	9
2440	2434	2435	2442	9
2440	2434	2437	2443	9
2442	2435	2436	2446	9
2444	2439	2436	2446	9
2448	2446	2449	2450	9
10568	10567	10566	10569	9
10568	10567	10566	10572	9
10568	10571	10570	10569	9
10568	10571	10570	10577	9
10567	10566	10569	10570	9
10567	10566	10569	10575	9
10567	10566	10572	10573	9
10567	10568	10571	10570	9
10567	10568	10571	10576	9
10567	10568	10578	10580	9
10566	10567	10568	10571	9
10566	10567	10568	10578	9
10566	10569	10570	10571	9
10566	10569	10570	10577	9
10569	10566	10567	10574	9
10569	10566	10572	10573	9
10569	10570	10571	10576	9
10569	10570	10577	10579	9
10570	10569	10566	10572	9
10570	10571	10568	10578	9
10571	10570	10569	10575	9
10571	10570	10577	10579	9
10571	10568	10567	10574	9
10571	10568	10578	10580	9
10575	10569	10570	10577	9
10576	10571	10570	10577	9
10574	10567	10568	10578	9
10576	10571	10568	10578	9
10572	10566	10567	10574	9
10572	10566	10569	10575	9
10595	10598	10599	10600	9
10595	10598	10599	10606	9
10595	10596	10597	10600	9
10595	10596	10597	10607	9
10597	10600	10599	10598	9
10598	10599	10600	10605	9
10598	10599	10606	10608	9
10597	10596	10595	10598	9
10598	10595	10596	10603	9
10598	10595	10601	10602	9
10596	10595	10598	10599	9
10599	10598	10595	10601	9
10596	10597	10600	10599	9
10599	10600	10597	10607	9
10600	10599	10598	10604	9
10600	10599	10606	10608	9
10600	10597	10596	10603	9
10600	10597	10607	10609	9
10597	10600	10599	10606	9
10597	10596	10595	10601	9
10596	10597	10600	10605	9
10596	10597	10607	10609	9
10596	10595	10598	10604	9
10596	10595	10601	10602	9
10605	10600	10597	10607	9
10603	10596	10597	10607	9
10601	10595	10598	10604	9
10601	10595	10596	10603	9
10604	10598	10599	10606	9
10605	10600	10599	10606	9
10624	10625	10626	10629	9
10624	10625	10626	10636	9
10624	10627	10628	10629	9
10624	10627	10628	10635	9
10628	10629	10626	10625	9
10625	10626	10629	10634	9
10625	10626	10636	10638	9
10628	10627	10624	10625	9
10625	10624	10627	10633	9
10625	10624	10630	10631	9
10627	10624	10625	10626	9
10626	10625	10624	10630	9
10627	10628	10629	10626	9
10626	10629	10628	10635	9
10629	10626	10625	10632	9
10629	10626	10636	10638	9
10629	10628	10627	10633	9
10629	10628	10635	10637	9
10628	10629	10626	10636	9
10628	10627	10624	10630	9
10627	10628	10629	10634	9
10627	10628	10635	10637	9
10627	10624	10625	10632	9
10627	10624	10630	10631	9
10634	10629	10628	10635	9
10633	10627	10628	10635	9
10630	10624	10625	10632	9
10630	10624	10627	10633	9
10632	10625	10626	10636	9
10634	10629	10626	10636	9
2467	2466	2465	2468	9
2467	2466	2465	2471	9
2467	2470	2469	2468	9
2467	2470	2469	2476	9
2467	2477	2480	2481	9
2466	2465	2468	2469	9
2466	2465	2468	2474	9
2466	2465	2471	2472	9
2466	2467	2470	2469	9
2466	2467	2470	2475	9
2466	2467	2477	2479	9
2466	2467	2477	2480	9
2465	2466	2467	2470	9
2465	2466	2467	2477	9
2465	2468	2469	2470	9
2465	2468	2469	2476	9
2468	2465	2466	2473	9
2468	2465	2471	2472	9
2468	2469	2470	2475	9
2468	2469	2476	2478	9
2469	2468	2465	2471	9
2469	2470	2467	2477	9
2470	2469	2468	2474	9
2470	2469	2476	2478	9
2470	2467	2466	2473	9
2470	2467	2477	2479	9
2470	2467	2477	2480	9
2474	2468	2469	2476	9
2475	2470	2469	2476	9
2473	2466	2467	2477	9
2475	2470	2467	2477	9
2471	2465	2466	2473	9
2471	2465	2468	2474	9
2479	2477	2480	2481	9
2498	2499	2500	2501	9
2498	2499	2500	2506	9
2498	2503	2502	2501	9
2498	2503	2502	2504	9
2499	2500	2501	2502	9
2499	2500	2501	2510	9
2499	2500	2506	2507	9
2499	2500	2506	2508	9
2499	2498	2503	2502	9
2499	2498	2503	2511	9
2499	2498	2496	2497	9
2500	2499	2498	2503	9
2500	2499	2498	2496	9
2500	2501	2502	2503	9
2500	2501	2502	2504	9
2501	2500	2499	2509	9
2501	2500	2506	2507	9
2501	2500	2506	2508	9
2501	2502	2503	2511	9
2501	2502	2504	2505	9
2502	2501	2500	2506	9
2502	2503	2498	2496	9
2503	2502	2501	2510	9
2503	2502	2504	2505	9
2503	2498	2499	2509	9
2503	2498	2496	2497	9
2510	2501	2502	2504	9
2511	2503	2502	2504	9
2496	2498	2499	2509	9
2496	2498	2503	2511	9
2509	2499	2500	2506	9
2510	2501	2500	2506	9
10653	10654	10655	10658	9
10653	10654	10655	10665	9
10653	10656	10657	10658	9
10653	10656	10657	10664	9
10657	10658	10655	10654	9
10654	10655	10658	10663	9
10654	10655	10665	10667	9
10657	10656	10653	10654	9
10654	10653	10656	10662	9
10654	10653	10659	10660	9
10656	10653	10654	10655	9
10655	10654	10653	10659	9
10656	10657	10658	10655	9
10655	10658	10657	10664	9
10658	10655	10654	10661	9
10658	10655	10665	10667	9
10658	10657	10656	10662	9
10658	10657	10664	10666	9
10657	10658	10655	10665	9
10657	10656	10653	10659	9
10656	10657	10658	10663	9
10656	10657	10664	10666	9
10656	10653	10654	10661	9
10656	10653	10659	10660	9
10663	10658	10657	10664	9
10662	10656	10657	10664	9
10659	10653	10654	10661	9
10659	10653	10656	10662	9
10661	10654	10655	10665	9
10663	10658	10655	10665	9
10682	10685	10686	10687	9
10682	10685	10686	10693	9
10682	10683	10684	10687	9
10682	10683	10684	10694	9
10684	10687	10686	10685	9
10685	10686	10687	10692	9
10685	10686	10693	10695	9
10684	10683	10682	10685	9
10685	10682	10683	10690	9
10685	10682	10688	10689	9
10683	10682	10685	10686	9
10686	10685	10682	10688	9
10683	10684	10687	10686	9
10686	10687	10684	10694	9
10687	10686	10685	10691	9
10687	10686	10693	10695	9
10687	10684	10683	10690	9
10687	10684	10694	10696	9
10684	10687	10686	10693	9
10684	10683	10682	10688	9
10683	10684	10687	10692	9
10683	10684	10694	10696	9
10683	10682	10685	10691	9
10683	10682	10688	10689	9
10692	10687	10684	10694	9
10690	10683	10684	10694	9
10688	10682	10685	10691	9
10688	10682	10683	10690	9
10691	10685	10686	10693	9
10692	10687	10686	10693	9
10698	10699	10702	10701	9
10701	10702	10699	10709	9
10698	10697	10700	10701	9
10701	10700	10697	10703	9
10697	10698	10699	10702	9
10702	10699	10698	10705	9
10702	10699	10709	10711	9
10697	10700	10701	10702	9
10702	10701	10700	10706	9
10702	10701	10708	10710	9
10699	10702	10701	10700	9
10699	10702	10701	10708	9
10699	10698	10697	10700	9
10699	10698	10697	10703	9
10698	10699	10702	10707	9
10698	10699	10709	10711	9
10698	10697	10700	10706	9
10698	10697	10703	10704	9
10697	10698	10699	10709	9
10697	10700	10701	10708	9
10700	10697	10698	10705	9
10700	10697	10703	10704	9
10700	10701	10702	10707	9
10700	10701	10708	10710	9
10703	10697	10698	10705	9
10703	10697	10700	10706	9
10707	10702	10701	10708	9
10706	10700	10701	10708	9
10707	10702	10699	10709	9
10705	10698	10699	10709	9
10712	10715	10716	10717	9
10712	10715	10716	10723	9
10712	10713	10714	10717	9
10712	10713	10714	10724	9
10714	10717	10716	10715	9
10715	10716	10717	10722	9
10715	10716	10723	10725	9
10714	10713	10712	10715	9
10715	10712	10713	10720	9
10715	10712	10718	10719	9
10713	10712	10715	10716	9
10716	10715	10712	10718	9
10713	10714	10717	10716	9
10716	10717	10714	10724	9
10717	10716	10715	10721	9
10717	10716	10723	10725	9
10717	10714	10713	10720	9
10717	10714	10724	10726	9
10714	10717	10716	10723	9
10714	10713	10712	10718	9
10713	10714	10717	10722	9
10713	10714	10724	10726	9
10713	10712	10715	10721	9
10713	10712	10718	10719	9
10722	10717	10714	10724	9
10720	10713	10714	10724	9
10718	10712	10715	10721	9
10718	10712	10713	10720	9
10721	10715	10716	10723	9
10722	10717	10716	10723	9
10741	10744	10745	10746	9
10741	10744	10745	10752	9
10741	10742	10743	10746	9
10741	10742	10743	10753	9
10743	10746	10745	10744	9
10744	10745	10746	10751	9
10744	10745	10752	10754	9
10743	10742	10741	10744	9
10744	10741	10742	10749	9
10744	10741	10747	10748	9
10742	10741	10744	10745	9
10745	10744	10741	10747	9
10742	10743	10746	10745	9
10745	10746	10743	10753	9
10746	10745	10744	10750	9
10746	10745	10752	10754	9
10746	10743	10742	10749	9
10746	10743	10753	10755	9
10743	10746	10745	10752	9
10743	10742	10741	10747	9
10742	10743	10746	10751	9
10742	10743	10753	10755	9
10742	10741	10744	10750	9
10742	10741	10747	10748	9
10751	10746	10743	10753	9
10749	10742	10743	10753	9
10747	10741	10744	10750	9
10747	10741	10742	10749	9
10750	10744	10745	10752	9
10751	10746	10745	10752	9
10756	10757	10758	10761	9
10756	10757	10758	10768	9
10756	10759	10760	10761	9
10756	10759	10760	10767	9
10757	10758	10761	10760	9
10757	10758	10761	10766	9
10757	10758	10768	10770	9
10757	10756	10759	10760	9
10757	10756	10759	10765	9
10757	10756	10762	10763	9
10758	10757	10756	10759	9
10758	10757	10756	10762	9
10758	10761	10760	10759	9
10758	10761	10760	10767	9
10761	10758	10757	10764	9
10761	10758	10768	10770	9
10761	10760	10759	10765	9
10761	10760	10767	10769	9
10760	10761	10758	10768	9
10760	10759	10756	10762	9
10759	10760	10761	10766	9
10759	10760	10767	10769	9
10759	10756	10757	10764	9
10759	10756	10762	10763	9
10766	10761	10760	10767	9
10765	10759	10760	10767	9
10762	10756	10757	10764	9
10762	10756	10759	10765	9
10764	10757	10758	10768	9
10766	10761	10758	10768	9
10785	10786	10787	10790	9
10785	10786	10787	10797	9
10785	10788	10789	10790	9
10785	10788	10789	10796	9
10786	10787	10790	10789	9
10786	10787	10790	10795	9
10786	10787	10797	10799	9
10786	10785	10788	10789	9
10786	10785	10788	10794	9
10786	10785	10791	10792	9
10787	10786	10785	10788	9
10787	10786	10785	10791	9
10787	10790	10789	10788	9
10787	10790	10789	10796	9
10790	10787	10786	10793	9
10790	10787	10797	10799	9
10790	10789	10788	10794	9
10790	10789	10796	10798	9
10789	10790	10787	10797	9
10789	10788	10785	10791	9
10788	10789	10790	10795	9
10788	10789	10796	10798	9
10788	10785	10786	10793	9
10788	10785	10791	10792	9
10795	10790	10789	10796	9
10794	10788	10789	10796	9
10791	10785	10786	10793	9
10791	10785	10788	10794	9
10793	10786	10787	10797	9
10795	10790	10787	10797	9
10814	10817	10818	10819	9
10814	10817	10818	10825	9
10814	10815	10816	10819	9
10814	10815	10816	10826	9
10817	10818	10819	10816	9
10817	10818	10819	10824	9
10817	10818	10825	10827	9
10817	10814	10815	10816	9
10817	10814	10815	10822	9
10817	10814	10820	10821	9
10818	10817	10814	10815	9
10818	10817	10814	10820	9
10818	10819	10816	10815	9
10818	10819	10816	10826	9
10819	10818	10817	10823	9
10819	10818	10825	10827	9
10819	10816	10815	10822	9
10819	10816	10826	10828	9
10816	10819	10818	10825	9
10816	10815	10814	10820	9
10815	10816	10819	10824	9
10815	10816	10826	10828	9
10815	10814	10817	10823	9
10815	10814	10820	10821	9
10824	10819	10816	10826	9
10822	10815	10816	10826	9
10820	10814	10817	10823	9
10820	10814	10815	10822	9
10823	10817	10818	10825	9
10824	10819	10818	10825	9
10829	10832	10833	10834	9
10829	10832	10833	10840	9
10829	10830	10831	10834	9
10829	10830	10831	10841	9
10832	10833	10834	10831	9
10832	10833	10834	10839	9
10832	10833	10840	10842	9
10832	10829	10830	10831	9
10832	10829	10830	10837	9
10832	10829	10835	10836	9
10833	10832	10829	10830	9
10833	10832	10829	10835	9
10833	10834	10831	10830	9
10833	10834	10831	10841	9
10834	10833	10832	10838	9
10834	10833	10840	10842	9
10834	10831	10830	10837	9
10834	10831	10841	10843	9
10831	10834	10833	10840	9
10831	10830	10829	10835	9
10830	10831	10834	10839	9
10830	10831	10841	10843	9
10830	10829	10832	10838	9
10830	10829	10835	10836	9
10839	10834	10831	10841	9
10837	10830	10831	10841	9
10835	10829	10832	10838	9
10835	10829	10830	10837	9
10838	10832	10833	10840	9
10839	10834	10833	10840	9
10858	10859	10860	10863	9
10858	10859	10860	10870	9
10858	10861	10862	10863	9
10858	10861	10862	10869	9
10859	10860	10863	10862	9
10859	10860	10863	10868	9
10859	10860	10870	10872	9
10859	10858	10861	10862	9
10859	10858	10861	10867	9
10859	10858	10864	10865	9
10860	10859	10858	10861	9
10860	10859	10858	10864	9
10860	10863	10862	10861	9
10860	10863	10862	10869	9
10863	10860	10859	10866	9
10863	10860	10870	10872	9
10863	10862	10861	10867	9
10863	10862	10869	10871	9
10862	10863	10860	10870	9
10862	10861	10858	10864	9
10861	10862	10863	10868	9
10861	10862	10869	10871	9
10861	10858	10859	10866	9
10861	10858	10864	10865	9
10868	10863	10862	10869	9
10867	10861	10862	10869	9
10864	10858	10859	10866	9
10864	10858	10861	10867	9
10866	10859	10860	10870	9
10868	10863	10860	10870	9
10887	10888	10889	10892	9
10887	10888	10889	10899	9
10887	10890	10891	10892	9
10887	10890	10891	10898	9
10888	10889	10892	10891	9
10888	10889	10892	10897	9
10888	10889	10899	10901	9
10888	10887	10890	10891	9
10888	10887	10890	10896	9
10888	10887	10893	10894	9
10889	10888	10887	10890	9
10889	10888	10887	10893	9
10889	10892	10891	10890	9
10889	10892	10891	10898	9
10892	10889	10888	10895	9
10892	10889	10899	10901	9
10892	10891	10890	10896	9
10892	10891	10898	10900	9
10891	10892	10889	10899	9
10891	10890	10887	10893	9
10890	10891	10892	10897	9
10890	10891	10898	10900	9
10890	10887	10888	10895	9
10890	10887	10893	10894	9
10897	10892	10891	10898	9
10896	10890	10891	10898	9
10893	10887	10888	10895	9
10893	10887	10890	10896	9
10895	10888	10889	10899	9
10897	10892	10889	10899	9
10916	10917	10918	10921	9
10916	10917	10918	10928	9
10916	10919	10920	10921	9
10916	10919	10920	10927	9
10917	10918	10921	10920	9
10917	10918	10921	10926	9
10917	10918	10928	10930	9
10917	10916	10919	10920	9
10917	10916	10919	10925	9
10917	10916	10922	10923	9
10918	10917	10916	10919	9
10918	10917	10916	10922	9
10918	10921	10920	10919	9
10918	10921	10920	10927	9
10921	10918	10917	10924	9
10921	10918	10928	10930	9
10921	10920	10919	10925	9
10921	10920	10927	10929	9
10920	10921	10918	10928	9
10920	10919	10916	10922	9
10919	10920	10921	10926	9
10919	10920	10927	10929	9
10919	10916	10917	10924	9
10919	10916	10922	10923	9
10926	10921	10920	10927	9
10925	10919	10920	10927	9
10922	10916	10917	10924	9
10922	10916	10919	10925	9
10924	10917	10918	10928	9
10926	10921	10918	10928	9
10931	10934	10935	10936	9
10931	10934	10935	10942	9
10931	10932	10933	10936	9
10931	10932	10933	10943	9
10933	10936	10935	10934	9
10934	10935	10936	10941	9
10934	10935	10942	10944	9
10933	10932	10931	10934	9
10934	10931	10932	10939	9
10934	10931	10937	10938	9
10932	10931	10934	10935	9
10935	10934	10931	10937	9
10932	10933	10936	10935	9
10935	10936	10933	10943	9
10936	10935	10934	10940	9
10936	10935	10942	10944	9
10936	10933	10932	10939	9
10936	10933	10943	10945	9
10933	10936	10935	10942	9
10933	10932	10931	10937	9
10932	10933	10936	10941	9
10932	10933	10943	10945	9
10932	10931	10934	10940	9
10932	10931	10937	10938	9
10941	10936	10933	10943	9
10939	10932	10933	10943	9
10937	10931	10934	10940	9
10937	10931	10932	10939	9
10940	10934	10935	10942	9
10941	10936	10935	10942	9
10946	10949	10950	10951	9
10946	10949	10950	10957	9
10946	10947	10948	10951	9
10946	10947	10948	10958	9
10948	10951	10950	10949	9
10949	10950	10951	10956	9
10949	10950	10957	10959	9
10948	10947	10946	10949	9
10949	10946	10947	10954	9
10949	10946	10952	10953	9
10947	10946	10949	10950	9
10950	10949	10946	10952	9
10947	10948	10951	10950	9
10950	10951	10948	10958	9
10951	10950	10949	10955	9
10951	10950	10957	10959	9
10951	10948	10947	10954	9
10951	10948	10958	10960	9
10948	10951	10950	10957	9
10948	10947	10946	10952	9
10947	10948	10951	10956	9
10947	10948	10958	10960	9
10947	10946	10949	10955	9
10947	10946	10952	10953	9
10956	10951	10948	10958	9
10954	10947	10948	10958	9
10952	10946	10949	10955	9
10952	10946	10947	10954	9
10955	10949	10950	10957	9
10956	10951	10950	10957	9
10961	10964	10965	10966	9
10961	10964	10965	10972	9
10961	10962	10963	10966	9
10961	10962	10963	10973	9
10963	10966	10965	10964	9
10964	10965	10966	10971	9
10964	10965	10972	10974	9
10963	10962	10961	10964	9
10964	10961	10962	10969	9
10964	10961	10967	10968	9
10962	10961	10964	10965	9
10965	10964	10961	10967	9
10962	10963	10966	10965	9
10965	10966	10963	10973	9
10966	10965	10964	10970	9
10966	10965	10972	10974	9
10966	10963	10962	10969	9
10966	10963	10973	10975	9
10963	10966	10965	10972	9
10963	10962	10961	10967	9
10962	10963	10966	10971	9
10962	10963	10973	10975	9
10962	10961	10964	10970	9
10962	10961	10967	10968	9
10971	10966	10963	10973	9
10969	10962	10963	10973	9
10967	10961	10964	10970	9
10967	10961	10962	10969	9
10970	10964	10965	10972	9
10971	10966	10965	10972	9
10990	10991	10992	10995	9
10990	10991	10992	11002	9
10990	10993	10994	10995	9
10990	10993	10994	11001	9
10994	10995	10992	10991	9
10991	10992	10995	11000	9
10991	10992	11002	11004	9
10994	10993	10990	10991	9
10991	10990	10993	10999	9
10991	10990	10996	10997	9
10993	10990	10991	10992	9
10992	10991	10990	10996	9
10993	10994	10995	10992	9
10992	10995	10994	11001	9
10995	10992	10991	10998	9
10995	10992	11002	11004	9
10995	10994	10993	10999	9
10995	10994	11001	11003	9
10994	10995	10992	11002	9
10994	10993	10990	10996	9
10993	10994	10995	11000	9
10993	10994	11001	11003	9
10993	10990	10991	10998	9
10993	10990	10996	10997	9
11000	10995	10994	11001	9
10999	10993	10994	11001	9
10996	10990	10991	10998	9
10996	10990	10993	10999	9
10998	10991	10992	11002	9
11000	10995	10992	11002	9
11005	11008	11009	11010	9
11005	11008	11009	11016	9
11005	11006	11007	11010	9
11005	11006	11007	11017	9
11008	11009	11010	11007	9
11008	11009	11010	11015	9
11008	11009	11016	11018	9
11008	11005	11006	11007	9
11008	11005	11006	11013	9
11008	11005	11011	11012	9
11009	11008	11005	11006	9
11009	11008	11005	11011	9
11009	11010	11007	11006	9
11009	11010	11007	11017	9
11010	11009	11008	11014	9
11010	11009	11016	11018	9
11010	11007	11006	11013	9
11010	11007	11017	11019	9
11007	11010	11009	11016	9
11007	11006	11005	11011	9
11006	11007	11010	11015	9
11006	11007	11017	11019	9
11006	11005	11008	11014	9
11006	11005	11011	11012	9
11015	11010	11007	11017	9
11013	11006	11007	11017	9
11011	11005	11008	11014	9
11011	11005	11006	11013	9
11014	11008	11009	11016	9
11015	11010	11009	11016	9
2528	2533	2532	2531	9
2528	2533	2532	2534	9
2528	2529	2530	2531	9
2528	2529	2530	2536	9
2530	2531	2532	2533	9
2533	2532	2531	2540	9
2533	2532	2534	2535	9
2530	2529	2528	2533	9
2533	2528	2529	2539	9
2533	2528	2526	2527	9
2529	2528	2533	2532	9
2532	2533	2528	2526	9
2529	2530	2531	2532	9
2532	2531	2530	2536	9
2531	2532	2533	2541	9
2531	2532	2534	2535	9
2531	2530	2529	2539	9
2531	2530	2536	2537	9
2531	2530	2536	2538	9
2530	2531	2532	2534	9
2530	2529	2528	2526	9
2529	2530	2531	2540	9
2529	2530	2536	2537	9
2529	2530	2536	2538	9
2529	2528	2533	2541	9
2529	2528	2526	2527	9
2540	2531	2530	2536	9
2539	2529	2530	2536	9
2526	2528	2533	2541	9
2526	2528	2529	2539	9
2541	2533	2532	2534	9
2540	2531	2532	2534	9
11020	11021	11022	11025	9
11020	11021	11022	11032	9
11020	11023	11024	11025	9
11020	11023	11024	11031	9
11021	11022	11025	11024	9
11021	11022	11025	11030	9
11021	11022	11032	11034	9
11021	11020	11023	11024	9
11021	11020	11023	11029	9
11021	11020	11026	11027	9
11022	11021	11020	11023	9
11022	11021	11020	11026	9
11022	11025	11024	11023	9
11022	11025	11024	11031	9
11025	11022	11021	11028	9
11025	11022	11032	11034	9
11025	11024	11023	11029	9
11025	11024	11031	11033	9
11024	11025	11022	11032	9
11024	11023	11020	11026	9
11023	11024	11025	11030	9
11023	11024	11031	11033	9
11023	11020	11021	11028	9
11023	11020	11026	11027	9
11030	11025	11024	11031	9
11029	11023	11024	11031	9
11026	11020	11021	11028	9
11026	11020	11023	11029	9
11028	11021	11022	11032	9
11030	11025	11022	11032	9
11035	11036	11037	11040	9
11035	11036	11037	11047	9
11035	11038	11039	11040	9
11035	11038	11039	11046	9
11036	11037	11040	11039	9
11036	11037	11040	11045	9
11036	11037	11047	11049	9
11036	11035	11038	11039	9
11036	11035	11038	11044	9
11036	11035	11041	11042	9
11037	11036	11035	11038	9
11037	11036	11035	11041	9
11037	11040	11039	11038	9
11037	11040	11039	11046	9
11040	11037	11036	11043	9
11040	11037	11047	11049	9
11040	11039	11038	11044	9
11040	11039	11046	11048	9
11039	11040	11037	11047	9
11039	11038	11035	11041	9
11038	11039	11040	11045	9
11038	11039	11046	11048	9
11038	11035	11036	11043	9
11038	11035	11041	11042	9
11045	11040	11039	11046	9
11044	11038	11039	11046	9
11041	11035	11036	11043	9
11041	11035	11038	11044	9
11043	11036	11037	11047	9
11045	11040	11037	11047	9
11064	11065	11066	11069	9
11064	11065	11066	11076	9
11064	11067	11068	11069	9
11064	11067	11068	11075	9
11065	11066	11069	11068	9
11065	11066	11069	11074	9
11065	11066	11076	11078	9
11065	11064	11067	11068	9
11065	11064	11067	11073	9
11065	11064	11070	11071	9
11066	11065	11064	11067	9
11066	11065	11064	11070	9
11066	11069	11068	11067	9
11066	11069	11068	11075	9
11069	11066	11065	11072	9
11069	11066	11076	11078	9
11069	11068	11067	11073	9
11069	11068	11075	11077	9
11068	11069	11066	11076	9
11068	11067	11064	11070	9
11067	11068	11069	11074	9
11067	11068	11075	11077	9
11067	11064	11065	11072	9
11067	11064	11070	11071	9
11074	11069	11068	11075	9
11073	11067	11068	11075	9
11070	11064	11065	11072	9
11070	11064	11067	11073	9
11072	11065	11066	11076	9
11074	11069	11066	11076	9
11093	11094	11095	11098	9
11093	11094	11095	11105	9
11093	11096	11097	11098	9
11093	11096	11097	11104	9
11094	11095	11098	11097	9
11094	11095	11098	11103	9
11094	11095	11105	11107	9
11094	11093	11096	11097	9
11094	11093	11096	11102	9
11094	11093	11099	11100	9
11095	11094	11093	11096	9
11095	11094	11093	11099	9
11095	11098	11097	11096	9
11095	11098	11097	11104	9
11098	11095	11094	11101	9
11098	11095	11105	11107	9
11098	11097	11096	11102	9
11098	11097	11104	11106	9
11097	11098	11095	11105	9
11097	11096	11093	11099	9
11096	11097	11098	11103	9
11096	11097	11104	11106	9
11096	11093	11094	11101	9
11096	11093	11099	11100	9
11103	11098	11097	11104	9
11102	11096	11097	11104	9
11099	11093	11094	11101	9
11099	11093	11096	11102	9
11101	11094	11095	11105	9
11103	11098	11095	11105	9
2542	2543	2544	2547	9
2542	2543	2544	2554	9
2542	2545	2546	2547	9
2542	2545	2546	2553	9
2543	2544	2547	2546	9
2543	2544	2547	2552	9
2543	2544	2554	2556	9
2543	2544	2554	2557	9
2543	2542	2545	2546	9
2543	2542	2545	2551	9
2543	2542	2548	2549	9
2544	2543	2542	2545	9
2544	2543	2542	2548	9
2544	2547	2546	2545	9
2544	2547	2546	2553	9
2544	2554	2557	2558	9
2547	2544	2543	2550	9
2547	2544	2554	2556	9
2547	2544	2554	2557	9
2547	2546	2545	2551	9
2547	2546	2553	2555	9
2546	2547	2544	2554	9
2546	2545	2542	2548	9
2545	2546	2547	2552	9
2545	2546	2553	2555	9
2545	2542	2543	2550	9
2545	2542	2548	2549	9
2552	2547	2546	2553	9
2551	2545	2546	2553	9
2548	2542	2543	2550	9
2548	2542	2545	2551	9
2550	2543	2544	2554	9
2552	2547	2544	2554	9
2556	2554	2557	2558	9
11108	11109	11110	11113	9
11108	11109	11110	11120	9
11108	11111	11112	11113	9
11108	11111	11112	11119	9
11109	11110	11113	11112	9
11109	11110	11113	11118	9
11109	11110	11120	11122	9
11109	11108	11111	11112	9
11109	11108	11111	11117	9
11109	11108	11114	11115	9
11110	11109	11108	11111	9
11110	11109	11108	11114	9
11110	11113	11112	11111	9
11110	11113	11112	11119	9
11113	11110	11109	11116	9
11113	11110	11120	11122	9
11113	11112	11111	11117	9
11113	11112	11119	11121	9
11112	11113	11110	11120	9
11112	11111	11108	11114	9
11111	11112	11113	11118	9
11111	11112	11119	11121	9
11111	11108	11109	11116	9
11111	11108	11114	11115	9
11118	11113	11112	11119	9
11117	11111	11112	11119	9
11114	11108	11109	11116	9
11114	11108	11111	11117	9
11116	11109	11110	11120	9
11118	11113	11110	11120	9
11123	11126	11127	11128	9
11123	11126	11127	11134	9
11123	11124	11125	11128	9
11123	11124	11125	11135	9
11125	11128	11127	11126	9
11126	11127	11128	11133	9
11126	11127	11134	11136	9
11125	11124	11123	11126	9
11126	11123	11124	11131	9
11126	11123	11129	11130	9
11124	11123	11126	11127	9
11127	11126	11123	11129	9
11124	11125	11128	11127	9
11127	11128	11125	11135	9
11128	11127	11126	11132	9
11128	11127	11134	11136	9
11128	11125	11124	11131	9
11128	11125	11135	11137	9
11125	11128	11127	11134	9
11125	11124	11123	11129	9
11124	11125	11128	11133	9
11124	11125	11135	11137	9
11124	11123	11126	11132	9
11124	11123	11129	11130	9
11133	11128	11125	11135	9
11131	11124	11125	11135	9
11129	11123	11126	11132	9
11129	11123	11124	11131	9
11132	11126	11127	11134	9
11133	11128	11127	11134	9
5283	6333	5271	5282	2
5281	5290	5273	5280	2
5270	5272	5282	5271	2
5272	5274	5280	5273	2
5272	5271	5273	5276	2
5270	5271	5275	5278	2
5274	5275	5273	5277	2
5275	5270	5274	5279	2
4542	5296	4530	4541	2
4540	4549	4532	4539	2
4530	4531	4541	4529	2
4531	4533	4539	4532	2
4531	4530	4532	4535	2
4529	4534	4530	4537	2
4533	4532	4534	4536	2
4534	4529	4533	4538	2
9806	9813	9794	9805	2
9804	8695	9796	9803	2
9794	9795	9805	9793	2
9795	9797	9803	9796	2
9795	9796	9794	9799	2
9793	9798	9794	9801	2
9797	9796	9798	9800	2
9798	9793	9797	9802	2
5136	7702	5128	5135	2
5138	5145	5126	5137	2
5127	5129	5135	5128	2
5125	5127	5137	5126	2
5127	5128	5126	5131	2
5129	5128	5130	5132	2
5125	5130	5126	5133	2
5130	5129	5125	5134	2
1338	1339	1326	1337	2
1336	7191	1328	1335	2
1327	1325	1337	1326	2
1327	1329	1335	1328	2
1327	1328	1326	1331	2
1325	1330	1326	1333	2
1329	1330	1328	1332	2
1330	1325	1329	1334	2
11571	4554	11559	11570	2
11569	9965	11561	11568	2
11559	11560	11570	11558	2
11561	11560	11568	11562	2
11560	11561	11559	11564	2
11558	11563	11559	11566	2
11562	11563	11561	11565	2
11563	11562	11558	11567	2
2599	3916	2591	2598	2
2602	2589	2601	2600	2
2591	2590	2598	2592	2
2589	2588	2600	2590	2
2590	2589	2591	2594	2
2592	2591	2593	2595	2
2588	2589	2593	2596	2
2593	2592	2588	2597	2
789	4468	777	788	2
787	790	779	786	2
778	776	788	777	2
779	780	786	778	2
778	777	779	782	2
781	777	776	784	2
780	779	781	783	2
781	776	780	785	2
11092	4308	11080	11091	2
11090	11099	11082	11089	2
11081	11079	11091	11080	2
11082	11083	11089	11081	2
11081	11080	11082	11085	2
11079	11084	11080	11087	2
11083	11082	11084	11086	2
11084	11083	11079	11088	2
11513	4410	11505	11512	2
11515	7192	11503	11514	2
11506	11504	11512	11505	2
11503	11502	11514	11504	2
11504	11505	11503	11508	2
11506	11505	11507	11509	2
11502	11503	11507	11510	2
11507	11502	11506	11511	2
9835	5938	9823	9834	2
9833	9842	9825	9832	2
9823	9824	9834	9822	2
9826	9824	9832	9825	2
9824	9825	9823	9828	2
9822	9827	9823	9830	2
9826	9825	9827	9829	2
9827	9826	9822	9831	2
7162	10928	7154	7161	2
7164	7171	7152	7163	2
7154	7155	7161	7153	2
7151	7153	7163	7152	2
7153	7154	7152	7157	2
7155	7154	7156	7158	2
7151	7156	7152	7159	2
7156	7155	7151	7160	2
2809	5597	2801	2808	2
2811	2799	2812	2810	2
2801	2802	2808	2800	2
2800	2798	2810	2799	2
2800	2801	2799	2804	2
2802	2801	2803	2805	2
2798	2799	2803	2806	2
2803	2802	2798	2807	2
9484	9491	9472	9483	2
9482	5267	9474	9481	2
9473	9471	9483	9472	2
9474	9475	9481	9473	2
9473	9474	9472	9477	2
9471	9472	9476	9479	2
9475	9474	9476	9478	2
9476	9471	9475	9480	2
13671	1529	13659	13670	2
13669	10577	13661	13668	2
13659	13660	13670	13658	2
13660	13662	13668	13661	2
13660	13659	13661	13664	2
13658	13659	13663	13666	2
13662	13663	13661	13665	2
13663	13662	13658	13667	2
64	2496	52	63	2
62	42	54	61	2
51	53	63	52	2
54	53	61	55	2
53	54	52	57	2
51	56	52	59	2
55	54	56	58	2
56	55	51	60	2
9543	5441	9531	9542	2
9541	9550	9533	9540	2
9531	9530	9542	9532	2
9534	9532	9540	9533	2
9532	9533	9531	9536	2
9530	9531	9535	9538	2
9534	9533	9535	9537	2
9535	9530	9534	9539	2
4193	10343	4181	4192	2
4191	4200	4183	4190	2
4182	4180	4192	4181	2
4183	4184	4190	4182	2
4182	4181	4183	4186	2
4180	4185	4181	4188	2
4184	4183	4185	4187	2
4185	4184	4180	4189	2
11263	4002	11251	11262	2
11261	10402	11253	11260	2
11252	11250	11262	11251	2
11253	11252	11260	11254	2
11252	11251	11253	11256	2
11250	11255	11251	11258	2
11254	11253	11255	11257	2
11255	11254	11250	11259	2
12229	9717	12217	12228	2
12227	5705	12219	12226	2
12217	12216	12228	12218	2
12218	12220	12226	12219	2
12218	12217	12219	12222	2
12216	12217	12221	12224	2
12220	12219	12221	12223	2
12221	12216	12220	12225	2
11319	4090	11307	11318	2
11317	7818	11309	11316	2
11308	11306	11318	11307	2
11308	11310	11316	11309	2
11308	11309	11307	11312	2
11306	11307	11311	11314	2
11310	11309	11311	11313	2
11311	11310	11306	11315	2
8007	8016	7999	8006	2
8009	7119	7997	8008	2
7998	8000	8006	7999	2
7997	7998	8008	7996	2
7998	7997	7999	8002	2
8000	8001	7999	8003	2
7996	8001	7997	8004	2
8001	8000	7996	8005	2
9777	9784	9765	9776	2
9775	10337	9767	9774	2
9766	9764	9776	9765	2
9766	9768	9774	9767	2
9766	9767	9765	9770	2
9764	9765	9769	9772	2
9768	9769	9767	9771	2
9769	9764	9768	9773	2
13741	1347	13729	13740	2
13739	1620	13731	13738	2
13730	13728	13740	13729	2
13731	13730	13738	13732	2
13730	13729	13731	13734	2
13728	13729	13733	13736	2
13732	13733	13731	13735	2
13733	13728	13732	13737	2
8916	8923	8904	8915	2
8914	8490	8906	8913	2
8904	8903	8915	8905	2
8905	8907	8913	8906	2
8905	8906	8904	8909	2
8903	8904	8908	8911	2
8907	8906	8908	8910	2
8908	8903	8907	8912	2
10387	10396	10379	10386	2
10389	11032	10377	10388	2
10379	10380	10386	10378	2
10376	10378	10388	10377	2
10378	10377	10379	10382	2
10380	10381	10379	10383	2
10376	10377	10381	10384	2
10381	10376	10380	10385	2
4905	4912	4893	4904	2
4903	11031	4895	4902	2
4893	4894	4904	4892	2
4895	4896	4902	4894	2
4894	4895	4893	4898	2
4892	4897	4893	4900	2
4896	4897	4895	4899	2
4897	4892	4896	4901	2
3019	7396	3011	3018	2
3022	3009	3021	3020	2
3010	3012	3018	3011	2
3010	3008	3020	3009	2
3010	3011	3009	3014	2
3012	3011	3013	3015	2
3008	3013	3009	3016	2
3013	3008	3012	3017	2
10915	10328	10903	10914	2
10913	10922	10905	10912	2
10903	10904	10914	10902	2
10906	10904	10912	10905	2
10904	10905	10903	10908	2
10902	10907	10903	10910	2
10906	10905	10907	10909	2
10907	10906	10902	10911	2
11921	2107	11909	11920	2
11919	5121	11911	11918	2
11909	11908	11920	11910	2
11911	11912	11918	11910	2
11910	11909	11911	11914	2
11908	11909	11913	11916	2
11912	11913	11911	11915	2
11913	11912	11908	11917	2
8578	8587	8570	8577	2
8580	6012	8568	8579	2
8571	8569	8577	8570	2
8568	8567	8579	8569	2
8569	8568	8570	8573	2
8571	8572	8570	8574	2
8567	8572	8568	8575	2
8572	8571	8567	8576	2
3276	3264	3277	3275	2
3274	8938	3266	3273	2
3264	3263	3275	3265	2
3267	3265	3273	3266	2
3265	3264	3266	3269	2
3263	3264	3268	3271	2
3267	3268	3266	3270	2
3268	3267	3263	3272	2
3201	3189	3202	3200	2
3199	8529	3191	3198	2
3190	3188	3200	3189	2
3190	3192	3198	3191	2
3190	3191	3189	3194	2
3188	3193	3189	3196	2
3192	3193	3191	3195	2
3193	3192	3188	3197	2
2824	5602	2816	2823	2
2827	2814	2826	2825	2
2815	2817	2823	2816	2
2814	2813	2825	2815	2
2815	2816	2814	2819	2
2817	2816	2818	2820	2
2813	2814	2818	2821	2
2818	2817	2813	2822	2
13377	8534	13365	13376	2
13375	8389	13367	13374	2
13366	13364	13376	13365	2
13367	13368	13374	13366	2
13366	13367	13365	13370	2
13364	13365	13369	13372	2
13368	13369	13367	13371	2
13369	13368	13364	13373	2
3126	3114	3127	3125	2
3124	8095	3116	3123	2
3114	3115	3125	3113	2
3116	3115	3123	3117	2
3115	3116	3114	3119	2
3113	3114	3118	3121	2
3117	3118	3116	3120	2
3118	3113	3117	3122	2
2356	2357	2344	2355	2
2354	6011	2346	2353	2
2344	2343	2355	2345	2
2346	2345	2353	2347	2
2345	2346	2344	2349	2
2343	2348	2344	2351	2
2347	2346	2348	2350	2
2348	2347	2343	2352	2
10010	10017	9998	10009	2
10008	11026	10000	10007	2
9998	9999	10009	9997	2
9999	10001	10007	10000	2
9999	9998	10000	10003	2
9997	10002	9998	10005	2
10001	10000	10002	10004	2
10002	10001	9997	10006	2
5167	7337	5155	5166	2
5165	5174	5157	5164	2
5156	5154	5166	5155	2
5156	5158	5164	5157	2
5156	5155	5157	5160	2
5154	5159	5155	5162	2
5158	5157	5159	5161	2
5159	5154	5158	5163	2
11457	554	11449	11456	2
11459	4307	11447	11458	2
11448	11450	11456	11449	2
11447	11448	11458	11446	2
11448	11447	11449	11452	2
11450	11449	11451	11453	2
11446	11447	11451	11454	2
11451	11446	11450	11455	2
5007	5014	4995	5006	2
5005	8329	4997	5004	2
4995	4994	5006	4996	2
4998	4996	5004	4997	2
4996	4995	4997	5000	2
4994	4999	4995	5002	2
4998	4997	4999	5001	2
4999	4998	4994	5003	2
288	266	276	287	2
286	5880	278	285	2
275	277	287	276	2
277	279	285	278	2
277	276	278	281	2
275	280	276	283	2
279	278	280	282	2
280	275	279	284	2
11961	920	11953	11960	2
11963	5238	11951	11962	2
11953	11954	11960	11952	2
11951	11950	11962	11952	2
11952	11951	11953	11956	2
11954	11953	11955	11957	2
11950	11951	11955	11958	2
11955	11950	11954	11959	2
4164	4171	4152	4163	2
4162	7920	4154	4161	2
4152	4153	4163	4151	2
4154	4155	4161	4153	2
4153	4154	4152	4157	2
4151	4156	4152	4159	2
4155	4156	4154	4158	2
4156	4151	4155	4160	2
3651	3639	3652	3650	2
3649	10952	3641	3648	2
3639	3638	3650	3640	2
3640	3642	3648	3641	2
3640	3639	3641	3644	2
3638	3643	3639	3646	2
3642	3643	3641	3645	2
3642	3638	3643	3647	2
11249	4003	11237	11248	2
11247	11105	11239	11246	2
11238	11236	11248	11237	2
11238	11240	11246	11239	2
11238	11239	11237	11242	2
11236	11241	11237	11244	2
11240	11241	11239	11243	2
11241	11240	11236	11245	2
2691	2679	2692	2690	2
2689	4946	2681	2688	2
2679	2680	2690	2678	2
2681	2680	2688	2682	2
2680	2681	2679	2684	2
2678	2683	2679	2686	2
2682	2683	2681	2685	2
2683	2678	2682	2687	2
10213	10220	10201	10212	2
10211	10762	10203	10210	2
10200	10202	10212	10201	2
10204	10202	10210	10203	2
10202	10203	10201	10206	2
10200	10201	10205	10208	2
10204	10203	10205	10207	2
10205	10200	10204	10209	2
12341	10022	12329	12340	2
12339	5836	12331	12338	2
12329	12330	12340	12328	2
12330	12332	12338	12331	2
12330	12331	12329	12334	2
12328	12333	12329	12336	2
12332	12333	12331	12335	2
12333	12332	12328	12337	2
11655	1150	11643	11654	2
11653	4699	11645	11652	2
11644	11642	11654	11643	2
11645	11646	11652	11644	2
11644	11643	11645	11648	2
11642	11647	11643	11650	2
11646	11647	11645	11649	2
11647	11642	11646	11651	2
5080	9278	5068	5079	2
5078	5087	5070	5077	2
5067	5069	5079	5068	2
5071	5069	5077	5070	2
5069	5068	5070	5073	2
5067	5068	5072	5075	2
5071	5070	5072	5074	2
5072	5067	5071	5076	2
10286	7731	10274	10285	2
10284	10293	10276	10283	2
10273	10275	10285	10274	2
10277	10275	10283	10276	2
10275	10274	10276	10279	2
10273	10278	10274	10281	2
10277	10278	10276	10280	2
10278	10273	10277	10282	2
7587	7594	7575	7586	2
7585	10937	7577	7584	2
7576	7574	7586	7575	2
7577	7576	7584	7578	2
7576	7577	7575	7580	2
7579	7575	7574	7582	2
7578	7579	7577	7581	2
7579	7574	7578	7583	2
11165	878	11153	11164	2
11163	3814	11155	11162	2
11152	11154	11164	11153	2
11154	11156	11162	11155	2
11154	11155	11153	11158	2
11152	11157	11153	11160	2
11156	11157	11155	11159	2
11157	11152	11156	11161	2
9090	9439	9082	9089	2
9092	9099	9080	9091	2
9082	9083	9089	9081	2
9081	9079	9091	9080	2
9081	9082	9080	9085	2
9083	9082	9084	9086	2
9079	9084	9080	9087	2
9084	9083	9079	9088	2
543	546	535	542	2
545	5237	533	544	2
535	534	542	536	2
534	532	544	533	2
534	535	533	538	2
536	535	537	539	2
532	537	533	540	2
537	536	532	541	2
2944	6638	2936	2943	2
2946	2934	2947	2945	2
2936	2937	2943	2935	2
2934	2933	2945	2935	2
2935	2936	2934	2939	2
2937	2938	2936	2940	2
2933	2934	2938	2941	2
2938	2937	2933	2942	2
9063	10401	9051	9062	2
9061	9070	9053	9060	2
9052	9050	9062	9051	2
9053	9054	9060	9052	2
9052	9051	9053	9056	2
9050	9051	9055	9058	2
9054	9055	9053	9057	2
9055	9054	9050	9059	2
13475	9076	13463	13474	2
13473	8943	13465	13472	2
13462	13464	13474	13463	2
13465	13464	13472	13466	2
13464	13463	13465	13468	2
13462	13463	13467	13470	2
13466	13467	13465	13469	2
13467	13466	13462	13471	2
3379	9410	3371	3378	2
3382	3369	3381	3380	2
3370	3372	3378	3371	2
3369	3370	3380	3368	2
3370	3371	3369	3374	2
3372	3371	3373	3375	2
3368	3369	3373	3376	2
3373	3368	3372	3377	2
7936	6914	7924	7935	2
7934	7943	7926	7933	2
7925	7923	7935	7924	2
7926	7927	7933	7925	2
7925	7924	7926	7929	2
7923	7924	7928	7931	2
7927	7928	7926	7930	2
7928	7927	7923	7932	2
1079	1055	1067	1078	2
1077	5529	1069	1076	2
1066	1068	1078	1067	2
1069	1070	1076	1068	2
1068	1069	1067	1072	2
1066	1067	1071	1074	2
1070	1069	1071	1073	2
1071	1070	1066	1075	2
13461	10899	13449	13460	2
13459	8944	13451	13458	2
13448	13450	13460	13449	2
13450	13452	13458	13451	2
13450	13451	13449	13454	2
13448	13453	13449	13456	2
13452	13453	13451	13455	2
13452	13448	13453	13457	2
10652	3915	10640	10651	2
10650	10659	10642	10649	2
10639	10641	10651	10640	2
10642	10641	10649	10643	2
10641	10640	10642	10645	2
10639	10640	10644	10647	2
10643	10642	10644	10646	2
10644	10643	10639	10648	2
5575	2414	5563	5574	2
5573	5582	5565	5572	2
5562	5564	5574	5563	2
5566	5564	5572	5565	2
5564	5563	5565	5568	2
5562	5567	5563	5570	2
5566	5567	5565	5569	2
5567	5562	5566	5571	2
441	6298	429	440	2
439	417	431	438	2
429	428	440	430	2
432	430	438	431	2
430	429	431	434	2
428	433	429	436	2
432	433	431	435	2
433	428	432	437	2
7106	7113	7094	7105	2
7104	8563	7096	7103	2
7095	7093	7105	7094	2
7096	7095	7103	7097	2
7095	7094	7096	7099	2
7093	7094	7098	7101	2
7097	7096	7098	7100	2
7098	7093	7097	7102	2
667	10499	655	666	2
665	676	657	664	2
655	656	666	654	2
657	658	664	656	2
656	657	655	660	2
654	655	659	662	2
658	659	657	661	2
659	654	658	663	2
6654	8314	6642	6653	2
6652	6661	6644	6651	2
6641	6643	6653	6642	2
6645	6643	6651	6644	2
6643	6644	6642	6647	2
6641	6642	6646	6649	2
6645	6644	6646	6648	2
6646	6645	6641	6650	2
3439	9555	3431	3438	2
3442	3429	3441	3440	2
3432	3430	3438	3431	2
3429	3430	3440	3428	2
3430	3429	3431	3434	2
3432	3431	3433	3435	2
3428	3429	3433	3436	2
3433	3428	3432	3437	2
13013	7571	13001	13012	2
13011	10225	13003	13010	2
13001	13002	13012	13000	2
13003	13004	13010	13002	2
13002	13003	13001	13006	2
13000	13005	13001	13008	2
13004	13005	13003	13007	2
13005	13004	13000	13009	2
11375	7469	11363	11374	2
11373	4177	11365	11372	2
11363	11362	11374	11364	2
11365	11364	11372	11366	2
11364	11365	11363	11368	2
11362	11367	11363	11370	2
11366	11365	11367	11369	2
11367	11362	11366	11371	2
12719	2504	12707	12718	2
12717	6666	12709	12716	2
12708	12706	12718	12707	2
12709	12710	12716	12708	2
12708	12707	12709	12712	2
12711	12707	12706	12714	2
12710	12711	12709	12713	2
12711	12706	12710	12715	2
3990	6229	3978	3989	2
3988	3997	3980	3987	2
3977	3979	3989	3978	2
3981	3979	3987	3980	2
3979	3980	3978	3983	2
3977	3982	3978	3985	2
3981	3980	3982	3984	2
3982	3977	3981	3986	2
2266	2267	2254	2265	2
2264	10753	2256	2263	2
2253	2255	2265	2254	2
2256	2257	2263	2255	2
2255	2256	2254	2259	2
2253	2258	2254	2261	2
2257	2256	2258	2260	2
2258	2253	2257	2262	2
6596	6603	6584	6595	2
6594	8899	6586	6593	2
6584	6583	6595	6585	2
6586	6587	6593	6585	2
6585	6586	6584	6589	2
6583	6584	6588	6591	2
6587	6588	6586	6590	2
6588	6583	6587	6592	2
7514	7521	7502	7513	2
7512	4584	7504	7511	2
7502	7503	7513	7501	2
7504	7505	7511	7503	2
7503	7502	7504	7507	2
7501	7502	7506	7509	2
7505	7506	7504	7508	2
7506	7501	7505	7510	2
12775	6915	12763	12774	2
12773	2476	12765	12772	2
12764	12762	12774	12763	2
12766	12764	12772	12765	2
12763	12765	12764	12768	2
12762	12767	12763	12770	2
12766	12767	12765	12769	2
12767	12762	12766	12771	2
12985	9279	12973	12984	2
12983	7498	12975	12982	2
12972	12974	12984	12973	2
12975	12976	12982	12974	2
12974	12975	12973	12978	2
12972	12977	12973	12980	2
12976	12977	12975	12979	2
12977	12976	12972	12981	2
4397	4404	4385	4396	2
4395	6885	4387	4394	2
4384	4386	4396	4385	2
4387	4386	4394	4388	2
4386	4385	4387	4390	2
4384	4389	4385	4392	2
4388	4387	4389	4391	2
4389	4388	4384	4393	2
10740	10747	10728	10739	2
10738	5894	10730	10737	2
10728	10729	10739	10727	2
10730	10731	10737	10729	2
10729	10730	10728	10733	2
10727	10728	10732	10735	2
10731	10732	10730	10734	2
10732	10731	10727	10736	2
3666	3654	3667	3665	2
3664	10957	3656	3663	2
3654	3655	3665	3653	2
3655	3657	3663	3656	2
3655	3654	3656	3659	2
3653	3658	3654	3661	2
3657	3656	3658	3660	2
3658	3653	3657	3662	2
10886	10869	10874	10885	2
10884	10893	10876	10883	2
10875	10873	10885	10874	2
10876	10877	10883	10875	2
10875	10874	10876	10879	2
10873	10878	10874	10881	2
10877	10876	10878	10880	2
10878	10877	10873	10882	2
3499	9732	3491	3498	2
3501	3489	3502	3500	2
3492	3490	3498	3491	2
3488	3490	3500	3489	2
3490	3491	3489	3494	2
3492	3493	3491	3495	2
3488	3493	3489	3496	2
3493	3492	3488	3497	2
12971	7468	12959	12970	2
12969	9467	12961	12968	2
12959	12960	12970	12958	2
12960	12962	12968	12961	2
12960	12961	12959	12964	2
12958	12959	12963	12966	2
12962	12961	12963	12965	2
12963	12962	12958	12967	2
9981	9988	9969	9980	2
9979	3945	9971	9978	2
9970	9968	9980	9969	2
9971	9970	9978	9972	2
9970	9971	9969	9974	2
9968	9973	9969	9976	2
9972	9973	9971	9975	2
9973	9972	9968	9977	2
11305	4089	11293	11304	2
11303	10226	11295	11302	2
11293	11292	11304	11294	2
11296	11294	11302	11295	2
11294	11295	11293	11298	2
11292	11293	11297	11300	2
11296	11297	11295	11299	2
11297	11296	11292	11301	2
3409	9496	3401	3408	2
3412	3399	3411	3410	2
3400	3402	3408	3401	2
3400	3398	3410	3399	2
3400	3399	3401	3404	2
3402	3403	3401	3405	2
3398	3403	3399	3406	2
3403	3402	3398	3407	2
9952	9959	9940	9951	2
9950	5295	9942	9949	2
9940	9941	9951	9939	2
9942	9943	9949	9941	2
9941	9942	9940	9945	2
9939	9944	9940	9947	2
9943	9942	9944	9946	2
9944	9943	9939	9948	2
4934	4941	4922	4933	2
4932	5977	4924	4931	2
4921	4923	4933	4922	2
4924	4923	4931	4925	2
4923	4924	4922	4927	2
4921	4926	4922	4929	2
4924	4925	4926	4928	2
4926	4925	4921	4930	2
2586	2574	2587	2585	2
2584	3823	2576	2583	2
2574	2573	2585	2575	2
2577	2575	2583	2576	2
2575	2576	2574	2579	2
2573	2574	2578	2581	2
2577	2576	2578	2580	2
2578	2573	2577	2582	2
3034	7425	3026	3033	2
3037	3024	3036	3035	2
3026	3027	3033	3025	2
3024	3025	3035	3023	2
3025	3024	3026	3029	2
3027	3028	3026	3030	2
3023	3028	3024	3031	2
3028	3027	3023	3032	2
6858	6667	6846	6857	2
6856	6865	6848	6855	2
6847	6845	6857	6846	2
6849	6847	6855	6848	2
6847	6848	6846	6851	2
6845	6850	6846	6853	2
6849	6848	6850	6852	2
6850	6845	6849	6854	2
11949	5179	11937	11948	2
11947	8725	11939	11946	2
11938	11936	11948	11937	2
11940	11938	11946	11939	2
11938	11937	11939	11942	2
11936	11941	11937	11944	2
11940	11941	11939	11943	2
11941	11940	11936	11945	2
12005	8021	11993	12004	2
12003	5398	11995	12002	2
11994	11992	12004	11993	2
11995	11996	12002	11994	2
11994	11993	11995	11998	2
11992	11993	11997	12000	2
11996	11995	11997	11999	2
11997	11996	11992	12001	2
592	10411	580	591	2
590	568	582	589	2
580	579	591	581	2
583	581	589	582	2
581	582	580	585	2
579	580	584	587	2
583	582	584	586	2
584	583	579	588	2
13209	9630	13197	13208	2
13207	8152	13199	13206	2
13198	13196	13208	13197	2
13200	13198	13206	13199	2
13198	13199	13197	13202	2
13196	13201	13197	13204	2
13200	13201	13199	13203	2
13201	13196	13200	13205	2
12075	10519	12063	12074	2
12073	5499	12065	12072	2
12064	12062	12074	12063	2
12064	12066	12072	12065	2
12064	12063	12065	12068	2
12062	12063	12067	12070	2
12066	12067	12065	12069	2
12067	12062	12066	12071	2
6407	1761	6395	6406	2
6405	6414	6397	6404	2
6394	6396	6406	6395	2
6398	6396	6404	6397	2
6396	6395	6397	6400	2
6394	6395	6399	6402	2
6398	6397	6399	6401	2
6399	6394	6398	6403	2
3291	3279	3292	3290	2
3289	8982	3281	3288	2
3280	3278	3290	3279	2
3282	3280	3288	3281	2
3280	3279	3281	3284	2
3278	3279	3283	3286	2
3282	3283	3281	3285	2
3283	3278	3282	3287	2
3172	3159	3171	3170	2
3169	8519	3161	3168	2
3160	3158	3170	3159	2
3160	3162	3168	3161	2
3160	3161	3159	3164	2
3158	3159	3163	3166	2
3163	3162	3161	3165	2
3163	3162	3158	3167	2
11697	8286	11685	11696	2
11695	4728	11687	11694	2
11685	11686	11696	11684	2
11687	11686	11694	11688	2
11686	11685	11687	11690	2
11684	11689	11685	11692	2
11688	11689	11687	11691	2
11689	11684	11688	11693	2
12927	7351	12919	12926	2
12929	8665	12917	12928	2
12919	12920	12926	12918	2
12916	12917	12928	12918	2
12918	12917	12919	12922	2
12920	12919	12921	12923	2
12917	12916	12921	12924	2
12921	12920	12916	12925	2
12327	5835	12315	12326	2
12325	8608	12317	12324	2
12314	12316	12326	12315	2
12318	12316	12324	12317	2
12316	12315	12317	12320	2
12314	12319	12315	12322	2
12318	12317	12319	12321	2
12319	12314	12318	12323	2
12355	5864	12343	12354	2
12353	10270	12345	12352	2
12344	12342	12354	12343	2
12345	12346	12352	12344	2
12344	12343	12345	12348	2
12342	12347	12343	12350	2
12346	12345	12347	12349	2
12347	12346	12342	12351	2
3364	9133	3356	3363	2
3367	3354	3366	3365	2
3356	3355	3363	3357	2
3354	3353	3365	3355	2
3355	3356	3354	3359	2
3357	3358	3356	3360	2
3353	3358	3354	3361	2
3358	3353	3357	3362	2
9208	9215	9196	9207	2
9206	9857	9198	9205	2
9195	9197	9207	9196	2
9199	9197	9205	9198	2
9197	9198	9196	9201	2
9195	9200	9196	9203	2
9199	9198	9200	9202	2
9200	9199	9195	9204	2
9426	8344	9414	9425	2
9424	9433	9416	9423	2
9413	9415	9425	9414	2
9417	9415	9423	9416	2
9415	9416	9414	9419	2
9413	9414	9418	9421	2
9417	9416	9418	9420	2
9418	9413	9417	9422	2
12145	5558	12133	12144	2
12143	8241	12135	12142	2
12133	12132	12144	12134	2
12135	12136	12142	12134	2
12134	12135	12133	12138	2
12132	12137	12133	12140	2
12136	12135	12137	12139	2
12137	12136	12132	12141	2
4978	10416	4966	4977	2
4976	4985	4968	4975	2
4966	4965	4977	4967	2
4968	4969	4975	4967	2
4967	4968	4966	4971	2
4965	4966	4970	4973	2
4969	4970	4968	4972	2
4970	4969	4965	4974	2
1978	1979	1966	1977	2
1976	4467	1968	1975	2
1967	1965	1977	1966	2
1968	1969	1975	1967	2
1967	1968	1966	1971	2
1965	1970	1966	1973	2
1969	1970	1968	1972	2
1970	1965	1969	1974	2
7776	6870	7764	7775	2
7774	7783	7766	7773	2
7765	7763	7775	7764	2
7766	7765	7773	7767	2
7765	7766	7764	7769	2
7763	7764	7768	7771	2
7767	7766	7768	7770	2
7768	7767	7763	7772	2
6567	9726	6555	6566	2
6565	6574	6557	6564	2
6555	6556	6566	6554	2
6557	6558	6564	6556	2
6556	6557	6555	6560	2
6554	6559	6555	6562	2
6558	6557	6559	6561	2
6559	6558	6554	6563	2
5487	5494	5475	5486	2
5485	8636	5477	5484	2
5475	5474	5486	5476	2
5478	5476	5484	5477	2
5476	5477	5475	5480	2
5474	5479	5475	5482	2
5478	5479	5477	5481	2
5479	5474	5478	5483	2
8682	3944	8670	8681	2
8680	8689	8672	8679	2
8669	8671	8681	8670	2
8672	8673	8679	8671	2
8671	8670	8672	8675	2
8669	8674	8670	8677	2
8673	8674	8672	8676	2
8674	8669	8673	8678	2
11977	7250	11965	11976	2
11975	5310	11967	11974	2
11966	11964	11976	11965	2
11967	11966	11974	11968	2
11966	11965	11967	11970	2
11964	11965	11969	11972	2
11968	11967	11969	11971	2
11969	11968	11964	11973	2
13685	2214	13673	13684	2
13683	10578	13675	13682	2
13674	13672	13684	13673	2
13674	13676	13682	13675	2
13674	13675	13673	13678	2
13672	13677	13673	13680	2
13676	13677	13675	13679	2
13677	13676	13672	13681	2
11613	4613	11601	11612	2
11611	342	11603	11610	2
11602	11600	11612	11601	2
11603	11602	11610	11604	2
11602	11601	11603	11606	2
11600	11601	11605	11608	2
11604	11605	11603	11607	2
11605	11600	11604	11609	2
11417	4758	11405	11416	2
11415	4234	11407	11414	2
11405	11406	11416	11404	2
11408	11406	11414	11407	2
11406	11405	11407	11410	2
11404	11405	11409	11412	2
11408	11409	11407	11411	2
11409	11408	11404	11413	2
13573	10505	13561	13572	2
13571	9819	13563	13570	2
13562	13560	13572	13561	2
13562	13564	13570	13563	2
13562	13561	13563	13566	2
13560	13561	13565	13568	2
13564	13563	13565	13567	2
13565	13564	13560	13569	2
10594	9497	10582	10593	2
10592	10601	10584	10591	2
10582	10583	10593	10581	2
10584	10583	10591	10585	2
10583	10584	10582	10587	2
10581	10586	10582	10589	2
10585	10584	10586	10588	2
10586	10585	10581	10590	2
4324	11076	4312	4323	2
4322	4331	4314	4321	2
4312	4313	4323	4311	2
4314	4315	4321	4313	2
4313	4314	4312	4317	2
4311	4312	4316	4319	2
4315	4316	4314	4318	2
4316	4311	4315	4320	2
2464	2440	2452	2463	2
2462	4555	2454	2461	2
2452	2453	2463	2451	2
2453	2455	2461	2454	2
2453	2452	2454	2457	2
2451	2456	2452	2459	2
2455	2454	2456	2458	2
2456	2455	2451	2460	2
12663	6477	12651	12662	2
12661	7454	12653	12660	2
12651	12652	12662	12650	2
12652	12654	12660	12653	2
12652	12653	12651	12656	2
12650	12651	12655	12658	2
12654	12655	12653	12657	2
12655	12654	12650	12659	2
850	851	838	849	2
848	6239	840	847	2
838	839	849	837	2
841	839	847	840	2
839	840	838	843	2
837	842	838	845	2
841	840	842	844	2
842	837	841	846	2
5327	10023	5315	5326	2
5325	5334	5317	5324	2
5315	5314	5326	5316	2
5316	5318	5324	5317	2
5316	5315	5317	5320	2
5314	5315	5319	5322	2
5318	5317	5319	5321	2
5319	5318	5314	5323	2
5821	5830	5813	5820	2
5823	5889	5811	5822	2
5813	5814	5820	5812	2
5811	5810	5822	5812	2
5812	5811	5813	5816	2
5814	5815	5813	5817	2
5810	5811	5815	5818	2
5815	5814	5810	5819	2
11291	6681	11279	11290	2
11289	4061	11281	11288	2
11279	11280	11290	11278	2
11282	11280	11288	11281	2
11280	11281	11279	11284	2
11278	11283	11279	11286	2
11282	11283	11281	11285	2
11283	11282	11278	11287	2
3397	3384	3396	3395	2
3394	9409	3386	3393	2
3385	3383	3395	3384	2
3386	3387	3393	3385	2
3385	3384	3386	3389	2
3383	3384	3388	3391	2
3387	3386	3388	3390	2
3388	3383	3387	3392	2
2098	2099	2086	2097	2
2096	9220	2088	2095	2
2087	2085	2097	2086	2
2088	2087	2095	2089	2
2087	2088	2086	2091	2
2085	2086	2090	2093	2
2089	2088	2090	2092	2
2090	2085	2089	2094	2
3711	3699	3712	3710	2
3709	11120	3701	3708	2
3700	3698	3710	3699	2
3702	3700	3708	3701	2
3700	3701	3699	3704	2
3698	3703	3699	3706	2
3702	3703	3701	3705	2
3703	3702	3698	3707	2
8960	8967	8948	8959	2
8958	6501	8950	8957	2
8948	8947	8959	8949	2
8951	8949	8957	8950	2
8949	8950	8948	8953	2
8947	8952	8948	8955	2
8951	8952	8950	8954	2
8952	8947	8951	8956	2
1719	7987	1707	1718	2
1717	1695	1709	1716	2
1708	1706	1718	1707	2
1709	1710	1716	1708	2
1708	1709	1707	1712	2
1706	1707	1711	1714	2
1710	1711	1709	1713	2
1711	1706	1710	1715	2
8505	8514	8497	8504	2
8507	5369	8495	8506	2
8496	8498	8504	8497	2
8495	8494	8506	8496	2
8496	8497	8495	8500	2
8498	8499	8497	8501	2
8494	8499	8495	8502	2
8499	8498	8494	8503	2
12089	11016	12077	12088	2
12087	5528	12079	12086	2
12076	12078	12088	12077	2
12079	12080	12086	12078	2
12078	12079	12077	12082	2
12076	12077	12081	12084	2
12080	12079	12081	12083	2
12081	12080	12076	12085	2
11557	11104	11545	11556	2
11555	4525	11547	11554	2
11545	11544	11556	11546	2
11547	11546	11554	11548	2
11546	11545	11547	11550	2
11544	11545	11549	11552	2
11548	11547	11549	11551	2
11549	11544	11548	11553	2
13083	7817	13071	13082	2
13081	8826	13073	13080	2
13071	13070	13082	13072	2
13072	13074	13080	13073	2
13072	13073	13071	13076	2
13070	13071	13075	13078	2
13074	13075	13073	13077	2
13075	13074	13070	13079	2
2661	2649	2662	2660	2
2659	4346	2651	2658	2
2650	2648	2660	2649	2
2651	2652	2658	2650	2
2650	2649	2651	2654	2
2648	2649	2653	2656	2
2652	2651	2653	2655	2
2653	2652	2648	2657	2
6057	7541	6045	6056	2
6055	6069	6047	6054	2
6044	6046	6056	6045	2
6048	6046	6054	6047	2
6046	6045	6047	6050	2
6044	6045	6049	6052	2
6048	6047	6049	6051	2
6049	6044	6048	6053	2
13615	9935	13603	13614	2
13613	10299	13605	13612	2
13603	13604	13614	13602	2
13605	13606	13612	13604	2
13604	13603	13605	13608	2
13602	13607	13603	13610	2
13606	13605	13607	13609	2
13607	13602	13606	13611	2
3157	3144	3156	3155	2
3154	8388	3146	3153	2
3143	3145	3155	3144	2
3146	3147	3153	3145	2
3145	3146	3144	3149	2
3143	3148	3144	3151	2
3147	3148	3146	3150	2
3148	3147	3143	3152	2
3109	8065	3101	3108	2
3112	3099	3111	3110	2
3101	3100	3108	3102	2
3098	3100	3110	3099	2
3100	3099	3101	3104	2
3102	3101	3103	3105	2
3098	3103	3099	3106	2
3103	3098	3102	3107	2
13657	11002	13645	13656	2
13655	10461	13647	13654	2
13646	13644	13656	13645	2
13648	13646	13654	13647	2
13646	13645	13647	13650	2
13644	13645	13649	13652	2
13648	13649	13647	13651	2
13649	13644	13648	13653	2
3184	8535	3176	3183	2
3187	3174	3186	3185	2
3176	3175	3183	3177	2
3174	3173	3185	3175	2
3175	3174	3176	3179	2
3177	3176	3178	3180	2
3173	3178	3174	3181	2
3178	3177	3173	3182	2
10989	10996	10977	10988	2
10987	1091	10979	10986	2
10978	10976	10988	10977	2
10978	10980	10986	10979	2
10978	10979	10977	10982	2
10976	10977	10981	10984	2
10980	10979	10981	10983	2
10981	10980	10976	10985	2
12565	7176	12553	12564	2
12563	6273	12555	12562	2
12552	12554	12564	12553	2
12554	12556	12562	12555	2
12554	12555	12553	12558	2
12552	12553	12557	12560	2
12556	12555	12557	12559	2
12557	12552	12556	12561	2
12047	5471	12035	12046	2
12045	9862	12037	12044	2
12035	12036	12046	12034	2
12036	12038	12044	12037	2
12036	12035	12037	12040	2
12034	12035	12039	12042	2
12038	12037	12039	12041	2
12039	12034	12038	12043	2
3231	3219	3232	3230	2
3229	8856	3221	3228	2
3219	3218	3230	3220	2
3221	3222	3228	3220	2
3220	3219	3221	3224	2
3218	3219	3223	3226	2
3222	3223	3221	3225	2
3223	3218	3222	3227	2
12831	9337	12819	12830	2
12829	7032	12821	12828	2
12820	12818	12830	12819	2
12821	12822	12828	12820	2
12820	12821	12819	12824	2
12818	12823	12819	12826	2
12822	12821	12823	12825	2
12823	12822	12818	12827	2
8140	8147	8128	8139	2
8138	9506	8130	8137	2
8128	8127	8139	8129	2
8131	8129	8137	8130	2
8129	8130	8128	8133	2
8127	8128	8132	8135	2
8131	8130	8132	8134	2
8132	8131	8127	8136	2
11541	5895	11533	11540	2
11543	4526	11531	11542	2
11534	11532	11540	11533	2
11531	11530	11542	11532	2
11532	11533	11531	11536	2
11534	11533	11535	11537	2
11530	11535	11531	11538	2
11535	11530	11534	11539	2
12243	5734	12231	12242	2
12241	6128	12233	12240	2
12232	12230	12242	12231	2
12233	12234	12240	12232	2
12233	12232	12231	12236	2
12230	12235	12231	12238	2
12234	12233	12235	12237	2
12235	12234	12230	12239	2
13517	9031	13505	13516	2
13515	10607	13507	13514	2
13506	13504	13516	13505	2
13507	13506	13514	13508	2
13506	13505	13507	13510	2
13504	13505	13509	13512	2
13508	13507	13509	13511	2
13509	13508	13504	13513	2
2989	6997	2981	2988	2
2992	2979	2991	2990	2
2981	2982	2988	2980	2
2979	2980	2990	2978	2
2980	2979	2981	2984	2
2982	2981	2983	2985	2
2978	2983	2979	2986	2
2983	2982	2978	2987	2
8653	5704	8641	8652	2
8651	8660	8643	8650	2
8640	8642	8652	8641	2
8643	8644	8650	8642	2
8642	8643	8641	8646	2
8640	8645	8641	8648	2
8644	8645	8643	8647	2
8645	8644	8640	8649	2
5677	5684	5665	5676	2
5675	4671	5667	5674	2
5666	5664	5676	5665	2
5666	5668	5674	5667	2
5666	5665	5667	5670	2
5664	5665	5669	5672	2
5668	5667	5669	5671	2
5669	5664	5668	5673	2
1886	10708	1874	1885	2
1884	1887	1876	1883	2
1874	1873	1885	1875	2
1877	1875	1883	1876	2
1875	1876	1874	1879	2
1873	1874	1878	1881	2
1877	1876	1878	1880	2
1878	1877	1873	1882	2
5999	7186	5987	5998	2
5997	6006	5989	5996	2
5986	5988	5998	5987	2
5989	5988	5996	5990	2
5988	5989	5987	5992	2
5986	5991	5987	5994	2
5990	5989	5991	5993	2
5991	5990	5986	5995	2
13755	634	13743	13754	2
13753	1578	13745	13752	2
13744	13742	13754	13743	2
13744	13746	13752	13745	2
13744	13743	13745	13748	2
13742	13747	13743	13750	2
13746	13747	13745	13749	2
13747	13746	13742	13751	2
2899	6506	2891	2898	2
2901	2889	2902	2900	2
2891	2890	2898	2892	2
2889	2890	2900	2888	2
2890	2891	2889	2894	2
2892	2893	2891	2895	2
2888	2889	2893	2896	2
2893	2892	2888	2897	2
9266	9273	9254	9265	2
9264	4636	9256	9263	2
9253	9255	9265	9254	2
9257	9255	9263	9256	2
9255	9254	9256	9259	2
9253	9258	9254	9261	2
9257	9256	9258	9260	2
9258	9257	9253	9262	2
5456	4918	5448	5455	2
5458	5465	5446	5457	2
5447	5449	5455	5448	2
5447	5445	5457	5446	2
5447	5448	5446	5451	2
5449	5448	5450	5452	2
5445	5446	5450	5453	2
5450	5445	5449	5454	2
13055	7672	13043	13054	2
13053	10767	13045	13052	2
13044	13042	13054	13043	2
13045	13044	13052	13046	2
13044	13045	13043	13048	2
13042	13043	13047	13050	2
13046	13045	13047	13049	2
13047	13046	13042	13051	2
12383	9336	12371	12382	2
12381	5939	12373	12380	2
12372	12370	12382	12371	2
12373	12372	12380	12374	2
12371	12372	12373	12376	2
12370	12371	12375	12378	2
12374	12375	12373	12377	2
12375	12374	12370	12379	2
10784	6938	10772	10783	2
10782	10791	10774	10781	2
10773	10771	10783	10772	2
10773	10775	10781	10774	2
10773	10774	10772	10777	2
10771	10776	10772	10779	2
10775	10774	10776	10778	2
10776	10775	10771	10780	2
2781	2769	2782	2780	2
2779	5368	2771	2778	2
2768	2770	2780	2769	2
2771	2772	2778	2770	2
2770	2771	2769	2774	2
2768	2769	2773	2776	2
2772	2771	2773	2775	2
2773	2772	2768	2777	2
13447	9789	13435	13446	2
13445	8798	13437	13444	2
13435	13436	13446	13434	2
13437	13436	13444	13438	2
13436	13437	13435	13440	2
13434	13439	13435	13442	2
13438	13439	13437	13441	2
13439	13438	13434	13443	2
9702	9761	9694	9701	2
9704	9711	9692	9703	2
9694	9695	9701	9693	2
9691	9693	9703	9692	2
9693	9692	9694	9697	2
9695	9694	9696	9698	2
9691	9696	9692	9699	2
9696	9695	9691	9700	2
11207	3858	11195	11206	2
11205	6551	11197	11204	2
11196	11194	11206	11195	2
11197	11198	11204	11196	2
11196	11197	11195	11200	2
11194	11195	11199	11202	2
11198	11197	11199	11201	2
11199	11194	11198	11203	2
11471	9847	11463	11470	2
11473	4337	11461	11472	2
11462	11464	11470	11463	2
11461	11462	11472	11460	2
11462	11461	11463	11466	2
11464	11465	11463	11467	2
11460	11465	11461	11468	2
11465	11460	11464	11469	2
2632	2619	2631	2630	2
2629	4235	2621	2628	2
2619	2620	2630	2618	2
2621	2622	2628	2620	2
2620	2619	2621	2624	2
2618	2623	2619	2626	2
2622	2623	2621	2625	2
2623	2622	2618	2627	2
3096	3084	3097	3095	2
3094	8050	3086	3093	2
3084	3085	3095	3083	2
3086	3085	3093	3087	2
3085	3084	3086	3089	2
3083	3084	3088	3091	2
3087	3088	3086	3090	2
3088	3083	3087	3092	2
13293	8242	13281	13292	2
13291	9104	13283	13290	2
13280	13282	13292	13281	2
13283	13282	13290	13284	2
13282	13281	13283	13286	2
13280	13281	13285	13288	2
13284	13283	13285	13287	2
13285	13284	13280	13289	2
5750	7220	5738	5749	2
5748	5757	5740	5747	2
5739	5737	5749	5738	2
5740	5741	5747	5739	2
5739	5740	5738	5743	2
5737	5742	5738	5745	2
5741	5740	5742	5744	2
5742	5741	5737	5746	2
9748	9755	9736	9747	2
9746	8417	9738	9745	2
9737	9735	9747	9736	2
9739	9737	9745	9738	2
9737	9738	9736	9741	2
9735	9740	9736	9743	2
9739	9738	9740	9742	2
9740	9735	9739	9744	2
10257	10264	10245	10256	2
10255	7992	10247	10254	2
10246	10244	10256	10245	2
10248	10246	10254	10247	2
10246	10245	10247	10250	2
10245	10249	10244	10252	2
10248	10249	10247	10251	2
10249	10248	10244	10253	2
12915	7352	12903	12914	2
12913	9964	12905	12912	2
12902	12904	12914	12903	2
12905	12906	12912	12904	2
12904	12905	12903	12908	2
12902	12907	12903	12910	2
12906	12905	12907	12909	2
12907	12902	12906	12911	2
3004	7278	2996	3003	2
3006	2994	3007	3005	2
2996	2995	3003	2997	2
2995	2993	3005	2994	2
2995	2996	2994	2999	2
2997	2998	2996	3000	2
2993	2994	2998	3001	2
2998	2997	2993	3002	2
10182	8855	10174	10181	2
10184	10191	10172	10183	2
10173	10175	10181	10174	2
10171	10173	10183	10172	2
10173	10174	10172	10177	2
10175	10174	10176	10178	2
10171	10176	10172	10179	2
10176	10175	10171	10180	2
2842	2829	2841	2840	2
2839	5699	2831	2838	2
2830	2828	2840	2829	2
2830	2832	2838	2831	2
2830	2831	2829	2834	2
2828	2833	2829	2836	2
2832	2833	2831	2835	2
2833	2832	2828	2837	2
4803	4825	4791	4802	2
4801	4810	4793	4800	2
4791	4792	4802	4790	2
4792	4794	4800	4793	2
4792	4791	4793	4796	2
4790	4795	4791	4798	2
4794	4793	4795	4797	2
4795	4790	4794	4799	2
6261	6448	6249	6260	2
6259	6268	6251	6258	2
6249	6250	6260	6248	2
6251	6250	6258	6252	2
6250	6251	6249	6254	2
6248	6249	6253	6256	2
6252	6251	6253	6255	2
6253	6252	6248	6257	2
12579	1787	12567	12578	2
12577	6288	12569	12576	2
12566	12568	12578	12567	2
12568	12570	12576	12569	2
12568	12569	12567	12572	2
12566	12571	12567	12574	2
12570	12571	12569	12573	2
12571	12566	12570	12575	2
5721	9818	5709	5720	2
5719	5728	5711	5718	2
5708	5710	5720	5709	2
5711	5712	5718	5710	2
5710	5711	5709	5714	2
5708	5713	5709	5716	2
5712	5711	5713	5715	2
5713	5712	5708	5717	2
8434	5426	8422	8433	2
8432	8441	8424	8431	2
8422	8421	8433	8423	2
8424	8423	8431	8425	2
8423	8424	8422	8427	2
8421	8426	8422	8429	2
8425	8424	8426	8428	2
8426	8421	8425	8430	2
1933	1921	1934	1932	2
1931	1909	1923	1930	2
1922	1920	1932	1921	2
1924	1922	1930	1923	2
1922	1921	1923	1926	2
1920	1925	1921	1928	2
1924	1925	1923	1927	2
1925	1924	1920	1929	2
7135	6390	7123	7134	2
7133	7147	7125	7132	2
7124	7122	7134	7123	2
7125	7126	7132	7124	2
7124	7125	7123	7128	2
7122	7127	7123	7130	2
7126	7127	7125	7129	2
7127	7122	7126	7131	2
5385	5392	5373	5384	2
5383	10635	5375	5382	2
5372	5374	5384	5373	2
5375	5376	5382	5374	2
5374	5373	5375	5378	2
5372	5373	5377	5380	2
5376	5377	5375	5379	2
5377	5372	5376	5381	2
12649	7118	12637	12648	2
12647	6478	12639	12646	2
12636	12638	12648	12637	2
12638	12640	12646	12639	2
12638	12637	12639	12642	2
12636	12641	12637	12644	2
12640	12639	12641	12643	2
12641	12636	12640	12645	2
7383	9366	7371	7382	2
7381	7390	7373	7380	2
7371	7370	7382	7372	2
7372	7374	7380	7373	2
7372	7373	7371	7376	2
7370	7371	7375	7378	2
7374	7375	7373	7377	2
7375	7374	7370	7379	2
10155	1317	10143	10154	2
10153	10162	10145	10152	2
10144	10142	10154	10143	2
10144	10146	10152	10145	2
10144	10145	10143	10148	2
10142	10143	10147	10150	2
10146	10145	10147	10149	2
10147	10146	10142	10151	2
11935	5180	11923	11934	2
11933	2275	11925	11932	2
11922	11924	11934	11923	2
11924	11926	11932	11925	2
11924	11925	11923	11928	2
11922	11927	11923	11930	2
11926	11927	11925	11929	2
11927	11922	11926	11931	2
8624	8631	8612	8623	2
8622	9308	8614	8621	2
8612	8611	8623	8613	2
8614	8613	8621	8615	2
8613	8614	8612	8617	2
8611	8612	8616	8619	2
8615	8616	8614	8618	2
8616	8615	8611	8620	2
6144	7361	6132	6143	2
6142	6151	6134	6141	2
6133	6131	6143	6132	2
6133	6135	6141	6134	2
6133	6132	6134	6137	2
6131	6136	6132	6139	2
6136	6134	6135	6138	2
6136	6135	6131	6140	2
11863	5064	11855	11862	2
11865	10520	11853	11864	2
11855	11854	11862	11856	2
11853	11854	11864	11852	2
11854	11855	11853	11858	2
11856	11855	11857	11859	2
11852	11853	11857	11860	2
11857	11856	11852	11861	2
6975	6982	6963	6974	2
6973	5019	6965	6972	2
6964	6962	6974	6963	2
6965	6966	6972	6964	2
6964	6963	6965	6968	2
6962	6967	6963	6970	2
6966	6967	6965	6969	2
6967	6966	6962	6971	2
4222	4229	4210	4221	2
4220	7308	4212	4219	2
4210	4209	4221	4211	2
4212	4213	4219	4211	2
4211	4210	4212	4215	2
4209	4210	4214	4217	2
4213	4214	4212	4216	2
4214	4213	4209	4218	2
8843	8850	8831	8842	2
8841	9594	8833	8840	2
8831	8832	8842	8830	2
8833	8832	8840	8834	2
8832	8833	8831	8836	2
8830	8835	8831	8838	2
8834	8833	8835	8837	2
8835	8834	8830	8839	2
6494	6507	6482	6493	2
6492	9716	6484	6491	2
6482	6483	6493	6481	2
6485	6483	6491	6484	2
6483	6482	6484	6487	2
6481	6482	6486	6489	2
6485	6486	6484	6488	2
6486	6485	6481	6490	2
10097	5470	10085	10096	2
10095	10109	10087	10094	2
10085	10086	10096	10084	2
10086	10088	10094	10087	2
10086	10085	10087	10090	2
10084	10089	10085	10092	2
10088	10087	10089	10091	2
10089	10084	10088	10093	2
12955	1396	12947	12954	2
12957	7395	12945	12956	2
12947	12946	12954	12948	2
12944	12946	12956	12945	2
12946	12945	12947	12950	2
12948	12947	12949	12951	2
12944	12945	12949	12952	2
12949	12944	12948	12953	2
8887	10235	8875	8886	2
8885	8894	8877	8884	2
8876	8874	8886	8875	2
8876	8878	8884	8877	2
8876	8875	8877	8880	2
8874	8875	8879	8882	2
8878	8877	8879	8881	2
8879	8874	8878	8883	2
9119	10167	9111	9118	2
9121	9128	9109	9120	2
9111	9112	9118	9110	2
9110	9108	9120	9109	2
9110	9109	9111	9114	2
9112	9113	9111	9115	2
9108	9109	9113	9116	2
9113	9108	9112	9117	2
13419	8769	13407	13418	2
13417	1011	13409	13416	2
13408	13406	13418	13407	2
13409	13410	13416	13408	2
13408	13407	13409	13412	2
13406	13407	13411	13414	2
13410	13411	13409	13413	2
13411	13410	13406	13415	2
3484	9731	3476	3483	2
3487	3474	3486	3485	2
3476	3477	3483	3475	2
3475	3473	3485	3474	2
3475	3474	3476	3479	2
3477	3478	3476	3480	2
3473	3478	3474	3481	2
3478	3473	3477	3482	2
12551	9046	12539	12550	2
12549	6274	12541	12548	2
12539	12538	12550	12540	2
12542	12540	12548	12541	2
12540	12539	12541	12544	2
12538	12539	12543	12546	2
12542	12541	12543	12545	2
12543	12538	12542	12547	2
13279	10269	13267	13278	2
13277	8226	13269	13276	2
13267	13268	13278	13266	2
13269	13270	13276	13268	2
13268	13269	13267	13272	2
13266	13267	13271	13274	2
13270	13271	13269	13273	2
13271	13270	13266	13275	2
7834	7841	7822	7833	2
7832	6332	7824	7831	2
7822	7823	7833	7821	2
7823	7825	7831	7824	2
7823	7824	7822	7827	2
7821	7826	7822	7829	2
7826	7825	7824	7828	2
7826	7825	7821	7830	2
12173	5865	12161	12172	2
12171	5603	12163	12170	2
12162	12160	12172	12161	2
12164	12162	12170	12163	2
12162	12163	12161	12166	2
12160	12161	12165	12168	2
12164	12163	12165	12167	2
12165	12160	12164	12169	2
11431	6959	11419	11430	2
11429	4249	11421	11428	2
11419	11418	11430	11420	2
11422	11420	11428	11421	2
11420	11421	11419	11424	2
11418	11419	11423	11426	2
11422	11421	11423	11425	2
11423	11418	11422	11427	2
13335	8345	13323	13334	2
13333	494	13325	13332	2
13322	13324	13334	13323	2
13325	13326	13332	13324	2
13324	13323	13325	13328	2
13322	13327	13323	13330	2
13326	13327	13325	13329	2
13327	13322	13326	13331	2
4774	2228	4762	4773	2
4772	4781	4764	4771	2
4763	4761	4773	4762	2
4763	4765	4771	4764	2
4763	4762	4764	4767	2
4766	4762	4761	4769	2
4765	4766	4764	4768	2
4766	4761	4765	4770	2
192	170	180	191	2
190	6289	182	189	2
180	181	191	179	2
181	183	189	182	2
181	180	182	185	2
179	180	184	187	2
183	184	182	186	2
184	183	179	188	2
5414	5421	5402	5413	2
5412	9688	5404	5411	2
5402	5403	5413	5401	2
5404	5405	5411	5403	2
5403	5402	5404	5407	2
5401	5402	5406	5409	2
5405	5406	5404	5408	2
5406	5405	5401	5410	2
6173	10972	6161	6172	2
6171	6180	6163	6170	2
6162	6160	6172	6161	2
6164	6162	6170	6163	2
6162	6163	6161	6166	2
6160	6161	6165	6168	2
6164	6165	6163	6167	2
6165	6160	6164	6169	2
2677	2664	2676	2675	2
2674	4497	2666	2673	2
2664	2665	2675	2663	2
2666	2667	2673	2665	2
2665	2664	2666	2669	2
2663	2664	2668	2671	2
2667	2668	2666	2670	2
2668	2667	2663	2672	2
12677	6550	12665	12676	2
12675	8124	12667	12674	2
12665	12664	12676	12666	2
12666	12668	12674	12667	2
12666	12667	12665	12670	2
12664	12665	12669	12672	2
12668	12667	12669	12671	2
12669	12668	12664	12673	2
3741	3729	3742	3740	2
3739	2047	3731	3738	2
3729	3728	3740	3730	2
3731	3730	3738	3732	2
3730	3731	3729	3734	2
3728	3733	3729	3736	2
3731	3733	3732	3735	2
3728	3732	3733	3737	2
13251	8211	13239	13250	2
13249	1853	13241	13248	2
13239	13240	13250	13238	2
13241	13240	13248	13242	2
13240	13239	13241	13244	2
13238	13243	13239	13246	2
13242	13243	13241	13245	2
13243	13238	13242	13247	2
2734	5063	2726	2733	2
2737	2724	2736	2735	2
2726	2727	2733	2725	2
2723	2725	2735	2724	2
2725	2724	2726	2729	2
2727	2726	2728	2730	2
2723	2728	2724	2731	2
2728	2723	2727	2732	2
9675	10196	9663	9674	2
9673	9682	9665	9672	2
9663	9664	9674	9662	2
9665	9664	9672	9666	2
9664	9665	9663	9668	2
9662	9663	9667	9670	2
9666	9665	9667	9669	2
9667	9666	9662	9671	2
12255	5762	12247	12254	2
12257	7221	12245	12256	2
12247	12246	12254	12248	2
12245	12244	12256	12246	2
12246	12245	12247	12250	2
12248	12249	12247	12251	2
12244	12245	12249	12252	2
12249	12244	12248	12253	2
13069	9244	13057	13068	2
13067	7759	13059	13066	2
13057	13056	13068	13058	2
13060	13058	13066	13059	2
13058	13057	13059	13062	2
13056	13057	13061	13064	2
13060	13061	13059	13063	2
13061	13056	13060	13065	2
6436	4439	6424	6435	2
6434	6443	6426	6433	2
6424	6423	6435	6425	2
6427	6425	6433	6426	2
6425	6426	6424	6429	2
6423	6424	6428	6431	2
6427	6428	6426	6430	2
6428	6427	6423	6432	2
6771	10241	6759	6770	2
6769	6778	6761	6768	2
6759	6758	6770	6760	2
6761	6762	6768	6760	2
6760	6759	6761	6764	2
6758	6763	6759	6766	2
6762	6761	6763	6765	2
6763	6762	6758	6767	2
2794	5436	2786	2793	2
2796	2784	2797	2795	2
2786	2785	2793	2787	2
2784	2785	2795	2783	2
2785	2784	2786	2789	2
2787	2786	2788	2790	2
2783	2788	2784	2791	2
2788	2783	2787	2792	2
1611	6361	1599	1610	2
1609	1612	1601	1608	2
1598	1600	1610	1599	2
1601	1600	1608	1602	2
1600	1599	1601	1604	2
1599	1598	1603	1606	2
1602	1603	1601	1605	2
1602	1603	1598	1607	2
7295	7302	7283	7294	2
7293	8694	7285	7292	2
7282	7284	7294	7283	2
7284	7286	7292	7285	2
7284	7283	7285	7288	2
7282	7287	7283	7290	2
7286	7285	7287	7289	2
7287	7282	7286	7291	2
12481	10489	12469	12480	2
12479	6157	12471	12478	2
12469	12468	12480	12470	2
12472	12470	12478	12471	2
12470	12469	12471	12474	2
12468	12473	12469	12476	2
12472	12471	12473	12475	2
12473	12472	12468	12477	2
1139	1117	1131	1138	2
1141	6710	1129	1140	2
1131	1132	1138	1130	2
1129	1128	1140	1130	2
1130	1131	1129	1134	2
1132	1131	1133	1135	2
1128	1129	1133	1136	2
1133	1132	1128	1137	2
11277	4032	11265	11276	2
11275	6783	11267	11274	2
11264	11266	11276	11265	2
11266	11268	11274	11267	2
11266	11265	11267	11270	2
11264	11265	11269	11272	2
11268	11269	11267	11271	2
11264	11269	11268	11273	2
1032	1033	1020	1031	2
1030	1142	1022	1029	2
1019	1021	1031	1020	2
1021	1023	1029	1022	2
1021	1020	1022	1025	2
1019	1020	1024	1027	2
1023	1022	1024	1026	2
1024	1019	1023	1028	2
13167	8520	13155	13166	2
13165	8094	13157	13164	2
13156	13154	13166	13155	2
13157	13156	13164	13158	2
13156	13157	13155	13160	2
13154	13159	13155	13162	2
13158	13159	13157	13161	2
13159	13154	13158	13163	2
8256	8265	8248	8255	2
8258	11041	8246	8257	2
8249	8247	8255	8248	2
8246	8247	8257	8245	2
8247	8246	8248	8251	2
8249	8248	8250	8252	2
8245	8250	8246	8253	2
8250	8249	8245	8254	2
9324	9331	9312	9323	2
9322	9134	9314	9321	2
9313	9311	9323	9312	2
9314	9313	9321	9315	2
9313	9314	9312	9317	2
9311	9312	9316	9319	2
9315	9316	9314	9318	2
9316	9315	9311	9320	2
5852	8227	5840	5851	2
5850	5859	5842	5849	2
5840	5839	5851	5841	2
5843	5841	5849	5842	2
5841	5842	5840	5845	2
5839	5844	5840	5847	2
5843	5842	5844	5846	2
5844	5839	5843	5848	2
2857	2844	2856	2855	2
2854	5733	2846	2853	2
2845	2843	2855	2844	2
2845	2847	2853	2846	2
2845	2844	2846	2849	2
2843	2844	2848	2851	2
2847	2846	2848	2850	2
2848	2847	2843	2852	2
4847	4854	4835	4846	2
4845	10298	4837	4844	2
4836	4834	4846	4835	2
4837	4836	4844	4838	2
4836	4835	4837	4840	2
4834	4839	4835	4842	2
4838	4839	4837	4841	2
4839	4838	4834	4843	2
7017	6420	7009	7016	2
7019	7026	7007	7018	2
7009	7010	7016	7008	2
7006	7008	7018	7007	2
7008	7009	7007	7012	2
7010	7009	7011	7013	2
7006	7011	7007	7014	2
7011	7006	7010	7015	2
12495	6185	12483	12494	2
12493	9760	12485	12492	2
12483	12482	12494	12484	2
12484	12486	12492	12485	2
12484	12485	12483	12488	2
12482	12487	12483	12490	2
12486	12487	12485	12489	2
12487	12482	12486	12491	2
9179	9186	9167	9178	2
9177	10549	9169	9176	2
9166	9168	9178	9167	2
9168	9170	9176	9169	2
9168	9167	9169	9172	2
9166	9171	9167	9174	2
9170	9171	9169	9173	2
9171	9170	9166	9175	2
7660	7667	7648	7659	2
7658	10514	7650	7657	2
7648	7649	7659	7647	2
7650	7651	7657	7649	2
7649	7650	7648	7653	2
7647	7652	7648	7655	2
7651	7652	7650	7654	2
7652	7647	7651	7656	2
3424	9512	3416	3423	2
3427	3414	3426	3425	2
3416	3417	3423	3415	2
3415	3413	3425	3414	2
3415	3416	3414	3419	2
3417	3416	3418	3420	2
3413	3414	3418	3421	2
3418	3417	3413	3422	2
11823	6886	11811	11822	2
11821	4947	11813	11820	2
11811	11812	11822	11810	2
11813	11812	11820	11814	2
11812	11813	11811	11816	2
11815	11811	11810	11818	2
11814	11815	11813	11817	2
11815	11810	11814	11819	2
3724	11134	3716	3723	2
3726	3714	3727	3725	2
3716	3715	3723	3717	2
3714	3713	3725	3715	2
3715	3714	3716	3719	2
3717	3718	3716	3720	2
3713	3714	3718	3721	2
3718	3717	3713	3722	2
3457	3444	3456	3455	2
3454	9556	3446	3453	2
3443	3445	3455	3444	2
3447	3445	3453	3446	2
3445	3446	3444	3449	2
3443	3448	3444	3451	2
3447	3446	3448	3450	2
3448	3443	3447	3452	2
2203	2206	2195	2202	2
2205	9521	2193	2204	2
2195	2196	2202	2194	2
2192	2194	2204	2193	2
2194	2195	2193	2198	2
2196	2195	2197	2199	2
2192	2197	2193	2200	2
2197	2192	2196	2201	2
3845	7463	3833	3844	2
3843	3852	3835	3842	2
3832	3834	3844	3833	2
3835	3836	3842	3834	2
3834	3835	3833	3838	2
3832	3837	3833	3840	2
3836	3837	3835	3839	2
3837	3832	3836	3841	2
12425	6419	12413	12424	2
12423	5982	12415	12422	2
12414	12412	12424	12413	2
12415	12414	12422	12416	2
12414	12415	12413	12418	2
12412	12413	12417	12420	2
12416	12417	12415	12419	2
12417	12412	12416	12421	2
8478	9404	8466	8477	2
8476	8485	8468	8475	2
8466	8465	8477	8467	2
8468	8467	8475	8469	2
8467	8468	8466	8471	2
8465	8470	8466	8473	2
8469	8470	8468	8472	2
8470	8465	8469	8474	2
11725	4786	11713	11724	2
11723	10548	11715	11722	2
11712	11714	11724	11713	2
11716	11714	11722	11715	2
11714	11715	11713	11718	2
11712	11717	11713	11720	2
11716	11717	11715	11719	2
11717	11712	11716	11721	2
13405	8637	13393	13404	2
13403	10440	13395	13402	2
13393	13392	13404	13394	2
13395	13394	13402	13396	2
13394	13395	13393	13398	2
13392	13397	13393	13400	2
13396	13397	13395	13399	2
13397	13392	13396	13401	2
3079	7789	3071	3078	2
3081	3069	3082	3080	2
3070	3072	3078	3071	2
3070	3069	3080	3068	2
3069	3071	3070	3074	2
3072	3071	3073	3075	2
3068	3073	3069	3076	2
3073	3068	3072	3077	2
3592	3579	3591	3590	2
3589	10752	3581	3588	2
3580	3578	3590	3579	2
3580	3582	3588	3581	2
3580	3581	3579	3584	2
3578	3583	3579	3586	2
3582	3583	3581	3585	2
3583	3582	3578	3587	2
12033	7788	12021	12032	2
12031	5442	12023	12030	2
12020	12022	12032	12021	2
12024	12022	12030	12023	2
12022	12023	12021	12026	2
12020	12025	12021	12028	2
12024	12023	12025	12027	2
12025	12020	12024	12029	2
13137	8593	13129	13136	2
13139	7949	13127	13138	2
13130	13128	13136	13129	2
13127	13126	13138	13128	2
13128	13129	13127	13132	2
13130	13129	13131	13133	2
13126	13127	13131	13134	2
13131	13130	13126	13135	2
6028	6035	6016	6027	2
6026	6283	6018	6025	2
6017	6015	6027	6016	2
6018	6019	6025	6017	2
6017	6016	6018	6021	2
6015	6020	6016	6023	2
6019	6020	6018	6022	2
6020	6019	6015	6024	2
3514	9891	3506	3513	2
3517	3504	3516	3515	2
3507	3505	3513	3506	2
3503	3505	3515	3504	2
3505	3506	3504	3509	2
3507	3506	3508	3510	2
3503	3508	3504	3511	2
3508	3503	3507	3512	2
8405	8412	8393	8404	2
8403	5588	8395	8402	2
8393	8392	8404	8394	2
8395	8394	8402	8396	2
8394	8393	8395	8398	2
8392	8397	8393	8400	2
8396	8397	8395	8399	2
8397	8396	8392	8401	2
7439	8280	7431	7438	2
7441	7448	7429	7440	2
7430	7432	7438	7431	2
7429	7430	7440	7428	2
7430	7431	7429	7434	2
7432	7431	7433	7435	2
7428	7429	7433	7436	2
7433	7432	7428	7437	2
13235	10825	13227	13234	2
13237	8167	13225	13236	2
13228	13226	13234	13227	2
13225	13224	13236	13226	2
13226	13227	13225	13230	2
13228	13227	13229	13231	2
13224	13229	13225	13232	2
13229	13224	13228	13233	2
4571	4578	4559	4570	2
4569	6195	4561	4568	2
4560	4558	4570	4559	2
4561	4562	4568	4560	2
4560	4561	4559	4564	2
4558	4563	4559	4566	2
4562	4563	4561	4565	2
4563	4558	4562	4567	2
13711	11047	13703	13710	2
13713	10898	13701	13712	2
13702	13704	13710	13703	2
13700	13701	13712	13702	2
13702	13703	13701	13706	2
13704	13705	13703	13707	2
13700	13701	13705	13708	2
13705	13700	13704	13709	2
13223	10723	13211	13222	2
13221	8168	13213	13220	2
13211	13210	13222	13212	2
13213	13214	13220	13212	2
13212	13211	13213	13216	2
13210	13215	13211	13218	2
13214	13215	13213	13217	2
13215	13210	13214	13219	2
2008	2017	1996	2007	2
2006	10709	1998	2005	2
1996	1995	2007	1997	2
1999	1997	2005	1998	2
1997	1998	1996	2001	2
1995	1996	2000	2003	2
2000	1998	1999	2002	2
2000	1995	1999	2004	2
12017	5427	12009	12016	2
12019	10358	12007	12018	2
12009	12008	12016	12010	2
12008	12006	12018	12007	2
12008	12007	12009	12012	2
12010	12011	12009	12013	2
12006	12007	12011	12014	2
12011	12010	12006	12015	2
4455	8491	4443	4454	2
4453	4462	4445	4452	2
4442	4444	4454	4443	2
4445	4446	4452	4444	2
4444	4445	4443	4448	2
4442	4447	4443	4450	2
4446	4447	4445	4449	2
4447	4446	4442	4451	2
909	8177	901	908	2
911	912	899	910	2
900	902	908	901	2
900	898	910	899	2
900	901	899	904	2
902	903	901	905	2
898	899	903	906	2
903	902	898	907	2
2887	2874	2886	2885	2
2884	5968	2876	2883	2
2875	2873	2885	2874	2
2876	2875	2883	2877	2
2875	2876	2874	2879	2
2873	2878	2874	2881	2
2877	2876	2878	2880	2
2878	2873	2877	2882	2
5955	5962	5943	5954	2
5953	6245	5945	5952	2
5943	5944	5954	5942	2
5946	5944	5952	5945	2
5944	5945	5943	5948	2
5942	5947	5943	5950	2
5946	5947	5945	5949	2
5947	5942	5946	5951	2
12845	7060	12833	12844	2
12843	10327	12835	12842	2
12832	12834	12844	12833	2
12835	12836	12842	12834	2
12834	12835	12833	12838	2
12832	12833	12837	12840	2
12835	12837	12836	12839	2
12832	12836	12837	12841	2
3634	10943	3626	3633	2
3637	3624	3636	3635	2
3625	3627	3633	3626	2
3625	3623	3635	3624	2
3625	3624	3626	3629	2
3627	3626	3628	3630	2
3623	3628	3624	3631	2
3628	3627	3623	3632	2
3679	10967	3671	3678	2
3681	3669	3682	3680	2
3671	3670	3678	3672	2
3669	3670	3680	3668	2
3670	3669	3671	3674	2
3672	3673	3671	3675	2
3668	3669	3673	3676	2
3673	3668	3672	3677	2
4366	4375	4358	4365	2
4368	10958	4356	4367	2
4358	4357	4365	4359	2
4357	4355	4367	4356	2
4357	4356	4358	4361	2
4359	4358	4360	4362	2
4355	4356	4360	4363	2
4360	4355	4359	4364	2
5619	7760	5607	5618	2
5617	5626	5609	5616	2
5606	5608	5618	5607	2
5610	5608	5616	5609	2
5608	5607	5609	5612	2
5606	5607	5611	5614	2
5610	5611	5609	5613	2
5611	5610	5606	5615	2
1490	6739	1478	1489	2
1488	1491	1480	1487	2
1479	1477	1489	1478	2
1479	1481	1487	1480	2
1479	1478	1480	1483	2
1477	1478	1482	1485	2
1481	1482	1480	1484	2
1482	1481	1477	1486	2
1002	1003	990	1001	2
1000	10372	992	999	2
989	991	1001	990	2
992	993	999	991	2
991	992	990	995	2
989	994	990	997	2
993	994	992	996	2
994	993	989	998	2
653	629	641	652	2
651	2146	643	650	2
641	640	652	642	2
643	644	650	642	2
642	643	641	646	2
640	641	645	648	2
644	643	645	647	2
645	640	644	649	2
11445	8462	11433	11444	2
11443	4278	11435	11442	2
11433	11432	11444	11434	2
11435	11436	11442	11434	2
11434	11433	11435	11438	2
11432	11437	11433	11440	2
11436	11437	11435	11439	2
11437	11432	11436	11441	2
4513	7336	4501	4512	2
4511	4520	4503	4510	2
4502	4500	4512	4501	2
4503	4504	4510	4502	2
4502	4503	4501	4506	2
4500	4501	4505	4508	2
4504	4505	4503	4507	2
4505	4504	4500	4509	2
10679	10688	10671	10678	2
10681	4787	10669	10680	2
10672	10670	10678	10671	2
10670	10668	10680	10669	2
10670	10671	10669	10674	2
10672	10671	10673	10675	2
10668	10669	10673	10676	2
10673	10672	10668	10677	2
6115	10352	6103	6114	2
6113	6122	6105	6112	2
6103	6104	6114	6102	2
6105	6106	6112	6104	2
6104	6103	6105	6108	2
6102	6103	6107	6110	2
6106	6107	6105	6109	2
6107	6106	6102	6111	2
13627	10051	13619	13626	2
13629	10504	13617	13628	2
13619	13620	13626	13618	2
13616	13618	13628	13617	2
13619	13617	13618	13622	2
13620	13619	13621	13623	2
13616	13617	13621	13624	2
13621	13620	13616	13625	2
6798	6807	6790	6797	2
6800	4496	6788	6799	2
6790	6791	6797	6789	2
6788	6787	6799	6789	2
6789	6790	6788	6793	2
6791	6792	6790	6794	2
6787	6792	6788	6795	2
6792	6787	6791	6796	2
13545	10665	13533	13544	2
13543	9365	13535	13542	2
13533	13534	13544	13532	2
13535	13536	13542	13534	2
13534	13535	13533	13538	2
13532	13533	13537	13540	2
13536	13535	13537	13539	2
13537	13532	13536	13541	2
1731	1734	1723	1730	2
1733	8592	1721	1732	2
1723	1724	1730	1722	2
1721	1720	1732	1722	2
1722	1723	1721	1726	2
1724	1725	1723	1727	2
1720	1725	1721	1728	2
1725	1724	1720	1729	2
6727	10046	6715	6726	2
6725	6734	6717	6724	2
6716	6714	6726	6715	2
6718	6716	6724	6717	2
6716	6717	6715	6720	2
6714	6719	6715	6722	2
6718	6717	6719	6721	2
6719	6718	6714	6723	2
363	8236	351	362	2
361	364	353	360	2
350	352	362	351	2
353	354	360	352	2
352	351	353	356	2
350	355	351	358	2
354	355	353	357	2
355	354	350	359	2
3139	8339	3131	3138	2
3141	3129	3142	3140	2
3132	3130	3138	3131	2
3129	3128	3140	3130	2
3130	3131	3129	3134	2
3132	3131	3133	3135	2
3128	3133	3129	3136	2
3133	3132	3128	3137	2
2145	2121	2133	2144	2
2143	4244	2135	2142	2
2133	2132	2144	2134	2
2136	2134	2142	2135	2
2134	2135	2133	2138	2
2132	2137	2133	2140	2
2136	2135	2137	2139	2
2137	2132	2136	2141	2
11151	4250	11139	11150	2
11149	3813	11141	11148	2
11140	11138	11150	11139	2
11140	11142	11148	11141	2
11140	11139	11141	11144	2
11138	11143	11139	11146	2
11142	11141	11143	11145	2
11143	11138	11142	11147	2
2038	2039	2026	2037	2
2036	6098	2028	2035	2
2026	2025	2037	2027	2
2027	2029	2035	2028	2
2027	2028	2026	2031	2
2025	2030	2026	2033	2
2029	2030	2028	2032	2
2030	2029	2025	2034	2
12591	10694	12583	12590	2
12593	6304	12581	12592	2
12584	12582	12590	12583	2
12581	12582	12592	12580	2
12582	12581	12583	12586	2
12584	12583	12585	12587	2
12580	12581	12585	12588	2
12585	12580	12584	12589	2
6902	6909	6890	6901	2
6900	1987	6892	6899	2
6890	6891	6901	6889	2
6892	6893	6899	6891	2
6891	6892	6890	6895	2
6889	6894	6890	6897	2
6893	6894	6892	6896	2
6894	6889	6893	6898	2
11765	8929	11757	11764	2
11767	4830	11755	11766	2
11758	11756	11764	11757	2
11756	11754	11766	11755	2
11756	11755	11757	11760	2
11758	11759	11757	11761	2
11754	11755	11759	11762	2
11759	11754	11758	11763	2
1870	5305	1862	1869	2
1872	1848	1860	1871	2
1862	1863	1869	1861	2
1859	1861	1871	1860	2
1861	1860	1862	1865	2
1864	1863	1862	1866	2
1859	1864	1860	1867	2
1864	1863	1859	1868	2
12117	5544	12105	12116	2
12115	9394	12107	12114	2
12105	12104	12116	12106	2
12107	12108	12114	12106	2
12106	12105	12107	12110	2
12104	12109	12105	12112	2
12108	12109	12107	12111	2
12109	12108	12104	12113	2
3214	8709	3206	3213	2
3216	3204	3217	3215	2
3207	3205	3213	3206	2
3203	3205	3215	3204	2
3205	3206	3204	3209	2
3207	3208	3206	3210	2
3203	3208	3204	3211	2
3208	3207	3203	3212	2
1658	1634	1646	1657	2
1656	9790	1648	1655	2
1647	1645	1657	1646	2
1647	1649	1655	1648	2
1647	1646	1648	1651	2
1645	1646	1650	1653	2
1649	1648	1650	1652	2
1650	1649	1645	1654	2
9004	9011	8992	9003	2
9002	10870	8994	9001	2
8991	8993	9003	8992	2
8994	8993	9001	8995	2
8993	8994	8992	8997	2
8991	8992	8996	8999	2
8995	8996	8994	8998	2
8996	8991	8995	9000	2
12411	8447	12399	12410	2
12409	5983	12401	12408	2
12398	12400	12410	12399	2
12401	12400	12408	12402	2
12400	12401	12399	12404	2
12398	12399	12403	12406	2
12402	12403	12401	12405	2
12403	12402	12398	12407	2
3304	9032	3296	3303	2
3307	3294	3306	3305	2
3296	3297	3303	3295	2
3294	3295	3305	3293	2
3295	3296	3294	3299	2
3297	3298	3296	3300	2
3293	3298	3294	3301	2
3298	3297	3293	3302	2
2647	2634	2646	2645	2
2644	4351	2636	2643	2
2633	2635	2645	2634	2
2636	2635	2643	2637	2
2635	2636	2634	2639	2
2633	2638	2634	2641	2
2637	2638	2636	2640	2
2638	2633	2637	2642	2
2617	2604	2616	2615	2
2614	4031	2606	2613	2
2604	2605	2615	2603	2
2605	2607	2613	2606	2
2605	2606	2604	2609	2
2603	2604	2608	2611	2
2607	2608	2606	2610	2
2608	2607	2603	2612	2
13559	10080	13547	13558	2
13557	9614	13549	13556	2
13547	13548	13558	13546	2
13549	13550	13556	13548	2
13548	13547	13549	13552	2
13546	13547	13551	13554	2
13550	13551	13549	13553	2
13551	13550	13546	13555	2
7324	7331	7312	7323	2
7322	9016	7314	7321	2
7313	7311	7323	7312	2
7313	7315	7321	7314	2
7313	7314	7312	7317	2
7311	7316	7312	7319	2
7315	7316	7314	7318	2
7316	7315	7311	7320	2
13489	9250	13477	13488	2
13487	8973	13479	13486	2
13478	13476	13488	13477	2
13479	13478	13486	13480	2
13478	13477	13479	13482	2
13476	13477	13481	13484	2
13480	13481	13479	13483	2
13481	13480	13476	13485	2
11809	4888	11797	11808	2
11807	5209	11799	11806	2
11796	11798	11808	11797	2
11800	11798	11806	11799	2
11798	11797	11799	11802	2
11796	11797	11801	11804	2
11800	11799	11801	11803	2
11801	11800	11796	11805	2
12523	7527	12511	12522	2
12521	6200	12513	12520	2
12511	12512	12522	12510	2
12513	12512	12520	12514	2
12512	12513	12511	12516	2
12510	12515	12511	12518	2
12514	12513	12515	12517	2
12515	12514	12510	12519	2
7805	7812	7793	7804	2
7803	7914	7795	7802	2
7792	7794	7804	7793	2
7794	7796	7802	7795	2
7794	7795	7793	7798	2
7792	7793	7797	7800	2
7796	7795	7797	7799	2
7797	7792	7796	7801	2
8756	5632	8744	8755	2
8754	8763	8746	8753	2
8744	8743	8755	8745	2
8747	8745	8753	8746	2
8745	8746	8744	8749	2
8743	8748	8744	8751	2
8747	8746	8748	8750	2
8748	8743	8747	8752	2
11179	8285	11167	11178	2
11177	3829	11169	11176	2
11166	11168	11178	11167	2
11170	11168	11176	11169	2
11168	11167	11169	11172	2
11166	11167	11171	11174	2
11170	11169	11171	11173	2
11171	11170	11166	11175	2
4658	4665	4646	4657	2
4656	7497	4648	4655	2
4645	4647	4657	4646	2
4649	4647	4655	4648	2
4647	4646	4648	4651	2
4645	4646	4650	4653	2
4649	4648	4650	4652	2
4650	4649	4645	4654	2
2767	2754	2766	2765	2
2764	5266	2756	2763	2
2754	2755	2765	2753	2
2755	2757	2763	2756	2
2755	2756	2754	2759	2
2753	2758	2754	2761	2
2757	2756	2758	2760	2
2758	2753	2757	2762	2
1520	1521	1508	1519	2
1518	668	1510	1517	2
1508	1509	1519	1507	2
1510	1509	1517	1511	2
1509	1510	1508	1513	2
1507	1512	1508	1515	2
1511	1512	1510	1514	2
1512	1511	1507	1516	2
11333	9468	11321	11332	2
11331	4118	11323	11330	2
11322	11320	11332	11321	2
11323	11322	11330	11324	2
11322	11323	11321	11326	2
11320	11321	11325	11328	2
11324	11323	11325	11327	2
11325	11324	11320	11329	2
4426	4433	4414	4425	2
4424	6040	4416	4423	2
4414	4413	4425	4415	2
4416	4415	4423	4417	2
4415	4414	4416	4419	2
4413	4414	4418	4421	2
4417	4416	4418	4420	2
4418	4413	4417	4422	2
8111	8118	8099	8110	2
8109	5150	8101	8108	2
8099	8098	8110	8100	2
8101	8102	8108	8100	2
8100	8101	8099	8104	2
8098	8099	8103	8106	2
8102	8101	8103	8105	2
8103	8098	8102	8107	2
2931	2919	2932	2930	2
2929	6522	2921	2928	2
2920	2918	2930	2919	2
2921	2922	2928	2920	2
2920	2919	2921	2924	2
2918	2923	2919	2926	2
2922	2923	2921	2925	2
2923	2918	2922	2927	2
7863	7870	7851	7862	2
7861	4060	7853	7860	2
7851	7852	7862	7850	2
7852	7854	7860	7853	2
7852	7851	7853	7856	2
7850	7851	7855	7858	2
7854	7855	7853	7857	2
7855	7854	7850	7859	2
11991	5339	11979	11990	2
11989	9511	11981	11988	2
11978	11980	11990	11979	2
11981	11982	11988	11980	2
11980	11981	11979	11984	2
11978	11979	11983	11986	2
11982	11983	11981	11985	2
11983	11978	11982	11987	2
6829	6836	6817	6828	2
6827	6521	6819	6826	2
6817	6816	6828	6818	2
6819	6818	6826	6820	2
6818	6819	6817	6822	2
6816	6821	6817	6824	2
6820	6819	6821	6823	2
6821	6816	6820	6825	2
333	6064	321	332	2
331	334	323	330	2
320	322	332	321	2
323	324	330	322	2
322	321	323	326	2
320	325	321	328	2
324	325	323	327	2
325	320	324	329	2
11403	4205	11391	11402	2
11401	1438	11393	11400	2
11391	11392	11402	11390	2
11393	11394	11400	11392	2
11392	11393	11391	11396	2
11390	11391	11395	11398	2
11394	11393	11395	11397	2
11395	11390	11394	11399	2
7718	9936	7706	7717	2
7716	7725	7708	7715	2
7705	7707	7717	7706	2
7708	7709	7715	7707	2
7707	7708	7706	7711	2
7705	7710	7706	7713	2
7709	7708	7710	7712	2
7710	7709	7705	7714	2
4484	4491	4472	4483	2
4482	8900	4474	4481	2
4473	4471	4483	4472	2
4475	4473	4481	4474	2
4473	4472	4474	4477	2
4471	4476	4472	4479	2
4475	4476	4474	4478	2
4476	4471	4475	4480	2
13587	11001	13575	13586	2
13585	9848	13577	13584	2
13576	13574	13586	13575	2
13576	13578	13584	13577	2
13576	13575	13577	13580	2
13574	13575	13579	13582	2
13578	13577	13579	13581	2
13579	13578	13574	13583	2
6465	6472	6453	6464	2
6463	8022	6455	6462	2
6452	6454	6464	6453	2
6455	6454	6462	6456	2
6454	6455	6453	6458	2
6452	6457	6453	6460	2
6456	6455	6457	6459	2
6457	6452	6456	6461	2
6320	6327	6308	6319	2
6318	10197	6310	6317	2
6308	6309	6319	6307	2
6310	6311	6317	6309	2
6309	6308	6310	6313	2
6307	6312	6308	6315	2
6311	6312	6310	6314	2
6312	6307	6311	6316	2
3622	3609	3621	3620	2
3619	10927	3611	3618	2
3610	3608	3620	3609	2
3611	3610	3618	3612	2
3609	3611	3610	3614	2
3608	3613	3609	3616	2
3612	3613	3611	3615	2
3613	3612	3608	3617	2
12439	6041	12427	12438	2
12437	10942	12429	12436	2
12426	12428	12438	12427	2
12430	12428	12436	12429	2
12428	12427	12429	12432	2
12426	12431	12427	12434	2
12430	12431	12429	12433	2
12431	12426	12430	12435	2
2495	7346	2483	2494	2
2493	2471	2485	2492	2
2484	2482	2494	2483	2
2484	2486	2492	2485	2
2484	2485	2483	2488	2
2482	2487	2483	2490	2
2486	2487	2485	2489	2
2487	2482	2486	2491	2
2977	2964	2976	2975	2
2974	6880	2966	2973	2
2964	2965	2975	2963	2
2965	2967	2973	2966	2
2965	2964	2966	2969	2
2963	2964	2968	2971	2
2967	2968	2966	2970	2
2968	2967	2963	2972	2
6538	6545	6526	6537	2
6536	8060	6528	6535	2
6527	6525	6537	6526	2
6527	6529	6535	6528	2
6527	6528	6526	6531	2
6525	6526	6530	6533	2
6529	6528	6530	6532	2
6530	6529	6525	6534	2
988	9658	976	987	2
986	964	978	985	2
975	977	987	976	2
979	977	985	978	2
977	978	976	981	2
975	976	980	983	2
979	980	978	982	2
980	979	975	984	2
759	760	747	758	2
757	1279	749	756	2
746	748	758	747	2
748	750	756	749	2
748	747	749	752	2
746	747	751	754	2
750	751	749	753	2
751	750	746	755	2
1306	1309	1298	1305	2
1308	5538	1296	1307	2
1299	1297	1305	1298	2
1296	1297	1307	1295	2
1297	1296	1298	1301	2
1299	1300	1298	1302	2
1295	1296	1300	1303	2
1300	1299	1295	1304	2
3757	3744	3756	3755	2
3754	1457	3746	3753	2
3743	3745	3755	3744	2
3746	3747	3753	3745	2
3745	3746	3744	3749	2
3743	3744	3748	3751	2
3747	3746	3748	3750	2
3748	3743	3747	3752	2
12103	9599	12091	12102	2
12101	5543	12093	12100	2
12090	12092	12102	12091	2
12094	12092	12100	12093	2
12092	12093	12091	12096	2
12090	12095	12091	12098	2
12094	12095	12093	12097	2
12095	12094	12090	12099	2
13319	8564	13311	13318	2
13321	8330	13309	13320	2
13311	13310	13318	13312	2
13308	13310	13320	13309	2
13310	13311	13309	13314	2
13312	13313	13311	13315	2
13308	13313	13309	13316	2
13313	13312	13308	13317	2
12061	5500	12049	12060	2
12059	5689	12051	12058	2
12049	12048	12060	12050	2
12052	12050	12058	12051	2
12050	12051	12049	12054	2
12048	12049	12053	12056	2
12052	12053	12051	12055	2
12053	12048	12052	12057	2
9150	9157	9138	9149	2
9148	4860	9140	9147	2
9138	9137	9149	9139	2
9140	9139	9147	9141	2
9139	9140	9138	9143	2
9137	9138	9142	9145	2
9141	9142	9140	9144	2
9142	9137	9141	9146	2
1171	5772	1159	1170	2
1169	1172	1161	1168	2
1159	1158	1170	1160	2
1160	1162	1168	1161	2
1160	1161	1159	1164	2
1158	1159	1163	1166	2
1162	1161	1163	1165	2
1163	1158	1162	1167	2
12873	7148	12861	12872	2
12871	7366	12863	12870	2
12861	12862	12872	12860	2
12862	12864	12870	12863	2
12862	12861	12863	12866	2
12860	12865	12861	12868	2
12864	12865	12863	12867	2
12865	12864	12860	12869	2
3471	3459	3472	3470	2
3469	9615	3461	3468	2
3459	3458	3470	3460	2
3461	3460	3468	3462	2
3460	3459	3461	3464	2
3458	3459	3463	3466	2
3462	3461	3463	3465	2
3463	3462	3458	3467	2
3049	7536	3041	3048	2
3051	3039	3052	3050	2
3041	3040	3048	3042	2
3040	3038	3050	3039	2
3040	3041	3039	3044	2
3042	3041	3043	3045	2
3038	3039	3043	3046	2
3043	3038	3042	3047	2
12733	6813	12721	12732	2
12731	6682	12723	12730	2
12721	12720	12732	12722	2
12723	12724	12730	12722	2
12722	12723	12721	12726	2
12720	12721	12725	12728	2
12724	12725	12723	12727	2
12725	12720	12724	12729	2
3066	3054	3067	3065	2
3064	7609	3056	3063	2
3053	3055	3065	3054	2
3057	3055	3063	3056	2
3055	3054	3056	3059	2
3053	3058	3054	3061	2
3057	3058	3056	3060	2
3058	3053	3057	3062	2
8082	8089	8070	8081	2
8080	8066	8072	8079	2
8070	8069	8081	8071	2
8071	8073	8079	8072	2
8071	8072	8070	8075	2
8069	8074	8070	8077	2
8073	8074	8072	8076	2
8074	8069	8073	8078	2
12467	6127	12455	12466	2
12465	7031	12457	12464	2
12454	12456	12466	12455	2
12456	12458	12464	12457	2
12456	12455	12457	12460	2
12454	12459	12455	12462	2
12458	12457	12459	12461	2
12459	12458	12454	12463	2
4048	4055	4036	4047	2
4046	8988	4038	4045	2
4036	4037	4047	4035	2
4037	4039	4045	4038	2
4037	4038	4036	4041	2
4035	4040	4036	4043	2
4039	4038	4040	4042	2
4040	4035	4039	4044	2
11711	4757	11699	11710	2
11709	6812	11701	11708	2
11698	11700	11710	11699	2
11701	11702	11708	11700	2
11700	11699	11701	11704	2
11698	11703	11699	11706	2
11702	11701	11703	11705	2
11703	11698	11702	11707	2
9353	9360	9341	9352	2
9351	10168	9343	9350	2
9342	9340	9352	9341	2
9344	9342	9350	9343	2
9342	9341	9343	9346	2
9340	9341	9345	9348	2
9344	9345	9343	9347	2
9345	9344	9340	9349	2
12761	1681	12749	12760	2
12759	6740	12751	12758	2
12748	12750	12760	12749	2
12750	12752	12758	12751	2
12751	12749	12750	12754	2
12748	12749	12753	12756	2
12752	12751	12753	12755	2
12753	12752	12748	12757	2
13769	1957	13757	13768	2
13767	524	13759	13766	2
13756	13758	13768	13757	2
13758	13760	13766	13759	2
13758	13759	13757	13762	2
13756	13761	13757	13764	2
13760	13759	13761	13763	2
13761	13756	13760	13765	2
10477	10484	10465	10476	2
10475	6156	10467	10474	2
10465	10464	10476	10466	2
10467	10468	10474	10466	2
10466	10467	10465	10470	2
10469	10464	10465	10472	2
10468	10469	10467	10471	2
10469	10468	10464	10473	2
9572	9579	9560	9571	2
9570	4119	9562	9569	2
9560	9559	9571	9561	2
9561	9563	9569	9562	2
9561	9562	9560	9565	2
9559	9564	9560	9567	2
9563	9564	9562	9566	2
9564	9559	9563	9568	2
3769	2365	3761	3768	2
3771	3759	3772	3770	2
3761	3760	3768	3762	2
3760	3758	3770	3759	2
3760	3761	3759	3764	2
3762	3761	3763	3765	2
3758	3763	3759	3766	2
3763	3758	3762	3767	2
12453	6070	12441	12452	2
12451	7542	12443	12450	2
12440	12442	12452	12441	2
12443	12444	12450	12442	2
12442	12441	12443	12446	2
12440	12445	12441	12448	2
12444	12443	12445	12447	2
12445	12444	12440	12449	2
13391	8607	13379	13390	2
13389	9629	13381	13388	2
13379	13378	13390	13380	2
13381	13380	13388	13382	2
13380	13381	13379	13384	2
13378	13379	13383	13386	2
13382	13381	13383	13385	2
13383	13382	13378	13387	2
606	607	594	605	2
604	4336	596	603	2
595	593	605	594	2
596	597	603	595	2
595	596	594	599	2
593	598	594	601	2
598	597	596	600	2
598	593	597	602	2
13363	8374	13351	13362	2
13361	8446	13353	13360	2
13351	13350	13362	13352	2
13354	13352	13360	13353	2
13352	13351	13353	13356	2
13350	13355	13351	13358	2
13354	13353	13355	13357	2
13355	13350	13354	13359	2
12899	7978	12891	12898	2
12901	7307	12889	12900	2
12890	12892	12898	12891	2
12890	12888	12900	12889	2
12890	12891	12889	12894	2
12892	12891	12893	12895	2
12888	12889	12893	12896	2
12893	12888	12892	12897	2
2749	5208	2741	2748	2
2751	2739	2752	2750	2
2740	2742	2748	2741	2
2739	2738	2750	2740	2
2740	2739	2741	2744	2
2742	2743	2741	2745	2
2738	2743	2739	2746	2
2743	2742	2738	2747	2
1780	10357	1768	1779	2
1778	1756	1770	1777	2
1768	1767	1779	1769	2
1769	1771	1777	1770	2
1769	1768	1770	1773	2
1767	1772	1768	1775	2
1771	1772	1770	1774	2
1772	1771	1767	1776	2
11063	2534	11051	11062	2
11061	11070	11053	11060	2
11052	11050	11062	11051	2
11053	11052	11060	11054	2
11052	11053	11051	11056	2
11050	11055	11051	11058	2
11054	11053	11055	11057	2
11055	11054	11050	11059	2
897	9163	885	896	2
895	873	887	894	2
886	884	896	885	2
888	886	894	887	2
886	887	885	890	2
884	885	889	892	2
888	887	889	891	2
889	888	884	893	2
3532	3519	3531	3530	2
3529	9993	3521	3528	2
3518	3520	3530	3519	2
3521	3520	3528	3522	2
3520	3521	3519	3524	2
3518	3519	3523	3526	2
3522	3523	3521	3525	2
3523	3522	3518	3527	2
12943	7367	12931	12942	2
12941	8821	12933	12940	2
12932	12930	12942	12931	2
12932	12934	12940	12933	2
12932	12933	12931	12936	2
12930	12931	12935	12938	2
12934	12935	12933	12937	2
12935	12934	12930	12939	2
2433	8418	2421	2432	2
2431	2409	2423	2430	2
2422	2420	2432	2421	2
2423	2422	2430	2424	2
2422	2421	2423	2426	2
2420	2425	2421	2428	2
2424	2425	2423	2427	2
2425	2424	2420	2429	2
9382	9389	9370	9381	2
9380	10796	9372	9379	2
9369	9371	9381	9370	2
9372	9373	9379	9371	2
9371	9372	9370	9375	2
9369	9370	9374	9377	2
9373	9374	9372	9376	2
9374	9369	9373	9378	2
12311	5806	12303	12310	2
12313	8724	12301	12312	2
12303	12302	12310	12304	2
12301	12302	12312	12300	2
12302	12303	12301	12306	2
12305	12304	12303	12307	2
12300	12305	12301	12308	2
12305	12304	12300	12309	2
8199	8206	8187	8198	2
8197	9907	8189	8196	2
8188	8186	8198	8187	2
8188	8190	8196	8189	2
8188	8189	8187	8192	2
8186	8191	8187	8194	2
8190	8191	8189	8193	2
8191	8190	8186	8195	2
13531	9438	13519	13530	2
13529	9105	13521	13528	2
13519	13518	13530	13520	2
13520	13522	13528	13521	2
13520	13519	13521	13524	2
13518	13519	13523	13526	2
13522	13523	13521	13525	2
13523	13518	13522	13527	2
9646	5020	9634	9645	2
9644	9659	9636	9643	2
9634	9635	9645	9633	2
9637	9635	9643	9636	2
9635	9636	9634	9639	2
9633	9638	9634	9641	2
9637	9638	9636	9640	2
9638	9633	9637	9642	2
4019	4026	4007	4018	2
4017	7600	4009	4016	2
4006	4008	4018	4007	2
4010	4008	4016	4009	2
4008	4007	4009	4012	2
4006	4011	4007	4014	2
4010	4011	4009	4013	2
4011	4010	4006	4015	2
8549	2553	8541	8548	2
8551	8558	8539	8550	2
8541	8540	8548	8542	2
8538	8540	8550	8539	2
8540	8539	8541	8544	2
8542	8543	8541	8545	2
8538	8539	8543	8546	2
8543	8538	8542	8547	2
7631	7638	7619	7630	2
7629	7905	7621	7628	2
7619	7620	7630	7618	2
7621	7620	7628	7622	2
7620	7621	7619	7624	2
7618	7623	7619	7626	2
7622	7621	7623	7625	2
7623	7618	7622	7627	2
11753	8928	11741	11752	2
11751	4831	11743	11750	2
11741	11742	11752	11740	2
11742	11744	11750	11743	2
11742	11741	11743	11746	2
11740	11741	11745	11748	2
11744	11745	11743	11747	2
11745	11740	11744	11749	2
11781	9307	11769	11780	2
11779	4859	11771	11778	2
11768	11770	11780	11769	2
11771	11772	11778	11770	2
11770	11771	11769	11774	2
11768	11769	11773	11776	2
11772	11771	11773	11775	2
11773	11772	11768	11777	2
3874	3881	3862	3873	2
3872	9221	3864	3871	2
3863	3861	3873	3862	2
3865	3863	3871	3864	2
3863	3864	3862	3867	2
3861	3866	3862	3869	2
3865	3866	3864	3868	2
3866	3865	3861	3870	2
9455	7919	9443	9454	2
9453	9462	9445	9452	2
9443	9442	9454	9444	2
9445	9444	9452	9446	2
9444	9443	9445	9448	2
9442	9443	9447	9450	2
9446	9447	9445	9449	2
9447	9442	9446	9451	2
4600	4607	4588	4599	2
4598	8182	4590	4597	2
4589	4587	4599	4588	2
4589	4591	4597	4590	2
4589	4588	4590	4593	2
4587	4592	4588	4595	2
4591	4590	4592	4594	2
4592	4587	4591	4596	2
12635	10826	12623	12634	2
12633	6449	12625	12632	2
12623	12624	12634	12622	2
12624	12626	12632	12625	2
12624	12625	12623	12628	2
12622	12627	12623	12630	2
12626	12625	12627	12629	2
12627	12622	12626	12631	2
12887	7249	12875	12886	2
12885	10490	12877	12884	2
12876	12874	12886	12875	2
12877	12878	12884	12876	2
12876	12875	12877	12880	2
12874	12875	12879	12882	2
12879	12877	12878	12881	2
12879	12874	12878	12883	2
714	690	702	713	2
712	6099	704	711	2
702	701	713	703	2
704	703	711	705	2
703	704	702	707	2
701	702	706	709	2
705	704	706	708	2
706	701	705	710	2
12159	2126	12147	12158	2
12157	5587	12149	12156	2
12147	12146	12158	12148	2
12149	12150	12156	12148	2
12148	12147	12149	12152	2
12146	12147	12151	12154	2
12150	12151	12149	12153	2
12151	12150	12146	12155	2
13195	8153	13183	13194	2
13193	2305	13185	13192	2
13183	13182	13194	13184	2
13185	13184	13192	13186	2
13184	13183	13185	13188	2
13182	13187	13183	13190	2
13186	13187	13185	13189	2
13187	13182	13186	13191	2
7266	8456	7254	7265	2
7264	7273	7256	7263	2
7255	7253	7265	7254	2
7255	7257	7263	7256	2
7255	7254	7256	7259	2
7253	7254	7258	7261	2
7257	7258	7256	7260	2
7258	7253	7257	7262	2
13643	10110	13631	13642	2
13641	2395	13633	13640	2
13630	13632	13642	13631	2
13633	13634	13640	13632	2
13632	13631	13633	13636	2
13630	13635	13631	13638	2
13634	13635	13633	13637	2
13635	13634	13630	13639	2
1825	9162	1813	1824	2
1823	1826	1815	1822	2
1813	1812	1824	1814	2
1814	1816	1822	1815	2
1814	1813	1815	1818	2
1812	1813	1817	1820	2
1816	1817	1815	1819	2
1817	1812	1816	1821	2
12299	5777	12287	12298	2
12297	1060	12289	12296	2
12288	12286	12298	12287	2
12289	12290	12296	12288	2
12288	12289	12287	12292	2
12286	12287	12291	12294	2
12290	12289	12291	12293	2
12291	12290	12286	12295	2
1429	1430	1417	1428	2
1427	6953	1419	1426	2
1417	1418	1428	1416	2
1418	1420	1426	1419	2
1418	1419	1417	1422	2
1416	1417	1421	1424	2
1420	1419	1421	1423	2
1421	1416	1420	1425	2
5049	10446	5041	5048	2
5051	5058	5039	5050	2
5041	5042	5048	5040	2
5038	5040	5050	5039	2
5040	5039	5041	5044	2
5042	5041	5043	5045	2
5038	5043	5039	5046	2
5043	5038	5042	5047	2
96	74	84	95	2
94	6987	86	93	2
85	83	95	84	2
86	87	93	85	2
85	84	86	89	2
83	88	84	91	2
87	88	86	90	2
88	83	87	92	2
8785	8792	8773	8784	2
8783	5340	8775	8782	2
8774	8772	8784	8773	2
8776	8774	8782	8775	2
8774	8773	8775	8778	2
8772	8777	8773	8780	2
8776	8777	8775	8779	2
8777	8776	8772	8781	2
1199	1203	1191	1198	2
1201	1189	1202	1200	2
1191	1192	1198	1190	2
1189	1188	1200	1190	2
1190	1191	1189	1194	2
1192	1191	1193	1195	2
1188	1193	1189	1196	2
1193	1192	1188	1197	2
13783	1914	13771	13782	2
13781	726	13773	13780	2
13770	13772	13782	13771	2
13773	13772	13780	13774	2
13772	13771	13773	13776	2
13770	13775	13771	13778	2
13774	13775	13773	13777	2
13775	13770	13774	13779	2
1110	7002	1098	1109	2
1108	1086	1100	1107	2
1098	1099	1109	1097	2
1099	1101	1107	1100	2
1099	1100	1098	1103	2
1097	1102	1098	1105	2
1101	1100	1102	1104	2
1102	1097	1101	1106	2
11669	4700	11657	11668	2
11667	2335	11659	11666	2
11658	11656	11668	11657	2
11659	11658	11666	11660	2
11658	11657	11659	11662	2
11656	11661	11657	11664	2
11660	11659	11661	11663	2
11661	11660	11656	11665	2
9879	9886	9867	9878	2
9877	5909	9869	9876	2
9867	9868	9878	9866	2
9868	9870	9876	9869	2
9868	9867	9869	9872	2
9866	9871	9867	9874	2
9870	9871	9869	9873	2
9871	9870	9866	9875	2
11487	9892	11475	11486	2
11485	4352	11477	11484	2
11474	11476	11486	11475	2
11476	11478	11484	11477	2
11476	11477	11475	11480	2
11474	11475	11479	11482	2
11478	11477	11479	11481	2
11479	11478	11474	11483	2
410	11046	398	409	2
408	386	400	407	2
398	397	409	399	2
400	399	407	401	2
399	398	400	403	2
397	402	398	405	2
401	402	400	404	2
402	397	401	406	2
453	456	445	452	2
455	4381	443	454	2
445	446	452	444	2
443	444	454	442	2
444	443	445	448	2
446	447	445	449	2
442	447	443	450	2
447	442	446	451	2
1476	10367	1464	1475	2
1474	1452	1466	1473	2
1464	1463	1475	1465	2
1466	1467	1473	1465	2
1465	1464	1466	1469	2
1463	1464	1468	1471	2
1467	1468	1466	1470	2
1468	1463	1467	1472	2
836	812	824	835	2
834	573	826	833	2
824	825	835	823	2
826	827	833	825	2
825	824	826	829	2
823	828	824	831	2
827	826	828	830	2
828	827	823	832	2
2706	2694	2707	2705	2
2704	4961	2696	2703	2
2694	2695	2705	2693	2
2696	2695	2703	2697	2
2695	2694	2696	2699	2
2693	2698	2694	2701	2
2697	2698	2696	2700	2
2698	2697	2693	2702	2
128	11129	116	127	2
126	106	118	125	2
117	115	127	116	2
117	119	125	118	2
117	116	118	121	2
115	116	120	123	2
119	118	120	122	2
120	119	115	124	2
3932	7948	3920	3931	2
3930	3939	3922	3929	2
3920	3919	3931	3921	2
3922	3921	3929	3923	2
3921	3920	3922	3925	2
3919	3920	3924	3927	2
3923	3922	3924	3926	2
3924	3919	3923	3928	2
12369	2154	12357	12368	2
12367	5910	12359	12366	2
12357	12358	12368	12356	2
12360	12358	12366	12359	2
12358	12357	12359	12362	2
12356	12361	12357	12364	2
12360	12361	12359	12363	2
12361	12360	12356	12365	2
11893	5093	11881	11892	2
11891	1377	11883	11890	2
11881	11882	11892	11880	2
11884	11882	11890	11883	2
11882	11883	11881	11886	2
11880	11885	11881	11888	2
11884	11883	11885	11887	2
11885	11880	11884	11889	2
10857	10864	10845	10856	2
10855	9017	10847	10854	2
10845	10844	10856	10846	2
10848	10846	10854	10847	2
10846	10847	10845	10850	2
10844	10849	10845	10852	2
10848	10849	10847	10851	2
10849	10844	10848	10853	2
3903	6841	3891	3902	2
3901	3910	3893	3900	2
3891	3890	3902	3892	2
3892	3894	3900	3893	2
3892	3891	3893	3896	2
3890	3891	3895	3898	2
3894	3893	3895	3897	2
3895	3894	3890	3899	2
13097	7846	13085	13096	2
13095	1211	13087	13094	2
13084	13086	13096	13085	2
13086	13088	13094	13087	2
13086	13085	13087	13090	2
13084	13085	13089	13092	2
13088	13089	13087	13091	2
13089	13084	13088	13093	2
13125	7904	13113	13124	2
13123	9191	13115	13122	2
13112	13114	13124	13113	2
13115	13116	13122	13114	2
13113	13115	13114	13118	2
13112	13113	13117	13120	2
13116	13115	13117	13119	2
13117	13112	13116	13121	2
3337	3324	3336	3335	2
3334	9047	3326	3333	2
3323	3325	3335	3324	2
3326	3327	3333	3325	2
3325	3326	3324	3329	2
3323	3324	3328	3331	2
3327	3328	3326	3330	2
3328	3327	3323	3332	2
4745	9527	4733	4744	2
4743	4752	4735	4742	2
4733	4732	4744	4734	2
4736	4734	4742	4735	2
4734	4735	4733	4738	2
4732	4733	4737	4740	2
4736	4737	4735	4739	2
4737	4736	4732	4741	2
11627	4642	11615	11626	2
11625	6244	11617	11624	2
11615	11616	11626	11614	2
11616	11618	11624	11617	2
11616	11615	11617	11620	2
11614	11615	11619	11622	2
11618	11619	11617	11621	2
11619	11614	11618	11623	2
2252	9609	2240	2251	2
2250	2233	2242	2249	2
2240	2239	2251	2241	2
2243	2241	2249	2242	2
2241	2240	2242	2245	2
2239	2244	2240	2247	2
2243	2242	2244	2246	2
2244	2239	2243	2248	2
1948	1949	1936	1947	2
1946	4962	1938	1945	2
1936	1935	1947	1937	2
1938	1937	1945	1939	2
1937	1936	1938	1941	2
1935	1940	1936	1943	2
1939	1938	1940	1942	2
1940	1939	1935	1944	2
11641	8710	11629	11640	2
11639	4670	11631	11638	2
11628	11630	11640	11629	2
11630	11632	11638	11631	2
11630	11629	11631	11634	2
11628	11633	11629	11636	2
11632	11633	11631	11635	2
11633	11628	11632	11637	2
13181	8123	13169	13180	2
13179	9526	13171	13178	2
13169	13168	13180	13170	2
13171	13172	13178	13170	2
13170	13169	13171	13174	2
13168	13169	13173	13176	2
13172	13173	13171	13175	2
13173	13168	13172	13177	2
5196	10081	5184	5195	2
5194	5203	5186	5193	2
5183	5185	5195	5184	2
5187	5185	5193	5186	2
5185	5186	5184	5189	2
5183	5184	5188	5191	2
5187	5188	5186	5190	2
5188	5183	5187	5192	2
12705	8461	12693	12704	2
12703	6609	12695	12702	2
12694	12692	12704	12693	2
12696	12694	12702	12695	2
12694	12695	12693	12698	2
12692	12693	12697	12700	2
12696	12695	12697	12699	2
12697	12696	12692	12701	2
11501	7061	11489	11500	2
11499	4380	11491	11498	2
11489	11490	11500	11488	2
11491	11490	11498	11492	2
11490	11489	11491	11494	2
11488	11493	11489	11496	2
11492	11491	11493	11495	2
11493	11488	11492	11497	2
1550	1559	1538	1549	2
1548	8183	1540	1547	2
1538	1539	1549	1537	2
1541	1539	1547	1540	2
1539	1538	1540	1543	2
1537	1538	1542	1545	2
1541	1542	1540	1544	2
1542	1541	1537	1546	2
6378	6385	6366	6377	2
6376	9584	6368	6375	2
6365	6367	6377	6366	2
6368	6369	6375	6367	2
6367	6368	6366	6371	2
6365	6366	6370	6373	2
6369	6370	6368	6372	2
6370	6365	6369	6374	2
12789	9395	12777	12788	2
12787	6944	12779	12786	2
12777	12776	12788	12778	2
12780	12778	12786	12779	2
12778	12777	12779	12782	2
12776	12777	12781	12784	2
12780	12779	12781	12783	2
12781	12780	12776	12785	2
13153	8270	13141	13152	2
13151	7993	13143	13150	2
13141	13142	13152	13140	2
13144	13142	13150	13143	2
13143	13141	13142	13146	2
13140	13141	13145	13148	2
13144	13145	13143	13147	2
13145	13140	13144	13149	2
13347	8373	13339	13346	2
13349	8972	13337	13348	2
13338	13340	13346	13339	2
13337	13336	13348	13338	2
13338	13339	13337	13342	2
13340	13339	13341	13343	2
13336	13337	13341	13344	2
13341	13340	13336	13345	2
12691	7279	12679	12690	2
12689	6608	12681	12688	2
12679	12678	12690	12680	2
12681	12682	12688	12680	2
12680	12681	12679	12684	2
12678	12683	12679	12686	2
12682	12681	12683	12685	2
12683	12682	12678	12687	2
1230	10417	1222	1229	2
1232	1233	1220	1231	2
1221	1223	1229	1222	2
1219	1221	1231	1220	2
1221	1220	1222	1225	2
1223	1222	1224	1226	2
1219	1220	1224	1227	2
1224	1219	1223	1228	2
7237	7244	7225	7236	2
7235	9624	7227	7234	2
7226	7224	7236	7225	2
7227	7228	7234	7226	2
7226	7227	7225	7230	2
7224	7225	7229	7232	2
7228	7229	7227	7231	2
7229	7224	7228	7233	2
1597	1573	1585	1596	2
1595	1180	1587	1594	2
1586	1584	1596	1585	2
1587	1586	1594	1588	2
1586	1585	1587	1590	2
1584	1589	1585	1592	2
1588	1587	1589	1591	2
1589	1584	1588	1593	2
515	5874	503	514	2
513	516	505	512	2
504	502	514	503	2
504	506	512	505	2
504	505	503	508	2
502	503	507	510	2
506	507	505	509	2
507	506	502	511	2
13027	8870	13015	13026	2
13025	7599	13017	13024	2
13014	13016	13026	13015	2
13017	13016	13024	13018	2
13016	13017	13015	13020	2
13019	13015	13014	13022	2
13018	13017	13019	13021	2
13019	13014	13018	13023	2
8361	8368	8349	8360	2
8359	10139	8351	8358	2
8350	8348	8360	8349	2
8351	8352	8358	8350	2
8350	8351	8349	8354	2
8348	8349	8353	8356	2
8353	8352	8351	8355	2
8353	8348	8352	8357	2
4714	7089	4706	4713	2
4716	4723	4704	4715	2
4707	4705	4713	4706	2
4703	4705	4715	4704	2
4705	4704	4706	4709	2
4707	4706	4708	4710	2
4703	4708	4704	4711	2
4708	4707	4703	4712	2
3694	11119	3686	3693	2
3697	3684	3696	3695	2
3687	3685	3693	3686	2
3684	3683	3695	3685	2
3685	3686	3684	3689	2
3687	3686	3688	3690	2
3683	3688	3684	3691	2
3688	3687	3683	3692	2
12271	10104	12259	12270	2
12269	5763	12261	12268	2
12259	12258	12270	12260	2
12261	12260	12268	12262	2
12260	12261	12259	12264	2
12258	12263	12259	12266	2
12262	12263	12261	12265	2
12263	12262	12258	12267	2
5225	5232	5213	5224	2
5223	8221	5215	5222	2
5214	5212	5224	5213	2
5216	5214	5222	5215	2
5214	5215	5213	5218	2
5212	5217	5213	5220	2
5216	5217	5215	5219	2
5217	5212	5216	5221	2
7689	7696	7677	7688	2
7687	4409	7679	7686	2
7677	7678	7688	7676	2
7678	7680	7686	7679	2
7678	7677	7679	7682	2
7676	7677	7681	7684	2
7680	7679	7681	7683	2
7681	7680	7676	7685	2
9293	464	9285	9292	2
9295	9302	9283	9294	2
9286	9284	9292	9285	2
9283	9284	9294	9282	2
9284	9285	9283	9288	2
9286	9287	9285	9289	2
9282	9287	9283	9290	2
9287	9282	9286	9291	2
2068	2069	2056	2067	2
2066	9026	2058	2065	2
2056	2057	2067	2055	2
2058	2059	2065	2057	2
2057	2058	2056	2061	2
2055	2056	2060	2063	2
2059	2058	2060	2062	2
2060	2059	2055	2064	2
10813	10820	10801	10812	2
10811	7644	10803	10810	2
10800	10802	10812	10801	2
10804	10802	10810	10803	2
10802	10801	10803	10806	2
10800	10805	10801	10808	2
10804	10805	10803	10807	2
10805	10800	10804	10809	2
13111	2445	13099	13110	2
13109	7875	13101	13108	2
13098	13100	13110	13099	2
13102	13100	13108	13101	2
13100	13101	13099	13104	2
13098	13103	13099	13106	2
13102	13103	13101	13105	2
13103	13102	13098	13107	2
13599	9863	13591	13598	2
13601	969	13589	13600	2
13591	13592	13598	13590	2
13590	13588	13600	13589	2
13591	13590	13589	13594	2
13592	13591	13593	13595	2
13588	13593	13589	13596	2
13593	13592	13588	13597	2
11599	4612	11587	11598	2
11597	10973	11589	11596	2
11588	11586	11598	11587	2
11588	11590	11596	11589	2
11588	11589	11587	11592	2
11586	11591	11587	11594	2
11590	11589	11591	11593	2
11591	11590	11586	11595	2
2324	4990	2316	2323	2
2326	2327	2314	2325	2
2317	2315	2323	2316	2
2315	2313	2325	2314	2
2315	2314	2316	2319	2
2317	2316	2318	2320	2
2313	2314	2318	2321	2
2318	2317	2313	2322	2
3801	3808	3789	3800	2
3799	10718	3791	3798	2
3790	3788	3800	3789	2
3790	3792	3798	3791	2
3790	3791	3789	3794	2
3788	3789	3793	3796	2
3792	3793	3791	3795	2
3793	3788	3792	3797	2
13433	8797	13421	13432	2
13431	1271	13423	13430	2
13421	13420	13432	13422	2
13422	13424	13430	13423	2
13422	13421	13423	13426	2
13420	13425	13421	13428	2
13424	13423	13425	13427	2
13425	13424	13420	13429	2
11795	4889	11783	11794	2
11793	11017	11785	11792	2
11783	11782	11794	11784	2
11786	11784	11792	11785	2
11784	11785	11783	11788	2
11782	11783	11787	11790	2
11786	11785	11787	11789	2
11786	11787	11782	11791	2
11739	4816	11727	11738	2
11737	10240	11729	11736	2
11728	11726	11738	11727	2
11729	11728	11736	11730	2
11728	11729	11727	11732	2
11726	11727	11731	11734	2
11730	11729	11731	11733	2
11731	11730	11726	11735	2
941	942	929	940	2
939	5904	931	938	2
928	930	940	929	2
930	932	938	931	2
930	929	931	934	2
928	933	929	936	2
932	931	933	935	2
933	932	928	937	2
6698	6705	6686	6697	2
6696	1122	6688	6695	2
6686	6687	6697	6685	2
6688	6687	6695	6689	2
6687	6688	6686	6691	2
6685	6690	6686	6693	2
6689	6690	6688	6692	2
6690	6689	6685	6694	2
6625	5151	6613	6624	2
6623	6632	6615	6622	2
6613	6614	6624	6612	2
6616	6614	6622	6615	2
6614	6613	6615	6618	2
6612	6617	6613	6620	2
6616	6615	6617	6619	2
6617	6612	6616	6621	2
12397	1499	12385	12396	2
12395	5967	12387	12394	2
12386	12384	12396	12385	2
12387	12388	12394	12386	2
12386	12387	12385	12390	2
12384	12385	12389	12392	2
12388	12387	12389	12391	2
12389	12384	12388	12393	2
3247	3234	3246	3245	2
3244	8865	3236	3243	2
3235	3234	3245	3233	2
3236	3235	3243	3237	2
3235	3236	3234	3239	2
3234	3238	3233	3241	2
3237	3238	3236	3240	2
3238	3237	3233	3242	2
745	721	733	744	2
743	4956	735	742	2
733	734	744	732	2
734	736	742	735	2
734	733	735	738	2
732	737	733	740	2
736	735	737	739	2
737	736	732	741	2
8814	9906	8802	8813	2
8812	8827	8804	8811	2
8803	8801	8813	8802	2
8804	8803	8811	8805	2
8803	8802	8804	8807	2
8806	8802	8801	8809	2
8805	8806	8804	8808	2
8806	8805	8801	8810	2
12537	8051	12525	12536	2
12535	6230	12527	12534	2
12526	12524	12536	12525	2
12526	12528	12534	12527	2
12526	12527	12525	12530	2
12524	12529	12525	12532	2
12528	12527	12529	12531	2
12529	12524	12528	12533	2
7485	9687	7473	7484	2
7483	7492	7475	7482	2
7472	7474	7484	7473	2
7475	7474	7482	7476	2
7474	7475	7473	7478	2
7472	7477	7473	7480	2
7476	7477	7475	7479	2
7477	7476	7472	7481	2
7892	7899	7880	7891	2
7890	7643	7882	7889	2
7879	7881	7891	7880	2
7882	7883	7889	7881	2
7881	7882	7880	7885	2
7879	7884	7880	7887	2
7883	7884	7882	7886	2
7884	7883	7879	7888	2
12747	10342	12735	12746	2
12745	6711	12737	12744	2
12736	12734	12746	12735	2
12738	12736	12744	12737	2
12736	12735	12737	12740	2
12734	12735	12739	12742	2
12738	12739	12737	12741	2
12739	12738	12734	12743	2
160	138	148	159	2
158	6754	150	157	2
147	149	159	148	2
150	151	157	149	2
149	148	150	153	2
147	148	152	155	2
151	150	152	154	2
152	147	151	156	2
11529	4438	11517	11528	2
11527	391	11519	11526	2
11516	11518	11528	11517	2
11519	11520	11526	11518	2
11518	11519	11517	11522	2
11516	11521	11517	11524	2
11520	11519	11521	11523	2
11521	11516	11520	11525	2
1672	7847	1660	1671	2
1670	1673	1662	1669	2
1659	1661	1671	1660	2
1663	1661	1669	1662	2
1662	1660	1661	1665	2
1659	1660	1664	1667	2
1663	1664	1662	1666	2
1664	1659	1663	1668	2
2296	6749	2284	2295	2
2294	2297	2286	2293	2
2284	2283	2295	2285	2
2287	2285	2293	2286	2
2285	2284	2286	2289	2
2283	2284	2288	2291	2
2287	2286	2288	2290	2
2288	2287	2283	2292	2
12817	8739	12805	12816	2
12815	7003	12807	12814	2
12805	12804	12816	12806	2
12806	12808	12814	12807	2
12806	12807	12805	12810	2
12804	12809	12805	12812	2
12809	12807	12808	12811	2
12809	12808	12804	12813	2
3607	3594	3606	3605	2
3604	10768	3596	3603	2
3595	3593	3605	3594	2
3596	3597	3603	3595	2
3595	3596	3594	3599	2
3593	3598	3594	3601	2
3597	3596	3598	3600	2
3598	3593	3597	3602	2
5646	1551	5638	5645	2
5648	5661	5636	5647	2
5637	5639	5645	5638	2
5636	5635	5647	5637	2
5637	5636	5638	5641	2
5639	5638	5640	5642	2
5635	5640	5636	5643	2
5640	5635	5639	5644	2
12999	7565	12987	12998	2
12997	9585	12989	12996	2
12988	12986	12998	12987	2
12988	12990	12996	12989	2
12988	12989	12987	12992	2
12991	12987	12986	12994	2
12990	12991	12989	12993	2
12991	12990	12986	12995	2
5109	5116	5097	5108	2
5107	3886	5099	5106	2
5097	5096	5108	5098	2
5099	5098	5106	5100	2
5098	5099	5097	5102	2
5096	5097	5101	5104	2
5100	5101	5099	5103	2
5101	5096	5100	5105	2
3961	10724	3949	3960	2
3959	3968	3951	3958	2
3948	3950	3960	3949	2
3951	3952	3958	3950	2
3950	3949	3951	3954	2
3948	3953	3949	3956	2
3952	3953	3951	3955	2
3953	3952	3948	3957	2
12187	5660	12175	12186	2
12185	817	12177	12184	2
12174	12176	12186	12175	2
12176	12178	12184	12177	2
12176	12177	12175	12180	2
12174	12175	12179	12182	2
12178	12179	12177	12181	2
12179	12178	12174	12183	2
10068	10075	10056	10067	2
10066	7177	10058	10065	2
10055	10057	10067	10056	2
10058	10059	10065	10057	2
10057	10056	10058	10061	2
10055	10056	10060	10063	2
10059	10060	10058	10062	2
10060	10055	10059	10064	2
12621	6391	12609	12620	2
12619	950	12611	12618	2
12610	12608	12620	12609	2
12610	12612	12618	12611	2
12610	12609	12611	12614	2
12608	12609	12613	12616	2
12612	12613	12611	12615	2
12613	12612	12608	12617	2
9237	10138	9225	9236	2
9235	9249	9227	9234	2
9225	9226	9236	9224	2
9228	9226	9234	9227	2
9226	9225	9227	9230	2
9224	9229	9225	9232	2
9228	9227	9229	9231	2
9229	9228	9224	9233	2
8038	5311	8026	8037	2
8036	8045	8028	8035	2
8025	8027	8037	8026	2
8027	8029	8035	8028	2
8027	8028	8026	8031	2
8025	8030	8026	8033	2
8029	8030	8028	8032	2
8030	8029	8025	8034	2
10126	10133	10114	10125	2
10124	4815	10116	10123	2
10115	10113	10125	10114	2
10116	10117	10123	10115	2
10115	10114	10116	10119	2
10113	10118	10114	10121	2
10117	10116	10118	10120	2
10118	10117	10113	10122	2
9923	1834	9911	9922	2
9921	9930	9913	9920	2
9911	9912	9922	9910	2
9913	9912	9920	9914	2
9912	9911	9913	9916	2
9910	9915	9911	9918	2
9914	9913	9915	9917	2
9915	9914	9910	9919	2
11389	4206	11377	11388	2
11387	7615	11379	11386	2
11376	11378	11388	11377	2
11380	11378	11386	11379	2
11378	11377	11379	11382	2
11376	11381	11377	11384	2
11380	11381	11379	11383	2
11381	11380	11376	11385	2
13727	1742	13715	13726	2
13725	11075	13717	13724	2
13715	13716	13726	13714	2
13716	13718	13724	13717	2
13716	13715	13717	13720	2
13714	13719	13715	13722	2
13718	13717	13719	13721	2
13719	13718	13714	13723	2
2869	5807	2861	2868	2
2871	2859	2872	2870	2
2862	2860	2868	2861	2
2859	2858	2870	2860	2
2860	2861	2859	2864	2
2863	2861	2862	2865	2
2863	2858	2859	2866	2
2863	2862	2858	2867	2
256	234	244	255	2
254	8734	246	253	2
244	243	255	245	2
247	245	253	246	2
245	244	246	249	2
243	244	248	251	2
247	248	246	250	2
248	247	243	252	2
13041	10693	13029	13040	2
13039	7614	13031	13038	2
13028	13029	13040	13030	2
13032	13030	13038	13031	2
13029	13031	13030	13034	2
13029	13033	13028	13036	2
13032	13033	13031	13035	2
13033	13028	13032	13037	2
12859	7142	12847	12858	2
12857	8768	12849	12856	2
12846	12848	12858	12847	2
12850	12848	12856	12849	2
12848	12849	12847	12852	2
12846	12851	12847	12854	2
12850	12851	12849	12853	2
12851	12846	12850	12855	2
13307	695	13295	13306	2
13305	8271	13297	13304	2
13295	13294	13306	13296	2
13297	13296	13304	13298	2
13296	13297	13295	13300	2
13294	13299	13295	13302	2
13298	13299	13297	13301	2
13299	13298	13294	13303	2
2386	2387	2374	2385	2
2384	8162	2376	2383	2
2375	2373	2385	2374	2
2376	2375	2383	2377	2
2375	2376	2374	2379	2
2373	2374	2378	2381	2
2377	2378	2376	2380	2
2378	2373	2377	2382	2
11837	1241	11825	11836	2
11835	4991	11827	11834	2
11825	11826	11836	11824	2
11827	11828	11834	11826	2
11826	11825	11827	11830	2
11824	11825	11829	11832	2
11828	11827	11829	11831	2
11829	11828	11824	11833	2
2916	2904	2917	2915	2
2914	6516	2906	2913	2
2904	2903	2915	2905	2
2906	2907	2913	2905	2
2905	2906	2904	2909	2
2903	2908	2904	2911	2
2907	2906	2908	2910	2
2908	2903	2907	2912	2
13797	2184	13785	13796	2
13795	1895	13787	13794	2
13785	13784	13796	13786	2
13786	13788	13794	13787	2
13786	13785	13787	13790	2
13784	13789	13785	13792	2
13788	13787	13789	13791	2
13789	13784	13788	13793	2
8300	8309	8292	8299	2
8302	9653	8290	8301	2
8292	8291	8299	8293	2
8290	8289	8301	8291	2
8291	8290	8292	8295	2
8293	8292	8294	8296	2
8289	8290	8294	8297	2
8294	8293	8289	8298	2
1368	615	1356	1367	2
1366	1369	1358	1365	2
1356	1355	1367	1357	2
1359	1357	1365	1358	2
1357	1356	1358	1361	2
1355	1356	1360	1363	2
1359	1360	1358	1362	2
1360	1359	1355	1364	2
7412	7419	7400	7411	2
7410	6201	7402	7409	2
7401	7399	7411	7400	2
7402	7403	7409	7401	2
7401	7402	7400	7405	2
7399	7404	7400	7407	2
7403	7402	7404	7406	2
7404	7403	7399	7408	2
11583	7526	11575	11582	2
11585	4583	11573	11584	2
11576	11574	11582	11575	2
11573	11572	11584	11574	2
11574	11573	11575	11578	2
11576	11575	11577	11579	2
11572	11573	11577	11580	2
11577	11572	11576	11581	2
12213	6579	12205	12212	2
12215	5690	12203	12214	2
12205	12206	12212	12204	2
12203	12202	12214	12204	2
12204	12203	12205	12208	2
12206	12205	12207	12209	2
12202	12203	12207	12210	2
12207	12206	12202	12211	2
6217	6224	6205	6216	2
6215	4147	6207	6214	2
6205	6204	6216	6206	2
6207	6208	6214	6206	2
6206	6205	6207	6210	2
6204	6205	6209	6212	2
6209	6208	6207	6211	2
6209	6204	6208	6213	2
4106	4113	4094	4105	2
4104	7730	4096	4103	2
4094	4095	4105	4093	2
4095	4097	4103	4096	2
4095	4096	4094	4099	2
4093	4094	4098	4101	2
4097	4098	4096	4100	2
4098	4097	4093	4102	2
11683	8315	11671	11682	2
11681	4729	11673	11680	2
11672	11670	11682	11671	2
11673	11674	11680	11672	2
11672	11673	11671	11676	2
11670	11675	11671	11678	2
11674	11673	11675	11677	2
11675	11670	11674	11679	2
7965	7972	7953	7964	2
7963	3857	7955	7962	2
7953	7954	7964	7952	2
7955	7956	7962	7954	2
7954	7955	7953	7958	2
7952	7953	7957	7960	2
7956	7957	7955	7959	2
7957	7952	7956	7961	2
4687	6303	4675	4686	2
4685	4694	4677	4684	2
4674	4676	4686	4675	2
4678	4676	4684	4677	2
4676	4677	4675	4680	2
4674	4675	4679	4682	2
4678	4679	4677	4681	2
4679	4674	4678	4683	2
4629	859	4617	4628	2
4627	4641	4619	4626	2
4617	4618	4628	4616	2
4619	4618	4626	4620	2
4618	4617	4619	4622	2
4616	4621	4617	4624	2
4620	4619	4621	4623	2
4621	4620	4616	4625	2
10039	10052	10027	10038	2
10037	8740	10029	10036	2
10027	10028	10038	10026	2
10029	10028	10036	10030	2
10028	10027	10029	10032	2
10026	10031	10027	10034	2
10030	10029	10031	10033	2
10031	10026	10030	10035	2
5794	5801	5782	5793	2
5792	8719	5784	5791	2
5781	5783	5793	5782	2
5784	5783	5791	5785	2
5783	5784	5782	5787	2
5781	5786	5782	5789	2
5785	5786	5784	5788	2
5786	5785	5781	5790	2
2962	2949	2961	2960	2
2959	6676	2951	2958	2
2949	2948	2960	2950	2
2951	2950	2958	2952	2
2950	2951	2949	2954	2
2948	2949	2953	2956	2
2952	2951	2953	2955	2
2953	2948	2952	2957	2
6931	11114	6919	6930	2
6929	6943	6921	6928	2
6918	6920	6930	6919	2
6922	6920	6928	6921	2
6920	6919	6921	6924	2
6918	6919	6923	6926	2
6922	6921	6923	6925	2
6923	6918	6922	6927	2
1262	7453	1250	1261	2
1260	1263	1252	1259	2
1251	1249	1261	1250	2
1252	1253	1259	1251	2
1251	1250	1252	1255	2
1249	1250	1254	1257	2
1253	1254	1252	1256	2
1254	1253	1249	1258	2
2525	798	2513	2524	2
2523	2526	2515	2522	2
2513	2512	2524	2514	2
2515	2516	2522	2514	2
2514	2513	2515	2518	2
2512	2513	2517	2520	2
2516	2517	2515	2519	2
2517	2512	2516	2521	2
6347	7701	6339	6346	2
6349	6356	6337	6348	2
6339	6338	6346	6340	2
6337	6336	6348	6338	2
6338	6339	6337	6342	2
6340	6341	6339	6343	2
6336	6337	6341	6344	2
6341	6340	6336	6345	2
11193	7424	11181	11192	2
11191	3828	11183	11190	2
11181	11180	11192	11182	2
11183	11184	11190	11182	2
11182	11183	11181	11186	2
11180	11181	11185	11188	2
11184	11185	11183	11187	2
11185	11184	11180	11189	2
10315	4279	10303	10314	2
10313	10322	10305	10312	2
10303	10304	10314	10302	2
10305	10304	10312	10306	2
10304	10305	10303	10308	2
10302	10307	10303	10310	2
10306	10305	10307	10309	2
10307	10306	10302	10311	2
3784	768	3776	3783	2
3787	3774	3786	3785	2
3777	3775	3783	3776	2
3774	3775	3785	3773	2
3775	3774	3776	3779	2
3777	3776	3778	3780	2
3773	3778	3774	3781	2
3778	3777	3773	3782	2
11235	6755	11223	11234	2
11233	3974	11225	11232	2
11222	11224	11234	11223	2
11225	11226	11232	11224	2
11224	11223	11225	11228	2
11222	11227	11223	11230	2
11226	11225	11227	11229	2
11227	11226	11222	11231	2
10536	11011	10524	10535	2
10534	10543	10526	10533	2
10525	10523	10535	10524	2
10527	10525	10533	10526	2
10525	10526	10524	10529	2
10523	10528	10524	10531	2
10527	10528	10526	10530	2
10528	10523	10527	10532	2
7077	7084	7065	7076	2
7075	5879	7067	7074	2
7066	7064	7076	7065	2
7066	7068	7074	7067	2
7066	7065	7067	7070	2
7064	7069	7065	7072	2
7068	7069	7067	7071	2
7069	7068	7064	7073	2
1811	1792	1799	1810	2
1809	300	1801	1808	2
1799	1798	1810	1800	2
1800	1802	1808	1801	2
1800	1801	1799	1804	2
1798	1803	1799	1806	2
1802	1801	1803	1805	2
1803	1802	1798	1807	2
12803	6958	12791	12802	2
12801	10664	12793	12800	2
12790	12792	12802	12791	2
12793	12794	12800	12792	2
12792	12793	12791	12796	2
12790	12795	12791	12798	2
12794	12793	12795	12797	2
12795	12790	12794	12799	2
3351	3339	3352	3350	2
3349	9075	3341	3348	2
3339	3338	3350	3340	2
3341	3340	3348	3342	2
3340	3339	3341	3344	2
3338	3343	3339	3346	2
3342	3341	3343	3345	2
3343	3338	3342	3347	2
13503	8987	13491	13502	2
13501	10797	13493	13500	2
13490	13492	13502	13491	2
13493	13492	13500	13494	2
13492	13493	13491	13496	2
13490	13495	13491	13498	2
13494	13495	13493	13497	2
13495	13494	13490	13499	2
11907	2009	11895	11906	2
11905	5122	11897	11904	2
11894	11896	11906	11895	2
11897	11898	11904	11896	2
11896	11895	11897	11900	2
11894	11899	11895	11902	2
11898	11899	11897	11901	2
11899	11898	11894	11903	2
11221	3887	11209	11220	2
11219	2077	11211	11218	2
11208	11210	11220	11209	2
11211	11210	11218	11212	2
11210	11209	11211	11214	2
11208	11213	11209	11216	2
11212	11213	11211	11215	2
11213	11212	11208	11217	2
3577	3564	3576	3575	2
3574	10703	3566	3573	2
3563	3565	3575	3564	2
3565	3567	3573	3566	2
3565	3566	3564	3569	2
3563	3568	3564	3571	2
3567	3568	3566	3570	2
3567	3568	3563	3572	2
317	7673	309	316	2
319	295	307	318	2
308	310	316	309	2
306	308	318	307	2
308	307	309	312	2
310	311	309	313	2
306	311	307	314	2
311	310	306	315	2
2572	2548	2560	2571	2
2570	422	2562	2569	2
2559	2561	2571	2560	2
2561	2563	2569	2562	2
2561	2560	2562	2565	2
2559	2560	2564	2567	2
2563	2562	2564	2566	2
2564	2559	2563	2568	2
5516	5523	5504	5515	2
5514	10835	5506	5513	2
5504	5503	5515	5505	2
5507	5505	5513	5506	2
5505	5506	5504	5509	2
5503	5508	5504	5511	2
5507	5506	5508	5510	2
5508	5503	5507	5512	2
4295	4302	4283	4294	2
4293	8602	4285	4292	2
4283	4284	4294	4282	2
4284	4286	4292	4285	2
4284	4285	4283	4288	2
4282	4287	4283	4290	2
4286	4285	4287	4289	2
4287	4286	4282	4291	2
13811	1287	13799	13810	2
13809	1639	13801	13808	2
13799	13798	13810	13800	2
13802	13800	13808	13801	2
13800	13801	13799	13804	2
13798	13799	13803	13806	2
13802	13801	13803	13805	2
13803	13798	13802	13807	2
3262	3249	3261	3260	2
3259	8871	3251	3258	2
3250	3248	3260	3249	2
3250	3252	3258	3251	2
3250	3249	3251	3254	2
3248	3253	3249	3256	2
3252	3253	3251	3255	2
3253	3252	3248	3257	2
12509	6186	12497	12508	2
12507	6580	12499	12506	2
12498	12496	12508	12497	2
12500	12498	12506	12499	2
12498	12499	12497	12502	2
12496	12501	12497	12504	2
12500	12501	12499	12503	2
12501	12500	12496	12505	2
12285	6988	12273	12284	2
12283	5778	12275	12282	2
12272	12274	12284	12273	2
12274	12276	12282	12275	2
12274	12275	12273	12278	2
12272	12273	12277	12280	2
12276	12275	12277	12279	2
12277	12272	12276	12281	2
11361	4176	11349	11360	2
11359	10373	11351	11358	2
11350	11348	11360	11349	2
11352	11350	11358	11351	2
11350	11351	11349	11354	2
11348	11349	11353	11356	2
11352	11353	11351	11355	2
11353	11352	11348	11357	2
5254	5261	5242	5253	2
5252	7090	5244	5251	2
5242	5243	5253	5241	2
5244	5243	5251	5245	2
5243	5244	5242	5247	2
5241	5242	5246	5249	2
5245	5246	5244	5248	2
5246	5245	5241	5250	2
1415	1391	1403	1414	2
1413	8704	1405	1412	2
1402	1404	1414	1403	2
1406	1404	1412	1405	2
1404	1403	1405	1408	2
1402	1403	1407	1410	2
1406	1405	1407	1409	2
1407	1402	1406	1411	2
12607	6784	12595	12606	2
12605	6362	12597	12604	2
12596	12594	12606	12595	2
12596	12598	12604	12597	2
12596	12597	12595	12600	2
12594	12595	12599	12602	2
12598	12597	12599	12601	2
12599	12594	12598	12603	2
11851	8666	11839	11850	2
11849	5035	11841	11848	2
11839	11840	11850	11838	2
11842	11840	11848	11841	2
11840	11841	11839	11844	2
11838	11843	11839	11846	2
11842	11843	11841	11845	2
11843	11842	11838	11847	2
4876	372	4864	4875	2
4874	4883	4866	4873	2
4865	4863	4875	4864	2
4866	4867	4873	4865	2
4865	4864	4866	4869	2
4863	4868	4864	4871	2
4867	4868	4866	4870	2
4868	4867	4863	4872	2
5924	7977	5916	5923	2
5926	5933	5914	5925	2
5917	5915	5923	5916	2
5915	5913	5925	5914	2
5915	5914	5916	5919	2
5917	5916	5918	5920	2
5913	5918	5914	5921	2
5918	5917	5913	5922	2
11347	4917	11335	11346	2
11345	4148	11337	11344	2
11334	11336	11346	11335	2
11338	11336	11344	11337	2
11336	11335	11337	11340	2
11334	11339	11335	11342	2
11338	11339	11337	11341	2
11339	11334	11338	11343	2
12201	1700	12189	12200	2
12199	5655	12191	12198	2
12189	12188	12200	12190	2
12190	12192	12198	12191	2
12190	12189	12191	12194	2
12188	12193	12189	12196	2
12192	12191	12193	12195	2
12193	12192	12188	12197	2
10623	10630	10611	10622	2
10621	10841	10613	10620	2
10611	10610	10622	10612	2
10613	10612	10620	10614	2
10612	10611	10613	10616	2
10610	10611	10615	10618	2
10614	10615	10613	10617	2
10615	10610	10614	10619	2
3546	3534	3547	3545	2
3544	10460	3536	3543	2
3533	3535	3545	3534	2
3535	3537	3543	3536	2
3535	3534	3536	3539	2
3533	3538	3534	3541	2
3537	3538	3536	3540	2
3538	3537	3533	3542	2
485	9901	473	484	2
483	486	475	482	2
473	472	484	474	2
475	476	482	474	2
474	473	475	478	2
472	473	477	480	2
476	477	475	479	2
477	472	476	481	2
7747	5034	7735	7746	2
7745	7754	7737	7744	2
7736	7734	7746	7735	2
7738	7736	7744	7737	2
7736	7735	7737	7740	2
7734	7739	7735	7742	2
7738	7739	7737	7741	2
7739	7738	7734	7743	2
11879	5092	11867	11878	2
11877	9994	11869	11876	2
11868	11866	11878	11867	2
11868	11870	11876	11869	2
11868	11869	11867	11872	2
11866	11871	11867	11874	2
11870	11869	11871	11873	2
11871	11866	11870	11875	2
224	202	212	223	2
222	8324	214	221	2
213	211	223	212	2
214	213	221	215	2
213	212	214	217	2
211	216	212	219	2
215	214	216	218	2
216	215	211	220	2
10565	10572	10553	10564	2
10563	7876	10555	10562	2
10552	10554	10564	10553	2
10555	10556	10562	10554	2
10554	10555	10553	10558	2
10552	10553	10557	10560	2
10556	10557	10555	10559	2
10557	10556	10552	10561	2
32	3973	20	31	2
30	10	22	29	2
20	21	31	19	2
22	23	29	21	2
21	20	22	25	2
19	20	24	27	2
23	22	24	26	2
24	23	19	28	2
2719	5029	2711	2718	2
2721	2709	2722	2720	2
2711	2710	2718	2712	2
2709	2710	2720	2708	2
2710	2711	2709	2714	2
2712	2713	2711	2715	2
2708	2713	2709	2716	2
2713	2708	2712	2717	2
2173	2176	2165	2172	2
2175	8383	2163	2174	2
2165	2166	2172	2164	2
2164	2162	2174	2163	2
2164	2163	2165	2168	2
2166	2167	2165	2169	2
2162	2167	2163	2170	2
2167	2166	2162	2171	2
13699	10840	13687	13698	2
13697	10636	13689	13696	2
13686	13688	13698	13687	2
13688	13690	13696	13689	2
13688	13689	13687	13692	2
13686	13691	13687	13694	2
13690	13691	13689	13693	2
13691	13690	13686	13695	2
7208	6842	7196	7207	2
7206	7215	7198	7205	2
7195	7197	7207	7196	2
7198	7199	7205	7197	2
7197	7198	7196	7201	2
7195	7200	7196	7203	2
7199	7200	7198	7202	2
7200	7199	7195	7204	2
4077	4084	4065	4076	2
4075	5553	4067	4074	2
4065	4064	4076	4066	2
4067	4066	4074	4068	2
4066	4065	4067	4070	2
4064	4065	4069	4072	2
4068	4069	4067	4071	2
4069	4068	4064	4073	2
6086	6093	6074	6085	2
6084	6871	6076	6083	2
6074	6075	6085	6073	2
6076	6077	6083	6075	2
6075	6076	6074	6079	2
6073	6078	6074	6081	2
6077	6078	6076	6080	2
6078	6077	6073	6082	2
4264	1041	4256	4263	2
4266	4273	4254	4265	2
4256	4255	4263	4257	2
4254	4255	4265	4253	2
4255	4256	4254	4259	2
4257	4256	4258	4260	2
4253	4258	4254	4261	2
4258	4257	4253	4262	2
13263	9192	13255	13262	2
13265	8212	13253	13264	2
13255	13256	13262	13254	2
13253	13252	13264	13254	2
13254	13253	13255	13258	2
13256	13255	13257	13259	2
13252	13253	13257	13260	2
13257	13256	13252	13261	2
7048	11135	7036	7047	2
7046	7055	7038	7045	2
7036	7037	7047	7035	2
7037	7039	7045	7038	2
7037	7036	7038	7041	2
7035	7036	7040	7043	2
7039	7040	7038	7042	2
7040	7039	7035	7044	2
4135	5397	4123	4134	2
4133	4142	4125	4132	2
4122	4124	4134	4123	2
4125	4126	4132	4124	2
4124	4125	4123	4128	2
4122	4127	4123	4130	2
4126	4125	4127	4129	2
4127	4122	4126	4131	2
3559	10606	3551	3558	2
3561	3549	3562	3560	2
3550	3552	3558	3551	2
3549	3550	3560	3548	2
3550	3549	3551	3554	2
3552	3551	3553	3555	2
3548	3553	3549	3556	2
3553	3552	3548	3557	2
3319	9041	3311	3318	2
3321	3309	3322	3320	2
3312	3310	3318	3311	2
3308	3310	3320	3309	2
3310	3311	3309	3314	2
3312	3313	3311	3315	2
3308	3313	3309	3316	2
3313	3312	3308	3317	2
7556	7570	7548	7555	2
7558	5631	7546	7557	2
7549	7547	7555	7548	2
7545	7547	7557	7546	2
7547	7546	7548	7551	2
7549	7548	7550	7552	2
7545	7546	7550	7553	2
7550	7545	7549	7554	2
10433	10445	10421	10432	2
10431	6637	10423	10430	2
10421	10422	10432	10420	2
10423	10422	10430	10424	2
10422	10423	10421	10426	2
10420	10421	10425	10428	2
10424	10425	10423	10427	2
10424	10425	10420	10429	2
5356	5363	5344	5355	2
5354	10455	5346	5353	2
5344	5343	5355	5345	2
5345	5347	5353	5346	2
5345	5344	5346	5349	2
5343	5344	5348	5351	2
5347	5348	5346	5350	2
5348	5347	5343	5352	2
12131	9600	12119	12130	2
12129	5559	12121	12128	2
12118	12120	12130	12119	2
12121	12120	12128	12122	2
12120	12119	12121	12124	2
12118	12123	12119	12126	2
12122	12121	12123	12125	2
12123	12122	12118	12127	2
3805	3808	3803	3802	2
3803	3804	3802	3810	2
3807	3814	3803	3804	2
3807	3804	3806	3812	2
3806	3813	3805	3807	2
3805	3806	3802	3811	2
3813	11148	3806	3815	2
3808	3800	3802	3809	2
3814	11162	3804	3816	2
291	301	294	290	2
294	293	291	299	2
292	300	294	293	2
292	289	293	298	2
289	295	290	292	2
290	289	291	297	2
295	318	289	296	2
301	304	291	303	2
300	1808	293	302	2
336	334	337	341	2
337	336	338	347	2
338	339	337	344	2
339	340	338	348	2
340	342	339	341	2
341	340	336	349	2
342	11610	340	343	2
334	330	336	335	2
344	346	338	345	2
3820	3823	3818	3817	2
3820	3817	3821	3826	2
3822	3828	3820	3821	2
3822	3819	3821	3827	2
3819	3829	3818	3822	2
3818	3817	3819	3825	2
3829	11176	3819	3831	2
3823	2583	3817	3824	2
3828	11190	3821	3830	2
367	364	371	366	2
371	366	370	379	2
369	372	371	370	2
369	370	368	378	2
368	367	369	374	2
367	368	366	377	2
374	376	368	375	2
364	360	366	365	2
372	4875	370	373	2
380	386	383	381	2
383	384	380	389	2
384	391	383	385	2
385	382	384	390	2
381	392	385	382	2
381	382	380	388	2
392	395	382	394	2
386	407	380	387	2
391	11526	384	393	2
3846	3852	3847	3849	2
3849	3850	3846	3855	2
3850	3857	3851	3849	2
3851	3850	3848	3856	2
3848	3858	3851	3847	2
3847	3846	3848	3854	2
3858	11206	3848	3860	2
3852	3842	3846	3853	2
3857	7962	3850	3859	2
3875	3881	3876	3878	2
3878	3879	3875	3884	2
3879	3886	3880	3878	2
3880	3877	3879	3885	2
3877	3887	3880	3876	2
3876	3877	3875	3883	2
3887	11220	3877	3889	2
3881	3873	3875	3882	2
3886	5106	3879	3888	2
413	423	416	412	2
412	413	411	419	2
412	417	414	411	2
414	411	415	420	2
415	422	414	416	2
416	415	413	421	2
422	2569	415	424	2
423	426	413	425	2
417	438	411	418	2
3907	3910	3905	3904	2
3907	3904	3908	3913	2
3908	3915	3907	3909	2
3909	3908	3906	3914	2
3906	3916	3909	3905	2
3905	3906	3904	3912	2
3916	2598	3906	3918	2
3910	3900	3904	3911	2
3915	10651	3908	3917	2
3934	3939	3936	3933	2
3934	3933	3935	3941	2
3935	3945	3934	3938	2
3938	3935	3937	3943	2
3937	3944	3936	3938	2
3936	3933	3937	3942	2
3944	8681	3937	3946	2
3939	3929	3933	3940	2
3945	9978	3935	3947	2
3965	3968	3963	3962	2
3965	3962	3966	3971	2
3966	3973	3967	3965	2
3967	3966	3964	3972	2
3964	3974	3967	3963	2
3963	3962	3964	3970	2
3974	11232	3964	3976	2
3968	3958	3962	3969	2
3973	31	3966	3975	2
460	461	459	466	2
459	460	458	469	2
458	456	463	459	2
463	462	458	471	2
461	464	463	462	2
461	462	460	470	2
464	9292	462	465	2
466	468	460	467	2
456	452	458	457	2
3992	3997	3994	3991	2
3994	3991	3995	4000	2
3995	4002	3994	3996	2
3996	3995	3993	4001	2
3993	4003	3996	3992	2
3992	3991	3993	3999	2
4003	11248	3993	4005	2
3997	3987	3991	3998	2
4002	11262	3995	4004	2
4023	4026	4021	4020	2
4021	4020	4022	4028	2
4025	4032	4021	4022	2
4025	4024	4022	4030	2
4024	4031	4023	4025	2
4023	4020	4024	4029	2
4031	2613	4024	4033	2
4026	4018	4020	4027	2
4032	11276	4022	4034	2
4050	4055	4052	4049	2
4050	4049	4051	4057	2
4050	4061	4054	4051	2
4054	4053	4051	4059	2
4052	4060	4054	4053	2
4052	4053	4049	4058	2
4060	7860	4053	4062	2
4055	4047	4049	4056	2
4061	11288	4051	4063	2
5	2	9	4	2
9	4	8	18	2
9	10	7	8	2
7	8	6	17	2
6	5	7	12	2
5	6	4	16	2
12	14	6	13	2
2	1	4	3	2
10	29	8	11	2
4078	4084	4079	4081	2
4079	4078	4080	4086	2
4079	4090	4083	4080	2
4083	4080	4082	4088	2
4082	4089	4081	4083	2
4081	4078	4082	4087	2
4089	11304	4082	4091	2
4084	4076	4078	4085	2
4090	11318	4080	4092	2
493	486	489	488	2
489	488	490	499	2
490	491	489	496	2
491	490	492	500	2
491	494	493	492	2
493	488	492	501	2
494	13332	492	495	2
486	482	488	487	2
496	498	490	497	2
4107	4113	4108	4110	2
4108	4109	4107	4115	2
4108	4119	4112	4109	2
4112	4111	4109	4117	2
4112	4118	4110	4111	2
4110	4107	4111	4116	2
4118	11330	4111	4120	2
4113	4105	4107	4114	2
4119	9569	4109	4121	2
518	516	523	519	2
523	522	518	531	2
523	524	521	522	2
521	520	522	530	2
520	519	521	526	2
519	518	520	529	2
526	528	520	527	2
516	512	518	517	2
524	13766	522	525	2
4137	4142	4139	4136	2
4137	4138	4136	4144	2
4138	4148	4137	4141	2
4138	4141	4140	4146	2
4139	4147	4141	4140	2
4139	4136	4140	4145	2
4147	6214	4140	4149	2
4142	4132	4136	4143	2
4148	11344	4138	4150	2
4166	4171	4168	4165	2
4166	4165	4167	4173	2
4167	4177	4166	4170	2
4170	4167	4169	4175	2
4170	4176	4168	4169	2
4168	4169	4165	4174	2
4176	11360	4169	4178	2
4171	4163	4165	4172	2
4177	11372	4167	4179	2
4194	4200	4197	4195	2
4197	4194	4198	4203	2
4197	4205	4199	4198	2
4199	4196	4198	4204	2
4199	4206	4195	4196	2
4195	4196	4194	4202	2
4206	11388	4196	4208	2
4200	4190	4194	4201	2
4205	11402	4198	4207	2
4226	4229	4224	4223	2
4224	4225	4223	4231	2
4225	4235	4224	4228	2
4228	4225	4227	4233	2
4226	4234	4228	4227	2
4226	4227	4223	4232	2
4234	11414	4227	4236	2
4229	4221	4223	4230	2
4235	2628	4225	4237	2
548	546	549	553	2
549	548	550	559	2
550	551	549	556	2
551	550	552	560	2
551	554	553	552	2
553	552	548	561	2
554	11456	552	555	2
546	542	548	547	2
556	558	550	557	2
567	574	563	564	2
563	562	564	570	2
565	568	563	562	2
565	566	562	571	2
565	573	567	566	2
567	564	566	572	2
573	833	566	575	2
574	577	564	576	2
568	589	562	569	2
4238	4244	4241	4239	2
4241	4238	4242	4247	2
4241	4249	4243	4242	2
4243	4242	4240	4248	2
4239	4250	4243	4240	2
4239	4238	4240	4246	2
4250	11150	4240	4252	2
4244	2142	4238	4245	2
4249	11428	4242	4251	2
4268	4279	4272	4269	2
4272	4271	4269	4277	2
4271	4278	4272	4270	2
4270	4267	4271	4276	2
4267	4273	4270	4268	2
4268	4267	4269	4275	2
4273	4265	4267	4274	2
4279	10314	4269	4281	2
4278	11442	4271	4280	2
614	607	610	609	2
610	611	609	620	2
611	610	612	617	2
612	611	613	621	2
612	615	614	613	2
614	609	613	622	2
615	1367	613	616	2
607	605	609	608	2
617	619	611	618	2
4296	4302	4297	4299	2
4299	4300	4296	4305	2
4300	4307	4299	4301	2
4301	4298	4300	4306	2
4297	4308	4301	4298	2
4297	4298	4296	4304	2
4308	11091	4298	4310	2
4302	4294	4296	4303	2
4307	11458	4300	4309	2
623	629	626	624	2
624	623	625	631	2
625	635	624	628	2
628	627	625	633	2
627	634	628	626	2
626	623	627	632	2
634	13754	627	636	2
629	652	623	630	2
635	638	625	637	2
4325	4331	4326	4328	2
4328	4325	4329	4334	2
4328	4336	4330	4329	2
4330	4329	4327	4335	2
4330	4337	4326	4327	2
4326	4327	4325	4333	2
4337	11472	4327	4339	2
4331	4321	4325	4332	2
4336	603	4329	4338	2
4340	4346	4343	4341	2
4341	4340	4342	4348	2
4341	4352	4345	4342	2
4345	4342	4344	4350	2
4345	4351	4343	4344	2
4343	4344	4340	4349	2
4351	2643	4344	4353	2
4346	2658	4340	4347	2
4352	11484	4342	4354	2
4369	4375	4370	4372	2
4370	4369	4371	4377	2
4371	4381	4374	4370	2
4374	4373	4371	4379	2
4373	4380	4374	4372	2
4372	4369	4373	4378	2
4380	11498	4373	4382	2
4375	4365	4369	4376	2
4381	454	4371	4383	2
4398	4404	4401	4399	2
4399	4400	4398	4406	2
4400	4410	4403	4399	2
4403	4402	4400	4408	2
4403	4409	4401	4402	2
4401	4402	4398	4407	2
4409	7686	4402	4411	2
4404	4396	4398	4405	2
4410	11512	4400	4412	2
4430	4433	4428	4427	2
4430	4431	4427	4436	2
4431	4438	4430	4432	2
4432	4431	4429	4437	2
4432	4439	4428	4429	2
4428	4429	4427	4435	2
4439	6435	4429	4441	2
4433	4425	4427	4434	2
4438	11528	4431	4440	2
672	671	673	678	2
673	672	674	682	2
674	676	675	673	2
675	670	674	683	2
675	668	671	670	2
671	670	672	681	2
668	1517	670	669	2
678	680	672	679	2
676	664	674	677	2
4457	4462	4459	4456	2
4457	4458	4456	4464	2
4457	4468	4461	4458	2
4461	4460	4458	4466	2
4461	4467	4459	4460	2
4459	4456	4460	4465	2
4467	1975	4460	4469	2
4462	4452	4456	4463	2
4468	788	4458	4470	2
687	690	685	684	2
687	684	688	693	2
688	695	689	687	2
689	688	686	694	2
686	696	685	689	2
685	684	686	692	2
696	699	686	698	2
690	713	684	691	2
695	13306	688	697	2
4485	4491	4486	4488	2
4488	4485	4489	4494	2
4489	4496	4488	4490	2
4490	4487	4489	4495	2
4487	4497	4490	4486	2
4486	4485	4487	4493	2
4497	2673	4487	4499	2
4491	4483	4485	4492	2
4496	6799	4489	4498	2
4517	4520	4515	4514	2
4517	4514	4518	4523	2
4519	4525	4517	4518	2
4519	4518	4516	4524	2
4519	4526	4515	4516	2
4515	4514	4516	4522	2
4526	11542	4516	4528	2
4520	4510	4514	4521	2
4525	11554	4518	4527	2
4544	4549	4546	4543	2
4546	4543	4547	4552	2
4546	4554	4548	4547	2
4548	4545	4547	4553	2
4548	4555	4544	4545	2
4544	4543	4545	4551	2
4555	2461	4545	4557	2
4549	4539	4543	4550	2
4554	11570	4547	4556	2
4572	4578	4573	4575	2
4573	4574	4572	4580	2
4574	4584	4573	4577	2
4577	4574	4576	4582	2
4575	4583	4577	4576	2
4575	4572	4576	4581	2
4583	11584	4576	4585	2
4578	4570	4572	4579	2
4584	7511	4574	4586	2
716	721	718	715	2
718	719	715	724	2
719	726	718	720	2
720	717	719	725	2
717	727	716	720	2
716	717	715	723	2
727	730	717	729	2
721	744	715	722	2
726	13780	719	728	2
762	760	763	767	2
767	766	762	775	2
766	768	765	767	2
765	766	764	774	2
764	765	763	770	2
763	764	762	773	2
770	772	764	771	2
760	758	762	761	2
768	3783	766	769	2
797	790	793	792	2
793	794	792	803	2
794	793	795	800	2
795	794	796	804	2
797	798	795	796	2
797	792	796	805	2
798	2524	796	799	2
790	786	792	791	2
800	802	794	801	2
4603	4613	4602	4606	2
4602	4601	4603	4609	2
4604	4607	4602	4601	2
4604	4605	4601	4610	2
4604	4612	4606	4605	2
4606	4603	4605	4611	2
4612	11598	4605	4614	2
4613	11612	4603	4615	2
4607	4599	4601	4608	2
4633	4641	4635	4634	2
4635	4634	4632	4640	2
4632	4642	4631	4635	2
4631	4632	4630	4638	2
4630	4636	4633	4631	2
4633	4634	4630	4639	2
4636	9263	4630	4637	2
4641	4626	4634	4643	2
4642	11626	4632	4644	2
4660	4665	4662	4659	2
4660	4659	4661	4667	2
4664	4671	4660	4661	2
4664	4663	4661	4669	2
4664	4670	4662	4663	2
4662	4659	4663	4668	2
4670	11638	4663	4672	2
4665	4657	4659	4666	2
4671	5674	4661	4673	2
38	39	37	44	2
37	36	38	48	2
36	34	41	37	2
41	40	36	50	2
40	42	41	39	2
39	40	38	49	2
42	61	40	43	2
44	46	38	45	2
34	33	36	35	2
4691	4694	4689	4688	2
4689	4688	4690	4696	2
4693	4700	4689	4690	2
4693	4690	4692	4698	2
4692	4699	4691	4693	2
4691	4688	4692	4697	2
4699	11652	4692	4701	2
4694	4684	4688	4695	2
4700	11668	4690	4702	2
4717	4723	4720	4718	2
4720	4721	4717	4726	2
4722	4728	4720	4721	2
4722	4719	4721	4727	2
4718	4729	4722	4719	2
4718	4719	4717	4725	2
4729	11680	4719	4731	2
4723	4715	4717	4724	2
4728	11694	4721	4730	2
808	818	807	811	2
807	806	808	814	2
807	812	809	806	2
809	810	806	815	2
810	817	809	811	2
811	810	808	816	2
817	12184	810	819	2
818	821	808	820	2
812	835	806	813	2
4747	4752	4749	4746	2
4749	4750	4746	4755	2
4750	4757	4749	4751	2
4751	4748	4750	4756	2
4751	4758	4747	4748	2
4747	4746	4748	4754	2
4758	11416	4748	4760	2
4752	4742	4746	4753	2
4757	11710	4750	4759	2
4775	4781	4778	4776	2
4778	4775	4779	4784	2
4779	4786	4778	4780	2
4780	4779	4777	4785	2
4776	4787	4780	4777	2
4776	4777	4775	4783	2
4787	10680	4777	4789	2
4781	4771	4775	4782	2
4786	11724	4779	4788	2
855	856	854	861	2
856	855	857	865	2
858	859	856	857	2
858	853	857	866	2
853	851	858	854	2
854	855	853	864	2
851	849	853	852	2
861	863	855	862	2
859	4628	857	860	2
4807	4810	4805	4804	2
4807	4808	4804	4813	2
4808	4815	4809	4807	2
4809	4808	4806	4814	2
4805	4816	4809	4806	2
4805	4806	4804	4812	2
4816	11738	4806	4818	2
4810	4800	4804	4811	2
4815	10123	4808	4817	2
4819	4825	4822	4820	2
4822	4823	4819	4828	2
4823	4830	4824	4822	2
4824	4823	4821	4829	2
4821	4831	4824	4820	2
4820	4819	4821	4827	2
4831	11750	4821	4833	2
4825	4802	4819	4826	2
4830	11766	4823	4832	2
4848	4854	4849	4851	2
4849	4850	4848	4856	2
4850	4860	4849	4853	2
4853	4850	4852	4858	2
4851	4859	4853	4852	2
4851	4852	4848	4857	2
4859	11778	4852	4861	2
4854	4846	4848	4855	2
4860	9147	4850	4862	2
4877	4883	4880	4878	2
4880	4881	4877	4886	2
4882	4888	4880	4881	2
4882	4881	4879	4887	2
4882	4889	4878	4879	2
4878	4879	4877	4885	2
4889	11794	4879	4891	2
4883	4873	4877	4884	2
4888	11808	4881	4890	2
4906	4912	4907	4909	2
4907	4906	4908	4914	2
4908	4918	4907	4911	2
4911	4910	4908	4916	2
4909	4917	4911	4910	2
4909	4910	4906	4915	2
4917	11346	4910	4919	2
4912	4904	4906	4913	2
4918	5455	4908	4920	2
867	873	868	870	2
870	867	871	876	2
871	878	872	870	2
872	871	869	877	2
869	879	872	868	2
868	867	869	875	2
879	882	869	881	2
873	894	867	874	2
878	11164	871	880	2
4935	4941	4936	4938	2
4936	4935	4937	4943	2
4936	4947	4940	4937	2
4940	4937	4939	4945	2
4938	4946	4940	4939	2
4938	4935	4939	4944	2
4946	2688	4939	4948	2
4941	4933	4935	4942	2
4947	11820	4937	4949	2
915	912	919	914	2
919	918	914	927	2
918	920	917	919	2
917	916	918	926	2
916	917	915	922	2
915	914	916	925	2
922	924	916	923	2
912	910	914	913	2
920	11960	918	921	2
4951	4956	4953	4950	2
4951	4952	4950	4958	2
4952	4962	4951	4955	2
4955	4954	4952	4960	2
4953	4961	4955	4954	2
4953	4950	4954	4959	2
4961	2703	4954	4963	2
4956	742	4950	4957	2
4962	1945	4952	4964	2
4979	4985	4982	4980	2
4980	4981	4979	4987	2
4981	4991	4984	4980	2
4984	4983	4981	4989	2
4983	4990	4982	4984	2
4982	4983	4979	4988	2
4990	2323	4983	4992	2
4985	4975	4979	4986	2
4991	11834	4981	4993	2
944	942	949	945	2
945	946	944	955	2
946	945	947	952	2
947	946	948	956	2
948	950	949	947	2
949	948	944	957	2
950	12618	948	951	2
942	940	944	943	2
952	954	946	953	2
5008	5014	5009	5011	2
5009	5010	5008	5016	2
5010	5020	5009	5013	2
5013	5012	5010	5018	2
5013	5019	5011	5012	2
5011	5012	5008	5017	2
5019	6972	5012	5021	2
5014	5006	5008	5015	2
5020	9645	5010	5022	2
5024	5029	5026	5023	2
5024	5025	5023	5031	2
5025	5035	5028	5024	2
5028	5027	5025	5033	2
5027	5034	5028	5026	2
5026	5027	5023	5032	2
5034	7746	5027	5036	2
5029	2718	5023	5030	2
5035	11848	5025	5037	2
5053	5058	5055	5052	2
5053	5054	5052	5060	2
5054	5064	5057	5053	2
5057	5056	5054	5062	2
5057	5063	5055	5056	2
5055	5052	5056	5061	2
5063	2733	5056	5065	2
5058	5050	5052	5059	2
5064	11862	5054	5066	2
5084	5087	5082	5081	2
5082	5083	5081	5089	2
5086	5093	5082	5083	2
5086	5083	5085	5091	2
5085	5092	5084	5086	2
5084	5085	5081	5090	2
5092	11878	5085	5094	2
5087	5077	5081	5088	2
5093	11892	5083	5095	2
5110	5116	5111	5113	2
5113	5114	5110	5119	2
5114	5121	5113	5115	2
5115	5114	5112	5120	2
5115	5122	5111	5112	2
5111	5112	5110	5118	2
5122	11904	5112	5124	2
5116	5108	5110	5117	2
5121	11918	5114	5123	2
5140	5145	5142	5139	2
5142	5143	5139	5148	2
5143	5150	5142	5144	2
5144	5143	5141	5149	2
5144	5151	5140	5141	2
5140	5141	5139	5147	2
5151	6624	5141	5153	2
5145	5137	5139	5146	2
5150	8108	5143	5152	2
958	964	961	959	2
961	962	958	967	2
962	969	961	963	2
963	962	960	968	2
960	970	959	963	2
959	958	960	966	2
970	973	960	972	2
964	985	958	965	2
969	13600	962	971	2
1005	1003	1010	1006	2
1006	1005	1007	1016	2
1007	1008	1006	1013	2
1008	1007	1009	1017	2
1010	1011	1008	1009	2
1010	1005	1009	1018	2
1011	13416	1009	1012	2
1003	1001	1005	1004	2
1013	1015	1007	1014	2
5168	5174	5169	5171	2
5171	5168	5172	5177	2
5171	5179	5173	5172	2
5173	5172	5170	5178	2
5169	5180	5173	5170	2
5169	5170	5168	5176	2
5180	11934	5170	5182	2
5174	5164	5168	5175	2
5179	11948	5172	5181	2
5200	5203	5198	5197	2
5200	5201	5197	5206	2
5201	5208	5200	5202	2
5202	5201	5199	5207	2
5199	5209	5198	5202	2
5198	5197	5199	5205	2
5209	11806	5199	5211	2
5203	5193	5197	5204	2
5208	2748	5201	5210	2
5229	5232	5227	5226	2
5227	5228	5226	5234	2
5227	5238	5231	5228	2
5231	5230	5228	5236	2
5231	5237	5229	5230	2
5229	5230	5226	5235	2
5237	544	5230	5239	2
5232	5224	5226	5233	2
5238	11962	5228	5240	2
5255	5261	5258	5256	2
5256	5257	5255	5263	2
5257	5267	5260	5256	2
5260	5259	5257	5265	2
5259	5266	5258	5260	2
5258	5259	5255	5264	2
5266	2763	5259	5268	2
5261	5253	5255	5262	2
5267	9481	5257	5269	2
5285	5290	5287	5284	2
5287	5284	5288	5293	2
5288	5295	5289	5287	2
5289	5288	5286	5294	2
5286	5296	5289	5285	2
5285	5284	5286	5292	2
5296	4541	5286	5298	2
5290	5280	5284	5291	2
5295	9949	5288	5297	2
5299	5305	5302	5300	2
5299	5303	5302	5308	2
5303	5310	5304	5302	2
5304	5303	5301	5309	2
5301	5311	5304	5300	2
5300	5299	5301	5307	2
5311	8037	5301	5313	2
5305	1869	5299	5306	2
5310	11974	5303	5312	2
5329	5334	5331	5328	2
5331	5328	5332	5337	2
5331	5339	5333	5332	2
5333	5332	5330	5338	2
5330	5340	5329	5333	2
5329	5328	5330	5336	2
5340	8782	5330	5342	2
5334	5324	5328	5335	2
5339	11990	5332	5341	2
5358	5363	5360	5357	2
5360	5361	5357	5366	2
5361	5368	5360	5362	2
5361	5359	5362	5367	2
5359	5369	5362	5358	2
5358	5359	5357	5365	2
5369	8506	5359	5371	2
5363	5355	5357	5364	2
5368	2778	5361	5370	2
5386	5392	5387	5389	2
5389	5390	5386	5395	2
5389	5397	5391	5390	2
5391	5388	5390	5396	2
5391	5398	5387	5388	2
5386	5387	5388	5394	2
5398	12002	5388	5400	2
5392	5384	5386	5393	2
5397	4134	5390	5399	2
5418	5421	5416	5415	2
5418	5415	5419	5424	2
5419	5426	5420	5418	2
5420	5419	5417	5425	2
5417	5427	5420	5416	2
5416	5415	5417	5423	2
5427	12016	5417	5429	2
5421	5413	5415	5422	2
5426	8433	5419	5428	2
5431	5436	5433	5430	2
5431	5430	5432	5438	2
5431	5442	5435	5432	2
5435	5434	5432	5440	2
5434	5441	5433	5435	2
5433	5434	5430	5439	2
5441	9542	5434	5443	2
5436	2793	5430	5437	2
5442	12030	5432	5444	2
5460	5465	5462	5459	2
5460	5459	5461	5467	2
5464	5471	5460	5461	2
5464	5463	5461	5469	2
5463	5470	5462	5464	2
5462	5459	5463	5468	2
5470	10096	5463	5472	2
5465	5457	5459	5466	2
5471	12046	5461	5473	2
5488	5494	5491	5489	2
5491	5492	5488	5497	2
5492	5499	5491	5493	2
5493	5492	5490	5498	2
5490	5500	5489	5493	2
5489	5488	5490	5496	2
5500	12060	5490	5502	2
5494	5486	5488	5495	2
5499	12072	5492	5501	2
1036	1033	1040	1035	2
1040	1035	1039	1048	2
1039	1041	1040	1038	2
1038	1037	1039	1047	2
1037	1036	1038	1043	2
1036	1037	1035	1046	2
1043	1045	1037	1044	2
1033	1031	1035	1034	2
1041	4263	1039	1042	2
5520	5523	5518	5517	2
5520	5517	5521	5526	2
5520	5528	5522	5521	2
5522	5521	5519	5527	2
5519	5529	5518	5522	2
5518	5517	5519	5525	2
5529	1076	5519	5531	2
5523	5515	5517	5524	2
5528	12086	5521	5530	2
5534	5544	5533	5537	2
5533	5532	5534	5540	2
5532	5538	5533	5535	2
5535	5536	5532	5541	2
5536	5543	5535	5537	2
5537	5534	5536	5542	2
5543	12100	5536	5545	2
5544	12116	5534	5546	2
5538	1307	5532	5539	2
5548	5553	5550	5547	2
5550	5551	5547	5556	2
5551	5558	5550	5552	2
5552	5549	5551	5557	2
5549	5559	5552	5548	2
5548	5549	5547	5555	2
5559	12128	5549	5561	2
5553	4074	5547	5554	2
5558	12144	5551	5560	2
5576	5582	5577	5579	2
5579	5576	5580	5585	2
5581	5587	5579	5580	2
5581	5578	5580	5586	2
5577	5588	5581	5578	2
5577	5578	5576	5584	2
5588	8402	5578	5590	2
5582	5572	5576	5583	2
5587	12156	5580	5589	2
1049	1055	1050	1052	2
1050	1049	1051	1057	2
1051	1061	1050	1054	2
1054	1051	1053	1059	2
1054	1060	1052	1053	2
1052	1053	1049	1058	2
1060	12296	1053	1062	2
1055	1078	1049	1056	2
1061	1064	1051	1063	2
5592	5597	5594	5591	2
5594	5591	5595	5600	2
5595	5602	5594	5596	2
5596	5593	5595	5601	2
5592	5603	5596	5593	2
5592	5591	5593	5599	2
5603	12170	5593	5605	2
5597	2808	5591	5598	2
5602	2823	5595	5604	2
1083	1086	1081	1080	2
1081	1082	1080	1088	2
1082	1092	1081	1085	2
1085	1084	1082	1090	2
1083	1091	1085	1084	2
1083	1084	1080	1089	2
1091	10986	1084	1093	2
1086	1107	1080	1087	2
1092	1095	1082	1094	2
5623	5626	5621	5620	2
5623	5620	5624	5629	2
5625	5631	5623	5624	2
5625	5622	5624	5630	2
5625	5632	5621	5622	2
5621	5622	5620	5628	2
5632	8755	5622	5634	2
5626	5616	5620	5627	2
5631	7557	5624	5633	2
1116	1123	1112	1113	2
1112	1111	1113	1119	2
1111	1117	1112	1114	2
1114	1115	1111	1120	2
1116	1122	1114	1115	2
1116	1113	1115	1121	2
1122	6695	1115	1124	2
1123	1126	1113	1125	2
1117	1138	1111	1118	2
5652	5660	5654	5653	2
5652	5653	5649	5658	2
5649	5655	5650	5652	2
5650	5651	5649	5657	2
5654	5661	5650	5651	2
5654	5653	5651	5659	2
5661	5647	5651	5663	2
5660	12186	5653	5662	2
5655	12198	5649	5656	2
5678	5684	5679	5681	2
5679	5680	5678	5686	2
5680	5690	5683	5679	2
5683	5682	5680	5688	2
5681	5689	5683	5682	2
5681	5678	5682	5687	2
5689	12058	5682	5691	2
5684	5676	5678	5685	2
5690	12214	5680	5692	2
5694	5699	5696	5693	2
5694	5695	5693	5701	2
5695	5705	5694	5698	2
5698	5697	5695	5703	2
5696	5704	5698	5697	2
5696	5693	5697	5702	2
5704	8652	5697	5706	2
5699	2838	5693	5700	2
5705	12226	5695	5707	2
1144	1142	1149	1145	2
1145	1144	1146	1155	2
1146	1147	1145	1152	2
1147	1148	1146	1156	2
1148	1150	1147	1149	2
1149	1144	1148	1157	2
1150	11654	1148	1151	2
1142	1029	1144	1143	2
1152	1154	1146	1153	2
5725	5728	5723	5722	2
5725	5722	5726	5731	2
5725	5733	5727	5726	2
5727	5726	5724	5732	2
5724	5734	5727	5723	2
5723	5722	5724	5730	2
5734	12242	5724	5736	2
5728	5718	5722	5729	2
5733	2853	5726	5735	2
1179	1172	1175	1174	2
1175	1176	1174	1185	2
1176	1177	1175	1182	2
1177	1176	1178	1186	2
1179	1180	1177	1178	2
1179	1178	1174	1187	2
1180	1594	1178	1181	2
1172	1168	1174	1173	2
1182	1184	1176	1183	2
1207	1208	1206	1213	2
1206	1205	1207	1216	2
1210	1203	1206	1205	2
1210	1205	1209	1218	2
1209	1211	1208	1210	2
1208	1207	1209	1217	2
1211	13094	1209	1212	2
1213	1215	1207	1214	2
1203	1198	1205	1204	2
5756	5762	5754	5755	2
5756	5753	5755	5761	2
5752	5763	5756	5753	2
5752	5753	5751	5759	2
5751	5757	5754	5752	2
5754	5751	5755	5760	2
5757	5747	5751	5758	2
5762	12254	5755	5764	2
5763	12268	5753	5765	2
5769	5772	5767	5766	2
5769	5766	5770	5775	2
5771	5777	5769	5770	2
5771	5770	5768	5776	2
5767	5778	5771	5768	2
5767	5766	5768	5774	2
5778	12282	5768	5780	2
5772	1170	5766	5773	2
5777	12298	5770	5779	2
5795	5801	5796	5798	2
5798	5799	5795	5804	2
5798	5806	5800	5799	2
5800	5797	5799	5805	2
5797	5807	5796	5800	2
5796	5795	5797	5803	2
5807	2868	5797	5809	2
5801	5793	5795	5802	2
5806	12310	5799	5808	2
5827	5830	5825	5824	2
5825	5824	5826	5832	2
5825	5836	5829	5826	2
5829	5826	5828	5834	2
5828	5835	5827	5829	2
5827	5828	5824	5833	2
5835	12326	5828	5837	2
5830	5820	5824	5831	2
5836	12338	5826	5838	2
5853	5859	5854	5856	2
5854	5855	5853	5861	2
5855	5865	5858	5854	2
5858	5855	5857	5863	2
5858	5864	5856	5857	2
5856	5857	5853	5862	2
5864	12354	5857	5866	2
5859	5849	5853	5860	2
5865	12172	5855	5867	2
5871	5874	5869	5868	2
5871	5872	5868	5877	2
5873	5879	5871	5872	2
5873	5872	5870	5878	2
5869	5880	5873	5870	2
5869	5868	5870	5876	2
5880	285	5870	5882	2
5874	514	5868	5875	2
5879	7074	5872	5881	2
5883	5889	5884	5886	2
5886	5883	5887	5892	2
5886	5894	5888	5887	2
5888	5885	5887	5893	2
5888	5895	5884	5885	2
5884	5883	5885	5891	2
5895	11540	5885	5897	2
5889	5822	5883	5890	2
5894	10737	5887	5896	2
1237	1236	1238	1243	2
1236	1235	1237	1246	2
1240	1233	1236	1235	2
1240	1239	1235	1248	2
1239	1241	1238	1240	2
1238	1239	1237	1247	2
1241	11836	1239	1242	2
1243	1245	1237	1244	2
1233	1231	1235	1234	2
5898	5904	5899	5901	2
5899	5898	5900	5906	2
5900	5910	5899	5903	2
5903	5900	5902	5908	2
5901	5909	5903	5902	2
5901	5902	5898	5907	2
5909	9876	5902	5911	2
5904	938	5898	5905	2
5910	12366	5900	5912	2
5930	5933	5927	5928	2
5930	5931	5927	5936	2
5930	5938	5932	5931	2
5932	5929	5931	5937	2
5928	5939	5932	5929	2
5927	5928	5929	5935	2
5939	12380	5929	5941	2
5933	5925	5927	5934	2
5938	9834	5931	5940	2
5956	5962	5959	5957	2
5959	5956	5960	5965	2
5960	5967	5961	5959	2
5961	5960	5958	5966	2
5958	5968	5961	5957	2
5957	5958	5956	5964	2
5968	2883	5958	5970	2
5962	5954	5956	5963	2
5967	12394	5960	5969	2
5974	5977	5972	5971	2
5974	5975	5971	5980	2
5976	5982	5974	5975	2
5976	5975	5973	5981	2
5976	5983	5972	5973	2
5972	5973	5971	5979	2
5983	12408	5973	5985	2
5977	4931	5971	5978	2
5982	12422	5975	5984	2
1270	1263	1266	1265	2
1266	1265	1267	1276	2
1267	1266	1268	1273	2
1268	1269	1267	1277	2
1269	1271	1268	1270	2
1270	1265	1269	1278	2
1271	13430	1269	1272	2
1263	1259	1265	1264	2
1273	1275	1267	1274	2
6000	6006	6003	6001	2
6003	6004	6000	6009	2
6003	6011	6005	6004	2
6005	6004	6002	6010	2
6002	6012	6005	6001	2
6001	6002	6000	6008	2
6012	8579	6002	6014	2
6006	5996	6000	6007	2
6011	2353	6004	6013	2
6032	6035	6030	6029	2
6032	6033	6029	6038	2
6033	6040	6032	6034	2
6034	6031	6033	6039	2
6030	6041	6034	6031	2
6030	6031	6029	6037	2
6041	12438	6031	6043	2
6035	6027	6029	6036	2
6040	4423	6033	6042	2
1281	1279	1286	1282	2
1282	1283	1281	1292	2
1283	1282	1284	1289	2
1284	1285	1283	1293	2
1284	1287	1286	1285	2
1286	1285	1281	1294	2
1287	13810	1285	1288	2
1279	756	1281	1280	2
1289	1291	1283	1290	2
6063	6069	6061	6062	2
6063	6060	6062	6068	2
6060	6070	6059	6063	2
6059	6058	6060	6066	2
6059	6064	6061	6058	2
6061	6058	6062	6067	2
6064	332	6058	6065	2
6069	6054	6062	6071	2
6070	12452	6060	6072	2
6090	6093	6088	6087	2
6090	6087	6091	6096	2
6090	6098	6092	6091	2
6092	6091	6089	6097	2
6092	6099	6088	6089	2
6088	6087	6089	6095	2
6099	711	6089	6101	2
6093	6085	6087	6094	2
6098	2035	6091	6100	2
6119	6122	6117	6116	2
6117	6118	6116	6124	2
6117	6128	6121	6118	2
6121	6120	6118	6126	2
6121	6127	6119	6120	2
6119	6116	6120	6125	2
6127	12466	6120	6129	2
6122	6112	6116	6123	2
6128	12240	6118	6130	2
6145	6151	6146	6148	2
6146	6147	6145	6153	2
6147	6157	6146	6150	2
6150	6147	6149	6155	2
6150	6156	6148	6149	2
6148	6145	6149	6154	2
6156	10474	6149	6158	2
6151	6141	6145	6152	2
6157	12478	6147	6159	2
6177	6180	6175	6174	2
6175	6176	6174	6182	2
6175	6186	6179	6176	2
6179	6178	6176	6184	2
6178	6185	6177	6179	2
6177	6178	6174	6183	2
6185	12494	6178	6187	2
6180	6170	6174	6181	2
6186	12508	6176	6188	2
6190	6195	6192	6189	2
6192	6193	6189	6198	2
6192	6200	6194	6193	2
6194	6193	6191	6199	2
6191	6201	6194	6190	2
6190	6191	6189	6197	2
6201	7409	6191	6203	2
6195	4568	6189	6196	2
6200	12520	6193	6202	2
6218	6224	6221	6219	2
6221	6218	6222	6227	2
6222	6229	6221	6223	2
6223	6220	6222	6228	2
6220	6230	6223	6219	2
6219	6220	6218	6226	2
6230	12534	6220	6232	2
6224	6216	6218	6225	2
6229	3989	6222	6231	2
6233	6239	6236	6234	2
6236	6233	6237	6242	2
6237	6244	6236	6238	2
6238	6235	6237	6243	2
6235	6245	6238	6234	2
6234	6233	6235	6241	2
6245	5952	6235	6247	2
6239	847	6233	6240	2
6244	11624	6237	6246	2
6265	6268	6263	6262	2
6265	6262	6266	6271	2
6265	6273	6267	6266	2
6267	6264	6266	6272	2
6264	6274	6267	6263	2
6263	6264	6262	6270	2
6274	12548	6264	6276	2
6268	6258	6262	6269	2
6273	12562	6266	6275	2
6277	6283	6280	6278	2
6280	6277	6281	6286	2
6281	6288	6280	6282	2
6282	6279	6281	6287	2
6282	6289	6278	6279	2
6278	6279	6277	6285	2
6289	189	6279	6291	2
6283	6025	6277	6284	2
6288	12576	6281	6290	2
6292	6298	6293	6295	2
6293	6292	6294	6300	2
6297	6304	6293	6294	2
6297	6294	6296	6302	2
6296	6303	6295	6297	2
6295	6292	6296	6301	2
6303	4686	6296	6305	2
6298	440	6292	6299	2
6304	12592	6294	6306	2
6321	6327	6324	6322	2
6322	6323	6321	6329	2
6323	6333	6322	6326	2
6326	6325	6323	6331	2
6325	6332	6326	6324	2
6324	6325	6321	6330	2
6332	7831	6325	6334	2
6327	6319	6321	6328	2
6333	5282	6323	6335	2
6353	6356	6351	6350	2
6353	6354	6350	6359	2
6354	6361	6355	6353	2
6355	6352	6354	6360	2
6355	6362	6351	6352	2
6351	6352	6350	6358	2
6362	12604	6352	6364	2
6356	6348	6350	6357	2
6361	1610	6354	6363	2
6382	6385	6380	6379	2
6382	6383	6379	6388	2
6383	6390	6384	6382	2
6384	6383	6381	6389	2
6381	6391	6380	6384	2
6380	6379	6381	6387	2
6391	12620	6381	6393	2
6385	6377	6379	6386	2
6390	7134	6383	6392	2
6411	6414	6409	6408	2
6411	6412	6408	6417	2
6411	6419	6413	6412	2
6413	6410	6412	6418	2
6410	6420	6409	6413	2
6409	6408	6410	6416	2
6420	7016	6410	6422	2
6414	6404	6408	6415	2
6419	12424	6412	6421	2
6442	6449	6438	6439	2
6438	6439	6437	6445	2
6437	6443	6440	6438	2
6440	6441	6437	6446	2
6440	6448	6442	6441	2
6442	6441	6439	6447	2
6448	6260	6441	6450	2
6449	12632	6439	6451	2
6443	6433	6437	6444	2
6469	6472	6467	6466	2
6469	6466	6470	6475	2
6470	6477	6469	6471	2
6471	6468	6470	6476	2
6468	6478	6471	6467	2
6467	6468	6466	6474	2
6478	12646	6468	6480	2
6472	6464	6466	6473	2
6477	12662	6470	6479	2
1313	1314	1312	1319	2
1312	1311	1313	1322	2
1311	1309	1312	1316	2
1316	1311	1315	1324	2
1315	1317	1316	1314	2
1314	1313	1315	1323	2
1317	10154	1315	1318	2
1319	1321	1313	1320	2
1309	1305	1311	1310	2
1342	1339	1346	1341	2
1342	1341	1343	1352	2
1343	1342	1344	1349	2
1344	1345	1343	1353	2
1346	1347	1344	1345	2
1346	1341	1345	1354	2
1347	13740	1345	1348	2
1339	1337	1341	1340	2
1349	1351	1343	1350	2
6496	6507	6500	6497	2
6496	6497	6495	6503	2
6495	6501	6496	6498	2
6498	6499	6495	6504	2
6499	6506	6500	6498	2
6500	6499	6497	6505	2
6506	2898	6499	6508	2
6507	6493	6497	6509	2
6501	8957	6495	6502	2
6511	6516	6513	6510	2
6511	6510	6512	6518	2
6511	6522	6515	6512	2
6515	6512	6514	6520	2
6513	6521	6515	6514	2
6513	6510	6514	6519	2
6521	6826	6514	6523	2
6516	2913	6510	6517	2
6522	2928	6512	6524	2
6539	6545	6542	6540	2
6540	6539	6541	6547	2
6540	6551	6544	6541	2
6544	6543	6541	6549	2
6542	6550	6544	6543	2
6542	6543	6539	6548	2
6550	12676	6543	6552	2
6545	6537	6539	6546	2
6551	11204	6541	6553	2
6568	6574	6571	6569	2
6569	6568	6570	6576	2
6569	6580	6573	6570	2
6573	6572	6570	6578	2
6573	6579	6571	6572	2
6571	6568	6572	6577	2
6579	12212	6572	6581	2
6574	6564	6568	6575	2
6580	12506	6570	6582	2
6597	6603	6600	6598	2
6598	6597	6599	6605	2
6602	6609	6598	6599	2
6602	6601	6599	6607	2
6601	6608	6600	6602	2
6600	6597	6601	6606	2
6608	12688	6601	6610	2
6603	6595	6597	6604	2
6609	12702	6599	6611	2
6629	6632	6627	6626	2
6629	6630	6626	6635	2
6631	6637	6629	6630	2
6631	6630	6628	6636	2
6627	6638	6631	6628	2
6627	6628	6626	6634	2
6638	2943	6628	6640	2
6632	6622	6626	6633	2
6637	10430	6630	6639	2
6660	6666	6658	6659	2
6660	6657	6659	6665	2
6660	6667	6656	6657	2
6656	6657	6655	6663	2
6656	6661	6658	6655	2
6658	6655	6659	6664	2
6661	6651	6655	6662	2
6666	12716	6659	6668	2
6667	6857	6657	6669	2
6670	6676	6671	6673	2
6671	6670	6672	6678	2
6675	6682	6671	6672	2
6675	6674	6672	6680	2
6674	6681	6675	6673	2
6673	6670	6674	6679	2
6681	11290	6674	6683	2
6676	2958	6670	6677	2
6682	12730	6672	6684	2
6702	6705	6700	6699	2
6700	6699	6701	6707	2
6700	6711	6704	6701	2
6704	6701	6703	6709	2
6704	6710	6702	6703	2
6702	6699	6703	6708	2
6710	1140	6703	6712	2
6705	6697	6699	6706	2
6711	12744	6701	6713	2
6729	6734	6731	6728	2
6729	6728	6730	6736	2
6729	6740	6733	6730	2
6733	6732	6730	6738	2
6733	6739	6731	6732	2
6731	6732	6728	6737	2
6739	1489	6732	6741	2
6734	6724	6728	6735	2
6740	12758	6730	6742	2
6744	6749	6746	6743	2
6744	6743	6745	6751	2
6744	6755	6748	6745	2
6748	6745	6747	6753	2
6746	6754	6748	6747	2
6746	6743	6747	6752	2
6754	157	6747	6756	2
6749	2295	6743	6750	2
6755	11234	6745	6757	2
6775	6778	6773	6772	2
6773	6774	6772	6780	2
6777	6784	6773	6774	2
6777	6774	6776	6782	2
6776	6783	6777	6775	2
6775	6776	6772	6781	2
6783	11274	6776	6785	2
6778	6768	6772	6779	2
6784	12606	6774	6786	2
6804	6807	6802	6801	2
6802	6803	6801	6809	2
6802	6813	6806	6803	2
6806	6805	6803	6811	2
6806	6812	6804	6805	2
6804	6805	6801	6810	2
6812	11708	6805	6814	2
6807	6797	6801	6808	2
6813	12732	6803	6815	2
6831	6836	6833	6830	2
6833	6830	6834	6839	2
6835	6841	6833	6834	2
6835	6834	6832	6840	2
6831	6842	6835	6832	2
6831	6832	6830	6838	2
6842	7207	6832	6844	2
6836	6828	6830	6837	2
6841	3902	6834	6843	2
1371	1369	1372	1376	2
1372	1371	1373	1382	2
1373	1372	1374	1379	2
1374	1375	1373	1383	2
1374	1377	1376	1375	2
1371	1375	1376	1384	2
1377	11890	1375	1378	2
1369	1365	1371	1370	2
1379	1381	1373	1380	2
1385	1391	1388	1386	2
1388	1389	1385	1394	2
1388	1396	1390	1389	2
1390	1387	1389	1395	2
1387	1397	1390	1386	2
1386	1385	1387	1393	2
1397	1400	1387	1399	2
1391	1414	1385	1392	2
1396	12954	1389	1398	2
6862	6865	6860	6859	2
6860	6861	6859	6867	2
6861	6871	6860	6864	2
6864	6861	6863	6869	2
6862	6870	6864	6863	2
6862	6859	6863	6868	2
6870	7775	6863	6872	2
6865	6855	6859	6866	2
6871	6083	6861	6873	2
6874	6880	6877	6875	2
6875	6874	6876	6882	2
6876	6886	6875	6879	2
6876	6878	6879	6884	2
6878	6885	6879	6877	2
6877	6878	6874	6883	2
6885	4394	6878	6887	2
6880	2973	6874	6881	2
6886	11822	6876	6888	2
6903	6909	6904	6906	2
6904	6905	6903	6911	2
6904	6915	6908	6905	2
6908	6905	6907	6913	2
6908	6914	6906	6907	2
6906	6903	6907	6912	2
6914	7935	6907	6916	2
6909	6901	6903	6910	2
6915	12774	6905	6917	2
6935	6943	6937	6936	2
6935	6932	6936	6941	2
6933	6938	6935	6932	2
6933	6932	6934	6940	2
6934	6944	6933	6937	2
6937	6934	6936	6942	2
6944	12786	6934	6946	2
6943	6928	6936	6945	2
6938	10783	6932	6939	2
1432	1430	1433	1437	2
1437	1436	1432	1445	2
1436	1438	1435	1437	2
1435	1436	1434	1444	2
1434	1433	1435	1440	2
1433	1432	1434	1443	2
1440	1442	1434	1441	2
1430	1428	1432	1431	2
1438	11400	1436	1439	2
6947	6953	6950	6948	2
6950	6951	6947	6956	2
6950	6958	6952	6951	2
6952	6951	6949	6957	2
6952	6959	6948	6949	2
6948	6949	6947	6955	2
6959	11430	6949	6961	2
6953	1426	6947	6954	2
6958	12802	6951	6960	2
1448	1458	1451	1447	2
1447	1448	1446	1454	2
1446	1452	1447	1449	2
1449	1450	1446	1455	2
1449	1457	1451	1450	2
1451	1450	1448	1456	2
1457	3753	1450	1459	2
1458	1461	1448	1460	2
1452	1473	1446	1453	2
6976	6982	6979	6977	2
6979	6980	6976	6985	2
6980	6987	6979	6981	2
6981	6978	6980	6986	2
6978	6988	6977	6981	2
6977	6976	6978	6984	2
6988	12284	6978	6990	2
6982	6974	6976	6983	2
6987	93	6980	6989	2
6993	7003	6992	6996	2
6992	6991	6993	6999	2
6991	6997	6994	6992	2
6994	6991	6995	7000	2
6996	7002	6994	6995	2
6996	6993	6995	7001	2
7002	1109	6995	7004	2
7003	12814	6993	7005	2
6997	2988	6991	6998	2
7020	7026	7021	7023	2
7021	7020	7022	7028	2
7021	7032	7025	7022	2
7025	7022	7024	7030	2
7024	7031	7025	7023	2
7023	7024	7020	7029	2
7031	12464	7024	7033	2
7026	7018	7020	7027	2
7032	12828	7022	7034	2
7049	7055	7052	7050	2
7050	7051	7049	7057	2
7051	7061	7050	7054	2
7054	7051	7053	7059	2
7054	7060	7052	7053	2
7052	7049	7053	7058	2
7060	12844	7053	7062	2
7055	7045	7049	7056	2
7061	11500	7051	7063	2
7078	7084	7079	7081	2
7081	7078	7082	7087	2
7082	7089	7081	7083	2
7083	7082	7080	7088	2
7079	7090	7083	7080	2
7079	7080	7078	7086	2
7090	5251	7080	7092	2
7084	7076	7078	7085	2
7089	4713	7082	7091	2
7107	7113	7108	7110	2
7110	7107	7111	7116	2
7111	7118	7110	7112	2
7112	7109	7111	7117	2
7112	7119	7108	7109	2
7108	7107	7109	7115	2
7119	8008	7109	7121	2
7113	7105	7107	7114	2
7118	12648	7111	7120	2
1494	1491	1498	1493	2
1494	1493	1495	1504	2
1495	1496	1494	1501	2
1496	1495	1497	1505	2
1497	1499	1498	1496	2
1498	1493	1497	1506	2
1499	12396	1497	1500	2
1491	1487	1493	1492	2
1501	1503	1495	1502	2
7141	7147	7139	7140	2
7141	7140	7138	7146	2
7141	7148	7137	7138	2
7137	7138	7136	7144	2
7136	7142	7139	7137	2
7139	7136	7140	7145	2
7142	12858	7136	7143	2
7147	7132	7140	7149	2
7148	12872	7138	7150	2
7170	7176	7168	7169	2
7168	7165	7169	7174	2
7166	7171	7168	7165	2
7166	7165	7167	7173	2
7167	7177	7170	7166	2
7170	7167	7169	7175	2
7177	10065	7167	7179	2
7176	12564	7169	7178	2
7171	7163	7165	7172	2
71	74	73	72	2
73	68	72	82	2
68	66	73	69	2
69	68	70	80	2
70	69	71	76	2
71	70	72	81	2
76	78	70	77	2
74	95	72	75	2
66	65	68	67	2
7180	7186	7183	7181	2
7181	7180	7182	7188	2
7185	7192	7181	7182	2
7185	7182	7184	7190	2
7184	7191	7185	7183	2
7183	7180	7184	7189	2
7191	1335	7184	7193	2
7186	5998	7180	7187	2
7192	11514	7182	7194	2
7212	7215	7210	7209	2
7210	7209	7211	7217	2
7211	7221	7214	7210	2
7214	7211	7213	7219	2
7212	7220	7214	7213	2
7212	7209	7213	7218	2
7220	5749	7213	7222	2
7215	7205	7209	7216	2
7221	12256	7211	7223	2
7241	7244	7239	7238	2
7241	7242	7238	7247	2
7243	7249	7241	7242	2
7242	7243	7240	7248	2
7240	7250	7243	7239	2
7239	7240	7238	7246	2
7250	11976	7240	7252	2
7244	7236	7238	7245	2
7249	12886	7242	7251	2
7267	7273	7268	7270	2
7270	7267	7271	7276	2
7271	7278	7272	7270	2
7272	7271	7269	7277	2
7269	7279	7268	7272	2
7268	7267	7269	7275	2
7279	12690	7269	7281	2
7273	7263	7267	7274	2
7278	3003	7271	7280	2
7296	7302	7299	7297	2
7297	7296	7298	7304	2
7301	7308	7297	7298	2
7301	7298	7300	7306	2
7300	7307	7301	7299	2
7299	7300	7296	7305	2
7307	12900	7300	7309	2
7302	7294	7296	7303	2
7308	4219	7298	7310	2
1525	1526	1524	1531	2
1524	1523	1525	1534	2
1528	1521	1524	1523	2
1528	1523	1527	1536	2
1526	1529	1528	1527	2
1526	1527	1525	1535	2
1529	13670	1527	1530	2
1531	1533	1525	1532	2
1521	1519	1523	1522	2
1558	1559	1556	1557	2
1558	1553	1557	1566	2
1553	1551	1558	1554	2
1554	1555	1553	1564	2
1555	1554	1556	1561	2
1556	1555	1557	1565	2
1561	1563	1555	1562	2
1559	1549	1557	1560	2
1551	5645	1553	1552	2
7325	7331	7328	7326	2
7326	7327	7325	7333	2
7326	7337	7330	7327	2
7330	7329	7327	7335	2
7330	7336	7328	7329	2
7328	7325	7329	7334	2
7336	4512	7329	7338	2
7331	7323	7325	7332	2
7337	5166	7327	7339	2
1570	1573	1568	1567	2
1568	1569	1567	1575	2
1569	1579	1568	1572	2
1572	1569	1571	1577	2
1570	1578	1572	1571	2
1570	1571	1567	1576	2
1578	13752	1571	1580	2
1573	1596	1567	1574	2
1579	1582	1569	1581	2
1616	1615	1617	1622	2
1615	1614	1616	1625	2
1614	1612	1619	1615	2
1619	1614	1618	1627	2
1617	1620	1619	1618	2
1617	1616	1618	1626	2
1620	13738	1618	1621	2
1622	1624	1616	1623	2
1612	1608	1614	1613	2
7340	7346	7341	7343	2
7343	7344	7340	7349	2
7343	7351	7345	7344	2
7345	7342	7344	7350	2
7342	7352	7345	7341	2
7341	7340	7342	7348	2
7352	12914	7342	7354	2
7346	2494	7340	7347	2
7351	12926	7344	7353	2
102	103	101	108	2
103	104	102	113	2
104	106	105	103	2
105	104	100	114	2
100	98	101	105	2
101	102	100	112	2
98	97	100	99	2
108	110	102	109	2
106	125	104	107	2
7356	7361	7358	7355	2
7358	7359	7355	7364	2
7360	7366	7358	7359	2
7360	7357	7359	7365	2
7357	7367	7360	7356	2
7356	7357	7355	7363	2
7367	12942	7357	7369	2
7361	6143	7355	7362	2
7366	12870	7359	7368	2
7384	7390	7385	7387	2
7387	7384	7388	7393	2
7387	7395	7389	7388	2
7389	7388	7386	7394	2
7386	7396	7385	7389	2
7385	7384	7386	7392	2
7396	3018	7386	7398	2
7390	7380	7384	7391	2
7395	12956	7388	7397	2
7414	7419	7416	7413	2
7416	7413	7417	7422	2
7416	7424	7418	7417	2
7418	7417	7415	7423	2
7418	7425	7414	7415	2
7414	7413	7415	7421	2
7425	3033	7415	7427	2
7419	7411	7413	7420	2
7424	11192	7417	7426	2
7442	7448	7445	7443	2
7445	7442	7446	7451	2
7447	7453	7445	7446	2
7447	7446	7444	7452	2
7444	7454	7443	7447	2
7443	7442	7444	7450	2
7454	12660	7444	7456	2
7448	7440	7442	7449	2
7453	1261	7446	7455	2
7460	7463	7458	7457	2
7458	7457	7459	7465	2
7459	7469	7458	7462	2
7462	7461	7459	7467	2
7461	7468	7460	7462	2
7460	7457	7461	7466	2
7468	12970	7461	7470	2
7463	3844	7457	7464	2
7469	11374	7459	7471	2
7486	7492	7489	7487	2
7489	7486	7490	7495	2
7491	7497	7489	7490	2
7491	7488	7490	7496	2
7488	7498	7487	7491	2
7487	7486	7488	7494	2
7498	12982	7488	7500	2
7492	7482	7486	7493	2
7497	4655	7490	7499	2
1628	1634	1631	1629	2
1631	1628	1632	1637	2
1631	1639	1633	1632	2
1633	1630	1632	1638	2
1633	1640	1629	1630	2
1629	1630	1628	1636	2
1640	1643	1630	1642	2
1634	1657	1628	1635	2
1639	13808	1632	1641	2
7516	7521	7518	7515	2
7518	7519	7515	7524	2
7519	7526	7518	7520	2
7520	7517	7519	7525	2
7517	7527	7520	7516	2
7516	7515	7517	7523	2
7527	12522	7517	7529	2
7521	7513	7515	7522	2
7526	11582	7519	7528	2
7533	7536	7531	7530	2
7531	7532	7530	7538	2
7531	7542	7535	7532	2
7535	7532	7534	7540	2
7534	7541	7535	7533	2
7533	7534	7530	7539	2
7541	6056	7534	7543	2
7536	3048	7530	7537	2
7542	12450	7532	7544	2
7564	7570	7562	7563	2
7564	7561	7563	7569	2
7561	7571	7564	7560	2
7560	7561	7559	7567	2
7559	7565	7560	7562	2
7562	7563	7559	7568	2
7565	12998	7559	7566	2
7570	7555	7563	7572	2
7571	13012	7561	7573	2
7588	7594	7589	7591	2
7591	7588	7592	7597	2
7592	7599	7591	7593	2
7593	7590	7592	7598	2
7590	7600	7593	7589	2
7589	7590	7588	7596	2
7600	4016	7590	7602	2
7594	7586	7588	7595	2
7599	13024	7592	7601	2
1675	1673	1680	1676	2
1680	1679	1675	1688	2
1679	1681	1678	1680	2
1678	1677	1679	1687	2
1677	1678	1676	1683	2
1676	1675	1677	1686	2
1683	1685	1677	1684	2
1673	1669	1675	1674	2
1681	12760	1679	1682	2
7606	7609	7604	7603	2
7606	7603	7607	7612	2
7608	7614	7606	7607	2
7608	7607	7605	7613	2
7608	7615	7604	7605	2
7604	7603	7605	7611	2
7615	11386	7605	7617	2
7609	3063	7603	7610	2
7614	13038	7607	7616	2
7633	7638	7635	7632	2
7635	7632	7636	7641	2
7637	7643	7635	7636	2
7637	7634	7636	7642	2
7634	7644	7637	7633	2
7633	7632	7634	7640	2
7644	10810	7634	7646	2
7638	7630	7632	7639	2
7643	7889	7636	7645	2
7662	7667	7664	7661	2
7664	7665	7661	7670	2
7665	7672	7664	7666	2
7666	7665	7663	7671	2
7666	7673	7662	7663	2
7662	7663	7661	7669	2
7673	316	7663	7675	2
7667	7659	7661	7668	2
7672	13054	7665	7674	2
1689	1695	1690	1692	2
1690	1689	1691	1697	2
1694	1701	1690	1691	2
1694	1691	1693	1699	2
1693	1700	1694	1692	2
1692	1693	1689	1698	2
1700	12200	1693	1702	2
1695	1716	1689	1696	2
1701	1704	1691	1703	2
7694	7701	7693	7695	2
7695	7694	7692	7700	2
7691	7702	7695	7692	2
7691	7692	7690	7698	2
7691	7696	7693	7690	2
7693	7694	7690	7699	2
7696	7688	7690	7697	2
7701	6346	7694	7703	2
7702	5135	7692	7704	2
7719	7725	7720	7722	2
7720	7721	7719	7727	2
7721	7731	7720	7724	2
7724	7723	7721	7729	2
7722	7730	7724	7723	2
7722	7719	7723	7728	2
7730	4103	7723	7732	2
7725	7715	7719	7726	2
7731	10285	7721	7733	2
7751	7754	7749	7748	2
7749	7750	7748	7756	2
7750	7760	7749	7753	2
7753	7752	7750	7758	2
7753	7759	7751	7752	2
7751	7752	7748	7757	2
7759	13066	7752	7761	2
7754	7744	7748	7755	2
7760	5618	7750	7762	2
1736	1734	1737	1741	2
1737	1736	1738	1747	2
1738	1737	1739	1744	2
1739	1740	1738	1748	2
1740	1742	1739	1741	2
1741	1740	1736	1749	2
1742	13726	1740	1743	2
1734	1730	1736	1735	2
1744	1746	1738	1745	2
7777	7783	7778	7780	2
7779	7778	7777	7785	2
7779	7789	7778	7782	2
7782	7781	7779	7787	2
7782	7788	7780	7781	2
7780	7777	7781	7786	2
7788	12032	7781	7790	2
7783	7773	7777	7784	2
7789	3078	7779	7791	2
7807	7812	7809	7806	2
7807	7808	7806	7814	2
7807	7818	7811	7808	2
7811	7810	7808	7816	2
7809	7817	7811	7810	2
7809	7810	7806	7815	2
7817	13082	7810	7819	2
7812	7804	7806	7813	2
7818	11316	7808	7820	2
7838	7841	7836	7835	2
7836	7837	7835	7843	2
7837	7847	7836	7840	2
7840	7837	7839	7845	2
7840	7846	7838	7839	2
7838	7839	7835	7844	2
7846	13096	7839	7848	2
7841	7833	7835	7842	2
7847	1671	7837	7849	2
7864	7870	7865	7867	2
7865	7864	7866	7872	2
7866	7876	7865	7869	2
7869	7868	7866	7874	2
7867	7875	7869	7868	2
7867	7868	7864	7873	2
7875	13108	7868	7877	2
7870	7862	7864	7871	2
7876	10562	7866	7878	2
7893	7899	7894	7896	2
7896	7897	7893	7902	2
7897	7904	7898	7896	2
7898	7895	7897	7903	2
7898	7905	7894	7895	2
7894	7893	7895	7901	2
7905	7628	7895	7907	2
7899	7891	7893	7900	2
7904	13124	7897	7906	2
1751	1756	1753	1750	2
1751	1752	1750	1758	2
1755	1762	1751	1752	2
1755	1754	1752	1760	2
1754	1761	1755	1753	2
1753	1754	1750	1759	2
1761	6406	1754	1763	2
1756	1777	1750	1757	2
1762	1765	1752	1764	2
7909	7914	7911	7908	2
7909	7908	7910	7916	2
7910	7920	7913	7909	2
7913	7912	7910	7918	2
7913	7919	7911	7912	2
7911	7912	7908	7917	2
7919	9454	7912	7921	2
7914	7802	7908	7915	2
7920	4161	7910	7922	2
7938	7943	7940	7937	2
7938	7937	7939	7945	2
7942	7949	7938	7939	2
7942	7939	7941	7947	2
7942	7948	7940	7941	2
7940	7941	7937	7946	2
7948	3931	7941	7950	2
7943	7933	7937	7944	2
7949	13138	7939	7951	2
7967	7972	7969	7966	2
7969	7966	7970	7975	2
7970	7977	7969	7971	2
7971	7970	7968	7976	2
7968	7978	7967	7971	2
7967	7968	7966	7974	2
7978	12898	7968	7980	2
7972	7964	7966	7973	2
7977	5923	7970	7979	2
7982	7987	7984	7981	2
7984	7985	7981	7990	2
7986	7992	7984	7985	2
7986	7983	7985	7991	2
7983	7993	7986	7982	2
7982	7983	7981	7989	2
7993	13150	7983	7995	2
7987	1718	7981	7988	2
7992	10254	7985	7994	2
8013	8016	8011	8010	2
8011	8010	8012	8018	2
8011	8022	8015	8012	2
8015	8012	8014	8020	2
8015	8021	8013	8014	2
8013	8014	8010	8019	2
8021	12004	8014	8023	2
8016	8006	8010	8017	2
8022	6462	8012	8024	2
8039	8045	8042	8040	2
8040	8039	8041	8047	2
8044	8051	8040	8041	2
8044	8041	8043	8049	2
8043	8050	8042	8044	2
8042	8039	8043	8048	2
8050	3093	8043	8052	2
8045	8035	8039	8046	2
8051	12536	8041	8053	2
1786	1792	1784	1785	2
1784	1785	1781	1790	2
1781	1787	1784	1782	2
1782	1783	1781	1789	2
1783	1793	1782	1786	2
1786	1783	1785	1791	2
1793	1796	1783	1795	2
1792	1810	1785	1794	2
1787	12578	1781	1788	2
8054	8060	8055	8057	2
8055	8054	8056	8062	2
8056	8066	8055	8059	2
8059	8058	8056	8064	2
8059	8065	8057	8058	2
8057	8054	8058	8063	2
8065	3108	8058	8067	2
8060	6535	8054	8061	2
8066	8079	8056	8068	2
8083	8089	8084	8086	2
8084	8083	8085	8091	2
8085	8095	8088	8084	2
8088	8085	8087	8093	2
8088	8094	8086	8087	2
8086	8083	8087	8092	2
8094	13164	8087	8096	2
8089	8081	8083	8090	2
8095	3123	8085	8097	2
8112	8118	8113	8115	2
8115	8116	8112	8121	2
8116	8123	8115	8117	2
8117	8116	8114	8122	2
8117	8124	8113	8114	2
8113	8112	8114	8120	2
8124	12674	8114	8126	2
8118	8110	8112	8119	2
8123	13180	8116	8125	2
8141	8147	8142	8144	2
8144	8141	8145	8150	2
8146	8152	8144	8145	2
8146	8145	8143	8151	2
8146	8153	8142	8143	2
8142	8141	8143	8149	2
8153	13194	8143	8155	2
8147	8139	8141	8148	2
8152	13206	8145	8154	2
8159	8162	8157	8156	2
8159	8160	8156	8165	2
8159	8167	8161	8160	2
8161	8160	8158	8166	2
8158	8168	8161	8157	2
8157	8158	8156	8164	2
8168	13220	8158	8170	2
8162	2383	8156	8163	2
8167	13236	8160	8169	2
8171	8177	8172	8174	2
8172	8173	8171	8179	2
8176	8183	8172	8173	2
8176	8175	8173	8181	2
8175	8182	8176	8174	2
8174	8175	8171	8180	2
8182	4597	8175	8184	2
8177	908	8171	8178	2
8183	1547	8173	8185	2
8202	8212	8201	8205	2
8201	8200	8202	8208	2
8203	8206	8201	8200	2
8203	8204	8200	8209	2
8205	8211	8203	8204	2
8205	8202	8204	8210	2
8211	13250	8204	8213	2
8212	13264	8202	8214	2
8206	8198	8200	8207	2
1828	1826	1833	1829	2
1829	1830	1828	1839	2
1830	1831	1829	1836	2
1831	1832	1830	1840	2
1833	1834	1831	1832	2
1833	1832	1828	1841	2
1834	9922	1832	1835	2
1826	1822	1828	1827	2
1836	1838	1830	1837	2
1845	1848	1843	1842	2
1843	1842	1844	1850	2
1844	1854	1843	1847	2
1847	1846	1844	1852	2
1847	1853	1845	1846	2
1845	1846	1842	1851	2
1853	13248	1846	1855	2
1848	1871	1842	1849	2
1854	1857	1844	1856	2
8216	8221	8218	8215	2
8216	8217	8215	8223	2
8217	8227	8216	8220	2
8220	8219	8217	8225	2
8219	8226	8220	8218	2
8218	8215	8219	8224	2
8226	13276	8219	8228	2
8221	5222	8215	8222	2
8227	5851	8217	8229	2
1891	1892	1890	1897	2
1890	1891	1889	1900	2
1894	1887	1890	1889	2
1894	1889	1893	1902	2
1894	1895	1892	1893	2
1892	1893	1891	1901	2
1895	13794	1893	1896	2
1897	1899	1891	1898	2
1887	1883	1889	1888	2
1903	1909	1906	1904	2
1906	1907	1903	1912	2
1907	1914	1906	1908	2
1908	1905	1907	1913	2
1908	1915	1904	1905	2
1904	1905	1903	1911	2
1915	1918	1905	1917	2
1909	1930	1903	1910	2
1914	13782	1907	1916	2
134	135	133	140	2
135	136	134	145	2
136	138	135	137	2
137	136	132	146	2
137	130	133	132	2
133	132	134	144	2
130	129	132	131	2
140	142	134	141	2
138	159	136	139	2
166	167	165	172	2
167	168	166	177	2
167	170	169	168	2
169	164	168	178	2
169	162	165	164	2
165	166	164	176	2
162	161	164	163	2
172	174	166	173	2
170	191	168	171	2
1956	1949	1952	1951	2
1952	1953	1951	1962	2
1953	1954	1952	1959	2
1954	1953	1955	1963	2
1956	1957	1954	1955	2
1956	1955	1951	1964	2
1957	13768	1955	1958	2
1949	1947	1951	1950	2
1959	1961	1953	1960	2
1983	1982	1984	1989	2
1982	1981	1983	1992	2
1981	1979	1986	1982	2
1986	1985	1981	1994	2
1985	1987	1986	1984	2
1984	1985	1983	1993	2
1987	6899	1985	1988	2
1989	1991	1983	1990	2
1979	1977	1981	1980	2
8230	8236	8233	8231	2
8231	8230	8232	8238	2
8232	8242	8235	8231	2
8235	8234	8232	8240	2
8234	8241	8235	8233	2
8233	8234	8230	8239	2
8241	12142	8234	8243	2
8236	362	8230	8237	2
8242	13292	8232	8244	2
8262	8265	8260	8259	2
8260	8261	8259	8267	2
8264	8271	8260	8261	2
8264	8263	8261	8269	2
8264	8270	8262	8263	2
8262	8263	8259	8268	2
8270	13152	8263	8272	2
8265	8255	8259	8266	2
8271	13304	8261	8273	2
8275	8280	8277	8274	2
8275	8276	8274	8282	2
8275	8286	8279	8276	2
8279	8278	8276	8284	2
8277	8285	8279	8278	2
8277	8278	8274	8283	2
8285	11178	8278	8287	2
8280	7438	8274	8281	2
8286	11696	8276	8288	2
8304	8309	8306	8303	2
8304	8303	8305	8311	2
8308	8315	8304	8305	2
8308	8307	8305	8313	2
8306	8314	8308	8307	2
8306	8303	8307	8312	2
8314	6653	8307	8316	2
8309	8299	8303	8310	2
8315	11682	8305	8317	2
8318	8324	8319	8321	2
8321	8318	8322	8327	2
8321	8329	8323	8322	2
8323	8322	8320	8328	2
8319	8330	8323	8320	2
8319	8318	8320	8326	2
8330	13320	8320	8332	2
8324	221	8318	8325	2
8329	5004	8322	8331	2
8334	8339	8336	8333	2
8336	8337	8333	8342	2
8337	8344	8338	8336	2
8338	8337	8335	8343	2
8338	8345	8334	8335	2
8334	8333	8335	8341	2
8345	13334	8335	8347	2
8339	3138	8333	8340	2
8344	9425	8337	8346	2
8362	8368	8365	8363	2
8363	8362	8364	8370	2
8363	8374	8367	8364	2
8367	8366	8364	8372	2
8366	8373	8367	8365	2
8365	8366	8362	8371	2
8373	13346	8366	8375	2
8368	8360	8362	8369	2
8374	13362	8364	8376	2
8378	8383	8380	8377	2
8378	8377	8379	8385	2
8379	8389	8378	8382	2
8379	8382	8381	8387	2
8380	8388	8382	8381	2
8380	8377	8381	8386	2
8388	3153	8381	8390	2
8383	2174	8377	8384	2
8389	13374	8379	8391	2
2013	2012	2014	2019	2
2014	2013	2015	2023	2
2015	2017	2016	2014	2
2016	2015	2011	2024	2
2012	2009	2016	2011	2
2012	2013	2011	2022	2
2009	11906	2011	2010	2
2019	2021	2013	2020	2
2017	2007	2015	2018	2
8409	8412	8407	8406	2
8407	8408	8406	8414	2
8407	8418	8411	8408	2
8411	8408	8410	8416	2
8409	8417	8411	8410	2
8409	8406	8410	8415	2
8417	9745	8410	8419	2
8412	8404	8406	8413	2
8418	2432	8408	8420	2
2043	2042	2044	2049	2
2042	2041	2043	2052	2
2041	2039	2042	2046	2
2046	2041	2045	2054	2
2045	2047	2044	2046	2
2044	2045	2043	2053	2
2047	3738	2045	2048	2
2049	2051	2043	2050	2
2039	2037	2041	2040	2
2073	2074	2072	2079	2
2072	2071	2073	2082	2
2071	2069	2072	2076	2
2076	2071	2075	2084	2
2075	2077	2076	2074	2
2074	2073	2075	2083	2
2077	11218	2075	2078	2
2079	2081	2073	2080	2
2069	2067	2071	2070	2
196	194	197	201	2
197	198	196	208	2
198	197	199	204	2
199	198	200	209	2
200	202	201	199	2
201	196	200	210	2
202	223	200	203	2
194	193	196	195	2
204	206	198	205	2
8436	8441	8438	8435	2
8438	8439	8435	8444	2
8438	8446	8440	8439	2
8440	8439	8437	8445	2
8436	8447	8440	8437	2
8436	8437	8435	8443	2
8447	12410	8437	8449	2
8441	8431	8435	8442	2
8446	13360	8439	8448	2
8450	8456	8451	8453	2
8451	8450	8452	8458	2
8452	8462	8455	8451	2
8455	8452	8454	8460	2
8454	8461	8455	8453	2
8453	8454	8450	8459	2
8461	12704	8454	8463	2
8456	7265	8450	8457	2
8462	11444	8452	8464	2
8479	8485	8480	8482	2
8481	8480	8479	8487	2
8484	8491	8480	8481	2
8484	8483	8481	8489	2
8483	8490	8482	8484	2
8482	8479	8483	8488	2
8490	8913	8483	8492	2
8485	8475	8479	8486	2
8491	4454	8481	8493	2
8511	8514	8509	8508	2
8509	8508	8510	8516	2
8513	8520	8509	8510	2
8513	8510	8512	8518	2
8512	8519	8513	8511	2
8511	8508	8512	8517	2
8519	3168	8512	8521	2
8514	8504	8508	8515	2
8520	13166	8510	8522	2
2106	2099	2102	2101	2
2102	2101	2103	2112	2
2103	2102	2104	2109	2
2104	2105	2103	2113	2
2105	2107	2106	2104	2
2106	2101	2105	2114	2
2107	11920	2105	2108	2
2099	2097	2101	2100	2
2109	2111	2103	2110	2
8525	8535	8528	8524	2
8524	8525	8523	8531	2
8526	8529	8524	8523	2
8526	8523	8527	8532	2
8527	8534	8526	8528	2
8528	8525	8527	8533	2
8534	13376	8527	8536	2
8535	3183	8525	8537	2
8529	3198	8523	8530	2
8555	8558	8553	8552	2
8553	8552	8554	8560	2
8554	8564	8557	8553	2
8557	8554	8556	8562	2
8556	8563	8555	8557	2
8555	8552	8556	8561	2
8563	7103	8556	8565	2
8558	8550	8552	8559	2
8564	13318	8554	8566	2
8582	8587	8584	8581	2
8584	8581	8585	8590	2
8584	8592	8586	8585	2
8586	8585	8583	8591	2
8586	8593	8582	8583	2
8582	8581	8583	8589	2
8593	13136	8583	8595	2
8587	8577	8581	8588	2
8592	1732	8585	8594	2
8599	8602	8597	8596	2
8597	8596	8598	8604	2
8601	8608	8597	8598	2
8601	8600	8598	8606	2
8599	8607	8601	8600	2
8599	8600	8596	8605	2
8607	13390	8600	8609	2
8602	4292	8596	8603	2
8608	12324	8598	8610	2
8625	8631	8628	8626	2
8626	8625	8627	8633	2
8627	8637	8626	8630	2
8630	8629	8627	8635	2
8630	8636	8628	8629	2
8628	8625	8629	8634	2
8636	5484	8629	8638	2
8631	8623	8625	8632	2
8637	13404	8627	8639	2
8654	8660	8657	8655	2
8657	8654	8658	8663	2
8659	8665	8657	8658	2
8659	8658	8656	8664	2
8656	8666	8655	8659	2
8655	8654	8656	8662	2
8666	11850	8656	8668	2
8660	8650	8654	8661	2
8665	12928	8658	8667	2
8686	8689	8684	8683	2
8686	8687	8683	8692	2
8687	8694	8688	8686	2
8688	8685	8687	8693	2
8685	8695	8684	8688	2
8684	8683	8685	8691	2
8695	9803	8685	8697	2
8689	8679	8683	8690	2
8694	7292	8687	8696	2
8699	8704	8701	8698	2
8701	8702	8698	8707	2
8702	8709	8703	8701	2
8703	8700	8702	8708	2
8699	8710	8703	8700	2
8699	8700	8698	8706	2
8710	11640	8700	8712	2
8704	1412	8698	8705	2
8709	3213	8702	8711	2
8713	8719	8716	8714	2
8716	8717	8713	8722	2
8717	8724	8716	8718	2
8718	8717	8715	8723	2
8715	8725	8714	8718	2
8714	8715	8713	8721	2
8725	11946	8715	8727	2
8719	5791	8713	8720	2
8724	12312	8717	8726	2
8731	8734	8729	8728	2
8731	8732	8728	8737	2
8733	8739	8731	8732	2
8733	8730	8732	8738	2
8733	8740	8729	8730	2
8729	8730	8728	8736	2
8740	10036	8730	8742	2
8734	253	8728	8735	2
8739	12816	8732	8741	2
8758	8763	8760	8757	2
8758	8757	8759	8765	2
8759	8769	8758	8762	2
8762	8759	8761	8767	2
8762	8768	8760	8761	2
8760	8761	8757	8766	2
8768	12856	8761	8770	2
8763	8753	8757	8764	2
8769	13418	8759	8771	2
8789	8792	8787	8786	2
8787	8786	8788	8794	2
8788	8798	8787	8791	2
8791	8788	8790	8796	2
8790	8797	8791	8789	2
8789	8786	8790	8795	2
8797	13432	8790	8799	2
8792	8784	8786	8793	2
8798	13444	8788	8800	2
8820	8827	8816	8817	2
8816	8815	8817	8823	2
8815	8821	8818	8816	2
8818	8819	8815	8824	2
8819	8826	8818	8820	2
8820	8819	8817	8825	2
8826	13080	8819	8828	2
8827	8811	8817	8829	2
8821	12940	8815	8822	2
8845	8850	8847	8844	2
8847	8848	8844	8853	2
8848	8855	8847	8849	2
8849	8846	8848	8854	2
8846	8856	8845	8849	2
8845	8844	8846	8852	2
8856	3228	8846	8858	2
8850	8842	8844	8851	2
8855	10181	8848	8857	2
8859	8865	8860	8862	2
8860	8861	8859	8867	2
8861	8871	8864	8860	2
8864	8863	8861	8869	2
8863	8870	8864	8862	2
8862	8863	8859	8868	2
8870	13026	8863	8872	2
8865	3243	8859	8866	2
8871	3258	8861	8873	2
8888	8894	8889	8891	2
8891	8888	8892	8897	2
8891	8899	8893	8892	2
8893	8892	8890	8898	2
8890	8900	8889	8893	2
8889	8890	8888	8896	2
8900	4481	8890	8902	2
8894	8884	8888	8895	2
8899	6593	8892	8901	2
8917	8923	8918	8920	2
8920	8917	8921	8926	2
8921	8928	8920	8922	2
8922	8919	8921	8927	2
8919	8929	8918	8922	2
8918	8919	8917	8925	2
8929	11764	8919	8931	2
8923	8915	8917	8924	2
8928	11752	8921	8930	2
8935	8938	8933	8932	2
8935	8932	8936	8941	2
8936	8943	8935	8937	2
8936	8937	8934	8942	2
8937	8944	8933	8934	2
8933	8932	8934	8940	2
8944	13458	8934	8946	2
8938	3273	8932	8939	2
8943	13472	8936	8945	2
8961	8967	8962	8964	2
8962	8961	8963	8969	2
8963	8973	8966	8962	2
8966	8965	8963	8971	2
8965	8972	8964	8966	2
8964	8965	8961	8970	2
8972	13348	8965	8974	2
8967	8959	8961	8968	2
8973	13486	8963	8975	2
8976	8982	8977	8979	2
8977	8976	8978	8984	2
8978	8988	8981	8977	2
8981	8978	8980	8986	2
8980	8987	8981	8979	2
8979	8980	8976	8985	2
8987	13502	8980	8989	2
8982	3288	8976	8983	2
8988	4045	8978	8990	2
9005	9011	9008	9006	2
9006	9007	9005	9013	2
9007	9017	9010	9006	2
9010	9007	9009	9015	2
9010	9016	9008	9009	2
9008	9005	9009	9014	2
9016	7321	9009	9018	2
9011	9003	9005	9012	2
9017	10854	9007	9019	2
9020	9026	9021	9023	2
9023	9020	9024	9029	2
9025	9031	9023	9024	2
9025	9024	9022	9030	2
9025	9032	9021	9022	2
9021	9022	9020	9028	2
9032	3303	9022	9034	2
9026	2065	9020	9027	2
9031	13516	9024	9033	2
9036	9041	9038	9035	2
9036	9037	9035	9043	2
9040	9047	9036	9037	2
9040	9039	9037	9045	2
9039	9046	9038	9040	2
9038	9035	9039	9044	2
9046	12550	9039	9048	2
9041	3318	9035	9042	2
9047	3333	9037	9049	2
2115	2121	2116	2118	2
2116	2115	2117	2123	2
2120	2127	2116	2117	2
2120	2117	2119	2125	2
2120	2126	2118	2119	2
2118	2119	2115	2124	2
2126	12158	2119	2128	2
2121	2144	2115	2122	2
2127	2130	2117	2129	2
2149	2146	2153	2148	2
2153	2152	2148	2161	2
2152	2154	2151	2153	2
2151	2152	2150	2160	2
2150	2149	2151	2156	2
2149	2148	2150	2159	2
2156	2158	2150	2157	2
2146	650	2148	2147	2
2154	12368	2152	2155	2
9065	9070	9067	9064	2
9065	9066	9064	9072	2
9065	9076	9069	9066	2
9069	9068	9066	9074	2
9068	9075	9067	9069	2
9067	9068	9064	9073	2
9075	3348	9068	9077	2
9070	9060	9064	9071	2
9076	13474	9066	9078	2
9097	9104	9096	9098	2
9096	9093	9097	9102	2
9096	9099	9094	9093	2
9094	9095	9093	9101	2
9098	9105	9094	9095	2
9098	9095	9097	9103	2
9105	13528	9095	9107	2
9104	13290	9097	9106	2
9099	9091	9093	9100	2
9125	9128	9123	9122	2
9125	9122	9126	9131	2
9127	9133	9125	9126	2
9127	9126	9124	9132	2
9124	9134	9127	9123	2
9123	9122	9124	9130	2
9134	9321	9124	9136	2
9128	9120	9122	9129	2
9133	3363	9126	9135	2
2179	2176	2183	2178	2
2179	2178	2180	2189	2
2180	2181	2179	2186	2
2181	2182	2180	2190	2
2182	2184	2181	2183	2
2183	2182	2178	2191	2
2184	13796	2182	2185	2
2176	2172	2178	2177	2
2186	2188	2180	2187	2
9151	9157	9154	9152	2
9154	9155	9151	9160	2
9155	9162	9156	9154	2
9156	9155	9153	9161	2
9153	9163	9152	9156	2
9152	9153	9151	9159	2
9163	896	9153	9165	2
9157	9149	9151	9158	2
9162	1824	9155	9164	2
9181	9186	9183	9180	2
9183	9180	9184	9189	2
9184	9191	9183	9185	2
9185	9184	9182	9190	2
9185	9192	9181	9182	2
9181	9182	9180	9188	2
9192	13262	9182	9194	2
9186	9178	9180	9187	2
9191	13122	9184	9193	2
9212	9215	9210	9209	2
9212	9209	9213	9218	2
9213	9220	9214	9212	2
9214	9211	9213	9219	2
9210	9221	9214	9211	2
9210	9209	9211	9217	2
9221	3871	9211	9223	2
9215	9207	9209	9216	2
9220	2095	9213	9222	2
9243	9249	9241	9242	2
9241	9238	9242	9247	2
9238	9244	9239	9241	2
9239	9240	9238	9246	2
9239	9250	9243	9240	2
9243	9240	9242	9248	2
9250	13488	9240	9252	2
9249	9234	9242	9251	2
9244	13068	9238	9245	2
9268	9273	9270	9267	2
9270	9271	9267	9276	2
9271	9278	9270	9272	2
9272	9271	9269	9277	2
9269	9279	9272	9268	2
9268	9269	9267	9275	2
9279	12984	9269	9281	2
9273	9265	9267	9274	2
9278	5079	9271	9280	2
9296	9302	9299	9297	2
9297	9296	9298	9304	2
9298	9308	9301	9297	2
9300	9301	9298	9306	2
9300	9307	9299	9301	2
9299	9300	9296	9305	2
9307	11780	9300	9309	2
9302	9294	9296	9303	2
9308	8621	9298	9310	2
9325	9331	9328	9326	2
9326	9325	9327	9333	2
9327	9337	9330	9326	2
9330	9327	9329	9335	2
9329	9336	9328	9330	2
9325	9328	9329	9334	2
9336	12382	9329	9338	2
9331	9323	9325	9332	2
9337	12830	9327	9339	2
9355	9360	9357	9354	2
9357	9358	9354	9363	2
9357	9365	9359	9358	2
9359	9356	9358	9364	2
9356	9366	9359	9355	2
9355	9356	9354	9362	2
9366	7382	9356	9368	2
9360	9352	9354	9361	2
9365	13542	9358	9367	2
9384	9389	9386	9383	2
9386	9387	9383	9392	2
9388	9394	9386	9387	2
9388	9385	9387	9393	2
9384	9395	9388	9385	2
9384	9383	9385	9391	2
9395	12788	9385	9397	2
9389	9381	9383	9390	2
9394	12114	9387	9396	2
2213	2206	2209	2208	2
2209	2208	2210	2219	2
2210	2211	2209	2216	2
2211	2210	2212	2220	2
2212	2214	2211	2213	2
2213	2212	2208	2221	2
2214	13684	2212	2215	2
2206	2202	2208	2207	2
2216	2218	2210	2217	2
9399	9404	9401	9398	2
9401	9398	9402	9407	2
9402	9409	9401	9403	2
9403	9400	9402	9408	2
9400	9410	9403	9399	2
9399	9398	9400	9406	2
9410	3378	9400	9412	2
9404	8477	9398	9405	2
9409	3393	9402	9411	2
9427	9433	9430	9428	2
9430	9431	9427	9436	2
9430	9438	9432	9431	2
9432	9429	9431	9437	2
9432	9439	9428	9429	2
9428	9429	9427	9435	2
9439	9089	9429	9441	2
9433	9423	9427	9434	2
9438	13530	9431	9440	2
9456	9462	9457	9459	2
9457	9456	9458	9464	2
9457	9468	9461	9458	2
9461	9460	9458	9466	2
9460	9467	9461	9459	2
9459	9460	9456	9465	2
9467	12968	9460	9469	2
9462	9452	9456	9463	2
9468	11332	9458	9470	2
9486	9491	9488	9485	2
9488	9489	9485	9494	2
9490	9496	9488	9489	2
9490	9489	9487	9495	2
9487	9497	9490	9486	2
9486	9487	9485	9493	2
9497	10593	9487	9499	2
9491	9483	9485	9492	2
9496	3408	9489	9498	2
9500	9506	9501	9503	2
9501	9502	9500	9508	2
9501	9512	9505	9502	2
9505	9502	9504	9510	2
9505	9511	9503	9504	2
9503	9504	9500	9509	2
9511	11988	9504	9513	2
9506	8137	9500	9507	2
9512	3423	9502	9514	2
2226	2233	2225	2227	2
2227	2224	2226	2232	2
2227	2234	2223	2224	2
2223	2222	2224	2230	2
2222	2228	2225	2223	2
2225	2226	2222	2231	2
2228	4773	2222	2229	2
2233	2249	2226	2235	2
2234	2237	2224	2236	2
9515	9521	9516	9518	2
9516	9515	9517	9523	2
9517	9527	9520	9516	2
9520	9519	9517	9525	2
9520	9526	9518	9519	2
9518	9515	9519	9524	2
9526	13178	9519	9528	2
9521	2204	9515	9522	2
9527	4744	9517	9529	2
9545	9550	9547	9544	2
9545	9544	9546	9552	2
9549	9556	9545	9546	2
9549	9548	9546	9554	2
9548	9555	9549	9547	2
9547	9544	9548	9553	2
9555	3438	9548	9557	2
9550	9540	9544	9551	2
9556	3453	9546	9558	2
9573	9579	9574	9576	2
9574	9573	9575	9581	2
9575	9585	9578	9574	2
9578	9575	9577	9583	2
9577	9584	9578	9576	2
9576	9573	9577	9582	2
9584	6375	9577	9586	2
9579	9571	9573	9580	2
9585	12996	9575	9587	2
9588	9594	9591	9589	2
9591	9592	9588	9597	2
9591	9599	9593	9592	2
9593	9592	9590	9598	2
9590	9600	9589	9593	2
9589	9588	9590	9596	2
9600	12130	9590	9602	2
9594	8840	9588	9595	2
9599	12102	9592	9601	2
9604	9609	9606	9603	2
9606	9607	9603	9612	2
9608	9614	9606	9607	2
9608	9605	9607	9613	2
9605	9615	9608	9604	2
9604	9605	9603	9611	2
9615	3468	9605	9617	2
9609	2251	9603	9610	2
9614	13556	9607	9616	2
9618	9624	9619	9621	2
9619	9620	9618	9626	2
9620	9630	9623	9619	2
9623	9620	9622	9628	2
9622	9629	9621	9623	2
9621	9618	9622	9627	2
9629	13388	9622	9631	2
9624	7234	9618	9625	2
9630	13208	9620	9632	2
9649	9659	9652	9648	2
9648	9647	9649	9655	2
9647	9653	9648	9650	2
9650	9651	9647	9656	2
9650	9658	9652	9651	2
9652	9651	9649	9657	2
9658	987	9651	9660	2
9659	9643	9649	9661	2
9653	8301	9647	9654	2
9676	9682	9679	9677	2
9677	9678	9676	9684	2
9677	9688	9681	9678	2
9681	9678	9680	9686	2
9680	9687	9681	9679	2
9679	9676	9680	9685	2
9687	7484	9680	9689	2
9682	9672	9676	9683	2
9688	5411	9678	9690	2
9708	9711	9706	9705	2
9706	9705	9707	9713	2
9710	9717	9706	9707	2
9710	9707	9709	9715	2
9708	9716	9710	9709	2
9708	9705	9709	9714	2
9716	6491	9709	9718	2
9711	9703	9705	9712	2
9717	12228	9707	9719	2
9721	9726	9723	9720	2
9721	9720	9722	9728	2
9722	9732	9725	9721	2
9725	9722	9724	9730	2
9725	9731	9723	9724	2
9723	9724	9720	9729	2
9731	3483	9724	9733	2
9726	6566	9720	9727	2
9732	3498	9722	9734	2
2269	2267	2270	2274	2
2270	2271	2269	2280	2
2272	2271	2270	2277	2
2272	2273	2271	2281	2
2274	2275	2272	2273	2
2274	2273	2269	2282	2
2275	11932	2273	2276	2
2267	2265	2269	2268	2
2277	2279	2271	2278	2
2301	2300	2302	2307	2
2300	2299	2301	2310	2
2300	2297	2304	2299	2
2304	2299	2303	2312	2
2303	2305	2302	2304	2
2302	2303	2301	2311	2
2305	13192	2303	2306	2
2307	2309	2301	2308	2
2297	2293	2299	2298	2
233	226	229	228	2
229	228	230	240	2
230	231	229	236	2
231	230	232	241	2
232	234	231	233	2
233	232	228	242	2
234	255	232	235	2
226	225	228	227	2
236	238	230	237	2
9750	9755	9752	9749	2
9752	9753	9749	9758	2
9752	9760	9754	9753	2
9754	9753	9751	9759	2
9751	9761	9754	9750	2
9750	9751	9749	9757	2
9761	9701	9751	9763	2
9755	9747	9749	9756	2
9760	12492	9753	9762	2
9779	9784	9781	9778	2
9779	9780	9778	9786	2
9779	9790	9783	9780	2
9783	9780	9782	9788	2
9782	9789	9781	9783	2
9781	9778	9782	9787	2
9789	13446	9782	9791	2
9784	9776	9778	9785	2
9790	1655	9780	9792	2
9810	9813	9808	9807	2
9809	9807	9808	9815	2
9812	9819	9809	9808	2
9809	9811	9812	9817	2
9811	9818	9810	9812	2
9810	9811	9807	9816	2
9818	5720	9811	9820	2
9813	9805	9807	9814	2
9819	13570	9809	9821	2
9839	9842	9837	9836	2
9839	9836	9840	9845	2
9841	9847	9839	9840	2
9841	9838	9840	9846	2
9838	9848	9841	9837	2
9837	9838	9836	9844	2
9848	13584	9838	9850	2
9842	9832	9836	9843	2
9847	11470	9840	9849	2
9851	9857	9852	9854	2
9854	9851	9855	9860	2
9856	9862	9854	9855	2
9856	9855	9853	9861	2
9853	9863	9852	9856	2
9852	9853	9851	9859	2
9863	13598	9853	9865	2
9857	9205	9851	9858	2
9862	12044	9855	9864	2
2329	2327	2334	2330	2
2330	2331	2329	2340	2
2331	2332	2330	2337	2
2332	2333	2331	2341	2
2332	2335	2334	2333	2
2334	2329	2333	2342	2
2335	11666	2333	2336	2
2327	2325	2329	2328	2
2337	2339	2331	2338	2
9883	9886	9881	9880	2
9881	9882	9880	9888	2
9885	9892	9881	9882	2
9885	9882	9884	9890	2
9884	9891	9885	9883	2
9883	9880	9884	9889	2
9891	3513	9884	9893	2
9886	9878	9880	9887	2
9892	11486	9882	9894	2
9895	9901	9896	9898	2
9898	9895	9899	9904	2
9898	9906	9900	9899	2
9900	9899	9897	9905	2
9896	9907	9900	9897	2
9896	9895	9897	9903	2
9907	8196	9897	9909	2
9901	484	9895	9902	2
9906	8813	9899	9908	2
263	266	265	264	2
265	264	260	274	2
261	258	265	260	2
261	260	262	272	2
262	263	261	268	2
263	262	264	273	2
268	270	262	269	2
266	287	264	267	2
258	257	260	259	2
9925	9930	9927	9924	2
9924	9925	9926	9932	2
9929	9936	9925	9926	2
9929	9928	9926	9934	2
9929	9935	9927	9928	2
9927	9928	9924	9933	2
9935	13614	9928	9937	2
9930	9920	9924	9931	2
9936	7717	9926	9938	2
9954	9959	9956	9953	2
9954	9955	9953	9961	2
9955	9965	9958	9954	2
9958	9955	9957	9963	2
9958	9964	9956	9957	2
9956	9953	9957	9962	2
9964	12912	9957	9966	2
9959	9951	9953	9960	2
9965	11568	9955	9967	2
9985	9988	9983	9982	2
9985	9986	9982	9991	2
9987	9993	9985	9986	2
9987	9984	9986	9992	2
9987	9994	9983	9984	2
9983	9982	9984	9990	2
9994	11876	9984	9996	2
9988	9980	9982	9989	2
9993	3528	9986	9995	2
10014	10017	10012	10011	2
10014	10015	10011	10020	2
10014	10022	10016	10015	2
10016	10015	10013	10021	2
10013	10023	10012	10016	2
10012	10011	10013	10019	2
10023	5326	10013	10025	2
10017	10009	10011	10018	2
10022	12340	10015	10024	2
10045	10052	10041	10042	2
10041	10042	10040	10048	2
10043	10046	10041	10040	2
10043	10044	10040	10049	2
10044	10051	10043	10045	2
10045	10044	10042	10050	2
10051	13626	10044	10053	2
10052	10038	10042	10054	2
10046	6726	10040	10047	2
10069	10075	10070	10072	2
10070	10069	10071	10077	2
10071	10081	10070	10074	2
10074	10073	10071	10079	2
10072	10080	10074	10073	2
10072	10069	10073	10078	2
10080	13558	10073	10082	2
10075	10067	10069	10076	2
10081	5195	10071	10083	2
10101	10109	10103	10102	2
10103	10100	10102	10108	2
10100	10110	10099	10103	2
10099	10100	10098	10106	2
10098	10104	10099	10101	2
10101	10102	10098	10107	2
10104	12270	10098	10105	2
10109	10094	10102	10111	2
10110	13642	10100	10112	2
10127	10133	10130	10128	2
10128	10127	10129	10135	2
10129	10139	10132	10128	2
10132	10131	10129	10137	2
10130	10138	10132	10131	2
10130	10131	10127	10136	2
10138	9236	10131	10140	2
10133	10125	10127	10134	2
10139	8358	10129	10141	2
10156	10162	10159	10157	2
10157	10156	10158	10164	2
10158	10168	10161	10157	2
10161	10160	10158	10166	2
10161	10167	10159	10160	2
10159	10156	10160	10165	2
10167	9118	10160	10169	2
10162	10152	10156	10163	2
10168	9350	10158	10170	2
10185	10191	10186	10188	2
10186	10187	10185	10193	2
10187	10197	10186	10190	2
10190	10189	10187	10195	2
10188	10196	10190	10189	2
10188	10189	10185	10194	2
10196	9674	10189	10198	2
10191	10183	10185	10192	2
10197	6317	10187	10199	2
10214	10220	10217	10215	2
10217	10214	10218	10223	2
10219	10225	10217	10218	2
10219	10218	10216	10224	2
10216	10226	10219	10215	2
10215	10216	10214	10222	2
10226	11302	10216	10228	2
10220	10212	10214	10221	2
10225	13010	10218	10227	2
10230	10235	10232	10229	2
10232	10229	10233	10238	2
10234	10240	10232	10233	2
10231	10233	10234	10239	2
10230	10241	10231	10234	2
10231	10230	10229	10237	2
10241	6770	10231	10243	2
10235	8886	10229	10236	2
10240	11736	10233	10242	2
10258	10264	10261	10259	2
10259	10260	10258	10266	2
10263	10270	10259	10260	2
10263	10262	10260	10268	2
10262	10269	10263	10261	2
10261	10258	10262	10267	2
10269	13278	10262	10271	2
10264	10256	10258	10265	2
10270	12352	10260	10272	2
10288	10293	10290	10287	2
10288	10289	10287	10295	2
10289	10299	10288	10292	2
10292	10291	10289	10297	2
10292	10298	10290	10291	2
10290	10287	10291	10296	2
10298	4844	10291	10300	2
10293	10283	10287	10294	2
10299	13612	10289	10301	2
10316	10322	10317	10319	2
10317	10318	10316	10324	2
10317	10328	10321	10318	2
10321	10320	10318	10326	2
10321	10327	10319	10320	2
10319	10316	10320	10325	2
10327	12842	10320	10329	2
10322	10312	10316	10323	2
10328	10914	10318	10330	2
2359	2357	2364	2360	2
2360	2359	2361	2370	2
2361	2362	2360	2367	2
2362	2363	2361	2371	2
2363	2365	2364	2362	2
2364	2359	2363	2372	2
2365	3768	2363	2366	2
2357	2355	2359	2358	2
2367	2369	2361	2368	2
10331	10337	10334	10332	2
10332	10333	10331	10339	2
10333	10343	10336	10332	2
10336	10333	10335	10341	2
10336	10342	10334	10335	2
10334	10331	10335	10340	2
10342	12746	10335	10344	2
10337	9774	10331	10338	2
10343	4192	10333	10345	2
10349	10352	10347	10346	2
10347	10348	10346	10354	2
10347	10358	10351	10348	2
10351	10348	10350	10356	2
10351	10357	10349	10350	2
10349	10350	10346	10355	2
10357	1779	10350	10359	2
10352	6114	10346	10353	2
10358	12018	10348	10360	2
10362	10367	10364	10361	2
10364	10365	10361	10370	2
10364	10372	10366	10365	2
10366	10363	10365	10371	2
10363	10373	10366	10362	2
10362	10361	10363	10369	2
10373	11358	10363	10375	2
10367	1475	10361	10368	2
10372	999	10365	10374	2
10390	10396	10391	10393	2
10393	10394	10390	10399	2
10394	10401	10393	10395	2
10395	10392	10394	10400	2
10391	10402	10395	10392	2
10391	10392	10390	10398	2
10402	11260	10392	10404	2
10396	10386	10390	10397	2
10401	9062	10394	10403	2
10406	10411	10408	10405	2
10408	10405	10409	10414	2
10410	10416	10408	10409	2
10410	10407	10409	10415	2
10410	10417	10406	10407	2
10406	10407	10405	10413	2
10417	1229	10407	10419	2
10411	591	10405	10412	2
10416	4977	10409	10418	2
10439	10445	10437	10438	2
10439	10436	10438	10444	2
10439	10446	10435	10436	2
10435	10434	10436	10442	2
10434	10440	10437	10435	2
10437	10438	10434	10443	2
10440	13402	10434	10441	2
10445	10432	10438	10447	2
10446	5048	10436	10448	2
10449	10455	10452	10450	2
10452	10449	10453	10458	2
10453	10460	10452	10454	2
10454	10453	10451	10459	2
10454	10461	10450	10451	2
10450	10451	10449	10457	2
10461	13654	10451	10463	2
10455	5353	10449	10456	2
10460	3543	10453	10462	2
10478	10484	10481	10479	2
10479	10480	10478	10486	2
10483	10490	10479	10480	2
10483	10480	10482	10488	2
10482	10489	10481	10483	2
10481	10478	10482	10487	2
10489	12480	10482	10491	2
10484	10476	10478	10485	2
10490	12884	10480	10492	2
10494	10499	10496	10493	2
10494	10495	10493	10501	2
10498	10505	10494	10495	2
10498	10497	10495	10503	2
10498	10504	10496	10497	2
10496	10497	10493	10502	2
10504	13628	10497	10506	2
10499	666	10493	10500	2
10505	13572	10495	10507	2
2390	2387	2394	2389	2
2390	2389	2391	2400	2
2391	2392	2390	2397	2
2392	2393	2391	2401	2
2394	2395	2392	2393	2
2394	2393	2389	2402	2
2395	13640	2393	2396	2
2387	2385	2389	2388	2
2397	2399	2391	2398	2
10508	10514	10511	10509	2
10509	10508	10510	10516	2
10513	10520	10509	10510	2
10513	10510	10512	10518	2
10511	10519	10513	10512	2
10511	10508	10512	10517	2
10519	12074	10512	10521	2
10514	7657	10508	10515	2
10520	11864	10510	10522	2
2403	2409	2404	2406	2
2404	2405	2403	2411	2
2404	2415	2408	2405	2
2408	2405	2407	2413	2
2406	2414	2408	2407	2
2406	2403	2407	2412	2
2414	5574	2407	2416	2
2409	2430	2403	2410	2
2415	2418	2405	2417	2
10537	10543	10538	10540	2
10538	10537	10539	10545	2
10538	10549	10542	10539	2
10542	10541	10539	10547	2
10541	10548	10542	10540	2
10540	10537	10541	10546	2
10548	11722	10541	10550	2
10543	10533	10537	10544	2
10549	9176	10539	10551	2
2437	2440	2435	2434	2
2435	2434	2436	2442	2
2436	2446	2435	2439	2
2439	2438	2436	2444	2
2437	2445	2439	2438	2
2437	2434	2438	2443	2
2445	13110	2438	2447	2
2440	2463	2434	2441	2
2446	2449	2436	2448	2
10568	10578	10567	10571	2
10567	10566	10568	10574	2
10567	10572	10569	10566	2
10569	10570	10566	10575	2
10569	10577	10571	10570	2
10571	10570	10568	10576	2
10577	13668	10570	10579	2
10578	13682	10568	10580	2
10572	10564	10566	10573	2
10596	10601	10598	10595	2
10598	10599	10595	10604	2
10600	10606	10598	10599	2
10600	10599	10597	10605	2
10597	10607	10596	10600	2
10596	10597	10595	10603	2
10607	13514	10597	10609	2
10601	10591	10595	10602	2
10606	3558	10599	10608	2
10624	10630	10625	10627	2
10625	10626	10624	10632	2
10625	10636	10629	10626	2
10629	10626	10628	10634	2
10628	10635	10627	10629	2
10627	10624	10628	10633	2
10635	5382	10628	10637	2
10630	10622	10624	10631	2
10636	13696	10626	10638	2
2467	2477	2470	2466	2
2466	2465	2467	2473	2
2466	2471	2468	2465	2
2468	2465	2469	2474	2
2468	2476	2470	2469	2
2470	2467	2469	2475	2
2476	12772	2469	2478	2
2477	2480	2467	2479	2
2471	2492	2465	2472	2
2499	2496	2503	2498	2
2499	2500	2498	2509	2
2500	2501	2499	2506	2
2501	2500	2502	2510	2
2501	2504	2503	2502	2
2503	2498	2502	2511	2
2504	12718	2502	2505	2
2496	63	2498	2497	2
2506	2508	2500	2507	2
10653	10659	10654	10656	2
10654	10655	10653	10661	2
10654	10665	10658	10655	2
10658	10657	10655	10663	2
10656	10664	10658	10657	2
10656	10653	10657	10662	2
10664	12800	10657	10666	2
10659	10649	10653	10660	2
10665	13544	10655	10667	2
10682	10688	10683	10685	2
10685	10682	10686	10691	2
10685	10693	10687	10686	2
10687	10684	10686	10692	2
10687	10694	10683	10684	2
10683	10684	10682	10690	2
10694	12590	10684	10696	2
10688	10678	10682	10689	2
10693	13040	10686	10695	2
10701	10708	10702	10700	2
10702	10701	10699	10707	2
10698	10709	10702	10699	2
10697	10698	10699	10705	2
10697	10703	10700	10698	2
10700	10701	10697	10706	2
10703	3573	10697	10704	2
10708	1885	10701	10710	2
10709	2005	10699	10711	2
10713	10718	10715	10712	2
10715	10712	10716	10721	2
10716	10723	10717	10715	2
10717	10716	10714	10722	2
10713	10724	10717	10714	2
10713	10714	10712	10720	2
10724	3960	10714	10726	2
10718	3798	10712	10719	2
10723	13222	10716	10725	2
10741	10747	10744	10742	2
10744	10745	10741	10750	2
10746	10752	10744	10745	2
10746	10743	10745	10751	2
10743	10753	10746	10742	2
10742	10741	10743	10749	2
10753	2263	10743	10755	2
10747	10739	10741	10748	2
10752	3588	10745	10754	2
10756	10762	10757	10759	2
10757	10756	10758	10764	2
10761	10768	10757	10758	2
10761	10760	10758	10766	2
10760	10767	10761	10759	2
10759	10760	10756	10765	2
10767	13052	10760	10769	2
10762	10210	10756	10763	2
10768	3603	10758	10770	2
10785	10791	10788	10786	2
10786	10785	10787	10793	2
10790	10797	10786	10787	2
10790	10787	10789	10795	2
10789	10796	10788	10790	2
10788	10785	10789	10794	2
10796	9379	10789	10798	2
10791	10781	10785	10792	2
10797	13500	10787	10799	2
10814	10820	10815	10817	2
10817	10814	10818	10823	2
10817	10825	10819	10818	2
10819	10816	10818	10824	2
10819	10826	10815	10816	2
10815	10816	10814	10822	2
10826	12634	10816	10828	2
10820	10812	10814	10821	2
10825	13234	10818	10827	2
10829	10835	10832	10830	2
10832	10829	10833	10838	2
10834	10840	10832	10833	2
10834	10831	10833	10839	2
10834	10841	10830	10831	2
10830	10831	10829	10837	2
10841	10620	10831	10843	2
10835	5513	10829	10836	2
10840	13698	10833	10842	2
10861	10864	10859	10858	2
10859	10860	10858	10866	2
10860	10870	10859	10863	2
10863	10862	10860	10868	2
10862	10869	10861	10863	2
10861	10862	10858	10867	2
10869	10885	10862	10871	2
10864	10856	10858	10865	2
10870	9001	10860	10872	2
10887	10893	10888	10890	2
10888	10887	10889	10895	2
10892	10899	10888	10889	2
10892	10889	10891	10897	2
10891	10898	10890	10892	2
10890	10891	10887	10896	2
10898	13712	10891	10900	2
10893	10883	10887	10894	2
10899	13460	10889	10901	2
10917	10922	10919	10916	2
10917	10916	10918	10924	2
10918	10928	10917	10921	2
10921	10920	10918	10926	2
10920	10927	10919	10921	2
10919	10916	10920	10925	2
10927	3618	10920	10929	2
10922	10912	10916	10923	2
10928	7161	10918	10930	2
10932	10937	10934	10931	2
10934	10935	10931	10940	2
10936	10942	10934	10935	2
10936	10935	10933	10941	2
10933	10943	10936	10932	2
10932	10933	10931	10939	2
10943	3633	10933	10945	2
10937	7584	10931	10938	2
10942	12436	10935	10944	2
10946	10952	10947	10949	2
10949	10946	10950	10955	2
10951	10957	10949	10950	2
10951	10950	10948	10956	2
10947	10958	10951	10948	2
10947	10946	10948	10954	2
10958	4367	10948	10960	2
10952	3648	10946	10953	2
10957	3663	10950	10959	2
10961	10967	10964	10962	2
10964	10965	10961	10970	2
10965	10972	10966	10964	2
10966	10963	10965	10971	2
10962	10973	10966	10963	2
10961	10962	10963	10969	2
10973	11596	10963	10975	2
10967	3678	10961	10968	2
10972	6172	10965	10974	2
10991	10996	10993	10990	2
10991	10992	10990	10998	2
10992	11002	10991	10995	2
10995	10994	10992	11000	2
10994	11001	10993	10995	2
10993	10994	10990	10999	2
11001	13586	10994	11003	2
10996	10988	10990	10997	2
11002	13656	10992	11004	2
11005	11011	11006	11008	2
11008	11009	11005	11014	2
11009	11016	11010	11008	2
11010	11009	11007	11015	2
11006	11017	11010	11007	2
11006	11005	11007	11013	2
11017	11792	11007	11019	2
11011	10535	11005	11012	2
11016	12088	11009	11018	2
2528	2526	2533	2529	2
2533	2528	2532	2541	2
2533	2534	2531	2532	2
2531	2532	2530	2540	2
2530	2531	2529	2536	2
2529	2528	2530	2539	2
2536	2538	2530	2537	2
2526	2522	2528	2527	2
2534	11062	2532	2535	2
11021	11026	11023	11020	2
11021	11022	11020	11028	2
11025	11032	11021	11022	2
11025	11022	11024	11030	2
11025	11031	11023	11024	2
11023	11024	11020	11029	2
11031	4902	11024	11033	2
11026	10007	11020	11027	2
11032	10388	11022	11034	2
11035	11041	11038	11036	2
11036	11037	11035	11043	2
11036	11047	11040	11037	2
11040	11039	11037	11045	2
11039	11046	11040	11038	2
11038	11035	11039	11044	2
11046	409	11039	11048	2
11041	8257	11035	11042	2
11047	13710	11037	11049	2
11064	11070	11067	11065	2
11065	11064	11066	11072	2
11069	11076	11065	11066	2
11069	11068	11066	11074	2
11067	11075	11069	11068	2
11067	11068	11064	11073	2
11075	13724	11068	11077	2
11070	11060	11064	11071	2
11076	4323	11066	11078	2
11096	11099	11094	11093	2
11094	11095	11093	11101	2
11094	11105	11098	11095	2
11098	11095	11097	11103	2
11098	11104	11096	11097	2
11096	11097	11093	11102	2
11104	11556	11097	11106	2
11099	11089	11093	11100	2
11105	11246	11095	11107	2
2545	2548	2543	2542	2
2543	2542	2544	2550	2
2543	2554	2547	2544	2
2547	2544	2546	2552	2
2545	2553	2547	2546	2
2545	2546	2542	2551	2
2553	8548	2546	2555	2
2548	2571	2542	2549	2
2554	2557	2544	2556	2
11109	11114	11111	11108	2
11109	11110	11108	11116	2
11110	11120	11109	11113	2
11113	11110	11112	11118	2
11113	11119	11111	11112	2
11111	11112	11108	11117	2
11119	3693	11112	11121	2
11114	6930	11108	11115	2
11120	3708	11110	11122	2
11124	11129	11126	11123	2
11126	11123	11127	11132	2
11128	11134	11126	11127	2
11128	11127	11125	11133	2
11128	11135	11124	11125	2
11124	11125	11123	11131	2
11135	7047	11125	11137	2
11129	127	11123	11130	2
11134	3723	11127	11136	2


[ moleculetype ]
; Name	nrexcl
MOL2	3

[ atoms ]
;nr	type	resnr	residue	atom	cgnr	charge	mass
1	OR	1	TCq1	O1	1	-0.65	15.9994
2	C=O	1	TCq1	C1	1	0.6338	12.011
3	O=C	1	TCq1	O2	1	-0.57	15.9994
4	CB	1	TCq1	C2	1	0.0862	12.011
5	CB	1	TCq1	C3	1	-0.15	12.011
6	CB	1	TCq1	C4	1	-0.179	12.011
7	CB	1	TCq1	C5	1	-0.15	12.011
8	CB	1	TCq1	C6	1	0.0862	12.011
9	CB	1	TCq1	C7	1	-0.15	12.011
10	C=O	1	TCq1	C8	1	0.5438	12.011
11	O=C	1	TCq1	O4	1	-0.57	15.9994
12	CO2M	1	TCq1	C9	1	0.979	12.011
13	O2CM	1	TCq1	O5	1	-0.9	15.9994
14	O2CM	1	TCq1	O6	1	-0.9	15.9994
15	HOCO	1	TCq1	H1	1	0.5	1.0079
16	HCMM	1	TCq1	H2	1	0.15	1.0079
17	HCMM	1	TCq1	H3	1	0.15	1.0079
18	HCMM	1	TCq1	H4	1	0.15	1.0079
19	CB	2	MPD2	C	1	-0.15	12.011
20	CB	2	MPD2	C1	1	0.117	12.011
21	CB	2	MPD2	C2	1	-0.15	12.011
22	CB	2	MPD2	C3	1	0.117	12.011
23	CB	2	MPD2	C4	1	-0.15	12.011
24	CB	2	MPD2	C5	1	-0.15	12.011
25	HCMM	2	MPD2	H	1	0.15	1.0079
26	HCMM	2	MPD2	H1	1	0.15	1.0079
27	HCMM	2	MPD2	H2	1	0.15	1.0079
28	HCMM	2	MPD2	H3	1	0.15	1.0079
29	NC=O	2	MPD2	N	1	-0.547	14.0067
30	HNCO	2	MPD2	H5	1	0.37	1.0079
31	NC=O	2	MPD2	N1	1	-0.547	14.0067
32	HNCO	2	MPD2	H7	1	0.37	1.0079
33	CB	3	TMC2	C1	1	0.0862	12.011
34	CB	3	TMC2	C2	1	-0.15	12.011
35	CB	3	TMC2	C3	1	0.0862	12.011
36	CB	3	TMC2	C4	1	-0.15	12.011
37	CB	3	TMC2	C5	1	0.0862	12.011
38	CB	3	TMC2	C6	1	-0.15	12.011
39	C=O	3	TMC2	C	1	0.5438	12.011
40	O=C	3	TMC2	O	1	-0.57	15.9994
41	HCMM	3	TMC2	H	1	0.15	1.0079
42	HCMM	3	TMC2	H1	1	0.15	1.0079
43	HCMM	3	TMC2	H2	1	0.15	1.0079
44	C=O	3	TMC2	C7	1	0.5438	12.011
45	C=O	3	TMC2	C8	1	0.6338	12.011
46	O=C	3	TMC2	O1	1	-0.57	15.9994
47	O=C	3	TMC2	O2	1	-0.57	15.9994
48	OR	3	TMC2	O5	1	-0.65	15.9994
49	HOCO	3	TMC2	H5	1	0.5	1.0079
50	CB	4	MPD2	C	1	-0.15	12.011
51	CB	4	MPD2	C1	1	0.117	12.011
52	CB	4	MPD2	C2	1	-0.15	12.011
53	CB	4	MPD2	C3	1	0.117	12.011
54	CB	4	MPD2	C4	1	-0.15	12.011
55	CB	4	MPD2	C5	1	-0.15	12.011
56	HCMM	4	MPD2	H	1	0.15	1.0079
57	HCMM	4	MPD2	H1	1	0.15	1.0079
58	HCMM	4	MPD2	H2	1	0.15	1.0079
59	HCMM	4	MPD2	H3	1	0.15	1.0079
60	NC=O	4	MPD2	N	1	-0.547	14.0067
61	HNCO	4	MPD2	H5	1	0.37	1.0079
62	NC=O	4	MPD2	N1	1	-0.547	14.0067
63	HNCO	4	MPD2	H7	1	0.37	1.0079
64	C=O	5	TCq2	C1	1	0.5438	12.011
65	O=C	5	TCq2	O2	1	-0.57	15.9994
66	CB	5	TCq2	C2	1	0.0862	12.011
67	CB	5	TCq2	C3	1	-0.15	12.011
68	CB	5	TCq2	C4	1	-0.179	12.011
69	CB	5	TCq2	C5	1	-0.15	12.011
70	CB	5	TCq2	C6	1	0.0862	12.011
71	CB	5	TCq2	C7	1	-0.15	12.011
72	C=O	5	TCq2	C8	1	0.5438	12.011
73	O=C	5	TCq2	O4	1	-0.57	15.9994
74	CO2M	5	TCq2	C9	1	0.979	12.011
75	O2CM	5	TCq2	O5	1	-0.9	15.9994
76	O2CM	5	TCq2	O6	1	-0.9	15.9994
77	HCMM	5	TCq2	H2	1	0.15	1.0079
78	HCMM	5	TCq2	H3	1	0.15	1.0079
79	HCMM	5	TCq2	H4	1	0.15	1.0079
80	CB	6	MPD1	C	1	-0.15	12.011
81	CB	6	MPD1	C1	1	0.1	12.011
82	CB	6	MPD1	C2	1	-0.15	12.011
83	CB	6	MPD1	C3	1	0.117	12.011
84	CB	6	MPD1	C4	1	-0.15	12.011
85	CB	6	MPD1	C5	1	-0.15	12.011
86	HCMM	6	MPD1	H	1	0.15	1.0079
87	HCMM	6	MPD1	H1	1	0.15	1.0079
88	HCMM	6	MPD1	H2	1	0.15	1.0079
89	HCMM	6	MPD1	H3	1	0.15	1.0079
90	NC=O	6	MPD1	N	1	-0.547	14.0067
91	HNCO	6	MPD1	H5	1	0.37	1.0079
92	NC=C	6	MPD1	N1	1	-0.9	14.0067
93	HNCO	6	MPD1	H6	1	0.4	1.0079
94	HNCO	6	MPD1	H7	1	0.4	1.0079
95	CB	7	MPD2	C	1	-0.15	12.011
96	CB	7	MPD2	C1	1	0.117	12.011
97	CB	7	MPD2	C2	1	-0.15	12.011
98	CB	7	MPD2	C3	1	0.117	12.011
99	CB	7	MPD2	C4	1	-0.15	12.011
100	CB	7	MPD2	C5	1	-0.15	12.011
101	HCMM	7	MPD2	H	1	0.15	1.0079
102	HCMM	7	MPD2	H1	1	0.15	1.0079
103	HCMM	7	MPD2	H2	1	0.15	1.0079
104	HCMM	7	MPD2	H3	1	0.15	1.0079
105	NC=O	7	MPD2	N	1	-0.547	14.0067
106	HNCO	7	MPD2	H5	1	0.37	1.0079
107	NC=O	7	MPD2	N1	1	-0.547	14.0067
108	HNCO	7	MPD2	H7	1	0.37	1.0079
109	CB	8	TMC3	C1	1	0.0862	12.011
110	CB	8	TMC3	C2	1	-0.15	12.011
111	CB	8	TMC3	C3	1	0.0862	12.011
112	CB	8	TMC3	C4	1	-0.15	12.011
113	CB	8	TMC3	C5	1	0.0862	12.011
114	CB	8	TMC3	C6	1	-0.15	12.011
115	C=O	8	TMC3	C	1	0.5438	12.011
116	O=C	8	TMC3	O	1	-0.57	15.9994
117	HCMM	8	TMC3	H	1	0.15	1.0079
118	HCMM	8	TMC3	H1	1	0.15	1.0079
119	HCMM	8	TMC3	H2	1	0.15	1.0079
120	C=O	8	TMC3	C7	1	0.5438	12.011
121	C=O	8	TMC3	C8	1	0.5438	12.011
122	O=C	8	TMC3	O1	1	-0.57	15.9994
123	O=C	8	TMC3	O2	1	-0.57	15.9994
124	CB	9	TMC3	C1	1	0.0862	12.011
125	CB	9	TMC3	C2	1	-0.15	12.011
126	CB	9	TMC3	C3	1	0.0862	12.011
127	CB	9	TMC3	C4	1	-0.15	12.011
128	CB	9	TMC3	C5	1	0.0862	12.011
129	CB	9	TMC3	C6	1	-0.15	12.011
130	C=O	9	TMC3	C	1	0.5438	12.011
131	O=C	9	TMC3	O	1	-0.57	15.9994
132	HCMM	9	TMC3	H	1	0.15	1.0079
133	HCMM	9	TMC3	H1	1	0.15	1.0079
134	HCMM	9	TMC3	H2	1	0.15	1.0079
135	C=O	9	TMC3	C7	1	0.5438	12.011
136	C=O	9	TMC3	C8	1	0.5438	12.011
137	O=C	9	TMC3	O1	1	-0.57	15.9994
138	O=C	9	TMC3	O2	1	-0.57	15.9994
139	CB	10	MPD2	C	1	-0.15	12.011
140	CB	10	MPD2	C1	1	0.117	12.011
141	CB	10	MPD2	C2	1	-0.15	12.011
142	CB	10	MPD2	C3	1	0.117	12.011
143	CB	10	MPD2	C4	1	-0.15	12.011
144	CB	10	MPD2	C5	1	-0.15	12.011
145	HCMM	10	MPD2	H	1	0.15	1.0079
146	HCMM	10	MPD2	H1	1	0.15	1.0079
147	HCMM	10	MPD2	H2	1	0.15	1.0079
148	HCMM	10	MPD2	H3	1	0.15	1.0079
149	NC=O	10	MPD2	N	1	-0.547	14.0067
150	HNCO	10	MPD2	H5	1	0.37	1.0079
151	NC=O	10	MPD2	N1	1	-0.547	14.0067
152	HNCO	10	MPD2	H7	1	0.37	1.0079
153	CB	11	MPD2	C	1	-0.15	12.011
154	CB	11	MPD2	C1	1	0.117	12.011
155	CB	11	MPD2	C2	1	-0.15	12.011
156	CB	11	MPD2	C3	1	0.117	12.011
157	CB	11	MPD2	C4	1	-0.15	12.011
158	CB	11	MPD2	C5	1	-0.15	12.011
159	HCMM	11	MPD2	H	1	0.15	1.0079
160	HCMM	11	MPD2	H1	1	0.15	1.0079
161	HCMM	11	MPD2	H2	1	0.15	1.0079
162	HCMM	11	MPD2	H3	1	0.15	1.0079
163	NC=O	11	MPD2	N	1	-0.547	14.0067
164	HNCO	11	MPD2	H5	1	0.37	1.0079
165	NC=O	11	MPD2	N1	1	-0.547	14.0067
166	HNCO	11	MPD2	H7	1	0.37	1.0079

[ bonds ]
140	151	1
151	152	1
151	120	1
142	149	1
149	150	1
149	136	1
140	141	1
139	140	1
141	142	1
142	143	1
141	145	1
139	144	1
139	147	1
143	144	1
143	146	1
144	148	1
53	60	1
60	61	1
64	60	1
51	62	1
62	63	1
62	121	1
52	53	1
53	54	1
51	52	1
50	51	1
52	56	1
54	55	1
54	57	1
50	55	1
50	58	1
55	59	1
20	31	1
31	32	1
39	31	1
22	29	1
29	30	1
10	29	1
20	21	1
19	20	1
21	22	1
22	23	1
21	25	1
19	24	1
19	27	1
23	24	1
23	26	1
24	28	1
154	165	1
165	166	1
44	165	1
156	163	1
163	164	1
72	163	1
154	155	1
153	154	1
155	156	1
156	157	1
155	159	1
153	158	1
153	161	1
157	158	1
157	160	1
158	162	1
96	107	1
107	108	1
107	135	1
98	105	1
105	106	1
105	115	1
96	97	1
95	96	1
97	98	1
98	99	1
97	101	1
95	100	1
95	103	1
99	100	1
99	102	1
100	104	1
81	92	1
92	93	1
92	94	1
83	90	1
90	91	1
90	130	1
81	82	1
80	81	1
82	83	1
83	84	1
82	86	1
80	85	1
80	88	1
84	85	1
84	87	1
85	89	1
66	67	1
66	71	1
66	64	1
67	68	1
67	77	1
68	69	1
68	74	1
70	69	1
69	78	1
71	70	1
70	72	1
71	79	1
72	73	1
64	65	1
74	75	1
74	76	1
34	35	1
35	38	1
35	45	1
33	34	1
34	41	1
33	36	1
33	39	1
36	37	1
36	42	1
37	38	1
37	44	1
38	43	1
44	46	1
45	47	1
45	48	1
39	40	1
48	49	1
124	127	1
124	125	1
124	130	1
127	128	1
127	133	1
128	129	1
128	135	1
126	129	1
129	134	1
125	126	1
126	136	1
125	132	1
136	138	1
130	131	1
135	137	1
109	110	1
109	112	1
109	115	1
110	111	1
110	117	1
111	114	1
111	121	1
113	114	1
114	119	1
112	113	1
113	120	1
112	118	1
120	122	1
115	116	1
121	123	1
9	4	1
4	5	1
4	2	1
8	9	1
9	18	1
8	7	1
8	10	1
7	6	1
7	17	1
6	5	1
6	12	1
5	16	1
12	13	1
12	14	1
2	3	1
2	1	1
10	11	1
1	15	1

[ angles ]
141	140	151	1
139	140	151	1
151	120	113	1
151	120	122	1
141	142	149	1
143	142	149	1
149	136	126	1
149	136	138	1
140	151	152	1
140	151	120	1
140	141	142	1
140	141	145	1
140	139	144	1
140	139	147	1
142	149	150	1
142	149	136	1
142	141	145	1
142	143	144	1
142	143	146	1
139	140	141	1
141	142	143	1
139	144	143	1
139	144	148	1
143	144	148	1
144	139	147	1
144	143	146	1
152	151	120	1
150	149	136	1
52	53	60	1
54	53	60	1
66	64	60	1
65	64	60	1
52	51	62	1
50	51	62	1
62	121	111	1
62	121	123	1
53	60	61	1
64	60	53	1
51	52	53	1
53	52	56	1
53	54	55	1
53	54	57	1
51	62	63	1
51	62	121	1
51	52	56	1
51	50	55	1
51	50	58	1
52	53	54	1
50	51	52	1
50	55	54	1
54	55	59	1
50	55	59	1
55	54	57	1
55	50	58	1
64	60	61	1
63	62	121	1
21	20	31	1
19	20	31	1
33	39	31	1
40	39	31	1
21	22	29	1
23	22	29	1
8	10	29	1
11	10	29	1
20	31	32	1
39	31	20	1
20	21	22	1
20	21	25	1
20	19	24	1
20	19	27	1
22	29	30	1
10	29	22	1
22	21	25	1
22	23	24	1
22	23	26	1
19	20	21	1
21	22	23	1
19	24	23	1
19	24	28	1
23	24	28	1
24	19	27	1
24	23	26	1
39	31	32	1
10	29	30	1
155	154	165	1
153	154	165	1
37	44	165	1
46	44	165	1
155	156	163	1
157	156	163	1
70	72	163	1
73	72	163	1
154	165	166	1
44	165	154	1
154	155	156	1
154	155	159	1
154	153	158	1
154	153	161	1
156	163	164	1
72	163	156	1
156	155	159	1
156	157	158	1
156	157	160	1
153	154	155	1
155	156	157	1
153	158	157	1
153	158	162	1
157	158	162	1
158	153	161	1
158	157	160	1
44	165	166	1
72	163	164	1
97	96	107	1
95	96	107	1
107	135	128	1
107	135	137	1
97	98	105	1
99	98	105	1
105	115	109	1
105	115	116	1
96	107	108	1
96	107	135	1
96	97	98	1
96	97	101	1
96	95	100	1
96	95	103	1
98	105	106	1
98	105	115	1
98	97	101	1
98	99	100	1
98	99	102	1
95	96	97	1
97	98	99	1
95	100	99	1
95	100	104	1
99	100	104	1
100	95	103	1
100	99	102	1
108	107	135	1
106	105	115	1
82	81	92	1
80	81	92	1
82	83	90	1
84	83	90	1
90	130	124	1
90	130	131	1
81	92	93	1
81	92	94	1
81	82	83	1
81	82	86	1
81	80	85	1
81	80	88	1
83	90	91	1
83	90	130	1
83	82	86	1
83	84	85	1
83	84	87	1
80	81	82	1
82	83	84	1
80	85	84	1
80	85	89	1
84	85	89	1
85	80	88	1
85	84	87	1
93	92	94	1
91	90	130	1
66	67	68	1
66	67	77	1
66	71	70	1
66	71	79	1
66	64	65	1
67	68	69	1
67	68	74	1
67	66	71	1
67	66	64	1
68	67	77	1
68	69	70	1
68	69	78	1
68	74	75	1
68	74	76	1
69	68	74	1
71	70	69	1
69	70	72	1
70	69	78	1
70	71	79	1
70	72	73	1
71	70	72	1
71	66	64	1
75	74	76	1
33	34	35	1
35	34	41	1
35	38	37	1
35	38	43	1
35	45	47	1
35	45	48	1
34	33	36	1
34	33	39	1
34	35	38	1
34	35	45	1
33	34	41	1
33	36	37	1
33	36	42	1
33	39	40	1
36	33	39	1
36	37	38	1
36	37	44	1
37	36	42	1
37	38	43	1
37	44	46	1
38	37	44	1
38	35	45	1
45	48	49	1
47	45	48	1
124	127	128	1
124	127	133	1
124	125	126	1
124	125	132	1
124	130	131	1
127	128	129	1
127	128	135	1
125	124	127	1
127	124	130	1
128	127	133	1
126	129	128	1
128	129	134	1
128	135	137	1
129	128	135	1
125	126	129	1
129	126	136	1
126	129	134	1
126	125	132	1
126	136	138	1
125	126	136	1
125	124	130	1
109	110	111	1
109	110	117	1
109	112	113	1
109	112	118	1
109	115	116	1
110	111	114	1
110	111	121	1
110	109	112	1
110	109	115	1
111	110	117	1
111	114	113	1
111	114	119	1
111	121	123	1
114	111	121	1
112	113	114	1
114	113	120	1
113	114	119	1
113	112	118	1
113	120	122	1
112	113	120	1
112	109	115	1
8	9	4	1
4	9	18	1
6	5	4	1
4	5	16	1
4	2	3	1
4	2	1	1
7	8	9	1
9	8	10	1
9	4	5	1
9	4	2	1
8	9	18	1
8	7	6	1
8	7	17	1
8	10	11	1
7	8	10	1
7	6	5	1
7	6	12	1
6	7	17	1
6	5	16	1
6	12	13	1
6	12	14	1
5	6	12	1
5	4	2	1
2	1	15	1
13	12	14	1
3	2	1	1

[ dihedrals ]
142	141	140	151	9
145	141	140	151	9
144	139	140	151	9
147	139	140	151	9
151	120	113	114	9
151	120	113	112	9
140	141	142	149	9
145	141	142	149	9
144	143	142	149	9
146	143	142	149	9
149	136	126	129	9
149	136	126	125	9
140	151	120	113	9
140	151	120	122	9
140	141	142	143	9
140	139	144	143	9
140	139	144	148	9
142	149	136	126	9
142	149	136	138	9
139	140	141	142	9
139	144	143	142	9
142	143	144	148	9
141	140	151	152	9
141	140	151	120	9
141	140	139	144	9
141	140	139	147	9
141	142	149	150	9
141	142	149	136	9
141	142	143	144	9
141	142	143	146	9
139	140	151	152	9
139	140	151	120	9
139	140	141	145	9
139	144	143	146	9
143	142	149	150	9
143	142	149	136	9
143	142	141	145	9
143	144	139	147	9
147	139	144	148	9
146	143	144	148	9
152	151	120	113	9
152	151	120	122	9
150	149	136	126	9
150	149	136	138	9
51	52	53	60	9
56	52	53	60	9
55	54	53	60	9
57	54	53	60	9
67	66	64	60	9
71	66	64	60	9
53	52	51	62	9
56	52	51	62	9
55	50	51	62	9
58	50	51	62	9
62	121	111	110	9
62	121	111	114	9
66	64	60	53	9
65	64	60	53	9
50	51	52	53	9
50	55	54	53	9
53	54	55	59	9
51	62	121	111	9
51	62	121	123	9
51	52	53	54	9
51	50	55	54	9
51	50	55	59	9
52	53	60	61	9
64	60	53	52	9
52	53	54	55	9
52	53	54	57	9
52	51	62	63	9
52	51	62	121	9
52	51	50	55	9
52	51	50	58	9
54	53	60	61	9
64	60	53	54	9
54	53	52	56	9
54	55	50	58	9
50	51	62	63	9
50	51	62	121	9
50	51	52	56	9
50	55	54	57	9
57	54	55	59	9
58	50	55	59	9
66	64	60	61	9
65	64	60	61	9
63	62	121	111	9
63	62	121	123	9
22	21	20	31	9
25	21	20	31	9
24	19	20	31	9
27	19	20	31	9
34	33	39	31	9
36	33	39	31	9
20	21	22	29	9
25	21	22	29	9
24	23	22	29	9
26	23	22	29	9
9	8	10	29	9
7	8	10	29	9
33	39	31	20	9
40	39	31	20	9
20	21	22	23	9
20	19	24	23	9
20	19	24	28	9
8	10	29	22	9
11	10	29	22	9
19	20	21	22	9
19	24	23	22	9
22	23	24	28	9
21	20	31	32	9
39	31	20	21	9
21	20	19	24	9
21	20	19	27	9
21	22	29	30	9
10	29	22	21	9
21	22	23	24	9
21	22	23	26	9
19	20	31	32	9
39	31	20	19	9
19	20	21	25	9
19	24	23	26	9
23	22	29	30	9
10	29	22	23	9
23	22	21	25	9
23	24	19	27	9
27	19	24	28	9
26	23	24	28	9
33	39	31	32	9
40	39	31	32	9
8	10	29	30	9
11	10	29	30	9
156	155	154	165	9
159	155	154	165	9
158	153	154	165	9
161	153	154	165	9
36	37	44	165	9
38	37	44	165	9
154	155	156	163	9
159	155	156	163	9
158	157	156	163	9
160	157	156	163	9
69	70	72	163	9
71	70	72	163	9
37	44	165	154	9
46	44	165	154	9
154	155	156	157	9
154	153	158	157	9
154	153	158	162	9
70	72	163	156	9
73	72	163	156	9
153	154	155	156	9
153	158	157	156	9
156	157	158	162	9
155	154	165	166	9
44	165	154	155	9
155	154	153	158	9
155	154	153	161	9
155	156	163	164	9
72	163	156	155	9
155	156	157	158	9
155	156	157	160	9
153	154	165	166	9
44	165	154	153	9
153	154	155	159	9
153	158	157	160	9
157	156	163	164	9
72	163	156	157	9
157	156	155	159	9
157	158	153	161	9
161	153	158	162	9
160	157	158	162	9
37	44	165	166	9
46	44	165	166	9
70	72	163	164	9
73	72	163	164	9
98	97	96	107	9
101	97	96	107	9
100	95	96	107	9
103	95	96	107	9
107	135	128	127	9
107	135	128	129	9
96	97	98	105	9
101	97	98	105	9
100	99	98	105	9
102	99	98	105	9
105	115	109	110	9
105	115	109	112	9
96	107	135	128	9
96	107	135	137	9
96	97	98	99	9
96	95	100	99	9
96	95	100	104	9
98	105	115	109	9
98	105	115	116	9
95	96	97	98	9
95	100	99	98	9
98	99	100	104	9
97	96	107	108	9
97	96	107	135	9
97	96	95	100	9
97	96	95	103	9
97	98	105	106	9
97	98	105	115	9
97	98	99	100	9
97	98	99	102	9
95	96	107	108	9
95	96	107	135	9
95	96	97	101	9
95	100	99	102	9
99	98	105	106	9
99	98	105	115	9
99	98	97	101	9
99	100	95	103	9
103	95	100	104	9
102	99	100	104	9
108	107	135	128	9
108	107	135	137	9
106	105	115	109	9
106	105	115	116	9
83	82	81	92	9
86	82	81	92	9
85	80	81	92	9
88	80	81	92	9
81	82	83	90	9
86	82	83	90	9
85	84	83	90	9
87	84	83	90	9
90	130	124	127	9
90	130	124	125	9
81	82	83	84	9
81	80	85	84	9
81	80	85	89	9
83	90	130	124	9
83	90	130	131	9
80	81	82	83	9
80	85	84	83	9
83	84	85	89	9
82	81	92	93	9
82	81	92	94	9
82	81	80	85	9
82	81	80	88	9
82	83	90	91	9
82	83	90	130	9
82	83	84	85	9
82	83	84	87	9
80	81	92	93	9
80	81	92	94	9
80	81	82	86	9
80	85	84	87	9
84	83	90	91	9
84	83	90	130	9
84	83	82	86	9
84	85	80	88	9
88	80	85	89	9
87	84	85	89	9
91	90	130	124	9
91	90	130	131	9
66	67	68	69	9
66	67	68	74	9
66	71	70	69	9
66	71	70	72	9
67	68	69	70	9
67	68	69	78	9
67	68	74	75	9
67	68	74	76	9
67	66	71	70	9
67	66	71	79	9
67	66	64	65	9
68	67	66	71	9
68	67	66	64	9
68	69	70	71	9
68	69	70	72	9
69	68	67	77	9
69	68	74	75	9
69	68	74	76	9
69	70	71	79	9
69	70	72	73	9
70	69	68	74	9
70	71	66	64	9
71	70	69	78	9
71	70	72	73	9
71	66	67	77	9
71	66	64	65	9
78	69	70	72	9
79	71	70	72	9
64	66	67	77	9
64	66	71	79	9
77	67	68	74	9
78	69	68	74	9
35	34	33	36	9
35	34	33	39	9
35	38	37	36	9
35	38	37	44	9
35	45	48	49	9
34	33	36	37	9
34	33	36	42	9
34	33	39	40	9
34	35	38	37	9
34	35	38	43	9
34	35	45	47	9
34	35	45	48	9
33	34	35	38	9
33	34	35	45	9
33	36	37	38	9
33	36	37	44	9
36	33	34	41	9
36	33	39	40	9
36	37	38	43	9
36	37	44	46	9
37	36	33	39	9
37	38	35	45	9
38	37	36	42	9
38	37	44	46	9
38	35	34	41	9
38	35	45	47	9
38	35	45	48	9
42	36	37	44	9
43	38	37	44	9
41	34	35	45	9
43	38	35	45	9
39	33	34	41	9
39	33	36	42	9
47	45	48	49	9
124	127	128	129	9
124	127	128	135	9
124	125	126	129	9
124	125	126	136	9
126	129	128	127	9
127	128	129	134	9
127	128	135	137	9
126	125	124	127	9
127	124	125	132	9
127	124	130	131	9
125	124	127	128	9
128	127	124	130	9
125	126	129	128	9
128	129	126	136	9
129	128	127	133	9
129	128	135	137	9
129	126	125	132	9
129	126	136	138	9
126	129	128	135	9
126	125	124	130	9
125	126	129	134	9
125	126	136	138	9
125	124	127	133	9
125	124	130	131	9
134	129	126	136	9
132	125	126	136	9
130	124	127	133	9
130	124	125	132	9
133	127	128	135	9
134	129	128	135	9
109	110	111	114	9
109	110	111	121	9
109	112	113	114	9
109	112	113	120	9
110	111	114	113	9
110	111	114	119	9
110	111	121	123	9
110	109	112	113	9
110	109	112	118	9
110	109	115	116	9
111	110	109	112	9
111	110	109	115	9
111	114	113	112	9
111	114	113	120	9
114	111	110	117	9
114	111	121	123	9
114	113	112	118	9
114	113	120	122	9
113	114	111	121	9
113	112	109	115	9
112	113	114	119	9
112	113	120	122	9
112	109	110	117	9
112	109	115	116	9
119	114	113	120	9
118	112	113	120	9
115	109	110	117	9
115	109	112	118	9
117	110	111	121	9
119	114	111	121	9
7	8	9	4	9
4	9	8	10	9
7	6	5	4	9
4	5	6	12	9
4	2	1	15	9
6	7	8	9	9
9	8	7	17	9
9	8	10	11	9
6	5	4	9	9
9	4	5	16	9
9	4	2	3	9
9	4	2	1	9
8	9	4	5	9
8	9	4	2	9
8	7	6	5	9
8	7	6	12	9
7	8	9	18	9
7	8	10	11	9
7	6	5	16	9
7	6	12	13	9
7	6	12	14	9
6	7	8	10	9
6	5	4	2	9
5	6	7	17	9
5	6	12	13	9
5	6	12	14	9
5	4	9	18	9
5	4	2	3	9
5	4	2	1	9
17	7	6	12	9
16	5	6	12	9
18	9	4	2	9
16	5	4	2	9
10	8	9	18	9
10	8	7	17	9
3	2	1	15	9
152	120	140	151	2
150	136	142	149	2
141	139	151	140	2
142	143	149	141	2
141	140	142	145	2
139	144	140	147	2
143	144	142	146	2
144	143	139	148	2
61	64	53	60	2
63	121	51	62	2
54	52	60	53	2
52	50	62	51	2
52	53	51	56	2
54	53	55	57	2
50	51	55	58	2
55	54	50	59	2
32	39	20	31	2
30	10	22	29	2
19	21	31	20	2
23	21	29	22	2
21	20	22	25	2
19	24	20	27	2
23	24	22	26	2
24	23	19	28	2
166	44	154	165	2
164	72	156	163	2
153	155	165	154	2
155	157	163	156	2
155	154	156	159	2
153	158	154	161	2
157	158	156	160	2
158	157	153	162	2
108	135	96	107	2
106	115	98	105	2
96	95	107	97	2
97	99	105	98	2
97	96	98	101	2
95	100	96	103	2
99	100	98	102	2
100	95	99	104	2
94	81	93	92	2
91	130	83	90	2
82	80	92	81	2
83	84	90	82	2
82	81	83	86	2
80	85	81	88	2
84	85	83	87	2
85	84	80	89	2
71	64	67	66	2
67	68	66	77	2
68	67	69	74	2
69	70	68	78	2
71	72	69	70	2
71	66	70	79	2
72	163	70	73	2
64	60	66	65	2
74	76	68	75	2
34	45	38	35	2
34	33	35	41	2
34	39	36	33	2
36	33	37	42	2
38	44	36	37	2
38	35	37	43	2
44	165	37	46	2
45	48	35	47	2
39	31	33	40	2
127	130	125	124	2
127	124	128	133	2
128	135	127	129	2
129	126	128	134	2
129	136	125	126	2
125	126	124	132	2
136	149	126	138	2
130	90	124	131	2
135	107	128	137	2
109	115	110	112	2
110	111	109	117	2
111	121	114	110	2
114	113	111	119	2
114	120	112	113	2
112	109	113	118	2
120	151	113	122	2
115	105	109	116	2
121	62	111	123	2
9	2	5	4	2
9	4	8	18	2
8	10	9	7	2
7	6	8	17	2
6	7	5	12	2
5	6	4	16	2
12	14	6	13	2
2	1	4	3	2
10	29	8	11	2


[ moleculetype ]
; Name	nrexcl
MOL3	3

[ atoms ]
;nr	type	resnr	residue	atom	cgnr	charge	mass
1	CB	1	MPD1	C	1	-0.15	12.011
2	CB	1	MPD1	C1	1	0.1	12.011
3	CB	1	MPD1	C2	1	-0.15	12.011
4	CB	1	MPD1	C3	1	0.117	12.011
5	CB	1	MPD1	C4	1	-0.15	12.011
6	CB	1	MPD1	C5	1	-0.15	12.011
7	HCMM	1	MPD1	H	1	0.15	1.0079
8	HCMM	1	MPD1	H1	1	0.15	1.0079
9	HCMM	1	MPD1	H2	1	0.15	1.0079
10	HCMM	1	MPD1	H3	1	0.15	1.0079
11	NC=O	1	MPD1	N	1	-0.547	14.0067
12	HNCO	1	MPD1	H5	1	0.37	1.0079
13	NC=C	1	MPD1	N1	1	-0.9	14.0067
14	HNCO	1	MPD1	H6	1	0.4	1.0079
15	HNCO	1	MPD1	H7	1	0.4	1.0079
16	CB	2	MPD1	C	1	-0.15	12.011
17	CB	2	MPD1	C1	1	0.1	12.011
18	CB	2	MPD1	C2	1	-0.15	12.011
19	CB	2	MPD1	C3	1	0.117	12.011
20	CB	2	MPD1	C4	1	-0.15	12.011
21	CB	2	MPD1	C5	1	-0.15	12.011
22	HCMM	2	MPD1	H	1	0.15	1.0079
23	HCMM	2	MPD1	H1	1	0.15	1.0079
24	HCMM	2	MPD1	H2	1	0.15	1.0079
25	HCMM	2	MPD1	H3	1	0.15	1.0079
26	NC=O	2	MPD1	N	1	-0.547	14.0067
27	HNCO	2	MPD1	H5	1	0.37	1.0079
28	NC=C	2	MPD1	N1	1	-0.9	14.0067
29	HNCO	2	MPD1	H6	1	0.4	1.0079
30	HNCO	2	MPD1	H7	1	0.4	1.0079
31	CB	3	TMC3	C1	1	0.0862	12.011
32	CB	3	TMC3	C2	1	-0.15	12.011
33	CB	3	TMC3	C3	1	0.0862	12.011
34	CB	3	TMC3	C4	1	-0.15	12.011
35	CB	3	TMC3	C5	1	0.0862	12.011
36	CB	3	TMC3	C6	1	-0.15	12.011
37	C=O	3	TMC3	C	1	0.5438	12.011
38	O=C	3	TMC3	O	1	-0.57	15.9994
39	HCMM	3	TMC3	H	1	0.15	1.0079
40	HCMM	3	TMC3	H1	1	0.15	1.0079
41	HCMM	3	TMC3	H2	1	0.15	1.0079
42	C=O	3	TMC3	C7	1	0.5438	12.011
43	C=O	3	TMC3	C8	1	0.5438	12.011
44	O=C	3	TMC3	O1	1	-0.57	15.9994
45	O=C	3	TMC3	O2	1	-0.57	15.9994
46	CB	4	MPD1	C	1	-0.15	12.011
47	CB	4	MPD1	C1	1	0.1	12.011
48	CB	4	MPD1	C2	1	-0.15	12.011
49	CB	4	MPD1	C3	1	0.117	12.011
50	CB	4	MPD1	C4	1	-0.15	12.011
51	CB	4	MPD1	C5	1	-0.15	12.011
52	HCMM	4	MPD1	H	1	0.15	1.0079
53	HCMM	4	MPD1	H1	1	0.15	1.0079
54	HCMM	4	MPD1	H2	1	0.15	1.0079
55	HCMM	4	MPD1	H3	1	0.15	1.0079
56	NC=O	4	MPD1	N	1	-0.547	14.0067
57	HNCO	4	MPD1	H5	1	0.37	1.0079
58	NC=C	4	MPD1	N1	1	-0.9	14.0067
59	HNCO	4	MPD1	H6	1	0.4	1.0079
60	HNCO	4	MPD1	H7	1	0.4	1.0079

[ bonds ]
19	26	1
26	27	1
26	37	1
17	28	1
28	29	1
28	30	1
18	19	1
19	20	1
17	18	1
16	17	1
18	22	1
20	21	1
20	23	1
16	21	1
16	24	1
21	25	1
47	58	1
58	59	1
58	60	1
49	56	1
56	57	1
56	43	1
47	48	1
46	47	1
48	49	1
49	50	1
48	52	1
46	51	1
46	54	1
50	51	1
50	53	1
51	55	1
4	11	1
11	12	1
11	42	1
2	13	1
13	14	1
13	15	1
3	4	1
4	5	1
2	3	1
1	2	1
3	7	1
5	6	1
5	8	1
1	6	1
1	9	1
6	10	1
31	34	1
31	32	1
31	37	1
34	35	1
34	40	1
35	36	1
35	42	1
33	36	1
36	41	1
32	33	1
33	43	1
32	39	1
43	45	1
37	38	1
42	44	1

[ angles ]
18	19	26	1
20	19	26	1
26	37	31	1
26	37	38	1
18	17	28	1
16	17	28	1
19	26	27	1
19	26	37	1
17	18	19	1
19	18	22	1
19	20	21	1
19	20	23	1
17	28	29	1
17	28	30	1
17	18	22	1
17	16	21	1
17	16	24	1
18	19	20	1
16	17	18	1
16	21	20	1
20	21	25	1
16	21	25	1
21	20	23	1
21	16	24	1
27	26	37	1
29	28	30	1
48	47	58	1
46	47	58	1
48	49	56	1
50	49	56	1
56	43	33	1
56	43	45	1
47	58	59	1
47	58	60	1
47	48	49	1
47	48	52	1
47	46	51	1
47	46	54	1
49	56	57	1
49	56	43	1
49	48	52	1
49	50	51	1
49	50	53	1
46	47	48	1
48	49	50	1
46	51	50	1
46	51	55	1
50	51	55	1
51	46	54	1
51	50	53	1
59	58	60	1
57	56	43	1
3	4	11	1
5	4	11	1
11	42	35	1
11	42	44	1
3	2	13	1
1	2	13	1
4	11	12	1
4	11	42	1
2	3	4	1
4	3	7	1
4	5	6	1
4	5	8	1
2	13	14	1
2	13	15	1
2	3	7	1
2	1	6	1
2	1	9	1
3	4	5	1
1	2	3	1
1	6	5	1
5	6	10	1
1	6	10	1
6	5	8	1
6	1	9	1
12	11	42	1
14	13	15	1
31	34	35	1
31	34	40	1
31	32	33	1
31	32	39	1
31	37	38	1
34	35	36	1
34	35	42	1
32	31	34	1
34	31	37	1
35	34	40	1
33	36	35	1
35	36	41	1
35	42	44	1
36	35	42	1
32	33	36	1
36	33	43	1
33	36	41	1
33	32	39	1
33	43	45	1
32	33	43	1
32	31	37	1

[ dihedrals ]
17	18	19	26	9
22	18	19	26	9
21	20	19	26	9
23	20	19	26	9
26	37	31	34	9
26	37	31	32	9
19	18	17	28	9
22	18	17	28	9
21	16	17	28	9
24	16	17	28	9
19	26	37	31	9
19	26	37	38	9
16	17	18	19	9
16	21	20	19	9
19	20	21	25	9
17	18	19	20	9
17	16	21	20	9
17	16	21	25	9
18	19	26	27	9
18	19	26	37	9
18	19	20	21	9
18	19	20	23	9
18	17	28	29	9
18	17	28	30	9
18	17	16	21	9
18	17	16	24	9
20	19	26	27	9
20	19	26	37	9
20	19	18	22	9
20	21	16	24	9
16	17	28	29	9
16	17	28	30	9
16	17	18	22	9
16	21	20	23	9
23	20	21	25	9
24	16	21	25	9
27	26	37	31	9
27	26	37	38	9
49	48	47	58	9
52	48	47	58	9
51	46	47	58	9
54	46	47	58	9
47	48	49	56	9
52	48	49	56	9
51	50	49	56	9
53	50	49	56	9
56	43	33	36	9
56	43	33	32	9
47	48	49	50	9
47	46	51	50	9
47	46	51	55	9
49	56	43	33	9
49	56	43	45	9
46	47	48	49	9
46	51	50	49	9
49	50	51	55	9
48	47	58	59	9
48	47	58	60	9
48	47	46	51	9
48	47	46	54	9
48	49	56	57	9
48	49	56	43	9
48	49	50	51	9
48	49	50	53	9
46	47	58	59	9
46	47	58	60	9
46	47	48	52	9
46	51	50	53	9
50	49	56	57	9
50	49	56	43	9
50	49	48	52	9
50	51	46	54	9
54	46	51	55	9
53	50	51	55	9
57	56	43	33	9
57	56	43	45	9
2	3	4	11	9
7	3	4	11	9
6	5	4	11	9
8	5	4	11	9
11	42	35	34	9
11	42	35	36	9
4	3	2	13	9
7	3	2	13	9
6	1	2	13	9
9	1	2	13	9
4	11	42	35	9
4	11	42	44	9
1	2	3	4	9
1	6	5	4	9
4	5	6	10	9
2	3	4	5	9
2	1	6	5	9
2	1	6	10	9
3	4	11	12	9
3	4	11	42	9
3	4	5	6	9
3	4	5	8	9
3	2	13	14	9
3	2	13	15	9
3	2	1	6	9
3	2	1	9	9
5	4	11	12	9
5	4	11	42	9
5	4	3	7	9
5	6	1	9	9
1	2	13	14	9
1	2	13	15	9
1	2	3	7	9
1	6	5	8	9
8	5	6	10	9
9	1	6	10	9
12	11	42	35	9
12	11	42	44	9
31	34	35	36	9
31	34	35	42	9
31	32	33	36	9
31	32	33	43	9
33	36	35	34	9
34	35	36	41	9
34	35	42	44	9
33	32	31	34	9
34	31	32	39	9
34	31	37	38	9
32	31	34	35	9
35	34	31	37	9
32	33	36	35	9
35	36	33	43	9
36	35	34	40	9
36	35	42	44	9
36	33	32	39	9
36	33	43	45	9
33	36	35	42	9
33	32	31	37	9
32	33	36	41	9
32	33	43	45	9
32	31	34	40	9
32	31	37	38	9
41	36	33	43	9
39	32	33	43	9
37	31	34	40	9
37	31	32	39	9
40	34	35	42	9
41	36	35	42	9
27	37	19	26	2
29	17	30	28	2
19	18	26	20	2
16	18	28	17	2
18	19	17	22	2
20	19	21	23	2
16	17	21	24	2
21	20	16	25	2
60	47	59	58	2
57	43	49	56	2
46	48	58	47	2
50	48	56	49	2
48	49	47	52	2
46	51	47	54	2
50	51	49	53	2
51	50	46	55	2
12	42	4	11	2
15	2	14	13	2
4	5	11	3	2
3	1	13	2	2
3	4	2	7	2
5	6	4	8	2
1	2	6	9	2
6	5	1	10	2
31	37	32	34	2
34	35	31	40	2
35	42	34	36	2
36	33	35	41	2
32	43	36	33	2
32	33	31	39	2
43	56	33	45	2
37	26	31	38	2
42	11	35	44	2


[ moleculetype ]
; Name	nrexcl
MOL4	3

[ atoms ]
;nr	type	resnr	residue	atom	cgnr	charge	mass
1	OR	1	TCq1	O1	1	-0.65	15.9994
2	C=O	1	TCq1	C1	1	0.6338	12.011
3	O=C	1	TCq1	O2	1	-0.57	15.9994
4	CB	1	TCq1	C2	1	0.0862	12.011
5	CB	1	TCq1	C3	1	-0.15	12.011
6	CB	1	TCq1	C4	1	-0.179	12.011
7	CB	1	TCq1	C5	1	-0.15	12.011
8	CB	1	TCq1	C6	1	0.0862	12.011
9	CB	1	TCq1	C7	1	-0.15	12.011
10	C=O	1	TCq1	C8	1	0.5438	12.011
11	O=C	1	TCq1	O4	1	-0.57	15.9994
12	CO2M	1	TCq1	C9	1	0.979	12.011
13	O2CM	1	TCq1	O5	1	-0.9	15.9994
14	O2CM	1	TCq1	O6	1	-0.9	15.9994
15	HOCO	1	TCq1	H1	1	0.5	1.0079
16	HCMM	1	TCq1	H2	1	0.15	1.0079
17	HCMM	1	TCq1	H3	1	0.15	1.0079
18	HCMM	1	TCq1	H4	1	0.15	1.0079
19	CB	2	MPD1	C	1	-0.15	12.011
20	CB	2	MPD1	C1	1	0.1	12.011
21	CB	2	MPD1	C2	1	-0.15	12.011
22	CB	2	MPD1	C3	1	0.117	12.011
23	CB	2	MPD1	C4	1	-0.15	12.011
24	CB	2	MPD1	C5	1	-0.15	12.011
25	HCMM	2	MPD1	H	1	0.15	1.0079
26	HCMM	2	MPD1	H1	1	0.15	1.0079
27	HCMM	2	MPD1	H2	1	0.15	1.0079
28	HCMM	2	MPD1	H3	1	0.15	1.0079
29	NC=O	2	MPD1	N	1	-0.547	14.0067
30	HNCO	2	MPD1	H5	1	0.37	1.0079
31	NC=C	2	MPD1	N1	1	-0.9	14.0067
32	HNCO	2	MPD1	H6	1	0.4	1.0079
33	HNCO	2	MPD1	H7	1	0.4	1.0079

[ bonds ]
20	31	1
31	32	1
31	33	1
22	29	1
29	30	1
10	29	1
20	21	1
19	20	1
21	22	1
22	23	1
21	25	1
19	24	1
19	27	1
23	24	1
23	26	1
24	28	1
8	7	1
8	9	1
8	10	1
7	6	1
7	17	1
6	5	1
6	12	1
4	5	1
5	16	1
9	4	1
4	2	1
9	18	1
2	3	1
2	1	1
10	11	1
12	13	1
12	14	1
1	15	1

[ angles ]
21	20	31	1
19	20	31	1
21	22	29	1
23	22	29	1
8	10	29	1
11	10	29	1
20	31	32	1
20	31	33	1
20	21	22	1
20	21	25	1
20	19	24	1
20	19	27	1
22	29	30	1
10	29	22	1
22	21	25	1
22	23	24	1
22	23	26	1
19	20	21	1
21	22	23	1
19	24	23	1
19	24	28	1
23	24	28	1
24	19	27	1
24	23	26	1
32	31	33	1
10	29	30	1
8	7	6	1
8	7	17	1
8	9	4	1
8	9	18	1
8	10	11	1
7	6	5	1
7	6	12	1
7	8	9	1
7	8	10	1
6	7	17	1
6	5	4	1
6	5	16	1
6	12	13	1
6	12	14	1
5	6	12	1
9	4	5	1
5	4	2	1
4	5	16	1
4	9	18	1
4	2	3	1
4	2	1	1
9	4	2	1
9	8	10	1
2	1	15	1
3	2	1	1
13	12	14	1

[ dihedrals ]
22	21	20	31	9
25	21	20	31	9
24	19	20	31	9
27	19	20	31	9
20	21	22	29	9
25	21	22	29	9
24	23	22	29	9
26	23	22	29	9
7	8	10	29	9
9	8	10	29	9
20	21	22	23	9
20	19	24	23	9
20	19	24	28	9
8	10	29	22	9
11	10	29	22	9
19	20	21	22	9
19	24	23	22	9
22	23	24	28	9
21	20	31	32	9
21	20	31	33	9
21	20	19	24	9
21	20	19	27	9
21	22	29	30	9
10	29	22	21	9
21	22	23	24	9
21	22	23	26	9
19	20	31	32	9
19	20	31	33	9
19	20	21	25	9
19	24	23	26	9
23	22	29	30	9
10	29	22	23	9
23	22	21	25	9
23	24	19	27	9
27	19	24	28	9
26	23	24	28	9
8	10	29	30	9
11	10	29	30	9
8	7	6	5	9
8	7	6	12	9
8	9	4	5	9
8	9	4	2	9
7	6	5	4	9
7	6	5	16	9
7	6	12	13	9
7	6	12	14	9
7	8	9	4	9
7	8	9	18	9
7	8	10	11	9
6	7	8	9	9
6	7	8	10	9
6	5	4	9	9
6	5	4	2	9
5	6	7	17	9
5	6	12	13	9
5	6	12	14	9
5	4	9	18	9
5	4	2	3	9
5	4	2	1	9
4	5	6	12	9
4	9	8	10	9
4	2	1	15	9
9	4	5	16	9
9	4	2	3	9
9	4	2	1	9
9	8	7	17	9
9	8	10	11	9
16	5	4	2	9
18	9	4	2	9
10	8	7	17	9
10	8	9	18	9
17	7	6	12	9
16	5	6	12	9
3	2	1	15	9
33	20	32	31	2
30	10	22	29	2
19	21	31	20	2
23	21	29	22	2
21	22	20	25	2
19	24	20	27	2
23	22	24	26	2
24	23	19	28	2
7	10	9	8	2
7	8	6	17	2
7	5	6	12	2
4	6	5	16	2
9	2	5	4	2
9	4	8	18	2
2	1	4	3	2
10	29	8	11	2
12	14	6	13	2


[ moleculetype ]
; Name	nrexcl
MOL5	3

[ atoms ]
;nr	type	resnr	residue	atom	cgnr	charge	mass
1	CB	1	MPD1	C	1	-0.15	12.011
2	CB	1	MPD1	C1	1	0.1	12.011
3	CB	1	MPD1	C2	1	-0.15	12.011
4	CB	1	MPD1	C3	1	0.117	12.011
5	CB	1	MPD1	C4	1	-0.15	12.011
6	CB	1	MPD1	C5	1	-0.15	12.011
7	HCMM	1	MPD1	H	1	0.15	1.0079
8	HCMM	1	MPD1	H1	1	0.15	1.0079
9	HCMM	1	MPD1	H2	1	0.15	1.0079
10	HCMM	1	MPD1	H3	1	0.15	1.0079
11	NC=O	1	MPD1	N	1	-0.547	14.0067
12	HNCO	1	MPD1	H5	1	0.37	1.0079
13	NC=C	1	MPD1	N1	1	-0.9	14.0067
14	HNCO	1	MPD1	H6	1	0.4	1.0079
15	HNCO	1	MPD1	H7	1	0.4	1.0079
16	CB	2	MPD1	C	1	-0.15	12.011
17	CB	2	MPD1	C1	1	0.1	12.011
18	CB	2	MPD1	C2	1	-0.15	12.011
19	CB	2	MPD1	C3	1	0.117	12.011
20	CB	2	MPD1	C4	1	-0.15	12.011
21	CB	2	MPD1	C5	1	-0.15	12.011
22	HCMM	2	MPD1	H	1	0.15	1.0079
23	HCMM	2	MPD1	H1	1	0.15	1.0079
24	HCMM	2	MPD1	H2	1	0.15	1.0079
25	HCMM	2	MPD1	H3	1	0.15	1.0079
26	NC=O	2	MPD1	N	1	-0.547	14.0067
27	HNCO	2	MPD1	H5	1	0.37	1.0079
28	NC=C	2	MPD1	N1	1	-0.9	14.0067
29	HNCO	2	MPD1	H6	1	0.4	1.0079
30	HNCO	2	MPD1	H7	1	0.4	1.0079
31	CB	3	MPD1	C	1	-0.15	12.011
32	CB	3	MPD1	C1	1	0.1	12.011
33	CB	3	MPD1	C2	1	-0.15	12.011
34	CB	3	MPD1	C3	1	0.117	12.011
35	CB	3	MPD1	C4	1	-0.15	12.011
36	CB	3	MPD1	C5	1	-0.15	12.011
37	HCMM	3	MPD1	H	1	0.15	1.0079
38	HCMM	3	MPD1	H1	1	0.15	1.0079
39	HCMM	3	MPD1	H2	1	0.15	1.0079
40	HCMM	3	MPD1	H3	1	0.15	1.0079
41	NC=O	3	MPD1	N	1	-0.547	14.0067
42	HNCO	3	MPD1	H5	1	0.37	1.0079
43	NC=C	3	MPD1	N1	1	-0.9	14.0067
44	HNCO	3	MPD1	H6	1	0.4	1.0079
45	HNCO	3	MPD1	H7	1	0.4	1.0079
46	CB	4	MPD2	C	1	-0.15	12.011
47	CB	4	MPD2	C1	1	0.117	12.011
48	CB	4	MPD2	C2	1	-0.15	12.011
49	CB	4	MPD2	C3	1	0.117	12.011
50	CB	4	MPD2	C4	1	-0.15	12.011
51	CB	4	MPD2	C5	1	-0.15	12.011
52	HCMM	4	MPD2	H	1	0.15	1.0079
53	HCMM	4	MPD2	H1	1	0.15	1.0079
54	HCMM	4	MPD2	H2	1	0.15	1.0079
55	HCMM	4	MPD2	H3	1	0.15	1.0079
56	NC=O	4	MPD2	N	1	-0.547	14.0067
57	HNCO	4	MPD2	H5	1	0.37	1.0079
58	NC=O	4	MPD2	N1	1	-0.547	14.0067
59	HNCO	4	MPD2	H7	1	0.37	1.0079
60	CB	5	TMC3	C1	1	0.0862	12.011
61	CB	5	TMC3	C2	1	-0.15	12.011
62	CB	5	TMC3	C3	1	0.0862	12.011
63	CB	5	TMC3	C4	1	-0.15	12.011
64	CB	5	TMC3	C5	1	0.0862	12.011
65	CB	5	TMC3	C6	1	-0.15	12.011
66	C=O	5	TMC3	C	1	0.5438	12.011
67	O=C	5	TMC3	O	1	-0.57	15.9994
68	HCMM	5	TMC3	H	1	0.15	1.0079
69	HCMM	5	TMC3	H1	1	0.15	1.0079
70	HCMM	5	TMC3	H2	1	0.15	1.0079
71	C=O	5	TMC3	C7	1	0.5438	12.011
72	C=O	5	TMC3	C8	1	0.5438	12.011
73	O=C	5	TMC3	O1	1	-0.57	15.9994
74	O=C	5	TMC3	O2	1	-0.57	15.9994
75	CB	6	TMC3	C1	1	0.0862	12.011
76	CB	6	TMC3	C2	1	-0.15	12.011
77	CB	6	TMC3	C3	1	0.0862	12.011
78	CB	6	TMC3	C4	1	-0.15	12.011
79	CB	6	TMC3	C5	1	0.0862	12.011
80	CB	6	TMC3	C6	1	-0.15	12.011
81	C=O	6	TMC3	C	1	0.5438	12.011
82	O=C	6	TMC3	O	1	-0.57	15.9994
83	HCMM	6	TMC3	H	1	0.15	1.0079
84	HCMM	6	TMC3	H1	1	0.15	1.0079
85	HCMM	6	TMC3	H2	1	0.15	1.0079
86	C=O	6	TMC3	C7	1	0.5438	12.011
87	C=O	6	TMC3	C8	1	0.5438	12.011
88	O=C	6	TMC3	O1	1	-0.57	15.9994
89	O=C	6	TMC3	O2	1	-0.57	15.9994
90	CB	7	MPD2	C	1	-0.15	12.011
91	CB	7	MPD2	C1	1	0.117	12.011
92	CB	7	MPD2	C2	1	-0.15	12.011
93	CB	7	MPD2	C3	1	0.117	12.011
94	CB	7	MPD2	C4	1	-0.15	12.011
95	CB	7	MPD2	C5	1	-0.15	12.011
96	HCMM	7	MPD2	H	1	0.15	1.0079
97	HCMM	7	MPD2	H1	1	0.15	1.0079
98	HCMM	7	MPD2	H2	1	0.15	1.0079
99	HCMM	7	MPD2	H3	1	0.15	1.0079
100	NC=O	7	MPD2	N	1	-0.547	14.0067
101	HNCO	7	MPD2	H5	1	0.37	1.0079
102	NC=O	7	MPD2	N1	1	-0.547	14.0067
103	HNCO	7	MPD2	H7	1	0.37	1.0079
104	CB	8	TMC3	C1	1	0.0862	12.011
105	CB	8	TMC3	C2	1	-0.15	12.011
106	CB	8	TMC3	C3	1	0.0862	12.011
107	CB	8	TMC3	C4	1	-0.15	12.011
108	CB	8	TMC3	C5	1	0.0862	12.011
109	CB	8	TMC3	C6	1	-0.15	12.011
110	C=O	8	TMC3	C	1	0.5438	12.011
111	O=C	8	TMC3	O	1	-0.57	15.9994
112	HCMM	8	TMC3	H	1	0.15	1.0079
113	HCMM	8	TMC3	H1	1	0.15	1.0079
114	HCMM	8	TMC3	H2	1	0.15	1.0079
115	C=O	8	TMC3	C7	1	0.5438	12.011
116	C=O	8	TMC3	C8	1	0.5438	12.011
117	O=C	8	TMC3	O1	1	-0.57	15.9994
118	O=C	8	TMC3	O2	1	-0.57	15.9994
119	CB	9	MPD2	C	1	-0.15	12.011
120	CB	9	MPD2	C1	1	0.117	12.011
121	CB	9	MPD2	C2	1	-0.15	12.011
122	CB	9	MPD2	C3	1	0.117	12.011
123	CB	9	MPD2	C4	1	-0.15	12.011
124	CB	9	MPD2	C5	1	-0.15	12.011
125	HCMM	9	MPD2	H	1	0.15	1.0079
126	HCMM	9	MPD2	H1	1	0.15	1.0079
127	HCMM	9	MPD2	H2	1	0.15	1.0079
128	HCMM	9	MPD2	H3	1	0.15	1.0079
129	NC=O	9	MPD2	N	1	-0.547	14.0067
130	HNCO	9	MPD2	H5	1	0.37	1.0079
131	NC=O	9	MPD2	N1	1	-0.547	14.0067
132	HNCO	9	MPD2	H7	1	0.37	1.0079

[ bonds ]
17	28	1
28	30	1
28	29	1
19	26	1
26	27	1
26	81	1
17	18	1
16	17	1
18	19	1
19	20	1
18	22	1
16	21	1
16	24	1
20	21	1
20	23	1
21	25	1
120	131	1
131	132	1
131	116	1
122	129	1
129	130	1
129	86	1
120	121	1
119	120	1
121	122	1
122	123	1
121	125	1
119	124	1
119	127	1
123	124	1
123	126	1
124	128	1
34	41	1
41	42	1
41	87	1
32	43	1
43	44	1
43	45	1
33	34	1
34	35	1
32	33	1
31	32	1
33	37	1
35	36	1
35	38	1
31	36	1
31	39	1
36	40	1
47	58	1
58	59	1
58	66	1
49	56	1
56	57	1
56	115	1
47	48	1
46	47	1
48	49	1
49	50	1
48	52	1
46	51	1
46	54	1
50	51	1
50	53	1
51	55	1
91	102	1
102	103	1
102	110	1
93	100	1
100	101	1
100	71	1
91	92	1
90	91	1
92	93	1
93	94	1
92	96	1
90	95	1
90	98	1
94	95	1
94	97	1
95	99	1
2	13	1
13	15	1
13	14	1
4	11	1
11	12	1
11	72	1
2	3	1
1	2	1
3	4	1
4	5	1
3	7	1
1	6	1
1	9	1
5	6	1
5	8	1
6	10	1
104	107	1
104	105	1
104	110	1
107	108	1
107	113	1
108	109	1
108	115	1
106	109	1
109	114	1
105	106	1
106	116	1
105	112	1
116	118	1
110	111	1
115	117	1
60	63	1
60	61	1
60	66	1
63	64	1
63	69	1
64	65	1
64	71	1
62	65	1
65	70	1
61	62	1
62	72	1
61	68	1
72	74	1
66	67	1
71	73	1
75	76	1
75	78	1
75	81	1
76	77	1
76	83	1
77	80	1
77	87	1
79	80	1
80	85	1
78	79	1
79	86	1
78	84	1
86	88	1
81	82	1
87	89	1

[ angles ]
18	17	28	1
16	17	28	1
18	19	26	1
20	19	26	1
26	81	75	1
26	81	82	1
17	28	30	1
17	28	29	1
17	18	19	1
17	18	22	1
17	16	21	1
17	16	24	1
19	26	27	1
19	26	81	1
19	18	22	1
19	20	21	1
19	20	23	1
16	17	18	1
18	19	20	1
16	21	20	1
16	21	25	1
20	21	25	1
21	16	24	1
21	20	23	1
30	28	29	1
27	26	81	1
121	120	131	1
119	120	131	1
131	116	106	1
131	116	118	1
121	122	129	1
123	122	129	1
129	86	79	1
129	86	88	1
120	131	132	1
120	131	116	1
120	121	122	1
120	121	125	1
120	119	124	1
120	119	127	1
122	129	130	1
122	129	86	1
122	121	125	1
122	123	124	1
122	123	126	1
119	120	121	1
121	122	123	1
119	124	123	1
119	124	128	1
123	124	128	1
124	119	127	1
124	123	126	1
132	131	116	1
130	129	86	1
33	34	41	1
35	34	41	1
41	87	77	1
41	87	89	1
33	32	43	1
31	32	43	1
34	41	42	1
34	41	87	1
32	33	34	1
34	33	37	1
34	35	36	1
34	35	38	1
32	43	44	1
32	43	45	1
32	33	37	1
32	31	36	1
32	31	39	1
33	34	35	1
31	32	33	1
31	36	35	1
35	36	40	1
31	36	40	1
36	35	38	1
36	31	39	1
42	41	87	1
44	43	45	1
48	47	58	1
46	47	58	1
58	66	60	1
58	66	67	1
48	49	56	1
50	49	56	1
56	115	108	1
56	115	117	1
47	58	59	1
47	58	66	1
47	48	49	1
47	48	52	1
47	46	51	1
47	46	54	1
49	56	57	1
49	56	115	1
49	48	52	1
49	50	51	1
49	50	53	1
46	47	48	1
48	49	50	1
46	51	50	1
46	51	55	1
50	51	55	1
51	46	54	1
51	50	53	1
59	58	66	1
57	56	115	1
92	91	102	1
90	91	102	1
102	110	104	1
102	110	111	1
92	93	100	1
94	93	100	1
100	71	64	1
100	71	73	1
91	102	103	1
91	102	110	1
91	92	93	1
91	92	96	1
91	90	95	1
91	90	98	1
93	100	101	1
93	100	71	1
93	92	96	1
93	94	95	1
93	94	97	1
90	91	92	1
92	93	94	1
90	95	94	1
90	95	99	1
94	95	99	1
95	90	98	1
95	94	97	1
103	102	110	1
101	100	71	1
3	2	13	1
1	2	13	1
3	4	11	1
5	4	11	1
11	72	62	1
11	72	74	1
2	13	15	1
2	13	14	1
2	3	4	1
2	3	7	1
2	1	6	1
2	1	9	1
4	11	12	1
4	11	72	1
4	3	7	1
4	5	6	1
4	5	8	1
1	2	3	1
3	4	5	1
1	6	5	1
1	6	10	1
5	6	10	1
6	1	9	1
6	5	8	1
14	13	15	1
12	11	72	1
104	107	108	1
104	107	113	1
104	105	106	1
104	105	112	1
104	110	111	1
107	108	109	1
107	108	115	1
105	104	107	1
107	104	110	1
108	107	113	1
106	109	108	1
108	109	114	1
108	115	117	1
109	108	115	1
105	106	109	1
109	106	116	1
106	109	114	1
106	105	112	1
106	116	118	1
105	106	116	1
105	104	110	1
60	63	64	1
60	63	69	1
60	61	62	1
60	61	68	1
60	66	67	1
63	64	65	1
63	64	71	1
63	60	61	1
63	60	66	1
64	63	69	1
64	65	62	1
64	65	70	1
64	71	73	1
65	64	71	1
61	62	65	1
65	62	72	1
62	65	70	1
62	61	68	1
62	72	74	1
61	62	72	1
61	60	66	1
75	76	77	1
75	76	83	1
75	78	79	1
75	78	84	1
75	81	82	1
76	77	80	1
76	77	87	1
76	75	78	1
76	75	81	1
77	76	83	1
77	80	79	1
77	80	85	1
77	87	89	1
80	77	87	1
78	79	80	1
80	79	86	1
79	80	85	1
79	78	84	1
79	86	88	1
78	79	86	1
78	75	81	1

[ dihedrals ]
19	18	17	28	9
22	18	17	28	9
21	16	17	28	9
24	16	17	28	9
17	18	19	26	9
22	18	19	26	9
21	20	19	26	9
23	20	19	26	9
26	81	75	76	9
26	81	75	78	9
17	18	19	20	9
17	16	21	20	9
17	16	21	25	9
19	26	81	75	9
19	26	81	82	9
16	17	18	19	9
16	21	20	19	9
19	20	21	25	9
18	17	28	30	9
18	17	28	29	9
18	17	16	21	9
18	17	16	24	9
18	19	26	27	9
18	19	26	81	9
18	19	20	21	9
18	19	20	23	9
16	17	28	30	9
16	17	28	29	9
16	17	18	22	9
16	21	20	23	9
20	19	26	27	9
20	19	26	81	9
20	19	18	22	9
20	21	16	24	9
24	16	21	25	9
23	20	21	25	9
27	26	81	75	9
27	26	81	82	9
122	121	120	131	9
125	121	120	131	9
124	119	120	131	9
127	119	120	131	9
131	116	106	109	9
131	116	106	105	9
120	121	122	129	9
125	121	122	129	9
124	123	122	129	9
126	123	122	129	9
129	86	79	80	9
129	86	79	78	9
120	131	116	106	9
120	131	116	118	9
120	121	122	123	9
120	119	124	123	9
120	119	124	128	9
122	129	86	79	9
122	129	86	88	9
119	120	121	122	9
119	124	123	122	9
122	123	124	128	9
121	120	131	132	9
121	120	131	116	9
121	120	119	124	9
121	120	119	127	9
121	122	129	130	9
121	122	129	86	9
121	122	123	124	9
121	122	123	126	9
119	120	131	132	9
119	120	131	116	9
119	120	121	125	9
119	124	123	126	9
123	122	129	130	9
123	122	129	86	9
123	122	121	125	9
123	124	119	127	9
127	119	124	128	9
126	123	124	128	9
132	131	116	106	9
132	131	116	118	9
130	129	86	79	9
130	129	86	88	9
32	33	34	41	9
37	33	34	41	9
36	35	34	41	9
38	35	34	41	9
41	87	77	76	9
41	87	77	80	9
34	33	32	43	9
37	33	32	43	9
36	31	32	43	9
39	31	32	43	9
34	41	87	77	9
34	41	87	89	9
31	32	33	34	9
31	36	35	34	9
34	35	36	40	9
32	33	34	35	9
32	31	36	35	9
32	31	36	40	9
33	34	41	42	9
33	34	41	87	9
33	34	35	36	9
33	34	35	38	9
33	32	43	44	9
33	32	43	45	9
33	32	31	36	9
33	32	31	39	9
35	34	41	42	9
35	34	41	87	9
35	34	33	37	9
35	36	31	39	9
31	32	43	44	9
31	32	43	45	9
31	32	33	37	9
31	36	35	38	9
38	35	36	40	9
39	31	36	40	9
42	41	87	77	9
42	41	87	89	9
49	48	47	58	9
52	48	47	58	9
51	46	47	58	9
54	46	47	58	9
58	66	60	63	9
58	66	60	61	9
47	48	49	56	9
52	48	49	56	9
51	50	49	56	9
53	50	49	56	9
56	115	108	107	9
56	115	108	109	9
47	58	66	60	9
47	58	66	67	9
47	48	49	50	9
47	46	51	50	9
47	46	51	55	9
49	56	115	108	9
49	56	115	117	9
46	47	48	49	9
46	51	50	49	9
49	50	51	55	9
48	47	58	59	9
48	47	58	66	9
48	47	46	51	9
48	47	46	54	9
48	49	56	57	9
48	49	56	115	9
48	49	50	51	9
48	49	50	53	9
46	47	58	59	9
46	47	58	66	9
46	47	48	52	9
46	51	50	53	9
50	49	56	57	9
50	49	56	115	9
50	49	48	52	9
50	51	46	54	9
54	46	51	55	9
53	50	51	55	9
59	58	66	60	9
59	58	66	67	9
57	56	115	108	9
57	56	115	117	9
93	92	91	102	9
96	92	91	102	9
95	90	91	102	9
98	90	91	102	9
102	110	104	107	9
102	110	104	105	9
91	92	93	100	9
96	92	93	100	9
95	94	93	100	9
97	94	93	100	9
100	71	64	63	9
100	71	64	65	9
91	102	110	104	9
91	102	110	111	9
91	92	93	94	9
91	90	95	94	9
91	90	95	99	9
93	100	71	64	9
93	100	71	73	9
90	91	92	93	9
90	95	94	93	9
93	94	95	99	9
92	91	102	103	9
92	91	102	110	9
92	91	90	95	9
92	91	90	98	9
92	93	100	101	9
92	93	100	71	9
92	93	94	95	9
92	93	94	97	9
90	91	102	103	9
90	91	102	110	9
90	91	92	96	9
90	95	94	97	9
94	93	100	101	9
94	93	100	71	9
94	93	92	96	9
94	95	90	98	9
98	90	95	99	9
97	94	95	99	9
103	102	110	104	9
103	102	110	111	9
101	100	71	64	9
101	100	71	73	9
4	3	2	13	9
7	3	2	13	9
6	1	2	13	9
9	1	2	13	9
2	3	4	11	9
7	3	4	11	9
6	5	4	11	9
8	5	4	11	9
11	72	62	65	9
11	72	62	61	9
2	3	4	5	9
2	1	6	5	9
2	1	6	10	9
4	11	72	62	9
4	11	72	74	9
1	2	3	4	9
1	6	5	4	9
4	5	6	10	9
3	2	13	15	9
3	2	13	14	9
3	2	1	6	9
3	2	1	9	9
3	4	11	12	9
3	4	11	72	9
3	4	5	6	9
3	4	5	8	9
1	2	13	15	9
1	2	13	14	9
1	2	3	7	9
1	6	5	8	9
5	4	11	12	9
5	4	11	72	9
5	4	3	7	9
5	6	1	9	9
9	1	6	10	9
8	5	6	10	9
12	11	72	62	9
12	11	72	74	9
104	107	108	109	9
104	107	108	115	9
104	105	106	109	9
104	105	106	116	9
106	109	108	107	9
107	108	109	114	9
107	108	115	117	9
106	105	104	107	9
107	104	105	112	9
107	104	110	111	9
105	104	107	108	9
108	107	104	110	9
105	106	109	108	9
108	109	106	116	9
109	108	107	113	9
109	108	115	117	9
109	106	105	112	9
109	106	116	118	9
106	109	108	115	9
106	105	104	110	9
105	106	109	114	9
105	106	116	118	9
105	104	107	113	9
105	104	110	111	9
114	109	106	116	9
112	105	106	116	9
110	104	107	113	9
110	104	105	112	9
113	107	108	115	9
114	109	108	115	9
60	63	64	65	9
60	63	64	71	9
60	61	62	65	9
60	61	62	72	9
63	64	65	62	9
63	64	65	70	9
63	64	71	73	9
63	60	61	62	9
63	60	61	68	9
63	60	66	67	9
64	63	60	61	9
64	63	60	66	9
64	65	62	61	9
64	65	62	72	9
65	64	63	69	9
65	64	71	73	9
65	62	61	68	9
65	62	72	74	9
62	65	64	71	9
62	61	60	66	9
61	62	65	70	9
61	62	72	74	9
61	60	63	69	9
61	60	66	67	9
70	65	62	72	9
68	61	62	72	9
66	60	63	69	9
66	60	61	68	9
69	63	64	71	9
70	65	64	71	9
75	76	77	80	9
75	76	77	87	9
75	78	79	80	9
75	78	79	86	9
76	77	80	79	9
76	77	80	85	9
76	77	87	89	9
76	75	78	79	9
76	75	78	84	9
76	75	81	82	9
77	76	75	78	9
77	76	75	81	9
77	80	79	78	9
77	80	79	86	9
80	77	76	83	9
80	77	87	89	9
80	79	78	84	9
80	79	86	88	9
79	80	77	87	9
79	78	75	81	9
78	79	80	85	9
78	79	86	88	9
78	75	76	83	9
78	75	81	82	9
85	80	79	86	9
84	78	79	86	9
81	75	76	83	9
81	75	78	84	9
83	76	77	87	9
85	80	77	87	9
30	17	29	28	2
27	81	19	26	2
17	18	28	16	2
19	20	26	18	2
18	17	19	22	2
16	17	21	24	2
20	19	21	23	2
21	20	16	25	2
132	116	120	131	2
130	86	122	129	2
121	119	131	120	2
121	123	129	122	2
121	120	122	125	2
119	120	124	127	2
122	123	124	126	2
119	124	123	128	2
42	87	34	41	2
45	32	44	43	2
33	35	41	34	2
31	33	43	32	2
33	34	32	37	2
35	34	36	38	2
31	32	36	39	2
35	31	36	40	2
59	66	47	58	2
57	115	49	56	2
47	46	58	48	2
48	50	56	49	2
48	49	47	52	2
46	51	47	54	2
50	49	51	53	2
51	50	46	55	2
103	110	91	102	2
101	71	93	100	2
92	90	102	91	2
92	94	100	93	2
92	91	93	96	2
90	95	91	98	2
95	94	93	97	2
95	90	94	99	2
14	2	15	13	2
12	72	4	11	2
2	3	13	1	2
4	5	11	3	2
3	2	4	7	2
1	6	2	9	2
6	4	5	8	2
6	1	5	10	2
104	110	105	107	2
107	108	104	113	2
109	115	107	108	2
109	106	108	114	2
105	116	109	106	2
105	106	104	112	2
116	131	106	118	2
110	102	104	111	2
115	56	108	117	2
61	66	63	60	2
63	60	64	69	2
64	71	63	65	2
65	64	62	70	2
65	72	61	62	2
61	60	62	68	2
72	11	62	74	2
66	58	60	67	2
71	100	64	73	2
78	81	76	75	2
76	77	75	83	2
77	87	80	76	2
80	79	77	85	2
78	86	80	79	2
78	79	75	84	2
86	129	79	88	2
81	26	75	82	2
87	41	77	89	2


[ moleculetype ]
; Name	nrexcl
MOL6	3

[ atoms ]
;nr	type	resnr	residue	atom	cgnr	charge	mass
1	CB	1	MPD1	C	1	-0.15	12.011
2	CB	1	MPD1	C1	1	0.1	12.011
3	CB	1	MPD1	C2	1	-0.15	12.011
4	CB	1	MPD1	C3	1	0.117	12.011
5	CB	1	MPD1	C4	1	-0.15	12.011
6	CB	1	MPD1	C5	1	-0.15	12.011
7	HCMM	1	MPD1	H	1	0.15	1.0079
8	HCMM	1	MPD1	H1	1	0.15	1.0079
9	HCMM	1	MPD1	H2	1	0.15	1.0079
10	HCMM	1	MPD1	H3	1	0.15	1.0079
11	NC=O	1	MPD1	N	1	-0.547	14.0067
12	HNCO	1	MPD1	H5	1	0.37	1.0079
13	NC=C	1	MPD1	N1	1	-0.9	14.0067
14	HNCO	1	MPD1	H6	1	0.4	1.0079
15	HNCO	1	MPD1	H7	1	0.4	1.0079
16	CB	2	MPD1	C	1	-0.15	12.011
17	CB	2	MPD1	C1	1	0.1	12.011
18	CB	2	MPD1	C2	1	-0.15	12.011
19	CB	2	MPD1	C3	1	0.117	12.011
20	CB	2	MPD1	C4	1	-0.15	12.011
21	CB	2	MPD1	C5	1	-0.15	12.011
22	HCMM	2	MPD1	H	1	0.15	1.0079
23	HCMM	2	MPD1	H1	1	0.15	1.0079
24	HCMM	2	MPD1	H2	1	0.15	1.0079
25	HCMM	2	MPD1	H3	1	0.15	1.0079
26	NC=O	2	MPD1	N	1	-0.547	14.0067
27	HNCO	2	MPD1	H5	1	0.37	1.0079
28	NC=C	2	MPD1	N1	1	-0.9	14.0067
29	HNCO	2	MPD1	H6	1	0.4	1.0079
30	HNCO	2	MPD1	H7	1	0.4	1.0079
31	C=O	3	TCq2	C1	1	0.5438	12.011
32	O=C	3	TCq2	O2	1	-0.57	15.9994
33	CB	3	TCq2	C2	1	0.0862	12.011
34	CB	3	TCq2	C3	1	-0.15	12.011
35	CB	3	TCq2	C4	1	-0.179	12.011
36	CB	3	TCq2	C5	1	-0.15	12.011
37	CB	3	TCq2	C6	1	0.0862	12.011
38	CB	3	TCq2	C7	1	-0.15	12.011
39	C=O	3	TCq2	C8	1	0.5438	12.011
40	O=C	3	TCq2	O4	1	-0.57	15.9994
41	CO2M	3	TCq2	C9	1	0.979	12.011
42	O2CM	3	TCq2	O5	1	-0.9	15.9994
43	O2CM	3	TCq2	O6	1	-0.9	15.9994
44	HCMM	3	TCq2	H2	1	0.15	1.0079
45	HCMM	3	TCq2	H3	1	0.15	1.0079
46	HCMM	3	TCq2	H4	1	0.15	1.0079

[ bonds ]
17	28	1
28	30	1
28	29	1
19	26	1
26	27	1
31	26	1
17	18	1
16	17	1
18	19	1
19	20	1
18	22	1
16	21	1
16	24	1
20	21	1
20	23	1
21	25	1
2	13	1
13	15	1
13	14	1
4	11	1
11	12	1
39	11	1
2	3	1
1	2	1
3	4	1
4	5	1
3	7	1
1	6	1
1	9	1
5	6	1
5	8	1
6	10	1
33	34	1
33	38	1
33	31	1
34	35	1
34	44	1
35	36	1
35	41	1
37	36	1
36	45	1
38	37	1
37	39	1
38	46	1
39	40	1
31	32	1
41	42	1
41	43	1

[ angles ]
18	17	28	1
16	17	28	1
18	19	26	1
20	19	26	1
33	31	26	1
32	31	26	1
17	28	30	1
17	28	29	1
17	18	19	1
17	18	22	1
17	16	21	1
17	16	24	1
19	26	27	1
31	26	19	1
19	18	22	1
19	20	21	1
19	20	23	1
16	17	18	1
18	19	20	1
16	21	20	1
16	21	25	1
20	21	25	1
21	16	24	1
21	20	23	1
30	28	29	1
31	26	27	1
3	2	13	1
1	2	13	1
3	4	11	1
5	4	11	1
37	39	11	1
40	39	11	1
2	13	15	1
2	13	14	1
2	3	4	1
2	3	7	1
2	1	6	1
2	1	9	1
4	11	12	1
39	11	4	1
4	3	7	1
4	5	6	1
4	5	8	1
1	2	3	1
3	4	5	1
1	6	5	1
1	6	10	1
5	6	10	1
6	1	9	1
6	5	8	1
15	13	14	1
39	11	12	1
33	34	35	1
33	34	44	1
33	38	37	1
33	38	46	1
33	31	32	1
34	35	36	1
34	35	41	1
34	33	38	1
34	33	31	1
35	34	44	1
35	36	37	1
35	36	45	1
35	41	42	1
35	41	43	1
36	35	41	1
38	37	36	1
36	37	39	1
37	36	45	1
37	38	46	1
37	39	40	1
38	37	39	1
38	33	31	1
42	41	43	1

[ dihedrals ]
19	18	17	28	9
22	18	17	28	9
21	16	17	28	9
24	16	17	28	9
17	18	19	26	9
22	18	19	26	9
21	20	19	26	9
23	20	19	26	9
34	33	31	26	9
38	33	31	26	9
17	18	19	20	9
17	16	21	20	9
17	16	21	25	9
33	31	26	19	9
32	31	26	19	9
16	17	18	19	9
16	21	20	19	9
19	20	21	25	9
18	17	28	30	9
18	17	28	29	9
18	17	16	21	9
18	17	16	24	9
18	19	26	27	9
31	26	19	18	9
18	19	20	21	9
18	19	20	23	9
16	17	28	30	9
16	17	28	29	9
16	17	18	22	9
16	21	20	23	9
20	19	26	27	9
31	26	19	20	9
20	19	18	22	9
20	21	16	24	9
24	16	21	25	9
23	20	21	25	9
33	31	26	27	9
32	31	26	27	9
4	3	2	13	9
7	3	2	13	9
6	1	2	13	9
9	1	2	13	9
2	3	4	11	9
7	3	4	11	9
6	5	4	11	9
8	5	4	11	9
36	37	39	11	9
38	37	39	11	9
2	3	4	5	9
2	1	6	5	9
2	1	6	10	9
37	39	11	4	9
40	39	11	4	9
1	2	3	4	9
1	6	5	4	9
4	5	6	10	9
3	2	13	15	9
3	2	13	14	9
3	2	1	6	9
3	2	1	9	9
3	4	11	12	9
39	11	4	3	9
3	4	5	6	9
3	4	5	8	9
1	2	13	15	9
1	2	13	14	9
1	2	3	7	9
1	6	5	8	9
5	4	11	12	9
39	11	4	5	9
5	4	3	7	9
5	6	1	9	9
9	1	6	10	9
8	5	6	10	9
37	39	11	12	9
40	39	11	12	9
33	34	35	36	9
33	34	35	41	9
33	38	37	36	9
33	38	37	39	9
34	35	36	37	9
34	35	36	45	9
34	35	41	42	9
34	35	41	43	9
34	33	38	37	9
34	33	38	46	9
34	33	31	32	9
35	34	33	38	9
35	34	33	31	9
35	36	37	38	9
35	36	37	39	9
36	35	34	44	9
36	35	41	42	9
36	35	41	43	9
36	37	38	46	9
36	37	39	40	9
37	36	35	41	9
37	38	33	31	9
38	37	36	45	9
38	37	39	40	9
38	33	34	44	9
38	33	31	32	9
45	36	37	39	9
46	38	37	39	9
31	33	34	44	9
31	33	38	46	9
44	34	35	41	9
45	36	35	41	9
29	17	30	28	2
27	31	19	26	2
16	18	28	17	2
20	18	26	19	2
18	17	19	22	2
16	21	17	24	2
20	19	21	23	2
21	16	20	25	2
15	2	14	13	2
12	39	4	11	2
3	1	13	2	2
4	5	11	3	2
3	2	4	7	2
1	6	2	9	2
5	6	4	8	2
6	5	1	10	2
38	31	34	33	2
34	35	33	44	2
35	34	36	41	2
36	35	37	45	2
36	39	38	37	2
38	37	33	46	2
39	11	37	40	2
31	26	33	32	2
41	43	35	42	2


[ moleculetype ]
; Name	nrexcl
MOL7	3

[ atoms ]
;nr	type	resnr	residue	atom	cgnr	charge	mass
1	OR	1	TCq1	O1	1	-0.65	15.9994
2	C=O	1	TCq1	C1	1	0.6338	12.011
3	O=C	1	TCq1	O2	1	-0.57	15.9994
4	CB	1	TCq1	C2	1	0.0862	12.011
5	CB	1	TCq1	C3	1	-0.15	12.011
6	CB	1	TCq1	C4	1	-0.179	12.011
7	CB	1	TCq1	C5	1	-0.15	12.011
8	CB	1	TCq1	C6	1	0.0862	12.011
9	CB	1	TCq1	C7	1	-0.15	12.011
10	C=O	1	TCq1	C8	1	0.5438	12.011
11	O=C	1	TCq1	O4	1	-0.57	15.9994
12	CO2M	1	TCq1	C9	1	0.979	12.011
13	O2CM	1	TCq1	O5	1	-0.9	15.9994
14	O2CM	1	TCq1	O6	1	-0.9	15.9994
15	HOCO	1	TCq1	H1	1	0.5	1.0079
16	HCMM	1	TCq1	H2	1	0.15	1.0079
17	HCMM	1	TCq1	H3	1	0.15	1.0079
18	HCMM	1	TCq1	H4	1	0.15	1.0079
19	CB	2	MPD2	C	1	-0.15	12.011
20	CB	2	MPD2	C1	1	0.117	12.011
21	CB	2	MPD2	C2	1	-0.15	12.011
22	CB	2	MPD2	C3	1	0.117	12.011
23	CB	2	MPD2	C4	1	-0.15	12.011
24	CB	2	MPD2	C5	1	-0.15	12.011
25	HCMM	2	MPD2	H	1	0.15	1.0079
26	HCMM	2	MPD2	H1	1	0.15	1.0079
27	HCMM	2	MPD2	H2	1	0.15	1.0079
28	HCMM	2	MPD2	H3	1	0.15	1.0079
29	NC=O	2	MPD2	N	1	-0.547	14.0067
30	HNCO	2	MPD2	H5	1	0.37	1.0079
31	NC=O	2	MPD2	N1	1	-0.547	14.0067
32	HNCO	2	MPD2	H7	1	0.37	1.0079
33	OR	3	TCq1	O1	1	-0.65	15.9994
34	C=O	3	TCq1	C1	1	0.6338	12.011
35	O=C	3	TCq1	O2	1	-0.57	15.9994
36	CB	3	TCq1	C2	1	0.0862	12.011
37	CB	3	TCq1	C3	1	-0.15	12.011
38	CB	3	TCq1	C4	1	-0.179	12.011
39	CB	3	TCq1	C5	1	-0.15	12.011
40	CB	3	TCq1	C6	1	0.0862	12.011
41	CB	3	TCq1	C7	1	-0.15	12.011
42	C=O	3	TCq1	C8	1	0.5438	12.011
43	O=C	3	TCq1	O4	1	-0.57	15.9994
44	CO2M	3	TCq1	C9	1	0.979	12.011
45	O2CM	3	TCq1	O5	1	-0.9	15.9994
46	O2CM	3	TCq1	O6	1	-0.9	15.9994
47	HOCO	3	TCq1	H1	1	0.5	1.0079
48	HCMM	3	TCq1	H2	1	0.15	1.0079
49	HCMM	3	TCq1	H3	1	0.15	1.0079
50	HCMM	3	TCq1	H4	1	0.15	1.0079

[ bonds ]
20	31	1
31	32	1
10	31	1
22	29	1
29	30	1
42	29	1
20	21	1
19	20	1
21	22	1
22	23	1
21	25	1
19	24	1
19	27	1
23	24	1
23	26	1
24	28	1
39	38	1
38	37	1
38	44	1
40	39	1
39	49	1
40	41	1
40	42	1
41	36	1
41	50	1
36	37	1
36	34	1
37	48	1
34	35	1
34	33	1
44	45	1
44	46	1
42	43	1
33	47	1
9	4	1
4	5	1
4	2	1
8	9	1
9	18	1
8	7	1
8	10	1
7	6	1
7	17	1
6	5	1
6	12	1
5	16	1
12	13	1
12	14	1
2	3	1
2	1	1
10	11	1
1	15	1

[ angles ]
21	20	31	1
19	20	31	1
8	10	31	1
11	10	31	1
21	22	29	1
23	22	29	1
40	42	29	1
43	42	29	1
20	31	32	1
10	31	20	1
20	21	22	1
20	21	25	1
20	19	24	1
20	19	27	1
22	29	30	1
42	29	22	1
22	21	25	1
22	23	24	1
22	23	26	1
19	20	21	1
21	22	23	1
19	24	23	1
19	24	28	1
23	24	28	1
24	19	27	1
24	23	26	1
10	31	32	1
42	29	30	1
40	39	38	1
38	39	49	1
38	37	36	1
38	37	48	1
38	44	45	1
38	44	46	1
39	40	41	1
39	40	42	1
39	38	37	1
39	38	44	1
40	39	49	1
40	41	36	1
40	41	50	1
40	42	43	1
41	40	42	1
41	36	37	1
41	36	34	1
36	41	50	1
36	37	48	1
36	34	35	1
36	34	33	1
37	36	34	1
37	38	44	1
34	33	47	1
35	34	33	1
45	44	46	1
8	9	4	1
4	9	18	1
6	5	4	1
4	5	16	1
4	2	3	1
4	2	1	1
7	8	9	1
9	8	10	1
9	4	5	1
9	4	2	1
8	9	18	1
8	7	6	1
8	7	17	1
8	10	11	1
7	8	10	1
7	6	5	1
7	6	12	1
6	7	17	1
6	5	16	1
6	12	13	1
6	12	14	1
5	6	12	1
5	4	2	1
2	1	15	1
13	12	14	1
3	2	1	1

[ dihedrals ]
22	21	20	31	9
25	21	20	31	9
24	19	20	31	9
27	19	20	31	9
9	8	10	31	9
7	8	10	31	9
20	21	22	29	9
25	21	22	29	9
24	23	22	29	9
26	23	22	29	9
39	40	42	29	9
41	40	42	29	9
8	10	31	20	9
11	10	31	20	9
20	21	22	23	9
20	19	24	23	9
20	19	24	28	9
40	42	29	22	9
43	42	29	22	9
19	20	21	22	9
19	24	23	22	9
22	23	24	28	9
21	20	31	32	9
10	31	20	21	9
21	20	19	24	9
21	20	19	27	9
21	22	29	30	9
42	29	22	21	9
21	22	23	24	9
21	22	23	26	9
19	20	31	32	9
10	31	20	19	9
19	20	21	25	9
19	24	23	26	9
23	22	29	30	9
42	29	22	23	9
23	22	21	25	9
23	24	19	27	9
27	19	24	28	9
26	23	24	28	9
8	10	31	32	9
11	10	31	32	9
40	42	29	30	9
43	42	29	30	9
38	39	40	41	9
38	39	40	42	9
38	37	36	41	9
38	37	36	34	9
39	40	41	36	9
39	40	41	50	9
39	40	42	43	9
39	38	37	36	9
39	38	37	48	9
39	38	44	45	9
39	38	44	46	9
40	39	38	37	9
40	39	38	44	9
40	41	36	37	9
40	41	36	34	9
41	40	39	49	9
41	40	42	43	9
41	36	37	48	9
41	36	34	35	9
41	36	34	33	9
36	41	40	42	9
36	37	38	44	9
36	34	33	47	9
37	36	41	50	9
37	36	34	35	9
37	36	34	33	9
37	38	39	49	9
37	38	44	45	9
37	38	44	46	9
50	41	36	34	9
48	37	36	34	9
49	39	38	44	9
48	37	38	44	9
42	40	39	49	9
42	40	41	50	9
35	34	33	47	9
7	8	9	4	9
4	9	8	10	9
7	6	5	4	9
4	5	6	12	9
4	2	1	15	9
6	7	8	9	9
9	8	7	17	9
9	8	10	11	9
6	5	4	9	9
9	4	5	16	9
9	4	2	3	9
9	4	2	1	9
8	9	4	5	9
8	9	4	2	9
8	7	6	5	9
8	7	6	12	9
7	8	9	18	9
7	8	10	11	9
7	6	5	16	9
7	6	12	13	9
7	6	12	14	9
6	7	8	10	9
6	5	4	2	9
5	6	7	17	9
5	6	12	13	9
5	6	12	14	9
5	4	9	18	9
5	4	2	3	9
5	4	2	1	9
17	7	6	12	9
16	5	6	12	9
18	9	4	2	9
16	5	4	2	9
10	8	9	18	9
10	8	7	17	9
3	2	1	15	9
32	10	20	31	2
30	42	22	29	2
19	21	31	20	2
22	23	29	21	2
21	20	22	25	2
19	20	24	27	2
23	22	24	26	2
24	19	23	28	2
38	37	39	44	2
39	40	38	49	2
40	42	41	39	2
41	40	36	50	2
36	34	37	41	2
37	36	38	48	2
34	33	36	35	2
44	46	38	45	2
42	29	40	43	2
9	2	5	4	2
9	4	8	18	2
8	10	7	9	2
7	8	6	17	2
6	7	5	12	2
5	6	4	16	2
12	14	6	13	2
2	1	4	3	2
10	31	8	11	2


[ moleculetype ]
; Name	nrexcl
MOL8	3

[ atoms ]
;nr	type	resnr	residue	atom	cgnr	charge	mass
1	CB	1	MPD2	C	1	-0.15	12.011
2	CB	1	MPD2	C1	1	0.117	12.011
3	CB	1	MPD2	C2	1	-0.15	12.011
4	CB	1	MPD2	C3	1	0.117	12.011
5	CB	1	MPD2	C4	1	-0.15	12.011
6	CB	1	MPD2	C5	1	-0.15	12.011
7	HCMM	1	MPD2	H	1	0.15	1.0079
8	HCMM	1	MPD2	H1	1	0.15	1.0079
9	HCMM	1	MPD2	H2	1	0.15	1.0079
10	HCMM	1	MPD2	H3	1	0.15	1.0079
11	NC=O	1	MPD2	N	1	-0.547	14.0067
12	HNCO	1	MPD2	H5	1	0.37	1.0079
13	NC=O	1	MPD2	N1	1	-0.547	14.0067
14	HNCO	1	MPD2	H7	1	0.37	1.0079
15	CB	2	TMC3	C1	1	0.0862	12.011
16	CB	2	TMC3	C2	1	-0.15	12.011
17	CB	2	TMC3	C3	1	0.0862	12.011
18	CB	2	TMC3	C4	1	-0.15	12.011
19	CB	2	TMC3	C5	1	0.0862	12.011
20	CB	2	TMC3	C6	1	-0.15	12.011
21	C=O	2	TMC3	C	1	0.5438	12.011
22	O=C	2	TMC3	O	1	-0.57	15.9994
23	HCMM	2	TMC3	H	1	0.15	1.0079
24	HCMM	2	TMC3	H1	1	0.15	1.0079
25	HCMM	2	TMC3	H2	1	0.15	1.0079
26	C=O	2	TMC3	C7	1	0.5438	12.011
27	C=O	2	TMC3	C8	1	0.5438	12.011
28	O=C	2	TMC3	O1	1	-0.57	15.9994
29	O=C	2	TMC3	O2	1	-0.57	15.9994
30	OR	3	TCq1	O1	1	-0.65	15.9994
31	C=O	3	TCq1	C1	1	0.6338	12.011
32	O=C	3	TCq1	O2	1	-0.57	15.9994
33	CB	3	TCq1	C2	1	0.0862	12.011
34	CB	3	TCq1	C3	1	-0.15	12.011
35	CB	3	TCq1	C4	1	-0.179	12.011
36	CB	3	TCq1	C5	1	-0.15	12.011
37	CB	3	TCq1	C6	1	0.0862	12.011
38	CB	3	TCq1	C7	1	-0.15	12.011
39	C=O	3	TCq1	C8	1	0.5438	12.011
40	O=C	3	TCq1	O4	1	-0.57	15.9994
41	CO2M	3	TCq1	C9	1	0.979	12.011
42	O2CM	3	TCq1	O5	1	-0.9	15.9994
43	O2CM	3	TCq1	O6	1	-0.9	15.9994
44	HOCO	3	TCq1	H1	1	0.5	1.0079
45	HCMM	3	TCq1	H2	1	0.15	1.0079
46	HCMM	3	TCq1	H3	1	0.15	1.0079
47	HCMM	3	TCq1	H4	1	0.15	1.0079
48	CB	4	MPD2	C	1	-0.15	12.011
49	CB	4	MPD2	C1	1	0.117	12.011
50	CB	4	MPD2	C2	1	-0.15	12.011
51	CB	4	MPD2	C3	1	0.117	12.011
52	CB	4	MPD2	C4	1	-0.15	12.011
53	CB	4	MPD2	C5	1	-0.15	12.011
54	HCMM	4	MPD2	H	1	0.15	1.0079
55	HCMM	4	MPD2	H1	1	0.15	1.0079
56	HCMM	4	MPD2	H2	1	0.15	1.0079
57	HCMM	4	MPD2	H3	1	0.15	1.0079
58	NC=O	4	MPD2	N	1	-0.547	14.0067
59	HNCO	4	MPD2	H5	1	0.37	1.0079
60	NC=O	4	MPD2	N1	1	-0.547	14.0067
61	HNCO	4	MPD2	H7	1	0.37	1.0079
62	CB	5	TMC2	C1	1	0.0862	12.011
63	CB	5	TMC2	C2	1	-0.15	12.011
64	CB	5	TMC2	C3	1	0.0862	12.011
65	CB	5	TMC2	C4	1	-0.15	12.011
66	CB	5	TMC2	C5	1	0.0862	12.011
67	CB	5	TMC2	C6	1	-0.15	12.011
68	C=O	5	TMC2	C	1	0.5438	12.011
69	O=C	5	TMC2	O	1	-0.57	15.9994
70	HCMM	5	TMC2	H	1	0.15	1.0079
71	HCMM	5	TMC2	H1	1	0.15	1.0079
72	HCMM	5	TMC2	H2	1	0.15	1.0079
73	C=O	5	TMC2	C7	1	0.5438	12.011
74	C=O	5	TMC2	C8	1	0.6338	12.011
75	O=C	5	TMC2	O1	1	-0.57	15.9994
76	O=C	5	TMC2	O2	1	-0.57	15.9994
77	OR	5	TMC2	O5	1	-0.65	15.9994
78	HOCO	5	TMC2	H5	1	0.5	1.0079
79	CB	6	MPD2	C	1	-0.15	12.011
80	CB	6	MPD2	C1	1	0.117	12.011
81	CB	6	MPD2	C2	1	-0.15	12.011
82	CB	6	MPD2	C3	1	0.117	12.011
83	CB	6	MPD2	C4	1	-0.15	12.011
84	CB	6	MPD2	C5	1	-0.15	12.011
85	HCMM	6	MPD2	H	1	0.15	1.0079
86	HCMM	6	MPD2	H1	1	0.15	1.0079
87	HCMM	6	MPD2	H2	1	0.15	1.0079
88	HCMM	6	MPD2	H3	1	0.15	1.0079
89	NC=O	6	MPD2	N	1	-0.547	14.0067
90	HNCO	6	MPD2	H5	1	0.37	1.0079
91	NC=O	6	MPD2	N1	1	-0.547	14.0067
92	HNCO	6	MPD2	H7	1	0.37	1.0079

[ bonds ]
2	13	1
13	14	1
13	21	1
4	11	1
11	12	1
73	11	1
2	3	1
1	2	1
3	4	1
4	5	1
3	7	1
1	6	1
1	9	1
5	6	1
5	8	1
6	10	1
82	89	1
89	90	1
68	89	1
80	91	1
91	92	1
91	27	1
82	81	1
83	82	1
81	80	1
80	79	1
81	85	1
83	84	1
83	86	1
79	84	1
79	87	1
84	88	1
49	60	1
60	61	1
39	60	1
51	58	1
58	59	1
58	26	1
49	50	1
48	49	1
50	51	1
51	52	1
50	54	1
48	53	1
48	56	1
52	53	1
52	55	1
53	57	1
36	35	1
35	34	1
35	41	1
37	36	1
36	46	1
37	38	1
37	39	1
38	33	1
38	47	1
33	34	1
33	31	1
34	45	1
31	32	1
31	30	1
41	42	1
41	43	1
39	40	1
30	44	1
66	67	1
65	66	1
66	73	1
64	67	1
67	72	1
63	64	1
64	74	1
62	63	1
63	70	1
62	65	1
62	68	1
65	71	1
68	69	1
73	75	1
74	76	1
74	77	1
77	78	1
15	16	1
15	18	1
15	21	1
16	17	1
16	23	1
17	20	1
17	27	1
19	20	1
20	25	1
18	19	1
19	26	1
18	24	1
26	28	1
21	22	1
27	29	1

[ angles ]
3	2	13	1
1	2	13	1
13	21	15	1
13	21	22	1
3	4	11	1
5	4	11	1
66	73	11	1
75	73	11	1
2	13	14	1
2	13	21	1
2	3	4	1
2	3	7	1
2	1	6	1
2	1	9	1
4	11	12	1
73	11	4	1
4	3	7	1
4	5	6	1
4	5	8	1
1	2	3	1
3	4	5	1
1	6	5	1
1	6	10	1
5	6	10	1
6	1	9	1
6	5	8	1
14	13	21	1
73	11	12	1
81	82	89	1
83	82	89	1
62	68	89	1
69	68	89	1
81	80	91	1
79	80	91	1
91	27	17	1
91	27	29	1
82	89	90	1
68	89	82	1
82	81	80	1
82	81	85	1
82	83	84	1
82	83	86	1
80	91	92	1
80	91	27	1
80	81	85	1
80	79	84	1
80	79	87	1
83	82	81	1
81	80	79	1
83	84	79	1
83	84	88	1
79	84	88	1
84	83	86	1
84	79	87	1
68	89	90	1
92	91	27	1
50	49	60	1
48	49	60	1
37	39	60	1
40	39	60	1
50	51	58	1
52	51	58	1
58	26	19	1
58	26	28	1
49	60	61	1
39	60	49	1
49	50	51	1
49	50	54	1
49	48	53	1
49	48	56	1
51	58	59	1
51	58	26	1
51	50	54	1
51	52	53	1
51	52	55	1
48	49	50	1
50	51	52	1
48	53	52	1
48	53	57	1
52	53	57	1
53	48	56	1
53	52	55	1
39	60	61	1
59	58	26	1
37	36	35	1
35	36	46	1
35	34	33	1
35	34	45	1
35	41	42	1
35	41	43	1
36	37	38	1
36	37	39	1
36	35	34	1
36	35	41	1
37	36	46	1
37	38	33	1
37	38	47	1
37	39	40	1
38	37	39	1
38	33	34	1
38	33	31	1
33	38	47	1
33	34	45	1
33	31	32	1
33	31	30	1
34	33	31	1
34	35	41	1
31	30	44	1
32	31	30	1
42	41	43	1
64	67	66	1
66	67	72	1
62	65	66	1
66	65	71	1
66	73	75	1
63	64	67	1
67	64	74	1
65	66	67	1
67	66	73	1
64	67	72	1
62	63	64	1
64	63	70	1
64	74	76	1
64	74	77	1
63	64	74	1
63	62	65	1
63	62	68	1
62	63	70	1
62	65	71	1
62	68	69	1
65	62	68	1
65	66	73	1
74	77	78	1
76	74	77	1
15	16	17	1
15	16	23	1
15	18	19	1
15	18	24	1
15	21	22	1
16	17	20	1
16	17	27	1
16	15	18	1
16	15	21	1
17	16	23	1
17	20	19	1
17	20	25	1
17	27	29	1
20	17	27	1
18	19	20	1
20	19	26	1
19	20	25	1
19	18	24	1
19	26	28	1
18	19	26	1
18	15	21	1

[ dihedrals ]
4	3	2	13	9
7	3	2	13	9
6	1	2	13	9
9	1	2	13	9
13	21	15	16	9
13	21	15	18	9
2	3	4	11	9
7	3	4	11	9
6	5	4	11	9
8	5	4	11	9
67	66	73	11	9
65	66	73	11	9
2	13	21	15	9
2	13	21	22	9
2	3	4	5	9
2	1	6	5	9
2	1	6	10	9
66	73	11	4	9
75	73	11	4	9
1	2	3	4	9
1	6	5	4	9
4	5	6	10	9
3	2	13	14	9
3	2	13	21	9
3	2	1	6	9
3	2	1	9	9
3	4	11	12	9
73	11	4	3	9
3	4	5	6	9
3	4	5	8	9
1	2	13	14	9
1	2	13	21	9
1	2	3	7	9
1	6	5	8	9
5	4	11	12	9
73	11	4	5	9
5	4	3	7	9
5	6	1	9	9
9	1	6	10	9
8	5	6	10	9
14	13	21	15	9
14	13	21	22	9
66	73	11	12	9
75	73	11	12	9
80	81	82	89	9
85	81	82	89	9
84	83	82	89	9
86	83	82	89	9
63	62	68	89	9
65	62	68	89	9
82	81	80	91	9
85	81	80	91	9
84	79	80	91	9
87	79	80	91	9
91	27	17	16	9
91	27	17	20	9
62	68	89	82	9
69	68	89	82	9
82	81	80	79	9
82	83	84	79	9
82	83	84	88	9
80	91	27	17	9
80	91	27	29	9
83	82	81	80	9
83	84	79	80	9
80	79	84	88	9
81	82	89	90	9
68	89	82	81	9
81	82	83	84	9
81	82	83	86	9
81	80	91	92	9
81	80	91	27	9
81	80	79	84	9
81	80	79	87	9
83	82	89	90	9
68	89	82	83	9
83	82	81	85	9
83	84	79	87	9
79	80	91	92	9
79	80	91	27	9
79	80	81	85	9
79	84	83	86	9
86	83	84	88	9
87	79	84	88	9
62	68	89	90	9
69	68	89	90	9
92	91	27	17	9
92	91	27	29	9
51	50	49	60	9
54	50	49	60	9
53	48	49	60	9
56	48	49	60	9
36	37	39	60	9
38	37	39	60	9
49	50	51	58	9
54	50	51	58	9
53	52	51	58	9
55	52	51	58	9
58	26	19	20	9
58	26	19	18	9
37	39	60	49	9
40	39	60	49	9
49	50	51	52	9
49	48	53	52	9
49	48	53	57	9
51	58	26	19	9
51	58	26	28	9
48	49	50	51	9
48	53	52	51	9
51	52	53	57	9
50	49	60	61	9
39	60	49	50	9
50	49	48	53	9
50	49	48	56	9
50	51	58	59	9
50	51	58	26	9
50	51	52	53	9
50	51	52	55	9
48	49	60	61	9
39	60	49	48	9
48	49	50	54	9
48	53	52	55	9
52	51	58	59	9
52	51	58	26	9
52	51	50	54	9
52	53	48	56	9
56	48	53	57	9
55	52	53	57	9
37	39	60	61	9
40	39	60	61	9
59	58	26	19	9
59	58	26	28	9
35	36	37	38	9
35	36	37	39	9
35	34	33	38	9
35	34	33	31	9
36	37	38	33	9
36	37	38	47	9
36	37	39	40	9
36	35	34	33	9
36	35	34	45	9
36	35	41	42	9
36	35	41	43	9
37	36	35	34	9
37	36	35	41	9
37	38	33	34	9
37	38	33	31	9
38	37	36	46	9
38	37	39	40	9
38	33	34	45	9
38	33	31	32	9
38	33	31	30	9
33	38	37	39	9
33	34	35	41	9
33	31	30	44	9
34	33	38	47	9
34	33	31	32	9
34	33	31	30	9
34	35	36	46	9
34	35	41	42	9
34	35	41	43	9
47	38	33	31	9
45	34	33	31	9
46	36	35	41	9
45	34	35	41	9
39	37	36	46	9
39	37	38	47	9
32	31	30	44	9
63	64	67	66	9
66	67	64	74	9
63	62	65	66	9
66	65	62	68	9
62	63	64	67	9
67	64	63	70	9
67	64	74	76	9
67	64	74	77	9
62	65	66	67	9
67	66	65	71	9
67	66	73	75	9
64	67	66	65	9
64	67	66	73	9
64	63	62	65	9
64	63	62	68	9
64	74	77	78	9
63	64	67	72	9
63	64	74	76	9
63	64	74	77	9
63	62	65	71	9
63	62	68	69	9
62	63	64	74	9
62	65	66	73	9
65	62	63	70	9
65	62	68	69	9
65	66	67	72	9
65	66	73	75	9
68	62	63	70	9
68	62	65	71	9
72	67	66	73	9
71	65	66	73	9
72	67	64	74	9
70	63	64	74	9
76	74	77	78	9
15	16	17	20	9
15	16	17	27	9
15	18	19	20	9
15	18	19	26	9
16	17	20	19	9
16	17	20	25	9
16	17	27	29	9
16	15	18	19	9
16	15	18	24	9
16	15	21	22	9
17	16	15	18	9
17	16	15	21	9
17	20	19	18	9
17	20	19	26	9
20	17	16	23	9
20	17	27	29	9
20	19	18	24	9
20	19	26	28	9
19	20	17	27	9
19	18	15	21	9
18	19	20	25	9
18	19	26	28	9
18	15	16	23	9
18	15	21	22	9
25	20	19	26	9
24	18	19	26	9
21	15	16	23	9
21	15	18	24	9
23	16	17	27	9
25	20	17	27	9
14	21	2	13	2
12	73	4	11	2
2	1	13	3	2
3	5	11	4	2
3	2	4	7	2
1	6	2	9	2
5	4	6	8	2
6	1	5	10	2
90	68	82	89	2
92	27	80	91	2
82	81	89	83	2
79	81	91	80	2
81	82	80	85	2
83	82	84	86	2
79	84	80	87	2
84	79	83	88	2
61	39	49	60	2
59	26	51	58	2
50	48	60	49	2
50	52	58	51	2
50	49	51	54	2
48	53	49	56	2
52	51	53	55	2
53	48	52	57	2
35	34	36	41	2
36	37	35	46	2
36	39	38	37	2
38	37	33	47	2
38	31	34	33	2
34	35	33	45	2
31	30	33	32	2
41	43	35	42	2
39	60	37	40	2
65	73	67	66	2
67	64	66	72	2
63	74	67	64	2
63	62	64	70	2
65	68	63	62	2
65	66	62	71	2
68	89	62	69	2
73	11	66	75	2
74	77	64	76	2
15	21	16	18	2
16	17	15	23	2
16	27	20	17	2
20	17	19	25	2
18	26	20	19	2
18	19	15	24	2
26	58	19	28	2
21	13	15	22	2
27	91	17	29	2

#include "ligand.itp"
#include "tip3p.itp"

[ system ]
Membrane in water


[ molecules ]
MOL1	1
MOL2	1
MOL3	1
MOL4	2
MOL5	1
MOL6	1
MOL7	1
MOL8	1
LIG    1
NA    65
SOL              8558
