System
40167
    1TCq1    O1    1   1.598   2.690  11.583
    1TCq1    C1    2   1.584   2.628  11.702
    1TCq1    O2    3   1.684   2.582  11.758
    1TCq1    C2    4   1.470   2.540  11.674
    1TCq1    C3    5   1.354   2.589  11.630
    1TCq1    C4    6   1.260   2.507  11.602
    1TCq1    C5    7   1.267   2.369  11.615
    1TCq1    C6    8   1.392   2.321  11.669
    1TCq1    C7    9   1.494   2.409  11.699
    1TCq1    C8   10   1.407   2.180  11.700
    1TCq1    O4   11   1.307   2.112  11.718
    1TCq1    C9   12   1.146   2.565  11.528
    1TCq1    O5   13   1.161   2.672  11.467
    1TCq1    O6   14   1.029   2.532  11.591
    1TCq1    H1   15   1.519   2.722  11.536
    1TCq1    H2   16   1.340   2.695  11.611
    1TCq1    H3   17   1.189   2.302  11.580
    1TCq1    H4   18   1.592   2.379  11.736
    2MPD2     C   19   1.730   1.800  11.854
    2MPD2    C1   20   1.594   1.796  11.845
    2MPD2    C2   21   1.526   1.905  11.775
    2MPD2    C3   22   1.596   2.014  11.746
    2MPD2    C4   23   1.731   2.022  11.757
    2MPD2    C5   24   1.795   1.912  11.805
    2MPD2     H   25   1.419   1.910  11.759
    2MPD2    H1   26   1.787   2.098  11.704
    2MPD2    H2   27   1.785   1.718  11.898
    2MPD2    H3   28   1.902   1.908  11.793
    2MPD2     N   29   1.543   2.141  11.706
    2MPD2    H5   30   1.615   2.208  11.682
    2MPD2    N1   31   1.511   1.694  11.899
    2MPD2    H7   32   1.411   1.707  11.888
    3TCq1    O1   33   1.450   2.978  10.762
    3TCq1    C1   34   1.362   3.020  10.851
    3TCq1    O2   35   1.390   3.038  10.966
    3TCq1    C2   36   1.235   2.989  10.789
    3TCq1    C3   37   1.207   3.068  10.678
    3TCq1    C4   38   1.082   3.116  10.666
    3TCq1    C5   39   0.985   3.091  10.759
    3TCq1    C6   40   1.018   3.021  10.872
    3TCq1    C7   41   1.142   2.967  10.885
    3TCq1    C8   42   0.917   2.945  10.935
    3TCq1    O4   43   0.941   2.832  10.967
    3TCq1    C9   44   1.068   3.228  10.579
    3TCq1    O5   45   0.992   3.320  10.604
    3TCq1    O6   46   1.131   3.203  10.459
    3TCq1    H1   47   1.411   2.950  10.676
    3TCq1    H2   48   1.287   3.093  10.610
    3TCq1    H3   49   0.889   3.143  10.757
    3TCq1    H4   50   1.171   2.914  10.975
    4MPD2     C   51   0.448   2.911  11.167
    4MPD2    C1   52   0.495   3.039  11.162
    4MPD2    C2   53   0.609   3.062  11.087
    4MPD2    C3   54   0.687   2.968  11.026
    4MPD2    C4   55   0.661   2.837  11.059
    4MPD2    C5   56   0.538   2.812  11.126
    4MPD2     H   57   0.643   3.165  11.090
    4MPD2    H1   58   0.708   2.755  11.006
    4MPD2    H2   59   0.367   2.877  11.230
    4MPD2    H3   60   0.494   2.712  11.126
    4MPD2     N   61   0.802   3.021  10.959
    4MPD2    H5   62   0.815   3.121  10.971
    4MPD2    N1   63   0.441   3.139  11.241
    4MPD2    H7   64   0.495   3.225  11.247
    5TCq1    O1   65   2.026   4.434  12.569
    5TCq1    C1   66   1.992   4.387  12.448
    5TCq1    O2   67   2.073   4.347  12.363
    5TCq1    C2   68   1.866   4.449  12.413
    5TCq1    C3   69   1.762   4.450  12.502
    5TCq1    C4   70   1.661   4.530  12.464
    5TCq1    C5   71   1.652   4.601  12.349
    5TCq1    C6   72   1.755   4.585  12.265
    5TCq1    C7   73   1.863   4.506  12.290
    5TCq1    C8   74   1.750   4.629  12.122
    5TCq1    O4   75   1.816   4.568  12.038
    5TCq1    C9   76   1.555   4.540  12.566
    5TCq1    O5   77   1.578   4.524  12.686
    5TCq1    O6   78   1.437   4.567  12.508
    5TCq1    H1   79   1.958   4.483  12.619
    5TCq1    H2   80   1.768   4.408  12.602
    5TCq1    H3   81   1.575   4.672  12.321
    5TCq1    H4   82   1.945   4.500  12.220
    6MPD2     C   83   1.557   0.104  11.976
    6MPD2    C1   84   1.620   4.784  11.974
    6MPD2    C2   85   1.615   4.708  11.858
    6MPD2    C3   86   1.556   4.764  11.738
    6MPD2    C4   87   1.503   0.085  11.744
    6MPD2    C5   88   1.509   0.159  11.863
    6MPD2     H   89   1.646   4.606  11.871
    6MPD2    H1   90   1.481   0.138  11.652
    6MPD2    H2   91   1.569   0.161  12.068
    6MPD2    H3   92   1.483   0.264  11.859
    6MPD2     N   93   1.545   4.683  11.628
    6MPD2    H5   94   1.595   4.595  11.636
    6MPD2    N1   95   1.662   4.736  12.098
    6MPD2    H7   96   1.624   4.788  12.177
    7TCq1    O1   97   3.656   4.030  13.550
    7TCq1    C1   98   3.524   4.011  13.580
    7TCq1    O2   99   3.443   4.101  13.590
    7TCq1    C2  100   3.478   3.872  13.611
    7TCq1    C3  101   3.351   3.854  13.651
    7TCq1    C4  102   3.298   3.728  13.661
    7TCq1    C5  103   3.376   3.614  13.628
    7TCq1    C6  104   3.494   3.633  13.571
    7TCq1    C7  105   3.547   3.762  13.574
    7TCq1    C8  106   3.583   3.520  13.534
    7TCq1    O4  107   3.534   3.408  13.540
    7TCq1    C9  108   3.152   3.730  13.669
    7TCq1    O5  109   3.085   3.829  13.655
    7TCq1    O6  110   3.113   3.614  13.720
    7TCq1    H1  111   3.706   3.963  13.601
    7TCq1    H2  112   3.290   3.943  13.657
    7TCq1    H3  113   3.339   3.512  13.630
    7TCq1    H4  114   3.650   3.776  13.542
    8MPD2     C  115   4.059   3.344  13.562
    8MPD2    C1  116   3.946   3.283  13.605
    8MPD2    C2  117   3.830   3.358  13.580
    8MPD2    C3  118   3.832   3.485  13.517
    8MPD2    C4  119   3.956   3.543  13.494
    8MPD2    C5  120   4.062   3.467  13.525
    8MPD2     H  121   3.738   3.304  13.601
    8MPD2    H1  122   3.965   3.650  13.474
    8MPD2    H2  123   4.155   3.299  13.588
    8MPD2    H3  124   4.158   3.516  13.515
    8MPD2     N  125   3.714   3.564  13.506
    8MPD2    H5  126   3.722   3.665  13.502
    8MPD2    N1  127   3.950   3.157  13.661
    8MPD2    H7  128   4.042   3.122  13.686
    9TCq1    O1  129   1.108   3.221  11.124
    9TCq1    C1  130   1.146   3.118  11.203
    9TCq1    O2  131   1.090   3.007  11.207
    9TCq1    C2  132   1.266   3.154  11.283
    9TCq1    C3  133   1.373   3.213  11.219
    9TCq1    C4  134   1.497   3.232  11.279
    9TCq1    C5  135   1.510   3.216  11.415
    9TCq1    C6  136   1.400   3.143  11.473
    9TCq1    C7  137   1.280   3.117  11.412
    9TCq1    C8  138   1.426   3.069  11.594
    9TCq1    O4  139   1.531   3.093  11.644
    9TCq1    C9  140   1.609   3.258  11.195
    9TCq1    O5  141   1.716   3.285  11.241
    9TCq1    O6  142   1.595   3.153  11.111
    9TCq1    H1  143   1.157   3.302  11.150
    9TCq1    H2  144   1.353   3.251  11.120
    9TCq1    H3  145   1.609   3.219  11.459
    9TCq1    H4  146   1.203   3.050  11.448
   10MPD2     C  147   1.445   2.923  11.852
   10MPD2    C1  148   1.334   2.924  11.768
   10MPD2    C2  149   1.225   2.845  11.800
   10MPD2    C3  150   1.219   2.764  11.906
   10MPD2    C4  151   1.334   2.755  11.980
   10MPD2    C5  152   1.442   2.825  11.946
   10MPD2     H  153   1.139   2.838  11.735
   10MPD2    H1  154   1.339   2.685  12.062
   10MPD2    H2  155   1.538   2.978  11.846
   10MPD2    H3  156   1.526   2.803  12.012
   10MPD2     N  157   1.112   2.676  11.939
   10MPD2    H5  158   1.134   2.599  12.002
   10MPD2    N1  159   1.331   2.989  11.639
   10MPD2    H7  160   1.242   2.993  11.590
   11TCq1    O1  161   2.658   2.265  14.567
   11TCq1    C1  162   2.535   2.219  14.552
   11TCq1    O2  163   2.498   2.135  14.468
   11TCq1    C2  164   2.442   2.270  14.652
   11TCq1    C3  165   2.502   2.314  14.774
   11TCq1    C4  166   2.409   2.343  14.878
   11TCq1    C5  167   2.275   2.337  14.864
   11TCq1    C6  168   2.223   2.286  14.747
   11TCq1    C7  169   2.305   2.250  14.642
   11TCq1    C8  170   2.087   2.236  14.748
   11TCq1    O4  171   2.012   2.280  14.837
   11TCq1    C9  172   2.464   2.377  15.007
   11TCq1    O5  173   2.569   2.446  15.016
   11TCq1    O6  174   2.430   2.270  15.081
   11TCq1    H1  175   2.649   2.349  14.616
   11TCq1    H2  176   2.605   2.291  14.796
   11TCq1    H3  177   2.215   2.352  14.953
   11TCq1    H4  178   2.279   2.208  14.545
   12MPD2     C  179   1.827   2.155  14.648
   12MPD2    C1  180   1.942   2.100  14.599
   12MPD2    C2  181   1.932   2.003  14.500
   12MPD2    C3  182   1.808   1.969  14.450
   12MPD2    C4  183   1.695   2.027  14.500
   12MPD2    C5  184   1.708   2.114  14.598
   12MPD2     H  185   2.025   1.964  14.459
   12MPD2    H1  186   1.599   1.999  14.460
   12MPD2    H2  187   1.827   2.228  14.728
   12MPD2    H3  188   1.613   2.160  14.622
   12MPD2     N  189   1.786   1.869  14.350
   12MPD2    H5  190   1.694   1.860  14.307
   12MPD2    N1  191   2.070   2.138  14.643
   12MPD2    H7  192   2.149   2.095  14.595
   13TCq1    O1  193   1.801   3.051  11.691
   13TCq1    C1  194   1.899   3.035  11.598
   13TCq1    O2  195   2.019   3.030  11.619
   13TCq1    C2  196   1.853   3.027  11.459
   13TCq1    C3  197   1.943   3.059  11.364
   13TCq1    C4  198   1.909   3.029  11.237
   13TCq1    C5  199   1.794   2.966  11.201
   13TCq1    C6  200   1.705   2.935  11.300
   13TCq1    C7  201   1.733   2.966  11.430
   13TCq1    C8  202   1.581   2.867  11.276
   13TCq1    O4  203   1.512   2.839  11.378
   13TCq1    C9  204   1.986   3.102  11.135
   13TCq1    O5  205   2.109   3.127  11.146
   13TCq1    O6  206   1.888   3.166  11.062
   13TCq1    H1  207   1.710   3.060  11.655
   13TCq1    H2  208   2.043   3.087  11.395
   13TCq1    H3  209   1.776   2.928  11.101
   13TCq1    H4  210   1.684   2.919  11.515
   14MPD2     C  211   1.460   2.714  10.972
   14MPD2    C1  212   1.448   2.758  11.099
   14MPD2    C2  213   1.332   2.745  11.168
   14MPD2    C3  214   1.224   2.678  11.104
   14MPD2    C4  215   1.237   2.625  10.974
   14MPD2    C5  216   1.360   2.636  10.916
   14MPD2     H  217   1.328   2.785  11.268
   14MPD2    H1  218   1.152   2.573  10.930
   14MPD2    H2  219   1.544   2.733  10.907
   14MPD2    H3  220   1.375   2.612  10.811
   14MPD2     N  221   1.111   2.672  11.185
   14MPD2    H5  222   1.117   2.710  11.279
   14MPD2    N1  223   1.556   2.833  11.147
   14MPD2    H7  224   1.616   2.863  11.071
   15TCq1    O1  225   3.123   0.357  19.552
   15TCq1    C1  226   3.064   0.474  19.574
   15TCq1    O2  227   3.064   0.518  19.691
   15TCq1    C2  228   3.004   0.541  19.459
   15TCq1    C3  229   2.934   0.656  19.485
   15TCq1    C4  230   2.918   0.757  19.389
   15TCq1    C5  231   2.954   0.730  19.259
   15TCq1    C6  232   3.011   0.605  19.234
   15TCq1    C7  233   3.040   0.511  19.330
   15TCq1    C8  234   3.095   0.599  19.118
   15TCq1    O4  235   3.126   0.711  19.073
   15TCq1    C9  236   2.841   0.882  19.415
   15TCq1    O5  237   2.824   0.961  19.325
   15TCq1    O6  238   2.848   0.923  19.547
   15TCq1    H1  239   3.114   0.311  19.466
   15TCq1    H2  240   2.915   0.659  19.592
   15TCq1    H3  241   2.937   0.803  19.181
   15TCq1    H4  242   3.096   0.421  19.308
   16MPD2     C  243   3.154   0.344  18.864
   16MPD2    C1  244   3.190   0.451  18.942
   16MPD2    C2  245   3.310   0.524  18.915
   16MPD2    C3  246   3.374   0.489  18.800
   16MPD2    C4  247   3.343   0.376  18.731
   16MPD2    C5  248   3.238   0.294  18.768
   16MPD2     H  249   3.335   0.616  18.966
   16MPD2    H1  250   3.411   0.344  18.652
   16MPD2    H2  251   3.066   0.287  18.893
   16MPD2    H3  252   3.198   0.206  18.719
   16MPD2     N  253   3.477   0.577  18.760
   16MPD2    H5  254   3.511   0.648  18.825
   16MPD2    N1  255   3.108   0.476  19.053
   16MPD2    H7  256   3.049   0.401  19.086
   17TCq1    O1  257   1.229   1.823  10.988
   17TCq1    C1  258   1.155   1.772  11.092
   17TCq1    O2  259   1.082   1.674  11.091
   17TCq1    C2  260   1.238   1.811  11.208
   17TCq1    C3  261   1.285   1.721  11.299
   17TCq1    C4  262   1.328   1.774  11.418
   17TCq1    C5  263   1.350   1.914  11.440
   17TCq1    C6  264   1.282   1.994  11.351
   17TCq1    C7  265   1.229   1.941  11.235
   17TCq1    C8  266   1.328   2.134  11.324
   17TCq1    O4  267   1.237   2.219  11.317
   17TCq1    C9  268   1.397   1.683  11.511
   17TCq1    O5  269   1.363   1.666  11.625
   17TCq1    O6  270   1.448   1.592  11.427
   17TCq1    H1  271   1.313   1.867  11.014
   17TCq1    H2  272   1.273   1.616  11.275
   17TCq1    H3  273   1.392   1.959  11.529
   17TCq1    H4  274   1.181   2.010  11.167
   18MPD2     C  275   1.474   2.391  11.313
   18MPD2    C1  276   1.530   2.273  11.339
   18MPD2    C2  277   1.665   2.263  11.373
   18MPD2    C3  278   1.746   2.372  11.375
   18MPD2    C4  279   1.686   2.495  11.355
   18MPD2    C5  280   1.557   2.501  11.320
   18MPD2     H  281   1.707   2.163  11.380
   18MPD2    H1  282   1.733   2.592  11.359
   18MPD2    H2  283   1.374   2.402  11.273
   18MPD2    H3  284   1.514   2.599  11.302
   18MPD2     N  285   1.886   2.365  11.391
   18MPD2    H5  286   1.938   2.451  11.378
   18MPD2    N1  287   1.454   2.158  11.346
   18MPD2    H7  288   1.508   2.074  11.364
   19TMC2    C1  289   3.092   2.100  14.222
   19TMC2    C2  290   3.021   2.216  14.197
   19TMC2    C3  291   2.886   2.223  14.220
   19TMC2    C4  292   3.025   1.989  14.258
   19TMC2    C5  293   2.884   1.996  14.280
   19TMC2    C6  294   2.816   2.116  14.263
   19TMC2     C  295   3.240   2.110  14.201
   19TMC2     O  296   3.282   2.198  14.132
   19TMC2     H  297   3.079   2.306  14.181
   19TMC2    H1  298   3.082   1.897  14.265
   19TMC2    H2  299   2.712   2.135  14.287
   19TMC2    C7  300   2.806   1.892  14.343
   19TMC2    C8  301   2.813   2.344  14.235
   19TMC2    O1  302   2.879   1.805  14.383
   19TMC2    O2  303   2.697   2.351  14.192
   19TMC2    O5  304   2.899   2.442  14.284
   19TMC2    H5  305   2.968   2.418  14.350
   20MPD2     C  306   3.537   2.085  14.220
   20MPD2    C1  307   3.450   1.999  14.283
   20MPD2    C2  308   3.501   1.905  14.367
   20MPD2    C3  309   3.640   1.901  14.387
   20MPD2    C4  310   3.721   1.991  14.331
   20MPD2    C5  311   3.672   2.084  14.241
   20MPD2     H  312   3.429   1.843  14.418
   20MPD2    H1  313   3.828   1.980  14.343
   20MPD2    H2  314   3.514   2.168  14.155
   20MPD2    H3  315   3.740   2.148  14.187
   20MPD2     N  316   3.698   1.805  14.472
   20MPD2    H5  317   3.796   1.813  14.497
   20MPD2    N1  318   3.314   2.015  14.278
   20MPD2    H7  319   3.257   1.945  14.325
   21MPD2     C  320   0.419   2.729  14.621
   21MPD2    C1  321   0.499   2.626  14.590
   21MPD2    C2  322   0.463   2.559  14.477
   21MPD2    C3  323   0.349   2.582  14.406
   21MPD2    C4  324   0.264   2.684  14.442
   21MPD2    C5  325   0.301   2.755  14.561
   21MPD2     H  326   0.518   2.475  14.437
   21MPD2    H1  327   0.176   2.714  14.387
   21MPD2    H2  328   0.439   2.792  14.708
   21MPD2    H3  329   0.246   2.837  14.604
   21MPD2     N  330   0.305   2.494  14.300
   21MPD2    H5  331   0.243   2.544  14.237
   21MPD2    N1  332   0.608   2.576  14.668
   21MPD2    H7  333   0.649   2.491  14.630
   22TCq2    C1  334   0.359   2.377  14.269
   22TCq2    O2  335   0.368   2.332  14.156
   22TCq2    C2  336   0.377   2.286  14.373
   22TCq2    C3  337   0.483   2.200  14.354
   22TCq2    C4  338   0.537   2.140  14.462
   22TCq2    C5  339   0.465   2.144  14.585
   22TCq2    C6  340   0.346   2.218  14.593
   22TCq2    C7  341   0.303   2.286  14.485
   22TCq2    C8  342   0.329   2.281  14.725
   22TCq2    O4  343   0.408   2.245  14.813
   22TCq2    C9  344   0.619   2.022  14.446
   22TCq2    O5  345   0.672   1.960  14.539
   22TCq2    O6  346   0.571   1.957  14.337
   22TCq2    H2  347   0.550   2.204  14.269
   22TCq2    H3  348   0.508   2.102  14.675
   22TCq2    H4  349   0.224   2.359  14.495
   23MPD2     C  350   2.087   3.403  14.675
   23MPD2    C1  351   1.970   3.401  14.753
   23MPD2    C2  352   1.856   3.464  14.699
   23MPD2    C3  353   1.868   3.518  14.573
   23MPD2    C4  354   1.982   3.512  14.501
   23MPD2    C5  355   2.096   3.454  14.548
   23MPD2     H  356   1.761   3.464  14.750
   23MPD2    H1  357   1.985   3.558  14.402
   23MPD2    H2  358   2.173   3.351  14.716
   23MPD2    H3  359   2.182   3.446  14.482
   23MPD2     N  360   1.754   3.580  14.506
   23MPD2    H5  361   1.780   3.637  14.427
   23MPD2    N1  362   1.955   3.336  14.874
   23MPD2    H7  363   1.880   3.370  14.934
   24TCq2    C1  364   1.621   3.555  14.532
   24TCq2    O2  365   1.564   3.463  14.586
   24TCq2    C2  366   1.540   3.643  14.453
   24TCq2    C3  367   1.568   3.781  14.454
   24TCq2    C4  368   1.462   3.865  14.442
   24TCq2    C5  369   1.334   3.818  14.427
   24TCq2    C6  370   1.317   3.685  14.414
   24TCq2    C7  371   1.415   3.598  14.445
   24TCq2    C8  372   1.181   3.628  14.420
   24TCq2    O4  373   1.182   3.517  14.468
   24TCq2    C9  374   1.486   4.006  14.443
   24TCq2    O5  375   1.592   4.064  14.411
   24TCq2    O6  376   1.443   4.021  14.577
   24TCq2    H2  377   1.662   3.832  14.473
   24TCq2    H3  378   1.250   3.881  14.400
   24TCq2    H4  379   1.399   3.492  14.430
   25TMC2    C1  380   0.975   0.945  12.202
   25TMC2    C2  381   1.044   0.981  12.311
   25TMC2    C3  382   1.017   1.104  12.370
   25TMC2    C4  383   0.878   1.022  12.146
   25TMC2    C5  384   0.851   1.132  12.218
   25TMC2    C6  385   0.917   1.177  12.325
   25TMC2     C  386   1.023   0.834  12.122
   25TMC2     O  387   1.135   0.794  12.150
   25TMC2     H  388   1.130   0.917  12.329
   25TMC2    H1  389   0.826   1.004  12.053
   25TMC2    H2  390   0.882   1.273  12.363
   25TMC2    C7  391   0.799   1.240  12.134
   25TMC2    C8  392   1.068   1.136  12.496
   25TMC2    O1  393   0.861   1.346  12.148
   25TMC2    O2  394   1.099   1.248  12.529
   25TMC2    O5  395   1.108   1.021  12.550
   25TMC2    H5  396   1.054   0.950  12.509
   26MPD2     C  397   1.013   0.457  11.804
   26MPD2    C1  398   0.884   0.463  11.848
   26MPD2    C2  399   0.852   0.567  11.939
   26MPD2    C3  400   0.949   0.668  11.972
   26MPD2    C4  401   1.070   0.656  11.922
   26MPD2    C5  402   1.104   0.555  11.842
   26MPD2     H  403   0.750   0.579  11.973
   26MPD2    H1  404   1.146   0.732  11.938
   26MPD2    H2  405   1.043   0.379  11.734
   26MPD2    H3  406   1.207   0.551  11.808
   26MPD2     N  407   0.919   0.775  12.058
   26MPD2    H5  408   0.824   0.803  12.082
   26MPD2    N1  409   0.791   0.367  11.803
   26MPD2    H7  410   0.819   0.301  11.731
   27TMC2    C1  411   4.549   3.180  12.480
   27TMC2    C2  412   4.475   3.287  12.444
   27TMC2    C3  413   4.533   3.374  12.352
   27TMC2    C4  414   4.677   3.163  12.426
   27TMC2    C5  415   4.735   3.255  12.340
   27TMC2    C6  416   4.656   3.359  12.304
   27TMC2     C  417   4.513   3.101  12.594
   27TMC2     O  418   4.572   2.998  12.625
   27TMC2     H  419   4.371   3.312  12.463
   27TMC2    H1  420   4.742   3.096  12.481
   27TMC2    H2  421   4.692   3.431  12.232
   27TMC2    C7  422   0.063   3.291  12.378
   27TMC2    C8  423   4.461   3.491  12.311
   27TMC2    O1  424   0.135   3.209  12.430
   27TMC2    O2  425   4.490   3.569  12.216
   27TMC2    O5  426   4.414   3.540  12.431
   27TMC2    H5  427   4.443   3.488  12.509
   28MPD2     C  428   4.123   2.933  12.878
   28MPD2    C1  429   4.108   3.071  12.866
   28MPD2    C2  430   4.200   3.147  12.789
   28MPD2    C3  431   4.311   3.084  12.735
   28MPD2    C4  432   4.332   2.954  12.769
   28MPD2    C5  433   4.238   2.881  12.834
   28MPD2     H  434   4.171   3.250  12.772
   28MPD2    H1  435   4.424   2.904  12.741
   28MPD2    H2  436   4.051   2.872  12.931
   28MPD2    H3  437   4.263   2.780  12.863
   28MPD2     N  438   4.394   3.153  12.646
   28MPD2    H5  439   4.370   3.249  12.622
   28MPD2    N1  440   3.982   3.115  12.909
   28MPD2    H7  441   3.925   3.049  12.962
   29MPD2     C  442   3.603   0.417  14.132
   29MPD2    C1  443   3.703   0.388  14.221
   29MPD2    C2  444   3.727   0.475  14.326
   29MPD2    C3  445   3.662   0.594  14.343
   29MPD2    C4  446   3.564   0.624  14.254
   29MPD2    C5  447   3.528   0.530  14.159
   29MPD2     H  448   3.816   0.451  14.385
   29MPD2    H1  449   3.505   0.715  14.251
   29MPD2    H2  450   3.563   0.349  14.057
   29MPD2    H3  451   3.449   0.566  14.093
   29MPD2     N  452   3.692   0.693  14.434
   29MPD2    H5  453   3.657   0.787  14.413
   29MPD2    N1  454   3.779   0.268  14.216
   29MPD2    H7  455   3.855   0.273  14.284
   30TCq2    C1  456   3.756   0.679  14.552
   30TCq2    O2  457   3.790   0.579  14.618
   30TCq2    C2  458   3.765   0.799  14.625
   30TCq2    C3  459   3.757   0.798  14.763
   30TCq2    C4  460   3.805   0.909  14.824
   30TCq2    C5  461   3.857   1.015  14.761
   30TCq2    C6  462   3.861   1.013  14.628
   30TCq2    C7  463   3.810   0.907  14.553
   30TCq2    C8  464   3.928   1.117  14.556
   30TCq2    O4  465   3.896   1.135  14.439
   30TCq2    C9  466   3.817   0.910  14.963
   30TCq2    O5  467   3.823   0.804  15.024
   30TCq2    O6  468   3.789   1.032  15.022
   30TCq2    H2  469   3.709   0.722  14.824
   30TCq2    H3  470   3.894   1.101  14.816
   30TCq2    H4  471   3.819   0.906  14.445
   31MPD2     C  472   1.894   4.325  15.252
   31MPD2    C1  473   1.768   4.360  15.232
   31MPD2    C2  474   1.658   4.304  15.307
   31MPD2    C3  475   1.694   4.215  15.413
   31MPD2    C4  476   1.825   4.176  15.425
   31MPD2    C5  477   1.918   4.226  15.342
   31MPD2     H  478   1.556   4.332  15.285
   31MPD2    H1  479   1.860   4.106  15.499
   31MPD2    H2  480   1.980   4.367  15.201
   31MPD2    H3  481   2.023   4.200  15.354
   31MPD2     N  482   1.610   4.179  15.528
   31MPD2    H5  483   1.649   4.119  15.600
   31MPD2    N1  484   1.760   4.447  15.120
   31MPD2    H7  485   1.837   4.481  15.064
   32TCq2    C1  486   1.484   4.228  15.547
   32TCq2    O2  487   1.401   4.263  15.460
   32TCq2    C2  488   1.445   4.229  15.685
   32TCq2    C3  489   1.315   4.250  15.709
   32TCq2    C4  490   1.276   4.289  15.832
   32TCq2    C5  491   1.361   4.292  15.942
   32TCq2    C6  492   1.489   4.282  15.910
   32TCq2    C7  493   1.534   4.244  15.785
   32TCq2    C8  494   1.586   4.278  16.015
   32TCq2    O4  495   1.687   4.212  15.998
   32TCq2    C9  496   1.138   4.285  15.864
   32TCq2    O5  497   1.100   4.220  15.961
   32TCq2    O6  498   1.068   4.387  15.802
   32TCq2    H2  499   1.241   4.239  15.631
   32TCq2    H3  500   1.335   4.326  16.042
   32TCq2    H4  501   1.640   4.246  15.765
   33MPD2     C  502   2.461   2.379  10.807
   33MPD2    C1  503   2.335   2.371  10.856
   33MPD2    C2  504   2.223   2.376  10.772
   33MPD2    C3  505   2.234   2.377  10.637
   33MPD2    C4  506   2.364   2.389  10.580
   33MPD2    C5  507   2.473   2.394  10.672
   33MPD2     H  508   2.123   2.379  10.813
   33MPD2    H1  509   2.379   2.382  10.473
   33MPD2    H2  510   2.549   2.372  10.869
   33MPD2    H3  511   2.573   2.397  10.630
   33MPD2     N  512   2.125   2.361  10.549
   33MPD2    H5  513   2.153   2.356  10.452
   33MPD2    N1  514   2.321   2.343  10.995
   33MPD2    H7  515   2.404   2.332  11.052
   34TCq2    C1  516   1.995   2.319  10.580
   34TCq2    O2  517   1.950   2.289  10.690
   34TCq2    C2  518   1.909   2.333  10.459
   34TCq2    C3  519   1.790   2.265  10.463
   34TCq2    C4  520   1.672   2.319  10.411
   34TCq2    C5  521   1.674   2.452  10.361
   34TCq2    C6  522   1.800   2.521  10.373
   34TCq2    C7  523   1.912   2.461  10.409
   34TCq2    C8  524   1.802   2.663  10.330
   34TCq2    O4  525   1.891   2.728  10.376
   34TCq2    C9  526   1.579   2.220  10.363
   34TCq2    O5  527   1.502   2.247  10.274
   34TCq2    O6  528   1.560   2.119  10.457
   34TCq2    H2  529   1.786   2.162  10.498
   34TCq2    H3  530   1.582   2.500  10.332
   34TCq2    H4  531   2.002   2.520  10.392
   35MPD2     C  532   3.541   3.804  11.924
   35MPD2    C1  533   3.493   3.709  12.018
   35MPD2    C2  534   3.357   3.683  12.027
   35MPD2    C3  535   3.271   3.758  11.953
   35MPD2    C4  536   3.321   3.857  11.865
   35MPD2    C5  537   3.461   3.869  11.841
   35MPD2     H  538   3.319   3.596  12.078
   35MPD2    H1  539   3.253   3.920  11.809
   35MPD2    H2  540   3.648   3.821  11.916
   35MPD2    H3  541   3.496   3.930  11.759
   35MPD2     N  542   3.132   3.722  11.954
   35MPD2    H5  543   3.106   3.644  12.013
   35MPD2    N1  544   3.590   3.627  12.093
   35MPD2    H7  545   3.686   3.623  12.061
   36TCq2    C1  546   3.029   3.783  11.889
   36TCq2    O2  547   3.033   3.871  11.808
   36TCq2    C2  548   2.897   3.752  11.941
   36TCq2    C3  549   2.795   3.843  11.909
   36TCq2    C4  550   2.661   3.801  11.931
   36TCq2    C5  551   2.637   3.690  12.010
   36TCq2    C6  552   2.744   3.614  12.051
   36TCq2    C7  553   2.872   3.639  12.013
   36TCq2    C8  554   2.722   3.473  12.065
   36TCq2    O4  555   2.614   3.428  12.031
   36TCq2    C9  556   2.562   3.886  11.868
   36TCq2    O5  557   2.598   3.982  11.805
   36TCq2    O6  558   2.462   3.802  11.840
   36TCq2    H2  559   2.814   3.938  11.860
   36TCq2    H3  560   2.537   3.670  12.047
   36TCq2    H4  561   2.947   3.569  12.047
   37TMC2    C1  562   0.879   3.188  12.422
   37TMC2    C2  563   0.777   3.106  12.380
   37TMC2    C3  564   0.769   3.089  12.248
   37TMC2    C4  565   0.955   3.272  12.336
   37TMC2    C5  566   0.923   3.265  12.200
   37TMC2    C6  567   0.837   3.167  12.152
   37TMC2     C  568   0.865   3.227  12.554
   37TMC2     O  569   0.755   3.222  12.599
   37TMC2     H  570   0.717   3.041  12.442
   37TMC2    H1  571   1.015   3.346  12.388
   37TMC2    H2  572   0.789   3.179  12.056
   37TMC2    C7  573   0.985   3.353  12.103
   37TMC2    C8  574   0.701   2.971  12.205
   37TMC2    O1  575   1.036   3.459  12.149
   37TMC2    O2  576   0.616   2.914  12.270
   37TMC2    O5  577   0.741   2.931  12.088
   37TMC2    H5  578   0.817   2.986  12.060
   38MPD2     C  579   0.986   3.391  13.022
   38MPD2    C1  580   1.108   3.387  12.949
   38MPD2    C2  581   1.098   3.346  12.815
   38MPD2    C3  582   0.980   3.301  12.764
   38MPD2    C4  583   0.873   3.306  12.838
   38MPD2    C5  584   0.871   3.351  12.967
   38MPD2     H  585   1.182   3.338  12.747
   38MPD2    H1  586   0.776   3.261  12.817
   38MPD2    H2  587   0.995   3.401  13.129
   38MPD2    H3  588   0.776   3.368  13.016
   38MPD2     N  589   0.977   3.252  12.626
   38MPD2    H5  590   1.061   3.251  12.570
   38MPD2    N1  591   1.231   3.399  13.015
   38MPD2    H7  592   1.316   3.361  12.974
   39MPD2     C  593   3.567   0.226  19.026
   39MPD2    C1  594   3.500   0.290  19.128
   39MPD2    C2  595   3.384   0.225  19.185
   39MPD2    C3  596   3.332   0.108  19.132
   39MPD2    C4  597   3.411   0.049  19.027
   39MPD2    C5  598   3.517   0.116  18.967
   39MPD2     H  599   3.327   0.282  19.257
   39MPD2    H1  600   3.369   4.769  18.974
   39MPD2    H2  601   3.652   0.266  18.971
   39MPD2    H3  602   3.578   0.072  18.889
   39MPD2     N  603   3.211   0.041  19.175
   39MPD2    H5  604   3.195   4.751  19.143
   39MPD2    N1  605   3.559   0.413  19.176
   39MPD2    H7  606   3.651   0.436  19.140
   40TCq2    C1  607   3.509   0.500  19.265
   40TCq2    O2  608   3.391   0.512  19.300
   40TCq2    C2  609   3.594   0.623  19.246
   40TCq2    C3  610   3.523   0.742  19.230
   40TCq2    C4  611   3.591   0.861  19.213
   40TCq2    C5  612   3.729   0.854  19.199
   40TCq2    C6  613   3.799   0.734  19.210
   40TCq2    C7  614   3.732   0.617  19.246
   40TCq2    C8  615   3.923   0.746  19.299
   40TCq2    O4  616   3.925   0.669  19.396
   40TCq2    C9  617   3.517   0.986  19.200
   40TCq2    O5  618   3.410   0.998  19.138
   40TCq2    O6  619   3.603   1.085  19.242
   40TCq2    H2  620   3.415   0.745  19.231
   40TCq2    H3  621   3.773   0.942  19.154
   40TCq2    H4  622   3.787   0.526  19.269
   41TMC2    C1  623   2.595   3.676  13.957
   41TMC2    C2  624   2.505   3.751  14.025
   41TMC2    C3  625   2.463   3.872  13.974
   41TMC2    C4  626   2.654   3.711  13.838
   41TMC2    C5  627   2.607   3.827  13.792
   41TMC2    C6  628   2.517   3.909  13.853
   41TMC2     C  629   2.641   3.553  14.020
   41TMC2     O  630   2.710   3.483  13.951
   41TMC2     H  631   2.456   3.721  14.117
   41TMC2    H1  632   2.733   3.651  13.795
   41TMC2    H2  633   2.487   4.004  13.810
   41TMC2    C7  634   2.682   3.897  13.695
   41TMC2    C8  635   2.323   3.899  14.002
   41TMC2    O1  636   2.730   4.006  13.727
   41TMC2    O2  637   2.233   3.817  14.015
   41TMC2    O5  638   2.309   4.037  14.019
   41TMC2    H5  639   2.396   4.082  14.006
   42MPD2     C  640   2.690   3.319  14.188
   42MPD2    C1  641   2.624   3.436  14.234
   42MPD2    C2  642   2.586   3.433  14.368
   42MPD2    C3  643   2.601   3.319  14.450
   42MPD2    C4  644   2.672   3.206  14.399
   42MPD2    C5  645   2.718   3.212  14.273
   42MPD2     H  646   2.538   3.519  14.413
   42MPD2    H1  647   2.680   3.111  14.451
   42MPD2    H2  648   2.744   3.317  14.094
   42MPD2    H3  649   2.780   3.135  14.229
   42MPD2     N  650   2.560   3.307  14.588
   42MPD2    H5  651   2.585   3.219  14.631
   42MPD2    N1  652   2.601   3.549  14.151
   42MPD2    H7  653   2.555   3.630  14.192
   43MPD2     C  654   3.997   1.569  18.681
   43MPD2    C1  655   4.072   1.672  18.729
   43MPD2    C2  656   4.027   1.735  18.845
   43MPD2    C3  657   3.906   1.704  18.906
   43MPD2    C4  658   3.828   1.606  18.851
   43MPD2    C5  659   3.873   1.537  18.739
   43MPD2     H  660   4.089   1.813  18.889
   43MPD2    H1  661   3.727   1.586  18.885
   43MPD2    H2  662   4.017   1.507  18.595
   43MPD2    H3  663   3.827   1.457  18.683
   43MPD2     N  664   3.860   1.751  19.028
   43MPD2    H5  665   3.761   1.737  19.050
   43MPD2    N1  666   4.194   1.717  18.669
   43MPD2    H7  667   4.242   1.798  18.707
   44TCq2    C1  668   4.004   2.124  19.482
   44TCq2    O2  669   4.122   2.129  19.446
   44TCq2    C2  670   3.908   2.046  19.401
   44TCq2    C3  671   3.780   2.086  19.398
   44TCq2    C4  672   3.705   2.027  19.304
   44TCq2    C5  673   3.744   1.918  19.221
   44TCq2    C6  674   3.876   1.877  19.230
   44TCq2    C7  675   3.953   1.945  19.321
   44TCq2    C8  676   3.946   1.797  19.125
   44TCq2    O4  677   4.071   1.790  19.123
   44TCq2    C9  678   3.577   2.080  19.265
   44TCq2    O5  679   3.542   2.062  19.153
   44TCq2    O6  680   3.505   2.115  19.368
   44TCq2    H2  681   3.745   2.174  19.450
   44TCq2    H3  682   3.675   1.870  19.153
   44TCq2    H4  683   4.058   1.916  19.322
   45TMC2    C1  684   0.247   3.669   9.852
   45TMC2    C2  685   0.351   3.668   9.763
   45TMC2    C3  686   0.454   3.763   9.771
   45TMC2    C4  687   0.243   3.759   9.958
   45TMC2    C5  688   0.353   3.841   9.968
   45TMC2    C6  689   0.458   3.846   9.874
   45TMC2     C  690   0.133   3.580   9.822
   45TMC2     O  691   0.162   3.493   9.746
   45TMC2     H  692   0.353   3.599   9.679
   45TMC2    H1  693   0.156   3.760  10.023
   45TMC2    H2  694   0.534   3.922   9.892
   45TMC2    C7  695   0.339   3.968  10.036
   45TMC2    C8  696   0.553   3.767   9.667
   45TMC2    O1  697   0.266   3.967  10.136
   45TMC2    O2  698   0.630   3.860   9.650
   45TMC2    O5  699   0.571   3.638   9.622
   45TMC2    H5  700   0.529   3.570   9.679
   46MPD2     C  701   4.684   3.442   9.870
   46MPD2    C1  702   4.695   3.579   9.842
   46MPD2    C2  703   4.583   3.647   9.797
   46MPD2    C3  704   4.464   3.587   9.768
   46MPD2    C4  705   4.454   3.454   9.788
   46MPD2    C5  706   4.555   3.391   9.847
   46MPD2     H  707   4.601   3.754   9.792
   46MPD2    H1  708   4.368   3.393   9.764
   46MPD2    H2  709   4.773   3.390   9.902
   46MPD2    H3  710   4.547   3.284   9.862
   46MPD2     N  711   4.352   3.677   9.736
   46MPD2    H5  712   4.379   3.775   9.737
   46MPD2    N1  713   0.013   3.644   9.854
   46MPD2    H7  714   0.017   3.744   9.874
   47TMC2    C1  715   1.658   0.075   9.218
   47TMC2    C2  716   1.716   0.010   9.116
   47TMC2    C3  717   1.647   4.727   9.045
   47TMC2    C4  718   1.525   0.068   9.238
   47TMC2    C5  719   1.453   4.781   9.171
   47TMC2    C6  720   1.514   4.703   9.074
   47TMC2     C  721   1.738   0.119   9.330
   47TMC2     O  722   1.691   0.198   9.415
   47TMC2     H  723   1.818   0.027   9.082
   47TMC2    H1  724   1.480   0.120   9.322
   47TMC2    H2  725   1.467   4.617   9.028
   47TMC2    C7  726   1.312   4.781   9.184
   47TMC2    C8  727   1.721   4.632   8.968
   47TMC2    O1  728   1.255   4.680   9.142
   47TMC2    O2  729   1.843   4.618   8.981
   47TMC2    O5  730   1.660   4.634   8.849
   47TMC2    H5  731   1.567   4.664   8.857
   48MPD2     C  732   1.984   0.168   9.495
   48MPD2    C1  733   1.953   0.051   9.436
   48MPD2    C2  734   2.037   4.748   9.469
   48MPD2    C3  735   2.145   4.751   9.552
   48MPD2    C4  736   2.171   0.067   9.613
   48MPD2    C5  737   2.088   0.174   9.585
   48MPD2     H  738   2.002   4.651   9.436
   48MPD2    H1  739   2.254   0.081   9.681
   48MPD2    H2  740   1.925   0.258   9.481
   48MPD2    H3  741   2.105   0.275   9.623
   48MPD2     N  742   2.226   4.636   9.570
   48MPD2    H5  743   2.221   4.565   9.498
   48MPD2    N1  744   1.846   0.034   9.349
   48MPD2    H7  745   1.854   4.761   9.285
   49MPD2     C  746   0.913   2.110  11.121
   49MPD2    C1  747   0.876   1.994  11.051
   49MPD2    C2  748   0.829   1.885  11.133
   49MPD2    C3  749   0.811   1.903  11.268
   49MPD2    C4  750   0.845   2.017  11.331
   49MPD2    C5  751   0.902   2.118  11.260
   49MPD2     H  752   0.807   1.789  11.089
   49MPD2    H1  753   0.827   2.022  11.438
   49MPD2    H2  754   0.948   2.198  11.068
   49MPD2    H3  755   0.933   2.206  11.314
   49MPD2     N  756   0.764   1.806  11.363
   49MPD2    H5  757   0.768   1.832  11.461
   49MPD2    N1  758   0.873   1.965  10.909
   49MPD2    H7  759   0.836   1.876  10.877
   50TCq2    C1  760   0.933   2.051  10.817
   50TCq2    O2  761   0.993   2.156  10.836
   50TCq2    C2  762   0.904   2.017  10.680
   50TCq2    C3  763   0.982   2.081  10.582
   50TCq2    C4  764   0.950   2.061  10.451
   50TCq2    C5  765   0.839   1.986  10.414
   50TCq2    C6  766   0.764   1.928  10.520
   50TCq2    C7  767   0.795   1.936  10.653
   50TCq2    C8  768   0.638   1.856  10.484
   50TCq2    O4  769   0.599   1.874  10.369
   50TCq2    C9  770   1.014   2.138  10.349
   50TCq2    O5  771   0.947   2.197  10.267
   50TCq2    O6  772   1.125   2.192  10.405
   50TCq2    H2  773   1.063   2.148  10.608
   50TCq2    H3  774   0.810   1.970  10.311
   50TCq2    H4  775   0.723   1.911  10.730
   51MPD2     C  776   1.113   0.037  19.284
   51MPD2    C1  777   1.150   0.075  19.410
   51MPD2    C2  778   1.110   0.198  19.451
   51MPD2    C3  779   1.029   0.280  19.368
   51MPD2    C4  780   0.993   0.240  19.239
   51MPD2    C5  781   1.042   0.121  19.195
   51MPD2     H  782   1.147   0.230  19.547
   51MPD2    H1  783   0.949   0.307  19.167
   51MPD2    H2  784   1.136   4.745  19.242
   51MPD2    H3  785   1.022   0.095  19.092
   51MPD2     N  786   0.987   0.412  19.410
   51MPD2    H5  787   0.940   0.466  19.338
   51MPD2    N1  788   1.228   4.804  19.499
   51MPD2    H7  789   1.220   0.040  19.592
   52TCq2    C1  790   1.018   0.472  19.522
   52TCq2    O2  791   1.101   0.437  19.605
   52TCq2    C2  792   0.955   0.606  19.527
   52TCq2    C3  793   1.019   0.700  19.603
   52TCq2    C4  794   0.974   0.830  19.595
   52TCq2    C5  795   0.875   0.874  19.506
   52TCq2    C6  796   0.821   0.774  19.430
   52TCq2    C7  797   0.854   0.644  19.440
   52TCq2    C8  798   0.735   0.828  19.319
   52TCq2    O4  799   0.672   0.932  19.347
   52TCq2    C9  800   1.014   0.925  19.694
   52TCq2    O5  801   0.981   1.043  19.675
   52TCq2    O6  802   1.008   0.866  19.809
   52TCq2    H2  803   1.114   0.674  19.648
   52TCq2    H3  804   0.848   0.977  19.484
   52TCq2    H4  805   0.809   0.572  19.373
   53TMC2    C1  806   1.267   3.892  11.685
   53TMC2    C2  807   1.245   3.995  11.598
   53TMC2    C3  808   1.291   4.113  11.640
   53TMC2    C4  809   1.345   3.906  11.802
   53TMC2    C5  810   1.394   4.026  11.839
   53TMC2    C6  811   1.366   4.132  11.756
   53TMC2     C  812   1.228   3.758  11.647
   53TMC2     O  813   1.211   3.730  11.529
   53TMC2     H  814   1.175   3.984  11.516
   53TMC2    H1  815   1.355   3.815  11.860
   53TMC2    H2  816   1.397   4.232  11.782
   53TMC2    C7  817   1.353   4.044  11.979
   53TMC2    C8  818   1.288   4.212  11.543
   53TMC2    O1  819   1.236   4.043  12.003
   53TMC2    O2  820   1.329   4.328  11.561
   53TMC2    O5  821   1.307   4.156  11.420
   53TMC2    H5  822   1.304   4.058  11.427
   54MPD2     C  823   1.117   3.492  11.615
   54MPD2    C1  824   1.138   3.554  11.739
   54MPD2    C2  825   1.099   3.496  11.859
   54MPD2    C3  826   1.038   3.372  11.860
   54MPD2    C4  827   1.027   3.304  11.743
   54MPD2    C5  828   1.072   3.362  11.626
   54MPD2     H  829   1.113   3.554  11.949
   54MPD2    H1  830   0.987   3.203  11.739
   54MPD2    H2  831   1.140   3.538  11.519
   54MPD2    H3  832   1.046   3.313  11.533
   54MPD2     N  833   0.981   3.306  11.972
   54MPD2    H5  834   0.958   3.208  11.962
   54MPD2    N1  835   1.201   3.678  11.758
   54MPD2    H7  836   1.193   3.718  11.850
   55MPD2     C  837   2.280   1.804  18.086
   55MPD2    C1  838   2.252   1.688  18.161
   55MPD2    C2  839   2.161   1.704  18.267
   55MPD2    C3  840   2.107   1.824  18.304
   55MPD2    C4  841   2.143   1.937  18.230
   55MPD2    C5  842   2.230   1.925  18.123
   55MPD2     H  843   2.119   1.611  18.305
   55MPD2    H1  844   2.113   2.040  18.243
   55MPD2    H2  845   2.358   1.795  18.011
   55MPD2    H3  846   2.249   2.015  18.065
   55MPD2     N  847   2.013   1.829  18.409
   55MPD2    H5  848   1.985   1.746  18.460
   55MPD2    N1  849   2.312   1.565  18.133
   55MPD2    H7  850   2.376   1.553  18.055
   56TCq2    C1  851   2.305   1.449  18.208
   56TCq2    O2  852   2.268   1.440  18.322
   56TCq2    C2  853   2.348   1.324  18.142
   56TCq2    C3  854   2.330   1.308  18.004
   56TCq2    C4  855   2.307   1.177  17.961
   56TCq2    C5  856   2.289   1.071  18.051
   56TCq2    C6  857   2.301   1.096  18.190
   56TCq2    C7  858   2.333   1.222  18.231
   56TCq2    C8  859   2.190   1.030  18.257
   56TCq2    O4  860   2.109   0.963  18.190
   56TCq2    C9  861   2.294   1.135  17.822
   56TCq2    O5  862   2.364   1.049  17.777
   56TCq2    O6  863   2.270   1.251  17.762
   56TCq2    H2  864   2.356   1.395  17.945
   56TCq2    H3  865   2.269   0.978  18.001
   56TCq2    H4  866   2.364   1.237  18.333
   57TMC2    C1  867   1.463   2.356  13.913
   57TMC2    C2  868   1.507   2.249  13.993
   57TMC2    C3  869   1.640   2.219  13.964
   57TMC2    C4  870   1.533   2.420  13.819
   57TMC2    C5  871   1.659   2.375  13.798
   57TMC2    C6  872   1.715   2.271  13.867
   57TMC2     C  873   1.318   2.388  13.938
   57TMC2     O  874   1.277   2.502  13.924
   57TMC2     H  875   1.449   2.190  14.062
   57TMC2    H1  876   1.489   2.487  13.746
   57TMC2    H2  877   1.810   2.221  13.853
   57TMC2    C7  878   1.737   2.408  13.682
   57TMC2    C8  879   1.710   2.120  14.044
   57TMC2    O1  880   1.730   2.523  13.640
   57TMC2    O2  881   1.770   2.032  13.989
   57TMC2    O5  882   1.649   2.108  14.165
   57TMC2    H5  883   1.615   2.197  14.190
   58MPD2     C  884   0.896   2.279  14.205
   58MPD2    C1  885   0.961   2.405  14.191
   58MPD2    C2  886   1.079   2.410  14.116
   58MPD2    C3  887   1.132   2.287  14.060
   58MPD2    C4  888   1.066   2.169  14.091
   58MPD2    C5  889   0.949   2.164  14.162
   58MPD2     H  890   1.110   2.510  14.088
   58MPD2    H1  891   1.103   2.072  14.059
   58MPD2    H2  892   0.815   2.257  14.274
   58MPD2    H3  893   0.896   2.071  14.182
   58MPD2     N  894   1.256   2.286  13.990
   58MPD2    H5  895   1.291   2.195  13.964
   58MPD2    N1  896   0.890   2.522  14.226
   58MPD2    H7  897   0.943   2.608  14.216
   59MPD2     C  898   3.905   3.002  13.220
   59MPD2    C1  899   3.947   2.869  13.221
   59MPD2    C2  900   4.041   2.822  13.309
   59MPD2    C3  901   4.108   2.913  13.380
   59MPD2    C4  902   4.077   3.052  13.375
   59MPD2    C5  903   3.974   3.100  13.294
   59MPD2     H  904   4.060   2.716  13.322
   59MPD2    H1  905   4.131   3.121  13.437
   59MPD2    H2  906   3.809   3.032  13.180
   59MPD2    H3  907   3.935   3.201  13.298
   59MPD2     N  908   4.216   2.875  13.467
   59MPD2    H5  909   4.260   2.949  13.521
   59MPD2    N1  910   3.873   2.772  13.140
   59MPD2    H7  911   3.893   2.674  13.161
   60TCq2    C1  912   3.798   2.802  13.031
   60TCq2    O2  913   3.814   2.899  12.965
   60TCq2    C2  914   3.720   2.693  12.983
   60TCq2    C3  915   3.704   2.568  13.049
   60TCq2    C4  916   3.626   2.471  12.978
   60TCq2    C5  917   3.557   2.499  12.864
   60TCq2    C6  918   3.575   2.623  12.811
   60TCq2    C7  919   3.657   2.718  12.865
   60TCq2    C8  920   3.503   2.646  12.685
   60TCq2    O4  921   3.478   2.543  12.622
   60TCq2    C9  922   3.603   2.345  13.038
   60TCq2    O5  923   3.514   2.272  13.001
   60TCq2    O6  924   3.716   2.297  13.094
   60TCq2    H2  925   3.739   2.563  13.152
   60TCq2    H3  926   3.483   2.429  12.827
   60TCq2    H4  927   3.678   2.812  12.814
   61MPD2     C  928   2.781   3.700  14.866
   61MPD2    C1  929   2.843   3.801  14.930
   61MPD2    C2  930   2.830   3.930  14.886
   61MPD2    C3  931   2.752   3.969  14.775
   61MPD2    C4  932   2.698   3.855  14.709
   61MPD2    C5  933   2.712   3.725  14.750
   61MPD2     H  934   2.877   4.008  14.944
   61MPD2    H1  935   2.645   3.872  14.616
   61MPD2    H2  936   2.788   3.598  14.903
   61MPD2    H3  937   2.666   3.643  14.696
   61MPD2     N  938   2.737   4.103  14.713
   61MPD2    H5  939   2.685   4.114  14.627
   61MPD2    N1  940   2.900   3.795  15.057
   61MPD2    H7  941   2.906   3.884  15.105
   62TCq2    C1  942   2.940   3.682  15.120
   62TCq2    O2  943   2.944   3.564  15.081
   62TCq2    C2  944   3.001   3.708  15.251
   62TCq2    C3  945   3.051   3.604  15.326
   62TCq2    C4  946   3.109   3.631  15.449
   62TCq2    C5  947   3.129   3.754  15.489
   62TCq2    C6  948   3.077   3.861  15.420
   62TCq2    C7  949   3.017   3.840  15.297
   62TCq2    C8  950   3.086   3.997  15.470
   62TCq2    O4  951   3.043   4.090  15.402
   62TCq2    C9  952   3.215   3.536  15.495
   62TCq2    O5  953   3.229   3.494  15.610
   62TCq2    O6  954   3.315   3.599  15.427
   62TCq2    H2  955   3.047   3.501  15.293
   62TCq2    H3  956   3.202   3.770  15.569
   62TCq2    H4  957   2.972   3.927  15.250
   63TMC2    C1  958   2.172   4.775  10.706
   63TMC2    C2  959   2.287   4.702  10.691
   63TMC2    C3  960   2.338   4.667  10.568
   63TMC2    C4  961   2.105   0.018  10.597
   63TMC2    C5  962   2.165   4.795  10.473
   63TMC2    C6  963   2.277   4.715  10.456
   63TMC2     C  964   2.093   4.735  10.817
   63TMC2     O  965   1.996   4.794  10.857
   63TMC2     H  966   2.348   4.693  10.780
   63TMC2    H1  967   2.013   0.073  10.611
   63TMC2    H2  968   2.289   4.665  10.360
   63TMC2    C7  969   2.079   0.016  10.358
   63TMC2    C8  970   2.466   4.608  10.559
   63TMC2    O1  971   1.959   0.013  10.383
   63TMC2    O2  972   2.521   4.550  10.652
   63TMC2    O5  973   2.538   4.674  10.463
   63TMC2    H5  974   2.481   4.719  10.397
   64MPD2     C  975   1.914   4.338  11.061
   64MPD2    C1  976   2.046   4.303  11.021
   64MPD2    C2  977   2.122   4.401  10.965
   64MPD2    C3  978   2.064   4.529  10.945
   64MPD2    C4  979   1.941   4.561  11.004
   64MPD2    C5  980   1.869   4.470  11.067
   64MPD2     H  981   2.217   4.379  10.916
   64MPD2    H1  982   1.894   4.659  11.000
   64MPD2    H2  983   1.844   4.262  11.095
   64MPD2    H3  984   1.766   4.492  11.092
   64MPD2     N  985   2.135   4.614  10.857
   64MPD2    H5  986   2.218   4.580  10.809
   64MPD2    N1  987   2.095   4.169  11.020
   64MPD2    H7  988   2.190   4.152  10.989
   65MPD2     C  989   3.908   3.203  16.006
   65MPD2    C1  990   3.933   3.208  15.869
   65MPD2    C2  991   3.939   3.086  15.811
   65MPD2    C3  992   3.912   2.967  15.875
   65MPD2    C4  993   3.892   2.964  16.008
   65MPD2    C5  994   3.884   3.082  16.070
   65MPD2     H  995   3.975   3.092  15.708
   65MPD2    H1  996   3.882   2.871  16.063
   65MPD2    H2  997   3.886   3.292  16.063
   65MPD2    H3  998   3.851   3.081  16.174
   65MPD2     N  999   3.917   2.835  15.818
   65MPD2    H5 1000   3.881   2.757  15.872
   65MPD2    N1 1001   3.950   3.323  15.789
   65MPD2    H7 1002   3.948   3.306  15.689
   66TCq2    C1 1003   3.965   3.449  15.842
   66TCq2    O2 1004   3.945   3.474  15.963
   66TCq2    C2 1005   3.967   3.557  15.750
   66TCq2    C3 1006   4.018   3.543  15.623
   66TCq2    C4 1007   3.968   3.639  15.540
   66TCq2    C5 1008   3.883   3.737  15.570
   66TCq2    C6 1009   3.839   3.754  15.695
   66TCq2    C7 1010   3.882   3.661  15.790
   66TCq2    C8 1011   3.809   3.886  15.732
   66TCq2    O4 1012   3.821   3.972  15.646
   66TCq2    C9 1013   3.998   3.626  15.395
   66TCq2    O5 1014   4.050   3.523  15.361
   66TCq2    O6 1015   4.039   3.745  15.343
   66TCq2    H2 1016   4.074   3.455  15.593
   66TCq2    H3 1017   3.845   3.811  15.501
   66TCq2    H4 1018   3.844   3.657  15.891
   67MPD2     C 1019   3.862   2.518  14.399
   67MPD2    C1 1020   3.823   2.639  14.461
   67MPD2    C2 1021   3.683   2.681  14.459
   67MPD2    C3 1022   3.585   2.605  14.391
   67MPD2    C4 1023   3.626   2.497  14.319
   67MPD2    C5 1024   3.759   2.448  14.333
   67MPD2     H 1025   3.654   2.778  14.498
   67MPD2    H1 1026   3.555   2.451  14.252
   67MPD2    H2 1027   3.962   2.476  14.399
   67MPD2    H3 1028   3.792   2.351  14.297
   67MPD2     N 1029   3.450   2.650  14.375
   67MPD2    H5 1030   3.395   2.619  14.295
   67MPD2    N1 1031   3.918   2.730  14.507
   67MPD2    H7 1032   3.884   2.818  14.547
   68TCq2    C1 1033   4.050   2.702  14.540
   68TCq2    O2 1034   4.114   2.600  14.537
   68TCq2    C2 1035   4.105   2.807  14.617
   68TCq2    C3 1036   4.036   2.921  14.647
   68TCq2    C4 1037   4.085   2.998  14.755
   68TCq2    C5 1038   4.196   2.960  14.821
   68TCq2    C6 1039   4.271   2.860  14.772
   68TCq2    C7 1040   4.227   2.784  14.666
   68TCq2    C8 1041   4.387   2.804  14.849
   68TCq2    O4 1042   4.467   2.728  14.795
   68TCq2    C9 1043   4.023   3.125  14.789
   68TCq2    O5 1044   3.942   3.195  14.731
   68TCq2    O6 1045   4.027   3.126  14.926
   68TCq2    H2 1046   3.947   2.952  14.593
   68TCq2    H3 1047   4.243   3.014  14.903
   68TCq2    H4 1048   4.287   2.702  14.629
   69TMC2    C1 1049   1.312   4.159  12.862
   69TMC2    C2 1050   1.188   4.117  12.830
   69TMC2    C3 1051   1.145   4.124  12.700
   69TMC2    C4 1052   1.405   4.171  12.765
   69TMC2    C5 1053   1.360   4.170  12.634
   69TMC2    C6 1054   1.228   4.150  12.600
   69TMC2     C 1055   1.359   4.092  12.984
   69TMC2     O 1056   1.298   3.996  13.030
   69TMC2     H 1057   1.119   4.100  12.912
   69TMC2    H1 1058   1.512   4.167  12.786
   69TMC2    H2 1059   1.201   4.141  12.495
   69TMC2    C7 1060   1.464   4.206  12.544
   69TMC2    C8 1061   1.023   4.046  12.672
   69TMC2    O1 1062   1.582   4.171  12.555
   69TMC2    O2 1063   0.992   3.970  12.764
   69TMC2    O5 1064   0.974   4.072  12.548
   69TMC2    H5 1065   1.026   4.146  12.510
   70MPD2     C 1066   1.662   4.210  13.178
   70MPD2    C1 1067   1.548   4.134  13.143
   70MPD2    C2 1068   1.517   4.031  13.227
   70MPD2    C3 1069   1.594   4.002  13.336
   70MPD2    C4 1070   1.702   4.073  13.363
   70MPD2    C5 1071   1.740   4.177  13.282
   70MPD2     H 1072   1.434   3.967  13.198
   70MPD2    H1 1073   1.760   4.052  13.453
   70MPD2    H2 1074   1.695   4.292  13.115
   70MPD2    H3 1075   1.831   4.235  13.292
   70MPD2     N 1076   1.559   3.901  13.434
   70MPD2    H5 1077   1.619   3.892  13.515
   70MPD2    N1 1078   1.473   4.156  13.025
   70MPD2    H7 1079   1.503   4.232  12.965
   71TMC2    C1 1080   3.101   4.237  19.370
   71TMC2    C2 1081   3.121   4.340  19.466
   71TMC2    C3 1082   3.015   4.386  19.536
   71TMC2    C4 1083   2.969   4.199  19.343
   71TMC2    C5 1084   2.861   4.257  19.411
   71TMC2    C6 1085   2.887   4.346  19.514
   71TMC2     C 1086   3.208   4.226  19.269
   71TMC2     O 1087   3.170   4.227  19.150
   71TMC2     H 1088   3.221   4.380  19.483
   71TMC2    H1 1089   2.955   4.134  19.257
   71TMC2    H2 1090   2.814   4.359  19.593
   71TMC2    C7 1091   2.721   4.200  19.431
   71TMC2    C8 1092   3.039   4.499  19.624
   71TMC2    O1 1093   2.700   4.093  19.387
   71TMC2    O2 1094   3.151   4.532  19.657
   71TMC2    O5 1095   2.944   4.593  19.605
   71TMC2    H5 1096   2.877   4.556  19.544
   72MPD2     C 1097   3.680   4.368  19.139
   72MPD2    C1 1098   3.568   4.369  19.063
   72MPD2    C2 1099   3.447   4.315  19.115
   72MPD2    C3 1100   3.443   4.274  19.248
   72MPD2    C4 1101   3.556   4.289  19.321
   72MPD2    C5 1102   3.670   4.329  19.272
   72MPD2     H 1103   3.355   4.316  19.057
   72MPD2    H1 1104   3.558   4.279  19.428
   72MPD2    H2 1105   3.774   4.411  19.104
   72MPD2    H3 1106   3.757   4.335  19.337
   72MPD2     N 1107   3.331   4.241  19.320
   72MPD2    H5 1108   3.348   4.236  19.420
   72MPD2    N1 1109   3.552   4.443  18.941
   72MPD2    H7 1110   3.459   4.441  18.901
   73TMC2    C1 1111   3.076   1.383  14.266
   73TMC2    C2 1112   3.025   1.448  14.377
   73TMC2    C3 1113   3.076   1.414  14.499
   73TMC2    C4 1114   3.188   1.300  14.274
   73TMC2    C5 1115   3.250   1.287  14.394
   73TMC2    C6 1116   3.188   1.337  14.506
   73TMC2     C 1117   3.076   1.473  14.158
   73TMC2     O 1118   3.191   1.472  14.110
   73TMC2     H 1119   2.955   1.531  14.370
   73TMC2    H1 1120   3.234   1.256  14.187
   73TMC2    H2 1121   3.249   1.334  14.596
   73TMC2    C7 1122   3.390   1.311  14.380
   73TMC2    C8 1123   3.072   1.523  14.597
   73TMC2    O1 1124   3.462   1.289  14.478
   73TMC2    O2 1125   3.173   1.566  14.656
   73TMC2    O5 1126   2.954   1.585  14.588
   73TMC2    H5 1127   2.883   1.537  14.540
   74MPD2     C 1128   2.896   1.842  13.880
   74MPD2    C1 1129   3.021   1.796  13.902
   74MPD2    C2 1130   3.037   1.678  13.968
   74MPD2    C3 1131   2.933   1.624  14.035
   74MPD2    C4 1132   2.807   1.671  14.018
   74MPD2    C5 1133   2.790   1.783  13.943
   74MPD2     H 1134   3.134   1.630  13.964
   74MPD2    H1 1135   2.721   1.624  14.064
   74MPD2    H2 1136   2.884   1.939  13.833
   74MPD2    H3 1137   2.689   1.817  13.923
   74MPD2     N 1138   2.946   1.516  14.115
   74MPD2    H5 1139   2.865   1.477  14.162
   74MPD2    N1 1140   3.125   1.863  13.836
   74MPD2    H7 1141   3.102   1.951  13.791
   75TCq2    C1 1142   3.385   2.712  14.474
   75TCq2    O2 1143   3.414   2.736  14.591
   75TCq2    C2 1144   3.245   2.738  14.436
   75TCq2    C3 1145   3.162   2.783  14.534
   75TCq2    C4 1146   3.069   2.869  14.501
   75TCq2    C5 1147   3.051   2.914  14.373
   75TCq2    C6 1148   3.127   2.860  14.273
   75TCq2    C7 1149   3.225   2.769  14.300
   75TCq2    C8 1150   3.098   2.900  14.138
   75TCq2    O4 1151   3.129   2.817  14.048
   75TCq2    C9 1152   3.005   2.938  14.601
   75TCq2    O5 1153   2.956   3.049  14.583
   75TCq2    O6 1154   2.962   2.837  14.687
   75TCq2    H2 1155   3.179   2.752  14.636
   75TCq2    H3 1156   2.968   2.980  14.352
   75TCq2    H4 1157   3.298   2.743  14.225
   76MPD2     C 1158   2.456   3.830  12.264
   76MPD2    C1 1159   2.336   3.781  12.215
   76MPD2    C2 1160   2.303   3.650  12.224
   76MPD2    C3 1161   2.392   3.563  12.287
   76MPD2    C4 1162   2.512   3.609  12.335
   76MPD2    C5 1163   2.541   3.743  12.327
   76MPD2     H 1164   2.208   3.612  12.187
   76MPD2    H1 1165   2.585   3.546  12.385
   76MPD2    H2 1166   2.497   3.930  12.261
   76MPD2    H3 1167   2.629   3.784  12.374
   76MPD2     N 1168   2.377   3.420  12.299
   76MPD2    H5 1169   2.456   3.365  12.332
   76MPD2    N1 1170   2.241   3.872  12.162
   76MPD2    H7 1171   2.149   3.833  12.146
   77TCq2    C1 1172   2.267   3.348  12.276
   77TCq2    O2 1173   2.161   3.391  12.226
   77TCq2    C2 1174   2.281   3.203  12.293
   77TCq2    C3 1175   2.181   3.128  12.235
   77TCq2    C4 1176   2.209   3.000  12.213
   77TCq2    C5 1177   2.319   2.932  12.242
   77TCq2    C6 1178   2.414   3.011  12.296
   77TCq2    C7 1179   2.400   3.143  12.322
   77TCq2    C8 1180   2.528   2.937  12.347
   77TCq2    O4 1181   2.557   2.830  12.299
   77TCq2    C9 1182   2.099   2.913  12.171
   77TCq2    O5 1183   2.093   2.792  12.189
   77TCq2    O6 1184   2.015   2.993  12.105
   77TCq2    H2 1185   2.088   3.177  12.208
   77TCq2    H3 1186   2.337   2.827  12.223
   77TCq2    H4 1187   2.481   3.197  12.371
   78MPD1     C 1188   3.246   3.805  19.839
   78MPD1    C1 1189   3.248   3.778  19.703
   78MPD1    C2 1190   3.344   3.829  19.622
   78MPD1    C3 1191   3.450   3.886  19.683
   78MPD1    C4 1192   3.455   3.906  19.826
   78MPD1    C5 1193   3.352   3.870  19.905
   78MPD1     H 1194   3.351   3.821  19.514
   78MPD1    H1 1195   3.545   3.952  19.864
   78MPD1    H2 1196   3.165   3.762  19.897
   78MPD1    H3 1197   3.343   3.890  20.011
   78MPD1     N 1198   3.570   3.931  19.616
   78MPD1    H5 1199   3.647   3.970  19.669
   78MPD1    N1 1200   3.135   3.724  19.650
   78MPD1    H6 1201   3.142   3.679  19.559
   78MPD1    H7 1202   3.104   3.648  19.711
   79TCq2    C1 1203   3.588   3.942  19.475
   79TCq2    O2 1204   3.515   3.917  19.383
   79TCq2    C2 1205   3.734   3.961  19.455
   79TCq2    C3 1206   3.810   3.907  19.558
   79TCq2    C4 1207   3.942   3.932  19.551
   79TCq2    C5 1208   4.006   3.991  19.440
   79TCq2    C6 1209   3.927   4.020  19.329
   79TCq2    C7 1210   3.789   4.011  19.336
   79TCq2    C8 1211   3.986   4.107  19.228
   79TCq2    O4 1212   3.913   4.173  19.154
   79TCq2    C9 1213   4.025   3.853  19.648
   79TCq2    O5 1214   3.983   3.763  19.715
   79TCq2    O6 1215   4.127   3.932  19.682
   79TCq2    H2 1216   3.787   3.845  19.644
   79TCq2    H3 1217   4.112   4.015  19.439
   79TCq2    H4 1218   3.728   4.025  19.248
   80MPD2     C 1219   1.796   2.953  12.634
   80MPD2    C1 1220   1.664   2.995  12.638
   80MPD2    C2 1221   1.619   3.061  12.744
   80MPD2    C3 1222   1.697   3.070  12.855
   80MPD2    C4 1223   1.821   3.015  12.862
   80MPD2    C5 1224   1.874   2.961  12.748
   80MPD2     H 1225   1.518   3.100  12.750
   80MPD2    H1 1226   1.880   3.021  12.953
   80MPD2    H2 1227   1.841   2.904  12.549
   80MPD2    H3 1228   1.975   2.923  12.748
   80MPD2     N 1229   1.658   3.125  12.974
   80MPD2    H5 1230   1.727   3.128  13.048
   80MPD2    N1 1231   1.578   2.978  12.530
   80MPD2    H7 1232   1.483   2.982  12.565
   81TCq2    C1 1233   1.620   2.976  12.398
   81TCq2    O2 1234   1.731   2.980  12.347
   81TCq2    C2 1235   1.504   2.990  12.308
   81TCq2    C3 1236   1.523   3.090  12.215
   81TCq2    C4 1237   1.404   3.139  12.156
   81TCq2    C5 1238   1.278   3.095  12.199
   81TCq2    C6 1239   1.273   2.996  12.291
   81TCq2    C7 1240   1.387   2.945  12.350
   81TCq2    C8 1241   1.143   2.931  12.315
   81TCq2    O4 1242   1.064   2.943  12.224
   81TCq2    C9 1243   1.397   3.262  12.087
   81TCq2    O5 1244   1.336   3.359  12.124
   81TCq2    O6 1245   1.474   3.253  11.975
   81TCq2    H2 1246   1.611   3.152  12.203
   81TCq2    H3 1247   1.193   3.155  12.171
   81TCq2    H4 1248   1.376   2.867  12.425
   82MPD2     C 1249   3.779   3.090  11.353
   82MPD2    C1 1250   3.804   3.004  11.251
   82MPD2    C2 1251   3.923   2.931  11.249
   82MPD2    C3 1252   4.000   2.919  11.367
   82MPD2    C4 1253   3.972   2.998  11.476
   82MPD2    C5 1254   3.857   3.083  11.471
   82MPD2     H 1255   3.954   2.874  11.161
   82MPD2    H1 1256   4.037   2.996  11.562
   82MPD2    H2 1257   3.696   3.159  11.349
   82MPD2    H3 1258   3.832   3.148  11.554
   82MPD2     N 1259   4.106   2.828  11.375
   82MPD2    H5 1260   4.164   2.840  11.457
   82MPD2    N1 1261   3.715   2.997  11.149
   82MPD2    H7 1262   3.636   3.061  11.148
   83TCq2    C1 1263   4.115   2.711  11.305
   83TCq2    O2 1264   4.030   2.650  11.241
   83TCq2    C2 1265   4.208   2.629  11.381
   83TCq2    C3 1266   4.294   2.706  11.451
   83TCq2    C4 1267   4.373   2.631  11.541
   83TCq2    C5 1268   4.341   2.509  11.577
   83TCq2    C6 1269   4.254   2.445  11.503
   83TCq2    C7 1270   4.182   2.502  11.406
   83TCq2    C8 1271   4.215   2.308  11.555
   83TCq2    O4 1272   4.243   2.286  11.672
   83TCq2    C9 1273   4.511   2.666  11.574
   83TCq2    O5 1274   4.601   2.580  11.587
   83TCq2    O6 1275   4.538   2.796  11.582
   83TCq2    H2 1276   4.342   2.786  11.396
   83TCq2    H3 1277   4.404   2.460  11.651
   83TCq2    H4 1278   4.112   2.445  11.346
   84TCq2    C1 1279   0.727   1.682  11.332
   84TCq2    O2 1280   0.700   1.627  11.225
   84TCq2    C2 1281   0.670   1.620  11.449
   84TCq2    C3 1282   0.736   1.605  11.569
   84TCq2    C4 1283   0.667   1.537  11.662
   84TCq2    C5 1284   0.536   1.507  11.658
   84TCq2    C6 1285   0.474   1.524  11.540
   84TCq2    C7 1286   0.538   1.574  11.431
   84TCq2    C8 1287   0.339   1.577  11.553
   84TCq2    O4 1288   0.305   1.609  11.663
   84TCq2    C9 1289   0.729   1.549  11.789
   84TCq2    O5 1290   0.734   1.465  11.875
   84TCq2    O6 1291   0.760   1.681  11.801
   84TCq2    H2 1292   0.838   1.640  11.580
   84TCq2    H3 1293   0.483   1.448  11.731
   84TCq2    H4 1294   0.479   1.612  11.347
   85MPD2     C 1295   1.141   4.217  16.434
   85MPD2    C1 1296   1.035   4.227  16.353
   85MPD2    C2 1297   1.031   4.325  16.261
   85MPD2    C3 1298   1.138   4.416  16.235
   85MPD2    C4 1299   1.239   4.412  16.328
   85MPD2    C5 1300   1.244   4.313  16.423
   85MPD2     H 1301   0.945   4.328  16.196
   85MPD2    H1 1302   1.310   4.493  16.316
   85MPD2    H2 1303   1.160   4.148  16.516
   85MPD2    H3 1304   1.332   4.308  16.487
   85MPD2     N 1305   1.131   4.513  16.127
   85MPD2    H5 1306   1.045   4.512  16.074
   85MPD2    N1 1307   0.928   4.131  16.359
   85MPD2    H7 1308   0.859   4.140  16.285
   86TCq2    C1 1309   1.239   4.600  16.088
   86TCq2    O2 1310   1.357   4.574  16.096
   86TCq2    C2 1311   1.209   4.705  15.990
   86TCq2    C3 1312   1.073   4.741  15.983
   86TCq2    C4 1313   1.041   0.028  15.890
   86TCq2    C5 1314   1.135   0.084  15.809
   86TCq2    C6 1315   1.261   0.033  15.816
   86TCq2    C7 1316   1.303   4.742  15.900
   86TCq2    C8 1317   1.360   0.085  15.731
   86TCq2    O4 1318   1.463   0.025  15.729
   86TCq2    C9 1319   0.922   0.104  15.919
   86TCq2    O5 1320   0.903   0.215  15.878
   86TCq2    O6 1321   0.833   0.005  15.932
   86TCq2    H2 1322   1.002   4.720  16.062
   86TCq2    H3 1323   1.101   0.151  15.730
   86TCq2    H4 1324   1.405   4.716  15.925
   87MPD2     C 1325   2.944   2.756  18.933
   87MPD2    C1 1326   3.052   2.838  18.940
   87MPD2    C2 1327   3.037   2.971  18.918
   87MPD2    C3 1328   2.916   3.030  18.891
   87MPD2    C4 1329   2.804   2.954  18.888
   87MPD2    C5 1330   2.822   2.817  18.904
   87MPD2     H 1331   3.127   3.029  18.904
   87MPD2    H1 1332   2.708   2.994  18.861
   87MPD2    H2 1333   2.959   2.648  18.936
   87MPD2    H3 1334   2.737   2.750  18.896
   87MPD2     N 1335   2.900   3.168  18.878
   87MPD2    H5 1336   2.808   3.206  18.860
   87MPD2    N1 1337   3.180   2.775  18.938
   87MPD2    H7 1338   3.184   2.677  18.914
   88TCq2    C1 1339   3.284   2.844  18.982
   88TCq2    O2 1340   3.286   2.945  19.055
   88TCq2    C2 1341   3.407   2.765  18.988
   88TCq2    C3 1342   3.483   2.781  19.100
   88TCq2    C4 1343   3.574   2.684  19.124
   88TCq2    C5 1344   3.592   2.585  19.030
   88TCq2    C6 1345   3.510   2.570  18.918
   88TCq2    C7 1346   3.420   2.669  18.886
   88TCq2    C8 1347   3.569   2.492  18.810
   88TCq2    O4 1348   3.576   2.538  18.697
   88TCq2    C9 1349   3.706   2.730  19.167
   88TCq2    O5 1350   3.807   2.710  19.100
   88TCq2    O6 1351   3.679   2.843  19.245
   88TCq2    H2 1352   3.466   2.866  19.166
   88TCq2    H3 1353   3.675   2.517  19.048
   88TCq2    H4 1354   3.358   2.660  18.797
   89MPD2     C 1355   4.188   0.808  19.424
   89MPD2    C1 1356   4.133   0.891  19.325
   89MPD2    C2 1357   4.204   1.007  19.286
   89MPD2    C3 1358   4.329   1.039  19.346
   89MPD2    C4 1359   4.373   0.950  19.441
   89MPD2    C5 1360   4.305   0.838  19.484
   89MPD2     H 1361   4.147   1.075  19.225
   89MPD2    H1 1362   4.468   0.962  19.492
   89MPD2    H2 1363   4.137   0.716  19.451
   89MPD2    H3 1364   4.358   0.780  19.558
   89MPD2     N 1365   4.408   1.150  19.294
   89MPD2    H5 1366   4.376   1.202  19.213
   89MPD2    N1 1367   4.007   0.852  19.266
   89MPD2    H7 1368   3.978   0.911  19.189
   90TCq2    C1 1369   4.537   1.186  19.335
   90TCq2    O2 1370   4.617   1.122  19.400
   90TCq2    C2 1371   4.604   1.309  19.283
   90TCq2    C3 1372   4.522   1.414  19.239
   90TCq2    C4 1373   4.580   1.529  19.209
   90TCq2    C5 1374   4.715   1.548  19.208
   90TCq2    C6 1375   4.795   1.444  19.237
   90TCq2    C7 1376   4.741   1.331  19.292
   90TCq2    C8 1377   0.138   1.476  19.256
   90TCq2    O4 1378   0.198   1.422  19.349
   90TCq2    C9 1379   4.489   1.641  19.167
   90TCq2    O5 1380   4.388   1.666  19.227
   90TCq2    O6 1381   4.524   1.670  19.042
   90TCq2    H2 1382   4.415   1.401  19.242
   90TCq2    H3 1383   4.755   1.645  19.179
   90TCq2    H4 1384   0.004   1.250  19.318
   91TMC2    C1 1385   1.022   0.648  16.542
   91TMC2    C2 1386   1.068   0.705  16.652
   91TMC2    C3 1387   0.977   0.708  16.761
   91TMC2    C4 1388   0.893   0.600  16.531
   91TMC2    C5 1389   0.823   0.590  16.650
   91TMC2    C6 1390   0.859   0.640  16.773
   91TMC2     C 1391   1.108   0.631  16.423
   91TMC2     O 1392   1.058   0.580  16.324
   91TMC2     H 1393   1.171   0.734  16.673
   91TMC2    H1 1394   0.856   0.561  16.437
   91TMC2    H2 1395   0.792   0.644  16.858
   91TMC2    C7 1396   0.707   0.500  16.652
   91TMC2    C8 1397   1.008   0.794  16.879
   91TMC2    O1 1398   0.670   0.462  16.762
   91TMC2    O2 1399   0.947   0.797  16.986
   91TMC2    O5 1400   1.078   0.894  16.823
   91TMC2    H5 1401   1.115   0.867  16.736
   92MPD2     C 1402   1.317   0.601  16.218
   92MPD2    C1 1403   1.338   0.649  16.348
   92MPD2    C2 1404   1.464   0.685  16.384
   92MPD2    C3 1405   1.569   0.655  16.297
   92MPD2    C4 1406   1.539   0.613  16.174
   92MPD2    C5 1407   1.417   0.586  16.128
   92MPD2     H 1408   1.481   0.730  16.482
   92MPD2    H1 1409   1.618   0.597  16.102
   92MPD2    H2 1410   1.224   0.559  16.183
   92MPD2    H3 1411   1.397   0.546  16.029
   92MPD2     N 1412   1.700   0.696  16.337
   92MPD2    H5 1413   1.706   0.762  16.413
   92MPD2    N1 1414   1.234   0.666  16.443
   92MPD2    H7 1415   1.256   0.721  16.526
   93MPD2     C 1416   2.945   0.804  13.842
   93MPD2    C1 1417   2.918   0.809  13.974
   93MPD2    C2 1418   2.783   0.781  14.021
   93MPD2    C3 1419   2.679   0.746  13.932
   93MPD2    C4 1420   2.716   0.745  13.800
   93MPD2    C5 1421   2.844   0.764  13.754
   93MPD2     H 1422   2.752   0.793  14.125
   93MPD2    H1 1423   2.644   0.718  13.723
   93MPD2    H2 1424   3.034   0.832  13.788
   93MPD2    H3 1425   2.865   0.759  13.648
   93MPD2     N 1426   2.545   0.726  13.958
   93MPD2    H5 1427   2.487   0.679  13.889
   93MPD2    N1 1428   3.020   0.838  14.064
   93MPD2    H7 1429   2.983   0.851  14.158
   94TCq2    C1 1430   3.151   0.876  14.028
   94TCq2    O2 1431   3.211   0.867  13.922
   94TCq2    C2 1432   3.235   0.939  14.128
   94TCq2    C3 1433   3.222   0.901  14.261
   94TCq2    C4 1434   3.332   0.924  14.340
   94TCq2    C5 1435   3.454   0.973  14.296
   94TCq2    C6 1436   3.458   1.016  14.171
   94TCq2    C7 1437   3.354   0.999  14.089
   94TCq2    C8 1438   3.593   1.030  14.123
   94TCq2    O4 1439   3.678   0.954  14.171
   94TCq2    C9 1440   3.330   0.876  14.475
   94TCq2    O5 1441   3.435   0.867  14.537
   94TCq2    O6 1442   3.221   0.923  14.537
   94TCq2    H2 1443   3.135   0.854  14.305
   94TCq2    H3 1444   3.531   0.989  14.371
   94TCq2    H4 1445   3.370   1.015  13.983
   95TMC2    C1 1446   3.138   2.812  15.884
   95TMC2    C2 1447   3.166   2.933  15.930
   95TMC2    C3 1448   3.088   3.034  15.885
   95TMC2    C4 1449   3.036   2.784  15.795
   95TMC2    C5 1450   2.956   2.887  15.753
   95TMC2    C6 1451   2.974   3.011  15.809
   95TMC2     C 1452   3.251   2.717  15.901
   95TMC2     O 1453   3.358   2.769  15.914
   95TMC2     H 1454   3.244   2.936  16.005
   95TMC2    H1 1455   3.035   2.686  15.749
   95TMC2    H2 1456   2.920   3.099  15.776
   95TMC2    C7 1457   2.865   2.874  15.651
   95TMC2    C8 1458   3.119   3.170  15.919
   95TMC2    O1 1459   2.813   2.977  15.608
   95TMC2    O2 1460   3.027   3.253  15.920
   95TMC2    O5 1461   3.243   3.170  15.981
   95TMC2    H5 1462   3.287   3.086  15.956
   96MPD2     C 1463   3.425   2.253  15.909
   96MPD2    C1 1464   3.494   2.370  15.903
   96MPD2    C2 1465   3.426   2.488  15.917
   96MPD2    C3 1466   3.285   2.483  15.921
   96MPD2    C4 1467   3.223   2.361  15.933
   96MPD2    C5 1468   3.294   2.248  15.937
   96MPD2     H 1469   3.483   2.579  15.904
   96MPD2    H1 1470   3.115   2.366  15.942
   96MPD2    H2 1471   3.471   2.159  15.880
   96MPD2    H3 1472   3.262   2.144  15.940
   96MPD2     N 1473   3.204   2.591  15.911
   96MPD2    H5 1474   3.105   2.572  15.902
   96MPD2    N1 1475   3.631   2.367  15.851
   96MPD2    H7 1476   3.676   2.279  15.829
   97MPD2     C 1477   0.246   4.693  18.865
   97MPD2    C1 1478   0.278   0.020  18.885
   97MPD2    C2 1479   0.277   0.107  18.777
   97MPD2    C3 1480   0.210   0.064  18.660
   97MPD2    C4 1481   0.166   4.743  18.646
   97MPD2    C5 1482   0.183   4.657  18.746
   97MPD2     H 1483   0.315   0.208  18.772
   97MPD2    H1 1484   0.126   4.702  18.554
   97MPD2    H2 1485   0.278   4.612  18.928
   97MPD2    H3 1486   0.163   4.554  18.721
   97MPD2     N 1487   0.193   0.147  18.549
   97MPD2    H5 1488   0.163   0.095  18.468
   97MPD2    N1 1489   0.340   0.044  19.010
   97MPD2    H7 1490   0.334   4.776  19.080
   98TCq2    C1 1491   0.218   0.284  18.541
   98TCq2    O2 1492   0.261   0.367  18.623
   98TCq2    C2 1493   0.191   0.344  18.407
   98TCq2    C3 1494   0.154   0.268  18.295
   98TCq2    C4 1495   0.166   0.327  18.171
   98TCq2    C5 1496   0.204   0.456  18.153
   98TCq2    C6 1497   0.234   0.530  18.267
   98TCq2    C7 1498   0.226   0.476  18.389
   98TCq2    C8 1499   0.307   0.659  18.254
   98TCq2    O4 1500   0.358   0.713  18.350
   98TCq2    C9 1501   0.152   0.260  18.049
   98TCq2    O5 1502   0.087   0.305  17.957
   98TCq2    O6 1503   0.270   0.196  18.044
   98TCq2    H2 1504   0.124   0.163  18.297
   98TCq2    H3 1505   0.197   0.495  18.052
   98TCq2    H4 1506   0.266   0.540  18.466
   99MPD2     C 1507   4.081   2.523  19.794
   99MPD2    C1 1508   3.953   2.485  19.805
   99MPD2    C2 1509   3.908   2.377  19.732
   99MPD2    C3 1510   3.991   2.322  19.636
   99MPD2    C4 1511   4.113   2.370  19.616
   99MPD2    C5 1512   4.159   2.470  19.700
   99MPD2     H 1513   3.811   2.335  19.758
   99MPD2    H1 1514   4.185   2.344  19.539
   99MPD2    H2 1515   4.127   2.612  19.836
   99MPD2    H3 1516   4.254   2.520  19.685
   99MPD2     N 1517   3.944   2.205  19.578
   99MPD2    H5 1518   3.850   2.179  19.607
   99MPD2    N1 1519   3.860   2.559  19.883
   99MPD2    H7 1520   3.766   2.523  19.885
  100TCq2    C1 1521   3.885   2.684  19.938
  100TCq2    O2 1522   3.991   2.739  19.950
  100TCq2    C2 1523   3.766   2.754  19.985
  100TCq2    C3 1524   3.794   2.859  20.064
  100TCq2    C4 1525   3.694   2.947  20.103
  100TCq2    C5 1526   3.571   2.936  20.045
  100TCq2    C6 1527   3.552   2.837  19.955
  100TCq2    C7 1528   3.645   2.738  19.921
  100TCq2    C8 1529   3.422   2.834  19.888
  100TCq2    O4 1530   3.359   2.935  19.887
  100TCq2    C9 1531   3.713   2.983  20.242
  100TCq2    O5 1532   3.813   2.960  20.309
  100TCq2    O6 1533   3.600   3.017  20.302
  100TCq2    H2 1534   3.894   2.874  20.103
  100TCq2    H3 1535   3.487   3.003  20.064
  100TCq2    H4 1536   3.623   2.658  19.851
  101MPD2     C 1537   0.173   3.113  13.087
  101MPD2    C1 1538   0.082   3.192  13.148
  101MPD2    C2 1539   4.800   3.139  13.247
  101MPD2    C3 1540   0.005   3.010  13.290
  101MPD2    C4 1541   0.103   2.930  13.233
  101MPD2    C5 1542   0.186   2.983  13.136
  101MPD2     H 1543   4.736   3.202  13.308
  101MPD2    H1 1544   0.130   2.838  13.283
  101MPD2    H2 1545   0.243   3.142  13.010
  101MPD2    H3 1546   0.269   2.925  13.099
  101MPD2     N 1547   4.731   2.963  13.395
  101MPD2    H5 1548   4.667   3.030  13.436
  101MPD2    N1 1549   0.092   3.334  13.121
  101MPD2    H7 1550   0.165   3.363  13.056
  102TCq2    C1 1551   0.339   3.732  13.040
  102TCq2    O2 1552   0.424   3.653  13.071
  102TCq2    C2 1553   0.212   3.714  13.088
  102TCq2    C3 1554   0.112   3.809  13.077
  102TCq2    C4 1555   4.788   3.780  13.111
  102TCq2    C5 1556   4.755   3.659  13.144
  102TCq2    C6 1557   0.045   3.561  13.138
  102TCq2    C7 1558   0.174   3.587  13.111
  102TCq2    C8 1559   0.002   3.427  13.164
  102TCq2    O4 1560   4.698   3.407  13.223
  102TCq2    C9 1561   4.685   3.865  13.072
  102TCq2    O5 1562   4.574   3.861  13.128
  102TCq2    O6 1563   4.711   3.917  12.952
  102TCq2    H2 1564   0.135   3.913  13.057
  102TCq2    H3 1565   4.656   3.632  13.181
  102TCq2    H4 1566   0.249   3.513  13.086
  103TMC2    C1 1567   2.963   3.357  12.883
  103TMC2    C2 1568   3.093   3.386  12.846
  103TMC2    C3 1569   3.147   3.492  12.913
  103TMC2    C4 1570   2.886   3.430  12.963
  103TMC2    C5 1571   2.942   3.536  13.021
  103TMC2    C6 1572   3.074   3.570  12.999
  103TMC2     C 1573   2.893   3.279  12.782
  103TMC2     O 1574   2.784   3.326  12.757
  103TMC2     H 1575   3.149   3.333  12.770
  103TMC2    H1 1576   2.783   3.403  12.986
  103TMC2    H2 1577   3.125   3.643  13.062
  103TMC2    C7 1578   2.866   3.607  13.124
  103TMC2    C8 1579   3.288   3.517  12.889
  103TMC2    O1 1580   2.768   3.546  13.168
  103TMC2    O2 1581   3.365   3.427  12.853
  103TMC2    O5 1582   3.307   3.650  12.916
  103TMC2    H5 1583   3.232   3.713  12.910
  104MPD2     C 1584   2.949   2.933  12.656
  104MPD2    C1 1585   2.888   3.059  12.663
  104MPD2    C2 1586   2.763   3.075  12.605
  104MPD2    C3 1587   2.708   2.977  12.518
  104MPD2    C4 1588   2.770   2.857  12.509
  104MPD2    C5 1589   2.889   2.836  12.580
  104MPD2     H 1590   2.714   3.172  12.603
  104MPD2    H1 1591   2.725   2.777  12.452
  104MPD2    H2 1592   3.046   2.913  12.701
  104MPD2    H3 1593   2.944   2.742  12.582
  104MPD2     N 1594   2.594   3.012  12.435
  104MPD2    H5 1595   2.552   3.101  12.461
  104MPD2    N1 1596   2.958   3.163  12.733
  104MPD2    H7 1597   3.046   3.142  12.779
  105MPD2     C 1598   4.762   2.521  17.905
  105MPD2    C1 1599   4.664   2.614  17.877
  105MPD2    C2 1600   4.536   2.597  17.924
  105MPD2    C3 1601   4.505   2.483  17.995
  105MPD2    C4 1602   4.610   2.401  18.029
  105MPD2    C5 1603   4.739   2.419  17.990
  105MPD2     H 1604   4.455   2.666  17.903
  105MPD2    H1 1605   4.593   2.307  18.080
  105MPD2    H2 1606   0.056   2.528  17.861
  105MPD2    H3 1607   0.002   2.337  18.011
  105MPD2     N 1608   4.371   2.471  18.032
  105MPD2    H5 1609   4.316   2.556  18.021
  105MPD2    N1 1610   4.669   2.716  17.779
  105MPD2    H7 1611   4.586   2.770  17.760
  106TCq2    C1 1612   4.328   2.365  18.109
  106TCq2    O2 1613   4.382   2.258  18.132
  106TCq2    C2 1614   4.186   2.379  18.137
  106TCq2    C3 1615   4.104   2.481  18.083
  106TCq2    C4 1616   3.975   2.477  18.117
  106TCq2    C5 1617   3.930   2.392  18.210
  106TCq2    C6 1618   4.012   2.299  18.265
  106TCq2    C7 1619   4.140   2.283  18.220
  106TCq2    C8 1620   3.976   2.217  18.380
  106TCq2    O4 1621   4.035   2.111  18.398
  106TCq2    C9 1622   3.890   2.593  18.088
  106TCq2    O5 1623   3.798   2.625  18.162
  106TCq2    O6 1624   3.931   2.652  17.974
  106TCq2    H2 1625   4.139   2.554  18.010
  106TCq2    H3 1626   3.826   2.405  18.237
  106TCq2    H4 1627   4.205   2.214  18.273
  107TMC2    C1 1628   0.021   2.295  11.671
  107TMC2    C2 1629   0.028   2.406  11.583
  107TMC2    C3 1630   4.786   2.387  11.455
  107TMC2    C4 1631   4.756   2.188  11.635
  107TMC2    C5 1632   4.715   2.173  11.507
  107TMC2    C6 1633   4.710   2.280  11.423
  107TMC2     C 1634   0.026   2.347  11.810
  107TMC2     O 1635   0.050   2.265  11.899
  107TMC2     H 1636   0.092   2.492  11.600
  107TMC2    H1 1637   4.742   2.109  11.708
  107TMC2    H2 1638   4.692   2.257  11.318
  107TMC2    C7 1639   4.700   2.045  11.442
  107TMC2    C8 1640   0.039   2.468  11.357
  107TMC2    O1 1641   4.611   2.028  11.358
  107TMC2    O2 1642   0.150   2.519  11.370
  107TMC2    O5 1643   4.728   2.540  11.313
  107TMC2    H5 1644   4.652   2.481  11.296
  108MPD2     C 1645   4.674   2.671  11.901
  108MPD2    C1 1646   4.730   2.545  11.927
  108MPD2    C2 1647   4.721   2.498  12.059
  108MPD2    C3 1648   4.675   2.583  12.165
  108MPD2    C4 1649   4.628   2.710  12.136
  108MPD2    C5 1650   4.622   2.748  12.006
  108MPD2     H 1651   4.746   2.395  12.082
  108MPD2    H1 1652   4.581   2.776  12.208
  108MPD2    H2 1653   4.690   2.709  11.801
  108MPD2    H3 1654   4.573   2.843  11.986
  108MPD2     N 1655   4.658   2.541  12.300
  108MPD2    H5 1656   4.632   2.614  12.365
  108MPD2    N1 1657   4.773   2.467  11.811
  108MPD2    H7 1658   4.758   2.508  11.720
  109MPD2     C 1659   4.031   0.159  19.337
  109MPD2    C1 1660   4.056   0.069  19.436
  109MPD2    C2 1661   4.184   0.052  19.483
  109MPD2    C3 1662   4.287   0.082  19.394
  109MPD2    C4 1663   4.260   0.157  19.278
  109MPD2    C5 1664   4.132   0.208  19.258
  109MPD2     H 1665   4.209   4.791  19.566
  109MPD2    H1 1666   4.339   0.193  19.213
  109MPD2    H2 1667   3.929   0.166  19.301
  109MPD2    H3 1668   4.110   0.258  19.165
  109MPD2     N 1669   4.405   0.009  19.424
  109MPD2    H5 1670   4.405   4.770  19.515
  109MPD2    N1 1671   3.948   4.795  19.472
  109MPD2    H7 1672   3.853   0.023  19.460
  110TCq2    C1 1673   4.513   4.797  19.341
  110TCq2    O2 1674   4.517   0.030  19.222
  110TCq2    C2 1675   4.613   4.695  19.378
  110TCq2    C3 1676   4.729   4.674  19.303
  110TCq2    C4 1677   0.027   4.611  19.357
  110TCq2    C5 1678   0.015   4.555  19.481
  110TCq2    C6 1679   4.710   4.581  19.560
  110TCq2    C7 1680   4.601   4.646  19.508
  110TCq2    C8 1681   4.728   4.575  19.705
  110TCq2    O4 1682   4.764   4.474  19.760
  110TCq2    C9 1683   0.157   4.582  19.286
  110TCq2    O5 1684   0.263   4.534  19.337
  110TCq2    O6 1685   0.153   4.652  19.167
  110TCq2    H2 1686   4.724   4.702  19.198
  110TCq2    H3 1687   0.103   4.525  19.535
  110TCq2    H4 1688   4.515   4.672  19.568
  111TMC2    C1 1689   0.031   4.027  12.029
  111TMC2    C2 1690   4.799   4.083  12.153
  111TMC2    C3 1691   0.069   4.045  12.266
  111TMC2    C4 1692   0.153   3.955  12.006
  111TMC2    C5 1693   0.214   3.923  12.121
  111TMC2    C6 1694   0.173   3.957  12.249
  111TMC2     C 1695   4.744   4.046  11.911
  111TMC2     O 1696   4.781   4.027  11.797
  111TMC2     H 1697   4.714   4.147  12.173
  111TMC2    H1 1698   0.186   3.905  11.916
  111TMC2    H2 1699   0.214   3.912  12.339
  111TMC2    C7 1700   0.317   3.825  12.123
  111TMC2    C8 1701   4.801   4.044  12.391
  111TMC2    O1 1702   0.327   3.757  12.226
  111TMC2    O2 1703   4.680   4.070  12.406
  111TMC2    O5 1704   0.089   4.054  12.487
  111TMC2    H5 1705   0.183   4.066  12.462
  112MPD2     C 1706   4.258   4.054  11.733
  112MPD2    C1 1707   4.378   4.067  11.664
  112MPD2    C2 1708   4.497   4.076  11.735
  112MPD2    C3 1709   4.501   4.081  11.875
  112MPD2    C4 1710   4.377   4.076  11.941
  112MPD2    C5 1711   4.259   4.062  11.869
  112MPD2     H 1712   4.586   4.094  11.676
  112MPD2    H1 1713   4.364   4.067  12.048
  112MPD2    H2 1714   4.165   4.030  11.683
  112MPD2    H3 1715   4.169   4.057  11.929
  112MPD2     N 1716   4.614   4.068  11.954
  112MPD2    H5 1717   4.607   4.090  12.052
  112MPD2    N1 1718   4.378   4.065  11.518
  112MPD2    H7 1719   4.469   4.085  11.478
  113MPD2     C 1720   3.027   1.821  19.129
  113MPD2    C1 1721   3.007   1.913  19.031
  113MPD2    C2 1722   2.954   1.875  18.911
  113MPD2    C3 1723   2.921   1.744  18.896
  113MPD2    C4 1724   2.930   1.655  19.002
  113MPD2    C5 1725   2.989   1.694  19.118
  113MPD2     H 1726   2.934   1.943  18.829
  113MPD2    H1 1727   2.892   1.554  18.995
  113MPD2    H2 1728   3.062   1.839  19.229
  113MPD2    H3 1729   2.997   1.632  19.207
  113MPD2     N 1730   2.871   1.688  18.779
  113MPD2    H5 1731   2.838   1.592  18.785
  113MPD2    N1 1732   3.025   2.046  19.063
  113MPD2    H7 1733   2.980   2.112  19.001
  114TCq2    C1 1734   2.845   1.747  18.661
  114TCq2    O2 1735   2.883   1.858  18.625
  114TCq2    C2 1736   2.783   1.647  18.573
  114TCq2    C3 1737   2.739   1.699  18.450
  114TCq2    C4 1738   2.682   1.610  18.363
  114TCq2    C5 1739   2.656   1.474  18.395
  114TCq2    C6 1740   2.705   1.429  18.517
  114TCq2    C7 1741   2.762   1.515  18.608
  114TCq2    C8 1742   2.676   1.288  18.548
  114TCq2    O4 1743   2.665   1.206  18.459
  114TCq2    C9 1744   2.673   1.640  18.216
  114TCq2    O5 1745   2.662   1.553  18.133
  114TCq2    O6 1746   2.682   1.767  18.181
  114TCq2    H2 1747   2.771   1.796  18.413
  114TCq2    H3 1748   2.618   1.400  18.326
  114TCq2    H4 1749   2.814   1.473  18.693
  115TMC2    C1 1750   3.662   4.486  17.841
  115TMC2    C2 1751   3.791   4.447  17.873
  115TMC2    C3 1752   3.891   4.540  17.865
  115TMC2    C4 1753   3.626   4.609  17.801
  115TMC2    C5 1754   3.730   4.697  17.790
  115TMC2    C6 1755   3.858   4.665  17.826
  115TMC2     C 1756   3.581   4.395  17.772
  115TMC2     O 1757   3.624   4.334  17.679
  115TMC2     H 1758   3.811   4.343  17.895
  115TMC2    H1 1759   3.527   4.628  17.763
  115TMC2    H2 1760   3.937   4.740  17.836
  115TMC2    C7 1761   3.688   0.028  17.791
  115TMC2    C8 1762   4.020   4.506  17.924
  115TMC2    O1 1763   3.565   0.038  17.797
  115TMC2    O2 1764   4.088   4.577  18.003
  115TMC2    O5 1765   4.047   4.381  17.879
  115TMC2    H5 1766   4.005   4.358  17.793
  116MPD2     C 1767   3.108   4.212  17.649
  116MPD2    C1 1768   3.238   4.171  17.611
  116MPD2    C2 1769   3.352   4.221  17.671
  116MPD2    C3 1770   3.337   4.324  17.762
  116MPD2    C4 1771   3.208   4.367  17.801
  116MPD2    C5 1772   3.101   4.309  17.745
  116MPD2     H 1773   3.450   4.184  17.644
  116MPD2    H1 1774   3.190   4.450  17.868
  116MPD2    H2 1775   3.026   4.178  17.586
  116MPD2    H3 1776   3.002   4.352  17.758
  116MPD2     N 1777   3.447   4.390  17.816
  116MPD2    H5 1778   3.420   4.445  17.897
  116MPD2    N1 1779   3.234   4.059  17.524
  116MPD2    H7 1780   3.143   4.040  17.482
  117TMC2    C1 1781   2.528   1.045  14.413
  117TMC2    C2 1782   2.643   0.970  14.404
  117TMC2    C3 1783   2.759   1.042  14.411
  117TMC2    C4 1784   2.522   1.177  14.454
  117TMC2    C5 1785   2.645   1.240  14.460
  117TMC2    C6 1786   2.766   1.175  14.440
  117TMC2     C 1787   2.406   0.975  14.420
  117TMC2     O 1788   2.392   0.893  14.512
  117TMC2     H 1789   2.653   0.862  14.398
  117TMC2    H1 1790   2.424   1.223  14.465
  117TMC2    H2 1791   2.850   1.241  14.422
  117TMC2    C7 1792   2.642   1.386  14.457
  117TMC2    C8 1793   2.881   0.968  14.390
  117TMC2    O1 1794   2.751   1.442  14.484
  117TMC2    O2 1795   2.873   0.872  14.314
  117TMC2    O5 1796   2.993   1.035  14.421
  117TMC2    H5 1797   2.987   1.109  14.486
  118MPD2     C 1798   2.389   1.594  14.291
  118MPD2    C1 1799   2.514   1.561  14.346
  118MPD2    C2 1800   2.612   1.663  14.349
  118MPD2    C3 1801   2.580   1.791  14.311
  118MPD2    C4 1802   2.449   1.819  14.280
  118MPD2    C5 1803   2.354   1.720  14.268
  118MPD2     H 1804   2.711   1.634  14.383
  118MPD2    H1 1805   2.425   1.924  14.269
  118MPD2    H2 1806   2.307   1.523  14.295
  118MPD2    H3 1807   2.251   1.739  14.240
  118MPD2     N 1808   2.674   1.898  14.309
  118MPD2    H5 1809   2.642   1.988  14.275
  118MPD2    N1 1810   2.532   1.428  14.386
  118MPD2    H7 1811   2.456   1.365  14.363
  119MPD2     C 1812   1.139   2.981  14.151
  119MPD2    C1 1813   1.003   2.949  14.149
  119MPD2    C2 1814   0.962   2.847  14.060
  119MPD2    C3 1815   1.051   2.783  13.973
  119MPD2    C4 1816   1.187   2.820  13.978
  119MPD2    C5 1817   1.225   2.916  14.068
  119MPD2     H 1818   0.855   2.835  14.041
  119MPD2    H1 1819   1.262   2.775  13.914
  119MPD2    H2 1820   1.184   3.066  14.203
  119MPD2    H3 1821   1.326   2.955  14.067
  119MPD2     N 1822   1.017   2.669  13.895
  119MPD2    H5 1823   1.085   2.634  13.828
  119MPD2    N1 1824   0.925   3.027  14.244
  119MPD2    H7 1825   0.968   3.114  14.272
  120TCq2    C1 1826   0.894   2.602  13.892
  120TCq2    O2 1827   0.790   2.637  13.949
  120TCq2    C2 1828   0.888   2.494  13.797
  120TCq2    C3 1829   0.996   2.454  13.722
  120TCq2    C4 1830   0.976   2.362  13.622
  120TCq2    C5 1831   0.858   2.293  13.605
  120TCq2    C6 1832   0.754   2.324  13.692
  120TCq2    C7 1833   0.765   2.432  13.781
  120TCq2    C8 1834   0.626   2.305  13.634
  120TCq2    O4 1835   0.624   2.288  13.509
  120TCq2    C9 1836   1.093   2.334  13.538
  120TCq2    O5 1837   1.170   2.419  13.490
  120TCq2    O6 1838   1.112   2.206  13.558
  120TCq2    H2 1839   1.100   2.482  13.732
  120TCq2    H3 1840   0.853   2.224  13.521
  120TCq2    H4 1841   0.677   2.465  13.835
  121TMC2    C1 1842   2.047   4.380  14.452
  121TMC2    C2 1843   2.048   4.255  14.499
  121TMC2    C3 1844   1.925   4.200  14.526
  121TMC2    C4 1845   1.936   4.456  14.434
  121TMC2    C5 1846   1.816   4.399  14.484
  121TMC2    C6 1847   1.808   4.264  14.517
  121TMC2     C 1848   2.180   4.426  14.416
  121TMC2     O 1849   2.269   4.364  14.471
  121TMC2     H 1850   2.135   4.192  14.515
  121TMC2    H1 1851   1.936   4.554  14.389
  121TMC2    H2 1852   1.711   4.224  14.545
  121TMC2    C7 1853   1.707   4.462  14.417
  121TMC2    C8 1854   1.935   4.055  14.565
  121TMC2    O1 1855   1.709   4.582  14.383
  121TMC2    O2 1856   2.036   3.995  14.599
  121TMC2    O5 1857   1.815   4.000  14.552
  121TMC2    H5 1858   1.744   4.046  14.502
  122MPD2     C 1859   2.425   4.568  14.329
  122MPD2    C1 1860   2.304   4.599  14.278
  122MPD2    C2 1861   2.286   4.710  14.192
  122MPD2    C3 1862   2.393   4.781  14.149
  122MPD2    C4 1863   2.506   4.762  14.215
  122MPD2    C5 1864   2.521   4.660  14.301
  122MPD2     H 1865   2.187   4.728  14.153
  122MPD2    H1 1866   2.598   0.008  14.189
  122MPD2    H2 1867   2.431   4.502  14.415
  122MPD2    H3 1868   2.613   4.644  14.355
  122MPD2     N 1869   2.398   0.068  14.041
  122MPD2    H5 1870   2.482   0.118  14.014
  122MPD2    N1 1871   2.186   4.526  14.320
  122MPD2    H7 1872   2.101   4.556  14.273
  123MPD2     C 1873   0.531   2.733  10.688
  123MPD2    C1 1874   0.508   2.680  10.560
  123MPD2    C2 1875   0.561   2.748  10.451
  123MPD2    C3 1876   0.627   2.868  10.465
  123MPD2    C4 1877   0.656   2.919  10.592
  123MPD2    C5 1878   0.609   2.846  10.701
  123MPD2     H 1879   0.534   2.711  10.353
  123MPD2    H1 1880   0.694   3.019  10.609
  123MPD2    H2 1881   0.483   2.698  10.778
  123MPD2    H3 1882   0.606   2.896  10.798
  123MPD2     N 1883   0.661   2.930  10.335
  123MPD2    H5 1884   0.644   2.881  10.248
  123MPD2    N1 1885   0.425   2.564  10.547
  123MPD2    H7 1886   0.383   2.537  10.635
  124TCq2    C1 1887   0.740   3.046  10.337
  124TCq2    O2 1888   0.819   3.097  10.418
  124TCq2    C2 1889   0.764   3.081  10.198
  124TCq2    C3 1890   0.889   3.127  10.167
  124TCq2    C4 1891   0.918   3.142  10.036
  124TCq2    C5 1892   0.836   3.109   9.928
  124TCq2    C6 1893   0.706   3.084   9.962
  124TCq2    C7 1894   0.672   3.060  10.094
  124TCq2    C8 1895   0.609   3.080   9.855
  124TCq2    O4 1896   0.625   3.176   9.780
  124TCq2    C9 1897   1.044   3.203  10.005
  124TCq2    O5 1898   1.081   3.219   9.889
  124TCq2    O6 1899   1.053   3.301  10.094
  124TCq2    H2 1900   0.964   3.130  10.246
  124TCq2    H3 1901   0.875   3.121   9.828
  124TCq2    H4 1902   0.568   3.050  10.125
  125TMC2    C1 1903   0.529   4.391   9.474
  125TMC2    C2 1904   0.621   4.288   9.462
  125TMC2    C3 1905   0.753   4.322   9.466
  125TMC2    C4 1906   0.564   4.517   9.497
  125TMC2    C5 1907   0.696   4.548   9.498
  125TMC2    C6 1908   0.787   4.452   9.497
  125TMC2     C 1909   0.396   4.367   9.514
  125TMC2     O 1910   0.341   4.445   9.589
  125TMC2     H 1911   0.587   4.186   9.452
  125TMC2    H1 1912   0.492   4.599   9.497
  125TMC2    H2 1913   0.892   4.479   9.500
  125TMC2    C7 1914   0.730   4.682   9.460
  125TMC2    C8 1915   0.850   4.214   9.464
  125TMC2    O1 1916   0.652   4.773   9.485
  125TMC2    O2 1917   0.831   4.115   9.389
  125TMC2    O5 1918   0.909   4.207   9.587
  125TMC2    H5 1919   0.882   4.287   9.637
  126MPD1     C 1920   4.752   4.146   9.392
  126MPD1    C1 1921   0.035   4.128   9.291
  126MPD1    C2 1922   0.167   4.149   9.316
  126MPD1    C3 1923   0.208   4.228   9.425
  126MPD1    C4 1924   0.113   4.255   9.529
  126MPD1    C5 1925   4.791   4.198   9.515
  126MPD1     H 1926   0.247   4.111   9.254
  126MPD1    H1 1927   0.138   4.308   9.621
  126MPD1    H2 1928   4.647   4.123   9.379
  126MPD1    H3 1929   4.722   4.201   9.599
  126MPD1     N 1930   0.336   4.277   9.419
  126MPD1    H5 1931   0.393   4.251   9.339
  126MPD1    N1 1932   0.002   4.051   9.179
  126MPD1    H6 1933   0.063   4.065   9.099
  126MPD1    H7 1934   4.707   4.056   9.158
  127MPD2     C 1935   2.133   3.663   9.687
  127MPD2    C1 1936   2.170   3.700   9.810
  127MPD2    C2 1937   2.243   3.819   9.824
  127MPD2    C3 1938   2.261   3.900   9.710
  127MPD2    C4 1939   2.231   3.849   9.589
  127MPD2    C5 1940   2.173   3.727   9.575
  127MPD2     H 1941   2.257   3.856   9.925
  127MPD2    H1 1942   2.255   3.906   9.500
  127MPD2    H2 1943   2.095   3.562   9.675
  127MPD2    H3 1944   2.141   3.680   9.483
  127MPD2     N 1945   2.302   4.037   9.732
  127MPD2    H5 1946   2.334   4.054   9.827
  127MPD2    N1 1947   2.138   3.613   9.919
  127MPD2    H7 1948   2.071   3.541   9.894
  128TCq2    C1 1949   2.178   3.625  10.049
  128TCq2    O2 1950   2.249   3.708  10.110
  128TCq2    C2 1951   2.124   3.515  10.132
  128TCq2    C3 1952   2.205   3.478  10.236
  128TCq2    C4 1953   2.167   3.368  10.303
  128TCq2    C5 1954   2.039   3.323  10.286
  128TCq2    C6 1955   1.962   3.367  10.190
  128TCq2    C7 1956   2.005   3.460  10.105
  128TCq2    C8 1957   1.840   3.296  10.162
  128TCq2    O4 1958   1.764   3.342  10.076
  128TCq2    C9 1959   2.243   3.343  10.425
  128TCq2    O5 1960   2.344   3.401  10.447
  128TCq2    O6 1961   2.214   3.226  10.480
  128TCq2    H2 1962   2.297   3.532  10.255
  128TCq2    H3 1963   1.991   3.261  10.361
  128TCq2    H4 1964   1.942   3.503  10.028
  129MPD2     C 1965   0.658   4.218  19.115
  129MPD2    C1 1966   0.688   4.210  19.252
  129MPD2    C2 1967   0.821   4.254  19.286
  129MPD2    C3 1968   0.911   4.295  19.190
  129MPD2    C4 1969   0.877   4.294  19.055
  129MPD2    C5 1970   0.744   4.269  19.019
  129MPD2     H 1971   0.848   4.254  19.391
  129MPD2    H1 1972   0.948   4.330  18.981
  129MPD2    H2 1973   0.563   4.184  19.078
  129MPD2    H3 1974   0.709   4.262  18.917
  129MPD2     N 1975   1.041   4.342  19.230
  129MPD2    H5 1976   1.060   4.357  19.328
  129MPD2    N1 1977   0.589   4.173  19.348
  129MPD2    H7 1978   0.616   4.155  19.444
  130TCq2    C1 1979   0.457   4.201  19.334
  130TCq2    O2 1980   0.403   4.270  19.252
  130TCq2    C2 1981   0.390   4.144  19.447
  130TCq2    C3 1982   0.317   4.221  19.529
  130TCq2    C4 1983   0.286   4.177  19.657
  130TCq2    C5 1984   0.314   4.052  19.702
  130TCq2    C6 1985   0.371   3.966  19.607
  130TCq2    C7 1986   0.412   4.013  19.481
  130TCq2    C8 1987   0.352   3.819  19.622
  130TCq2    O4 1988   0.367   3.751  19.522
  130TCq2    C9 1989   0.253   4.293  19.745
  130TCq2    O5 1990   0.317   4.400  19.722
  130TCq2    O6 1991   0.246   4.244  19.871
  130TCq2    H2 1992   0.302   4.323  19.496
  130TCq2    H3 1993   0.292   4.019  19.803
  130TCq2    H4 1994   0.459   3.941  19.415
  131MPD2     C 1995   0.074   2.931  10.049
  131MPD2    C1 1996   0.156   2.929  10.155
  131MPD2    C2 1997   0.172   2.811  10.227
  131MPD2    C3 1998   0.100   2.697  10.198
  131MPD2    C4 1999   0.011   2.703  10.094
  131MPD2    C5 2000   4.801   2.822  10.025
  131MPD2     H 2001   0.240   2.811  10.311
  131MPD2    H1 2002   4.756   2.617  10.067
  131MPD2    H2 2003   0.063   3.021   9.990
  131MPD2    H3 2004   4.720   2.812   9.953
  131MPD2     N 2005   0.123   2.578  10.271
  131MPD2    H5 2006   0.211   2.562  10.319
  131MPD2    N1 2007   0.221   3.052  10.186
  131MPD2    H7 2008   0.187   3.134  10.137
  132TCq2    C1 2009   0.554   3.431  10.154
  132TCq2    O2 2010   0.576   3.355  10.061
  132TCq2    C2 2011   0.450   3.394  10.249
  132TCq2    C3 2012   0.421   3.473  10.359
  132TCq2    C4 2013   0.343   3.412  10.452
  132TCq2    C5 2014   0.301   3.279  10.444
  132TCq2    C6 2015   0.310   3.217  10.322
  132TCq2    C7 2016   0.380   3.275  10.225
  132TCq2    C8 2017   0.283   3.083  10.311
  132TCq2    O4 2018   0.316   3.016  10.407
  132TCq2    C9 2019   0.338   3.482  10.580
  132TCq2    O5 2020   0.387   3.593  10.611
  132TCq2    O6 2021   0.233   3.437  10.645
  132TCq2    H2 2022   0.488   3.551  10.394
  132TCq2    H3 2023   0.258   3.223  10.526
  132TCq2    H4 2024   0.388   3.223  10.131
  133MPD2     C 2025   4.125   4.512   9.244
  133MPD2    C1 2026   4.226   4.433   9.296
  133MPD2    C2 2027   4.201   4.316   9.370
  133MPD2    C3 2028   4.070   4.272   9.392
  133MPD2    C4 2029   3.971   4.360   9.347
  133MPD2    C5 2030   4.001   4.479   9.282
  133MPD2     H 2031   4.281   4.253   9.407
  133MPD2    H1 2032   3.869   4.345   9.382
  133MPD2    H2 2033   4.147   4.602   9.187
  133MPD2    H3 2034   3.917   4.542   9.257
  133MPD2     N 2035   4.036   4.147   9.459
  133MPD2    H5 2036   3.939   4.138   9.488
  133MPD2    N1 2037   4.357   4.468   9.261
  133MPD2    H7 2038   4.357   4.539   9.189
  134TCq2    C1 2039   4.474   4.425   9.319
  134TCq2    O2 2040   4.489   4.369   9.425
  134TCq2    C2 2041   4.594   4.479   9.261
  134TCq2    C3 2042   4.698   4.510   9.353
  134TCq2    C4 2043   0.011   4.554   9.299
  134TCq2    C5 2044   0.024   4.589   9.162
  134TCq2    C6 2045   4.719   4.563   9.086
  134TCq2    C7 2046   4.599   4.512   9.129
  134TCq2    C8 2047   4.749   4.557   8.937
  134TCq2    O4 2048   0.057   4.534   8.904
  134TCq2    C9 2049   0.132   4.570   9.379
  134TCq2    O5 2050   0.234   4.615   9.325
  134TCq2    O6 2051   0.102   4.595   9.507
  134TCq2    H2 2052   4.693   4.470   9.453
  134TCq2    H3 2053   0.109   4.639   9.118
  134TCq2    H4 2054   4.520   4.480   9.062
  135MPD2     C 2055   2.139   0.956   9.995
  135MPD2    C1 2056   2.031   0.877   9.960
  135MPD2    C2 2057   2.040   0.790   9.855
  135MPD2    C3 2058   2.155   0.777   9.785
  135MPD2    C4 2059   2.265   0.843   9.827
  135MPD2    C5 2060   2.253   0.935   9.923
  135MPD2     H 2061   1.958   0.722   9.836
  135MPD2    H1 2062   2.363   0.834   9.780
  135MPD2    H2 2063   2.158   1.032  10.070
  135MPD2    H3 2064   2.341   0.994   9.944
  135MPD2     N 2065   2.174   0.699   9.668
  135MPD2    H5 2066   2.264   0.699   9.621
  135MPD2    N1 2067   1.907   0.873  10.027
  135MPD2    H7 2068   1.838   0.807   9.993
  136TCq2    C1 2069   1.869   0.945  10.141
  136TCq2    O2 2070   1.921   1.036  10.203
  136TCq2    C2 2071   1.746   0.895  10.193
  136TCq2    C3 2072   1.665   0.994  10.246
  136TCq2    C4 2073   1.545   0.944  10.299
  136TCq2    C5 2074   1.512   0.810  10.297
  136TCq2    C6 2075   1.589   0.724  10.221
  136TCq2    C7 2076   1.711   0.762  10.172
  136TCq2    C8 2077   1.564   0.584  10.216
  136TCq2    O4 2078   1.624   0.515  10.133
  136TCq2    C9 2079   1.445   1.037  10.335
  136TCq2    O5 2080   1.367   1.012  10.425
  136TCq2    O6 2081   1.442   1.145  10.251
  136TCq2    H2 2082   1.702   1.096  10.251
  136TCq2    H3 2083   1.411   0.778  10.320
  136TCq2    H4 2084   1.782   0.688  10.137
  137MPD2     C 2085   1.533   3.912   9.706
  137MPD2    C1 2086   1.553   4.026   9.783
  137MPD2    C2 2087   1.548   4.004   9.925
  137MPD2    C3 2088   1.519   3.883   9.983
  137MPD2    C4 2089   1.484   3.783   9.903
  137MPD2    C5 2090   1.484   3.800   9.769
  137MPD2     H 2091   1.581   4.089   9.983
  137MPD2    H1 2092   1.464   3.683   9.939
  137MPD2    H2 2093   1.540   3.915   9.598
  137MPD2    H3 2094   1.467   3.706   9.718
  137MPD2     N 2095   1.525   3.881  10.121
  137MPD2    H5 2096   1.570   3.961  10.166
  137MPD2    N1 2097   1.589   4.148   9.724
  137MPD2    H7 2098   1.579   4.151   9.623
  138TCq2    C1 2099   1.600   4.266   9.783
  138TCq2    O2 2100   1.591   4.298   9.901
  138TCq2    C2 2101   1.592   4.373   9.682
  138TCq2    C3 2102   1.661   4.351   9.565
  138TCq2    C4 2103   1.638   4.430   9.464
  138TCq2    C5 2104   1.542   4.527   9.472
  138TCq2    C6 2105   1.471   4.543   9.588
  138TCq2    C7 2106   1.488   4.456   9.689
  138TCq2    C8 2107   1.380   4.649   9.606
  138TCq2    O4 2108   1.402   4.757   9.550
  138TCq2    C9 2109   1.722   4.430   9.344
  138TCq2    O5 2110   1.680   4.464   9.235
  138TCq2    O6 2111   1.853   4.441   9.384
  138TCq2    H2 2112   1.748   4.285   9.561
  138TCq2    H3 2113   1.514   4.596   9.393
  138TCq2    H4 2114   1.450   4.477   9.789
  139TMC2    C1 2115   2.331   2.148  13.730
  139TMC2    C2 2116   2.407   2.212  13.634
  139TMC2    C3 2117   2.358   2.330  13.596
  139TMC2    C4 2118   2.220   2.191  13.787
  139TMC2    C5 2119   2.187   2.319  13.754
  139TMC2    C6 2120   2.248   2.381  13.652
  139TMC2     C 2121   2.371   2.015  13.750
  139TMC2     O 2122   2.459   1.977  13.677
  139TMC2     H 2123   2.495   2.171  13.586
  139TMC2    H1 2124   2.168   2.127  13.857
  139TMC2    H2 2125   2.233   2.488  13.644
  139TMC2    C7 2126   2.091   2.388  13.839
  139TMC2    C8 2127   2.433   2.403  13.500
  139TMC2    O1 2128   2.056   2.505  13.810
  139TMC2    O2 2129   2.555   2.382  13.481
  139TMC2    O5 2130   2.356   2.502  13.454
  139TMC2    H5 2131   2.412   2.569  13.410
  140MPD2     C 2132   2.207   1.718  13.890
  140MPD2    C1 2133   2.309   1.789  13.843
  140MPD2    C2 2134   2.433   1.733  13.830
  140MPD2    C3 2135   2.458   1.600  13.874
  140MPD2    C4 2136   2.355   1.528  13.931
  140MPD2    C5 2137   2.230   1.586  13.941
  140MPD2     H 2138   2.513   1.799  13.800
  140MPD2    H1 2139   2.355   1.426  13.966
  140MPD2    H2 2140   2.112   1.771  13.895
  140MPD2    H3 2141   2.147   1.521  13.966
  140MPD2     N 2142   2.577   1.537  13.832
  140MPD2    H5 2143   2.621   1.571  13.747
  140MPD2    N1 2144   2.280   1.928  13.809
  140MPD2    H7 2145   2.187   1.959  13.833
  141TCq2    C1 2146   2.495   3.400  14.667
  141TCq2    O2 2147   2.465   3.516  14.646
  141TCq2    C2 2148   2.460   3.352  14.798
  141TCq2    C3 2149   2.466   3.218  14.821
  141TCq2    C4 2150   2.457   3.174  14.950
  141TCq2    C5 2151   2.441   3.263  15.053
  141TCq2    C6 2152   2.423   3.400  15.024
  141TCq2    C7 2153   2.431   3.447  14.893
  141TCq2    C8 2154   2.469   3.475  15.137
  141TCq2    O4 2155   2.497   3.418  15.244
  141TCq2    C9 2156   2.460   3.036  14.986
  141TCq2    O5 2157   2.406   3.015  15.095
  141TCq2    O6 2158   2.581   2.988  14.945
  141TCq2    H2 2159   2.477   3.147  14.740
  141TCq2    H3 2160   2.417   3.237  15.156
  141TCq2    H4 2161   2.427   3.553  14.869
  142MPD2     C 2162   0.496   2.111  10.928
  142MPD2    C1 2163   0.471   2.085  10.794
  142MPD2    C2 2164   0.541   2.163  10.708
  142MPD2    C3 2165   0.643   2.261  10.754
  142MPD2    C4 2166   0.661   2.278  10.884
  142MPD2    C5 2167   0.580   2.209  10.973
  142MPD2     H 2168   0.524   2.140  10.603
  142MPD2    H1 2169   0.732   2.352  10.918
  142MPD2    H2 2170   0.437   2.057  11.001
  142MPD2    H3 2171   0.601   2.218  11.079
  142MPD2     N 2172   0.716   2.354  10.675
  142MPD2    H5 2173   0.786   2.411  10.721
  142MPD2    N1 2174   0.383   1.978  10.768
  142MPD2    H7 2175   0.362   1.920  10.848
  143TCq2    C1 2176   0.728   2.341  10.532
  143TCq2    O2 2177   0.662   2.272  10.454
  143TCq2    C2 2178   0.824   2.437  10.467
  143TCq2    C3 2179   0.912   2.504  10.538
  143TCq2    C4 2180   0.964   2.615  10.480
  143TCq2    C5 2181   0.946   2.657  10.352
  143TCq2    C6 2182   0.857   2.584  10.281
  143TCq2    C7 2183   0.792   2.477  10.339
  143TCq2    C8 2184   0.805   2.646  10.154
  143TCq2    O4 2185   0.866   2.736  10.103
  143TCq2    C9 2186   1.044   2.711  10.553
  143TCq2    O5 2187   1.125   2.786  10.498
  143TCq2    O6 2188   0.969   2.750  10.655
  143TCq2    H2 2189   0.938   2.486  10.642
  143TCq2    H3 2190   0.999   2.732  10.294
  143TCq2    H4 2191   0.722   2.422  10.277
  144MPD2     C 2192   3.127   1.514  18.524
  144MPD2    C1 2193   3.143   1.377  18.526
  144MPD2    C2 2194   3.238   1.330  18.612
  144MPD2    C3 2195   3.309   1.422  18.692
  144MPD2    C4 2196   3.295   1.560  18.686
  144MPD2    C5 2197   3.194   1.607  18.606
  144MPD2     H 2198   3.255   1.223  18.619
  144MPD2    H1 2199   3.348   1.634  18.745
  144MPD2    H2 2200   3.055   1.555  18.454
  144MPD2    H3 2201   3.179   1.714  18.612
  144MPD2     N 2202   3.419   1.387  18.784
  144MPD2    H5 2203   3.468   1.461  18.832
  144MPD2    N1 2204   3.072   1.289  18.436
  144MPD2    H7 2205   3.081   1.190  18.452
  145TCq2    C1 2206   3.476   1.259  18.799
  145TCq2    O2 2207   3.453   1.156  18.737
  145TCq2    C2 2208   3.593   1.277  18.882
  145TCq2    C3 2209   3.700   1.201  18.851
  145TCq2    C4 2210   3.806   1.192  18.938
  145TCq2    C5 2211   3.810   1.268  19.051
  145TCq2    C6 2212   3.697   1.339  19.085
  145TCq2    C7 2213   3.588   1.349  19.001
  145TCq2    C8 2214   3.734   1.444  19.182
  145TCq2    O4 2215   3.852   1.471  19.186
  145TCq2    C9 2216   3.897   1.072  18.938
  145TCq2    O5 2217   3.952   1.039  19.042
  145TCq2    O6 2218   3.827   0.983  18.858
  145TCq2    H2 2219   3.675   1.130  18.774
  145TCq2    H3 2220   3.902   1.271  19.110
  145TCq2    H4 2221   3.496   1.389  19.043
  146TMC2    C1 2222   4.339   4.560  12.377
  146TMC2    C2 2223   4.225   4.515  12.323
  146TMC2    C3 2224   4.236   4.448  12.200
  146TMC2    C4 2225   4.464   4.522  12.335
  146TMC2    C5 2226   4.464   4.440  12.219
  146TMC2    C6 2227   4.353   4.407  12.146
  146TMC2     C 2228   4.335   4.633  12.502
  146TMC2     O 2229   4.237   4.702  12.516
  146TMC2     H 2230   4.132   4.545  12.369
  146TMC2    H1 2231   4.550   4.577  12.373
  146TMC2    H2 2232   4.369   4.382  12.041
  146TMC2    C7 2233   4.597   4.395  12.176
  146TMC2    C8 2234   4.110   4.428  12.134
  146TMC2    O1 2235   4.610   4.343  12.070
  146TMC2    O2 2236   4.013   4.463  12.202
  146TMC2    O5 2237   4.109   4.415  11.999
  146TMC2    H5 2238   4.195   4.417  11.950
  147MPD2     C 2239   0.301   4.394  12.280
  147MPD2    C1 2240   0.228   4.418  12.394
  147MPD2    C2 2241   0.092   4.429  12.379
  147MPD2    C3 2242   0.021   4.411  12.264
  147MPD2    C4 2243   0.090   4.392  12.151
  147MPD2    C5 2244   0.230   4.378  12.164
  147MPD2     H 2245   0.028   4.459  12.462
  147MPD2    H1 2246   0.044   4.383  12.054
  147MPD2    H2 2247   0.408   4.381  12.293
  147MPD2    H3 2248   0.291   4.347  12.079
  147MPD2     N 2249   4.685   4.424  12.271
  147MPD2    H5 2250   4.646   4.447  12.362
  147MPD2    N1 2251   0.291   4.410  12.519
  147MPD2    H7 2252   0.390   4.393  12.505
  148MPD2     C 2253   4.151   3.474  10.891
  148MPD2    C1 2254   4.252   3.378  10.876
  148MPD2    C2 2255   4.241   3.299  10.759
  148MPD2    C3 2256   4.131   3.315  10.672
  148MPD2    C4 2257   4.039   3.411  10.695
  148MPD2    C5 2258   4.046   3.488  10.802
  148MPD2     H 2259   4.317   3.228  10.727
  148MPD2    H1 2260   3.962   3.431  10.622
  148MPD2    H2 2261   4.153   3.540  10.977
  148MPD2    H3 2262   3.972   3.566  10.810
  148MPD2     N 2263   4.113   3.235  10.555
  148MPD2    H5 2264   4.032   3.266  10.503
  148MPD2    N1 2265   4.366   3.369  10.965
  148MPD2    H7 2266   4.447   3.313  10.939
  149TCq2    C1 2267   4.409   3.461  11.059
  149TCq2    O2 2268   4.355   3.566  11.088
  149TCq2    C2 2269   4.551   3.435  11.096
  149TCq2    C3 2270   4.611   3.536  11.159
  149TCq2    C4 2271   4.747   3.529  11.190
  149TCq2    C5 2272   0.014   3.416  11.165
  149TCq2    C6 2273   4.746   3.310  11.114
  149TCq2    C7 2274   4.611   3.320  11.083
  149TCq2    C8 2275   0.012   3.208  11.041
  149TCq2    O4 2276   4.752   3.115  10.992
  149TCq2    C9 2277   0.006   3.632  11.255
  149TCq2    O5 2278   0.130   3.633  11.278
  149TCq2    O6 2279   4.723   3.706  11.324
  149TCq2    H2 2280   4.556   3.628  11.178
  149TCq2    H3 2281   0.114   3.397  11.202
  149TCq2    H4 2282   4.564   3.232  11.041
  150MPD2     C 2283   1.146   2.382  12.555
  150MPD2    C1 2284   1.187   2.419  12.433
  150MPD2    C2 2285   1.316   2.459  12.404
  150MPD2    C3 2286   1.404   2.485  12.511
  150MPD2    C4 2287   1.360   2.467  12.640
  150MPD2    C5 2288   1.230   2.417  12.655
  150MPD2     H 2289   1.348   2.482  12.303
  150MPD2    H1 2290   1.426   2.491  12.723
  150MPD2    H2 2291   1.048   2.344  12.580
  150MPD2    H3 2292   1.196   2.401  12.757
  150MPD2     N 2293   1.535   2.518  12.480
  150MPD2    H5 2294   1.551   2.545  12.383
  150MPD2    N1 2295   1.085   2.399  12.329
  150MPD2    H7 2296   0.997   2.355  12.356
  151TCq2    C1 2297   1.639   2.523  12.566
  151TCq2    O2 2298   1.649   2.498  12.684
  151TCq2    C2 2299   1.769   2.535  12.503
  151TCq2    C3 2300   1.791   2.481  12.381
  151TCq2    C4 2301   1.902   2.521  12.314
  151TCq2    C5 2302   1.998   2.598  12.375
  151TCq2    C6 2303   1.969   2.645  12.503
  151TCq2    C7 2304   1.855   2.615  12.570
  151TCq2    C8 2305   2.064   2.728  12.566
  151TCq2    O4 2306   2.079   2.836  12.513
  151TCq2    C9 2307   1.924   2.462  12.180
  151TCq2    O5 2308   1.852   2.377  12.129
  151TCq2    O6 2309   1.981   2.559  12.102
  151TCq2    H2 2310   1.715   2.421  12.331
  151TCq2    H3 2311   2.094   2.616  12.329
  151TCq2    H4 2312   1.841   2.653  12.670
  152MPD2     C 2313   1.401   1.975  13.275
  152MPD2    C1 2314   1.431   2.108  13.262
  152MPD2    C2 2315   1.331   2.195  13.231
  152MPD2    C3 2316   1.201   2.154  13.208
  152MPD2    C4 2317   1.174   2.018  13.229
  152MPD2    C5 2318   1.272   1.929  13.268
  152MPD2     H 2319   1.347   2.302  13.230
  152MPD2    H1 2320   1.075   1.981  13.203
  152MPD2    H2 2321   1.480   1.901  13.281
  152MPD2    H3 2322   1.244   1.826  13.288
  152MPD2     N 2323   1.109   2.254  13.163
  152MPD2    H5 2324   1.138   2.351  13.170
  152MPD2    N1 2325   1.577   2.145  13.261
  152MPD2    H7 2326   1.645   2.069  13.263
  153TCq2    C1 2327   1.626   2.273  13.248
  153TCq2    O2 2328   1.562   2.377  13.276
  153TCq2    C2 2329   1.767   2.291  13.214
  153TCq2    C3 2330   1.846   2.184  13.182
  153TCq2    C4 2331   1.961   2.199  13.110
  153TCq2    C5 2332   2.002   2.327  13.066
  153TCq2    C6 2333   1.909   2.426  13.094
  153TCq2    C7 2334   1.795   2.416  13.167
  153TCq2    C8 2335   1.944   2.566  13.057
  153TCq2    O4 2336   1.847   2.631  13.023
  153TCq2    C9 2337   2.064   2.101  13.081
  153TCq2    O5 2338   2.185   2.126  13.080
  153TCq2    O6 2339   2.010   1.979  13.084
  153TCq2    H2 2340   1.829   2.080  13.207
  153TCq2    H3 2341   2.091   2.336  13.006
  153TCq2    H4 2342   1.726   2.497  13.186
  154MPD2     C 2343   3.023   2.142  17.927
  154MPD2    C1 2344   3.048   2.161  18.060
  154MPD2    C2 2345   2.973   2.253  18.138
  154MPD2    C3 2346   2.853   2.300  18.085
  154MPD2    C4 2347   2.828   2.276  17.951
  154MPD2    C5 2348   2.914   2.206  17.871
  154MPD2     H 2349   2.999   2.275  18.240
  154MPD2    H1 2350   2.741   2.316  17.901
  154MPD2    H2 2351   3.093   2.094  17.859
  154MPD2    H3 2352   2.899   2.203  17.764
  154MPD2     N 2353   2.768   2.378  18.170
  154MPD2    H5 2354   2.788   2.392  18.269
  154MPD2    N1 2355   3.154   2.085  18.112
  154MPD2    H7 2356   3.215   2.036  18.049
  155TCq2    C1 2357   3.167   2.064  18.253
  155TCq2    O2 2358   3.078   2.077  18.336
  155TCq2    C2 2359   3.297   2.009  18.286
  155TCq2    C3 2360   3.309   1.948  18.406
  155TCq2    C4 2361   3.440   1.933  18.461
  155TCq2    C5 2362   3.550   1.994  18.406
  155TCq2    C6 2363   3.530   2.065  18.288
  155TCq2    C7 2364   3.403   2.072  18.224
  155TCq2    C8 2365   3.645   2.097  18.202
  155TCq2    O4 2366   3.741   2.023  18.217
  155TCq2    C9 2367   3.461   1.902  18.602
  155TCq2    O5 2368   3.369   1.906  18.683
  155TCq2    O6 2369   3.565   1.821  18.625
  155TCq2    H2 2370   3.214   1.912  18.445
  155TCq2    H3 2371   3.651   2.001  18.446
  155TCq2    H4 2372   3.390   2.117  18.126
  156MPD2     C 2373   2.162   0.230  12.198
  156MPD2    C1 2374   2.065   0.327  12.190
  156MPD2    C2 2375   2.058   0.432  12.285
  156MPD2    C3 2376   2.128   0.423  12.405
  156MPD2    C4 2377   2.220   0.321  12.421
  156MPD2    C5 2378   2.236   0.229  12.314
  156MPD2     H 2379   1.990   0.516  12.282
  156MPD2    H1 2380   2.289   0.312  12.505
  156MPD2    H2 2381   2.180   0.149  12.129
  156MPD2    H3 2382   2.312   0.156  12.336
  156MPD2     N 2383   2.103   0.517  12.505
  156MPD2    H5 2384   2.041   0.594  12.478
  156MPD2    N1 2385   1.987   0.320  12.074
  156MPD2    H7 2386   2.016   0.248  12.008
  157TCq2    C1 2387   1.877   0.393  12.044
  157TCq2    O2 2388   1.828   0.483  12.113
  157TCq2    C2 2389   1.831   0.386  11.909
  157TCq2    C3 2390   1.865   0.291  11.810
  157TCq2    C4 2391   1.831   0.305  11.679
  157TCq2    C5 2392   1.778   0.425  11.637
  157TCq2    C6 2393   1.748   0.518  11.732
  157TCq2    C7 2394   1.770   0.500  11.867
  157TCq2    C8 2395   1.679   0.634  11.681
  157TCq2    O4 2396   1.694   0.677  11.565
  157TCq2    C9 2397   1.851   0.191  11.592
  157TCq2    O5 2398   1.910   0.092  11.635
  157TCq2    O6 2399   1.733   0.176  11.523
  157TCq2    H2 2400   1.915   0.199  11.840
  157TCq2    H3 2401   1.749   0.443  11.534
  157TCq2    H4 2402   1.735   0.573  11.939
  158TMC2    C1 2403   2.253   3.528  13.748
  158TMC2    C2 2404   2.295   3.636  13.674
  158TMC2    C3 2405   2.205   3.727  13.637
  158TMC2    C4 2406   2.118   3.501  13.770
  158TMC2    C5 2407   2.029   3.600  13.721
  158TMC2    C6 2408   2.069   3.710  13.663
  158TMC2     C 2409   2.356   3.431  13.767
  158TMC2     O 2410   2.439   3.425  13.678
  158TMC2     H 2411   2.402   3.646  13.655
  158TMC2    H1 2412   2.092   3.408  13.818
  158TMC2    H2 2413   1.996   3.786  13.638
  158TMC2    C7 2414   1.899   3.612  13.788
  158TMC2    C8 2415   2.245   3.867  13.616
  158TMC2    O1 2416   1.824   3.704  13.758
  158TMC2    O2 2417   2.180   3.965  13.659
  158TMC2    O5 2418   2.367   3.863  13.562
  158TMC2    H5 2419   2.391   3.783  13.511
  159MPD2     C 2420   2.150   3.333  14.244
  159MPD2    C1 2421   2.219   3.224  14.194
  159MPD2    C2 2422   2.285   3.228  14.069
  159MPD2    C3 2423   2.280   3.344  13.995
  159MPD2    C4 2424   2.213   3.451  14.052
  159MPD2    C5 2425   2.144   3.452  14.175
  159MPD2     H 2426   2.331   3.141  14.022
  159MPD2    H1 2427   2.212   3.543  13.995
  159MPD2    H2 2428   2.088   3.326  14.333
  159MPD2    H3 2429   2.094   3.536  14.220
  159MPD2     N 2430   2.338   3.333  13.867
  159MPD2    H5 2431   2.402   3.256  13.854
  159MPD2    N1 2432   2.216   3.108  14.269
  159MPD2    H7 2433   2.160   3.113  14.353
  160TMC2    C1 2434   2.052   1.858  19.589
  160TMC2    C2 2435   1.984   1.780  19.677
  160TMC2    C3 2436   1.940   1.663  19.627
  160TMC2    C4 2437   2.071   1.832  19.455
  160TMC2    C5 2438   2.024   1.712  19.411
  160TMC2    C6 2439   1.961   1.620  19.495
  160TMC2     C 2440   2.074   1.985  19.641
  160TMC2     O 2441   2.125   1.985  19.755
  160TMC2     H 2442   1.973   1.811  19.781
  160TMC2    H1 2443   2.131   1.905  19.403
  160TMC2    H2 2444   1.908   1.533  19.459
  160TMC2    C7 2445   2.031   1.678  19.274
  160TMC2    C8 2446   1.903   1.569  19.725
  160TMC2    O1 2447   2.029   1.562  19.241
  160TMC2    O2 2448   1.939   1.454  19.711
  160TMC2    O5 2449   1.826   1.617  19.827
  160TMC2    H5 2450   1.797   1.707  19.799
  161MPD2     C 2451   2.075   2.269  19.718
  161MPD2    C1 2452   1.994   2.215  19.621
  161MPD2    C2 2453   1.889   2.290  19.566
  161MPD2    C3 2454   1.872   2.415  19.609
  161MPD2    C4 2455   1.961   2.474  19.697
  161MPD2    C5 2456   2.059   2.401  19.754
  161MPD2     H 2457   1.825   2.249  19.489
  161MPD2    H1 2458   1.937   2.569  19.745
  161MPD2    H2 2459   2.139   2.203  19.776
  161MPD2    H3 2460   2.120   2.435  19.836
  161MPD2     N 2461   1.761   2.506  19.574
  161MPD2    H5 2462   1.770   2.604  19.598
  161MPD2    N1 2463   2.017   2.082  19.573
  161MPD2    H7 2464   1.953   2.054  19.500
  162TMC2    C1 2465   4.423   3.955  18.788
  162TMC2    C2 2466   4.437   4.066  18.711
  162TMC2    C3 2467   4.551   4.086  18.654
  162TMC2    C4 2468   4.529   3.879  18.826
  162TMC2    C5 2469   4.649   3.897  18.750
  162TMC2    C6 2470   4.653   3.994  18.655
  162TMC2     C 2471   4.314   3.865  18.741
  162TMC2     O 2472   4.327   3.748  18.774
  162TMC2     H 2473   4.356   4.136  18.698
  162TMC2    H1 2474   4.507   3.798  18.895
  162TMC2    H2 2475   4.752   4.018  18.619
  162TMC2    C7 2476   4.769   3.828  18.781
  162TMC2    C8 2477   4.589   4.215  18.596
  162TMC2    O1 2478   0.051   3.849  18.699
  162TMC2    O2 2479   4.524   4.315  18.623
  162TMC2    O5 2480   4.645   4.185  18.477
  162TMC2    H5 2481   4.667   4.094  18.448
  163MPD2     C 2482   4.102   3.770  18.281
  163MPD2    C1 2483   4.196   3.700  18.353
  163MPD2    C2 2484   4.222   3.737  18.486
  163MPD2    C3 2485   4.179   3.855  18.538
  163MPD2    C4 2486   4.084   3.923  18.466
  163MPD2    C5 2487   4.038   3.875  18.346
  163MPD2     H 2488   4.299   3.689  18.545
  163MPD2    H1 2489   4.036   4.014  18.500
  163MPD2    H2 2490   4.071   3.748  18.180
  163MPD2    H3 2491   3.948   3.925  18.314
  163MPD2     N 2492   4.220   3.917  18.657
  163MPD2    H5 2493   4.180   4.009  18.674
  163MPD2    N1 2494   4.254   3.583  18.294
  163MPD2    H7 2495   4.238   3.553  18.198
  164TCq2    C1 2496   0.318   3.135  11.301
  164TCq2    O2 2497   0.225   3.062  11.277
  164TCq2    C2 2498   0.301   3.255  11.387
  164TCq2    C3 2499   0.395   3.352  11.400
  164TCq2    C4 2500   0.369   3.463  11.476
  164TCq2    C5 2501   0.247   3.480  11.537
  164TCq2    C6 2502   0.155   3.381  11.526
  164TCq2    C7 2503   0.177   3.272  11.445
  164TCq2    C8 2504   0.017   3.412  11.560
  164TCq2    O4 2505   4.731   3.385  11.483
  164TCq2    C9 2506   0.444   3.586  11.456
  164TCq2    O5 2507   0.496   3.626  11.352
  164TCq2    O6 2508   0.490   3.609  11.578
  164TCq2    H2 2509   0.487   3.350  11.343
  164TCq2    H3 2510   0.224   3.575  11.584
  164TCq2    H4 2511   0.102   3.194  11.438
  165MPD2     C 2512   0.754   0.566  19.060
  165MPD2    C1 2513   0.800   0.664  19.153
  165MPD2    C2 2514   0.940   0.681  19.157
  165MPD2    C3 2515   1.029   0.605  19.076
  165MPD2    C4 2516   0.978   0.510  18.990
  165MPD2    C5 2517   0.841   0.489  18.981
  165MPD2     H 2518   0.981   0.758  19.221
  165MPD2    H1 2519   1.039   0.460  18.916
  165MPD2    H2 2520   0.647   0.550  19.058
  165MPD2    H3 2521   0.803   0.411  18.916
  165MPD2     N 2522   1.168   0.611  19.094
  165MPD2    H5 2523   1.231   0.550  19.042
  165MPD2    N1 2524   0.700   0.735  19.223
  165MPD2    H7 2525   0.610   0.735  19.175
  166TCq2    C1 2526   1.232   0.698  19.187
  166TCq2    O2 2527   1.194   0.783  19.260
  166TCq2    C2 2528   1.359   0.636  19.222
  166TCq2    C3 2529   1.360   0.499  19.235
  166TCq2    C4 2530   1.461   0.443  19.313
  166TCq2    C5 2531   1.546   0.525  19.377
  166TCq2    C6 2532   1.524   0.658  19.379
  166TCq2    C7 2533   1.433   0.716  19.298
  166TCq2    C8 2534   1.639   0.731  19.425
  166TCq2    O4 2535   1.739   0.668  19.452
  166TCq2    C9 2536   1.464   0.299  19.332
  166TCq2    O5 2537   1.486   0.224  19.237
  166TCq2    O6 2538   1.511   0.288  19.462
  166TCq2    H2 2539   1.282   0.436  19.194
  166TCq2    H3 2540   1.627   0.484  19.436
  166TCq2    H4 2541   1.436   0.823  19.279
  167TMC2    C1 2542   4.547   3.249  12.996
  167TMC2    C2 2543   4.471   3.264  13.106
  167TMC2    C3 2544   4.431   3.160  13.189
  167TMC2    C4 2545   4.573   3.125  12.953
  167TMC2    C5 2546   4.537   3.019  13.038
  167TMC2    C6 2547   4.460   3.036  13.151
  167TMC2     C 2548   4.589   3.369  12.921
  167TMC2     O 2549   4.530   3.478  12.941
  167TMC2     H 2550   4.464   3.364  13.147
  167TMC2    H1 2551   4.623   3.102  12.860
  167TMC2    H2 2552   4.428   2.954  13.214
  167TMC2    C7 2553   4.570   2.881  13.006
  167TMC2    C8 2554   4.428   3.181  13.331
  167TMC2    O1 2555   4.553   2.806  13.104
  167TMC2    O2 2556   4.478   3.110  13.415
  167TMC2    O5 2557   4.344   3.286  13.357
  167TMC2    H5 2558   4.302   3.314  13.273
  168MPD2     C 2559   4.722   3.577  12.757
  168MPD2    C1 2560   4.734   3.440  12.740
  168MPD2    C2 2561   0.006   3.391  12.634
  168MPD2    C3 2562   0.034   3.478  12.534
  168MPD2    C4 2563   0.008   3.610  12.535
  168MPD2    C5 2564   4.756   3.657  12.646
  168MPD2     H 2565   0.025   3.285  12.628
  168MPD2    H1 2566   0.021   3.679  12.452
  168MPD2    H2 2567   4.672   3.628  12.839
  168MPD2    H3 2568   4.735   3.763  12.642
  168MPD2     N 2569   0.068   3.423  12.408
  168MPD2    H5 2570   0.064   3.484  12.327
  168MPD2    N1 2571   4.681   3.343  12.827
  168MPD2    H7 2572   4.722   3.253  12.807
  169MPD1     C 2573   2.003   3.635   9.056
  169MPD1    C1 2574   1.955   3.701   9.167
  169MPD1    C2 2575   1.895   3.626   9.271
  169MPD1    C3 2576   1.881   3.488   9.257
  169MPD1    C4 2577   1.908   3.424   9.136
  169MPD1    C5 2578   1.973   3.501   9.042
  169MPD1     H 2579   1.873   3.674   9.365
  169MPD1    H1 2580   1.888   3.318   9.125
  169MPD1    H2 2581   2.058   3.687   8.979
  169MPD1    H3 2582   2.015   3.453   8.954
  169MPD1     N 2583   1.835   3.422   9.372
  169MPD1    H5 2584   1.816   3.480   9.453
  169MPD1    N1 2585   1.997   3.834   9.187
  169MPD1    H6 2586   2.007   3.883   9.098
  169MPD1    H7 2587   1.928   3.882   9.244
  170MPD1     C 2588   0.891   0.632  13.167
  170MPD1    C1 2589   0.953   0.742  13.229
  170MPD1    C2 2590   0.892   0.794  13.347
  170MPD1    C3 2591   0.775   0.732  13.400
  170MPD1    C4 2592   0.715   0.633  13.324
  170MPD1    C5 2593   0.776   0.585  13.210
  170MPD1     H 2594   0.946   0.877  13.391
  170MPD1    H1 2595   0.620   0.586  13.344
  170MPD1    H2 2596   0.945   0.594  13.081
  170MPD1    H3 2597   0.733   0.497  13.164
  170MPD1     N 2598   0.729   0.785  13.520
  170MPD1    H5 2599   0.781   0.865  13.555
  170MPD1    N1 2600   1.080   0.782  13.185
  170MPD1    H6 2601   1.091   0.774  13.084
  170MPD1    H7 2602   1.101   0.879  13.206
  171MPD1     C 2603   4.051   1.952  15.559
  171MPD1    C1 2604   4.024   1.821  15.527
  171MPD1    C2 2605   4.075   1.721  15.607
  171MPD1    C3 2606   4.165   1.751  15.715
  171MPD1    C4 2607   4.177   1.885  15.741
  171MPD1    C5 2608   4.120   1.986  15.670
  171MPD1     H 2609   4.054   1.615  15.597
  171MPD1    H1 2610   4.237   1.906  15.829
  171MPD1    H2 2611   4.015   2.035  15.499
  171MPD1    H3 2612   4.123   2.087  15.709
  171MPD1     N 2613   4.219   1.655  15.800
  171MPD1    H5 2614   4.266   1.691  15.882
  171MPD1    N1 2615   3.943   1.787  15.413
  171MPD1    H6 2616   3.924   1.862  15.346
  171MPD1    H7 2617   3.929   1.695  15.373
  172MPD1     C 2618   3.432   0.788  17.768
  172MPD1    C1 2619   3.459   0.918  17.738
  172MPD1    C2 2620   3.441   1.016  17.839
  172MPD1    C3 2621   3.405   0.982  17.971
  172MPD1    C4 2622   3.382   0.847  17.996
  172MPD1    C5 2623   3.397   0.756  17.899
  172MPD1     H 2624   3.446   1.117  17.801
  172MPD1    H1 2625   3.362   0.810  18.096
  172MPD1    H2 2626   3.436   0.701  17.703
  172MPD1    H3 2627   3.388   0.651  17.927
  172MPD1     N 2628   3.358   1.072  18.068
  172MPD1    H5 2629   3.340   1.029  18.159
  172MPD1    N1 2630   3.453   0.963  17.605
  172MPD1    H6 2631   3.499   1.053  17.599
  172MPD1    H7 2632   3.499   0.895  17.545
  173MPD1     C 2633   4.531   1.437  14.417
  173MPD1    C1 2634   4.401   1.422  14.372
  173MPD1    C2 2635   4.345   1.294  14.363
  173MPD1    C3 2636   4.404   1.193  14.434
  173MPD1    C4 2637   4.526   1.208  14.502
  173MPD1    C5 2638   4.588   1.333  14.485
  173MPD1     H 2639   4.247   1.277  14.320
  173MPD1    H1 2640   4.590   1.130  14.542
  173MPD1    H2 2641   4.593   1.525  14.402
  173MPD1    H3 2642   4.689   1.339  14.524
  173MPD1     N 2643   4.340   1.069  14.422
  173MPD1    H5 2644   4.244   1.074  14.389
  173MPD1    N1 2645   4.349   1.519  14.289
  173MPD1    H6 2646   4.363   1.608  14.337
  173MPD1    H7 2647   4.249   1.504  14.279
  174MPD1     C 2648   0.111   0.555  14.657
  174MPD1    C1 2649   4.803   0.485  14.702
  174MPD1    C2 2650   4.698   0.482  14.620
  174MPD1    C3 2651   4.687   0.541  14.497
  174MPD1    C4 2652   4.792   0.617  14.459
  174MPD1    C5 2653   0.097   0.631  14.539
  174MPD1     H 2654   4.615   0.415  14.637
  174MPD1    H1 2655   4.786   0.671  14.365
  174MPD1    H2 2656   0.197   0.575  14.720
  174MPD1    H3 2657   0.178   0.701  14.517
  174MPD1     N 2658   4.567   0.552  14.424
  174MPD1    H5 2659   4.567   0.625  14.353
  174MPD1    N1 2660   0.005   0.396  14.812
  174MPD1    H6 2661   0.073   0.420  14.884
  174MPD1    H7 2662   4.716   0.380  14.848
  175MPD1     C 2663   3.156   1.785  15.674
  175MPD1    C1 2664   3.022   1.801  15.685
  175MPD1    C2 2665   2.974   1.842  15.806
  175MPD1    C3 2666   3.049   1.843  15.922
  175MPD1    C4 2667   3.183   1.814  15.913
  175MPD1    C5 2668   3.231   1.788  15.789
  175MPD1     H 2669   2.871   1.873  15.817
  175MPD1    H1 2670   3.254   1.813  15.995
  175MPD1    H2 2671   3.207   1.788  15.578
  175MPD1    H3 2672   3.338   1.773  15.785
  175MPD1     N 2673   2.999   1.860  16.055
  175MPD1    H5 2674   3.067   1.885  16.127
  175MPD1    N1 2675   2.947   1.826  15.573
  175MPD1    H6 2676   2.848   1.814  15.595
  175MPD1    H7 2677   2.972   1.770  15.491
  176MPD1     C 2678   4.689   3.383  17.302
  176MPD1    C1 2679   4.729   3.468  17.202
  176MPD1    C2 2680   4.712   3.601  17.227
  176MPD1    C3 2681   4.643   3.646  17.340
  176MPD1    C4 2682   4.606   3.558  17.442
  176MPD1    C5 2683   4.625   3.425  17.415
  176MPD1     H 2684   4.738   3.677  17.154
  176MPD1    H1 2685   4.553   3.586  17.532
  176MPD1    H2 2686   4.704   3.277  17.289
  176MPD1    H3 2687   4.599   3.356  17.494
  176MPD1     N 2688   4.631   3.780  17.349
  176MPD1    H5 2689   4.659   3.829  17.264
  176MPD1    N1 2690   0.012   3.429  17.099
  176MPD1    H6 2691   0.018   3.503  17.029
  176MPD1    H7 2692   4.781   3.345  17.053
  177MPD1     C 2693   2.916   4.144  10.285
  177MPD1    C1 2694   2.782   4.113  10.302
  177MPD1    C2 2695   2.689   4.148  10.207
  177MPD1    C3 2696   2.723   4.232  10.102
  177MPD1    C4 2697   2.853   4.272  10.091
  177MPD1    C5 2698   2.946   4.230  10.180
  177MPD1     H 2699   2.594   4.096  10.208
  177MPD1    H1 2700   2.878   4.337  10.008
  177MPD1    H2 2701   2.992   4.101  10.349
  177MPD1    H3 2702   3.047   4.269  10.169
  177MPD1     N 2703   2.625   4.267  10.003
  177MPD1    H5 2704   2.541   4.211  10.000
  177MPD1    N1 2705   2.746   3.995  10.376
  177MPD1    H6 2706   2.648   3.979  10.396
  177MPD1    H7 2707   2.799   3.982  10.462
  178MPD1     C 2708   0.760   0.062  18.006
  178MPD1    C1 2709   0.647   0.019  17.940
  178MPD1    C2 2710   0.656   4.736  17.834
  178MPD1    C3 2711   0.780   4.682  17.795
  178MPD1    C4 2712   0.887   4.718  17.873
  178MPD1    C5 2713   0.880   0.003  17.977
  178MPD1     H 2714   0.568   4.729  17.771
  178MPD1    H1 2715   0.987   4.680  17.854
  178MPD1    H2 2716   0.747   0.131  18.089
  178MPD1    H3 2717   0.964   0.042  18.032
  178MPD1     N 2718   0.797   4.619  17.671
  178MPD1    H5 2719   0.896   4.614  17.646
  178MPD1    N1 2720   0.521   0.075  17.966
  178MPD1    H6 2721   0.501   0.122  18.054
  178MPD1    H7 2722   0.439   0.018  17.945
  179MPD1     C 2723   0.602   2.998  15.827
  179MPD1    C1 2724   0.479   2.963  15.772
  179MPD1    C2 2725   0.438   2.835  15.790
  179MPD1    C3 2726   0.522   2.740  15.852
  179MPD1    C4 2727   0.650   2.776  15.894
  179MPD1    C5 2728   0.690   2.904  15.877
  179MPD1     H 2729   0.339   2.808  15.756
  179MPD1    H1 2730   0.710   2.697  15.938
  179MPD1    H2 2731   0.644   3.098  15.829
  179MPD1    H3 2732   0.793   2.924  15.903
  179MPD1     N 2733   0.475   2.612  15.885
  179MPD1    H5 2734   0.545   2.550  15.923
  179MPD1    N1 2735   0.385   3.056  15.734
  179MPD1    H6 2736   0.342   3.021  15.649
  179MPD1    H7 2737   0.433   3.142  15.710
  180MPD1     C 2738   0.207   4.122  14.822
  180MPD1    C1 2739   0.243   4.181  14.701
  180MPD1    C2 2740   0.146   4.233  14.618
  180MPD1    C3 2741   0.011   4.222  14.646
  180MPD1    C4 2742   4.776   4.166  14.769
  180MPD1    C5 2743   0.070   4.122  14.853
  180MPD1     H 2744   0.175   4.292  14.532
  180MPD1    H1 2745   4.672   4.166  14.801
  180MPD1    H2 2746   0.270   4.088  14.903
  180MPD1    H3 2747   0.040   4.082  14.950
  180MPD1     N 2748   4.731   4.281  14.549
  180MPD1    H5 2749   4.778   4.313  14.465
  180MPD1    N1 2750   0.380   4.173  14.660
  180MPD1    H6 2751   0.416   4.247  14.600
  180MPD1    H7 2752   0.443   4.149  14.737
  181MPD1     C 2753   1.804   1.435   9.752
  181MPD1    C1 2754   1.731   1.505   9.846
  181MPD1    C2 2755   1.758   1.492   9.978
  181MPD1    C3 2756   1.838   1.384  10.016
  181MPD1    C4 2757   1.902   1.302   9.927
  181MPD1    C5 2758   1.879   1.326   9.793
  181MPD1     H 2759   1.709   1.563  10.044
  181MPD1    H1 2760   1.973   1.223   9.949
  181MPD1    H2 2761   1.800   1.456   9.646
  181MPD1    H3 2762   1.934   1.270   9.718
  181MPD1     N 2763   1.869   1.361  10.155
  181MPD1    H5 2764   1.936   1.288  10.179
  181MPD1    N1 2765   1.645   1.615   9.809
  181MPD1    H6 2766   1.569   1.620   9.876
  181MPD1    H7 2767   1.600   1.611   9.718
  182MPD1     C 2768   2.322   0.298  19.401
  182MPD1    C1 2769   2.358   0.166  19.375
  182MPD1    C2 2770   2.379   0.139  19.240
  182MPD1    C3 2771   2.367   0.230  19.137
  182MPD1    C4 2772   2.320   0.350  19.171
  182MPD1    C5 2773   2.291   0.387  19.302
  182MPD1     H 2774   2.408   0.036  19.223
  182MPD1    H1 2775   2.310   0.425  19.093
  182MPD1    H2 2776   2.324   0.343  19.500
  182MPD1    H3 2777   2.255   0.488  19.320
  182MPD1     N 2778   2.405   0.204  19.004
  182MPD1    H5 2779   2.377   0.271  18.933
  182MPD1    N1 2780   2.377   0.059  19.474
  182MPD1    H6 2781   2.320   0.095  19.550
  182MPD1    H7 2782   2.354   4.770  19.442
  183MPD1     C 2783   2.845   0.671   8.992
  183MPD1    C1 2784   2.955   0.667   9.067
  183MPD1    C2 2785   2.977   0.756   9.172
  183MPD1    C3 2786   2.877   0.847   9.201
  183MPD1    C4 2787   2.753   0.834   9.139
  183MPD1    C5 2788   2.745   0.739   9.041
  183MPD1     H 2789   3.076   0.771   9.213
  183MPD1    H1 2790   2.664   0.892   9.160
  183MPD1    H2 2791   2.832   0.613   8.901
  183MPD1    H3 2792   2.648   0.732   8.993
  183MPD1     N 2793   2.905   0.948   9.301
  183MPD1    H5 2794   3.002   0.956   9.331
  183MPD1    N1 2795   3.066   0.590   9.022
  183MPD1    H6 2796   3.146   0.583   9.084
  183MPD1    H7 2797   3.037   0.500   8.985
  184MPD1     C 2798   1.818   3.609  10.516
  184MPD1    C1 2799   1.757   3.576  10.397
  184MPD1    C2 2800   1.803   3.642  10.288
  184MPD1    C3 2801   1.885   3.747  10.289
  184MPD1    C4 2802   1.939   3.789  10.411
  184MPD1    C5 2803   1.905   3.714  10.524
  184MPD1     H 2804   1.758   3.613  10.194
  184MPD1    H1 2805   1.999   3.878  10.425
  184MPD1    H2 2806   1.784   3.564  10.608
  184MPD1    H3 2807   1.946   3.745  10.620
  184MPD1     N 2808   1.920   3.825  10.180
  184MPD1    H5 2809   1.972   3.911  10.195
  184MPD1    N1 2810   1.681   3.461  10.390
  184MPD1    H6 2811   1.617   3.454  10.469
  184MPD1    H7 2812   1.621   3.467  10.308
  185MPD1     C 2813   1.806   4.131   9.128
  185MPD1    C1 2814   1.736   4.032   9.192
  185MPD1    C2 2815   1.761   4.014   9.334
  185MPD1    C3 2816   1.880   4.076   9.381
  185MPD1    C4 2817   1.957   4.150   9.303
  185MPD1    C5 2818   1.922   4.180   9.171
  185MPD1     H 2819   1.696   3.958   9.400
  185MPD1    H1 2820   2.054   4.191   9.328
  185MPD1    H2 2821   1.778   4.165   9.029
  185MPD1    H3 2822   1.986   4.245   9.112
  185MPD1     N 2823   1.931   4.059   9.513
  185MPD1    H5 2824   2.003   4.123   9.544
  185MPD1    N1 2825   1.619   3.980   9.131
  185MPD1    H6 2826   1.628   3.973   9.030
  185MPD1    H7 2827   1.577   3.899   9.176
  186MPD1     C 2828   0.956   2.454  16.036
  186MPD1    C1 2829   0.983   2.580  15.982
  186MPD1    C2 2830   0.960   2.687  16.061
  186MPD1    C3 2831   0.921   2.673  16.192
  186MPD1    C4 2832   0.902   2.546  16.245
  186MPD1    C5 2833   0.919   2.440  16.166
  186MPD1     H 2834   0.974   2.786  16.018
  186MPD1    H1 2835   0.870   2.534  16.348
  186MPD1    H2 2836   0.957   2.359  15.984
  186MPD1    H3 2837   0.909   2.340  16.207
  186MPD1     N 2838   0.866   2.784  16.260
  186MPD1    H5 2839   0.809   2.755  16.339
  186MPD1    N1 2840   1.006   2.597  15.846
  186MPD1    H6 2841   1.054   2.685  15.830
  186MPD1    H7 2842   1.048   2.513  15.807
  187MPD1     C 2843   4.426   0.387  18.311
  187MPD1    C1 2844   4.424   0.266  18.255
  187MPD1    C2 2845   4.489   0.244  18.135
  187MPD1    C3 2846   4.530   0.346  18.058
  187MPD1    C4 2847   4.522   0.470  18.116
  187MPD1    C5 2848   4.467   0.491  18.234
  187MPD1     H 2849   4.505   0.140  18.110
  187MPD1    H1 2850   4.579   0.551  18.072
  187MPD1    H2 2851   4.388   0.410  18.410
  187MPD1    H3 2852   4.467   0.593  18.271
  187MPD1     N 2853   4.592   0.336  17.929
  187MPD1    H5 2854   4.624   0.424  17.889
  187MPD1    N1 2855   4.385   0.162  18.330
  187MPD1    H6 2856   4.294   0.176  18.372
  187MPD1    H7 2857   4.374   0.075  18.278
  188MPD1     C 2858   4.785   0.144   9.117
  188MPD1    C1 2859   4.661   0.088   9.109
  188MPD1    C2 2860   4.585   0.065   9.216
  188MPD1    C3 2861   4.638   0.080   9.343
  188MPD1    C4 2862   4.772   0.119   9.361
  188MPD1    C5 2863   0.032   0.150   9.239
  188MPD1     H 2864   4.479   0.049   9.201
  188MPD1    H1 2865   0.009   0.142   9.459
  188MPD1    H2 2866   0.035   0.180   9.031
  188MPD1    H3 2867   0.134   0.181   9.258
  188MPD1     N 2868   4.555   0.047   9.450
  188MPD1    H5 2869   4.600   0.045   9.541
  188MPD1    N1 2870   4.608   0.076   8.984
  188MPD1    H6 2871   4.672   0.048   8.910
  188MPD1    H7 2872   4.522   0.022   8.978
  189MPD1     C 2873   1.482   0.749  18.786
  189MPD1    C1 2874   1.499   0.884  18.786
  189MPD1    C2 2875   1.413   0.964  18.710
  189MPD1    C3 2876   1.300   0.908  18.647
  189MPD1    C4 2877   1.284   0.771  18.663
  189MPD1    C5 2878   1.375   0.695  18.719
  189MPD1     H 2879   1.431   1.070  18.710
  189MPD1    H1 2880   1.199   0.721  18.619
  189MPD1    H2 2881   1.544   0.675  18.835
  189MPD1    H3 2882   1.360   0.588  18.723
  189MPD1     N 2883   1.204   0.989  18.578
  189MPD1    H5 2884   1.225   1.088  18.566
  189MPD1    N1 2885   1.612   0.938  18.845
  189MPD1    H6 2886   1.666   0.878  18.907
  189MPD1    H7 2887   1.631   1.033  18.878
  190MPD1     C 2888   4.793   3.839  15.545
  190MPD1    C1 2889   4.793   3.852  15.685
  190MPD1    C2 2890   0.099   3.911  15.745
  190MPD1    C3 2891   0.203   3.966  15.672
  190MPD1    C4 2892   0.198   3.944  15.535
  190MPD1    C5 2893   0.087   3.890  15.475
  190MPD1     H 2894   0.092   3.927  15.852
  190MPD1    H1 2895   0.287   3.963  15.476
  190MPD1    H2 2896   4.721   3.786  15.485
  190MPD1    H3 2897   0.088   3.878  15.367
  190MPD1     N 2898   0.313   4.022  15.743
  190MPD1    H5 2899   0.307   4.018  15.844
  190MPD1    N1 2900   4.691   3.782  15.748
  190MPD1    H6 2901   4.606   3.781  15.692
  190MPD1    H7 2902   4.679   3.829  15.838
  191MPD1     C 2903   0.084   1.051  13.046
  191MPD1    C1 2904   4.774   0.976  13.028
  191MPD1    C2 2905   4.698   0.989  12.916
  191MPD1    C3 2906   4.751   1.075  12.817
  191MPD1    C4 2907   0.057   1.153  12.835
  191MPD1    C5 2908   0.128   1.134  12.949
  191MPD1     H 2909   4.608   0.931  12.898
  191MPD1    H1 2910   0.089   1.236  12.773
  191MPD1    H2 2911   0.150   1.051  13.133
  191MPD1    H3 2912   0.221   1.189  12.964
  191MPD1     N 2913   4.670   1.093  12.701
  191MPD1    H5 2914   4.591   1.029  12.698
  191MPD1    N1 2915   4.722   0.903  13.136
  191MPD1    H6 2916   4.792   0.878  13.205
  191MPD1    H7 2917   4.667   0.822  13.106
  192MPD1     C 2918   4.093   1.794  12.648
  192MPD1    C1 2919   4.091   1.743  12.518
  192MPD1    C2 2920   4.196   1.663  12.476
  192MPD1    C3 2921   4.286   1.610  12.567
  192MPD1    C4 2922   4.276   1.645  12.701
  192MPD1    C5 2923   4.191   1.751  12.735
  192MPD1     H 2924   4.185   1.632  12.373
  192MPD1    H1 2925   4.347   1.605  12.772
  192MPD1    H2 2926   4.019   1.870  12.671
  192MPD1    H3 2927   4.189   1.792  12.835
  192MPD1     N 2928   4.381   1.512  12.527
  192MPD1    H5 2929   4.459   1.489  12.588
  192MPD1    N1 2930   4.005   1.806  12.426
  192MPD1    H6 2931   3.915   1.833  12.466
  192MPD1    H7 2932   3.988   1.739  12.351
  193MPD1     C 2933   4.056   1.243  16.304
  193MPD1    C1 2934   4.041   1.377  16.337
  193MPD1    C2 2935   4.121   1.447  16.430
  193MPD1    C3 2936   4.195   1.373  16.513
  193MPD1    C4 2937   4.197   1.236  16.498
  193MPD1    C5 2938   4.130   1.177  16.400
  193MPD1     H 2939   4.122   1.555  16.434
  193MPD1    H1 2940   4.252   1.175  16.570
  193MPD1    H2 2941   4.010   1.179  16.230
  193MPD1    H3 2942   4.126   1.069  16.405
  193MPD1     N 2943   4.267   1.431  16.617
  193MPD1    H5 2944   4.332   1.363  16.653
  193MPD1    N1 2945   3.967   1.454  16.244
  193MPD1    H6 2946   3.897   1.398  16.195
  193MPD1    H7 2947   3.912   1.522  16.298
  194MPD1     C 2948   1.868   4.197  17.036
  194MPD1    C1 2949   1.805   4.094  16.977
  194MPD1    C2 2950   1.855   3.970  16.995
  194MPD1    C3 2951   1.981   3.954  17.060
  194MPD1    C4 2952   2.050   4.062  17.112
  194MPD1    C5 2953   1.993   4.185  17.100
  194MPD1     H 2954   1.795   3.882  16.972
  194MPD1    H1 2955   2.146   4.048  17.159
  194MPD1    H2 2956   1.824   4.296  17.026
  194MPD1    H3 2957   2.047   4.274  17.131
  194MPD1     N 2958   2.040   3.826  17.065
  194MPD1    H5 2959   2.124   3.813  17.120
  194MPD1    N1 2960   1.672   4.120  16.941
  194MPD1    H6 2961   1.662   4.210  16.893
  194MPD1    H7 2962   1.633   4.057  16.872
  195MPD1     C 2963   4.286   0.991  18.105
  195MPD1    C1 2964   4.163   0.944  18.144
  195MPD1    C2 2965   4.127   0.813  18.110
  195MPD1    C3 2966   4.214   0.731  18.038
  195MPD1    C4 2967   4.331   0.787  17.993
  195MPD1    C5 2968   4.371   0.915  18.031
  195MPD1     H 2969   4.025   0.781  18.131
  195MPD1    H1 2970   4.390   0.726  17.925
  195MPD1    H2 2971   4.311   1.095  18.122
  195MPD1    H3 2972   4.464   0.965  18.006
  195MPD1     N 2973   4.189   0.591  18.005
  195MPD1    H5 2974   4.258   0.543  17.948
  195MPD1    N1 2975   4.082   1.020  18.232
  195MPD1    H6 2976   3.986   0.987  18.231
  195MPD1    H7 2977   4.076   1.121  18.219
  196MPD1     C 2978   3.006   4.164  18.383
  196MPD1    C1 2979   3.044   4.273  18.311
  196MPD1    C2 2980   3.137   4.362  18.363
  196MPD1    C3 2981   3.191   4.345  18.488
  196MPD1    C4 2982   3.149   4.236  18.558
  196MPD1    C5 2983   3.062   4.143  18.505
  196MPD1     H 2984   3.162   4.448  18.303
  196MPD1    H1 2985   3.199   4.212  18.651
  196MPD1    H2 2986   2.928   4.097  18.347
  196MPD1    H3 2987   3.057   4.047  18.555
  196MPD1     N 2988   3.284   4.428  18.552
  196MPD1    H5 2989   3.298   4.406  18.650
  196MPD1    N1 2990   2.999   4.292  18.176
  196MPD1    H6 2991   2.913   4.245  18.151
  196MPD1    H7 2992   2.995   4.384  18.135
  197MPD1     C 2993   3.272   2.495  17.962
  197MPD1    C1 2994   3.230   2.624  17.925
  197MPD1    C2 2995   3.192   2.636  17.794
  197MPD1    C3 2996   3.195   2.526  17.705
  197MPD1    C4 2997   3.222   2.400  17.744
  197MPD1    C5 2998   3.265   2.384  17.876
  197MPD1     H 2999   3.162   2.737  17.766
  197MPD1    H1 3000   3.219   2.318  17.673
  197MPD1    H2 3001   3.288   2.468  18.065
  197MPD1    H3 3002   3.280   2.285  17.917
  197MPD1     N 3003   3.143   2.545  17.571
  197MPD1    H5 3004   3.117   2.463  17.518
  197MPD1    N1 3005   3.187   2.713  18.019
  197MPD1    H6 3006   3.239   2.716  18.107
  197MPD1    H7 3007   3.198   2.807  17.982
  198MPD1     C 3008   0.470   0.048  15.307
  198MPD1    C1 3009   0.463   0.184  15.351
  198MPD1    C2 3010   0.384   0.212  15.457
  198MPD1    C3 3011   0.328   0.110  15.529
  198MPD1    C4 3012   0.342   4.783  15.493
  198MPD1    C5 3013   0.416   4.752  15.387
  198MPD1     H 3014   0.365   0.313  15.491
  198MPD1    H1 3015   0.302   4.703  15.555
  198MPD1    H2 3016   0.514   0.029  15.211
  198MPD1    H3 3017   0.435   4.647  15.368
  198MPD1     N 3018   0.240   0.151  15.640
  198MPD1    H5 3019   0.231   0.251  15.654
  198MPD1    N1 3020   0.515   0.283  15.272
  198MPD1    H6 3021   0.526   0.366  15.330
  198MPD1    H7 3022   0.602   0.256  15.228
  199MPD1     C 3023   2.288   1.650  10.153
  199MPD1    C1 3024   2.266   1.751  10.244
  199MPD1    C2 3025   2.148   1.827  10.236
  199MPD1    C3 3026   2.052   1.810  10.130
  199MPD1    C4 3027   2.074   1.706  10.040
  199MPD1    C5 3028   2.190   1.631  10.051
  199MPD1     H 3029   2.128   1.895  10.318
  199MPD1    H1 3030   2.005   1.680   9.960
  199MPD1    H2 3031   2.375   1.586  10.153
  199MPD1    H3 3032   2.211   1.547   9.986
  199MPD1     N 3033   1.948   1.900  10.106
  199MPD1    H5 3034   1.889   1.876  10.027
  199MPD1    N1 3035   2.346   1.760  10.357
  199MPD1    H6 3036   2.349   1.856  10.389
  199MPD1    H7 3037   2.441   1.724  10.344
  200MPD1     C 3038   0.773   1.709  15.304
  200MPD1    C1 3039   0.811   1.687  15.172
  200MPD1    C2 3040   0.944   1.716  15.141
  200MPD1    C3 3041   1.041   1.751  15.235
  200MPD1    C4 3042   1.003   1.744  15.368
  200MPD1    C5 3043   0.868   1.735  15.395
  200MPD1     H 3044   0.964   1.697  15.036
  200MPD1    H1 3045   1.081   1.761  15.441
  200MPD1    H2 3046   0.674   1.708  15.349
  200MPD1    H3 3047   0.835   1.727  15.498
  200MPD1     N 3048   1.174   1.741  15.184
  200MPD1    H5 3049   1.180   1.720  15.085
  200MPD1    N1 3050   0.713   1.674  15.070
  200MPD1    H6 3051   0.633   1.615  15.093
  200MPD1    H7 3052   0.763   1.645  14.986
  201MPD1     C 3053   3.460   1.195  13.659
  201MPD1    C1 3054   3.354   1.108  13.638
  201MPD1    C2 3055   3.381   0.978  13.681
  201MPD1    C3 3056   3.504   0.938  13.730
  201MPD1    C4 3057   3.607   1.028  13.744
  201MPD1    C5 3058   3.584   1.156  13.707
  201MPD1     H 3059   3.298   0.909  13.675
  201MPD1    H1 3060   3.698   1.003  13.797
  201MPD1    H2 3061   3.451   1.302  13.646
  201MPD1    H3 3062   3.658   1.229  13.740
  201MPD1     N 3063   3.519   0.799  13.752
  201MPD1    H5 3064   3.437   0.741  13.733
  201MPD1    N1 3065   3.228   1.151  13.608
  201MPD1    H6 3066   3.170   1.085  13.557
  201MPD1    H7 3067   3.229   1.235  13.549
  202MPD1     C 3068   2.887   0.079   9.282
  202MPD1    C1 3069   2.975   4.784   9.316
  202MPD1    C2 3070   3.062   0.006   9.421
  202MPD1    C3 3071   3.059   0.128   9.493
  202MPD1    C4 3072   2.967   0.220   9.460
  202MPD1    C5 3073   2.880   0.192   9.362
  202MPD1     H 3074   3.138   4.735   9.437
  202MPD1    H1 3075   2.949   0.312   9.514
  202MPD1    H2 3076   2.827   0.067   9.193
  202MPD1    H3 3077   2.811   0.268   9.329
  202MPD1     N 3078   3.137   0.157   9.608
  202MPD1    H5 3079   3.139   0.249   9.651
  202MPD1    N1 3080   3.000   4.671   9.235
  202MPD1    H6 3081   3.038   4.590   9.283
  202MPD1    H7 3082   2.920   4.651   9.176
  203MPD1     C 3083   2.424   1.377  12.801
  203MPD1    C1 3084   2.500   1.297  12.711
  203MPD1    C2 3085   2.535   1.168  12.745
  203MPD1    C3 3086   2.506   1.119  12.874
  203MPD1    C4 3087   2.438   1.200  12.963
  203MPD1    C5 3088   2.400   1.327  12.924
  203MPD1     H 3089   2.591   1.111  12.672
  203MPD1    H1 3090   2.403   1.161  13.058
  203MPD1    H2 3091   2.384   1.472  12.769
  203MPD1    H3 3092   2.338   1.387  12.989
  203MPD1     N 3093   2.546   0.987  12.903
  203MPD1    H5 3094   2.588   0.930  12.830
  203MPD1    N1 3095   2.516   1.337  12.579
  203MPD1    H6 3096   2.605   1.317  12.534
  203MPD1    H7 3097   2.507   1.439  12.570
  204MPD1     C 3098   1.728   2.296  18.356
  204MPD1    C1 3099   1.822   2.320  18.261
  204MPD1    C2 3100   1.862   2.213  18.180
  204MPD1    C3 3101   1.803   2.088  18.192
  204MPD1    C4 3102   1.702   2.062  18.288
  204MPD1    C5 3103   1.674   2.175  18.374
  204MPD1     H 3104   1.945   2.219  18.110
  204MPD1    H1 3105   1.643   1.971  18.299
  204MPD1    H2 3106   1.678   2.376  18.410
  204MPD1    H3 3107   1.581   2.178  18.429
  204MPD1     N 3108   1.846   1.983  18.102
  204MPD1    H5 3109   1.925   2.004  18.042
  204MPD1    N1 3110   1.896   2.434  18.261
  204MPD1    H6 3111   1.926   2.462  18.168
  204MPD1    H7 3112   1.849   2.513  18.304
  205MPD1     C 3113   2.230   0.894  16.901
  205MPD1    C1 3114   2.262   0.777  16.964
  205MPD1    C2 3115   2.200   0.758  17.089
  205MPD1    C3 3116   2.108   0.849  17.142
  205MPD1    C4 3117   2.074   0.958  17.074
  205MPD1    C5 3118   2.139   0.981  16.956
  205MPD1     H 3119   2.223   0.675  17.154
  205MPD1    H1 3120   1.992   1.020  17.107
  205MPD1    H2 3121   2.264   0.916  16.801
  205MPD1    H3 3122   2.116   1.065  16.893
  205MPD1     N 3123   2.054   0.829  17.266
  205MPD1    H5 3124   2.006   0.911  17.302
  205MPD1    N1 3125   2.313   0.664  16.899
  205MPD1    H6 3126   2.382   0.687  16.828
  205MPD1    H7 3127   2.364   0.605  16.965
  206MPD1     C 3128   2.610   4.127  17.067
  206MPD1    C1 3129   2.620   4.018  16.978
  206MPD1    C2 3130   2.501   3.967  16.923
  206MPD1    C3 3131   2.377   4.032  16.936
  206MPD1    C4 3132   2.375   4.145  17.013
  206MPD1    C5 3133   2.488   4.190  17.081
  206MPD1     H 3134   2.508   3.877  16.862
  206MPD1    H1 3135   2.290   4.211  17.021
  206MPD1    H2 3136   2.693   4.151  17.132
  206MPD1    H3 3137   2.482   4.272  17.152
  206MPD1     N 3138   2.260   3.980  16.881
  206MPD1    H5 3139   2.180   4.037  16.902
  206MPD1    N1 3140   2.738   3.952  16.966
  206MPD1    H6 3141   2.744   3.892  16.884
  206MPD1    H7 3142   2.819   4.014  16.959
  207MPD1     C 3143   4.285   1.595  10.292
  207MPD1    C1 3144   4.378   1.677  10.237
  207MPD1    C2 3145   4.501   1.696  10.295
  207MPD1    C3 3146   4.534   1.617  10.398
  207MPD1    C4 3147   4.433   1.534  10.462
  207MPD1    C5 3148   4.319   1.523  10.404
  207MPD1     H 3149   4.582   1.747  10.244
  207MPD1    H1 3150   4.448   1.473  10.550
  207MPD1    H2 3151   4.187   1.578  10.249
  207MPD1    H3 3152   4.247   1.450  10.438
  207MPD1     N 3153   4.650   1.638  10.482
  207MPD1    H5 3154   4.642   1.597  10.575
  207MPD1    N1 3155   4.353   1.742  10.110
  207MPD1    H6 3156   4.429   1.807  10.090
  207MPD1    H7 3157   4.259   1.766  10.079
  208MPD1     C 3158   2.702   0.231  17.372
  208MPD1    C1 3159   2.708   0.223  17.510
  208MPD1    C2 3160   2.621   0.140  17.573
  208MPD1    C3 3161   2.538   0.051  17.503
  208MPD1    C4 3162   2.531   0.058  17.366
  208MPD1    C5 3163   2.619   0.145  17.304
  208MPD1     H 3164   2.608   0.147  17.680
  208MPD1    H1 3165   2.476   4.791  17.306
  208MPD1    H2 3166   2.755   0.294  17.302
  208MPD1    H3 3167   2.626   0.142  17.196
  208MPD1     N 3168   2.457   4.766  17.585
  208MPD1    H5 3169   2.480   4.769  17.684
  208MPD1    N1 3170   2.774   0.326  17.581
  208MPD1    H6 3171   2.805   0.301  17.675
  208MPD1    H7 3172   2.851   0.377  17.539
  209MPD1     C 3173   0.151   0.367  11.523
  209MPD1    C1 3174   0.193   0.400  11.393
  209MPD1    C2 3175   0.257   0.522  11.379
  209MPD1    C3 3176   0.286   0.601  11.485
  209MPD1    C4 3177   0.269   0.546  11.612
  209MPD1    C5 3178   0.202   0.436  11.631
  209MPD1     H 3179   0.272   0.563  11.279
  209MPD1    H1 3180   0.309   0.589  11.703
  209MPD1    H2 3181   0.107   0.273  11.551
  209MPD1    H3 3182   0.193   0.392  11.730
  209MPD1     N 3183   0.339   0.733  11.461
  209MPD1    H5 3184   0.352   0.754  11.362
  209MPD1    N1 3185   0.147   0.327  11.280
  209MPD1    H6 3186   0.130   0.229  11.304
  209MPD1    H7 3187   0.207   0.330  11.198
  210MPD1     C 3188   1.120   1.451  11.498
  210MPD1    C1 3189   1.081   1.388  11.613
  210MPD1    C2 3190   0.956   1.327  11.613
  210MPD1    C3 3191   0.883   1.327  11.497
  210MPD1    C4 3192   0.926   1.395  11.384
  210MPD1    C5 3193   1.045   1.452  11.385
  210MPD1     H 3194   0.920   1.286  11.706
  210MPD1    H1 3195   0.880   1.392  11.286
  210MPD1    H2 3196   1.222   1.489  11.491
  210MPD1    H3 3197   1.082   1.490  11.290
  210MPD1     N 3198   0.762   1.252  11.474
  210MPD1    H5 3199   0.722   1.247  11.381
  210MPD1    N1 3200   1.174   1.389  11.718
  210MPD1    H6 3201   1.264   1.390  11.671
  210MPD1    H7 3202   1.159   1.296  11.755
  211MPD1     C 3203   2.615   0.351  16.772
  211MPD1    C1 3204   2.653   0.477  16.725
  211MPD1    C2 3205   2.561   0.555  16.660
  211MPD1    C3 3206   2.429   0.502  16.637
  211MPD1    C4 3207   2.404   0.370  16.670
  211MPD1    C5 3208   2.493   0.300  16.738
  211MPD1     H 3209   2.588   0.654  16.625
  211MPD1    H1 3210   2.309   0.319  16.654
  211MPD1    H2 3211   2.686   0.297  16.834
  211MPD1    H3 3212   2.478   0.195  16.762
  211MPD1     N 3213   2.338   0.571  16.550
  211MPD1    H5 3214   2.371   0.658  16.509
  211MPD1    N1 3215   2.778   0.535  16.763
  211MPD1    H6 3216   2.853   0.468  16.779
  211MPD1    H7 3217   2.802   0.598  16.686
  212MPD1     C 3218   1.568   3.952  16.679
  212MPD1    C1 3219   1.468   4.033  16.720
  212MPD1    C2 3220   1.372   3.980  16.801
  212MPD1    C3 3221   1.384   3.857  16.857
  212MPD1    C4 3222   1.489   3.779  16.826
  212MPD1    C5 3223   1.584   3.832  16.739
  212MPD1     H 3224   1.288   4.042  16.830
  212MPD1    H1 3225   1.516   3.683  16.868
  212MPD1    H2 3226   1.651   3.977  16.614
  212MPD1    H3 3227   1.670   3.773  16.709
  212MPD1     N 3228   1.288   3.794  16.946
  212MPD1    H5 3229   1.322   3.709  16.992
  212MPD1    N1 3230   1.452   4.156  16.650
  212MPD1    H6 3231   1.369   4.209  16.676
  212MPD1    H7 3232   1.537   4.212  16.656
  213MPD1     C 3233   4.792   4.253  15.671
  213MPD1    C1 3234   0.017   4.347  15.577
  213MPD1    C2 3235   4.715   4.417  15.521
  213MPD1    C3 3236   4.582   4.391  15.550
  213MPD1    C4 3237   4.552   4.295  15.643
  213MPD1    C5 3238   4.655   4.225  15.705
  213MPD1     H 3239   4.730   4.506  15.461
  213MPD1    H1 3240   4.448   4.272  15.667
  213MPD1    H2 3241   0.069   4.198  15.715
  213MPD1    H3 3242   4.635   4.139  15.769
  213MPD1     N 3243   4.479   4.459  15.470
  213MPD1    H5 3244   4.519   4.515  15.395
  213MPD1    N1 3245   0.145   4.395  15.574
  213MPD1    H6 3246   0.148   4.458  15.494
  213MPD1    H7 3247   0.210   4.322  15.547
  214MPD1     C 3248   3.468   4.214  15.499
  214MPD1    C1 3249   3.517   4.214  15.370
  214MPD1    C2 3250   3.641   4.279  15.344
  214MPD1    C3 3251   3.708   4.347  15.443
  214MPD1    C4 3252   3.654   4.347  15.574
  214MPD1    C5 3253   3.531   4.289  15.599
  214MPD1     H 3254   3.683   4.280  15.244
  214MPD1    H1 3255   3.718   4.405  15.640
  214MPD1    H2 3256   3.377   4.161  15.523
  214MPD1    H3 3257   3.497   4.303  15.701
  214MPD1     N 3258   3.840   4.401  15.422
  214MPD1    H5 3259   3.892   4.439  15.501
  214MPD1    N1 3260   3.462   4.120  15.278
  214MPD1    H6 3261   3.362   4.110  15.290
  214MPD1    H7 3262   3.484   4.138  15.180
  215MPD1     C 3263   4.485   0.098  11.067
  215MPD1    C1 3264   4.587   0.087  11.148
  215MPD1    C2 3265   4.649   0.199  11.199
  215MPD1    C3 3266   4.595   0.324  11.177
  215MPD1    C4 3267   4.481   0.331  11.102
  215MPD1    C5 3268   4.422   0.217  11.045
  215MPD1     H 3269   4.744   0.185  11.251
  215MPD1    H1 3270   4.447   0.429  11.071
  215MPD1    H2 3271   4.442   0.015  11.011
  215MPD1    H3 3272   4.340   0.228  10.975
  215MPD1     N 3273   4.661   0.439  11.234
  215MPD1    H5 3274   4.758   0.424  11.260
  215MPD1    N1 3275   4.647   4.762  11.149
  215MPD1    H6 3276   4.585   4.686  11.121
  215MPD1    H7 3277   4.681   4.726  11.238
  216MPD1     C 3278   1.411   3.773  17.267
  216MPD1    C1 3279   1.461   3.643  17.240
  216MPD1    C2 3280   1.408   3.538  17.304
  216MPD1    C3 3281   1.307   3.550  17.400
  216MPD1    C4 3282   1.267   3.675  17.437
  216MPD1    C5 3283   1.321   3.788  17.370
  216MPD1     H 3284   1.447   3.441  17.274
  216MPD1    H1 3285   1.200   3.690  17.520
  216MPD1    H2 3286   1.437   3.858  17.205
  216MPD1    H3 3287   1.288   3.885  17.405
  216MPD1     N 3288   1.258   3.429  17.462
  216MPD1    H5 3289   1.289   3.343  17.418
  216MPD1    N1 3290   1.540   3.619  17.123
  216MPD1    H6 3291   1.584   3.528  17.114
  216MPD1    H7 3292   1.616   3.687  17.122
  217MPD1     C 3293   1.669   0.265   8.800
  217MPD1    C1 3294   1.621   0.297   8.926
  217MPD1    C2 3295   1.716   0.328   9.020
  217MPD1    C3 3296   1.852   0.327   8.993
  217MPD1    C4 3297   1.899   0.289   8.871
  217MPD1    C5 3298   1.803   0.258   8.777
  217MPD1     H 3299   1.685   0.363   9.117
  217MPD1    H1 3300   2.005   0.278   8.851
  217MPD1    H2 3301   1.591   0.249   8.726
  217MPD1    H3 3302   1.846   0.226   8.682
  217MPD1     N 3303   1.956   0.364   9.086
  217MPD1    H5 3304   2.054   0.357   9.060
  217MPD1    N1 3305   1.491   0.346   8.942
  217MPD1    H6 3306   1.423   0.286   8.894
  217MPD1    H7 3307   1.464   0.356   9.039
  218MPD1     C 3308   3.810   1.496  13.056
  218MPD1    C1 3309   3.920   1.529  12.972
  218MPD1    C2 3310   3.986   1.424  12.911
  218MPD1    C3 3311   3.948   1.290  12.925
  218MPD1    C4 3312   3.840   1.268  13.010
  218MPD1    C5 3313   3.778   1.369  13.074
  218MPD1     H 3314   4.069   1.455  12.848
  218MPD1    H1 3315   3.812   1.170  13.049
  218MPD1    H2 3316   3.749   1.569  13.108
  218MPD1    H3 3317   3.709   1.340  13.152
  218MPD1     N 3318   4.024   1.195  12.863
  218MPD1    H5 3319   4.094   1.234  12.801
  218MPD1    N1 3320   3.986   1.655  12.975
  218MPD1    H6 3321   4.022   1.682  12.884
  218MPD1    H7 3322   3.920   1.725  13.009
  219MPD1     C 3323   4.434   1.070  11.988
  219MPD1    C1 3324   4.376   1.175  12.055
  219MPD1    C2 3325   4.315   1.131  12.174
  219MPD1    C3 3326   4.321   1.004  12.225
  219MPD1    C4 3327   4.392   0.911  12.159
  219MPD1    C5 3328   4.445   0.944  12.038
  219MPD1     H 3329   4.261   1.206  12.231
  219MPD1    H1 3330   4.400   0.808  12.195
  219MPD1    H2 3331   4.469   1.083  11.887
  219MPD1    H3 3332   4.490   0.866  11.979
  219MPD1     N 3333   4.269   0.975  12.357
  219MPD1    H5 3334   4.287   0.882  12.394
  219MPD1    N1 3335   4.349   1.302  12.001
  219MPD1    H6 3336   4.331   1.370  12.075
  219MPD1    H7 3337   4.422   1.333  11.937
  220MPD1     C 3338   4.045   2.071  10.303
  220MPD1    C1 3339   4.060   2.085  10.442
  220MPD1    C2 3340   4.077   1.977  10.522
  220MPD1    C3 3341   4.046   1.848  10.474
  220MPD1    C4 3342   4.015   1.829  10.342
  220MPD1    C5 3343   4.015   1.939  10.263
  220MPD1     H 3344   4.095   1.987  10.629
  220MPD1    H1 3345   4.001   1.728  10.306
  220MPD1    H2 3346   4.050   2.149  10.228
  220MPD1    H3 3347   4.009   1.918  10.157
  220MPD1     N 3348   4.049   1.749  10.571
  220MPD1    H5 3349   4.072   1.780  10.665
  220MPD1    N1 3350   4.084   2.215  10.485
  220MPD1    H6 3351   4.046   2.286  10.424
  220MPD1    H7 3352   4.058   2.227  10.583
  221MPD1     C 3353   1.433   0.049  16.504
  221MPD1    C1 3354   1.522   0.070  16.608
  221MPD1    C2 3355   1.652   0.029  16.589
  221MPD1    C3 3356   1.694   4.794  16.462
  221MPD1    C4 3357   1.601   4.789  16.359
  221MPD1    C5 3358   1.473   0.016  16.378
  221MPD1     H 3359   1.722   0.049  16.670
  221MPD1    H1 3360   1.631   4.764  16.258
  221MPD1    H2 3361   1.325   0.055  16.505
  221MPD1    H3 3362   1.404   0.021  16.295
  221MPD1     N 3363   1.819   4.736  16.433
  221MPD1    H5 3364   1.840   4.709  16.338
  221MPD1    N1 3365   1.467   0.114  16.729
  221MPD1    H6 3366   1.539   0.169  16.775
  221MPD1    H7 3367   1.378   0.163  16.733
  222MPD1     C 3368   0.690   3.467  17.885
  222MPD1    C1 3369   0.764   3.526  17.782
  222MPD1    C2 3370   0.785   3.662  17.797
  222MPD1    C3 3371   0.749   3.732  17.917
  222MPD1    C4 3372   0.676   3.663  18.014
  222MPD1    C5 3373   0.652   3.528  18.003
  222MPD1     H 3374   0.834   3.711  17.713
  222MPD1    H1 3375   0.645   3.718  18.103
  222MPD1    H2 3376   0.663   3.363  17.869
  222MPD1    H3 3377   0.604   3.467  18.078
  222MPD1     N 3378   0.751   3.871  17.926
  222MPD1    H5 3379   0.691   3.909  17.999
  222MPD1    N1 3380   0.781   3.462  17.656
  222MPD1    H6 3381   0.859   3.503  17.604
  222MPD1    H7 3382   0.780   3.360  17.655
  223MPD1     C 3383   0.183   4.660  18.088
  223MPD1    C1 3384   0.278   4.650  18.185
  223MPD1    C2 3385   0.395   4.580  18.157
  223MPD1    C3 3386   0.416   4.512  18.040
  223MPD1    C4 3387   0.321   4.531  17.940
  223MPD1    C5 3388   0.203   4.592  17.971
  223MPD1     H 3389   0.473   4.577  18.232
  223MPD1    H1 3390   0.330   4.492  17.840
  223MPD1    H2 3391   0.091   4.716  18.089
  223MPD1    H3 3392   0.133   4.594  17.888
  223MPD1     N 3393   0.534   4.435  18.018
  223MPD1    H5 3394   0.606   4.436  18.090
  223MPD1    N1 3395   0.259   4.724  18.303
  223MPD1    H6 3396   0.159   4.737  18.312
  223MPD1    H7 3397   0.297   4.675  18.383
  224MPD1     C 3398   2.275   0.747   9.151
  224MPD1    C1 3399   2.258   0.863   9.224
  224MPD1    C2 3400   2.336   0.877   9.338
  224MPD1    C3 3401   2.439   0.787   9.377
  224MPD1    C4 3402   2.462   0.678   9.293
  224MPD1    C5 3403   2.373   0.661   9.185
  224MPD1     H 3404   2.300   0.959   9.399
  224MPD1    H1 3405   2.534   0.600   9.312
  224MPD1    H2 3406   2.217   0.715   9.066
  224MPD1    H3 3407   2.389   0.570   9.128
  224MPD1     N 3408   2.515   0.801   9.494
  224MPD1    H5 3409   2.585   0.736   9.527
  224MPD1    N1 3410   2.155   0.950   9.187
  224MPD1    H6 3411   2.158   0.951   9.085
  224MPD1    H7 3412   2.178   1.046   9.212
  225MPD1     C 3413   4.212   2.160  12.981
  225MPD1    C1 3414   4.139   2.085  13.069
  225MPD1    C2 3415   4.011   2.039  13.037
  225MPD1    C3 3416   3.962   2.069  12.910
  225MPD1    C4 3417   4.029   2.156  12.825
  225MPD1    C5 3418   4.155   2.192  12.863
  225MPD1     H 3419   3.961   1.972  13.106
  225MPD1    H1 3420   3.984   2.172  12.728
  225MPD1    H2 3421   4.313   2.191  13.002
  225MPD1    H3 3422   4.207   2.264  12.801
  225MPD1     N 3423   3.839   2.013  12.868
  225MPD1    H5 3424   3.795   2.044  12.782
  225MPD1    N1 3425   4.213   2.033  13.174
  225MPD1    H6 3426   4.145   1.997  13.241
  225MPD1    H7 3427   4.267   2.094  13.235
  226MPD1     C 3428   1.973   1.292   9.244
  226MPD1    C1 3429   2.012   1.266   9.377
  226MPD1    C2 3430   2.019   1.375   9.465
  226MPD1    C3 3431   2.002   1.506   9.417
  226MPD1    C4 3432   1.968   1.531   9.285
  226MPD1    C5 3433   1.948   1.422   9.205
  226MPD1     H 3434   2.041   1.362   9.570
  226MPD1    H1 3435   1.955   1.630   9.244
  226MPD1    H2 3436   1.971   1.209   9.174
  226MPD1    H3 3437   1.906   1.430   9.105
  226MPD1     N 3438   2.022   1.613   9.507
  226MPD1    H5 3439   2.069   1.582   9.591
  226MPD1    N1 3440   2.025   1.135   9.433
  226MPD1    H6 3441   2.052   1.065   9.364
  226MPD1    H7 3442   2.076   1.119   9.520
  227MPD1     C 3443   1.644   2.536   9.584
  227MPD1    C1 3444   1.576   2.418   9.596
  227MPD1    C2 3445   1.646   2.304   9.625
  227MPD1    C3 3446   1.779   2.304   9.663
  227MPD1    C4 3447   1.836   2.430   9.677
  227MPD1    C5 3448   1.770   2.543   9.631
  227MPD1     H 3449   1.598   2.207   9.623
  227MPD1    H1 3450   1.928   2.452   9.730
  227MPD1    H2 3451   1.588   2.626   9.563
  227MPD1    H3 3452   1.816   2.641   9.643
  227MPD1     N 3453   1.843   2.181   9.695
  227MPD1    H5 3454   1.790   2.095   9.687
  227MPD1    N1 3455   1.440   2.403   9.558
  227MPD1    H6 3456   1.397   2.330   9.613
  227MPD1    H7 3457   1.382   2.483   9.584
  228MPD1     C 3458   1.100   4.576  12.675
  228MPD1    C1 3459   0.992   4.646  12.617
  228MPD1    C2 3460   0.865   4.599  12.640
  228MPD1    C3 3461   0.838   4.503  12.745
  228MPD1    C4 3462   0.947   4.433  12.803
  228MPD1    C5 3463   1.074   4.475  12.769
  228MPD1     H 3464   0.783   4.654  12.596
  228MPD1    H1 3465   0.937   4.360  12.883
  228MPD1    H2 3466   1.201   4.606  12.648
  228MPD1    H3 3467   1.158   4.427  12.818
  228MPD1     N 3468   0.703   4.487  12.774
  228MPD1    H5 3469   0.639   4.548  12.725
  228MPD1    N1 3470   1.022   4.743  12.517
  228MPD1    H6 3471   1.111   4.786  12.539
  228MPD1    H7 3472   0.949   0.008  12.504
  229MPD1     C 3473   0.428   3.192  14.602
  229MPD1    C1 3474   0.343   3.107  14.669
  229MPD1    C2 3475   0.375   3.081  14.799
  229MPD1    C3 3476   0.501   3.112  14.855
  229MPD1    C4 3477   0.590   3.181  14.777
  229MPD1    C5 3478   0.556   3.218  14.651
  229MPD1     H 3479   0.300   3.030  14.858
  229MPD1    H1 3480   0.691   3.202  14.811
  229MPD1    H2 3481   0.400   3.223  14.502
  229MPD1    H3 3482   0.621   3.276  14.587
  229MPD1     N 3483   0.543   3.066  14.982
  229MPD1    H5 3484   0.635   3.096  15.013
  229MPD1    N1 3485   0.207   3.090  14.620
  229MPD1    H6 3486   0.212   3.084  14.518
  229MPD1    H7 3487   0.163   3.003  14.648
  230MPD1     C 3488   1.087   3.076  15.799
  230MPD1    C1 3489   1.101   2.949  15.760
  230MPD1    C2 3490   1.007   2.893  15.678
  230MPD1    C3 3491   0.908   2.976  15.623
  230MPD1    C4 3492   0.902   3.111  15.657
  230MPD1    C5 3493   0.987   3.159  15.753
  230MPD1     H 3494   1.016   2.788  15.652
  230MPD1    H1 3495   0.834   3.176  15.603
  230MPD1    H2 3496   1.156   3.117  15.872
  230MPD1    H3 3497   0.995   3.266  15.772
  230MPD1     N 3498   0.831   2.917  15.514
  230MPD1    H5 3499   0.824   2.816  15.504
  230MPD1    N1 3500   1.194   2.865  15.824
  230MPD1    H6 3501   1.277   2.911  15.861
  230MPD1    H7 3502   1.221   2.782  15.772
  231MPD1     C 3503   3.500   4.624  15.972
  231MPD1    C1 3504   3.413   4.667  15.881
  231MPD1    C2 3505   3.448   4.670  15.747
  231MPD1    C3 3506   3.585   4.669  15.712
  231MPD1    C4 3507   3.670   4.635  15.811
  231MPD1    C5 3508   3.632   4.614  15.939
  231MPD1     H 3509   3.374   4.702  15.674
  231MPD1    H1 3510   3.777   4.648  15.798
  231MPD1    H2 3511   3.458   4.605  16.070
  231MPD1    H3 3512   3.714   4.598  16.008
  231MPD1     N 3513   3.631   4.704  15.584
  231MPD1    H5 3514   3.562   4.735  15.516
  231MPD1    N1 3515   3.273   4.673  15.914
  231MPD1    H6 3516   3.264   4.684  16.014
  231MPD1    H7 3517   3.219   4.744  15.864
  232MPD1     C 3518   0.607   2.694  18.427
  232MPD1    C1 3519   0.562   2.608  18.328
  232MPD1    C2 3520   0.499   2.495  18.370
  232MPD1    C3 3521   0.486   2.478  18.508
  232MPD1    C4 3522   0.531   2.564  18.604
  232MPD1    C5 3523   0.592   2.674  18.558
  232MPD1     H 3524   0.470   2.407  18.314
  232MPD1    H1 3525   0.517   2.542  18.709
  232MPD1    H2 3526   0.673   2.776  18.401
  232MPD1    H3 3527   0.637   2.740  18.631
  232MPD1     N 3528   0.418   2.359  18.545
  232MPD1    H5 3529   0.382   2.301  18.470
  232MPD1    N1 3530   0.616   2.607  18.203
  232MPD1    H6 3531   0.553   2.563  18.136
  232MPD1    H7 3532   0.630   2.701  18.165
  233MPD1     C 3533   1.919   0.265  17.963
  233MPD1    C1 3534   1.810   0.249  18.050
  233MPD1    C2 3535   1.807   0.321  18.170
  233MPD1    C3 3536   1.915   0.392  18.205
  233MPD1    C4 3537   2.034   0.392  18.128
  233MPD1    C5 3538   2.029   0.331  18.010
  233MPD1     H 3539   1.720   0.334  18.234
  233MPD1    H1 3540   2.123   0.447  18.155
  233MPD1    H2 3541   1.923   0.227  17.861
  233MPD1    H3 3542   2.109   0.322  17.938
  233MPD1     N 3543   1.919   0.479  18.312
  233MPD1    H5 3544   2.009   0.524  18.328
  233MPD1    N1 3545   1.692   0.192  18.004
  233MPD1    H6 3546   1.655   0.129  18.075
  233MPD1    H7 3547   1.717   0.135  17.923
  234MPD1     C 3548   3.142   4.000   9.719
  234MPD1    C1 3549   3.081   4.059   9.614
  234MPD1    C2 3550   3.060   4.194   9.623
  234MPD1    C3 3551   3.075   4.271   9.740
  234MPD1    C4 3552   3.120   4.204   9.853
  234MPD1    C5 3553   3.163   4.075   9.831
  234MPD1     H 3554   3.020   4.237   9.532
  234MPD1    H1 3555   3.127   4.231   9.958
  234MPD1    H2 3556   3.167   3.895   9.722
  234MPD1    H3 3557   3.199   4.033   9.924
  234MPD1     N 3558   3.029   4.405   9.749
  234MPD1    H5 3559   2.988   4.453   9.669
  234MPD1    N1 3560   3.066   3.999   9.486
  234MPD1    H6 3561   3.004   4.052   9.425
  234MPD1    H7 3562   3.024   3.908   9.504
  235MPD1     C 3563   4.632   1.866  10.924
  235MPD1    C1 3564   4.573   1.897  10.805
  235MPD1    C2 3565   4.629   1.996  10.731
  235MPD1    C3 3566   4.755   2.052  10.763
  235MPD1    C4 3567   0.024   1.998  10.871
  235MPD1    C5 3568   4.759   1.919  10.956
  235MPD1     H 3569   4.580   2.029  10.640
  235MPD1    H1 3570   0.128   2.020  10.891
  235MPD1    H2 3571   4.591   1.795  10.994
  235MPD1    H3 3572   0.016   1.893  11.042
  235MPD1     N 3573   4.797   2.154  10.675
  235MPD1    H5 3574   4.730   2.186  10.606
  235MPD1    N1 3575   4.438   1.855  10.765
  235MPD1    H6 3576   4.416   1.764  10.806
  235MPD1    H7 3577   4.415   1.854  10.666
  236MPD1     C 3578   3.618   3.501  10.051
  236MPD1    C1 3579   3.604   3.369  10.008
  236MPD1    C2 3580   3.709   3.283  10.041
  236MPD1    C3 3581   3.829   3.332  10.082
  236MPD1    C4 3582   3.841   3.465  10.118
  236MPD1    C5 3583   3.741   3.550  10.096
  236MPD1     H 3584   3.700   3.176  10.025
  236MPD1    H1 3585   3.936   3.510  10.146
  236MPD1    H2 3586   3.530   3.564  10.046
  236MPD1    H3 3587   3.762   3.655  10.115
  236MPD1     N 3588   3.943   3.257  10.113
  236MPD1    H5 3589   4.008   3.308  10.172
  236MPD1    N1 3590   3.472   3.319   9.979
  236MPD1    H6 3591   3.469   3.227   9.937
  236MPD1    H7 3592   3.405   3.381   9.935
  237MPD1     C 3593   4.269   1.067  15.318
  237MPD1    C1 3594   4.195   1.130  15.420
  237MPD1    C2 3595   4.062   1.096  15.441
  237MPD1    C3 3596   3.998   1.014  15.352
  237MPD1    C4 3597   4.068   0.973  15.237
  237MPD1    C5 3598   4.204   1.002  15.212
  237MPD1     H 3599   4.019   1.120  15.538
  237MPD1    H1 3600   4.020   0.910  15.163
  237MPD1    H2 3601   4.375   1.085  15.310
  237MPD1    H3 3602   4.259   0.955  15.132
  237MPD1     N 3603   3.861   0.977  15.370
  237MPD1    H5 3604   3.823   0.910  15.305
  237MPD1    N1 3605   4.263   1.206  15.512
  237MPD1    H6 3606   4.350   1.242  15.472
  237MPD1    H7 3607   4.202   1.277  15.552
  238MPD1     C 3608   0.905   0.189  14.978
  238MPD1    C1 3609   0.824   0.114  15.057
  238MPD1    C2 3610   0.727   0.038  14.998
  238MPD1    C3 3611   0.701   0.039  14.858
  238MPD1    C4 3612   0.779   0.124  14.783
  238MPD1    C5 3613   0.880   0.197  14.841
  238MPD1     H 3614   0.666   4.782  15.064
  238MPD1    H1 3615   0.751   0.135  14.679
  238MPD1    H2 3616   0.976   0.250  15.033
  238MPD1    H3 3617   0.938   0.264  14.779
  238MPD1     N 3618   0.596   4.778  14.788
  238MPD1    H5 3619   0.575   0.001  14.692
  238MPD1    N1 3620   0.856   0.102  15.196
  238MPD1    H6 3621   0.900   0.184  15.238
  238MPD1    H7 3622   0.780   0.074  15.257
  239MPD1     C 3623   0.830   0.462  15.149
  239MPD1    C1 3624   0.949   0.529  15.112
  239MPD1    C2 3625   0.935   0.631  15.018
  239MPD1    C3 3626   0.810   0.688  14.988
  239MPD1    C4 3627   0.695   0.630  15.042
  239MPD1    C5 3628   0.703   0.510  15.100
  239MPD1     H 3629   1.019   0.665  14.959
  239MPD1    H1 3630   0.597   0.674  15.028
  239MPD1    H2 3631   0.840   0.369  15.203
  239MPD1    H3 3632   0.611   0.453  15.108
  239MPD1     N 3633   0.790   0.793  14.885
  239MPD1    H5 3634   0.699   0.788  14.842
  239MPD1    N1 3635   1.065   0.456  15.143
  239MPD1    H6 3636   1.052   0.405  15.230
  239MPD1    H7 3637   1.152   0.509  15.149
  240MPD1     C 3638   4.679   0.907  13.703
  240MPD1    C1 3639   4.586   0.810  13.734
  240MPD1    C2 3640   4.616   0.696  13.814
  240MPD1    C3 3641   4.741   0.690  13.864
  240MPD1    C4 3642   0.029   0.785  13.834
  240MPD1    C5 3643   4.802   0.887  13.751
  240MPD1     H 3644   4.540   0.620  13.830
  240MPD1    H1 3645   0.125   0.792  13.883
  240MPD1    H2 3646   4.651   1.000  13.656
  240MPD1    H3 3647   0.079   0.957  13.737
  240MPD1     N 3648   4.778   0.583  13.952
  240MPD1    H5 3649   4.705   0.518  13.980
  240MPD1    N1 3650   4.454   0.830  13.685
  240MPD1    H6 3651   4.394   0.761  13.731
  240MPD1    H7 3652   4.429   0.926  13.709
  241MPD1     C 3653   0.508   0.311  14.870
  241MPD1    C1 3654   0.542   0.399  14.767
  241MPD1    C2 3655   0.458   0.397  14.659
  241MPD1    C3 3656   0.351   0.315  14.645
  241MPD1    C4 3657   0.311   0.237  14.757
  241MPD1    C5 3658   0.397   0.233  14.859
  241MPD1     H 3659   0.473   0.478  14.588
  241MPD1    H1 3660   0.223   0.174  14.754
  241MPD1    H2 3661   0.577   0.300  14.953
  241MPD1    H3 3662   0.374   0.168  14.943
  241MPD1     N 3663   0.261   0.321  14.533
  241MPD1    H5 3664   0.169   0.280  14.531
  241MPD1    N1 3665   0.638   0.502  14.778
  241MPD1    H6 3666   0.709   0.477  14.847
  241MPD1    H7 3667   0.683   0.509  14.687
  242MPD1     C 3668   4.632   3.408  16.218
  242MPD1    C1 3669   4.761   3.369  16.195
  242MPD1    C2 3670   0.028   3.417  16.088
  242MPD1    C3 3671   4.770   3.493  15.991
  242MPD1    C4 3672   4.644   3.535  16.012
  242MPD1    C5 3673   4.574   3.488  16.124
  242MPD1     H 3674   0.130   3.383  16.069
  242MPD1    H1 3675   4.593   3.598  15.940
  242MPD1    H2 3676   4.569   3.365  16.295
  242MPD1    H3 3677   4.468   3.508  16.135
  242MPD1     N 3678   0.030   3.538  15.873
  242MPD1    H5 3679   4.785   3.595  15.805
  242MPD1    N1 3680   0.030   3.299  16.295
  242MPD1    H6 3681   0.111   3.245  16.265
  242MPD1    H7 3682   4.780   3.236  16.353
  243MPD1     C 3683   1.167   2.318  18.430
  243MPD1    C1 3684   1.152   2.210  18.350
  243MPD1    C2 3685   1.251   2.181  18.252
  243MPD1    C3 3686   1.349   2.270  18.227
  243MPD1    C4 3687   1.356   2.386  18.309
  243MPD1    C5 3688   1.271   2.407  18.412
  243MPD1     H 3689   1.247   2.085  18.201
  243MPD1    H1 3690   1.436   2.459  18.296
  243MPD1    H2 3691   1.091   2.324  18.507
  243MPD1    H3 3692   1.283   2.490  18.481
  243MPD1     N 3693   1.427   2.238  18.117
  243MPD1    H5 3694   1.414   2.149  18.070
  243MPD1    N1 3695   1.054   2.117  18.386
  243MPD1    H6 3696   1.033   2.057  18.306
  243MPD1    H7 3697   0.976   2.163  18.432
  244MPD1     C 3698   1.600   1.450  17.953
  244MPD1    C1 3699   1.497   1.521  18.010
  244MPD1    C2 3700   1.495   1.653  17.984
  244MPD1    C3 3701   1.574   1.716  17.890
  244MPD1    C4 3702   1.665   1.640  17.821
  244MPD1    C5 3703   1.672   1.503  17.855
  244MPD1     H 3704   1.438   1.723  18.044
  244MPD1    H1 3705   1.736   1.675  17.747
  244MPD1    H2 3706   1.626   1.349  17.983
  244MPD1    H3 3707   1.747   1.447  17.802
  244MPD1     N 3708   1.569   1.859  17.875
  244MPD1    H5 3709   1.501   1.914  17.928
  244MPD1    N1 3710   1.433   1.464  18.118
  244MPD1    H6 3711   1.338   1.495  18.140
  244MPD1    H7 3712   1.426   1.366  18.091
  245MPD1     C 3713   3.923   2.107  13.468
  245MPD1    C1 3714   3.936   2.123  13.604
  245MPD1    C2 3715   3.904   2.238  13.664
  245MPD1    C3 3716   3.870   2.354  13.593
  245MPD1    C4 3717   3.859   2.341  13.456
  245MPD1    C5 3718   3.883   2.218  13.399
  245MPD1     H 3719   3.888   2.231  13.771
  245MPD1    H1 3720   3.839   2.425  13.390
  245MPD1    H2 3721   3.941   2.013  13.416
  245MPD1    H3 3722   3.886   2.199  13.292
  245MPD1     N 3723   3.852   2.477  13.662
  245MPD1    H5 3724   3.879   2.473  13.760
  245MPD1    N1 3725   3.941   2.004  13.677
  245MPD1    H6 3726   3.972   2.013  13.773
  245MPD1    H7 3727   4.009   1.943  13.632
  246MPD1     C 3728   4.603   4.627   8.465
  246MPD1    C1 3729   4.484   4.620   8.544
  246MPD1    C2 3730   4.495   4.622   8.681
  246MPD1    C3 3731   4.622   4.602   8.729
  246MPD1    C4 3732   4.735   4.603   8.650
  246MPD1    C5 3733   4.727   4.620   8.519
  246MPD1     H 3734   4.410   4.647   8.744
  246MPD1    H1 3735   0.035   4.603   8.678
  246MPD1    H2 3736   4.596   4.626   8.356
  246MPD1    H3 3737   0.007   4.616   8.452
  246MPD1     N 3738   4.639   4.592   8.872
  246MPD1    H5 3739   4.560   4.595   8.936
  246MPD1    N1 3740   4.362   4.628   8.482
  246MPD1    H6 3741   4.361   4.592   8.387
  246MPD1    H7 3742   4.288   4.580   8.532
  247MPD1     C 3743   2.527   2.609  15.360
  247MPD1    C1 3744   2.581   2.742  15.348
  247MPD1    C2 3745   2.678   2.782  15.438
  247MPD1    C3 3746   2.720   2.704  15.541
  247MPD1    C4 3747   2.668   2.578  15.553
  247MPD1    C5 3748   2.569   2.534  15.466
  247MPD1     H 3749   2.729   2.874  15.412
  247MPD1    H1 3750   2.702   2.525  15.641
  247MPD1    H2 3751   2.450   2.574  15.292
  247MPD1    H3 3752   2.527   2.436  15.488
  247MPD1     N 3753   2.818   2.739  15.637
  247MPD1    H5 3754   2.850   2.659  15.692
  247MPD1    N1 3755   2.564   2.826  15.240
  247MPD1    H6 3756   2.469   2.815  15.206
  247MPD1    H7 3757   2.581   2.926  15.249
  248MPD1     C 3758   3.848   2.329  17.809
  248MPD1    C1 3759   3.743   2.410  17.842
  248MPD1    C2 3760   3.671   2.354  17.944
  248MPD1    C3 3761   3.710   2.255  18.029
  248MPD1    C4 3762   3.826   2.193  17.999
  248MPD1    C5 3763   3.891   2.228  17.883
  248MPD1     H 3764   3.578   2.406  17.965
  248MPD1    H1 3765   3.855   2.106  18.057
  248MPD1    H2 3766   3.910   2.361  17.725
  248MPD1    H3 3767   3.976   2.172  17.848
  248MPD1     N 3768   3.625   2.215  18.135
  248MPD1    H5 3769   3.537   2.262  18.154
  248MPD1    N1 3770   3.692   2.505  17.753
  248MPD1    H6 3771   3.764   2.544  17.693
  248MPD1    H7 3772   3.650   2.582  17.806
  249MPD1     C 3773   0.357   1.434  10.539
  249MPD1    C1 3774   0.462   1.429  10.630
  249MPD1    C2 3775   0.546   1.538  10.635
  249MPD1    C3 3776   0.536   1.643  10.550
  249MPD1    C4 3777   0.434   1.632  10.461
  249MPD1    C5 3778   0.340   1.538  10.450
  249MPD1     H 3779   0.627   1.538  10.706
  249MPD1    H1 3780   0.422   1.714  10.391
  249MPD1    H2 3781   0.282   1.357  10.533
  249MPD1    H3 3782   0.255   1.552  10.384
  249MPD1     N 3783   0.628   1.745  10.567
  249MPD1    H5 3784   0.694   1.740  10.644
  249MPD1    N1 3785   0.471   1.329  10.725
  249MPD1    H6 3786   0.397   1.352  10.791
  249MPD1    H7 3787   0.558   1.324  10.777
  250MPD2     C 3788   2.239   1.120  13.243
  250MPD2    C1 3789   2.138   1.212  13.264
  250MPD2    C2 3790   2.009   1.183  13.222
  250MPD2    C3 3791   1.978   1.054  13.169
  250MPD2    C4 3792   2.078   0.963  13.156
  250MPD2    C5 3793   2.209   0.999  13.193
  250MPD2     H 3794   1.929   1.256  13.227
  250MPD2    H1 3795   2.054   0.861  13.129
  250MPD2    H2 3796   2.341   1.135  13.277
  250MPD2    H3 3797   2.285   0.922  13.186
  250MPD2     N 3798   1.855   1.023  13.120
  250MPD2    H5 3799   1.847   0.930  13.080
  250MPD2    N1 3800   2.175   1.330  13.339
  250MPD2    H7 3801   2.274   1.348  13.355
  251TMC3    C1 3802   2.151   1.547  13.443
  251TMC3    C2 3803   2.079   1.663  13.429
  251TMC3    C3 3804   2.152   1.778  13.446
  251TMC3    C4 3805   2.277   1.549  13.481
  251TMC3    C5 3806   2.350   1.658  13.503
  251TMC3    C6 3807   2.289   1.779  13.468
  251TMC3     C 3808   2.091   1.434  13.376
  251TMC3     O 3809   1.973   1.439  13.359
  251TMC3     H 3810   1.970   1.663  13.426
  251TMC3    H1 3811   2.315   1.453  13.513
  251TMC3    H2 3812   2.341   1.874  13.477
  251TMC3    C7 3813   2.493   1.642  13.516
  251TMC3    C8 3814   2.069   1.892  13.462
  251TMC3    O1 3815   2.540   1.528  13.516
  251TMC3    O2 3816   1.954   1.872  13.501
  252TMC3    C1 3817   1.787   3.251   9.517
  252TMC3    C2 3818   1.891   3.277   9.595
  252TMC3    C3 3819   1.902   3.205   9.715
  252TMC3    C4 3820   1.702   3.156   9.549
  252TMC3    C5 3821   1.725   3.081   9.658
  252TMC3    C6 3822   1.822   3.101   9.745
  252TMC3     C 3823   1.798   3.291   9.378
  252TMC3     O 3824   1.770   3.209   9.290
  252TMC3     H 3825   1.955   3.358   9.563
  252TMC3    H1 3826   1.624   3.134   9.477
  252TMC3    H2 3827   1.832   3.046   9.837
  252TMC3    C7 3828   1.622   2.995   9.693
  252TMC3    C8 3829   2.016   3.248   9.790
  252TMC3    O1 3830   1.510   3.014   9.648
  252TMC3    O2 3831   2.057   3.362   9.765
  253MPD2     C 3832   3.113   1.260  15.477
  253MPD2    C1 3833   2.984   1.306  15.509
  253MPD2    C2 3834   2.959   1.357  15.632
  253MPD2    C3 3835   3.067   1.374  15.715
  253MPD2    C4 3836   3.194   1.335  15.682
  253MPD2    C5 3837   3.217   1.284  15.567
  253MPD2     H 3838   2.858   1.384  15.659
  253MPD2    H1 3839   3.275   1.348  15.753
  253MPD2    H2 3840   3.139   1.222  15.379
  253MPD2    H3 3841   3.320   1.266  15.537
  253MPD2     N 3842   3.048   1.427  15.849
  253MPD2    H5 3843   3.128   1.420  15.911
  253MPD2    N1 3844   2.875   1.310  15.411
  253MPD2    H7 3845   2.781   1.319  15.448
  254TMC3    C1 3846   2.928   1.491  16.046
  254TMC3    C2 3847   2.804   1.525  16.096
  254TMC3    C3 3848   2.788   1.511  16.231
  254TMC3    C4 3849   3.029   1.436  16.126
  254TMC3    C5 3850   3.004   1.422  16.261
  254TMC3    C6 3851   2.883   1.450  16.310
  254TMC3     C 3852   2.927   1.472  15.902
  254TMC3     O 3853   2.825   1.514  15.845
  254TMC3     H 3854   2.725   1.565  16.034
  254TMC3    H1 3855   3.122   1.394  16.090
  254TMC3    H2 3856   2.868   1.425  16.415
  254TMC3    C7 3857   3.088   1.343  16.347
  254TMC3    C8 3858   2.677   1.579  16.296
  254TMC3    O1 3859   3.035   1.283  16.437
  254TMC3    O2 3860   2.689   1.578  16.420
  255MPD2     C 3861   0.980   4.188  10.733
  255MPD2    C1 3862   1.106   4.230  10.744
  255MPD2    C2 3863   1.210   4.136  10.725
  255MPD2    C3 3864   1.183   4.008  10.675
  255MPD2    C4 3865   1.051   3.972  10.662
  255MPD2    C5 3866   0.952   4.058  10.701
  255MPD2     H 3867   1.316   4.157  10.737
  255MPD2    H1 3868   1.018   3.880  10.615
  255MPD2    H2 3869   0.896   4.253  10.757
  255MPD2    H3 3870   0.851   4.020  10.685
  255MPD2     N 3871   1.295   3.917  10.648
  255MPD2    H5 3872   1.388   3.951  10.669
  255MPD2    N1 3873   1.124   4.365  10.793
  255MPD2    H7 3874   1.043   4.424  10.809
  256TMC3    C1 3875   1.232   4.580  10.810
  256TMC3    C2 3876   1.313   4.656  10.727
  256TMC3    C3 3877   1.267   4.775  10.689
  256TMC3    C4 3878   1.112   4.619  10.857
  256TMC3    C5 3879   1.064   4.739  10.813
  256TMC3    C6 3880   1.142   0.011  10.734
  256TMC3     C 3881   1.244   4.432  10.789
  256TMC3     O 3882   1.353   4.388  10.753
  256TMC3     H 3883   1.410   4.621  10.692
  256TMC3    H1 3884   1.057   4.560  10.928
  256TMC3    H2 3885   1.103   0.098  10.683
  256TMC3    C7 3886   0.925   4.714  10.780
  256TMC3    C8 3887   1.315   0.009  10.557
  256TMC3    O1 3888   0.884   4.599  10.773
  256TMC3    O2 3889   1.358   4.724  10.486
  257MPD2     C 3890   0.662   1.572  13.394
  257MPD2    C1 3891   0.606   1.473  13.314
  257MPD2    C2 3892   0.561   1.351  13.369
  257MPD2    C3 3893   0.556   1.338  13.505
  257MPD2    C4 3894   0.605   1.441  13.585
  257MPD2    C5 3895   0.657   1.551  13.527
  257MPD2     H 3896   0.533   1.273  13.300
  257MPD2    H1 3897   0.606   1.437  13.693
  257MPD2    H2 3898   0.718   1.658  13.358
  257MPD2    H3 3899   0.706   1.625  13.589
  257MPD2     N 3900   0.507   1.214  13.566
  257MPD2    H5 3901   0.471   1.152  13.494
  257MPD2    N1 3902   0.623   1.495  13.176
  257MPD2    H7 3903   0.658   1.586  13.145
  258TMC3    C1 3904   0.477   1.043  13.726
  258TMC3    C2 3905   0.551   0.961  13.642
  258TMC3    C3 3906   0.558   0.831  13.679
  258TMC3    C4 3907   0.437   0.999  13.855
  258TMC3    C5 3908   0.464   0.868  13.886
  258TMC3    C6 3909   0.517   0.778  13.799
  258TMC3     C 3910   0.488   1.186  13.696
  258TMC3     O 3911   0.496   1.265  13.792
  258TMC3     H 3912   0.591   0.993  13.546
  258TMC3    H1 3913   0.405   1.077  13.923
  258TMC3    H2 3914   0.515   0.671  13.816
  258TMC3    C7 3915   0.449   0.837  14.028
  258TMC3    C8 3916   0.623   0.738  13.585
  258TMC3    O1 3917   0.362   0.887  14.096
  258TMC3    O2 3918   0.572   0.629  13.566
  259MPD2     C 3919   4.054   2.560  18.565
  259MPD2    C1 3920   4.134   2.457  18.619
  259MPD2    C2 3921   4.263   2.445  18.576
  259MPD2    C3 3922   4.310   2.539  18.482
  259MPD2    C4 3923   4.216   2.619  18.415
  259MPD2    C5 3924   4.090   2.633  18.458
  259MPD2     H 3925   4.329   2.380  18.631
  259MPD2    H1 3926   4.254   2.687  18.340
  259MPD2    H2 3927   3.956   2.574  18.609
  259MPD2    H3 3928   4.025   2.707  18.411
  259MPD2     N 3929   4.446   2.547  18.460
  259MPD2    H5 3930   4.508   2.496  18.522
  259MPD2    N1 3931   4.086   2.386  18.733
  259MPD2    H7 3932   4.006   2.429  18.778
  260TMC3    C1 3933   4.651   2.641  18.414
  260TMC3    C2 3934   4.749   2.662  18.322
  260TMC3    C3 3935   0.078   2.656  18.356
  260TMC3    C4 3936   4.688   2.623  18.545
  260TMC3    C5 3937   0.012   2.604  18.584
  260TMC3    C6 3938   0.109   2.620  18.488
  260TMC3     C 3939   4.515   2.636  18.381
  260TMC3     O 3940   4.472   2.711  18.293
  260TMC3     H 3941   4.723   2.666  18.217
  260TMC3    H1 3942   4.611   2.626  18.621
  260TMC3    H2 3943   0.208   2.583  18.513
  260TMC3    C7 3944   0.032   2.474  18.651
  260TMC3    C8 3945   0.150   2.577  18.258
  260TMC3    O1 3946   0.109   2.394  18.592
  260TMC3    O2 3947   0.183   2.625  18.150
  261MPD2     C 3948   1.414   0.903  12.517
  261MPD2    C1 3949   1.450   1.006  12.605
  261MPD2    C2 3950   1.444   1.134  12.549
  261MPD2    C3 3951   1.405   1.153  12.417
  261MPD2    C4 3952   1.372   1.046  12.337
  261MPD2    C5 3953   1.375   0.921  12.393
  261MPD2     H 3954   1.467   1.221  12.610
  261MPD2    H1 3955   1.328   1.068  12.241
  261MPD2    H2 3956   1.425   0.800  12.547
  261MPD2    H3 3957   1.324   0.848  12.331
  261MPD2     N 3958   1.385   1.284  12.360
  261MPD2    H5 3959   1.432   1.363  12.404
  261MPD2    N1 3960   1.491   0.990  12.739
  261MPD2    H7 3961   1.537   1.068  12.785
  262TMC3    C1 3962   1.306   1.458  12.232
  262TMC3    C2 3963   1.186   1.493  12.163
  262TMC3    C3 3964   1.197   1.532  12.030
  262TMC3    C4 3965   1.425   1.481  12.170
  262TMC3    C5 3966   1.431   1.527  12.041
  262TMC3    C6 3967   1.317   1.540  11.961
  262TMC3     C 3968   1.298   1.319  12.259
  262TMC3     O 3969   1.201   1.264  12.208
  262TMC3     H 3970   1.087   1.470  12.202
  262TMC3    H1 3971   1.518   1.467  12.225
  262TMC3    H2 3972   1.326   1.561  11.855
  262TMC3    C7 3973   1.546   1.602  11.997
  262TMC3    C8 3974   1.108   1.634  11.995
  262TMC3    O1 3975   1.646   1.608  12.070
  262TMC3    O2 3976   1.054   1.690  12.088
  263MPD2     C 3977   2.292   0.832  12.192
  263MPD2    C1 3978   2.384   0.835  12.088
  263MPD2    C2 3979   2.381   0.937  11.988
  263MPD2    C3 3980   2.279   1.026  12.000
  263MPD2    C4 3981   2.179   1.017  12.092
  263MPD2    C5 3982   2.189   0.920  12.193
  263MPD2     H 3983   2.445   0.946  11.901
  263MPD2    H1 3984   2.092   1.081  12.091
  263MPD2    H2 3985   2.310   0.766  12.277
  263MPD2    H3 3986   2.118   0.925  12.275
  263MPD2     N 3987   2.267   1.115  11.892
  263MPD2    H5 3988   2.330   1.095  11.815
  263MPD2    N1 3989   2.479   0.734  12.079
  263MPD2    H7 3990   2.481   0.664  12.152
  264TMC3    C1 3991   2.215   1.290  11.767
  264TMC3    C2 3992   2.210   1.426  11.757
  264TMC3    C3 3993   2.236   1.479  11.638
  264TMC3    C4 3994   2.247   1.210  11.655
  264TMC3    C5 3995   2.276   1.278  11.536
  264TMC3    C6 3996   2.259   1.407  11.525
  264TMC3     C 3997   2.185   1.225  11.887
  264TMC3     O 3998   2.135   1.286  11.980
  264TMC3     H 3999   2.162   1.468  11.845
  264TMC3    H1 4000   2.224   1.104  11.649
  264TMC3    H2 4001   2.286   1.457  11.433
  264TMC3    C7 4002   2.388   1.224  11.461
  264TMC3    C8 4003   2.344   1.578  11.648
  264TMC3    O1 4004   2.425   1.277  11.355
  264TMC3    O2 4005   2.432   1.565  11.567
  265MPD2     C 4006   4.298   0.770  15.815
  265MPD2    C1 4007   4.317   0.886  15.741
  265MPD2    C2 4008   4.355   0.864  15.614
  265MPD2    C3 4009   4.381   0.739  15.563
  265MPD2    C4 4010   4.366   0.631  15.642
  265MPD2    C5 4011   4.327   0.650  15.768
  265MPD2     H 4012   4.378   0.953  15.557
  265MPD2    H1 4013   4.385   0.529  15.609
  265MPD2    H2 4014   4.274   0.784  15.920
  265MPD2    H3 4015   4.292   0.567  15.830
  265MPD2     N 4016   4.439   0.725  15.434
  265MPD2    H5 4017   4.425   0.635  15.390
  265MPD2    N1 4018   4.292   1.024  15.786
  265MPD2    H7 4019   4.311   1.102  15.725
  266TMC3    C1 4020   4.294   1.202  15.944
  266TMC3    C2 4021   4.333   1.238  16.068
  266TMC3    C3 4022   4.343   1.369  16.094
  266TMC3    C4 4023   4.258   1.296  15.851
  266TMC3    C5 4024   4.261   1.429  15.882
  266TMC3    C6 4025   4.291   1.464  16.011
  266TMC3     C 4026   4.269   1.057  15.917
  266TMC3     O 4027   4.244   0.987  16.014
  266TMC3     H 4028   4.359   1.165  16.143
  266TMC3    H1 4029   4.200   1.267  15.764
  266TMC3    H2 4030   4.282   1.570  16.033
  266TMC3    C7 4031   4.220   1.521  15.775
  266TMC3    C8 4032   4.437   1.401  16.200
  266TMC3    O1 4033   4.184   1.470  15.671
  266TMC3    O2 4034   4.527   1.319  16.217
  267MPD2     C 4035   1.300   2.783  18.221
  267MPD2    C1 4036   1.357   2.892  18.161
  267MPD2    C2 4037   1.272   2.958  18.068
  267MPD2    C3 4038   1.145   2.915  18.040
  267MPD2    C4 4039   1.097   2.801  18.090
  267MPD2    C5 4040   1.176   2.733  18.182
  267MPD2     H 4041   1.308   3.043  18.010
  267MPD2    H1 4042   1.006   2.760  18.047
  267MPD2    H2 4043   1.358   2.717  18.285
  267MPD2    H3 4044   1.138   2.640  18.225
  267MPD2     N 4045   1.066   2.973  17.937
  267MPD2    H5 4046   0.990   2.921  17.894
  267MPD2    N1 4047   1.489   2.931  18.182
  267MPD2    H7 4048   1.539   2.864  18.239
  268TMC3    C1 4049   1.689   3.039  18.176
  268TMC3    C2 4050   1.779   3.085  18.090
  268TMC3    C3 4051   1.913   3.056  18.111
  268TMC3    C4 4052   1.720   2.970  18.294
  268TMC3    C5 4053   1.855   2.955  18.319
  268TMC3    C6 4054   1.950   3.001  18.234
  268TMC3     C 4055   1.557   3.035  18.133
  268TMC3     O 4056   1.518   3.128  18.063
  268TMC3     H 4057   1.747   3.136  18.000
  268TMC3    H1 4058   1.643   2.954  18.368
  268TMC3    H2 4059   2.052   2.966  18.250
  268TMC3    C7 4060   1.901   2.882  18.439
  268TMC3    C8 4061   2.015   3.136  18.053
  268TMC3    O1 4062   2.015   2.835  18.436
  268TMC3    O2 4063   2.104   3.149  18.135
  269MPD2     C 4064   2.144   1.551  15.844
  269MPD2    C1 4065   2.042   1.618  15.915
  269MPD2    C2 4066   2.018   1.755  15.884
  269MPD2    C3 4067   2.099   1.815  15.790
  269MPD2    C4 4068   2.201   1.750  15.727
  269MPD2    C5 4069   2.229   1.620  15.759
  269MPD2     H 4070   1.939   1.808  15.936
  269MPD2    H1 4071   2.272   1.805  15.667
  269MPD2    H2 4072   2.177   1.449  15.862
  269MPD2    H3 4073   2.311   1.570  15.707
  269MPD2     N 4074   2.062   1.951  15.769
  269MPD2    H5 4075   1.980   1.994  15.810
  269MPD2    N1 4076   1.977   1.553  16.015
  269MPD2    H7 4077   2.006   1.457  16.029
  270TMC3    C1 4078   1.815   1.492  16.178
  270TMC3    C2 4079   1.686   1.460  16.168
  270TMC3    C3 4080   1.656   1.331  16.208
  270TMC3    C4 4081   1.901   1.416  16.246
  270TMC3    C5 4082   1.871   1.293  16.290
  270TMC3    C6 4083   1.739   1.252  16.287
  270TMC3     C 4084   1.866   1.605  16.091
  270TMC3     O 4085   1.804   1.705  16.088
  270TMC3     H 4086   1.618   1.510  16.099
  270TMC3    H1 4087   2.006   1.441  16.240
  270TMC3    H2 4088   1.711   1.152  16.315
  270TMC3    C7 4089   1.962   1.194  16.231
  270TMC3    C8 4090   1.587   1.242  16.117
  270TMC3    O1 4091   2.082   1.205  16.252
  270TMC3    O2 4092   1.629   1.126  16.113
  271MPD2     C 4093   1.350   1.522  14.350
  271MPD2    C1 4094   1.258   1.489  14.448
  271MPD2    C2 4095   1.128   1.533  14.434
  271MPD2    C3 4096   1.091   1.616  14.327
  271MPD2    C4 4097   1.185   1.635  14.224
  271MPD2    C5 4098   1.314   1.594  14.243
  271MPD2     H 4099   1.060   1.497  14.510
  271MPD2    H1 4100   1.152   1.684  14.133
  271MPD2    H2 4101   1.458   1.513  14.359
  271MPD2    H3 4102   1.391   1.602  14.167
  271MPD2     N 4103   0.962   1.668  14.301
  271MPD2    H5 4104   0.941   1.724  14.219
  271MPD2    N1 4105   1.284   1.397  14.548
  271MPD2    H7 4106   1.203   1.380  14.607
  272TMC3    C1 4107   1.376   1.199  14.636
  272TMC3    C2 4108   1.493   1.129  14.669
  272TMC3    C3 4109   1.496   1.048  14.773
  272TMC3    C4 4110   1.267   1.181  14.712
  272TMC3    C5 4111   1.271   1.095  14.820
  272TMC3    C6 4112   1.389   1.027  14.858
  272TMC3     C 4113   1.388   1.308  14.551
  272TMC3     O 4114   1.494   1.310  14.486
  272TMC3     H 4115   1.587   1.133  14.616
  272TMC3    H1 4116   1.170   1.221  14.688
  272TMC3    H2 4117   1.392   0.955  14.939
  272TMC3    C7 4118   1.179   1.130  14.926
  272TMC3    C8 4119   1.592   0.937  14.764
  272TMC3    O1 4120   1.079   1.192  14.896
  272TMC3    O2 4121   1.642   0.917  14.654
  273MPD2     C 4122   2.538   4.439  11.894
  273MPD2    C1 4123   2.659   4.486  11.854
  273MPD2    C2 4124   2.687   4.473  11.723
  273MPD2    C3 4125   2.598   4.424  11.627
  273MPD2    C4 4126   2.466   4.403  11.665
  273MPD2    C5 4127   2.438   4.411  11.799
  273MPD2     H 4128   2.776   4.522  11.688
  273MPD2    H1 4129   2.387   4.361  11.603
  273MPD2    H2 4130   2.510   4.427  11.998
  273MPD2    H3 4131   2.341   4.384  11.839
  273MPD2     N 4132   2.634   4.416  11.488
  273MPD2    H5 4133   2.561   4.413  11.417
  273MPD2    N1 4134   2.753   4.545  11.944
  273MPD2    H7 4135   2.745   4.519  12.042
  274TMC3    C1 4136   2.793   4.514  11.326
  274TMC3    C2 4137   2.683   4.561  11.253
  274TMC3    C3 4138   2.707   4.685  11.192
  274TMC3    C4 4139   2.900   4.601  11.350
  274TMC3    C5 4140   2.891   4.732  11.311
  274TMC3    C6 4141   2.803   4.772  11.212
  274TMC3     C 4142   2.765   4.430  11.449
  274TMC3     O 4143   2.866   4.401  11.511
  274TMC3     H 4144   2.600   4.504  11.213
  274TMC3    H1 4145   2.973   4.568  11.423
  274TMC3    H2 4146   2.790   0.071  11.183
  274TMC3    C7 4147   2.926   0.033  11.397
  274TMC3    C8 4148   2.620   4.717  11.086
  274TMC3    O1 4149   2.854   0.130  11.390
  274TMC3    O2 4150   2.505   4.672  11.095
  275MPD2     C 4151   2.753   1.986  14.769
  275MPD2    C1 4152   2.690   2.034  14.884
  275MPD2    C2 4153   2.556   2.002  14.908
  275MPD2    C3 4154   2.486   1.924  14.814
  275MPD2    C4 4155   2.554   1.863  14.708
  275MPD2    C5 4156   2.687   1.894  14.694
  275MPD2     H 4157   2.513   2.022  15.005
  275MPD2    H1 4158   2.514   1.800  14.630
  275MPD2    H2 4159   2.857   2.016  14.758
  275MPD2    H3 4160   2.744   1.856  14.610
  275MPD2     N 4161   2.349   1.891  14.834
  275MPD2    H5 4162   2.308   1.816  14.780
  275MPD2    N1 4163   2.749   2.137  14.970
  275MPD2    H7 4164   2.681   2.173  15.036
  276TMC3    C1 4165   2.892   2.272  15.087
  276TMC3    C2 4166   2.799   2.252  15.188
  276TMC3    C3 4167   2.838   2.289  15.315
  276TMC3    C4 4168   3.025   2.317  15.110
  276TMC3    C5 4169   3.064   2.323  15.240
  276TMC3    C6 4170   2.969   2.318  15.339
  276TMC3     C 4171   2.874   2.189  14.965
  276TMC3     O 4172   2.958   2.180  14.878
  276TMC3     H 4173   2.696   2.220  15.174
  276TMC3    H1 4174   3.093   2.332  15.027
  276TMC3    H2 4175   2.999   2.330  15.443
  276TMC3    C7 4176   3.204   2.318  15.272
  276TMC3    C8 4177   2.773   2.209  15.413
  276TMC3    O1 4178   3.228   2.355  15.386
  276TMC3    O2 4179   2.780   2.243  15.530
  277MPD2     C 4180   0.072   1.403  13.581
  277MPD2    C1 4181   4.740   1.394  13.577
  277MPD2    C2 4182   4.672   1.325  13.678
  277MPD2    C3 4183   4.736   1.261  13.780
  277MPD2    C4 4184   0.071   1.266  13.784
  277MPD2    C5 4185   0.139   1.332  13.682
  277MPD2     H 4186   4.565   1.309  13.685
  277MPD2    H1 4187   0.125   1.236  13.872
  277MPD2    H2 4188   0.130   1.458  13.507
  277MPD2    H3 4189   0.247   1.341  13.686
  277MPD2     N 4190   4.654   1.208  13.871
  277MPD2    H5 4191   4.554   1.218  13.857
  277MPD2    N1 4192   4.675   1.457  13.471
  277MPD2    H7 4193   4.729   1.530  13.425
  278TMC3    C1 4194   4.572   1.118  14.067
  278TMC3    C2 4195   4.556   0.983  14.099
  278TMC3    C3 4196   4.429   0.928  14.083
  278TMC3    C4 4197   4.465   1.191  14.033
  278TMC3    C5 4198   4.345   1.137  14.043
  278TMC3    C6 4199   4.318   1.003  14.054
  278TMC3     C 4200   4.692   1.157  13.996
  278TMC3     O 4201   4.800   1.099  14.027
  278TMC3     H 4202   4.639   0.914  14.112
  278TMC3    H1 4203   4.484   1.295  14.010
  278TMC3    H2 4204   4.218   0.961  14.049
  278TMC3    C7 4205   4.228   1.223  14.004
  278TMC3    C8 4206   4.440   0.781  14.072
  278TMC3    O1 4207   4.244   1.319  13.929
  278TMC3    O2 4208   4.529   0.716  14.120
  279MPD2     C 4209   3.649   0.881  18.273
  279MPD2    C1 4210   3.686   1.013  18.264
  279MPD2    C2 4211   3.762   1.059  18.155
  279MPD2    C3 4212   3.806   0.974  18.055
  279MPD2    C4 4213   3.765   0.836  18.067
  279MPD2    C5 4214   3.698   0.793  18.180
  279MPD2     H 4215   3.800   1.161  18.153
  279MPD2    H1 4216   3.788   0.772  17.983
  279MPD2    H2 4217   3.595   0.844  18.359
  279MPD2    H3 4218   3.674   0.687  18.186
  279MPD2     N 4219   3.867   1.015  17.937
  279MPD2    H5 4220   3.850   0.953  17.858
  279MPD2    N1 4221   3.621   1.088  18.358
  279MPD2    H7 4222   3.549   1.039  18.410
  280TMC3    C1 4223   3.499   1.288  18.376
  280TMC3    C2 4224   3.414   1.216  18.289
  280TMC3    C3 4225   3.346   1.279  18.190
  280TMC3    C4 4226   3.507   1.422  18.367
  280TMC3    C5 4227   3.430   1.481  18.275
  280TMC3    C6 4228   3.350   1.411  18.189
  280TMC3     C 4229   3.634   1.228  18.374
  280TMC3     O 4230   3.723   1.304  18.345
  280TMC3     H 4231   3.410   1.108  18.298
  280TMC3    H1 4232   3.578   1.467  18.436
  280TMC3    H2 4233   3.304   1.451  18.100
  280TMC3    C7 4234   3.491   1.594  18.209
  280TMC3    C8 4235   3.366   1.204  18.057
  280TMC3    O1 4236   3.600   1.637  18.252
  280TMC3    O2 4237   3.380   1.271  17.958
  281TMC3    C1 4238   2.725   1.361  13.784
  281TMC3    C2 4239   2.805   1.439  13.701
  281TMC3    C3 4240   2.850   1.387  13.579
  281TMC3    C4 4241   2.684   1.234  13.741
  281TMC3    C5 4242   2.726   1.187  13.618
  281TMC3    C6 4243   2.811   1.261  13.535
  281TMC3     C 4244   2.626   1.415  13.879
  281TMC3     O 4245   2.569   1.335  13.949
  281TMC3     H 4246   2.838   1.535  13.741
  281TMC3    H1 4247   2.607   1.182  13.796
  281TMC3    H2 4248   2.862   1.215  13.451
  281TMC3    C7 4249   2.650   1.080  13.551
  281TMC3    C8 4250   2.979   1.435  13.516
  281TMC3    O1 4251   2.706   1.015  13.466
  281TMC3    O2 4252   3.055   1.349  13.472
  282MPD2     C 4253   4.617   2.723  15.303
  282MPD2    C1 4254   4.501   2.794  15.326
  282MPD2    C2 4255   4.425   2.836  15.216
  282MPD2    C3 4256   4.464   2.810  15.087
  282MPD2    C4 4257   4.574   2.732  15.067
  282MPD2    C5 4258   4.650   2.694  15.171
  282MPD2     H 4259   4.330   2.885  15.229
  282MPD2    H1 4260   4.618   2.707  14.971
  282MPD2    H2 4261   4.684   2.675  15.374
  282MPD2    H3 4262   4.734   2.627  15.153
  282MPD2     N 4263   4.374   2.838  14.983
  282MPD2    H5 4264   4.281   2.872  15.007
  282MPD2    N1 4265   4.448   2.823  15.457
  282MPD2    H7 4266   4.379   2.897  15.465
  283TMC3    C1 4267   4.406   2.784  15.691
  283TMC3    C2 4268   4.391   2.915  15.723
  283TMC3    C3 4269   4.326   2.953  15.834
  283TMC3    C4 4270   4.349   2.686  15.767
  283TMC3    C5 4271   4.284   2.729  15.879
  283TMC3    C6 4272   4.276   2.859  15.916
  283TMC3     C 4273   4.473   2.748  15.571
  283TMC3     O 4274   4.528   2.640  15.565
  283TMC3     H 4275   4.432   2.992  15.659
  283TMC3    H1 4276   4.368   2.585  15.733
  283TMC3    H2 4277   4.221   2.888  16.005
  283TMC3    C7 4278   4.190   2.646  15.951
  283TMC3    C8 4279   4.295   3.092  15.863
  283TMC3    O1 4280   4.113   2.695  16.033
  283TMC3    O2 4281   4.232   3.109  15.968
  284MPD2     C 4282   2.236   2.373  12.097
  284MPD2    C1 4283   2.360   2.411  12.132
  284MPD2    C2 4284   2.437   2.338  12.221
  284MPD2    C3 4285   2.381   2.226  12.281
  284MPD2    C4 4286   2.254   2.184  12.241
  284MPD2    C5 4287   2.184   2.256  12.151
  284MPD2     H 4288   2.533   2.382  12.245
  284MPD2    H1 4289   2.212   2.090  12.276
  284MPD2    H2 4290   2.178   2.430  12.025
  284MPD2    H3 4291   2.090   2.226  12.107
  284MPD2     N 4292   2.461   2.130  12.349
  284MPD2    H5 4293   2.427   2.035  12.362
  284MPD2    N1 4294   2.425   2.524  12.080
  284MPD2    H7 4295   2.524   2.518  12.101
  285TMC3    C1 4296   2.489   2.681  11.934
  285TMC3    C2 4297   2.580   2.605  11.875
  285TMC3    C3 4298   2.692   2.661  11.818
  285TMC3    C4 4299   2.487   2.814  11.928
  285TMC3    C5 4300   2.600   2.868  11.872
  285TMC3    C6 4301   2.698   2.799  11.804
  285TMC3     C 4302   2.378   2.609  11.983
  285TMC3     O 4303   2.264   2.634  11.938
  285TMC3     H 4304   2.570   2.497  11.883
  285TMC3    H1 4305   2.412   2.873  11.979
  285TMC3    H2 4306   2.781   2.856  11.766
  285TMC3    C7 4307   2.638   2.984  11.949
  285TMC3    C8 4308   2.777   2.580  11.736
  285TMC3    O1 4309   2.569   3.083  11.929
  285TMC3    O2 4310   2.719   2.483  11.689
  286MPD2     C 4311   2.612   0.619  19.665
  286MPD2    C1 4312   2.582   0.617  19.533
  286MPD2    C2 4313   2.626   0.505  19.460
  286MPD2    C3 4314   2.675   0.387  19.528
  286MPD2    C4 4315   2.686   0.391  19.668
  286MPD2    C5 4316   2.679   0.515  19.727
  286MPD2     H 4317   2.610   0.498  19.353
  286MPD2    H1 4318   2.708   0.299  19.721
  286MPD2    H2 4319   2.606   0.708  19.727
  286MPD2    H3 4320   2.714   0.521  19.829
  286MPD2     N 4321   2.716   0.266  19.465
  286MPD2    H5 4322   2.745   0.193  19.528
  286MPD2    N1 4323   2.533   0.729  19.453
  286MPD2    H7 4324   2.523   0.722  19.352
  287TMC3    C1 4325   2.796   0.135  19.288
  287TMC3    C2 4326   2.760   0.078  19.169
  287TMC3    C3 4327   2.824   4.772  19.131
  287TMC3    C4 4328   2.909   0.097  19.356
  287TMC3    C5 4329   2.995   0.007  19.294
  287TMC3    C6 4330   2.943   4.730  19.194
  287TMC3     C 4331   2.728   0.257  19.326
  287TMC3     O 4332   2.704   0.336  19.240
  287TMC3     H 4333   2.671   0.114  19.118
  287TMC3    H1 4334   2.938   0.149  19.447
  287TMC3    H2 4335   2.993   4.650  19.141
  287TMC3    C7 4336   3.116   0.091  19.270
  287TMC3    C8 4337   2.823   4.736  18.990
  287TMC3    O1 4338   3.128   0.194  19.339
  287TMC3    O2 4339   2.838   4.619  18.959
  288TMC3    C1 4340   4.351   0.605  14.477
  288TMC3    C2 4341   4.251   0.589  14.567
  288TMC3    C3 4342   4.185   0.704  14.603
  288TMC3    C4 4343   4.386   0.726  14.421
  288TMC3    C5 4344   4.312   0.833  14.453
  288TMC3    C6 4345   4.213   0.826  14.546
  288TMC3     C 4346   4.451   0.502  14.467
  288TMC3     O 4347   4.426   0.396  14.525
  288TMC3     H 4348   4.246   0.493  14.616
  288TMC3    H1 4349   4.464   0.747  14.348
  288TMC3    H2 4350   4.160   0.916  14.577
  288TMC3    C7 4351   4.401   0.953  14.452
  288TMC3    C8 4352   4.137   0.712  14.744
  288TMC3    O1 4353   4.521   0.937  14.481
  288TMC3    O2 4354   4.116   0.818  14.792
  289MPD2     C 4355   4.607   4.771  14.518
  289MPD2    C1 4356   4.576   0.049  14.406
  289MPD2    C2 4357   4.459   0.033  14.337
  289MPD2    C3 4358   4.369   4.741  14.376
  289MPD2    C4 4359   4.402   4.650  14.474
  289MPD2    C5 4360   4.520   4.667  14.548
  289MPD2     H 4361   4.428   0.112  14.271
  289MPD2    H1 4362   4.338   4.567  14.503
  289MPD2    H2 4363   4.691   4.793  14.583
  289MPD2    H3 4364   4.541   4.595  14.626
  289MPD2     N 4365   4.243   4.713  14.314
  289MPD2    H5 4366   4.187   4.638  14.352
  289MPD2    N1 4367   4.662   0.156  14.373
  289MPD2    H7 4368   4.739   0.161  14.438
  290TMC3    C1 4369   4.041   4.759  14.202
  290TMC3    C2 4370   3.958   0.059  14.188
  290TMC3    C3 4371   3.828   0.038  14.161
  290TMC3    C4 4372   4.001   4.630  14.185
  290TMC3    C5 4373   3.870   4.611  14.154
  290TMC3    C6 4374   3.784   4.718  14.138
  290TMC3     C 4375   4.183   4.792  14.221
  290TMC3     O 4376   4.218   0.098  14.181
  290TMC3     H 4377   3.995   0.160  14.202
  290TMC3    H1 4378   4.077   4.553  14.186
  290TMC3    H2 4379   3.680   4.703  14.110
  290TMC3    C7 4380   3.808   4.480  14.161
  290TMC3    C8 4381   3.744   0.155  14.148
  290TMC3    O1 4382   3.703   4.478  14.092
  290TMC3    O2 4383   3.649   0.131  14.069
  291MPD2     C 4384   3.480   4.710  18.146
  291MPD2    C1 4385   3.593   4.635  18.174
  291MPD2    C2 4386   3.711   4.707  18.171
  291MPD2    C3 4387   3.707   0.045  18.154
  291MPD2    C4 4388   3.592   0.114  18.129
  291MPD2    C5 4389   3.481   0.039  18.114
  291MPD2     H 4390   3.804   4.652  18.183
  291MPD2    H1 4391   3.588   0.221  18.110
  291MPD2    H2 4392   3.378   4.673  18.140
  291MPD2    H3 4393   3.389   0.094  18.100
  291MPD2     N 4394   3.829   0.122  18.153
  291MPD2    H5 4395   3.826   0.224  18.145
  291MPD2    N1 4396   3.596   4.495  18.174
  291MPD2    H7 4397   3.684   4.453  18.204
  292TMC3    C1 4398   3.498   4.290  18.209
  292TMC3    C2 4399   3.537   4.274  18.337
  292TMC3    C3 4400   3.567   4.148  18.376
  292TMC3    C4 4401   3.472   4.186  18.121
  292TMC3    C5 4402   3.516   4.057  18.164
  292TMC3    C6 4403   3.560   4.040  18.291
  292TMC3     C 4404   3.475   4.423  18.154
  292TMC3     O 4405   3.379   4.441  18.071
  292TMC3     H 4406   3.541   4.353  18.412
  292TMC3    H1 4407   3.436   4.205  18.021
  292TMC3    H2 4408   3.599   3.943  18.320
  292TMC3    C7 4409   3.517   3.942  18.067
  292TMC3    C8 4410   3.562   4.114  18.515
  292TMC3    O1 4411   3.587   3.846  18.095
  292TMC3    O2 4412   3.616   4.196  18.590
  293MPD2     C 4413   0.802   1.163  12.731
  293MPD2    C1 4414   0.714   1.098  12.823
  293MPD2    C2 4415   0.734   1.116  12.960
  293MPD2    C3 4416   0.841   1.186  13.018
  293MPD2    C4 4417   0.929   1.242  12.927
  293MPD2    C5 4418   0.906   1.232  12.792
  293MPD2     H 4419   0.664   1.060  13.021
  293MPD2    H1 4420   1.017   1.297  12.959
  293MPD2    H2 4421   0.784   1.168  12.625
  293MPD2    H3 4422   0.967   1.281  12.716
  293MPD2     N 4423   0.859   1.193  13.161
  293MPD2    H5 4424   0.789   1.154  13.223
  293MPD2    N1 4425   0.604   1.020  12.762
  293MPD2    H7 4426   0.608   1.029  12.661
  294TMC3    C1 4427   0.377   0.946  12.752
  294TMC3    C2 4428   0.291   0.857  12.806
  294TMC3    C3 4429   0.193   0.802  12.731
  294TMC3    C4 4430   0.377   0.974  12.619
  294TMC3    C5 4431   0.287   0.906  12.542
  294TMC3    C6 4432   0.187   0.822  12.595
  294TMC3     C 4433   0.499   0.968  12.835
  294TMC3     O 4434   0.492   0.950  12.955
  294TMC3     H 4435   0.312   0.820  12.906
  294TMC3    H1 4436   0.446   1.049  12.581
  294TMC3    H2 4437   0.113   0.779  12.530
  294TMC3    C7 4438   0.286   0.939  12.403
  294TMC3    C8 4439   0.133   0.682  12.783
  294TMC3    O1 4440   0.192   0.903  12.340
  294TMC3    O2 4441   0.144   0.652  12.903
  295MPD2     C 4442   1.827   4.688  18.650
  295MPD2    C1 4443   1.706   4.746  18.662
  295MPD2    C2 4444   1.632   4.732  18.781
  295MPD2    C3 4445   1.668   4.631  18.871
  295MPD2    C4 4446   1.779   4.558  18.848
  295MPD2    C5 4447   1.855   4.582  18.737
  295MPD2     H 4448   1.536   4.783  18.790
  295MPD2    H1 4449   1.809   4.472  18.905
  295MPD2    H2 4450   1.879   4.688  18.555
  295MPD2    H3 4451   1.946   4.529  18.711
  295MPD2     N 4452   1.594   4.602  18.980
  295MPD2    H5 4453   1.619   4.514  19.023
  295MPD2    N1 4454   1.649   0.034  18.562
  295MPD2    H7 4455   1.552   0.063  18.570
  296TMC3    C1 4456   1.435   4.604  19.155
  296TMC3    C2 4457   1.398   4.687  19.256
  296TMC3    C3 4458   1.316   4.626  19.347
  296TMC3    C4 4459   1.361   4.489  19.128
  296TMC3    C5 4460   1.259   4.447  19.210
  296TMC3    C6 4461   1.240   4.508  19.335
  296TMC3     C 4462   1.479   4.673  19.033
  296TMC3     O 4463   1.429   4.783  19.006
  296TMC3     H 4464   1.447   4.779  19.282
  296TMC3    H1 4465   1.374   4.438  19.033
  296TMC3    H2 4466   1.172   4.469  19.410
  296TMC3    C7 4467   1.146   4.375  19.148
  296TMC3    C8 4468   1.296   4.684  19.481
  296TMC3    O1 4469   1.157   4.362  19.026
  296TMC3    O2 4470   1.353   4.615  19.562
  297MPD2     C 4471   3.297   1.728  16.636
  297MPD2    C1 4472   3.272   1.824  16.528
  297MPD2    C2 4473   3.374   1.902  16.492
  297MPD2    C3 4474   3.500   1.881  16.538
  297MPD2    C4 4475   3.521   1.782  16.634
  297MPD2    C5 4476   3.419   1.711  16.686
  297MPD2     H 4477   3.361   1.976  16.414
  297MPD2    H1 4478   3.614   1.776  16.689
  297MPD2    H2 4479   3.222   1.658  16.671
  297MPD2    H3 4480   3.428   1.631  16.758
  297MPD2     N 4481   3.599   1.982  16.503
  297MPD2    H5 4482   3.568   2.071  16.465
  297MPD2    N1 4483   3.146   1.846  16.479
  297MPD2    H7 4484   3.147   1.909  16.400
  298TMC3    C1 4485   2.926   1.839  16.441
  298TMC3    C2 4486   2.952   1.831  16.307
  298TMC3    C3 4487   2.845   1.868  16.231
  298TMC3    C4 4488   2.821   1.895  16.498
  298TMC3    C5 4489   2.718   1.940  16.416
  298TMC3    C6 4490   2.723   1.927  16.277
  298TMC3     C 4491   3.031   1.794  16.527
  298TMC3     O 4492   3.008   1.749  16.640
  298TMC3     H 4493   3.036   1.768  16.280
  298TMC3    H1 4494   2.817   1.911  16.605
  298TMC3    H2 4495   2.651   1.972  16.211
  298TMC3    C7 4496   2.597   1.993  16.488
  298TMC3    C8 4497   2.867   1.875  16.088
  298TMC3    O1 4498   2.605   1.994  16.611
  298TMC3    O2 4499   2.776   1.902  16.015
  299MPD2     C 4500   3.908   1.603  11.185
  299MPD2    C1 4501   3.923   1.675  11.068
  299MPD2    C2 4502   3.840   1.653  10.962
  299MPD2    C3 4503   3.727   1.572  10.978
  299MPD2    C4 4504   3.713   1.497  11.091
  299MPD2    C5 4505   3.799   1.516  11.194
  299MPD2     H 4506   3.857   1.701  10.866
  299MPD2    H1 4507   3.627   1.438  11.119
  299MPD2    H2 4508   3.981   1.605  11.265
  299MPD2    H3 4509   3.782   1.459  11.285
  299MPD2     N 4510   3.627   1.561  10.880
  299MPD2    H5 4511   3.558   1.494  10.913
  299MPD2    N1 4512   4.032   1.761  11.058
  299MPD2    H7 4513   4.095   1.767  11.138
  300TMC3    C1 4514   3.503   1.595  10.672
  300TMC3    C2 4515   3.484   1.685  10.567
  300TMC3    C3 4516   3.361   1.696  10.514
  300TMC3    C4 4517   3.406   1.514  10.718
  300TMC3    C5 4518   3.286   1.525  10.649
  300TMC3    C6 4519   3.261   1.613  10.552
  300TMC3     C 4520   3.617   1.629  10.758
  300TMC3     O 4521   3.681   1.725  10.718
  300TMC3     H 4522   3.559   1.759  10.540
  300TMC3    H1 4523   3.407   1.437  10.795
  300TMC3    H2 4524   3.169   1.606  10.495
  300TMC3    C7 4525   3.177   1.466  10.724
  300TMC3    C8 4526   3.327   1.832  10.491
  300TMC3    O1 4527   3.106   1.380  10.677
  300TMC3    O2 4528   3.414   1.915  10.470
  301MPD2     C 4529   1.440   3.144  18.919
  301MPD2    C1 4530   1.468   3.201  19.038
  301MPD2    C2 4531   1.515   3.119  19.136
  301MPD2    C3 4532   1.538   2.981  19.114
  301MPD2    C4 4533   1.527   2.935  18.985
  301MPD2    C5 4534   1.480   3.015  18.889
  301MPD2     H 4535   1.521   3.168  19.233
  301MPD2    H1 4536   1.560   2.835  18.958
  301MPD2    H2 4537   1.418   3.205  18.831
  301MPD2    H3 4538   1.458   2.973  18.792
  301MPD2     N 4539   1.566   2.892  19.220
  301MPD2    H5 4540   1.592   2.796  19.198
  301MPD2    N1 4541   1.449   3.338  19.072
  301MPD2    H7 4542   1.483   3.365  19.164
  302TMC3    C1 4543   1.501   2.783  19.419
  302TMC3    C2 4544   1.595   2.685  19.445
  302TMC3    C3 4545   1.549   2.571  19.511
  302TMC3    C4 4546   1.366   2.751  19.445
  302TMC3    C5 4547   1.326   2.643  19.521
  302TMC3    C6 4548   1.427   2.563  19.567
  302TMC3     C 4549   1.525   2.914  19.351
  302TMC3     O 4550   1.472   3.013  19.400
  302TMC3     H 4551   1.699   2.695  19.416
  302TMC3    H1 4552   1.298   2.834  19.427
  302TMC3    H2 4553   1.403   2.474  19.624
  302TMC3    C7 4554   1.229   2.557  19.451
  302TMC3    C8 4555   1.644   2.464  19.516
  302TMC3    O1 4556   1.262   2.440  19.434
  302TMC3    O2 4557   1.599   2.349  19.517
  303MPD2     C 4558   1.583   1.344  10.919
  303MPD2    C1 4559   1.454   1.298  10.963
  303MPD2    C2 4560   1.356   1.307  10.869
  303MPD2    C3 4561   1.373   1.341  10.738
  303MPD2    C4 4562   1.495   1.400  10.702
  303MPD2    C5 4563   1.590   1.402  10.793
  303MPD2     H 4564   1.259   1.260  10.879
  303MPD2    H1 4565   1.511   1.439  10.602
  303MPD2    H2 4566   1.674   1.332  10.978
  303MPD2    H3 4567   1.689   1.433  10.760
  303MPD2     N 4568   1.284   1.322  10.634
  303MPD2    H5 4569   1.305   1.369  10.547
  303MPD2    N1 4570   1.441   1.234  11.091
  303MPD2    H7 4571   1.520   1.195  11.141
  304TMC3    C1 4572   1.314   1.132  11.266
  304TMC3    C2 4573   1.199   1.147  11.333
  304TMC3    C3 4574   1.170   1.051  11.422
  304TMC3    C4 4575   1.397   1.018  11.279
  304TMC3    C5 4576   1.363   0.926  11.371
  304TMC3    C6 4577   1.250   0.944  11.450
  304TMC3     C 4578   1.316   1.203  11.138
  304TMC3     O 4579   1.208   1.250  11.108
  304TMC3     H 4580   1.127   1.227  11.320
  304TMC3    H1 4581   1.459   1.003  11.192
  304TMC3    H2 4582   1.218   0.871  11.524
  304TMC3    C7 4583   1.384   0.785  11.346
  304TMC3    C8 4584   1.030   1.015  11.415
  304TMC3    O1 4585   1.416   0.753  11.232
  304TMC3    O2 4586   0.995   1.007  11.296
  305MPD2     C 4587   4.597   3.346  14.162
  305MPD2    C1 4588   4.549   3.219  14.191
  305MPD2    C2 4589   4.522   3.135  14.086
  305MPD2    C3 4590   4.553   3.177  13.960
  305MPD2    C4 4591   4.600   3.302  13.926
  305MPD2    C5 4592   4.619   3.385  14.034
  305MPD2     H 4593   4.469   3.040  14.091
  305MPD2    H1 4594   4.623   3.339  13.828
  305MPD2    H2 4595   4.619   3.421  14.238
  305MPD2    H3 4596   4.668   3.475  13.999
  305MPD2     N 4597   4.543   3.091  13.850
  305MPD2    H5 4598   4.568   3.130  13.760
  305MPD2    N1 4599   4.545   3.180  14.330
  305MPD2    H7 4600   4.568   3.257  14.392
  306TMC3    C1 4601   4.583   3.047  14.520
  306TMC3    C2 4602   4.646   2.938  14.556
  306TMC3    C3 4603   4.704   2.937  14.684
  306TMC3    C4 4604   4.555   3.151  14.613
  306TMC3    C5 4605   4.612   3.135  14.741
  306TMC3    C6 4606   4.694   3.037  14.771
  306TMC3     C 4607   4.542   3.052  14.380
  306TMC3     O 4608   4.498   2.951  14.328
  306TMC3     H 4609   4.661   2.856  14.486
  306TMC3    H1 4610   4.487   3.233  14.594
  306TMC3    H2 4611   4.723   3.012  14.872
  306TMC3    C7 4612   4.541   3.189  14.854
  306TMC3    C8 4613   4.769   2.807  14.713
  306TMC3    O1 4614   4.419   3.192  14.855
  306TMC3    O2 4615   4.747   2.710  14.639
  307MPD2     C 4616   1.934   1.040  18.416
  307MPD2    C1 4617   2.049   1.083  18.464
  307MPD2    C2 4618   2.059   1.129  18.595
  307MPD2    C3 4619   1.950   1.140  18.672
  307MPD2    C4 4620   1.829   1.098  18.620
  307MPD2    C5 4621   1.825   1.058  18.490
  307MPD2     H 4622   2.149   1.169  18.640
  307MPD2    H1 4623   1.732   1.107  18.669
  307MPD2    H2 4624   1.916   1.004  18.315
  307MPD2    H3 4625   1.731   1.035  18.440
  307MPD2     N 4626   1.961   1.188  18.807
  307MPD2    H5 4627   2.052   1.176  18.849
  307MPD2    N1 4628   2.168   1.084  18.389
  307MPD2    H7 4629   2.243   1.132  18.437
  308TMC3    C1 4630   1.771   1.163  19.208
  308TMC3    C2 4631   1.746   1.283  19.249
  308TMC3    C3 4632   1.783   1.390  19.170
  308TMC3    C4 4633   1.845   1.149  19.100
  308TMC3    C5 4634   1.884   1.250  19.020
  308TMC3    C6 4635   1.844   1.376  19.048
  308TMC3     C 4636   1.651   1.084  19.186
  308TMC3     O 4637   1.661   0.969  19.155
  308TMC3     H 4638   1.696   1.295  19.344
  308TMC3    H1 4639   1.858   1.048  19.061
  308TMC3    H2 4640   1.862   1.469  18.995
  308TMC3    C7 4641   1.853   1.223  18.889
  308TMC3    C8 4642   1.698   1.510  19.198
  308TMC3    O1 4643   1.735   1.244  18.864
  308TMC3    O2 4644   1.608   1.496  19.281
  309MPD2     C 4645   1.317   1.320  17.614
  309MPD2    C1 4646   1.280   1.414  17.516
  309MPD2    C2 4647   1.178   1.507  17.542
  309MPD2    C3 4648   1.101   1.489  17.656
  309MPD2    C4 4649   1.136   1.388  17.743
  309MPD2    C5 4650   1.240   1.308  17.727
  309MPD2     H 4651   1.152   1.579  17.466
  309MPD2    H1 4652   1.072   1.376  17.830
  309MPD2    H2 4653   1.402   1.253  17.606
  309MPD2    H3 4654   1.280   1.229  17.788
  309MPD2     N 4655   0.975   1.557  17.669
  309MPD2    H5 4656   0.915   1.528  17.745
  309MPD2    N1 4657   1.339   1.427  17.384
  309MPD2    H7 4658   1.287   1.482  17.317
  310TMC3    C1 4659   1.485   1.385  17.203
  310TMC3    C2 4660   1.430   1.490  17.135
  310TMC3    C3 4661   1.481   1.529  17.011
  310TMC3    C4 4662   1.598   1.319  17.155
  310TMC3    C5 4663   1.660   1.378  17.047
  310TMC3    C6 4664   1.600   1.478  16.968
  310TMC3     C 4665   1.444   1.352  17.335
  310TMC3     O 4666   1.514   1.268  17.393
  310TMC3     H 4667   1.333   1.530  17.162
  310TMC3    H1 4668   1.656   1.250  17.216
  310TMC3    H2 4669   1.638   1.505  16.870
  310TMC3    C7 4670   1.747   1.293  16.978
  310TMC3    C8 4671   1.402   1.618  16.936
  310TMC3    O1 4672   1.753   1.171  16.995
  310TMC3    O2 4673   1.287   1.649  16.974
  311MPD2     C 4674   3.337   2.820  12.992
  311MPD2    C1 4675   3.326   2.928  13.075
  311MPD2    C2 4676   3.229   2.920  13.174
  311MPD2    C3 4677   3.151   2.810  13.191
  311MPD2    C4 4678   3.169   2.703  13.110
  311MPD2    C5 4679   3.254   2.708  13.005
  311MPD2     H 4680   3.216   3.004  13.241
  311MPD2    H1 4681   3.119   2.609  13.129
  311MPD2    H2 4682   3.412   2.823  12.913
  311MPD2    H3 4683   3.257   2.625  12.936
  311MPD2     N 4684   3.049   2.813  13.294
  311MPD2    H5 4685   3.041   2.901  13.344
  311MPD2    N1 4686   3.408   3.048  13.064
  311MPD2    H7 4687   3.400   3.112  13.143
  312TMC3    C1 4688   2.853   2.751  13.397
  312TMC3    C2 4689   2.729   2.717  13.336
  312TMC3    C3 4690   2.633   2.814  13.349
  312TMC3    C4 4691   2.866   2.860  13.476
  312TMC3    C5 4692   2.758   2.938  13.499
  312TMC3    C6 4693   2.645   2.927  13.421
  312TMC3     C 4694   2.963   2.707  13.320
  312TMC3     O 4695   2.954   2.593  13.279
  312TMC3     H 4696   2.730   2.626  13.277
  312TMC3    H1 4697   2.957   2.883  13.530
  312TMC3    H2 4698   2.567   3.000  13.439
  312TMC3    C7 4699   2.782   3.049  13.589
  312TMC3    C8 4700   2.503   2.775  13.297
  312TMC3    O1 4701   2.732   3.156  13.565
  312TMC3    O2 4702   2.486   2.655  13.291
  313MPD2     C 4703   2.465   2.155  11.606
  313MPD2    C1 4704   2.503   2.253  11.512
  313MPD2    C2 4705   2.599   2.231  11.414
  313MPD2    C3 4706   2.652   2.105  11.403
  313MPD2    C4 4707   2.622   2.010  11.496
  313MPD2    C5 4708   2.527   2.034  11.588
  313MPD2     H 4709   2.616   2.308  11.339
  313MPD2    H1 4710   2.665   1.911  11.483
  313MPD2    H2 4711   2.392   2.158  11.686
  313MPD2    H3 4712   2.494   1.954  11.653
  313MPD2     N 4713   2.711   2.082  11.276
  313MPD2    H5 4714   2.685   2.143  11.200
  313MPD2    N1 4715   2.448   2.385  11.505
  313MPD2    H7 4716   2.482   2.442  11.428
  314TMC3    C1 4717   2.309   2.572  11.554
  314TMC3    C2 4718   2.409   2.653  11.543
  314TMC3    C3 4719   2.381   2.781  11.505
  314TMC3    C4 4720   2.181   2.599  11.519
  314TMC3    C5 4721   2.158   2.726  11.466
  314TMC3    C6 4722   2.257   2.810  11.459
  314TMC3     C 4723   2.340   2.433  11.580
  314TMC3     O 4724   2.254   2.378  11.649
  314TMC3     H 4725   2.506   2.611  11.565
  314TMC3    H1 4726   2.096   2.532  11.526
  314TMC3    H2 4727   2.235   2.913  11.436
  314TMC3    C7 4728   2.066   2.718  11.353
  314TMC3    C8 4729   2.474   2.890  11.517
  314TMC3    O1 4730   1.975   2.636  11.359
  314TMC3    O2 4731   2.431   3.006  11.530
  315MPD2     C 4732   2.597   1.327  17.736
  315MPD2    C1 4733   2.704   1.365  17.819
  315MPD2    C2 4734   2.762   1.482  17.798
  315MPD2    C3 4735   2.729   1.562  17.689
  315MPD2    C4 4736   2.630   1.526  17.602
  315MPD2    C5 4737   2.558   1.409  17.627
  315MPD2     H 4738   2.846   1.513  17.859
  315MPD2    H1 4739   2.608   1.578  17.510
  315MPD2    H2 4740   2.540   1.237  17.758
  315MPD2    H3 4741   2.469   1.388  17.569
  315MPD2     N 4742   2.796   1.686  17.672
  315MPD2    H5 4743   2.880   1.706  17.726
  315MPD2    N1 4744   2.739   1.284  17.931
  315MPD2    H7 4745   2.814   1.320  17.990
  316TMC3    C1 4746   2.868   1.894  17.587
  316TMC3    C2 4747   2.996   1.872  17.627
  316TMC3    C3 4748   3.091   1.959  17.584
  316TMC3    C4 4749   2.835   1.990  17.496
  316TMC3    C5 4750   2.931   2.082  17.461
  316TMC3    C6 4751   3.059   2.063  17.506
  316TMC3     C 4752   2.768   1.786  17.587
  316TMC3     O 4753   2.671   1.800  17.511
  316TMC3     H 4754   3.021   1.780  17.678
  316TMC3    H1 4755   2.733   2.001  17.460
  316TMC3    H2 4756   3.139   2.133  17.490
  316TMC3    C7 4757   2.886   2.217  17.458
  316TMC3    C8 4758   3.208   1.975  17.668
  316TMC3    O1 4759   2.948   2.300  17.526
  316TMC3    O2 4760   3.276   2.073  17.649
  317MPD2     C 4761   4.404   4.803  12.722
  317MPD2    C1 4762   4.453   4.671  12.711
  317MPD2    C2 4763   4.523   4.621  12.817
  317MPD2    C3 4764   4.568   4.699  12.925
  317MPD2    C4 4765   4.519   0.021  12.931
  317MPD2    C5 4766   4.435   0.071  12.832
  317MPD2     H 4767   4.564   4.521  12.812
  317MPD2    H1 4768   4.533   0.087  13.017
  317MPD2    H2 4769   4.355   0.046  12.638
  317MPD2    H3 4770   4.403   0.174  12.847
  317MPD2     N 4771   4.648   4.637  13.022
  317MPD2    H5 4772   4.656   4.536  13.010
  317MPD2    N1 4773   4.434   4.604  12.588
  317MPD2    H7 4774   4.495   4.524  12.572
  318TMC3    C1 4775   4.747   4.603  13.229
  318TMC3    C2 4776   4.665   4.501  13.247
  318TMC3    C3 4777   4.703   4.396  13.333
  318TMC3    C4 4778   0.060   4.616  13.300
  318TMC3    C5 4779   0.098   4.512  13.383
  318TMC3    C6 4780   0.018   4.400  13.400
  318TMC3     C 4781   4.710   4.697  13.129
  318TMC3     O 4782   4.759   0.003  13.145
  318TMC3     H 4783   4.563   4.512  13.211
  318TMC3    H1 4784   0.120   4.706  13.293
  318TMC3    H2 4785   0.032   4.326  13.478
  318TMC3    C7 4786   0.221   4.536  13.462
  318TMC3    C8 4787   4.620   4.276  13.348
  318TMC3    O1 4788   0.239   4.654  13.482
  318TMC3    O2 4789   4.671   4.164  13.357
  319MPD2     C 4790   0.790   0.967  16.587
  319MPD2    C1 4791   0.676   0.954  16.664
  319MPD2    C2 4792   0.568   0.887  16.606
  319MPD2    C3 4793   0.568   0.837  16.480
  319MPD2    C4 4794   0.683   0.852  16.405
  319MPD2    C5 4795   0.791   0.914  16.461
  319MPD2     H 4796   0.475   0.887  16.662
  319MPD2    H1 4797   0.692   0.819  16.302
  319MPD2    H2 4798   0.882   1.009  16.623
  319MPD2    H3 4799   0.877   0.932  16.398
  319MPD2     N 4800   0.458   0.776  16.417
  319MPD2    H5 4801   0.456   0.782  16.315
  319MPD2    N1 4802   0.661   1.011  16.791
  319MPD2    H7 4803   0.572   0.997  16.838
  320TMC3    C1 4804   0.238   0.705  16.412
  320TMC3    C2 4805   0.208   0.804  16.316
  320TMC3    C3 4806   0.085   0.796  16.249
  320TMC3    C4 4807   0.151   0.601  16.443
  320TMC3    C5 4808   0.031   0.602  16.381
  320TMC3    C6 4809   4.804   0.692  16.281
  320TMC3     C 4810   0.359   0.719  16.489
  320TMC3     O 4811   0.348   0.707  16.609
  320TMC3     H 4812   0.268   0.894  16.306
  320TMC3    H1 4813   0.189   0.531  16.516
  320TMC3    H2 4814   4.704   0.688  16.239
  320TMC3    C7 4815   4.745   0.487  16.406
  320TMC3    C8 4816   0.050   0.910  16.165
  320TMC3    O1 4817   4.660   0.462  16.324
  320TMC3    O2 4818   0.117   1.012  16.178
  321TMC3    C1 4819   0.732   1.103  16.996
  321TMC3    C2 4820   0.653   1.017  17.059
  321TMC3    C3 4821   0.552   1.061  17.142
  321TMC3    C4 4822   0.746   1.236  17.038
  321TMC3    C5 4823   0.650   1.276  17.132
  321TMC3    C6 4824   0.552   1.191  17.174
  321TMC3     C 4825   0.764   1.077  16.859
  321TMC3     O 4826   0.853   1.144  16.809
  321TMC3     H 4827   0.667   0.913  17.031
  321TMC3    H1 4828   0.815   1.306  16.993
  321TMC3    H2 4829   0.479   1.233  17.242
  321TMC3    C7 4830   0.717   1.326  17.251
  321TMC3    C8 4831   0.527   0.987  17.260
  321TMC3    O1 4832   0.828   1.281  17.271
  321TMC3    O2 4833   0.524   1.062  17.355
  322MPD2     C 4834   4.206   2.497  13.761
  322MPD2    C1 4835   4.244   2.426  13.874
  322MPD2    C2 4836   4.282   2.297  13.864
  322MPD2    C3 4837   4.284   2.233  13.739
  322MPD2    C4 4838   4.249   2.306  13.625
  322MPD2    C5 4839   4.204   2.434  13.641
  322MPD2     H 4840   4.309   2.236  13.950
  322MPD2    H1 4841   4.256   2.250  13.532
  322MPD2    H2 4842   4.175   2.601  13.759
  322MPD2    H3 4843   4.167   2.482  13.552
  322MPD2     N 4844   4.341   2.109  13.742
  322MPD2    H5 4845   4.357   2.061  13.830
  322MPD2    N1 4846   4.256   2.502  13.992
  322MPD2    H7 4847   4.243   2.603  13.985
  323TMC3    C1 4848   4.329   2.538  14.216
  323TMC3    C2 4849   4.433   2.621  14.176
  323TMC3    C3 4850   4.532   2.644  14.274
  323TMC3    C4 4851   4.322   2.497  14.347
  323TMC3    C5 4852   4.414   2.540  14.441
  323TMC3    C6 4853   4.523   2.610  14.409
  323TMC3     C 4854   4.283   2.447  14.116
  323TMC3     O 4855   4.288   2.335  14.162
  323TMC3     H 4856   4.433   2.668  14.079
  323TMC3    H1 4857   4.233   2.441  14.375
  323TMC3    H2 4858   4.613   2.607  14.469
  323TMC3    C7 4859   4.452   2.434  14.538
  323TMC3    C8 4860   4.667   2.684  14.220
  323TMC3    O1 4861   4.413   2.323  14.507
  323TMC3    O2 4862   4.760   2.670  14.300
  324MPD2     C 4863   0.901   3.577  14.460
  324MPD2    C1 4864   0.953   3.663  14.361
  324MPD2    C2 4865   0.864   3.693  14.263
  324MPD2    C3 4866   0.728   3.646  14.271
  324MPD2    C4 4867   0.680   3.563  14.375
  324MPD2    C5 4868   0.777   3.525  14.468
  324MPD2     H 4869   0.894   3.750  14.176
  324MPD2    H1 4870   0.578   3.527  14.380
  324MPD2    H2 4871   0.963   3.533  14.538
  324MPD2    H3 4872   0.736   3.461  14.546
  324MPD2     N 4873   0.626   3.684  14.173
  324MPD2    H5 4874   0.532   3.650  14.193
  324MPD2    N1 4875   1.090   3.694  14.353
  324MPD2    H7 4876   1.122   3.765  14.288
  325TMC3    C1 4877   0.524   3.748  13.957
  325TMC3    C2 4878   0.419   3.677  13.991
  325TMC3    C3 4879   0.299   3.691  13.925
  325TMC3    C4 4880   0.510   3.856  13.872
  325TMC3    C5 4881   0.396   3.866  13.796
  325TMC3    C6 4882   0.285   3.791  13.831
  325TMC3     C 4883   0.636   3.757  14.055
  325TMC3     O 4884   0.742   3.806  14.013
  325TMC3     H 4885   0.432   3.590  14.054
  325TMC3    H1 4886   0.591   3.927  13.866
  325TMC3    H2 4887   0.193   3.810  13.776
  325TMC3    C7 4888   0.377   4.007  13.772
  325TMC3    C8 4889   0.200   3.584  13.937
  325TMC3    O1 4890   0.472   4.070  13.735
  325TMC3    O2 4891   0.209   3.501  14.027
  326MPD2     C 4892   2.405   0.640  11.319
  326MPD2    C1 4893   2.412   0.550  11.212
  326MPD2    C2 4894   2.534   0.495  11.174
  326MPD2    C3 4895   2.645   0.528  11.236
  326MPD2    C4 4896   2.641   0.614  11.342
  326MPD2    C5 4897   2.520   0.668  11.384
  326MPD2     H 4898   2.526   0.432  11.086
  326MPD2    H1 4899   2.729   0.650  11.394
  326MPD2    H2 4900   2.312   0.691  11.340
  326MPD2    H3 4901   2.529   0.731  11.472
  326MPD2     N 4902   2.778   0.480  11.203
  326MPD2    H5 4903   2.863   0.515  11.246
  326MPD2    N1 4904   2.307   0.522  11.121
  326MPD2    H7 4905   2.329   0.454  11.049
  327TMC3    C1 4906   2.098   0.507  11.013
  327TMC3    C2 4907   2.011   0.587  10.943
  327TMC3    C3 4908   2.006   0.579  10.811
  327TMC3    C4 4909   2.139   0.389  10.951
  327TMC3    C5 4910   2.127   0.384  10.816
  327TMC3    C6 4911   2.058   0.474  10.741
  327TMC3     C 4912   2.183   0.575  11.117
  327TMC3     O 4913   2.150   0.675  11.177
  327TMC3     H 4914   1.964   0.669  10.996
  327TMC3    H1 4915   2.186   0.308  11.006
  327TMC3    H2 4916   2.048   0.484  10.634
  327TMC3    C7 4917   2.231   0.310  10.744
  327TMC3    C8 4918   1.897   0.664  10.755
  327TMC3    O1 4919   2.241   0.322  10.622
  327TMC3    O2 4920   1.898   0.702  10.638
  328MPD2     C 4921   0.081   4.582  17.496
  328MPD2    C1 4922   0.031   4.507  17.396
  328MPD2    C2 4923   4.802   4.567  17.273
  328MPD2    C3 4924   0.002   4.702  17.261
  328MPD2    C4 4925   0.058   4.775  17.363
  328MPD2    C5 4926   0.096   4.712  17.478
  328MPD2     H 4927   4.766   4.505  17.192
  328MPD2    H1 4928   0.061   0.079  17.364
  328MPD2    H2 4929   0.101   4.549  17.597
  328MPD2    H3 4930   0.135   4.781  17.552
  328MPD2     N 4931   4.742   4.774  17.161
  328MPD2    H5 4932   4.750   0.070  17.174
  328MPD2    N1 4933   4.802   4.378  17.421
  328MPD2    H7 4934   0.012   4.349  17.517
  329TMC3    C1 4935   4.683   4.185  17.434
  329TMC3    C2 4936   4.590   4.241  17.522
  329TMC3    C3 4937   4.477   4.180  17.557
  329TMC3    C4 4938   4.662   4.059  17.384
  329TMC3    C5 4939   4.544   3.995  17.424
  329TMC3    C6 4940   4.460   4.050  17.515
  329TMC3     C 4941   4.752   4.278  17.345
  329TMC3     O 4942   4.720   4.265  17.227
  329TMC3     H 4943   4.604   4.341  17.562
  329TMC3    H1 4944   4.737   4.022  17.315
  329TMC3    H2 4945   4.368   3.996  17.531
  329TMC3    C7 4946   4.556   3.851  17.449
  329TMC3    C8 4947   4.354   4.249  17.591
  329TMC3    O1 4948   4.502   3.809  17.551
  329TMC3    O2 4949   4.254   4.207  17.537
  330TMC3    C1 4950   2.389   4.497   9.680
  330TMC3    C2 4951   2.321   4.383   9.638
  330TMC3    C3 4952   2.354   4.261   9.700
  330TMC3    C4 4953   2.491   4.487   9.767
  330TMC3    C5 4954   2.520   4.373   9.827
  330TMC3    C6 4955   2.456   4.257   9.789
  330TMC3     C 4956   2.336   4.629   9.659
  330TMC3     O 4957   2.365   4.705   9.749
  330TMC3     H 4958   2.236   4.391   9.572
  330TMC3    H1 4959   2.554   4.576   9.766
  330TMC3    H2 4960   2.496   4.160   9.816
  330TMC3    C7 4961   2.641   4.365   9.905
  330TMC3    C8 4962   2.302   4.136   9.642
  330TMC3    O1 4963   2.724   4.454   9.905
  330TMC3    O2 4964   2.250   4.136   9.533
  331MPD2     C 4965   1.087   2.983  13.598
  331MPD2    C1 4966   1.151   2.983  13.475
  331MPD2    C2 4967   1.103   2.899  13.375
  331MPD2    C3 4968   1.004   2.814  13.402
  331MPD2    C4 4969   0.956   2.793  13.535
  331MPD2    C5 4970   0.993   2.887  13.631
  331MPD2     H 4971   1.148   2.892  13.277
  331MPD2    H1 4972   0.871   2.731  13.562
  331MPD2    H2 4973   1.119   3.057  13.671
  331MPD2    H3 4974   0.956   2.875  13.733
  331MPD2     N 4975   0.951   2.734  13.293
  331MPD2    H5 4976   1.000   2.750  13.205
  331MPD2    N1 4977   1.253   3.081  13.447
  331MPD2    H7 4978   1.255   3.165  13.503
  332TMC3    C1 4979   0.849   2.553  13.182
  332TMC3    C2 4980   0.882   2.625  13.073
  332TMC3    C3 4981   0.935   2.548  12.974
  332TMC3    C4 4982   0.853   2.417  13.190
  332TMC3    C5 4983   0.909   2.345  13.092
  332TMC3    C6 4984   0.950   2.408  12.980
  332TMC3     C 4985   0.869   2.618  13.304
  332TMC3     O 4986   0.837   2.563  13.409
  332TMC3     H 4987   0.880   2.733  13.058
  332TMC3    H1 4988   0.828   2.366  13.283
  332TMC3    H2 4989   1.000   2.347  12.906
  332TMC3    C7 4990   0.977   2.228  13.131
  332TMC3    C8 4991   0.987   2.612  12.865
  332TMC3    O1 4992   0.920   2.122  13.104
  332TMC3    O2 4993   1.060   2.708  12.875
  333MPD2     C 4994   0.786   3.408  11.442
  333MPD2    C1 4995   0.819   3.351  11.313
  333MPD2    C2 4996   0.823   3.217  11.306
  333MPD2    C3 4997   0.779   3.135  11.403
  333MPD2    C4 4998   0.739   3.190  11.526
  333MPD2    C5 4999   0.746   3.326  11.552
  333MPD2     H 5000   0.856   3.161  11.219
  333MPD2    H1 5001   0.709   3.128  11.610
  333MPD2    H2 5002   0.793   3.514  11.459
  333MPD2    H3 5003   0.712   3.365  11.647
  333MPD2     N 5004   0.781   3.002  11.368
  333MPD2    H5 5005   0.821   2.976  11.278
  333MPD2    N1 5006   0.861   3.438  11.213
  333MPD2    H7 5007   0.905   3.526  11.238
  334TMC3    C1 5008   0.942   3.509  11.003
  334TMC3    C2 5009   1.021   3.465  10.904
  334TMC3    C3 5010   1.131   3.543  10.857
  334TMC3    C4 5011   0.939   3.643  11.044
  334TMC3    C5 5012   1.038   3.718  10.990
  334TMC3    C6 5013   1.134   3.671  10.902
  334TMC3     C 5014   0.874   3.403  11.078
  334TMC3     O 5015   0.832   3.304  11.021
  334TMC3     H 5016   1.023   3.360  10.877
  334TMC3    H1 5017   0.869   3.684  11.115
  334TMC3    H2 5018   1.216   3.737  10.874
  334TMC3    C7 5019   1.058   3.852  11.054
  334TMC3    C8 5020   1.257   3.472  10.829
  334TMC3    O1 5021   1.174   3.882  11.090
  334TMC3    O2 5022   1.246   3.352  10.790
  335TMC3    C1 5023   0.765   4.547  17.448
  335TMC3    C2 5024   0.709   4.453  17.369
  335TMC3    C3 5025   0.762   4.432  17.248
  335TMC3    C4 5026   0.874   4.628  17.412
  335TMC3    C5 5027   0.927   4.599  17.288
  335TMC3    C6 5028   0.871   4.508  17.206
  335TMC3     C 5029   0.703   4.576  17.579
  335TMC3     O 5030   0.586   4.546  17.598
  335TMC3     H 5031   0.630   4.389  17.407
  335TMC3    H1 5032   0.926   4.695  17.480
  335TMC3    H2 5033   0.907   4.477  17.109
  335TMC3    C7 5034   1.057   4.639  17.245
  335TMC3    C8 5035   0.686   4.365  17.146
  335TMC3    O1 5036   1.100   4.585  17.144
  335TMC3    O2 5037   0.705   4.400  17.029
  336MPD2     C 5038   0.502   2.105  16.471
  336MPD2    C1 5039   0.488   2.046  16.342
  336MPD2    C2 5040   0.503   1.912  16.325
  336MPD2    C3 5041   0.542   1.826  16.426
  336MPD2    C4 5042   0.569   1.885  16.555
  336MPD2    C5 5043   0.545   2.020  16.577
  336MPD2     H 5044   0.469   1.886  16.225
  336MPD2    H1 5045   0.592   1.821  16.639
  336MPD2    H2 5046   0.482   2.209  16.493
  336MPD2    H3 5047   0.555   2.061  16.677
  336MPD2     N 5048   0.555   1.685  16.410
  336MPD2    H5 5049   0.574   1.639  16.499
  336MPD2    N1 5050   0.439   2.119  16.229
  336MPD2    H7 5051   0.412   2.064  16.148
  337TMC3    C1 5052   0.353   2.277  16.097
  337TMC3    C2 5053   0.249   2.200  16.048
  337TMC3    C3 5054   0.185   2.238  15.930
  337TMC3    C4 5055   0.395   2.384  16.024
  337TMC3    C5 5056   0.338   2.413  15.904
  337TMC3    C6 5057   0.227   2.349  15.862
  337TMC3     C 5058   0.417   2.252  16.224
  337TMC3     O 5059   0.469   2.339  16.291
  337TMC3     H 5060   0.200   2.126  16.111
  337TMC3    H1 5061   0.463   2.456  16.069
  337TMC3    H2 5062   0.177   2.391  15.775
  337TMC3    C7 5063   0.347   2.554  15.865
  337TMC3    C8 5064   0.075   2.164  15.875
  337TMC3    O1 5065   0.250   2.598  15.802
  337TMC3    O2 5066   0.051   2.052  15.927
  338MPD2     C 5067   1.163   1.962  19.079
  338MPD2    C1 5068   1.058   1.940  18.983
  338MPD2    C2 5069   0.942   2.019  19.000
  338MPD2    C3 5070   0.925   2.105  19.103
  338MPD2    C4 5071   1.025   2.121  19.196
  338MPD2    C5 5072   1.138   2.048  19.183
  338MPD2     H 5073   0.872   2.014  18.917
  338MPD2    H1 5074   1.016   2.203  19.266
  338MPD2    H2 5075   1.262   1.919  19.073
  338MPD2    H3 5076   1.212   2.067  19.259
  338MPD2     N 5077   0.799   2.174  19.095
  338MPD2    H5 5078   0.735   2.147  19.021
  338MPD2    N1 5079   1.071   1.861  18.866
  338MPD2    H7 5080   0.984   1.845  18.817
  339TMC3    C1 5081   0.608   2.268  19.162
  339TMC3    C2 5082   0.575   2.211  19.044
  339TMC3    C3 5083   0.494   2.099  19.052
  339TMC3    C4 5084   0.538   2.236  19.279
  339TMC3    C5 5085   0.445   2.128  19.278
  339TMC3    C6 5086   0.424   2.060  19.165
  339TMC3     C 5087   0.756   2.270  19.178
  339TMC3     O 5088   0.806   2.305  19.282
  339TMC3     H 5089   0.616   2.252  18.952
  339TMC3    H1 5090   0.567   2.281  19.373
  339TMC3    H2 5091   0.355   1.977  19.163
  339TMC3    C7 5092   0.396   2.098  19.412
  339TMC3    C8 5093   0.505   2.014  18.937
  339TMC3    O1 5094   0.469   2.118  19.503
  339TMC3    O2 5095   0.538   2.078  18.838
  340MPD2     C 5096   0.641   0.053  10.366
  340MPD2    C1 5097   0.692   4.730  10.404
  340MPD2    C2 5098   0.751   4.711  10.531
  340MPD2    C3 5099   0.786   0.020  10.601
  340MPD2    C4 5100   0.732   0.138  10.561
  340MPD2    C5 5101   0.654   0.147  10.451
  340MPD2     H 5102   0.798   4.620  10.567
  340MPD2    H1 5103   0.759   0.227  10.616
  340MPD2    H2 5104   0.569   0.061  10.286
  340MPD2    H3 5105   0.612   0.244  10.429
  340MPD2     N 5106   0.873   0.018  10.714
  340MPD2    H5 5107   0.914   0.106  10.744
  340MPD2    N1 5108   0.672   4.624  10.314
  340MPD2    H7 5109   0.630   4.645  10.223
  341TMC3    C1 5110   0.708   4.416  10.206
  341TMC3    C2 5111   0.702   4.280  10.219
  341TMC3    C3 5112   0.721   4.204  10.107
  341TMC3    C4 5113   0.723   4.483  10.084
  341TMC3    C5 5114   0.729   4.404   9.972
  341TMC3    C6 5115   0.730   4.266   9.984
  341TMC3     C 5116   0.704   4.491  10.335
  341TMC3     O 5117   0.743   4.440  10.437
  341TMC3     H 5118   0.698   4.235  10.318
  341TMC3    H1 5119   0.725   4.591  10.074
  341TMC3    H2 5120   0.719   4.206   9.894
  341TMC3    C7 5121   0.813   4.465   9.862
  341TMC3    C8 5122   0.696   4.058  10.122
  341TMC3    O1 5123   0.872   4.381   9.796
  341TMC3    O2 5124   0.616   4.030  10.211
  342MPD2     C 5125   3.426   2.605  17.336
  342MPD2    C1 5126   3.493   2.591  17.453
  342MPD2    C2 5127   3.531   2.699  17.523
  342MPD2    C3 5128   3.491   2.827  17.474
  342MPD2    C4 5129   3.410   2.843  17.364
  342MPD2    C5 5130   3.384   2.731  17.290
  342MPD2     H 5131   3.579   2.700  17.620
  342MPD2    H1 5132   3.384   2.939  17.321
  342MPD2    H2 5133   3.397   2.520  17.277
  342MPD2    H3 5134   3.320   2.735  17.203
  342MPD2     N 5135   3.528   2.948  17.537
  342MPD2    H5 5136   3.473   3.031  17.516
  342MPD2    N1 5137   3.524   2.458  17.504
  342MPD2    H7 5138   3.576   2.453  17.591
  343TMC3    C1 5139   3.587   2.231  17.481
  343TMC3    C2 5140   3.723   2.257  17.483
  343TMC3    C3 5141   3.807   2.145  17.455
  343TMC3    C4 5142   3.536   2.106  17.444
  343TMC3    C5 5143   3.623   2.001  17.444
  343TMC3    C6 5144   3.754   2.015  17.449
  343TMC3     C 5145   3.493   2.337  17.446
  343TMC3     O 5146   3.425   2.310  17.347
  343TMC3     H 5147   3.761   2.357  17.500
  343TMC3    H1 5148   3.429   2.088  17.449
  343TMC3    H2 5149   3.822   1.931  17.439
  343TMC3    C7 5150   3.560   1.880  17.494
  343TMC3    C8 5151   3.951   2.170  17.421
  343TMC3    O1 5152   3.464   1.835  17.442
  343TMC3    O2 5153   4.002   2.262  17.485
  344MPD2     C 5154   4.217   2.526  11.008
  344MPD2    C1 5155   4.316   2.442  10.955
  344MPD2    C2 5156   4.398   2.494  10.852
  344MPD2    C3 5157   4.398   2.623  10.821
  344MPD2    C4 5158   4.302   2.712  10.881
  344MPD2    C5 5159   4.208   2.656  10.965
  344MPD2     H 5160   4.460   2.418  10.806
  344MPD2    H1 5161   4.301   2.819  10.862
  344MPD2    H2 5162   4.136   2.493  11.072
  344MPD2    H3 5163   4.133   2.721  11.007
  344MPD2     N 5164   4.493   2.677  10.732
  344MPD2    H5 5165   4.486   2.775  10.706
  344MPD2    N1 5166   4.301   2.301  10.970
  344MPD2    H7 5167   4.349   2.245  10.900
  345TMC3    C1 5168   4.689   2.696  10.607
  345TMC3    C2 5169   0.020   2.686  10.623
  345TMC3    C3 5170   0.087   2.800  10.606
  345TMC3    C4 5171   4.636   2.787  10.523
  345TMC3    C5 5172   4.714   2.893  10.485
  345TMC3    C6 5173   0.038   2.905  10.527
  345TMC3     C 5174   4.610   2.616  10.693
  345TMC3     O 5175   4.662   2.528  10.752
  345TMC3     H 5176   0.051   2.606  10.688
  345TMC3    H1 5177   4.527   2.791  10.522
  345TMC3    H2 5178   0.086   3.001  10.510
  345TMC3    C7 5179   4.657   2.994  10.400
  345TMC3    C8 5180   0.159   2.844  10.717
  345TMC3    O1 5181   4.718   3.096  10.379
  345TMC3    O2 5182   0.132   2.813  10.833
  346MPD2     C 5183   4.268   3.669  13.971
  346MPD2    C1 5184   4.369   3.750  13.923
  346MPD2    C2 5185   4.407   3.865  13.991
  346MPD2    C3 5186   4.332   3.908  14.094
  346MPD2    C4 5187   4.215   3.840  14.127
  346MPD2    C5 5188   4.191   3.714  14.075
  346MPD2     H 5189   4.497   3.916  13.959
  346MPD2    H1 5190   4.164   3.874  14.216
  346MPD2    H2 5191   4.250   3.571  13.928
  346MPD2    H3 5192   4.102   3.660  14.106
  346MPD2     N 5193   4.374   4.022  14.159
  346MPD2    H5 5194   4.456   4.069  14.123
  346MPD2    N1 5195   4.443   3.720  13.810
  346MPD2    H7 5196   4.519   3.782  13.781
  347TMC3    C1 5197   4.364   4.220  14.274
  347TMC3    C2 5198   4.444   4.244  14.165
  347TMC3    C3 5199   4.563   4.299  14.188
  347TMC3    C4 5200   4.404   4.242  14.405
  347TMC3    C5 5201   4.534   4.291  14.418
  347TMC3    C6 5202   4.616   4.314  14.317
  347TMC3     C 5203   4.305   4.090  14.262
  347TMC3     O 5204   4.223   4.050  14.345
  347TMC3     H 5205   4.405   4.222  14.066
  347TMC3    H1 5206   4.340   4.218  14.489
  347TMC3    H2 5207   4.719   4.346  14.328
  347TMC3    C7 5208   4.597   4.272  14.549
  347TMC3    C8 5209   4.652   4.244  14.093
  347TMC3    O1 5210   4.519   4.250  14.644
  347TMC3    O2 5211   4.627   4.136  14.043
  348MPD2     C 5212   3.026   3.898  12.376
  348MPD2    C1 5213   3.142   3.889  12.303
  348MPD2    C2 5214   3.145   3.967  12.182
  348MPD2    C3 5215   3.035   4.044  12.141
  348MPD2    C4 5216   2.923   4.047  12.219
  348MPD2    C5 5217   2.928   3.981  12.336
  348MPD2     H 5218   3.228   3.962  12.111
  348MPD2    H1 5219   2.838   4.110  12.194
  348MPD2    H2 5220   2.990   3.844  12.463
  348MPD2    H3 5221   2.838   3.980  12.397
  348MPD2     N 5222   3.043   4.101  12.006
  348MPD2    H5 5223   3.120   4.070  11.948
  348MPD2    N1 5224   3.243   3.794  12.342
  348MPD2    H7 5225   3.322   3.773  12.283
  349TMC3    C1 5226   3.328   3.603  12.436
  349TMC3    C2 5227   3.279   3.479  12.475
  349TMC3    C3 5228   3.316   3.373  12.405
  349TMC3    C4 5229   3.416   3.615  12.332
  349TMC3    C5 5230   3.451   3.505  12.262
  349TMC3    C6 5231   3.403   3.385  12.300
  349TMC3     C 5232   3.220   3.700  12.438
  349TMC3     O 5233   3.127   3.673  12.515
  349TMC3     H 5234   3.207   3.464  12.554
  349TMC3    H1 5235   3.472   3.708  12.326
  349TMC3    H2 5236   3.436   3.295  12.249
  349TMC3    C7 5237   3.566   3.514  12.170
  349TMC3    C8 5238   3.310   3.242  12.471
  349TMC3    O1 5239   3.645   3.424  12.195
  349TMC3    O2 5240   3.315   3.234  12.595
  350MPD2     C 5241   2.110   1.900  10.792
  350MPD2    C1 5242   2.199   1.853  10.696
  350MPD2    C2 5243   2.327   1.900  10.696
  350MPD2    C3 5244   2.373   1.984  10.786
  350MPD2    C4 5245   2.277   2.026  10.885
  350MPD2    C5 5246   2.146   1.988  10.890
  350MPD2     H 5247   2.407   1.862  10.633
  350MPD2    H1 5248   2.298   2.099  10.962
  350MPD2    H2 5249   2.006   1.872  10.805
  350MPD2    H3 5250   2.084   2.021  10.972
  350MPD2     N 5251   2.509   2.033  10.771
  350MPD2    H5 5252   2.554   1.993  10.689
  350MPD2    N1 5253   2.172   1.756  10.596
  350MPD2    H7 5254   2.247   1.727  10.534
  351TMC3    C1 5255   2.055   1.574  10.501
  351TMC3    C2 5256   2.171   1.505  10.476
  351TMC3    C3 5257   2.168   1.404  10.384
  351TMC3    C4 5258   1.931   1.541  10.446
  351TMC3    C5 5259   1.934   1.433  10.363
  351TMC3    C6 5260   2.057   1.362  10.324
  351TMC3     C 5261   2.052   1.691  10.583
  351TMC3     O 5262   1.944   1.734  10.624
  351TMC3     H 5263   2.265   1.549  10.505
  351TMC3    H1 5264   1.843   1.601  10.466
  351TMC3    H2 5265   2.059   1.271  10.265
  351TMC3    C7 5266   1.829   1.442  10.259
  351TMC3    C8 5267   2.289   1.364  10.314
  351TMC3    O1 5268   1.742   1.525  10.274
  351TMC3    O2 5269   2.281   1.317  10.196
  352MPD2     C 5270   0.741   3.913  18.700
  352MPD2    C1 5271   0.711   3.896  18.831
  352MPD2    C2 5272   0.813   3.856  18.915
  352MPD2    C3 5273   0.934   3.815  18.870
  352MPD2    C4 5274   0.953   3.825  18.732
  352MPD2    C5 5275   0.864   3.883  18.651
  352MPD2     H 5276   0.789   3.849  19.020
  352MPD2    H1 5277   1.047   3.791  18.690
  352MPD2    H2 5278   0.666   3.944  18.628
  352MPD2    H3 5279   0.892   3.896  18.547
  352MPD2     N 5280   1.036   3.764  18.949
  352MPD2    H5 5281   1.112   3.722  18.898
  352MPD2    N1 5282   0.583   3.920  18.879
  352MPD2    H7 5283   0.514   3.966  18.821
  353TMC3    C1 5284   1.159   3.673  19.143
  353TMC3    C2 5285   1.252   3.617  19.061
  353TMC3    C3 5286   1.304   3.501  19.102
  353TMC3    C4 5287   1.129   3.622  19.268
  353TMC3    C5 5288   1.159   3.487  19.285
  353TMC3    C6 5289   1.251   3.431  19.204
  353TMC3     C 5290   1.041   3.752  19.087
  353TMC3     O 5291   0.954   3.780  19.170
  353TMC3     H 5292   1.290   3.666  18.972
  353TMC3    H1 5293   1.058   3.662  19.340
  353TMC3    H2 5294   1.271   3.324  19.205
  353TMC3    C7 5295   1.037   3.405  19.279
  353TMC3    C8 5296   1.370   3.421  19.004
  353TMC3    O1 5297   1.022   3.334  19.180
  353TMC3    O2 5298   1.327   3.424  18.889
  354TMC3    C1 5299   2.371   0.143  13.829
  354TMC3    C2 5300   2.473   0.232  13.855
  354TMC3    C3 5301   2.585   0.238  13.778
  354TMC3    C4 5302   2.380   0.062  13.719
  354TMC3    C5 5303   2.499   0.058  13.642
  354TMC3    C6 5304   2.601   0.146  13.676
  354TMC3     C 5305   2.308   0.072  13.943
  354TMC3     O 5306   2.209   0.003  13.928
  354TMC3     H 5307   2.466   0.304  13.936
  354TMC3    H1 5308   2.305   4.797  13.682
  354TMC3    H2 5309   2.689   0.165  13.616
  354TMC3    C7 5310   2.487   0.028  13.503
  354TMC3    C8 5311   2.646   0.366  13.749
  354TMC3    O1 5312   2.376   0.042  13.455
  354TMC3    O2 5313   2.567   0.454  13.726
  355MPD2     C 5314   2.631   1.064  12.158
  355MPD2    C1 5315   2.722   0.990  12.080
  355MPD2    C2 5316   2.814   0.912  12.144
  355MPD2    C3 5317   2.805   0.892  12.281
  355MPD2    C4 5318   2.704   0.956  12.350
  355MPD2    C5 5319   2.626   1.050  12.293
  355MPD2     H 5320   2.904   0.877  12.094
  355MPD2    H1 5321   2.701   0.935  12.456
  355MPD2    H2 5322   2.562   1.136  12.116
  355MPD2    H3 5323   2.559   1.113  12.351
  355MPD2     N 5324   2.913   0.841  12.352
  355MPD2    H5 5325   2.926   0.871  12.448
  355MPD2    N1 5326   2.737   1.028  11.943
  355MPD2    H7 5327   2.694   1.115  11.913
  356TMC3    C1 5328   3.138   0.833  12.328
  356TMC3    C2 5329   3.212   0.883  12.231
  356TMC3    C3 5330   3.272   1.001  12.258
  356TMC3    C4 5331   3.149   0.870  12.460
  356TMC3    C5 5332   3.207   0.990  12.484
  356TMC3    C6 5333   3.279   1.051  12.383
  356TMC3     C 5334   3.018   0.771  12.293
  356TMC3     O 5335   3.015   0.693  12.198
  356TMC3     H 5336   3.202   0.828  12.138
  356TMC3    H1 5337   3.098   0.811  12.535
  356TMC3    H2 5338   3.320   1.148  12.409
  356TMC3    C7 5339   3.248   1.020  12.624
  356TMC3    C8 5340   3.327   1.057  12.133
  356TMC3    O1 5341   3.260   0.922  12.702
  356TMC3    O2 5342   3.269   1.018  12.032
  357MPD2     C 5343   2.563   0.561  18.324
  357MPD2    C1 5344   2.525   0.534  18.451
  357MPD2    C2 5345   2.412   0.596  18.496
  357MPD2    C3 5346   2.335   0.678  18.405
  357MPD2    C4 5347   2.370   0.693  18.274
  357MPD2    C5 5348   2.482   0.629  18.234
  357MPD2     H 5349   2.375   0.583  18.597
  357MPD2    H1 5350   2.315   0.764  18.212
  357MPD2    H2 5351   2.654   0.512  18.293
  357MPD2    H3 5352   2.521   0.649  18.135
  357MPD2     N 5353   2.219   0.742  18.437
  357MPD2    H5 5354   2.163   0.784  18.363
  357MPD2    N1 5355   2.590   0.423  18.513
  357MPD2    H7 5356   2.654   0.367  18.458
  358TMC3    C1 5357   2.569   0.250  18.664
  358TMC3    C2 5358   2.544   0.166  18.561
  358TMC3    C3 5359   2.477   0.054  18.599
  358TMC3    C4 5360   2.539   0.226  18.794
  358TMC3    C5 5361   2.493   0.100  18.823
  358TMC3    C6 5362   2.448   0.019  18.729
  358TMC3     C 5363   2.568   0.396  18.643
  358TMC3     O 5364   2.523   0.468  18.733
  358TMC3     H 5365   2.573   0.179  18.458
  358TMC3    H1 5366   2.579   0.289  18.873
  358TMC3    H2 5367   2.408   4.728  18.762
  358TMC3    C7 5368   2.455   0.085  18.961
  358TMC3    C8 5369   2.446   4.766  18.485
  358TMC3    O1 5370   2.482   4.777  19.011
  358TMC3    O2 5371   2.514   4.778  18.386
  359MPD2     C 5372   2.745   4.715  12.633
  359MPD2    C1 5373   2.729   4.631  12.526
  359MPD2    C2 5374   2.633   4.527  12.526
  359MPD2    C3 5375   2.550   4.520  12.639
  359MPD2    C4 5376   2.563   4.612  12.740
  359MPD2    C5 5377   2.656   4.705  12.743
  359MPD2     H 5378   2.620   4.470  12.435
  359MPD2    H1 5379   2.483   4.618  12.813
  359MPD2    H2 5380   2.822   4.791  12.631
  359MPD2    H3 5381   2.655   4.790  12.810
  359MPD2     N 5382   2.458   4.415  12.660
  359MPD2    H5 5383   2.424   4.408  12.756
  359MPD2    N1 5384   2.801   4.643  12.405
  359MPD2    H7 5385   2.762   4.595  12.325
  360TMC3    C1 5386   2.948   4.726  12.254
  360TMC3    C2 5387   3.082   4.758  12.240
  360TMC3    C3 5388   3.125   4.754  12.110
  360TMC3    C4 5389   2.880   4.666  12.152
  360TMC3    C5 5390   2.939   4.638  12.035
  360TMC3    C6 5391   3.063   4.689  12.010
  360TMC3     C 5392   2.906   4.725  12.389
  360TMC3     O 5393   2.978   4.785  12.470
  360TMC3     H 5394   3.134   0.023  12.304
  360TMC3    H1 5395   2.772   4.659  12.163
  360TMC3    H2 5396   3.119   4.686  11.917
  360TMC3    C7 5397   2.869   4.604  11.911
  360TMC3    C8 5398   3.253   0.016  12.087
  360TMC3    O1 5399   2.921   4.640  11.810
  360TMC3    O2 5400   3.262   0.127  12.131
  361MPD2     C 5401   4.486   2.813  16.811
  361MPD2    C1 5402   4.511   2.910  16.899
  361MPD2    C2 5403   4.615   2.909  16.990
  361MPD2    C3 5404   4.710   2.804  16.984
  361MPD2    C4 5405   4.700   2.709  16.884
  361MPD2    C5 5406   4.586   2.715  16.808
  361MPD2     H 5407   4.616   2.983  17.070
  361MPD2    H1 5408   4.765   2.622  16.882
  361MPD2    H2 5409   4.404   2.815  16.740
  361MPD2    H3 5410   4.564   2.641  16.731
  361MPD2     N 5411   0.013   2.794  17.068
  361MPD2    H5 5412   0.072   2.713  17.054
  361MPD2    N1 5413   4.412   3.011  16.918
  361MPD2    H7 5414   4.417   3.065  17.004
  362TMC3    C1 5415   4.228   3.157  16.863
  362TMC3    C2 5416   4.184   3.155  16.992
  362TMC3    C3 5417   4.093   3.247  17.025
  362TMC3    C4 5418   4.183   3.238  16.765
  362TMC3    C5 5419   4.102   3.335  16.806
  362TMC3    C6 5420   4.055   3.337  16.934
  362TMC3     C 5421   4.320   3.051  16.824
  362TMC3     O 5422   4.322   3.037  16.702
  362TMC3     H 5423   4.215   3.080  17.064
  362TMC3    H1 5424   4.225   3.244  16.666
  362TMC3    H2 5425   3.987   3.417  16.962
  362TMC3    C7 5426   4.027   3.423  16.714
  362TMC3    C8 5427   4.003   3.222  17.133
  362TMC3    O1 5428   3.973   3.521  16.759
  362TMC3    O2 5429   4.043   3.143  17.218
  363TMC3    C1 5430   2.856   1.086   9.486
  363TMC3    C2 5431   2.979   1.065   9.541
  363TMC3    C3 5432   3.006   1.141   9.652
  363TMC3    C4 5433   2.760   1.172   9.536
  363TMC3    C5 5434   2.796   1.249   9.648
  363TMC3    C6 5435   2.916   1.222   9.709
  363TMC3     C 5436   2.813   1.032   9.356
  363TMC3     O 5437   2.707   1.073   9.314
  363TMC3     H 5438   3.061   1.013   9.492
  363TMC3    H1 5439   2.667   1.195   9.484
  363TMC3    H2 5440   2.939   1.270   9.803
  363TMC3    C7 5441   2.710   1.361   9.675
  363TMC3    C8 5442   3.113   1.099   9.740
  363TMC3    O1 5443   2.598   1.359   9.634
  363TMC3    O2 5444   3.162   1.183   9.814
  364MPD2     C 5445   1.517   1.000  10.827
  364MPD2    C1 5446   1.633   1.004  10.750
  364MPD2    C2 5447   1.718   0.900  10.749
  364MPD2    C3 5448   1.706   0.791  10.833
  364MPD2    C4 5449   1.605   0.792  10.923
  364MPD2    C5 5450   1.508   0.897  10.922
  364MPD2     H 5451   1.815   0.910  10.701
  364MPD2    H1 5452   1.585   0.707  10.988
  364MPD2    H2 5453   1.431   1.065  10.819
  364MPD2    H3 5454   1.418   0.896  10.981
  364MPD2     N 5455   1.796   0.693  10.847
  364MPD2    H5 5456   1.792   0.636  10.931
  364MPD2    N1 5457   1.641   1.108  10.654
  364MPD2    H7 5458   1.564   1.173  10.647
  365TMC3    C1 5459   1.868   1.104  10.581
  365TMC3    C2 5460   1.935   1.016  10.504
  365TMC3    C3 5461   2.070   1.007  10.515
  365TMC3    C4 5462   1.931   1.182  10.666
  365TMC3    C5 5463   2.067   1.190  10.657
  365TMC3    C6 5464   2.143   1.094  10.590
  365TMC3     C 5465   1.731   1.140  10.555
  365TMC3     O 5466   1.709   1.236  10.479
  365TMC3     H 5467   1.881   0.965  10.425
  365TMC3    H1 5468   1.873   1.256  10.720
  365TMC3    H2 5469   2.251   1.093  10.592
  365TMC3    C7 5470   2.132   1.285  10.739
  365TMC3    C8 5471   2.130   0.912  10.422
  365TMC3    O1 5472   2.237   1.336  10.702
  365TMC3    O2 5473   2.236   0.938  10.369
  366MPD2     C 5474   0.137   1.079  15.500
  366MPD2    C1 5475   0.231   1.176  15.526
  366MPD2    C2 5476   0.364   1.155  15.503
  366MPD2    C3 5477   0.406   1.045  15.425
  366MPD2    C4 5478   0.307   0.949  15.392
  366MPD2    C5 5479   0.180   0.970  15.429
  366MPD2     H 5480   0.429   1.236  15.533
  366MPD2    H1 5481   0.342   0.864  15.334
  366MPD2    H2 5482   0.032   1.093  15.521
  366MPD2    H3 5483   0.104   0.903  15.392
  366MPD2     N 5484   0.538   1.056  15.363
  366MPD2    H5 5485   0.592   1.125  15.415
  366MPD2    N1 5486   0.186   1.296  15.580
  366MPD2    H7 5487   0.258   1.356  15.618
  367TMC3    C1 5488   0.059   1.493  15.611
  367TMC3    C2 5489   0.158   1.537  15.700
  367TMC3    C3 5490   0.185   1.671  15.698
  367TMC3    C4 5491   4.800   1.579  15.535
  367TMC3    C5 5492   0.004   1.712  15.554
  367TMC3    C6 5493   0.109   1.760  15.625
  367TMC3     C 5494   0.058   1.355  15.560
  367TMC3     O 5495   4.768   1.323  15.501
  367TMC3     H 5496   0.206   1.466  15.767
  367TMC3    H1 5497   4.728   1.536  15.467
  367TMC3    H2 5498   0.130   1.864  15.648
  367TMC3    C7 5499   4.721   1.808  15.487
  367TMC3    C8 5500   0.298   1.713  15.787
  367TMC3    O1 5501   4.764   1.918  15.490
  367TMC3    O2 5502   0.336   1.636  15.871
  368MPD2     C 5503   1.838   3.176  13.749
  368MPD2    C1 5504   1.820   3.275  13.655
  368MPD2    C2 5505   1.932   3.303  13.576
  368MPD2    C3 5506   2.054   3.248  13.600
  368MPD2    C4 5507   2.075   3.163  13.712
  368MPD2    C5 5508   1.961   3.126  13.780
  368MPD2     H 5509   1.910   3.374  13.497
  368MPD2    H1 5510   2.169   3.113  13.734
  368MPD2    H2 5511   1.756   3.146  13.813
  368MPD2    H3 5512   1.970   3.046  13.854
  368MPD2     N 5513   2.157   3.275  13.513
  368MPD2    H5 5514   2.252   3.245  13.530
  368MPD2    N1 5515   1.699   3.344  13.648
  368MPD2    H7 5516   1.623   3.313  13.709
  369TMC3    C1 5517   1.559   3.519  13.585
  369TMC3    C2 5518   1.559   3.645  13.529
  369TMC3    C3 5519   1.435   3.707  13.506
  369TMC3    C4 5520   1.443   3.454  13.617
  369TMC3    C5 5521   1.320   3.516  13.582
  369TMC3    C6 5522   1.311   3.644  13.530
  369TMC3     C 5523   1.683   3.454  13.564
  369TMC3     O 5524   1.749   3.500  13.470
  369TMC3     H 5525   1.655   3.695  13.520
  369TMC3    H1 5526   1.444   3.351  13.652
  369TMC3    H2 5527   1.219   3.694  13.503
  369TMC3    C7 5528   1.193   3.438  13.586
  369TMC3    C8 5529   1.441   3.823  13.421
  369TMC3    O1 5530   1.208   3.322  13.622
  369TMC3    O2 5531   1.343   3.845  13.357
  370TMC3    C1 5532   0.824   3.938  16.387
  370TMC3    C2 5533   0.759   3.862  16.475
  370TMC3    C3 5534   0.746   3.729  16.443
  370TMC3    C4 5535   0.873   3.889  16.275
  370TMC3    C5 5536   0.857   3.759  16.242
  370TMC3    C6 5537   0.798   3.672  16.331
  370TMC3     C 5538   0.906   4.034  16.452
  370TMC3     O 5539   0.943   4.029  16.566
  370TMC3     H 5540   0.730   3.908  16.569
  370TMC3    H1 5541   0.940   3.952  16.217
  370TMC3    H2 5542   0.782   3.565  16.318
  370TMC3    C7 5543   0.936   3.709  16.122
  370TMC3    C8 5544   0.727   3.641  16.554
  370TMC3    O1 5545   0.964   3.787  16.033
  370TMC3    O2 5546   0.732   3.518  16.541
  371TMC3    C1 5547   2.120   2.175  15.727
  371TMC3    C2 5548   2.095   2.200  15.858
  371TMC3    C3 5549   2.106   2.331  15.892
  371TMC3    C4 5550   2.148   2.269  15.631
  371TMC3    C5 5551   2.160   2.395  15.678
  371TMC3    C6 5552   2.140   2.425  15.805
  371TMC3     C 5553   2.127   2.035  15.685
  371TMC3     O 5554   2.176   2.006  15.575
  371TMC3     H 5555   2.073   2.122  15.931
  371TMC3    H1 5556   2.162   2.242  15.527
  371TMC3    H2 5557   2.121   2.525  15.842
  371TMC3    C7 5558   2.219   2.495  15.592
  371TMC3    C8 5559   2.106   2.372  16.025
  371TMC3    O1 5560   2.186   2.489  15.477
  371TMC3    O2 5561   2.171   2.302  16.103
  372MPD2     C 5562   1.644   3.555  13.952
  372MPD2    C1 5563   1.765   3.481  13.959
  372MPD2    C2 5564   1.756   3.366  14.041
  372MPD2    C3 5565   1.638   3.323  14.099
  372MPD2    C4 5566   1.521   3.396  14.077
  372MPD2    C5 5567   1.527   3.517  14.014
  372MPD2     H 5568   1.846   3.304  14.041
  372MPD2    H1 5569   1.426   3.365  14.120
  372MPD2    H2 5570   1.636   3.647  13.896
  372MPD2    H3 5571   1.437   3.578  14.004
  372MPD2     N 5572   1.648   3.192  14.146
  372MPD2    H5 5573   1.728   3.136  14.120
  372MPD2    N1 5574   1.888   3.511  13.888
  372MPD2    H7 5575   1.967   3.450  13.909
  373TMC3    C1 5576   1.575   2.990  14.252
  373TMC3    C2 5577   1.488   2.949  14.345
  373TMC3    C3 5578   1.466   2.818  14.365
  373TMC3    C4 5579   1.632   2.905  14.162
  373TMC3    C5 5580   1.607   2.770  14.176
  373TMC3    C6 5581   1.529   2.728  14.280
  373TMC3     C 5582   1.549   3.133  14.221
  373TMC3     O 5583   1.464   3.199  14.281
  373TMC3     H 5584   1.447   3.031  14.403
  373TMC3    H1 5585   1.687   2.947  14.079
  373TMC3    H2 5586   1.516   2.622  14.300
  373TMC3    C7 5587   1.702   2.684  14.105
  373TMC3    C8 5588   1.422   2.773  14.491
  373TMC3    O1 5589   1.751   2.721  13.999
  373TMC3    O2 5590   1.336   2.686  14.495
  374TMC3    C1 5591   1.917   3.915   9.955
  374TMC3    C2 5592   1.969   4.034   9.996
  374TMC3    C3 5593   1.994   4.125   9.902
  374TMC3    C4 5594   1.888   3.890   9.822
  374TMC3    C5 5595   1.934   3.985   9.732
  374TMC3    C6 5596   1.983   4.110   9.768
  374TMC3     C 5597   1.870   3.818  10.052
  374TMC3     O 5598   1.800   3.730  10.000
  374TMC3     H 5599   1.985   4.060  10.100
  374TMC3    H1 5600   1.865   3.791   9.786
  374TMC3    H2 5601   2.006   4.193   9.702
  374TMC3    C7 5602   1.898   3.957   9.599
  374TMC3    C8 5603   2.072   4.249   9.933
  374TMC3    O1 5604   1.836   3.851   9.574
  374TMC3    O2 5605   2.043   4.350   9.870
  375MPD2     C 5606   2.303   4.486  16.868
  375MPD2    C1 5607   2.185   4.440  16.809
  375MPD2    C2 5608   2.198   4.356  16.701
  375MPD2    C3 5609   2.328   4.321  16.651
  375MPD2    C4 5610   2.440   4.356  16.722
  375MPD2    C5 5611   2.431   4.446  16.827
  375MPD2     H 5612   2.108   4.324  16.650
  375MPD2    H1 5613   2.536   4.317  16.691
  375MPD2    H2 5614   2.286   4.551  16.954
  375MPD2    H3 5615   2.521   4.480  16.878
  375MPD2     N 5616   2.340   4.226  16.550
  375MPD2    H5 5617   2.429   4.176  16.545
  375MPD2    N1 5618   2.055   4.471  16.855
  375MPD2    H7 5619   1.987   4.419  16.802
  376TMC3    C1 5620   2.259   4.086  16.383
  376TMC3    C2 5621   2.337   3.985  16.440
  376TMC3    C3 5622   2.387   3.882  16.361
  376TMC3    C4 5623   2.229   4.082  16.255
  376TMC3    C5 5624   2.283   3.984  16.179
  376TMC3    C6 5625   2.362   3.880  16.229
  376TMC3     C 5626   2.249   4.212  16.449
  376TMC3     O 5627   2.143   4.275  16.432
  376TMC3     H 5628   2.369   3.993  16.543
  376TMC3    H1 5629   2.174   4.167  16.218
  376TMC3    H2 5630   2.433   3.824  16.170
  376TMC3    C7 5631   2.287   4.018  16.039
  376TMC3    C8 5632   2.526   3.856  16.391
  376TMC3    O1 5633   2.258   4.133  16.014
  376TMC3    O2 5634   2.608   3.873  16.305
  377MPD2     C 5635   0.654   3.982  12.730
  377MPD2    C1 5636   0.671   3.865  12.798
  377MPD2    C2 5637   0.571   3.822  12.880
  377MPD2    C3 5638   0.457   3.899  12.902
  377MPD2    C4 5639   0.445   4.020  12.839
  377MPD2    C5 5640   0.544   4.064  12.750
  377MPD2     H 5641   0.575   3.720  12.917
  377MPD2    H1 5642   0.349   4.070  12.842
  377MPD2    H2 5643   0.737   4.014  12.668
  377MPD2    H3 5644   0.541   4.153  12.687
  377MPD2     N 5645   0.338   3.839  12.957
  377MPD2    H5 5646   0.250   3.886  12.938
  377MPD2    N1 5647   0.787   3.790  12.771
  377MPD2    H7 5648   0.868   3.834  12.729
  378TMC3    C1 5649   0.891   3.587  12.433
  378TMC3    C2 5650   0.826   3.576  12.553
  378TMC3    C3 5651   0.896   3.615  12.663
  378TMC3    C4 5652   1.003   3.659  12.423
  378TMC3    C5 5653   1.065   3.701  12.536
  378TMC3    C6 5654   1.017   3.679  12.667
  378TMC3     C 5655   0.789   3.649  12.348
  378TMC3     O 5656   0.692   3.702  12.400
  378TMC3     H 5657   0.737   3.514  12.556
  378TMC3    H1 5658   1.044   3.683  12.325
  378TMC3    H2 5659   1.064   3.706  12.761
  378TMC3    C7 5660   1.188   3.772  12.536
  378TMC3    C8 5661   0.790   3.659  12.757
  378TMC3    O1 5662   1.261   3.766  12.637
  378TMC3    O2 5663   0.697   3.581  12.778
  379MPD2     C 5664   1.374   1.878  16.489
  379MPD2    C1 5665   1.276   1.802  16.552
  379MPD2    C2 5666   1.311   1.742  16.677
  379MPD2    C3 5667   1.434   1.754  16.733
  379MPD2    C4 5668   1.522   1.836  16.668
  379MPD2    C5 5669   1.499   1.892  16.547
  379MPD2     H 5670   1.237   1.682  16.729
  379MPD2    H1 5671   1.609   1.869  16.724
  379MPD2    H2 5672   1.348   1.922  16.393
  379MPD2    H3 5673   1.575   1.952  16.498
  379MPD2     N 5674   1.480   1.686  16.849
  379MPD2    H5 5675   1.580   1.694  16.865
  379MPD2    N1 5676   1.152   1.786  16.481
  379MPD2    H7 5677   1.153   1.842  16.397
  380TMC3    C1 5678   0.977   1.666  16.390
  380TMC3    C2 5679   0.996   1.555  16.312
  380TMC3    C3 5680   0.958   1.558  16.180
  380TMC3    C4 5681   0.905   1.772  16.346
  380TMC3    C5 5682   0.853   1.762  16.222
  380TMC3    C6 5683   0.873   1.656  16.140
  380TMC3     C 5684   1.069   1.676  16.502
  380TMC3     O 5685   1.077   1.583  16.574
  380TMC3     H 5686   1.048   1.473  16.359
  380TMC3    H1 5687   0.897   1.868  16.397
  380TMC3    H2 5688   0.871   1.659  16.031
  380TMC3    C7 5689   0.808   1.884  16.160
  380TMC3    C8 5690   1.069   1.543  16.088
  380TMC3    O1 5691   0.824   1.998  16.196
  380TMC3    O2 5692   1.043   1.529  15.974
  381TMC3    C1 5693   0.818   3.019  16.310
  381TMC3    C2 5694   0.889   3.134  16.320
  381TMC3    C3 5695   0.885   3.208  16.438
  381TMC3    C4 5696   0.765   2.971  16.424
  381TMC3    C5 5697   0.762   3.047  16.540
  381TMC3    C6 5698   0.807   3.178  16.545
  381TMC3     C 5699   0.877   2.915  16.221
  381TMC3     O 5700   0.943   2.970  16.137
  381TMC3     H 5701   0.940   3.170  16.232
  381TMC3    H1 5702   0.709   2.878  16.428
  381TMC3    H2 5703   0.805   3.232  16.639
  381TMC3    C7 5704   0.697   2.994  16.659
  381TMC3    C8 5705   1.012   3.275  16.459
  381TMC3    O1 5706   0.712   2.872  16.682
  381TMC3    O2 5707   1.103   3.213  16.403
  382MPD2     C 5708   0.184   0.826  17.182
  382MPD2    C1 5709   0.125   0.852  17.301
  382MPD2    C2 5710   0.071   0.742  17.374
  382MPD2    C3 5711   0.094   0.612  17.324
  382MPD2    C4 5712   0.167   0.589  17.208
  382MPD2    C5 5713   0.212   0.698  17.134
  382MPD2     H 5714   0.035   0.765  17.474
  382MPD2    H1 5715   0.187   0.491  17.166
  382MPD2    H2 5716   0.222   0.901  17.113
  382MPD2    H3 5717   0.272   0.678  17.046
  382MPD2     N 5718   0.037   0.498  17.392
  382MPD2    H5 5719   0.038   0.411  17.340
  382MPD2    N1 5720   0.104   0.981  17.353
  382MPD2    H7 5721   0.065   0.994  17.445
  383TMC3    C1 5722   4.715   0.382  17.562
  383TMC3    C2 5723   4.651   0.308  17.466
  383TMC3    C3 5724   4.585   0.195  17.510
  383TMC3    C4 5725   4.720   0.346  17.692
  383TMC3    C5 5726   4.651   0.235  17.725
  383TMC3    C6 5727   4.587   0.151  17.639
  383TMC3     C 5728   4.789   0.505  17.520
  383TMC3     O 5729   0.011   0.590  17.603
  383TMC3     H 5730   4.638   0.345  17.365
  383TMC3    H1 5731   4.779   0.403  17.763
  383TMC3    H2 5732   4.510   0.088  17.681
  383TMC3    C7 5733   4.600   0.217  17.861
  383TMC3    C8 5734   4.493   0.130  17.419
  383TMC3    O1 5735   4.575   0.099  17.890
  383TMC3    O2 5736   4.441   0.191  17.329
  384MPD2     C 5737   1.657   2.111  12.255
  384MPD2    C1 5738   1.692   2.092  12.384
  384MPD2    C2 5739   1.808   2.018  12.410
  384MPD2    C3 5740   1.878   1.957  12.300
  384MPD2    C4 5741   1.832   1.976  12.173
  384MPD2    C5 5742   1.726   2.060  12.147
  384MPD2     H 5743   1.835   2.000  12.513
  384MPD2    H1 5744   1.876   1.933  12.084
  384MPD2    H2 5745   1.574   2.177  12.230
  384MPD2    H3 5746   1.686   2.085  12.050
  384MPD2     N 5747   1.979   1.860  12.319
  384MPD2    H5 5748   2.015   1.808  12.239
  384MPD2    N1 5749   1.610   2.153  12.481
  384MPD2    H7 5750   1.517   2.180  12.453
  385TMC3    C1 5751   2.064   1.719  12.478
  385TMC3    C2 5752   2.001   1.620  12.413
  385TMC3    C3 5753   1.969   1.509  12.486
  385TMC3    C4 5754   2.091   1.707  12.611
  385TMC3    C5 5755   2.058   1.590  12.685
  385TMC3    C6 5756   1.995   1.488  12.620
  385TMC3     C 5757   2.047   1.850  12.436
  385TMC3     O 5758   2.067   1.931  12.524
  385TMC3     H 5759   1.978   1.636  12.309
  385TMC3    H1 5760   2.146   1.788  12.657
  385TMC3    H2 5761   1.979   1.393  12.670
  385TMC3    C7 5762   2.009   1.627  12.822
  385TMC3    C8 5763   1.902   1.394  12.419
  385TMC3    O1 5764   2.014   1.746  12.841
  385TMC3    O2 5765   1.862   1.304  12.493
  386TMC3    C1 5766   2.161   4.063  12.034
  386TMC3    C2 5767   2.186   4.140  11.920
  386TMC3    C3 5768   2.097   4.243  11.894
  386TMC3    C4 5769   2.052   4.082  12.107
  386TMC3    C5 5770   1.962   4.178  12.061
  386TMC3    C6 5771   1.982   4.270  11.960
  386TMC3     C 5772   2.272   3.993  12.097
  386TMC3     O 5773   2.386   4.029  12.068
  386TMC3     H 5774   2.283   4.139  11.870
  386TMC3    H1 5775   2.029   4.022  12.194
  386TMC3    H2 5776   1.907   4.341  11.926
  386TMC3    C7 5777   1.847   4.206  12.156
  386TMC3    C8 5778   2.087   4.281  11.756
  386TMC3    O1 5779   1.856   4.168  12.271
  386TMC3    O2 5780   2.049   4.389  11.725
  387MPD2     C 5781   3.953   4.299   9.788
  387MPD2    C1 5782   4.084   4.272   9.766
  387MPD2    C2 5783   4.137   4.152   9.806
  387MPD2    C3 5784   4.064   4.067   9.882
  387MPD2    C4 5785   3.930   4.095   9.907
  387MPD2    C5 5786   3.877   4.211   9.863
  387MPD2     H 5787   4.244   4.146   9.793
  387MPD2    H1 5788   3.874   4.027   9.969
  387MPD2    H2 5789   3.901   4.386   9.749
  387MPD2    H3 5790   3.775   4.229   9.896
  387MPD2     N 5791   4.137   3.965   9.941
  387MPD2    H5 5792   4.236   3.969   9.922
  387MPD2    N1 5793   4.165   4.361   9.690
  387MPD2    H7 5794   4.256   4.321   9.670
  388TMC3    C1 5795   4.275   4.557   9.668
  388TMC3    C2 5796   4.294   4.654   9.572
  388TMC3    C3 5797   4.411   4.721   9.570
  388TMC3    C4 5798   4.376   4.514   9.753
  388TMC3    C5 5799   4.500   4.563   9.724
  388TMC3    C6 5800   4.524   4.665   9.629
  388TMC3     C 5801   4.151   4.500   9.678
  388TMC3     O 5802   4.046   4.561   9.652
  388TMC3     H 5803   4.207   4.687   9.517
  388TMC3    H1 5804   4.350   4.447   9.834
  388TMC3    H2 5805   4.627   4.696   9.615
  388TMC3    C7 5806   4.617   4.484   9.762
  388TMC3    C8 5807   4.431   4.798   9.448
  388TMC3    O1 5808   4.718   4.489   9.688
  388TMC3    O2 5809   4.350   4.781   9.360
  389MPD2     C 5810   3.667   2.675  11.366
  389MPD2    C1 5811   3.599   2.562  11.337
  389MPD2    C2 5812   3.601   2.458  11.432
  389MPD2    C3 5813   3.683   2.472  11.541
  389MPD2    C4 5814   3.757   2.588  11.568
  389MPD2    C5 5815   3.748   2.690  11.478
  389MPD2     H 5816   3.548   2.367  11.410
  389MPD2    H1 5817   3.831   2.604  11.645
  389MPD2    H2 5818   3.677   2.764  11.305
  389MPD2    H3 5819   3.808   2.773  11.514
  389MPD2     N 5820   3.710   2.360  11.628
  389MPD2    H5 5821   3.784   2.371  11.696
  389MPD2    N1 5822   3.552   2.556  11.206
  389MPD2    H7 5823   3.567   2.639  11.149
  390TMC3    C1 5824   3.666   2.156  11.741
  390TMC3    C2 5825   3.605   2.036  11.740
  390TMC3    C3 5826   3.546   1.988  11.854
  390TMC3    C4 5827   3.689   2.223  11.856
  390TMC3    C5 5828   3.623   2.178  11.968
  390TMC3    C6 5829   3.547   2.057  11.973
  390TMC3     C 5830   3.653   2.232  11.621
  390TMC3     O 5831   3.580   2.183  11.536
  390TMC3     H 5832   3.592   1.979  11.649
  390TMC3    H1 5833   3.734   2.321  11.867
  390TMC3    H2 5834   3.508   2.020  12.068
  390TMC3    C7 5835   3.624   2.266  12.082
  390TMC3    C8 5836   3.452   1.883  11.846
  390TMC3    O1 5837   3.730   2.303  12.123
  390TMC3    O2 5838   3.448   1.818  11.739
  391MPD2     C 5839   2.494   4.094  11.464
  391MPD2    C1 5840   2.624   4.086  11.416
  391MPD2    C2 5841   2.653   4.117  11.287
  391MPD2    C3 5842   2.553   4.156  11.204
  391MPD2    C4 5843   2.422   4.165  11.255
  391MPD2    C5 5844   2.391   4.144  11.388
  391MPD2     H 5845   2.752   4.104  11.245
  391MPD2    H1 5846   2.342   4.207  11.196
  391MPD2    H2 5847   2.471   4.081  11.569
  391MPD2    H3 5848   2.293   4.147  11.432
  391MPD2     N 5849   2.584   4.193  11.077
  391MPD2    H5 5850   2.682   4.203  11.053
  391MPD2    N1 5851   2.728   4.056  11.510
  391MPD2    H7 5852   2.707   4.013  11.600
  392TMC3    C1 5853   2.559   4.200  10.832
  392TMC3    C2 5854   2.476   4.224  10.728
  392TMC3    C3 5855   2.533   4.266  10.609
  392TMC3    C4 5856   2.697   4.202  10.820
  392TMC3    C5 5857   2.748   4.231  10.696
  392TMC3    C6 5858   2.666   4.268  10.591
  392TMC3     C 5859   2.494   4.197  10.964
  392TMC3     O 5860   2.375   4.200  10.968
  392TMC3     H 5861   2.368   4.212  10.733
  392TMC3    H1 5862   2.762   4.187  10.905
  392TMC3    H2 5863   2.701   4.280  10.489
  392TMC3    C7 5864   2.887   4.272  10.693
  392TMC3    C8 5865   2.454   4.258  10.488
  392TMC3    O1 5866   2.947   4.273  10.798
  392TMC3    O2 5867   2.343   4.203  10.498
  393TMC3    C1 5868   2.230   2.307  11.199
  393TMC3    C2 5869   2.138   2.351  11.291
  393TMC3    C3 5870   2.097   2.261  11.395
  393TMC3    C4 5871   2.298   2.191  11.221
  393TMC3    C5 5872   2.248   2.107  11.316
  393TMC3    C6 5873   2.155   2.140  11.406
  393TMC3     C 5874   2.202   2.341  11.063
  393TMC3     O 5875   2.081   2.366  11.035
  393TMC3     H 5876   2.084   2.441  11.265
  393TMC3    H1 5877   2.382   2.169  11.156
  393TMC3    H2 5878   2.133   2.074  11.488
  393TMC3    C7 5879   2.308   1.971  11.327
  393TMC3    C8 5880   1.959   2.252  11.421
  393TMC3    O1 5881   2.255   1.898  11.414
  393TMC3    O2 5882   1.918   2.143  11.456
  394TMC3    C1 5883   3.421   2.497  11.025
  394TMC3    C2 5884   3.301   2.445  10.988
  394TMC3    C3 5885   3.277   2.444  10.853
  394TMC3    C4 5886   3.518   2.537  10.939
  394TMC3    C5 5887   3.492   2.532  10.806
  394TMC3    C6 5888   3.374   2.479  10.760
  394TMC3     C 5889   3.467   2.458  11.162
  394TMC3     O 5890   3.402   2.380  11.225
  394TMC3     H 5891   3.221   2.402  11.048
  394TMC3    H1 5892   3.616   2.579  10.955
  394TMC3    H2 5893   3.344   2.480  10.656
  394TMC3    C7 5894   3.581   2.592  10.709
  394TMC3    C8 5895   3.170   2.357  10.810
  394TMC3    O1 5896   3.660   2.675  10.751
  394TMC3    O2 5897   3.088   2.334  10.897
  395TMC3    C1 5898   2.816   4.232  14.904
  395TMC3    C2 5899   2.718   4.232  14.989
  395TMC3    C3 5900   2.742   4.273  15.119
  395TMC3    C4 5901   2.945   4.263  14.934
  395TMC3    C5 5902   2.965   4.312  15.059
  395TMC3    C6 5903   2.864   4.322  15.155
  395TMC3     C 5904   2.779   4.226  14.766
  395TMC3     O 5905   2.771   4.335  14.715
  395TMC3     H 5906   2.614   4.221  14.959
  395TMC3    H1 5907   3.023   4.249  14.861
  395TMC3    H2 5908   2.889   4.363  15.252
  395TMC3    C7 5909   3.099   4.360  15.105
  395TMC3    C8 5910   2.675   4.179  15.211
  395TMC3    O1 5911   3.092   4.462  15.173
  395TMC3    O2 5912   2.706   4.200  15.326
  396MPD2     C 5913   2.957   0.134  16.999
  396MPD2    C1 5914   3.005   0.184  17.112
  396MPD2    C2 5915   3.065   0.307  17.112
  396MPD2    C3 5916   3.078   0.380  16.996
  396MPD2    C4 5917   3.023   0.327  16.888
  396MPD2    C5 5918   2.966   0.205  16.884
  396MPD2     H 5919   3.120   0.348  17.197
  396MPD2    H1 5920   3.030   0.371  16.789
  396MPD2    H2 5921   2.908   0.037  17.002
  396MPD2    H3 5922   2.928   0.163  16.791
  396MPD2     N 5923   3.142   0.504  16.996
  396MPD2    H5 5924   3.173   0.547  17.083
  396MPD2    N1 5925   2.983   0.107  17.230
  396MPD2    H7 5926   2.943   0.015  17.215
  397TMC3    C1 5927   3.043   0.031  17.450
  397TMC3    C2 5928   3.171   4.799  17.440
  397TMC3    C3 5929   3.208   4.674  17.408
  397TMC3    C4 5930   2.943   4.745  17.437
  397TMC3    C5 5931   2.976   4.617  17.408
  397TMC3    C6 5932   3.107   4.584  17.382
  397TMC3     C 5933   3.038   0.141  17.354
  397TMC3     O 5934   3.109   0.233  17.390
  397TMC3     H 5935   3.253   0.065  17.442
  397TMC3    H1 5936   2.842   4.780  17.456
  397TMC3    H2 5937   3.137   4.481  17.362
  397TMC3    C7 5938   2.880   4.506  17.430
  397TMC3    C8 5939   3.320   4.664  17.314
  397TMC3    O1 5940   2.906   4.393  17.393
  397TMC3    O2 5941   3.307   4.578  17.227
  398MPD2     C 5942   1.136   1.652  18.296
  398MPD2    C1 5943   1.197   1.547  18.365
  398MPD2    C2 5944   1.318   1.581  18.434
  398MPD2    C3 5945   1.363   1.718  18.437
  398MPD2    C4 5946   1.289   1.815  18.374
  398MPD2    C5 5947   1.181   1.782  18.300
  398MPD2     H 5948   1.381   1.504  18.474
  398MPD2    H1 5949   1.331   1.915  18.373
  398MPD2    H2 5950   1.040   1.642  18.248
  398MPD2    H3 5951   1.125   1.863  18.254
  398MPD2     N 5952   1.478   1.744  18.510
  398MPD2    H5 5953   1.517   1.666  18.561
  398MPD2    N1 5954   1.149   1.415  18.359
  398MPD2    H7 5955   1.198   1.357  18.426
  399TMC3    C1 5956   0.991   1.234  18.323
  399TMC3    C2 5957   1.065   1.150  18.403
  399TMC3    C3 5958   1.000   1.062  18.488
  399TMC3    C4 5959   0.852   1.220  18.316
  399TMC3    C5 5960   0.790   1.122  18.397
  399TMC3    C6 5961   0.862   1.043  18.484
  399TMC3     C 5962   1.033   1.371  18.299
  399TMC3     O 5963   0.963   1.434  18.224
  399TMC3     H 5964   1.172   1.171  18.401
  399TMC3    H1 5965   0.796   1.283  18.248
  399TMC3    H2 5966   0.812   0.965  18.540
  399TMC3    C7 5967   0.680   1.046  18.346
  399TMC3    C8 5968   1.074   0.952  18.540
  399TMC3    O1 5969   0.641   0.959  18.419
  399TMC3    O2 5970   1.012   0.850  18.562
  400TMC3    C1 5971   4.581   0.019  16.989
  400TMC3    C2 5972   4.515   4.785  16.877
  400TMC3    C3 5973   4.452   0.064  16.794
  400TMC3    C4 5974   4.593   0.152  17.021
  400TMC3    C5 5975   4.559   0.236  16.915
  400TMC3    C6 5976   4.477   0.196  16.814
  400TMC3     C 5977   4.665   4.720  17.065
  400TMC3     O 5978   4.667   4.610  17.012
  400TMC3     H 5979   4.511   4.678  16.860
  400TMC3    H1 5980   4.669   0.190  17.087
  400TMC3    H2 5981   4.448   0.261  16.731
  400TMC3    C7 5982   4.593   0.376  16.934
  400TMC3    C8 5983   4.318   0.040  16.737
  400TMC3    O1 5984   4.609   0.446  16.834
  400TMC3    O2 5985   4.225   0.120  16.742
  401MPD2     C 5986   2.529   3.334  18.326
  401MPD2    C1 5987   2.623   3.267  18.401
  401MPD2    C2 5988   2.613   3.128  18.398
  401MPD2    C3 5989   2.530   3.057  18.316
  401MPD2    C4 5990   2.445   3.131  18.231
  401MPD2    C5 5991   2.447   3.263  18.241
  401MPD2     H 5992   2.680   3.066  18.456
  401MPD2    H1 5993   2.369   3.082  18.172
  401MPD2    H2 5994   2.527   3.442  18.326
  401MPD2    H3 5995   2.379   3.316  18.174
  401MPD2     N 5996   2.521   2.917  18.342
  401MPD2    H5 5997   2.579   2.885  18.418
  401MPD2    N1 5998   2.716   3.328  18.484
  401MPD2    H7 5999   2.778   3.269  18.539
  402TMC3    C1 6000   2.470   2.695  18.293
  402TMC3    C2 6001   2.489   2.658  18.428
  402TMC3    C3 6002   2.545   2.539  18.452
  402TMC3    C4 6003   2.489   2.609  18.186
  402TMC3    C5 6004   2.557   2.494  18.213
  402TMC3    C6 6005   2.589   2.465  18.345
  402TMC3     C 6006   2.458   2.829  18.259
  402TMC3     O 6007   2.410   2.850  18.150
  402TMC3     H 6008   2.460   2.729  18.505
  402TMC3    H1 6009   2.501   2.651  18.087
  402TMC3    H2 6010   2.646   2.374  18.362
  402TMC3    C7 6011   2.650   2.439  18.117
  402TMC3    C8 6012   2.584   2.491  18.588
  402TMC3    O1 6013   2.616   2.474  18.004
  402TMC3    O2 6014   2.689   2.429  18.596
  403MPD2     C 6015   1.449   1.596  13.452
  403MPD2    C1 6016   1.384   1.532  13.557
  403MPD2    C2 6017   1.443   1.524  13.682
  403MPD2    C3 6018   1.564   1.589  13.702
  403MPD2    C4 6019   1.619   1.665  13.604
  403MPD2    C5 6020   1.564   1.661  13.481
  403MPD2     H 6021   1.404   1.448  13.748
  403MPD2    H1 6022   1.719   1.704  13.622
  403MPD2    H2 6023   1.404   1.595  13.353
  403MPD2    H3 6024   1.609   1.705  13.392
  403MPD2     N 6025   1.626   1.586  13.829
  403MPD2    H5 6026   1.595   1.513  13.893
  403MPD2    N1 6027   1.260   1.469  13.514
  403MPD2    H7 6028   1.240   1.478  13.415
  404TMC3    C1 6029   1.040   1.400  13.548
  404TMC3    C2 6030   0.963   1.339  13.633
  404TMC3    C3 6031   0.892   1.232  13.573
  404TMC3    C4 6032   1.021   1.403  13.414
  404TMC3    C5 6033   0.952   1.292  13.358
  404TMC3    C6 6034   0.878   1.207  13.435
  404TMC3     C 6035   1.167   1.429  13.605
  404TMC3     O 6036   1.179   1.436  13.727
  404TMC3     H 6037   0.984   1.344  13.739
  404TMC3    H1 6038   1.073   1.472  13.349
  404TMC3    H2 6039   0.822   1.119  13.405
  404TMC3    C7 6040   0.957   1.275  13.210
  404TMC3    C8 6041   0.858   1.118  13.656
  404TMC3    O1 6042   1.041   1.344  13.157
  404TMC3    O2 6043   0.862   1.006  13.608
  405MPD2     C 6044   1.518   2.366  15.176
  405MPD2    C1 6045   1.470   2.271  15.092
  405MPD2    C2 6046   1.346   2.282  15.033
  405MPD2    C3 6047   1.263   2.387  15.067
  405MPD2    C4 6048   1.319   2.492  15.136
  405MPD2    C5 6049   1.448   2.485  15.182
  405MPD2     H 6050   1.299   2.205  14.973
  405MPD2    H1 6051   1.274   2.589  15.153
  405MPD2    H2 6052   1.615   2.350  15.223
  405MPD2    H3 6053   1.481   2.572  15.237
  405MPD2     N 6054   1.128   2.386  15.014
  405MPD2    H5 6055   1.120   2.322  14.936
  405MPD2    N1 6056   1.534   2.146  15.083
  405MPD2    H7 6057   1.603   2.116  15.151
  406TMC3    C1 6058   0.713   2.488  14.847
  406TMC3    C2 6059   0.709   2.367  14.784
  406TMC3    C3 6060   0.812   2.284  14.800
  406TMC3    C4 6061   0.801   2.516  14.946
  406TMC3    C5 6062   0.911   2.430  14.959
  406TMC3    C6 6063   0.912   2.316  14.889
  406TMC3     C 6064   0.629   2.596  14.801
  406TMC3     O 6065   0.599   2.693  14.870
  406TMC3     H 6066   0.621   2.333  14.731
  406TMC3    H1 6067   0.798   2.615  14.990
  406TMC3    H2 6068   0.999   2.251  14.893
  406TMC3    C7 6069   1.025   2.467  15.042
  406TMC3    C8 6070   0.838   2.202  14.683
  406TMC3    O1 6071   1.015   2.559  15.123
  406TMC3    O2 6072   0.808   2.244  14.565
  407MPD2     C 6073   3.513   3.810   9.861
  407MPD2    C1 6074   3.639   3.827   9.916
  407MPD2    C2 6075   3.650   3.872  10.043
  407MPD2    C3 6076   3.539   3.903  10.114
  407MPD2    C4 6077   3.413   3.896  10.062
  407MPD2    C5 6078   3.400   3.847   9.930
  407MPD2     H 6079   3.750   3.884  10.083
  407MPD2    H1 6080   3.328   3.932  10.119
  407MPD2    H2 6081   3.499   3.793   9.755
  407MPD2    H3 6082   3.304   3.847   9.881
  407MPD2     N 6083   3.547   3.957  10.246
  407MPD2    H5 6084   3.469   4.017  10.274
  407MPD2    N1 6085   3.760   3.798   9.845
  407MPD2    H7 6086   3.849   3.802   9.894
  408TMC3    C1 6087   3.908   3.817   9.675
  408TMC3    C2 6088   4.008   3.719   9.706
  408TMC3    C3 6089   4.139   3.749   9.681
  408TMC3    C4 6090   3.943   3.921   9.595
  408TMC3    C5 6091   4.072   3.936   9.550
  408TMC3    C6 6092   4.174   3.853   9.594
  408TMC3     C 6093   3.775   3.791   9.706
  408TMC3     O 6094   3.694   3.803   9.616
  408TMC3     H 6095   3.983   3.634   9.769
  408TMC3    H1 6096   3.869   3.999   9.583
  408TMC3    H2 6097   4.268   3.838   9.542
  408TMC3    C7 6098   4.127   4.049   9.478
  408TMC3    C8 6099   4.225   3.638   9.703
  408TMC3    O1 6100   4.250   4.045   9.469
  408TMC3    O2 6101   4.173   3.528   9.703
  409MPD2     C 6102   3.376   4.164  16.825
  409MPD2    C1 6103   3.428   4.166  16.946
  409MPD2    C2 6104   3.520   4.266  16.982
  409MPD2    C3 6105   3.568   4.353  16.881
  409MPD2    C4 6106   3.509   4.344  16.754
  409MPD2    C5 6107   3.421   4.247  16.727
  409MPD2     H 6108   3.569   4.276  17.078
  409MPD2    H1 6109   3.531   4.411  16.672
  409MPD2    H2 6110   3.317   4.080  16.789
  409MPD2    H3 6111   3.382   4.238  16.626
  409MPD2     N 6112   3.662   4.456  16.900
  409MPD2    H5 6113   3.664   4.524  16.825
  409MPD2    N1 6114   3.398   4.067  17.049
  409MPD2    H7 6115   3.436   4.078  17.142
  410TMC3    C1 6116   3.775   4.611  17.009
  410TMC3    C2 6117   3.904   4.629  17.051
  410TMC3    C3 6118   3.967   4.742  17.003
  410TMC3    C4 6119   3.722   4.701  16.915
  410TMC3    C5 6120   3.794   0.002  16.871
  410TMC3    C6 6121   3.923   0.029  16.914
  410TMC3     C 6122   3.722   4.481  17.018
  410TMC3     O 6123   3.741   4.409  17.120
  410TMC3     H 6124   3.937   4.586  17.145
  410TMC3    H1 6125   3.622   4.680  16.879
  410TMC3    H2 6126   3.990   0.100  16.868
  410TMC3    C7 6127   3.758   0.058  16.741
  410TMC3    C8 6128   4.089   4.774  17.071
  410TMC3    O1 6129   3.669   0.004  16.677
  410TMC3    O2 6130   4.125   0.083  17.091
  411MPD2     C 6131   3.725   0.209  14.588
  411MPD2    C1 6132   3.663   0.230  14.710
  411MPD2    C2 6133   3.577   0.131  14.757
  411MPD2    C3 6134   3.542   0.028  14.681
  411MPD2    C4 6135   3.608   0.000  14.566
  411MPD2    C5 6136   3.710   0.085  14.527
  411MPD2     H 6137   3.533   0.137  14.856
  411MPD2    H1 6138   3.594   4.707  14.522
  411MPD2    H2 6139   3.782   0.292  14.548
  411MPD2    H3 6140   3.774   0.051  14.446
  411MPD2     N 6141   3.448   4.732  14.716
  411MPD2    H5 6142   3.433   4.655  14.652
  411MPD2    N1 6143   3.677   0.359  14.768
  411MPD2    H7 6144   3.727   0.427  14.712
  412TMC3    C1 6145   3.265   4.630  14.816
  412TMC3    C2 6146   3.142   4.668  14.858
  412TMC3    C3 6147   3.030   4.613  14.805
  412TMC3    C4 6148   3.276   4.541  14.707
  412TMC3    C5 6149   3.164   4.482  14.666
  412TMC3    C6 6150   3.043   4.516  14.716
  412TMC3     C 6151   3.364   4.730  14.832
  412TMC3     O 6152   3.343   0.016  14.907
  412TMC3     H 6153   3.133   4.729  14.947
  412TMC3    H1 6154   3.372   4.496  14.684
  412TMC3    H2 6155   2.956   4.485  14.658
  412TMC3    C7 6156   3.173   4.381  14.558
  412TMC3    C8 6157   2.904   4.678  14.854
  412TMC3    O1 6158   3.086   4.294  14.568
  412TMC3    O2 6159   2.926   4.797  14.883
  413MPD2     C 6160   0.797   3.647  15.653
  413MPD2    C1 6161   0.716   3.556  15.588
  413MPD2    C2 6162   0.769   3.467  15.501
  413MPD2    C3 6163   0.905   3.462  15.473
  413MPD2    C4 6164   0.982   3.546  15.556
  413MPD2    C5 6165   0.930   3.637  15.643
  413MPD2     H 6166   0.716   3.399  15.436
  413MPD2    H1 6167   1.088   3.527  15.564
  413MPD2    H2 6168   0.761   3.730  15.713
  413MPD2    H3 6169   1.001   3.705  15.688
  413MPD2     N 6170   0.949   3.358  15.386
  413MPD2    H5 6171   0.876   3.304  15.341
  413MPD2    N1 6172   0.577   3.578  15.591
  413MPD2    H7 6173   0.549   3.642  15.666
  414TMC3    C1 6174   1.085   3.188  15.300
  414TMC3    C2 6175   1.151   3.084  15.355
  414TMC3    C3 6176   1.144   2.960  15.297
  414TMC3    C4 6177   1.030   3.184  15.177
  414TMC3    C5 6178   1.033   3.057  15.111
  414TMC3    C6 6179   1.074   2.951  15.180
  414TMC3     C 6180   1.081   3.312  15.375
  414TMC3     O 6181   1.180   3.346  15.439
  414TMC3     H 6182   1.208   3.106  15.445
  414TMC3    H1 6183   0.995   3.263  15.113
  414TMC3    H2 6184   1.065   2.850  15.140
  414TMC3    C7 6185   0.941   3.059  14.994
  414TMC3    C8 6186   1.204   2.840  15.349
  414TMC3    O1 6187   0.853   3.141  15.001
  414TMC3    O2 6188   1.157   2.732  15.318
  415TMC3    C1 6189   1.105   1.244  10.499
  415TMC3    C2 6190   1.154   1.324  10.397
  415TMC3    C3 6191   1.131   1.276  10.271
  415TMC3    C4 6192   1.032   1.132  10.481
  415TMC3    C5 6193   1.035   1.069  10.356
  415TMC3    C6 6194   1.083   1.147  10.251
  415TMC3     C 6195   1.157   1.261  10.628
  415TMC3     O 6196   1.101   1.203  10.723
  415TMC3     H 6197   1.204   1.417  10.419
  415TMC3    H1 6198   1.020   1.069  10.568
  415TMC3    H2 6199   1.088   1.110  10.148
  415TMC3    C7 6200   1.057   0.923  10.345
  415TMC3    C8 6201   1.138   1.363  10.156
  415TMC3    O1 6202   1.088   0.888  10.233
  415TMC3    O2 6203   1.052   1.339  10.069
  416MPD2     C 6204   3.155   0.196  11.832
  416MPD2    C1 6205   3.021   0.217  11.786
  416MPD2    C2 6206   2.978   0.156  11.669
  416MPD2    C3 6207   3.055   0.060  11.611
  416MPD2    C4 6208   3.176   0.021  11.668
  416MPD2    C5 6209   3.226   0.093  11.776
  416MPD2     H 6210   2.879   0.172  11.629
  416MPD2    H1 6211   3.241   4.750  11.626
  416MPD2    H2 6212   3.187   0.249  11.921
  416MPD2    H3 6213   3.324   0.072  11.817
  416MPD2     N 6214   3.022   4.800  11.488
  416MPD2    H5 6215   3.072   4.718  11.455
  416MPD2    N1 6216   2.946   0.313  11.864
  416MPD2    H7 6217   2.992   0.354  11.944
  417TMC3    C1 6218   2.759   0.417  11.954
  417TMC3    C2 6219   2.786   0.383  12.091
  417TMC3    C3 6220   2.754   0.485  12.179
  417TMC3    C4 6221   2.676   0.515  11.911
  417TMC3    C5 6222   2.639   0.604  12.007
  417TMC3    C6 6223   2.691   0.603  12.136
  417TMC3     C 6224   2.814   0.339  11.845
  417TMC3     O 6225   2.729   0.291  11.777
  417TMC3     H 6226   2.854   0.303  12.118
  417TMC3    H1 6227   2.659   0.531  11.805
  417TMC3    H2 6228   2.650   0.664  12.216
  417TMC3    C7 6229   2.547   0.707  11.965
  417TMC3    C8 6230   2.729   0.450  12.315
  417TMC3    O1 6231   2.534   0.738  11.846
  417TMC3    O2 6232   2.732   0.537  12.401
  418TMC3    C1 6233   1.875   1.923  18.572
  418TMC3    C2 6234   1.765   1.844  18.545
  418TMC3    C3 6235   1.651   1.864  18.622
  418TMC3    C4 6236   1.876   1.997  18.684
  418TMC3    C5 6237   1.773   1.998  18.768
  418TMC3    C6 6238   1.655   1.945  18.734
  418TMC3     C 6239   1.974   1.952  18.470
  418TMC3     O 6240   2.029   2.064  18.480
  418TMC3     H 6241   1.771   1.778  18.459
  418TMC3    H1 6242   1.947   2.078  18.695
  418TMC3    H2 6243   1.567   1.972  18.790
  418TMC3    C7 6244   1.784   2.084  18.883
  418TMC3    C8 6245   1.517   1.868  18.553
  418TMC3    O1 6246   1.874   2.165  18.876
  418TMC3    O2 6247   1.452   1.972  18.549
  419MPD2     C 6248   0.501   4.774  12.936
  419MPD2    C1 6249   0.369   4.784  12.889
  419MPD2    C2 6250   0.263   0.032  12.969
  419MPD2    C3 6251   0.292   0.078  13.098
  419MPD2    C4 6252   0.424   0.066  13.143
  419MPD2    C5 6253   0.524   0.009  13.062
  419MPD2     H 6254   0.162   0.044  12.932
  419MPD2    H1 6255   0.456   0.110  13.237
  419MPD2    H2 6256   0.580   4.748  12.866
  419MPD2    H3 6257   0.630   0.003  13.087
  419MPD2     N 6258   0.191   0.153  13.167
  419MPD2    H5 6259   0.108   0.173  13.112
  419MPD2    N1 6260   0.328   4.757  12.755
  419MPD2    H7 6261   0.229   4.777  12.741
  420TMC3    C1 6262   0.080   0.285  13.333
  420TMC3    C2 6263   4.781   0.310  13.238
  420TMC3    C3 6264   4.736   0.439  13.226
  420TMC3    C4 6265   0.126   0.391  13.409
  420TMC3    C5 6266   0.048   0.500  13.420
  420TMC3    C6 6267   4.771   0.536  13.318
  420TMC3     C 6268   0.195   0.206  13.292
  420TMC3     O 6269   0.286   0.207  13.372
  420TMC3     H 6270   4.749   0.228  13.175
  420TMC3    H1 6271   0.207   0.380  13.481
  420TMC3    H2 6272   4.713   0.627  13.306
  420TMC3    C7 6273   4.775   0.488  13.535
  420TMC3    C8 6274   4.617   0.477  13.144
  420TMC3    O1 6275   0.003   0.412  13.625
  420TMC3    O2 6276   4.603   0.595  13.123
  421TMC3    C1 6277   1.769   1.617  14.009
  421TMC3    C2 6278   1.779   1.708  14.112
  421TMC3    C3 6279   1.821   1.674  14.230
  421TMC3    C4 6280   1.808   1.490  14.016
  421TMC3    C5 6281   1.876   1.460  14.131
  421TMC3    C6 6282   1.871   1.539  14.240
  421TMC3     C 6283   1.727   1.663  13.879
  421TMC3     O 6284   1.767   1.772  13.837
  421TMC3     H 6285   1.745   1.810  14.098
  421TMC3    H1 6286   1.804   1.421  13.933
  421TMC3    H2 6287   1.923   1.516  14.332
  421TMC3    C7 6288   1.915   1.317  14.148
  421TMC3    C8 6289   1.881   1.777  14.305
  421TMC3    O1 6290   1.970   1.262  14.057
  421TMC3    O2 6291   1.984   1.756  14.366
  422TMC3    C1 6292   3.809   3.265  12.974
  422TMC3    C2 6293   3.778   3.378  13.047
  422TMC3    C3 6294   3.650   3.391  13.094
  422TMC3    C4 6295   3.711   3.177  12.927
  422TMC3    C5 6296   3.584   3.188  12.978
  422TMC3    C6 6297   3.554   3.296  13.058
  422TMC3     C 6298   3.949   3.251  12.922
  422TMC3     O 6299   4.021   3.351  12.912
  422TMC3     H 6300   3.853   3.453  13.067
  422TMC3    H1 6301   3.735   3.094  12.861
  422TMC3    H2 6302   3.452   3.299  13.094
  422TMC3    C7 6303   3.502   3.071  12.962
  422TMC3    C8 6304   3.607   3.524  13.136
  422TMC3    O1 6305   3.529   3.003  12.864
  422TMC3    O2 6306   3.689   3.618  13.117
  423MPD2     C 6307   0.151   4.272  18.544
  423MPD2    C1 6308   0.195   4.142  18.554
  423MPD2    C2 6309   0.228   4.062  18.448
  423MPD2    C3 6310   0.177   4.097  18.327
  423MPD2    C4 6311   0.129   4.225  18.307
  423MPD2    C5 6312   0.129   4.314  18.416
  423MPD2     H 6313   0.270   3.965  18.469
  423MPD2    H1 6314   0.079   4.261  18.218
  423MPD2    H2 6315   0.119   4.339  18.623
  423MPD2    H3 6316   0.104   4.415  18.385
  423MPD2     N 6317   0.187   4.013  18.212
  423MPD2    H5 6318   0.176   4.047  18.117
  423MPD2    N1 6319   0.228   4.094  18.681
  423MPD2    H7 6320   0.287   4.012  18.693
  424TMC3    C1 6321   0.215   4.055  18.902
  424TMC3    C2 6322   0.349   4.024  18.902
  424TMC3    C3 6323   0.391   3.954  19.010
  424TMC3    C4 6324   0.132   4.044  19.012
  424TMC3    C5 6325   0.185   3.980  19.119
  424TMC3    C6 6326   0.305   3.921  19.118
  424TMC3     C 6327   0.162   4.138  18.798
  424TMC3     O 6328   0.050   4.185  18.807
  424TMC3     H 6329   0.413   4.074  18.831
  424TMC3    H1 6330   0.025   4.065  19.009
  424TMC3    H2 6331   0.341   3.879  19.212
  424TMC3    C7 6332   0.126   3.999  19.248
  424TMC3    C8 6333   0.530   3.898  19.006
  424TMC3    O1 6334   0.160   3.928  19.337
  424TMC3    O2 6335   0.569   3.842  19.107
  425MPD2     C 6336   4.442   3.336  17.713
  425MPD2    C1 6337   4.406   3.239  17.625
  425MPD2    C2 6338   4.272   3.228  17.587
  425MPD2    C3 6339   4.179   3.307  17.656
  425MPD2    C4 6340   4.219   3.403  17.748
  425MPD2    C5 6341   4.354   3.416  17.781
  425MPD2     H 6342   4.243   3.150  17.518
  425MPD2    H1 6343   4.150   3.456  17.814
  425MPD2    H2 6344   4.544   3.347  17.751
  425MPD2    H3 6345   4.377   3.491  17.856
  425MPD2     N 6346   4.040   3.275  17.639
  425MPD2    H5 6347   4.022   3.186  17.594
  425MPD2    N1 6348   4.503   3.141  17.588
  425MPD2    H7 6349   4.588   3.148  17.643
  426TMC3    C1 6350   4.585   2.949  17.471
  426TMC3    C2 6351   4.565   2.858  17.365
  426TMC3    C3 6352   4.633   2.737  17.379
  426TMC3    C4 6353   4.659   2.917  17.581
  426TMC3    C5 6354   4.735   2.801  17.578
  426TMC3    C6 6355   4.718   2.706  17.481
  426TMC3     C 6356   4.490   3.050  17.479
  426TMC3     O 6357   4.406   3.041  17.392
  426TMC3     H 6358   4.520   2.887  17.271
  426TMC3    H1 6359   4.649   2.971  17.674
  426TMC3    H2 6360   4.780   2.617  17.475
  426TMC3    C7 6361   4.774   2.743  17.701
  426TMC3    C8 6362   4.585   2.627  17.299
  426TMC3    O1 6363   0.078   2.683  17.681
  426TMC3    O2 6364   4.659   2.531  17.294
  427MPD2     C 6365   2.655   0.177  15.117
  427MPD2    C1 6366   2.676   0.220  15.246
  427MPD2    C2 6367   2.593   0.313  15.302
  427MPD2    C3 6368   2.483   0.352  15.229
  427MPD2    C4 6369   2.460   0.307  15.100
  427MPD2    C5 6370   2.556   0.223  15.040
  427MPD2     H 6371   2.617   0.356  15.399
  427MPD2    H1 6372   2.369   0.338  15.049
  427MPD2    H2 6373   2.723   0.106  15.071
  427MPD2    H3 6374   2.544   0.197  14.936
  427MPD2     N 6375   2.384   0.447  15.279
  427MPD2    H5 6376   2.301   0.450  15.221
  427MPD2    N1 6377   2.779   0.163  15.326
  427MPD2    H7 6378   2.797   0.210  15.414
  428TMC3    C1 6379   2.911   0.005  15.428
  428TMC3    C2 6380   2.910   4.686  15.477
  428TMC3    C3 6381   3.005   4.651  15.571
  428TMC3    C4 6382   3.008   0.101  15.472
  428TMC3    C5 6383   3.090   0.069  15.579
  428TMC3    C6 6384   3.093   4.746  15.617
  428TMC3     C 6385   2.847   0.044  15.301
  428TMC3     O 6386   2.840   4.774  15.204
  428TMC3     H 6387   2.836   4.613  15.443
  428TMC3    H1 6388   3.025   0.193  15.417
  428TMC3    H2 6389   3.163   4.723  15.696
  428TMC3    C7 6390   3.206   0.145  15.614
  428TMC3    C8 6391   3.026   4.510  15.602
  428TMC3    O1 6392   3.247   0.129  15.728
  428TMC3    O2 6393   2.962   4.438  15.528
  429MPD2     C 6394   3.621   0.307  17.840
  429MPD2    C1 6395   3.744   0.268  17.793
  429MPD2    C2 6396   3.847   0.360  17.762
  429MPD2    C3 6397   3.825   0.493  17.761
  429MPD2    C4 6398   3.702   0.538  17.811
  429MPD2    C5 6399   3.603   0.445  17.840
  429MPD2     H 6400   3.943   0.323  17.728
  429MPD2    H1 6401   3.684   0.644  17.818
  429MPD2    H2 6402   3.548   0.234  17.872
  429MPD2    H3 6403   3.507   0.478  17.877
  429MPD2     N 6404   3.926   0.576  17.703
  429MPD2    H5 6405   4.002   0.531  17.654
  429MPD2    N1 6406   3.777   0.127  17.780
  429MPD2    H7 6407   3.875   0.108  17.762
  430TMC3    C1 6408   4.015   0.760  17.593
  430TMC3    C2 6409   3.978   0.864  17.515
  430TMC3    C3 6410   4.079   0.925  17.440
  430TMC3    C4 6411   4.144   0.719  17.600
  430TMC3    C5 6412   4.233   0.770  17.513
  430TMC3    C6 6413   4.202   0.876  17.430
  430TMC3     C 6414   3.914   0.707  17.685
  430TMC3     O 6415   3.825   0.782  17.714
  430TMC3     H 6416   3.877   0.901  17.504
  430TMC3    H1 6417   4.161   0.639  17.672
  430TMC3    H2 6418   4.263   0.909  17.347
  430TMC3    C7 6419   4.348   0.699  17.465
  430TMC3    C8 6420   4.030   0.966  17.307
  430TMC3    O1 6421   4.358   0.586  17.517
  430TMC3    O2 6422   3.941   0.898  17.260
  431MPD2     C 6423   4.760   0.442  12.772
  431MPD2    C1 6424   0.044   0.474  12.677
  431MPD2    C2 6425   0.059   0.393  12.568
  431MPD2    C3 6426   4.793   0.271  12.570
  431MPD2    C4 6427   4.693   0.246  12.661
  431MPD2    C5 6428   4.674   0.334  12.763
  431MPD2     H 6429   0.130   0.410  12.488
  431MPD2    H1 6430   4.634   0.155  12.656
  431MPD2    H2 6431   4.748   0.511  12.855
  431MPD2    H3 6432   4.596   0.300  12.830
  431MPD2     N 6433   0.019   0.162  12.481
  431MPD2    H5 6434   4.796   0.071  12.516
  431MPD2    N1 6435   0.120   0.596  12.677
  431MPD2    H7 6436   0.166   0.624  12.591
  432TMC3    C1 6437   0.194   0.036  12.380
  432TMC3    C2 6438   0.276   0.025  12.273
  432TMC3    C3 6439   0.400   4.787  12.298
  432TMC3    C4 6440   0.228   4.790  12.507
  432TMC3    C5 6441   0.357   4.740  12.524
  432TMC3    C6 6442   0.444   4.745  12.423
  432TMC3     C 6443   0.121   0.165  12.383
  432TMC3     O 6444   0.160   0.255  12.312
  432TMC3     H 6445   0.246   0.062  12.176
  432TMC3    H1 6446   0.165   4.805  12.595
  432TMC3    H2 6447   0.545   4.715  12.446
  432TMC3    C7 6448   0.417   4.733  12.651
  432TMC3    C8 6449   0.482   4.758  12.182
  432TMC3    O1 6450   0.536   4.709  12.656
  432TMC3    O2 6451   0.432   4.711  12.082
  433MPD2     C 6452   3.697   4.170  11.044
  433MPD2    C1 6453   3.658   4.080  11.141
  433MPD2    C2 6454   3.699   4.105  11.271
  433MPD2    C3 6455   3.770   4.217  11.306
  433MPD2    C4 6456   3.794   4.309  11.206
  433MPD2    C5 6457   3.755   4.290  11.080
  433MPD2     H 6458   3.679   4.036  11.352
  433MPD2    H1 6459   3.842   4.403  11.232
  433MPD2    H2 6460   3.662   4.155  10.943
  433MPD2    H3 6461   3.786   4.363  11.007
  433MPD2     N 6462   3.801   4.235  11.440
  433MPD2    H5 6463   3.765   4.174  11.512
  433MPD2    N1 6464   3.589   3.956  11.106
  433MPD2    H7 6465   3.592   3.929  11.008
  434TMC3    C1 6466   3.529   3.733  11.136
  434TMC3    C2 6467   3.591   3.645  11.217
  434TMC3    C3 6468   3.663   3.537  11.158
  434TMC3    C4 6469   3.518   3.716  11.002
  434TMC3    C5 6470   3.592   3.613  10.939
  434TMC3    C6 6471   3.661   3.517  11.019
  434TMC3     C 6472   3.541   3.865  11.195
  434TMC3     O 6473   3.509   3.880  11.310
  434TMC3     H 6474   3.610   3.670  11.321
  434TMC3    H1 6475   3.450   3.774  10.941
  434TMC3    H2 6476   3.736   3.448  10.982
  434TMC3    C7 6477   3.570   3.586  10.797
  434TMC3    C8 6478   3.750   3.452  11.239
  434TMC3    O1 6479   3.521   3.673  10.724
  434TMC3    O2 6480   3.733   3.463  11.362
  435MPD2     C 6481   1.179   3.939  15.624
  435MPD2    C1 6482   1.131   3.920  15.746
  435MPD2    C2 6483   1.224   3.868  15.842
  435MPD2    C3 6484   1.356   3.828  15.803
  435MPD2    C4 6485   1.392   3.853  15.672
  435MPD2    C5 6486   1.304   3.913  15.584
  435MPD2     H 6487   1.198   3.840  15.943
  435MPD2    H1 6488   1.494   3.847  15.637
  435MPD2    H2 6489   1.123   4.004  15.558
  435MPD2    H3 6490   1.334   3.947  15.486
  435MPD2     N 6491   1.441   3.772  15.897
  435MPD2    H5 6492   1.403   3.749  15.989
  435MPD2    N1 6493   1.004   3.957  15.795
  435MPD2    H7 6494   0.999   3.923  15.890
  436TMC3    C1 6495   0.651   4.094  15.976
  436TMC3    C2 6496   0.772   4.058  15.928
  436TMC3    C3 6497   0.777   4.034  15.794
  436TMC3    C4 6498   0.529   4.086  15.906
  436TMC3    C5 6499   0.542   4.070  15.772
  436TMC3    C6 6500   0.663   4.043  15.716
  436TMC3     C 6501   0.651   4.137  16.118
  436TMC3     O 6502   0.761   4.154  16.167
  436TMC3     H 6503   0.864   4.052  15.985
  436TMC3    H1 6504   0.434   4.112  15.952
  436TMC3    H2 6505   0.670   4.020  15.611
  436TMC3    C7 6506   0.430   4.059  15.678
  436TMC3    C8 6507   0.904   4.016  15.723
  436TMC3    O1 6508   0.460   4.092  15.561
  436TMC3    O2 6509   0.904   4.055  15.604
  437TMC3    C1 6510   4.613   1.175  12.483
  437TMC3    C2 6511   4.537   1.283  12.506
  437TMC3    C3 6512   4.516   1.365  12.401
  437TMC3    C4 6513   4.679   1.158  12.366
  437TMC3    C5 6514   4.664   1.250  12.269
  437TMC3    C6 6515   4.570   1.347  12.274
  437TMC3     C 6516   4.714   1.157  12.586
  437TMC3     O 6517   0.025   1.202  12.560
  437TMC3     H 6518   4.495   1.312  12.601
  437TMC3    H1 6519   4.751   1.077  12.354
  437TMC3    H2 6520   4.558   1.416  12.192
  437TMC3    C7 6521   4.775   1.294  12.203
  437TMC3    C8 6522   4.392   1.452  12.401
  437TMC3    O1 6523   4.758   1.368  12.109
  437TMC3    O2 6524   4.332   1.468  12.297
  438MPD2     C 6525   2.054   2.055  17.283
  438MPD2    C1 6526   2.089   1.920  17.304
  438MPD2    C2 6527   2.088   1.875  17.430
  438MPD2    C3 6528   2.059   1.954  17.537
  438MPD2    C4 6529   2.036   2.086  17.516
  438MPD2    C5 6530   2.030   2.135  17.392
  438MPD2     H 6531   2.121   1.772  17.438
  438MPD2    H1 6532   2.005   2.153  17.597
  438MPD2    H2 6533   2.045   2.102  17.185
  438MPD2    H3 6534   2.018   2.240  17.371
  438MPD2     N 6535   2.064   1.906  17.667
  438MPD2    H5 6536   2.059   1.978  17.738
  438MPD2    N1 6537   2.137   1.835  17.192
  438MPD2    H7 6538   2.161   1.739  17.214
  439TMC3    C1 6539   2.241   1.780  16.995
  439TMC3    C2 6540   2.228   1.750  16.861
  439TMC3    C3 6541   2.296   1.644  16.807
  439TMC3    C4 6542   2.333   1.706  17.072
  439TMC3    C5 6543   2.390   1.597  17.014
  439TMC3    C6 6544   2.361   1.554  16.885
  439TMC3     C 6545   2.150   1.871  17.059
  439TMC3     O 6546   2.095   1.960  16.996
  439TMC3     H 6547   2.178   1.822  16.797
  439TMC3    H1 6548   2.357   1.734  17.174
  439TMC3    H2 6549   2.421   1.471  16.848
  439TMC3    C7 6550   2.480   1.512  17.085
  439TMC3    C8 6551   2.333   1.639  16.667
  439TMC3    O1 6552   2.564   1.576  17.148
  439TMC3    O2 6553   2.424   1.563  16.644
  440MPD2     C 6554   0.637   2.268  15.243
  440MPD2    C1 6555   0.735   2.358  15.286
  440MPD2    C2 6556   0.858   2.311  15.323
  440MPD2    C3 6557   0.891   2.175  15.322
  440MPD2    C4 6558   0.790   2.093  15.283
  440MPD2    C5 6559   0.667   2.137  15.230
  440MPD2     H 6560   0.928   2.388  15.355
  440MPD2    H1 6561   0.805   1.985  15.279
  440MPD2    H2 6562   0.535   2.298  15.222
  440MPD2    H3 6563   0.589   2.072  15.192
  440MPD2     N 6564   1.018   2.120  15.363
  440MPD2    H5 6565   1.022   2.019  15.359
  440MPD2    N1 6566   0.721   2.500  15.292
  440MPD2    H7 6567   0.806   2.545  15.323
  441TMC3    C1 6568   1.242   2.119  15.429
  441TMC3    C2 6569   1.346   2.194  15.430
  441TMC3    C3 6570   1.434   2.184  15.532
  441TMC3    C4 6571   1.218   2.033  15.531
  441TMC3    C5 6572   1.308   2.017  15.630
  441TMC3    C6 6573   1.417   2.096  15.639
  441TMC3     C 6574   1.125   2.193  15.392
  441TMC3     O 6575   1.135   2.310  15.415
  441TMC3     H 6576   1.353   2.268  15.351
  441TMC3    H1 6577   1.123   1.983  15.544
  441TMC3    H2 6578   1.486   2.089  15.723
  441TMC3    C7 6579   1.276   1.911  15.724
  441TMC3    C8 6580   1.489   2.308  15.576
  441TMC3    O1 6581   1.161   1.861  15.710
  441TMC3    O2 6582   1.575   2.305  15.661
  442MPD2     C 6583   4.040   2.821  16.793
  442MPD2    C1 6584   3.913   2.804  16.740
  442MPD2    C2 6585   3.889   2.689  16.664
  442MPD2    C3 6586   3.986   2.587  16.651
  442MPD2    C4 6587   4.097   2.602  16.725
  442MPD2    C5 6588   4.133   2.719  16.784
  442MPD2     H 6589   3.791   2.678  16.619
  442MPD2    H1 6590   4.160   2.515  16.715
  442MPD2    H2 6591   4.067   2.915  16.840
  442MPD2    H3 6592   4.233   2.730  16.826
  442MPD2     N 6593   3.964   2.462  16.591
  442MPD2    H5 6594   4.053   2.413  16.591
  442MPD2    N1 6595   3.823   2.913  16.738
  442MPD2    H7 6596   3.735   2.906  16.689
  443TMC3    C1 6597   3.732   3.109  16.804
  443TMC3    C2 6598   3.691   3.143  16.685
  443TMC3    C3 6599   3.571   3.211  16.675
  443TMC3    C4 6600   3.658   3.133  16.918
  443TMC3    C5 6601   3.533   3.200  16.910
  443TMC3    C6 6602   3.489   3.230  16.784
  443TMC3     C 6603   3.841   3.022  16.816
  443TMC3     O 6604   3.902   3.026  16.923
  443TMC3     H 6605   3.758   3.136  16.600
  443TMC3    H1 6606   3.693   3.091  17.011
  443TMC3    H2 6607   3.386   3.260  16.768
  443TMC3    C7 6608   3.434   3.173  17.015
  443TMC3    C8 6609   3.513   3.185  16.544
  443TMC3    O1 6610   3.434   3.066  17.073
  443TMC3    O2 6611   3.590   3.138  16.460
  444MPD2     C 6612   4.226   2.176  17.320
  444MPD2    C1 6613   4.128   2.088  17.270
  444MPD2    C2 6614   4.161   1.985  17.175
  444MPD2    C3 6615   4.289   1.972  17.135
  444MPD2    C4 6616   4.378   2.074  17.174
  444MPD2    C5 6617   4.349   2.162  17.269
  444MPD2     H 6618   4.081   1.920  17.143
  444MPD2    H1 6619   4.474   2.092  17.127
  444MPD2    H2 6620   4.216   2.250  17.398
  444MPD2    H3 6621   4.422   2.232  17.307
  444MPD2     N 6622   4.327   1.867  17.035
  444MPD2    H5 6623   4.247   1.808  17.015
  444MPD2    N1 6624   3.996   2.089  17.319
  444MPD2    H7 6625   3.932   2.035  17.261
  445TMC3    C1 6626   4.465   1.705  16.935
  445TMC3    C2 6627   4.355   1.693  16.849
  445TMC3    C3 6628   4.371   1.602  16.748
  445TMC3    C4 6629   4.574   1.624  16.928
  445TMC3    C5 6630   4.581   1.527  16.831
  445TMC3    C6 6631   4.489   1.527  16.727
  445TMC3     C 6632   4.457   1.822  17.018
  445TMC3     O 6633   4.566   1.865  17.054
  445TMC3     H 6634   4.267   1.755  16.846
  445TMC3    H1 6635   4.657   1.636  16.997
  445TMC3    H2 6636   4.497   1.460  16.642
  445TMC3    C7 6637   4.710   1.463  16.810
  445TMC3    C8 6638   4.256   1.565  16.669
  445TMC3    O1 6639   0.008   1.489  16.875
  445TMC3    O2 6640   4.166   1.646  16.656
  446MPD2     C 6641   3.525   3.411  11.832
  446MPD2    C1 6642   3.476   3.501  11.738
  446MPD2    C2 6643   3.570   3.575  11.667
  446MPD2    C3 6644   3.704   3.569  11.692
  446MPD2    C4 6645   3.746   3.478  11.783
  446MPD2    C5 6646   3.659   3.401  11.849
  446MPD2     H 6647   3.527   3.646  11.597
  446MPD2    H1 6648   3.851   3.461  11.804
  446MPD2    H2 6649   3.456   3.349  11.890
  446MPD2    H3 6650   3.697   3.328  11.921
  446MPD2     N 6651   3.788   3.652  11.614
  446MPD2    H5 6652   3.739   3.721  11.558
  446MPD2    N1 6653   3.340   3.526  11.712
  446MPD2    H7 6654   3.329   3.588  11.633
  447TMC3    C1 6655   4.000   3.744  11.531
  447TMC3    C2 6656   3.962   3.740  11.397
  447TMC3    C3 6657   4.058   3.731  11.301
  447TMC3    C4 6658   4.136   3.751  11.565
  447TMC3    C5 6659   4.228   3.733  11.464
  447TMC3    C6 6660   4.189   3.742  11.332
  447TMC3     C 6661   3.925   3.658  11.621
  447TMC3     O 6662   4.002   3.589  11.687
  447TMC3     H 6663   3.860   3.711  11.375
  447TMC3    H1 6664   4.155   3.746  11.672
  447TMC3    H2 6665   4.264   3.717  11.257
  447TMC3    C7 6666   4.366   3.697  11.503
  447TMC3    C8 6667   4.017   3.735  11.162
  447TMC3    O1 6668   4.438   3.653  11.413
  447TMC3    O2 6669   3.898   3.749  11.142
  448TMC3    C1 6670   2.041   3.594  17.110
  448TMC3    C2 6671   2.032   3.473  17.060
  448TMC3    C3 6672   2.060   3.363  17.141
  448TMC3    C4 6673   2.097   3.612  17.235
  448TMC3    C5 6674   2.126   3.501  17.312
  448TMC3    C6 6675   2.109   3.375  17.260
  448TMC3     C 6676   1.978   3.705  17.037
  448TMC3     O 6677   1.882   3.681  16.963
  448TMC3     H 6678   2.012   3.459  16.954
  448TMC3    H1 6679   2.101   3.706  17.288
  448TMC3    H2 6680   2.127   3.282  17.313
  448TMC3    C7 6681   2.190   3.506  17.442
  448TMC3    C8 6682   2.047   3.228  17.087
  448TMC3    O1 6683   2.236   3.614  17.468
  448TMC3    O2 6684   2.125   3.138  17.119
  449MPD2     C 6685   3.738   1.608  14.146
  449MPD2    C1 6686   3.607   1.631  14.093
  449MPD2    C2 6687   3.500   1.558  14.128
  449MPD2    C3 6688   3.523   1.458  14.226
  449MPD2    C4 6689   3.642   1.438  14.292
  449MPD2    C5 6690   3.748   1.513  14.245
  449MPD2     H 6691   3.406   1.588  14.084
  449MPD2    H1 6692   3.655   1.362  14.367
  449MPD2    H2 6693   3.824   1.665  14.114
  449MPD2    H3 6694   3.845   1.478  14.281
  449MPD2     N 6695   3.401   1.394  14.271
  449MPD2    H5 6696   3.318   1.414  14.217
  449MPD2    N1 6697   3.562   1.746  14.017
  449MPD2    H7 6698   3.469   1.752  13.976
  450TMC3    C1 6699   3.577   1.937  13.890
  450TMC3    C2 6700   3.620   1.937  13.761
  450TMC3    C3 6701   3.522   1.938  13.665
  450TMC3    C4 6702   3.448   1.957  13.916
  450TMC3    C5 6703   3.351   1.940  13.824
  450TMC3    C6 6704   3.394   1.929  13.695
  450TMC3     C 6705   3.648   1.836  13.971
  450TMC3     O 6706   3.771   1.855  13.989
  450TMC3     H 6707   3.720   1.899  13.745
  450TMC3    H1 6708   3.417   1.944  14.019
  450TMC3    H2 6709   3.323   1.933  13.614
  450TMC3    C7 6710   3.260   1.834  13.862
  450TMC3    C8 6711   3.546   1.847  13.554
  450TMC3    O1 6712   3.316   1.736  13.899
  450TMC3    O2 6713   3.453   1.795  13.495
  451MPD2     C 6714   0.370   0.897  19.609
  451MPD2    C1 6715   0.338   0.863  19.478
  451MPD2    C2 6716   0.396   0.748  19.437
  451MPD2    C3 6717   0.484   0.668  19.512
  451MPD2    C4 6718   0.515   0.705  19.640
  451MPD2    C5 6719   0.467   0.825  19.682
  451MPD2     H 6720   0.362   0.716  19.339
  451MPD2    H1 6721   0.588   0.650  19.700
  451MPD2    H2 6722   0.328   0.984  19.658
  451MPD2    H3 6723   0.488   0.850  19.786
  451MPD2     N 6724   0.515   0.542  19.467
  451MPD2    H5 6725   0.552   0.481  19.539
  451MPD2    N1 6726   0.247   0.946  19.404
  451MPD2    H7 6727   0.201   1.021  19.457
  452TMC3    C1 6728   0.466   0.356  19.335
  452TMC3    C2 6729   0.396   0.294  19.434
  452TMC3    C3 6730   0.330   0.178  19.402
  452TMC3    C4 6731   0.480   0.302  19.210
  452TMC3    C5 6732   0.417   0.188  19.187
  452TMC3    C6 6733   0.347   0.112  19.278
  452TMC3     C 6734   0.482   0.497  19.343
  452TMC3     O 6735   0.463   0.553  19.234
  452TMC3     H 6736   0.376   0.351  19.525
  452TMC3    H1 6737   0.533   0.353  19.131
  452TMC3    H2 6738   0.262   0.053  19.247
  452TMC3    C7 6739   0.397   0.167  19.045
  452TMC3    C8 6740   0.232   0.118  19.491
  452TMC3    O1 6741   0.410   0.270  18.976
  452TMC3    O2 6742   0.223   4.798  19.495
  453TMC3    C1 6743   0.963   2.439  12.130
  453TMC3    C2 6744   0.938   2.328  12.055
  453TMC3    C3 6745   0.910   2.357  11.925
  453TMC3    C4 6746   0.944   2.566  12.093
  453TMC3    C5 6747   0.899   2.595  11.965
  453TMC3    C6 6748   0.886   2.483  11.878
  453TMC3     C 6749   1.090   2.441  12.194
  453TMC3     O 6750   1.177   2.490  12.122
  453TMC3     H 6751   0.993   2.243  12.094
  453TMC3    H1 6752   0.989   2.642  12.156
  453TMC3    H2 6753   0.859   2.493  11.773
  453TMC3    C7 6754   0.982   2.690  11.896
  453TMC3    C8 6755   0.964   2.266  11.825
  453TMC3    O1 6756   0.944   2.773  11.815
  453TMC3    O2 6757   0.995   2.308  11.717
  454MPD2     C 6758   0.247   1.709  16.438
  454MPD2    C1 6759   0.188   1.806  16.356
  454MPD2    C2 6760   0.154   1.927  16.409
  454MPD2    C3 6761   0.159   1.947  16.547
  454MPD2    C4 6762   0.204   1.844  16.629
  454MPD2    C5 6763   0.249   1.727  16.575
  454MPD2     H 6764   0.115   2.000  16.339
  454MPD2    H1 6765   0.208   1.848  16.738
  454MPD2    H2 6766   0.284   1.616  16.395
  454MPD2    H3 6767   0.277   1.645  16.640
  454MPD2     N 6768   0.099   2.067  16.614
  454MPD2    H5 6769   0.075   2.070  16.712
  454MPD2    N1 6770   0.177   1.785  16.218
  454MPD2    H7 6771   0.130   1.861  16.169
  455TMC3    C1 6772   4.724   2.207  16.590
  455TMC3    C2 6773   4.699   2.217  16.727
  455TMC3    C3 6774   4.585   2.177  16.777
  455TMC3    C4 6775   4.626   2.159  16.513
  455TMC3    C5 6776   4.510   2.114  16.571
  455TMC3    C6 6777   4.483   2.124  16.701
  455TMC3     C 6778   0.058   2.174  16.543
  455TMC3     O 6779   0.080   2.209  16.428
  455TMC3     H 6780   4.783   2.244  16.789
  455TMC3    H1 6781   4.638   2.141  16.406
  455TMC3    H2 6782   4.409   2.057  16.744
  455TMC3    C7 6783   4.465   1.985  16.527
  455TMC3    C8 6784   4.550   2.256  16.892
  455TMC3    O1 6785   4.349   1.955  16.506
  455TMC3    O2 6786   4.648   2.298  16.951
  456MPD2     C 6787   2.259   2.049  16.350
  456MPD2    C1 6788   2.358   2.054  16.446
  456MPD2    C2 6789   2.330   2.081  16.576
  456MPD2    C3 6790   2.202   2.126  16.602
  456MPD2    C4 6791   2.101   2.123  16.504
  456MPD2    C5 6792   2.130   2.071  16.380
  456MPD2     H 6793   2.406   2.079  16.654
  456MPD2    H1 6794   1.997   2.152  16.516
  456MPD2    H2 6795   2.277   2.016  16.249
  456MPD2    H3 6796   2.055   2.076  16.301
  456MPD2     N 6797   2.174   2.191  16.726
  456MPD2    H5 6798   2.251   2.186  16.792
  456MPD2    N1 6799   2.487   2.012  16.411
  456MPD2    H7 6800   2.502   1.996  16.312
  457TMC3    C1 6801   2.081   2.341  16.882
  457TMC3    C2 6802   2.042   2.475  16.867
  457TMC3    C3 6803   2.115   2.570  16.940
  457TMC3    C4 6804   2.181   2.297  16.966
  457TMC3    C5 6805   2.233   2.392  17.050
  457TMC3    C6 6806   2.206   2.527  17.036
  457TMC3     C 6807   2.055   2.256  16.763
  457TMC3     O 6808   1.949   2.272  16.700
  457TMC3     H 6809   1.966   2.500  16.794
  457TMC3    H1 6810   2.187   2.190  16.983
  457TMC3    H2 6811   2.253   2.596  17.105
  457TMC3    C7 6812   2.332   2.343  17.149
  457TMC3    C8 6813   2.076   2.702  16.950
  457TMC3    O1 6814   2.371   2.229  17.142
  457TMC3    O2 6815   2.157   2.772  17.006
  458MPD2     C 6816   0.454   1.451  12.259
  458MPD2    C1 6817   0.405   1.388  12.372
  458MPD2    C2 6818   0.277   1.329  12.381
  458MPD2    C3 6819   0.199   1.325  12.270
  458MPD2    C4 6820   0.247   1.378  12.147
  458MPD2    C5 6821   0.370   1.438  12.149
  458MPD2     H 6822   0.234   1.274  12.464
  458MPD2    H1 6823   0.191   1.376  12.055
  458MPD2    H2 6824   0.554   1.492  12.247
  458MPD2    H3 6825   0.410   1.472  12.054
  458MPD2     N 6826   0.077   1.261  12.279
  458MPD2    H5 6827   0.060   1.220  12.371
  458MPD2    N1 6828   0.489   1.407  12.486
  458MPD2    H7 6829   0.577   1.456  12.471
  459TMC3    C1 6830   0.561   1.406  12.709
  459TMC3    C2 6831   0.661   1.497  12.679
  459TMC3    C3 6832   0.733   1.560  12.781
  459TMC3    C4 6833   0.530   1.381  12.842
  459TMC3    C5 6834   0.607   1.447  12.940
  459TMC3    C6 6835   0.707   1.537  12.913
  459TMC3     C 6836   0.457   1.369  12.613
  459TMC3     O 6837   0.363   1.305  12.655
  459TMC3     H 6838   0.692   1.525  12.578
  459TMC3    H1 6839   0.434   1.337  12.865
  459TMC3    H2 6840   0.770   1.579  12.991
  459TMC3    C7 6841   0.561   1.419  13.079
  459TMC3    C8 6842   0.829   1.670  12.760
  459TMC3    O1 6843   0.484   1.326  13.093
  459TMC3    O2 6844   0.921   1.683  12.838
  460MPD2     C 6845   4.251   3.849  10.909
  460MPD2    C1 6846   4.127   3.824  10.961
  460MPD2    C2 6847   4.016   3.879  10.899
  460MPD2    C3 6848   4.031   3.967  10.797
  460MPD2    C4 6849   4.158   3.998  10.759
  460MPD2    C5 6850   4.264   3.936  10.812
  460MPD2     H 6851   3.918   3.864  10.943
  460MPD2    H1 6852   4.186   4.077  10.691
  460MPD2    H2 6853   4.338   3.798  10.948
  460MPD2    H3 6854   4.360   3.969  10.774
  460MPD2     N 6855   3.920   4.027  10.739
  460MPD2    H5 6856   3.831   3.984  10.764
  460MPD2    N1 6857   4.126   3.752  11.083
  460MPD2    H7 6858   4.211   3.707  11.115
  461TMC3    C1 6859   3.785   4.143  10.593
  461TMC3    C2 6860   3.743   4.031  10.522
  461TMC3    C3 6861   3.630   4.042  10.437
  461TMC3    C4 6862   3.736   4.266  10.569
  461TMC3    C5 6863   3.626   4.278  10.483
  461TMC3    C6 6864   3.581   4.167  10.415
  461TMC3     C 6865   3.915   4.130  10.649
  461TMC3     O 6866   4.004   4.207  10.611
  461TMC3     H 6867   3.786   3.935  10.546
  461TMC3    H1 6868   3.781   4.350  10.621
  461TMC3    H2 6869   3.489   4.180  10.361
  461TMC3    C7 6870   3.599   4.408  10.424
  461TMC3    C8 6871   3.658   3.957  10.322
  461TMC3    O1 6872   3.518   4.411  10.337
  461TMC3    O2 6873   3.771   3.911  10.300
  462TMC3    C1 6874   4.099   0.376  18.036
  462TMC3    C2 6875   4.183   0.318  17.947
  462TMC3    C3 6876   4.202   0.181  17.958
  462TMC3    C4 6877   4.027   0.304  18.126
  462TMC3    C5 6878   4.055   0.169  18.136
  462TMC3    C6 6879   4.146   0.104  18.056
  462TMC3     C 6880   4.081   0.521  18.045
  462TMC3     O 6881   3.978   0.563  18.100
  462TMC3     H 6882   4.214   0.375  17.860
  462TMC3    H1 6883   3.945   0.353  18.178
  462TMC3    H2 6884   4.152   4.801  18.061
  462TMC3    C7 6885   3.948   0.080  18.186
  462TMC3    C8 6886   4.211   0.121  17.823
  462TMC3    O1 6887   3.990   4.773  18.225
  462TMC3    O2 6888   4.156   0.176  17.732
  463MPD2     C 6889   0.251   3.368  19.857
  463MPD2    C1 6890   0.222   3.409  19.726
  463MPD2    C2 6891   0.257   3.540  19.705
  463MPD2    C3 6892   0.304   3.632  19.791
  463MPD2    C4 6893   0.341   3.592  19.919
  463MPD2    C5 6894   0.312   3.456  19.951
  463MPD2     H 6895   0.239   3.577  19.605
  463MPD2    H1 6896   0.388   3.643  20.002
  463MPD2    H2 6897   0.239   3.263  19.884
  463MPD2    H3 6898   0.340   3.421  20.049
  463MPD2     N 6899   0.323   3.769  19.750
  463MPD2    H5 6900   0.341   3.840  19.820
  463MPD2    N1 6901   0.180   3.332  19.609
  463MPD2    H7 6902   0.167   3.390  19.527
  464TMC3    C1 6903   0.069   3.165  19.472
  464TMC3    C2 6904   0.066   3.258  19.370
  464TMC3    C3 6905   0.003   3.200  19.255
  464TMC3    C4 6906   0.042   3.032  19.446
  464TMC3    C5 6907   4.788   2.986  19.328
  464TMC3    C6 6908   4.765   3.071  19.230
  464TMC3     C 6909   0.131   3.207  19.599
  464TMC3     O 6910   0.141   3.119  19.685
  464TMC3     H 6911   0.070   3.365  19.383
  464TMC3    H1 6912   0.074   2.951  19.510
  464TMC3    H2 6913   4.733   3.042  19.130
  464TMC3    C7 6914   0.010   2.858  19.274
  464TMC3    C8 6915   4.801   3.278  19.135
  464TMC3    O1 6916   0.131   2.834  19.250
  464TMC3    O2 6917   4.694   3.302  19.084
  465MPD2     C 6918   1.837   2.524  17.389
  465MPD2    C1 6919   1.774   2.397  17.390
  465MPD2    C2 6920   1.723   2.349  17.269
  465MPD2    C3 6921   1.738   2.426  17.153
  465MPD2    C4 6922   1.794   2.551  17.157
  465MPD2    C5 6923   1.844   2.598  17.274
  465MPD2     H 6924   1.680   2.250  17.262
  465MPD2    H1 6925   1.809   2.608  17.066
  465MPD2    H2 6926   1.875   2.565  17.483
  465MPD2    H3 6927   1.870   2.703  17.281
  465MPD2     N 6928   1.688   2.363  17.031
  465MPD2    H5 6929   1.639   2.274  17.038
  465MPD2    N1 6930   1.742   2.330  17.510
  465MPD2    H7 6931   1.676   2.254  17.502
  466TMC3    C1 6932   1.489   2.174  16.757
  466TMC3    C2 6933   1.448   2.243  16.643
  466TMC3    C3 6934   1.530   2.346  16.609
  466TMC3    C4 6935   1.589   2.224  16.845
  466TMC3    C5 6936   1.652   2.340  16.802
  466TMC3    C6 6937   1.627   2.404  16.682
  466TMC3     C 6938   1.380   2.122  16.828
  466TMC3     O 6939   1.405   2.122  16.948
  466TMC3     H 6940   1.350   2.232  16.599
  466TMC3    H1 6941   1.612   2.170  16.936
  466TMC3    H2 6942   1.688   2.490  16.654
  466TMC3    C7 6943   1.696   2.427  16.905
  466TMC3    C8 6944   1.470   2.426  16.508
  466TMC3    O1 6945   1.735   2.535  16.866
  466TMC3    O2 6946   1.491   2.394  16.393
  467TMC3    C1 6947   2.339   0.736  14.067
  467TMC3    C2 6948   2.280   0.732  13.944
  467TMC3    C3 6949   2.147   0.766  13.936
  467TMC3    C4 6950   2.270   0.746  14.183
  467TMC3    C5 6951   2.137   0.766  14.174
  467TMC3    C6 6952   2.075   0.783  14.053
  467TMC3     C 6953   2.484   0.737  14.083
  467TMC3     O 6954   2.534   0.766  14.192
  467TMC3     H 6955   2.335   0.733  13.851
  467TMC3    H1 6956   2.325   0.747  14.276
  467TMC3    H2 6957   1.979   0.831  14.046
  467TMC3    C7 6958   2.061   0.678  14.260
  467TMC3    C8 6959   2.114   0.853  13.827
  467TMC3    O1 6960   2.133   0.618  14.341
  467TMC3    O2 6961   2.118   0.971  13.860
  468MPD2     C 6962   0.924   4.328  11.165
  468MPD2    C1 6963   1.038   4.254  11.192
  468MPD2    C2 6964   1.048   4.124  11.162
  468MPD2    C3 6965   0.942   4.059  11.096
  468MPD2    C4 6966   0.827   4.129  11.071
  468MPD2    C5 6967   0.821   4.259  11.109
  468MPD2     H 6968   1.136   4.069  11.191
  468MPD2    H1 6969   0.741   4.079  11.029
  468MPD2    H2 6970   0.913   4.432  11.191
  468MPD2    H3 6971   0.726   4.309  11.094
  468MPD2     N 6972   0.953   3.929  11.043
  468MPD2    H5 6973   0.868   3.893  11.000
  468MPD2    N1 6974   1.153   4.322  11.243
  468MPD2    H7 6975   1.236   4.267  11.266
  469TMC3    C1 6976   1.312   4.485  11.289
  469TMC3    C2 6977   1.417   4.404  11.256
  469TMC3    C3 6978   1.539   4.431  11.308
  469TMC3    C4 6979   1.328   4.596  11.366
  469TMC3    C5 6980   1.451   4.612  11.420
  469TMC3    C6 6981   1.558   4.534  11.391
  469TMC3     C 6982   1.174   4.456  11.259
  469TMC3     O 6983   1.098   4.549  11.275
  469TMC3     H 6984   1.404   4.319  11.191
  469TMC3    H1 6985   1.245   4.663  11.386
  469TMC3    H2 6986   1.656   4.541  11.438
  469TMC3    C7 6987   1.462   4.718  11.523
  469TMC3    C8 6988   1.626   4.309  11.322
  469TMC3    O1 6989   1.379   0.001  11.513
  469TMC3    O2 6990   1.611   4.219  11.241
  470TMC3    C1 6991   3.454   4.587  18.573
  470TMC3    C2 6992   3.524   4.692  18.519
  470TMC3    C3 6993   3.638   4.734  18.579
  470TMC3    C4 6994   3.493   4.520  18.687
  470TMC3    C5 6995   3.604   4.576  18.749
  470TMC3    C6 6996   3.676   4.677  18.701
  470TMC3     C 6997   3.351   4.528  18.494
  470TMC3     O 6998   3.334   4.566  18.378
  470TMC3     H 6999   3.495   4.741  18.426
  470TMC3    H1 7000   3.450   4.427  18.721
  470TMC3    H2 7001   3.766   4.709  18.752
  470TMC3    C7 7002   3.653   4.513  18.876
  470TMC3    C8 7003   3.721   0.023  18.510
  470TMC3    O1 7004   3.771   4.530  18.901
  470TMC3    O2 7005   3.659   0.118  18.461
  471MPD2     C 7006   4.038   1.292  16.907
  471MPD2    C1 7007   3.988   1.167  16.920
  471MPD2    C2 7008   3.993   1.104  17.039
  471MPD2    C3 7009   4.045   1.161  17.156
  471MPD2    C4 7010   4.093   1.287  17.139
  471MPD2    C5 7011   4.087   1.353  17.015
  471MPD2     H 7012   3.955   1.003  17.035
  471MPD2    H1 7013   4.141   1.339  17.221
  471MPD2    H2 7014   4.045   1.334  16.807
  471MPD2    H3 7015   4.133   1.452  17.010
  471MPD2     N 7016   4.079   1.091  17.277
  471MPD2    H5 7017   4.119   1.149  17.350
  471MPD2    N1 7018   3.957   1.092  16.805
  471MPD2    H7 7019   3.931   0.996  16.825
  472TMC3    C1 7020   3.888   1.031  16.592
  472TMC3    C2 7021   3.816   1.072  16.486
  472TMC3    C3 7022   3.791   0.979  16.390
  472TMC3    C4 7023   3.943   0.908  16.610
  472TMC3    C5 7024   3.918   0.817  16.514
  472TMC3    C6 7025   3.832   0.849  16.416
  472TMC3     C 7026   3.920   1.145  16.683
  472TMC3     O 7027   3.899   1.258  16.649
  472TMC3     H 7028   3.761   1.165  16.487
  472TMC3    H1 7029   4.007   0.883  16.694
  472TMC3    H2 7030   3.827   0.786  16.328
  472TMC3    C7 7031   3.907   0.677  16.560
  472TMC3    C8 7032   3.656   0.977  16.349
  472TMC3    O1 7033   3.891   0.659  16.682
  472TMC3    O2 7034   3.636   1.052  16.256
  473MPD2     C 7035   3.792   2.952  14.294
  473MPD2    C1 7036   3.882   3.004  14.200
  473MPD2    C2 7037   3.942   3.122  14.242
  473MPD2    C3 7038   3.903   3.199  14.352
  473MPD2    C4 7039   3.811   3.155  14.440
  473MPD2    C5 7040   3.762   3.027  14.407
  473MPD2     H 7041   4.022   3.155  14.176
  473MPD2    H1 7042   3.767   3.210  14.522
  473MPD2    H2 7043   3.749   2.854  14.275
  473MPD2    H3 7044   3.680   2.986  14.466
  473MPD2     N 7045   3.956   3.330  14.376
  473MPD2    H5 7046   3.897   3.379  14.442
  473MPD2    N1 7047   3.933   2.931  14.084
  473MPD2    H7 7048   4.023   2.959  14.045
  474TMC3    C1 7049   4.096   3.507  14.388
  474TMC3    C2 7050   3.999   3.593  14.419
  474TMC3    C3 7051   4.038   3.721  14.451
  474TMC3    C4 7052   4.224   3.549  14.372
  474TMC3    C5 7053   4.264   3.678  14.397
  474TMC3    C6 7054   4.171   3.754  14.458
  474TMC3     C 7055   4.073   3.380  14.335
  474TMC3     O 7056   4.164   3.324  14.276
  474TMC3     H 7057   3.896   3.561  14.422
  474TMC3    H1 7058   4.303   3.481  14.343
  474TMC3    H2 7059   4.200   3.857  14.477
  474TMC3    C7 7060   4.402   3.697  14.427
  474TMC3    C8 7061   3.930   3.817  14.468
  474TMC3    O1 7062   4.482   3.657  14.345
  474TMC3    O2 7063   3.820   3.765  14.486
  475MPD2     C 7064   2.531   1.554  11.137
  475MPD2    C1 7065   2.561   1.654  11.045
  475MPD2    C2 7066   2.519   1.780  11.075
  475MPD2    C3 7067   2.444   1.811  11.190
  475MPD2    C4 7068   2.426   1.709  11.279
  475MPD2    C5 7069   2.465   1.583  11.248
  475MPD2     H 7070   2.532   1.856  10.998
  475MPD2    H1 7071   2.382   1.718  11.378
  475MPD2    H2 7072   2.563   1.452  11.122
  475MPD2    H3 7073   2.448   1.508  11.326
  475MPD2     N 7074   2.401   1.942  11.220
  475MPD2    H5 7075   2.420   2.020  11.157
  475MPD2    N1 7076   2.627   1.609  10.934
  475MPD2    H7 7077   2.619   1.511  10.909
  476TMC3    C1 7078   2.766   1.816  10.896
  476TMC3    C2 7079   2.734   1.923  10.821
  476TMC3    C3 7080   2.715   2.044  10.882
  476TMC3    C4 7081   2.791   1.830  11.031
  476TMC3    C5 7082   2.794   1.956  11.087
  476TMC3    C6 7083   2.751   2.060  11.014
  476TMC3     C 7084   2.707   1.693  10.850
  476TMC3     O 7085   2.746   1.660  10.736
  476TMC3     H 7086   2.720   1.916  10.714
  476TMC3    H1 7087   2.815   1.745  11.094
  476TMC3    H2 7088   2.758   2.161  11.055
  476TMC3    C7 7089   2.769   1.962  11.236
  476TMC3    C8 7090   2.576   2.086  10.877
  476TMC3    O1 7091   2.789   1.860  11.300
  476TMC3    O2 7092   2.527   2.122  10.985
  477MPD2     C 7093   0.057   3.292  11.975
  477MPD2    C1 7094   4.752   3.219  12.010
  477MPD2    C2 7095   4.774   3.097  12.067
  477MPD2    C3 7096   0.098   3.056  12.096
  477MPD2    C4 7097   0.204   3.138  12.064
  477MPD2    C5 7098   0.184   3.257  12.007
  477MPD2     H 7099   4.695   3.028  12.098
  477MPD2    H1 7100   0.304   3.100  12.086
  477MPD2    H2 7101   0.059   3.389  11.927
  477MPD2    H3 7102   0.266   3.316  11.968
  477MPD2     N 7103   0.112   2.934  12.157
  477MPD2    H5 7104   0.031   2.877  12.177
  477MPD2    N1 7105   4.628   3.278  11.985
  477MPD2    H7 7106   4.621   3.361  11.926
  478TMC3    C1 7107   4.387   3.297  11.977
  478TMC3    C2 7108   4.280   3.313  12.053
  478TMC3    C3 7109   4.162   3.353  11.986
  478TMC3    C4 7110   4.389   3.326  11.843
  478TMC3    C5 7111   4.267   3.350  11.782
  478TMC3    C6 7112   4.156   3.365  11.854
  478TMC3     C 7113   4.506   3.236  12.040
  478TMC3     O 7114   4.479   3.161  12.134
  478TMC3     H 7115   4.288   3.304  12.161
  478TMC3    H1 7116   4.471   3.286  11.785
  478TMC3    H2 7117   4.057   3.381  11.812
  478TMC3    C7 7118   4.261   3.318  11.642
  478TMC3    C8 7119   4.071   3.434  12.062
  478TMC3    O1 7120   4.354   3.254  11.592
  478TMC3    O2 7121   4.101   3.422  12.184
  479MPD2     C 7122   3.453   0.267  15.371
  479MPD2    C1 7123   3.410   0.231  15.498
  479MPD2    C2 7124   3.503   0.219  15.602
  479MPD2    C3 7125   3.633   0.257  15.586
  479MPD2    C4 7126   3.672   0.312  15.463
  479MPD2    C5 7127   3.586   0.301  15.358
  479MPD2     H 7128   3.457   0.183  15.692
  479MPD2    H1 7129   3.770   0.351  15.440
  479MPD2    H2 7130   3.391   0.280  15.283
  479MPD2    H3 7131   3.622   0.324  15.259
  479MPD2     N 7132   3.738   0.257  15.684
  479MPD2    H5 7133   3.830   0.269  15.645
  479MPD2    N1 7134   3.277   0.186  15.506
  479MPD2    H7 7135   3.229   0.181  15.417
  480TMC3    C1 7136   3.482   0.232  16.084
  480TMC3    C2 7137   3.401   0.332  16.037
  480TMC3    C3 7138   3.452   0.405  15.933
  480TMC3    C4 7139   3.575   0.178  15.998
  480TMC3    C5 7140   3.613   0.242  15.882
  480TMC3    C6 7141   3.557   0.364  15.862
  480TMC3     C 7142   3.426   0.120  16.162
  480TMC3     O 7143   3.508   0.034  16.195
  480TMC3     H 7144   3.321   0.381  16.092
  480TMC3    H1 7145   3.637   0.092  16.022
  480TMC3    H2 7146   3.606   0.438  15.799
  480TMC3    C7 7147   3.730   0.203  15.814
  480TMC3    C8 7148   3.358   0.499  15.875
  480TMC3    O1 7149   3.814   0.154  15.891
  480TMC3    O2 7150   3.254   0.516  15.935
  481MPD2     C 7151   0.160   0.105  14.040
  481MPD2    C1 7152   0.079   0.009  14.092
  481MPD2    C2 7153   0.118   4.757  14.211
  481MPD2    C3 7154   0.241   4.782  14.275
  481MPD2    C4 7155   0.323   0.073  14.215
  481MPD2    C5 7156   0.281   0.135  14.102
  481MPD2     H 7157   0.061   4.670  14.243
  481MPD2    H1 7158   0.425   0.094  14.246
  481MPD2    H2 7159   0.137   0.154  13.946
  481MPD2    H3 7160   0.362   0.195  14.061
  481MPD2     N 7161   0.284   4.719  14.396
  481MPD2    H5 7162   0.371   4.747  14.441
  481MPD2    N1 7163   4.762   4.795  14.022
  481MPD2    H7 7164   4.750   0.050  13.940
  482TMC3    C1 7165   4.563   4.692  13.954
  482TMC3    C2 7166   4.513   4.567  13.928
  482TMC3    C3 7167   4.389   4.550  13.879
  482TMC3    C4 7168   4.500   0.000  13.915
  482TMC3    C5 7169   4.372   4.789  13.866
  482TMC3    C6 7170   4.318   4.663  13.845
  482TMC3     C 7171   4.669   4.703  14.055
  482TMC3     O 7172   4.687   4.599  14.118
  482TMC3     H 7173   4.576   4.481  13.948
  482TMC3    H1 7174   4.539   0.097  13.944
  482TMC3    H2 7175   4.228   4.654  13.785
  482TMC3    C7 7176   4.313   0.094  13.787
  482TMC3    C8 7177   4.360   4.426  13.805
  482TMC3    O1 7178   4.201   0.087  13.743
  482TMC3    O2 7179   4.451   4.343  13.816
  483TMC3    C1 7180   2.815   3.474  18.635
  483TMC3    C2 7181   2.883   3.593  18.642
  483TMC3    C3 7182   2.986   3.606  18.731
  483TMC3    C4 7183   2.866   3.360  18.690
  483TMC3    C5 7184   2.970   3.375  18.776
  483TMC3    C6 7185   3.030   3.496  18.799
  483TMC3     C 7186   2.725   3.457  18.529
  483TMC3     O 7187   2.667   3.548  18.477
  483TMC3     H 7188   2.837   3.680  18.597
  483TMC3    H1 7189   2.818   3.263  18.686
  483TMC3    H2 7190   3.123   3.502  18.855
  483TMC3    C7 7191   3.005   3.264  18.866
  483TMC3    C8 7192   3.071   3.720  18.706
  483TMC3    O1 7193   3.108   3.265  18.928
  483TMC3    O2 7194   3.064   3.752  18.585
  484MPD2     C 7195   0.832   1.890  12.455
  484MPD2    C1 7196   0.871   1.845  12.578
  484MPD2    C2 7197   0.996   1.887  12.630
  484MPD2    C3 7198   1.074   1.979  12.565
  484MPD2    C4 7199   1.036   2.031  12.444
  484MPD2    C5 7200   0.911   1.992  12.398
  484MPD2     H 7201   1.029   1.852  12.727
  484MPD2    H1 7202   1.087   2.111  12.390
  484MPD2    H2 7203   0.743   1.856  12.405
  484MPD2    H3 7204   0.873   2.023  12.302
  484MPD2     N 7205   1.195   2.022  12.619
  484MPD2    H5 7206   1.265   2.063  12.558
  484MPD2    N1 7207   0.803   1.736  12.638
  484MPD2    H7 7208   0.713   1.710  12.597
  485TMC3    C1 7209   1.359   2.073  12.785
  485TMC3    C2 7210   1.419   2.026  12.903
  485TMC3    C3 7211   1.550   2.054  12.921
  485TMC3    C4 7212   1.426   2.146  12.695
  485TMC3    C5 7213   1.557   2.174  12.721
  485TMC3    C6 7214   1.614   2.139  12.834
  485TMC3     C 7215   1.226   2.025  12.755
  485TMC3     O 7216   1.165   1.990  12.854
  485TMC3     H 7217   1.373   1.961  12.976
  485TMC3    H1 7218   1.382   2.186  12.604
  485TMC3    H2 7219   1.714   2.165  12.867
  485TMC3    C7 7220   1.659   2.181  12.609
  485TMC3    C8 7221   1.641   1.951  12.979
  485TMC3    O1 7222   1.773   2.188  12.651
  485TMC3    O2 7223   1.759   1.979  12.959
  486MPD2     C 7224   3.426   0.751  13.318
  486MPD2    C1 7225   3.326   0.707  13.234
  486MPD2    C2 7226   3.252   0.795  13.157
  486MPD2    C3 7227   3.262   0.932  13.179
  486MPD2    C4 7228   3.351   0.972  13.262
  486MPD2    C5 7229   3.432   0.887  13.330
  486MPD2     H 7230   3.185   0.754  13.082
  486MPD2    H1 7231   3.385   1.072  13.284
  486MPD2    H2 7232   3.485   0.691  13.386
  486MPD2    H3 7233   3.499   0.927  13.404
  486MPD2     N 7234   3.190   1.032  13.097
  486MPD2    H5 7235   3.123   0.999  13.029
  486MPD2    N1 7236   3.318   0.566  13.235
  486MPD2    H7 7237   3.367   0.526  13.314
  487TMC3    C1 7238   3.219   0.352  13.219
  487TMC3    C2 7239   3.161   0.255  13.138
  487TMC3    C3 7240   3.168   0.127  13.187
  487TMC3    C4 7241   3.261   0.333  13.350
  487TMC3    C5 7242   3.256   0.202  13.388
  487TMC3    C6 7243   3.233   0.096  13.304
  487TMC3     C 7244   3.239   0.490  13.157
  487TMC3     O 7245   3.200   0.509  13.043
  487TMC3     H 7246   3.132   0.276  13.036
  487TMC3    H1 7247   3.279   0.411  13.423
  487TMC3    H2 7248   3.250   4.798  13.334
  487TMC3    C7 7249   3.208   0.190  13.521
  487TMC3    C8 7250   3.046   0.061  13.190
  487TMC3    O1 7251   3.265   0.256  13.606
  487TMC3    O2 7252   3.033   4.778  13.268
  488MPD2     C 7253   3.276   2.196  16.663
  488MPD2    C1 7254   3.282   2.334  16.641
  488MPD2    C2 7255   3.238   2.414  16.746
  488MPD2    C3 7256   3.192   2.361  16.866
  488MPD2    C4 7257   3.189   2.224  16.882
  488MPD2    C5 7258   3.240   2.145  16.782
  488MPD2     H 7259   3.233   2.521  16.729
  488MPD2    H1 7260   3.151   2.177  16.971
  488MPD2    H2 7261   3.278   2.134  16.574
  488MPD2    H3 7262   3.221   2.039  16.797
  488MPD2     N 7263   3.136   2.441  16.965
  488MPD2    H5 7264   3.134   2.541  16.950
  488MPD2    N1 7265   3.332   2.387  16.523
  488MPD2    H7 7266   3.300   2.483  16.509
  489TMC3    C1 7267   3.050   2.523  17.175
  489TMC3    C2 7268   3.003   2.642  17.109
  489TMC3    C3 7269   2.997   2.752  17.184
  489TMC3    C4 7270   3.060   2.523  17.309
  489TMC3    C5 7271   3.057   2.644  17.375
  489TMC3    C6 7272   3.026   2.762  17.315
  489TMC3     C 7273   3.094   2.403  17.098
  489TMC3     O 7274   3.112   2.295  17.150
  489TMC3     H 7275   2.977   2.644  17.003
  489TMC3    H1 7276   3.094   2.427  17.347
  489TMC3    H2 7277   3.027   2.859  17.363
  489TMC3    C7 7278   3.115   2.660  17.502
  489TMC3    C8 7279   3.022   2.871  17.106
  489TMC3    O1 7280   3.121   2.777  17.540
  489TMC3    O2 7281   3.083   2.859  17.004
  490MPD2     C 7282   4.143   1.766  17.569
  490MPD2    C1 7283   4.136   1.700  17.687
  490MPD2    C2 7284   4.197   1.753  17.798
  490MPD2    C3 7285   4.268   1.872  17.786
  490MPD2    C4 7286   4.276   1.931  17.664
  490MPD2    C5 7287   4.218   1.881  17.552
  490MPD2     H 7288   4.190   1.698  17.892
  490MPD2    H1 7289   4.336   2.020  17.650
  490MPD2    H2 7290   4.101   1.720  17.480
  490MPD2    H3 7291   4.226   1.929  17.455
  490MPD2     N 7292   4.339   1.939  17.884
  490MPD2    H5 7293   4.391   2.024  17.863
  490MPD2    N1 7294   4.071   1.574  17.706
  490MPD2    H7 7295   4.049   1.536  17.798
  491TMC3    C1 7296   3.956   1.367  17.634
  491TMC3    C2 7297   3.971   1.306  17.760
  491TMC3    C3 7298   3.900   1.190  17.783
  491TMC3    C4 7299   3.895   1.294  17.526
  491TMC3    C5 7300   3.834   1.175  17.555
  491TMC3    C6 7301   3.836   1.120  17.683
  491TMC3     C 7302   4.034   1.493  17.602
  491TMC3     O 7303   4.056   1.511  17.482
  491TMC3     H 7304   4.029   1.348  17.841
  491TMC3    H1 7305   3.898   1.341  17.428
  491TMC3    H2 7306   3.766   1.039  17.698
  491TMC3    C7 7307   3.714   1.141  17.478
  491TMC3    C8 7308   3.912   1.143  17.917
  491TMC3    O1 7309   3.704   1.028  17.434
  491TMC3    O2 7310   3.953   1.225  17.997
  492MPD2     C 7311   4.426   1.953  11.654
  492MPD2    C1 7312   4.354   1.862  11.579
  492MPD2    C2 7313   4.278   1.768  11.639
  492MPD2    C3 7314   4.273   1.759  11.779
  492MPD2    C4 7315   4.338   1.852  11.856
  492MPD2    C5 7316   4.412   1.951  11.796
  492MPD2     H 7317   4.219   1.703  11.575
  492MPD2    H1 7318   4.323   1.851  11.964
  492MPD2    H2 7319   4.480   2.032  11.602
  492MPD2    H3 7320   4.464   2.025  11.855
  492MPD2     N 7321   4.209   1.654  11.849
  492MPD2    H5 7322   4.211   1.650  11.950
  492MPD2    N1 7323   4.355   1.897  11.440
  492MPD2    H7 7324   4.410   1.980  11.420
  493TMC3    C1 7325   4.303   1.899  11.212
  493TMC3    C2 7326   4.327   2.038  11.205
  493TMC3    C3 7327   4.285   2.100  11.088
  493TMC3    C4 7328   4.248   1.826  11.109
  493TMC3    C5 7329   4.202   1.894  10.998
  493TMC3    C6 7330   4.217   2.030  10.990
  493TMC3     C 7331   4.300   1.823  11.340
  493TMC3     O 7332   4.229   1.723  11.342
  493TMC3     H 7333   4.347   2.105  11.287
  493TMC3    H1 7334   4.268   1.720  11.111
  493TMC3    H2 7335   4.187   2.084  10.901
  493TMC3    C7 7336   4.069   1.841  10.960
  493TMC3    C8 7337   4.259   2.241  11.089
  493TMC3    O1 7338   4.031   1.851  10.843
  493TMC3    O2 7339   4.244   2.300  11.195
  494TMC3    C1 7340   4.407   3.404  18.290
  494TMC3    C2 7341   4.483   3.316  18.360
  494TMC3    C3 7342   4.603   3.273  18.316
  494TMC3    C4 7343   4.455   3.451  18.173
  494TMC3    C5 7344   4.585   3.413  18.136
  494TMC3    C6 7345   4.657   3.326  18.205
  494TMC3     C 7346   4.318   3.489  18.371
  494TMC3     O 7347   4.321   3.473  18.492
  494TMC3     H 7348   4.460   3.296  18.465
  494TMC3    H1 7349   4.386   3.502  18.107
  494TMC3    H2 7350   4.762   3.312  18.182
  494TMC3    C7 7351   4.643   3.457  18.011
  494TMC3    C8 7352   4.694   3.207  18.410
  494TMC3    O1 7353   4.722   3.384  17.951
  494TMC3    O2 7354   0.011   3.221  18.391
  495TMC3    C1 7355   3.581   0.527  14.907
  495TMC3    C2 7356   3.494   0.577  14.816
  495TMC3    C3 7357   3.378   0.641  14.870
  495TMC3    C4 7358   3.574   0.557  15.038
  495TMC3    C5 7359   3.476   0.643  15.085
  495TMC3    C6 7360   3.374   0.685  14.997
  495TMC3     C 7361   3.622   0.391  14.891
  495TMC3     O 7362   3.606   0.319  14.989
  495TMC3     H 7363   3.479   0.520  14.726
  495TMC3    H1 7364   3.657   0.524  15.100
  495TMC3    H2 7365   3.291   0.747  15.027
  495TMC3    C7 7366   3.453   0.635  15.224
  495TMC3    C8 7367   3.254   0.653  14.800
  495TMC3    O1 7368   3.556   0.610  15.286
  495TMC3    O2 7369   3.158   0.714  14.850
  496MPD2     C 7370   0.443   0.892  15.740
  496MPD2    C1 7371   0.445   0.769  15.680
  496MPD2    C2 7372   0.361   0.670  15.713
  496MPD2    C3 7373   0.258   0.703  15.804
  496MPD2    C4 7374   0.249   0.820  15.865
  496MPD2    C5 7375   0.339   0.916  15.832
  496MPD2     H 7376   0.360   0.573  15.665
  496MPD2    H1 7377   0.176   0.836  15.943
  496MPD2    H2 7378   0.526   0.957  15.718
  496MPD2    H3 7379   0.324   1.020  15.861
  496MPD2     N 7380   0.167   0.604  15.849
  496MPD2    H5 7381   0.094   0.633  15.912
  496MPD2    N1 7382   0.551   0.752  15.581
  496MPD2    H7 7383   0.627   0.818  15.592
  497TMC3    C1 7384   0.092   0.388  15.882
  497TMC3    C2 7385   0.082   0.275  15.805
  497TMC3    C3 7386   0.128   0.150  15.841
  497TMC3    C4 7387   0.148   0.372  16.005
  497TMC3    C5 7388   0.190   0.249  16.040
  497TMC3    C6 7389   0.182   0.133  15.964
  497TMC3     C 7390   0.167   0.475  15.799
  497TMC3     O 7391   0.202   0.431  15.691
  497TMC3     H 7392   0.042   0.287  15.705
  497TMC3    H1 7393   0.153   0.458  16.071
  497TMC3    H2 7394   0.211   0.034  15.996
  497TMC3    C7 7395   0.240   0.232  16.170
  497TMC3    C8 7396   0.182   0.069  15.737
  497TMC3    O1 7397   0.217   0.123  16.217
  497TMC3    O2 7398   0.192   4.751  15.751
  498MPD2     C 7399   1.298   1.777   9.892
  498MPD2    C1 7400   1.381   1.764  10.006
  498MPD2    C2 7401   1.366   1.650  10.076
  498MPD2    C3 7402   1.274   1.553  10.051
  498MPD2    C4 7403   1.193   1.571   9.937
  498MPD2    C5 7404   1.205   1.683   9.865
  498MPD2     H 7405   1.411   1.655  10.175
  498MPD2    H1 7406   1.127   1.492   9.903
  498MPD2    H2 7407   1.291   1.863   9.827
  498MPD2    H3 7408   1.144   1.695   9.776
  498MPD2     N 7409   1.239   1.453  10.152
  498MPD2    H5 7410   1.309   1.439  10.225
  498MPD2    N1 7411   1.475   1.865  10.043
  498MPD2    H7 7412   1.542   1.846  10.117
  499TMC3    C1 7413   1.602   2.058  10.035
  499TMC3    C2 7414   1.704   1.995  10.105
  499TMC3    C3 7415   1.812   2.075  10.137
  499TMC3    C4 7416   1.603   2.188   9.993
  499TMC3    C5 7417   1.713   2.267  10.030
  499TMC3    C6 7418   1.809   2.209  10.096
  499TMC3     C 7419   1.482   1.988   9.986
  499TMC3     O 7420   1.393   2.048   9.928
  499TMC3     H 7421   1.697   1.890  10.132
  499TMC3    H1 7422   1.527   2.224   9.923
  499TMC3    H2 7423   1.896   2.270  10.116
  499TMC3    C7 7424   1.717   2.418  10.022
  499TMC3    C8 7425   1.926   2.013  10.180
  499TMC3    O1 7426   1.827   2.475  10.032
  499TMC3    O2 7427   1.990   2.064  10.271
  500MPD2     C 7428   3.015   2.759  11.067
  500MPD2    C1 7429   3.039   2.793  10.939
  500MPD2    C2 7430   2.939   2.788  10.847
  500MPD2    C3 7431   2.806   2.773  10.879
  500MPD2    C4 7432   2.776   2.759  11.011
  500MPD2    C5 7433   2.881   2.744  11.106
  500MPD2     H 7434   2.972   2.796  10.744
  500MPD2    H1 7435   2.671   2.754  11.036
  500MPD2    H2 7436   3.095   2.744  11.138
  500MPD2    H3 7437   2.866   2.712  11.209
  500MPD2     N 7438   2.699   2.765  10.783
  500MPD2    H5 7439   2.605   2.781  10.817
  500MPD2    N1 7440   3.165   2.827  10.885
  500MPD2    H7 7441   3.171   2.848  10.786
  501TMC3    C1 7442   3.397   2.890  10.896
  501TMC3    C2 7443   3.400   2.930  10.765
  501TMC3    C3 7444   3.528   2.959  10.720
  501TMC3    C4 7445   3.506   2.903  10.977
  501TMC3    C5 7446   3.626   2.953  10.927
  501TMC3    C6 7447   3.646   2.976  10.792
  501TMC3     C 7448   3.265   2.863  10.961
  501TMC3     O 7449   3.270   2.874  11.084
  501TMC3     H 7450   3.313   2.915  10.703
  501TMC3    H1 7451   3.503   2.857  11.076
  501TMC3    H2 7452   3.742   2.995  10.747
  501TMC3    C7 7453   3.741   2.953  11.018
  501TMC3    C8 7454   3.542   2.954  10.575
  501TMC3    O1 7455   3.849   2.918  10.968
  501TMC3    O2 7456   3.470   2.869  10.522
  502TMC3    C1 7457   2.738   1.270  15.234
  502TMC3    C2 7458   2.712   1.391  15.172
  502TMC3    C3 7459   2.601   1.458  15.212
  502TMC3    C4 7460   2.649   1.209  15.318
  502TMC3    C5 7461   2.543   1.289  15.356
  502TMC3    C6 7462   2.507   1.404  15.296
  502TMC3     C 7463   2.878   1.269  15.279
  502TMC3     O 7464   2.974   1.252  15.200
  502TMC3     H 7465   2.788   1.431  15.106
  502TMC3    H1 7466   2.680   1.121  15.373
  502TMC3    H2 7467   2.414   1.454  15.323
  502TMC3    C7 7468   2.475   1.247  15.482
  502TMC3    C8 7469   2.633   1.599  15.234
  502TMC3    O1 7470   2.552   1.180  15.553
  502TMC3    O2 7471   2.708   1.650  15.153
  503MPD2     C 7472   0.425   2.267  17.150
  503MPD2    C1 7473   0.427   2.311  17.284
  503MPD2    C2 7474   0.445   2.216  17.388
  503MPD2    C3 7475   0.468   2.083  17.364
  503MPD2    C4 7476   0.460   2.042  17.233
  503MPD2    C5 7477   0.452   2.134  17.132
  503MPD2     H 7478   0.434   2.251  17.490
  503MPD2    H1 7479   0.467   1.940  17.196
  503MPD2    H2 7480   0.415   2.326  17.059
  503MPD2    H3 7481   0.444   2.087  17.034
  503MPD2     N 7482   0.495   1.996  17.474
  503MPD2    H5 7483   0.521   2.035  17.564
  503MPD2    N1 7484   0.403   2.445  17.316
  503MPD2    H7 7485   0.397   2.469  17.415
  504TMC3    C1 7486   0.603   1.810  17.557
  504TMC3    C2 7487   0.557   1.815  17.685
  504TMC3    C3 7488   0.642   1.764  17.780
  504TMC3    C4 7489   0.722   1.747  17.521
  504TMC3    C5 7490   0.805   1.715  17.620
  504TMC3    C6 7491   0.764   1.718  17.751
  504TMC3     C 7492   0.527   1.864  17.455
  504TMC3     O 7493   0.531   1.797  17.347
  504TMC3     H 7494   0.466   1.866  17.715
  504TMC3    H1 7495   0.746   1.741  17.415
  504TMC3    H2 7496   0.835   1.677  17.822
  504TMC3    C7 7497   0.924   1.652  17.579
  504TMC3    C8 7498   0.576   1.727  17.897
  504TMC3    O1 7499   0.963   1.704  17.476
  504TMC3    O2 7500   0.462   1.691  17.886
  505MPD2     C 7501   0.682   0.655  11.547
  505MPD2    C1 7502   0.736   0.678  11.426
  505MPD2    C2 7503   0.824   0.791  11.412
  505MPD2    C3 7504   0.871   0.854  11.528
  505MPD2    C4 7505   0.808   0.830  11.646
  505MPD2    C5 7506   0.711   0.733  11.653
  505MPD2     H 7507   0.870   0.820  11.318
  505MPD2    H1 7508   0.828   0.880  11.740
  505MPD2    H2 7509   0.615   0.571  11.554
  505MPD2    H3 7510   0.672   0.711  11.751
  505MPD2     N 7511   0.982   0.950  11.529
  505MPD2    H5 7512   1.016   0.979  11.620
  505MPD2    N1 7513   0.703   0.594  11.313
  505MPD2    H7 7514   0.662   0.504  11.334
  506TMC3    C1 7515   0.776   0.485  11.130
  506TMC3    C2 7516   0.811   0.486  10.998
  506TMC3    C3 7517   0.897   0.388  10.948
  506TMC3    C4 7518   0.844   0.396  11.214
  506TMC3    C5 7519   0.928   0.300  11.160
  506TMC3    C6 7520   0.953   0.296  11.028
  506TMC3     C 7521   0.750   0.613  11.189
  506TMC3     O 7522   0.799   0.711  11.137
  506TMC3     H 7523   0.776   0.569  10.937
  506TMC3    H1 7524   0.845   0.399  11.322
  506TMC3    H2 7525   1.031   0.228  10.995
  506TMC3    C7 7526   1.031   0.263  11.257
  506TMC3    C8 7527   0.927   0.375  10.803
  506TMC3    O1 7528   1.016   0.170  11.331
  506TMC3    O2 7529   0.969   0.269  10.760
  507TMC3    C1 7530   1.402   1.765  15.147
  507TMC3    C2 7531   1.370   1.688  15.036
  507TMC3    C3 7532   1.399   1.731  14.911
  507TMC3    C4 7533   1.465   1.881  15.126
  507TMC3    C5 7534   1.511   1.915  15.004
  507TMC3    C6 7535   1.477   1.841  14.892
  507TMC3     C 7536   1.293   1.772  15.247
  507TMC3     O 7537   1.320   1.806  15.364
  507TMC3     H 7538   1.329   1.592  15.063
  507TMC3    H1 7539   1.477   1.944  15.214
  507TMC3    H2 7540   1.513   1.881  14.798
  507TMC3    C7 7541   1.509   2.060  14.976
  507TMC3    C8 7542   1.275   1.750  14.834
  507TMC3    O1 7543   1.464   2.084  14.866
  507TMC3    O2 7544   1.172   1.739  14.898
  508MPD2     C 7545   2.340   3.820  15.735
  508MPD2    C1 7546   2.347   3.927  15.820
  508MPD2    C2 7547   2.373   4.052  15.765
  508MPD2    C3 7548   2.379   4.072  15.634
  508MPD2    C4 7549   2.374   3.963  15.550
  508MPD2    C5 7550   2.357   3.840  15.601
  508MPD2     H 7551   2.376   4.144  15.823
  508MPD2    H1 7552   2.398   3.972  15.444
  508MPD2    H2 7553   2.315   3.722  15.773
  508MPD2    H3 7554   2.357   3.752  15.538
  508MPD2     N 7555   2.392   4.207  15.583
  508MPD2    H5 7556   2.399   4.281  15.652
  508MPD2    N1 7557   2.323   3.919  15.958
  508MPD2    H7 7558   2.315   3.826  15.998
  509TMC3    C1 7559   2.254   4.575  15.471
  509TMC3    C2 7560   2.362   4.638  15.533
  509TMC3    C3 7561   2.475   4.566  15.541
  509TMC3    C4 7562   2.259   4.444  15.419
  509TMC3    C5 7563   2.376   4.378  15.433
  509TMC3    C6 7564   2.485   4.435  15.496
  509TMC3     C 7565   2.121   4.635  15.493
  509TMC3     O 7566   2.024   4.578  15.457
  509TMC3     H 7567   2.356   4.734  15.583
  509TMC3    H1 7568   2.171   4.396  15.378
  509TMC3    H2 7569   2.576   4.378  15.506
  509TMC3    C7 7570   2.352   4.239  15.457
  509TMC3    C8 7571   2.581   4.604  15.632
  509TMC3    O1 7572   2.297   4.165  15.375
  509TMC3    O2 7573   2.655   4.522  15.685
  510MPD2     C 7574   0.007   0.959  14.620
  510MPD2    C1 7575   0.065   0.939  14.745
  510MPD2    C2 7576   0.204   0.943  14.756
  510MPD2    C3 7577   0.280   0.980  14.647
  510MPD2    C4 7578   0.216   1.010  14.529
  510MPD2    C5 7579   0.080   1.000  14.512
  510MPD2     H 7580   0.242   0.926  14.855
  510MPD2    H1 7581   0.264   1.032  14.434
  510MPD2    H2 7582   4.704   0.948  14.624
  510MPD2    H3 7583   0.032   1.025  14.418
  510MPD2     N 7584   0.422   0.980  14.659
  510MPD2    H5 7585   0.463   0.922  14.731
  510MPD2    N1 7586   4.786   0.917  14.855
  510MPD2    H7 7587   4.691   0.884  14.840
  511TMC3    C1 7588   4.701   0.837  15.051
  511TMC3    C2 7589   4.677   0.854  15.181
  511TMC3    C3 7590   4.566   0.791  15.235
  511TMC3    C4 7591   4.640   0.737  14.975
  511TMC3    C5 7592   4.537   0.668  15.036
  511TMC3    C6 7593   4.494   0.690  15.168
  511TMC3     C 7594   0.017   0.895  14.987
  511TMC3     O 7595   0.121   0.911  15.049
  511TMC3     H 7596   4.736   0.920  15.244
  511TMC3    H1 7597   4.686   0.706  14.881
  511TMC3    H2 7598   4.392   0.665  15.196
  511TMC3    C7 7599   4.466   0.566  14.951
  511TMC3    C8 7600   4.528   0.818  15.370
  511TMC3    O1 7601   4.488   0.587  14.832
  511TMC3    O2 7602   4.572   0.922  15.418
  512TMC3    C1 7603   3.623   0.589  13.774
  512TMC3    C2 7604   3.724   0.523  13.830
  512TMC3    C3 7605   3.772   0.405  13.781
  512TMC3    C4 7606   3.568   0.537  13.656
  512TMC3    C5 7607   3.619   0.421  13.597
  512TMC3    C6 7608   3.728   0.361  13.656
  512TMC3     C 7609   3.634   0.731  13.783
  512TMC3     O 7610   3.742   0.778  13.802
  512TMC3     H 7611   3.774   0.564  13.917
  512TMC3    H1 7612   3.494   0.586  13.594
  512TMC3    H2 7613   3.774   0.269  13.622
  512TMC3    C7 7614   3.569   0.383  13.469
  512TMC3    C8 7615   3.889   0.349  13.843
  512TMC3    O1 7616   3.521   0.468  13.397
  512TMC3    O2 7617   3.894   0.230  13.881
  513MPD2     C 7618   0.707   4.534  13.272
  513MPD2    C1 7619   0.841   4.514  13.261
  513MPD2    C2 7620   0.920   4.582  13.351
  513MPD2    C3 7621   0.867   4.688  13.434
  513MPD2    C4 7622   0.730   4.710  13.436
  513MPD2    C5 7623   0.652   4.623  13.364
  513MPD2     H 7624   1.027   4.571  13.364
  513MPD2    H1 7625   0.686   4.777  13.509
  513MPD2    H2 7626   0.638   4.485  13.204
  513MPD2    H3 7627   0.545   4.636  13.368
  513MPD2     N 7628   0.954   4.770  13.505
  513MPD2    H5 7629   1.051   4.753  13.483
  513MPD2    N1 7630   0.899   4.426  13.165
  513MPD2    H7 7631   0.836   4.365  13.113
  514TMC3    C1 7632   1.127   4.516  13.141
  514TMC3    C2 7633   1.093   4.638  13.093
  514TMC3    C3 7634   1.198   4.723  13.051
  514TMC3    C4 7635   1.263   4.472  13.139
  514TMC3    C5 7636   1.357   4.564  13.105
  514TMC3    C6 7637   1.324   4.693  13.070
  514TMC3     C 7638   1.033   4.405  13.132
  514TMC3     O 7639   1.081   4.300  13.088
  514TMC3     H 7640   0.991   4.665  13.068
  514TMC3    H1 7641   1.287   4.373  13.176
  514TMC3    H2 7642   1.405   4.764  13.059
  514TMC3    C7 7643   1.482   4.510  13.069
  514TMC3    C8 7644   1.166   0.056  13.037
  514TMC3    O1 7645   1.467   4.418  12.988
  514TMC3    O2 7646   1.070   0.102  13.097
  515MPD2     C 7647   3.765   1.943  15.156
  515MPD2    C1 7648   3.870   1.940  15.069
  515MPD2    C2 7649   3.973   2.028  15.084
  515MPD2    C3 7650   3.970   2.125  15.182
  515MPD2    C4 7651   3.865   2.116  15.272
  515MPD2    C5 7652   3.768   2.026  15.257
  515MPD2     H 7653   4.048   2.023  15.006
  515MPD2    H1 7654   3.854   2.193  15.347
  515MPD2    H2 7655   3.675   1.882  15.152
  515MPD2    H3 7656   3.681   2.036  15.320
  515MPD2     N 7657   4.059   2.237  15.192
  515MPD2    H5 7658   4.056   2.281  15.283
  515MPD2    N1 7659   3.870   1.851  14.962
  515MPD2    H7 7660   3.940   1.871  14.891
  516TMC3    C1 7661   3.819   1.661  14.831
  516TMC3    C2 7662   3.774   1.721  14.714
  516TMC3    C3 7663   3.713   1.636  14.623
  516TMC3    C4 7664   3.802   1.527  14.856
  516TMC3    C5 7665   3.741   1.447  14.764
  516TMC3    C6 7666   3.684   1.508  14.652
  516TMC3     C 7667   3.791   1.742  14.953
  516TMC3     O 7668   3.714   1.698  15.035
  516TMC3     H 7669   3.781   1.829  14.720
  516TMC3    H1 7670   3.830   1.493  14.955
  516TMC3    H2 7671   3.650   1.439  14.576
  516TMC3    C7 7672   3.688   1.319  14.815
  516TMC3    C8 7673   3.629   1.699  14.528
  516TMC3    O1 7674   3.748   1.256  14.903
  516TMC3    O2 7675   3.520   1.655  14.505
  517MPD2     C 7676   3.279   3.647  17.719
  517MPD2    C1 7677   3.405   3.635  17.777
  517MPD2    C2 7678   3.451   3.735  17.862
  517MPD2    C3 7679   3.368   3.844  17.888
  517MPD2    C4 7680   3.245   3.857  17.825
  517MPD2    C5 7681   3.202   3.758  17.743
  517MPD2     H 7682   3.554   3.721  17.893
  517MPD2    H1 7683   3.190   3.950  17.835
  517MPD2    H2 7684   3.251   3.575  17.644
  517MPD2    H3 7685   3.113   3.774  17.683
  517MPD2     N 7686   3.410   3.946  17.985
  517MPD2    H5 7687   3.344   4.022  18.001
  517MPD2    N1 7688   3.484   3.515  17.761
  517MPD2    H7 7689   3.568   3.513  17.818
  518TMC3    C1 7690   3.566   3.312  17.669
  518TMC3    C2 7691   3.544   3.175  17.662
  518TMC3    C3 7692   3.659   3.096  17.649
  518TMC3    C4 7693   3.696   3.372  17.664
  518TMC3    C5 7694   3.803   3.288  17.650
  518TMC3    C6 7695   3.786   3.151  17.646
  518TMC3     C 7696   3.453   3.397  17.700
  518TMC3     O 7697   3.341   3.357  17.668
  518TMC3     H 7698   3.448   3.129  17.681
  518TMC3    H1 7699   3.716   3.477  17.648
  518TMC3    H2 7700   3.868   3.083  17.625
  518TMC3    C7 7701   3.933   3.344  17.676
  518TMC3    C8 7702   3.651   2.959  17.597
  518TMC3    O1 7703   3.926   3.462  17.708
  518TMC3    O2 7704   3.751   2.888  17.598
  519MPD2     C 7705   0.106   1.999  14.704
  519MPD2    C1 7706   0.120   2.000  14.566
  519MPD2    C2 7707   0.216   1.911  14.509
  519MPD2    C3 7708   0.301   1.835  14.592
  519MPD2    C4 7709   0.290   1.846  14.730
  519MPD2    C5 7710   0.189   1.926  14.780
  519MPD2     H 7711   0.213   1.897  14.401
  519MPD2    H1 7712   0.350   1.787  14.798
  519MPD2    H2 7713   0.042   2.078  14.742
  519MPD2    H3 7714   0.167   1.934  14.886
  519MPD2     N 7715   0.397   1.742  14.542
  519MPD2    H5 7716   0.457   1.696  14.610
  519MPD2    N1 7717   0.035   2.081  14.481
  519MPD2    H7 7718   4.759   2.122  14.526
  520TMC3    C1 7719   0.503   1.609  14.374
  520TMC3    C2 7720   0.483   1.574  14.239
  520TMC3    C3 7721   0.590   1.594  14.159
  520TMC3    C4 7722   0.622   1.658  14.425
  520TMC3    C5 7723   0.724   1.667  14.335
  520TMC3    C6 7724   0.716   1.629  14.203
  520TMC3     C 7725   0.395   1.693  14.414
  520TMC3     O 7726   0.317   1.716  14.322
  520TMC3     H 7727   0.384   1.549  14.202
  520TMC3    H1 7728   0.638   1.676  14.531
  520TMC3    H2 7729   0.798   1.636  14.133
  520TMC3    C7 7730   0.855   1.652  14.391
  520TMC3    C8 7731   0.560   1.615  14.018
  520TMC3    O1 7732   0.861   1.610  14.507
  520TMC3    O2 7733   0.654   1.646  13.950
  521MPD2     C 7734   1.254   0.106  17.384
  521MPD2    C1 7735   1.227   4.804  17.303
  521MPD2    C2 7736   1.329   4.763  17.222
  521MPD2    C3 7737   1.451   0.021  17.214
  521MPD2    C4 7738   1.475   0.135  17.286
  521MPD2    C5 7739   1.373   0.174  17.372
  521MPD2     H 7740   1.320   4.668  17.171
  521MPD2    H1 7741   1.573   0.181  17.294
  521MPD2    H2 7742   1.184   0.138  17.460
  521MPD2    H3 7743   1.402   0.251  17.443
  521MPD2     N 7744   1.553   4.759  17.148
  521MPD2    H5 7745   1.534   4.665  17.114
  521MPD2    N1 7746   1.105   4.740  17.318
  521MPD2    H7 7747   1.037   4.773  17.385
  522TMC3    C1 7748   1.730   4.759  17.002
  522TMC3    C2 7749   1.852   4.704  17.025
  522TMC3    C3 7750   1.882   4.588  16.960
  522TMC3    C4 7751   1.643   4.698  16.921
  522TMC3    C5 7752   1.680   4.585  16.849
  522TMC3    C6 7753   1.798   4.529  16.872
  522TMC3     C 7754   1.670   0.021  17.115
  522TMC3     O 7755   1.707   0.139  17.137
  522TMC3     H 7756   1.916   4.740  17.106
  522TMC3    H1 7757   1.545   4.741  16.906
  522TMC3    H2 7758   1.819   4.426  16.845
  522TMC3    C7 7759   1.572   4.495  16.810
  522TMC3    C8 7760   2.026   4.557  16.956
  522TMC3    O1 7761   1.596   4.377  16.841
  522TMC3    O2 7762   2.094   4.601  17.048
  523MPD2     C 7763   3.774   4.723  10.469
  523MPD2    C1 7764   3.689   4.634  10.412
  523MPD2    C2 7765   3.611   4.675  10.304
  523MPD2    C3 7766   3.604   0.007  10.264
  523MPD2    C4 7767   3.676   0.095  10.334
  523MPD2    C5 7768   3.763   0.051  10.429
  523MPD2     H 7769   3.550   4.612  10.240
  523MPD2    H1 7770   3.693   0.199  10.307
  523MPD2    H2 7771   3.845   4.697  10.546
  523MPD2    H3 7772   3.831   0.122  10.475
  523MPD2     N 7773   3.535   0.060  10.151
  523MPD2    H5 7774   3.531   0.160  10.136
  523MPD2    N1 7775   3.693   4.500  10.461
  523MPD2    H7 7776   3.757   4.486  10.539
  524TMC3    C1 7777   3.394   0.089   9.976
  524TMC3    C2 7778   3.371   0.051   9.850
  524TMC3    C3 7779   3.312   0.139   9.764
  524TMC3    C4 7780   3.379   0.222  10.019
  524TMC3    C5 7781   3.305   0.304   9.939
  524TMC3    C6 7782   3.278   0.266   9.812
  524TMC3     C 7783   3.461   4.798  10.062
  524TMC3     O 7784   3.468   4.680  10.034
  524TMC3     H 7785   3.394   4.754   9.821
  524TMC3    H1 7786   3.365   0.240  10.125
  524TMC3    H2 7787   3.256   0.342   9.737
  524TMC3    C7 7788   3.344   0.446   9.968
  524TMC3    C8 7789   3.235   0.077   9.663
  524TMC3    O1 7790   3.416   0.460  10.067
  524TMC3    O2 7791   3.253   4.763   9.647
  525MPD2     C 7792   1.565   1.294  14.969
  525MPD2    C1 7793   1.687   1.292  15.015
  525MPD2    C2 7794   1.777   1.392  14.975
  525MPD2    C3 7795   1.740   1.484  14.872
  525MPD2    C4 7796   1.610   1.476  14.835
  525MPD2    C5 7797   1.521   1.392  14.891
  525MPD2     H 7798   1.880   1.387  15.008
  525MPD2    H1 7799   1.573   1.542  14.758
  525MPD2    H2 7800   1.495   1.216  14.998
  525MPD2    H3 7801   1.425   1.378  14.841
  525MPD2     N 7802   1.811   1.596  14.836
  525MPD2    H5 7803   1.762   1.667  14.783
  525MPD2    N1 7804   1.732   1.197  15.108
  525MPD2    H7 7805   1.818   1.216  15.158
  526TMC3    C1 7806   1.726   1.024  15.267
  526TMC3    C2 7807   1.646   0.988  15.376
  526TMC3    C3 7808   1.707   0.953  15.493
  526TMC3    C4 7809   1.859   1.022  15.270
  526TMC3    C5 7810   1.914   0.991  15.391
  526TMC3    C6 7811   1.841   0.960  15.500
  526TMC3     C 7812   1.663   1.079  15.148
  526TMC3     O 7813   1.559   1.035  15.109
  526TMC3     H 7814   1.540   0.985  15.357
  526TMC3    H1 7815   1.915   1.032  15.178
  526TMC3    H2 7816   1.884   0.930  15.595
  526TMC3    C7 7817   2.061   0.981  15.401
  526TMC3    C8 7818   1.643   0.978  15.625
  526TMC3    O1 7819   2.104   0.958  15.518
  526TMC3    O2 7820   1.701   0.946  15.725
  527MPD2     C 7821   4.610   4.241  19.558
  527MPD2    C1 7822   4.577   4.281  19.436
  527MPD2    C2 7823   4.662   4.247  19.333
  527MPD2    C3 7824   4.764   4.153  19.358
  527MPD2    C4 7825   4.784   4.109  19.488
  527MPD2    C5 7826   4.723   4.179  19.591
  527MPD2     H 7827   4.648   4.278  19.230
  527MPD2    H1 7828   0.069   4.052  19.513
  527MPD2    H2 7829   4.569   4.283  19.650
  527MPD2    H3 7830   4.734   4.163  19.697
  527MPD2     N 7831   0.042   4.106  19.244
  527MPD2    H5 7832   0.032   4.155  19.156
  527MPD2    N1 7833   4.465   4.356  19.405
  527MPD2    H7 7834   4.460   4.375  19.305
  528TMC3    C1 7835   4.268   4.492  19.414
  528TMC3    C2 7836   4.162   4.539  19.483
  528TMC3    C3 7837   4.060   4.593  19.418
  528TMC3    C4 7838   4.279   4.505  19.278
  528TMC3    C5 7839   4.164   4.548  19.209
  528TMC3    C6 7840   4.054   4.597  19.282
  528TMC3     C 7841   4.370   4.412  19.488
  528TMC3     O 7842   4.352   4.392  19.606
  528TMC3     H 7843   4.153   4.538  19.591
  528TMC3    H1 7844   4.367   4.470  19.225
  528TMC3    H2 7845   3.961   4.624  19.233
  528TMC3    C7 7846   4.175   4.575  19.064
  528TMC3    C8 7847   3.961   4.661  19.504
  528TMC3    O1 7848   4.125   4.678  19.016
  528TMC3    O2 7849   3.898   4.597  19.589
  529MPD2     C 7850   1.937   2.758  18.920
  529MPD2    C1 7851   1.976   2.685  18.809
  529MPD2    C2 7852   1.937   2.729  18.684
  529MPD2    C3 7853   1.854   2.836  18.672
  529MPD2    C4 7854   1.803   2.897  18.788
  529MPD2    C5 7855   1.842   2.856  18.913
  529MPD2     H 7856   1.964   2.678  18.592
  529MPD2    H1 7857   1.742   2.986  18.784
  529MPD2    H2 7858   1.963   2.734  19.022
  529MPD2    H3 7859   1.819   2.907  19.006
  529MPD2     N 7860   1.820   2.891  18.546
  529MPD2    H5 7861   1.758   2.971  18.546
  529MPD2    N1 7862   2.067   2.575  18.818
  529MPD2    H7 7863   2.124   2.556  18.737
  530TMC3    C1 7864   2.171   2.391  18.925
  530TMC3    C2 7865   2.255   2.367  19.029
  530TMC3    C3 7866   2.350   2.269  19.014
  530TMC3    C4 7867   2.184   2.326  18.809
  530TMC3    C5 7868   2.285   2.237  18.795
  530TMC3    C6 7869   2.369   2.210  18.895
  530TMC3     C 7870   2.083   2.503  18.940
  530TMC3     O 7871   2.040   2.524  19.053
  530TMC3     H 7872   2.233   2.408  19.127
  530TMC3    H1 7873   2.107   2.329  18.733
  530TMC3    H2 7874   2.446   2.135  18.879
  530TMC3    C7 7875   2.246   2.112  18.755
  530TMC3    C8 7876   2.345   2.172  19.127
  530TMC3    O1 7877   2.331   2.041  18.706
  530TMC3    O2 7878   2.242   2.161  19.196
  531MPD2     C 7879   1.687   0.101  13.340
  531MPD2    C1 7880   1.573   0.032  13.360
  531MPD2    C2 7881   1.544   4.721  13.289
  531MPD2    C3 7882   1.626   4.690  13.185
  531MPD2    C4 7883   1.748   4.756  13.163
  531MPD2    C5 7884   1.772   0.057  13.249
  531MPD2     H 7885   1.458   4.662  13.320
  531MPD2    H1 7886   1.806   4.744  13.072
  531MPD2    H2 7887   1.709   0.194  13.390
  531MPD2    H3 7888   1.856   0.121  13.223
  531MPD2     N 7889   1.597   4.594  13.090
  531MPD2    H5 7890   1.676   4.589  13.026
  531MPD2    N1 7891   1.487   0.077  13.460
  531MPD2    H7 7892   1.516   0.143  13.532
  532TMC3    C1 7893   1.270   0.111  13.553
  532TMC3    C2 7894   1.137   0.126  13.513
  532TMC3    C3 7895   1.053   0.139  13.618
  532TMC3    C4 7896   1.315   0.107  13.679
  532TMC3    C5 7897   1.219   0.128  13.771
  532TMC3    C6 7898   1.088   0.140  13.748
  532TMC3     C 7899   1.351   0.046  13.449
  532TMC3     O 7900   1.288   4.785  13.368
  532TMC3     H 7901   1.106   0.130  13.409
  532TMC3    H1 7902   1.419   0.086  13.704
  532TMC3    H2 7903   1.024   0.166  13.831
  532TMC3    C7 7904   1.263   0.159  13.904
  532TMC3    C8 7905   0.926   0.073  13.585
  532TMC3    O1 7906   1.209   0.248  13.962
  532TMC3    O2 7907   0.816   0.100  13.634
  533TMC3    C1 7908   1.980   1.753  14.824
  533TMC3    C2 7909   2.104   1.789  14.854
  533TMC3    C3 7910   2.132   1.908  14.915
  533TMC3    C4 7911   1.885   1.848  14.857
  533TMC3    C5 7912   1.917   1.956  14.940
  533TMC3    C6 7913   2.040   1.994  14.966
  533TMC3     C 7914   1.946   1.622  14.862
  533TMC3     O 7915   2.028   1.550  14.912
  533TMC3     H 7916   2.179   1.712  14.843
  533TMC3    H1 7917   1.781   1.832  14.829
  533TMC3    H2 7918   2.069   2.084  15.019
  533TMC3    C7 7919   1.832   1.939  15.056
  533TMC3    C8 7920   2.274   1.950  14.930
  533TMC3    O1 7921   1.790   1.824  15.072
  533TMC3    O2 7922   2.294   2.060  14.985
  534MPD2     C 7923   0.022   2.583  19.186
  534MPD2    C1 7924   4.710   2.651  19.220
  534MPD2    C2 7925   4.587   2.590  19.204
  534MPD2    C3 7926   4.578   2.450  19.184
  534MPD2    C4 7927   4.692   2.379  19.171
  534MPD2    C5 7928   0.004   2.449  19.152
  534MPD2     H 7929   4.498   2.643  19.235
  534MPD2    H1 7930   4.694   2.272  19.155
  534MPD2    H2 7931   0.124   2.619  19.191
  534MPD2    H3 7932   0.095   2.391  19.142
  534MPD2     N 7933   4.451   2.383  19.161
  534MPD2    H5 7934   4.450   2.282  19.153
  534MPD2    N1 7935   4.702   2.780  19.264
  534MPD2    H7 7936   4.613   2.820  19.290
  535TMC3    C1 7937   4.227   2.345  19.136
  535TMC3    C2 7938   4.108   2.357  19.192
  535TMC3    C3 7939   4.000   2.338  19.114
  535TMC3    C4 7940   4.243   2.300  19.006
  535TMC3    C5 7941   4.131   2.286  18.935
  535TMC3    C6 7942   4.013   2.313  18.982
  535TMC3     C 7943   4.330   2.430  19.189
  535TMC3     O 7944   4.300   2.528  19.254
  535TMC3     H 7945   4.113   2.395  19.293
  535TMC3    H1 7946   4.336   2.303  18.950
  535TMC3    H2 7947   3.924   2.313  18.921
  535TMC3    C7 7948   4.153   2.282  18.792
  535TMC3    C8 7949   3.871   2.364  19.168
  535TMC3    O1 7950   4.241   2.210  18.744
  535TMC3    O2 7951   3.779   2.312  19.104
  536MPD2     C 7952   3.507   1.260  16.606
  536MPD2    C1 7953   3.398   1.176  16.589
  536MPD2    C2 7954   3.293   1.201  16.495
  536MPD2    C3 7955   3.314   1.320  16.422
  536MPD2    C4 7956   3.433   1.395  16.432
  536MPD2    C5 7957   3.524   1.370  16.525
  536MPD2     H 7958   3.199   1.148  16.483
  536MPD2    H1 7959   3.453   1.481  16.369
  536MPD2    H2 7960   3.580   1.234  16.681
  536MPD2    H3 7961   3.615   1.427  16.539
  536MPD2     N 7962   3.220   1.368  16.326
  536MPD2    H5 7963   3.243   1.455  16.280
  536MPD2    N1 7964   3.375   1.077  16.683
  536MPD2    H7 7965   3.446   1.069  16.756
  537TMC3    C1 7966   3.263   0.911  16.806
  537TMC3    C2 7967   3.270   0.978  16.927
  537TMC3    C3 7968   3.268   0.897  17.043
  537TMC3    C4 7969   3.219   0.783  16.795
  537TMC3    C5 7970   3.227   0.704  16.905
  537TMC3    C6 7971   3.250   0.759  17.027
  537TMC3     C 7972   3.280   0.982  16.679
  537TMC3     O 7973   3.190   0.958  16.600
  537TMC3     H 7974   3.274   1.086  16.927
  537TMC3    H1 7975   3.179   0.745  16.702
  537TMC3    H2 7976   3.286   0.701  17.112
  537TMC3    C7 7977   3.174   0.573  16.880
  537TMC3    C8 7978   3.315   0.962  17.166
  537TMC3    O1 7979   3.167   0.527  16.768
  537TMC3    O2 7980   3.377   0.889  17.237
  538TMC3    C1 7981   4.305   4.095  11.294
  538TMC3    C2 7982   4.413   4.028  11.243
  538TMC3    C3 7983   4.442   4.055  11.114
  538TMC3    C4 7984   4.222   4.166  11.219
  538TMC3    C5 7985   4.260   4.192  11.087
  538TMC3    C6 7986   4.372   4.142  11.029
  538TMC3     C 7987   4.275   4.091  11.434
  538TMC3     O 7988   4.165   4.127  11.462
  538TMC3     H 7989   4.456   3.939  11.289
  538TMC3    H1 7990   4.138   4.223  11.257
  538TMC3    H2 7991   4.386   4.159  10.923
  538TMC3    C7 7992   4.191   4.300  11.022
  538TMC3    C8 7993   4.550   3.985  11.054
  538TMC3    O1 7994   4.085   4.325  11.075
  538TMC3    O2 7995   4.569   3.867  11.084
  539MPD2     C 7996   3.921   3.652  12.206
  539MPD2    C1 7997   3.950   3.652  12.068
  539MPD2    C2 7998   3.926   3.760  11.988
  539MPD2    C3 7999   3.886   3.874  12.046
  539MPD2    C4 8000   3.863   3.883  12.184
  539MPD2    C5 8001   3.879   3.768  12.264
  539MPD2     H 8002   3.945   3.750  11.882
  539MPD2    H1 8003   3.822   3.975  12.226
  539MPD2    H2 8004   3.935   3.572  12.277
  539MPD2    H3 8005   3.864   3.778  12.371
  539MPD2     N 8006   3.882   3.998  11.966
  539MPD2    H5 8007   3.862   4.081  12.020
  539MPD2    N1 8008   4.009   3.541  12.005
  539MPD2    H7 8009   4.036   3.558  11.909
  540TMC3    C1 8010   3.923   4.157  11.793
  540TMC3    C2 8011   3.939   4.181  11.660
  540TMC3    C3 8012   3.924   4.312  11.617
  540TMC3    C4 8013   3.882   4.259  11.871
  540TMC3    C5 8014   3.845   4.384  11.817
  540TMC3    C6 8015   3.864   4.411  11.683
  540TMC3     C 8016   3.926   4.020  11.842
  540TMC3     O 8017   3.959   3.937  11.759
  540TMC3     H 8018   3.958   4.104  11.587
  540TMC3    H1 8019   3.876   4.255  11.979
  540TMC3    H2 8020   3.834   4.504  11.637
  540TMC3    C7 8021   3.756   4.468  11.892
  540TMC3    C8 8022   3.892   4.327  11.485
  540TMC3    O1 8023   3.664   4.406  11.949
  540TMC3    O2 8024   3.963   4.406  11.425
  541MPD2     C 8025   2.978   0.471  13.639
  541MPD2    C1 8026   2.843   0.446  13.635
  541MPD2    C2 8027   2.771   0.487  13.524
  541MPD2    C3 8028   2.838   0.554  13.423
  541MPD2    C4 8029   2.968   0.588  13.433
  541MPD2    C5 8030   3.042   0.542  13.541
  541MPD2     H 8031   2.666   0.471  13.507
  541MPD2    H1 8032   3.001   0.656  13.355
  541MPD2    H2 8033   3.031   0.433  13.726
  541MPD2    H3 8034   3.150   0.545  13.550
  541MPD2     N 8035   2.780   0.582  13.299
  541MPD2    H5 8036   2.820   0.662  13.252
  541MPD2    N1 8037   2.782   0.363  13.728
  541MPD2    H7 8038   2.841   0.291  13.767
  542TMC3    C1 8039   2.613   0.584  13.134
  542TMC3    C2 8040   2.553   0.507  13.040
  542TMC3    C3 8041   2.500   0.570  12.927
  542TMC3    C4 8042   2.610   0.720  13.135
  542TMC3    C5 8043   2.552   0.780  13.025
  542TMC3    C6 8044   2.506   0.704  12.917
  542TMC3     C 8045   2.664   0.524  13.255
  542TMC3     O 8046   2.611   0.418  13.295
  542TMC3     H 8047   2.554   0.398  13.048
  542TMC3    H1 8048   2.651   0.779  13.217
  542TMC3    H2 8049   2.459   0.753  12.832
  542TMC3    C7 8050   2.535   0.927  13.030
  542TMC3    C8 8051   2.553   0.503  12.805
  542TMC3    O1 8052   2.504   0.981  13.136
  542TMC3    O2 8053   2.642   0.566  12.746
  543TMC3    C1 8054   2.039   1.750  17.845
  543TMC3    C2 8055   2.079   1.626  17.889
  543TMC3    C3 8056   2.018   1.565  17.990
  543TMC3    C4 8057   1.948   1.831  17.910
  543TMC3    C5 8058   1.900   1.771  18.027
  543TMC3    C6 8059   1.931   1.641  18.058
  543TMC3     C 8060   2.074   1.775  17.711
  543TMC3     O 8061   2.105   1.680  17.642
  543TMC3     H 8062   2.162   1.574  17.843
  543TMC3    H1 8063   1.906   1.926  17.879
  543TMC3    H2 8064   1.891   1.591  18.145
  543TMC3    C7 8065   1.811   1.848  18.111
  543TMC3    C8 8066   2.000   1.424  17.972
  543TMC3    O1 8067   1.741   1.790  18.194
  543TMC3    O2 8068   2.071   1.369  17.891
  544MPD2     C 8069   1.740   0.987  18.057
  544MPD2    C1 8070   1.827   1.022  17.960
  544MPD2    C2 8071   1.892   1.145  17.957
  544MPD2    C3 8072   1.856   1.236  18.055
  544MPD2    C4 8073   1.763   1.207  18.157
  544MPD2    C5 8074   1.714   1.078  18.160
  544MPD2     H 8075   1.964   1.173  17.881
  544MPD2    H1 8076   1.735   1.279  18.233
  544MPD2    H2 8077   1.680   0.897  18.051
  544MPD2    H3 8078   1.637   1.054  18.232
  544MPD2     N 8079   1.901   1.374  18.053
  544MPD2    H5 8080   1.844   1.433  18.114
  544MPD2    N1 8081   1.845   0.925  17.865
  544MPD2    H7 8082   1.798   0.837  17.887
  545TMC3    C1 8083   1.884   0.835  17.644
  545TMC3    C2 8084   1.969   0.837  17.534
  545TMC3    C3 8085   1.976   0.720  17.457
  545TMC3    C4 8086   1.799   0.726  17.672
  545TMC3    C5 8087   1.799   0.623  17.582
  545TMC3    C6 8088   1.884   0.617  17.477
  545TMC3     C 8089   1.909   0.942  17.742
  545TMC3     O 8090   1.985   1.033  17.707
  545TMC3     H 8091   2.026   0.927  17.514
  545TMC3    H1 8092   1.731   0.728  17.756
  545TMC3    H2 8093   1.879   0.535  17.406
  545TMC3    C7 8094   1.730   0.507  17.621
  545TMC3    C8 8095   2.046   0.709  17.332
  545TMC3    O1 8096   1.633   0.525  17.693
  545TMC3    O2 8097   2.061   0.597  17.279
  546MPD2     C 8098   3.548   1.492  17.819
  546MPD2    C1 8099   3.445   1.548  17.750
  546MPD2    C2 8100   3.469   1.659  17.671
  546MPD2    C3 8101   3.595   1.718  17.675
  546MPD2    C4 8102   3.700   1.652  17.738
  546MPD2    C5 8103   3.675   1.546  17.815
  546MPD2     H 8104   3.385   1.707  17.623
  546MPD2    H1 8105   3.798   1.699  17.730
  546MPD2    H2 8106   3.539   1.401  17.878
  546MPD2    H3 8107   3.752   1.506  17.880
  546MPD2     N 8108   3.634   1.826  17.591
  546MPD2    H5 8109   3.720   1.872  17.617
  546MPD2    N1 8110   3.322   1.472  17.745
  546MPD2    H7 8111   3.325   1.391  17.806
  547TMC3    C1 8112   3.114   1.389  17.668
  547TMC3    C2 8113   3.029   1.397  17.560
  547TMC3    C3 8114   2.952   1.283  17.544
  547TMC3    C4 8115   3.130   1.283  17.757
  547TMC3    C5 8116   3.053   1.176  17.730
  547TMC3    C6 8117   2.963   1.170  17.622
  547TMC3     C 8118   3.204   1.503  17.680
  547TMC3     O 8119   3.171   1.596  17.617
  547TMC3     H 8120   3.026   1.478  17.487
  547TMC3    H1 8121   3.177   1.286  17.854
  547TMC3    H2 8122   2.888   1.092  17.621
  547TMC3    C7 8123   3.044   1.077  17.833
  547TMC3    C8 8124   2.854   1.299  17.437
  547TMC3    O1 8125   3.050   1.117  17.948
  547TMC3    O2 8126   2.858   1.405  17.375
  548MPD2     C 8127   3.047   2.490  12.801
  548MPD2    C1 8128   3.025   2.390  12.897
  548MPD2    C2 8129   3.115   2.284  12.890
  548MPD2    C3 8130   3.212   2.269  12.788
  548MPD2    C4 8131   3.226   2.369  12.697
  548MPD2    C5 8132   3.150   2.487  12.708
  548MPD2     H 8133   3.110   2.215  12.973
  548MPD2    H1 8134   3.307   2.380  12.627
  548MPD2    H2 8135   2.983   2.577  12.788
  548MPD2    H3 8136   3.171   2.560  12.631
  548MPD2     N 8137   3.287   2.148  12.790
  548MPD2    H5 8138   3.264   2.088  12.869
  548MPD2    N1 8139   2.914   2.399  12.988
  548MPD2    H7 8140   2.853   2.476  12.963
  549TMC3    C1 8141   2.740   2.298  13.123
  549TMC3    C2 8142   2.653   2.372  13.057
  549TMC3    C3 8143   2.525   2.373  13.099
  549TMC3    C4 8144   2.701   2.206  13.216
  549TMC3    C5 8145   2.566   2.198  13.240
  549TMC3    C6 8146   2.472   2.282  13.188
  549TMC3     C 8147   2.883   2.309  13.086
  549TMC3     O 8148   2.955   2.222  13.135
  549TMC3     H 8149   2.682   2.438  12.977
  549TMC3    H1 8150   2.771   2.137  13.262
  549TMC3    H2 8151   2.365   2.268  13.199
  549TMC3    C7 8152   2.519   2.065  13.263
  549TMC3    C8 8153   2.430   2.453  13.019
  549TMC3    O1 8154   2.416   2.056  13.324
  549TMC3    O2 8155   2.317   2.413  12.999
  550TMC3    C1 8156   2.102   0.634  12.711
  550TMC3    C2 8157   2.050   0.595  12.830
  550TMC3    C3 8158   1.937   0.665  12.870
  550TMC3    C4 8159   2.049   0.732  12.635
  550TMC3    C5 8160   1.937   0.797  12.685
  550TMC3    C6 8161   1.879   0.760  12.800
  550TMC3     C 8162   2.158   0.520  12.634
  550TMC3     O 8163   2.221   0.434  12.691
  550TMC3     H 8164   2.092   0.519  12.895
  550TMC3    H1 8165   2.104   0.776  12.552
  550TMC3    H2 8166   1.785   0.804  12.830
  550TMC3    C7 8167   1.827   0.783  12.587
  550TMC3    C8 8168   1.876   0.649  13.004
  550TMC3    O1 8169   1.738   0.702  12.617
  550TMC3    O2 8170   1.846   0.750  13.065
  551TMC3    C1 8171   4.392   2.761  13.552
  551TMC3    C2 8172   4.505   2.756  13.475
  551TMC3    C3 8173   4.613   2.824  13.520
  551TMC3    C4 8174   4.385   2.834  13.666
  551TMC3    C5 8175   4.485   2.915  13.695
  551TMC3    C6 8176   4.600   2.907  13.629
  551TMC3     C 8177   4.273   2.757  13.466
  551TMC3     O 8178   4.265   2.661  13.390
  551TMC3     H 8179   4.516   2.705  13.380
  551TMC3    H1 8180   4.293   2.835  13.723
  551TMC3    H2 8181   4.684   2.960  13.673
  551TMC3    C7 8182   4.498   2.956  13.838
  551TMC3    C8 8183   4.722   2.834  13.430
  551TMC3    O1 8184   4.427   2.885  13.915
  551TMC3    O2 8185   4.747   2.729  13.373
  552MPD2     C 8186   1.246   0.053  14.262
  552MPD2    C1 8187   1.234   4.728  14.300
  552MPD2    C2 8188   1.301   4.676  14.405
  552MPD2    C3 8189   1.401   4.756  14.457
  552MPD2    C4 8190   1.428   0.076  14.398
  552MPD2    C5 8191   1.345   0.130  14.309
  552MPD2     H 8192   1.288   4.573  14.435
  552MPD2    H1 8193   1.516   0.131  14.429
  552MPD2    H2 8194   1.189   0.091  14.178
  552MPD2    H3 8195   1.373   0.224  14.263
  552MPD2     N 8196   1.473   4.726  14.574
  552MPD2    H5 8197   1.552   4.785  14.600
  552MPD2    N1 8198   1.147   4.642  14.230
  552MPD2    H7 8199   1.155   4.541  14.244
  553TMC3    C1 8200   0.986   4.556  14.063
  553TMC3    C2 8201   0.984   4.578  13.927
  553TMC3    C3 8202   1.013   4.475  13.837
  553TMC3    C4 8203   1.033   4.433  14.102
  553TMC3    C5 8204   1.052   4.329  14.011
  553TMC3    C6 8205   1.043   4.352  13.876
  553TMC3     C 8206   1.047   4.674  14.136
  553TMC3     O 8207   1.002   4.783  14.101
  553TMC3     H 8208   0.954   4.677  13.896
  553TMC3    H1 8209   1.042   4.410  14.207
  553TMC3    H2 8210   1.093   4.284  13.807
  553TMC3    C7 8211   1.121   4.212  14.058
  553TMC3    C8 8212   1.108   4.520  13.737
  553TMC3    O1 8213   1.070   4.108  14.026
  553TMC3    O2 8214   1.182   4.601  13.792
  554TMC3    C1 8215   2.986   4.187  11.801
  554TMC3    C2 8216   2.898   4.144  11.706
  554TMC3    C3 8217   2.946   4.069  11.606
  554TMC3    C4 8218   3.115   4.180  11.783
  554TMC3    C5 8219   3.167   4.113  11.676
  554TMC3    C6 8220   3.079   4.056  11.587
  554TMC3     C 8221   2.946   4.168  11.939
  554TMC3     O 8222   2.840   4.211  11.979
  554TMC3     H 8223   2.795   4.166  11.732
  554TMC3    H1 8224   3.178   4.228  11.857
  554TMC3    H2 8225   3.112   4.025  11.488
  554TMC3    C7 8226   3.288   4.169  11.619
  554TMC3    C8 8227   2.865   4.079  11.484
  554TMC3    O1 8228   3.319   4.110  11.518
  554TMC3    O2 8229   2.923   4.121  11.380
  555TMC3    C1 8230   2.053   3.235  15.065
  555TMC3    C2 8231   2.027   3.343  15.143
  555TMC3    C3 8232   2.064   3.325  15.272
  555TMC3    C4 8233   2.107   3.116  15.113
  555TMC3    C5 8234   2.130   3.104  15.246
  555TMC3    C6 8235   2.110   3.208  15.337
  555TMC3     C 8236   2.045   3.245  14.926
  555TMC3     O 8237   2.119   3.169  14.865
  555TMC3     H 8238   1.995   3.437  15.101
  555TMC3    H1 8239   2.121   3.026  15.053
  555TMC3    H2 8240   2.108   3.190  15.444
  555TMC3    C7 8241   2.177   2.978  15.304
  555TMC3    C8 8242   2.055   3.442  15.359
  555TMC3    O1 8243   2.153   2.866  15.261
  555TMC3    O2 8244   1.969   3.526  15.339
  556MPD2     C 8245   0.459   0.326  11.131
  556MPD2    C1 8246   0.453   0.201  11.186
  556MPD2    C2 8247   0.410   0.101  11.103
  556MPD2    C3 8248   0.400   0.116  10.968
  556MPD2    C4 8249   0.396   0.245  10.917
  556MPD2    C5 8250   0.435   0.346  11.000
  556MPD2     H 8251   0.405   0.003  11.149
  556MPD2    H1 8252   0.376   0.272  10.814
  556MPD2    H2 8253   0.471   0.418  11.187
  556MPD2    H3 8254   0.442   0.448  10.963
  556MPD2     N 8255   0.382   0.000  10.889
  556MPD2    H5 8256   0.396   4.713  10.930
  556MPD2    N1 8257   0.468   0.175  11.323
  556MPD2    H7 8258   0.445   0.082  11.356
  557TMC3    C1 8259   0.343   4.672  10.700
  557TMC3    C2 8260   0.379   4.658  10.572
  557TMC3    C3 8261   0.340   4.541  10.510
  557TMC3    C4 8262   0.273   4.580  10.771
  557TMC3    C5 8263   0.235   4.467  10.705
  557TMC3    C6 8264   0.260   4.450  10.574
  557TMC3     C 8265   0.369   4.804  10.751
  557TMC3     O 8266   0.355   0.087  10.672
  557TMC3     H 8267   0.439   4.731  10.520
  557TMC3    H1 8268   0.253   4.593  10.877
  557TMC3    H2 8269   0.196   4.383  10.518
  557TMC3    C7 8270   0.175   4.357  10.782
  557TMC3    C8 8271   0.337   4.543  10.366
  557TMC3    O1 8272   0.140   4.391  10.892
  557TMC3    O2 8273   0.350   4.654  10.308
  558TMC3    C1 8274   2.582   2.790  10.584
  558TMC3    C2 8275   2.465   2.749  10.647
  558TMC3    C3 8276   2.348   2.766  10.579
  558TMC3    C4 8277   2.582   2.852  10.460
  558TMC3    C5 8278   2.460   2.876  10.405
  558TMC3    C6 8279   2.340   2.832  10.461
  558TMC3     C 8280   2.713   2.784  10.649
  558TMC3     O 8281   2.815   2.772  10.578
  558TMC3     H 8282   2.468   2.681  10.732
  558TMC3    H1 8283   2.677   2.878  10.413
  558TMC3    H2 8284   2.246   2.877  10.431
  558TMC3    C7 8285   2.452   2.987  10.312
  558TMC3    C8 8286   2.222   2.756  10.650
  558TMC3    O1 8287   2.557   3.054  10.307
  558TMC3    O2 8288   2.108   2.760  10.601
  559MPD2     C 8289   2.725   3.857  11.022
  559MPD2    C1 8290   2.626   3.808  11.109
  559MPD2    C2 8291   2.664   3.769  11.236
  559MPD2    C3 8292   2.801   3.779  11.265
  559MPD2    C4 8293   2.893   3.841  11.184
  559MPD2    C5 8294   2.855   3.880  11.062
  559MPD2     H 8295   2.591   3.739  11.310
  559MPD2    H1 8296   2.997   3.853  11.213
  559MPD2    H2 8297   2.707   3.886  10.919
  559MPD2    H3 8298   2.921   3.922  10.986
  559MPD2     N 8299   2.840   3.722  11.389
  559MPD2    H5 8300   2.765   3.687  11.448
  559MPD2    N1 8301   2.491   3.807  11.064
  559MPD2    H7 8302   2.481   3.846  10.970
  560TMC3    C1 8303   2.968   3.627  11.564
  560TMC3    C2 8304   2.862   3.539  11.587
  560TMC3    C3 8305   2.881   3.438  11.673
  560TMC3    C4 8306   3.094   3.611  11.626
  560TMC3    C5 8307   3.105   3.499  11.709
  560TMC3    C6 8308   3.002   3.414  11.731
  560TMC3     C 8309   2.969   3.720  11.446
  560TMC3     O 8310   3.068   3.785  11.420
  560TMC3     H 8311   2.767   3.541  11.535
  560TMC3    H1 8312   3.168   3.689  11.613
  560TMC3    H2 8313   3.023   3.327  11.793
  560TMC3    C7 8314   3.236   3.452  11.758
  560TMC3    C8 8315   2.809   3.324  11.628
  560TMC3    O1 8316   3.233   3.362  11.841
  560TMC3    O2 8317   2.693   3.330  11.594
  561TMC3    C1 8318   0.884   2.626  11.245
  561TMC3    C2 8319   0.801   2.517  11.277
  561TMC3    C3 8320   0.708   2.545  11.366
  561TMC3    C4 8321   0.868   2.751  11.291
  561TMC3    C5 8322   0.765   2.770  11.378
  561TMC3    C6 8323   0.691   2.665  11.429
  561TMC3     C 8324   1.002   2.586  11.172
  561TMC3     O 8325   0.994   2.487  11.097
  561TMC3     H 8326   0.812   2.416  11.240
  561TMC3    H1 8327   0.932   2.829  11.252
  561TMC3    H2 8328   0.607   2.677  11.496
  561TMC3    C7 8329   0.732   2.899  11.434
  561TMC3    C8 8330   0.670   2.432  11.449
  561TMC3    O1 8331   0.693   2.895  11.550
  561TMC3    O2 8332   0.720   2.327  11.417
  562TMC3    C1 8333   2.115   3.887  16.723
  562TMC3    C2 8334   2.056   4.006  16.695
  562TMC3    C3 8335   1.950   4.005  16.609
  562TMC3    C4 8336   2.066   3.767  16.671
  562TMC3    C5 8337   1.947   3.769  16.601
  562TMC3    C6 8338   1.888   3.887  16.566
  562TMC3     C 8339   2.240   3.871  16.799
  562TMC3     O 8340   2.326   3.784  16.769
  562TMC3     H 8341   2.086   4.097  16.745
  562TMC3    H1 8342   2.118   3.679  16.705
  562TMC3    H2 8343   1.806   3.881  16.495
  562TMC3    C7 8344   1.893   3.648  16.543
  562TMC3    C8 8345   1.891   4.136  16.590
  562TMC3    O1 8346   1.816   3.662  16.451
  562TMC3    O2 8347   1.863   4.199  16.690
  563MPD2     C 8348   4.179   0.155  15.713
  563MPD2    C1 8349   4.216   0.186  15.842
  563MPD2    C2 8350   4.335   0.138  15.894
  563MPD2    C3 8351   4.407   0.043  15.822
  563MPD2    C4 8352   4.366   0.010  15.696
  563MPD2    C5 8353   4.254   0.063  15.642
  563MPD2     H 8354   4.368   0.163  15.994
  563MPD2    H1 8355   4.414   4.735  15.639
  563MPD2    H2 8356   4.076   0.167  15.682
  563MPD2    H3 8357   4.212   0.024  15.550
  563MPD2     N 8358   4.520   4.798  15.884
  563MPD2    H5 8359   4.522   0.020  15.982
  563MPD2    N1 8360   4.120   0.256  15.924
  563MPD2    H7 8361   4.026   0.271  15.888
  564TMC3    C1 8362   4.102   0.291  16.145
  564TMC3    C2 8363   3.986   0.223  16.144
  564TMC3    C3 8364   3.971   0.129  16.243
  564TMC3    C4 8365   4.194   0.278  16.245
  564TMC3    C5 8366   4.172   0.178  16.336
  564TMC3    C6 8367   4.053   0.112  16.349
  564TMC3     C 8368   4.159   0.345  16.019
  564TMC3     O 8369   4.270   0.395  16.029
  564TMC3     H 8370   3.912   0.237  16.066
  564TMC3    H1 8371   4.288   0.329  16.228
  564TMC3    H2 8372   4.049   0.022  16.409
  564TMC3    C7 8373   4.280   0.080  16.348
  564TMC3    C8 8374   3.930   4.803  16.196
  564TMC3    O1 8375   4.360   0.088  16.438
  564TMC3    O2 8376   3.886   4.714  16.273
  565TMC3    C1 8377   0.238   1.840  10.650
  565TMC3    C2 8378   0.251   1.748  10.755
  565TMC3    C3 8379   0.155   1.650  10.754
  565TMC3    C4 8380   0.139   1.841  10.554
  565TMC3    C5 8381   0.050   1.738  10.560
  565TMC3    C6 8382   0.058   1.640  10.657
  565TMC3     C 8383   0.312   1.959  10.651
  565TMC3     O 8384   0.315   2.020  10.546
  565TMC3     H 8385   0.319   1.748  10.839
  565TMC3    H1 8386   0.125   1.912  10.473
  565TMC3    H2 8387   4.787   1.563  10.668
  565TMC3    C7 8388   4.766   1.707  10.447
  565TMC3    C8 8389   0.173   1.536  10.851
  565TMC3    O1 8390   4.797   1.759  10.346
  565TMC3    O2 8391   0.227   1.560  10.959
  566MPD2     C 8392   1.804   3.021  14.720
  566MPD2    C1 8393   1.803   2.924  14.619
  566MPD2    C2 8394   1.685   2.877  14.578
  566MPD2    C3 8395   1.567   2.926  14.635
  566MPD2    C4 8396   1.566   3.011  14.739
  566MPD2    C5 8397   1.688   3.063  14.771
  566MPD2     H 8398   1.684   2.795  14.507
  566MPD2    H1 8399   1.475   3.056  14.777
  566MPD2    H2 8400   1.895   3.065  14.759
  566MPD2    H3 8401   1.674   3.136  14.850
  566MPD2     N 8402   1.440   2.870  14.590
  566MPD2    H5 8403   1.368   2.874  14.662
  566MPD2    N1 8404   1.920   2.882  14.561
  566MPD2    H7 8405   2.008   2.931  14.577
  567TMC3    C1 8406   2.032   2.761  14.385
  567TMC3    C2 8407   2.091   2.876  14.347
  567TMC3    C3 8408   2.221   2.879  14.318
  567TMC3    C4 8409   2.123   2.656  14.403
  567TMC3    C5 8410   2.258   2.661  14.391
  567TMC3    C6 8411   2.308   2.777  14.347
  567TMC3     C 8412   1.923   2.775  14.474
  567TMC3     O 8413   1.869   2.668  14.492
  567TMC3     H 8414   2.025   2.960  14.331
  567TMC3    H1 8415   2.081   2.558  14.421
  567TMC3    H2 8416   2.413   2.801  14.334
  567TMC3    C7 8417   2.327   2.629  14.509
  567TMC3    C8 8418   2.282   2.989  14.244
  567TMC3    O1 8419   2.440   2.669  14.518
  567TMC3    O2 8420   2.366   2.963  14.158
  568MPD2     C 8421   3.889   3.333  16.391
  568MPD2    C1 8422   3.945   3.420  16.483
  568MPD2    C2 8423   3.951   3.553  16.454
  568MPD2    C3 8424   3.905   3.610  16.347
  568MPD2    C4 8425   3.833   3.530  16.257
  568MPD2    C5 8426   3.825   3.391  16.285
  568MPD2     H 8427   3.998   3.610  16.533
  568MPD2    H1 8428   3.781   3.568  16.170
  568MPD2    H2 8429   3.879   3.227  16.413
  568MPD2    H3 8430   3.777   3.333  16.207
  568MPD2     N 8431   3.942   3.747  16.331
  568MPD2    H5 8432   4.013   3.787  16.391
  568MPD2    N1 8433   4.010   3.364  16.594
  568MPD2    H7 8434   4.034   3.266  16.592
  569TMC3    C1 8435   3.949   3.956  16.229
  569TMC3    C2 8436   3.966   4.010  16.354
  569TMC3    C3 8437   4.059   4.113  16.368
  569TMC3    C4 8438   4.021   3.994  16.118
  569TMC3    C5 8439   4.102   4.099  16.134
  569TMC3    C6 8440   4.111   4.168  16.254
  569TMC3     C 8441   3.900   3.821  16.226
  569TMC3     O 8442   3.835   3.791  16.129
  569TMC3     H 8443   3.898   3.977  16.433
  569TMC3    H1 8444   4.022   3.930  16.031
  569TMC3    H2 8445   4.174   4.255  16.270
  569TMC3    C7 8446   4.106   4.184  16.019
  569TMC3    C8 8447   4.020   4.224  16.453
  569TMC3    O1 8448   4.126   4.135  15.908
  569TMC3    O2 8449   3.901   4.227  16.490
  570TMC3    C1 8450   3.441   2.394  16.309
  570TMC3    C2 8451   3.560   2.357  16.256
  570TMC3    C3 8452   3.646   2.456  16.227
  570TMC3    C4 8453   3.402   2.527  16.310
  570TMC3    C5 8454   3.475   2.620  16.249
  570TMC3    C6 8455   3.606   2.587  16.224
  570TMC3     C 8456   3.398   2.312  16.427
  570TMC3     O 8457   3.440   2.197  16.434
  570TMC3     H 8458   3.594   2.255  16.250
  570TMC3    H1 8459   3.312   2.558  16.362
  570TMC3    H2 8460   3.676   2.661  16.186
  570TMC3    C7 8461   3.451   2.755  16.276
  570TMC3    C8 8462   3.789   2.438  16.200
  570TMC3    O1 8463   3.548   2.828  16.300
  570TMC3    O2 8464   3.863   2.521  16.251
  571MPD2     C 8465   1.364   4.344  17.740
  571MPD2    C1 8466   1.271   4.405  17.823
  571MPD2    C2 8467   1.310   4.512  17.904
  571MPD2    C3 8468   1.441   4.547  17.919
  571MPD2    C4 8469   1.536   4.480  17.847
  571MPD2    C5 8470   1.497   4.374  17.763
  571MPD2     H 8471   1.230   4.573  17.944
  571MPD2    H1 8472   1.644   4.487  17.859
  571MPD2    H2 8473   1.344   4.264  17.669
  571MPD2    H3 8474   1.569   4.320  17.703
  571MPD2     N 8475   1.476   4.645  18.010
  571MPD2    H5 8476   1.576   4.648  18.025
  571MPD2    N1 8477   1.137   4.355  17.822
  571MPD2    H7 8478   1.125   4.283  17.751
  572TMC3    C1 8479   1.459   0.040  18.144
  572TMC3    C2 8480   1.558   0.010  18.237
  572TMC3    C3 8481   1.585   0.090  18.348
  572TMC3    C4 8482   1.384   0.152  18.171
  572TMC3    C5 8483   1.409   0.228  18.279
  572TMC3    C6 8484   1.505   0.197  18.370
  572TMC3     C 8485   1.395   4.748  18.055
  572TMC3     O 8486   1.279   4.772  18.018
  572TMC3     H 8487   1.613   4.722  18.238
  572TMC3    H1 8488   1.308   0.186  18.101
  572TMC3    H2 8489   1.526   0.270  18.447
  572TMC3    C7 8490   1.343   0.365  18.286
  572TMC3    C8 8491   1.699   0.061  18.434
  572TMC3    O1 8492   1.229   0.367  18.238
  572TMC3    O2 8493   1.799   0.012  18.381
  573MPD2     C 8494   2.204   4.492  18.482
  573MPD2    C1 8495   2.304   4.568  18.430
  573MPD2    C2 8496   2.327   4.568  18.294
  573MPD2    C3 8497   2.247   4.480  18.215
  573MPD2    C4 8498   2.161   4.388  18.280
  573MPD2    C5 8499   2.146   4.392  18.413
  573MPD2     H 8500   2.392   4.642  18.249
  573MPD2    H1 8501   2.113   4.303  18.232
  573MPD2    H2 8502   2.178   4.484  18.587
  573MPD2    H3 8503   2.084   4.320  18.465
  573MPD2     N 8504   2.256   4.467  18.076
  573MPD2    H5 8505   2.202   4.389  18.041
  573MPD2    N1 8506   2.354   4.668  18.517
  573MPD2    H7 8507   2.309   4.685  18.606
  574TMC3    C1 8508   2.271   4.545  17.857
  574TMC3    C2 8509   2.133   4.543  17.838
  574TMC3    C3 8510   2.078   4.578  17.716
  574TMC3    C4 8511   2.351   4.597  17.757
  574TMC3    C5 8512   2.292   4.618  17.635
  574TMC3    C6 8513   2.160   4.602  17.610
  574TMC3     C 8514   2.312   4.561  17.992
  574TMC3     O 8515   2.388   4.652  18.024
  574TMC3     H 8516   2.064   4.537  17.921
  574TMC3    H1 8517   2.459   4.593  17.756
  574TMC3    H2 8518   2.129   4.648  17.516
  574TMC3    C7 8519   2.360   4.693  17.535
  574TMC3    C8 8520   1.939   4.626  17.724
  574TMC3    O1 8521   2.320   4.688  17.419
  574TMC3    O2 8522   1.863   4.578  17.811
  575TMC3    C1 8523   0.562   1.136  11.523
  575TMC3    C2 8524   0.515   1.019  11.571
  575TMC3    C3 8525   0.425   0.947  11.504
  575TMC3    C4 8526   0.511   1.187  11.404
  575TMC3    C5 8527   0.416   1.116  11.338
  575TMC3    C6 8528   0.365   0.995  11.388
  575TMC3     C 8529   0.695   1.177  11.569
  575TMC3     O 8530   0.727   1.150  11.682
  575TMC3     H 8531   0.572   0.969  11.648
  575TMC3    H1 8532   0.548   1.277  11.357
  575TMC3    H2 8533   0.279   0.941  11.351
  575TMC3    C7 8534   0.340   1.189  11.246
  575TMC3    C8 8535   0.373   0.828  11.559
  575TMC3    O1 8536   0.328   1.310  11.261
  575TMC3    O2 8537   0.370   0.822  11.681
  576MPD2     C 8538   0.026   2.519  12.776
  576MPD2    C1 8539   0.011   2.630  12.688
  576MPD2    C2 8540   4.748   2.738  12.740
  576MPD2    C3 8541   4.686   2.740  12.858
  576MPD2    C4 8542   4.696   2.635  12.939
  576MPD2    C5 8543   4.775   2.526  12.899
  576MPD2     H 8544   4.737   2.826  12.677
  576MPD2    H1 8545   4.643   2.617  13.032
  576MPD2    H2 8546   0.064   2.425  12.738
  576MPD2    H3 8547   4.784   2.442  12.967
  576MPD2     N 8548   4.632   2.861  12.894
  576MPD2    H5 8549   4.632   2.938  12.828
  576MPD2    N1 8550   0.070   2.641  12.557
  576MPD2    H7 8551   0.060   2.729  12.509
  577TMC3    C1 8552   0.196   2.589  12.371
  577TMC3    C2 8553   0.217   2.478  12.289
  577TMC3    C3 8554   0.257   2.497  12.161
  577TMC3    C4 8555   0.186   2.711  12.321
  577TMC3    C5 8556   0.224   2.727  12.193
  577TMC3    C6 8557   0.265   2.622  12.115
  577TMC3     C 8558   0.161   2.552  12.507
  577TMC3     O 8559   0.204   2.443  12.543
  577TMC3     H 8560   0.216   2.377  12.329
  577TMC3    H1 8561   0.181   2.799  12.384
  577TMC3    H2 8562   0.304   2.656  12.020
  577TMC3    C7 8563   0.226   2.858  12.139
  577TMC3    C8 8564   0.337   2.395  12.096
  577TMC3    O1 8565   0.327   2.873  12.072
  577TMC3    O2 8566   0.376   2.307  12.169
  578MPD2     C 8567   2.439   2.629  18.898
  578MPD2    C1 8568   2.522   2.550  18.821
  578MPD2    C2 8569   2.642   2.503  18.880
  578MPD2    C3 8570   2.668   2.527  19.014
  578MPD2    C4 8571   2.576   2.600  19.088
  578MPD2    C5 8572   2.465   2.647  19.029
  578MPD2     H 8573   2.713   2.442  18.826
  578MPD2    H1 8574   2.583   2.614  19.195
  578MPD2    H2 8575   2.350   2.673  18.856
  578MPD2    H3 8576   2.407   2.704  19.101
  578MPD2     N 8577   2.785   2.474  19.061
  578MPD2    H5 8578   2.831   2.412  18.996
  578MPD2    N1 8579   2.504   2.547  18.680
  578MPD2    H7 8580   2.417   2.594  18.658
  579TMC3    C1 8581   2.963   2.431  19.208
  579TMC3    C2 8582   3.059   2.493  19.280
  579TMC3    C3 8583   3.170   2.422  19.315
  579TMC3    C4 8584   2.970   2.295  19.172
  579TMC3    C5 8585   3.076   2.222  19.222
  579TMC3    C6 8586   3.179   2.287  19.289
  579TMC3     C 8587   2.841   2.499  19.188
  579TMC3     O 8588   2.824   2.598  19.255
  579TMC3     H 8589   3.068   2.600  19.295
  579TMC3    H1 8590   2.888   2.237  19.131
  579TMC3    H2 8591   3.263   2.226  19.319
  579TMC3    C7 8592   3.104   2.091  19.170
  579TMC3    C8 8593   3.281   2.494  19.362
  579TMC3    O1 8594   3.197   2.028  19.220
  579TMC3    O2 8595   3.269   2.606  19.404
  580TMC3    C1 8596   2.678   2.050  12.395
  580TMC3    C2 8597   2.799   2.075  12.331
  580TMC3    C3 8598   2.863   1.975  12.270
  580TMC3    C4 8599   2.638   1.916  12.405
  580TMC3    C5 8600   2.713   1.821  12.343
  580TMC3    C6 8601   2.812   1.849  12.260
  580TMC3     C 8602   2.586   2.161  12.397
  580TMC3     O 8603   2.648   2.268  12.406
  580TMC3     H 8604   2.821   2.179  12.310
  580TMC3    H1 8605   2.547   1.903  12.462
  580TMC3    H2 8606   2.853   1.778  12.188
  580TMC3    C7 8607   2.728   1.695  12.411
  580TMC3    C8 8608   2.956   2.020  12.158
  580TMC3    O1 8609   2.679   1.675  12.524
  580TMC3    O2 8610   2.931   1.969  12.052
  581MPD2     C 8611   0.505   1.386  14.733
  581MPD2    C1 8612   0.479   1.404  14.865
  581MPD2    C2 8613   0.352   1.447  14.906
  581MPD2    C3 8614   0.268   1.495  14.811
  581MPD2    C4 8615   0.297   1.475  14.679
  581MPD2    C5 8616   0.412   1.424  14.643
  581MPD2     H 8617   0.328   1.452  15.011
  581MPD2    H1 8618   0.231   1.499  14.597
  581MPD2    H2 8619   0.599   1.359  14.685
  581MPD2    H3 8620   0.440   1.418  14.538
  581MPD2     N 8621   0.144   1.538  14.855
  581MPD2    H5 8622   0.140   1.553  14.955
  581MPD2    N1 8623   0.576   1.360  14.950
  581MPD2    H7 8624   0.654   1.307  14.912
  582TMC3    C1 8625   0.676   1.300  15.156
  582TMC3    C2 8626   0.718   1.342  15.273
  582TMC3    C3 8627   0.766   1.243  15.347
  582TMC3    C4 8628   0.665   1.171  15.118
  582TMC3    C5 8629   0.698   1.074  15.207
  582TMC3    C6 8630   0.770   1.110  15.317
  582TMC3     C 8631   0.576   1.376  15.086
  582TMC3     O 8632   0.518   1.460  15.146
  582TMC3     H 8633   0.703   1.447  15.297
  582TMC3    H1 8634   0.607   1.129  15.036
  582TMC3    H2 8635   0.804   1.042  15.394
  582TMC3    C7 8636   0.578   1.004  15.243
  582TMC3    C8 8637   0.794   1.285  15.481
  582TMC3    O1 8638   0.515   0.933  15.163
  582TMC3    O2 8639   0.719   1.365  15.526
  583MPD2     C 8640   0.582   2.942  16.919
  583MPD2    C1 8641   0.561   3.061  16.852
  583MPD2    C2 8642   0.494   3.168  16.919
  583MPD2    C3 8643   0.458   3.156  17.046
  583MPD2    C4 8644   0.471   3.038  17.114
  583MPD2    C5 8645   0.534   2.939  17.046
  583MPD2     H 8646   0.496   3.266  16.872
  583MPD2    H1 8647   0.436   3.017  17.214
  583MPD2    H2 8648   0.624   2.849  16.883
  583MPD2    H3 8649   0.567   2.850  17.098
  583MPD2     N 8650   0.395   3.262  17.107
  583MPD2    H5 8651   0.370   3.342  17.049
  583MPD2    N1 8652   0.614   3.081  16.720
  583MPD2    H7 8653   0.597   3.169  16.671
  584TMC3    C1 8654   0.315   3.407  17.274
  584TMC3    C2 8655   0.335   3.510  17.191
  584TMC3    C3 8656   0.306   3.634  17.236
  584TMC3    C4 8657   0.255   3.428  17.396
  584TMC3    C5 8658   0.211   3.550  17.432
  584TMC3    C6 8659   0.232   3.653  17.348
  584TMC3     C 8660   0.357   3.274  17.240
  584TMC3     O 8661   0.338   3.192  17.326
  584TMC3     H 8662   0.388   3.500  17.096
  584TMC3    H1 8663   0.245   3.345  17.464
  584TMC3    H2 8664   0.180   3.747  17.360
  584TMC3    C7 8665   0.123   3.552  17.558
  584TMC3    C8 8666   0.308   3.740  17.140
  584TMC3    O1 8667   0.118   3.445  17.618
  584TMC3    O2 8668   0.293   3.719  17.019
  585MPD2     C 8669   4.597   2.258  18.824
  585MPD2    C1 8670   4.679   2.306  18.726
  585MPD2    C2 8671   4.679   2.241  18.606
  585MPD2    C3 8672   4.599   2.133  18.584
  585MPD2    C4 8673   4.526   2.081  18.685
  585MPD2    C5 8674   4.528   2.141  18.806
  585MPD2     H 8675   4.734   2.274  18.518
  585MPD2    H1 8676   4.470   1.990  18.664
  585MPD2    H2 8677   4.583   2.319  18.913
  585MPD2    H3 8678   4.452   2.116  18.880
  585MPD2     N 8679   4.577   2.079  18.452
  585MPD2    H5 8680   4.515   1.998  18.453
  585MPD2    N1 8681   4.741   2.433  18.738
  585MPD2    H7 8682   4.693   2.503  18.793
  586TMC3    C1 8683   4.611   2.028  18.218
  586TMC3    C2 8684   4.707   2.046  18.132
  586TMC3    C3 8685   4.708   1.994  18.009
  586TMC3    C4 8686   4.488   1.968  18.186
  586TMC3    C5 8687   4.487   1.925  18.056
  586TMC3    C6 8688   4.587   1.932  17.970
  586TMC3     C 8689   4.620   2.122  18.330
  586TMC3     O 8690   4.689   2.224  18.308
  586TMC3     H 8691   4.795   2.101  18.163
  586TMC3    H1 8692   4.405   1.957  18.255
  586TMC3    H2 8693   4.583   1.883  17.873
  586TMC3    C7 8694   4.364   1.876  18.002
  586TMC3    C8 8695   0.031   1.948  17.949
  586TMC3    O1 8696   4.289   1.808  18.073
  586TMC3    O2 8697   0.088   1.845  17.986
  587TMC3    C1 8698   1.932   0.689  16.360
  587TMC3    C2 8699   1.938   0.812  16.411
  587TMC3    C3 8700   2.057   0.844  16.474
  587TMC3    C4 8701   2.038   0.602  16.368
  587TMC3    C5 8702   2.152   0.639  16.426
  587TMC3    C6 8703   2.161   0.760  16.486
  587TMC3     C 8704   1.811   0.634  16.297
  587TMC3     O 8705   1.822   0.530  16.232
  587TMC3     H 8706   1.859   0.885  16.418
  587TMC3    H1 8707   2.034   0.500  16.332
  587TMC3    H2 8708   2.251   0.784  16.542
  587TMC3    C7 8709   2.214   0.531  16.508
  587TMC3    C8 8710   2.089   0.978  16.505
  587TMC3    O1 8711   2.136   0.438  16.530
  587TMC3    O2 8712   2.206   1.012  16.488
  588TMC3    C1 8713   4.191   3.788  10.089
  588TMC3    C2 8714   4.182   3.650  10.087
  588TMC3    C3 8715   4.297   3.577  10.096
  588TMC3    C4 8716   4.309   3.858  10.105
  588TMC3    C5 8717   4.425   3.779  10.114
  588TMC3    C6 8718   4.419   3.634  10.114
  588TMC3     C 8719   4.089   3.860  10.016
  588TMC3     O 8720   3.979   3.806  10.015
  588TMC3     H 8721   4.090   3.609  10.047
  588TMC3    H1 8722   4.293   3.962  10.131
  588TMC3    H2 8723   4.508   3.589  10.073
  588TMC3    C7 8724   4.547   3.853  10.108
  588TMC3    C8 8725   4.283   3.432  10.071
  588TMC3    O1 8726   4.647   3.786  10.104
  588TMC3    O2 8727   4.186   3.396  10.003
  589TMC3    C1 8728   3.656   0.660  18.625
  589TMC3    C2 8729   3.723   0.685  18.751
  589TMC3    C3 8730   3.860   0.678  18.746
  589TMC3    C4 8731   3.724   0.642  18.513
  589TMC3    C5 8732   3.860   0.624  18.516
  589TMC3    C6 8733   3.936   0.641  18.633
  589TMC3     C 8734   3.537   0.578  18.633
  589TMC3     O 8735   3.504   0.518  18.534
  589TMC3     H 8736   3.682   0.705  18.849
  589TMC3    H1 8737   3.680   0.604  18.422
  589TMC3    H2 8738   4.044   0.644  18.636
  589TMC3    C7 8739   3.899   0.511  18.436
  589TMC3    C8 8740   3.918   0.663  18.873
  589TMC3    O1 8741   3.816   0.458  18.366
  589TMC3    O2 8742   3.857   0.583  18.943
  590MPD2     C 8743   2.701   3.716  16.682
  590MPD2    C1 8744   2.673   3.811  16.585
  590MPD2    C2 8745   2.773   3.887  16.539
  590MPD2    C3 8746   2.900   3.878  16.598
  590MPD2    C4 8747   2.927   3.800  16.701
  590MPD2    C5 8748   2.828   3.712  16.740
  590MPD2     H 8749   2.747   3.959  16.463
  590MPD2    H1 8750   3.012   3.810  16.767
  590MPD2    H2 8751   2.626   3.651  16.726
  590MPD2    H3 8752   2.846   3.642  16.821
  590MPD2     N 8753   2.995   3.966  16.551
  590MPD2    H5 8754   2.965   4.035  16.483
  590MPD2    N1 8755   2.542   3.816  16.522
  590MPD2    H7 8756   2.459   3.787  16.573
  591TMC3    C1 8757   3.204   4.057  16.510
  591TMC3    C2 8758   3.313   4.014  16.435
  591TMC3    C3 8759   3.347   4.106  16.343
  591TMC3    C4 8760   3.133   4.176  16.491
  591TMC3    C5 8761   3.189   4.269  16.409
  591TMC3    C6 8762   3.294   4.231  16.329
  591TMC3     C 8763   3.128   3.960  16.582
  591TMC3     O 8764   3.190   3.867  16.631
  591TMC3     H 8765   3.363   3.919  16.449
  591TMC3    H1 8766   3.051   4.208  16.554
  591TMC3    H2 8767   3.310   4.279  16.233
  591TMC3    C7 8768   3.115   4.385  16.378
  591TMC3    C8 8769   3.447   4.062  16.249
  591TMC3    O1 8770   2.998   4.388  16.407
  591TMC3    O2 8771   3.466   3.940  16.230
  592MPD2     C 8772   3.572   1.418  11.854
  592MPD2    C1 8773   3.569   1.461  11.983
  592MPD2    C2 8774   3.524   1.380  12.092
  592MPD2    C3 8775   3.462   1.260  12.058
  592MPD2    C4 8776   3.459   1.227  11.926
  592MPD2    C5 8777   3.512   1.301  11.824
  592MPD2     H 8778   3.532   1.412  12.195
  592MPD2    H1 8779   3.416   1.133  11.894
  592MPD2    H2 8780   3.612   1.467  11.766
  592MPD2    H3 8781   3.522   1.268  11.721
  592MPD2     N 8782   3.398   1.179  12.159
  592MPD2    H5 8783   3.419   1.200  12.256
  592MPD2    N1 8784   3.622   1.593  11.995
  592MPD2    H7 8785   3.664   1.626  11.908
  593TMC3    C1 8786   3.725   1.772  12.098
  593TMC3    C2 8787   3.723   1.856  12.209
  593TMC3    C3 8788   3.814   1.958  12.209
  593TMC3    C4 8789   3.822   1.786  11.993
  593TMC3    C5 8790   3.903   1.897  12.001
  593TMC3    C6 8791   3.899   1.985  12.106
  593TMC3     C 8792   3.636   1.659  12.117
  593TMC3     O 8793   3.588   1.634  12.225
  593TMC3     H 8794   3.655   1.848  12.293
  593TMC3    H1 8795   3.828   1.711  11.916
  593TMC3    H2 8796   3.941   2.084  12.101
  593TMC3    C7 8797   3.973   1.951  11.885
  593TMC3    C8 8798   3.792   2.058  12.305
  593TMC3    O1 8799   4.046   2.051  11.906
  593TMC3    O2 8800   3.685   2.060  12.367
  594MPD2     C 8801   2.001   0.041  14.418
  594MPD2    C1 8802   2.007   0.049  14.556
  594MPD2    C2 8803   2.091   0.134  14.628
  594MPD2    C3 8804   2.167   0.222  14.555
  594MPD2    C4 8805   2.162   0.215  14.416
  594MPD2    C5 8806   2.094   0.114  14.349
  594MPD2     H 8807   2.101   0.141  14.735
  594MPD2    H1 8808   2.211   0.285  14.349
  594MPD2    H2 8809   1.933   4.777  14.371
  594MPD2    H3 8810   2.098   0.100  14.242
  594MPD2     N 8811   2.263   0.300  14.623
  594MPD2    H5 8812   2.261   0.297  14.725
  594MPD2    N1 8813   1.922   4.769  14.614
  594MPD2    H7 8814   1.869   4.705  14.555
  595TMC3    C1 8815   2.594   0.633  14.661
  595TMC3    C2 8816   2.534   0.534  14.589
  595TMC3    C3 8817   2.441   0.457  14.650
  595TMC3    C4 8818   2.555   0.648  14.791
  595TMC3    C5 8819   2.452   0.577  14.852
  595TMC3    C6 8820   2.395   0.479  14.782
  595TMC3     C 8821   2.731   0.663  14.637
  595TMC3     O 8822   2.773   0.751  14.711
  595TMC3     H 8823   2.562   0.510  14.487
  595TMC3    H1 8824   2.601   0.730  14.845
  595TMC3    H2 8825   2.306   0.431  14.819
  595TMC3    C7 8826   2.383   0.637  14.969
  595TMC3    C8 8827   2.371   0.360  14.563
  595TMC3    O1 8828   2.261   0.631  14.981
  595TMC3    O2 8829   2.413   0.334  14.450
  596MPD2     C 8830   1.231   3.120  17.107
  596MPD2    C1 8831   1.238   3.224  17.016
  596MPD2    C2 8832   1.289   3.196  16.886
  596MPD2    C3 8833   1.325   3.063  16.856
  596MPD2    C4 8834   1.322   2.964  16.957
  596MPD2    C5 8835   1.269   2.989  17.082
  596MPD2     H 8836   1.299   3.279  16.818
  596MPD2    H1 8837   1.364   2.868  16.928
  596MPD2    H2 8838   1.193   3.144  17.206
  596MPD2    H3 8839   1.281   2.913  17.159
  596MPD2     N 8840   1.376   3.033  16.725
  596MPD2    H5 8841   1.385   2.935  16.703
  596MPD2    N1 8842   1.195   3.357  17.039
  596MPD2    H7 8843   1.218   3.414  16.958
  597TMC3    C1 8844   1.071   3.533  17.140
  597TMC3    C2 8845   1.142   3.626  17.073
  597TMC3    C3 8846   1.101   3.753  17.071
  597TMC3    C4 8847   0.962   3.569  17.215
  597TMC3    C5 8848   0.935   3.703  17.216
  597TMC3    C6 8849   0.996   3.798  17.145
  597TMC3     C 8850   1.109   3.396  17.141
  597TMC3     O 8851   1.057   3.329  17.232
  597TMC3     H 8852   1.234   3.590  17.029
  597TMC3    H1 8853   0.889   3.503  17.261
  597TMC3    H2 8854   0.959   3.900  17.138
  597TMC3    C7 8855   0.845   3.738  17.330
  597TMC3    C8 8856   1.171   3.841  16.982
  597TMC3    O1 8857   0.784   3.645  17.385
  597TMC3    O2 8858   1.115   3.944  16.943
  598TMC3    C1 8859   4.247   4.507  15.398
  598TMC3    C2 8860   4.123   4.448  15.403
  598TMC3    C3 8861   4.041   4.475  15.298
  598TMC3    C4 8862   4.289   4.593  15.294
  598TMC3    C5 8863   4.191   4.619  15.199
  598TMC3    C6 8864   4.068   4.560  15.193
  598TMC3     C 8865   4.342   4.444  15.493
  598TMC3     O 8866   4.281   4.398  15.589
  598TMC3     H 8867   4.083   4.389  15.485
  598TMC3    H1 8868   4.388   4.638  15.292
  598TMC3    H2 8869   4.002   4.565  15.108
  598TMC3    C7 8870   4.215   4.707  15.080
  598TMC3    C8 8871   3.907   4.418  15.301
  598TMC3    O1 8872   4.160   4.674  14.975
  598TMC3    O2 8873   3.864   4.395  15.188
  599MPD2     C 8874   4.598   2.238  16.115
  599MPD2    C1 8875   4.537   2.113  16.118
  599MPD2    C2 8876   4.416   2.094  16.182
  599MPD2    C3 8877   4.357   2.209  16.242
  599MPD2    C4 8878   4.418   2.335  16.233
  599MPD2    C5 8879   4.540   2.343  16.173
  599MPD2     H 8880   4.359   2.002  16.178
  599MPD2    H1 8881   4.381   2.423  16.283
  599MPD2    H2 8882   4.694   2.249  16.066
  599MPD2    H3 8883   4.577   2.444  16.157
  599MPD2     N 8884   4.232   2.204  16.309
  599MPD2    H5 8885   4.209   2.293  16.351
  599MPD2    N1 8886   4.604   2.008  16.049
  599MPD2    H7 8887   4.695   2.030  16.011
  600TMC3    C1 8888   4.020   2.127  16.387
  600TMC3    C2 8889   3.930   2.028  16.408
  600TMC3    C3 8890   3.812   2.061  16.469
  600TMC3    C4 8891   3.989   2.255  16.421
  600TMC3    C5 8892   3.865   2.285  16.473
  600TMC3    C6 8893   3.770   2.188  16.495
  600TMC3     C 8894   4.144   2.096  16.319
  600TMC3     O 8895   4.148   1.987  16.262
  600TMC3     H 8896   3.960   1.924  16.403
  600TMC3    H1 8897   4.053   2.335  16.388
  600TMC3    H2 8898   3.674   2.199  16.545
  600TMC3    C7 8899   3.847   2.409  16.545
  600TMC3    C8 8900   3.733   1.951  16.520
  600TMC3    O1 8901   3.733   2.443  16.572
  600TMC3    O2 8902   3.789   1.845  16.548
  601MPD2     C 8903   1.346   0.880  18.275
  601MPD2    C1 8904   1.256   0.787  18.224
  601MPD2    C2 8905   1.281   0.661  18.246
  601MPD2    C3 8906   1.388   0.609  18.314
  601MPD2    C4 8907   1.471   0.699  18.374
  601MPD2    C5 8908   1.458   0.835  18.343
  601MPD2     H 8909   1.214   0.591  18.198
  601MPD2    H1 8910   1.561   0.674  18.429
  601MPD2    H2 8911   1.336   0.987  18.265
  601MPD2    H3 8912   1.519   0.911  18.391
  601MPD2     N 8913   1.427   0.467  18.323
  601MPD2    H5 8914   1.520   0.450  18.361
  601MPD2    N1 8915   1.141   0.831  18.149
  601MPD2    H7 8916   1.081   0.752  18.124
  602TMC3    C1 8917   0.981   0.951  18.030
  602TMC3    C2 8918   0.929   1.074  18.005
  602TMC3    C3 8919   0.820   1.088  17.924
  602TMC3    C4 8920   0.922   0.842  17.983
  602TMC3    C5 8921   0.813   0.863  17.902
  602TMC3    C6 8922   0.757   0.980  17.869
  602TMC3     C 8923   1.104   0.955  18.105
  602TMC3     O 8924   1.155   1.068  18.124
  602TMC3     H 8925   0.985   1.164  18.023
  602TMC3    H1 8926   0.965   0.742  17.990
  602TMC3    H2 8927   0.661   0.990  17.820
  602TMC3    C7 8928   0.788   0.753  17.803
  602TMC3    C8 8929   0.778   1.223  17.891
  602TMC3    O1 8930   0.813   0.636  17.828
  602TMC3    O2 8931   0.723   1.291  17.977
  603TMC3    C1 8932   4.696   0.653  11.320
  603TMC3    C2 8933   4.738   0.622  11.450
  603TMC3    C3 8934   4.781   0.727  11.536
  603TMC3    C4 8935   4.694   0.780  11.272
  603TMC3    C5 8936   4.736   0.880  11.350
  603TMC3    C6 8937   4.784   0.856  11.480
  603TMC3     C 8938   4.600   0.560  11.259
  603TMC3     O 8939   4.496   0.611  11.214
  603TMC3     H 8940   4.727   0.520  11.484
  603TMC3    H1 8941   4.663   0.800  11.170
  603TMC3    H2 8942   0.031   0.931  11.539
  603TMC3    C7 8943   4.726   1.009  11.291
  603TMC3    C8 8944   4.787   0.701  11.674
  603TMC3    O1 8945   0.007   1.083  11.339
  603TMC3    O2 8946   4.752   0.587  11.706
  604MPD2     C 8947   0.448   4.250  16.583
  604MPD2    C1 8948   0.348   4.212  16.499
  604MPD2    C2 8949   0.373   4.193  16.357
  604MPD2    C3 8950   0.501   4.189  16.312
  604MPD2    C4 8951   0.599   4.231  16.401
  604MPD2    C5 8952   0.568   4.267  16.529
  604MPD2     H 8953   0.289   4.179  16.290
  604MPD2    H1 8954   0.702   4.247  16.369
  604MPD2    H2 8955   0.429   4.272  16.688
  604MPD2    H3 8956   0.647   4.314  16.586
  604MPD2     N 8957   0.525   4.149  16.177
  604MPD2    H5 8958   0.439   4.124  16.130
  604MPD2    N1 8959   0.222   4.213  16.554
  604MPD2    H7 8960   0.217   4.253  16.647
  605TMC3    C1 8961   4.796   4.192  16.597
  605TMC3    C2 8962   0.054   4.219  16.718
  605TMC3    C3 8963   0.015   4.341  16.776
  605TMC3    C4 8964   4.691   4.266  16.543
  605TMC3    C5 8965   4.664   4.389  16.594
  605TMC3    C6 8966   4.733   4.422  16.713
  605TMC3     C 8967   0.101   4.169  16.499
  605TMC3     O 8968   0.074   4.109  16.396
  605TMC3     H 8969   0.130   4.153  16.755
  605TMC3    H1 8970   4.657   4.222  16.450
  605TMC3    H2 8971   4.749   4.527  16.734
  605TMC3    C7 8972   4.565   4.469  16.539
  605TMC3    C8 8973   0.131   4.398  16.849
  605TMC3    O1 8974   4.546   4.582  16.584
  605TMC3    O2 8975   0.230   4.330  16.833
  606TMC3    C1 8976   1.136   3.285  17.596
  606TMC3    C2 8977   1.075   3.260  17.717
  606TMC3    C3 8978   1.051   3.134  17.754
  606TMC3    C4 8979   1.156   3.178  17.510
  606TMC3    C5 8980   1.107   3.052  17.544
  606TMC3    C6 8981   1.053   3.024  17.667
  606TMC3     C 8982   1.170   3.420  17.566
  606TMC3     O 8983   1.118   3.513  17.636
  606TMC3     H 8984   1.064   3.340  17.790
  606TMC3    H1 8985   1.195   3.183  17.410
  606TMC3    H2 8986   1.039   2.924  17.706
  606TMC3    C7 8987   1.152   2.937  17.469
  606TMC3    C8 8988   1.088   3.100  17.890
  606TMC3    O1 8989   1.251   2.960  17.404
  606TMC3    O2 8990   1.149   3.193  17.943
  607MPD2     C 8991   3.641   0.940  11.918
  607MPD2    C1 8992   3.712   1.012  12.018
  607MPD2    C2 8993   3.696   0.972  12.150
  607MPD2    C3 8994   3.613   0.868  12.185
  607MPD2    C4 8995   3.529   0.812  12.089
  607MPD2    C5 8996   3.551   0.841  11.949
  607MPD2     H 8997   3.767   1.011  12.222
  607MPD2    H1 8998   3.457   0.733  12.109
  607MPD2    H2 8999   3.665   0.951  11.813
  607MPD2    H3 9000   3.486   0.793  11.877
  607MPD2     N 9001   3.619   0.841  12.323
  607MPD2    H5 9002   3.701   0.871  12.374
  607MPD2    N1 9003   3.795   1.127  11.993
  607MPD2    H7 9004   3.841   1.163  12.075
  608TMC3    C1 9005   3.903   1.312  11.926
  608TMC3    C2 9006   3.884   1.364  12.049
  608TMC3    C3 9007   3.952   1.467  12.089
  608TMC3    C4 9008   3.994   1.364  11.837
  608TMC3    C5 9009   4.075   1.473  11.886
  608TMC3    C6 9010   4.046   1.528  12.012
  608TMC3     C 9011   3.823   1.196  11.880
  608TMC3     O 9012   3.817   1.173  11.757
  608TMC3     H 9013   3.809   1.322  12.116
  608TMC3    H1 9014   4.014   1.326  11.738
  608TMC3    H2 9015   4.096   1.615  12.052
  608TMC3    C7 9016   4.154   1.546  11.791
  608TMC3    C8 9017   3.944   1.509  12.226
  608TMC3    O1 9018   4.150   1.509  11.672
  608TMC3    O2 9019   3.930   1.635  12.240
  609TMC3    C1 9020   2.125   0.572   9.482
  609TMC3    C2 9021   2.033   0.555   9.387
  609TMC3    C3 9022   2.056   0.464   9.286
  609TMC3    C4 9023   2.234   0.493   9.491
  609TMC3    C5 9024   2.256   0.398   9.391
  609TMC3    C6 9025   2.158   0.379   9.297
  609TMC3     C 9026   2.074   0.626   9.607
  609TMC3     O 9027   1.949   0.616   9.615
  609TMC3     H 9028   1.940   0.611   9.387
  609TMC3    H1 9029   2.288   0.495   9.585
  609TMC3    H2 9030   2.170   0.303   9.222
  609TMC3    C7 9031   2.373   0.305   9.403
  609TMC3    C8 9032   1.931   0.416   9.210
  609TMC3    O1 9033   2.446   0.336   9.501
  609TMC3    O2 9034   1.830   0.469   9.245
  610TMC3    C1 9035   4.082   0.998  12.782
  610TMC3    C2 9036   4.119   1.068  12.673
  610TMC3    C3 9037   4.202   1.009  12.581
  610TMC3    C4 9038   4.124   0.867  12.808
  610TMC3    C5 9039   4.210   0.811  12.718
  610TMC3    C6 9040   4.259   0.886  12.614
  610TMC3     C 9041   4.009   1.063  12.880
  610TMC3     O 9042   3.938   0.992  12.954
  610TMC3     H 9043   4.059   1.152  12.640
  610TMC3    H1 9044   4.090   0.815  12.897
  610TMC3    H2 9045   4.333   0.835  12.554
  610TMC3    C7 9046   4.298   0.700  12.772
  610TMC3    C8 9047   4.215   1.068  12.447
  610TMC3    O1 9048   4.419   0.718  12.763
  610TMC3    O2 9049   4.169   1.176  12.431
  611MPD2     C 9050   3.570   1.071  11.218
  611MPD2    C1 9051   3.527   1.133  11.102
  611MPD2    C2 9052   3.619   1.182  11.009
  611MPD2    C3 9053   3.749   1.174  11.046
  611MPD2    C4 9054   3.784   1.113  11.168
  611MPD2    C5 9055   3.701   1.059  11.258
  611MPD2     H 9056   3.597   1.215  10.908
  611MPD2    H1 9057   3.887   1.111  11.199
  611MPD2    H2 9058   3.495   1.040  11.290
  611MPD2    H3 9059   3.732   1.004  11.346
  611MPD2     N 9060   3.858   1.217  10.962
  611MPD2    H5 9061   3.949   1.205  11.007
  611MPD2    N1 9062   3.384   1.136  11.086
  611MPD2    H7 9063   3.331   1.078  11.150
  612TMC3    C1 9064   3.952   1.372  10.811
  612TMC3    C2 9065   4.060   1.388  10.894
  612TMC3    C3 9066   4.155   1.482  10.852
  612TMC3    C4 9067   3.939   1.446  10.698
  612TMC3    C5 9068   4.033   1.541  10.670
  612TMC3    C6 9069   4.140   1.564  10.746
  612TMC3     C 9070   3.841   1.293  10.849
  612TMC3     O 9071   3.741   1.314  10.781
  612TMC3     H 9072   4.057   1.355  10.998
  612TMC3    H1 9073   3.856   1.438  10.629
  612TMC3    H2 9074   4.220   1.624  10.705
  612TMC3    C7 9075   4.015   1.617  10.550
  612TMC3    C8 9076   4.286   1.485  10.919
  612TMC3    O1 9077   3.980   1.558  10.452
  612TMC3    O2 9078   4.348   1.592  10.900
  613MPD2     C 9079   2.889   3.338  16.643
  613MPD2    C1 9080   2.764   3.340  16.591
  613MPD2    C2 9081   2.659   3.268  16.643
  613MPD2    C3 9082   2.683   3.173  16.739
  613MPD2    C4 9083   2.809   3.177  16.799
  613MPD2    C5 9084   2.910   3.259  16.754
  613MPD2     H 9085   2.559   3.276  16.600
  613MPD2    H1 9086   2.826   3.101  16.875
  613MPD2    H2 9087   2.973   3.395  16.607
  613MPD2    H3 9088   3.009   3.254  16.797
  613MPD2     N 9089   2.597   3.062  16.770
  613MPD2    H5 9090   2.641   2.988  16.824
  613MPD2    N1 9091   2.756   3.411  16.467
  613MPD2    H7 9092   2.840   3.434  16.415
  614TMC3    C1 9093   2.635   3.426  16.265
  614TMC3    C2 9094   2.679   3.302  16.219
  614TMC3    C3 9095   2.613   3.242  16.112
  614TMC3    C4 9096   2.534   3.486  16.195
  614TMC3    C5 9097   2.486   3.432  16.079
  614TMC3    C6 9098   2.520   3.307  16.037
  614TMC3     C 9099   2.636   3.432  16.410
  614TMC3     O 9100   2.531   3.461  16.463
  614TMC3     H 9101   2.744   3.243  16.283
  614TMC3    H1 9102   2.495   3.582  16.227
  614TMC3    H2 9103   2.482   3.258  15.948
  614TMC3    C7 9104   2.376   3.500  16.019
  614TMC3    C8 9105   2.616   3.094  16.115
  614TMC3    O1 9106   2.318   3.588  16.081
  614TMC3    O2 9107   2.720   3.042  16.155
  615MPD2     C 9108   2.116   4.374  15.889
  615MPD2    C1 9109   2.009   4.439  15.949
  615MPD2    C2 9110   1.895   4.475  15.869
  615MPD2    C3 9111   1.889   4.437  15.740
  615MPD2    C4 9112   1.982   4.367  15.689
  615MPD2    C5 9113   2.099   4.342  15.759
  615MPD2     H 9114   1.816   4.537  15.909
  615MPD2    H1 9115   1.977   4.329  15.588
  615MPD2    H2 9116   2.198   4.325  15.940
  615MPD2    H3 9117   2.175   4.283  15.709
  615MPD2     N 9118   1.779   4.470  15.650
  615MPD2    H5 9119   1.789   4.440  15.554
  615MPD2    N1 9120   2.034   4.496  16.080
  615MPD2    H7 9121   1.974   4.568  16.118
  616TMC3    C1 9122   2.153   4.584  16.274
  616TMC3    C2 9123   2.279   4.608  16.330
  616TMC3    C3 9124   2.292   4.674  16.445
  616TMC3    C4 9125   2.038   4.610  16.339
  616TMC3    C5 9126   2.045   4.663  16.463
  616TMC3    C6 9127   2.173   4.694  16.514
  616TMC3     C 9128   2.157   4.501  16.153
  616TMC3     O 9129   2.264   4.449  16.128
  616TMC3     H 9130   2.363   4.603  16.262
  616TMC3    H1 9131   1.948   4.569  16.295
  616TMC3    H2 9132   2.182   4.752  16.605
  616TMC3    C7 9133   1.927   4.721  16.521
  616TMC3    C8 9134   2.342   0.002  16.427
  616TMC3    O1 9135   1.933   4.739  16.640
  616TMC3    O2 9136   2.254   0.090  16.436
  617MPD2     C 9137   0.221   2.700  13.848
  617MPD2    C1 9138   0.229   2.737  13.981
  617MPD2    C2 9139   0.113   2.755  14.052
  617MPD2    C3 9140   4.795   2.713  13.999
  617MPD2    C4 9141   4.784   2.680  13.863
  617MPD2    C5 9142   0.095   2.678  13.787
  617MPD2     H 9143   0.109   2.788  14.156
  617MPD2    H1 9144   4.688   2.663  13.817
  617MPD2    H2 9145   0.310   2.706  13.787
  617MPD2    H3 9146   0.085   2.660  13.681
  617MPD2     N 9147   4.678   2.707  14.080
  617MPD2    H5 9148   4.589   2.685  14.035
  617MPD2    N1 9149   0.358   2.761  14.036
  617MPD2    H7 9150   0.445   2.737  13.988
  618TMC3    C1 9151   0.515   2.799  14.188
  618TMC3    C2 9152   0.574   2.671  14.183
  618TMC3    C3 9153   0.695   2.653  14.243
  618TMC3    C4 9154   0.587   2.909  14.223
  618TMC3    C5 9155   0.721   2.889  14.253
  618TMC3    C6 9156   0.768   2.759  14.281
  618TMC3     C 9157   0.378   2.816  14.154
  618TMC3     O 9158   0.299   2.888  14.210
  618TMC3     H 9159   0.522   2.584  14.145
  618TMC3    H1 9160   0.543   3.008  14.218
  618TMC3    H2 9161   0.867   2.741  14.321
  618TMC3    C7 9162   0.798   3.000  14.304
  618TMC3    C8 9163   0.751   2.520  14.235
  618TMC3    O1 9164   0.736   3.069  14.382
  618TMC3    O2 9165   0.672   2.431  14.227
  619MPD2     C 9166   1.575   3.996  14.066
  619MPD2    C1 9167   1.546   4.088  13.963
  619MPD2    C2 9168   1.446   4.047  13.878
  619MPD2    C3 9169   1.367   3.932  13.889
  619MPD2    C4 9170   1.396   3.850  13.998
  619MPD2    C5 9171   1.504   3.881  14.079
  619MPD2     H 9172   1.428   4.126  13.805
  619MPD2    H1 9173   1.349   3.753  14.000
  619MPD2    H2 9174   1.657   4.009  14.136
  619MPD2    H3 9175   1.516   3.806  14.157
  619MPD2     N 9176   1.263   3.898  13.801
  619MPD2    H5 9177   1.203   3.822  13.830
  619MPD2    N1 9178   1.617   4.205  13.925
  619MPD2    H7 9179   1.606   4.240  13.831
  620TMC3    C1 9180   1.754   4.393  13.949
  620TMC3    C2 9181   1.717   4.442  13.823
  620TMC3    C3 9182   1.726   4.573  13.789
  620TMC3    C4 9183   1.791   4.481  14.044
  620TMC3    C5 9184   1.791   4.611  14.011
  620TMC3    C6 9185   1.760   4.661  13.886
  620TMC3     C 9186   1.709   4.265  14.004
  620TMC3     O 9187   1.738   4.226  14.114
  620TMC3     H 9188   1.666   4.371  13.759
  620TMC3    H1 9189   1.813   4.442  14.143
  620TMC3    H2 9190   1.756   4.769  13.879
  620TMC3    C7 9191   1.866   4.695  14.104
  620TMC3    C8 9192   1.623   4.613  13.701
  620TMC3    O1 9193   1.965   4.648  14.153
  620TMC3    O2 9194   1.539   4.692  13.746
  621MPD2     C 9195   1.778   4.264  10.690
  621MPD2    C1 9196   1.687   4.255  10.589
  621MPD2    C2 9197   1.642   4.370  10.523
  621MPD2    C3 9198   1.692   4.493  10.557
  621MPD2    C4 9199   1.785   4.503  10.655
  621MPD2    C5 9200   1.819   4.392  10.719
  621MPD2     H 9201   1.561   4.375  10.452
  621MPD2    H1 9202   1.829   4.594  10.694
  621MPD2    H2 9203   1.825   4.180  10.739
  621MPD2    H3 9204   1.893   4.403  10.798
  621MPD2     N 9205   1.648   4.609  10.479
  621MPD2    H5 9206   1.598   4.589  10.393
  621MPD2    N1 9207   1.638   4.132  10.544
  621MPD2    H7 9208   1.579   4.138  10.462
  622TMC3    C1 9209   1.595   3.904  10.522
  622TMC3    C2 9210   1.516   3.832  10.608
  622TMC3    C3 9211   1.418   3.746  10.558
  622TMC3    C4 9212   1.572   3.910  10.388
  622TMC3    C5 9213   1.490   3.815  10.339
  622TMC3    C6 9214   1.420   3.732  10.424
  622TMC3     C 9215   1.669   4.008  10.593
  622TMC3     O 9216   1.743   3.976  10.685
  622TMC3     H 9217   1.524   3.850  10.715
  622TMC3    H1 9218   1.625   3.978  10.322
  622TMC3    H2 9219   1.335   3.688  10.373
  622TMC3    C7 9220   1.490   3.778  10.200
  622TMC3    C8 9221   1.288   3.796  10.586
  622TMC3    O1 9222   1.439   3.679  10.158
  622TMC3    O2 9223   1.190   3.726  10.561
  623MPD2     C 9224   0.452   4.460  15.750
  623MPD2    C1 9225   0.366   4.445  15.856
  623MPD2    C2 9226   0.430   4.438  15.981
  623MPD2    C3 9227   0.568   4.466  15.983
  623MPD2    C4 9228   0.649   4.479  15.873
  623MPD2    C5 9229   0.588   4.475  15.760
  623MPD2     H 9230   0.375   4.436  16.074
  623MPD2    H1 9231   0.758   4.479  15.875
  623MPD2    H2 9232   0.407   4.475  15.652
  623MPD2    H3 9233   0.649   4.476  15.671
  623MPD2     N 9234   0.622   4.490  16.116
  623MPD2    H5 9235   0.562   4.467  16.195
  623MPD2    N1 9236   0.223   4.448  15.846
  623MPD2    H7 9237   0.183   4.488  15.762
  624TMC3    C1 9238   0.868   4.667  16.464
  624TMC3    C2 9239   0.760   4.655  16.548
  624TMC3    C3 9240   0.633   4.626  16.494
  624TMC3    C4 9241   0.857   4.629  16.335
  624TMC3    C5 9242   0.740   4.595  16.280
  624TMC3    C6 9243   0.629   4.581  16.364
  624TMC3     C 9244   0.995   4.656  16.524
  624TMC3     O 9245   1.088   4.674  16.443
  624TMC3     H 9246   0.767   4.683  16.653
  624TMC3    H1 9247   0.945   4.638  16.271
  624TMC3    H2 9248   0.531   4.552  16.329
  624TMC3    C7 9249   0.741   4.548  16.149
  624TMC3    C8 9250   0.514   4.615  16.579
  624TMC3    O1 9251   0.841   4.556  16.081
  624TMC3    O2 9252   0.417   4.548  16.541
  625MPD2     C 9253   1.199   1.097  18.955
  625MPD2    C1 9254   1.240   1.223  18.976
  625MPD2    C2 9255   1.350   1.245  19.060
  625MPD2    C3 9256   1.420   1.135  19.105
  625MPD2    C4 9257   1.383   1.010  19.075
  625MPD2    C5 9258   1.269   0.990  18.996
  625MPD2     H 9259   1.385   1.348  19.057
  625MPD2    H1 9260   1.439   0.922  19.105
  625MPD2    H2 9261   1.116   1.076  18.889
  625MPD2    H3 9262   1.240   0.888  18.972
  625MPD2     N 9263   1.539   1.165  19.179
  625MPD2    H5 9264   1.551   1.265  19.195
  625MPD2    N1 9265   1.183   1.336  18.912
  625MPD2    H7 9266   1.204   1.424  18.957
  626TMC3    C1 9267   1.065   1.467  18.752
  626TMC3    C2 9268   0.980   1.486  18.649
  626TMC3    C3 9269   0.951   1.612  18.609
  626TMC3    C4 9270   1.147   1.570  18.794
  626TMC3    C5 9271   1.131   1.692  18.744
  626TMC3    C6 9272   1.028   1.724  18.653
  626TMC3     C 9273   1.097   1.334  18.805
  626TMC3     O 9274   1.036   1.242  18.754
  626TMC3     H 9275   0.940   1.404  18.590
  626TMC3    H1 9276   1.214   1.562  18.880
  626TMC3    H2 9277   1.036   1.819  18.603
  626TMC3    C7 9278   1.185   1.794  18.826
  626TMC3    C8 9279   0.870   1.643  18.492
  626TMC3    O1 9280   1.292   1.785  18.885
  626TMC3    O2 9281   0.887   1.759  18.441
  627MPD2     C 9282   4.147   1.574  14.566
  627MPD2    C1 9283   4.215   1.499  14.658
  627MPD2    C2 9284   4.177   1.368  14.670
  627MPD2    C3 9285   4.066   1.310  14.598
  627MPD2    C4 9286   3.996   1.396  14.510
  627MPD2    C5 9287   4.041   1.525  14.496
  627MPD2     H 9288   4.235   1.317  14.746
  627MPD2    H1 9289   3.914   1.360  14.449
  627MPD2    H2 9290   4.180   1.677  14.558
  627MPD2    H3 9291   3.984   1.595  14.436
  627MPD2     N 9292   4.027   1.174  14.626
  627MPD2    H5 9293   4.064   1.140  14.714
  627MPD2    N1 9294   4.330   1.545  14.739
  627MPD2    H7 9295   4.378   1.476  14.795
  628TMC3    C1 9296   4.498   1.675  14.824
  628TMC3    C2 9297   4.599   1.585  14.800
  628TMC3    C3 9298   4.725   1.615  14.847
  628TMC3    C4 9299   4.525   1.800  14.879
  628TMC3    C5 9300   4.650   1.820  14.921
  628TMC3    C6 9301   4.749   1.735  14.908
  628TMC3     C 9302   4.373   1.675  14.749
  628TMC3     O 9303   4.321   1.778  14.719
  628TMC3     H 9304   4.586   1.499  14.735
  628TMC3    H1 9305   4.448   1.872  14.900
  628TMC3    H2 9306   0.047   1.767  14.923
  628TMC3    C7 9307   4.681   1.959  14.949
  628TMC3    C8 9308   0.035   1.557  14.775
  628TMC3    O1 9309   4.770   1.977  15.033
  628TMC3    O2 9310   0.020   1.548  14.653
  629MPD2     C 9311   2.712   0.350  16.395
  629MPD2    C1 9312   2.768   0.228  16.432
  629MPD2    C2 9313   2.686   0.110  16.435
  629MPD2    C3 9314   2.549   0.125  16.416
  629MPD2    C4 9315   2.502   0.251  16.384
  629MPD2    C5 9316   2.582   0.366  16.367
  629MPD2     H 9317   2.729   0.012  16.452
  629MPD2    H1 9318   2.394   0.263  16.377
  629MPD2    H2 9319   2.767   0.443  16.389
  629MPD2    H3 9320   2.548   0.462  16.330
  629MPD2     N 9321   2.475   0.010  16.404
  629MPD2    H5 9322   2.520   4.723  16.404
  629MPD2    N1 9323   2.905   0.221  16.454
  629MPD2    H7 9324   2.957   0.306  16.433
  630TMC3    C1 9325   3.106   0.141  16.548
  630TMC3    C2 9326   3.171   0.245  16.483
  630TMC3    C3 9327   3.294   0.281  16.534
  630TMC3    C4 9328   3.163   0.082  16.660
  630TMC3    C5 9329   3.284   0.115  16.704
  630TMC3    C6 9330   3.352   0.216  16.637
  630TMC3     C 9331   2.963   0.122  16.528
  630TMC3     O 9332   2.913   0.028  16.586
  630TMC3     H 9333   3.127   0.292  16.396
  630TMC3    H1 9334   3.113   4.800  16.702
  630TMC3    H2 9335   3.455   0.244  16.658
  630TMC3    C7 9336   3.328   0.056  16.824
  630TMC3    C8 9337   3.350   0.419  16.514
  630TMC3    O1 9338   3.280   4.753  16.859
  630TMC3    O2 9339   3.449   0.448  16.576
  631MPD2     C 9340   0.810   0.020  15.585
  631MPD2    C1 9341   0.895   0.104  15.522
  631MPD2    C2 9342   1.010   0.051  15.465
  631MPD2    C3 9343   1.041   4.726  15.472
  631MPD2    C4 9344   0.948   4.633  15.522
  631MPD2    C5 9345   0.837   4.686  15.593
  631MPD2     H 9346   1.095   0.114  15.439
  631MPD2    H1 9347   0.974   4.528  15.524
  631MPD2    H2 9348   0.727   0.058  15.643
  631MPD2    H3 9349   0.781   4.619  15.657
  631MPD2     N 9350   1.173   4.692  15.430
  631MPD2    H5 9351   1.227   4.766  15.388
  631MPD2    N1 9352   0.865   0.240  15.518
  631MPD2    H7 9353   0.788   0.277  15.574
  632TMC3    C1 9354   0.884   0.469  15.478
  632TMC3    C2 9355   0.750   0.483  15.468
  632TMC3    C3 9356   0.702   0.611  15.452
  632TMC3    C4 9357   0.972   0.571  15.458
  632TMC3    C5 9358   0.922   0.688  15.417
  632TMC3    C6 9359   0.789   0.715  15.419
  632TMC3     C 9360   0.937   0.333  15.459
  632TMC3     O 9361   1.032   0.318  15.381
  632TMC3     H 9362   0.676   0.406  15.490
  632TMC3    H1 9363   1.076   0.541  15.449
  632TMC3    H2 9364   0.750   0.813  15.397
  632TMC3    C7 9365   1.005   0.774  15.333
  632TMC3    C8 9366   0.562   0.643  15.494
  632TMC3    O1 9367   0.950   0.847  15.254
  632TMC3    O2 9368   0.491   0.548  15.477
  633MPD2     C 9369   0.742   2.812  17.479
  633MPD2    C1 9370   0.767   2.747  17.359
  633MPD2    C2 9371   0.758   2.609  17.359
  633MPD2    C3 9372   0.736   2.535  17.474
  633MPD2    C4 9373   0.712   2.602  17.586
  633MPD2    C5 9374   0.721   2.739  17.586
  633MPD2     H 9375   0.762   2.559  17.263
  633MPD2    H1 9376   0.692   2.555  17.681
  633MPD2    H2 9377   0.762   2.919  17.485
  633MPD2    H3 9378   0.702   2.801  17.672
  633MPD2     N 9379   0.741   2.393  17.487
  633MPD2    H5 9380   0.717   2.366  17.582
  633MPD2    N1 9381   0.805   2.803  17.236
  633MPD2    H7 9382   0.839   2.745  17.160
  634TMC3    C1 9383   0.871   2.973  17.096
  634TMC3    C2 9384   0.900   2.881  16.994
  634TMC3    C3 9385   0.954   2.922  16.874
  634TMC3    C4 9386   0.872   3.100  17.062
  634TMC3    C5 9387   0.914   3.142  16.935
  634TMC3    C6 9388   0.968   3.056  16.842
  634TMC3     C 9389   0.829   2.937  17.229
  634TMC3     O 9390   0.809   3.025  17.306
  634TMC3     H 9391   0.895   2.773  17.001
  634TMC3    H1 9392   0.853   3.170  17.142
  634TMC3    H2 9393   1.020   3.101  16.759
  634TMC3    C7 9394   0.892   3.277  16.900
  634TMC3    C8 9395   1.042   2.829  16.801
  634TMC3    O1 9396   0.960   3.320  16.802
  634TMC3    O2 9397   1.080   2.732  16.866
  635TMC3    C1 9398   0.905   4.313  17.882
  635TMC3    C2 9399   0.922   4.182  17.855
  635TMC3    C3 9400   0.821   4.100  17.874
  635TMC3    C4 9401   0.787   4.364  17.925
  635TMC3    C5 9402   0.681   4.281  17.926
  635TMC3    C6 9403   0.698   4.148  17.894
  635TMC3     C 9404   1.026   4.396  17.899
  635TMC3     O 9405   1.022   4.468  17.994
  635TMC3     H 9406   1.017   4.136  17.828
  635TMC3    H1 9407   0.774   4.470  17.940
  635TMC3    H2 9408   0.611   4.083  17.893
  635TMC3    C7 9409   0.554   4.340  17.915
  635TMC3    C8 9410   0.838   3.953  17.852
  635TMC3    O1 9411   0.471   4.303  17.830
  635TMC3    O2 9412   0.927   3.914  17.775
  636MPD2     C 9413   1.805   3.357  16.484
  636MPD2    C1 9414   1.918   3.401  16.549
  636MPD2    C2 9415   2.009   3.304  16.590
  636MPD2    C3 9416   1.992   3.168  16.548
  636MPD2    C4 9417   1.874   3.130  16.478
  636MPD2    C5 9418   1.787   3.227  16.454
  636MPD2     H 9419   2.102   3.326  16.641
  636MPD2    H1 9420   1.860   3.026  16.450
  636MPD2    H2 9421   1.739   3.435  16.447
  636MPD2    H3 9422   1.695   3.200  16.402
  636MPD2     N 9423   2.087   3.076  16.599
  636MPD2    H5 9424   2.154   3.113  16.666
  636MPD2    N1 9425   1.951   3.534  16.594
  636MPD2    H7 9426   2.034   3.550  16.651
  637TMC3    C1 9427   2.203   2.878  16.631
  637TMC3    C2 9428   2.269   2.952  16.725
  637TMC3    C3 9429   2.400   2.926  16.745
  637TMC3    C4 9430   2.264   2.778  16.560
  637TMC3    C5 9431   2.393   2.753  16.586
  637TMC3    C6 9432   2.464   2.818  16.685
  637TMC3     C 9433   2.097   2.940  16.559
  637TMC3     O 9434   2.043   2.876  16.470
  637TMC3     H 9435   2.226   3.029  16.787
  637TMC3    H1 9436   2.204   2.720  16.491
  637TMC3    H2 9437   2.572   2.812  16.689
  637TMC3    C7 9438   2.473   2.720  16.468
  637TMC3    C8 9439   2.467   3.051  16.721
  637TMC3    O1 9440   2.589   2.752  16.467
  637TMC3    O2 9441   2.399   3.127  16.648
  638MPD2     C 9442   1.823   2.153  15.356
  638MPD2    C1 9443   1.793   2.047  15.274
  638MPD2    C2 9444   1.746   1.937  15.343
  638MPD2    C3 9445   1.726   1.936  15.476
  638MPD2    C4 9446   1.755   2.043  15.550
  638MPD2    C5 9447   1.804   2.155  15.492
  638MPD2     H 9448   1.714   1.848  15.290
  638MPD2    H1 9449   1.726   2.048  15.654
  638MPD2    H2 9450   1.856   2.246  15.313
  638MPD2    H3 9451   1.832   2.242  15.551
  638MPD2     N 9452   1.667   1.819  15.534
  638MPD2    H5 9453   1.665   1.737  15.474
  638MPD2    N1 9454   1.824   2.048  15.138
  638MPD2    H7 9455   1.863   2.133  15.100
  639TMC3    C1 9456   1.620   1.643  15.667
  639TMC3    C2 9457   1.564   1.584  15.558
  639TMC3    C3 9458   1.589   1.451  15.534
  639TMC3    C4 9459   1.693   1.564  15.751
  639TMC3    C5 9460   1.709   1.428  15.725
  639TMC3    C6 9461   1.672   1.380  15.605
  639TMC3     C 9462   1.646   1.789  15.662
  639TMC3     O 9463   1.680   1.858  15.761
  639TMC3     H 9464   1.491   1.640  15.502
  639TMC3    H1 9465   1.747   1.599  15.839
  639TMC3    H2 9466   1.681   1.273  15.588
  639TMC3    C7 9467   1.823   1.359  15.782
  639TMC3    C8 9468   1.525   1.383  15.428
  639TMC3    O1 9469   1.821   1.345  15.902
  639TMC3    O2 9470   1.568   1.275  15.390
  640MPD2     C 9471   2.784   1.258  10.296
  640MPD2    C1 9472   2.682   1.219  10.211
  640MPD2    C2 9473   2.553   1.258  10.241
  640MPD2    C3 9474   2.528   1.341  10.353
  640MPD2    C4 9475   2.628   1.379  10.435
  640MPD2    C5 9476   2.759   1.338  10.404
  640MPD2     H 9477   2.475   1.229  10.173
  640MPD2    H1 9478   2.616   1.436  10.526
  640MPD2    H2 9479   2.885   1.231  10.269
  640MPD2    H3 9480   2.848   1.369  10.457
  640MPD2     N 9481   2.398   1.385  10.392
  640MPD2    H5 9482   2.393   1.431  10.483
  640MPD2    N1 9483   2.711   1.144  10.094
  640MPD2    H7 9484   2.802   1.099  10.095
  641TMC3    C1 9485   2.654   1.021   9.896
  641TMC3    C2 9486   2.757   0.929   9.918
  641TMC3    C3 9487   2.785   0.838   9.814
  641TMC3    C4 9488   2.577   1.012   9.785
  641TMC3    C5 9489   2.600   0.917   9.687
  641TMC3    C6 9490   2.710   0.832   9.698
  641TMC3     C 9491   2.630   1.137   9.984
  641TMC3     O 9492   2.537   1.209   9.954
  641TMC3     H 9493   2.814   0.934  10.010
  641TMC3    H1 9494   2.499   1.086   9.770
  641TMC3    H2 9495   2.725   0.757   9.621
  641TMC3    C7 9496   2.500   0.915   9.584
  641TMC3    C8 9497   2.869   0.724   9.839
  641TMC3    O1 9498   2.415   1.002   9.583
  641TMC3    O2 9499   2.862   0.634   9.756
  642TMC3    C1 9500   3.456   1.992  12.769
  642TMC3    C2 9501   3.583   2.020  12.812
  642TMC3    C3 9502   3.630   1.914  12.881
  642TMC3    C4 9503   3.379   1.875  12.793
  642TMC3    C5 9504   3.446   1.774  12.851
  642TMC3    C6 9505   3.566   1.792  12.911
  642TMC3     C 9506   3.396   2.113  12.712
  642TMC3     O 9507   3.458   2.187  12.636
  642TMC3     H 9508   3.641   2.107  12.784
  642TMC3    H1 9509   3.294   1.867  12.726
  642TMC3    H2 9510   3.618   1.714  12.966
  642TMC3    C7 9511   3.393   1.645  12.812
  642TMC3    C8 9512   3.759   1.925  12.934
  642TMC3    O1 9513   3.323   1.636  12.712
  642TMC3    O2 9514   3.781   1.856  13.034
  643TMC3    C1 9515   2.919   1.214  18.259
  643TMC3    C2 9516   2.820   1.247  18.168
  643TMC3    C3 9517   2.745   1.148  18.108
  643TMC3    C4 9518   2.932   1.086  18.307
  643TMC3    C5 9519   2.854   0.988  18.245
  643TMC3    C6 9520   2.767   1.019  18.138
  643TMC3     C 9521   2.986   1.327  18.331
  643TMC3     O 9522   2.978   1.434  18.280
  643TMC3     H 9523   2.805   1.354  18.154
  643TMC3    H1 9524   3.011   1.057  18.375
  643TMC3    H2 9525   2.696   0.944  18.106
  643TMC3    C7 9526   2.879   0.855  18.290
  643TMC3    C8 9527   2.687   1.167  17.978
  643TMC3    O1 9528   2.921   0.835  18.403
  643TMC3    O2 9529   2.614   1.086  17.921
  644MPD2     C 9530   2.792   1.646   9.868
  644MPD2    C1 9531   2.704   1.566   9.805
  644MPD2    C2 9532   2.569   1.591   9.787
  644MPD2    C3 9533   2.528   1.721   9.826
  644MPD2    C4 9534   2.623   1.809   9.879
  644MPD2    C5 9535   2.748   1.771   9.908
  644MPD2     H 9536   2.500   1.520   9.743
  644MPD2    H1 9537   2.593   1.908   9.910
  644MPD2    H2 9538   2.892   1.612   9.891
  644MPD2    H3 9539   2.822   1.834   9.955
  644MPD2     N 9540   2.396   1.746   9.802
  644MPD2    H5 9541   2.335   1.672   9.768
  644MPD2    N1 9542   2.767   1.446   9.757
  644MPD2    H7 9543   2.862   1.431   9.791
  645TMC3    C1 9544   2.206   1.883   9.759
  645TMC3    C2 9545   2.138   1.994   9.785
  645TMC3    C3 9546   2.024   2.018   9.711
  645TMC3    C4 9547   2.167   1.789   9.665
  645TMC3    C5 9548   2.054   1.818   9.597
  645TMC3    C6 9549   1.985   1.937   9.612
  645TMC3     C 9550   2.343   1.872   9.810
  645TMC3     O 9551   2.391   1.979   9.843
  645TMC3     H 9552   2.181   2.063   9.857
  645TMC3    H1 9553   2.226   1.704   9.631
  645TMC3    H2 9554   1.899   1.956   9.548
  645TMC3    C7 9555   2.019   1.746   9.478
  645TMC3    C8 9556   1.982   2.159   9.716
  645TMC3    O1 9557   1.962   1.810   9.389
  645TMC3    O2 9558   2.068   2.243   9.733
  646MPD2     C 9559   1.929   0.589  14.923
  646MPD2    C1 9560   1.879   0.648  15.037
  646MPD2    C2 9561   1.776   0.747  15.031
  646MPD2    C3 9562   1.722   0.781  14.907
  646MPD2    C4 9563   1.770   0.709  14.799
  646MPD2    C5 9564   1.873   0.622  14.806
  646MPD2     H 9565   1.735   0.790  15.122
  646MPD2    H1 9566   1.733   0.725  14.698
  646MPD2    H2 9567   2.010   0.517  14.923
  646MPD2    H3 9568   1.920   0.577  14.719
  646MPD2     N 9569   1.621   0.882  14.889
  646MPD2    H5 9570   1.581   0.929  14.969
  646MPD2    N1 9571   1.952   0.613  15.151
  646MPD2    H7 9572   2.042   0.566  15.147
  647TMC3    C1 9573   2.034   0.614  15.375
  647TMC3    C2 9574   2.005   0.613  15.511
  647TMC3    C3 9575   2.108   0.579  15.594
  647TMC3    C4 9576   2.167   0.591  15.327
  647TMC3    C5 9577   2.274   0.592  15.422
  647TMC3    C6 9578   2.241   0.588  15.555
  647TMC3     C 9579   1.923   0.644  15.284
  647TMC3     O 9580   1.816   0.695  15.323
  647TMC3     H 9581   1.902   0.617  15.545
  647TMC3    H1 9582   2.188   0.595  15.220
  647TMC3    H2 9583   2.314   0.567  15.632
  647TMC3    C7 9584   2.396   0.531  15.386
  647TMC3    C8 9585   2.099   0.455  15.664
  647TMC3    O1 9586   2.487   0.550  15.462
  647TMC3    O2 9587   2.197   0.385  15.669
  648TMC3    C1 9588   1.418   3.053  16.504
  648TMC3    C2 9589   1.497   2.940  16.508
  648TMC3    C3 9590   1.545   2.899  16.391
  648TMC3    C4 9591   1.393   3.116  16.389
  648TMC3    C5 9592   1.422   3.068  16.267
  648TMC3    C6 9593   1.502   2.952  16.270
  648TMC3     C 9594   1.392   3.122  16.623
  648TMC3     O 9595   1.388   3.245  16.619
  648TMC3     H 9596   1.540   2.906  16.601
  648TMC3    H1 9597   1.322   3.198  16.391
  648TMC3    H2 9598   1.524   2.895  16.181
  648TMC3    C7 9599   1.384   3.129  16.143
  648TMC3    C8 9600   1.632   2.785  16.408
  648TMC3    O1 9601   1.457   3.118  16.043
  648TMC3    O2 9602   1.648   2.746  16.523
  649TMC3    C1 9603   0.311   4.385  12.751
  649TMC3    C2 9604   0.442   4.425  12.758
  649TMC3    C3 9605   0.513   4.406  12.871
  649TMC3    C4 9606   0.245   4.324  12.855
  649TMC3    C5 9607   0.323   4.307  12.971
  649TMC3    C6 9608   0.460   4.338  12.975
  649TMC3     C 9609   0.227   4.399  12.637
  649TMC3     O 9610   0.108   4.405  12.661
  649TMC3     H 9611   0.490   4.468  12.671
  649TMC3    H1 9612   0.146   4.281  12.857
  649TMC3    H2 9613   0.524   4.314  13.059
  649TMC3    C7 9614   0.253   4.230  13.074
  649TMC3    C8 9615   0.654   4.401  12.865
  649TMC3    O1 9616   0.128   4.232  13.078
  649TMC3    O2 9617   0.717   4.325  12.940
  650TMC3    C1 9618   3.050   1.225  13.074
  650TMC3    C2 9619   3.008   1.344  13.126
  650TMC3    C3 9620   2.894   1.400  13.067
  650TMC3    C4 9621   2.987   1.164  12.968
  650TMC3    C5 9622   2.878   1.226  12.911
  650TMC3    C6 9623   2.828   1.347  12.954
  650TMC3     C 9624   3.169   1.162  13.141
  650TMC3     O 9625   3.230   1.238  13.218
  650TMC3     H 9626   3.033   1.376  13.227
  650TMC3    H1 9627   3.028   1.075  12.921
  650TMC3    H2 9628   2.739   1.394  12.914
  650TMC3    C7 9629   2.868   1.199  12.770
  650TMC3    C8 9630   2.837   1.515  13.123
  650TMC3    O1 9631   2.907   1.090  12.730
  650TMC3    O2 9632   2.911   1.602  13.160
  651MPD2     C 9633   1.541   3.367  10.786
  651MPD2    C1 9634   1.507   3.493  10.835
  651MPD2    C2 9635   1.614   3.563  10.884
  651MPD2    C3 9636   1.744   3.524  10.872
  651MPD2    C4 9637   1.769   3.403  10.812
  651MPD2    C5 9638   1.669   3.326  10.771
  651MPD2     H 9639   1.591   3.660  10.927
  651MPD2    H1 9640   1.870   3.366  10.802
  651MPD2    H2 9641   1.461   3.306  10.745
  651MPD2    H3 9642   1.689   3.233  10.718
  651MPD2     N 9643   1.840   3.610  10.931
  651MPD2    H5 9644   1.801   3.690  10.980
  651MPD2    N1 9645   1.371   3.541  10.862
  651MPD2    H7 9646   1.368   3.632  10.907
  652TMC3    C1 9647   2.255   3.785  11.050
  652TMC3    C2 9648   2.181   3.673  11.025
  652TMC3    C3 9649   2.051   3.695  10.986
  652TMC3    C4 9650   2.218   3.914  11.034
  652TMC3    C5 9651   2.089   3.928  10.990
  652TMC3    C6 9652   2.007   3.820  10.972
  652TMC3     C 9653   2.378   3.747  11.123
  652TMC3     O 9654   2.366   3.668  11.215
  652TMC3     H 9655   2.223   3.574  11.043
  652TMC3    H1 9656   2.279   4.002  11.051
  652TMC3    H2 9657   1.916   3.838  10.915
  652TMC3    C7 9658   2.022   4.051  11.030
  652TMC3    C8 9659   1.977   3.589  10.920
  652TMC3    O1 9660   1.900   4.045  11.034
  652TMC3    O2 9661   2.046   3.492  10.885
  653MPD2     C 9662   0.394   3.200  17.951
  653MPD2    C1 9663   0.340   3.271  17.855
  653MPD2    C2 9664   0.330   3.206  17.731
  653MPD2    C3 9665   0.348   3.070  17.716
  653MPD2    C4 9666   0.388   2.999  17.825
  653MPD2    C5 9667   0.415   3.061  17.935
  653MPD2     H 9668   0.290   3.254  17.642
  653MPD2    H1 9669   0.389   2.891  17.829
  653MPD2    H2 9670   0.431   3.248  18.041
  653MPD2    H3 9671   0.439   3.006  18.026
  653MPD2     N 9672   0.325   3.013  17.589
  653MPD2    H5 9673   0.303   3.066  17.505
  653MPD2    N1 9674   0.295   3.404  17.869
  653MPD2    H7 9675   0.288   3.445  17.776
  654TMC3    C1 9676   0.295   2.824  17.439
  654TMC3    C2 9677   0.202   2.890  17.363
  654TMC3    C3 9678   0.159   2.828  17.244
  654TMC3    C4 9679   0.348   2.701  17.407
  654TMC3    C5 9680   0.318   2.662  17.280
  654TMC3    C6 9681   0.227   2.719  17.198
  654TMC3     C 9682   0.334   2.874  17.572
  654TMC3     O 9683   0.368   2.782  17.642
  654TMC3     H 9684   0.139   2.971  17.398
  654TMC3    H1 9685   0.424   2.648  17.465
  654TMC3    H2 9686   0.209   2.674  17.101
  654TMC3    C7 9687   0.385   2.546  17.224
  654TMC3    C8 9688   0.049   2.880  17.169
  654TMC3    O1 9689   0.410   2.547  17.106
  654TMC3    O2 9690   0.006   2.994  17.191
  655MPD2     C 9691   1.949   3.085  15.854
  655MPD2    C1 9692   1.856   3.157  15.783
  655MPD2    C2 9693   1.827   3.125  15.653
  655MPD2    C3 9694   1.880   3.009  15.598
  655MPD2    C4 9695   1.971   2.941  15.674
  655MPD2    C5 9696   2.014   2.984  15.791
  655MPD2     H 9697   1.749   3.177  15.599
  655MPD2    H1 9698   2.025   2.851  15.646
  655MPD2    H2 9699   1.979   3.100  15.957
  655MPD2    H3 9700   2.096   2.938  15.846
  655MPD2     N 9701   1.842   2.949  15.472
  655MPD2    H5 9702   1.872   2.853  15.459
  655MPD2    N1 9703   1.774   3.258  15.852
  655MPD2    H7 9704   1.704   3.295  15.789
  656TMC3    C1 9705   1.693   3.411  16.014
  656TMC3    C2 9706   1.644   3.421  16.144
  656TMC3    C3 9707   1.579   3.538  16.180
  656TMC3    C4 9708   1.678   3.504  15.918
  656TMC3    C5 9709   1.613   3.618  15.964
  656TMC3    C6 9710   1.563   3.637  16.091
  656TMC3     C 9711   1.773   3.294  15.986
  656TMC3     O 9712   1.837   3.246  16.076
  656TMC3     H 9713   1.653   3.342  16.217
  656TMC3    H1 9714   1.728   3.502  15.822
  656TMC3    H2 9715   1.545   3.738  16.127
  656TMC3    C7 9716   1.559   3.709  15.862
  656TMC3    C8 9717   1.478   3.516  16.285
  656TMC3    O1 9718   1.627   3.714  15.760
  656TMC3    O2 9719   1.483   3.404  16.337
  657TMC3    C1 9720   0.635   2.719  15.245
  657TMC3    C2 9721   0.728   2.784  15.318
  657TMC3    C3 9722   0.731   2.922  15.305
  657TMC3    C4 9723   0.552   2.787  15.163
  657TMC3    C5 9724   0.563   2.922  15.152
  657TMC3    C6 9725   0.655   2.997  15.214
  657TMC3     C 9726   0.617   2.576  15.253
  657TMC3     O 9727   0.509   2.531  15.208
  657TMC3     H 9728   0.766   2.722  15.399
  657TMC3    H1 9729   0.483   2.727  15.106
  657TMC3    H2 9730   0.656   3.106  15.210
  657TMC3    C7 9731   0.473   2.982  15.061
  657TMC3    C8 9732   0.784   2.998  15.418
  657TMC3    O1 9733   0.367   2.923  15.047
  657TMC3    O2 9734   0.770   3.118  15.411
  658MPD2     C 9735   2.269   2.734  15.004
  658MPD2    C1 9736   2.141   2.724  14.954
  658MPD2    C2 9737   2.138   2.684  14.819
  658MPD2    C3 9738   2.250   2.645  14.746
  658MPD2    C4 9739   2.378   2.654  14.804
  658MPD2    C5 9740   2.383   2.690  14.937
  658MPD2     H 9741   2.045   2.687  14.763
  658MPD2    H1 9742   2.469   2.628  14.751
  658MPD2    H2 9743   2.282   2.742  15.111
  658MPD2    H3 9744   2.478   2.678  14.988
  658MPD2     N 9745   2.233   2.614  14.610
  658MPD2    H5 9746   2.140   2.618  14.571
  658MPD2    N1 9747   2.031   2.754  15.037
  658MPD2    H7 9748   2.057   2.788  15.129
  659TMC3    C1 9749   1.802   2.784  15.091
  659TMC3    C2 9750   1.830   2.849  15.210
  659TMC3    C3 9751   1.735   2.929  15.264
  659TMC3    C4 9752   1.677   2.789  15.039
  659TMC3    C5 9753   1.580   2.869  15.103
  659TMC3    C6 9754   1.607   2.942  15.213
  659TMC3     C 9755   1.896   2.741  14.995
  659TMC3     O 9756   1.854   2.673  14.907
  659TMC3     H 9757   1.932   2.845  15.246
  659TMC3    H1 9758   1.653   2.758  14.938
  659TMC3    H2 9759   1.532   3.010  15.251
  659TMC3    C7 9760   1.447   2.892  15.038
  659TMC3    C8 9761   1.773   3.015  15.373
  659TMC3    O1 9762   1.384   2.985  15.089
  659TMC3    O2 9763   1.730   3.131  15.373
  660MPD2     C 9764   0.096   1.994  12.834
  660MPD2    C1 9765   4.779   2.049  12.865
  660MPD2    C2 9766   4.719   2.004  12.983
  660MPD2    C3 9767   4.772   1.903  13.058
  660MPD2    C4 9768   0.090   1.857  13.024
  660MPD2    C5 9769   0.153   1.897  12.917
  660MPD2     H 9770   4.618   2.035  13.006
  660MPD2    H1 9771   0.139   1.777  13.080
  660MPD2    H2 9772   0.147   2.014  12.741
  660MPD2    H3 9773   0.246   1.849  12.887
  660MPD2     N 9774   4.703   1.838  13.169
  660MPD2    H5 9775   4.755   1.763  13.215
  660MPD2    N1 9776   4.732   2.154  12.779
  660MPD2    H7 9777   4.777   2.181  12.692
  661TMC3    C1 9778   4.570   2.306  12.690
  661TMC3    C2 9779   4.629   2.313  12.567
  661TMC3    C3 9780   4.592   2.402  12.477
  661TMC3    C4 9781   4.482   2.407  12.727
  661TMC3    C5 9782   4.439   2.491  12.625
  661TMC3    C6 9783   4.497   2.489  12.503
  661TMC3     C 9784   4.616   2.223  12.803
  661TMC3     O 9785   4.557   2.244  12.907
  661TMC3     H 9786   4.704   2.241  12.536
  661TMC3    H1 9787   4.419   2.399  12.815
  661TMC3    H2 9788   4.454   2.545  12.421
  661TMC3    C7 9789   4.292   2.500  12.623
  661TMC3    C8 9790   4.665   2.415  12.353
  661TMC3    O1 9791   4.246   2.554  12.726
  661TMC3    O2 9792   4.733   2.317  12.317
  662MPD2     C 9793   0.189   1.869  17.460
  662MPD2    C1 9794   0.165   1.784  17.569
  662MPD2    C2 9795   0.137   1.832  17.699
  662MPD2    C3 9796   0.112   1.969  17.718
  662MPD2    C4 9797   0.128   2.053  17.602
  662MPD2    C5 9798   0.163   2.000  17.478
  662MPD2     H 9799   0.145   1.765  17.784
  662MPD2    H1 9800   0.115   2.160  17.611
  662MPD2    H2 9801   0.190   1.833  17.358
  662MPD2    H3 9802   0.170   2.067  17.393
  662MPD2     N 9803   0.050   2.018  17.831
  662MPD2    H5 9804   4.803   2.104  17.816
  662MPD2    N1 9805   0.159   1.638  17.559
  662MPD2    H7 9806   0.126   1.590  17.642
  663TMC3    C1 9807   0.119   1.440  17.454
  663TMC3    C2 9808   0.015   1.432  17.543
  663TMC3    C3 9809   4.770   1.307  17.566
  663TMC3    C4 9810   0.167   1.345  17.377
  663TMC3    C5 9811   0.116   1.214  17.407
  663TMC3    C6 9812   0.019   1.197  17.503
  663TMC3     C 9813   0.183   1.565  17.444
  663TMC3     O 9814   0.224   1.603  17.334
  663TMC3     H 9815   4.777   1.508  17.608
  663TMC3    H1 9816   0.237   1.359  17.295
  663TMC3    H2 9817   4.779   1.099  17.514
  663TMC3    C7 9818   0.149   1.108  17.305
  663TMC3    C8 9819   4.650   1.281  17.645
  663TMC3    O1 9820   0.213   1.134  17.203
  663TMC3    O2 9821   4.589   1.177  17.617
  664MPD2     C 9822   2.656   4.348  17.537
  664MPD2    C1 9823   2.718   4.452  17.604
  664MPD2    C2 9824   2.697   4.471  17.739
  664MPD2    C3 9825   2.605   4.391  17.814
  664MPD2    C4 9826   2.555   4.280  17.749
  664MPD2    C5 9827   2.573   4.267  17.612
  664MPD2     H 9828   2.760   4.541  17.793
  664MPD2    H1 9829   2.485   4.208  17.791
  664MPD2    H2 9830   2.677   4.330  17.432
  664MPD2    H3 9831   2.531   4.175  17.571
  664MPD2     N 9832   2.605   4.405  17.952
  664MPD2    H5 9833   2.636   4.495  17.988
  664MPD2    N1 9834   2.801   4.542  17.536
  664MPD2    H7 9835   2.836   4.623  17.585
  665TMC3    C1 9836   2.593   4.348  18.177
  665TMC3    C2 9837   2.542   4.265  18.277
  665TMC3    C3 9838   2.610   4.267  18.395
  665TMC3    C4 9839   2.707   4.425  18.202
  665TMC3    C5 9840   2.757   4.431  18.329
  665TMC3    C6 9841   2.711   4.348  18.424
  665TMC3     C 9842   2.568   4.304  18.041
  665TMC3     O 9843   2.513   4.196  18.019
  665TMC3     H 9844   2.450   4.209  18.267
  665TMC3    H1 9845   2.757   4.479  18.123
  665TMC3    H2 9846   2.756   4.343  18.522
  665TMC3    C7 9847   2.787   4.569  18.365
  665TMC3    C8 9848   2.523   4.255  18.512
  665TMC3    O1 9849   2.819   4.652  18.278
  665TMC3    O2 9850   2.557   4.322  18.611
  666TMC3    C1 9851   1.652   0.037  10.411
  666TMC3    C2 9852   1.635   4.799  10.286
  666TMC3    C3 9853   1.662   0.067  10.182
  666TMC3    C4 9854   1.700   0.162  10.433
  666TMC3    C5 9855   1.722   0.240  10.328
  666TMC3    C6 9856   1.703   0.199  10.197
  666TMC3     C 9857   1.680   4.742  10.512
  666TMC3     O 9858   1.714   4.787  10.617
  666TMC3     H 9859   1.603   4.699  10.261
  666TMC3    H1 9860   1.719   0.199  10.533
  666TMC3    H2 9861   1.722   0.268  10.116
  666TMC3    C7 9862   1.807   0.349  10.358
  666TMC3    C8 9863   1.655   0.006  10.049
  666TMC3    O1 9864   1.808   0.390  10.475
  666TMC3    O2 9865   1.549   4.753  10.025
  667MPD2     C 9866   3.577   4.422  14.982
  667MPD2    C1 9867   3.499   4.499  15.067
  667MPD2    C2 9868   3.373   4.450  15.083
  667MPD2    C3 9869   3.327   4.334  15.028
  667MPD2    C4 9870   3.407   4.264  14.939
  667MPD2    C5 9871   3.530   4.311  14.915
  667MPD2     H 9872   3.309   4.516  15.142
  667MPD2    H1 9873   3.365   4.174  14.894
  667MPD2    H2 9874   3.678   4.456  14.963
  667MPD2    H3 9875   3.582   4.269  14.829
  667MPD2     N 9876   3.197   4.292  15.050
  667MPD2    H5 9877   3.164   4.213  14.994
  667MPD2    N1 9878   3.535   4.630  15.115
  667MPD2    H7 9879   3.469   4.670  15.181
  668TMC3    C1 9880   3.673   4.791  15.199
  668TMC3    C2 9881   3.784   0.069  15.165
  668TMC3    C3 9882   3.885   0.084  15.262
  668TMC3    C4 9883   3.672   4.734  15.322
  668TMC3    C5 9884   3.779   4.739  15.402
  668TMC3    C6 9885   3.878   0.019  15.385
  668TMC3     C 9886   3.647   4.711  15.086
  668TMC3     O 9887   3.741   4.678  15.014
  668TMC3     H 9888   3.778   0.126  15.073
  668TMC3    H1 9889   3.600   4.655  15.341
  668TMC3    H2 9890   3.962   0.028  15.453
  668TMC3    C7 9891   3.764   4.695  15.544
  668TMC3    C8 9892   3.955   0.209  15.258
  668TMC3    O1 9893   3.871   4.646  15.592
  668TMC3    O2 9894   4.011   0.235  15.365
  669TMC3    C1 9895   1.653   4.552  14.936
  669TMC3    C2 9896   1.553   4.539  14.846
  669TMC3    C3 9897   1.573   4.593  14.724
  669TMC3    C4 9898   1.766   4.631  14.910
  669TMC3    C5 9899   1.789   4.666  14.780
  669TMC3    C6 9900   1.678   4.671  14.692
  669TMC3     C 9901   1.639   4.480  15.058
  669TMC3     O 9902   1.523   4.453  15.090
  669TMC3     H 9903   1.456   4.498  14.870
  669TMC3    H1 9904   1.844   4.642  14.985
  669TMC3    H2 9905   1.704   4.690  14.589
  669TMC3    C7 9906   1.889   4.768  14.751
  669TMC3    C8 9907   1.466   4.605  14.645
  669TMC3    O1 9908   1.917   0.040  14.840
  669TMC3    O2 9909   1.376   4.522  14.642
  670MPD2     C 9910   0.320   2.352  13.591
  670MPD2    C1 9911   0.381   2.323  13.708
  670MPD2    C2 9912   0.303   2.302  13.826
  670MPD2    C3 9913   0.165   2.298  13.811
  670MPD2    C4 9914   0.111   2.328  13.683
  670MPD2    C5 9915   0.186   2.360  13.578
  670MPD2     H 9916   0.350   2.275  13.920
  670MPD2    H1 9917   0.004   2.315  13.668
  670MPD2    H2 9918   0.384   2.375  13.506
  670MPD2    H3 9919   0.150   2.397  13.482
  670MPD2     N 9920   0.082   2.279  13.929
  670MPD2    H5 9921   0.137   2.252  14.011
  670MPD2    N1 9922   0.522   2.325  13.729
  670MPD2    H7 9923   0.547   2.303  13.825
  671TMC3    C1 9924   4.708   2.282  14.077
  671TMC3    C2 9925   4.801   2.258  14.179
  671TMC3    C3 9926   4.750   2.178  14.280
  671TMC3    C4 9927   4.580   2.238  14.074
  671TMC3    C5 9928   4.547   2.153  14.176
  671TMC3    C6 9929   4.624   2.124  14.280
  671TMC3     C 9930   4.755   2.306  13.938
  671TMC3     O 9931   4.679   2.356  13.853
  671TMC3     H 9932   0.103   2.278  14.174
  671TMC3    H1 9933   4.525   2.247  13.981
  671TMC3    H2 9934   4.603   2.049  14.356
  671TMC3    C7 9935   4.483   2.040  14.120
  671TMC3    C8 9936   0.046   2.095  14.346
  671TMC3    O1 9937   4.500   2.014  14.000
  671TMC3    O2 9938   0.137   2.060  14.275
  672MPD2     C 9939   0.533   3.324  19.402
  672MPD2    C1 9940   0.605   3.294  19.289
  672MPD2    C2 9941   0.733   3.332  19.270
  672MPD2    C3 9942   0.799   3.407  19.365
  672MPD2    C4 9943   0.728   3.441  19.478
  672MPD2    C5 9944   0.594   3.409  19.495
  672MPD2     H 9945   0.780   3.299  19.178
  672MPD2    H1 9946   0.778   3.495  19.557
  672MPD2    H2 9947   0.430   3.291  19.409
  672MPD2    H3 9948   0.527   3.444  19.573
  672MPD2     N 9949   0.944   3.440  19.372
  672MPD2    H5 9950   0.978   3.511  19.436
  672MPD2    N1 9951   0.569   3.203  19.193
  672MPD2    H7 9952   0.643   3.166  19.134
  673TMC3    C1 9953   0.452   3.034  19.091
  673TMC3    C2 9954   0.571   2.971  19.088
  673TMC3    C3 9955   0.594   2.876  18.988
  673TMC3    C4 9956   0.359   3.040  18.989
  673TMC3    C5 9957   0.381   2.940  18.898
  673TMC3    C6 9958   0.494   2.858  18.897
  673TMC3     C 9959   0.446   3.148  19.183
  673TMC3     O 9960   0.331   3.177  19.219
  673TMC3     H 9961   0.626   2.961  19.181
  673TMC3    H1 9962   0.260   3.082  19.000
  673TMC3    H2 9963   0.488   2.772  18.832
  673TMC3    C7 9964   0.260   2.885  18.847
  673TMC3    C8 9965   0.694   2.771  18.995
  673TMC3    O1 9966   0.229   2.765  18.876
  673TMC3    O2 9967   0.660   2.670  18.936
  674MPD2     C 9968   0.333   2.116  18.148
  674MPD2    C1 9969   0.252   2.107  18.259
  674MPD2    C2 9970   0.191   2.219  18.308
  674MPD2    C3 9971   0.209   2.334  18.241
  674MPD2    C4 9972   0.291   2.342  18.127
  674MPD2    C5 9973   0.353   2.231  18.084
  674MPD2     H 9974   0.123   2.215  18.392
  674MPD2    H1 9975   0.300   2.440  18.083
  674MPD2    H2 9976   0.378   2.027  18.106
  674MPD2    H3 9977   0.420   2.239  17.999
  674MPD2     N 9978   0.159   2.449  18.309
  674MPD2    H5 9979   0.111   2.433  18.397
  674MPD2    N1 9980   0.226   1.981  18.310
  674MPD2    H7 9981   0.245   1.910  18.240
  675TMC3    C1 9982   0.193   2.035  18.555
  675TMC3    C2 9983   0.122   2.001  18.668
  675TMC3    C3 9984   0.139   2.079  18.779
  675TMC3    C4 9985   0.291   2.132  18.562
  675TMC3    C5 9986   0.316   2.190  18.683
  675TMC3    C6 9987   0.235   2.176  18.789
  675TMC3     C 9988   0.162   1.948  18.432
  675TMC3     O 9989   0.104   1.840  18.460
  675TMC3     H 9990   0.041   1.930  18.661
  675TMC3    H1 9991   0.364   2.133  18.482
  675TMC3    H2 9992   0.262   2.223  18.882
  675TMC3    C7 9993   0.390   2.317  18.674
  675TMC3    C8 9994   0.060   2.039  18.888
  675TMC3    O1 9995   0.410   2.372  18.780
  675TMC3    O2 9996   0.022   1.920  18.885
  676MPD2     C 9997   3.455   0.856  11.531
  676MPD2    C1 9998   3.318   0.833  11.524
  676MPD2    C2 9999   3.270   0.734  11.447
  676MPD2    C310000   3.352   0.657  11.367
  676MPD2    C410001   3.490   0.674  11.382
  676MPD2    C510002   3.541   0.781  11.453
  676MPD2     H10003   3.162   0.728  11.435
  676MPD2    H110004   3.558   0.610  11.326
  676MPD2    H210005   3.499   0.935  11.592
  676MPD2    H310006   3.649   0.795  11.458
  676MPD2     N10007   3.306   0.553  11.281
  676MPD2    H510008   3.383   0.504  11.237
  676MPD2    N110009   3.221   0.910  11.586
  676MPD2    H710010   3.129   0.869  11.577
  677TMC3    C110011   3.128   1.089  11.714
  677TMC3    C210012   3.009   1.012  11.717
  677TMC3    C310013   2.899   1.070  11.775
  677TMC3    C410014   3.141   1.207  11.775
  677TMC3    C510015   3.027   1.260  11.832
  677TMC3    C610016   2.902   1.198  11.826
  677TMC3     C10017   3.240   1.037  11.639
  677TMC3     O10018   3.339   1.103  11.617
  677TMC3     H10019   2.985   0.918  11.669
  677TMC3    H110020   3.237   1.256  11.778
  677TMC3    H210021   2.821   1.259  11.864
  677TMC3    C710022   3.034   1.383  11.906
  677TMC3    C810023   2.822   0.968  11.854
  677TMC3    O110024   2.940   1.403  11.982
  677TMC3    O210025   2.858   0.852  11.856
  678MPD2     C10026   4.336   0.646  19.175
  678MPD2    C110027   4.351   0.754  19.095
  678MPD2    C210028   4.249   0.777  19.007
  678MPD2    C310029   4.132   0.702  18.998
  678MPD2    C410030   4.122   0.591  19.078
  678MPD2    C510031   4.229   0.564  19.161
  678MPD2     H10032   4.260   0.869  18.950
  678MPD2    H110033   4.037   0.524  19.076
  678MPD2    H210034   4.413   0.607  19.241
  678MPD2    H310035   4.215   0.472  19.217
  678MPD2     N10036   4.041   0.731  18.890
  678MPD2    H510037   4.076   0.795  18.820
  678MPD2    N110038   4.464   0.843  19.091
  678MPD2    H710039   4.462   0.927  19.036
  679TMC3    C110040   0.094   0.987  19.236
  679TMC3    C210041   4.794   0.902  19.239
  679TMC3    C310042   4.679   0.922  19.165
  679TMC3    C410043   0.102   1.049  19.116
  679TMC3    C510044   4.800   1.066  19.036
  679TMC3    C610045   4.682   1.007  19.062
  679TMC3     C10046   0.210   0.922  19.276
  679TMC3     O10047   0.231   0.829  19.199
  679TMC3     H10048   4.804   0.827  19.317
  679TMC3    H110049   0.190   1.104  19.084
  679TMC3    H210050   4.602   1.017  18.990
  679TMC3    C710051   4.797   1.185  18.944
  679TMC3    C810052   4.575   0.827  19.177
  679TMC3    O110053   4.685   1.230  18.922
  679TMC3    O210054   4.598   0.737  19.258
  680MPD2     C10055   4.115   4.087  13.520
  680MPD2    C110056   4.249   4.095  13.553
  680MPD2    C210057   4.296   4.213  13.612
  680MPD2    C310058   4.205   4.307  13.658
  680MPD2    C410059   4.069   4.298  13.621
  680MPD2    C510060   4.023   4.186  13.558
  680MPD2     H10061   4.403   4.214  13.631
  680MPD2    H110062   3.991   4.366  13.654
  680MPD2    H210063   4.074   4.004  13.464
  680MPD2    H310064   3.919   4.172  13.533
  680MPD2     N10065   4.244   4.420  13.735
  680MPD2    H510066   4.171   4.483  13.764
  680MPD2    N110067   4.347   4.003  13.511
  680MPD2    H710068   4.445   4.022  13.531
  681TMC3    C110069   4.439   3.797  13.444
  681TMC3    C210070   4.424   3.678  13.504
  681TMC3    C310071   4.506   3.647  13.608
  681TMC3    C410072   4.555   3.872  13.457
  681TMC3    C510073   4.645   3.831  13.560
  681TMC3    C610074   4.622   3.714  13.633
  681TMC3     C10075   4.318   3.877  13.454
  681TMC3     O10076   4.214   3.812  13.463
  681TMC3     H10077   4.324   3.637  13.515
  681TMC3    H110078   4.560   3.961  13.395
  681TMC3    H210079   4.690   3.679  13.709
  681TMC3    C710080   4.787   3.863  13.547
  681TMC3    C810081   4.428   3.617  13.725
  681TMC3    O110082   0.053   3.792  13.616
  681TMC3    O210083   4.340   3.535  13.712
  682MPD2     C10084   2.164   1.507  10.938
  682MPD2    C110085   2.096   1.391  10.963
  682MPD2    C210086   2.027   1.375  11.078
  682MPD2    C310087   2.049   1.458  11.186
  682MPD2    C410088   2.127   1.568  11.164
  682MPD2    C510089   2.189   1.591  11.043
  682MPD2     H10090   1.953   1.296  11.076
  682MPD2    H110091   2.160   1.629  11.247
  682MPD2    H210092   2.187   1.539  10.837
  682MPD2    H310093   2.243   1.684  11.033
  682MPD2     N10094   1.984   1.439  11.309
  682MPD2    H510095   1.974   1.513  11.379
  682MPD2    N110096   2.067   1.291  10.866
  682MPD2    H710097   2.000   1.218  10.885
  683TMC3    C110098   1.764   1.487  11.633
  683TMC3    C210099   1.633   1.440  11.617
  683TMC3    C310100   1.600   1.353  11.516
  683TMC3    C410101   1.857   1.448  11.539
  683TMC3    C510102   1.822   1.358  11.443
  683TMC3    C610103   1.692   1.308  11.429
  683TMC3     C10104   1.813   1.466  11.769
  683TMC3     O10105   1.908   1.528  11.817
  683TMC3     H10106   1.558   1.467  11.690
  683TMC3    H110107   1.956   1.482  11.566
  683TMC3    H210108   1.656   1.253  11.343
  683TMC3    C710109   1.914   1.331  11.343
  683TMC3    C810110   1.491   1.263  11.555
  683TMC3    O110111   1.883   1.226  11.283
  683TMC3    O210112   1.400   1.316  11.616
  684MPD2     C10113   4.782   4.804  16.546
  684MPD2    C110114   4.741   0.060  16.428
  684MPD2    C210115   4.730   0.199  16.421
  684MPD2    C310116   4.768   0.282  16.531
  684MPD2    C410117   0.004   0.218  16.648
  684MPD2    C510118   0.012   0.077  16.655
  684MPD2     H10119   4.716   0.248  16.325
  684MPD2    H110120   0.042   0.274  16.733
  684MPD2    H210121   4.794   4.697  16.561
  684MPD2    H310122   0.048   0.030  16.746
  684MPD2     N10123   4.784   0.421  16.523
  684MPD2    H510124   0.021   0.470  16.601
  684MPD2    N110125   4.740   4.789  16.304
  684MPD2    H710126   4.717   0.037  16.220
  685TMC3    C110127   4.748   4.606  16.151
  685TMC3    C210128   4.687   4.693  16.062
  685TMC3    C310129   4.700   4.655  15.931
  685TMC3    C410130   0.002   4.492  16.118
  685TMC3    C510131   0.027   4.469  15.986
  685TMC3    C610132   4.785   4.552  15.887
  685TMC3     C10133   4.774   4.656  16.285
  685TMC3     O10134   4.805   4.570  16.364
  685TMC3     H10135   4.622   4.776  16.086
  685TMC3    H110136   0.065   4.445  16.193
  685TMC3    H210137   4.795   4.527  15.782
  685TMC3    C710138   0.142   4.391  15.944
  685TMC3    C810139   4.607   4.702  15.834
  685TMC3    O110140   0.176   4.306  16.024
  685TMC3    O210141   4.618   4.670  15.714
  686MPD2     C10142   1.327   0.331  15.460
  686MPD2    C110143   1.385   0.222  15.528
  686MPD2    C210144   1.485   0.155  15.462
  686MPD2    C310145   1.503   0.173  15.323
  686MPD2    C410146   1.442   0.276  15.258
  686MPD2    C510147   1.365   0.363  15.335
  686MPD2     H10148   1.537   0.082  15.522
  686MPD2    H110149   1.446   0.288  15.150
  686MPD2    H210150   1.251   0.391  15.508
  686MPD2    H310151   1.327   0.451  15.284
  686MPD2     N10152   1.578   0.088  15.239
  686MPD2    H510153   1.595   0.107  15.141
  686MPD2    N110154   1.321   0.187  15.647
  686MPD2    H710155   1.245   0.241  15.686
  687TMC3    C110156   1.576   4.684  15.373
  687TMC3    C210157   1.439   4.674  15.370
  687TMC3    C310158   1.381   4.608  15.479
  687TMC3    C410159   1.655   4.614  15.464
  687TMC3    C510160   1.587   4.559  15.571
  687TMC3    C610161   1.450   4.557  15.580
  687TMC3     C10162   1.652   4.786  15.294
  687TMC3     O10163   1.754   4.741  15.249
  687TMC3     H10164   1.384   4.724  15.292
  687TMC3    H110165   1.760   4.640  15.469
  687TMC3    H210166   1.399   4.515  15.666
  687TMC3    C710167   1.663   4.529  15.690
  687TMC3    C810168   1.241   4.585  15.496
  687TMC3    O110169   1.627   4.565  15.798
  687TMC3    O210170   1.198   4.508  15.581
  688MPD2     C10171   0.566   4.063  17.619
  688MPD2    C110172   0.568   3.928  17.623
  688MPD2    C210173   0.666   3.863  17.541
  688MPD2    C310174   0.750   3.934  17.460
  688MPD2    C410175   0.739   4.072  17.454
  688MPD2    C510176   0.650   4.134  17.539
  688MPD2     H10177   0.682   3.757  17.553
  688MPD2    H110178   0.800   4.138  17.393
  688MPD2    H210179   0.496   4.116  17.683
  688MPD2    H310180   0.634   4.241  17.536
  688MPD2     N10181   0.834   3.870  17.356
  688MPD2    H510182   0.907   3.931  17.321
  688MPD2    N110183   0.486   3.849  17.705
  688MPD2    H710184   0.511   3.751  17.702
  689TMC3    C110185   0.322   3.820  17.884
  689TMC3    C210186   0.259   3.888  17.983
  689TMC3    C310187   0.207   3.811  18.084
  689TMC3    C410188   0.313   3.689  17.863
  689TMC3    C510189   0.258   3.619  17.969
  689TMC3    C610190   0.223   3.680  18.083
  689TMC3     C10191   0.378   3.903  17.772
  689TMC3     O10192   0.331   4.018  17.775
  689TMC3     H10193   0.283   3.993  17.994
  689TMC3    H110194   0.366   3.633  17.787
  689TMC3    H210195   0.177   3.621  18.162
  689TMC3    C710196   0.283   3.474  17.985
  689TMC3    C810197   0.184   3.873  18.210
  689TMC3    O110198   0.319   3.442  18.098
  689TMC3    O210199   0.175   3.807  18.312
  690MPD2     C10200   3.005   1.035  16.072
  690MPD2    C110201   2.972   0.937  15.975
  690MPD2    C210202   3.059   0.908  15.873
  690MPD2    C310203   3.181   0.969  15.864
  690MPD2    C410204   3.216   1.061  15.959
  690MPD2    C510205   3.132   1.095  16.060
  690MPD2     H10206   3.036   0.833  15.798
  690MPD2    H110207   3.303   1.124  15.948
  690MPD2    H210208   2.944   1.048  16.160
  690MPD2    H310209   3.167   1.174  16.126
  690MPD2     N10210   3.265   0.942  15.752
  690MPD2    H510211   3.221   0.901  15.671
  690MPD2    N110212   2.858   0.856  15.981
  690MPD2    H710213   2.857   0.779  15.916
  691TMC3    C110214   2.663   0.752  16.053
  691TMC3    C210215   2.533   0.780  16.064
  691TMC3    C310216   2.449   0.667  16.070
  691TMC3    C410217   2.724   0.636  16.045
  691TMC3    C510218   2.642   0.527  16.049
  691TMC3    C610219   2.507   0.541  16.059
  691TMC3     C10220   2.755   0.862  16.068
  691TMC3     O10221   2.706   0.959  16.122
  691TMC3     H10222   2.496   0.881  16.061
  691TMC3    H110223   2.831   0.626  16.028
  691TMC3    H210224   2.440   0.455  16.054
  691TMC3    C710225   2.702   0.402  16.040
  691TMC3    C810226   2.309   0.675  16.067
  691TMC3    O110227   2.823   0.403  16.066
  691TMC3    O210228   2.251   0.569  16.038
  692TMC3    C110229   4.661   1.794  15.971
  692TMC3    C210230   4.778   1.800  16.035
  692TMC3    C310231   0.051   1.688  16.048
  692TMC3    C410232   4.610   1.687  15.909
  692TMC3    C510233   4.689   1.574  15.924
  692TMC3    C610234   4.800   1.570  15.999
  692TMC3     C10235   4.557   1.883  16.019
  692TMC3     O10236   4.444   1.838  16.023
  692TMC3     H10237   0.004   1.894  16.080
  692TMC3    H110238   4.532   1.690  15.834
  692TMC3    H210239   0.060   1.484  15.997
  692TMC3    C710240   4.640   1.446  15.863
  692TMC3    C810241   0.150   1.667  16.158
  692TMC3    O110242   4.566   1.461  15.765
  692TMC3    O210243   0.154   1.556  16.212
  693MPD2     C10244   4.145   4.761  10.838
  693MPD2    C110245   4.052   4.663  10.859
  693MPD2    C210246   4.093   4.532  10.889
  693MPD2    C310247   4.231   4.505  10.897
  693MPD2    C410248   4.322   4.599  10.853
  693MPD2    C510249   4.282   4.728  10.831
  693MPD2     H10250   4.031   4.444  10.877
  693MPD2    H110251   4.428   4.594  10.873
  693MPD2    H210252   4.111   0.059  10.829
  693MPD2    H310253   4.357   4.803  10.808
  693MPD2     N10254   4.276   4.375  10.939
  693MPD2    H510255   4.373   4.348  10.923
  693MPD2    N110256   3.920   4.693  10.849
  693MPD2    H710257   3.890   4.789  10.837
  694TMC3    C110258   3.690   4.645  10.882
  694TMC3    C210259   3.592   4.577  10.825
  694TMC3    C310260   3.483   4.537  10.906
  694TMC3    C410261   3.689   4.679  11.017
  694TMC3    C510262   3.594   4.622  11.098
  694TMC3    C610263   3.490   4.555  11.043
  694TMC3     C10264   3.821   4.597  10.842
  694TMC3     O10265   3.826   4.491  10.785
  694TMC3     H10266   3.593   4.571  10.716
  694TMC3    H110267   3.770   4.740  11.056
  694TMC3    H210268   3.405   4.513  11.097
  694TMC3    C710269   3.605   4.629  11.237
  694TMC3    C810270   3.366   4.479  10.847
  694TMC3    O110271   3.691   4.703  11.282
  694TMC3    O210272   3.313   4.394  10.915
  695MPD2     C10273   0.443   1.669  13.745
  695MPD2    C110274   0.369   1.644  13.858
  695MPD2    C210275   0.240   1.651  13.841
  695MPD2    C310276   0.175   1.675  13.720
  695MPD2    C410277   0.254   1.680  13.606
  695MPD2    C510278   0.385   1.691  13.621
  695MPD2     H10279   0.177   1.656  13.929
  695MPD2    H110280   0.207   1.687  13.509
  695MPD2    H210281   0.551   1.660  13.745
  695MPD2    H310282   0.444   1.705  13.531
  695MPD2     N10283   0.037   1.695  13.714
  695MPD2    H510284   4.796   1.693  13.805
  695MPD2    N110285   0.422   1.629  13.987
  695MPD2    H710286   0.358   1.616  14.064
  696TMC3    C110287   4.628   1.768  13.660
  696TMC3    C210288   4.568   1.686  13.744
  696TMC3    C310289   4.445   1.719  13.792
  696TMC3    C410290   4.571   1.888  13.620
  696TMC3    C510291   4.450   1.919  13.671
  696TMC3    C610292   4.382   1.834  13.752
  696TMC3     C10293   4.762   1.749  13.613
  696TMC3     O10294   4.787   1.798  13.501
  696TMC3     H10295   4.618   1.600  13.786
  696TMC3    H110296   4.619   1.958  13.553
  696TMC3    H210297   4.283   1.859  13.790
  696TMC3    C710298   4.389   2.044  13.629
  696TMC3    C810299   4.369   1.602  13.823
  696TMC3    O110300   4.411   2.088  13.518
  696TMC3    O210301   4.399   1.508  13.751
  697MPD2     C10302   4.336   3.383  15.877
  697MPD2    C110303   4.348   3.316  15.762
  697MPD2    C210304   4.377   3.387  15.646
  697MPD2    C310305   4.380   3.526  15.640
  697MPD2    C410306   4.353   3.589  15.756
  697MPD2    C510307   4.331   3.523  15.874
  697MPD2     H10308   4.392   3.335  15.552
  697MPD2    H110309   4.335   3.694  15.771
  697MPD2    H210310   4.325   3.335  15.974
  697MPD2    H310311   4.323   3.577  15.968
  697MPD2     N10312   4.391   3.596  15.519
  697MPD2    H510313   4.393   3.540  15.434
  697MPD2    N110314   4.337   3.174  15.759
  697MPD2    H710315   4.357   3.130  15.670
  698TMC3    C110316   4.427   3.788  15.379
  698TMC3    C210317   4.458   3.921  15.391
  698TMC3    C310318   4.548   3.990  15.307
  698TMC3    C410319   4.496   3.715  15.289
  698TMC3    C510320   4.571   3.787  15.200
  698TMC3    C610321   4.605   3.918  15.205
  698TMC3     C10322   4.413   3.732  15.516
  698TMC3     O10323   4.411   3.821  15.603
  698TMC3     H10324   4.398   3.978  15.461
  698TMC3    H110325   4.479   3.612  15.259
  698TMC3    H210326   4.668   3.964  15.130
  698TMC3    C710327   4.549   3.739  15.063
  698TMC3    C810328   4.500   4.117  15.261
  698TMC3    O110329   4.434   3.697  15.041
  698TMC3    O210330   4.387   4.149  15.291
  699TMC3    C110331   4.533   1.780  13.311
  699TMC3    C210332   4.585   1.655  13.312
  699TMC3    C310333   4.498   1.554  13.351
  699TMC3    C410334   4.400   1.810  13.332
  699TMC3    C510335   4.314   1.699  13.364
  699TMC3    C610336   4.362   1.572  13.368
  699TMC3     C10337   4.592   1.886  13.231
  699TMC3     O10338   4.522   1.988  13.209
  699TMC3     H10339   4.692   1.639  13.311
  699TMC3    H110340   4.369   1.913  13.339
  699TMC3    H210341   4.299   1.495  13.411
  699TMC3    C710342   4.172   1.727  13.391
  699TMC3    C810343   4.552   1.448  13.437
  699TMC3    O110344   4.142   1.844  13.406
  699TMC3    O210345   4.470   1.360  13.465
  700TMC3    C110346   3.304   3.888  17.153
  700TMC3    C210347   3.349   3.759  17.142
  700TMC3    C310348   3.393   3.701  17.259
  700TMC3    C410349   3.278   3.944  17.269
  700TMC3    C510350   3.311   3.884  17.388
  700TMC3    C610351   3.373   3.762  17.383
  700TMC3     C10352   3.321   3.959  17.031
  700TMC3     O10353   3.300   3.901  16.926
  700TMC3     H10354   3.364   3.718  17.043
  700TMC3    H110355   3.249   4.049  17.272
  700TMC3    H210356   3.410   3.723  17.477
  700TMC3    C710357   3.335   3.975  17.498
  700TMC3    C810358   3.508   3.620  17.251
  700TMC3    O110359   3.437   3.949  17.570
  700TMC3    O210360   3.575   3.655  17.157
  701TMC3    C110361   3.826   2.473  15.769
  701TMC3    C210362   3.809   2.431  15.641
  701TMC3    C310363   3.862   2.500  15.533
  701TMC3    C410364   3.906   2.578  15.789
  701TMC3    C510365   3.959   2.652  15.686
  701TMC3    C610366   3.938   2.610  15.560
  701TMC3     C10367   3.706   2.482  15.849
  701TMC3     O10368   3.694   2.593  15.901
  701TMC3     H10369   3.743   2.349  15.616
  701TMC3    H110370   3.917   2.609  15.892
  701TMC3    H210371   3.973   2.673  15.479
  701TMC3    C710372   3.967   2.801  15.697
  701TMC3    C810373   3.825   2.473  15.392
  701TMC3    O110374   3.996   2.871  15.598
  701TMC3    O210375   3.903   2.524  15.311
  702MPD2     C10376   3.181   0.594  10.594
  702MPD2    C110377   3.095   0.613  10.696
  702MPD2    C210378   3.040   0.736  10.715
  702MPD2    C310379   3.069   0.844  10.636
  702MPD2    C410380   3.148   0.819  10.527
  702MPD2    C510381   3.197   0.698  10.508
  702MPD2     H10382   2.969   0.756  10.794
  702MPD2    H110383   3.186   0.899  10.465
  702MPD2    H210384   3.225   0.497  10.573
  702MPD2    H310385   3.256   0.676  10.420
  702MPD2     N10386   3.037   0.973  10.674
  702MPD2    H510387   3.096   1.042  10.629
  702MPD2    N110388   3.068   0.518  10.796
  702MPD2    H710389   3.002   0.544  10.869
  703TMC3    C110390   2.999   1.081  10.879
  703TMC3    C210391   2.945   1.057  11.000
  703TMC3    C310392   3.014   1.094  11.115
  703TMC3    C410393   3.124   1.136  10.874
  703TMC3    C510394   3.185   1.166  10.992
  703TMC3    C610395   3.129   1.154  11.113
  703TMC3     C10396   2.949   1.002  10.772
  703TMC3     O10397   2.842   0.953  10.794
  703TMC3     H10398   2.854   1.001  11.016
  703TMC3    H110399   3.180   1.142  10.781
  703TMC3    H210400   3.183   1.178  11.204
  703TMC3    C710401   3.326   1.194  10.982
  703TMC3    C810402   2.971   1.049  11.244
  703TMC3    O110403   3.368   1.225  10.870
  703TMC3    O210404   3.056   1.030  11.331
  704TMC3    C110405   1.370   3.390  13.202
  704TMC3    C210406   1.469   3.374  13.116
  704TMC3    C310407   1.550   3.263  13.122
  704TMC3    C410408   1.345   3.307  13.305
  704TMC3    C510409   1.415   3.188  13.304
  704TMC3    C610410   1.521   3.166  13.221
  704TMC3     C10411   1.249   3.445  13.144
  704TMC3     O10412   1.177   3.507  13.221
  704TMC3     H10413   1.486   3.453  13.044
  704TMC3    H110414   1.247   3.313  13.352
  704TMC3    H210415   1.566   3.068  13.215
  704TMC3    C710416   1.337   3.070  13.340
  704TMC3    C810417   1.553   3.215  12.990
  704TMC3    O110418   1.359   2.974  13.266
  704TMC3    O210419   1.464   3.256  12.918
  705MPD2     C10420   0.150   1.116  16.515
  705MPD2    C110421   0.203   1.225  16.580
  705MPD2    C210422   0.115   1.311  16.652
  705MPD2    C310423   4.788   1.270  16.669
  705MPD2    C410424   4.738   1.174  16.585
  705MPD2    C510425   0.017   1.093  16.515
  705MPD2     H10426   0.158   1.395  16.705
  705MPD2    H110427   4.633   1.148  16.579
  705MPD2    H210428   0.204   1.042  16.458
  705MPD2    H310429   4.778   1.021  16.446
  705MPD2     N10430   4.686   1.349  16.735
  705MPD2    H510431   4.589   1.322  16.720
  705MPD2    N110432   0.334   1.266  16.563
  705MPD2    H710433   0.376   1.332  16.628
  706TMC3    C110434   0.632   1.271  16.231
  706TMC3    C210435   0.612   1.406  16.201
  706TMC3    C310436   0.559   1.478  16.308
  706TMC3    C410437   0.609   1.215  16.355
  706TMC3    C510438   0.538   1.284  16.445
  706TMC3    C610439   0.513   1.417  16.423
  706TMC3     C10440   0.714   1.191  16.136
  706TMC3     O10441   0.770   1.087  16.180
  706TMC3     H10442   0.631   1.452  16.105
  706TMC3    H110443   0.627   1.108  16.367
  706TMC3    H210444   0.463   1.482  16.494
  706TMC3    C710445   0.418   1.214  16.467
  706TMC3    C810446   0.538   1.616  16.291
  706TMC3    O110447   0.401   1.140  16.376
  706TMC3    O210448   0.528   1.662  16.177
  707TMC3    C110449   2.021   0.770  18.560
  707TMC3    C210450   1.960   0.775  18.682
  707TMC3    C310451   1.849   0.690  18.704
  707TMC3    C410452   1.966   0.688  18.455
  707TMC3    C510453   1.857   0.605  18.492
  707TMC3    C610454   1.798   0.610  18.610
  707TMC3     C10455   2.170   0.762  18.564
  707TMC3     O10456   2.216   0.750  18.679
  707TMC3     H10457   2.007   0.825  18.766
  707TMC3    H110458   2.013   0.686  18.358
  707TMC3    H210459   1.721   0.541  18.643
  707TMC3    C710460   1.818   0.501  18.403
  707TMC3    C810461   1.829   0.663  18.849
  707TMC3    O110462   1.711   0.448  18.422
  707TMC3    O210463   1.841   0.753  18.926
  708MPD2     C10464   3.389   4.729  14.252
  708MPD2    C110465   3.291   4.744  14.345
  708MPD2    C210466   3.243   4.630  14.413
  708MPD2    C310467   3.301   4.507  14.392
  708MPD2    C410468   3.403   4.500  14.302
  708MPD2    C510469   3.450   4.608  14.235
  708MPD2     H10470   3.152   4.643  14.471
  708MPD2    H110471   3.467   4.413  14.295
  708MPD2    H210472   3.421   0.012  14.196
  708MPD2    H310473   3.534   4.598  14.167
  708MPD2     N10474   3.269   4.387  14.458
  708MPD2    H510475   3.302   4.303  14.412
  708MPD2    N110476   3.245   0.070  14.365
  708MPD2    H710477   3.299   0.139  14.313
  709TMC3    C110478   3.064   0.219  14.382
  709TMC3    C210479   3.024   0.202  14.252
  709TMC3    C310480   2.886   0.210  14.225
  709TMC3    C410481   2.977   0.264  14.471
  709TMC3    C510482   2.839   0.271  14.448
  709TMC3    C610483   2.796   0.246  14.320
  709TMC3     C10484   3.136   0.103  14.436
  709TMC3     O10485   3.061   0.038  14.504
  709TMC3     H10486   3.104   0.175  14.184
  709TMC3    H110487   3.018   0.263  14.572
  709TMC3    H210488   2.689   0.254  14.306
  709TMC3    C710489   2.751   0.275  14.565
  709TMC3    C810490   2.846   0.173  14.085
  709TMC3    O110491   2.806   0.301  14.672
  709TMC3    O210492   2.729   0.167  14.055
  710TMC3    C110493   4.376   1.716  18.499
  710TMC3    C210494   4.400   1.707  18.369
  710TMC3    C310495   4.528   1.688  18.324
  710TMC3    C410496   4.476   1.715  18.592
  710TMC3    C510497   4.600   1.700  18.544
  710TMC3    C610498   4.632   1.691  18.409
  710TMC3     C10499   4.247   1.660  18.546
  710TMC3     O10500   4.182   1.603  18.457
  710TMC3     H10501   4.312   1.702  18.306
  710TMC3    H110502   4.454   1.710  18.698
  710TMC3    H210503   4.735   1.693  18.374
  710TMC3    C710504   4.680   1.620  18.639
  710TMC3    C810505   4.545   1.630  18.190
  710TMC3    O110506   4.632   1.586  18.745
  710TMC3    O210507   4.664   1.630  18.154
  711TMC3    C110508   4.241   2.376  15.148
  711TMC3    C210509   4.217   2.421  15.277
  711TMC3    C310510   4.324   2.448  15.359
  711TMC3    C410511   4.367   2.358  15.101
  711TMC3    C510512   4.466   2.380  15.191
  711TMC3    C610513   4.451   2.443  15.313
  711TMC3     C10514   4.154   2.271  15.100
  711TMC3     O10515   4.188   2.203  15.005
  711TMC3     H10516   4.116   2.438  15.311
  711TMC3    H110517   4.394   2.308  15.009
  711TMC3    H210518   4.534   2.457  15.380
  711TMC3    C710519   4.530   2.246  15.223
  711TMC3    C810520   4.306   2.377  15.479
  711TMC3    O110521   4.617   2.242  15.307
  711TMC3    O210522   4.210   2.296  15.493
  712MPD2     C10523   0.441   3.403  13.708
  712MPD2    C110524   0.562   3.409  13.772
  712MPD2    C210525   0.655   3.500  13.737
  712MPD2    C310526   0.636   3.592  13.634
  712MPD2    C410527   0.515   3.592  13.572
  712MPD2    C510528   0.424   3.492  13.600
  712MPD2     H10529   0.748   3.491  13.793
  712MPD2    H110530   0.493   3.661  13.491
  712MPD2    H210531   0.364   3.327  13.719
  712MPD2    H310532   0.332   3.484  13.544
  712MPD2     N10533   0.732   3.691  13.607
  712MPD2    H510534   0.709   3.758  13.534
  712MPD2    N110535   0.599   3.300  13.863
  712MPD2    H710536   0.698   3.281  13.874
  713TMC3    C110537   0.907   3.847  13.650
  713TMC3    C210538   1.036   3.846  13.672
  713TMC3    C310539   1.102   3.953  13.628
  713TMC3    C410540   0.834   3.948  13.594
  713TMC3    C510541   0.904   4.059  13.549
  713TMC3    C610542   1.038   4.063  13.570
  713TMC3     C10543   0.838   3.725  13.688
  713TMC3     O10544   0.896   3.665  13.779
  713TMC3     H10545   1.088   3.755  13.702
  713TMC3    H110546   0.725   3.946  13.595
  713TMC3    H210547   1.091   4.154  13.541
  713TMC3    C710548   0.844   4.188  13.570
  713TMC3    C810549   1.228   3.979  13.691
  713TMC3    O110550   0.919   4.279  13.589
  713TMC3    O210551   1.296   4.066  13.638
  714MPD2     C10552   2.543   1.811  19.429
  714MPD2    C110553   2.644   1.903  19.402
  714MPD2    C210554   2.606   1.995  19.306
  714MPD2    C310555   2.482   2.018  19.259
  714MPD2    C410556   2.385   1.925  19.294
  714MPD2    C510557   2.419   1.820  19.372
  714MPD2     H10558   2.687   2.049  19.257
  714MPD2    H110559   2.281   1.929  19.266
  714MPD2    H210560   2.557   1.723  19.491
  714MPD2    H310561   2.342   1.746  19.386
  714MPD2     N10562   2.462   2.103  19.147
  714MPD2    H510563   2.544   2.136  19.098
  714MPD2    N110564   2.771   1.900  19.460
  714MPD2    H710565   2.799   1.818  19.513
  715TMC3    C110566   2.969   2.002  19.536
  715TMC3    C210567   3.054   1.893  19.505
  715TMC3    C310568   3.184   1.918  19.536
  715TMC3    C410569   3.009   2.124  19.581
  715TMC3    C510570   3.140   2.141  19.598
  715TMC3    C610571   3.231   2.039  19.578
  715TMC3     C10572   2.847   2.011  19.459
  715TMC3     O10573   2.813   2.128  19.445
  715TMC3     H10574   3.022   1.794  19.474
  715TMC3    H110575   2.938   2.198  19.616
  715TMC3    H210576   3.337   2.063  19.580
  715TMC3    C710577   3.195   2.260  19.649
  715TMC3    C810578   3.279   1.831  19.467
  715TMC3    O110579   3.317   2.261  19.665
  715TMC3    O210580   3.239   1.760  19.382
  716MPD2     C10581   3.038   0.612  10.157
  716MPD2    C110582   2.964   0.607  10.039
  716MPD2    C210583   2.939   0.482   9.990
  716MPD2    C310584   2.989   0.367  10.049
  716MPD2    C410585   3.072   0.373  10.164
  716MPD2    C510586   3.091   0.492  10.220
  716MPD2     H10587   2.860   0.468   9.917
  716MPD2    H110588   3.123   0.292  10.216
  716MPD2    H210589   3.068   0.707  10.198
  716MPD2    H310590   3.142   0.506  10.314
  716MPD2     N10591   2.945   0.247   9.991
  716MPD2    H510592   2.895   0.264   9.904
  716MPD2    N110593   2.917   0.725   9.970
  716MPD2    H710594   2.931   0.817  10.011
  717TMC3    C110595   2.970   0.028   9.923
  717TMC3    C210596   2.855   0.045   9.849
  717TMC3    C310597   2.827   4.754   9.753
  717TMC3    C410598   3.045   4.715   9.927
  717TMC3    C510599   3.002   4.620   9.834
  717TMC3    C610600   2.890   4.629   9.746
  717TMC3     C10601   2.993   0.122  10.031
  717TMC3     O10602   3.081   0.093  10.114
  717TMC3     H10603   2.788   0.128   9.865
  717TMC3    H110604   3.138   4.701   9.980
  717TMC3    H210605   2.844   4.549   9.689
  717TMC3    C710606   3.056   4.490   9.855
  717TMC3    C810607   2.709   4.789   9.670
  717TMC3    O110608   3.126   4.471   9.951
  717TMC3    O210609   2.657   0.093   9.695
  718MPD2     C10610   2.456   4.103  13.069
  718MPD2    C110611   2.346   4.041  13.015
  718MPD2    C210612   2.311   3.917  13.058
  718MPD2    C310613   2.391   3.853  13.153
  718MPD2    C410614   2.504   3.916  13.206
  718MPD2    C510615   2.532   4.048  13.169
  718MPD2     H10616   2.225   3.867  13.015
  718MPD2    H110617   2.570   3.870  13.278
  718MPD2    H210618   2.483   4.203  13.038
  718MPD2    H310619   2.622   4.095  13.207
  718MPD2     N10620   2.350   3.730  13.187
  718MPD2    H510621   2.283   3.696  13.118
  718MPD2    N110622   2.284   4.125  12.920
  718MPD2    H710623   2.320   4.217  12.896
  719TMC3    C110624   2.153   4.152  12.730
  719TMC3    C210625   2.125   4.039  12.647
  719TMC3    C310626   2.211   4.003  12.549
  719TMC3    C410627   2.247   4.240  12.699
  719TMC3    C510628   2.334   4.208  12.597
  719TMC3    C610629   2.312   4.092  12.523
  719TMC3     C10630   2.160   4.093  12.863
  719TMC3     O10631   2.084   4.005  12.888
  719TMC3     H10632   2.051   3.962  12.666
  719TMC3    H110633   2.243   4.334  12.753
  719TMC3    H210634   2.394   4.051  12.464
  719TMC3    C710635   2.440   4.308  12.569
  719TMC3    C810636   2.265   3.871  12.565
  719TMC3    O110637   2.490   4.285  12.456
  719TMC3    O210638   2.364   3.868  12.636
  720MPD2     C10639   0.506   0.756  14.306
  720MPD2    C110640   0.590   0.732  14.203
  720MPD2    C210641   0.721   0.695  14.230
  720MPD2    C310642   0.761   0.683  14.361
  720MPD2    C410643   0.677   0.684  14.464
  720MPD2    C510644   0.546   0.727  14.432
  720MPD2     H10645   0.803   0.695  14.159
  720MPD2    H110646   0.693   0.662  14.569
  720MPD2    H210647   0.401   0.780  14.292
  720MPD2    H310648   0.465   0.736  14.504
  720MPD2     N10649   0.902   0.655  14.384
  720MPD2    H510650   0.969   0.688  14.315
  720MPD2    N110651   0.560   0.773  14.071
  720MPD2    H710652   0.628   0.749  13.999
  721TMC3    C110653   1.092   0.654  14.521
  721TMC3    C210654   1.127   0.681  14.652
  721TMC3    C310655   1.255   0.720  14.684
  721TMC3    C410656   1.180   0.663  14.417
  721TMC3    C510657   1.307   0.700  14.457
  721TMC3    C610658   1.348   0.724  14.583
  721TMC3     C10659   0.958   0.607  14.499
  721TMC3     O10660   0.896   0.554  14.588
  721TMC3     H10661   1.059   0.669  14.736
  721TMC3    H110662   1.146   0.627  14.321
  721TMC3    H210663   1.452   0.736  14.609
  721TMC3    C710664   1.416   0.661  14.371
  721TMC3    C810665   1.321   0.679  14.811
  721TMC3    O110666   1.432   0.707  14.257
  721TMC3    O210667   1.422   0.614  14.800
  722MPD2     C10668   4.420   4.121  13.212
  722MPD2    C110669   4.391   4.243  13.272
  722MPD2    C210670   4.261   4.284  13.265
  722MPD2    C310671   4.155   4.209  13.214
  722MPD2    C410672   4.192   4.085  13.169
  722MPD2    C510673   4.321   4.056  13.154
  722MPD2     H10674   4.226   4.384  13.289
  722MPD2    H110675   4.117   4.018  13.129
  722MPD2    H210676   4.518   4.075  13.214
  722MPD2    H310677   4.349   3.967  13.099
  722MPD2     N10678   4.022   4.258  13.214
  722MPD2    H510679   4.003   4.353  13.244
  722MPD2    N110680   4.489   4.321  13.326
  722MPD2    H710681   4.456   4.409  13.363
  723TMC3    C110682   3.789   4.246  13.202
  723TMC3    C210683   3.676   4.164  13.228
  723TMC3    C310684   3.560   4.217  13.189
  723TMC3    C410685   3.768   4.374  13.153
  723TMC3    C510686   3.648   4.424  13.138
  723TMC3    C610687   3.545   4.339  13.147
  723TMC3     C10688   3.912   4.176  13.197
  723TMC3     O10689   3.902   4.056  13.204
  723TMC3     H10690   3.686   4.064  13.268
  723TMC3    H110691   3.857   4.433  13.132
  723TMC3    H210692   3.443   4.374  13.133
  723TMC3    C710693   3.613   4.551  13.093
  723TMC3    C810694   3.444   4.143  13.215
  723TMC3    O110695   3.544   4.562  12.992
  723TMC3    O210696   3.356   4.201  13.271
  724TMC3    C110697   0.138   2.316  10.578
  724TMC3    C210698   0.053   2.318  10.473
  724TMC3    C310699   0.108   2.361  10.349
  724TMC3    C410700   0.266   2.351  10.566
  724TMC3    C510701   0.316   2.381  10.442
  724TMC3    C610702   0.243   2.375  10.328
  724TMC3     C10703   0.106   2.230  10.695
  724TMC3     O10704   0.188   2.224  10.788
  724TMC3     H10705   4.751   2.326  10.487
  724TMC3    H110706   0.338   2.326  10.643
  724TMC3    H210707   0.280   2.413  10.234
  724TMC3    C710708   0.411   2.489  10.433
  724TMC3    C810709   0.040   2.467  10.277
  724TMC3    O110710   0.458   2.517  10.324
  724TMC3    O210711   4.723   2.459  10.266
  725TMC3    C110712   1.625   1.012  13.098
  725TMC3    C210713   1.612   0.975  12.969
  725TMC3    C310714   1.528   0.874  12.939
  725TMC3    C410715   1.567   0.946  13.197
  725TMC3    C510716   1.489   0.841  13.173
  725TMC3    C610717   1.462   0.803  13.039
  725TMC3     C10718   1.739   1.092  13.134
  725TMC3     O10719   1.717   1.196  13.195
  725TMC3     H10720   1.667   1.030  12.893
  725TMC3    H110721   1.582   0.981  13.299
  725TMC3    H210722   1.387   0.728  13.017
  725TMC3    C710723   1.433   0.761  13.282
  725TMC3    C810724   1.477   0.865  12.803
  725TMC3    O110725   1.366   0.838  13.354
  725TMC3    O210726   1.406   0.766  12.780
  726MPD2     C10727   3.896   2.483  10.315
  726MPD2    C110728   3.892   2.600  10.395
  726MPD2    C210729   3.787   2.610  10.489
  726MPD2    C310730   3.696   2.511  10.502
  726MPD2    C410731   3.716   2.388  10.438
  726MPD2    C510732   3.817   2.375  10.342
  726MPD2     H10733   3.772   2.699  10.549
  726MPD2    H110734   3.648   2.304  10.442
  726MPD2    H210735   3.983   2.482  10.250
  726MPD2    H310736   3.825   2.287  10.279
  726MPD2     N10737   3.588   2.504  10.601
  726MPD2    H510738   3.530   2.421  10.606
  726MPD2    N110739   3.991   2.706  10.385
  726MPD2    H710740   3.987   2.771  10.463
  727TMC3    C110741   4.124   2.854  10.290
  727TMC3    C210742   4.155   2.909  10.405
  727TMC3    C310743   4.115   3.037  10.423
  727TMC3    C410744   4.067   2.929  10.185
  727TMC3    C510745   4.031   3.057  10.208
  727TMC3    C610746   4.049   3.113  10.329
  727TMC3     C10747   4.079   2.716  10.287
  727TMC3     O10748   4.083   2.663  10.178
  727TMC3     H10749   4.192   2.852  10.489
  727TMC3    H110750   4.042   2.883  10.090
  727TMC3    H210751   3.989   3.201  10.351
  727TMC3    C710752   3.940   3.118  10.108
  727TMC3    C810753   4.145   3.100  10.551
  727TMC3    O110754   3.872   3.034  10.053
  727TMC3    O210755   4.209   3.040  10.635
  728TMC3    C110756   3.453   0.966  15.611
  728TMC3    C210757   3.586   0.965  15.598
  728TMC3    C310758   3.646   0.961  15.476
  728TMC3    C410759   3.371   0.986  15.498
  728TMC3    C510760   3.437   0.992  15.377
  728TMC3    C610761   3.568   0.961  15.362
  728TMC3     C10762   3.396   0.966  15.751
  728TMC3     O10763   3.467   1.002  15.845
  728TMC3     H10764   3.639   0.960  15.692
  728TMC3    H110765   3.263   0.999  15.490
  728TMC3    H210766   3.611   0.943  15.264
  728TMC3    C710767   3.360   0.994  15.255
  728TMC3    C810768   3.785   1.001  15.488
  728TMC3    O110769   3.250   0.945  15.245
  728TMC3    O210770   3.817   1.030  15.604
  729MPD2     C10771   1.051   2.020  16.714
  729MPD2    C110772   1.149   2.054  16.804
  729MPD2    C210773   1.125   2.051  16.944
  729MPD2    C310774   1.000   2.007  16.981
  729MPD2    C410775   0.906   1.972  16.885
  729MPD2    C510776   0.926   1.989  16.753
  729MPD2     H10777   1.200   2.083  17.016
  729MPD2    H110778   0.809   1.932  16.914
  729MPD2    H210779   1.067   2.023  16.607
  729MPD2    H310780   0.844   1.952  16.692
  729MPD2     N10781   0.965   2.000  17.116
  729MPD2    H510782   0.875   1.959  17.136
  729MPD2    N110783   1.270   2.092  16.757
  729MPD2    H710784   1.277   2.097  16.656
  730TMC3    C110785   0.977   2.033  17.348
  730TMC3    C210786   1.057   2.042  17.454
  730TMC3    C310787   1.016   2.120  17.562
  730TMC3    C410788   0.852   2.091  17.333
  730TMC3    C510789   0.812   2.174  17.441
  730TMC3    C610790   0.897   2.189  17.546
  730TMC3     C10791   1.050   2.020  17.221
  730TMC3     O10792   1.176   2.025  17.221
  730TMC3     H10793   1.146   1.981  17.463
  730TMC3    H110794   0.784   2.080  17.250
  730TMC3    H210795   0.867   2.243  17.635
  730TMC3    C710796   0.771   2.301  17.386
  730TMC3    C810797   1.133   2.204  17.591
  730TMC3    O110798   0.788   2.327  17.267
  730TMC3    O210799   1.246   2.153  17.574
  731MPD2     C10800   1.135   0.437  12.707
  731MPD2    C110801   1.214   0.342  12.651
  731MPD2    C210802   1.247   0.240  12.731
  731MPD2    C310803   1.210   0.228  12.868
  731MPD2    C410804   1.135   0.327  12.923
  731MPD2    C510805   1.104   0.432  12.837
  731MPD2     H10806   1.302   0.157  12.689
  731MPD2    H110807   1.104   0.332  13.027
  731MPD2    H210808   1.101   0.521  12.647
  731MPD2    H310809   1.055   0.525  12.867
  731MPD2     N10810   1.236   0.108  12.930
  731MPD2    H510811   1.303   0.046  12.885
  731MPD2    N110812   1.255   0.347  12.516
  731MPD2    H710813   1.243   0.438  12.473
  732TMC3    C110814   1.322   0.289  12.292
  732TMC3    C210815   1.272   0.204  12.197
  732TMC3    C310816   1.259   0.259  12.079
  732TMC3    C410817   1.376   0.415  12.274
  732TMC3    C510818   1.364   0.456  12.145
  732TMC3    C610819   1.306   0.383  12.040
  732TMC3     C10820   1.298   0.244  12.435
  732TMC3     O10821   1.280   0.126  12.456
  732TMC3     H10822   1.234   0.105  12.220
  732TMC3    H110823   1.429   0.458  12.358
  732TMC3    H210824   1.297   0.425  11.940
  732TMC3    C710825   1.449   0.561  12.103
  732TMC3    C810826   1.160   0.195  11.993
  732TMC3    O110827   1.459   0.580  11.979
  732TMC3    O210828   1.188   0.156  11.883
  733TMC3    C110829   2.270   3.336  13.318
  733TMC3    C210830   2.360   3.434  13.357
  733TMC3    C310831   2.418   3.506  13.256
  733TMC3    C410832   2.239   3.298  13.189
  733TMC3    C510833   2.314   3.364  13.090
  733TMC3    C610834   2.402   3.471  13.124
  733TMC3     C10835   2.143   3.333  13.389
  733TMC3     O10836   2.042   3.351  13.323
  733TMC3     H10837   2.364   3.473  13.458
  733TMC3    H110838   2.173   3.213  13.175
  733TMC3    H210839   2.437   3.536  13.044
  733TMC3    C710840   2.254   3.357  12.957
  733TMC3    C810841   2.423   3.651  13.281
  733TMC3    O110842   2.197   3.258  12.920
  733TMC3    O210843   2.466   3.691  13.388
  734MPD2     C10844   3.718   1.372  12.671
  734MPD2    C110845   3.766   1.256  12.605
  734MPD2    C210846   3.824   1.271  12.480
  734MPD2    C310847   3.858   1.398  12.432
  734MPD2    C410848   3.831   1.506  12.507
  734MPD2    C510849   3.765   1.494  12.629
  734MPD2     H10850   3.860   1.189  12.419
  734MPD2    H110851   3.841   1.605  12.464
  734MPD2    H210852   3.665   1.363  12.766
  734MPD2    H310853   3.733   1.580  12.686
  734MPD2     N10854   3.925   1.404  12.307
  734MPD2    H510855   3.957   1.313  12.277
  734MPD2    N110856   3.737   1.133  12.668
  734MPD2    H710857   3.704   1.128  12.764
  735TMC3    C110858   3.688   0.907  12.666
  735TMC3    C210859   3.590   0.882  12.577
  735TMC3    C310860   3.571   0.753  12.538
  735TMC3    C410861   3.753   0.800  12.720
  735TMC3    C510862   3.728   0.671  12.677
  735TMC3    C610863   3.631   0.639  12.590
  735TMC3     C10864   3.750   1.013  12.603
  735TMC3     O10865   3.805   0.982  12.500
  735TMC3     H10866   3.526   0.962  12.543
  735TMC3    H110867   3.835   0.832  12.783
  735TMC3    H210868   3.620   0.552  12.526
  735TMC3    C710869   3.835   0.582  12.698
  735TMC3    C810870   3.546   0.746  12.396
  735TMC3    O110871   3.945   0.621  12.743
  735TMC3    O210872   3.461   0.667  12.353
  736MPD2     C10873   3.824   0.221  12.650
  736MPD2    C110874   3.879   0.343  12.651
  736MPD2    C210875   4.017   0.353  12.637
  736MPD2    C310876   4.087   0.246  12.600
  736MPD2    C410877   4.032   0.122  12.607
  736MPD2    C510878   3.897   0.104  12.634
  736MPD2     H10879   4.057   0.454  12.636
  736MPD2    H110880   4.088   0.031  12.586
  736MPD2    H210881   3.716   0.214  12.650
  736MPD2    H310882   3.855   0.004  12.631
  736MPD2     N10883   4.217   0.245  12.562
  736MPD2    H510884   4.254   0.156  12.528
  736MPD2    N110885   3.794   0.454  12.655
  736MPD2    H710886   3.697   0.437  12.631
  737TMC3    C110887   4.429   0.342  12.493
  737TMC3    C210888   4.470   0.463  12.449
  737TMC3    C310889   4.533   0.466  12.325
  737TMC3    C410890   4.442   0.233  12.410
  737TMC3    C510891   4.505   0.242  12.286
  737TMC3    C610892   4.553   0.357  12.236
  737TMC3     C10893   4.289   0.362  12.533
  737TMC3     O10894   4.246   0.471  12.506
  737TMC3     H10895   4.461   0.561  12.496
  737TMC3    H110896   4.435   0.136  12.458
  737TMC3    H210897   4.570   0.370  12.129
  737TMC3    C710898   4.562   0.120  12.235
  737TMC3    C810899   4.588   0.597  12.287
  737TMC3    O110900   4.517   0.010  12.273
  737TMC3    O210901   4.598   0.681  12.375
  738MPD2     C10902   4.445   4.316  15.056
  738MPD2    C110903   4.571   4.282  15.099
  738MPD2    C210904   4.676   4.353  15.048
  738MPD2    C310905   4.663   4.446  14.946
  738MPD2    C410906   4.535   4.475  14.913
  738MPD2    C510907   4.426   4.412  14.967
  738MPD2     H10908   4.775   4.319  15.076
  738MPD2    H110909   4.523   4.547  14.833
  738MPD2    H210910   4.363   4.260  15.099
  738MPD2    H310911   4.325   4.435  14.935
  738MPD2     N10912   4.776   4.505  14.883
  738MPD2    H510913   4.763   4.569  14.806
  738MPD2    N110914   4.596   4.182  15.191
  738MPD2    H710915   4.694   4.155  15.196
  739TMC3    C110916   0.191   4.526  14.806
  739TMC3    C210917   0.150   4.563  14.682
  739TMC3    C310918   0.246   4.616  14.599
  739TMC3    C410919   0.308   4.570  14.866
  739TMC3    C510920   0.395   4.638  14.783
  739TMC3    C610921   0.372   4.655  14.648
  739TMC3     C10922   0.104   4.474  14.908
  739TMC3     O10923   0.156   4.424  15.010
  739TMC3     H10924   0.059   4.519  14.642
  739TMC3    H110925   0.329   4.553  14.971
  739TMC3    H210926   0.453   4.684  14.582
  739TMC3    C710927   0.523   4.678  14.848
  739TMC3    C810928   0.214   4.616  14.459
  739TMC3    O110929   0.553   4.613  14.949
  739TMC3    O210930   0.110   4.566  14.424
  740TMC3    C110931   0.652   1.007  14.586
  740TMC3    C210932   0.700   0.948  14.700
  740TMC3    C310933   0.839   0.931  14.714
  740TMC3    C410934   0.730   1.013  14.474
  740TMC3    C510935   0.868   0.995  14.493
  740TMC3    C610936   0.923   0.951  14.610
  740TMC3     C10937   0.512   1.038  14.569
  740TMC3     O10938   0.481   1.120  14.487
  740TMC3     H10939   0.649   0.955  14.795
  740TMC3    H110940   0.692   1.046  14.378
  740TMC3    H210941   1.031   0.941  14.616
  740TMC3    C710942   0.944   0.978  14.372
  740TMC3    C810943   0.892   0.867  14.830
  740TMC3    O110944   1.047   0.915  14.396
  740TMC3    O210945   1.009   0.873  14.851
  741TMC3    C110946   0.069   0.491  14.141
  741TMC3    C210947   4.768   0.403  14.149
  741TMC3    C310948   4.776   0.311  14.245
  741TMC3    C410949   0.172   0.481  14.228
  741TMC3    C510950   0.180   0.373  14.318
  741TMC3    C610951   0.074   0.288  14.334
  741TMC3     C10952   0.090   0.564  14.017
  741TMC3     O10953   0.202   0.611  13.993
  741TMC3     H10954   4.690   0.419  14.075
  741TMC3    H110955   0.257   0.542  14.200
  741TMC3    H210956   0.094   0.192  14.381
  741TMC3    C710957   0.289   0.383  14.413
  741TMC3    C810958   4.656   0.229  14.261
  741TMC3    O110959   0.395   0.421  14.372
  741TMC3    O210960   4.576   0.238  14.168
  742TMC3    C110961   0.179   3.535  15.697
  742TMC3    C210962   0.084   3.502  15.599
  742TMC3    C310963   0.133   3.500  15.468
  742TMC3    C410964   0.312   3.553  15.661
  742TMC3    C510965   0.348   3.564  15.534
  742TMC3    C610966   0.260   3.536  15.430
  742TMC3     C10967   0.158   3.500  15.835
  742TMC3     O10968   0.239   3.431  15.888
  742TMC3     H10969   4.785   3.498  15.631
  742TMC3    H110970   0.379   3.577  15.743
  742TMC3    H210971   0.297   3.548  15.329
  742TMC3    C710972   0.483   3.524  15.500
  742TMC3    C810973   0.056   3.441  15.359
  742TMC3    O110974   0.503   3.452  15.402
  742TMC3    O210975   0.091   3.472  15.247
  743MPD2     C10976   2.224   4.235  19.481
  743MPD2    C110977   2.270   4.352  19.431
  743MPD2    C210978   2.405   4.385  19.446
  743MPD2    C310979   2.494   4.281  19.471
  743MPD2    C410980   2.448   4.162  19.517
  743MPD2    C510981   2.312   4.144  19.528
  743MPD2     H10982   2.444   4.470  19.390
  743MPD2    H110983   2.511   4.077  19.543
  743MPD2    H210984   2.118   4.211  19.480
  743MPD2    H310985   2.273   4.050  19.566
  743MPD2     N10986   2.637   4.299  19.452
  743MPD2    H510987   2.668   4.394  19.435
  743MPD2    N110988   2.175   4.434  19.360
  743MPD2    H710989   2.078   4.402  19.353
  744TMC3    C110990   2.107   4.593  19.199
  744TMC3    C210991   2.107   4.728  19.172
  744TMC3    C310992   2.110   4.766  19.042
  744TMC3    C410993   2.104   4.500  19.098
  744TMC3    C510994   2.110   4.544  18.970
  744TMC3    C610995   2.106   4.678  18.940
  744TMC3     C10996   2.202   4.555  19.304
  744TMC3     O10997   2.301   4.622  19.302
  744TMC3     H10998   2.133   4.794  19.253
  744TMC3    H110999   2.120   4.394  19.116
  744TMC3    H211000   2.113   4.705  18.836
  744TMC3    C711001   2.177   4.457  18.877
  744TMC3    C811002   2.073   0.097  19.010
  744TMC3    O111003   2.261   4.516  18.809
  744TMC3    O211004   2.092   0.131  18.893
  745TMC3    C111005   0.534   3.076  13.914
  745TMC3    C211006   0.404   3.028  13.892
  745TMC3    C311007   0.378   2.976  13.768
  745TMC3    C411008   0.626   3.047  13.824
  745TMC3    C511009   0.600   2.995  13.703
  745TMC3    C611010   0.470   2.958  13.670
  745TMC3     C11011   0.511   3.215  13.928
  745TMC3     O11012   0.400   3.250  13.960
  745TMC3     H11013   0.326   3.033  13.966
  745TMC3    H111014   0.724   3.070  13.864
  745TMC3    H211015   0.431   2.932  13.572
  745TMC3    C711016   0.649   3.071  13.588
  745TMC3    C811017   0.246   3.010  13.712
  745TMC3    O111018   0.594   3.046  13.478
  745TMC3    O211019   0.215   2.982  13.597
  746TMC3    C111020   3.147   0.416  11.168
  746TMC3    C211021   3.198   0.411  11.036
  746TMC3    C311022   3.112   0.360  10.944
  746TMC3    C411023   3.019   0.380  11.198
  746TMC3    C511024   2.937   0.336  11.099
  746TMC3    C611025   2.989   0.311  10.970
  746TMC3     C11026   3.174   0.538  11.239
  746TMC3     O11027   3.069   0.598  11.276
  746TMC3     H11028   3.296   0.454  11.016
  746TMC3    H111029   2.982   0.404  11.297
  746TMC3    H211030   2.929   0.284  10.884
  746TMC3    C711031   2.802   0.386  11.106
  746TMC3    C811032   3.138   0.403  10.816
  746TMC3    O111033   2.733   0.334  11.023
  746TMC3    O211034   3.239   0.362  10.759
  747TMC3    C111035   0.525   0.215  11.545
  747TMC3    C211036   0.438   0.125  11.588
  747TMC3    C311037   0.413   0.123  11.720
  747TMC3    C411038   0.600   0.289  11.630
  747TMC3    C511039   0.589   0.265  11.766
  747TMC3    C611040   0.489   0.191  11.816
  747TMC3     C11041   0.524   0.262  11.412
  747TMC3     O11042   0.588   0.363  11.388
  747TMC3     H11043   0.371   0.081  11.515
  747TMC3    H111044   0.669   0.363  11.590
  747TMC3    H211045   0.490   0.176  11.923
  747TMC3    C711046   0.669   0.341  11.858
  747TMC3    C811047   0.296   0.047  11.767
  747TMC3    O111048   0.613   0.397  11.953
  747TMC3    O211049   0.267   4.756  11.695
  748MPD2     C11050   1.636   1.071  19.566
  748MPD2    C111051   1.693   0.962  19.500
  748MPD2    C211052   1.824   0.957  19.471
  748MPD2    C311053   1.909   1.063  19.497
  748MPD2    C411054   1.852   1.178  19.556
  748MPD2    C511055   1.717   1.177  19.587
  748MPD2     H11056   1.871   0.874  19.419
  748MPD2    H111057   1.905   1.271  19.568
  748MPD2    H211058   1.529   1.064  19.583
  748MPD2    H311059   1.676   1.269  19.628
  748MPD2     N11060   2.038   1.047  19.463
  748MPD2    H511061   2.070   0.954  19.438
  748MPD2    N111062   1.605   0.859  19.451
  748MPD2    H711063   1.506   0.882  19.445
  749TMC3    C111064   2.259   1.091  19.411
  749TMC3    C211065   2.302   0.983  19.485
  749TMC3    C311066   2.403   0.919  19.425
  749TMC3    C411067   2.313   1.140  19.301
  749TMC3    C511068   2.429   1.081  19.264
  749TMC3    C611069   2.471   0.969  19.322
  749TMC3     C11070   2.132   1.152  19.446
  749TMC3     O11071   2.112   1.270  19.422
  749TMC3     H11072   2.260   0.948  19.579
  749TMC3    H111073   2.269   1.224  19.249
  749TMC3    H211074   2.568   0.929  19.294
  749TMC3    C711075   2.486   1.100  19.134
  749TMC3    C811076   2.477   0.837  19.518
  749TMC3    O111077   2.427   1.187  19.074
  749TMC3    O211078   2.467   0.868  19.635
  750MPD2     C11079   3.113   2.646  11.612
  750MPD2    C111080   3.006   2.564  11.650
  750MPD2    C211081   3.010   2.425  11.629
  750MPD2    C311082   3.114   2.360  11.561
  750MPD2    C411083   3.225   2.441  11.529
  750MPD2    C511084   3.212   2.582  11.542
  750MPD2     H11085   2.927   2.362  11.660
  750MPD2    H111086   3.316   2.411  11.478
  750MPD2    H211087   3.120   2.753  11.628
  750MPD2    H311088   3.293   2.645  11.508
  750MPD2     N11089   3.122   2.222  11.530
  750MPD2    H511090   3.193   2.186  11.468
  750MPD2    N111091   2.905   2.627  11.721
  750MPD2    H711092   2.939   2.717  11.753
  751TMC3    C111093   3.078   1.985  11.592
  751TMC3    C211094   3.022   1.908  11.692
  751TMC3    C311095   2.987   1.777  11.670
  751TMC3    C411096   3.080   1.933  11.464
  751TMC3    C511097   3.046   1.800  11.444
  751TMC3    C611098   3.001   1.713  11.544
  751TMC3     C11099   3.057   2.129  11.607
  751TMC3     O11100   2.982   2.155  11.701
  751TMC3     H11101   3.018   1.946  11.794
  751TMC3    H111102   3.110   1.992  11.378
  751TMC3    H211103   2.957   1.615  11.528
  751TMC3    C711104   3.079   1.748  11.309
  751TMC3    C811105   2.861   1.742  11.734
  751TMC3    O111106   3.179   1.787  11.255
  751TMC3    O211107   2.826   1.624  11.738
  752TMC3    C111108   1.694   2.277  17.735
  752TMC3    C211109   1.673   2.146  17.708
  752TMC3    C311110   1.630   2.067  17.816
  752TMC3    C411111   1.647   2.330  17.849
  752TMC3    C511112   1.588   2.250  17.951
  752TMC3    C611113   1.590   2.112  17.935
  752TMC3     C11114   1.759   2.369  17.642
  752TMC3     O11115   1.818   2.468  17.689
  752TMC3     H11116   1.703   2.108  17.611
  752TMC3    H111117   1.652   2.437  17.862
  752TMC3    H211118   1.557   2.053  18.020
  752TMC3    C711119   1.522   2.318  18.057
  752TMC3    C811120   1.647   1.926  17.789
  752TMC3    O111121   1.535   2.440  18.064
  752TMC3    O211122   1.727   1.890  17.702
  753TMC3    C111123   3.888   2.937  13.691
  753TMC3    C211124   3.919   2.938  13.822
  753TMC3    C311125   3.902   2.818  13.885
  753TMC3    C411126   3.837   2.834  13.618
  753TMC3    C511127   3.827   2.715  13.687
  753TMC3    C611128   3.869   2.703  13.815
  753TMC3     C11129   3.848   3.066  13.641
  753TMC3     O11130   3.748   3.086  13.577
  753TMC3     H11131   3.931   3.033  13.874
  753TMC3    H111132   3.802   2.847  13.516
  753TMC3    H211133   3.849   2.617  13.877
  753TMC3    C711134   3.812   2.595  13.604
  753TMC3    C811135   3.870   2.827  14.024
  753TMC3    O111136   3.775   2.610  13.489
  753TMC3    O211137   3.785   2.748  14.048
  754MPD2     C11138   2.974   1.796  13.502
  754MPD2    C111139   2.919   1.674  13.499
  754MPD2    C211140   2.785   1.664  13.491
  754MPD2    C311141   2.704   1.770  13.512
  754MPD2    C411142   2.756   1.892  13.520
  754MPD2    C511143   2.893   1.907  13.512
  754MPD2     H11144   2.735   1.571  13.466
  754MPD2    H111145   2.694   1.981  13.518
  754MPD2    H211146   3.079   1.821  13.492
  754MPD2    H311147   2.941   2.004  13.521
  754MPD2     N11148   2.566   1.758  13.523
  754MPD2    H511149   2.510   1.840  13.546
  754MPD2    N111150   3.000   1.568  13.505
  754MPD2    H711151   3.098   1.590  13.489
  755MPD2     C11152   1.947   2.398  13.474
  755MPD2    C111153   1.883   2.285  13.532
  755MPD2    C211154   1.951   2.164  13.526
  755MPD2    C311155   2.065   2.148  13.450
  755MPD2    C411156   2.119   2.254  13.383
  755MPD2    C511157   2.062   2.380  13.402
  755MPD2     H11158   1.913   2.077  13.578
  755MPD2    H111159   2.212   2.253  13.328
  755MPD2    H211160   1.905   2.496  13.496
  755MPD2    H311161   2.115   2.465  13.361
  755MPD2     N11162   2.127   2.013  13.421
  755MPD2    H511163   2.215   2.011  13.369
  755MPD2    N111164   1.778   2.289  13.626
  755MPD2    H711165   1.752   2.203  13.674
  756MPD2     C11166   2.407   3.194  10.114
  756MPD2    C111167   2.318   3.089  10.132
  756MPD2    C211168   2.206   3.077  10.057
  756MPD2    C311169   2.178   3.166   9.952
  756MPD2    C411170   2.278   3.260   9.927
  756MPD2    C511171   2.391   3.271  10.008
  756MPD2     H11172   2.140   2.996  10.085
  756MPD2    H111173   2.275   3.323   9.839
  756MPD2    H211174   2.489   3.219  10.180
  756MPD2    H311175   2.459   3.355  10.000
  756MPD2     N11176   2.055   3.156   9.879
  756MPD2    H511177   2.010   3.067   9.897
  756MPD2    N111178   2.347   2.984  10.225
  756MPD2    H711179   2.281   2.910  10.245
  757MPD2     C11180   1.415   2.590   9.927
  757MPD2    C111181   1.552   2.576   9.940
  757MPD2    C211182   1.639   2.674   9.884
  757MPD2    C311183   1.588   2.783   9.817
  757MPD2    C411184   1.447   2.793   9.812
  757MPD2    C511185   1.367   2.692   9.855
  757MPD2     H11186   1.747   2.669   9.884
  757MPD2    H111187   1.387   2.878   9.781
  757MPD2    H211188   1.351   2.519   9.978
  757MPD2    H311189   1.262   2.718   9.847
  757MPD2     N11190   1.671   2.886   9.763
  757MPD2    H511191   1.772   2.872   9.765
  757MPD2    N111192   1.591   2.454   9.995
  757MPD2    H711193   1.518   2.385  10.004
  758MPD2     C11194   2.354   1.693  16.161
  758MPD2    C111195   2.447   1.655  16.258
  758MPD2    C211196   2.420   1.670  16.388
  758MPD2    C311197   2.296   1.708  16.434
  758MPD2    C411198   2.208   1.755  16.339
  758MPD2    C511199   2.228   1.725  16.205
  758MPD2     H11200   2.493   1.656  16.468
  758MPD2    H111201   2.113   1.798  16.367
  758MPD2    H211202   2.368   1.683  16.054
  758MPD2    H311203   2.166   1.763  16.125
  758MPD2     N11204   2.255   1.709  16.570
  758MPD2    H511205   2.176   1.763  16.603
  758MPD2    N111206   2.575   1.621  16.211
  758MPD2    H711207   2.585   1.602  16.112
  759MPD2     C11208   1.317   0.139  10.278
  759MPD2    C111209   1.324   0.205  10.403
  759MPD2    C211210   1.371   0.337  10.405
  759MPD2    C311211   1.419   0.396  10.288
  759MPD2    C411212   1.412   0.332  10.170
  759MPD2    C511213   1.359   0.207  10.169
  759MPD2     H11214   1.380   0.396  10.495
  759MPD2    H111215   1.439   0.385  10.080
  759MPD2    H211216   1.270   0.042  10.266
  759MPD2    H311217   1.354   0.144  10.081
  759MPD2     N11218   1.465   0.530  10.297
  759MPD2    H511219   1.435   0.581  10.379
  759MPD2    N111220   1.303   0.143  10.527
  759MPD2    H711221   1.304   0.204  10.607
  760MPD2     C11222   1.020   2.019  11.669
  760MPD2    C111223   1.010   2.023  11.805
  760MPD2    C211224   1.036   1.898  11.869
  760MPD2    C311225   1.071   1.779  11.797
  760MPD2    C411226   1.079   1.784  11.661
  760MPD2    C511227   1.058   1.907  11.599
  760MPD2     H11228   1.032   1.897  11.977
  760MPD2    H111229   1.089   1.691  11.607
  760MPD2    H211230   1.016   2.112  11.615
  760MPD2    H311231   1.066   1.906  11.491
  760MPD2     N11232   1.107   1.663  11.857
  760MPD2    H511233   1.145   1.591  11.796
  760MPD2    N111234   0.967   2.136  11.879
  760MPD2    H711235   0.936   2.128  11.975
  761MPD2     C11236   2.393   1.849  11.890
  761MPD2    C111237   2.428   1.754  11.799
  761MPD2    C211238   2.565   1.746  11.771
  761MPD2    C311239   2.655   1.839  11.825
  761MPD2    C411240   2.605   1.934  11.910
  761MPD2    C511241   2.476   1.942  11.953
  761MPD2     H11242   2.598   1.677  11.694
  761MPD2    H111243   2.676   2.005  11.952
  761MPD2    H211244   2.290   1.849  11.925
  761MPD2    H311245   2.438   2.023  12.014
  761MPD2     N11246   2.795   1.838  11.803
  761MPD2    H511247   2.850   1.910  11.848
  761MPD2    N111248   2.332   1.662  11.756
  761MPD2    H711249   2.242   1.661  11.803
  762MPD2     C11250   2.612   0.951  11.583
  762MPD2    C111251   2.566   1.047  11.494
  762MPD2    C211252   2.644   1.073  11.386
  762MPD2    C311253   2.762   1.008  11.364
  762MPD2    C411254   2.813   0.917  11.454
  762MPD2    C511255   2.731   0.893  11.563
  762MPD2     H11256   2.614   1.151  11.317
  762MPD2    H111257   2.902   0.857  11.434
  762MPD2    H211258   2.566   0.933  11.679
  762MPD2    H311259   2.760   0.813  11.630
  762MPD2     N11260   2.835   1.043  11.251
  762MPD2    H511261   2.779   1.092  11.182
  762MPD2    N111262   2.443   1.114  11.523
  762MPD2    H711263   2.406   1.080  11.611
  763MPD2     C11264   4.633   1.528  16.372
  763MPD2    C111265   4.513   1.588  16.345
  763MPD2    C211266   4.489   1.719  16.395
  763MPD2    C311267   4.590   1.769  16.481
  763MPD2    C411268   4.704   1.703  16.517
  763MPD2    C511269   4.729   1.589  16.446
  763MPD2     H11270   4.397   1.768  16.364
  763MPD2    H111271   4.775   1.742  16.589
  763MPD2    H211272   4.662   1.436  16.321
  763MPD2    H311273   0.010   1.532  16.479
  763MPD2     N11274   4.580   1.906  16.525
  763MPD2    H511275   4.655   1.966  16.556
  763MPD2    N111276   4.421   1.527  16.260
  763MPD2    H711277   4.339   1.581  16.237
  764MPD2     C11278   2.243   3.455  17.726
  764MPD2    C111279   2.145   3.393  17.657
  764MPD2    C211280   2.070   3.292  17.722
  764MPD2    C311281   2.082   3.266  17.857
  764MPD2    C411282   2.194   3.324  17.918
  764MPD2    C511283   2.270   3.419  17.859
  764MPD2     H11284   1.998   3.236  17.664
  764MPD2    H111285   2.214   3.306  18.023
  764MPD2    H211286   2.300   3.536  17.681
  764MPD2    H311287   2.342   3.475  17.918
  764MPD2     N11288   1.992   3.183  17.923
  764MPD2    H511289   1.915   3.151  17.865
  764MPD2    N111290   2.121   3.415  17.518
  764MPD2    H711291   2.036   3.366  17.489
  765MPD2     C11292   1.857   0.908  16.036
  765MPD2    C111293   1.944   0.989  16.100
  765MPD2    C211294   2.078   0.958  16.112
  765MPD2    C311295   2.125   0.841  16.068
  765MPD2    C411296   2.039   0.761  15.998
  765MPD2    C511297   1.905   0.790  15.981
  765MPD2     H11298   2.148   1.026  16.161
  765MPD2    H111299   2.072   0.674  15.942
  765MPD2    H211300   1.750   0.925  16.029
  765MPD2    H311301   1.842   0.722  15.925
  765MPD2     N11302   2.263   0.806  16.090
  765MPD2    H511303   2.328   0.867  16.137
  765MPD2    N111304   1.891   1.104  16.162
  765MPD2    H711305   1.791   1.122  16.155
  766MPD2     C11306   1.349   1.330  15.847
  766MPD2    C111307   1.442   1.255  15.908
  766MPD2    C211308   1.505   1.161  15.830
  766MPD2    C311309   1.463   1.138  15.700
  766MPD2    C411310   1.360   1.208  15.639
  766MPD2    C511311   1.306   1.302  15.723
  766MPD2     H11312   1.588   1.106  15.872
  766MPD2    H111313   1.318   1.193  15.540
  766MPD2    H211314   1.300   1.417  15.888
  766MPD2    H311315   1.226   1.360  15.679
  766MPD2     N11316   1.535   1.060  15.605
  766MPD2    H511317   1.527   1.082  15.506
  766MPD2    N111318   1.491   1.303  16.037
  766MPD2    H711319   1.451   1.387  16.076
  767MPD2     C11320   1.173   1.435  15.324
  767MPD2    C111321   1.302   1.382  15.315
  767MPD2    C211322   1.323   1.275  15.225
  767MPD2    C311323   1.217   1.227  15.148
  767MPD2    C411324   1.089   1.279  15.168
  767MPD2    C511325   1.064   1.386  15.250
  767MPD2     H11326   1.423   1.235  15.213
  767MPD2    H111327   1.011   1.231  15.110
  767MPD2    H211328   1.151   1.518  15.390
  767MPD2    H311329   0.969   1.437  15.259
  767MPD2     N11330   1.246   1.133  15.048
  767MPD2    H511331   1.336   1.088  15.059
  767MPD2    N111332   1.399   1.439  15.399
  767MPD2    H711333   1.371   1.514  15.462
  768MPD2     C11334   2.507   0.192  10.676
  768MPD2    C111335   2.429   0.162  10.787
  768MPD2    C211336   2.488   0.076  10.877
  768MPD2    C311337   2.623   0.044  10.876
  768MPD2    C411338   2.701   0.086  10.772
  768MPD2    C511339   2.645   0.153  10.674
  768MPD2     H11340   2.433   0.054  10.967
  768MPD2    H111341   2.807   0.062  10.773
  768MPD2    H211342   2.468   0.267  10.608
  768MPD2    H311343   2.710   0.190  10.596
  768MPD2     N11344   2.688   4.784  10.987
  768MPD2    H511345   2.789   4.787  10.992
  768MPD2    N111346   2.307   0.228  10.828
  768MPD2    H711347   2.274   0.216  10.923
  769MPD2     C11348   3.494   2.273  15.040
  769MPD2    C111349   3.428   2.307  15.159
  769MPD2    C211350   3.497   2.353  15.267
  769MPD2    C311351   3.635   2.374  15.264
  769MPD2    C411352   3.696   2.352  15.147
  769MPD2    C511353   3.628   2.299  15.042
  769MPD2     H11354   3.447   2.365  15.362
  769MPD2    H111355   3.803   2.365  15.138
  769MPD2    H211356   3.448   2.219  14.958
  769MPD2    H311357   3.685   2.273  14.954
  769MPD2     N11358   3.695   2.429  15.379
  769MPD2    H511359   3.635   2.438  15.460
  769MPD2    N111360   3.289   2.292  15.164
  769MPD2    H711361   3.249   2.258  15.077
  770MPD2     C11362   2.507   1.803  15.518
  770MPD2    C111363   2.574   1.773  15.400
  770MPD2    C211364   2.659   1.870  15.351
  770MPD2    C311365   2.668   1.993  15.414
  770MPD2    C411366   2.586   2.025  15.521
  770MPD2    C511367   2.508   1.925  15.573
  770MPD2     H11368   2.718   1.845  15.263
  770MPD2    H111369   2.583   2.126  15.560
  770MPD2    H211370   2.445   1.726  15.563
  770MPD2    H311371   2.458   1.939  15.668
  770MPD2     N11372   2.754   2.086  15.356
  770MPD2    H511373   2.797   2.062  15.267
  770MPD2    N111374   2.558   1.642  15.347
  770MPD2    H711375   2.498   1.570  15.386
  771MPD2     C11376   4.340   0.488  14.051
  771MPD2    C111377   4.277   0.601  14.007
  771MPD2    C211378   4.146   0.586  13.953
  771MPD2    C311379   4.095   0.460  13.936
  771MPD2    C411380   4.164   0.345  13.979
  771MPD2    C511381   4.283   0.363  14.040
  771MPD2     H11382   4.091   0.668  13.907
  771MPD2    H111383   4.125   0.246  13.958
  771MPD2    H211384   4.437   0.495  14.099
  771MPD2    H311385   4.334   0.283  14.093
  771MPD2     N11386   3.976   0.457  13.859
  771MPD2    H511387   3.950   0.546  13.819
  771MPD2    N111388   4.325   0.735  14.014
  771MPD2    H711389   4.262   0.802  13.971
  772MPD2     C11390   3.971   1.339  13.935
  772MPD2    C111391   3.980   1.223  14.011
  772MPD2    C211392   3.862   1.151  14.045
  772MPD2    C311393   3.737   1.210  14.018
  772MPD2    C411394   3.735   1.336  13.966
  772MPD2    C511395   3.849   1.399  13.921
  772MPD2     H11396   3.864   1.046  14.072
  772MPD2    H111397   3.647   1.395  13.945
  772MPD2    H211398   4.056   1.402  13.910
  772MPD2    H311399   3.836   1.499  13.882
  772MPD2     N11400   3.613   1.146  14.050
  772MPD2    H511401   3.533   1.205  14.032
  772MPD2    N111402   4.106   1.167  14.048
  772MPD2    H711403   4.102   1.087  14.109
  773MPD2     C11404   3.436   1.973  17.858
  773MPD2    C111405   3.322   1.889  17.868
  773MPD2    C211406   3.315   1.789  17.959
  773MPD2    C311407   3.415   1.762  18.041
  773MPD2    C411408   3.530   1.840  18.033
  773MPD2    C511409   3.538   1.942  17.945
  773MPD2     H11410   3.227   1.724  17.964
  773MPD2    H111411   3.620   1.828  18.093
  773MPD2    H211412   3.454   2.065  17.804
  773MPD2    H311413   3.629   2.001  17.957
  773MPD2     N11414   3.396   1.653  18.127
  773MPD2    H511415   3.306   1.606  18.133
  773MPD2    N111416   3.213   1.894  17.777
  773MPD2    H711417   3.133   1.835  17.798
  774MPD2     C11418   2.268   0.738  13.513
  774MPD2    C111419   2.234   0.840  13.610
  774MPD2    C211420   2.309   0.957  13.623
  774MPD2    C311421   2.423   0.977  13.550
  774MPD2    C411422   2.458   0.881  13.460
  774MPD2    C511423   2.381   0.767  13.446
  774MPD2     H11424   2.285   1.031  13.699
  774MPD2    H111425   2.548   0.882  13.399
  774MPD2    H211426   2.205   0.653  13.491
  774MPD2    H311427   2.410   0.690  13.376
  774MPD2     N11428   2.514   1.079  13.587
  774MPD2    H511429   2.477   1.139  13.661
  774MPD2    N111430   2.144   0.796  13.708
  774MPD2    H711431   2.120   0.698  13.703
  775MPD2     C11432   3.990   2.180  16.043
  775MPD2    C111433   3.956   2.305  16.075
  775MPD2    C211434   4.028   2.418  16.035
  775MPD2    C311435   4.151   2.401  15.979
  775MPD2    C411436   4.194   2.272  15.947
  775MPD2    C511437   4.111   2.169  15.983
  775MPD2     H11438   3.991   2.514  16.067
  775MPD2    H111439   4.295   2.266  15.908
  775MPD2    H211440   3.947   2.085  16.075
  775MPD2    H311441   4.151   2.069  15.971
  775MPD2     N11442   4.226   2.515  15.937
  775MPD2    H511443   4.319   2.497  15.901
  775MPD2    N111444   3.829   2.315  16.140
  775MPD2    H711445   3.764   2.238  16.135
  776MPD2     C11446   2.893   3.020  12.198
  776MPD2    C111447   2.811   3.059  12.107
  776MPD2    C211448   2.790   3.193  12.073
  776MPD2    C311449   2.841   3.280  12.157
  776MPD2    C411450   2.926   3.241  12.251
  776MPD2    C511451   2.958   3.114  12.268
  776MPD2     H11452   2.715   3.219  11.999
  776MPD2    H111453   2.968   3.326  12.304
  776MPD2    H211454   2.898   2.920  12.241
  776MPD2    H311455   3.025   3.079  12.346
  776MPD2     N11456   2.822   3.414  12.137
  776MPD2    H511457   2.885   3.471  12.192
  776MPD2    N111458   2.740   2.962  12.037
  776MPD2    H711459   2.765   2.866  12.058
  777MPD2     C11460   2.884   0.145  18.701
  777MPD2    C111461   2.837   0.035  18.770
  777MPD2    C211462   2.797   4.726  18.703
  777MPD2    C311463   2.816   4.723  18.563
  777MPD2    C411464   2.873   0.019  18.492
  777MPD2    C511465   2.902   0.134  18.560
  777MPD2     H11466   2.750   4.648  18.762
  777MPD2    H111467   2.903   0.006  18.388
  777MPD2    H211468   2.910   0.235  18.755
  777MPD2    H311469   2.944   0.217  18.503
  777MPD2     N11470   2.766   4.604  18.493
  777MPD2    H511471   2.723   4.531  18.549
  777MPD2    N111472   2.827   0.042  18.910
  777MPD2    H711473   2.841   0.134  18.949
  778MPD2     C11474   4.064   0.487  15.201
  778MPD2    C111475   4.040   0.389  15.106
  778MPD2    C211476   4.055   0.421  14.970
  778MPD2    C311477   4.093   0.549  14.934
  778MPD2    C411478   4.137   0.634  15.029
  778MPD2    C511479   4.127   0.605  15.163
  778MPD2     H11480   4.039   0.336  14.905
  778MPD2    H111481   4.176   0.730  14.997
  778MPD2    H211482   4.049   0.465  15.306
  778MPD2    H311483   4.156   0.674  15.242
  778MPD2     N11484   4.114   0.586  14.795
  778MPD2    H511485   4.095   0.513  14.727
  778MPD2    N111486   3.974   0.261  15.133
  778MPD2    H711487   3.963   0.207  15.049
  779MPD2     C11488   3.734   4.016  14.349
  779MPD2    C111489   3.870   4.043  14.364
  779MPD2    C211490   3.917   4.176  14.332
  779MPD2    C311491   3.834   4.270  14.272
  779MPD2    C411492   3.704   4.230  14.246
  779MPD2    C511493   3.655   4.109  14.282
  779MPD2     H11494   4.024   4.193  14.331
  779MPD2    H111495   3.643   4.293  14.181
  779MPD2    H211496   3.685   3.921  14.365
  779MPD2    H311497   3.554   4.086  14.250
  779MPD2     N11498   3.885   4.389  14.226
  779MPD2    H511499   3.975   4.416  14.262
  779MPD2    N111500   3.963   3.943  14.418
  779MPD2    H711501   4.060   3.971  14.414
  780MPD2     C11502   3.312   3.902  18.905
  780MPD2    C111503   3.263   3.854  18.791
  780MPD2    C211504   3.312   3.897  18.667
  780MPD2    C311505   3.419   3.980  18.663
  780MPD2    C411506   3.467   4.034  18.782
  780MPD2    C511507   3.399   4.006  18.894
  780MPD2     H11508   3.278   3.849  18.576
  780MPD2    H111509   3.553   4.099  18.785
  780MPD2    H211510   3.279   3.866  19.002
  780MPD2    H311511   3.429   4.051  18.988
  780MPD2     N11512   3.468   4.022  18.535
  780MPD2    H511513   3.429   3.985  18.449
  780MPD2    N111514   3.163   3.753  18.805
  780MPD2    H711515   3.151   3.711  18.896
  781MPD2     C11516   0.347   1.017  12.121
  781MPD2    C111517   0.430   1.043  12.228
  781MPD2    C211518   0.550   1.111  12.206
  781MPD2    C311519   0.581   1.146  12.076
  781MPD2    C411520   0.492   1.127  11.970
  781MPD2    C511521   0.375   1.065  11.993
  781MPD2     H11522   0.605   1.146  12.293
  781MPD2    H111523   0.516   1.171  11.873
  781MPD2    H211524   0.249   0.976  12.143
  781MPD2    H311525   0.298   1.052  11.917
  781MPD2     N11526   0.697   1.213  12.041
  781MPD2    H511527   0.704   1.262  11.952
  781MPD2    N111528   0.400   1.008  12.362
  781MPD2    H711529   0.472   1.027  12.430
  782MPD2     C11530   2.989   1.961  10.562
  782MPD2    C111531   3.130   1.963  10.553
  782MPD2    C211532   3.203   2.062  10.613
  782MPD2    C311533   3.135   2.174  10.655
  782MPD2    C411534   2.997   2.184  10.647
  782MPD2    C511535   2.927   2.078  10.597
  782MPD2     H11536   3.309   2.054  10.631
  782MPD2    H111537   2.938   2.262  10.693
  782MPD2    H211538   2.930   1.875  10.532
  782MPD2    H311539   2.820   2.083  10.581
  782MPD2     N11540   3.213   2.270  10.720
  782MPD2    H511541   3.314   2.269  10.715
  782MPD2    N111542   3.194   1.849  10.507
  782MPD2    H711543   3.132   1.770  10.492
  783MPD2     C11544   2.892   1.462  11.147
  783MPD2    C111545   2.993   1.559  11.165
  783MPD2    C211546   3.085   1.574  11.062
  783MPD2    C311547   3.067   1.506  10.941
  783MPD2    C411548   2.963   1.419  10.925
  783MPD2    C511549   2.872   1.400  11.026
  783MPD2     H11550   3.169   1.639  11.077
  783MPD2    H111551   2.945   1.369  10.831
  783MPD2    H211552   2.817   1.438  11.222
  783MPD2    H311553   2.788   1.332  11.016
  783MPD2     N11554   3.168   1.529  10.845
  783MPD2    H511555   3.234   1.605  10.858
  783MPD2    N111556   2.998   1.635  11.280
  783MPD2    H711557   2.923   1.633  11.348
  784MPD2     C11558   1.076   2.481  19.199
  784MPD2    C111559   1.070   2.606  19.259
  784MPD2    C211560   0.992   2.710  19.213
  784MPD2    C311561   0.897   2.680  19.118
  784MPD2    C411562   0.902   2.560  19.043
  784MPD2    C511563   0.997   2.461  19.091
  784MPD2     H11564   0.985   2.806  19.263
  784MPD2    H111565   0.834   2.541  18.961
  784MPD2    H211566   1.136   2.397  19.232
  784MPD2    H311567   1.006   2.366  19.040
  784MPD2     N11568   0.797   2.785  19.082
  784MPD2    H511569   0.824   2.879  19.108
  784MPD2    N111570   1.150   2.638  19.369
  784MPD2    H711571   1.133   2.731  19.405
  785MPD2     C11572   1.356   0.496  11.571
  785MPD2    C111573   1.345   0.570  11.458
  785MPD2    C211574   1.261   0.521  11.354
  785MPD2    C311575   1.200   0.400  11.372
  785MPD2    C411576   1.211   0.325  11.492
  785MPD2    C511577   1.292   0.379  11.591
  785MPD2     H11578   1.235   0.580  11.267
  785MPD2    H111579   1.169   0.226  11.502
  785MPD2    H211580   1.413   0.528  11.656
  785MPD2    H311581   1.310   0.316  11.678
  785MPD2     N11582   1.119   0.370  11.262
  785MPD2    H511583   1.110   0.435  11.184
  785MPD2    N111584   1.395   0.701  11.459
  785MPD2    H711585   1.420   0.732  11.552
  786MPD2     C11586   4.478   3.177  15.141
  786MPD2    C111587   4.597   3.233  15.091
  786MPD2    C211588   4.694   3.279  15.178
  786MPD2    C311589   4.671   3.291  15.315
  786MPD2    C411590   4.560   3.232  15.369
  786MPD2    C511591   4.470   3.172  15.282
  786MPD2     H11592   4.787   3.306  15.129
  786MPD2    H111593   4.537   3.221  15.474
  786MPD2    H211594   4.400   3.124  15.089
  786MPD2    H311595   4.381   3.124  15.320
  786MPD2     N11596   4.764   3.352  15.401
  786MPD2    H511597   4.755   3.331  15.500
  786MPD2    N111598   4.629   3.219  14.952
  786MPD2    H711599   4.727   3.233  14.930
  787MPD2     C11600   0.173   2.693  14.988
  787MPD2    C111601   0.117   2.695  14.863
  787MPD2    C211602   0.152   2.596  14.776
  787MPD2    C311603   0.232   2.490  14.814
  787MPD2    C411604   0.282   2.480  14.945
  787MPD2    C511605   0.253   2.584  15.027
  787MPD2     H11606   0.135   2.596  14.669
  787MPD2    H111607   0.341   2.395  14.976
  787MPD2    H211608   0.163   2.767  15.066
  787MPD2    H311609   0.298   2.590  15.125
  787MPD2     N11610   0.241   2.380  14.718
  787MPD2    H511611   0.199   2.391  14.626
  787MPD2    N111612   0.039   2.807  14.825
  787MPD2    H711613   0.034   2.880  14.896
  788MPD2     C11614   1.541   1.768  19.192
  788MPD2    C111615   1.658   1.747  19.120
  788MPD2    C211616   1.697   1.846  19.031
  788MPD2    C311617   1.634   1.969  19.033
  788MPD2    C411618   1.531   1.993  19.115
  788MPD2    C511619   1.478   1.891  19.187
  788MPD2     H11620   1.787   1.832  18.972
  788MPD2    H111621   1.487   2.092  19.109
  788MPD2    H211622   1.488   1.697  19.254
  788MPD2    H311623   1.384   1.908  19.238
  788MPD2     N11624   1.680   2.085  18.966
  788MPD2    H511625   1.630   2.169  18.995
  788MPD2    N111626   1.724   1.622  19.118
  788MPD2    H711627   1.805   1.618  19.057
  789MPD2     C11628   2.067   1.264  16.589
  789MPD2    C111629   1.989   1.166  16.635
  789MPD2    C211630   1.910   1.196  16.747
  789MPD2    C311631   1.908   1.327  16.797
  789MPD2    C411632   1.979   1.428  16.741
  789MPD2    C511633   2.070   1.389  16.645
  789MPD2     H11634   1.854   1.110  16.782
  789MPD2    H111635   1.969   1.529  16.777
  789MPD2    H211636   2.140   1.248  16.509
  789MPD2    H311637   2.133   1.460  16.591
  789MPD2     N11638   1.835   1.370  16.909
  789MPD2    H511639   1.856   1.461  16.949
  789MPD2    N111640   1.999   1.031  16.589
  789MPD2    H711641   1.917   0.981  16.624
  790MPD2     C11642   3.008   3.223  14.017
  790MPD2    C111643   3.002   3.087  14.014
  790MPD2    C211644   2.939   3.012  13.911
  790MPD2    C311645   2.894   3.073  13.805
  790MPD2    C411646   2.906   3.211  13.797
  790MPD2    C511647   2.965   3.282  13.900
  790MPD2     H11648   2.932   2.904  13.909
  790MPD2    H111649   2.873   3.264  13.708
  790MPD2    H211650   3.067   3.283  14.085
  790MPD2    H311651   2.975   3.390  13.902
  790MPD2     N11652   2.837   3.002  13.702
  790MPD2    H511653   2.832   2.901  13.715
  790MPD2    N111654   3.056   3.029  14.129
  790MPD2    H711655   3.086   3.085  14.208
  791MPD2     C11656   2.281   2.951  13.060
  791MPD2    C111657   2.318   2.858  13.153
  791MPD2    C211658   2.241   2.744  13.168
  791MPD2    C311659   2.127   2.725  13.098
  791MPD2    C411660   2.084   2.823  13.007
  791MPD2    C511661   2.158   2.942  13.004
  791MPD2     H11662   2.265   2.667  13.241
  791MPD2    H111663   1.990   2.817  12.953
  791MPD2    H211664   2.353   3.028  13.035
  791MPD2    H311665   2.113   3.014  12.937
  791MPD2     N11666   2.065   2.601  13.110
  791MPD2    H511667   2.117   2.529  13.159
  791MPD2    N111668   2.438   2.876  13.224
  791MPD2    H711669   2.481   2.967  13.209
  792MPD2     C11670   2.968   3.031  11.495
  792MPD2    C111671   2.857   3.099  11.552
  792MPD2    C211672   2.734   3.037  11.557
  792MPD2    C311673   2.718   2.914  11.495
  792MPD2    C411674   2.825   2.853  11.447
  792MPD2    C511675   2.950   2.905  11.446
  792MPD2     H11676   2.648   3.088  11.598
  792MPD2    H111677   2.821   2.755  11.401
  792MPD2    H211678   3.068   3.069  11.478
  792MPD2    H311679   3.031   2.861  11.390
  792MPD2     N11680   2.602   2.838  11.493
  792MPD2    H511681   2.607   2.744  11.457
  792MPD2    N111682   2.895   3.227  11.598
  792MPD2    H711683   2.993   3.254  11.588
  793MPD2     C11684   2.024   2.660  10.855
  793MPD2    C111685   2.142   2.726  10.883
  793MPD2    C211686   2.175   2.762  11.013
  793MPD2    C311687   2.083   2.740  11.112
  793MPD2    C411688   1.960   2.681  11.080
  793MPD2    C511689   1.936   2.633  10.957
  793MPD2     H11690   2.263   2.814  11.050
  793MPD2    H111691   1.880   2.652  11.148
  793MPD2    H211692   1.991   2.637  10.755
  793MPD2    H311693   1.848   2.576  10.930
  793MPD2     N11694   2.119   2.777  11.244
  793MPD2    H511695   2.212   2.812  11.259
  793MPD2    N111696   2.238   2.763  10.787
  793MPD2    H711697   2.327   2.805  10.811
  794MPD2     C11698   2.719   2.461  17.463
  794MPD2    C111699   2.689   2.344  17.399
  794MPD2    C211700   2.573   2.334  17.325
  794MPD2    C311701   2.497   2.446  17.308
  794MPD2    C411702   2.537   2.561  17.365
  794MPD2    C511703   2.645   2.572  17.447
  794MPD2     H11704   2.557   2.243  17.269
  794MPD2    H111705   2.477   2.650  17.349
  794MPD2    H211706   2.806   2.466  17.527
  794MPD2    H311707   2.669   2.666  17.496
  794MPD2     N11708   2.383   2.448  17.220
  794MPD2    H511709   2.323   2.527  17.241
  794MPD2    N111710   2.766   2.228  17.393
  794MPD2    H711711   2.738   2.146  17.341
  795MPD2     C11712   0.471   4.527  13.618
  795MPD2    C111713   0.426   4.424  13.539
  795MPD2    C211714   0.503   4.311  13.515
  795MPD2    C311715   0.629   4.308  13.569
  795MPD2    C411716   0.671   4.403  13.655
  795MPD2    C511717   0.588   4.504  13.688
  795MPD2     H11718   0.474   4.234  13.445
  795MPD2    H111719   0.772   4.406  13.695
  795MPD2    H211720   0.417   4.619  13.638
  795MPD2    H311721   0.634   4.580  13.750
  795MPD2     N11722   0.708   4.200  13.539
  795MPD2    H511723   0.660   4.121  13.497
  795MPD2    N111724   0.303   4.428  13.472
  795MPD2    H711725   0.261   4.340  13.443
  796MPD2     C11726   4.674   0.933  15.850
  796MPD2    C111727   4.724   0.979  15.972
  796MPD2    C211728   4.729   1.112  15.996
  796MPD2    C311729   4.692   1.201  15.898
  796MPD2    C411730   4.641   1.153  15.781
  796MPD2    C511731   4.629   1.017  15.753
  796MPD2     H11732   4.755   1.147  16.095
  796MPD2    H111733   4.604   1.227  15.711
  796MPD2    H211734   4.673   0.825  15.840
  796MPD2    H311735   4.576   0.979  15.667
  796MPD2     N11736   4.696   1.341  15.929
  796MPD2    H511737   4.737   1.359  16.021
  796MPD2    N111738   4.758   0.880  16.065
  796MPD2    H711739   4.724   0.785  16.055
  797MPD2     C11740   0.671   0.613  17.565
  797MPD2    C111741   0.692   0.747  17.575
  797MPD2    C211742   0.656   0.828  17.471
  797MPD2    C311743   0.609   0.776  17.353
  797MPD2    C411744   0.609   0.641  17.334
  797MPD2    C511745   0.639   0.567  17.443
  797MPD2     H11746   0.654   0.936  17.487
  797MPD2    H111747   0.574   0.591  17.244
  797MPD2    H211748   0.689   0.542  17.644
  797MPD2    H311749   0.624   0.460  17.429
  797MPD2     N11750   0.563   0.858  17.248
  797MPD2    H511751   0.549   0.808  17.160
  797MPD2    N111752   0.754   0.812  17.684
  797MPD2    H711753   0.761   0.911  17.666
  798MPD2     C11754   0.539   1.483  17.524
  798MPD2    C111755   0.636   1.408  17.467
  798MPD2    C211756   0.709   1.318  17.548
  798MPD2    C311757   0.692   1.321  17.682
  798MPD2    C411758   0.602   1.409  17.741
  798MPD2    C511759   0.525   1.484  17.660
  798MPD2     H11760   0.788   1.255  17.510
  798MPD2    H111761   0.584   1.404  17.847
  798MPD2    H211762   0.473   1.541  17.460
  798MPD2    H311763   0.441   1.544  17.696
  798MPD2     N11764   0.774   1.234  17.755
  798MPD2    H511765   0.827   1.164  17.703
  798MPD2    N111766   0.641   1.408  17.322
  798MPD2    H711767   0.564   1.456  17.277
  799MPD2     C11768   4.713   2.264  14.948
  799MPD2    C111769   4.633   2.186  14.858
  799MPD2    C211770   4.573   2.253  14.752
  799MPD2    C311771   4.587   2.389  14.736
  799MPD2    C411772   4.661   2.458  14.831
  799MPD2    C511773   4.716   2.399  14.937
  799MPD2     H11774   4.525   2.190  14.678
  799MPD2    H111775   4.659   2.566  14.826
  799MPD2    H211776   4.767   2.217  15.029
  799MPD2    H311777   4.771   2.468  15.000
  799MPD2     N11778   4.531   2.472  14.643
  799MPD2    H511779   4.546   2.572  14.653
  799MPD2    N111780   4.615   2.046  14.863
  799MPD2    H711781   4.563   2.001  14.788
  800MPD2     C11782   0.040   3.465  13.640
  800MPD2    C111783   0.082   3.458  13.773
  800MPD2    C211784   0.112   3.333  13.820
  800MPD2    C311785   0.115   3.222  13.737
  800MPD2    C411786   0.057   3.232  13.611
  800MPD2    C511787   0.018   3.350  13.561
  800MPD2     H11788   0.161   3.321  13.916
  800MPD2    H111789   0.052   3.146  13.546
  800MPD2    H211790   0.025   3.563  13.594
  800MPD2    H311791   4.794   3.365  13.458
  800MPD2     N11792   0.195   3.115  13.785
  800MPD2    H511793   0.243   3.147  13.869
  800MPD2    N111794   0.129   3.578  13.822
  800MPD2    H711795   0.126   3.658  13.760
  801MPD2     C11796   0.283   4.275  13.830
  801MPD2    C111797   0.217   4.167  13.867
  801MPD2    C211798   0.097   4.187  13.939
  801MPD2    C311799   0.058   4.317  13.980
  801MPD2    C411800   0.132   4.426  13.947
  801MPD2    C511801   0.245   4.398  13.867
  801MPD2     H11802   0.041   4.101  13.973
  801MPD2    H111803   0.116   4.530  13.973
  801MPD2    H211804   0.367   4.279  13.762
  801MPD2    H311805   0.298   4.482  13.824
  801MPD2     N11806   4.747   4.333  14.059
  801MPD2    H511807   4.736   4.430  14.088
  801MPD2    N111808   0.261   4.039  13.834
  801MPD2    H711809   0.197   3.967  13.867
  802MPD2     C11810   4.146   4.716  17.615
  802MPD2    C111811   4.235   4.700  17.721
  802MPD2    C211812   4.296   4.576  17.742
  802MPD2    C311813   4.275   4.469  17.656
  802MPD2    C411814   4.187   4.487  17.556
  802MPD2    C511815   4.123   4.609  17.536
  802MPD2     H11816   4.361   4.561  17.827
  802MPD2    H111817   4.183   4.411  17.478
  802MPD2    H211818   4.084   0.001  17.604
  802MPD2    H311819   4.059   4.621  17.450
  802MPD2     N11820   4.363   4.358  17.669
  802MPD2    H511821   4.443   4.359  17.732
  802MPD2    N111822   4.259   4.799  17.824
  802MPD2    H711823   4.296   4.765  17.912
  803MPD2     C11824   0.916   2.755  12.388
  803MPD2    C111825   1.030   2.760  12.453
  803MPD2    C211826   1.041   2.687  12.575
  803MPD2    C311827   0.940   2.610  12.621
  803MPD2    C411828   0.846   2.571  12.524
  803MPD2    C511829   0.825   2.659  12.420
  803MPD2     H11830   1.126   2.720  12.633
  803MPD2    H111831   0.770   2.497  12.547
  803MPD2    H211832   0.904   2.807  12.293
  803MPD2    H311833   0.745   2.643  12.349
  803MPD2     N11834   0.935   2.554  12.753
  803MPD2    H511835   0.865   2.481  12.764
  803MPD2    N111836   1.131   2.852  12.424
  803MPD2    H711837   1.206   2.860  12.492
  804MPD2     C11838   0.376   3.989  16.988
  804MPD2    C111839   0.405   3.964  17.125
  804MPD2    C211840   0.486   4.054  17.194
  804MPD2    C311841   0.541   4.158  17.114
  804MPD2    C411842   0.523   4.172  16.977
  804MPD2    C511843   0.445   4.079  16.916
  804MPD2     H11844   0.506   4.047  17.301
  804MPD2    H111845   0.562   4.253  16.916
  804MPD2    H211846   0.311   3.919  16.936
  804MPD2    H311847   0.434   4.091  16.808
  804MPD2     N11848   0.608   4.258  17.191
  804MPD2    H511849   0.610   4.233  17.290
  804MPD2    N111850   0.366   3.851  17.197
  804MPD2    H711851   0.406   3.841  17.289
  805MPD2     C11852   4.427   2.151  15.630
  805MPD2    C111853   4.476   2.280  15.638
  805MPD2    C211854   4.593   2.306  15.694
  805MPD2    C311855   4.676   2.211  15.756
  805MPD2    C411856   4.629   2.084  15.745
  805MPD2    C511857   4.510   2.059  15.684
  805MPD2     H11858   4.631   2.407  15.686
  805MPD2    H111859   4.677   1.995  15.785
  805MPD2    H211860   4.338   2.118  15.578
  805MPD2    H311861   4.466   1.960  15.688
  805MPD2     N11862   4.797   2.248  15.803
  805MPD2    H511863   0.011   2.348  15.800
  805MPD2    N111864   4.409   2.388  15.569
  805MPD2    H711865   4.472   2.466  15.552
  806MPD2     C11866   0.058   1.947  19.381
  806MPD2    C111867   0.162   2.033  19.342
  806MPD2    C211868   0.144   2.115  19.232
  806MPD2    C311869   0.055   2.080  19.135
  806MPD2    C411870   4.757   1.990  19.174
  806MPD2    C511871   4.749   1.937  19.302
  806MPD2     H11872   0.213   2.198  19.216
  806MPD2    H111873   4.668   1.976  19.114
  806MPD2    H211874   0.062   1.902  19.479
  806MPD2    H311875   4.665   1.880  19.340
  806MPD2     N11876   0.062   2.122  19.001
  806MPD2    H511877   0.126   2.198  18.982
  806MPD2    N111878   0.274   2.028  19.430
  806MPD2    H711879   0.264   1.975  19.516
  807MPD2     C11880   0.538   1.794  19.153
  807MPD2    C111881   0.447   1.796  19.045
  807MPD2    C211882   0.343   1.698  19.050
  807MPD2    C311883   0.309   1.628  19.164
  807MPD2    C411884   0.399   1.629  19.267
  807MPD2    C511885   0.518   1.708  19.257
  807MPD2     H11886   0.282   1.698  18.960
  807MPD2    H111887   0.381   1.569  19.355
  807MPD2    H211888   0.626   1.857  19.153
  807MPD2    H311889   0.592   1.713  19.336
  807MPD2     N11890   0.186   1.560  19.155
  807MPD2    H511891   0.123   1.588  19.080
  807MPD2    N111892   0.453   1.886  18.939
  807MPD2    H711893   0.425   1.852  18.848
  808MPD2     C11894   0.758   3.572   9.984
  808MPD2    C111895   0.705   3.624  10.097
  808MPD2    C211896   0.705   3.763  10.118
  808MPD2    C311897   0.775   3.840  10.027
  808MPD2    C411898   0.848   3.786   9.924
  808MPD2    C511899   0.842   3.648   9.907
  808MPD2     H11900   0.637   3.801  10.193
  808MPD2    H111901   0.903   3.839   9.848
  808MPD2    H211902   0.754   3.467   9.957
  808MPD2    H311903   0.887   3.600   9.821
  808MPD2     N11904   0.761   3.982  10.026
  808MPD2    H511905   0.821   4.027   9.958
  808MPD2    N111906   0.618   3.555  10.184
  808MPD2    H711907   0.589   3.601  10.270
  809MPD2     C11908   1.119   0.008   9.675
  809MPD2    C111909   1.143   4.679   9.696
  809MPD2    C211910   1.045   4.605   9.749
  809MPD2    C311911   0.934   4.670   9.803
  809MPD2    C411912   0.917   0.005   9.789
  809MPD2    C511913   1.012   0.071   9.729
  809MPD2     H11914   1.053   4.498   9.769
  809MPD2    H111915   0.833   0.054   9.838
  809MPD2    H211916   1.189   0.074   9.625
  809MPD2    H311917   1.003   0.177   9.709
  809MPD2     N11918   0.832   4.602   9.871
  809MPD2    H511919   0.776   4.662   9.931
  809MPD2    N111920   1.262   4.606   9.668
  809MPD2    H711921   1.265   4.507   9.689
  810MPD2     C11922   0.412   3.112  10.745
  810MPD2    C111923   0.296   3.041  10.765
  810MPD2    C211924   0.215   3.090  10.864
  810MPD2    C311925   0.236   3.206  10.931
  810MPD2    C411926   0.351   3.274  10.901
  810MPD2    C511927   0.439   3.229  10.811
  810MPD2     H11928   0.130   3.028  10.890
  810MPD2    H111929   0.361   3.367  10.954
  810MPD2    H211930   0.489   3.080  10.676
  810MPD2    H311931   0.528   3.286  10.785
  810MPD2     N11932   0.141   3.258  11.018
  810MPD2    H511933   0.177   3.344  11.058
  810MPD2    N111934   0.250   2.938  10.680
  810MPD2    H711935   0.297   2.935  10.590
  811MPD2     C11936   4.420   2.946  10.126
  811MPD2    C111937   4.499   3.020  10.215
  811MPD2    C211938   4.485   3.159  10.216
  811MPD2    C311939   4.393   3.216  10.129
  811MPD2    C411940   4.318   3.143  10.037
  811MPD2    C511941   4.340   3.010  10.032
  811MPD2     H11942   4.541   3.216  10.289
  811MPD2    H111943   4.248   3.186   9.966
  811MPD2    H211944   4.427   2.839  10.136
  811MPD2    H311945   4.266   2.951   9.978
  811MPD2     N11946   4.383   3.358  10.138
  811MPD2    H511947   4.438   3.408  10.208
  811MPD2    N111948   4.561   2.948  10.315
  811MPD2    H711949   4.548   2.848  10.306
  812MPD2     C11950   3.266   2.906  12.315
  812MPD2    C111951   3.315   2.997  12.407
  812MPD2    C211952   3.384   2.957  12.518
  812MPD2    C311953   3.416   2.822  12.539
  812MPD2    C411954   3.373   2.731  12.439
  812MPD2    C511955   3.292   2.773  12.336
  812MPD2     H11956   3.431   3.031  12.581
  812MPD2    H111957   3.385   2.623  12.433
  812MPD2    H211958   3.204   2.921  12.228
  812MPD2    H311959   3.258   2.705  12.257
  812MPD2     N11960   3.478   2.779  12.654
  812MPD2    H511961   3.516   2.846  12.720
  812MPD2    N111962   3.295   3.134  12.383
  812MPD2    H711963   3.275   3.162  12.287
  813MPD2     C11964   2.717   0.127  13.062
  813MPD2    C111965   2.809   0.116  13.160
  813MPD2    C211966   2.770   0.077  13.286
  813MPD2    C311967   2.641   0.040  13.311
  813MPD2    C411968   2.549   0.052  13.212
  813MPD2    C511969   2.583   0.101  13.087
  813MPD2     H11970   2.844   0.062  13.363
  813MPD2    H111971   2.443   0.048  13.236
  813MPD2    H211972   2.745   0.160  12.962
  813MPD2    H311973   2.504   0.115  13.014
  813MPD2     N11974   2.608   0.015  13.445
  813MPD2    H511975   2.687   0.012  13.509
  813MPD2    N111976   2.944   0.126  13.127
  813MPD2    H711977   2.962   0.186  13.047
  814MPD2     C11978   3.392   1.138  12.862
  814MPD2    C111979   3.349   1.211  12.753
  814MPD2    C211980   3.364   1.351  12.760
  814MPD2    C311981   3.416   1.407  12.881
  814MPD2    C411982   3.459   1.324  12.982
  814MPD2    C511983   3.452   1.188  12.969
  814MPD2     H11984   3.333   1.407  12.672
  814MPD2    H111985   3.497   1.369  13.073
  814MPD2    H211986   3.374   1.032  12.863
  814MPD2    H311987   3.481   1.123  13.051
  814MPD2     N11988   3.437   1.545  12.897
  814MPD2    H511989   3.474   1.588  12.981
  814MPD2    N111990   3.283   1.154  12.642
  814MPD2    H711991   3.242   1.214  12.572
  815MPD2     C11992   3.761   0.013  11.954
  815MPD2    C111993   3.707   4.696  11.946
  815MPD2    C211994   3.575   4.674  11.976
  815MPD2    C311995   3.488   4.770  12.017
  815MPD2    C411996   3.542   0.091  12.026
  815MPD2    C511997   3.682   0.112  12.006
  815MPD2     H11998   3.529   4.580  11.946
  815MPD2    H111999   3.485   0.177  12.058
  815MPD2    H212000   3.866   0.026  11.929
  815MPD2    H312001   3.712   0.216  12.012
  815MPD2     N12002   3.350   4.733  12.035
  815MPD2    H512003   3.321   4.636  12.024
  815MPD2    N112004   3.790   4.600  11.887
  815MPD2    H712005   3.877   4.636  11.849
  816MPD2     C12006   3.549   3.265  17.334
  816MPD2    C112007   3.581   3.386  17.285
  816MPD2    C212008   3.703   3.399  17.226
  816MPD2    C312009   3.792   3.295  17.216
  816MPD2    C412010   3.752   3.175  17.260
  816MPD2    C512011   3.623   3.153  17.310
  816MPD2     H12012   3.734   3.498  17.196
  816MPD2    H112013   3.809   3.087  17.232
  816MPD2    H212014   3.453   3.253  17.381
  816MPD2    H312015   3.599   3.051  17.334
  816MPD2     N12016   3.911   3.320  17.155
  816MPD2    H512017   3.920   3.410  17.109
  816MPD2    N112018   3.493   3.497  17.305
  816MPD2    H712019   3.409   3.479  17.359
  817MPD2     C12020   3.381   0.737   9.992
  817MPD2    C112021   3.281   0.677   9.911
  817MPD2    C212022   3.199   0.754   9.831
  817MPD2    C312023   3.207   0.891   9.842
  817MPD2    C412024   3.297   0.948   9.931
  817MPD2    C512025   3.390   0.873   9.991
  817MPD2     H12026   3.131   0.716   9.755
  817MPD2    H112027   3.311   1.055   9.926
  817MPD2    H212028   3.452   0.681  10.051
  817MPD2    H312029   3.467   0.932  10.037
  817MPD2     N12030   3.128   0.962   9.749
  817MPD2    H512031   3.086   0.896   9.685
  817MPD2    N112032   3.273   0.533   9.892
  817MPD2    H712033   3.192   0.498   9.842
  818MPD2     C12034   2.149   0.701  10.202
  818MPD2    C112035   2.071   0.694  10.318
  818MPD2    C212036   1.989   0.588  10.337
  818MPD2    C312037   1.979   0.487  10.241
  818MPD2    C412038   2.053   0.491  10.123
  818MPD2    C512039   2.136   0.599  10.111
  818MPD2     H12040   1.926   0.585  10.425
  818MPD2    H112041   2.035   0.421  10.041
  818MPD2    H212042   2.205   0.790  10.176
  818MPD2    H312043   2.185   0.612  10.016
  818MPD2     N12044   1.892   0.381  10.255
  818MPD2    H512045   1.890   0.317  10.177
  818MPD2    N112046   2.061   0.798  10.414
  818MPD2    H712047   1.983   0.776  10.475
  819MPD2     C12048   0.461   2.046  15.809
  819MPD2    C112049   0.451   1.908  15.822
  819MPD2    C212050   0.535   1.842  15.915
  819MPD2    C312051   0.638   1.915  15.977
  819MPD2    C412052   0.651   2.052  15.961
  819MPD2    C512053   0.559   2.118  15.881
  819MPD2     H12054   0.531   1.736  15.938
  819MPD2    H112055   0.725   2.111  16.013
  819MPD2    H212056   0.396   2.103  15.744
  819MPD2    H312057   0.566   2.226  15.888
  819MPD2     N12058   0.714   1.839  16.068
  819MPD2    H512059   0.678   1.745  16.081
  819MPD2    N112060   0.346   1.842  15.753
  819MPD2    H712061   0.302   1.902  15.685
  820MPD2     C12062   4.352   1.933  15.141
  820MPD2    C112063   4.447   2.012  15.203
  820MPD2    C212064   4.536   1.956  15.287
  820MPD2    C312065   4.536   1.816  15.311
  820MPD2    C412066   4.426   1.739  15.264
  820MPD2    C512067   4.336   1.800  15.177
  820MPD2     H12068   4.617   2.017  15.324
  820MPD2    H112069   4.399   1.641  15.301
  820MPD2    H212070   4.291   1.979  15.064
  820MPD2    H312071   4.251   1.744  15.139
  820MPD2     N12072   4.622   1.756  15.405
  820MPD2    H512073   4.598   1.658  15.418
  820MPD2    N112074   4.446   2.150  15.173
  820MPD2    H712075   4.372   2.182  15.111
  821MPD2     C12076   0.754   3.277  13.406
  821MPD2    C112077   0.818   3.246  13.522
  821MPD2    C212078   0.936   3.308  13.555
  821MPD2    C312079   0.976   3.420  13.480
  821MPD2    C412080   0.911   3.450  13.364
  821MPD2    C512081   0.806   3.372  13.324
  821MPD2     H12082   0.990   3.283  13.645
  821MPD2    H112083   0.943   3.538  13.309
  821MPD2    H212084   0.659   3.231  13.379
  821MPD2    H312085   0.759   3.397  13.230
  821MPD2     N12086   1.089   3.493  13.514
  821MPD2    H512087   1.098   3.575  13.454
  821MPD2    N112088   0.770   3.135  13.609
  821MPD2    H712089   0.824   3.116  13.693
  822MPD2     C12090   1.272   3.352  15.957
  822MPD2    C112091   1.227   3.313  16.081
  822MPD2    C212092   1.125   3.391  16.137
  822MPD2    C312093   1.083   3.509  16.074
  822MPD2    C412094   1.142   3.549  15.958
  822MPD2    C512095   1.229   3.466  15.896
  822MPD2     H12096   1.075   3.364  16.229
  822MPD2    H112097   1.113   3.637  15.900
  822MPD2    H212098   1.342   3.296  15.896
  822MPD2    H312099   1.269   3.491  15.798
  822MPD2     N12100   0.991   3.585  16.148
  822MPD2    H512101   0.976   3.559  16.245
  822MPD2    N112102   1.268   3.200  16.156
  822MPD2    H712103   1.231   3.199  16.251
  823MPD2     C12104   0.656   3.716  16.910
  823MPD2    C112105   0.704   3.644  16.802
  823MPD2    C212106   0.735   3.513  16.829
  823MPD2    C312107   0.732   3.454  16.952
  823MPD2    C412108   0.669   3.520  17.054
  823MPD2    C512109   0.640   3.650  17.033
  823MPD2     H12110   0.790   3.461  16.751
  823MPD2    H112111   0.661   3.488  17.157
  823MPD2    H212112   0.636   3.822  16.902
  823MPD2    H312113   0.597   3.706  17.116
  823MPD2     N12114   0.794   3.336  16.981
  823MPD2    H512115   0.778   3.292  17.071
  823MPD2    N112116   0.698   3.707  16.672
  823MPD2    H712117   0.675   3.806  16.666
  824MPD2     C12118   1.860   2.598  16.413
  824MPD2    C112119   1.809   2.656  16.297
  824MPD2    C212120   1.868   2.620  16.174
  824MPD2    C312121   1.967   2.525  16.172
  824MPD2    C412122   2.016   2.471  16.292
  824MPD2    C512123   1.956   2.509  16.411
  824MPD2     H12124   1.831   2.671  16.085
  824MPD2    H112125   2.094   2.399  16.312
  824MPD2    H212126   1.816   2.604  16.512
  824MPD2    H312127   1.999   2.472  16.503
  824MPD2     N12128   2.016   2.481  16.047
  824MPD2    H512129   1.973   2.510  15.959
  824MPD2    N112130   1.704   2.749  16.296
  824MPD2    H712131   1.698   2.792  16.204
  825MPD2     C12132   2.429   2.773  15.711
  825MPD2    C112133   2.341   2.716  15.626
  825MPD2    C212134   2.295   2.787  15.516
  825MPD2    C312135   2.325   2.926  15.501
  825MPD2    C412136   2.419   2.976  15.591
  825MPD2    C512137   2.473   2.902  15.688
  825MPD2     H12138   2.222   2.742  15.450
  825MPD2    H112139   2.444   3.082  15.591
  825MPD2    H212140   2.456   2.710  15.795
  825MPD2    H312141   2.537   2.952  15.760
  825MPD2     N12142   2.261   3.015  15.404
  825MPD2    H512143   2.293   3.111  15.414
  825MPD2    N112144   2.294   2.587  15.668
  825MPD2    H712145   2.338   2.539  15.745
  826MPD2     C12146   1.996   2.263  14.168
  826MPD2    C112147   1.985   2.350  14.058
  826MPD2    C212148   1.901   2.461  14.067
  826MPD2    C312149   1.842   2.498  14.188
  826MPD2    C412150   1.867   2.416  14.297
  826MPD2    C512151   1.942   2.302  14.288
  826MPD2     H12152   1.879   2.521  13.979
  826MPD2    H112153   1.818   2.443  14.390
  826MPD2    H212154   2.054   2.173  14.153
  826MPD2    H312155   1.952   2.236  14.373
  826MPD2     N12156   1.744   2.599  14.201
  826MPD2    H512157   1.701   2.618  14.291
  826MPD2    N112158   2.061   2.307  13.945
  826MPD2    H712159   2.112   2.220  13.957
  827MPD2     C12160   2.448   4.491  10.205
  827MPD2    C112161   2.413   4.377  10.274
  827MPD2    C212162   2.319   4.291  10.219
  827MPD2    C312163   2.248   4.322  10.102
  827MPD2    C412164   2.269   4.445  10.051
  827MPD2    C512165   2.365   4.523  10.103
  827MPD2     H12166   2.299   4.195  10.266
  827MPD2    H112167   2.210   4.481   9.967
  827MPD2    H212168   2.540   4.548  10.217
  827MPD2    H312169   2.378   4.619  10.054
  827MPD2     N12170   2.156   4.227  10.042
  827MPD2    H512171   2.154   4.134  10.083
  827MPD2    N112172   2.491   4.349  10.393
  827MPD2    H712173   2.564   4.413  10.422
  828MPD2     C12174   1.444   3.867  12.440
  828MPD2    C112175   1.330   3.877  12.373
  828MPD2    C212176   1.335   3.929  12.247
  828MPD2    C312177   1.453   3.969  12.183
  828MPD2    C412178   1.568   3.949  12.250
  828MPD2    C512179   1.567   3.893  12.378
  828MPD2     H12180   1.240   3.937  12.195
  828MPD2    H112181   1.664   3.964  12.202
  828MPD2    H212182   1.457   3.832  12.542
  828MPD2    H312183   1.664   3.871  12.421
  828MPD2     N12184   1.463   4.019  12.053
  828MPD2    H512185   1.557   4.045  12.025
  828MPD2    N112186   1.202   3.843  12.426
  828MPD2    H712187   1.125   3.859  12.362
  829MPD2     C12188   0.598   3.771  11.889
  829MPD2    C112189   0.531   3.771  12.009
  829MPD2    C212190   0.605   3.736  12.119
  829MPD2    C312191   0.729   3.678  12.109
  829MPD2    C412192   0.788   3.663  11.981
  829MPD2    C512193   0.721   3.722  11.876
  829MPD2     H12194   0.560   3.751  12.216
  829MPD2    H112195   0.887   3.626  11.961
  829MPD2    H212196   0.548   3.815  11.803
  829MPD2    H312197   0.759   3.707  11.775
  829MPD2     N12198   0.818   3.632  12.212
  829MPD2    H512199   0.909   3.593  12.190
  829MPD2    N112200   0.404   3.841  12.021
  829MPD2    H712201   0.396   3.921  11.959
  830MPD2     C12202   1.390   1.691  16.187
  830MPD2    C112203   1.284   1.662  16.101
  830MPD2    C212204   1.280   1.715  15.972
  830MPD2    C312205   1.388   1.792  15.924
  830MPD2    C412206   1.491   1.821  16.006
  830MPD2    C512207   1.488   1.770  16.137
  830MPD2     H12208   1.193   1.691  15.912
  830MPD2    H112209   1.571   1.886  15.973
  830MPD2    H212210   1.395   1.658  16.291
  830MPD2    H312211   1.566   1.798  16.206
  830MPD2     N12212   1.383   1.876  15.811
  830MPD2    H512213   1.468   1.931  15.805
  830MPD2    N112214   1.185   1.577  16.154
  830MPD2    H712215   1.193   1.553  16.252
  831MPD2     C12216   1.250   3.738  16.458
  831MPD2    C112217   1.291   3.616  16.402
  831MPD2    C212218   1.217   3.505  16.424
  831MPD2    C312219   1.096   3.512  16.495
  831MPD2    C412220   1.061   3.630  16.558
  831MPD2    C512221   1.144   3.739  16.549
  831MPD2     H12222   1.242   3.415  16.369
  831MPD2    H112223   0.975   3.620  16.624
  831MPD2    H212224   1.307   3.827  16.435
  831MPD2    H312225   1.118   3.833  16.597
  831MPD2     N12226   0.997   3.409  16.491
  831MPD2    H512227   0.909   3.432  16.537
  831MPD2    N112228   1.396   3.621  16.312
  831MPD2    H712229   1.410   3.709  16.264
  832MPD2     C12230   4.459   4.583  17.354
  832MPD2    C112231   4.409   4.712  17.350
  832MPD2    C212232   4.306   4.736  17.262
  832MPD2    C312233   4.258   4.639  17.180
  832MPD2    C412234   4.310   4.512  17.182
  832MPD2    C512235   4.415   4.488  17.269
  832MPD2     H12236   4.268   0.032  17.249
  832MPD2    H112237   4.274   4.429  17.122
  832MPD2    H212238   4.544   4.564  17.418
  832MPD2    H312239   4.467   4.393  17.278
  832MPD2     N12240   4.165   4.658  17.079
  832MPD2    H512241   4.127   4.588  17.017
  832MPD2    N112242   4.468   4.800  17.441
  832MPD2    H712243   4.538   4.753  17.497
  833MPD2     C12244   1.573   1.607  13.097
  833MPD2    C112245   1.641   1.709  13.038
  833MPD2    C212246   1.763   1.681  12.983
  833MPD2    C312247   1.814   1.552  12.974
  833MPD2    C412248   1.747   1.451  13.036
  833MPD2    C512249   1.632   1.482  13.100
  833MPD2     H12250   1.811   1.761  12.928
  833MPD2    H112251   1.788   1.351  13.029
  833MPD2    H212252   1.475   1.618  13.143
  833MPD2    H312253   1.589   1.400  13.156
  833MPD2     N12254   1.926   1.533  12.890
  833MPD2    H512255   1.947   1.435  12.875
  833MPD2    N112256   1.576   1.828  13.020
  833MPD2    H712257   1.478   1.836  13.045
  834MPD2     C12258   1.642   1.223  12.000
  834MPD2    C112259   1.731   1.319  11.962
  834MPD2    C212260   1.821   1.364  12.058
  834MPD2    C312261   1.805   1.334  12.195
  834MPD2    C412262   1.697   1.263  12.234
  834MPD2    C512263   1.625   1.205  12.137
  834MPD2     H12264   1.906   1.418  12.017
  834MPD2    H112265   1.659   1.247  12.334
  834MPD2    H212266   1.580   1.168  11.931
  834MPD2    H312267   1.557   1.125  12.163
  834MPD2     N12268   1.898   1.405  12.285
  834MPD2    H512269   1.962   1.474  12.249
  834MPD2    N112270   1.732   1.365  11.821
  834MPD2    H712271   1.656   1.328  11.764
  835MPD2     C12272   1.860   4.110  11.339
  835MPD2    C112273   1.833   4.221  11.415
  835MPD2    C212274   1.923   4.244  11.524
  835MPD2    C312275   2.022   4.157  11.562
  835MPD2    C412276   2.050   4.047  11.483
  835MPD2    C512277   1.966   4.030  11.370
  835MPD2     H12278   1.906   4.341  11.569
  835MPD2    H112279   2.138   3.987  11.503
  835MPD2    H212280   1.804   4.086  11.250
  835MPD2    H312281   1.993   3.959  11.293
  835MPD2     N12282   2.102   4.176  11.672
  835MPD2    H512283   2.156   4.100  11.712
  835MPD2    N112284   1.730   4.315  11.409
  835MPD2    H712285   1.721   4.375  11.491
  836MPD2     C12286   1.527   4.342  12.060
  836MPD2    C112287   1.620   4.296  12.143
  836MPD2    C212288   1.581   4.260  12.271
  836MPD2    C312289   1.455   4.302  12.317
  836MPD2    C412290   1.367   4.364  12.238
  836MPD2    C512291   1.398   4.371  12.100
  836MPD2     H12292   1.655   4.219  12.339
  836MPD2    H112293   1.265   4.390  12.263
  836MPD2    H212294   1.557   4.377  11.962
  836MPD2    H312295   1.333   4.425  12.033
  836MPD2     N12296   1.403   4.275  12.450
  836MPD2    H512297   1.303   4.294  12.458
  836MPD2    N112298   1.745   4.264  12.089
  836MPD2    H712299   1.764   4.283  11.991
  837MPD2     C12300   4.751   4.044   9.977
  837MPD2    C112301   4.625   4.077  10.023
  837MPD2    C212302   4.583   4.205   9.989
  837MPD2    C312303   4.661   4.293   9.915
  837MPD2    C412304   4.787   4.262   9.878
  837MPD2    C512305   0.025   4.135   9.902
  837MPD2     H12306   4.479   4.222  10.011
  837MPD2    H112307   0.046   4.337   9.833
  837MPD2    H212308   4.789   3.945   9.999
  837MPD2    H312309   0.125   4.109   9.871
  837MPD2     N12310   4.598   4.413   9.879
  837MPD2    H512311   4.519   4.433   9.939
  837MPD2    N112312   4.536   3.991  10.090
  837MPD2    H712313   4.445   4.032  10.108
  838MPD2     C12314   3.349   2.278  11.963
  838MPD2    C112315   3.377   2.253  12.098
  838MPD2    C212316   3.275   2.193  12.172
  838MPD2    C312317   3.150   2.162  12.116
  838MPD2    C412318   3.135   2.174  11.982
  838MPD2    C512319   3.227   2.239  11.911
  838MPD2     H12320   3.286   2.180  12.279
  838MPD2    H112321   3.054   2.132  11.923
  838MPD2    H212322   3.414   2.335  11.898
  838MPD2    H312323   3.212   2.247  11.804
  838MPD2     N12324   3.051   2.109  12.198
  838MPD2    H512325   3.064   2.121  12.298
  838MPD2    N112326   3.508   2.269  12.154
  838MPD2    H712327   3.521   2.282  12.254
  839MPD2     C12328   3.135   1.567  12.097
  839MPD2    C112329   3.177   1.559  11.970
  839MPD2    C212330   3.256   1.662  11.914
  839MPD2    C312331   3.289   1.771  11.997
  839MPD2    C412332   3.245   1.771  12.130
  839MPD2    C512333   3.170   1.672  12.177
  839MPD2     H12334   3.300   1.657  11.815
  839MPD2    H112335   3.281   1.852  12.193
  839MPD2    H212336   3.089   1.479  12.140
  839MPD2    H312337   3.150   1.674  12.284
  839MPD2     N12338   3.370   1.878  11.950
  839MPD2    H512339   3.381   1.955  12.015
  839MPD2    N112340   3.140   1.458  11.879
  839MPD2    H712341   3.185   1.453  11.788
  840MPD2     C12342   3.064   4.445  10.435
  840MPD2    C112343   3.051   4.385  10.554
  840MPD2    C212344   3.143   4.413  10.648
  840MPD2    C312345   3.244   4.491  10.623
  840MPD2    C412346   3.244   4.560  10.508
  840MPD2    C512347   3.168   4.526  10.402
  840MPD2     H12348   3.138   4.367  10.745
  840MPD2    H112349   3.325   4.630  10.488
  840MPD2    H212350   2.983   4.443  10.362
  840MPD2    H312351   3.174   4.577  10.306
  840MPD2     N12352   3.338   4.532  10.722
  840MPD2    H512353   3.390   4.618  10.709
  840MPD2    N112354   2.929   4.320  10.572
  840MPD2    H712355   2.866   4.329  10.493
  841MPD2     C12356   2.613   3.678  15.311
  841MPD2    C112357   2.567   3.709  15.184
  841MPD2    C212358   2.560   3.834  15.134
  841MPD2    C312359   2.619   3.937  15.213
  841MPD2    C412360   2.651   3.911  15.341
  841MPD2    C512361   2.658   3.785  15.384
  841MPD2     H12362   2.535   3.851  15.030
  841MPD2    H112363   2.688   3.987  15.410
  841MPD2    H212364   2.611   3.585  15.366
  841MPD2    H312365   2.698   3.771  15.484
  841MPD2     N12366   2.639   4.066  15.146
  841MPD2    H512367   2.633   4.066  15.045
  841MPD2    N112368   2.504   3.607  15.106
  841MPD2    H712369   2.475   3.643  15.016
  842MPD2     C12370   3.591   0.187  17.034
  842MPD2    C112371   3.497   0.096  16.994
  842MPD2    C212372   3.446   0.005  17.089
  842MPD2    C312373   3.488   0.011  17.220
  842MPD2    C412374   3.589   0.100  17.256
  842MPD2    C512375   3.645   0.181  17.163
  842MPD2     H12376   3.362   4.748  17.059
  842MPD2    H112377   3.617   0.120  17.358
  842MPD2    H212378   3.633   0.258  16.964
  842MPD2    H312379   3.715   0.260  17.189
  842MPD2     N12380   3.420   4.754  17.328
  842MPD2    H512381   3.434   4.792  17.421
  842MPD2    N112382   3.438   0.119  16.873
  842MPD2    H712383   3.462   0.205  16.823
  843MPD2     C12384   0.357   0.881  17.976
  843MPD2    C112385   0.390   0.820  18.087
  843MPD2    C212386   0.488   0.879  18.168
  843MPD2    C312387   0.534   1.009  18.141
  843MPD2    C412388   0.481   1.077  18.035
  843MPD2    C512389   0.404   1.011  17.944
  843MPD2     H12390   0.532   0.818  18.247
  843MPD2    H112391   0.514   1.174  18.000
  843MPD2    H212392   0.283   0.840  17.908
  843MPD2    H312393   0.365   1.068  17.862
  843MPD2     N12394   0.638   1.075  18.219
  843MPD2    H512395   0.667   1.160  18.172
  843MPD2    N112396   0.318   0.704  18.122
  843MPD2    H712397   0.253   0.665  18.055
  844MPD2     C12398   3.971   4.501  16.553
  844MPD2    C112399   4.094   4.450  16.540
  844MPD2    C212400   4.206   4.518  16.585
  844MPD2    C312401   4.195   4.646  16.637
  844MPD2    C412402   4.066   4.700  16.647
  844MPD2    C512403   3.952   4.622  16.614
  844MPD2     H12404   4.299   4.462  16.583
  844MPD2    H112405   4.046   4.797  16.690
  844MPD2    H212406   3.885   4.449  16.514
  844MPD2    H312407   3.851   4.661  16.616
  844MPD2     N12408   4.314   4.717  16.674
  844MPD2    H512409   4.402   4.667  16.672
  844MPD2    N112410   4.114   4.321  16.484
  844MPD2    H712411   4.209   4.286  16.487
  845MPD2     C12412   4.600   0.798  17.220
  845MPD2    C112413   4.504   0.714  17.276
  845MPD2    C212414   4.496   0.582  17.233
  845MPD2    C312415   4.567   0.546  17.115
  845MPD2    C412416   4.660   0.628  17.062
  845MPD2    C512417   4.674   0.752  17.119
  845MPD2     H12418   4.425   0.516  17.282
  845MPD2    H112419   4.732   0.604  16.985
  845MPD2    H212420   4.610   0.900  17.256
  845MPD2    H312421   4.756   0.807  17.075
  845MPD2     N12422   4.539   0.421  17.055
  845MPD2    H512423   4.477   0.350  17.093
  845MPD2    N112424   4.437   0.768  17.391
  845MPD2    H712425   4.434   0.869  17.389
  846MPD2     C12426   1.007   0.960  13.864
  846MPD2    C112427   0.911   1.061  13.891
  846MPD2    C212428   0.881   1.084  14.023
  846MPD2    C312429   0.934   1.005  14.126
  846MPD2    C412430   1.012   0.899  14.094
  846MPD2    C512431   1.043   0.875  13.962
  846MPD2     H12432   0.805   1.160  14.037
  846MPD2    H112433   1.052   0.819  14.156
  846MPD2    H212434   1.045   0.942  13.764
  846MPD2    H312435   1.095   0.785  13.933
  846MPD2     N12436   0.893   1.037  14.258
  846MPD2    H512437   0.809   1.091  14.277
  846MPD2    N112438   0.857   1.146  13.790
  846MPD2    H712439   0.817   1.235  13.818
  847MPD2     C12440   1.018   2.042  14.513
  847MPD2    C112441   1.001   2.021  14.643
  847MPD2    C212442   1.086   1.941  14.702
  847MPD2    C312443   1.190   1.873  14.637
  847MPD2    C412444   1.206   1.894  14.510
  847MPD2    C512445   1.113   1.977  14.450
  847MPD2     H12446   1.085   1.936  14.810
  847MPD2    H112447   1.291   1.857  14.454
  847MPD2    H212448   0.956   2.107  14.451
  847MPD2    H312449   1.128   1.998  14.344
  847MPD2     N12450   1.289   1.803  14.705
  847MPD2    H512451   1.367   1.779  14.644
  847MPD2    N112452   0.913   2.095  14.726
  847MPD2    H712453   0.928   2.081  14.825
  848MPD2     C12454   3.731   0.202  16.478
  848MPD2    C112455   3.791   0.251  16.595
  848MPD2    C212456   3.840   0.380  16.591
  848MPD2    C312457   3.836   0.455  16.474
  848MPD2    C412458   3.780   0.400  16.363
  848MPD2    C512459   3.714   0.281  16.365
  848MPD2     H12460   3.886   0.422  16.680
  848MPD2    H112461   3.777   0.458  16.272
  848MPD2    H212462   3.688   0.103  16.469
  848MPD2    H312463   3.657   0.249  16.279
  848MPD2     N12464   3.879   0.593  16.456
  848MPD2    H512465   3.874   0.635  16.363
  848MPD2    N112466   3.812   0.181  16.710
  848MPD2    H712467   3.865   0.225  16.785
  849MPD2     C12468   2.490   0.021  14.582
  849MPD2    C112469   2.604   0.085  14.618
  849MPD2    C212470   2.693   0.025  14.705
  849MPD2    C312471   2.677   4.697  14.755
  849MPD2    C412472   2.557   4.637  14.717
  849MPD2    C512473   2.468   4.701  14.638
  849MPD2     H12474   2.792   0.070  14.710
  849MPD2    H112475   2.532   4.535  14.746
  849MPD2    H212476   2.421   0.065  14.511
  849MPD2    H312477   2.373   4.652  14.618
  849MPD2     N12478   2.787   4.622  14.799
  849MPD2    H512479   2.766   4.523  14.805
  849MPD2    N112480   2.638   0.203  14.541
  849MPD2    H712481   2.581   0.221  14.459
  850MPD2     C12482   1.011   2.752  14.814
  850MPD2    C112483   1.048   2.869  14.878
  850MPD2    C212484   1.181   2.892  14.902
  850MPD2    C312485   1.274   2.784  14.901
  850MPD2    C412486   1.235   2.667  14.847
  850MPD2    C512487   1.112   2.657  14.791
  850MPD2     H12488   1.205   2.989  14.944
  850MPD2    H112489   1.312   2.591  14.834
  850MPD2    H212490   0.907   2.738  14.786
  850MPD2    H312491   1.087   2.570  14.731
  850MPD2     N12492   1.404   2.791  14.960
  850MPD2    H512493   1.470   2.717  14.938
  850MPD2    N112494   0.945   2.958  14.902
  850MPD2    H712495   0.860   2.938  14.849
  851MPD2     C12496   1.517   2.820  15.541
  851MPD2    C112497   1.405   2.775  15.475
  851MPD2    C212498   1.375   2.638  15.469
  851MPD2    C312499   1.463   2.548  15.521
  851MPD2    C412500   1.584   2.594  15.563
  851MPD2    C512501   1.600   2.725  15.600
  851MPD2     H12502   1.286   2.588  15.432
  851MPD2    H112503   1.663   2.533  15.604
  851MPD2    H212504   1.531   2.925  15.560
  851MPD2    H312505   1.688   2.755  15.656
  851MPD2     N12506   1.419   2.411  15.524
  851MPD2    H512507   1.329   2.386  15.484
  851MPD2    N112508   1.316   2.867  15.425
  851MPD2    H712509   1.340   2.964  15.439
  852MPD2     C12510   1.021   0.437  10.517
  852MPD2    C112511   0.966   0.527  10.609
  852MPD2    C212512   0.970   0.662  10.589
  852MPD2    C312513   1.019   0.707  10.469
  852MPD2    C412514   1.064   0.620  10.372
  852MPD2    C512515   1.076   0.481  10.395
  852MPD2     H12516   0.917   0.732  10.653
  852MPD2    H112517   1.108   0.656  10.280
  852MPD2    H212518   1.012   0.329  10.528
  852MPD2    H312519   1.098   0.419  10.309
  852MPD2     N12520   1.014   0.848  10.451
  852MPD2    H512521   0.985   0.896  10.536
  852MPD2    N112522   0.918   0.494  10.737
  852MPD2    H712523   0.894   0.575  10.794
  853MPD2     C12524   2.481   0.180  12.658
  853MPD2    C112525   2.544   0.300  12.673
  853MPD2    C212526   2.623   0.347  12.566
  853MPD2    C312527   2.632   0.271  12.447
  853MPD2    C412528   2.570   0.150  12.441
  853MPD2    C512529   2.493   0.110  12.545
  853MPD2     H12530   2.663   0.447  12.580
  853MPD2    H112531   2.557   0.103  12.344
  853MPD2    H212532   2.412   0.137  12.729
  853MPD2    H312533   2.447   0.012  12.540
  853MPD2     N12534   2.695   0.316  12.333
  853MPD2    H512535   2.714   0.256  12.254
  853MPD2    N112536   2.519   0.370  12.794
  853MPD2    H712537   2.451   0.332  12.859
  854MPD2     C12538   4.167   0.399  12.936
  854MPD2    C112539   4.258   0.494  12.910
  854MPD2    C212540   4.387   0.491  12.963
  854MPD2    C312541   4.413   0.380  13.050
  854MPD2    C412542   4.321   0.279  13.065
  854MPD2    C512543   4.197   0.283  13.008
  854MPD2     H12544   4.470   0.558  12.947
  854MPD2    H112545   4.328   0.194  13.132
  854MPD2    H212546   4.069   0.407  12.891
  854MPD2    H312547   4.122   0.208  13.030
  854MPD2     N12548   4.536   0.373  13.122
  854MPD2    H512549   4.555   0.286  13.172
  854MPD2    N112550   4.216   0.603  12.827
  854MPD2    H712551   4.118   0.609  12.800
  855MPD2     C12552   4.288   0.361  13.637
  855MPD2    C112553   4.402   0.292  13.670
  855MPD2    C212554   4.525   0.349  13.632
  855MPD2    C312555   4.537   0.475  13.563
  855MPD2    C412556   4.416   0.532  13.535
  855MPD2    C512557   4.297   0.477  13.573
  855MPD2     H12558   4.619   0.297  13.651
  855MPD2    H112559   4.411   0.625  13.480
  855MPD2    H212560   4.195   0.325  13.680
  855MPD2    H312561   4.207   0.524  13.535
  855MPD2     N12562   4.649   0.542  13.522
  855MPD2    H512563   4.633   0.623  13.463
  855MPD2    N112564   4.417   0.174  13.744
  855MPD2    H712565   4.509   0.152  13.781
  856MPD2     C12566   2.095   0.952  14.440
  856MPD2    C112567   2.167   1.046  14.368
  856MPD2    C212568   2.092   1.148  14.303
  856MPD2    C312569   1.947   1.154  14.319
  856MPD2    C412570   1.879   1.061  14.401
  856MPD2    C512571   1.953   0.954  14.452
  856MPD2     H12572   2.144   1.224  14.245
  856MPD2    H112573   1.772   1.054  14.411
  856MPD2    H212574   2.154   0.878  14.492
  856MPD2    H312575   1.911   0.877  14.516
  856MPD2     N12576   1.876   1.259  14.267
  856MPD2    H512577   1.779   1.276  14.290
  856MPD2    N112578   2.308   1.055  14.358
  856MPD2    H712579   2.328   1.134  14.299
  857MPD2     C12580   3.279   3.645  13.281
  857MPD2    C112581   3.405   3.652  13.213
  857MPD2    C212582   3.461   3.773  13.176
  857MPD2    C312583   3.404   3.892  13.209
  857MPD2    C412584   3.287   3.893  13.287
  857MPD2    C512585   3.232   3.773  13.324
  857MPD2     H12586   3.543   3.785  13.106
  857MPD2    H112587   3.242   3.986  13.320
  857MPD2    H212588   3.242   3.552  13.323
  857MPD2    H312589   3.143   3.781  13.386
  857MPD2     N12590   3.472   4.009  13.174
  857MPD2    H512591   3.552   4.004  13.112
  857MPD2    N112592   3.476   3.534  13.182
  857MPD2    H712593   3.419   3.452  13.200
  858MPD2     C12594   4.238   2.409  17.007
  858MPD2    C112595   4.376   2.397  17.000
  858MPD2    C212596   4.455   2.478  17.084
  858MPD2    C312597   4.389   2.563  17.168
  858MPD2    C412598   4.254   2.578  17.166
  858MPD2    C512599   4.179   2.504  17.085
  858MPD2     H12600   4.563   2.467  17.082
  858MPD2    H112601   4.202   2.643  17.235
  858MPD2    H212602   4.161   2.357  16.950
  858MPD2    H312603   4.071   2.514  17.082
  858MPD2     N12604   4.458   2.640  17.258
  858MPD2    H512605   4.398   2.710  17.301
  858MPD2    N112606   4.420   2.297  16.905
  858MPD2    H712607   4.339   2.258  16.858
  859MPD2     C12608   3.240   4.321  15.834
  859MPD2    C112609   3.170   4.346  15.718
  859MPD2    C212610   3.137   4.245  15.631
  859MPD2    C312611   3.164   4.115  15.666
  859MPD2    C412612   3.233   4.094  15.786
  859MPD2    C512613   3.280   4.195  15.864
  859MPD2     H12614   3.096   4.274  15.536
  859MPD2    H112615   3.267   3.994  15.810
  859MPD2    H212616   3.273   4.403  15.897
  859MPD2    H312617   3.347   4.186  15.948
  859MPD2     N12618   3.143   4.001  15.594
  859MPD2    H512619   3.171   3.911  15.632
  859MPD2    N112620   3.115   4.481  15.703
  859MPD2    H712621   3.152   4.548  15.769
  860MPD2     C12622   0.915   0.045  11.916
  860MPD2    C112623   0.931   0.100  12.039
  860MPD2    C212624   0.824   0.089  12.135
  860MPD2    C312625   0.716   0.011  12.109
  860MPD2    C412626   0.709   4.750  11.986
  860MPD2    C512627   0.803   4.776  11.893
  860MPD2     H12628   0.835   0.123  12.238
  860MPD2    H112629   0.630   4.682  11.955
  860MPD2    H212630   0.978   0.058  11.829
  860MPD2    H312631   0.792   4.736  11.793
  860MPD2     N12632   0.608   0.001  12.199
  860MPD2    H512633   0.641   0.034  12.289
  860MPD2    N112634   1.045   0.173  12.075
  860MPD2    H712635   1.054   0.206  12.171
  861MPD2     C12636   4.189   3.216  11.371
  861MPD2    C112637   4.121   3.317  11.441
  861MPD2    C212638   4.015   3.377  11.375
  861MPD2    C312639   3.977   3.346  11.246
  861MPD2    C412640   4.054   3.255  11.172
  861MPD2    C512641   4.155   3.196  11.240
  861MPD2     H12642   3.959   3.453  11.429
  861MPD2    H112643   4.019   3.224  11.075
  861MPD2    H212644   4.269   3.157  11.414
  861MPD2    H312645   4.212   3.113  11.198
  861MPD2     N12646   3.860   3.397  11.176
  861MPD2    H512647   3.862   3.370  11.078
  861MPD2    N112648   4.144   3.351  11.579
  861MPD2    H712649   4.079   3.416  11.623
  862MPD2     C12650   3.674   3.464  10.547
  862MPD2    C112651   3.621   3.394  10.650
  862MPD2    C212652   3.609   3.256  10.639
  862MPD2    C312653   3.638   3.189  10.524
  862MPD2    C412654   3.695   3.262  10.421
  862MPD2    C512655   3.709   3.397  10.433
  862MPD2     H12656   3.563   3.198  10.719
  862MPD2    H112657   3.722   3.205  10.333
  862MPD2    H212658   3.674   3.572  10.555
  862MPD2    H312659   3.730   3.459  10.347
  862MPD2     N12660   3.620   3.052  10.506
  862MPD2    H512661   3.652   3.022  10.415
  862MPD2    N112662   3.574   3.452  10.772
  862MPD2    H712663   3.558   3.391  10.852
  863MPD2     C12664   2.458   1.154  17.146
  863MPD2    C112665   2.508   1.278  17.163
  863MPD2    C212666   2.616   1.287  17.249
  863MPD2    C312667   2.665   1.181  17.324
  863MPD2    C412668   2.619   1.057  17.296
  863MPD2    C512669   2.518   1.038  17.207
  863MPD2     H12670   2.656   1.386  17.267
  863MPD2    H112671   2.664   0.965  17.332
  863MPD2    H212672   2.372   1.134  17.083
  863MPD2    H312673   2.481   0.940  17.182
  863MPD2     N12674   2.772   1.187  17.420
  863MPD2    H512675   2.782   1.105  17.479
  863MPD2    N112676   2.452   1.380  17.079
  863MPD2    H712677   2.366   1.352  17.033
  864MPD2     C12678   2.957   3.224  17.176
  864MPD2    C112679   3.030   3.113  17.142
  864MPD2    C212680   3.158   3.128  17.091
  864MPD2    C312681   3.211   3.255  17.066
  864MPD2    C412682   3.136   3.362  17.096
  864MPD2    C512683   3.012   3.346  17.153
  864MPD2     H12684   3.214   3.037  17.071
  864MPD2    H112685   3.165   3.466  17.086
  864MPD2    H212686   2.860   3.221  17.224
  864MPD2    H312687   2.948   3.427  17.185
  864MPD2     N12688   3.338   3.272  17.014
  864MPD2    H512689   3.368   3.363  16.981
  864MPD2    N112690   2.977   2.985  17.170
  864MPD2    H712691   2.905   2.975  17.241
  865MPD2     C12692   3.145   2.969  16.276
  865MPD2    C112693   3.271   2.919  16.316
  865MPD2    C212694   3.344   2.993  16.410
  865MPD2    C312695   3.296   3.111  16.467
  865MPD2    C412696   3.169   3.140  16.438
  865MPD2    C512697   3.100   3.081  16.335
  865MPD2     H12698   3.444   2.961  16.435
  865MPD2    H112699   3.135   3.234  16.480
  865MPD2    H212700   3.085   2.929  16.195
  865MPD2    H312701   3.002   3.124  16.314
  865MPD2     N12702   3.377   3.198  16.540
  865MPD2    H512703   3.333   3.259  16.608
  865MPD2    N112704   3.320   2.797  16.266
  865MPD2    H712705   3.254   2.729  16.230
  866MPD2     C12706   4.747   3.619  11.852
  866MPD2    C112707   4.719   3.563  11.728
  866MPD2    C212708   4.601   3.591  11.651
  866MPD2    C312709   4.509   3.677  11.707
  866MPD2    C412710   4.535   3.734  11.829
  866MPD2    C512711   4.649   3.703  11.897
  866MPD2     H12712   4.576   3.545  11.556
  866MPD2    H112713   4.460   3.798  11.874
  866MPD2    H212714   0.034   3.613  11.910
  866MPD2    H312715   4.664   3.748  11.995
  866MPD2     N12716   4.395   3.715  11.637
  866MPD2    H512717   4.341   3.790  11.679
  866MPD2    N112718   0.018   3.485  11.679
  866MPD2    H712719   0.106   3.477  11.730
  867MPD2     C12720   1.802   2.898  16.791
  867MPD2    C112721   1.896   2.871  16.890
  867MPD2    C212722   1.940   2.973  16.964
  867MPD2    C312723   1.886   3.098  16.951
  867MPD2    C412724   1.799   3.121  16.843
  867MPD2    C512725   1.749   3.020  16.774
  867MPD2     H12726   2.018   2.959  17.037
  867MPD2    H112727   1.753   3.219  16.833
  867MPD2    H212728   1.774   2.833  16.709
  867MPD2    H312729   1.693   3.044  16.685
  867MPD2     N12730   1.933   3.209  17.017
  867MPD2    H512731   1.875   3.290  16.995
  867MPD2    N112732   1.954   2.739  16.889
  867MPD2    H712733   1.896   2.667  16.847
  868MPD2     C12734   3.880   1.501  13.378
  868MPD2    C112735   3.947   1.620  13.404
  868MPD2    C212736   3.878   1.731  13.438
  868MPD2    C312737   3.742   1.721  13.454
  868MPD2    C412738   3.672   1.605  13.432
  868MPD2    C512739   3.744   1.492  13.391
  868MPD2     H12740   3.934   1.820  13.462
  868MPD2    H112741   3.566   1.590  13.451
  868MPD2    H212742   3.935   1.408  13.377
  868MPD2    H312743   3.696   1.395  13.384
  868MPD2     N12744   3.676   1.835  13.513
  868MPD2    H512745   3.736   1.906  13.555
  868MPD2    N112746   4.082   1.621  13.380
  868MPD2    H712747   4.115   1.532  13.344
  869MPD2     C12748   4.593   0.111  19.748
  869MPD2    C112749   4.694   0.017  19.717
  869MPD2    C212750   0.002   0.045  19.654
  869MPD2    C312751   0.025   0.174  19.613
  869MPD2    C412752   4.728   0.268  19.636
  869MPD2    C512753   4.612   0.241  19.698
  869MPD2     H12754   0.084   4.778  19.653
  869MPD2    H112755   4.746   0.371  19.610
  869MPD2    H212756   4.497   0.077  19.784
  869MPD2    H312757   4.543   0.324  19.709
  869MPD2     N12758   0.143   0.214  19.550
  869MPD2    H512759   0.150   0.311  19.520
  869MPD2    N112760   4.670   4.691  19.759
  869MPD2    H712761   4.611   4.686  19.842
  870MPD2     C12762   0.259   3.499  19.023
  870MPD2    C112763   0.129   3.470  19.052
  870MPD2    C212764   0.027   3.550  19.004
  870MPD2    C312765   0.055   3.659  18.918
  870MPD2    C412766   0.187   3.681  18.880
  870MPD2    C512767   0.289   3.607  18.936
  870MPD2     H12768   4.729   3.532  19.032
  870MPD2    H112769   0.219   3.767  18.822
  870MPD2    H212770   0.332   3.428  19.056
  870MPD2    H312771   0.392   3.629  18.914
  870MPD2     N12772   4.760   3.746  18.884
  870MPD2    H512773   4.678   3.753  18.943
  870MPD2    N112774   0.108   3.349  19.125
  870MPD2    H712775   0.190   3.305  19.165
  871MPD2     C12776   1.143   2.822  16.454
  871MPD2    C112777   1.151   2.795  16.589
  871MPD2    C212778   1.226   2.682  16.629
  871MPD2    C312779   1.295   2.605  16.532
  871MPD2    C412780   1.290   2.637  16.398
  871MPD2    C512781   1.218   2.748  16.361
  871MPD2     H12782   1.238   2.668  16.736
  871MPD2    H112783   1.339   2.573  16.325
  871MPD2    H212784   1.083   2.899  16.407
  871MPD2    H312785   1.210   2.764  16.254
  871MPD2     N12786   1.384   2.505  16.579
  871MPD2    H512787   1.377   2.495  16.680
  871MPD2    N112788   1.067   2.866  16.676
  871MPD2    H712789   1.012   2.938  16.632
  872MPD2     C12790   1.892   0.475  14.382
  872MPD2    C112791   1.845   0.588  14.319
  872MPD2    C212792   1.707   0.624  14.325
  872MPD2    C312793   1.625   0.546  14.408
  872MPD2    C412794   1.674   0.435  14.467
  872MPD2    C512795   1.805   0.398  14.458
  872MPD2     H12796   1.665   0.706  14.269
  872MPD2    H112797   1.606   0.370  14.520
  872MPD2    H212798   1.995   0.444  14.368
  872MPD2    H312799   1.841   0.310  14.510
  872MPD2     N12800   1.491   0.566  14.430
  872MPD2    H512801   1.449   0.509  14.502
  872MPD2    N112802   1.924   0.675  14.244
  872MPD2    H712803   1.879   0.747  14.188
  873MPD2     C12804   4.160   0.294  18.545
  873MPD2    C112805   4.037   0.326  18.496
  873MPD2    C212806   3.935   0.229  18.486
  873MPD2    C312807   3.960   0.098  18.533
  873MPD2    C412808   4.084   0.064  18.577
  873MPD2    C512809   4.182   0.162  18.583
  873MPD2     H12810   3.839   0.253  18.442
  873MPD2    H112811   4.100   4.768  18.612
  873MPD2    H212812   4.230   0.375  18.562
  873MPD2    H312813   4.273   0.131  18.632
  873MPD2     N12814   3.857   0.006  18.547
  873MPD2    H512815   3.886   4.720  18.582
  873MPD2    N112816   4.015   0.461  18.480
  873MPD2    H712817   4.088   0.517  18.522
  874MPD2     C12818   3.266   0.667  16.251
  874MPD2    C112819   3.320   0.622  16.369
  874MPD2    C212820   3.420   0.704  16.416
  874MPD2    C312821   3.471   0.814  16.363
  874MPD2    C412822   3.410   0.853  16.242
  874MPD2    C512823   3.311   0.776  16.189
  874MPD2     H12824   3.463   0.675  16.511
  874MPD2    H112825   3.448   0.939  16.188
  874MPD2    H212826   3.187   0.612  16.201
  874MPD2    H312827   3.277   0.800  16.089
  874MPD2     N12828   3.586   0.874  16.411
  874MPD2    H512829   3.623   0.835  16.497
  874MPD2    N112830   3.285   0.492  16.421
  874MPD2    H712831   3.200   0.458  16.377
  875MPD2     C12832   4.657   3.786  14.574
  875MPD2    C112833   4.540   3.744  14.632
  875MPD2    C212834   4.534   3.732  14.768
  875MPD2    C312835   4.651   3.754  14.847
  875MPD2    C412836   4.761   3.799  14.782
  875MPD2    C512837   4.758   3.819  14.650
  875MPD2     H12838   4.442   3.705  14.818
  875MPD2    H112839   0.054   3.809  14.829
  875MPD2    H212840   4.666   3.811  14.469
  875MPD2    H312841   0.041   3.853  14.596
  875MPD2     N12842   4.657   3.755  14.984
  875MPD2    H512843   4.744   3.778  15.031
  875MPD2    N112844   4.416   3.712  14.563
  875MPD2    H712845   4.329   3.705  14.615
  876MPD2     C12846   3.068   0.053  16.208
  876MPD2    C112847   3.205   0.026  16.219
  876MPD2    C212848   3.244   4.710  16.265
  876MPD2    C312849   3.150   4.616  16.304
  876MPD2    C412850   3.017   4.651  16.310
  876MPD2    C512851   2.977   4.768  16.249
  876MPD2     H12852   3.346   4.677  16.254
  876MPD2    H112853   2.936   4.590  16.347
  876MPD2    H212854   3.039   0.145  16.158
  876MPD2    H312855   2.871   4.785  16.236
  876MPD2     N12856   3.198   4.485  16.333
  876MPD2    H512857   3.297   4.464  16.331
  876MPD2    N112858   3.291   0.124  16.168
  876MPD2    H712859   3.249   0.201  16.117
  877MPD2     C12860   3.178   0.620  15.665
  877MPD2    C112861   3.300   0.571  15.636
  877MPD2    C212862   3.347   0.578  15.504
  877MPD2    C312863   3.277   0.637  15.400
  877MPD2    C412864   3.145   0.679  15.432
  877MPD2    C512865   3.102   0.668  15.563
  877MPD2     H12866   3.449   0.544  15.486
  877MPD2    H112867   3.081   0.723  15.356
  877MPD2    H212868   3.140   0.613  15.766
  877MPD2    H312869   2.997   0.687  15.584
  877MPD2     N12870   3.322   0.648  15.264
  877MPD2    H512871   3.256   0.681  15.194
  877MPD2    N112872   3.378   0.500  15.738
  877MPD2    H712873   3.464   0.456  15.708
  878MPD2     C12874   2.949   4.752  13.635
  878MPD2    C112875   3.037   0.054  13.653
  878MPD2    C212876   3.041   0.130  13.769
  878MPD2    C312877   2.948   0.106  13.870
  878MPD2    C412878   2.856   0.002  13.848
  878MPD2    C512879   2.854   4.741  13.733
  878MPD2     H12880   3.109   0.213  13.775
  878MPD2    H112881   2.794   4.765  13.926
  878MPD2    H212882   2.958   4.689  13.547
  878MPD2    H312883   2.785   4.657  13.735
  878MPD2     N12884   2.952   0.178  13.997
  878MPD2    H512885   3.035   0.234  14.016
  878MPD2    N112886   3.115   0.086  13.534
  878MPD2    H712887   3.096   0.037  13.448
  879MPD2     C12888   3.455   1.386  17.418
  879MPD2    C112889   3.518   1.267  17.393
  879MPD2    C212890   3.464   1.166  17.315
  879MPD2    C312891   3.340   1.188  17.259
  879MPD2    C412892   3.269   1.302  17.286
  879MPD2    C512893   3.333   1.397  17.371
  879MPD2     H12894   3.522   1.078  17.291
  879MPD2    H112895   3.171   1.325  17.244
  879MPD2    H212896   3.480   1.461  17.492
  879MPD2    H312897   3.273   1.482  17.401
  879MPD2     N12898   3.280   1.093  17.178
  879MPD2    H512899   3.199   1.120  17.123
  879MPD2    N112900   3.631   1.249  17.470
  879MPD2    H712901   3.670   1.333  17.510
  880MPD2     C12902   4.593   2.950  18.671
  880MPD2    C112903   4.680   3.044  18.606
  880MPD2    C212904   0.006   3.047  18.645
  880MPD2    C312905   0.057   2.974  18.745
  880MPD2    C412906   4.774   2.889  18.820
  880MPD2    C512907   4.643   2.881  18.781
  880MPD2     H12908   0.068   3.120  18.596
  880MPD2    H112909   4.799   2.834  18.911
  880MPD2    H212910   4.489   2.940  18.642
  880MPD2    H312911   4.581   2.814  18.840
  880MPD2     N12912   0.185   2.982  18.778
  880MPD2    H512913   0.239   3.060  18.743
  880MPD2    N112914   4.623   3.125  18.504
  880MPD2    H712915   4.530   3.107  18.467
  881MPD2     C12916   4.797   3.858  17.721
  881MPD2    C112917   0.018   3.721  17.709
  881MPD2    C212918   4.767   3.635  17.804
  881MPD2    C312919   4.685   3.677  17.909
  881MPD2    C412920   4.661   3.813  17.909
  881MPD2    C512921   4.704   3.900  17.810
  881MPD2     H12922   4.777   3.529  17.787
  881MPD2    H112923   4.589   3.858  17.976
  881MPD2    H212924   0.031   3.932  17.652
  881MPD2    H312925   4.678   4.005  17.820
  881MPD2     N12926   4.619   3.592  17.999
  881MPD2    H512927   4.565   3.635  18.073
  881MPD2    N112928   0.090   3.682  17.596
  881MPD2    H712929   0.106   3.753  17.526
  882MPD2     C12930   3.195   0.569  14.450
  882MPD2    C112931   3.156   0.599  14.580
  882MPD2    C212932   3.022   0.627  14.607
  882MPD2    C312933   2.931   0.604  14.508
  882MPD2    C412934   2.976   0.569  14.384
  882MPD2    C512935   3.108   0.566  14.352
  882MPD2     H12936   2.996   0.648  14.710
  882MPD2    H112937   2.900   0.551  14.309
  882MPD2    H212938   3.299   0.549  14.426
  882MPD2    H312939   3.140   0.552  14.249
  882MPD2     N12940   2.793   0.609  14.527
  882MPD2    H512941   2.733   0.581  14.450
  882MPD2    N112942   3.265   0.607  14.674
  882MPD2    H712943   3.354   0.575  14.637
  883MPD2     C12944   0.316   0.237  16.441
  883MPD2    C112945   0.365   0.326  16.352
  883MPD2    C212946   0.471   0.406  16.387
  883MPD2    C312947   0.529   0.403  16.517
  883MPD2    C412948   0.478   0.306  16.602
  883MPD2    C512949   0.373   0.230  16.561
  883MPD2     H12950   0.519   0.471  16.315
  883MPD2    H112951   0.512   0.287  16.703
  883MPD2    H212952   0.222   0.185  16.429
  883MPD2    H312953   0.332   0.166  16.637
  883MPD2     N12954   0.639   0.487  16.536
  883MPD2    H512955   0.677   0.539  16.457
  883MPD2    N112956   0.315   0.340  16.224
  883MPD2    H712957   0.341   0.415  16.161
  884MPD2     C12958   2.294   1.184  15.707
  884MPD2    C112959   2.262   1.264  15.597
  884MPD2    C212960   2.140   1.322  15.597
  884MPD2    C312961   2.042   1.289  15.686
  884MPD2    C412962   2.069   1.203  15.786
  884MPD2    C512963   2.199   1.160  15.802
  884MPD2     H12964   2.114   1.391  15.517
  884MPD2    H112965   1.989   1.161  15.846
  884MPD2    H212966   2.395   1.147  15.722
  884MPD2    H312967   2.225   1.094  15.884
  884MPD2     N12968   1.910   1.337  15.677
  884MPD2    H512969   1.901   1.389  15.590
  884MPD2    N112970   2.344   1.288  15.489
  884MPD2    H712971   2.305   1.340  15.411
  885MPD2     C12972   0.601   1.446  18.324
  885MPD2    C112973   0.706   1.540  18.342
  885MPD2    C212974   0.717   1.632  18.240
  885MPD2    C312975   0.634   1.626  18.118
  885MPD2    C412976   0.535   1.528  18.113
  885MPD2    C512977   0.526   1.437  18.214
  885MPD2     H12978   0.791   1.711  18.242
  885MPD2    H112979   0.485   1.507  18.019
  885MPD2    H212980   0.584   1.371  18.400
  885MPD2    H312981   0.465   1.348  18.202
  885MPD2     N12982   0.654   1.708  18.006
  885MPD2    H512983   0.745   1.753  18.008
  885MPD2    N112984   0.792   1.540  18.453
  885MPD2    H712985   0.782   1.461  18.516
  886MPD2     C12986   1.902   0.002  15.605
  886MPD2    C112987   2.024   0.045  15.563
  886MPD2    C212988   2.045   0.181  15.560
  886MPD2    C312989   1.948   0.272  15.609
  886MPD2    C412990   1.821   0.226  15.630
  886MPD2    C512991   1.807   0.091  15.637
  886MPD2     H12992   2.138   0.221  15.521
  886MPD2    H112993   1.732   0.277  15.665
  886MPD2    H212994   1.884   4.701  15.623
  886MPD2    H312995   1.711   0.054  15.673
  886MPD2     N12996   1.975   0.405  15.645
  886MPD2    H512997   1.899   0.472  15.648
  886MPD2    N112998   2.132   4.769  15.509
  886MPD2    H712999   2.226   0.002  15.509
  887MPD2     C13000   2.763   4.733  15.843
  887MPD2    C113001   2.661   4.798  15.775
  887MPD2    C213002   2.626   0.122  15.812
  887MPD2    C313003   2.689   0.193  15.909
  887MPD2    C413004   2.793   0.124  15.967
  887MPD2    C513005   2.827   4.798  15.945
  887MPD2     H13006   2.556   0.177  15.751
  887MPD2    H113007   2.846   0.163  16.053
  887MPD2    H213008   2.794   4.629  15.832
  887MPD2    H313009   2.906   4.751  16.002
  887MPD2     N13010   2.634   0.312  15.968
  887MPD2    H513011   2.552   0.352  15.924
  887MPD2    N113012   2.576   4.737  15.678
  887MPD2    H713013   2.509   4.791  15.623
  888MPD2     C13014   4.320   0.083  14.876
  888MPD2    C113015   4.310   0.113  15.014
  888MPD2    C213016   4.350   0.236  15.065
  888MPD2    C313017   4.375   0.335  14.974
  888MPD2    C413018   4.368   0.311  14.839
  888MPD2    C513019   4.351   0.184  14.792
  888MPD2     H13020   4.344   0.262  15.170
  888MPD2    H113021   4.376   0.390  14.766
  888MPD2    H213022   4.307   4.786  14.840
  888MPD2    H313023   4.351   0.165  14.685
  888MPD2     N13024   4.428   0.454  15.028
  888MPD2    H513025   4.440   0.463  15.129
  888MPD2    N113026   4.290   0.008  15.109
  888MPD2    H713027   4.317   0.020  15.206
  889MPD2     C13028   3.568   0.048  13.088
  889MPD2    C113029   3.600   4.780  13.199
  889MPD2    C213030   3.605   0.042  13.317
  889MPD2    C313031   3.579   0.181  13.325
  889MPD2    C413032   3.554   0.252  13.207
  889MPD2    C513033   3.559   0.185  13.090
  889MPD2     H13034   3.632   4.794  13.408
  889MPD2    H113035   3.534   0.358  13.201
  889MPD2    H213036   3.564   4.802  12.993
  889MPD2    H313037   3.549   0.246  13.001
  889MPD2     N13038   3.579   0.248  13.453
  889MPD2    H513039   3.619   0.194  13.530
  889MPD2    N113040   3.645   4.645  13.186
  889MPD2    H713041   3.682   4.612  13.275
  890MPD2     C13042   3.379   1.128  14.760
  890MPD2    C113043   3.480   1.188  14.830
  890MPD2    C213044   3.490   1.158  14.966
  890MPD2    C313045   3.395   1.085  15.028
  890MPD2    C413046   3.296   1.029  14.963
  890MPD2    C513047   3.292   1.044  14.829
  890MPD2     H13048   3.575   1.194  15.022
  890MPD2    H113049   3.235   0.959  15.018
  890MPD2    H213050   3.374   1.140  14.653
  890MPD2    H313051   3.227   0.982  14.769
  890MPD2     N13052   3.432   1.056  15.157
  890MPD2    H513053   3.509   1.117  15.184
  890MPD2    N113054   3.565   1.275  14.763
  890MPD2    H713055   3.536   1.315  14.675
  891MPD2     C13056   1.076   4.392  16.757
  891MPD2    C113057   1.098   4.514  16.690
  891MPD2    C213058   1.223   4.571  16.703
  891MPD2    C313059   1.325   4.494  16.763
  891MPD2    C413060   1.304   4.371  16.817
  891MPD2    C513061   1.176   4.320  16.815
  891MPD2     H13062   1.253   4.666  16.661
  891MPD2    H113063   1.381   4.305  16.854
  891MPD2    H213064   0.974   4.356  16.756
  891MPD2    H313065   1.147   4.224  16.856
  891MPD2     N13066   1.454   4.552  16.769
  891MPD2    H513067   1.457   4.652  16.750
  891MPD2    N113068   0.987   4.581  16.637
  891MPD2    H713069   0.895   4.541  16.654
  892MPD2     C13070   2.346   0.934  15.366
  892MPD2    C113071   2.255   0.906  15.266
  892MPD2    C213072   2.302   0.837  15.154
  892MPD2    C313073   2.430   0.793  15.143
  892MPD2    C413074   2.519   0.827  15.238
  892MPD2    C513075   2.475   0.905  15.340
  892MPD2     H13076   2.231   0.822  15.073
  892MPD2    H113077   2.620   0.787  15.240
  892MPD2    H213078   2.320   0.996  15.451
  892MPD2    H313079   2.547   0.931  15.417
  892MPD2     N13080   2.470   0.704  15.044
  892MPD2    H513081   2.569   0.680  15.046
  892MPD2    N113082   2.122   0.953  15.279
  892MPD2    H713083   2.066   0.956  15.194
  893MPD2     C13084   4.398   4.286  19.015
  893MPD2    C113085   4.277   4.348  19.032
  893MPD2    C213086   4.170   4.280  19.083
  893MPD2    C313087   4.205   4.155  19.140
  893MPD2    C413088   4.334   4.107  19.141
  893MPD2    C513089   4.431   4.172  19.077
  893MPD2     H13090   4.071   4.323  19.079
  893MPD2    H113091   4.365   4.021  19.200
  893MPD2    H213092   4.476   4.337  18.958
  893MPD2    H313093   4.534   4.137  19.082
  893MPD2     N13094   4.118   4.074  19.210
  893MPD2    H513095   4.147   3.986  19.251
  893MPD2    N113096   4.262   4.485  18.995
  893MPD2    H713097   4.315   4.513  18.913
  894MPD2     C13098   2.108   1.687  18.993
  894MPD2    C113099   2.056   1.795  19.064
  894MPD2    C213100   2.056   1.922  19.005
  894MPD2    C313101   2.126   1.942  18.886
  894MPD2    C413102   2.171   1.830  18.809
  894MPD2    C513103   2.161   1.705  18.868
  894MPD2     H13104   2.007   2.000  19.061
  894MPD2    H113105   2.207   1.840  18.707
  894MPD2    H213106   2.137   1.594  19.042
  894MPD2    H313107   2.203   1.628  18.804
  894MPD2     N13108   2.154   2.077  18.844
  894MPD2    H513109   2.098   2.145  18.895
  894MPD2    N113110   2.018   1.782  19.199
  894MPD2    H713111   1.985   1.863  19.249
  895MPD2     C13112   1.486   0.266  14.048
  895MPD2    C113113   1.476   0.134  14.011
  895MPD2    C213114   1.576   0.042  14.053
  895MPD2    C313115   1.692   0.088  14.118
  895MPD2    C413116   1.700   0.217  14.154
  895MPD2    C513117   1.603   0.306  14.116
  895MPD2     H13118   1.578   4.745  14.017
  895MPD2    H113119   1.784   0.253  14.213
  895MPD2    H213120   1.421   0.340  14.002
  895MPD2    H313121   1.616   0.413  14.127
  895MPD2     N13122   1.814   0.018  14.138
  895MPD2    H513123   1.886   0.069  14.188
  895MPD2    N113124   1.372   0.089  13.931
  895MPD2    H713125   1.382   0.006  13.873
  896MPD2     C13126   3.774   2.535  19.480
  896MPD2    C113127   3.761   2.453  19.369
  896MPD2    C213128   3.637   2.416  19.335
  896MPD2    C313129   3.524   2.470  19.397
  896MPD2    C413130   3.539   2.546  19.509
  896MPD2    C513131   3.665   2.580  19.552
  896MPD2     H13132   3.615   2.351  19.251
  896MPD2    H113133   3.452   2.577  19.566
  896MPD2    H213134   3.875   2.558  19.514
  896MPD2    H313135   3.670   2.643  19.640
  896MPD2     N13136   3.402   2.432  19.348
  896MPD2    H513137   3.401   2.363  19.274
  896MPD2    N113138   3.874   2.420  19.293
  896MPD2    H713139   3.959   2.456  19.335
  897MPD2     C13140   0.159   3.989  10.746
  897MPD2    C113141   0.116   4.119  10.770
  897MPD2    C213142   0.002   4.143  10.845
  897MPD2    C313143   4.736   4.039  10.900
  897MPD2    C413144   4.770   3.910  10.873
  897MPD2    C513145   0.082   3.884  10.799
  897MPD2     H13146   4.775   4.244  10.866
  897MPD2    H113147   4.710   3.828  10.911
  897MPD2    H213148   0.240   3.958  10.681
  897MPD2    H313149   0.103   3.780  10.778
  897MPD2     N13150   4.614   4.069  10.973
  897MPD2    H513151   4.592   4.168  10.971
  897MPD2    N113152   0.187   4.235  10.723
  897MPD2    H713153   0.255   4.214  10.651
  898MPD2     C13154   1.713   4.801  17.697
  898MPD2    C113155   1.835   0.033  17.648
  898MPD2    C213156   1.862   0.163  17.614
  898MPD2    C313157   1.766   0.255  17.633
  898MPD2    C413158   1.639   0.217  17.678
  898MPD2    C513159   1.616   0.089  17.704
  898MPD2     H13160   1.958   0.190  17.572
  898MPD2    H113161   1.552   0.281  17.682
  898MPD2    H213162   1.695   4.697  17.722
  898MPD2    H313163   1.516   0.053  17.725
  898MPD2     N13164   1.805   0.390  17.600
  898MPD2    H513165   1.893   0.408  17.554
  898MPD2    N113166   1.935   4.744  17.639
  898MPD2    H713167   2.021   4.781  17.601
  899MPD2     C13168   2.907   0.738  17.789
  899MPD2    C113169   2.957   0.845  17.861
  899MPD2    C213170   2.956   0.847  17.998
  899MPD2    C313171   2.884   0.750  18.064
  899MPD2    C413172   2.841   0.637  17.994
  899MPD2    C513173   2.855   0.629  17.857
  899MPD2     H13174   3.006   0.928  18.049
  899MPD2    H113175   2.799   0.552  18.046
  899MPD2    H213176   2.911   0.740  17.681
  899MPD2    H313177   2.816   0.544  17.803
  899MPD2     N13178   2.865   0.753  18.200
  899MPD2    H513179   2.855   0.659  18.237
  899MPD2    N113180   2.999   0.959  17.785
  899MPD2    H713181   3.003   0.948  17.684
  900MPD2     C13182   2.487   2.767  12.841
  900MPD2    C113183   2.417   2.653  12.883
  900MPD2    C213184   2.295   2.623  12.829
  900MPD2    C313185   2.235   2.713  12.738
  900MPD2    C413186   2.298   2.834  12.700
  900MPD2    C513187   2.422   2.855  12.760
  900MPD2     H13188   2.241   2.529  12.835
  900MPD2    H113189   2.271   2.914  12.634
  900MPD2    H213190   2.588   2.786  12.876
  900MPD2    H313191   2.483   2.940  12.733
  900MPD2     N13192   2.118   2.666  12.674
  900MPD2    H513193   2.075   2.578  12.700
  900MPD2    N113194   2.488   2.566  12.974
  900MPD2    H713195   2.579   2.597  13.008
  901MPD2     C13196   2.488   1.566  13.162
  901MPD2    C113197   2.617   1.610  13.151
  901MPD2    C213198   2.658   1.741  13.165
  901MPD2    C313199   2.562   1.833  13.189
  901MPD2    C413200   2.426   1.792  13.190
  901MPD2    C513201   2.395   1.659  13.173
  901MPD2     H13202   2.759   1.781  13.172
  901MPD2    H113203   2.353   1.872  13.200
  901MPD2    H213204   2.470   1.459  13.161
  901MPD2    H313205   2.292   1.629  13.186
  901MPD2     N13206   2.604   1.967  13.210
  901MPD2    H513207   2.704   1.982  13.206
  901MPD2    N113208   2.704   1.503  13.136
  901MPD2    H713209   2.669   1.411  13.111
  902MPD2     C13210   1.474   0.400  13.183
  902MPD2    C113211   1.514   0.531  13.203
  902MPD2    C213212   1.638   0.572  13.159
  902MPD2    C313213   1.721   0.481  13.096
  902MPD2    C413214   1.681   0.349  13.082
  902MPD2    C513215   1.554   0.310  13.118
  902MPD2     H13216   1.667   0.675  13.171
  902MPD2    H113217   1.751   0.272  13.054
  902MPD2    H213218   1.377   0.372  13.224
  902MPD2    H313219   1.525   0.206  13.111
  902MPD2     N13220   1.838   0.521  13.026
  902MPD2    H513221   1.891   0.452  12.973
  902MPD2    N113222   1.420   0.623  13.263
  902MPD2    H713223   1.336   0.579  13.301
  903MPD2     C13224   1.812   0.918  12.245
  903MPD2    C113225   1.778   0.834  12.346
  903MPD2    C213226   1.690   0.735  12.326
  903MPD2    C313227   1.624   0.718  12.209
  903MPD2    C413228   1.646   0.805  12.105
  903MPD2    C513229   1.743   0.902  12.123
  903MPD2     H13230   1.666   0.657  12.397
  903MPD2    H113231   1.601   0.797  12.007
  903MPD2    H213232   1.876   1.004  12.257
  903MPD2    H313233   1.763   0.978  12.048
  903MPD2     N13234   1.527   0.616  12.205
  903MPD2    H513235   1.518   0.567  12.294
  903MPD2    N113236   1.855   0.850  12.471
  903MPD2    H713237   1.927   0.920  12.486
  904MPD2     C13238   1.338   4.420  14.067
  904MPD2    C113239   1.314   4.328  14.167
  904MPD2    C213240   1.403   4.328  14.270
  904MPD2    C313241   1.513   4.412  14.284
  904MPD2    C413242   1.520   4.512  14.195
  904MPD2    C513243   1.439   4.506  14.084
  904MPD2     H13244   1.385   4.259  14.351
  904MPD2    H113245   1.600   4.585  14.202
  904MPD2    H213246   1.282   4.432  13.975
  904MPD2    H313247   1.441   4.575  14.001
  904MPD2     N13248   1.604   4.378  14.388
  904MPD2    H513249   1.588   4.289  14.434
  904MPD2    N113250   1.211   4.238  14.163
  904MPD2    H713251   1.223   4.158  14.224
  905MPD2     C13252   1.265   4.355  13.452
  905MPD2    C113253   1.250   4.447  13.557
  905MPD2    C213254   1.364   4.511  13.598
  905MPD2    C313255   1.485   4.482  13.538
  905MPD2    C413256   1.487   4.397  13.433
  905MPD2    C513257   1.381   4.329  13.387
  905MPD2     H13258   1.363   4.576  13.684
  905MPD2    H113259   1.580   4.353  13.398
  905MPD2    H213260   1.180   4.294  13.424
  905MPD2    H313261   1.390   4.257  13.307
  905MPD2     N13262   1.608   4.533  13.589
  905MPD2    H513263   1.692   4.491  13.551
  905MPD2    N113264   1.129   4.444  13.627
  905MPD2    H713265   1.061   4.373  13.604
  906MPD2     C13266   3.547   4.615  11.520
  906MPD2    C113267   3.517   4.511  11.437
  906MPD2    C213268   3.457   4.392  11.480
  906MPD2    C313269   3.404   4.391  11.607
  906MPD2    C413270   3.430   4.497  11.691
  906MPD2    C513271   3.502   4.612  11.650
  906MPD2     H13272   3.442   4.313  11.407
  906MPD2    H113273   3.397   4.496  11.794
  906MPD2    H213274   3.594   4.704  11.480
  906MPD2    H313275   3.520   4.699  11.712
  906MPD2     N13276   3.320   4.296  11.663
  906MPD2    H513277   3.279   4.322  11.752
  906MPD2    N113278   3.543   4.526  11.298
  906MPD2    H713279   3.510   4.451  11.237
  907MPD2     C13280   2.030   3.544  15.634
  907MPD2    C113281   2.140   3.479  15.595
  907MPD2    C213282   2.242   3.445  15.684
  907MPD2    C313283   2.235   3.489  15.809
  907MPD2    C413284   2.132   3.567  15.849
  907MPD2    C513285   2.030   3.590  15.761
  907MPD2     H13286   2.324   3.385  15.647
  907MPD2    H113287   2.119   3.604  15.950
  907MPD2    H213288   1.936   3.558  15.582
  907MPD2    H313289   1.948   3.643  15.807
  907MPD2     N13290   2.348   3.455  15.889
  907MPD2    H513291   2.417   3.388  15.858
  907MPD2    N113292   2.148   3.429  15.460
  907MPD2    H713293   2.232   3.375  15.440
  908MPD2     C13294   0.379   4.310   9.911
  908MPD2    C113295   0.363   4.212  10.008
  908MPD2    C213296   0.334   4.248  10.138
  908MPD2    C313297   0.341   4.383  10.173
  908MPD2    C413298   0.354   4.476  10.079
  908MPD2    C513299   0.374   4.439   9.951
  908MPD2     H13300   0.327   4.177  10.220
  908MPD2    H113301   0.356   4.583  10.095
  908MPD2    H213302   0.380   4.296   9.804
  908MPD2    H313303   0.392   4.509   9.870
  908MPD2     N13304   0.337   4.416  10.313
  908MPD2    H513305   0.320   4.342  10.380
  908MPD2    N113306   0.372   4.078   9.965
  908MPD2    H713307   0.408   4.065   9.871
  909MPD2     C13308   0.635   2.270  11.696
  909MPD2    C113309   0.554   2.373  11.661
  909MPD2    C213310   0.461   2.421  11.748
  909MPD2    C313311   0.447   2.370  11.878
  909MPD2    C413312   0.538   2.274  11.912
  909MPD2    C513313   0.630   2.220  11.820
  909MPD2     H13314   0.403   2.511  11.732
  909MPD2    H113315   0.536   2.235  12.013
  909MPD2    H213316   0.712   2.231  11.630
  909MPD2    H313317   0.704   2.148  11.853
  909MPD2     N13318   0.358   2.431  11.964
  909MPD2    H513319   0.292   2.492  11.915
  909MPD2    N113320   0.567   2.446  11.540
  909MPD2    H713321   0.505   2.523  11.520
  910MPD2     C13322   1.707   4.351  16.510
  910MPD2    C113323   1.762   4.258  16.417
  910MPD2    C213324   1.716   4.255  16.288
  910MPD2    C313325   1.627   4.352  16.248
  910MPD2    C413326   1.591   4.448  16.333
  910MPD2    C513327   1.631   4.458  16.464
  910MPD2     H13328   1.742   4.171  16.225
  910MPD2    H113329   1.524   4.524  16.295
  910MPD2    H213330   1.731   4.361  16.616
  910MPD2    H313331   1.584   4.534  16.526
  910MPD2     N13332   1.560   4.357  16.123
  910MPD2    H513333   1.503   4.439  16.104
  910MPD2    N113334   1.845   4.153  16.459
  910MPD2    H713335   1.876   4.086  16.389
  911MPD2     C13336   4.409   4.412  16.203
  911MPD2    C113337   4.443   4.479  16.322
  911MPD2    C213338   4.416   4.612  16.330
  911MPD2    C313339   4.344   4.675  16.230
  911MPD2    C413340   4.329   4.606  16.116
  911MPD2    C513341   4.364   4.478  16.096
  911MPD2     H13342   4.442   4.669  16.418
  911MPD2    H113343   4.281   4.648  16.028
  911MPD2    H213344   4.434   4.308  16.186
  911MPD2    H313345   4.342   4.430  16.001
  911MPD2     N13346   4.276   4.798  16.240
  911MPD2    H513347   4.235   0.031  16.155
  911MPD2    N113348   4.515   4.410  16.425
  911MPD2    H713349   4.548   4.315  16.413
  912MPD2     C13350   4.024   4.671  15.869
  912MPD2    C113351   3.992   4.661  16.002
  912MPD2    C213352   3.990   4.535  16.059
  912MPD2    C313353   4.044   4.425  15.987
  912MPD2    C413354   4.098   4.440  15.854
  912MPD2    C513355   4.090   4.568  15.801
  912MPD2     H13356   3.953   4.513  16.158
  912MPD2    H113357   4.142   4.360  15.796
  912MPD2    H213358   4.018   4.768  15.822
  912MPD2    H313359   4.124   4.578  15.699
  912MPD2     N13360   4.057   4.307  16.066
  912MPD2    H513361   4.028   4.301  16.163
  912MPD2    N113362   3.963   4.788  16.068
  912MPD2    H713363   3.982   0.071  16.020
  913MPD2     C13364   0.140   1.037  10.975
  913MPD2    C113365   0.200   1.141  11.048
  913MPD2    C213366   0.187   1.273  11.005
  913MPD2    C313367   0.121   1.298  10.884
  913MPD2    C413368   0.069   1.188  10.817
  913MPD2    C513369   0.087   1.062  10.855
  913MPD2     H13370   0.233   1.354  11.061
  913MPD2    H113371   0.020   1.208  10.722
  913MPD2    H213372   0.140   0.932  11.001
  913MPD2    H313373   0.036   0.982  10.802
  913MPD2     N13374   0.114   1.417  10.810
  913MPD2    H513375   0.083   1.403  10.715
  913MPD2    N113376   0.284   1.104  11.156
  913MPD2    H713377   0.301   1.005  11.147
  914MPD2     C13378   2.861   1.368  12.289
  914MPD2    C113379   2.833   1.479  12.370
  914MPD2    C213380   2.855   1.456  12.503
  914MPD2    C313381   2.857   1.327  12.561
  914MPD2    C413382   2.872   1.217  12.476
  914MPD2    C513383   2.882   1.245  12.341
  914MPD2     H13384   2.845   1.532  12.579
  914MPD2    H113385   2.894   1.116  12.508
  914MPD2    H213386   2.862   1.378  12.181
  914MPD2    H313387   2.912   1.166  12.273
  914MPD2     N13388   2.849   1.310  12.701
  914MPD2    H513389   2.835   1.395  12.755
  914MPD2    N113390   2.783   1.602  12.319
  914MPD2    H713391   2.774   1.613  12.219
  915MPD2     C13392   1.016   1.141  15.739
  915MPD2    C113393   0.905   1.211  15.693
  915MPD2    C213394   0.811   1.256  15.782
  915MPD2    C313395   0.831   1.222  15.914
  915MPD2    C413396   0.944   1.152  15.953
  915MPD2    C513397   1.045   1.123  15.870
  915MPD2     H13398   0.712   1.292  15.758
  915MPD2    H113399   0.967   1.126  16.056
  915MPD2    H213400   1.086   1.092  15.672
  915MPD2    H313401   1.133   1.069  15.903
  915MPD2     N13402   0.723   1.248  16.008
  915MPD2    H513403   0.645   1.306  15.980
  915MPD2    N113404   0.894   1.216  15.547
  915MPD2    H713405   0.954   1.158  15.489
  916MPD2     C13406   3.657   4.273  16.042
  916MPD2    C113407   3.607   4.155  16.090
  916MPD2    C213408   3.639   4.035  16.027
  916MPD2    C313409   3.713   4.027  15.910
  916MPD2    C413410   3.749   4.148  15.855
  916MPD2    C513411   3.720   4.264  15.919
  916MPD2     H13412   3.623   3.936  16.068
  916MPD2    H113413   3.801   4.156  15.761
  916MPD2    H213414   3.636   4.369  16.089
  916MPD2    H313415   3.765   4.353  15.877
  916MPD2     N13416   3.752   3.904  15.853
  916MPD2    H513417   3.744   3.823  15.913
  916MPD2    N113418   3.520   4.164  16.200
  916MPD2    H713419   3.503   4.258  16.234
  917MPD2     C13420   3.917   1.877  11.529
  917MPD2    C113421   3.976   1.939  11.640
  917MPD2    C213422   4.058   2.051  11.621
  917MPD2    C313423   4.064   2.105  11.493
  917MPD2    C413424   4.000   2.048  11.382
  917MPD2    C513425   3.931   1.935  11.406
  917MPD2     H13426   4.097   2.110  11.703
  917MPD2    H113427   4.011   2.088  11.282
  917MPD2    H213428   3.855   1.789  11.541
  917MPD2    H313429   3.885   1.879  11.325
  917MPD2     N13430   4.146   2.229  11.465
  917MPD2    H513431   4.152   2.268  11.371
  917MPD2    N113432   3.927   1.903  11.766
  917MPD2    H713433   3.859   1.828  11.771
  918MPD2     C13434   3.995   2.429  12.599
  918MPD2    C113435   4.100   2.379  12.520
  918MPD2    C213436   4.057   2.278  12.434
  918MPD2    C313437   3.923   2.240  12.411
  918MPD2    C413438   3.834   2.283  12.506
  918MPD2    C513439   3.864   2.378  12.595
  918MPD2     H13440   4.127   2.226  12.370
  918MPD2    H113441   3.731   2.250  12.511
  918MPD2    H213442   4.024   2.491  12.683
  918MPD2    H313443   3.784   2.420  12.655
  918MPD2     N13444   3.902   2.134  12.319
  918MPD2    H513445   3.981   2.100  12.264
  918MPD2    N113446   4.232   2.424  12.525
  918MPD2    H713447   4.290   2.372  12.461
  919MPD2     C13448   4.750   0.812  12.170
  919MPD2    C113449   4.696   0.706  12.095
  919MPD2    C213450   4.711   0.705  11.962
  919MPD2    C313451   4.774   0.813  11.892
  919MPD2    C413452   0.003   0.922  11.969
  919MPD2    C513453   4.805   0.913  12.104
  919MPD2     H13454   4.672   0.623  11.902
  919MPD2    H113455   0.047   1.009  11.921
  919MPD2    H213456   4.756   0.824  12.278
  919MPD2    H313457   0.049   0.988  12.165
  919MPD2     N13458   4.795   0.811  11.755
  919MPD2    H513459   0.007   0.903  11.714
  919MPD2    N113460   4.623   0.604  12.153
  919MPD2    H713461   4.589   0.529  12.093
  920MPD2     C13462   4.551   1.428  11.052
  920MPD2    C113463   4.451   1.333  11.038
  920MPD2    C213464   4.477   1.202  11.087
  920MPD2    C313465   4.601   1.176  11.150
  920MPD2    C413466   4.692   1.277  11.160
  920MPD2    C513467   4.668   1.399  11.107
  920MPD2     H13468   4.397   1.128  11.087
  920MPD2    H113469   4.794   1.260  11.194
  920MPD2    H213470   4.534   1.531  11.022
  920MPD2    H313471   4.745   1.473  11.088
  920MPD2     N13472   4.622   1.044  11.208
  920MPD2    H513473   4.554   0.973  11.183
  920MPD2    N113474   4.325   1.367  10.977
  920MPD2    H713475   4.248   1.301  10.982
  921MPD2     C13476   0.427   0.001  16.875
  921MPD2    C113477   0.419   4.704  16.780
  921MPD2    C213478   0.317   4.606  16.799
  921MPD2    C313479   0.216   4.618  16.893
  921MPD2    C413480   0.216   4.738  16.962
  921MPD2    C513481   0.320   0.019  16.956
  921MPD2     H13482   0.308   4.520  16.733
  921MPD2    H113483   0.138   4.763  17.032
  921MPD2    H213484   0.504   0.078  16.883
  921MPD2    H313485   0.324   0.103  17.023
  921MPD2     N13486   0.109   4.523  16.896
  921MPD2    H513487   0.024   4.558  16.937
  921MPD2    N113488   0.520   4.693  16.688
  921MPD2    H713489   0.598   4.757  16.696
  922MPD2     C13490   1.306   2.677  17.446
  922MPD2    C113491   1.178   2.689  17.489
  922MPD2    C213492   1.115   2.580  17.534
  922MPD2    C313493   1.166   2.447  17.534
  922MPD2    C413494   1.288   2.434  17.469
  922MPD2    C513495   1.357   2.545  17.430
  922MPD2     H13496   1.017   2.594  17.579
  922MPD2    H113497   1.342   2.340  17.457
  922MPD2    H213498   1.364   2.756  17.402
  922MPD2    H313499   1.453   2.534  17.381
  922MPD2     N13500   1.093   2.339  17.586
  922MPD2    H513501   1.000   2.353  17.626
  922MPD2    N113502   1.103   2.814  17.507
  922MPD2    H713503   1.023   2.808  17.568
  923MPD2     C13504   2.430   4.781   9.238
  923MPD2    C113505   2.432   0.064   9.342
  923MPD2    C213506   2.515   0.045   9.453
  923MPD2    C313507   2.608   4.751   9.447
  923MPD2    C413508   2.608   4.667   9.335
  923MPD2    C513509   2.529   4.692   9.227
  923MPD2     H13510   2.507   0.116   9.535
  923MPD2    H113511   2.690   4.597   9.323
  923MPD2    H213512   2.360   4.796   9.156
  923MPD2    H313513   2.536   4.619   9.147
  923MPD2     N13514   2.700   4.718   9.551
  923MPD2    H513515   2.774   4.652   9.531
  923MPD2    N113516   2.346   0.175   9.342
  923MPD2    H713517   2.273   0.175   9.271
  924MPD2     C13518   2.310   2.673  16.152
  924MPD2    C113519   2.403   2.722  16.241
  924MPD2    C213520   2.471   2.833  16.203
  924MPD2    C313521   2.437   2.919  16.097
  924MPD2    C413522   2.341   2.872  16.014
  924MPD2    C513523   2.280   2.750  16.039
  924MPD2     H13524   2.542   2.877  16.273
  924MPD2    H113525   2.315   2.919  15.920
  924MPD2    H213526   2.250   2.587  16.182
  924MPD2    H313527   2.194   2.721  15.981
  924MPD2     N13528   2.502   3.044  16.065
  924MPD2    H513529   2.441   3.101  16.007
  924MPD2    N113530   2.402   2.664  16.373
  924MPD2    H713531   2.333   2.595  16.398
  925MPD2     C13532   1.428   0.691  15.094
  925MPD2    C113533   1.307   0.739  15.048
  925MPD2    C213534   1.218   0.793  15.139
  925MPD2    C313535   1.244   0.778  15.274
  925MPD2    C413536   1.364   0.727  15.316
  925MPD2    C513537   1.464   0.697  15.228
  925MPD2     H13538   1.125   0.831  15.097
  925MPD2    H113539   1.381   0.731  15.423
  925MPD2    H213540   1.497   0.643  15.026
  925MPD2    H313541   1.561   0.660  15.260
  925MPD2     N13542   1.141   0.772  15.367
  925MPD2    H513543   1.161   0.727  15.456
  925MPD2    N113544   1.258   0.737  14.919
  925MPD2    H713545   1.168   0.778  14.898
  926MPD2     C13546   0.255   3.882  13.450
  926MPD2    C113547   0.151   3.965  13.404
  926MPD2    C213548   0.181   4.060  13.312
  926MPD2    C313549   0.312   4.084  13.266
  926MPD2    C413550   0.411   4.017  13.326
  926MPD2    C513551   0.382   3.918  13.414
  926MPD2     H13552   0.100   4.114  13.263
  926MPD2    H113553   0.516   4.032  13.305
  926MPD2    H213554   0.243   3.791  13.508
  926MPD2    H313555   0.464   3.865  13.459
  926MPD2     N13556   0.344   4.174  13.162
  926MPD2    H513557   0.442   4.171  13.135
  926MPD2    N113558   0.015   3.952  13.449
  926MPD2    H713559   4.749   4.023  13.433
  927MPD2     C13560   4.319   1.407  18.017
  927MPD2    C113561   4.437   1.469  18.044
  927MPD2    C213562   4.539   1.453  17.956
  927MPD2    C313563   4.525   1.381  17.839
  927MPD2    C413564   4.404   1.313  17.817
  927MPD2    C513565   4.302   1.331  17.909
  927MPD2     H13566   4.634   1.501  17.980
  927MPD2    H113567   4.404   1.235  17.742
  927MPD2    H213568   4.236   1.419  18.086
  927MPD2    H313569   4.208   1.277  17.901
  927MPD2     N13570   4.632   1.372  17.746
  927MPD2    H513571   4.713   1.430  17.764
  927MPD2    N113572   4.450   1.535  18.162
  927MPD2    H713573   4.370   1.527  18.224
  928MPD2     C13574   2.097   4.115  18.771
  928MPD2    C113575   2.174   4.231  18.778
  928MPD2    C213576   2.294   4.245  18.702
  928MPD2    C313577   2.317   4.154  18.605
  928MPD2    C413578   2.237   4.042  18.594
  928MPD2    C513579   2.125   4.025  18.675
  928MPD2     H13580   2.356   4.333  18.718
  928MPD2    H113581   2.247   3.971  18.513
  928MPD2    H213582   2.008   4.111  18.833
  928MPD2    H313583   2.064   3.936  18.668
  928MPD2     N13584   2.417   4.167  18.500
  928MPD2    H513585   2.432   4.092  18.433
  928MPD2    N113586   2.122   4.336  18.866
  928MPD2    H713587   2.049   4.315  18.934
  929MPD2     C13588   2.155   0.117  10.022
  929MPD2    C113589   2.088   0.052  10.119
  929MPD2    C213590   1.952   0.024  10.092
  929MPD2    C313591   1.879   0.082   9.984
  929MPD2    C413592   1.952   0.160   9.893
  929MPD2    C513593   2.087   0.170   9.917
  929MPD2     H13594   1.892   4.769  10.160
  929MPD2    H113595   1.907   0.205   9.805
  929MPD2    H213596   2.258   0.145  10.038
  929MPD2    H313597   2.152   0.220   9.846
  929MPD2     N13598   1.744   0.056   9.957
  929MPD2    H513599   1.703   0.074   9.866
  929MPD2    N113600   2.155   0.036  10.247
  929MPD2    H713601   2.254   0.055  10.255
  930MPD2     C13602   4.156   1.889  14.208
  930MPD2    C113603   4.280   1.902  14.148
  930MPD2    C213604   4.321   1.802  14.058
  930MPD2    C313605   4.233   1.708  14.012
  930MPD2    C413606   4.114   1.700  14.080
  930MPD2    C513607   4.076   1.793  14.175
  930MPD2     H13608   4.428   1.798  14.044
  930MPD2    H113609   4.043   1.622  14.053
  930MPD2    H213610   4.113   1.964  14.274
  930MPD2    H313611   3.975   1.790  14.214
  930MPD2     N13612   4.270   1.610  13.916
  930MPD2    H513613   4.211   1.528  13.927
  930MPD2    N113614   4.375   1.996  14.198
  930MPD2    H713615   4.351   2.046  14.283
  931MPD2     C13616   0.230   1.503  18.615
  931MPD2    C113617   0.101   1.514  18.664
  931MPD2    C213618   0.057   1.430  18.769
  931MPD2    C313619   0.152   1.338  18.819
  931MPD2    C413620   0.284   1.339  18.776
  931MPD2    C513621   0.325   1.425  18.678
  931MPD2     H13622   4.758   1.418  18.798
  931MPD2    H113623   0.355   1.269  18.818
  931MPD2    H213624   0.257   1.557  18.524
  931MPD2    H313625   0.424   1.419  18.633
  931MPD2     N13626   0.118   1.227  18.904
  931MPD2    H513627   0.200   1.176  18.934
  931MPD2    N113628   0.007   1.603  18.599
  931MPD2    H713629   0.049   1.652  18.520
  932MPD2     C13630   1.390   1.068  11.750
  932MPD2    C113631   1.499   1.042  11.667
  932MPD2    C213632   1.565   0.920  11.670
  932MPD2    C313633   1.521   0.813  11.754
  932MPD2    C413634   1.413   0.849  11.840
  932MPD2    C513635   1.347   0.966  11.837
  932MPD2     H13636   1.646   0.899  11.600
  932MPD2    H113637   1.380   0.772  11.908
  932MPD2    H213638   1.344   1.165  11.767
  932MPD2    H313639   1.267   0.985  11.908
  932MPD2     N13640   1.575   0.682  11.758
  932MPD2    H513641   1.535   0.628  11.834
  932MPD2    N113642   1.546   1.140  11.575
  932MPD2    H713643   1.622   1.109  11.515
  933MPD2     C13644   1.894   0.328  19.223
  933MPD2    C113645   1.928   0.272  19.104
  933MPD2    C213646   1.902   0.341  18.986
  933MPD2    C313647   1.844   0.460  18.992
  933MPD2    C413648   1.797   0.514  19.114
  933MPD2    C513649   1.826   0.441  19.230
  933MPD2     H13650   1.945   0.312  18.891
  933MPD2    H113651   1.753   0.613  19.112
  933MPD2    H213652   1.935   0.286  19.314
  933MPD2    H313653   1.808   0.492  19.324
  933MPD2     N13654   1.843   0.526  18.868
  933MPD2    H513655   1.870   0.468  18.789
  933MPD2    N113656   2.000   0.154  19.112
  933MPD2    H713657   2.013   0.098  19.196
  934MPD2     C13658   3.186   2.773  19.718
  934MPD2    C113659   3.273   2.673  19.771
  934MPD2    C213660   3.249   2.543  19.741
  934MPD2    C313661   3.136   2.500  19.678
  934MPD2    C413662   3.040   2.594  19.652
  934MPD2    C513663   3.067   2.729  19.674
  934MPD2     H13664   3.317   2.465  19.774
  934MPD2    H113665   2.947   2.561  19.607
  934MPD2    H213666   3.211   2.878  19.728
  934MPD2    H313667   2.993   2.808  19.667
  934MPD2     N13668   3.106   2.365  19.641
  934MPD2    H513669   3.010   2.346  19.614
  934MPD2    N113670   3.393   2.706  19.837
  934MPD2    H713671   3.447   2.625  19.868
  935MPD2     C13672   3.746   1.642  19.402
  935MPD2    C113673   3.626   1.606  19.337
  935MPD2    C213674   3.517   1.682  19.379
  935MPD2    C313675   3.519   1.779  19.475
  935MPD2    C413676   3.635   1.803  19.540
  935MPD2    C513677   3.744   1.733  19.502
  935MPD2     H13678   3.428   1.673  19.317
  935MPD2    H113679   3.639   1.874  19.621
  935MPD2    H213680   3.834   1.582  19.383
  935MPD2    H313681   3.836   1.774  19.541
  935MPD2     N13682   3.407   1.849  19.510
  935MPD2    H513683   3.420   1.907  19.593
  935MPD2    N113684   3.622   1.510  19.235
  935MPD2    H713685   3.531   1.474  19.207
  936MPD2     C13686   2.104   3.417  12.712
  936MPD2    C113687   2.205   3.493  12.762
  936MPD2    C213688   2.231   3.614  12.693
  936MPD2    C313689   2.157   3.653  12.581
  936MPD2    C413690   2.058   3.576  12.536
  936MPD2    C513691   2.031   3.455  12.598
  936MPD2     H13692   2.305   3.682  12.733
  936MPD2    H113693   1.997   3.602  12.450
  936MPD2    H213694   2.068   3.327  12.760
  936MPD2    H313695   1.947   3.390  12.576
  936MPD2     N13696   2.175   3.777  12.523
  936MPD2    H513697   2.099   3.803  12.461
  936MPD2    N113698   2.277   3.467  12.881
  936MPD2    H713699   2.335   3.545  12.910
  937MPD2     C13700   4.699   4.721  12.054
  937MPD2    C113701   4.726   0.052  12.068
  937MPD2    C213702   0.037   0.101  12.010
  937MPD2    C313703   0.116   0.026  11.924
  937MPD2    C413704   0.079   4.703  11.895
  937MPD2    C513705   4.777   4.650  11.967
  937MPD2     H13706   0.055   0.207  12.019
  937MPD2    H113707   0.131   4.624  11.844
  937MPD2    H213708   4.609   4.680  12.097
  937MPD2    H313709   4.747   4.551  11.936
  937MPD2     N13710   0.230   0.096  11.871
  937MPD2    H513711   0.250   0.188  11.909
  937MPD2    N113712   4.652   0.146  12.135
  937MPD2    H713713   4.669   0.243  12.114
  938MPD2     C13714   2.754   1.045  18.696
  938MPD2    C113715   2.667   1.139  18.738
  938MPD2    C213716   2.616   1.141  18.862
  938MPD2    C313717   2.639   1.034  18.951
  938MPD2    C413718   2.727   0.933  18.906
  938MPD2    C513719   2.791   0.942  18.784
  938MPD2     H13720   2.552   1.224  18.888
  938MPD2    H113721   2.761   0.853  18.971
  938MPD2    H213722   2.795   1.056  18.597
  938MPD2    H313723   2.855   0.865  18.743
  938MPD2     N13724   2.596   1.027  19.089
  938MPD2    H513725   2.636   0.947  19.138
  938MPD2    N113726   2.652   1.262  18.677
  938MPD2    H713727   2.626   1.346  18.728
  939MPD2     C13728   3.714   2.154  18.816
  939MPD2    C113729   3.692   2.283  18.773
  939MPD2    C213730   3.753   2.328  18.656
  939MPD2    C313731   3.823   2.233  18.573
  939MPD2    C413732   3.836   2.103  18.616
  939MPD2    C513733   3.784   2.064  18.733
  939MPD2     H13734   3.746   2.432  18.629
  939MPD2    H113735   3.877   2.028  18.551
  939MPD2    H213736   3.677   2.119  18.911
  939MPD2    H313737   3.794   1.964  18.774
  939MPD2     N13738   3.880   2.280  18.453
  939MPD2    H513739   3.875   2.376  18.422
  939MPD2    N113740   3.615   2.370  18.855
  939MPD2    H713741   3.590   2.333  18.947
  940MPD2     C13742   2.845   3.986  13.465
  940MPD2    C113743   2.784   3.863  13.464
  940MPD2    C213744   2.810   3.775  13.362
  940MPD2    C313745   2.883   3.815  13.253
  940MPD2    C413746   2.936   3.948  13.252
  940MPD2    C513747   2.914   4.032  13.356
  940MPD2     H13748   2.754   3.682  13.352
  940MPD2    H113749   2.993   3.985  13.167
  940MPD2    H213750   2.831   4.065  13.538
  940MPD2    H313751   2.955   4.132  13.361
  940MPD2     N13752   2.906   3.738  13.144
  940MPD2    H513753   2.975   3.771  13.078
  940MPD2    N113754   2.704   3.831  13.576
  940MPD2    H713755   2.662   3.739  13.566
  941MPD2     C13756   1.619   3.093  10.121
  941MPD2    C113757   1.736   3.064  10.185
  941MPD2    C213758   1.757   2.937  10.228
  941MPD2    C313759   1.669   2.836  10.206
  941MPD2    C413760   1.551   2.868  10.145
  941MPD2    C513761   1.526   2.994  10.098
  941MPD2     H13762   1.847   2.919  10.286
  941MPD2    H113763   1.474   2.794  10.126
  941MPD2    H213764   1.593   3.190  10.080
  941MPD2    H313765   1.433   3.018  10.047
  941MPD2     N13766   1.687   2.707  10.268
  941MPD2    H513767   1.622   2.634  10.240
  941MPD2    N113768   1.834   3.168  10.215
  941MPD2    H713769   1.910   3.135  10.272
  942MPD2     C13770   0.870   0.139   9.399
  942MPD2    C113771   0.920   0.012   9.378
  942MPD2    C213772   1.044   4.804   9.310
  942MPD2    C313773   1.123   0.110   9.279
  942MPD2    C413774   1.077   0.230   9.316
  942MPD2    C513775   0.946   0.247   9.361
  942MPD2     H13776   1.091   4.706   9.313
  942MPD2    H113777   1.147   0.312   9.306
  942MPD2    H213778   0.780   0.154   9.458
  942MPD2    H313779   0.936   0.347   9.403
  942MPD2     N13780   1.256   0.092   9.239
  942MPD2    H513781   1.321   0.167   9.260
  942MPD2    N113782   0.851   4.691   9.403
  942MPD2    H713783   0.896   4.606   9.372
  943MPD2     C13784   0.453   2.611  10.027
  943MPD2    C113785   0.580   2.673  10.042
  943MPD2    C213786   0.600   2.794   9.975
  943MPD2    C313787   0.494   2.856   9.913
  943MPD2    C413788   0.377   2.788   9.895
  943MPD2    C513789   0.358   2.666   9.953
  943MPD2     H13790   0.694   2.846   9.989
  943MPD2    H113791   0.298   2.833   9.835
  943MPD2    H213792   0.442   2.515  10.076
  943MPD2    H313793   0.264   2.613   9.937
  943MPD2     N13794   0.502   2.989   9.857
  943MPD2    H513795   0.430   3.010   9.789
  943MPD2    N113796   0.674   2.605  10.129
  943MPD2    H713797   0.634   2.540  10.195
  944MPD2     C13798   0.044   1.555  11.350
  944MPD2    C113799   0.137   1.616  11.423
  944MPD2    C213800   0.104   1.743  11.472
  944MPD2    C313801   4.795   1.811  11.440
  944MPD2    C413802   4.702   1.741  11.357
  944MPD2    C513803   4.730   1.617  11.323
  944MPD2     H13804   0.175   1.795  11.536
  944MPD2    H113805   4.614   1.798  11.326
  944MPD2    H213806   0.063   1.456  11.309
  944MPD2    H313807   4.644   1.571  11.275
  944MPD2     N13808   4.783   1.947  11.488
  944MPD2    H513809   0.056   1.988  11.540
  944MPD2    N113810   0.260   1.554  11.444
  944MPD2    H713811   0.288   1.475  11.387
  945TCq1    O113812   3.264   2.431  14.689
  945TCq1    C113813   3.354   2.339  14.654
  945TCq1    O213814   3.348   2.278  14.548
  945TCq1    C213815   3.487   2.371  14.694
  945TCq1    C313816   3.586   2.282  14.652
  945TCq1    C413817   3.721   2.305  14.684
  945TCq1    C513818   3.762   2.422  14.741
  945TCq1    C613819   3.666   2.508  14.773
  945TCq1    C713820   3.524   2.495  14.747
  945TCq1    C813821   3.708   2.628  14.851
  945TCq1    O413822   3.799   2.611  14.931
  945TCq1    C913823   3.826   2.200  14.691
  945TCq1    O513824   3.941   2.228  14.656
  945TCq1    O613825   3.773   2.077  14.683
  945TCq1    H113826   3.290   2.462  14.778
  945TCq1    H213827   3.552   2.192  14.604
  945TCq1    H313828   3.865   2.449  14.760
  945TCq1    H413829   3.442   2.562  14.773
  946MPD2     C13830   3.649   3.116  15.012
  946MPD2    C113831   3.572   3.097  14.904
  946MPD2    C213832   3.554   2.975  14.845
  946MPD2    C313833   3.635   2.866  14.889
  946MPD2    C413834   3.716   2.891  15.000
  946MPD2    C513835   3.723   3.014  15.056
  946MPD2     H13836   3.474   2.967  14.772
  946MPD2    H113837   3.787   2.820  15.041
  946MPD2    H213838   3.656   3.214  15.059
  946MPD2    H313839   3.793   3.020  15.139
  946MPD2     N13840   3.630   2.739  14.823
  946MPD2    H513841   3.561   2.740  14.748
  946MPD2    N113842   3.520   3.211  14.839
  946MPD2    H713843   3.509   3.292  14.899
  947TMC2    C113844   3.454   3.361  14.679
  947TMC2    C213845   3.547   3.452  14.719
  947TMC2    C313846   3.533   3.579  14.661
  947TMC2    C413847   3.360   3.374  14.574
  947TMC2    C513848   3.363   3.497  14.517
  947TMC2    C613849   3.440   3.601  14.563
  947TMC2     C13850   3.490   3.222  14.705
  947TMC2     O13851   3.492   3.142  14.613
  947TMC2     H13852   3.609   3.427  14.804
  947TMC2    H113853   3.297   3.291  14.546
  947TMC2    H213854   3.455   3.690  14.503
  947TMC2    C713855   3.268   3.508  14.415
  947TMC2    C813856   3.614   3.696  14.691
  947TMC2    O113857   3.159   3.459  14.448
  947TMC2    O213858   3.573   3.808  14.678
  947TMC2    O513859   3.728   3.661  14.752
  947TMC2    H513860   3.759   3.578  14.709
  948MPD2     C13861   2.814   4.505  14.024
  948MPD2    C113862   2.822   4.433  13.907
  948MPD2    C213863   2.946   4.386  13.872
  948MPD2    C313864   3.055   4.429  13.943
  948MPD2    C413865   3.047   4.519  14.047
  948MPD2    C513866   2.925   4.554  14.092
  948MPD2     H13867   2.953   4.315  13.790
  948MPD2    H113868   3.127   4.556  14.111
  948MPD2    H213869   2.716   4.528  14.064
  948MPD2    H313870   2.918   4.627  14.171
  948MPD2     N13871   3.176   4.377  13.895
  948MPD2    H513872   3.182   4.302  13.827
  948MPD2    N113873   2.709   4.405  13.835
  948MPD2    H713874   2.620   4.415  13.883
  949TCq2    C113875   3.298   4.415  13.939
  949TCq2    O213876   3.341   4.524  13.980
  949TCq2    C213877   3.392   4.314  13.922
  949TCq2    C313878   3.524   4.354  13.896
  949TCq2    C413879   3.617   4.257  13.886
  949TCq2    C513880   3.592   4.124  13.914
  949TCq2    C613881   3.459   4.092  13.922
  949TCq2    C713882   3.352   4.183  13.925
  949TCq2    C813883   3.437   3.963  13.977
  949TCq2    O413884   3.534   3.904  14.024
  949TCq2    C913885   3.760   4.292  13.877
  949TCq2    O513886   3.855   4.230  13.921
  949TCq2    O613887   3.771   4.375  13.771
  949TCq2    H213888   3.551   4.457  13.874
  949TCq2    H313889   3.661   4.042  13.899
  949TCq2    H413890   3.250   4.152  13.945
  950MPD1     C13891   1.700   0.969  13.526
  950MPD1    C113892   1.831   0.940  13.484
  950MPD1    C213893   1.877   0.816  13.468
  950MPD1    C313894   1.792   0.710  13.484
  950MPD1    C413895   1.664   0.736  13.533
  950MPD1    C513896   1.624   0.863  13.561
  950MPD1     H13897   1.979   0.805  13.435
  950MPD1    H113898   1.593   0.663  13.572
  950MPD1    H213899   1.671   1.073  13.531
  950MPD1    H313900   1.524   0.882  13.599
  950MPD1     N13901   1.832   0.576  13.466
  950MPD1    H513902   1.765   0.507  13.497
  950MPD1    N113903   1.915   1.048  13.462
  950MPD1    H613904   1.857   1.124  13.428
  950MPD1    H713905   1.985   1.022  13.393
  951MPD2     C13906   1.904   4.718  13.551
  951MPD2    C113907   1.996   4.732  13.650
  951MPD2    C213908   2.070   4.622  13.691
  951MPD2    C313909   2.062   4.503  13.619
  951MPD2    C413910   1.970   4.491  13.509
  951MPD2    C513911   1.896   4.601  13.482
  951MPD2     H13912   2.137   4.630  13.777
  951MPD2    H113913   1.957   4.395  13.460
  951MPD2    H213914   1.839   4.799  13.521
  951MPD2    H313915   1.836   4.600  13.392
  951MPD2     N13916   2.144   4.394  13.640
  951MPD2    H513917   2.139   4.310  13.583
  951MPD2    N113918   2.018   0.043  13.722
  951MPD2    H713919   2.063   0.035  13.813
  952TMC3    C113920   2.357   4.284  13.670
  952TMC3    C213921   2.480   4.304  13.730
  952TMC3    C313922   2.587   4.323  13.648
  952TMC3    C413923   2.347   4.267  13.535
  952TMC3    C513924   2.462   4.286  13.454
  952TMC3    C613925   2.579   4.306  13.513
  952TMC3     C13926   2.249   4.377  13.726
  952TMC3     O13927   2.289   4.455  13.815
  952TMC3     H13928   2.487   4.326  13.836
  952TMC3    H113929   2.255   4.249  13.481
  952TMC3    H213930   2.661   4.316  13.443
  952TMC3    C713931   2.434   4.390  13.361
  952TMC3    C813932   2.712   4.363  13.704
  952TMC3    O113933   2.518   4.477  13.343
  952TMC3    O213934   2.797   4.363  13.620
  953TMC3    C113935   1.940   0.389  13.399
  953TMC3    C213936   2.017   0.339  13.307
  953TMC3    C313937   2.076   0.222  13.342
  953TMC3    C413938   1.935   0.339  13.522
  953TMC3    C513939   1.988   0.215  13.550
  953TMC3    C613940   2.075   0.157  13.463
  953TMC3     C13941   1.935   0.533  13.383
  953TMC3     O13942   2.016   0.593  13.315
  953TMC3     H13943   2.000   0.385  13.211
  953TMC3    H113944   1.870   0.381  13.598
  953TMC3    H213945   2.133   0.068  13.485
  953TMC3    C713946   1.975   0.170  13.689
  953TMC3    C813947   2.114   0.148  13.220
  953TMC3    O113948   1.975   0.261  13.771
  953TMC3    O213949   2.059   0.169  13.113
  954MPD2     C13950   2.141   4.455  13.139
  954MPD2    C113951   2.242   4.485  13.229
  954MPD2    C213952   2.266   4.618  13.253
  954MPD2    C313953   2.185   4.715  13.194
  954MPD2    C413954   2.081   4.685  13.109
  954MPD2    C513955   2.063   4.556  13.082
  954MPD2     H13956   2.353   4.640  13.314
  954MPD2    H113957   2.025   4.762  13.057
  954MPD2    H213958   2.124   4.354  13.104
  954MPD2    H313959   2.009   4.528  12.993
  954MPD2     N13960   2.195   0.038  13.253
  954MPD2    H513961   2.263   0.042  13.328
  954MPD2    N113962   2.310   4.376  13.302
  954MPD2    H713963   2.254   4.291  13.301
  955MPD2     C13964   3.100   3.636  14.208
  955MPD2    C113965   3.228   3.676  14.238
  955MPD2    C213966   3.294   3.770  14.160
  955MPD2    C313967   3.240   3.827  14.049
  955MPD2    C413968   3.114   3.790  14.026
  955MPD2    C513969   3.045   3.694  14.096
  955MPD2     H13970   3.392   3.796  14.199
  955MPD2    H113971   3.059   3.828  13.941
  955MPD2    H213972   3.048   3.552  14.252
  955MPD2    H313973   2.945   3.666  14.065
  955MPD2     N13974   3.303   3.926  13.973
  955MPD2    H513975   3.232   3.985  13.932
  955MPD2    N113976   3.308   3.610  14.332
  955MPD2    H713977   3.404   3.633  14.354
  956MPD1     C13978   0.435   4.762  17.438
  956MPD1    C113979   0.511   0.067  17.470
  956MPD1    C213980   0.583   0.129  17.372
  956MPD1    C313981   0.601   0.061  17.257
  956MPD1    C413982   0.536   4.747  17.227
  956MPD1    C513983   0.449   4.697  17.321
  956MPD1     H13984   0.624   0.228  17.386
  956MPD1    H113985   0.555   4.702  17.130
  956MPD1    H213986   0.383   4.712  17.519
  956MPD1    H313987   0.388   4.611  17.297
  956MPD1     N13988   0.689   0.099  17.161
  956MPD1    H513989   0.704   0.027  17.091
  956MPD1    N113990   0.492   0.132  17.592
  956MPD1    H613991   0.468   0.070  17.670
  956MPD1    H713992   0.573   0.183  17.625
  957MPD1     C13993   1.569   0.552  17.221
  957MPD1    C113994   1.451   0.569  17.288
  957MPD1    C213995   1.339   0.510  17.226
  957MPD1    C313996   1.349   0.418  17.125
  957MPD1    C413997   1.472   0.390  17.075
  957MPD1    C513998   1.576   0.463  17.118
  957MPD1     H13999   1.238   0.534  17.257
  957MPD1    H114000   1.493   0.314  17.001
  957MPD1    H214001   1.656   0.610  17.249
  957MPD1    H314002   1.669   0.446  17.064
  957MPD1     N14003   1.226   0.360  17.090
  957MPD1    H514004   1.143   0.403  17.131
  957MPD1    N114005   1.436   0.674  17.381
  957MPD1    H614006   1.514   0.687  17.445
  957MPD1    H714007   1.350   0.668  17.436
  958TMC3    C114008   1.065   0.253  16.962
  958TMC3    C214009   1.025   0.221  16.838
  958TMC3    C314010   0.893   0.195  16.820
  958TMC3    C414011   0.981   0.254  17.068
  958TMC3    C514012   0.854   0.206  17.046
  958TMC3    C614013   0.803   0.184  16.922
  958TMC3     C14014   1.205   0.282  16.979
  958TMC3     O14015   1.278   0.259  16.879
  958TMC3     H14016   1.092   0.177  16.765
  958TMC3    H114017   1.012   0.266  17.171
  958TMC3    H214018   0.695   0.178  16.924
  958TMC3    C714019   0.765   0.212  17.161
  958TMC3    C814020   0.836   0.173  16.687
  958TMC3    O114021   0.756   0.313  17.229
  958TMC3    O214022   0.719   0.134  16.688
  959MPD1     C14023   0.768   0.239  16.174
  959MPD1    C114024   0.892   0.296  16.208
  959MPD1    C214025   0.936   0.283  16.344
  959MPD1    C314026   0.861   0.222  16.446
  959MPD1    C414027   0.738   0.174  16.405
  959MPD1    C514028   0.702   0.175  16.274
  959MPD1     H14029   1.032   0.326  16.369
  959MPD1    H114030   0.664   0.128  16.470
  959MPD1    H214031   0.716   0.249  16.079
  959MPD1    H314032   0.607   0.129  16.252
  959MPD1     N14033   0.907   0.219  16.578
  959MPD1    H514034   1.001   0.257  16.591
  959MPD1    N114035   0.969   0.366  16.113
  959MPD1    H614036   1.065   0.380  16.143
  959MPD1    H714037   0.978   0.322  16.022
  960TCq1    O114038   2.528   4.737  12.135
  960TCq1    C114039   2.595   0.034  12.081
  960TCq1    O214040   2.685   0.094  12.140
  960TCq1    C214041   2.504   0.089  11.985
  960TCq1    C314042   2.459   0.007  11.886
  960TCq1    C414043   2.382   0.065  11.790
  960TCq1    C514044   2.346   0.194  11.779
  960TCq1    C614045   2.417   0.277  11.863
  960TCq1    C714046   2.482   0.229  11.975
  960TCq1    C814047   2.349   0.405  11.890
  960TCq1    O414048   2.351   0.449  12.005
  960TCq1    C914049   2.329   4.779  11.685
  960TCq1    O514050   2.210   4.783  11.653
  960TCq1    O614051   2.437   4.758  11.605
  960TCq1    H114052   2.439   4.721  12.096
  960TCq1    H214053   2.479   4.706  11.879
  960TCq1    H314054   2.271   0.212  11.704
  960TCq1    H414055   2.520   0.289  12.058
  961MPD1     C14056   1.990   0.748  11.720
  961MPD1    C114057   2.030   0.661  11.619
  961MPD1    C214058   2.132   0.568  11.637
  961MPD1    C314059   2.191   0.554  11.762
  961MPD1    C414060   2.135   0.620  11.871
  961MPD1    C514061   2.044   0.719  11.847
  961MPD1     H14062   2.174   0.514  11.553
  961MPD1    H114063   2.178   0.609  11.969
  961MPD1    H214064   1.918   0.827  11.706
  961MPD1    H314065   2.000   0.767  11.934
  961MPD1     N14066   2.295   0.457  11.768
  961MPD1    H514067   2.317   0.404  11.684
  961MPD1    N114068   1.985   0.682  11.489
  961MPD1    H614069   1.997   0.598  11.433
  961MPD1    H714070   1.887   0.706  11.476
  962TCq1    O114071   1.000   1.026  19.256
  962TCq1    C114072   1.064   1.139  19.265
  962TCq1    O214073   1.145   1.163  19.353
  962TCq1    C214074   0.950   1.229  19.255
  962TCq1    C314075   0.914   1.276  19.130
  962TCq1    C414076   0.818   1.381  19.142
  962TCq1    C514077   0.764   1.432  19.259
  962TCq1    C614078   0.791   1.364  19.374
  962TCq1    C714079   0.885   1.262  19.374
  962TCq1    C814080   0.672   1.341  19.455
  962TCq1    O414081   0.572   1.399  19.422
  962TCq1    C914082   0.754   1.427  19.015
  962TCq1    O514083   0.781   1.379  18.909
  962TCq1    O614084   0.736   1.558  19.042
  962TCq1    H114085   0.941   1.009  19.180
  962TCq1    H214086   0.961   1.253  19.035
  962TCq1    H314087   0.681   1.501  19.266
  962TCq1    H414088   0.924   1.232  19.470
  963MPD1     C14089   0.448   1.138  19.872
  963MPD1    C114090   0.570   1.074  19.859
  963MPD1    C214091   0.660   1.124  19.759
  963MPD1    C314092   0.611   1.208  19.661
  963MPD1    C414093   0.478   1.246  19.666
  963MPD1    C514094   0.400   1.219  19.774
  963MPD1     H14095   0.764   1.094  19.763
  963MPD1    H114096   0.434   1.311  19.591
  963MPD1    H214097   0.381   1.122  19.956
  963MPD1    H314098   0.297   1.252  19.771
  963MPD1     N14099   0.697   1.242  19.555
  963MPD1    H514100   0.795   1.214  19.561
  963MPD1    N114101   0.618   0.995  19.967
  963MPD1    H614102   0.537   0.942  19.999
  963MPD1    H714103   0.685   0.933  19.922
  964MPD1     C14104   3.373   4.548  12.403
  964MPD1    C114105   3.484   4.542  12.318
  964MPD1    C214106   3.565   4.650  12.302
  964MPD1    C314107   3.534   4.764  12.372
  964MPD1    C414108   3.424   4.777  12.453
  964MPD1    C514109   3.347   4.664  12.468
  964MPD1     H14110   3.654   4.659  12.241
  964MPD1    H114111   3.384   0.062  12.498
  964MPD1    H214112   3.306   4.466  12.424
  964MPD1    H314113   3.255   4.675  12.525
  964MPD1     N14114   3.623   0.073  12.353
  964MPD1    H514115   3.705   0.045  12.299
  964MPD1    N114116   3.502   4.431  12.233
  964MPD1    H614117   3.473   4.342  12.274
  964MPD1    H714118   3.602   4.423  12.211
  965MPD1     C14119   3.124   0.670  11.841
  965MPD1    C114120   3.073   0.615  11.723
  965MPD1    C214121   3.140   0.517  11.654
  965MPD1    C314122   3.267   0.479  11.683
  965MPD1    C414123   3.320   0.535  11.797
  965MPD1    C514124   3.249   0.628  11.876
  965MPD1     H14125   3.096   0.471  11.566
  965MPD1    H114126   3.414   0.499  11.837
  965MPD1    H214127   3.077   0.748  11.900
  965MPD1    H314128   3.296   0.640  11.973
  965MPD1     N14129   3.334   0.374  11.613
  965MPD1    H514130   3.421   0.333  11.647
  965MPD1    N114131   2.950   0.658  11.664
  965MPD1    H614132   2.900   0.718  11.729
  965MPD1    H714133   2.891   0.586  11.625
  966MPD1     C14134   3.013   4.669  10.817
  966MPD1    C114135   3.018   4.610  10.943
  966MPD1    C214136   3.107   4.671  11.031
  966MPD1    C314137   3.200   4.768  11.007
  966MPD1    C414138   3.202   0.009  10.877
  966MPD1    C514139   3.106   4.771  10.787
  966MPD1     H14140   3.115   4.625  11.128
  966MPD1    H114141   3.274   0.086  10.851
  966MPD1    H214142   2.941   4.627  10.747
  966MPD1    H314143   3.107   0.004  10.686
  966MPD1     N14144   3.274   0.006  11.118
  966MPD1    H514145   3.250   4.771  11.208
  966MPD1    N114146   2.928   4.512  10.987
  966MPD1    H614147   2.911   4.446  10.911
  966MPD1    H714148   2.966   4.453  11.060
  967MPD2     C14149   3.726   0.603  11.782
  967MPD2    C114150   3.822   0.620  11.882
  967MPD2    C214151   3.955   0.660  11.845
  967MPD2    C314152   3.980   0.686  11.715
  967MPD2    C414153   3.890   0.668  11.617
  967MPD2    C514154   3.764   0.627  11.651
  967MPD2     H14155   4.036   0.663  11.916
  967MPD2    H114156   3.914   0.673  11.511
  967MPD2    H214157   3.627   0.568  11.808
  967MPD2    H314158   3.694   0.617  11.569
  967MPD2     N14159   4.110   0.709  11.668
  967MPD2    H514160   4.124   0.702  11.568
  967MPD2    N114161   3.787   0.592  12.017
  967MPD2    H714162   3.859   0.615  12.084
  968TMC3    C114163   3.711   0.501  12.207
  968TMC3    C214164   3.630   0.409  12.265
  968TMC3    C314165   3.688   0.302  12.327
  968TMC3    C414166   3.847   0.489  12.235
  968TMC3    C514167   3.902   0.368  12.279
  968TMC3    C614168   3.825   0.271  12.328
  968TMC3     C14169   3.686   0.515  12.063
  968TMC3     O14170   3.604   0.444  12.008
  968TMC3     H14171   3.532   0.401  12.218
  968TMC3    H114172   3.913   0.570  12.207
  968TMC3    H214173   3.860   0.186  12.386
  968TMC3    C714174   4.035   0.348  12.222
  968TMC3    C814175   3.592   0.205  12.380
  968TMC3    O114176   4.105   0.443  12.196
  968TMC3    O214177   3.489   0.251  12.430
  969TMC3    C114178   3.389   0.213  11.449
  969TMC3    C214179   3.341   0.145  11.339
  969TMC3    C314180   3.433   0.128  11.235
  969TMC3    C414181   3.517   0.264  11.451
  969TMC3    C514182   3.602   0.238  11.347
  969TMC3    C614183   3.566   0.166  11.238
  969TMC3     C14184   3.284   0.297  11.509
  969TMC3     O14185   3.172   0.296  11.462
  969TMC3     H14186   3.239   0.112  11.328
  969TMC3    H114187   3.557   0.318  11.536
  969TMC3    H214188   3.633   0.153  11.154
  969TMC3    C714189   3.742   0.263  11.365
  969TMC3    C814190   3.384   0.085  11.104
  969TMC3    O114191   3.782   0.355  11.434
  969TMC3    O214192   3.451   0.137  11.013
  970MPD2     C14193   4.366   0.066  11.951
  970MPD2    C114194   4.348   0.201  11.947
  970MPD2    C214195   4.245   0.255  12.029
  970MPD2    C314196   4.176   0.170  12.114
  970MPD2    C414197   4.207   0.036  12.120
  970MPD2    C514198   4.292   4.788  12.026
  970MPD2     H14199   4.222   0.361  12.024
  970MPD2    H114200   4.157   4.768  12.182
  970MPD2    H214201   4.443   0.012  11.897
  970MPD2    H314202   4.324   4.685  12.021
  970MPD2     N14203   4.064   0.214  12.197
  970MPD2    H514204   3.991   0.149  12.222
  970MPD2    N114205   4.429   0.280  11.859
  970MPD2    H714206   4.481   0.242  11.781
  971TMC3    C114207   4.419   0.496  11.755
  971TMC3    C214208   4.390   0.433  11.639
  971TMC3    C314209   4.345   0.511  11.543
  971TMC3    C414210   4.403   0.628  11.773
  971TMC3    C514211   4.337   0.702  11.684
  971TMC3    C614212   4.317   0.645  11.562
  971TMC3     C14213   4.433   0.412  11.875
  971TMC3     O14214   4.432   0.473  11.977
  971TMC3     H14215   4.381   0.325  11.637
  971TMC3    H114216   4.407   0.669  11.873
  971TMC3    H214217   4.300   0.708  11.475
  971TMC3    C714218   4.212   0.753  11.743
  971TMC3    C814219   4.237   0.456  11.465
  971TMC3    O114220   4.204   0.813  11.853
  971TMC3    O214221   4.142   0.532  11.443
  972MPD2     C14222   4.231   0.122  11.313
  972MPD2    C114223   4.181   0.236  11.371
  972MPD2    C214224   4.044   0.248  11.375
  972MPD2    C314225   3.967   0.150  11.317
  972MPD2    C414226   4.014   0.042  11.253
  972MPD2    C514227   4.150   0.023  11.253
  972MPD2     H14228   4.012   0.339  11.424
  972MPD2    H114229   3.954   4.772  11.203
  972MPD2    H214230   4.338   0.107  11.309
  972MPD2    H314231   4.209   4.749  11.207
  972MPD2     N14232   3.821   0.166  11.311
  972MPD2    H514233   3.771   0.084  11.279
  972MPD2    N114234   4.269   0.328  11.429
  972MPD2    H714235   4.370   0.314  11.439
  973MPD1     C14236   3.874   4.135  16.978
  973MPD1    C114237   3.859   4.166  16.841
  973MPD1    C214238   3.776   4.084  16.770
  973MPD1    C314239   3.697   3.993  16.832
  973MPD1    C414240   3.700   3.970  16.970
  973MPD1    C514241   3.797   4.036  17.042
  973MPD1     H14242   3.781   4.090  16.661
  973MPD1    H114243   3.633   3.898  17.015
  973MPD1    H214244   3.953   4.168  17.045
  973MPD1    H314245   3.814   4.021  17.148
  973MPD1     N14246   3.611   3.906  16.762
  973MPD1    H514247   3.556   3.837  16.812
  973MPD1    N114248   3.951   4.249  16.776
  973MPD1    H614249   3.923   4.262  16.679
  973MPD1    H714250   3.962   4.338  16.824
  974MPD1     C14251   3.468   3.591  15.783
  974MPD1    C114252   3.480   3.720  15.834
  974MPD1    C214253   3.485   3.737  15.972
  974MPD1    C314254   3.503   3.631  16.061
  974MPD1    C414255   3.503   3.503  16.001
  974MPD1    C514256   3.470   3.487  15.871
  974MPD1     H14257   3.473   3.841  15.999
  974MPD1    H114258   3.519   3.415  16.063
  974MPD1    H214259   3.434   3.576  15.681
  974MPD1    H314260   3.443   3.387  15.836
  974MPD1     N14261   3.507   3.655  16.199
  974MPD1    H514262   3.516   3.753  16.225
  974MPD1    N114263   3.475   3.836  15.760
  974MPD1    H614264   3.464   3.832  15.659
  974MPD1    H714265   3.545   3.908  15.776
  975TCq2    C114266   3.488   3.556  16.297
  975TCq2    O214267   3.465   3.437  16.284
  975TCq2    C214268   3.466   3.615  16.430
  975TCq2    C314269   3.388   3.542  16.514
  975TCq2    C414270   3.363   3.601  16.631
  975TCq2    C514271   3.436   3.714  16.676
  975TCq2    C614272   3.519   3.784  16.588
  975TCq2    C714273   3.535   3.730  16.458
  975TCq2    C814274   3.591   3.900  16.623
  975TCq2    O414275   3.631   3.969  16.532
  975TCq2    C914276   3.273   3.526  16.714
  975TCq2    O514277   3.241   3.411  16.687
  975TCq2    O614278   3.198   3.626  16.771
  975TCq2    H214279   3.321   3.465  16.477
  975TCq2    H314280   3.399   3.754  16.769
  975TCq2    H414281   3.606   3.780  16.394
  976TCq1    O114282   1.322   2.749  13.117
  976TCq1    C114283   1.356   2.620  13.148
  976TCq1    O214284   1.286   2.518  13.129
  976TCq1    C214285   1.429   2.657  13.269
  976TCq1    C314286   1.352   2.665  13.383
  976TCq1    C414287   1.405   2.733  13.489
  976TCq1    C514288   1.536   2.773  13.493
  976TCq1    C614289   1.604   2.772  13.375
  976TCq1    C714290   1.557   2.714  13.264
  976TCq1    C814291   1.726   2.845  13.369
  976TCq1    O414292   1.738   2.918  13.273
  976TCq1    C914293   1.325   2.753  13.607
  976TCq1    O514294   1.375   2.821  13.691
  976TCq1    O614295   1.272   2.630  13.628
  976TCq1    H114296   1.374   2.817  13.164
  976TCq1    H214297   1.246   2.645  13.376
  976TCq1    H314298   1.561   2.832  13.580
  976TCq1    H414299   1.601   2.722  13.165
  977MPD2     C14300   1.999   2.935  13.377
  977MPD2    C114301   1.940   2.871  13.483
  977MPD2    C214302   2.015   2.839  13.599
  977MPD2    C314303   2.149   2.870  13.604
  977MPD2    C414304   2.207   2.934  13.495
  977MPD2    C514305   2.135   2.965  13.382
  977MPD2     H14306   1.971   2.788  13.684
  977MPD2    H114307   2.309   2.971  13.489
  977MPD2    H214308   1.953   2.941  13.279
  977MPD2    H314309   2.182   3.024  13.304
  977MPD2     N14310   2.225   2.849  13.717
  977MPD2    H514311   2.178   2.808  13.797
  977MPD2    N114312   1.811   2.821  13.475
  977MPD2    H714313   1.772   2.766  13.551
  978TCq1    O114314   2.627   2.932  14.165
  978TCq1    C114315   2.686   2.833  14.089
  978TCq1    O214316   2.781   2.760  14.125
  978TCq1    C214317   2.585   2.777  14.004
  978TCq1    C314318   2.536   2.657  14.050
  978TCq1    C414319   2.415   2.629  13.994
  978TCq1    C514320   2.352   2.691  13.895
  978TCq1    C614321   2.416   2.802  13.846
  978TCq1    C714322   2.533   2.846  13.899
  978TCq1    C814323   2.359   2.875  13.731
  978TCq1    O414324   2.437   2.945  13.671
  978TCq1    C914325   2.343   2.527  14.062
  978TCq1    O514326   2.231   2.551  14.106
  978TCq1    O614327   2.421   2.422  14.091
  978TCq1    H114328   2.544   2.961  14.121
  978TCq1    H214329   2.580   2.609  14.137
  978TCq1    H314330   2.261   2.649  13.854
  978TCq1    H414331   2.574   2.943  13.871
  979MPD2     C14332   1.428   4.080  15.152
  979MPD2    C114333   1.321   3.996  15.140
  979MPD2    C214334   1.319   3.899  15.044
  979MPD2    C314335   1.430   3.886  14.958
  979MPD2    C414336   1.540   3.970  14.975
  979MPD2    C514337   1.534   4.065  15.068
  979MPD2     H14338   1.236   3.829  15.037
  979MPD2    H114339   1.634   3.951  14.925
  979MPD2    H214340   1.431   4.148  15.236
  979MPD2    H314341   1.630   4.110  15.092
  979MPD2     N14342   1.454   3.776  14.871
  979MPD2    H514343   1.549   3.763  14.837
  979MPD2    N114344   1.210   4.015  15.222
  979MPD2    H714345   1.192   4.108  15.260
  980TMC3    C114346   0.988   3.975  15.292
  980TMC3    C214347   0.901   3.871  15.329
  980TMC3    C314348   0.769   3.879  15.305
  980TMC3    C414349   0.938   4.086  15.232
  980TMC3    C514350   0.800   4.092  15.215
  980TMC3    C614351   0.719   3.997  15.263
  980TMC3     C14352   1.106   3.918  15.232
  980TMC3     O14353   1.103   3.795  15.223
  980TMC3     H14354   0.936   3.787  15.389
  980TMC3    H114355   1.002   4.172  15.213
  980TMC3    H214356   0.613   4.018  15.253
  980TMC3    C714357   0.744   4.179  15.116
  980TMC3    C814358   0.724   3.771  15.222
  980TMC3    O114359   0.622   4.190  15.096
  980TMC3    O214360   0.606   3.775  15.198
  981TCq1    O114361   1.143   0.322  14.478
  981TCq1    C114362   1.236   0.301  14.577
  981TCq1    O214363   1.338   0.373  14.600
  981TCq1    C214364   1.195   0.196  14.670
  981TCq1    C314365   1.286   0.178  14.775
  981TCq1    C414366   1.276   0.063  14.849
  981TCq1    C514367   1.200   4.764  14.807
  981TCq1    C614368   1.122   4.777  14.692
  981TCq1    C714369   1.122   0.088  14.626
  981TCq1    C814370   1.025   4.682  14.662
  981TCq1    O414371   0.995   4.666  14.542
  981TCq1    C914372   1.379   0.034  14.941
  981TCq1    O514373   1.488   0.081  14.922
  981TCq1    O614374   1.337   4.773  15.049
  981TCq1    H114375   1.069   0.257  14.473
  981TCq1    H214376   1.355   0.256  14.805
  981TCq1    H314377   1.222   4.673  14.861
  981TCq1    H414378   1.073   0.086  14.529
  982MPD2     C14379   0.816   4.466  14.697
  982MPD2    C114380   0.926   4.489  14.787
  982MPD2    C214381   0.935   4.410  14.901
  982MPD2    C314382   0.832   4.327  14.940
  982MPD2    C414383   0.739   4.289  14.842
  982MPD2    C514384   0.723   4.367  14.730
  982MPD2     H14385   1.016   4.434  14.969
  982MPD2    H114386   0.661   4.215  14.858
  982MPD2    H214387   0.787   4.529  14.614
  982MPD2    H314388   0.638   4.342  14.668
  982MPD2     N14389   0.842   4.252  15.058
  982MPD2    H514390   0.935   4.236  15.095
  982MPD2    N114391   1.014   4.601  14.769
  982MPD2    H714392   1.059   4.624  14.857
  983TMC2    C114393   1.289   3.375  14.896
  983TMC2    C214394   1.389   3.362  14.993
  983TMC2    C314395   1.499   3.437  14.988
  983TMC2    C414396   1.305   3.470  14.805
  983TMC2    C514397   1.403   3.563  14.817
  983TMC2    C614398   1.518   3.534  14.897
  983TMC2     C14399   1.170   3.399  14.973
  983TMC2     O14400   1.188   3.424  15.094
  983TMC2     H14401   1.370   3.301  15.081
  983TMC2    H114402   1.216   3.502  14.751
  983TMC2    H214403   1.613   3.581  14.876
  983TMC2    C714404   1.354   3.692  14.839
  983TMC2    C814405   1.621   3.395  15.054
  983TMC2    O114406   1.229   3.708  14.839
  983TMC2    O214407   1.730   3.439  15.016
  983TMC2    O514408   1.602   3.273  15.098
  983TMC2    H514409   1.528   3.267  15.162
  984MPD2     C14410   0.696   3.588  15.004
  984MPD2    C114411   0.814   3.608  15.068
  984MPD2    C214412   0.931   3.545  15.028
  984MPD2    C314413   0.939   3.459  14.924
  984MPD2    C414414   0.821   3.448  14.847
  984MPD2    C514415   0.703   3.511  14.892
  984MPD2     H14416   1.015   3.571  15.092
  984MPD2    H114417   0.832   3.403  14.748
  984MPD2    H214418   0.602   3.642  15.018
  984MPD2    H314419   0.614   3.507  14.829
  984MPD2     N14420   1.059   3.397  14.892
  984MPD2    H514421   1.060   3.360  14.798
  984MPD2    N114422   0.829   3.701  15.174
  984MPD2    H714423   0.923   3.719  15.209
  985NH4     N114424   2.500   2.500   1.000
  985NH4     H214425   2.603   2.500   1.000
  985NH4     H314426   2.466   2.405   1.019
  985NH4     H414427   2.466   2.531   0.908
  985NH4     H514428   2.466   2.564   1.073
  986NA      NA14429   2.398   3.357   5.873
  987NA      NA14430   4.297   1.276  17.623
  988NA      NA14431   0.849   1.183   5.715
  989NA      NA14432   2.846   4.281   3.419
  990NA      NA14433   3.316   4.289   4.621
  991NA      NA14434   0.310   1.339   6.411
  992NA      NA14435   2.758   0.187   1.992
  993NA      NA14436   0.064   0.326   9.094
  994NA      NA14437   2.374   3.005  11.870
  995NA      NA14438   3.806   0.892   3.783
  996NA      NA14439   0.232   2.629  12.969
  997NA      NA14440   0.087   0.970   9.032
  998NA      NA14441   4.746   1.998  17.183
  999NA      NA14442   0.029   2.416   9.666
 1000NA      NA14443   1.932   3.594  13.483
 1001NA      NA14444   4.676   0.555   1.285
 1002NA      NA14445   2.709   1.329   4.057
 1003NA      NA14446   1.363   1.353   5.258
 1004NA      NA14447   2.096   4.517  11.924
 1005NA      NA14448   2.530   0.842  10.366
 1006NA      NA14449   1.864   4.804   4.218
 1007NA      NA14450   0.509   2.299   9.505
 1008NA      NA14451   0.248   2.243   6.196
 1009NA      NA14452   0.191   4.638  10.455
 1010NA      NA14453   4.290   0.518   3.749
 1011NA      NA14454   0.994   0.224   6.768
 1012NA      NA14455   1.515   3.367   1.757
 1013NA      NA14456   0.977   2.669   5.554
 1014NA      NA14457   4.123   4.106   8.590
 1015NA      NA14458   1.667   1.739  11.111
 1016NA      NA14459   2.980   2.690  12.048
 1017NA      NA14460   1.245   4.438   8.404
 1018NA      NA14461   3.189   2.031   9.857
 1019NA      NA14462   0.854   0.307   2.711
 1020NA      NA14463   2.678   3.787   1.970
 1021NA      NA14464   0.867   1.811   3.269
 1022NA      NA14465   0.092   0.974   7.638
 1023NA      NA14466   0.367   0.928   0.561
 1024NA      NA14467   1.110   3.174   2.248
 1025NA      NA14468   1.563   0.024   7.767
 1026NA      NA14469   2.997   4.313   0.730
 1027NA      NA14470   3.005   0.526  17.494
 1028NA      NA14471   3.046   0.326   0.451
 1029NA      NA14472   2.164   0.499   1.971
 1030NA      NA14473   0.388   0.270   1.744
 1031NA      NA14474   4.085   4.523   5.255
 1032NA      NA14475   0.613   1.105  13.957
 1033NA      NA14476   2.169   3.287  16.037
 1034NA      NA14477   0.010   2.356  14.521
 1035NA      NA14478   2.224   3.951   4.772
 1036NA      NA14479   0.374   1.349  13.406
 1037NA      NA14480   3.802   3.365   4.083
 1038NA      NA14481   1.294   0.261   8.021
 1039NA      NA14482   2.575   0.396   8.034
 1040NA      NA14483   1.051   4.351  10.521
 1041NA      NA14484   2.201   4.063   1.194
 1042NA      NA14485   3.879   0.034   3.502
 1043NA      NA14486   3.894   2.731   1.378
 1044NA      NA14487   1.582   2.716  15.796
 1045NA      NA14488   4.781   0.281   3.711
 1046NA      NA14489   2.517   0.340  12.239
 1047NA      NA14490   0.550   4.352   1.564
 1048NA      NA14491   1.682   4.518   6.496
 1049NA      NA14492   1.096   1.079   7.427
 1050NA      NA14493   0.525   4.587   0.913
 1051SOL     OW14494   0.225   0.275   0.996
 1051SOL    HW114495   0.260   0.258   1.088
 1051SOL    HW214496   0.137   0.230   0.984
 1052SOL     OW14497   0.019   0.368   0.647
 1052SOL    HW114498  -0.063   0.411   0.686
 1052SOL    HW214499  -0.009   0.295   0.584
 1053SOL     OW14500   0.569   1.275   1.165
 1053SOL    HW114501   0.476   1.268   1.128
 1053SOL    HW214502   0.580   1.364   1.209
 1054SOL     OW14503   1.555   1.511   0.703
 1054SOL    HW114504   1.498   1.495   0.784
 1054SOL    HW214505   1.496   1.521   0.623
 1055SOL     OW14506   0.768   1.144   1.023
 1055SOL    HW114507   0.690   1.161   1.083
 1055SOL    HW214508   0.802   1.231   0.987
 1056SOL     OW14509   0.685   1.012   0.665
 1056SOL    HW114510   0.754   0.996   0.735
 1056SOL    HW214511   0.612   1.069   0.703
 1057SOL     OW14512   0.335   1.435   1.061
 1057SOL    HW114513   0.257   1.404   1.008
 1057SOL    HW214514   0.393   1.493   1.004
 1058SOL     OW14515   1.603   0.447   0.737
 1058SOL    HW114516   1.529   0.493   0.687
 1058SOL    HW214517   1.654   0.515   0.790
 1059SOL     OW14518   0.231   1.713   0.483
 1059SOL    HW114519   0.265   1.790   0.537
 1059SOL    HW214520   0.275   1.713   0.393
 1060SOL     OW14521   1.127   1.341   1.690
 1060SOL    HW114522   1.174   1.341   1.778
 1060SOL    HW214523   1.079   1.254   1.679
 1061SOL     OW14524   0.122   0.643   0.563
 1061SOL    HW114525   0.077   0.555   0.580
 1061SOL    HW214526   0.121   0.697   0.647
 1062SOL     OW14527   0.113   0.737   1.597
 1062SOL    HW114528   0.201   0.724   1.642
 1062SOL    HW214529   0.100   0.834   1.575
 1063SOL     OW14530   0.613   1.365   0.726
 1063SOL    HW114531   0.564   1.278   0.735
 1063SOL    HW214532   0.590   1.408   0.639
 1064SOL     OW14533   1.293   1.228   1.423
 1064SOL    HW114534   1.330   1.155   1.365
 1064SOL    HW214535   1.345   1.233   1.508
 1065SOL     OW14536   0.809   0.004   0.502
 1065SOL    HW114537   0.849   0.095   0.493
 1065SOL    HW214538   0.709   0.012   0.508
 1066SOL     OW14539   1.187   1.792   1.616
 1066SOL    HW114540   1.211   1.852   1.540
 1066SOL    HW214541   1.194   1.697   1.586
 1067SOL     OW14542   1.281   0.345   0.944
 1067SOL    HW114543   1.195   0.295   0.931
 1067SOL    HW214544   1.343   0.291   1.000
 1068SOL     OW14545   1.576   1.662   0.307
 1068SOL    HW114546   1.665   1.708   0.310
 1068SOL    HW214547   1.555   1.638   0.212
 1069SOL     OW14548   1.394   0.469   1.674
 1069SOL    HW114549   1.374   0.512   1.762
 1069SOL    HW214550   1.472   0.407   1.683
 1070SOL     OW14551   1.041   0.701   0.429
 1070SOL    HW114552   1.067   0.697   0.525
 1070SOL    HW214553   0.956   0.650   0.415
 1071SOL     OW14554   0.076   0.811   0.789
 1071SOL    HW114555   0.175   0.799   0.798
 1071SOL    HW214556   0.052   0.906   0.810
 1072SOL     OW14557   0.865   0.348   0.195
 1072SOL    HW114558   0.924   0.411   0.146
 1072SOL    HW214559   0.884   0.254   0.166
 1073SOL     OW14560   1.719   0.585   1.831
 1073SOL    HW114561   1.693   0.674   1.795
 1073SOL    HW214562   1.717   0.517   1.758
 1074SOL     OW14563   1.227   1.550   1.506
 1074SOL    HW114564   1.233   1.473   1.570
 1074SOL    HW214565   1.175   1.524   1.426
 1075SOL     OW14566   0.464   1.743   0.323
 1075SOL    HW114567   0.497   1.782   0.409
 1075SOL    HW214568   0.540   1.736   0.258
 1076SOL     OW14569   0.940   1.698   0.904
 1076SOL    HW114570   1.020   1.641   0.925
 1076SOL    HW214571   0.891   1.658   0.827
 1077SOL     OW14572   1.547   0.222   1.729
 1077SOL    HW114573   1.542   0.259   1.821
 1077SOL    HW214574   1.475   0.153   1.717
 1078SOL     OW14575   0.781   0.264   1.749
 1078SOL    HW114576   0.848   0.203   1.792
 1078SOL    HW214577   0.708   0.283   1.814
 1079SOL     OW14578   0.539   0.064   0.512
 1079SOL    HW114579   0.458   0.065   0.570
 1079SOL    HW214580   0.542   0.147   0.457
 1080SOL     OW14581   1.434   1.188   0.041
 1080SOL    HW114582   1.466   1.112   0.098
 1080SOL    HW214583   1.342   1.215   0.071
 1081SOL     OW14584   0.935   0.236   0.480
 1081SOL    HW114585   0.887   0.277   0.402
 1081SOL    HW214586   1.034   0.234   0.461
 1082SOL     OW14587   0.459   1.152   0.741
 1082SOL    HW114588   0.388   1.125   0.806
 1082SOL    HW214589   0.433   1.124   0.648
 1083SOL     OW14590   0.078   0.556   1.386
 1083SOL    HW114591   0.170   0.555   1.345
 1083SOL    HW214592   0.072   0.630   1.453
 1084SOL     OW14593   0.866   0.454   0.642
 1084SOL    HW114594   0.834   0.526   0.580
 1084SOL    HW214595   0.890   0.373   0.589
 1085SOL     OW14596   1.017   0.039   0.753
 1085SOL    HW114597   0.945   0.044   0.684
 1085SOL    HW214598   0.993  -0.030   0.822
 1086SOL     OW14599   1.429   1.173   0.867
 1086SOL    HW114600   1.374   1.089   0.860
 1086SOL    HW214601   1.455   1.202   0.775
 1087SOL     OW14602   1.466   0.590   0.992
 1087SOL    HW114603   1.436   0.495   0.999
 1087SOL    HW214604   1.539   0.606   1.058
 1088SOL     OW14605   1.664   1.280   0.657
 1088SOL    HW114606   1.763   1.288   0.671
 1088SOL    HW214607   1.619   1.364   0.688
 1089SOL     OW14608   0.527   0.256   0.328
 1089SOL    HW114609   0.554   0.197   0.253
 1089SOL    HW214610   0.527   0.351   0.297
 1090SOL     OW14611   1.592   1.629   1.625
 1090SOL    HW114612   1.619   1.663   1.535
 1090SOL    HW214613   1.671   1.591   1.671
 1091SOL     OW14614   1.272   1.445   1.142
 1091SOL    HW114615   1.319   1.458   1.229
 1091SOL    HW214616   1.206   1.371   1.151
 1092SOL     OW14617   1.587   0.779   1.670
 1092SOL    HW114618   1.495   0.817   1.665
 1092SOL    HW214619   1.647   0.826   1.605
 1093SOL     OW14620   1.013   0.105   1.770
 1093SOL    HW114621   1.019   0.190   1.718
 1093SOL    HW214622   1.045   0.029   1.713
 1094SOL     OW14623   0.504   0.050   1.740
 1094SOL    HW114624   0.462  -0.007   1.670
 1094SOL    HW214625   0.438   0.119   1.772
 1095SOL     OW14626   0.573   0.870   1.029
 1095SOL    HW114627   0.617   0.959   1.020
 1095SOL    HW214628   0.510   0.870   1.106
 1096SOL     OW14629   1.728   0.935   1.854
 1096SOL    HW114630   1.682   0.928   1.765
 1096SOL    HW214631   1.666   0.979   1.920
 1097SOL     OW14632   0.980   1.573   1.700
 1097SOL    HW114633   0.960   1.617   1.612
 1097SOL    HW214634   1.019   1.482   1.684
 1098SOL     OW14635   1.303   0.838   0.042
 1098SOL    HW114636   1.337   0.745   0.057
 1098SOL    HW214637   1.321   0.865  -0.053
 1099SOL     OW14638   0.319   0.810   0.949
 1099SOL    HW114639   0.412   0.846   0.954
 1099SOL    HW214640   0.313   0.725   1.001
 1100SOL     OW14641   0.339   0.509   1.006
 1100SOL    HW114642   0.287   0.426   0.989
 1100SOL    HW214643   0.416   0.514   0.942
 1101SOL     OW14644   0.008   1.326   0.200
 1101SOL    HW114645  -0.085   1.347   0.169
 1101SOL    HW214646   0.018   1.227   0.213
 1102SOL     OW14647   0.504   1.568   0.910
 1102SOL    HW114648   0.570   1.642   0.919
 1102SOL    HW214649   0.548   1.489   0.868
 1103SOL     OW14650   0.040   0.544   1.114
 1103SOL    HW114651   0.125   0.511   1.073
 1103SOL    HW214652   0.053   0.559   1.212
 1104SOL     OW14653   0.189   0.520   1.722
 1104SOL    HW114654   0.248   0.480   1.652
 1104SOL    HW214655   0.131   0.591   1.681
 1105SOL     OW14656   1.369   0.950   1.660
 1105SOL    HW114657   1.408   1.039   1.680
 1105SOL    HW214658   1.379   0.930   1.563
 1106SOL     OW14659   0.815   0.572   0.325
 1106SOL    HW114660   0.822   0.483   0.279
 1106SOL    HW214661   0.721   0.606   0.317
 1107SOL     OW14662   0.252   1.564   1.744
 1107SOL    HW114663   0.222   1.621   1.820
 1107SOL    HW214664   0.245   1.467   1.770
 1108SOL     OW14665   0.930   1.678   1.465
 1108SOL    HW114666   0.906   1.660   1.370
 1108SOL    HW214667   0.960   1.772   1.475
 1109SOL     OW14668   1.252   1.731   1.128
 1109SOL    HW114669   1.336   1.736   1.074
 1109SOL    HW214670   1.229   1.635   1.146
 1110SOL     OW14671   0.688   1.662   1.716
 1110SOL    HW114672   0.632   1.743   1.725
 1110SOL    HW214673   0.740   1.666   1.630
 1111SOL     OW14674   0.130   1.794   1.851
 1111SOL    HW114675   0.089   1.720   1.904
 1111SOL    HW214676   0.194   1.845   1.909
 1112SOL     OW14677   1.650   1.720   1.394
 1112SOL    HW114678   1.703   1.730   1.310
 1112SOL    HW214679   1.623   1.810   1.428
 1113SOL     OW14680   1.194   1.612   0.031
 1113SOL    HW114681   1.200   1.519   0.068
 1113SOL    HW214682   1.135   1.612  -0.049
 1114SOL     OW14683   0.916   0.910   0.291
 1114SOL    HW114684   0.979   0.948   0.223
 1114SOL    HW214685   0.956   0.827   0.330
 1115SOL     OW14686   0.255   1.348   0.290
 1115SOL    HW114687   0.159   1.349   0.263
 1115SOL    HW214688   0.267   1.401   0.374
 1116SOL     OW14689   0.105   1.013   1.726
 1116SOL    HW114690   0.028   0.980   1.780
 1116SOL    HW214691   0.190   0.983   1.768
 1117SOL     OW14692   0.672   0.203   1.489
 1117SOL    HW114693   0.762   0.187   1.449
 1117SOL    HW214694   0.680   0.208   1.588
 1118SOL     OW14695   1.183   1.335   0.119
 1118SOL    HW114696   1.084   1.324   0.121
 1118SOL    HW214697   1.217   1.350   0.212
 1119SOL     OW14698   1.450   1.220   1.633
 1119SOL    HW114699   1.441   1.210   1.732
 1119SOL    HW214700   1.546   1.213   1.607
 1120SOL     OW14701   0.390   1.741   1.560
 1120SOL    HW114702   0.299   1.782   1.558
 1120SOL    HW214703   0.383   1.647   1.592
 1121SOL     OW14704   1.225   0.325   0.449
 1121SOL    HW114705   1.290   0.251   0.438
 1121SOL    HW214706   1.245   0.375   0.533
 1122SOL     OW14707   0.594   0.745   0.652
 1122SOL    HW114708   0.644   0.830   0.633
 1122SOL    HW214709   0.506   0.747   0.604
 1123SOL     OW14710   1.777   0.342   1.642
 1123SOL    HW114711   1.760   0.373   1.548
 1123SOL    HW214712   1.693   0.305   1.680
 1124SOL     OW14713   0.661   1.790   0.953
 1124SOL    HW114714   0.615   1.878   0.940
 1124SOL    HW214715   0.760   1.802   0.946
 1125SOL     OW14716   0.859   0.956   0.861
 1125SOL    HW114717   0.913   0.887   0.909
 1125SOL    HW214718   0.827   1.025   0.927
 1126SOL     OW14719   0.079   1.240   0.653
 1126SOL    HW114720   0.078   1.193   0.741
 1126SOL    HW214721   0.161   1.212   0.602
 1127SOL     OW14722   1.593   0.221   0.882
 1127SOL    HW114723   1.509   0.220   0.936
 1127SOL    HW214724   1.595   0.304   0.826
 1128SOL     OW14725   0.039   1.077   0.300
 1128SOL    HW114726   0.138   1.066   0.291
 1128SOL    HW214727  -0.001   0.991   0.332
 1129SOL     OW14728   0.230   0.628   1.975
 1129SOL    HW114729   0.137   0.626   2.012
 1129SOL    HW214730   0.231   0.589   1.883
 1130SOL     OW14731   0.225   0.275   2.858
 1130SOL    HW114732   0.260   0.258   2.950
 1130SOL    HW214733   0.137   0.230   2.846
 1131SOL     OW14734   0.019   0.368   2.509
 1131SOL    HW114735  -0.063   0.411   2.548
 1131SOL    HW214736  -0.009   0.295   2.446
 1132SOL     OW14737   0.569   1.275   3.027
 1132SOL    HW114738   0.476   1.268   2.990
 1132SOL    HW214739   0.580   1.364   3.071
 1133SOL     OW14740   1.555   1.511   2.565
 1133SOL    HW114741   1.498   1.495   2.646
 1133SOL    HW214742   1.496   1.521   2.485
 1134SOL     OW14743   1.135   0.703   2.579
 1134SOL    HW114744   1.192   0.781   2.554
 1134SOL    HW214745   1.075   0.729   2.655
 1135SOL     OW14746   1.755   0.607   2.093
 1135SOL    HW114747   1.743   0.594   1.994
 1135SOL    HW214748   1.725   0.526   2.142
 1136SOL     OW14749   0.768   1.144   2.885
 1136SOL    HW114750   0.690   1.161   2.945
 1136SOL    HW214751   0.802   1.231   2.849
 1137SOL     OW14752   0.850   0.798   3.685
 1137SOL    HW114753   0.846   0.874   3.750
 1137SOL    HW214754   0.872   0.834   3.594
 1138SOL     OW14755   0.685   1.012   2.527
 1138SOL    HW114756   0.754   0.996   2.597
 1138SOL    HW214757   0.612   1.069   2.565
 1139SOL     OW14758   0.686   1.161   3.665
 1139SOL    HW114759   0.746   1.240   3.679
 1139SOL    HW214760   0.600   1.192   3.624
 1140SOL     OW14761   0.335   1.435   2.923
 1140SOL    HW114762   0.257   1.404   2.870
 1140SOL    HW214763   0.393   1.493   2.866
 1141SOL     OW14764   1.460   1.505   3.201
 1141SOL    HW114765   1.484   1.599   3.227
 1141SOL    HW214766   1.444   1.451   3.283
 1142SOL     OW14767   0.438   0.392   3.361
 1142SOL    HW114768   0.520   0.336   3.370
 1142SOL    HW214769   0.357   0.334   3.365
 1143SOL     OW14770   1.603   0.447   2.599
 1143SOL    HW114771   1.529   0.493   2.549
 1143SOL    HW214772   1.654   0.515   2.652
 1144SOL     OW14773   0.231   1.713   2.345
 1144SOL    HW114774   0.265   1.790   2.399
 1144SOL    HW214775   0.275   1.713   2.255
 1145SOL     OW14776   1.127   1.341   3.552
 1145SOL    HW114777   1.174   1.341   3.640
 1145SOL    HW214778   1.079   1.254   3.541
 1146SOL     OW14779   0.230   1.434   2.400
 1146SOL    HW114780   0.204   1.530   2.400
 1146SOL    HW214781   0.159   1.380   2.445
 1147SOL     OW14782   0.240   1.091   2.748
 1147SOL    HW114783   0.254   1.007   2.800
 1147SOL    HW214784   0.185   1.155   2.803
 1148SOL     OW14785   0.620   1.786   3.301
 1148SOL    HW114786   0.528   1.769   3.336
 1148SOL    HW214787   0.648   1.878   3.327
 1149SOL     OW14788   1.594   0.114   3.342
 1149SOL    HW114789   1.576   0.181   3.270
 1149SOL    HW214790   1.591   0.160   3.431
 1150SOL     OW14791   0.122   0.643   2.425
 1150SOL    HW114792   0.077   0.555   2.442
 1150SOL    HW214793   0.121   0.697   2.509
 1151SOL     OW14794   1.842   1.767   2.221
 1151SOL    HW114795   1.896   1.738   2.301
 1151SOL    HW214796   1.872   1.857   2.192
 1152SOL     OW14797   0.027   1.596   1.979
 1152SOL    HW114798   0.008   1.500   2.000
 1152SOL    HW214799  -0.006   1.654   2.054
 1153SOL     OW14800   1.689   0.922   2.474
 1153SOL    HW114801   1.784   0.893   2.482
 1153SOL    HW214802   1.681   0.987   2.399
 1154SOL     OW14803   1.641   1.108   2.294
 1154SOL    HW114804   1.727   1.110   2.242
 1154SOL    HW214805   1.655   1.155   2.382
 1155SOL     OW14806   0.113   0.737   3.459
 1155SOL    HW114807   0.201   0.724   3.504
 1155SOL    HW214808   0.100   0.834   3.437
 1156SOL     OW14809   0.613   1.365   2.588
 1156SOL    HW114810   0.564   1.278   2.597
 1156SOL    HW214811   0.590   1.408   2.501
 1157SOL     OW14812   1.293   1.228   3.285
 1157SOL    HW114813   1.330   1.155   3.227
 1157SOL    HW214814   1.345   1.233   3.370
 1158SOL     OW14815   0.809   0.004   2.364
 1158SOL    HW114816   0.849   0.095   2.355
 1158SOL    HW214817   0.709   0.012   2.370
 1159SOL     OW14818   0.197   0.976   3.126
 1159SOL    HW114819   0.286   0.931   3.112
 1159SOL    HW214820   0.124   0.911   3.107
 1160SOL     OW14821   1.525   0.999   2.052
 1160SOL    HW114822   1.462   0.923   2.065
 1160SOL    HW214823   1.573   1.017   2.138
 1161SOL     OW14824   1.187   1.792   3.478
 1161SOL    HW114825   1.211   1.852   3.402
 1161SOL    HW214826   1.194   1.697   3.448
 1162SOL     OW14827   0.317   0.251   3.663
 1162SOL    HW114828   0.388   0.322   3.669
 1162SOL    HW214829   0.229   0.290   3.691
 1163SOL     OW14830   1.466   1.417   2.815
 1163SOL    HW114831   1.407   1.423   2.895
 1163SOL    HW214832   1.451   1.329   2.769
 1164SOL     OW14833   1.667   1.714   2.434
 1164SOL    HW114834   1.626   1.691   2.346
 1164SOL    HW214835   1.649   1.640   2.499
 1165SOL     OW14836   0.598   0.729   2.132
 1165SOL    HW114837   0.622   0.798   2.064
 1165SOL    HW214838   0.520   0.762   2.186
 1166SOL     OW14839   1.281   0.345   2.806
 1166SOL    HW114840   1.195   0.295   2.793
 1166SOL    HW214841   1.343   0.291   2.862
 1167SOL     OW14842   1.576   1.662   2.169
 1167SOL    HW114843   1.665   1.708   2.172
 1167SOL    HW214844   1.555   1.638   2.074
 1168SOL     OW14845   0.807   0.605   3.327
 1168SOL    HW114846   0.760   0.602   3.416
 1168SOL    HW214847   0.756   0.550   3.261
 1169SOL     OW14848   1.394   0.469   3.536
 1169SOL    HW114849   1.374   0.512   3.624
 1169SOL    HW214850   1.472   0.407   3.545
 1170SOL     OW14851   0.973   0.890   3.434
 1170SOL    HW114852   1.019   0.806   3.405
 1170SOL    HW214853   0.917   0.924   3.359
 1171SOL     OW14854   0.991   0.410   3.104
 1171SOL    HW114855   0.914   0.444   3.158
 1171SOL    HW214856   0.957   0.359   3.025
 1172SOL     OW14857   1.041   0.701   2.291
 1172SOL    HW114858   1.067   0.697   2.387
 1172SOL    HW214859   0.956   0.650   2.277
 1173SOL     OW14860   0.076   0.811   2.651
 1173SOL    HW114861   0.175   0.799   2.660
 1173SOL    HW214862   0.052   0.906   2.672
 1174SOL     OW14863   0.130   1.821   3.433
 1174SOL    HW114864   0.120   1.806   3.532
 1174SOL    HW214865   0.044   1.857   3.397
 1175SOL     OW14866   0.865   0.348   2.057
 1175SOL    HW114867   0.924   0.411   2.008
 1175SOL    HW214868   0.884   0.254   2.028
 1176SOL     OW14869   1.719   0.585   3.693
 1176SOL    HW114870   1.693   0.674   3.657
 1176SOL    HW214871   1.717   0.517   3.620
 1177SOL     OW14872   1.362   1.144   2.407
 1177SOL    HW114873   1.445   1.115   2.359
 1177SOL    HW214874   1.313   1.211   2.351
 1178SOL     OW14875   0.550   0.196   2.747
 1178SOL    HW114876   0.545   0.191   2.847
 1178SOL    HW214877   0.552   0.292   2.718
 1179SOL     OW14878   1.008   1.456   2.339
 1179SOL    HW114879   0.962   1.528   2.287
 1179SOL    HW214880   1.004   1.476   2.437
 1180SOL     OW14881   0.351   1.801   2.715
 1180SOL    HW114882   0.401   1.715   2.721
 1180SOL    HW214883   0.416   1.878   2.712
 1181SOL     OW14884   1.795   1.066   2.735
 1181SOL    HW114885   1.733   1.051   2.659
 1181SOL    HW214886   1.743   1.077   2.820
 1182SOL     OW14887   1.227   1.550   3.368
 1182SOL    HW114888   1.233   1.473   3.432
 1182SOL    HW214889   1.175   1.524   3.288
 1183SOL     OW14890   0.321   0.943   2.104
 1183SOL    HW114891   0.403   0.982   2.062
 1183SOL    HW214892   0.294   0.861   2.055
 1184SOL     OW14893   1.458   0.735   2.590
 1184SOL    HW114894   1.453   0.670   2.665
 1184SOL    HW214895   1.538   0.794   2.603
 1185SOL     OW14896   0.461   1.266   3.589
 1185SOL    HW114897   0.411   1.267   3.503
 1185SOL    HW214898   0.398   1.248   3.665
 1186SOL     OW14899   1.111   1.776   2.099
 1186SOL    HW114900   1.051   1.714   2.149
 1186SOL    HW214901   1.142   1.732   2.014
 1187SOL     OW14902   0.202   0.285   3.360
 1187SOL    HW114903   0.122   0.345   3.347
 1187SOL    HW214904   0.192   0.236   3.446
 1188SOL     OW14905   1.632   1.377   1.943
 1188SOL    HW114906   1.600   1.471   1.933
 1188SOL    HW214907   1.556   1.314   1.931
 1189SOL     OW14908   0.464   1.743   2.185
 1189SOL    HW114909   0.497   1.782   2.271
 1189SOL    HW214910   0.540   1.736   2.120
 1190SOL     OW14911   1.400   0.107   2.288
 1190SOL    HW114912   1.376   0.070   2.198
 1190SOL    HW214913   1.499   0.123   2.292
 1191SOL     OW14914   0.249   1.785   3.103
 1191SOL    HW114915   0.306   1.720   3.153
 1191SOL    HW214916   0.233   1.752   3.010
 1192SOL     OW14917   0.940   1.698   2.766
 1192SOL    HW114918   1.020   1.641   2.787
 1192SOL    HW214919   0.891   1.658   2.689
 1193SOL     OW14920   0.382   0.700   2.342
 1193SOL    HW114921   0.427   0.610   2.339
 1193SOL    HW214922   0.288   0.689   2.375
 1194SOL     OW14923   1.547   0.222   3.591
 1194SOL    HW114924   1.542   0.259   3.683
 1194SOL    HW214925   1.475   0.153   3.579
 1195SOL     OW14926   0.614   0.122   1.979
 1195SOL    HW114927   0.712   0.100   1.986
 1195SOL    HW214928   0.583   0.105   1.886
 1196SOL     OW14929   0.781   0.264   3.611
 1196SOL    HW114930   0.848   0.203   3.654
 1196SOL    HW214931   0.708   0.283   3.676
 1197SOL     OW14932   0.888   1.514   3.057
 1197SOL    HW114933   0.865   1.489   2.963
 1197SOL    HW214934   0.949   1.445   3.096
 1198SOL     OW14935   1.351   0.590   3.295
 1198SOL    HW114936   1.379   0.547   3.380
 1198SOL    HW214937   1.376   0.686   3.296
 1199SOL     OW14938   0.803   1.402   2.786
 1199SOL    HW114939   0.893   1.416   2.744
 1199SOL    HW214940   0.732   1.404   2.715
 1200SOL     OW14941   0.922   0.503   2.761
 1200SOL    HW114942   0.897   0.494   2.665
 1200SOL    HW214943   0.970   0.421   2.792
 1201SOL     OW14944   0.539   0.064   2.374
 1201SOL    HW114945   0.458   0.065   2.432
 1201SOL    HW214946   0.542   0.147   2.319
 1202SOL     OW14947   1.434   1.188   1.903
 1202SOL    HW114948   1.466   1.112   1.960
 1202SOL    HW214949   1.342   1.215   1.933
 1203SOL     OW14950   0.297   0.035   2.033
 1203SOL    HW114951   0.346   0.119   2.012
 1203SOL    HW214952   0.359  -0.030   2.078
 1204SOL     OW14953   0.935   0.236   2.342
 1204SOL    HW114954   0.887   0.277   2.264
 1204SOL    HW214955   1.034   0.234   2.323
 1205SOL     OW14956   1.076   0.683   3.326
 1205SOL    HW114957   0.996   0.622   3.329
 1205SOL    HW214958   1.157   0.630   3.302
 1206SOL     OW14959   1.227   1.570   2.655
 1206SOL    HW114960   1.248   1.644   2.590
 1206SOL    HW214961   1.295   1.570   2.728
 1207SOL     OW14962   0.459   1.152   2.603
 1207SOL    HW114963   0.388   1.125   2.668
 1207SOL    HW214964   0.433   1.124   2.510
 1208SOL     OW14965   1.271   1.797   2.453
 1208SOL    HW114966   1.315   1.861   2.389
 1208SOL    HW214967   1.221   1.849   2.523
 1209SOL     OW14968   1.032   0.549   1.878
 1209SOL    HW114969   0.991   0.631   1.839
 1209SOL    HW214970   1.096   0.575   1.951
 1210SOL     OW14971   0.078   0.556   3.248
 1210SOL    HW114972   0.170   0.555   3.207
 1210SOL    HW214973   0.072   0.630   3.315
 1211SOL     OW14974   0.561   0.222   3.009
 1211SOL    HW114975   0.599   0.138   3.046
 1211SOL    HW214976   0.473   0.241   3.053
 1212SOL     OW14977   0.866   0.454   2.504
 1212SOL    HW114978   0.834   0.526   2.442
 1212SOL    HW214979   0.890   0.373   2.451
 1213SOL     OW14980   1.017   0.039   2.615
 1213SOL    HW114981   0.945   0.044   2.546
 1213SOL    HW214982   0.993  -0.030   2.684
 1214SOL     OW14983   1.429   1.173   2.729
 1214SOL    HW114984   1.374   1.089   2.722
 1214SOL    HW214985   1.455   1.202   2.637
 1215SOL     OW14986   1.466   0.590   2.854
 1215SOL    HW114987   1.436   0.495   2.861
 1215SOL    HW214988   1.539   0.606   2.920
 1216SOL     OW14989   1.857   0.833   2.239
 1216SOL    HW114990   1.899   0.769   2.303
 1216SOL    HW214991   1.819   0.782   2.161
 1217SOL     OW14992   0.488   1.385   2.036
 1217SOL    HW114993   0.401   1.370   2.083
 1217SOL    HW214994   0.471   1.411   1.941
 1218SOL     OW14995   1.664   1.280   2.519
 1218SOL    HW114996   1.763   1.288   2.533
 1218SOL    HW214997   1.619   1.364   2.550
 1219SOL     OW14998   1.390   0.575   1.940
 1219SOL    HW114999   1.336   0.554   2.021
 1219SOL    HW215000   1.481   0.534   1.949
 1220SOL     OW15001   0.527   0.256   2.190
 1220SOL    HW115002   0.554   0.197   2.115
 1220SOL    HW215003   0.527   0.351   2.159
 1221SOL     OW15004   1.754   1.223   3.450
 1221SOL    HW115005   1.845   1.184   3.437
 1221SOL    HW215006   1.762   1.319   3.474
 1222SOL     OW15007   1.064   1.347   3.202
 1222SOL    HW115008   0.984   1.324   3.257
 1222SOL    HW215009   1.147   1.321   3.251
 1223SOL     OW15010   1.592   1.629   3.487
 1223SOL    HW115011   1.619   1.663   3.397
 1223SOL    HW215012   1.671   1.591   3.533
 1224SOL     OW15013   1.111   1.195   2.962
 1224SOL    HW115014   1.071   1.239   3.043
 1224SOL    HW215015   1.070   1.232   2.879
 1225SOL     OW15016   1.638   1.099   2.941
 1225SOL    HW115017   1.643   1.180   3.000
 1225SOL    HW215018   1.552   1.101   2.890
 1226SOL     OW15019   0.915   0.089   3.264
 1226SOL    HW115020   0.940   0.069   3.169
 1226SOL    HW215021   0.987   0.145   3.306
 1227SOL     OW15022   0.980   1.116   3.581
 1227SOL    HW115023   0.881   1.122   3.591
 1227SOL    HW215024   1.003   1.036   3.525
 1228SOL     OW15025   0.705   1.050   2.230
 1228SOL    HW115026   0.691   1.057   2.329
 1228SOL    HW215027   0.789   0.999   2.212
 1229SOL     OW15028   0.410   0.813   3.113
 1229SOL    HW115029   0.496   0.825   3.163
 1229SOL    HW215030   0.368   0.726   3.140
 1230SOL     OW15031   1.274   0.386   3.124
 1230SOL    HW115032   1.295   0.460   3.188
 1230SOL    HW215033   1.185   0.403   3.081
 1231SOL     OW15034   0.064   1.564   3.193
 1231SOL    HW115035   0.018   1.646   3.159
 1231SOL    HW215036   0.162   1.583   3.202
 1232SOL     OW15037   0.367   1.100   2.363
 1232SOL    HW115038   0.360   1.183   2.307
 1232SOL    HW215039   0.371   1.020   2.303
 1233SOL     OW15040   0.566   0.537   2.727
 1233SOL    HW115041   0.578   0.603   2.653
 1233SOL    HW215042   0.612   0.571   2.810
 1234SOL     OW15043   1.252   1.348   2.250
 1234SOL    HW115044   1.302   1.425   2.290
 1234SOL    HW215045   1.157   1.350   2.282
 1235SOL     OW15046   1.272   1.445   3.004
 1235SOL    HW115047   1.319   1.458   3.091
 1235SOL    HW215048   1.206   1.371   3.013
 1236SOL     OW15049   1.582   0.639   2.334
 1236SOL    HW115050   1.551   0.700   2.407
 1236SOL    HW215051   1.632   0.691   2.265
 1237SOL     OW15052   0.354   1.510   3.191
 1237SOL    HW115053   0.333   1.466   3.104
 1237SOL    HW215054   0.451   1.536   3.194
 1238SOL     OW15055   0.402   0.751   3.460
 1238SOL    HW115056   0.470   0.806   3.413
 1238SOL    HW215057   0.442   0.663   3.487
 1239SOL     OW15058   1.587   0.779   3.532
 1239SOL    HW115059   1.495   0.817   3.527
 1239SOL    HW215060   1.647   0.826   3.467
 1240SOL     OW15061   1.013   0.105   3.632
 1240SOL    HW115062   1.019   0.190   3.580
 1240SOL    HW215063   1.045   0.029   3.575
 1241SOL     OW15064   0.504   0.050   3.602
 1241SOL    HW115065   0.462  -0.007   3.532
 1241SOL    HW215066   0.438   0.119   3.634
 1242SOL     OW15067   0.573   0.870   2.891
 1242SOL    HW115068   0.617   0.959   2.882
 1242SOL    HW215069   0.510   0.870   2.968
 1243SOL     OW15070   1.360   0.862   2.907
 1243SOL    HW115071   1.285   0.862   2.841
 1243SOL    HW215072   1.397   0.770   2.916
 1244SOL     OW15073   1.209   0.525   2.137
 1244SOL    HW115074   1.222   0.441   2.191
 1244SOL    HW215075   1.180   0.599   2.197
 1245SOL     OW15076   0.307   0.213   3.093
 1245SOL    HW115077   0.284   0.250   3.183
 1245SOL    HW215078   0.277   0.118   3.087
 1246SOL     OW15079   0.037   1.310   3.144
 1246SOL    HW115080   0.090   1.261   3.212
 1246SOL    HW215081   0.059   1.408   3.149
 1247SOL     OW15082   0.732   0.634   2.926
 1247SOL    HW115083   0.791   0.608   2.850
 1247SOL    HW215084   0.704   0.730   2.915
 1248SOL     OW15085   1.728   0.935   3.716
 1248SOL    HW115086   1.682   0.928   3.627
 1248SOL    HW215087   1.666   0.979   3.782
 1249SOL     OW15088   0.307   0.063   2.480
 1249SOL    HW115089   0.296   0.157   2.513
 1249SOL    HW215090   0.302   0.000   2.557
 1250SOL     OW15091   1.622   0.367   2.236
 1250SOL    HW115092   1.624   0.291   2.300
 1250SOL    HW215093   1.574   0.444   2.276
 1251SOL     OW15094   1.023   0.766   2.828
 1251SOL    HW115095   1.038   0.787   2.924
 1251SOL    HW215096   0.993   0.671   2.819
 1252SOL     OW15097   0.980   1.573   3.562
 1252SOL    HW115098   0.960   1.617   3.474
 1252SOL    HW215099   1.019   1.482   3.546
 1253SOL     OW15100   1.859   1.518   3.467
 1253SOL    HW115101   1.873   1.545   3.372
 1253SOL    HW215102   1.942   1.540   3.520
 1254SOL     OW15103   0.350   0.898   3.666
 1254SOL    HW115104   0.426   0.942   3.714
 1254SOL    HW215105   0.385   0.851   3.584
 1255SOL     OW15106   1.540   0.274   1.987
 1255SOL    HW115107   1.479   0.199   2.010
 1255SOL    HW215108   1.562   0.326   2.070
 1256SOL     OW15109   1.303   0.838   1.904
 1256SOL    HW115110   1.337   0.745   1.919
 1256SOL    HW215111   1.321   0.865   1.809
 1257SOL     OW15112   1.068   1.333   2.711
 1257SOL    HW115113   1.075   1.249   2.656
 1257SOL    HW215114   1.130   1.402   2.675
 1258SOL     OW15115   0.319   0.810   2.811
 1258SOL    HW115116   0.412   0.846   2.816
 1258SOL    HW215117   0.313   0.725   2.863
 1259SOL     OW15118   0.339   0.509   2.868
 1259SOL    HW115119   0.287   0.426   2.851
 1259SOL    HW215120   0.416   0.514   2.804
 1260SOL     OW15121   1.138   0.380   3.540
 1260SOL    HW115122   1.093   0.443   3.604
 1260SOL    HW215123   1.231   0.411   3.523
 1261SOL     OW15124   1.160   0.207   3.339
 1261SOL    HW115125   1.160   0.271   3.416
 1261SOL    HW215126   1.188   0.255   3.256
 1262SOL     OW15127   0.008   1.326   2.062
 1262SOL    HW115128  -0.085   1.347   2.031
 1262SOL    HW215129   0.018   1.227   2.075
 1263SOL     OW15130   0.088   1.801   2.789
 1263SOL    HW115131   0.046   1.715   2.762
 1263SOL    HW215132   0.182   1.804   2.755
 1264SOL     OW15133   0.504   1.568   2.772
 1264SOL    HW115134   0.570   1.642   2.781
 1264SOL    HW215135   0.548   1.489   2.730
 1265SOL     OW15136   1.002   0.796   3.100
 1265SOL    HW115137   1.043   0.764   3.186
 1265SOL    HW215138   0.906   0.769   3.097
 1266SOL     OW15139   0.040   0.544   2.976
 1266SOL    HW115140   0.125   0.511   2.935
 1266SOL    HW215141   0.053   0.559   3.074
 1267SOL     OW15142   0.189   0.520   3.584
 1267SOL    HW115143   0.248   0.480   3.514
 1267SOL    HW215144   0.131   0.591   3.543
 1268SOL     OW15145   1.369   0.950   3.522
 1268SOL    HW115146   1.408   1.039   3.542
 1268SOL    HW215147   1.379   0.930   3.425
 1269SOL     OW15148   0.815   0.572   2.187
 1269SOL    HW115149   0.822   0.483   2.141
 1269SOL    HW215150   0.721   0.606   2.179
 1270SOL     OW15151   1.657   0.604   3.068
 1270SOL    HW115152   1.619   0.535   3.130
 1270SOL    HW215153   1.739   0.568   3.024
 1271SOL     OW15154   0.252   1.564   3.606
 1271SOL    HW115155   0.222   1.621   3.682
 1271SOL    HW215156   0.245   1.467   3.632
 1272SOL     OW15157   0.671   0.464   3.131
 1272SOL    HW115158   0.637   0.375   3.101
 1272SOL    HW215159   0.697   0.518   3.051
 1273SOL     OW15160   0.473   0.500   2.053
 1273SOL    HW115161   0.534   0.580   2.057
 1273SOL    HW215162   0.378   0.531   2.060
 1274SOL     OW15163   0.159   1.137   3.328
 1274SOL    HW115164   0.181   1.076   3.404
 1274SOL    HW215165   0.169   1.088   3.242
 1275SOL     OW15166   1.347   1.059   3.096
 1275SOL    HW115167   1.371   0.996   3.022
 1275SOL    HW215168   1.257   1.099   3.078
 1276SOL     OW15169   1.302   0.855   2.171
 1276SOL    HW115170   1.216   0.824   2.213
 1276SOL    HW215171   1.298   0.841   2.072
 1277SOL     OW15172   1.759   1.747   3.016
 1277SOL    HW115173   1.820   1.777   2.943
 1277SOL    HW215174   1.721   1.658   2.994
 1278SOL     OW15175   1.252   1.731   2.990
 1278SOL    HW115176   1.336   1.736   2.936
 1278SOL    HW215177   1.229   1.635   3.008
 1279SOL     OW15178   0.083   1.258   2.884
 1279SOL    HW115179   0.078   1.257   2.984
 1279SOL    HW215180   0.000   1.217   2.846
 1280SOL     OW15181   0.688   1.662   3.578
 1280SOL    HW115182   0.632   1.743   3.587
 1280SOL    HW215183   0.740   1.666   3.492
 1281SOL     OW15184   1.726   0.135   2.385
 1281SOL    HW115185   1.799   0.118   2.318
 1281SOL    HW215186   1.695   0.048   2.423
 1282SOL     OW15187   1.388   1.573   2.339
 1282SOL    HW115188   1.455   1.585   2.265
 1282SOL    HW215189   1.348   1.662   2.362
 1283SOL     OW15190   0.130   1.794   3.713
 1283SOL    HW115191   0.089   1.720   3.766
 1283SOL    HW215192   0.194   1.845   3.771
 1284SOL     OW15193   1.280   0.927   2.534
 1284SOL    HW115194   1.340   0.846   2.536
 1284SOL    HW215195   1.320   0.996   2.474
 1285SOL     OW15196   0.830   1.273   3.284
 1285SOL    HW115197   0.825   1.306   3.379
 1285SOL    HW215198   0.744   1.292   3.238
 1286SOL     OW15199   0.672   1.616   2.016
 1286SOL    HW115200   0.681   1.626   1.917
 1286SOL    HW215201   0.632   1.527   2.037
 1287SOL     OW15202   1.650   1.720   3.256
 1287SOL    HW115203   1.703   1.730   3.172
 1287SOL    HW215204   1.623   1.810   3.290
 1288SOL     OW15205   1.841   0.175   2.825
 1288SOL    HW115206   1.880   0.090   2.789
 1288SOL    HW215207   1.743   0.177   2.806
 1289SOL     OW15208   0.263   0.326   2.582
 1289SOL    HW115209   0.184   0.377   2.548
 1289SOL    HW215210   0.254   0.311   2.680
 1290SOL     OW15211   1.194   1.612   1.893
 1290SOL    HW115212   1.200   1.519   1.930
 1290SOL    HW215213   1.135   1.612   1.813
 1291SOL     OW15214   0.822   1.002   3.234
 1291SOL    HW115215   0.862   1.001   3.142
 1291SOL    HW215216   0.832   1.094   3.274
 1292SOL     OW15217   0.916   0.910   2.153
 1292SOL    HW115218   0.979   0.948   2.085
 1292SOL    HW215219   0.956   0.827   2.192
 1293SOL     OW15220   1.504   1.607   1.906
 1293SOL    HW115221   1.412   1.644   1.913
 1293SOL    HW215222   1.542   1.627   1.816
 1294SOL     OW15223   0.372   1.288   3.352
 1294SOL    HW115224   0.359   1.381   3.318
 1294SOL    HW215225   0.288   1.236   3.339
 1295SOL     OW15226   1.614   1.292   3.151
 1295SOL    HW115227   1.674   1.295   3.231
 1295SOL    HW215228   1.539   1.356   3.164
 1296SOL     OW15229   1.039   1.098   2.558
 1296SOL    HW115230   0.969   1.051   2.612
 1296SOL    HW215231   1.098   1.030   2.515
 1297SOL     OW15232   1.014   0.236   2.833
 1297SOL    HW115233   1.006   0.200   2.740
 1297SOL    HW215234   1.012   0.160   2.898
 1298SOL     OW15235   0.590   1.487   2.353
 1298SOL    HW115236   0.632   1.429   2.283
 1298SOL    HW215237   0.546   1.566   2.309
 1299SOL     OW15238   1.709   0.385   3.243
 1299SOL    HW115239   1.782   0.454   3.247
 1299SOL    HW215240   1.737   0.310   3.184
 1300SOL     OW15241   0.255   1.348   2.152
 1300SOL    HW115242   0.159   1.349   2.125
 1300SOL    HW215243   0.267   1.401   2.236
 1301SOL     OW15244   0.105   1.013   3.588
 1301SOL    HW115245   0.028   0.980   3.642
 1301SOL    HW215246   0.190   0.983   3.630
 1302SOL     OW15247   0.672   0.203   3.351
 1302SOL    HW115248   0.762   0.187   3.311
 1302SOL    HW215249   0.680   0.208   3.450
 1303SOL     OW15250   0.075   0.345   1.895
 1303SOL    HW115251  -0.017   0.317   1.866
 1303SOL    HW215252   0.106   0.422   1.839
 1304SOL     OW15253   1.440   0.856   3.260
 1304SOL    HW115254   1.383   0.908   3.197
 1304SOL    HW215255   1.536   0.868   3.236
 1305SOL     OW15256   0.072   0.166   2.180
 1305SOL    HW115257   0.055   0.249   2.126
 1305SOL    HW215258   0.162   0.129   2.158
 1306SOL     OW15259   1.183   1.335   1.981
 1306SOL    HW115260   1.084   1.324   1.983
 1306SOL    HW215261   1.217   1.350   2.074
 1307SOL     OW15262   0.613   0.842   3.293
 1307SOL    HW115263   0.669   0.923   3.276
 1307SOL    HW215264   0.672   0.762   3.296
 1308SOL     OW15265   1.493   1.767   2.821
 1308SOL    HW115266   1.526   1.831   2.752
 1308SOL    HW215267   1.559   1.761   2.896
 1309SOL     OW15268   0.716   0.565   3.570
 1309SOL    HW115269   0.735   0.630   3.644
 1309SOL    HW215270   0.776   0.485   3.579
 1310SOL     OW15271   1.450   1.220   3.495
 1310SOL    HW115272   1.441   1.210   3.594
 1310SOL    HW215273   1.546   1.213   3.469
 1311SOL     OW15274   0.390   1.741   3.422
 1311SOL    HW115275   0.299   1.782   3.420
 1311SOL    HW215276   0.383   1.647   3.454
 1312SOL     OW15277   1.674   0.883   3.116
 1312SOL    HW115278   1.647   0.794   3.079
 1312SOL    HW215279   1.675   0.951   3.043
 1313SOL     OW15280   1.225   0.325   2.311
 1313SOL    HW115281   1.290   0.251   2.300
 1313SOL    HW215282   1.245   0.375   2.395
 1314SOL     OW15283   0.594   0.745   2.514
 1314SOL    HW115284   0.644   0.830   2.495
 1314SOL    HW215285   0.506   0.747   2.466
 1315SOL     OW15286   1.777   0.342   3.504
 1315SOL    HW115287   1.760   0.373   3.410
 1315SOL    HW215288   1.693   0.305   3.542
 1316SOL     OW15289   1.730   0.934   3.379
 1316SOL    HW115290   1.768   1.025   3.394
 1316SOL    HW215291   1.722   0.917   3.280
 1317SOL     OW15292   0.859   1.374   1.878
 1317SOL    HW115293   0.813   1.389   1.966
 1317SOL    HW215294   0.903   1.459   1.848
 1318SOL     OW15295   0.661   1.790   2.815
 1318SOL    HW115296   0.615   1.878   2.802
 1318SOL    HW215297   0.760   1.802   2.808
 1319SOL     OW15298   0.859   0.956   2.723
 1319SOL    HW115299   0.913   0.887   2.771
 1319SOL    HW215300   0.827   1.025   2.789
 1320SOL     OW15301   1.083   0.984   1.949
 1320SOL    HW115302   1.060   1.037   1.867
 1320SOL    HW215303   1.164   0.928   1.930
 1321SOL     OW15304   1.861   1.569   2.713
 1321SOL    HW115305   1.790   1.557   2.643
 1321SOL    HW215306   1.862   1.490   2.773
 1322SOL     OW15307   0.221   1.314   3.706
 1322SOL    HW115308   0.156   1.241   3.685
 1322SOL    HW215309   0.225   1.328   3.804
 1323SOL     OW15310   0.079   1.240   2.515
 1323SOL    HW115311   0.078   1.193   2.603
 1323SOL    HW215312   0.161   1.212   2.464
 1324SOL     OW15313   0.672   1.391   3.486
 1324SOL    HW115314   0.594   1.341   3.524
 1324SOL    HW215315   0.669   1.486   3.517
 1325SOL     OW15316   1.824   0.192   3.089
 1325SOL    HW115317   1.820   0.102   3.133
 1325SOL    HW215318   1.827   0.181   2.990
 1326SOL     OW15319   0.428   0.424   2.382
 1326SOL    HW115320   0.458   0.352   2.320
 1326SOL    HW215321   0.389   0.384   2.465
 1327SOL     OW15322   1.705   1.487   2.966
 1327SOL    HW115323   1.612   1.462   2.939
 1327SOL    HW215324   1.731   1.437   3.048
 1328SOL     OW15325   0.317   0.547   3.142
 1328SOL    HW115326   0.355   0.488   3.214
 1328SOL    HW215327   0.357   0.521   3.054
 1329SOL     OW15328   0.812   1.586   2.549
 1329SOL    HW115329   0.844   1.596   2.455
 1329SOL    HW215330   0.733   1.524   2.551
 1330SOL     OW15331   1.424   0.214   2.974
 1330SOL    HW115332   1.476   0.149   3.029
 1330SOL    HW215333   1.375   0.277   3.035
 1331SOL     OW15334   1.001   0.034   3.016
 1331SOL    HW115335   0.938  -0.038   2.985
 1331SOL    HW215336   1.094  -0.002   3.016
 1332SOL     OW15337   0.770   1.330   2.163
 1332SOL    HW115338   0.724   1.243   2.180
 1332SOL    HW215339   0.861   1.327   2.204
 1333SOL     OW15340   0.618   1.567   3.146
 1333SOL    HW115341   0.613   1.649   3.203
 1333SOL    HW215342   0.707   1.564   3.101
 1334SOL     OW15343   1.352   0.052   2.030
 1334SOL    HW115344   1.387   0.011   1.946
 1334SOL    HW215345   1.262   0.014   2.050
 1335SOL     OW15346   1.300   0.453   2.553
 1335SOL    HW115347   1.241   0.533   2.557
 1335SOL    HW215348   1.315   0.418   2.646
 1336SOL     OW15349   1.593   0.221   2.744
 1336SOL    HW115350   1.509   0.220   2.798
 1336SOL    HW215351   1.595   0.304   2.688
 1337SOL     OW15352   0.039   1.077   2.162
 1337SOL    HW115353   0.138   1.066   2.153
 1337SOL    HW215354  -0.001   0.991   2.194
 1338SOL     OW15355   0.875   1.646   2.199
 1338SOL    HW115356   0.798   1.611   2.145
 1338SOL    HW215357   0.843   1.717   2.261
 1339SOL     OW15358   0.230   0.628   3.837
 1339SOL    HW115359   0.137   0.626   3.874
 1339SOL    HW215360   0.231   0.589   3.745
 1340SOL     OW15361   0.225   0.275   4.720
 1340SOL    HW115362   0.260   0.258   4.812
 1340SOL    HW215363   0.137   0.230   4.708
 1341SOL     OW15364   0.019   0.368   4.371
 1341SOL    HW115365  -0.063   0.411   4.410
 1341SOL    HW215366  -0.009   0.295   4.308
 1342SOL     OW15367   0.569   1.275   4.889
 1342SOL    HW115368   0.476   1.268   4.852
 1342SOL    HW215369   0.580   1.364   4.933
 1343SOL     OW15370   1.555   1.511   4.427
 1343SOL    HW115371   1.498   1.495   4.508
 1343SOL    HW215372   1.496   1.521   4.347
 1344SOL     OW15373   1.135   0.703   4.441
 1344SOL    HW115374   1.192   0.781   4.416
 1344SOL    HW215375   1.075   0.729   4.517
 1345SOL     OW15376   1.755   0.607   3.955
 1345SOL    HW115377   1.743   0.594   3.856
 1345SOL    HW215378   1.725   0.526   4.004
 1346SOL     OW15379   0.768   1.144   4.747
 1346SOL    HW115380   0.690   1.161   4.807
 1346SOL    HW215381   0.802   1.231   4.711
 1347SOL     OW15382   0.850   0.798   5.547
 1347SOL    HW115383   0.846   0.874   5.612
 1347SOL    HW215384   0.872   0.834   5.456
 1348SOL     OW15385   0.685   1.012   4.389
 1348SOL    HW115386   0.754   0.996   4.459
 1348SOL    HW215387   0.612   1.069   4.427
 1349SOL     OW15388   0.686   1.161   5.527
 1349SOL    HW115389   0.746   1.240   5.541
 1349SOL    HW215390   0.600   1.192   5.486
 1350SOL     OW15391   0.335   1.435   4.785
 1350SOL    HW115392   0.257   1.404   4.732
 1350SOL    HW215393   0.393   1.493   4.728
 1351SOL     OW15394   1.460   1.505   5.063
 1351SOL    HW115395   1.484   1.599   5.089
 1351SOL    HW215396   1.444   1.451   5.145
 1352SOL     OW15397   0.438   0.392   5.223
 1352SOL    HW115398   0.520   0.336   5.232
 1352SOL    HW215399   0.357   0.334   5.227
 1353SOL     OW15400   1.603   0.447   4.461
 1353SOL    HW115401   1.529   0.493   4.411
 1353SOL    HW215402   1.654   0.515   4.514
 1354SOL     OW15403   0.231   1.713   4.207
 1354SOL    HW115404   0.265   1.790   4.261
 1354SOL    HW215405   0.275   1.713   4.117
 1355SOL     OW15406   1.127   1.341   5.414
 1355SOL    HW115407   1.174   1.341   5.502
 1355SOL    HW215408   1.079   1.254   5.403
 1356SOL     OW15409   0.230   1.434   4.262
 1356SOL    HW115410   0.204   1.530   4.262
 1356SOL    HW215411   0.159   1.380   4.307
 1357SOL     OW15412   0.240   1.091   4.610
 1357SOL    HW115413   0.254   1.007   4.662
 1357SOL    HW215414   0.185   1.155   4.665
 1358SOL     OW15415   0.620   1.786   5.163
 1358SOL    HW115416   0.528   1.769   5.198
 1358SOL    HW215417   0.648   1.878   5.189
 1359SOL     OW15418   0.606   0.964   3.847
 1359SOL    HW115419   0.613   1.048   3.793
 1359SOL    HW215420   0.652   0.977   3.935
 1360SOL     OW15421   1.594   0.114   5.204
 1360SOL    HW115422   1.576   0.181   5.132
 1360SOL    HW215423   1.591   0.160   5.293
 1361SOL     OW15424   0.122   0.643   4.287
 1361SOL    HW115425   0.077   0.555   4.304
 1361SOL    HW215426   0.121   0.697   4.371
 1362SOL     OW15427   1.842   1.767   4.083
 1362SOL    HW115428   1.896   1.738   4.163
 1362SOL    HW215429   1.872   1.857   4.054
 1363SOL     OW15430   0.027   1.596   3.841
 1363SOL    HW115431   0.008   1.500   3.862
 1363SOL    HW215432  -0.006   1.654   3.916
 1364SOL     OW15433   1.689   0.922   4.336
 1364SOL    HW115434   1.784   0.893   4.344
 1364SOL    HW215435   1.681   0.987   4.261
 1365SOL     OW15436   1.641   1.108   4.156
 1365SOL    HW115437   1.727   1.110   4.104
 1365SOL    HW215438   1.655   1.155   4.244
 1366SOL     OW15439   0.113   0.737   5.321
 1366SOL    HW115440   0.201   0.724   5.366
 1366SOL    HW215441   0.100   0.834   5.299
 1367SOL     OW15442   0.613   1.365   4.450
 1367SOL    HW115443   0.564   1.278   4.459
 1367SOL    HW215444   0.590   1.408   4.363
 1368SOL     OW15445   0.809   0.004   4.226
 1368SOL    HW115446   0.849   0.095   4.217
 1368SOL    HW215447   0.709   0.012   4.232
 1369SOL     OW15448   0.197   0.976   4.988
 1369SOL    HW115449   0.286   0.931   4.974
 1369SOL    HW215450   0.124   0.911   4.969
 1370SOL     OW15451   1.525   0.999   3.914
 1370SOL    HW115452   1.462   0.923   3.927
 1370SOL    HW215453   1.573   1.017   4.000
 1371SOL     OW15454   1.187   1.792   5.340
 1371SOL    HW115455   1.211   1.852   5.264
 1371SOL    HW215456   1.194   1.697   5.310
 1372SOL     OW15457   0.317   0.251   5.525
 1372SOL    HW115458   0.388   0.322   5.531
 1372SOL    HW215459   0.229   0.290   5.553
 1373SOL     OW15460   1.466   1.417   4.677
 1373SOL    HW115461   1.407   1.423   4.757
 1373SOL    HW215462   1.451   1.329   4.631
 1374SOL     OW15463   1.667   1.714   4.296
 1374SOL    HW115464   1.626   1.691   4.208
 1374SOL    HW215465   1.649   1.640   4.361
 1375SOL     OW15466   0.598   0.729   3.994
 1375SOL    HW115467   0.622   0.798   3.926
 1375SOL    HW215468   0.520   0.762   4.048
 1376SOL     OW15469   1.281   0.345   4.668
 1376SOL    HW115470   1.195   0.295   4.655
 1376SOL    HW215471   1.343   0.291   4.724
 1377SOL     OW15472   1.576   1.662   4.031
 1377SOL    HW115473   1.665   1.708   4.034
 1377SOL    HW215474   1.555   1.638   3.936
 1378SOL     OW15475   0.807   0.605   5.189
 1378SOL    HW115476   0.760   0.602   5.278
 1378SOL    HW215477   0.756   0.550   5.123
 1379SOL     OW15478   1.394   0.469   5.398
 1379SOL    HW115479   1.374   0.512   5.486
 1379SOL    HW215480   1.472   0.407   5.407
 1380SOL     OW15481   0.973   0.890   5.296
 1380SOL    HW115482   1.019   0.806   5.267
 1380SOL    HW215483   0.917   0.924   5.221
 1381SOL     OW15484   0.991   0.410   4.966
 1381SOL    HW115485   0.914   0.444   5.020
 1381SOL    HW215486   0.957   0.359   4.887
 1382SOL     OW15487   1.041   0.701   4.153
 1382SOL    HW115488   1.067   0.697   4.249
 1382SOL    HW215489   0.956   0.650   4.139
 1383SOL     OW15490   0.076   0.811   4.513
 1383SOL    HW115491   0.175   0.799   4.522
 1383SOL    HW215492   0.052   0.906   4.534
 1384SOL     OW15493   0.130   1.821   5.295
 1384SOL    HW115494   0.120   1.806   5.394
 1384SOL    HW215495   0.044   1.857   5.259
 1385SOL     OW15496   0.865   0.348   3.919
 1385SOL    HW115497   0.924   0.411   3.870
 1385SOL    HW215498   0.884   0.254   3.890
 1386SOL     OW15499   1.719   0.585   5.555
 1386SOL    HW115500   1.693   0.674   5.519
 1386SOL    HW215501   1.717   0.517   5.482
 1387SOL     OW15502   1.362   1.144   4.269
 1387SOL    HW115503   1.445   1.115   4.221
 1387SOL    HW215504   1.313   1.211   4.213
 1388SOL     OW15505   0.550   0.196   4.609
 1388SOL    HW115506   0.545   0.191   4.709
 1388SOL    HW215507   0.552   0.292   4.580
 1389SOL     OW15508   1.008   1.456   4.201
 1389SOL    HW115509   0.962   1.528   4.149
 1389SOL    HW215510   1.004   1.476   4.299
 1390SOL     OW15511   0.351   1.801   4.577
 1390SOL    HW115512   0.401   1.715   4.583
 1390SOL    HW215513   0.416   1.878   4.574
 1391SOL     OW15514   1.795   1.066   4.597
 1391SOL    HW115515   1.733   1.051   4.521
 1391SOL    HW215516   1.743   1.077   4.682
 1392SOL     OW15517   1.227   1.550   5.230
 1392SOL    HW115518   1.233   1.473   5.294
 1392SOL    HW215519   1.175   1.524   5.150
 1393SOL     OW15520   0.321   0.943   3.966
 1393SOL    HW115521   0.403   0.982   3.924
 1393SOL    HW215522   0.294   0.861   3.917
 1394SOL     OW15523   1.458   0.735   4.452
 1394SOL    HW115524   1.453   0.670   4.527
 1394SOL    HW215525   1.538   0.794   4.465
 1395SOL     OW15526   0.461   1.266   5.451
 1395SOL    HW115527   0.411   1.267   5.365
 1395SOL    HW215528   0.398   1.248   5.527
 1396SOL     OW15529   1.111   1.776   3.961
 1396SOL    HW115530   1.051   1.714   4.011
 1396SOL    HW215531   1.142   1.732   3.876
 1397SOL     OW15532   0.202   0.285   5.222
 1397SOL    HW115533   0.122   0.345   5.209
 1397SOL    HW215534   0.192   0.236   5.308
 1398SOL     OW15535   1.632   1.377   3.805
 1398SOL    HW115536   1.600   1.471   3.795
 1398SOL    HW215537   1.556   1.314   3.793
 1399SOL     OW15538   0.464   1.743   4.047
 1399SOL    HW115539   0.497   1.782   4.133
 1399SOL    HW215540   0.540   1.736   3.982
 1400SOL     OW15541   1.400   0.107   4.150
 1400SOL    HW115542   1.376   0.070   4.060
 1400SOL    HW215543   1.499   0.123   4.154
 1401SOL     OW15544   0.249   1.785   4.965
 1401SOL    HW115545   0.306   1.720   5.015
 1401SOL    HW215546   0.233   1.752   4.872
 1402SOL     OW15547   0.940   1.698   4.628
 1402SOL    HW115548   1.020   1.641   4.649
 1402SOL    HW215549   0.891   1.658   4.551
 1403SOL     OW15550   0.382   0.700   4.204
 1403SOL    HW115551   0.427   0.610   4.201
 1403SOL    HW215552   0.288   0.689   4.237
 1404SOL     OW15553   1.547   0.222   5.453
 1404SOL    HW115554   1.542   0.259   5.545
 1404SOL    HW215555   1.475   0.153   5.441
 1405SOL     OW15556   0.614   0.122   3.841
 1405SOL    HW115557   0.712   0.100   3.848
 1405SOL    HW215558   0.583   0.105   3.748
 1406SOL     OW15559   0.781   0.264   5.473
 1406SOL    HW115560   0.848   0.203   5.516
 1406SOL    HW215561   0.708   0.283   5.538
 1407SOL     OW15562   0.888   1.514   4.919
 1407SOL    HW115563   0.865   1.489   4.825
 1407SOL    HW215564   0.949   1.445   4.958
 1408SOL     OW15565   1.351   0.590   5.157
 1408SOL    HW115566   1.379   0.547   5.242
 1408SOL    HW215567   1.376   0.686   5.158
 1409SOL     OW15568   0.803   1.402   4.648
 1409SOL    HW115569   0.893   1.416   4.606
 1409SOL    HW215570   0.732   1.404   4.577
 1410SOL     OW15571   0.922   0.503   4.623
 1410SOL    HW115572   0.897   0.494   4.527
 1410SOL    HW215573   0.970   0.421   4.654
 1411SOL     OW15574   0.539   0.064   4.236
 1411SOL    HW115575   0.458   0.065   4.294
 1411SOL    HW215576   0.542   0.147   4.181
 1412SOL     OW15577   1.434   1.188   3.765
 1412SOL    HW115578   1.466   1.112   3.822
 1412SOL    HW215579   1.342   1.215   3.795
 1413SOL     OW15580   0.297   0.035   3.895
 1413SOL    HW115581   0.346   0.119   3.874
 1413SOL    HW215582   0.359  -0.030   3.940
 1414SOL     OW15583   0.935   0.236   4.204
 1414SOL    HW115584   0.887   0.277   4.126
 1414SOL    HW215585   1.034   0.234   4.185
 1415SOL     OW15586   1.076   0.683   5.188
 1415SOL    HW115587   0.996   0.622   5.191
 1415SOL    HW215588   1.157   0.630   5.164
 1416SOL     OW15589   1.227   1.570   4.517
 1416SOL    HW115590   1.248   1.644   4.452
 1416SOL    HW215591   1.295   1.570   4.590
 1417SOL     OW15592   0.459   1.152   4.465
 1417SOL    HW115593   0.388   1.125   4.530
 1417SOL    HW215594   0.433   1.124   4.372
 1418SOL     OW15595   1.271   1.797   4.315
 1418SOL    HW115596   1.315   1.861   4.251
 1418SOL    HW215597   1.221   1.849   4.385
 1419SOL     OW15598   1.032   0.549   3.740
 1419SOL    HW115599   0.991   0.631   3.701
 1419SOL    HW215600   1.096   0.575   3.813
 1420SOL     OW15601   0.078   0.556   5.110
 1420SOL    HW115602   0.170   0.555   5.069
 1420SOL    HW215603   0.072   0.630   5.177
 1421SOL     OW15604   0.561   0.222   4.871
 1421SOL    HW115605   0.599   0.138   4.908
 1421SOL    HW215606   0.473   0.241   4.915
 1422SOL     OW15607   0.866   0.454   4.366
 1422SOL    HW115608   0.834   0.526   4.304
 1422SOL    HW215609   0.890   0.373   4.313
 1423SOL     OW15610   1.017   0.039   4.477
 1423SOL    HW115611   0.945   0.044   4.408
 1423SOL    HW215612   0.993  -0.030   4.546
 1424SOL     OW15613   1.429   1.173   4.591
 1424SOL    HW115614   1.374   1.089   4.584
 1424SOL    HW215615   1.455   1.202   4.499
 1425SOL     OW15616   1.466   0.590   4.716
 1425SOL    HW115617   1.436   0.495   4.723
 1425SOL    HW215618   1.539   0.606   4.782
 1426SOL     OW15619   1.857   0.833   4.101
 1426SOL    HW115620   1.899   0.769   4.165
 1426SOL    HW215621   1.819   0.782   4.023
 1427SOL     OW15622   0.488   1.385   3.898
 1427SOL    HW115623   0.401   1.370   3.945
 1427SOL    HW215624   0.471   1.411   3.803
 1428SOL     OW15625   1.664   1.280   4.381
 1428SOL    HW115626   1.763   1.288   4.395
 1428SOL    HW215627   1.619   1.364   4.412
 1429SOL     OW15628   1.390   0.575   3.802
 1429SOL    HW115629   1.336   0.554   3.883
 1429SOL    HW215630   1.481   0.534   3.811
 1430SOL     OW15631   0.527   0.256   4.052
 1430SOL    HW115632   0.554   0.197   3.977
 1430SOL    HW215633   0.527   0.351   4.021
 1431SOL     OW15634   1.754   1.223   5.312
 1431SOL    HW115635   1.845   1.184   5.299
 1431SOL    HW215636   1.762   1.319   5.336
 1432SOL     OW15637   1.064   1.347   5.064
 1432SOL    HW115638   0.984   1.324   5.119
 1432SOL    HW215639   1.147   1.321   5.113
 1433SOL     OW15640   1.592   1.629   5.349
 1433SOL    HW115641   1.619   1.663   5.259
 1433SOL    HW215642   1.671   1.591   5.395
 1434SOL     OW15643   1.111   1.195   4.824
 1434SOL    HW115644   1.071   1.239   4.905
 1434SOL    HW215645   1.070   1.232   4.741
 1435SOL     OW15646   1.638   1.099   4.803
 1435SOL    HW115647   1.643   1.180   4.862
 1435SOL    HW215648   1.552   1.101   4.752
 1436SOL     OW15649   0.915   0.089   5.126
 1436SOL    HW115650   0.940   0.069   5.031
 1436SOL    HW215651   0.987   0.145   5.168
 1437SOL     OW15652   0.980   1.116   5.443
 1437SOL    HW115653   0.881   1.122   5.453
 1437SOL    HW215654   1.003   1.036   5.387
 1438SOL     OW15655   0.705   1.050   4.092
 1438SOL    HW115656   0.691   1.057   4.191
 1438SOL    HW215657   0.789   0.999   4.074
 1439SOL     OW15658   0.410   0.813   4.975
 1439SOL    HW115659   0.496   0.825   5.025
 1439SOL    HW215660   0.368   0.726   5.002
 1440SOL     OW15661   1.274   0.386   4.986
 1440SOL    HW115662   1.295   0.460   5.050
 1440SOL    HW215663   1.185   0.403   4.943
 1441SOL     OW15664   0.064   1.564   5.055
 1441SOL    HW115665   0.018   1.646   5.021
 1441SOL    HW215666   0.162   1.583   5.064
 1442SOL     OW15667   0.367   1.100   4.225
 1442SOL    HW115668   0.360   1.183   4.169
 1442SOL    HW215669   0.371   1.020   4.165
 1443SOL     OW15670   0.566   0.537   4.589
 1443SOL    HW115671   0.578   0.603   4.515
 1443SOL    HW215672   0.612   0.571   4.672
 1444SOL     OW15673   1.252   1.348   4.112
 1444SOL    HW115674   1.302   1.425   4.152
 1444SOL    HW215675   1.157   1.350   4.144
 1445SOL     OW15676   1.272   1.445   4.866
 1445SOL    HW115677   1.319   1.458   4.953
 1445SOL    HW215678   1.206   1.371   4.875
 1446SOL     OW15679   1.582   0.639   4.196
 1446SOL    HW115680   1.551   0.700   4.269
 1446SOL    HW215681   1.632   0.691   4.127
 1447SOL     OW15682   0.354   1.510   5.053
 1447SOL    HW115683   0.333   1.466   4.966
 1447SOL    HW215684   0.451   1.536   5.056
 1448SOL     OW15685   0.402   0.751   5.322
 1448SOL    HW115686   0.470   0.806   5.275
 1448SOL    HW215687   0.442   0.663   5.349
 1449SOL     OW15688   1.587   0.779   5.394
 1449SOL    HW115689   1.495   0.817   5.389
 1449SOL    HW215690   1.647   0.826   5.329
 1450SOL     OW15691   1.013   0.105   5.494
 1450SOL    HW115692   1.019   0.190   5.442
 1450SOL    HW215693   1.045   0.029   5.437
 1451SOL     OW15694   0.504   0.050   5.464
 1451SOL    HW115695   0.462  -0.007   5.394
 1451SOL    HW215696   0.438   0.119   5.496
 1452SOL     OW15697   0.573   0.870   4.753
 1452SOL    HW115698   0.617   0.959   4.744
 1452SOL    HW215699   0.510   0.870   4.830
 1453SOL     OW15700   1.360   0.862   4.769
 1453SOL    HW115701   1.285   0.862   4.703
 1453SOL    HW215702   1.397   0.770   4.778
 1454SOL     OW15703   1.209   0.525   3.999
 1454SOL    HW115704   1.222   0.441   4.053
 1454SOL    HW215705   1.180   0.599   4.059
 1455SOL     OW15706   0.307   0.213   4.955
 1455SOL    HW115707   0.284   0.250   5.045
 1455SOL    HW215708   0.277   0.118   4.949
 1456SOL     OW15709   0.037   1.310   5.006
 1456SOL    HW115710   0.090   1.261   5.074
 1456SOL    HW215711   0.059   1.408   5.011
 1457SOL     OW15712   0.732   0.634   4.788
 1457SOL    HW115713   0.791   0.608   4.712
 1457SOL    HW215714   0.704   0.730   4.777
 1458SOL     OW15715   1.728   0.935   5.578
 1458SOL    HW115716   1.682   0.928   5.489
 1458SOL    HW215717   1.666   0.979   5.644
 1459SOL     OW15718   0.307   0.063   4.342
 1459SOL    HW115719   0.296   0.157   4.375
 1459SOL    HW215720   0.302   0.000   4.419
 1460SOL     OW15721   1.622   0.367   4.098
 1460SOL    HW115722   1.624   0.291   4.162
 1460SOL    HW215723   1.574   0.444   4.138
 1461SOL     OW15724   1.023   0.766   4.690
 1461SOL    HW115725   1.038   0.787   4.786
 1461SOL    HW215726   0.993   0.671   4.681
 1462SOL     OW15727   0.980   1.573   5.424
 1462SOL    HW115728   0.960   1.617   5.336
 1462SOL    HW215729   1.019   1.482   5.408
 1463SOL     OW15730   1.859   1.518   5.329
 1463SOL    HW115731   1.873   1.545   5.234
 1463SOL    HW215732   1.942   1.540   5.382
 1464SOL     OW15733   0.350   0.898   5.528
 1464SOL    HW115734   0.426   0.942   5.576
 1464SOL    HW215735   0.385   0.851   5.446
 1465SOL     OW15736   1.540   0.274   3.849
 1465SOL    HW115737   1.479   0.199   3.872
 1465SOL    HW215738   1.562   0.326   3.932
 1466SOL     OW15739   1.303   0.838   3.766
 1466SOL    HW115740   1.337   0.745   3.781
 1466SOL    HW215741   1.321   0.865   3.671
 1467SOL     OW15742   1.068   1.333   4.573
 1467SOL    HW115743   1.075   1.249   4.518
 1467SOL    HW215744   1.130   1.402   4.537
 1468SOL     OW15745   0.319   0.810   4.673
 1468SOL    HW115746   0.412   0.846   4.678
 1468SOL    HW215747   0.313   0.725   4.725
 1469SOL     OW15748   0.339   0.509   4.730
 1469SOL    HW115749   0.287   0.426   4.713
 1469SOL    HW215750   0.416   0.514   4.666
 1470SOL     OW15751   1.138   0.380   5.402
 1470SOL    HW115752   1.093   0.443   5.466
 1470SOL    HW215753   1.231   0.411   5.385
 1471SOL     OW15754   1.160   0.207   5.201
 1471SOL    HW115755   1.160   0.271   5.278
 1471SOL    HW215756   1.188   0.255   5.118
 1472SOL     OW15757   0.008   1.326   3.924
 1472SOL    HW115758  -0.085   1.347   3.893
 1472SOL    HW215759   0.018   1.227   3.937
 1473SOL     OW15760   0.088   1.801   4.651
 1473SOL    HW115761   0.046   1.715   4.624
 1473SOL    HW215762   0.182   1.804   4.617
 1474SOL     OW15763   0.504   1.568   4.634
 1474SOL    HW115764   0.570   1.642   4.643
 1474SOL    HW215765   0.548   1.489   4.592
 1475SOL     OW15766   1.002   0.796   4.962
 1475SOL    HW115767   1.043   0.764   5.048
 1475SOL    HW215768   0.906   0.769   4.959
 1476SOL     OW15769   0.040   0.544   4.838
 1476SOL    HW115770   0.125   0.511   4.797
 1476SOL    HW215771   0.053   0.559   4.936
 1477SOL     OW15772   0.189   0.520   5.446
 1477SOL    HW115773   0.248   0.480   5.376
 1477SOL    HW215774   0.131   0.591   5.405
 1478SOL     OW15775   1.369   0.950   5.384
 1478SOL    HW115776   1.408   1.039   5.404
 1478SOL    HW215777   1.379   0.930   5.287
 1479SOL     OW15778   0.815   0.572   4.049
 1479SOL    HW115779   0.822   0.483   4.003
 1479SOL    HW215780   0.721   0.606   4.041
 1480SOL     OW15781   1.657   0.604   4.930
 1480SOL    HW115782   1.619   0.535   4.992
 1480SOL    HW215783   1.739   0.568   4.886
 1481SOL     OW15784   0.252   1.564   5.468
 1481SOL    HW115785   0.222   1.621   5.544
 1481SOL    HW215786   0.245   1.467   5.494
 1482SOL     OW15787   0.671   0.464   4.993
 1482SOL    HW115788   0.637   0.375   4.963
 1482SOL    HW215789   0.697   0.518   4.913
 1483SOL     OW15790   0.930   1.678   5.189
 1483SOL    HW115791   0.906   1.660   5.094
 1483SOL    HW215792   0.960   1.772   5.199
 1484SOL     OW15793   0.473   0.500   3.915
 1484SOL    HW115794   0.534   0.580   3.919
 1484SOL    HW215795   0.378   0.531   3.922
 1485SOL     OW15796   0.159   1.137   5.190
 1485SOL    HW115797   0.181   1.076   5.266
 1485SOL    HW215798   0.169   1.088   5.104
 1486SOL     OW15799   1.347   1.059   4.958
 1486SOL    HW115800   1.371   0.996   4.884
 1486SOL    HW215801   1.257   1.099   4.940
 1487SOL     OW15802   1.302   0.855   4.033
 1487SOL    HW115803   1.216   0.824   4.075
 1487SOL    HW215804   1.298   0.841   3.934
 1488SOL     OW15805   1.759   1.747   4.878
 1488SOL    HW115806   1.820   1.777   4.805
 1488SOL    HW215807   1.721   1.658   4.856
 1489SOL     OW15808   1.252   1.731   4.852
 1489SOL    HW115809   1.336   1.736   4.798
 1489SOL    HW215810   1.229   1.635   4.870
 1490SOL     OW15811   0.083   1.258   4.746
 1490SOL    HW115812   0.078   1.257   4.846
 1490SOL    HW215813   0.000   1.217   4.708
 1491SOL     OW15814   0.688   1.662   5.440
 1491SOL    HW115815   0.632   1.743   5.449
 1491SOL    HW215816   0.740   1.666   5.354
 1492SOL     OW15817   1.388   1.573   4.201
 1492SOL    HW115818   1.455   1.585   4.127
 1492SOL    HW215819   1.348   1.662   4.224
 1493SOL     OW15820   0.130   1.794   5.575
 1493SOL    HW115821   0.089   1.720   5.628
 1493SOL    HW215822   0.194   1.845   5.633
 1494SOL     OW15823   1.280   0.927   4.396
 1494SOL    HW115824   1.340   0.846   4.398
 1494SOL    HW215825   1.320   0.996   4.336
 1495SOL     OW15826   0.830   1.273   5.146
 1495SOL    HW115827   0.825   1.306   5.241
 1495SOL    HW215828   0.744   1.292   5.100
 1496SOL     OW15829   0.672   1.616   3.878
 1496SOL    HW115830   0.681   1.626   3.779
 1496SOL    HW215831   0.632   1.527   3.899
 1497SOL     OW15832   1.650   1.720   5.118
 1497SOL    HW115833   1.703   1.730   5.034
 1497SOL    HW215834   1.623   1.810   5.152
 1498SOL     OW15835   1.841   0.175   4.687
 1498SOL    HW115836   1.880   0.090   4.651
 1498SOL    HW215837   1.743   0.177   4.668
 1499SOL     OW15838   0.263   0.326   4.444
 1499SOL    HW115839   0.184   0.377   4.410
 1499SOL    HW215840   0.254   0.311   4.542
 1500SOL     OW15841   1.194   1.612   3.755
 1500SOL    HW115842   1.200   1.519   3.792
 1500SOL    HW215843   1.135   1.612   3.675
 1501SOL     OW15844   0.822   1.002   5.096
 1501SOL    HW115845   0.862   1.001   5.004
 1501SOL    HW215846   0.832   1.094   5.136
 1502SOL     OW15847   0.916   0.910   4.015
 1502SOL    HW115848   0.979   0.948   3.947
 1502SOL    HW215849   0.956   0.827   4.054
 1503SOL     OW15850   1.504   1.607   3.768
 1503SOL    HW115851   1.412   1.644   3.775
 1503SOL    HW215852   1.542   1.627   3.678
 1504SOL     OW15853   0.372   1.288   5.214
 1504SOL    HW115854   0.359   1.381   5.180
 1504SOL    HW215855   0.288   1.236   5.201
 1505SOL     OW15856   1.614   1.292   5.013
 1505SOL    HW115857   1.674   1.295   5.093
 1505SOL    HW215858   1.539   1.356   5.026
 1506SOL     OW15859   1.039   1.098   4.420
 1506SOL    HW115860   0.969   1.051   4.474
 1506SOL    HW215861   1.098   1.030   4.377
 1507SOL     OW15862   1.014   0.236   4.695
 1507SOL    HW115863   1.006   0.200   4.602
 1507SOL    HW215864   1.012   0.160   4.760
 1508SOL     OW15865   0.590   1.487   4.215
 1508SOL    HW115866   0.632   1.429   4.145
 1508SOL    HW215867   0.546   1.566   4.171
 1509SOL     OW15868   1.709   0.385   5.105
 1509SOL    HW115869   1.782   0.454   5.109
 1509SOL    HW215870   1.737   0.310   5.046
 1510SOL     OW15871   0.255   1.348   4.014
 1510SOL    HW115872   0.159   1.349   3.987
 1510SOL    HW215873   0.267   1.401   4.098
 1511SOL     OW15874   0.105   1.013   5.450
 1511SOL    HW115875   0.028   0.980   5.504
 1511SOL    HW215876   0.190   0.983   5.492
 1512SOL     OW15877   0.672   0.203   5.213
 1512SOL    HW115878   0.762   0.187   5.173
 1512SOL    HW215879   0.680   0.208   5.312
 1513SOL     OW15880   1.440   0.856   5.122
 1513SOL    HW115881   1.383   0.908   5.059
 1513SOL    HW215882   1.536   0.868   5.098
 1514SOL     OW15883   0.072   0.166   4.042
 1514SOL    HW115884   0.055   0.249   3.988
 1514SOL    HW215885   0.162   0.129   4.020
 1515SOL     OW15886   1.183   1.335   3.843
 1515SOL    HW115887   1.084   1.324   3.845
 1515SOL    HW215888   1.217   1.350   3.936
 1516SOL     OW15889   0.613   0.842   5.155
 1516SOL    HW115890   0.669   0.923   5.138
 1516SOL    HW215891   0.672   0.762   5.158
 1517SOL     OW15892   1.493   1.767   4.683
 1517SOL    HW115893   1.526   1.831   4.614
 1517SOL    HW215894   1.559   1.761   4.758
 1518SOL     OW15895   0.716   0.565   5.432
 1518SOL    HW115896   0.735   0.630   5.506
 1518SOL    HW215897   0.776   0.485   5.441
 1519SOL     OW15898   1.450   1.220   5.357
 1519SOL    HW115899   1.441   1.210   5.456
 1519SOL    HW215900   1.546   1.213   5.331
 1520SOL     OW15901   0.390   1.741   5.284
 1520SOL    HW115902   0.299   1.782   5.282
 1520SOL    HW215903   0.383   1.647   5.316
 1521SOL     OW15904   1.674   0.883   4.978
 1521SOL    HW115905   1.647   0.794   4.941
 1521SOL    HW215906   1.675   0.951   4.905
 1522SOL     OW15907   1.225   0.325   4.173
 1522SOL    HW115908   1.290   0.251   4.162
 1522SOL    HW215909   1.245   0.375   4.257
 1523SOL     OW15910   0.594   0.745   4.376
 1523SOL    HW115911   0.644   0.830   4.357
 1523SOL    HW215912   0.506   0.747   4.328
 1524SOL     OW15913   1.777   0.342   5.366
 1524SOL    HW115914   1.760   0.373   5.272
 1524SOL    HW215915   1.693   0.305   5.404
 1525SOL     OW15916   1.730   0.934   5.241
 1525SOL    HW115917   1.768   1.025   5.256
 1525SOL    HW215918   1.722   0.917   5.142
 1526SOL     OW15919   0.859   1.374   3.740
 1526SOL    HW115920   0.813   1.389   3.828
 1526SOL    HW215921   0.903   1.459   3.710
 1527SOL     OW15922   0.661   1.790   4.677
 1527SOL    HW115923   0.615   1.878   4.664
 1527SOL    HW215924   0.760   1.802   4.670
 1528SOL     OW15925   0.859   0.956   4.585
 1528SOL    HW115926   0.913   0.887   4.633
 1528SOL    HW215927   0.827   1.025   4.651
 1529SOL     OW15928   1.083   0.984   3.811
 1529SOL    HW115929   1.060   1.037   3.729
 1529SOL    HW215930   1.164   0.928   3.792
 1530SOL     OW15931   1.861   1.569   4.575
 1530SOL    HW115932   1.790   1.557   4.505
 1530SOL    HW215933   1.862   1.490   4.635
 1531SOL     OW15934   0.221   1.314   5.568
 1531SOL    HW115935   0.156   1.241   5.547
 1531SOL    HW215936   0.225   1.328   5.666
 1532SOL     OW15937   0.079   1.240   4.377
 1532SOL    HW115938   0.078   1.193   4.465
 1532SOL    HW215939   0.161   1.212   4.326
 1533SOL     OW15940   0.672   1.391   5.348
 1533SOL    HW115941   0.594   1.341   5.386
 1533SOL    HW215942   0.669   1.486   5.379
 1534SOL     OW15943   1.824   0.192   4.951
 1534SOL    HW115944   1.820   0.102   4.995
 1534SOL    HW215945   1.827   0.181   4.852
 1535SOL     OW15946   0.428   0.424   4.244
 1535SOL    HW115947   0.458   0.352   4.182
 1535SOL    HW215948   0.389   0.384   4.327
 1536SOL     OW15949   1.705   1.487   4.828
 1536SOL    HW115950   1.612   1.462   4.801
 1536SOL    HW215951   1.731   1.437   4.910
 1537SOL     OW15952   0.317   0.547   5.004
 1537SOL    HW115953   0.355   0.488   5.076
 1537SOL    HW215954   0.357   0.521   4.916
 1538SOL     OW15955   0.812   1.586   4.411
 1538SOL    HW115956   0.844   1.596   4.317
 1538SOL    HW215957   0.733   1.524   4.413
 1539SOL     OW15958   1.424   0.214   4.836
 1539SOL    HW115959   1.476   0.149   4.891
 1539SOL    HW215960   1.375   0.277   4.897
 1540SOL     OW15961   1.001   0.034   4.878
 1540SOL    HW115962   0.938  -0.038   4.847
 1540SOL    HW215963   1.094  -0.002   4.878
 1541SOL     OW15964   0.770   1.330   4.025
 1541SOL    HW115965   0.724   1.243   4.042
 1541SOL    HW215966   0.861   1.327   4.066
 1542SOL     OW15967   0.618   1.567   5.008
 1542SOL    HW115968   0.613   1.649   5.065
 1542SOL    HW215969   0.707   1.564   4.963
 1543SOL     OW15970   1.352   0.052   3.892
 1543SOL    HW115971   1.387   0.011   3.808
 1543SOL    HW215972   1.262   0.014   3.912
 1544SOL     OW15973   1.300   0.453   4.415
 1544SOL    HW115974   1.241   0.533   4.419
 1544SOL    HW215975   1.315   0.418   4.508
 1545SOL     OW15976   1.593   0.221   4.606
 1545SOL    HW115977   1.509   0.220   4.660
 1545SOL    HW215978   1.595   0.304   4.550
 1546SOL     OW15979   0.039   1.077   4.024
 1546SOL    HW115980   0.138   1.066   4.015
 1546SOL    HW215981  -0.001   0.991   4.056
 1547SOL     OW15982   0.875   1.646   4.061
 1547SOL    HW115983   0.798   1.611   4.007
 1547SOL    HW215984   0.843   1.717   4.123
 1548SOL     OW15985   0.230   0.628   5.699
 1548SOL    HW115986   0.137   0.626   5.736
 1548SOL    HW215987   0.231   0.589   5.607
 1549SOL     OW15988   0.225   0.275   6.582
 1549SOL    HW115989   0.260   0.258   6.674
 1549SOL    HW215990   0.137   0.230   6.570
 1550SOL     OW15991   0.019   0.368   6.233
 1550SOL    HW115992  -0.063   0.411   6.272
 1550SOL    HW215993  -0.009   0.295   6.170
 1551SOL     OW15994   0.569   1.275   6.751
 1551SOL    HW115995   0.476   1.268   6.714
 1551SOL    HW215996   0.580   1.364   6.795
 1552SOL     OW15997   1.555   1.511   6.289
 1552SOL    HW115998   1.498   1.495   6.370
 1552SOL    HW215999   1.496   1.521   6.209
 1553SOL     OW16000   1.135   0.703   6.303
 1553SOL    HW116001   1.192   0.781   6.278
 1553SOL    HW216002   1.075   0.729   6.379
 1554SOL     OW16003   1.755   0.607   5.817
 1554SOL    HW116004   1.743   0.594   5.718
 1554SOL    HW216005   1.725   0.526   5.866
 1555SOL     OW16006   0.768   1.144   6.609
 1555SOL    HW116007   0.690   1.161   6.669
 1555SOL    HW216008   0.802   1.231   6.573
 1556SOL     OW16009   0.850   0.798   7.409
 1556SOL    HW116010   0.846   0.874   7.474
 1556SOL    HW216011   0.872   0.834   7.318
 1557SOL     OW16012   0.685   1.012   6.251
 1557SOL    HW116013   0.754   0.996   6.321
 1557SOL    HW216014   0.612   1.069   6.289
 1558SOL     OW16015   0.686   1.161   7.389
 1558SOL    HW116016   0.746   1.240   7.403
 1558SOL    HW216017   0.600   1.192   7.348
 1559SOL     OW16018   0.335   1.435   6.647
 1559SOL    HW116019   0.257   1.404   6.594
 1559SOL    HW216020   0.393   1.493   6.590
 1560SOL     OW16021   1.460   1.505   6.925
 1560SOL    HW116022   1.484   1.599   6.951
 1560SOL    HW216023   1.444   1.451   7.007
 1561SOL     OW16024   0.438   0.392   7.085
 1561SOL    HW116025   0.520   0.336   7.094
 1561SOL    HW216026   0.357   0.334   7.089
 1562SOL     OW16027   1.603   0.447   6.323
 1562SOL    HW116028   1.529   0.493   6.273
 1562SOL    HW216029   1.654   0.515   6.376
 1563SOL     OW16030   0.231   1.713   6.069
 1563SOL    HW116031   0.265   1.790   6.123
 1563SOL    HW216032   0.275   1.713   5.979
 1564SOL     OW16033   1.127   1.341   7.276
 1564SOL    HW116034   1.174   1.341   7.364
 1564SOL    HW216035   1.079   1.254   7.265
 1565SOL     OW16036   0.230   1.434   6.124
 1565SOL    HW116037   0.204   1.530   6.124
 1565SOL    HW216038   0.159   1.380   6.169
 1566SOL     OW16039   0.240   1.091   6.472
 1566SOL    HW116040   0.254   1.007   6.524
 1566SOL    HW216041   0.185   1.155   6.527
 1567SOL     OW16042   0.620   1.786   7.025
 1567SOL    HW116043   0.528   1.769   7.060
 1567SOL    HW216044   0.648   1.878   7.051
 1568SOL     OW16045   0.606   0.964   5.709
 1568SOL    HW116046   0.613   1.048   5.655
 1568SOL    HW216047   0.652   0.977   5.797
 1569SOL     OW16048   1.594   0.114   7.066
 1569SOL    HW116049   1.576   0.181   6.994
 1569SOL    HW216050   1.591   0.160   7.155
 1570SOL     OW16051   0.122   0.643   6.149
 1570SOL    HW116052   0.077   0.555   6.166
 1570SOL    HW216053   0.121   0.697   6.233
 1571SOL     OW16054   1.842   1.767   5.945
 1571SOL    HW116055   1.896   1.738   6.025
 1571SOL    HW216056   1.872   1.857   5.916
 1572SOL     OW16057   0.027   1.596   5.703
 1572SOL    HW116058   0.008   1.500   5.724
 1572SOL    HW216059  -0.006   1.654   5.778
 1573SOL     OW16060   1.689   0.922   6.198
 1573SOL    HW116061   1.784   0.893   6.206
 1573SOL    HW216062   1.681   0.987   6.123
 1574SOL     OW16063   1.641   1.108   6.018
 1574SOL    HW116064   1.727   1.110   5.966
 1574SOL    HW216065   1.655   1.155   6.106
 1575SOL     OW16066   0.113   0.737   7.183
 1575SOL    HW116067   0.201   0.724   7.228
 1575SOL    HW216068   0.100   0.834   7.161
 1576SOL     OW16069   0.613   1.365   6.312
 1576SOL    HW116070   0.564   1.278   6.321
 1576SOL    HW216071   0.590   1.408   6.225
 1577SOL     OW16072   1.293   1.228   7.009
 1577SOL    HW116073   1.330   1.155   6.951
 1577SOL    HW216074   1.345   1.233   7.094
 1578SOL     OW16075   0.809   0.004   6.088
 1578SOL    HW116076   0.849   0.095   6.079
 1578SOL    HW216077   0.709   0.012   6.094
 1579SOL     OW16078   0.197   0.976   6.850
 1579SOL    HW116079   0.286   0.931   6.836
 1579SOL    HW216080   0.124   0.911   6.831
 1580SOL     OW16081   1.525   0.999   5.776
 1580SOL    HW116082   1.462   0.923   5.789
 1580SOL    HW216083   1.573   1.017   5.862
 1581SOL     OW16084   1.187   1.792   7.202
 1581SOL    HW116085   1.211   1.852   7.126
 1581SOL    HW216086   1.194   1.697   7.172
 1582SOL     OW16087   0.317   0.251   7.387
 1582SOL    HW116088   0.388   0.322   7.393
 1582SOL    HW216089   0.229   0.290   7.415
 1583SOL     OW16090   1.466   1.417   6.539
 1583SOL    HW116091   1.407   1.423   6.619
 1583SOL    HW216092   1.451   1.329   6.493
 1584SOL     OW16093   1.667   1.714   6.158
 1584SOL    HW116094   1.626   1.691   6.070
 1584SOL    HW216095   1.649   1.640   6.223
 1585SOL     OW16096   0.598   0.729   5.856
 1585SOL    HW116097   0.622   0.798   5.788
 1585SOL    HW216098   0.520   0.762   5.910
 1586SOL     OW16099   1.281   0.345   6.530
 1586SOL    HW116100   1.195   0.295   6.517
 1586SOL    HW216101   1.343   0.291   6.586
 1587SOL     OW16102   1.576   1.662   5.893
 1587SOL    HW116103   1.665   1.708   5.896
 1587SOL    HW216104   1.555   1.638   5.798
 1588SOL     OW16105   0.807   0.605   7.051
 1588SOL    HW116106   0.760   0.602   7.140
 1588SOL    HW216107   0.756   0.550   6.985
 1589SOL     OW16108   1.394   0.469   7.260
 1589SOL    HW116109   1.374   0.512   7.348
 1589SOL    HW216110   1.472   0.407   7.269
 1590SOL     OW16111   0.973   0.890   7.158
 1590SOL    HW116112   1.019   0.806   7.129
 1590SOL    HW216113   0.917   0.924   7.083
 1591SOL     OW16114   1.041   0.701   6.015
 1591SOL    HW116115   1.067   0.697   6.111
 1591SOL    HW216116   0.956   0.650   6.001
 1592SOL     OW16117   0.076   0.811   6.375
 1592SOL    HW116118   0.175   0.799   6.384
 1592SOL    HW216119   0.052   0.906   6.396
 1593SOL     OW16120   0.130   1.821   7.157
 1593SOL    HW116121   0.120   1.806   7.256
 1593SOL    HW216122   0.044   1.857   7.121
 1594SOL     OW16123   0.865   0.348   5.781
 1594SOL    HW116124   0.924   0.411   5.732
 1594SOL    HW216125   0.884   0.254   5.752
 1595SOL     OW16126   1.719   0.585   7.417
 1595SOL    HW116127   1.693   0.674   7.381
 1595SOL    HW216128   1.717   0.517   7.344
 1596SOL     OW16129   1.362   1.144   6.131
 1596SOL    HW116130   1.445   1.115   6.083
 1596SOL    HW216131   1.313   1.211   6.075
 1597SOL     OW16132   0.550   0.196   6.471
 1597SOL    HW116133   0.545   0.191   6.571
 1597SOL    HW216134   0.552   0.292   6.442
 1598SOL     OW16135   1.008   1.456   6.063
 1598SOL    HW116136   0.962   1.528   6.011
 1598SOL    HW216137   1.004   1.476   6.161
 1599SOL     OW16138   0.351   1.801   6.439
 1599SOL    HW116139   0.401   1.715   6.445
 1599SOL    HW216140   0.416   1.878   6.436
 1600SOL     OW16141   1.795   1.066   6.459
 1600SOL    HW116142   1.733   1.051   6.383
 1600SOL    HW216143   1.743   1.077   6.544
 1601SOL     OW16144   1.227   1.550   7.092
 1601SOL    HW116145   1.233   1.473   7.156
 1601SOL    HW216146   1.175   1.524   7.012
 1602SOL     OW16147   0.321   0.943   5.828
 1602SOL    HW116148   0.403   0.982   5.786
 1602SOL    HW216149   0.294   0.861   5.779
 1603SOL     OW16150   1.458   0.735   6.314
 1603SOL    HW116151   1.453   0.670   6.389
 1603SOL    HW216152   1.538   0.794   6.327
 1604SOL     OW16153   0.461   1.266   7.313
 1604SOL    HW116154   0.411   1.267   7.227
 1604SOL    HW216155   0.398   1.248   7.389
 1605SOL     OW16156   1.111   1.776   5.823
 1605SOL    HW116157   1.051   1.714   5.873
 1605SOL    HW216158   1.142   1.732   5.738
 1606SOL     OW16159   0.202   0.285   7.084
 1606SOL    HW116160   0.122   0.345   7.071
 1606SOL    HW216161   0.192   0.236   7.170
 1607SOL     OW16162   1.632   1.377   5.667
 1607SOL    HW116163   1.600   1.471   5.657
 1607SOL    HW216164   1.556   1.314   5.655
 1608SOL     OW16165   0.464   1.743   5.909
 1608SOL    HW116166   0.497   1.782   5.995
 1608SOL    HW216167   0.540   1.736   5.844
 1609SOL     OW16168   1.400   0.107   6.012
 1609SOL    HW116169   1.376   0.070   5.922
 1609SOL    HW216170   1.499   0.123   6.016
 1610SOL     OW16171   0.249   1.785   6.827
 1610SOL    HW116172   0.306   1.720   6.877
 1610SOL    HW216173   0.233   1.752   6.734
 1611SOL     OW16174   0.940   1.698   6.490
 1611SOL    HW116175   1.020   1.641   6.511
 1611SOL    HW216176   0.891   1.658   6.413
 1612SOL     OW16177   0.382   0.700   6.066
 1612SOL    HW116178   0.427   0.610   6.063
 1612SOL    HW216179   0.288   0.689   6.099
 1613SOL     OW16180   1.547   0.222   7.315
 1613SOL    HW116181   1.542   0.259   7.407
 1613SOL    HW216182   1.475   0.153   7.303
 1614SOL     OW16183   0.614   0.122   5.703
 1614SOL    HW116184   0.712   0.100   5.710
 1614SOL    HW216185   0.583   0.105   5.610
 1615SOL     OW16186   0.781   0.264   7.335
 1615SOL    HW116187   0.848   0.203   7.378
 1615SOL    HW216188   0.708   0.283   7.400
 1616SOL     OW16189   0.888   1.514   6.781
 1616SOL    HW116190   0.865   1.489   6.687
 1616SOL    HW216191   0.949   1.445   6.820
 1617SOL     OW16192   1.351   0.590   7.019
 1617SOL    HW116193   1.379   0.547   7.104
 1617SOL    HW216194   1.376   0.686   7.020
 1618SOL     OW16195   0.803   1.402   6.510
 1618SOL    HW116196   0.893   1.416   6.468
 1618SOL    HW216197   0.732   1.404   6.439
 1619SOL     OW16198   0.922   0.503   6.485
 1619SOL    HW116199   0.897   0.494   6.389
 1619SOL    HW216200   0.970   0.421   6.516
 1620SOL     OW16201   0.539   0.064   6.098
 1620SOL    HW116202   0.458   0.065   6.156
 1620SOL    HW216203   0.542   0.147   6.043
 1621SOL     OW16204   1.434   1.188   5.627
 1621SOL    HW116205   1.466   1.112   5.684
 1621SOL    HW216206   1.342   1.215   5.657
 1622SOL     OW16207   0.297   0.035   5.757
 1622SOL    HW116208   0.346   0.119   5.736
 1622SOL    HW216209   0.359  -0.030   5.802
 1623SOL     OW16210   0.935   0.236   6.066
 1623SOL    HW116211   0.887   0.277   5.988
 1623SOL    HW216212   1.034   0.234   6.047
 1624SOL     OW16213   1.076   0.683   7.050
 1624SOL    HW116214   0.996   0.622   7.053
 1624SOL    HW216215   1.157   0.630   7.026
 1625SOL     OW16216   1.227   1.570   6.379
 1625SOL    HW116217   1.248   1.644   6.314
 1625SOL    HW216218   1.295   1.570   6.452
 1626SOL     OW16219   0.459   1.152   6.327
 1626SOL    HW116220   0.388   1.125   6.392
 1626SOL    HW216221   0.433   1.124   6.234
 1627SOL     OW16222   1.271   1.797   6.177
 1627SOL    HW116223   1.315   1.861   6.113
 1627SOL    HW216224   1.221   1.849   6.247
 1628SOL     OW16225   1.032   0.549   5.602
 1628SOL    HW116226   0.991   0.631   5.563
 1628SOL    HW216227   1.096   0.575   5.675
 1629SOL     OW16228   0.078   0.556   6.972
 1629SOL    HW116229   0.170   0.555   6.931
 1629SOL    HW216230   0.072   0.630   7.039
 1630SOL     OW16231   0.561   0.222   6.733
 1630SOL    HW116232   0.599   0.138   6.770
 1630SOL    HW216233   0.473   0.241   6.777
 1631SOL     OW16234   0.866   0.454   6.228
 1631SOL    HW116235   0.834   0.526   6.166
 1631SOL    HW216236   0.890   0.373   6.175
 1632SOL     OW16237   1.017   0.039   6.339
 1632SOL    HW116238   0.945   0.044   6.270
 1632SOL    HW216239   0.993  -0.030   6.408
 1633SOL     OW16240   1.429   1.173   6.453
 1633SOL    HW116241   1.374   1.089   6.446
 1633SOL    HW216242   1.455   1.202   6.361
 1634SOL     OW16243   1.466   0.590   6.578
 1634SOL    HW116244   1.436   0.495   6.585
 1634SOL    HW216245   1.539   0.606   6.644
 1635SOL     OW16246   1.857   0.833   5.963
 1635SOL    HW116247   1.899   0.769   6.027
 1635SOL    HW216248   1.819   0.782   5.885
 1636SOL     OW16249   0.488   1.385   5.760
 1636SOL    HW116250   0.401   1.370   5.807
 1636SOL    HW216251   0.471   1.411   5.665
 1637SOL     OW16252   1.664   1.280   6.243
 1637SOL    HW116253   1.763   1.288   6.257
 1637SOL    HW216254   1.619   1.364   6.274
 1638SOL     OW16255   1.390   0.575   5.664
 1638SOL    HW116256   1.336   0.554   5.745
 1638SOL    HW216257   1.481   0.534   5.673
 1639SOL     OW16258   0.527   0.256   5.914
 1639SOL    HW116259   0.554   0.197   5.839
 1639SOL    HW216260   0.527   0.351   5.883
 1640SOL     OW16261   1.754   1.223   7.174
 1640SOL    HW116262   1.845   1.184   7.161
 1640SOL    HW216263   1.762   1.319   7.198
 1641SOL     OW16264   1.064   1.347   6.926
 1641SOL    HW116265   0.984   1.324   6.981
 1641SOL    HW216266   1.147   1.321   6.975
 1642SOL     OW16267   1.592   1.629   7.211
 1642SOL    HW116268   1.619   1.663   7.121
 1642SOL    HW216269   1.671   1.591   7.257
 1643SOL     OW16270   1.111   1.195   6.686
 1643SOL    HW116271   1.071   1.239   6.767
 1643SOL    HW216272   1.070   1.232   6.603
 1644SOL     OW16273   1.638   1.099   6.665
 1644SOL    HW116274   1.643   1.180   6.724
 1644SOL    HW216275   1.552   1.101   6.614
 1645SOL     OW16276   0.915   0.089   6.988
 1645SOL    HW116277   0.940   0.069   6.893
 1645SOL    HW216278   0.987   0.145   7.030
 1646SOL     OW16279   0.705   1.050   5.954
 1646SOL    HW116280   0.691   1.057   6.053
 1646SOL    HW216281   0.789   0.999   5.936
 1647SOL     OW16282   0.410   0.813   6.837
 1647SOL    HW116283   0.496   0.825   6.887
 1647SOL    HW216284   0.368   0.726   6.864
 1648SOL     OW16285   1.274   0.386   6.848
 1648SOL    HW116286   1.295   0.460   6.912
 1648SOL    HW216287   1.185   0.403   6.805
 1649SOL     OW16288   0.064   1.564   6.917
 1649SOL    HW116289   0.018   1.646   6.883
 1649SOL    HW216290   0.162   1.583   6.926
 1650SOL     OW16291   0.367   1.100   6.087
 1650SOL    HW116292   0.360   1.183   6.031
 1650SOL    HW216293   0.371   1.020   6.027
 1651SOL     OW16294   0.566   0.537   6.451
 1651SOL    HW116295   0.578   0.603   6.377
 1651SOL    HW216296   0.612   0.571   6.534
 1652SOL     OW16297   1.252   1.348   5.974
 1652SOL    HW116298   1.302   1.425   6.014
 1652SOL    HW216299   1.157   1.350   6.006
 1653SOL     OW16300   1.272   1.445   6.728
 1653SOL    HW116301   1.319   1.458   6.815
 1653SOL    HW216302   1.206   1.371   6.737
 1654SOL     OW16303   1.582   0.639   6.058
 1654SOL    HW116304   1.551   0.700   6.131
 1654SOL    HW216305   1.632   0.691   5.989
 1655SOL     OW16306   0.354   1.510   6.915
 1655SOL    HW116307   0.333   1.466   6.828
 1655SOL    HW216308   0.451   1.536   6.918
 1656SOL     OW16309   0.402   0.751   7.184
 1656SOL    HW116310   0.470   0.806   7.137
 1656SOL    HW216311   0.442   0.663   7.211
 1657SOL     OW16312   1.587   0.779   7.256
 1657SOL    HW116313   1.495   0.817   7.251
 1657SOL    HW216314   1.647   0.826   7.191
 1658SOL     OW16315   1.013   0.105   7.356
 1658SOL    HW116316   1.019   0.190   7.304
 1658SOL    HW216317   1.045   0.029   7.299
 1659SOL     OW16318   0.504   0.050   7.326
 1659SOL    HW116319   0.462  -0.007   7.256
 1659SOL    HW216320   0.438   0.119   7.358
 1660SOL     OW16321   0.573   0.870   6.615
 1660SOL    HW116322   0.617   0.959   6.606
 1660SOL    HW216323   0.510   0.870   6.692
 1661SOL     OW16324   1.360   0.862   6.631
 1661SOL    HW116325   1.285   0.862   6.565
 1661SOL    HW216326   1.397   0.770   6.640
 1662SOL     OW16327   1.209   0.525   5.861
 1662SOL    HW116328   1.222   0.441   5.915
 1662SOL    HW216329   1.180   0.599   5.921
 1663SOL     OW16330   0.307   0.213   6.817
 1663SOL    HW116331   0.284   0.250   6.907
 1663SOL    HW216332   0.277   0.118   6.811
 1664SOL     OW16333   0.037   1.310   6.868
 1664SOL    HW116334   0.090   1.261   6.936
 1664SOL    HW216335   0.059   1.408   6.873
 1665SOL     OW16336   0.732   0.634   6.650
 1665SOL    HW116337   0.791   0.608   6.574
 1665SOL    HW216338   0.704   0.730   6.639
 1666SOL     OW16339   1.728   0.935   7.440
 1666SOL    HW116340   1.682   0.928   7.351
 1666SOL    HW216341   1.666   0.979   7.506
 1667SOL     OW16342   0.307   0.063   6.204
 1667SOL    HW116343   0.296   0.157   6.237
 1667SOL    HW216344   0.302   0.000   6.281
 1668SOL     OW16345   1.622   0.367   5.960
 1668SOL    HW116346   1.624   0.291   6.024
 1668SOL    HW216347   1.574   0.444   6.000
 1669SOL     OW16348   1.023   0.766   6.552
 1669SOL    HW116349   1.038   0.787   6.648
 1669SOL    HW216350   0.993   0.671   6.543
 1670SOL     OW16351   0.980   1.573   7.286
 1670SOL    HW116352   0.960   1.617   7.198
 1670SOL    HW216353   1.019   1.482   7.270
 1671SOL     OW16354   1.859   1.518   7.191
 1671SOL    HW116355   1.873   1.545   7.096
 1671SOL    HW216356   1.942   1.540   7.244
 1672SOL     OW16357   0.350   0.898   7.390
 1672SOL    HW116358   0.426   0.942   7.438
 1672SOL    HW216359   0.385   0.851   7.308
 1673SOL     OW16360   1.540   0.274   5.711
 1673SOL    HW116361   1.479   0.199   5.734
 1673SOL    HW216362   1.562   0.326   5.794
 1674SOL     OW16363   1.303   0.838   5.628
 1674SOL    HW116364   1.337   0.745   5.643
 1674SOL    HW216365   1.321   0.865   5.533
 1675SOL     OW16366   1.068   1.333   6.435
 1675SOL    HW116367   1.075   1.249   6.380
 1675SOL    HW216368   1.130   1.402   6.399
 1676SOL     OW16369   0.319   0.810   6.535
 1676SOL    HW116370   0.412   0.846   6.540
 1676SOL    HW216371   0.313   0.725   6.587
 1677SOL     OW16372   0.339   0.509   6.592
 1677SOL    HW116373   0.287   0.426   6.575
 1677SOL    HW216374   0.416   0.514   6.528
 1678SOL     OW16375   1.138   0.380   7.264
 1678SOL    HW116376   1.093   0.443   7.328
 1678SOL    HW216377   1.231   0.411   7.247
 1679SOL     OW16378   1.160   0.207   7.063
 1679SOL    HW116379   1.160   0.271   7.140
 1679SOL    HW216380   1.188   0.255   6.980
 1680SOL     OW16381   0.008   1.326   5.786
 1680SOL    HW116382  -0.085   1.347   5.755
 1680SOL    HW216383   0.018   1.227   5.799
 1681SOL     OW16384   0.088   1.801   6.513
 1681SOL    HW116385   0.046   1.715   6.486
 1681SOL    HW216386   0.182   1.804   6.479
 1682SOL     OW16387   0.504   1.568   6.496
 1682SOL    HW116388   0.570   1.642   6.505
 1682SOL    HW216389   0.548   1.489   6.454
 1683SOL     OW16390   1.002   0.796   6.824
 1683SOL    HW116391   1.043   0.764   6.910
 1683SOL    HW216392   0.906   0.769   6.821
 1684SOL     OW16393   0.040   0.544   6.700
 1684SOL    HW116394   0.125   0.511   6.659
 1684SOL    HW216395   0.053   0.559   6.798
 1685SOL     OW16396   0.189   0.520   7.308
 1685SOL    HW116397   0.248   0.480   7.238
 1685SOL    HW216398   0.131   0.591   7.267
 1686SOL     OW16399   1.369   0.950   7.246
 1686SOL    HW116400   1.408   1.039   7.266
 1686SOL    HW216401   1.379   0.930   7.149
 1687SOL     OW16402   0.815   0.572   5.911
 1687SOL    HW116403   0.822   0.483   5.865
 1687SOL    HW216404   0.721   0.606   5.903
 1688SOL     OW16405   1.657   0.604   6.792
 1688SOL    HW116406   1.619   0.535   6.854
 1688SOL    HW216407   1.739   0.568   6.748
 1689SOL     OW16408   0.252   1.564   7.330
 1689SOL    HW116409   0.222   1.621   7.406
 1689SOL    HW216410   0.245   1.467   7.356
 1690SOL     OW16411   0.671   0.464   6.855
 1690SOL    HW116412   0.637   0.375   6.825
 1690SOL    HW216413   0.697   0.518   6.775
 1691SOL     OW16414   0.930   1.678   7.051
 1691SOL    HW116415   0.906   1.660   6.956
 1691SOL    HW216416   0.960   1.772   7.061
 1692SOL     OW16417   0.473   0.500   5.777
 1692SOL    HW116418   0.534   0.580   5.781
 1692SOL    HW216419   0.378   0.531   5.784
 1693SOL     OW16420   0.159   1.137   7.052
 1693SOL    HW116421   0.181   1.076   7.128
 1693SOL    HW216422   0.169   1.088   6.966
 1694SOL     OW16423   1.347   1.059   6.820
 1694SOL    HW116424   1.371   0.996   6.746
 1694SOL    HW216425   1.257   1.099   6.802
 1695SOL     OW16426   1.302   0.855   5.895
 1695SOL    HW116427   1.216   0.824   5.937
 1695SOL    HW216428   1.298   0.841   5.796
 1696SOL     OW16429   1.759   1.747   6.740
 1696SOL    HW116430   1.820   1.777   6.667
 1696SOL    HW216431   1.721   1.658   6.718
 1697SOL     OW16432   1.252   1.731   6.714
 1697SOL    HW116433   1.336   1.736   6.660
 1697SOL    HW216434   1.229   1.635   6.732
 1698SOL     OW16435   0.083   1.258   6.608
 1698SOL    HW116436   0.078   1.257   6.708
 1698SOL    HW216437   0.000   1.217   6.570
 1699SOL     OW16438   0.688   1.662   7.302
 1699SOL    HW116439   0.632   1.743   7.311
 1699SOL    HW216440   0.740   1.666   7.216
 1700SOL     OW16441   1.726   0.135   6.109
 1700SOL    HW116442   1.799   0.118   6.042
 1700SOL    HW216443   1.695   0.048   6.147
 1701SOL     OW16444   1.388   1.573   6.063
 1701SOL    HW116445   1.455   1.585   5.989
 1701SOL    HW216446   1.348   1.662   6.086
 1702SOL     OW16447   0.130   1.794   7.437
 1702SOL    HW116448   0.089   1.720   7.490
 1702SOL    HW216449   0.194   1.845   7.495
 1703SOL     OW16450   1.280   0.927   6.258
 1703SOL    HW116451   1.340   0.846   6.260
 1703SOL    HW216452   1.320   0.996   6.198
 1704SOL     OW16453   0.830   1.273   7.008
 1704SOL    HW116454   0.825   1.306   7.103
 1704SOL    HW216455   0.744   1.292   6.962
 1705SOL     OW16456   0.672   1.616   5.740
 1705SOL    HW116457   0.681   1.626   5.641
 1705SOL    HW216458   0.632   1.527   5.761
 1706SOL     OW16459   1.650   1.720   6.980
 1706SOL    HW116460   1.703   1.730   6.896
 1706SOL    HW216461   1.623   1.810   7.014
 1707SOL     OW16462   1.841   0.175   6.549
 1707SOL    HW116463   1.880   0.090   6.513
 1707SOL    HW216464   1.743   0.177   6.530
 1708SOL     OW16465   0.263   0.326   6.306
 1708SOL    HW116466   0.184   0.377   6.272
 1708SOL    HW216467   0.254   0.311   6.404
 1709SOL     OW16468   1.194   1.612   5.617
 1709SOL    HW116469   1.200   1.519   5.654
 1709SOL    HW216470   1.135   1.612   5.537
 1710SOL     OW16471   0.822   1.002   6.958
 1710SOL    HW116472   0.862   1.001   6.866
 1710SOL    HW216473   0.832   1.094   6.998
 1711SOL     OW16474   0.916   0.910   5.877
 1711SOL    HW116475   0.979   0.948   5.809
 1711SOL    HW216476   0.956   0.827   5.916
 1712SOL     OW16477   1.504   1.607   5.630
 1712SOL    HW116478   1.412   1.644   5.637
 1712SOL    HW216479   1.542   1.627   5.540
 1713SOL     OW16480   0.372   1.288   7.076
 1713SOL    HW116481   0.359   1.381   7.042
 1713SOL    HW216482   0.288   1.236   7.063
 1714SOL     OW16483   1.614   1.292   6.875
 1714SOL    HW116484   1.674   1.295   6.955
 1714SOL    HW216485   1.539   1.356   6.888
 1715SOL     OW16486   1.039   1.098   6.282
 1715SOL    HW116487   0.969   1.051   6.336
 1715SOL    HW216488   1.098   1.030   6.239
 1716SOL     OW16489   1.014   0.236   6.557
 1716SOL    HW116490   1.006   0.200   6.464
 1716SOL    HW216491   1.012   0.160   6.622
 1717SOL     OW16492   0.590   1.487   6.077
 1717SOL    HW116493   0.632   1.429   6.007
 1717SOL    HW216494   0.546   1.566   6.033
 1718SOL     OW16495   1.709   0.385   6.967
 1718SOL    HW116496   1.782   0.454   6.971
 1718SOL    HW216497   1.737   0.310   6.908
 1719SOL     OW16498   0.255   1.348   5.876
 1719SOL    HW116499   0.159   1.349   5.849
 1719SOL    HW216500   0.267   1.401   5.960
 1720SOL     OW16501   0.105   1.013   7.312
 1720SOL    HW116502   0.028   0.980   7.366
 1720SOL    HW216503   0.190   0.983   7.354
 1721SOL     OW16504   0.672   0.203   7.075
 1721SOL    HW116505   0.762   0.187   7.035
 1721SOL    HW216506   0.680   0.208   7.174
 1722SOL     OW16507   0.075   0.345   5.619
 1722SOL    HW116508  -0.017   0.317   5.590
 1722SOL    HW216509   0.106   0.422   5.563
 1723SOL     OW16510   1.440   0.856   6.984
 1723SOL    HW116511   1.383   0.908   6.921
 1723SOL    HW216512   1.536   0.868   6.960
 1724SOL     OW16513   0.072   0.166   5.904
 1724SOL    HW116514   0.055   0.249   5.850
 1724SOL    HW216515   0.162   0.129   5.882
 1725SOL     OW16516   1.183   1.335   5.705
 1725SOL    HW116517   1.084   1.324   5.707
 1725SOL    HW216518   1.217   1.350   5.798
 1726SOL     OW16519   0.613   0.842   7.017
 1726SOL    HW116520   0.669   0.923   7.000
 1726SOL    HW216521   0.672   0.762   7.020
 1727SOL     OW16522   1.493   1.767   6.545
 1727SOL    HW116523   1.526   1.831   6.476
 1727SOL    HW216524   1.559   1.761   6.620
 1728SOL     OW16525   0.716   0.565   7.294
 1728SOL    HW116526   0.735   0.630   7.368
 1728SOL    HW216527   0.776   0.485   7.303
 1729SOL     OW16528   1.450   1.220   7.219
 1729SOL    HW116529   1.441   1.210   7.318
 1729SOL    HW216530   1.546   1.213   7.193
 1730SOL     OW16531   0.390   1.741   7.146
 1730SOL    HW116532   0.299   1.782   7.144
 1730SOL    HW216533   0.383   1.647   7.178
 1731SOL     OW16534   1.674   0.883   6.840
 1731SOL    HW116535   1.647   0.794   6.803
 1731SOL    HW216536   1.675   0.951   6.767
 1732SOL     OW16537   1.225   0.325   6.035
 1732SOL    HW116538   1.290   0.251   6.024
 1732SOL    HW216539   1.245   0.375   6.119
 1733SOL     OW16540   0.594   0.745   6.238
 1733SOL    HW116541   0.644   0.830   6.219
 1733SOL    HW216542   0.506   0.747   6.190
 1734SOL     OW16543   1.777   0.342   7.228
 1734SOL    HW116544   1.760   0.373   7.134
 1734SOL    HW216545   1.693   0.305   7.266
 1735SOL     OW16546   1.730   0.934   7.103
 1735SOL    HW116547   1.768   1.025   7.118
 1735SOL    HW216548   1.722   0.917   7.004
 1736SOL     OW16549   0.859   1.374   5.602
 1736SOL    HW116550   0.813   1.389   5.690
 1736SOL    HW216551   0.903   1.459   5.572
 1737SOL     OW16552   0.661   1.790   6.539
 1737SOL    HW116553   0.615   1.878   6.526
 1737SOL    HW216554   0.760   1.802   6.532
 1738SOL     OW16555   0.859   0.956   6.447
 1738SOL    HW116556   0.913   0.887   6.495
 1738SOL    HW216557   0.827   1.025   6.513
 1739SOL     OW16558   1.083   0.984   5.673
 1739SOL    HW116559   1.060   1.037   5.591
 1739SOL    HW216560   1.164   0.928   5.654
 1740SOL     OW16561   1.861   1.569   6.437
 1740SOL    HW116562   1.790   1.557   6.367
 1740SOL    HW216563   1.862   1.490   6.497
 1741SOL     OW16564   0.221   1.314   7.430
 1741SOL    HW116565   0.156   1.241   7.409
 1741SOL    HW216566   0.225   1.328   7.528
 1742SOL     OW16567   0.079   1.240   6.239
 1742SOL    HW116568   0.078   1.193   6.327
 1742SOL    HW216569   0.161   1.212   6.188
 1743SOL     OW16570   0.672   1.391   7.210
 1743SOL    HW116571   0.594   1.341   7.248
 1743SOL    HW216572   0.669   1.486   7.241
 1744SOL     OW16573   1.824   0.192   6.813
 1744SOL    HW116574   1.820   0.102   6.857
 1744SOL    HW216575   1.827   0.181   6.714
 1745SOL     OW16576   0.428   0.424   6.106
 1745SOL    HW116577   0.458   0.352   6.044
 1745SOL    HW216578   0.389   0.384   6.189
 1746SOL     OW16579   1.705   1.487   6.690
 1746SOL    HW116580   1.612   1.462   6.663
 1746SOL    HW216581   1.731   1.437   6.772
 1747SOL     OW16582   0.317   0.547   6.866
 1747SOL    HW116583   0.355   0.488   6.938
 1747SOL    HW216584   0.357   0.521   6.778
 1748SOL     OW16585   0.812   1.586   6.273
 1748SOL    HW116586   0.844   1.596   6.179
 1748SOL    HW216587   0.733   1.524   6.275
 1749SOL     OW16588   1.424   0.214   6.698
 1749SOL    HW116589   1.476   0.149   6.753
 1749SOL    HW216590   1.375   0.277   6.759
 1750SOL     OW16591   1.001   0.034   6.740
 1750SOL    HW116592   0.938  -0.038   6.709
 1750SOL    HW216593   1.094  -0.002   6.740
 1751SOL     OW16594   0.770   1.330   5.887
 1751SOL    HW116595   0.724   1.243   5.904
 1751SOL    HW216596   0.861   1.327   5.928
 1752SOL     OW16597   0.618   1.567   6.870
 1752SOL    HW116598   0.613   1.649   6.927
 1752SOL    HW216599   0.707   1.564   6.825
 1753SOL     OW16600   1.352   0.052   5.754
 1753SOL    HW116601   1.387   0.011   5.670
 1753SOL    HW216602   1.262   0.014   5.774
 1754SOL     OW16603   1.300   0.453   6.277
 1754SOL    HW116604   1.241   0.533   6.281
 1754SOL    HW216605   1.315   0.418   6.370
 1755SOL     OW16606   1.593   0.221   6.468
 1755SOL    HW116607   1.509   0.220   6.522
 1755SOL    HW216608   1.595   0.304   6.412
 1756SOL     OW16609   0.039   1.077   5.886
 1756SOL    HW116610   0.138   1.066   5.877
 1756SOL    HW216611  -0.001   0.991   5.918
 1757SOL     OW16612   0.875   1.646   5.923
 1757SOL    HW116613   0.798   1.611   5.869
 1757SOL    HW216614   0.843   1.717   5.985
 1758SOL     OW16615   0.230   0.628   7.561
 1758SOL    HW116616   0.137   0.626   7.598
 1758SOL    HW216617   0.231   0.589   7.469
 1759SOL     OW16618   0.225   0.275   8.444
 1759SOL    HW116619   0.260   0.258   8.536
 1759SOL    HW216620   0.137   0.230   8.432
 1760SOL     OW16621   0.019   0.368   8.095
 1760SOL    HW116622  -0.063   0.411   8.134
 1760SOL    HW216623  -0.009   0.295   8.032
 1761SOL     OW16624   0.569   1.275   8.613
 1761SOL    HW116625   0.476   1.268   8.576
 1761SOL    HW216626   0.580   1.364   8.657
 1762SOL     OW16627   1.555   1.511   8.151
 1762SOL    HW116628   1.498   1.495   8.232
 1762SOL    HW216629   1.496   1.521   8.071
 1763SOL     OW16630   1.135   0.703   8.165
 1763SOL    HW116631   1.192   0.781   8.140
 1763SOL    HW216632   1.075   0.729   8.241
 1764SOL     OW16633   1.755   0.607   7.679
 1764SOL    HW116634   1.743   0.594   7.580
 1764SOL    HW216635   1.725   0.526   7.728
 1765SOL     OW16636   0.768   1.144   8.471
 1765SOL    HW116637   0.690   1.161   8.531
 1765SOL    HW216638   0.802   1.231   8.435
 1766SOL     OW16639   0.850   0.798   9.271
 1766SOL    HW116640   0.846   0.874   9.336
 1766SOL    HW216641   0.872   0.834   9.180
 1767SOL     OW16642   0.685   1.012   8.113
 1767SOL    HW116643   0.754   0.996   8.183
 1767SOL    HW216644   0.612   1.069   8.151
 1768SOL     OW16645   0.686   1.161   9.251
 1768SOL    HW116646   0.746   1.240   9.265
 1768SOL    HW216647   0.600   1.192   9.210
 1769SOL     OW16648   0.335   1.435   8.509
 1769SOL    HW116649   0.257   1.404   8.456
 1769SOL    HW216650   0.393   1.493   8.452
 1770SOL     OW16651   1.460   1.505   8.787
 1770SOL    HW116652   1.484   1.599   8.813
 1770SOL    HW216653   1.444   1.451   8.869
 1771SOL     OW16654   0.438   0.392   8.947
 1771SOL    HW116655   0.520   0.336   8.956
 1771SOL    HW216656   0.357   0.334   8.951
 1772SOL     OW16657   1.603   0.447   8.185
 1772SOL    HW116658   1.529   0.493   8.135
 1772SOL    HW216659   1.654   0.515   8.238
 1773SOL     OW16660   0.231   1.713   7.931
 1773SOL    HW116661   0.265   1.790   7.985
 1773SOL    HW216662   0.275   1.713   7.841
 1774SOL     OW16663   1.127   1.341   9.138
 1774SOL    HW116664   1.174   1.341   9.226
 1774SOL    HW216665   1.079   1.254   9.127
 1775SOL     OW16666   0.230   1.434   7.986
 1775SOL    HW116667   0.204   1.530   7.986
 1775SOL    HW216668   0.159   1.380   8.031
 1776SOL     OW16669   0.240   1.091   8.334
 1776SOL    HW116670   0.254   1.007   8.386
 1776SOL    HW216671   0.185   1.155   8.389
 1777SOL     OW16672   0.620   1.786   8.887
 1777SOL    HW116673   0.528   1.769   8.922
 1777SOL    HW216674   0.648   1.878   8.913
 1778SOL     OW16675   0.606   0.964   7.571
 1778SOL    HW116676   0.613   1.048   7.517
 1778SOL    HW216677   0.652   0.977   7.659
 1779SOL     OW16678   0.122   0.643   8.011
 1779SOL    HW116679   0.077   0.555   8.028
 1779SOL    HW216680   0.121   0.697   8.095
 1780SOL     OW16681   1.842   1.767   7.807
 1780SOL    HW116682   1.896   1.738   7.887
 1780SOL    HW216683   1.872   1.857   7.778
 1781SOL     OW16684   0.027   1.596   7.565
 1781SOL    HW116685   0.008   1.500   7.586
 1781SOL    HW216686  -0.006   1.654   7.640
 1782SOL     OW16687   1.689   0.922   8.060
 1782SOL    HW116688   1.784   0.893   8.068
 1782SOL    HW216689   1.681   0.987   7.985
 1783SOL     OW16690   1.641   1.108   7.880
 1783SOL    HW116691   1.727   1.110   7.828
 1783SOL    HW216692   1.655   1.155   7.968
 1784SOL     OW16693   0.613   1.365   8.174
 1784SOL    HW116694   0.564   1.278   8.183
 1784SOL    HW216695   0.590   1.408   8.087
 1785SOL     OW16696   1.293   1.228   8.871
 1785SOL    HW116697   1.330   1.155   8.813
 1785SOL    HW216698   1.345   1.233   8.956
 1786SOL     OW16699   0.809   0.004   7.950
 1786SOL    HW116700   0.849   0.095   7.941
 1786SOL    HW216701   0.709   0.012   7.956
 1787SOL     OW16702   0.197   0.976   8.712
 1787SOL    HW116703   0.286   0.931   8.698
 1787SOL    HW216704   0.124   0.911   8.693
 1788SOL     OW16705   1.525   0.999   7.638
 1788SOL    HW116706   1.462   0.923   7.651
 1788SOL    HW216707   1.573   1.017   7.724
 1789SOL     OW16708   1.187   1.792   9.064
 1789SOL    HW116709   1.211   1.852   8.988
 1789SOL    HW216710   1.194   1.697   9.034
 1790SOL     OW16711   0.317   0.251   9.249
 1790SOL    HW116712   0.388   0.322   9.255
 1790SOL    HW216713   0.229   0.290   9.277
 1791SOL     OW16714   1.466   1.417   8.401
 1791SOL    HW116715   1.407   1.423   8.481
 1791SOL    HW216716   1.451   1.329   8.355
 1792SOL     OW16717   1.667   1.714   8.020
 1792SOL    HW116718   1.626   1.691   7.932
 1792SOL    HW216719   1.649   1.640   8.085
 1793SOL     OW16720   0.598   0.729   7.718
 1793SOL    HW116721   0.622   0.798   7.650
 1793SOL    HW216722   0.520   0.762   7.772
 1794SOL     OW16723   1.281   0.345   8.392
 1794SOL    HW116724   1.195   0.295   8.379
 1794SOL    HW216725   1.343   0.291   8.448
 1795SOL     OW16726   1.576   1.662   7.755
 1795SOL    HW116727   1.665   1.708   7.758
 1795SOL    HW216728   1.555   1.638   7.660
 1796SOL     OW16729   0.807   0.605   8.913
 1796SOL    HW116730   0.760   0.602   9.002
 1796SOL    HW216731   0.756   0.550   8.847
 1797SOL     OW16732   0.973   0.890   9.020
 1797SOL    HW116733   1.019   0.806   8.991
 1797SOL    HW216734   0.917   0.924   8.945
 1798SOL     OW16735   0.991   0.410   8.690
 1798SOL    HW116736   0.914   0.444   8.744
 1798SOL    HW216737   0.957   0.359   8.611
 1799SOL     OW16738   1.041   0.701   7.877
 1799SOL    HW116739   1.067   0.697   7.973
 1799SOL    HW216740   0.956   0.650   7.863
 1800SOL     OW16741   0.076   0.811   8.237
 1800SOL    HW116742   0.175   0.799   8.246
 1800SOL    HW216743   0.052   0.906   8.258
 1801SOL     OW16744   0.130   1.821   9.019
 1801SOL    HW116745   0.120   1.806   9.118
 1801SOL    HW216746   0.044   1.857   8.983
 1802SOL     OW16747   0.865   0.348   7.643
 1802SOL    HW116748   0.924   0.411   7.594
 1802SOL    HW216749   0.884   0.254   7.614
 1803SOL     OW16750   1.362   1.144   7.993
 1803SOL    HW116751   1.445   1.115   7.945
 1803SOL    HW216752   1.313   1.211   7.937
 1804SOL     OW16753   0.550   0.196   8.333
 1804SOL    HW116754   0.545   0.191   8.433
 1804SOL    HW216755   0.552   0.292   8.304
 1805SOL     OW16756   1.008   1.456   7.925
 1805SOL    HW116757   0.962   1.528   7.873
 1805SOL    HW216758   1.004   1.476   8.023
 1806SOL     OW16759   0.351   1.801   8.301
 1806SOL    HW116760   0.401   1.715   8.307
 1806SOL    HW216761   0.416   1.878   8.298
 1807SOL     OW16762   1.795   1.066   8.321
 1807SOL    HW116763   1.733   1.051   8.245
 1807SOL    HW216764   1.743   1.077   8.406
 1808SOL     OW16765   1.227   1.550   8.954
 1808SOL    HW116766   1.233   1.473   9.018
 1808SOL    HW216767   1.175   1.524   8.874
 1809SOL     OW16768   0.321   0.943   7.690
 1809SOL    HW116769   0.403   0.982   7.648
 1809SOL    HW216770   0.294   0.861   7.641
 1810SOL     OW16771   1.458   0.735   8.176
 1810SOL    HW116772   1.453   0.670   8.251
 1810SOL    HW216773   1.538   0.794   8.189
 1811SOL     OW16774   0.461   1.266   9.175
 1811SOL    HW116775   0.411   1.267   9.089
 1811SOL    HW216776   0.398   1.248   9.251
 1812SOL     OW16777   1.111   1.776   7.685
 1812SOL    HW116778   1.051   1.714   7.735
 1812SOL    HW216779   1.142   1.732   7.600
 1813SOL     OW16780   0.202   0.285   8.946
 1813SOL    HW116781   0.122   0.345   8.933
 1813SOL    HW216782   0.192   0.236   9.032
 1814SOL     OW16783   1.632   1.377   7.529
 1814SOL    HW116784   1.600   1.471   7.519
 1814SOL    HW216785   1.556   1.314   7.517
 1815SOL     OW16786   0.464   1.743   7.771
 1815SOL    HW116787   0.497   1.782   7.857
 1815SOL    HW216788   0.540   1.736   7.706
 1816SOL     OW16789   1.400   0.107   7.874
 1816SOL    HW116790   1.376   0.070   7.784
 1816SOL    HW216791   1.499   0.123   7.878
 1817SOL     OW16792   0.249   1.785   8.689
 1817SOL    HW116793   0.306   1.720   8.739
 1817SOL    HW216794   0.233   1.752   8.596
 1818SOL     OW16795   0.940   1.698   8.352
 1818SOL    HW116796   1.020   1.641   8.373
 1818SOL    HW216797   0.891   1.658   8.275
 1819SOL     OW16798   0.382   0.700   7.928
 1819SOL    HW116799   0.427   0.610   7.925
 1819SOL    HW216800   0.288   0.689   7.961
 1820SOL     OW16801   0.614   0.122   7.565
 1820SOL    HW116802   0.712   0.100   7.572
 1820SOL    HW216803   0.583   0.105   7.472
 1821SOL     OW16804   0.888   1.514   8.643
 1821SOL    HW116805   0.865   1.489   8.549
 1821SOL    HW216806   0.949   1.445   8.682
 1822SOL     OW16807   1.351   0.590   8.881
 1822SOL    HW116808   1.379   0.547   8.966
 1822SOL    HW216809   1.376   0.686   8.882
 1823SOL     OW16810   0.803   1.402   8.372
 1823SOL    HW116811   0.893   1.416   8.330
 1823SOL    HW216812   0.732   1.404   8.301
 1824SOL     OW16813   0.922   0.503   8.347
 1824SOL    HW116814   0.897   0.494   8.251
 1824SOL    HW216815   0.970   0.421   8.378
 1825SOL     OW16816   0.539   0.064   7.960
 1825SOL    HW116817   0.458   0.065   8.018
 1825SOL    HW216818   0.542   0.147   7.905
 1826SOL     OW16819   1.434   1.188   7.489
 1826SOL    HW116820   1.466   1.112   7.546
 1826SOL    HW216821   1.342   1.215   7.519
 1827SOL     OW16822   0.297   0.035   7.619
 1827SOL    HW116823   0.346   0.119   7.598
 1827SOL    HW216824   0.359  -0.030   7.664
 1828SOL     OW16825   0.935   0.236   7.928
 1828SOL    HW116826   0.887   0.277   7.850
 1828SOL    HW216827   1.034   0.234   7.909
 1829SOL     OW16828   1.076   0.683   8.912
 1829SOL    HW116829   0.996   0.622   8.915
 1829SOL    HW216830   1.157   0.630   8.888
 1830SOL     OW16831   1.227   1.570   8.241
 1830SOL    HW116832   1.248   1.644   8.176
 1830SOL    HW216833   1.295   1.570   8.314
 1831SOL     OW16834   0.459   1.152   8.189
 1831SOL    HW116835   0.388   1.125   8.254
 1831SOL    HW216836   0.433   1.124   8.096
 1832SOL     OW16837   1.271   1.797   8.039
 1832SOL    HW116838   1.315   1.861   7.975
 1832SOL    HW216839   1.221   1.849   8.109
 1833SOL     OW16840   1.032   0.549   7.464
 1833SOL    HW116841   0.991   0.631   7.425
 1833SOL    HW216842   1.096   0.575   7.537
 1834SOL     OW16843   0.078   0.556   8.834
 1834SOL    HW116844   0.170   0.555   8.793
 1834SOL    HW216845   0.072   0.630   8.901
 1835SOL     OW16846   0.561   0.222   8.595
 1835SOL    HW116847   0.599   0.138   8.632
 1835SOL    HW216848   0.473   0.241   8.639
 1836SOL     OW16849   0.866   0.454   8.090
 1836SOL    HW116850   0.834   0.526   8.028
 1836SOL    HW216851   0.890   0.373   8.037
 1837SOL     OW16852   1.017   0.039   8.201
 1837SOL    HW116853   0.945   0.044   8.132
 1837SOL    HW216854   0.993  -0.030   8.270
 1838SOL     OW16855   1.429   1.173   8.315
 1838SOL    HW116856   1.374   1.089   8.308
 1838SOL    HW216857   1.455   1.202   8.223
 1839SOL     OW16858   1.466   0.590   8.440
 1839SOL    HW116859   1.436   0.495   8.447
 1839SOL    HW216860   1.539   0.606   8.506
 1840SOL     OW16861   1.857   0.833   7.825
 1840SOL    HW116862   1.899   0.769   7.889
 1840SOL    HW216863   1.819   0.782   7.747
 1841SOL     OW16864   0.488   1.385   7.622
 1841SOL    HW116865   0.401   1.370   7.669
 1841SOL    HW216866   0.471   1.411   7.527
 1842SOL     OW16867   1.664   1.280   8.105
 1842SOL    HW116868   1.763   1.288   8.119
 1842SOL    HW216869   1.619   1.364   8.136
 1843SOL     OW16870   1.390   0.575   7.526
 1843SOL    HW116871   1.336   0.554   7.607
 1843SOL    HW216872   1.481   0.534   7.535
 1844SOL     OW16873   0.527   0.256   7.776
 1844SOL    HW116874   0.554   0.197   7.701
 1844SOL    HW216875   0.527   0.351   7.745
 1845SOL     OW16876   1.754   1.223   9.036
 1845SOL    HW116877   1.845   1.184   9.023
 1845SOL    HW216878   1.762   1.319   9.060
 1846SOL     OW16879   1.064   1.347   8.788
 1846SOL    HW116880   0.984   1.324   8.843
 1846SOL    HW216881   1.147   1.321   8.837
 1847SOL     OW16882   1.592   1.629   9.073
 1847SOL    HW116883   1.619   1.663   8.983
 1847SOL    HW216884   1.671   1.591   9.119
 1848SOL     OW16885   1.111   1.195   8.548
 1848SOL    HW116886   1.071   1.239   8.629
 1848SOL    HW216887   1.070   1.232   8.465
 1849SOL     OW16888   1.638   1.099   8.527
 1849SOL    HW116889   1.643   1.180   8.586
 1849SOL    HW216890   1.552   1.101   8.476
 1850SOL     OW16891   0.915   0.089   8.850
 1850SOL    HW116892   0.940   0.069   8.755
 1850SOL    HW216893   0.987   0.145   8.892
 1851SOL     OW16894   0.980   1.116   9.167
 1851SOL    HW116895   0.881   1.122   9.177
 1851SOL    HW216896   1.003   1.036   9.111
 1852SOL     OW16897   0.705   1.050   7.816
 1852SOL    HW116898   0.691   1.057   7.915
 1852SOL    HW216899   0.789   0.999   7.798
 1853SOL     OW16900   0.410   0.813   8.699
 1853SOL    HW116901   0.496   0.825   8.749
 1853SOL    HW216902   0.368   0.726   8.726
 1854SOL     OW16903   1.274   0.386   8.710
 1854SOL    HW116904   1.295   0.460   8.774
 1854SOL    HW216905   1.185   0.403   8.667
 1855SOL     OW16906   0.064   1.564   8.779
 1855SOL    HW116907   0.018   1.646   8.745
 1855SOL    HW216908   0.162   1.583   8.788
 1856SOL     OW16909   0.367   1.100   7.949
 1856SOL    HW116910   0.360   1.183   7.893
 1856SOL    HW216911   0.371   1.020   7.889
 1857SOL     OW16912   0.566   0.537   8.313
 1857SOL    HW116913   0.578   0.603   8.239
 1857SOL    HW216914   0.612   0.571   8.396
 1858SOL     OW16915   1.252   1.348   7.836
 1858SOL    HW116916   1.302   1.425   7.876
 1858SOL    HW216917   1.157   1.350   7.868
 1859SOL     OW16918   1.272   1.445   8.590
 1859SOL    HW116919   1.319   1.458   8.677
 1859SOL    HW216920   1.206   1.371   8.599
 1860SOL     OW16921   1.582   0.639   7.920
 1860SOL    HW116922   1.551   0.700   7.993
 1860SOL    HW216923   1.632   0.691   7.851
 1861SOL     OW16924   0.354   1.510   8.777
 1861SOL    HW116925   0.333   1.466   8.690
 1861SOL    HW216926   0.451   1.536   8.780
 1862SOL     OW16927   0.402   0.751   9.046
 1862SOL    HW116928   0.470   0.806   8.999
 1862SOL    HW216929   0.442   0.663   9.073
 1863SOL     OW16930   1.587   0.779   9.118
 1863SOL    HW116931   1.495   0.817   9.113
 1863SOL    HW216932   1.647   0.826   9.053
 1864SOL     OW16933   0.504   0.050   9.188
 1864SOL    HW116934   0.462  -0.007   9.118
 1864SOL    HW216935   0.438   0.119   9.220
 1865SOL     OW16936   0.573   0.870   8.477
 1865SOL    HW116937   0.617   0.959   8.468
 1865SOL    HW216938   0.510   0.870   8.554
 1866SOL     OW16939   1.360   0.862   8.493
 1866SOL    HW116940   1.285   0.862   8.427
 1866SOL    HW216941   1.397   0.770   8.502
 1867SOL     OW16942   1.209   0.525   7.723
 1867SOL    HW116943   1.222   0.441   7.777
 1867SOL    HW216944   1.180   0.599   7.783
 1868SOL     OW16945   0.307   0.213   8.679
 1868SOL    HW116946   0.284   0.250   8.769
 1868SOL    HW216947   0.277   0.118   8.673
 1869SOL     OW16948   0.037   1.310   8.730
 1869SOL    HW116949   0.090   1.261   8.798
 1869SOL    HW216950   0.059   1.408   8.735
 1870SOL     OW16951   0.732   0.634   8.512
 1870SOL    HW116952   0.791   0.608   8.436
 1870SOL    HW216953   0.704   0.730   8.501
 1871SOL     OW16954   1.728   0.935   9.302
 1871SOL    HW116955   1.682   0.928   9.213
 1871SOL    HW216956   1.666   0.979   9.368
 1872SOL     OW16957   0.307   0.063   8.066
 1872SOL    HW116958   0.296   0.157   8.099
 1872SOL    HW216959   0.302   0.000   8.143
 1873SOL     OW16960   1.622   0.367   7.822
 1873SOL    HW116961   1.624   0.291   7.886
 1873SOL    HW216962   1.574   0.444   7.862
 1874SOL     OW16963   1.023   0.766   8.414
 1874SOL    HW116964   1.038   0.787   8.510
 1874SOL    HW216965   0.993   0.671   8.405
 1875SOL     OW16966   0.980   1.573   9.148
 1875SOL    HW116967   0.960   1.617   9.060
 1875SOL    HW216968   1.019   1.482   9.132
 1876SOL     OW16969   0.350   0.898   9.252
 1876SOL    HW116970   0.426   0.942   9.300
 1876SOL    HW216971   0.385   0.851   9.170
 1877SOL     OW16972   1.540   0.274   7.573
 1877SOL    HW116973   1.479   0.199   7.596
 1877SOL    HW216974   1.562   0.326   7.656
 1878SOL     OW16975   1.303   0.838   7.490
 1878SOL    HW116976   1.337   0.745   7.505
 1878SOL    HW216977   1.321   0.865   7.395
 1879SOL     OW16978   1.068   1.333   8.297
 1879SOL    HW116979   1.075   1.249   8.242
 1879SOL    HW216980   1.130   1.402   8.261
 1880SOL     OW16981   0.319   0.810   8.397
 1880SOL    HW116982   0.412   0.846   8.402
 1880SOL    HW216983   0.313   0.725   8.449
 1881SOL     OW16984   0.339   0.509   8.454
 1881SOL    HW116985   0.287   0.426   8.437
 1881SOL    HW216986   0.416   0.514   8.390
 1882SOL     OW16987   1.138   0.380   9.126
 1882SOL    HW116988   1.093   0.443   9.190
 1882SOL    HW216989   1.231   0.411   9.109
 1883SOL     OW16990   1.160   0.207   8.925
 1883SOL    HW116991   1.160   0.271   9.002
 1883SOL    HW216992   1.188   0.255   8.842
 1884SOL     OW16993   0.008   1.326   7.648
 1884SOL    HW116994  -0.085   1.347   7.617
 1884SOL    HW216995   0.018   1.227   7.661
 1885SOL     OW16996   0.088   1.801   8.375
 1885SOL    HW116997   0.046   1.715   8.348
 1885SOL    HW216998   0.182   1.804   8.341
 1886SOL     OW16999   0.504   1.568   8.358
 1886SOL    HW117000   0.570   1.642   8.367
 1886SOL    HW217001   0.548   1.489   8.316
 1887SOL     OW17002   1.002   0.796   8.686
 1887SOL    HW117003   1.043   0.764   8.772
 1887SOL    HW217004   0.906   0.769   8.683
 1888SOL     OW17005   0.040   0.544   8.562
 1888SOL    HW117006   0.125   0.511   8.521
 1888SOL    HW217007   0.053   0.559   8.660
 1889SOL     OW17008   0.189   0.520   9.170
 1889SOL    HW117009   0.248   0.480   9.100
 1889SOL    HW217010   0.131   0.591   9.129
 1890SOL     OW17011   1.369   0.950   9.108
 1890SOL    HW117012   1.408   1.039   9.128
 1890SOL    HW217013   1.379   0.930   9.011
 1891SOL     OW17014   0.815   0.572   7.773
 1891SOL    HW117015   0.822   0.483   7.727
 1891SOL    HW217016   0.721   0.606   7.765
 1892SOL     OW17017   1.657   0.604   8.654
 1892SOL    HW117018   1.619   0.535   8.716
 1892SOL    HW217019   1.739   0.568   8.610
 1893SOL     OW17020   0.252   1.564   9.192
 1893SOL    HW117021   0.222   1.621   9.268
 1893SOL    HW217022   0.245   1.467   9.218
 1894SOL     OW17023   0.671   0.464   8.717
 1894SOL    HW117024   0.637   0.375   8.687
 1894SOL    HW217025   0.697   0.518   8.637
 1895SOL     OW17026   0.930   1.678   8.913
 1895SOL    HW117027   0.906   1.660   8.818
 1895SOL    HW217028   0.960   1.772   8.923
 1896SOL     OW17029   0.473   0.500   7.639
 1896SOL    HW117030   0.534   0.580   7.643
 1896SOL    HW217031   0.378   0.531   7.646
 1897SOL     OW17032   1.347   1.059   8.682
 1897SOL    HW117033   1.371   0.996   8.608
 1897SOL    HW217034   1.257   1.099   8.664
 1898SOL     OW17035   1.302   0.855   7.757
 1898SOL    HW117036   1.216   0.824   7.799
 1898SOL    HW217037   1.298   0.841   7.658
 1899SOL     OW17038   1.759   1.747   8.602
 1899SOL    HW117039   1.820   1.777   8.529
 1899SOL    HW217040   1.721   1.658   8.580
 1900SOL     OW17041   1.252   1.731   8.576
 1900SOL    HW117042   1.336   1.736   8.522
 1900SOL    HW217043   1.229   1.635   8.594
 1901SOL     OW17044   0.083   1.258   8.470
 1901SOL    HW117045   0.078   1.257   8.570
 1901SOL    HW217046   0.000   1.217   8.432
 1902SOL     OW17047   0.688   1.662   9.164
 1902SOL    HW117048   0.632   1.743   9.173
 1902SOL    HW217049   0.740   1.666   9.078
 1903SOL     OW17050   1.726   0.135   7.971
 1903SOL    HW117051   1.799   0.118   7.904
 1903SOL    HW217052   1.695   0.048   8.009
 1904SOL     OW17053   1.388   1.573   7.925
 1904SOL    HW117054   1.455   1.585   7.851
 1904SOL    HW217055   1.348   1.662   7.948
 1905SOL     OW17056   0.130   1.794   9.299
 1905SOL    HW117057   0.089   1.720   9.352
 1905SOL    HW217058   0.194   1.845   9.357
 1906SOL     OW17059   1.280   0.927   8.120
 1906SOL    HW117060   1.340   0.846   8.122
 1906SOL    HW217061   1.320   0.996   8.060
 1907SOL     OW17062   0.830   1.273   8.870
 1907SOL    HW117063   0.825   1.306   8.965
 1907SOL    HW217064   0.744   1.292   8.824
 1908SOL     OW17065   0.672   1.616   7.602
 1908SOL    HW117066   0.681   1.626   7.503
 1908SOL    HW217067   0.632   1.527   7.623
 1909SOL     OW17068   1.650   1.720   8.842
 1909SOL    HW117069   1.703   1.730   8.758
 1909SOL    HW217070   1.623   1.810   8.876
 1910SOL     OW17071   1.841   0.175   8.411
 1910SOL    HW117072   1.880   0.090   8.375
 1910SOL    HW217073   1.743   0.177   8.392
 1911SOL     OW17074   0.263   0.326   8.168
 1911SOL    HW117075   0.184   0.377   8.134
 1911SOL    HW217076   0.254   0.311   8.266
 1912SOL     OW17077   1.194   1.612   7.479
 1912SOL    HW117078   1.200   1.519   7.516
 1912SOL    HW217079   1.135   1.612   7.399
 1913SOL     OW17080   0.822   1.002   8.820
 1913SOL    HW117081   0.862   1.001   8.728
 1913SOL    HW217082   0.832   1.094   8.860
 1914SOL     OW17083   0.916   0.910   7.739
 1914SOL    HW117084   0.979   0.948   7.671
 1914SOL    HW217085   0.956   0.827   7.778
 1915SOL     OW17086   1.504   1.607   7.492
 1915SOL    HW117087   1.412   1.644   7.499
 1915SOL    HW217088   1.542   1.627   7.402
 1916SOL     OW17089   0.372   1.288   8.938
 1916SOL    HW117090   0.359   1.381   8.904
 1916SOL    HW217091   0.288   1.236   8.925
 1917SOL     OW17092   1.614   1.292   8.737
 1917SOL    HW117093   1.674   1.295   8.817
 1917SOL    HW217094   1.539   1.356   8.750
 1918SOL     OW17095   1.039   1.098   8.144
 1918SOL    HW117096   0.969   1.051   8.198
 1918SOL    HW217097   1.098   1.030   8.101
 1919SOL     OW17098   1.014   0.236   8.419
 1919SOL    HW117099   1.006   0.200   8.326
 1919SOL    HW217100   1.012   0.160   8.484
 1920SOL     OW17101   0.590   1.487   7.939
 1920SOL    HW117102   0.632   1.429   7.869
 1920SOL    HW217103   0.546   1.566   7.895
 1921SOL     OW17104   0.255   1.348   7.738
 1921SOL    HW117105   0.159   1.349   7.711
 1921SOL    HW217106   0.267   1.401   7.822
 1922SOL     OW17107   0.672   0.203   8.937
 1922SOL    HW117108   0.762   0.187   8.897
 1922SOL    HW217109   0.680   0.208   9.036
 1923SOL     OW17110   0.075   0.345   7.481
 1923SOL    HW117111  -0.017   0.317   7.452
 1923SOL    HW217112   0.106   0.422   7.425
 1924SOL     OW17113   1.440   0.856   8.846
 1924SOL    HW117114   1.383   0.908   8.783
 1924SOL    HW217115   1.536   0.868   8.822
 1925SOL     OW17116   0.072   0.166   7.766
 1925SOL    HW117117   0.055   0.249   7.712
 1925SOL    HW217118   0.162   0.129   7.744
 1926SOL     OW17119   1.183   1.335   7.567
 1926SOL    HW117120   1.084   1.324   7.569
 1926SOL    HW217121   1.217   1.350   7.660
 1927SOL     OW17122   0.613   0.842   8.879
 1927SOL    HW117123   0.669   0.923   8.862
 1927SOL    HW217124   0.672   0.762   8.882
 1928SOL     OW17125   1.493   1.767   8.407
 1928SOL    HW117126   1.526   1.831   8.338
 1928SOL    HW217127   1.559   1.761   8.482
 1929SOL     OW17128   0.716   0.565   9.156
 1929SOL    HW117129   0.735   0.630   9.230
 1929SOL    HW217130   0.776   0.485   9.165
 1930SOL     OW17131   1.450   1.220   9.081
 1930SOL    HW117132   1.441   1.210   9.180
 1930SOL    HW217133   1.546   1.213   9.055
 1931SOL     OW17134   0.390   1.741   9.008
 1931SOL    HW117135   0.299   1.782   9.006
 1931SOL    HW217136   0.383   1.647   9.040
 1932SOL     OW17137   1.674   0.883   8.702
 1932SOL    HW117138   1.647   0.794   8.665
 1932SOL    HW217139   1.675   0.951   8.629
 1933SOL     OW17140   0.594   0.745   8.100
 1933SOL    HW117141   0.644   0.830   8.081
 1933SOL    HW217142   0.506   0.747   8.052
 1934SOL     OW17143   1.730   0.934   8.965
 1934SOL    HW117144   1.768   1.025   8.980
 1934SOL    HW217145   1.722   0.917   8.866
 1935SOL     OW17146   0.859   1.374   7.464
 1935SOL    HW117147   0.813   1.389   7.552
 1935SOL    HW217148   0.903   1.459   7.434
 1936SOL     OW17149   0.661   1.790   8.401
 1936SOL    HW117150   0.615   1.878   8.388
 1936SOL    HW217151   0.760   1.802   8.394
 1937SOL     OW17152   0.859   0.956   8.309
 1937SOL    HW117153   0.913   0.887   8.357
 1937SOL    HW217154   0.827   1.025   8.375
 1938SOL     OW17155   1.861   1.569   8.299
 1938SOL    HW117156   1.790   1.557   8.229
 1938SOL    HW217157   1.862   1.490   8.359
 1939SOL     OW17158   0.221   1.314   9.292
 1939SOL    HW117159   0.156   1.241   9.271
 1939SOL    HW217160   0.225   1.328   9.390
 1940SOL     OW17161   0.079   1.240   8.101
 1940SOL    HW117162   0.078   1.193   8.189
 1940SOL    HW217163   0.161   1.212   8.050
 1941SOL     OW17164   0.672   1.391   9.072
 1941SOL    HW117165   0.594   1.341   9.110
 1941SOL    HW217166   0.669   1.486   9.103
 1942SOL     OW17167   0.428   0.424   7.968
 1942SOL    HW117168   0.458   0.352   7.906
 1942SOL    HW217169   0.389   0.384   8.051
 1943SOL     OW17170   1.705   1.487   8.552
 1943SOL    HW117171   1.612   1.462   8.525
 1943SOL    HW217172   1.731   1.437   8.634
 1944SOL     OW17173   0.317   0.547   8.728
 1944SOL    HW117174   0.355   0.488   8.800
 1944SOL    HW217175   0.357   0.521   8.640
 1945SOL     OW17176   0.812   1.586   8.135
 1945SOL    HW117177   0.844   1.596   8.041
 1945SOL    HW217178   0.733   1.524   8.137
 1946SOL     OW17179   1.424   0.214   8.560
 1946SOL    HW117180   1.476   0.149   8.615
 1946SOL    HW217181   1.375   0.277   8.621
 1947SOL     OW17182   1.001   0.034   8.602
 1947SOL    HW117183   0.938  -0.038   8.571
 1947SOL    HW217184   1.094  -0.002   8.602
 1948SOL     OW17185   0.770   1.330   7.749
 1948SOL    HW117186   0.724   1.243   7.766
 1948SOL    HW217187   0.861   1.327   7.790
 1949SOL     OW17188   0.618   1.567   8.732
 1949SOL    HW117189   0.613   1.649   8.789
 1949SOL    HW217190   0.707   1.564   8.687
 1950SOL     OW17191   1.352   0.052   7.616
 1950SOL    HW117192   1.387   0.011   7.532
 1950SOL    HW217193   1.262   0.014   7.636
 1951SOL     OW17194   1.300   0.453   8.139
 1951SOL    HW117195   1.241   0.533   8.143
 1951SOL    HW217196   1.315   0.418   8.232
 1952SOL     OW17197   1.593   0.221   8.330
 1952SOL    HW117198   1.509   0.220   8.384
 1952SOL    HW217199   1.595   0.304   8.274
 1953SOL     OW17200   0.875   1.646   7.785
 1953SOL    HW117201   0.798   1.611   7.731
 1953SOL    HW217202   0.843   1.717   7.847
 1954SOL     OW17203   0.230   0.628   9.423
 1954SOL    HW117204   0.137   0.626   9.460
 1954SOL    HW217205   0.231   0.589   9.331
 1955SOL     OW17206   0.225   0.275  10.306
 1955SOL    HW117207   0.260   0.258  10.398
 1955SOL    HW217208   0.137   0.230  10.294
 1956SOL     OW17209   0.019   0.368   9.957
 1956SOL    HW117210  -0.063   0.411   9.996
 1956SOL    HW217211  -0.009   0.295   9.894
 1957SOL     OW17212   0.569   1.275  10.475
 1957SOL    HW117213   0.476   1.268  10.438
 1957SOL    HW217214   0.580   1.364  10.519
 1958SOL     OW17215   1.135   0.703  10.027
 1958SOL    HW117216   1.192   0.781  10.002
 1958SOL    HW217217   1.075   0.729  10.103
 1959SOL     OW17218   1.755   0.607   9.541
 1959SOL    HW117219   1.743   0.594   9.442
 1959SOL    HW217220   1.725   0.526   9.590
 1960SOL     OW17221   0.768   1.144  10.333
 1960SOL    HW117222   0.690   1.161  10.393
 1960SOL    HW217223   0.802   1.231  10.297
 1961SOL     OW17224   0.685   1.012   9.975
 1961SOL    HW117225   0.754   0.996  10.045
 1961SOL    HW217226   0.612   1.069  10.013
 1962SOL     OW17227   0.686   1.161  11.113
 1962SOL    HW117228   0.746   1.240  11.127
 1962SOL    HW217229   0.600   1.192  11.072
 1963SOL     OW17230   0.231   1.713   9.793
 1963SOL    HW117231   0.265   1.790   9.847
 1963SOL    HW217232   0.275   1.713   9.703
 1964SOL     OW17233   0.230   1.434   9.848
 1964SOL    HW117234   0.204   1.530   9.848
 1964SOL    HW217235   0.159   1.380   9.893
 1965SOL     OW17236   0.240   1.091  10.196
 1965SOL    HW117237   0.254   1.007  10.248
 1965SOL    HW217238   0.185   1.155  10.251
 1966SOL     OW17239   0.606   0.964   9.433
 1966SOL    HW117240   0.613   1.048   9.379
 1966SOL    HW217241   0.652   0.977   9.521
 1967SOL     OW17242   1.594   0.114  10.790
 1967SOL    HW117243   1.576   0.181  10.718
 1967SOL    HW217244   1.591   0.160  10.879
 1968SOL     OW17245   0.122   0.643   9.873
 1968SOL    HW117246   0.077   0.555   9.890
 1968SOL    HW217247   0.121   0.697   9.957
 1969SOL     OW17248   0.027   1.596   9.427
 1969SOL    HW117249   0.008   1.500   9.448
 1969SOL    HW217250  -0.006   1.654   9.502
 1970SOL     OW17251   1.641   1.108   9.742
 1970SOL    HW117252   1.727   1.110   9.690
 1970SOL    HW217253   1.655   1.155   9.830
 1971SOL     OW17254   0.113   0.737  10.907
 1971SOL    HW117255   0.201   0.724  10.952
 1971SOL    HW217256   0.100   0.834  10.885
 1972SOL     OW17257   0.613   1.365  10.036
 1972SOL    HW117258   0.564   1.278  10.045
 1972SOL    HW217259   0.590   1.408   9.949
 1973SOL     OW17260   0.197   0.976  10.574
 1973SOL    HW117261   0.286   0.931  10.560
 1973SOL    HW217262   0.124   0.911  10.555
 1974SOL     OW17263   1.525   0.999   9.500
 1974SOL    HW117264   1.462   0.923   9.513
 1974SOL    HW217265   1.573   1.017   9.586
 1975SOL     OW17266   1.466   1.417  10.263
 1975SOL    HW117267   1.407   1.423  10.343
 1975SOL    HW217268   1.451   1.329  10.217
 1976SOL     OW17269   0.598   0.729   9.580
 1976SOL    HW117270   0.622   0.798   9.512
 1976SOL    HW217271   0.520   0.762   9.634
 1977SOL     OW17272   1.394   0.469  10.984
 1977SOL    HW117273   1.374   0.512  11.072
 1977SOL    HW217274   1.472   0.407  10.993
 1978SOL     OW17275   0.973   0.890  10.882
 1978SOL    HW117276   1.019   0.806  10.853
 1978SOL    HW217277   0.917   0.924  10.807
 1979SOL     OW17278   1.041   0.701   9.739
 1979SOL    HW117279   1.067   0.697   9.835
 1979SOL    HW217280   0.956   0.650   9.725
 1980SOL     OW17281   0.076   0.811  10.099
 1980SOL    HW117282   0.175   0.799  10.108
 1980SOL    HW217283   0.052   0.906  10.120
 1981SOL     OW17284   1.719   0.585  11.141
 1981SOL    HW117285   1.693   0.674  11.105
 1981SOL    HW217286   1.717   0.517  11.068
 1982SOL     OW17287   1.362   1.144   9.855
 1982SOL    HW117288   1.445   1.115   9.807
 1982SOL    HW217289   1.313   1.211   9.799
 1983SOL     OW17290   0.351   1.801  10.163
 1983SOL    HW117291   0.401   1.715  10.169
 1983SOL    HW217292   0.416   1.878  10.160
 1984SOL     OW17293   1.227   1.550  10.816
 1984SOL    HW117294   1.233   1.473  10.880
 1984SOL    HW217295   1.175   1.524  10.736
 1985SOL     OW17296   0.321   0.943   9.552
 1985SOL    HW117297   0.403   0.982   9.510
 1985SOL    HW217298   0.294   0.861   9.503
 1986SOL     OW17299   1.458   0.735  10.038
 1986SOL    HW117300   1.453   0.670  10.113
 1986SOL    HW217301   1.538   0.794  10.051
 1987SOL     OW17302   1.111   1.776   9.547
 1987SOL    HW117303   1.051   1.714   9.597
 1987SOL    HW217304   1.142   1.732   9.462
 1988SOL     OW17305   0.202   0.285  10.808
 1988SOL    HW117306   0.122   0.345  10.795
 1988SOL    HW217307   0.192   0.236  10.894
 1989SOL     OW17308   1.632   1.377   9.391
 1989SOL    HW117309   1.600   1.471   9.381
 1989SOL    HW217310   1.556   1.314   9.379
 1990SOL     OW17311   0.464   1.743   9.633
 1990SOL    HW117312   0.497   1.782   9.719
 1990SOL    HW217313   0.540   1.736   9.568
 1991SOL     OW17314   0.940   1.698  10.214
 1991SOL    HW117315   1.020   1.641  10.235
 1991SOL    HW217316   0.891   1.658  10.137
 1992SOL     OW17317   0.382   0.700   9.790
 1992SOL    HW117318   0.427   0.610   9.787
 1992SOL    HW217319   0.288   0.689   9.823
 1993SOL     OW17320   1.547   0.222  11.039
 1993SOL    HW117321   1.542   0.259  11.131
 1993SOL    HW217322   1.475   0.153  11.027
 1994SOL     OW17323   0.888   1.514  10.505
 1994SOL    HW117324   0.865   1.489  10.411
 1994SOL    HW217325   0.949   1.445  10.544
 1995SOL     OW17326   1.351   0.590  10.743
 1995SOL    HW117327   1.379   0.547  10.828
 1995SOL    HW217328   1.376   0.686  10.744
 1996SOL     OW17329   0.803   1.402  10.234
 1996SOL    HW117330   0.893   1.416  10.192
 1996SOL    HW217331   0.732   1.404  10.163
 1997SOL     OW17332   0.922   0.503  10.209
 1997SOL    HW117333   0.897   0.494  10.113
 1997SOL    HW217334   0.970   0.421  10.240
 1998SOL     OW17335   0.539   0.064   9.822
 1998SOL    HW117336   0.458   0.065   9.880
 1998SOL    HW217337   0.542   0.147   9.767
 1999SOL     OW17338   1.434   1.188   9.351
 1999SOL    HW117339   1.466   1.112   9.408
 1999SOL    HW217340   1.342   1.215   9.381
 2000SOL     OW17341   0.297   0.035   9.481
 2000SOL    HW117342   0.346   0.119   9.460
 2000SOL    HW217343   0.359  -0.030   9.526
 2001SOL     OW17344   0.459   1.152  10.051
 2001SOL    HW117345   0.388   1.125  10.116
 2001SOL    HW217346   0.433   1.124   9.958
 2002SOL     OW17347   1.032   0.549   9.326
 2002SOL    HW117348   0.991   0.631   9.287
 2002SOL    HW217349   1.096   0.575   9.399
 2003SOL     OW17350   0.078   0.556  10.696
 2003SOL    HW117351   0.170   0.555  10.655
 2003SOL    HW217352   0.072   0.630  10.763
 2004SOL     OW17353   0.866   0.454   9.952
 2004SOL    HW117354   0.834   0.526   9.890
 2004SOL    HW217355   0.890   0.373   9.899
 2005SOL     OW17356   1.017   0.039  10.063
 2005SOL    HW117357   0.945   0.044   9.994
 2005SOL    HW217358   0.993  -0.030  10.132
 2006SOL     OW17359   0.488   1.385   9.484
 2006SOL    HW117360   0.401   1.370   9.531
 2006SOL    HW217361   0.471   1.411   9.389
 2007SOL     OW17362   1.390   0.575   9.388
 2007SOL    HW117363   1.336   0.554   9.469
 2007SOL    HW217364   1.481   0.534   9.397
 2008SOL     OW17365   0.527   0.256   9.638
 2008SOL    HW117366   0.554   0.197   9.563
 2008SOL    HW217367   0.527   0.351   9.607
 2009SOL     OW17368   1.592   1.629  10.935
 2009SOL    HW117369   1.619   1.663  10.845
 2009SOL    HW217370   1.671   1.591  10.981
 2010SOL     OW17371   0.980   1.116  11.029
 2010SOL    HW117372   0.881   1.122  11.039
 2010SOL    HW217373   1.003   1.036  10.973
 2011SOL     OW17374   0.705   1.050   9.678
 2011SOL    HW117375   0.691   1.057   9.777
 2011SOL    HW217376   0.789   0.999   9.660
 2012SOL     OW17377   0.410   0.813  10.561
 2012SOL    HW117378   0.496   0.825  10.611
 2012SOL    HW217379   0.368   0.726  10.588
 2013SOL     OW17380   0.367   1.100   9.811
 2013SOL    HW117381   0.360   1.183   9.755
 2013SOL    HW217382   0.371   1.020   9.751
 2014SOL     OW17383   0.566   0.537  10.175
 2014SOL    HW117384   0.578   0.603  10.101
 2014SOL    HW217385   0.612   0.571  10.258
 2015SOL     OW17386   1.252   1.348   9.698
 2015SOL    HW117387   1.302   1.425   9.738
 2015SOL    HW217388   1.157   1.350   9.730
 2016SOL     OW17389   1.582   0.639   9.782
 2016SOL    HW117390   1.551   0.700   9.855
 2016SOL    HW217391   1.632   0.691   9.713
 2017SOL     OW17392   0.402   0.751  10.908
 2017SOL    HW117393   0.470   0.806  10.861
 2017SOL    HW217394   0.442   0.663  10.935
 2018SOL     OW17395   0.573   0.870  10.339
 2018SOL    HW117396   0.617   0.959  10.330
 2018SOL    HW217397   0.510   0.870  10.416
 2019SOL     OW17398   1.209   0.525   9.585
 2019SOL    HW117399   1.222   0.441   9.639
 2019SOL    HW217400   1.180   0.599   9.645
 2020SOL     OW17401   0.307   0.213  10.541
 2020SOL    HW117402   0.284   0.250  10.631
 2020SOL    HW217403   0.277   0.118  10.535
 2021SOL     OW17404   0.732   0.634  10.374
 2021SOL    HW117405   0.791   0.608  10.298
 2021SOL    HW217406   0.704   0.730  10.363
 2022SOL     OW17407   1.728   0.935  11.164
 2022SOL    HW117408   1.682   0.928  11.075
 2022SOL    HW217409   1.666   0.979  11.230
 2023SOL     OW17410   0.307   0.063   9.928
 2023SOL    HW117411   0.296   0.157   9.961
 2023SOL    HW217412   0.302   0.000  10.005
 2024SOL     OW17413   1.622   0.367   9.684
 2024SOL    HW117414   1.624   0.291   9.748
 2024SOL    HW217415   1.574   0.444   9.724
 2025SOL     OW17416   1.859   1.518  10.915
 2025SOL    HW117417   1.873   1.545  10.820
 2025SOL    HW217418   1.942   1.540  10.968
 2026SOL     OW17419   1.303   0.838   9.352
 2026SOL    HW117420   1.337   0.745   9.367
 2026SOL    HW217421   1.321   0.865   9.257
 2027SOL     OW17422   0.319   0.810  10.259
 2027SOL    HW117423   0.412   0.846  10.264
 2027SOL    HW217424   0.313   0.725  10.311
 2028SOL     OW17425   0.339   0.509  10.316
 2028SOL    HW117426   0.287   0.426  10.299
 2028SOL    HW217427   0.416   0.514  10.252
 2029SOL     OW17428   1.160   0.207  10.787
 2029SOL    HW117429   1.160   0.271  10.864
 2029SOL    HW217430   1.188   0.255  10.704
 2030SOL     OW17431   0.008   1.326   9.510
 2030SOL    HW117432  -0.085   1.347   9.479
 2030SOL    HW217433   0.018   1.227   9.523
 2031SOL     OW17434   0.504   1.568  10.220
 2031SOL    HW117435   0.570   1.642  10.229
 2031SOL    HW217436   0.548   1.489  10.178
 2032SOL     OW17437   0.040   0.544  10.424
 2032SOL    HW117438   0.125   0.511  10.383
 2032SOL    HW217439   0.053   0.559  10.522
 2033SOL     OW17440   0.189   0.520  11.032
 2033SOL    HW117441   0.248   0.480  10.962
 2033SOL    HW217442   0.131   0.591  10.991
 2034SOL     OW17443   0.815   0.572   9.635
 2034SOL    HW117444   0.822   0.483   9.589
 2034SOL    HW217445   0.721   0.606   9.627
 2035SOL     OW17446   1.657   0.604  10.516
 2035SOL    HW117447   1.619   0.535  10.578
 2035SOL    HW217448   1.739   0.568  10.472
 2036SOL     OW17449   0.671   0.464  10.579
 2036SOL    HW117450   0.637   0.375  10.549
 2036SOL    HW217451   0.697   0.518  10.499
 2037SOL     OW17452   0.930   1.678  10.775
 2037SOL    HW117453   0.906   1.660  10.680
 2037SOL    HW217454   0.960   1.772  10.785
 2038SOL     OW17455   0.473   0.500   9.501
 2038SOL    HW117456   0.534   0.580   9.505
 2038SOL    HW217457   0.378   0.531   9.508
 2039SOL     OW17458   1.302   0.855   9.619
 2039SOL    HW117459   1.216   0.824   9.661
 2039SOL    HW217460   1.298   0.841   9.520
 2040SOL     OW17461   1.252   1.731  10.438
 2040SOL    HW117462   1.336   1.736  10.384
 2040SOL    HW217463   1.229   1.635  10.456
 2041SOL     OW17464   0.083   1.258  10.332
 2041SOL    HW117465   0.078   1.257  10.432
 2041SOL    HW217466   0.000   1.217  10.294
 2042SOL     OW17467   0.688   1.662  11.026
 2042SOL    HW117468   0.632   1.743  11.035
 2042SOL    HW217469   0.740   1.666  10.940
 2043SOL     OW17470   0.130   1.794  11.161
 2043SOL    HW117471   0.089   1.720  11.214
 2043SOL    HW217472   0.194   1.845  11.219
 2044SOL     OW17473   1.280   0.927   9.982
 2044SOL    HW117474   1.340   0.846   9.984
 2044SOL    HW217475   1.320   0.996   9.922
 2045SOL     OW17476   0.830   1.273  10.732
 2045SOL    HW117477   0.825   1.306  10.827
 2045SOL    HW217478   0.744   1.292  10.686
 2046SOL     OW17479   0.672   1.616   9.464
 2046SOL    HW117480   0.681   1.626   9.365
 2046SOL    HW217481   0.632   1.527   9.485
 2047SOL     OW17482   1.650   1.720  10.704
 2047SOL    HW117483   1.703   1.730  10.620
 2047SOL    HW217484   1.623   1.810  10.738
 2048SOL     OW17485   0.263   0.326  10.030
 2048SOL    HW117486   0.184   0.377   9.996
 2048SOL    HW217487   0.254   0.311  10.128
 2049SOL     OW17488   1.194   1.612   9.341
 2049SOL    HW117489   1.200   1.519   9.378
 2049SOL    HW217490   1.135   1.612   9.261
 2050SOL     OW17491   0.822   1.002  10.682
 2050SOL    HW117492   0.862   1.001  10.590
 2050SOL    HW217493   0.832   1.094  10.722
 2051SOL     OW17494   0.916   0.910   9.601
 2051SOL    HW117495   0.979   0.948   9.533
 2051SOL    HW217496   0.956   0.827   9.640
 2052SOL     OW17497   1.504   1.607   9.354
 2052SOL    HW117498   1.412   1.644   9.361
 2052SOL    HW217499   1.542   1.627   9.264
 2053SOL     OW17500   1.014   0.236  10.281
 2053SOL    HW117501   1.006   0.200  10.188
 2053SOL    HW217502   1.012   0.160  10.346
 2054SOL     OW17503   0.590   1.487   9.801
 2054SOL    HW117504   0.632   1.429   9.731
 2054SOL    HW217505   0.546   1.566   9.757
 2055SOL     OW17506   1.709   0.385  10.691
 2055SOL    HW117507   1.782   0.454  10.695
 2055SOL    HW217508   1.737   0.310  10.632
 2056SOL     OW17509   0.255   1.348   9.600
 2056SOL    HW117510   0.159   1.349   9.573
 2056SOL    HW217511   0.267   1.401   9.684
 2057SOL     OW17512   0.672   0.203  10.799
 2057SOL    HW117513   0.762   0.187  10.759
 2057SOL    HW217514   0.680   0.208  10.898
 2058SOL     OW17515   0.075   0.345   9.343
 2058SOL    HW117516  -0.017   0.317   9.314
 2058SOL    HW217517   0.106   0.422   9.287
 2059SOL     OW17518   1.440   0.856  10.708
 2059SOL    HW117519   1.383   0.908  10.645
 2059SOL    HW217520   1.536   0.868  10.684
 2060SOL     OW17521   0.072   0.166   9.628
 2060SOL    HW117522   0.055   0.249   9.574
 2060SOL    HW217523   0.162   0.129   9.606
 2061SOL     OW17524   1.183   1.335   9.429
 2061SOL    HW117525   1.084   1.324   9.431
 2061SOL    HW217526   1.217   1.350   9.522
 2062SOL     OW17527   0.613   0.842  10.741
 2062SOL    HW117528   0.669   0.923  10.724
 2062SOL    HW217529   0.672   0.762  10.744
 2063SOL     OW17530   1.674   0.883  10.564
 2063SOL    HW117531   1.647   0.794  10.527
 2063SOL    HW217532   1.675   0.951  10.491
 2064SOL     OW17533   1.225   0.325   9.759
 2064SOL    HW117534   1.290   0.251   9.748
 2064SOL    HW217535   1.245   0.375   9.843
 2065SOL     OW17536   0.594   0.745   9.962
 2065SOL    HW117537   0.644   0.830   9.943
 2065SOL    HW217538   0.506   0.747   9.914
 2066SOL     OW17539   1.777   0.342  10.952
 2066SOL    HW117540   1.760   0.373  10.858
 2066SOL    HW217541   1.693   0.305  10.990
 2067SOL     OW17542   0.859   1.374   9.326
 2067SOL    HW117543   0.813   1.389   9.414
 2067SOL    HW217544   0.903   1.459   9.296
 2068SOL     OW17545   0.859   0.956  10.171
 2068SOL    HW117546   0.913   0.887  10.219
 2068SOL    HW217547   0.827   1.025  10.237
 2069SOL     OW17548   1.083   0.984   9.397
 2069SOL    HW117549   1.060   1.037   9.315
 2069SOL    HW217550   1.164   0.928   9.378
 2070SOL     OW17551   0.079   1.240   9.963
 2070SOL    HW117552   0.078   1.193  10.051
 2070SOL    HW217553   0.161   1.212   9.912
 2071SOL     OW17554   0.672   1.391  10.934
 2071SOL    HW117555   0.594   1.341  10.972
 2071SOL    HW217556   0.669   1.486  10.965
 2072SOL     OW17557   0.428   0.424   9.830
 2072SOL    HW117558   0.458   0.352   9.768
 2072SOL    HW217559   0.389   0.384   9.913
 2073SOL     OW17560   0.317   0.547  10.590
 2073SOL    HW117561   0.355   0.488  10.662
 2073SOL    HW217562   0.357   0.521  10.502
 2074SOL     OW17563   0.812   1.586   9.997
 2074SOL    HW117564   0.844   1.596   9.903
 2074SOL    HW217565   0.733   1.524   9.999
 2075SOL     OW17566   1.001   0.034  10.464
 2075SOL    HW117567   0.938  -0.038  10.433
 2075SOL    HW217568   1.094  -0.002  10.464
 2076SOL     OW17569   0.770   1.330   9.611
 2076SOL    HW117570   0.724   1.243   9.628
 2076SOL    HW217571   0.861   1.327   9.652
 2077SOL     OW17572   0.039   1.077   9.610
 2077SOL    HW117573   0.138   1.066   9.601
 2077SOL    HW217574  -0.001   0.991   9.642
 2078SOL     OW17575   0.875   1.646   9.647
 2078SOL    HW117576   0.798   1.611   9.593
 2078SOL    HW217577   0.843   1.717   9.709
 2079SOL     OW17578   0.019   0.368  11.819
 2079SOL    HW117579  -0.063   0.411  11.858
 2079SOL    HW217580  -0.009   0.295  11.756
 2080SOL     OW17581   0.850   0.798  12.995
 2080SOL    HW117582   0.846   0.874  13.060
 2080SOL    HW217583   0.872   0.834  12.904
 2081SOL     OW17584   1.460   1.505  12.511
 2081SOL    HW117585   1.484   1.599  12.537
 2081SOL    HW217586   1.444   1.451  12.593
 2082SOL     OW17587   0.438   0.392  12.671
 2082SOL    HW117588   0.520   0.336  12.680
 2082SOL    HW217589   0.357   0.334  12.675
 2083SOL     OW17590   0.606   0.964  11.295
 2083SOL    HW117591   0.613   1.048  11.241
 2083SOL    HW217592   0.652   0.977  11.383
 2084SOL     OW17593   1.594   0.114  12.652
 2084SOL    HW117594   1.576   0.181  12.580
 2084SOL    HW217595   1.591   0.160  12.741
 2085SOL     OW17596   1.842   1.767  11.531
 2085SOL    HW117597   1.896   1.738  11.611
 2085SOL    HW217598   1.872   1.857  11.502
 2086SOL     OW17599   1.187   1.792  12.788
 2086SOL    HW117600   1.211   1.852  12.712
 2086SOL    HW217601   1.194   1.697  12.758
 2087SOL     OW17602   0.317   0.251  12.973
 2087SOL    HW117603   0.388   0.322  12.979
 2087SOL    HW217604   0.229   0.290  13.001
 2088SOL     OW17605   0.807   0.605  12.637
 2088SOL    HW117606   0.760   0.602  12.726
 2088SOL    HW217607   0.756   0.550  12.571
 2089SOL     OW17608   1.394   0.469  12.846
 2089SOL    HW117609   1.374   0.512  12.934
 2089SOL    HW217610   1.472   0.407  12.855
 2090SOL     OW17611   0.973   0.890  12.744
 2090SOL    HW117612   1.019   0.806  12.715
 2090SOL    HW217613   0.917   0.924  12.669
 2091SOL     OW17614   0.991   0.410  12.414
 2091SOL    HW117615   0.914   0.444  12.468
 2091SOL    HW217616   0.957   0.359  12.335
 2092SOL     OW17617   1.041   0.701  11.601
 2092SOL    HW117618   1.067   0.697  11.697
 2092SOL    HW217619   0.956   0.650  11.587
 2093SOL     OW17620   0.351   1.801  12.025
 2093SOL    HW117621   0.401   1.715  12.031
 2093SOL    HW217622   0.416   1.878  12.022
 2094SOL     OW17623   1.227   1.550  12.678
 2094SOL    HW117624   1.233   1.473  12.742
 2094SOL    HW217625   1.175   1.524  12.598
 2095SOL     OW17626   0.249   1.785  12.413
 2095SOL    HW117627   0.306   1.720  12.463
 2095SOL    HW217628   0.233   1.752  12.320
 2096SOL     OW17629   0.781   0.264  12.921
 2096SOL    HW117630   0.848   0.203  12.964
 2096SOL    HW217631   0.708   0.283  12.986
 2097SOL     OW17632   0.888   1.514  12.367
 2097SOL    HW117633   0.865   1.489  12.273
 2097SOL    HW217634   0.949   1.445  12.406
 2098SOL     OW17635   1.351   0.590  12.605
 2098SOL    HW117636   1.379   0.547  12.690
 2098SOL    HW217637   1.376   0.686  12.606
 2099SOL     OW17638   1.754   1.223  12.760
 2099SOL    HW117639   1.845   1.184  12.747
 2099SOL    HW217640   1.762   1.319  12.784
 2100SOL     OW17641   1.592   1.629  12.797
 2100SOL    HW117642   1.619   1.663  12.707
 2100SOL    HW217643   1.671   1.591  12.843
 2101SOL     OW17644   0.064   1.564  12.503
 2101SOL    HW117645   0.018   1.646  12.469
 2101SOL    HW217646   0.162   1.583  12.512
 2102SOL     OW17647   0.573   0.870  12.201
 2102SOL    HW117648   0.617   0.959  12.192
 2102SOL    HW217649   0.510   0.870  12.278
 2103SOL     OW17650   0.732   0.634  12.236
 2103SOL    HW117651   0.791   0.608  12.160
 2103SOL    HW217652   0.704   0.730  12.225
 2104SOL     OW17653   1.540   0.274  11.297
 2104SOL    HW117654   1.479   0.199  11.320
 2104SOL    HW217655   1.562   0.326  11.380
 2105SOL     OW17656   0.319   0.810  12.121
 2105SOL    HW117657   0.412   0.846  12.126
 2105SOL    HW217658   0.313   0.725  12.173
 2106SOL     OW17659   0.339   0.509  12.178
 2106SOL    HW117660   0.287   0.426  12.161
 2106SOL    HW217661   0.416   0.514  12.114
 2107SOL     OW17662   0.088   1.801  12.099
 2107SOL    HW117663   0.046   1.715  12.072
 2107SOL    HW217664   0.182   1.804  12.065
 2108SOL     OW17665   1.002   0.796  12.410
 2108SOL    HW117666   1.043   0.764  12.496
 2108SOL    HW217667   0.906   0.769  12.407
 2109SOL     OW17668   0.040   0.544  12.286
 2109SOL    HW117669   0.125   0.511  12.245
 2109SOL    HW217670   0.053   0.559  12.384
 2110SOL     OW17671   0.252   1.564  12.916
 2110SOL    HW117672   0.222   1.621  12.992
 2110SOL    HW217673   0.245   1.467  12.942
 2111SOL     OW17674   0.671   0.464  12.441
 2111SOL    HW117675   0.637   0.375  12.411
 2111SOL    HW217676   0.697   0.518  12.361
 2112SOL     OW17677   1.759   1.747  12.326
 2112SOL    HW117678   1.820   1.777  12.253
 2112SOL    HW217679   1.721   1.658  12.304
 2113SOL     OW17680   1.252   1.731  12.300
 2113SOL    HW117681   1.336   1.736  12.246
 2113SOL    HW217682   1.229   1.635  12.318
 2114SOL     OW17683   1.650   1.720  12.566
 2114SOL    HW117684   1.703   1.730  12.482
 2114SOL    HW217685   1.623   1.810  12.600
 2115SOL     OW17686   1.841   0.175  12.135
 2115SOL    HW117687   1.880   0.090  12.099
 2115SOL    HW217688   1.743   0.177  12.116
 2116SOL     OW17689   1.504   1.607  11.216
 2116SOL    HW117690   1.412   1.644  11.223
 2116SOL    HW217691   1.542   1.627  11.126
 2117SOL     OW17692   1.039   1.098  11.868
 2117SOL    HW117693   0.969   1.051  11.922
 2117SOL    HW217694   1.098   1.030  11.825
 2118SOL     OW17695   1.709   0.385  12.553
 2118SOL    HW117696   1.782   0.454  12.557
 2118SOL    HW217697   1.737   0.310  12.494
 2119SOL     OW17698   0.672   0.203  12.661
 2119SOL    HW117699   0.762   0.187  12.621
 2119SOL    HW217700   0.680   0.208  12.760
 2120SOL     OW17701   0.613   0.842  12.603
 2120SOL    HW117702   0.669   0.923  12.586
 2120SOL    HW217703   0.672   0.762  12.606
 2121SOL     OW17704   1.493   1.767  12.131
 2121SOL    HW117705   1.526   1.831  12.062
 2121SOL    HW217706   1.559   1.761  12.206
 2122SOL     OW17707   0.716   0.565  12.880
 2122SOL    HW117708   0.735   0.630  12.954
 2122SOL    HW217709   0.776   0.485  12.889
 2123SOL     OW17710   1.450   1.220  12.805
 2123SOL    HW117711   1.441   1.210  12.904
 2123SOL    HW217712   1.546   1.213  12.779
 2124SOL     OW17713   0.390   1.741  12.732
 2124SOL    HW117714   0.299   1.782  12.730
 2124SOL    HW217715   0.383   1.647  12.764
 2125SOL     OW17716   1.777   0.342  12.814
 2125SOL    HW117717   1.760   0.373  12.720
 2125SOL    HW217718   1.693   0.305  12.852
 2126SOL     OW17719   1.730   0.934  12.689
 2126SOL    HW117720   1.768   1.025  12.704
 2126SOL    HW217721   1.722   0.917  12.590
 2127SOL     OW17722   0.661   1.790  12.125
 2127SOL    HW117723   0.615   1.878  12.112
 2127SOL    HW217724   0.760   1.802  12.118
 2128SOL     OW17725   0.079   1.240  11.825
 2128SOL    HW117726   0.078   1.193  11.913
 2128SOL    HW217727   0.161   1.212  11.774
 2129SOL     OW17728   1.824   0.192  12.399
 2129SOL    HW117729   1.820   0.102  12.443
 2129SOL    HW217730   1.827   0.181  12.300
 2130SOL     OW17731   0.317   0.547  12.452
 2130SOL    HW117732   0.355   0.488  12.524
 2130SOL    HW217733   0.357   0.521  12.364
 2131SOL     OW17734   1.001   0.034  12.326
 2131SOL    HW117735   0.938  -0.038  12.295
 2131SOL    HW217736   1.094  -0.002  12.326
 2132SOL     OW17737   1.352   0.052  11.340
 2132SOL    HW117738   1.387   0.011  11.256
 2132SOL    HW217739   1.262   0.014  11.360
 2133SOL     OW17740   0.230   0.628  13.147
 2133SOL    HW117741   0.137   0.626  13.184
 2133SOL    HW217742   0.231   0.589  13.055
 2134SOL     OW17743   0.569   1.275  14.199
 2134SOL    HW117744   0.476   1.268  14.162
 2134SOL    HW217745   0.580   1.364  14.243
 2135SOL     OW17746   1.603   0.447  13.771
 2135SOL    HW117747   1.529   0.493  13.721
 2135SOL    HW217748   1.654   0.515  13.824
 2136SOL     OW17749   0.240   1.091  13.920
 2136SOL    HW117750   0.254   1.007  13.972
 2136SOL    HW217751   0.185   1.155  13.975
 2137SOL     OW17752   0.197   0.976  14.298
 2137SOL    HW117753   0.286   0.931  14.284
 2137SOL    HW217754   0.124   0.911  14.279
 2138SOL     OW17755   1.466   1.417  13.987
 2138SOL    HW117756   1.407   1.423  14.067
 2138SOL    HW217757   1.451   1.329  13.941
 2139SOL     OW17758   0.991   0.410  14.276
 2139SOL    HW117759   0.914   0.444  14.330
 2139SOL    HW217760   0.957   0.359  14.197
 2140SOL     OW17761   1.041   0.701  13.463
 2140SOL    HW117762   1.067   0.697  13.559
 2140SOL    HW217763   0.956   0.650  13.449
 2141SOL     OW17764   0.865   0.348  13.229
 2141SOL    HW117765   0.924   0.411  13.180
 2141SOL    HW217766   0.884   0.254  13.200
 2142SOL     OW17767   1.362   1.144  13.579
 2142SOL    HW117768   1.445   1.115  13.531
 2142SOL    HW217769   1.313   1.211  13.523
 2143SOL     OW17770   0.550   0.196  13.919
 2143SOL    HW117771   0.545   0.191  14.019
 2143SOL    HW217772   0.552   0.292  13.890
 2144SOL     OW17773   1.795   1.066  13.907
 2144SOL    HW117774   1.733   1.051  13.831
 2144SOL    HW217775   1.743   1.077  13.992
 2145SOL     OW17776   0.321   0.943  13.276
 2145SOL    HW117777   0.403   0.982  13.234
 2145SOL    HW217778   0.294   0.861  13.227
 2146SOL     OW17779   1.458   0.735  13.762
 2146SOL    HW117780   1.453   0.670  13.837
 2146SOL    HW217781   1.538   0.794  13.775
 2147SOL     OW17782   0.940   1.698  13.938
 2147SOL    HW117783   1.020   1.641  13.959
 2147SOL    HW217784   0.891   1.658  13.861
 2148SOL     OW17785   0.382   0.700  13.514
 2148SOL    HW117786   0.427   0.610  13.511
 2148SOL    HW217787   0.288   0.689  13.547
 2149SOL     OW17788   1.547   0.222  14.763
 2149SOL    HW117789   1.542   0.259  14.855
 2149SOL    HW217790   1.475   0.153  14.751
 2150SOL     OW17791   0.888   1.514  14.229
 2150SOL    HW117792   0.865   1.489  14.135
 2150SOL    HW217793   0.949   1.445  14.268
 2151SOL     OW17794   0.803   1.402  13.958
 2151SOL    HW117795   0.893   1.416  13.916
 2151SOL    HW217796   0.732   1.404  13.887
 2152SOL     OW17797   0.922   0.503  13.933
 2152SOL    HW117798   0.897   0.494  13.837
 2152SOL    HW217799   0.970   0.421  13.964
 2153SOL     OW17800   0.539   0.064  13.546
 2153SOL    HW117801   0.458   0.065  13.604
 2153SOL    HW217802   0.542   0.147  13.491
 2154SOL     OW17803   1.434   1.188  13.075
 2154SOL    HW117804   1.466   1.112  13.132
 2154SOL    HW217805   1.342   1.215  13.105
 2155SOL     OW17806   1.227   1.570  13.827
 2155SOL    HW117807   1.248   1.644  13.762
 2155SOL    HW217808   1.295   1.570  13.900
 2156SOL     OW17809   1.271   1.797  13.625
 2156SOL    HW117810   1.315   1.861  13.561
 2156SOL    HW217811   1.221   1.849  13.695
 2157SOL     OW17812   0.561   0.222  14.181
 2157SOL    HW117813   0.599   0.138  14.218
 2157SOL    HW217814   0.473   0.241  14.225
 2158SOL     OW17815   0.866   0.454  13.676
 2158SOL    HW117816   0.834   0.526  13.614
 2158SOL    HW217817   0.890   0.373  13.623
 2159SOL     OW17818   1.429   1.173  13.901
 2159SOL    HW117819   1.374   1.089  13.894
 2159SOL    HW217820   1.455   1.202  13.809
 2160SOL     OW17821   1.466   0.590  14.026
 2160SOL    HW117822   1.436   0.495  14.033
 2160SOL    HW217823   1.539   0.606  14.092
 2161SOL     OW17824   1.664   1.280  13.691
 2161SOL    HW117825   1.763   1.288  13.705
 2161SOL    HW217826   1.619   1.364  13.722
 2162SOL     OW17827   0.527   0.256  13.362
 2162SOL    HW117828   0.554   0.197  13.287
 2162SOL    HW217829   0.527   0.351  13.331
 2163SOL     OW17830   1.754   1.223  14.622
 2163SOL    HW117831   1.845   1.184  14.609
 2163SOL    HW217832   1.762   1.319  14.646
 2164SOL     OW17833   1.064   1.347  14.374
 2164SOL    HW117834   0.984   1.324  14.429
 2164SOL    HW217835   1.147   1.321  14.423
 2165SOL     OW17836   1.111   1.195  14.134
 2165SOL    HW117837   1.071   1.239  14.215
 2165SOL    HW217838   1.070   1.232  14.051
 2166SOL     OW17839   1.638   1.099  14.113
 2166SOL    HW117840   1.643   1.180  14.172
 2166SOL    HW217841   1.552   1.101  14.062
 2167SOL     OW17842   1.274   0.386  14.296
 2167SOL    HW117843   1.295   0.460  14.360
 2167SOL    HW217844   1.185   0.403  14.253
 2168SOL     OW17845   0.064   1.564  14.365
 2168SOL    HW117846   0.018   1.646  14.331
 2168SOL    HW217847   0.162   1.583  14.374
 2169SOL     OW17848   1.360   0.862  14.079
 2169SOL    HW117849   1.285   0.862  14.013
 2169SOL    HW217850   1.397   0.770  14.088
 2170SOL     OW17851   0.037   1.310  14.316
 2170SOL    HW117852   0.090   1.261  14.384
 2170SOL    HW217853   0.059   1.408  14.321
 2171SOL     OW17854   0.307   0.063  13.652
 2171SOL    HW117855   0.296   0.157  13.685
 2171SOL    HW217856   0.302   0.000  13.729
 2172SOL     OW17857   1.622   0.367  13.408
 2172SOL    HW117858   1.624   0.291  13.472
 2172SOL    HW217859   1.574   0.444  13.448
 2173SOL     OW17860   0.980   1.573  14.734
 2173SOL    HW117861   0.960   1.617  14.646
 2173SOL    HW217862   1.019   1.482  14.718
 2174SOL     OW17863   1.859   1.518  14.639
 2174SOL    HW117864   1.873   1.545  14.544
 2174SOL    HW217865   1.942   1.540  14.692
 2175SOL     OW17866   0.339   0.509  14.040
 2175SOL    HW117867   0.287   0.426  14.023
 2175SOL    HW217868   0.416   0.514  13.976
 2176SOL     OW17869   0.008   1.326  13.234
 2176SOL    HW117870  -0.085   1.347  13.203
 2176SOL    HW217871   0.018   1.227  13.247
 2177SOL     OW17872   0.088   1.801  13.961
 2177SOL    HW117873   0.046   1.715  13.934
 2177SOL    HW217874   0.182   1.804  13.927
 2178SOL     OW17875   0.671   0.464  14.303
 2178SOL    HW117876   0.637   0.375  14.273
 2178SOL    HW217877   0.697   0.518  14.223
 2179SOL     OW17878   0.473   0.500  13.225
 2179SOL    HW117879   0.534   0.580  13.229
 2179SOL    HW217880   0.378   0.531  13.232
 2180SOL     OW17881   1.347   1.059  14.268
 2180SOL    HW117882   1.371   0.996  14.194
 2180SOL    HW217883   1.257   1.099  14.250
 2181SOL     OW17884   0.688   1.662  14.750
 2181SOL    HW117885   0.632   1.743  14.759
 2181SOL    HW217886   0.740   1.666  14.664
 2182SOL     OW17887   1.280   0.927  13.706
 2182SOL    HW117888   1.340   0.846  13.708
 2182SOL    HW217889   1.320   0.996  13.646
 2183SOL     OW17890   0.830   1.273  14.456
 2183SOL    HW117891   0.825   1.306  14.551
 2183SOL    HW217892   0.744   1.292  14.410
 2184SOL     OW17893   1.841   0.175  13.997
 2184SOL    HW117894   1.880   0.090  13.961
 2184SOL    HW217895   1.743   0.177  13.978
 2185SOL     OW17896   0.263   0.326  13.754
 2185SOL    HW117897   0.184   0.377  13.720
 2185SOL    HW217898   0.254   0.311  13.852
 2186SOL     OW17899   1.194   1.612  13.065
 2186SOL    HW117900   1.200   1.519  13.102
 2186SOL    HW217901   1.135   1.612  12.985
 2187SOL     OW17902   1.614   1.292  14.323
 2187SOL    HW117903   1.674   1.295  14.403
 2187SOL    HW217904   1.539   1.356  14.336
 2188SOL     OW17905   0.075   0.345  13.067
 2188SOL    HW117906  -0.017   0.317  13.038
 2188SOL    HW217907   0.106   0.422  13.011
 2189SOL     OW17908   1.440   0.856  14.432
 2189SOL    HW117909   1.383   0.908  14.369
 2189SOL    HW217910   1.536   0.868  14.408
 2190SOL     OW17911   1.493   1.767  13.993
 2190SOL    HW117912   1.526   1.831  13.924
 2190SOL    HW217913   1.559   1.761  14.068
 2191SOL     OW17914   0.859   1.374  13.050
 2191SOL    HW117915   0.813   1.389  13.138
 2191SOL    HW217916   0.903   1.459  13.020
 2192SOL     OW17917   0.221   1.314  14.878
 2192SOL    HW117918   0.156   1.241  14.857
 2192SOL    HW217919   0.225   1.328  14.976
 2193SOL     OW17920   0.428   0.424  13.554
 2193SOL    HW117921   0.458   0.352  13.492
 2193SOL    HW217922   0.389   0.384  13.637
 2194SOL     OW17923   0.812   1.586  13.721
 2194SOL    HW117924   0.844   1.596  13.627
 2194SOL    HW217925   0.733   1.524  13.723
 2195SOL     OW17926   1.300   0.453  13.725
 2195SOL    HW117927   1.241   0.533  13.729
 2195SOL    HW217928   1.315   0.418  13.818
 2196SOL     OW17929   0.039   1.077  13.334
 2196SOL    HW117930   0.138   1.066  13.325
 2196SOL    HW217931  -0.001   0.991  13.366
 2197SOL     OW17932   0.230   0.628  15.009
 2197SOL    HW117933   0.137   0.626  15.046
 2197SOL    HW217934   0.231   0.589  14.917
 2198SOL     OW17935   0.019   0.368  15.543
 2198SOL    HW117936  -0.063   0.411  15.582
 2198SOL    HW217937  -0.009   0.295  15.480
 2199SOL     OW17938   1.135   0.703  15.613
 2199SOL    HW117939   1.192   0.781  15.588
 2199SOL    HW217940   1.075   0.729  15.689
 2200SOL     OW17941   0.685   1.012  15.561
 2200SOL    HW117942   0.754   0.996  15.631
 2200SOL    HW217943   0.612   1.069  15.599
 2201SOL     OW17944   0.686   1.161  16.700
 2201SOL    HW117945   0.746   1.240  16.714
 2201SOL    HW217946   0.600   1.192  16.659
 2202SOL     OW17947   0.335   1.435  15.958
 2202SOL    HW117948   0.257   1.404  15.905
 2202SOL    HW217949   0.393   1.493  15.901
 2203SOL     OW17950   1.603   0.447  15.633
 2203SOL    HW117951   1.529   0.493  15.583
 2203SOL    HW217952   1.654   0.515  15.686
 2204SOL     OW17953   0.231   1.713  15.379
 2204SOL    HW117954   0.265   1.790  15.433
 2204SOL    HW217955   0.275   1.713  15.289
 2205SOL     OW17956   1.127   1.341  16.587
 2205SOL    HW117957   1.174   1.341  16.675
 2205SOL    HW217958   1.079   1.254  16.576
 2206SOL     OW17959   0.122   0.643  15.459
 2206SOL    HW117960   0.077   0.555  15.476
 2206SOL    HW217961   0.121   0.697  15.543
 2207SOL     OW17962   1.842   1.767  15.255
 2207SOL    HW117963   1.896   1.738  15.335
 2207SOL    HW217964   1.872   1.857  15.226
 2208SOL     OW17965   1.293   1.228  16.320
 2208SOL    HW117966   1.330   1.155  16.262
 2208SOL    HW217967   1.345   1.233  16.405
 2209SOL     OW17968   1.281   0.345  15.841
 2209SOL    HW117969   1.195   0.295  15.828
 2209SOL    HW217970   1.343   0.291  15.897
 2210SOL     OW17971   1.576   1.662  15.203
 2210SOL    HW117972   1.665   1.708  15.206
 2210SOL    HW217973   1.555   1.638  15.108
 2211SOL     OW17974   1.394   0.469  16.571
 2211SOL    HW117975   1.374   0.512  16.659
 2211SOL    HW217976   1.472   0.407  16.580
 2212SOL     OW17977   0.076   0.811  15.685
 2212SOL    HW117978   0.175   0.799  15.694
 2212SOL    HW217979   0.052   0.906  15.706
 2213SOL     OW17980   1.719   0.585  16.728
 2213SOL    HW117981   1.693   0.674  16.692
 2213SOL    HW217982   1.717   0.517  16.655
 2214SOL     OW17983   0.550   0.196  15.781
 2214SOL    HW117984   0.545   0.191  15.881
 2214SOL    HW217985   0.552   0.292  15.752
 2215SOL     OW17986   1.458   0.735  15.624
 2215SOL    HW117987   1.453   0.670  15.699
 2215SOL    HW217988   1.538   0.794  15.637
 2216SOL     OW17989   0.464   1.743  15.219
 2216SOL    HW117990   0.497   1.782  15.305
 2216SOL    HW217991   0.540   1.736  15.154
 2217SOL     OW17992   0.940   1.698  15.800
 2217SOL    HW117993   1.020   1.641  15.821
 2217SOL    HW217994   0.891   1.658  15.723
 2218SOL     OW17995   0.922   0.503  15.795
 2218SOL    HW117996   0.897   0.494  15.699
 2218SOL    HW217997   0.970   0.421  15.826
 2219SOL     OW17998   1.227   1.570  15.689
 2219SOL    HW117999   1.248   1.644  15.624
 2219SOL    HW218000   1.295   1.570  15.762
 2220SOL     OW18001   0.561   0.222  16.044
 2220SOL    HW118002   0.599   0.138  16.081
 2220SOL    HW218003   0.473   0.241  16.088
 2221SOL     OW18004   1.466   0.590  15.889
 2221SOL    HW118005   1.436   0.495  15.896
 2221SOL    HW218006   1.539   0.606  15.955
 2222SOL     OW18007   1.754   1.223  16.485
 2222SOL    HW118008   1.845   1.184  16.472
 2222SOL    HW218009   1.762   1.319  16.509
 2223SOL     OW18010   1.064   1.347  16.237
 2223SOL    HW118011   0.984   1.324  16.292
 2223SOL    HW218012   1.147   1.321  16.286
 2224SOL     OW18013   1.592   1.629  16.522
 2224SOL    HW118014   1.619   1.663  16.432
 2224SOL    HW218015   1.671   1.591  16.568
 2225SOL     OW18016   0.566   0.537  15.761
 2225SOL    HW118017   0.578   0.603  15.687
 2225SOL    HW218018   0.612   0.571  15.844
 2226SOL     OW18019   1.272   1.445  16.039
 2226SOL    HW118020   1.319   1.458  16.126
 2226SOL    HW218021   1.206   1.371  16.048
 2227SOL     OW18022   0.573   0.870  15.926
 2227SOL    HW118023   0.617   0.959  15.917
 2227SOL    HW218024   0.510   0.870  16.003
 2228SOL     OW18025   1.360   0.862  15.942
 2228SOL    HW118026   1.285   0.862  15.876
 2228SOL    HW218027   1.397   0.770  15.951
 2229SOL     OW18028   0.037   1.310  16.179
 2229SOL    HW118029   0.090   1.261  16.247
 2229SOL    HW218030   0.059   1.408  16.184
 2230SOL     OW18031   0.732   0.634  15.961
 2230SOL    HW118032   0.791   0.608  15.885
 2230SOL    HW218033   0.704   0.730  15.950
 2231SOL     OW18034   1.728   0.935  16.751
 2231SOL    HW118035   1.682   0.928  16.662
 2231SOL    HW218036   1.666   0.979  16.817
 2232SOL     OW18037   1.622   0.367  15.270
 2232SOL    HW118038   1.624   0.291  15.334
 2232SOL    HW218039   1.574   0.444  15.310
 2233SOL     OW18040   1.023   0.766  15.863
 2233SOL    HW118041   1.038   0.787  15.959
 2233SOL    HW218042   0.993   0.671  15.854
 2234SOL     OW18043   1.859   1.518  16.502
 2234SOL    HW118044   1.873   1.545  16.407
 2234SOL    HW218045   1.942   1.540  16.555
 2235SOL     OW18046   1.138   0.380  16.575
 2235SOL    HW118047   1.093   0.443  16.639
 2235SOL    HW218048   1.231   0.411  16.558
 2236SOL     OW18049   1.160   0.207  16.374
 2236SOL    HW118050   1.160   0.271  16.451
 2236SOL    HW218051   1.188   0.255  16.291
 2237SOL     OW18052   0.008   1.326  15.096
 2237SOL    HW118053  -0.085   1.347  15.065
 2237SOL    HW218054   0.018   1.227  15.109
 2238SOL     OW18055   0.504   1.568  15.806
 2238SOL    HW118056   0.570   1.642  15.815
 2238SOL    HW218057   0.548   1.489  15.764
 2239SOL     OW18058   1.002   0.796  16.135
 2239SOL    HW118059   1.043   0.764  16.221
 2239SOL    HW218060   0.906   0.769  16.132
 2240SOL     OW18061   1.369   0.950  16.557
 2240SOL    HW118062   1.408   1.039  16.577
 2240SOL    HW218063   1.379   0.930  16.460
 2241SOL     OW18064   0.671   0.464  16.166
 2241SOL    HW118065   0.637   0.375  16.136
 2241SOL    HW218066   0.697   0.518  16.086
 2242SOL     OW18067   1.347   1.059  16.131
 2242SOL    HW118068   1.371   0.996  16.057
 2242SOL    HW218069   1.257   1.099  16.113
 2243SOL     OW18070   1.726   0.135  15.419
 2243SOL    HW118071   1.799   0.118  15.352
 2243SOL    HW218072   1.695   0.048  15.457
 2244SOL     OW18073   1.280   0.927  15.568
 2244SOL    HW118074   1.340   0.846  15.570
 2244SOL    HW218075   1.320   0.996  15.508
 2245SOL     OW18076   1.841   0.175  15.860
 2245SOL    HW118077   1.880   0.090  15.824
 2245SOL    HW218078   1.743   0.177  15.841
 2246SOL     OW18079   0.255   1.348  15.186
 2246SOL    HW118080   0.159   1.349  15.159
 2246SOL    HW218081   0.267   1.401  15.270
 2247SOL     OW18082   1.440   0.856  16.295
 2247SOL    HW118083   1.383   0.908  16.232
 2247SOL    HW218084   1.536   0.868  16.271
 2248SOL     OW18085   0.072   0.166  15.214
 2248SOL    HW118086   0.055   0.249  15.160
 2248SOL    HW218087   0.162   0.129  15.192
 2249SOL     OW18088   1.450   1.220  16.530
 2249SOL    HW118089   1.441   1.210  16.629
 2249SOL    HW218090   1.546   1.213  16.504
 2250SOL     OW18091   1.777   0.342  16.539
 2250SOL    HW118092   1.760   0.373  16.445
 2250SOL    HW218093   1.693   0.305  16.577
 2251SOL     OW18094   0.859   1.374  14.912
 2251SOL    HW118095   0.813   1.389  15.000
 2251SOL    HW218096   0.903   1.459  14.882
 2252SOL     OW18097   0.859   0.956  15.757
 2252SOL    HW118098   0.913   0.887  15.805
 2252SOL    HW218099   0.827   1.025  15.823
 2253SOL     OW18100   1.824   0.192  16.124
 2253SOL    HW118101   1.820   0.102  16.168
 2253SOL    HW218102   1.827   0.181  16.025
 2254SOL     OW18103   1.424   0.214  16.009
 2254SOL    HW118104   1.476   0.149  16.064
 2254SOL    HW218105   1.375   0.277  16.070
 2255SOL     OW18106   1.593   0.221  15.778
 2255SOL    HW118107   1.509   0.220  15.832
 2255SOL    HW218108   1.595   0.304  15.722
 2256SOL     OW18109   0.230   0.628  16.872
 2256SOL    HW118110   0.137   0.626  16.909
 2256SOL    HW218111   0.231   0.589  16.780
 2257SOL     OW18112   0.225   0.275  17.755
 2257SOL    HW118113   0.260   0.258  17.847
 2257SOL    HW218114   0.137   0.230  17.743
 2258SOL     OW18115   1.555   1.511  17.462
 2258SOL    HW118116   1.498   1.495  17.543
 2258SOL    HW218117   1.496   1.521  17.382
 2259SOL     OW18118   1.135   0.703  17.476
 2259SOL    HW118119   1.192   0.781  17.451
 2259SOL    HW218120   1.075   0.729  17.552
 2260SOL     OW18121   0.240   1.091  17.645
 2260SOL    HW118122   0.254   1.007  17.697
 2260SOL    HW218123   0.185   1.155  17.700
 2261SOL     OW18124   1.842   1.767  17.118
 2261SOL    HW118125   1.896   1.738  17.198
 2261SOL    HW218126   1.872   1.857  17.089
 2262SOL     OW18127   1.689   0.922  17.371
 2262SOL    HW118128   1.784   0.893  17.379
 2262SOL    HW218129   1.681   0.987  17.296
 2263SOL     OW18130   1.525   0.999  16.949
 2263SOL    HW118131   1.462   0.923  16.962
 2263SOL    HW218132   1.573   1.017  17.035
 2264SOL     OW18133   1.667   1.714  17.331
 2264SOL    HW118134   1.626   1.691  17.243
 2264SOL    HW218135   1.649   1.640  17.396
 2265SOL     OW18136   1.281   0.345  17.703
 2265SOL    HW118137   1.195   0.295  17.690
 2265SOL    HW218138   1.343   0.291  17.759
 2266SOL     OW18139   1.041   0.701  17.188
 2266SOL    HW118140   1.067   0.697  17.284
 2266SOL    HW218141   0.956   0.650  17.174
 2267SOL     OW18142   1.362   1.144  17.304
 2267SOL    HW118143   1.445   1.115  17.256
 2267SOL    HW218144   1.313   1.211  17.248
 2268SOL     OW18145   1.008   1.456  17.236
 2268SOL    HW118146   0.962   1.528  17.184
 2268SOL    HW218147   1.004   1.476  17.334
 2269SOL     OW18148   1.795   1.066  17.632
 2269SOL    HW118149   1.733   1.051  17.556
 2269SOL    HW218150   1.743   1.077  17.717
 2270SOL     OW18151   0.321   0.943  17.001
 2270SOL    HW118152   0.403   0.982  16.959
 2270SOL    HW218153   0.294   0.861  16.952
 2271SOL     OW18154   1.111   1.776  16.996
 2271SOL    HW118155   1.051   1.714  17.046
 2271SOL    HW218156   1.142   1.732  16.911
 2272SOL     OW18157   0.464   1.743  17.082
 2272SOL    HW118158   0.497   1.782  17.168
 2272SOL    HW218159   0.540   1.736  17.017
 2273SOL     OW18160   0.922   0.503  17.658
 2273SOL    HW118161   0.897   0.494  17.562
 2273SOL    HW218162   0.970   0.421  17.689
 2274SOL     OW18163   1.434   1.188  16.800
 2274SOL    HW118164   1.466   1.112  16.857
 2274SOL    HW218165   1.342   1.215  16.830
 2275SOL     OW18166   1.271   1.797  17.350
 2275SOL    HW118167   1.315   1.861  17.286
 2275SOL    HW218168   1.221   1.849  17.420
 2276SOL     OW18169   0.866   0.454  17.401
 2276SOL    HW118170   0.834   0.526  17.339
 2276SOL    HW218171   0.890   0.373  17.348
 2277SOL     OW18172   1.466   0.590  17.751
 2277SOL    HW118173   1.436   0.495  17.758
 2277SOL    HW218174   1.539   0.606  17.817
 2278SOL     OW18175   1.857   0.833  17.136
 2278SOL    HW118176   1.899   0.769  17.200
 2278SOL    HW218177   1.819   0.782  17.058
 2279SOL     OW18178   0.488   1.385  16.933
 2279SOL    HW118179   0.401   1.370  16.980
 2279SOL    HW218180   0.471   1.411  16.838
 2280SOL     OW18181   1.390   0.575  16.837
 2280SOL    HW118182   1.336   0.554  16.918
 2280SOL    HW218183   1.481   0.534  16.846
 2281SOL     OW18184   0.527   0.256  17.087
 2281SOL    HW118185   0.554   0.197  17.012
 2281SOL    HW218186   0.527   0.351  17.056
 2282SOL     OW18187   1.111   1.195  17.859
 2282SOL    HW118188   1.071   1.239  17.940
 2282SOL    HW218189   1.070   1.232  17.776
 2283SOL     OW18190   1.638   1.099  17.838
 2283SOL    HW118191   1.643   1.180  17.897
 2283SOL    HW218192   1.552   1.101  17.787
 2284SOL     OW18193   1.272   1.445  17.901
 2284SOL    HW118194   1.319   1.458  17.988
 2284SOL    HW218195   1.206   1.371  17.910
 2285SOL     OW18196   1.023   0.766  17.725
 2285SOL    HW118197   1.038   0.787  17.821
 2285SOL    HW218198   0.993   0.671  17.716
 2286SOL     OW18199   1.303   0.838  16.801
 2286SOL    HW118200   1.337   0.745  16.816
 2286SOL    HW218201   1.321   0.865  16.706
 2287SOL     OW18202   0.319   0.810  17.708
 2287SOL    HW118203   0.412   0.846  17.713
 2287SOL    HW218204   0.313   0.725  17.760
 2288SOL     OW18205   0.339   0.509  17.765
 2288SOL    HW118206   0.287   0.426  17.748
 2288SOL    HW218207   0.416   0.514  17.701
 2289SOL     OW18208   0.008   1.326  16.959
 2289SOL    HW118209  -0.085   1.347  16.928
 2289SOL    HW218210   0.018   1.227  16.972
 2290SOL     OW18211   0.040   0.544  17.873
 2290SOL    HW118212   0.125   0.511  17.832
 2290SOL    HW218213   0.053   0.559  17.971
 2291SOL     OW18214   0.815   0.572  17.084
 2291SOL    HW118215   0.822   0.483  17.038
 2291SOL    HW218216   0.721   0.606  17.076
 2292SOL     OW18217   1.657   0.604  17.965
 2292SOL    HW118218   1.619   0.535  18.027
 2292SOL    HW218219   1.739   0.568  17.921
 2293SOL     OW18220   0.671   0.464  18.028
 2293SOL    HW118221   0.637   0.375  17.998
 2293SOL    HW218222   0.697   0.518  17.948
 2294SOL     OW18223   0.473   0.500  16.950
 2294SOL    HW118224   0.534   0.580  16.954
 2294SOL    HW218225   0.378   0.531  16.957
 2295SOL     OW18226   1.302   0.855  17.068
 2295SOL    HW118227   1.216   0.824  17.110
 2295SOL    HW218228   1.298   0.841  16.969
 2296SOL     OW18229   0.083   1.258  17.781
 2296SOL    HW118230   0.078   1.257  17.881
 2296SOL    HW218231   0.000   1.217  17.743
 2297SOL     OW18232   1.280   0.927  17.431
 2297SOL    HW118233   1.340   0.846  17.433
 2297SOL    HW218234   1.320   0.996  17.371
 2298SOL     OW18235   0.672   1.616  16.913
 2298SOL    HW118236   0.681   1.626  16.814
 2298SOL    HW218237   0.632   1.527  16.934
 2299SOL     OW18238   0.263   0.326  17.479
 2299SOL    HW118239   0.184   0.377  17.445
 2299SOL    HW218240   0.254   0.311  17.577
 2300SOL     OW18241   1.039   1.098  17.455
 2300SOL    HW118242   0.969   1.051  17.509
 2300SOL    HW218243   1.098   1.030  17.412
 2301SOL     OW18244   1.014   0.236  17.730
 2301SOL    HW118245   1.006   0.200  17.637
 2301SOL    HW218246   1.012   0.160  17.795
 2302SOL     OW18247   0.255   1.348  17.049
 2302SOL    HW118248   0.159   1.349  17.022
 2302SOL    HW218249   0.267   1.401  17.133
 2303SOL     OW18250   0.072   0.166  17.077
 2303SOL    HW118251   0.055   0.249  17.023
 2303SOL    HW218252   0.162   0.129  17.055
 2304SOL     OW18253   1.183   1.335  16.878
 2304SOL    HW118254   1.084   1.324  16.880
 2304SOL    HW218255   1.217   1.350  16.971
 2305SOL     OW18256   0.859   1.374  16.775
 2305SOL    HW118257   0.813   1.389  16.863
 2305SOL    HW218258   0.903   1.459  16.745
 2306SOL     OW18259   1.861   1.569  17.610
 2306SOL    HW118260   1.790   1.557  17.540
 2306SOL    HW218261   1.862   1.490  17.670
 2307SOL     OW18262   0.428   0.424  17.279
 2307SOL    HW118263   0.458   0.352  17.217
 2307SOL    HW218264   0.389   0.384  17.362
 2308SOL     OW18265   1.424   0.214  17.871
 2308SOL    HW118266   1.476   0.149  17.926
 2308SOL    HW218267   1.375   0.277  17.932
 2309SOL     OW18268   1.352   0.052  16.927
 2309SOL    HW118269   1.387   0.011  16.843
 2309SOL    HW218270   1.262   0.014  16.947
 2310SOL     OW18271   1.300   0.453  17.450
 2310SOL    HW118272   1.241   0.533  17.454
 2310SOL    HW218273   1.315   0.418  17.543
 2311SOL     OW18274   0.039   1.077  17.059
 2311SOL    HW118275   0.138   1.066  17.050
 2311SOL    HW218276  -0.001   0.991  17.091
 2312SOL     OW18277   0.875   1.646  17.096
 2312SOL    HW118278   0.798   1.611  17.042
 2312SOL    HW218279   0.843   1.717  17.158
 2313SOL     OW18280   1.555   3.373   0.703
 2313SOL    HW118281   1.498   3.357   0.784
 2313SOL    HW218282   1.496   3.383   0.623
 2314SOL     OW18283   1.135   2.565   0.717
 2314SOL    HW118284   1.192   2.643   0.692
 2314SOL    HW218285   1.075   2.591   0.793
 2315SOL     OW18286   0.850   2.660   1.823
 2315SOL    HW118287   0.846   2.736   1.888
 2315SOL    HW218288   0.872   2.696   1.732
 2316SOL     OW18289   0.686   3.023   1.803
 2316SOL    HW118290   0.746   3.102   1.817
 2316SOL    HW218291   0.600   3.054   1.762
 2317SOL     OW18292   1.460   3.367   1.339
 2317SOL    HW118293   1.484   3.461   1.365
 2317SOL    HW218294   1.444   3.313   1.421
 2318SOL     OW18295   1.603   2.309   0.737
 2318SOL    HW118296   1.529   2.355   0.687
 2318SOL    HW218297   1.654   2.377   0.790
 2319SOL     OW18298   0.231   3.575   0.483
 2319SOL    HW118299   0.265   3.652   0.537
 2319SOL    HW218300   0.275   3.575   0.393
 2320SOL     OW18301   1.127   3.203   1.690
 2320SOL    HW118302   1.174   3.203   1.778
 2320SOL    HW218303   1.079   3.116   1.679
 2321SOL     OW18304   0.230   3.296   0.538
 2321SOL    HW118305   0.204   3.392   0.538
 2321SOL    HW218306   0.159   3.242   0.583
 2322SOL     OW18307   0.620   3.648   1.439
 2322SOL    HW118308   0.528   3.631   1.474
 2322SOL    HW218309   0.648   3.740   1.465
 2323SOL     OW18310   1.594   1.976   1.480
 2323SOL    HW118311   1.576   2.043   1.408
 2323SOL    HW218312   1.591   2.022   1.569
 2324SOL     OW18313   1.842   3.629   0.359
 2324SOL    HW118314   1.896   3.600   0.439
 2324SOL    HW218315   1.872   3.719   0.330
 2325SOL     OW18316   0.113   2.599   1.597
 2325SOL    HW118317   0.201   2.586   1.642
 2325SOL    HW218318   0.100   2.696   1.575
 2326SOL     OW18319   0.613   3.227   0.726
 2326SOL    HW118320   0.564   3.140   0.735
 2326SOL    HW218321   0.590   3.270   0.639
 2327SOL     OW18322   1.187   3.654   1.616
 2327SOL    HW118323   1.211   3.714   1.540
 2327SOL    HW218324   1.194   3.559   1.586
 2328SOL     OW18325   0.317   2.113   1.801
 2328SOL    HW118326   0.388   2.184   1.807
 2328SOL    HW218327   0.229   2.152   1.829
 2329SOL     OW18328   1.667   3.576   0.572
 2329SOL    HW118329   1.626   3.553   0.484
 2329SOL    HW218330   1.649   3.502   0.637
 2330SOL     OW18331   1.281   2.207   0.944
 2330SOL    HW118332   1.195   2.157   0.931
 2330SOL    HW218333   1.343   2.153   1.000
 2331SOL     OW18334   1.576   3.524   0.307
 2331SOL    HW118335   1.665   3.570   0.310
 2331SOL    HW218336   1.555   3.500   0.212
 2332SOL     OW18337   0.807   2.467   1.465
 2332SOL    HW118338   0.760   2.464   1.554
 2332SOL    HW218339   0.756   2.412   1.399
 2333SOL     OW18340   0.973   2.752   1.572
 2333SOL    HW118341   1.019   2.668   1.543
 2333SOL    HW218342   0.917   2.786   1.497
 2334SOL     OW18343   1.041   2.563   0.429
 2334SOL    HW118344   1.067   2.559   0.525
 2334SOL    HW218345   0.956   2.512   0.415
 2335SOL     OW18346   0.130   3.683   1.571
 2335SOL    HW118347   0.120   3.668   1.670
 2335SOL    HW218348   0.044   3.719   1.535
 2336SOL     OW18349   0.865   2.210   0.195
 2336SOL    HW118350   0.924   2.273   0.146
 2336SOL    HW218351   0.884   2.116   0.166
 2337SOL     OW18352   1.719   2.447   1.831
 2337SOL    HW118353   1.693   2.536   1.795
 2337SOL    HW218354   1.717   2.379   1.758
 2338SOL     OW18355   1.362   3.006   0.545
 2338SOL    HW118356   1.445   2.977   0.497
 2338SOL    HW218357   1.313   3.073   0.489
 2339SOL     OW18358   1.008   3.318   0.477
 2339SOL    HW118359   0.962   3.390   0.425
 2339SOL    HW218360   1.004   3.338   0.575
 2340SOL     OW18361   1.227   3.412   1.506
 2340SOL    HW118362   1.233   3.335   1.570
 2340SOL    HW218363   1.175   3.386   1.426
 2341SOL     OW18364   1.458   2.597   0.728
 2341SOL    HW118365   1.453   2.532   0.803
 2341SOL    HW218366   1.538   2.656   0.741
 2342SOL     OW18367   0.461   3.128   1.727
 2342SOL    HW118368   0.411   3.129   1.641
 2342SOL    HW218369   0.398   3.110   1.803
 2343SOL     OW18370   1.111   3.638   0.237
 2343SOL    HW118371   1.051   3.576   0.287
 2343SOL    HW218372   1.142   3.594   0.152
 2344SOL     OW18373   0.464   3.605   0.323
 2344SOL    HW118374   0.497   3.644   0.409
 2344SOL    HW218375   0.540   3.598   0.258
 2345SOL     OW18376   0.249   3.647   1.241
 2345SOL    HW118377   0.306   3.582   1.291
 2345SOL    HW218378   0.233   3.614   1.148
 2346SOL     OW18379   0.940   3.560   0.904
 2346SOL    HW118380   1.020   3.503   0.925
 2346SOL    HW218381   0.891   3.520   0.827
 2347SOL     OW18382   1.547   2.084   1.729
 2347SOL    HW118383   1.542   2.121   1.821
 2347SOL    HW218384   1.475   2.015   1.717
 2348SOL     OW18385   0.614   1.984   0.117
 2348SOL    HW118386   0.712   1.962   0.124
 2348SOL    HW218387   0.583   1.967   0.024
 2349SOL     OW18388   0.781   2.126   1.749
 2349SOL    HW118389   0.848   2.065   1.792
 2349SOL    HW218390   0.708   2.145   1.814
 2350SOL     OW18391   0.803   3.264   0.924
 2350SOL    HW118392   0.893   3.278   0.882
 2350SOL    HW218393   0.732   3.266   0.853
 2351SOL     OW18394   0.922   2.365   0.899
 2351SOL    HW118395   0.897   2.356   0.803
 2351SOL    HW218396   0.970   2.283   0.930
 2352SOL     OW18397   0.539   1.926   0.512
 2352SOL    HW118398   0.458   1.927   0.570
 2352SOL    HW218399   0.542   2.009   0.457
 2353SOL     OW18400   1.271   3.659   0.591
 2353SOL    HW118401   1.315   3.723   0.527
 2353SOL    HW218402   1.221   3.711   0.661
 2354SOL     OW18403   1.032   2.411   0.016
 2354SOL    HW118404   0.991   2.493  -0.023
 2354SOL    HW218405   1.096   2.437   0.089
 2355SOL     OW18406   0.078   2.418   1.386
 2355SOL    HW118407   0.170   2.417   1.345
 2355SOL    HW218408   0.072   2.492   1.453
 2356SOL     OW18409   0.866   2.316   0.642
 2356SOL    HW118410   0.834   2.388   0.580
 2356SOL    HW218411   0.890   2.235   0.589
 2357SOL     OW18412   1.466   2.452   0.992
 2357SOL    HW118413   1.436   2.357   0.999
 2357SOL    HW218414   1.539   2.468   1.058
 2358SOL     OW18415   1.664   3.142   0.657
 2358SOL    HW118416   1.763   3.150   0.671
 2358SOL    HW218417   1.619   3.226   0.688
 2359SOL     OW18418   0.527   2.118   0.328
 2359SOL    HW118419   0.554   2.059   0.253
 2359SOL    HW218420   0.527   2.213   0.297
 2360SOL     OW18421   1.754   3.085   1.588
 2360SOL    HW118422   1.845   3.046   1.575
 2360SOL    HW218423   1.762   3.181   1.612
 2361SOL     OW18424   1.064   3.209   1.340
 2361SOL    HW118425   0.984   3.186   1.395
 2361SOL    HW218426   1.147   3.183   1.389
 2362SOL     OW18427   1.592   3.491   1.625
 2362SOL    HW118428   1.619   3.525   1.535
 2362SOL    HW218429   1.671   3.453   1.671
 2363SOL     OW18430   1.111   3.057   1.100
 2363SOL    HW118431   1.071   3.101   1.181
 2363SOL    HW218432   1.070   3.094   1.017
 2364SOL     OW18433   0.915   1.951   1.402
 2364SOL    HW118434   0.940   1.931   1.307
 2364SOL    HW218435   0.987   2.007   1.444
 2365SOL     OW18436   0.980   2.978   1.719
 2365SOL    HW118437   0.881   2.984   1.729
 2365SOL    HW218438   1.003   2.898   1.663
 2366SOL     OW18439   0.410   2.675   1.251
 2366SOL    HW118440   0.496   2.687   1.301
 2366SOL    HW218441   0.368   2.588   1.278
 2367SOL     OW18442   1.274   2.248   1.262
 2367SOL    HW118443   1.295   2.322   1.326
 2367SOL    HW218444   1.185   2.265   1.219
 2368SOL     OW18445   0.367   2.962   0.501
 2368SOL    HW118446   0.360   3.045   0.445
 2368SOL    HW218447   0.371   2.882   0.441
 2369SOL     OW18448   1.252   3.210   0.388
 2369SOL    HW118449   1.302   3.287   0.428
 2369SOL    HW218450   1.157   3.212   0.420
 2370SOL     OW18451   1.582   2.501   0.472
 2370SOL    HW118452   1.551   2.562   0.545
 2370SOL    HW218453   1.632   2.553   0.403
 2371SOL     OW18454   0.402   2.613   1.598
 2371SOL    HW118455   0.470   2.668   1.551
 2371SOL    HW218456   0.442   2.525   1.625
 2372SOL     OW18457   1.013   1.967   1.770
 2372SOL    HW118458   1.019   2.052   1.718
 2372SOL    HW218459   1.045   1.891   1.713
 2373SOL     OW18460   0.504   1.912   1.740
 2373SOL    HW118461   0.462   1.855   1.670
 2373SOL    HW218462   0.438   1.981   1.772
 2374SOL     OW18463   1.360   2.724   1.045
 2374SOL    HW118464   1.285   2.724   0.979
 2374SOL    HW218465   1.397   2.632   1.054
 2375SOL     OW18466   1.728   2.797   1.854
 2375SOL    HW118467   1.682   2.790   1.765
 2375SOL    HW218468   1.666   2.841   1.920
 2376SOL     OW18469   0.980   3.435   1.700
 2376SOL    HW118470   0.960   3.479   1.612
 2376SOL    HW218471   1.019   3.344   1.684
 2377SOL     OW18472   1.859   3.380   1.605
 2377SOL    HW118473   1.873   3.407   1.510
 2377SOL    HW218474   1.942   3.402   1.658
 2378SOL     OW18475   0.350   2.760   1.804
 2378SOL    HW118476   0.426   2.804   1.852
 2378SOL    HW218477   0.385   2.713   1.722
 2379SOL     OW18478   1.303   2.700   0.042
 2379SOL    HW118479   1.337   2.607   0.057
 2379SOL    HW218480   1.321   2.727  -0.053
 2380SOL     OW18481   1.068   3.195   0.849
 2380SOL    HW118482   1.075   3.111   0.794
 2380SOL    HW218483   1.130   3.264   0.813
 2381SOL     OW18484   1.138   2.242   1.678
 2381SOL    HW118485   1.093   2.305   1.742
 2381SOL    HW218486   1.231   2.273   1.661
 2382SOL     OW18487   1.160   2.069   1.477
 2382SOL    HW118488   1.160   2.133   1.554
 2382SOL    HW218489   1.188   2.117   1.394
 2383SOL     OW18490   0.504   3.430   0.910
 2383SOL    HW118491   0.570   3.504   0.919
 2383SOL    HW218492   0.548   3.351   0.868
 2384SOL     OW18493   0.189   2.382   1.722
 2384SOL    HW118494   0.248   2.342   1.652
 2384SOL    HW218495   0.131   2.453   1.681
 2385SOL     OW18496   0.815   2.434   0.325
 2385SOL    HW118497   0.822   2.345   0.279
 2385SOL    HW218498   0.721   2.468   0.317
 2386SOL     OW18499   1.657   2.466   1.206
 2386SOL    HW118500   1.619   2.397   1.268
 2386SOL    HW218501   1.739   2.430   1.162
 2387SOL     OW18502   1.347   2.921   1.234
 2387SOL    HW118503   1.371   2.858   1.160
 2387SOL    HW218504   1.257   2.961   1.216
 2388SOL     OW18505   1.759   3.609   1.154
 2388SOL    HW118506   1.820   3.639   1.081
 2388SOL    HW218507   1.721   3.520   1.132
 2389SOL     OW18508   0.083   3.120   1.022
 2389SOL    HW118509   0.078   3.119   1.122
 2389SOL    HW218510   0.000   3.079   0.984
 2390SOL     OW18511   0.903   1.948   0.133
 2390SOL    HW118512   0.954   1.949   0.047
 2390SOL    HW218513   0.959   1.906   0.204
 2391SOL     OW18514   1.388   3.435   0.477
 2391SOL    HW118515   1.455   3.447   0.403
 2391SOL    HW218516   1.348   3.524   0.500
 2392SOL     OW18517   0.130   3.656   1.851
 2392SOL    HW118518   0.089   3.582   1.904
 2392SOL    HW218519   0.194   3.707   1.909
 2393SOL     OW18520   1.280   2.789   0.672
 2393SOL    HW118521   1.340   2.708   0.674
 2393SOL    HW218522   1.320   2.858   0.612
 2394SOL     OW18523   0.830   3.135   1.422
 2394SOL    HW118524   0.825   3.168   1.517
 2394SOL    HW218525   0.744   3.154   1.376
 2395SOL     OW18526   1.650   3.582   1.394
 2395SOL    HW118527   1.703   3.592   1.310
 2395SOL    HW218528   1.623   3.672   1.428
 2396SOL     OW18529   1.194   3.474   0.031
 2396SOL    HW118530   1.200   3.381   0.068
 2396SOL    HW218531   1.135   3.474  -0.049
 2397SOL     OW18532   0.916   2.772   0.291
 2397SOL    HW118533   0.979   2.810   0.223
 2397SOL    HW218534   0.956   2.689   0.330
 2398SOL     OW18535   1.504   3.469   0.044
 2398SOL    HW118536   1.412   3.506   0.051
 2398SOL    HW218537   1.542   3.489  -0.046
 2399SOL     OW18538   1.039   2.960   0.696
 2399SOL    HW118539   0.969   2.913   0.750
 2399SOL    HW218540   1.098   2.892   0.653
 2400SOL     OW18541   0.590   3.349   0.491
 2400SOL    HW118542   0.632   3.291   0.421
 2400SOL    HW218543   0.546   3.428   0.447
 2401SOL     OW18544   0.255   3.210   0.290
 2401SOL    HW118545   0.159   3.211   0.263
 2401SOL    HW218546   0.267   3.263   0.374
 2402SOL     OW18547   0.105   2.875   1.726
 2402SOL    HW118548   0.028   2.842   1.780
 2402SOL    HW218549   0.190   2.845   1.768
 2403SOL     OW18550   0.672   2.065   1.489
 2403SOL    HW118551   0.762   2.049   1.449
 2403SOL    HW218552   0.680   2.070   1.588
 2404SOL     OW18553   1.183   3.197   0.119
 2404SOL    HW118554   1.084   3.186   0.121
 2404SOL    HW218555   1.217   3.212   0.212
 2405SOL     OW18556   0.613   2.704   1.431
 2405SOL    HW118557   0.669   2.785   1.414
 2405SOL    HW218558   0.672   2.624   1.434
 2406SOL     OW18559   1.493   3.629   0.959
 2406SOL    HW118560   1.526   3.693   0.890
 2406SOL    HW218561   1.559   3.623   1.034
 2407SOL     OW18562   0.716   2.427   1.708
 2407SOL    HW118563   0.735   2.492   1.782
 2407SOL    HW218564   0.776   2.347   1.717
 2408SOL     OW18565   1.450   3.082   1.633
 2408SOL    HW118566   1.441   3.072   1.732
 2408SOL    HW218567   1.546   3.075   1.607
 2409SOL     OW18568   0.859   3.236   0.016
 2409SOL    HW118569   0.813   3.251   0.104
 2409SOL    HW218570   0.903   3.321  -0.014
 2410SOL     OW18571   0.661   3.652   0.953
 2410SOL    HW118572   0.615   3.740   0.940
 2410SOL    HW218573   0.760   3.664   0.946
 2411SOL     OW18574   0.859   2.818   0.861
 2411SOL    HW118575   0.913   2.749   0.909
 2411SOL    HW218576   0.827   2.887   0.927
 2412SOL     OW18577   1.861   3.431   0.851
 2412SOL    HW118578   1.790   3.419   0.781
 2412SOL    HW218579   1.862   3.352   0.911
 2413SOL     OW18580   0.672   3.253   1.624
 2413SOL    HW118581   0.594   3.203   1.662
 2413SOL    HW218582   0.669   3.348   1.655
 2414SOL     OW18583   1.824   2.054   1.227
 2414SOL    HW118584   1.820   1.964   1.271
 2414SOL    HW218585   1.827   2.043   1.128
 2415SOL     OW18586   1.705   3.349   1.104
 2415SOL    HW118587   1.612   3.324   1.077
 2415SOL    HW218588   1.731   3.299   1.186
 2416SOL     OW18589   0.317   2.409   1.280
 2416SOL    HW118590   0.355   2.350   1.352
 2416SOL    HW218591   0.357   2.383   1.192
 2417SOL     OW18592   0.812   3.448   0.687
 2417SOL    HW118593   0.844   3.458   0.593
 2417SOL    HW218594   0.733   3.386   0.689
 2418SOL     OW18595   0.770   3.192   0.301
 2418SOL    HW118596   0.724   3.105   0.318
 2418SOL    HW218597   0.861   3.189   0.342
 2419SOL     OW18598   1.352   1.914   0.168
 2419SOL    HW118599   1.387   1.873   0.084
 2419SOL    HW218600   1.262   1.876   0.188
 2420SOL     OW18601   1.300   2.315   0.691
 2420SOL    HW118602   1.241   2.395   0.695
 2420SOL    HW218603   1.315   2.280   0.784
 2421SOL     OW18604   0.039   2.939   0.300
 2421SOL    HW118605   0.138   2.928   0.291
 2421SOL    HW218606  -0.001   2.853   0.332
 2422SOL     OW18607   0.875   3.508   0.337
 2422SOL    HW118608   0.798   3.473   0.283
 2422SOL    HW218609   0.843   3.579   0.399
 2423SOL     OW18610   0.230   2.490   1.975
 2423SOL    HW118611   0.137   2.488   2.012
 2423SOL    HW218612   0.231   2.451   1.883
 2424SOL     OW18613   0.225   2.137   2.858
 2424SOL    HW118614   0.260   2.120   2.950
 2424SOL    HW218615   0.137   2.092   2.846
 2425SOL     OW18616   0.019   2.230   2.509
 2425SOL    HW118617  -0.063   2.273   2.548
 2425SOL    HW218618  -0.009   2.157   2.446
 2426SOL     OW18619   0.569   3.137   3.027
 2426SOL    HW118620   0.476   3.130   2.990
 2426SOL    HW218621   0.580   3.226   3.071
 2427SOL     OW18622   1.555   3.373   2.565
 2427SOL    HW118623   1.498   3.357   2.646
 2427SOL    HW218624   1.496   3.383   2.485
 2428SOL     OW18625   1.135   2.565   2.579
 2428SOL    HW118626   1.192   2.643   2.554
 2428SOL    HW218627   1.075   2.591   2.655
 2429SOL     OW18628   1.755   2.469   2.093
 2429SOL    HW118629   1.743   2.456   1.994
 2429SOL    HW218630   1.725   2.388   2.142
 2430SOL     OW18631   0.768   3.006   2.885
 2430SOL    HW118632   0.690   3.023   2.945
 2430SOL    HW218633   0.802   3.093   2.849
 2431SOL     OW18634   0.850   2.660   3.685
 2431SOL    HW118635   0.846   2.736   3.750
 2431SOL    HW218636   0.872   2.696   3.594
 2432SOL     OW18637   0.685   2.874   2.527
 2432SOL    HW118638   0.754   2.858   2.597
 2432SOL    HW218639   0.612   2.931   2.565
 2433SOL     OW18640   0.686   3.023   3.665
 2433SOL    HW118641   0.746   3.102   3.679
 2433SOL    HW218642   0.600   3.054   3.624
 2434SOL     OW18643   0.335   3.297   2.923
 2434SOL    HW118644   0.257   3.266   2.870
 2434SOL    HW218645   0.393   3.355   2.866
 2435SOL     OW18646   1.460   3.367   3.201
 2435SOL    HW118647   1.484   3.461   3.227
 2435SOL    HW218648   1.444   3.313   3.283
 2436SOL     OW18649   0.438   2.254   3.361
 2436SOL    HW118650   0.520   2.198   3.370
 2436SOL    HW218651   0.357   2.196   3.365
 2437SOL     OW18652   1.603   2.309   2.599
 2437SOL    HW118653   1.529   2.355   2.549
 2437SOL    HW218654   1.654   2.377   2.652
 2438SOL     OW18655   0.231   3.575   2.345
 2438SOL    HW118656   0.265   3.652   2.399
 2438SOL    HW218657   0.275   3.575   2.255
 2439SOL     OW18658   1.127   3.203   3.552
 2439SOL    HW118659   1.174   3.203   3.640
 2439SOL    HW218660   1.079   3.116   3.541
 2440SOL     OW18661   0.230   3.296   2.400
 2440SOL    HW118662   0.204   3.392   2.400
 2440SOL    HW218663   0.159   3.242   2.445
 2441SOL     OW18664   0.240   2.953   2.748
 2441SOL    HW118665   0.254   2.869   2.800
 2441SOL    HW218666   0.185   3.017   2.803
 2442SOL     OW18667   0.620   3.648   3.301
 2442SOL    HW118668   0.528   3.631   3.336
 2442SOL    HW218669   0.648   3.740   3.327
 2443SOL     OW18670   0.606   2.826   1.985
 2443SOL    HW118671   0.613   2.910   1.931
 2443SOL    HW218672   0.652   2.839   2.073
 2444SOL     OW18673   1.594   1.976   3.342
 2444SOL    HW118674   1.576   2.043   3.270
 2444SOL    HW218675   1.591   2.022   3.431
 2445SOL     OW18676   0.122   2.505   2.425
 2445SOL    HW118677   0.077   2.417   2.442
 2445SOL    HW218678   0.121   2.559   2.509
 2446SOL     OW18679   1.842   3.629   2.221
 2446SOL    HW118680   1.896   3.600   2.301
 2446SOL    HW218681   1.872   3.719   2.192
 2447SOL     OW18682   0.027   3.458   1.979
 2447SOL    HW118683   0.008   3.362   2.000
 2447SOL    HW218684  -0.006   3.516   2.054
 2448SOL     OW18685   1.689   2.784   2.474
 2448SOL    HW118686   1.784   2.755   2.482
 2448SOL    HW218687   1.681   2.849   2.399
 2449SOL     OW18688   1.641   2.970   2.294
 2449SOL    HW118689   1.727   2.972   2.242
 2449SOL    HW218690   1.655   3.017   2.382
 2450SOL     OW18691   0.113   2.599   3.459
 2450SOL    HW118692   0.201   2.586   3.504
 2450SOL    HW218693   0.100   2.696   3.437
 2451SOL     OW18694   0.613   3.227   2.588
 2451SOL    HW118695   0.564   3.140   2.597
 2451SOL    HW218696   0.590   3.270   2.501
 2452SOL     OW18697   1.293   3.090   3.285
 2452SOL    HW118698   1.330   3.017   3.227
 2452SOL    HW218699   1.345   3.095   3.370
 2453SOL     OW18700   0.809   1.866   2.364
 2453SOL    HW118701   0.849   1.957   2.355
 2453SOL    HW218702   0.709   1.874   2.370
 2454SOL     OW18703   0.197   2.838   3.126
 2454SOL    HW118704   0.286   2.793   3.112
 2454SOL    HW218705   0.124   2.773   3.107
 2455SOL     OW18706   1.525   2.861   2.052
 2455SOL    HW118707   1.462   2.785   2.065
 2455SOL    HW218708   1.573   2.879   2.138
 2456SOL     OW18709   1.187   3.654   3.478
 2456SOL    HW118710   1.211   3.714   3.402
 2456SOL    HW218711   1.194   3.559   3.448
 2457SOL     OW18712   0.317   2.113   3.663
 2457SOL    HW118713   0.388   2.184   3.669
 2457SOL    HW218714   0.229   2.152   3.691
 2458SOL     OW18715   1.466   3.279   2.815
 2458SOL    HW118716   1.407   3.285   2.895
 2458SOL    HW218717   1.451   3.191   2.769
 2459SOL     OW18718   1.667   3.576   2.434
 2459SOL    HW118719   1.626   3.553   2.346
 2459SOL    HW218720   1.649   3.502   2.499
 2460SOL     OW18721   0.598   2.591   2.132
 2460SOL    HW118722   0.622   2.660   2.064
 2460SOL    HW218723   0.520   2.624   2.186
 2461SOL     OW18724   1.281   2.207   2.806
 2461SOL    HW118725   1.195   2.157   2.793
 2461SOL    HW218726   1.343   2.153   2.862
 2462SOL     OW18727   1.576   3.524   2.169
 2462SOL    HW118728   1.665   3.570   2.172
 2462SOL    HW218729   1.555   3.500   2.074
 2463SOL     OW18730   0.807   2.467   3.327
 2463SOL    HW118731   0.760   2.464   3.416
 2463SOL    HW218732   0.756   2.412   3.261
 2464SOL     OW18733   1.394   2.331   3.536
 2464SOL    HW118734   1.374   2.374   3.624
 2464SOL    HW218735   1.472   2.269   3.545
 2465SOL     OW18736   0.973   2.752   3.434
 2465SOL    HW118737   1.019   2.668   3.405
 2465SOL    HW218738   0.917   2.786   3.359
 2466SOL     OW18739   0.991   2.272   3.104
 2466SOL    HW118740   0.914   2.306   3.158
 2466SOL    HW218741   0.957   2.221   3.025
 2467SOL     OW18742   1.041   2.563   2.291
 2467SOL    HW118743   1.067   2.559   2.387
 2467SOL    HW218744   0.956   2.512   2.277
 2468SOL     OW18745   0.076   2.673   2.651
 2468SOL    HW118746   0.175   2.661   2.660
 2468SOL    HW218747   0.052   2.768   2.672
 2469SOL     OW18748   0.130   3.683   3.433
 2469SOL    HW118749   0.120   3.668   3.532
 2469SOL    HW218750   0.044   3.719   3.397
 2470SOL     OW18751   0.865   2.210   2.057
 2470SOL    HW118752   0.924   2.273   2.008
 2470SOL    HW218753   0.884   2.116   2.028
 2471SOL     OW18754   1.719   2.447   3.693
 2471SOL    HW118755   1.693   2.536   3.657
 2471SOL    HW218756   1.717   2.379   3.620
 2472SOL     OW18757   1.362   3.006   2.407
 2472SOL    HW118758   1.445   2.977   2.359
 2472SOL    HW218759   1.313   3.073   2.351
 2473SOL     OW18760   0.550   2.058   2.747
 2473SOL    HW118761   0.545   2.053   2.847
 2473SOL    HW218762   0.552   2.154   2.718
 2474SOL     OW18763   1.008   3.318   2.339
 2474SOL    HW118764   0.962   3.390   2.287
 2474SOL    HW218765   1.004   3.338   2.437
 2475SOL     OW18766   0.351   3.663   2.715
 2475SOL    HW118767   0.401   3.577   2.721
 2475SOL    HW218768   0.416   3.740   2.712
 2476SOL     OW18769   1.795   2.928   2.735
 2476SOL    HW118770   1.733   2.913   2.659
 2476SOL    HW218771   1.743   2.939   2.820
 2477SOL     OW18772   1.227   3.412   3.368
 2477SOL    HW118773   1.233   3.335   3.432
 2477SOL    HW218774   1.175   3.386   3.288
 2478SOL     OW18775   0.321   2.805   2.104
 2478SOL    HW118776   0.403   2.844   2.062
 2478SOL    HW218777   0.294   2.723   2.055
 2479SOL     OW18778   1.458   2.597   2.590
 2479SOL    HW118779   1.453   2.532   2.665
 2479SOL    HW218780   1.538   2.656   2.603
 2480SOL     OW18781   0.461   3.128   3.589
 2480SOL    HW118782   0.411   3.129   3.503
 2480SOL    HW218783   0.398   3.110   3.665
 2481SOL     OW18784   1.111   3.638   2.099
 2481SOL    HW118785   1.051   3.576   2.149
 2481SOL    HW218786   1.142   3.594   2.014
 2482SOL     OW18787   0.202   2.147   3.360
 2482SOL    HW118788   0.122   2.207   3.347
 2482SOL    HW218789   0.192   2.098   3.446
 2483SOL     OW18790   1.632   3.239   1.943
 2483SOL    HW118791   1.600   3.333   1.933
 2483SOL    HW218792   1.556   3.176   1.931
 2484SOL     OW18793   0.464   3.605   2.185
 2484SOL    HW118794   0.497   3.644   2.271
 2484SOL    HW218795   0.540   3.598   2.120
 2485SOL     OW18796   1.400   1.969   2.288
 2485SOL    HW118797   1.376   1.932   2.198
 2485SOL    HW218798   1.499   1.985   2.292
 2486SOL     OW18799   0.249   3.647   3.103
 2486SOL    HW118800   0.306   3.582   3.153
 2486SOL    HW218801   0.233   3.614   3.010
 2487SOL     OW18802   0.940   3.560   2.766
 2487SOL    HW118803   1.020   3.503   2.787
 2487SOL    HW218804   0.891   3.520   2.689
 2488SOL     OW18805   0.382   2.562   2.342
 2488SOL    HW118806   0.427   2.472   2.339
 2488SOL    HW218807   0.288   2.551   2.375
 2489SOL     OW18808   1.547   2.084   3.591
 2489SOL    HW118809   1.542   2.121   3.683
 2489SOL    HW218810   1.475   2.015   3.579
 2490SOL     OW18811   0.614   1.984   1.979
 2490SOL    HW118812   0.712   1.962   1.986
 2490SOL    HW218813   0.583   1.967   1.886
 2491SOL     OW18814   0.781   2.126   3.611
 2491SOL    HW118815   0.848   2.065   3.654
 2491SOL    HW218816   0.708   2.145   3.676
 2492SOL     OW18817   0.888   3.376   3.057
 2492SOL    HW118818   0.865   3.351   2.963
 2492SOL    HW218819   0.949   3.307   3.096
 2493SOL     OW18820   1.351   2.452   3.295
 2493SOL    HW118821   1.379   2.409   3.380
 2493SOL    HW218822   1.376   2.548   3.296
 2494SOL     OW18823   0.803   3.264   2.786
 2494SOL    HW118824   0.893   3.278   2.744
 2494SOL    HW218825   0.732   3.266   2.715
 2495SOL     OW18826   0.922   2.365   2.761
 2495SOL    HW118827   0.897   2.356   2.665
 2495SOL    HW218828   0.970   2.283   2.792
 2496SOL     OW18829   0.539   1.926   2.374
 2496SOL    HW118830   0.458   1.927   2.432
 2496SOL    HW218831   0.542   2.009   2.319
 2497SOL     OW18832   1.434   3.050   1.903
 2497SOL    HW118833   1.466   2.974   1.960
 2497SOL    HW218834   1.342   3.077   1.933
 2498SOL     OW18835   0.297   1.897   2.033
 2498SOL    HW118836   0.346   1.981   2.012
 2498SOL    HW218837   0.359   1.832   2.078
 2499SOL     OW18838   0.935   2.098   2.342
 2499SOL    HW118839   0.887   2.139   2.264
 2499SOL    HW218840   1.034   2.096   2.323
 2500SOL     OW18841   1.076   2.545   3.326
 2500SOL    HW118842   0.996   2.484   3.329
 2500SOL    HW218843   1.157   2.492   3.302
 2501SOL     OW18844   1.227   3.432   2.655
 2501SOL    HW118845   1.248   3.506   2.590
 2501SOL    HW218846   1.295   3.432   2.728
 2502SOL     OW18847   0.459   3.014   2.603
 2502SOL    HW118848   0.388   2.987   2.668
 2502SOL    HW218849   0.433   2.986   2.510
 2503SOL     OW18850   1.271   3.659   2.453
 2503SOL    HW118851   1.315   3.723   2.389
 2503SOL    HW218852   1.221   3.711   2.523
 2504SOL     OW18853   1.032   2.411   1.878
 2504SOL    HW118854   0.991   2.493   1.839
 2504SOL    HW218855   1.096   2.437   1.951
 2505SOL     OW18856   0.078   2.418   3.248
 2505SOL    HW118857   0.170   2.417   3.207
 2505SOL    HW218858   0.072   2.492   3.315
 2506SOL     OW18859   0.561   2.084   3.009
 2506SOL    HW118860   0.599   2.000   3.046
 2506SOL    HW218861   0.473   2.103   3.053
 2507SOL     OW18862   0.866   2.316   2.504
 2507SOL    HW118863   0.834   2.388   2.442
 2507SOL    HW218864   0.890   2.235   2.451
 2508SOL     OW18865   1.017   1.901   2.615
 2508SOL    HW118866   0.945   1.906   2.546
 2508SOL    HW218867   0.993   1.832   2.684
 2509SOL     OW18868   1.429   3.035   2.729
 2509SOL    HW118869   1.374   2.951   2.722
 2509SOL    HW218870   1.455   3.064   2.637
 2510SOL     OW18871   1.466   2.452   2.854
 2510SOL    HW118872   1.436   2.357   2.861
 2510SOL    HW218873   1.539   2.468   2.920
 2511SOL     OW18874   1.857   2.695   2.239
 2511SOL    HW118875   1.899   2.631   2.303
 2511SOL    HW218876   1.819   2.644   2.161
 2512SOL     OW18877   0.488   3.247   2.036
 2512SOL    HW118878   0.401   3.232   2.083
 2512SOL    HW218879   0.471   3.273   1.941
 2513SOL     OW18880   1.664   3.142   2.519
 2513SOL    HW118881   1.763   3.150   2.533
 2513SOL    HW218882   1.619   3.226   2.550
 2514SOL     OW18883   1.390   2.437   1.940
 2514SOL    HW118884   1.336   2.416   2.021
 2514SOL    HW218885   1.481   2.396   1.949
 2515SOL     OW18886   0.527   2.118   2.190
 2515SOL    HW118887   0.554   2.059   2.115
 2515SOL    HW218888   0.527   2.213   2.159
 2516SOL     OW18889   1.754   3.085   3.450
 2516SOL    HW118890   1.845   3.046   3.437
 2516SOL    HW218891   1.762   3.181   3.474
 2517SOL     OW18892   1.064   3.209   3.202
 2517SOL    HW118893   0.984   3.186   3.257
 2517SOL    HW218894   1.147   3.183   3.251
 2518SOL     OW18895   1.592   3.491   3.487
 2518SOL    HW118896   1.619   3.525   3.397
 2518SOL    HW218897   1.671   3.453   3.533
 2519SOL     OW18898   1.111   3.057   2.962
 2519SOL    HW118899   1.071   3.101   3.043
 2519SOL    HW218900   1.070   3.094   2.879
 2520SOL     OW18901   1.638   2.961   2.941
 2520SOL    HW118902   1.643   3.042   3.000
 2520SOL    HW218903   1.552   2.963   2.890
 2521SOL     OW18904   0.980   2.978   3.581
 2521SOL    HW118905   0.881   2.984   3.591
 2521SOL    HW218906   1.003   2.898   3.525
 2522SOL     OW18907   0.705   2.912   2.230
 2522SOL    HW118908   0.691   2.919   2.329
 2522SOL    HW218909   0.789   2.861   2.212
 2523SOL     OW18910   0.410   2.675   3.113
 2523SOL    HW118911   0.496   2.687   3.163
 2523SOL    HW218912   0.368   2.588   3.140
 2524SOL     OW18913   1.274   2.248   3.124
 2524SOL    HW118914   1.295   2.322   3.188
 2524SOL    HW218915   1.185   2.265   3.081
 2525SOL     OW18916   0.064   3.426   3.193
 2525SOL    HW118917   0.018   3.508   3.159
 2525SOL    HW218918   0.162   3.445   3.202
 2526SOL     OW18919   0.367   2.962   2.363
 2526SOL    HW118920   0.360   3.045   2.307
 2526SOL    HW218921   0.371   2.882   2.303
 2527SOL     OW18922   0.566   2.399   2.727
 2527SOL    HW118923   0.578   2.465   2.653
 2527SOL    HW218924   0.612   2.433   2.810
 2528SOL     OW18925   1.272   3.307   3.004
 2528SOL    HW118926   1.319   3.320   3.091
 2528SOL    HW218927   1.206   3.233   3.013
 2529SOL     OW18928   1.582   2.501   2.334
 2529SOL    HW118929   1.551   2.562   2.407
 2529SOL    HW218930   1.632   2.553   2.265
 2530SOL     OW18931   0.354   3.372   3.191
 2530SOL    HW118932   0.333   3.328   3.104
 2530SOL    HW218933   0.451   3.398   3.194
 2531SOL     OW18934   0.402   2.613   3.460
 2531SOL    HW118935   0.470   2.668   3.413
 2531SOL    HW218936   0.442   2.525   3.487
 2532SOL     OW18937   1.587   2.641   3.532
 2532SOL    HW118938   1.495   2.679   3.527
 2532SOL    HW218939   1.647   2.688   3.467
 2533SOL     OW18940   1.013   1.967   3.632
 2533SOL    HW118941   1.019   2.052   3.580
 2533SOL    HW218942   1.045   1.891   3.575
 2534SOL     OW18943   0.504   1.912   3.602
 2534SOL    HW118944   0.462   1.855   3.532
 2534SOL    HW218945   0.438   1.981   3.634
 2535SOL     OW18946   0.573   2.732   2.891
 2535SOL    HW118947   0.617   2.821   2.882
 2535SOL    HW218948   0.510   2.732   2.968
 2536SOL     OW18949   1.360   2.724   2.907
 2536SOL    HW118950   1.285   2.724   2.841
 2536SOL    HW218951   1.397   2.632   2.916
 2537SOL     OW18952   1.209   2.387   2.137
 2537SOL    HW118953   1.222   2.303   2.191
 2537SOL    HW218954   1.180   2.461   2.197
 2538SOL     OW18955   0.307   2.075   3.093
 2538SOL    HW118956   0.284   2.112   3.183
 2538SOL    HW218957   0.277   1.980   3.087
 2539SOL     OW18958   0.037   3.172   3.144
 2539SOL    HW118959   0.090   3.123   3.212
 2539SOL    HW218960   0.059   3.270   3.149
 2540SOL     OW18961   0.732   2.496   2.926
 2540SOL    HW118962   0.791   2.470   2.850
 2540SOL    HW218963   0.704   2.592   2.915
 2541SOL     OW18964   1.728   2.797   3.716
 2541SOL    HW118965   1.682   2.790   3.627
 2541SOL    HW218966   1.666   2.841   3.782
 2542SOL     OW18967   0.307   1.925   2.480
 2542SOL    HW118968   0.296   2.019   2.513
 2542SOL    HW218969   0.302   1.862   2.557
 2543SOL     OW18970   1.622   2.229   2.236
 2543SOL    HW118971   1.624   2.153   2.300
 2543SOL    HW218972   1.574   2.306   2.276
 2544SOL     OW18973   1.023   2.628   2.828
 2544SOL    HW118974   1.038   2.649   2.924
 2544SOL    HW218975   0.993   2.533   2.819
 2545SOL     OW18976   0.980   3.435   3.562
 2545SOL    HW118977   0.960   3.479   3.474
 2545SOL    HW218978   1.019   3.344   3.546
 2546SOL     OW18979   1.859   3.380   3.467
 2546SOL    HW118980   1.873   3.407   3.372
 2546SOL    HW218981   1.942   3.402   3.520
 2547SOL     OW18982   0.350   2.760   3.666
 2547SOL    HW118983   0.426   2.804   3.714
 2547SOL    HW218984   0.385   2.713   3.584
 2548SOL     OW18985   1.540   2.136   1.987
 2548SOL    HW118986   1.479   2.061   2.010
 2548SOL    HW218987   1.562   2.188   2.070
 2549SOL     OW18988   1.303   2.700   1.904
 2549SOL    HW118989   1.337   2.607   1.919
 2549SOL    HW218990   1.321   2.727   1.809
 2550SOL     OW18991   1.068   3.195   2.711
 2550SOL    HW118992   1.075   3.111   2.656
 2550SOL    HW218993   1.130   3.264   2.675
 2551SOL     OW18994   0.319   2.672   2.811
 2551SOL    HW118995   0.412   2.708   2.816
 2551SOL    HW218996   0.313   2.587   2.863
 2552SOL     OW18997   0.339   2.371   2.868
 2552SOL    HW118998   0.287   2.288   2.851
 2552SOL    HW218999   0.416   2.376   2.804
 2553SOL     OW19000   1.138   2.242   3.540
 2553SOL    HW119001   1.093   2.305   3.604
 2553SOL    HW219002   1.231   2.273   3.523
 2554SOL     OW19003   1.160   2.069   3.339
 2554SOL    HW119004   1.160   2.133   3.416
 2554SOL    HW219005   1.188   2.117   3.256
 2555SOL     OW19006   0.008   3.188   2.062
 2555SOL    HW119007  -0.085   3.209   2.031
 2555SOL    HW219008   0.018   3.089   2.075
 2556SOL     OW19009   0.088   3.663   2.789
 2556SOL    HW119010   0.046   3.577   2.762
 2556SOL    HW219011   0.182   3.666   2.755
 2557SOL     OW19012   0.504   3.430   2.772
 2557SOL    HW119013   0.570   3.504   2.781
 2557SOL    HW219014   0.548   3.351   2.730
 2558SOL     OW19015   1.002   2.658   3.100
 2558SOL    HW119016   1.043   2.626   3.186
 2558SOL    HW219017   0.906   2.631   3.097
 2559SOL     OW19018   0.040   2.406   2.976
 2559SOL    HW119019   0.125   2.373   2.935
 2559SOL    HW219020   0.053   2.421   3.074
 2560SOL     OW19021   0.189   2.382   3.584
 2560SOL    HW119022   0.248   2.342   3.514
 2560SOL    HW219023   0.131   2.453   3.543
 2561SOL     OW19024   1.369   2.812   3.522
 2561SOL    HW119025   1.408   2.901   3.542
 2561SOL    HW219026   1.379   2.792   3.425
 2562SOL     OW19027   0.815   2.434   2.187
 2562SOL    HW119028   0.822   2.345   2.141
 2562SOL    HW219029   0.721   2.468   2.179
 2563SOL     OW19030   1.657   2.466   3.068
 2563SOL    HW119031   1.619   2.397   3.130
 2563SOL    HW219032   1.739   2.430   3.024
 2564SOL     OW19033   0.252   3.426   3.606
 2564SOL    HW119034   0.222   3.483   3.682
 2564SOL    HW219035   0.245   3.329   3.632
 2565SOL     OW19036   0.671   2.326   3.131
 2565SOL    HW119037   0.637   2.237   3.101
 2565SOL    HW219038   0.697   2.380   3.051
 2566SOL     OW19039   0.930   3.540   3.327
 2566SOL    HW119040   0.906   3.522   3.232
 2566SOL    HW219041   0.960   3.634   3.337
 2567SOL     OW19042   0.473   2.362   2.053
 2567SOL    HW119043   0.534   2.442   2.057
 2567SOL    HW219044   0.378   2.393   2.060
 2568SOL     OW19045   0.159   2.999   3.328
 2568SOL    HW119046   0.181   2.938   3.404
 2568SOL    HW219047   0.169   2.950   3.242
 2569SOL     OW19048   1.347   2.921   3.096
 2569SOL    HW119049   1.371   2.858   3.022
 2569SOL    HW219050   1.257   2.961   3.078
 2570SOL     OW19051   1.302   2.717   2.171
 2570SOL    HW119052   1.216   2.686   2.213
 2570SOL    HW219053   1.298   2.703   2.072
 2571SOL     OW19054   1.759   3.609   3.016
 2571SOL    HW119055   1.820   3.639   2.943
 2571SOL    HW219056   1.721   3.520   2.994
 2572SOL     OW19057   1.252   3.593   2.990
 2572SOL    HW119058   1.336   3.598   2.936
 2572SOL    HW219059   1.229   3.497   3.008
 2573SOL     OW19060   0.083   3.120   2.884
 2573SOL    HW119061   0.078   3.119   2.984
 2573SOL    HW219062   0.000   3.079   2.846
 2574SOL     OW19063   0.688   3.524   3.578
 2574SOL    HW119064   0.632   3.605   3.587
 2574SOL    HW219065   0.740   3.528   3.492
 2575SOL     OW19066   1.726   1.997   2.385
 2575SOL    HW119067   1.799   1.980   2.318
 2575SOL    HW219068   1.695   1.910   2.423
 2576SOL     OW19069   1.388   3.435   2.339
 2576SOL    HW119070   1.455   3.447   2.265
 2576SOL    HW219071   1.348   3.524   2.362
 2577SOL     OW19072   0.130   3.656   3.713
 2577SOL    HW119073   0.089   3.582   3.766
 2577SOL    HW219074   0.194   3.707   3.771
 2578SOL     OW19075   1.280   2.789   2.534
 2578SOL    HW119076   1.340   2.708   2.536
 2578SOL    HW219077   1.320   2.858   2.474
 2579SOL     OW19078   0.830   3.135   3.284
 2579SOL    HW119079   0.825   3.168   3.379
 2579SOL    HW219080   0.744   3.154   3.238
 2580SOL     OW19081   0.672   3.478   2.016
 2580SOL    HW119082   0.681   3.488   1.917
 2580SOL    HW219083   0.632   3.389   2.037
 2581SOL     OW19084   1.650   3.582   3.256
 2581SOL    HW119085   1.703   3.592   3.172
 2581SOL    HW219086   1.623   3.672   3.290
 2582SOL     OW19087   1.841   2.037   2.825
 2582SOL    HW119088   1.880   1.952   2.789
 2582SOL    HW219089   1.743   2.039   2.806
 2583SOL     OW19090   0.263   2.188   2.582
 2583SOL    HW119091   0.184   2.239   2.548
 2583SOL    HW219092   0.254   2.173   2.680
 2584SOL     OW19093   1.194   3.474   1.893
 2584SOL    HW119094   1.200   3.381   1.930
 2584SOL    HW219095   1.135   3.474   1.813
 2585SOL     OW19096   0.822   2.864   3.234
 2585SOL    HW119097   0.862   2.863   3.142
 2585SOL    HW219098   0.832   2.956   3.274
 2586SOL     OW19099   0.916   2.772   2.153
 2586SOL    HW119100   0.979   2.810   2.085
 2586SOL    HW219101   0.956   2.689   2.192
 2587SOL     OW19102   0.372   3.150   3.352
 2587SOL    HW119103   0.359   3.243   3.318
 2587SOL    HW219104   0.288   3.098   3.339
 2588SOL     OW19105   1.614   3.154   3.151
 2588SOL    HW119106   1.674   3.157   3.231
 2588SOL    HW219107   1.539   3.218   3.164
 2589SOL     OW19108   1.039   2.960   2.558
 2589SOL    HW119109   0.969   2.913   2.612
 2589SOL    HW219110   1.098   2.892   2.515
 2590SOL     OW19111   1.014   2.098   2.833
 2590SOL    HW119112   1.006   2.062   2.740
 2590SOL    HW219113   1.012   2.022   2.898
 2591SOL     OW19114   0.590   3.349   2.353
 2591SOL    HW119115   0.632   3.291   2.283
 2591SOL    HW219116   0.546   3.428   2.309
 2592SOL     OW19117   1.709   2.247   3.243
 2592SOL    HW119118   1.782   2.316   3.247
 2592SOL    HW219119   1.737   2.172   3.184
 2593SOL     OW19120   0.255   3.210   2.152
 2593SOL    HW119121   0.159   3.211   2.125
 2593SOL    HW219122   0.267   3.263   2.236
 2594SOL     OW19123   0.105   2.875   3.588
 2594SOL    HW119124   0.028   2.842   3.642
 2594SOL    HW219125   0.190   2.845   3.630
 2595SOL     OW19126   0.672   2.065   3.351
 2595SOL    HW119127   0.762   2.049   3.311
 2595SOL    HW219128   0.680   2.070   3.450
 2596SOL     OW19129   0.075   2.207   1.895
 2596SOL    HW119130  -0.017   2.179   1.866
 2596SOL    HW219131   0.106   2.284   1.839
 2597SOL     OW19132   1.440   2.718   3.260
 2597SOL    HW119133   1.383   2.770   3.197
 2597SOL    HW219134   1.536   2.730   3.236
 2598SOL     OW19135   0.072   2.028   2.180
 2598SOL    HW119136   0.055   2.111   2.126
 2598SOL    HW219137   0.162   1.991   2.158
 2599SOL     OW19138   1.183   3.197   1.981
 2599SOL    HW119139   1.084   3.186   1.983
 2599SOL    HW219140   1.217   3.212   2.074
 2600SOL     OW19141   0.613   2.704   3.293
 2600SOL    HW119142   0.669   2.785   3.276
 2600SOL    HW219143   0.672   2.624   3.296
 2601SOL     OW19144   1.493   3.629   2.821
 2601SOL    HW119145   1.526   3.693   2.752
 2601SOL    HW219146   1.559   3.623   2.896
 2602SOL     OW19147   0.716   2.427   3.570
 2602SOL    HW119148   0.735   2.492   3.644
 2602SOL    HW219149   0.776   2.347   3.579
 2603SOL     OW19150   1.450   3.082   3.495
 2603SOL    HW119151   1.441   3.072   3.594
 2603SOL    HW219152   1.546   3.075   3.469
 2604SOL     OW19153   0.390   3.603   3.422
 2604SOL    HW119154   0.299   3.644   3.420
 2604SOL    HW219155   0.383   3.509   3.454
 2605SOL     OW19156   1.674   2.745   3.116
 2605SOL    HW119157   1.647   2.656   3.079
 2605SOL    HW219158   1.675   2.813   3.043
 2606SOL     OW19159   1.225   2.187   2.311
 2606SOL    HW119160   1.290   2.113   2.300
 2606SOL    HW219161   1.245   2.237   2.395
 2607SOL     OW19162   0.594   2.607   2.514
 2607SOL    HW119163   0.644   2.692   2.495
 2607SOL    HW219164   0.506   2.609   2.466
 2608SOL     OW19165   1.777   2.204   3.504
 2608SOL    HW119166   1.760   2.235   3.410
 2608SOL    HW219167   1.693   2.167   3.542
 2609SOL     OW19168   1.730   2.796   3.379
 2609SOL    HW119169   1.768   2.887   3.394
 2609SOL    HW219170   1.722   2.779   3.280
 2610SOL     OW19171   0.859   3.236   1.878
 2610SOL    HW119172   0.813   3.251   1.966
 2610SOL    HW219173   0.903   3.321   1.848
 2611SOL     OW19174   0.661   3.652   2.815
 2611SOL    HW119175   0.615   3.740   2.802
 2611SOL    HW219176   0.760   3.664   2.808
 2612SOL     OW19177   0.859   2.818   2.723
 2612SOL    HW119178   0.913   2.749   2.771
 2612SOL    HW219179   0.827   2.887   2.789
 2613SOL     OW19180   1.083   2.846   1.949
 2613SOL    HW119181   1.060   2.899   1.867
 2613SOL    HW219182   1.164   2.790   1.930
 2614SOL     OW19183   1.861   3.431   2.713
 2614SOL    HW119184   1.790   3.419   2.643
 2614SOL    HW219185   1.862   3.352   2.773
 2615SOL     OW19186   0.221   3.176   3.706
 2615SOL    HW119187   0.156   3.103   3.685
 2615SOL    HW219188   0.225   3.190   3.804
 2616SOL     OW19189   0.079   3.102   2.515
 2616SOL    HW119190   0.078   3.055   2.603
 2616SOL    HW219191   0.161   3.074   2.464
 2617SOL     OW19192   0.672   3.253   3.486
 2617SOL    HW119193   0.594   3.203   3.524
 2617SOL    HW219194   0.669   3.348   3.517
 2618SOL     OW19195   1.824   2.054   3.089
 2618SOL    HW119196   1.820   1.964   3.133
 2618SOL    HW219197   1.827   2.043   2.990
 2619SOL     OW19198   0.428   2.286   2.382
 2619SOL    HW119199   0.458   2.214   2.320
 2619SOL    HW219200   0.389   2.246   2.465
 2620SOL     OW19201   1.705   3.349   2.966
 2620SOL    HW119202   1.612   3.324   2.939
 2620SOL    HW219203   1.731   3.299   3.048
 2621SOL     OW19204   0.317   2.409   3.142
 2621SOL    HW119205   0.355   2.350   3.214
 2621SOL    HW219206   0.357   2.383   3.054
 2622SOL     OW19207   0.812   3.448   2.549
 2622SOL    HW119208   0.844   3.458   2.455
 2622SOL    HW219209   0.733   3.386   2.551
 2623SOL     OW19210   1.424   2.076   2.974
 2623SOL    HW119211   1.476   2.011   3.029
 2623SOL    HW219212   1.375   2.139   3.035
 2624SOL     OW19213   1.001   1.896   3.016
 2624SOL    HW119214   0.938   1.824   2.985
 2624SOL    HW219215   1.094   1.860   3.016
 2625SOL     OW19216   0.770   3.192   2.163
 2625SOL    HW119217   0.724   3.105   2.180
 2625SOL    HW219218   0.861   3.189   2.204
 2626SOL     OW19219   0.618   3.429   3.146
 2626SOL    HW119220   0.613   3.511   3.203
 2626SOL    HW219221   0.707   3.426   3.101
 2627SOL     OW19222   1.352   1.914   2.030
 2627SOL    HW119223   1.387   1.873   1.946
 2627SOL    HW219224   1.262   1.876   2.050
 2628SOL     OW19225   1.300   2.315   2.553
 2628SOL    HW119226   1.241   2.395   2.557
 2628SOL    HW219227   1.315   2.280   2.646
 2629SOL     OW19228   1.593   2.083   2.744
 2629SOL    HW119229   1.509   2.082   2.798
 2629SOL    HW219230   1.595   2.166   2.688
 2630SOL     OW19231   0.039   2.939   2.162
 2630SOL    HW119232   0.138   2.928   2.153
 2630SOL    HW219233  -0.001   2.853   2.194
 2631SOL     OW19234   0.875   3.508   2.199
 2631SOL    HW119235   0.798   3.473   2.145
 2631SOL    HW219236   0.843   3.579   2.261
 2632SOL     OW19237   0.230   2.490   3.837
 2632SOL    HW119238   0.137   2.488   3.874
 2632SOL    HW219239   0.231   2.451   3.745
 2633SOL     OW19240   0.225   2.137   4.720
 2633SOL    HW119241   0.260   2.120   4.812
 2633SOL    HW219242   0.137   2.092   4.708
 2634SOL     OW19243   0.019   2.230   4.371
 2634SOL    HW119244  -0.063   2.273   4.410
 2634SOL    HW219245  -0.009   2.157   4.308
 2635SOL     OW19246   0.569   3.137   4.889
 2635SOL    HW119247   0.476   3.130   4.852
 2635SOL    HW219248   0.580   3.226   4.933
 2636SOL     OW19249   1.555   3.373   4.427
 2636SOL    HW119250   1.498   3.357   4.508
 2636SOL    HW219251   1.496   3.383   4.347
 2637SOL     OW19252   1.135   2.565   4.441
 2637SOL    HW119253   1.192   2.643   4.416
 2637SOL    HW219254   1.075   2.591   4.517
 2638SOL     OW19255   1.755   2.469   3.955
 2638SOL    HW119256   1.743   2.456   3.856
 2638SOL    HW219257   1.725   2.388   4.004
 2639SOL     OW19258   0.768   3.006   4.747
 2639SOL    HW119259   0.690   3.023   4.807
 2639SOL    HW219260   0.802   3.093   4.711
 2640SOL     OW19261   0.685   2.874   4.389
 2640SOL    HW119262   0.754   2.858   4.459
 2640SOL    HW219263   0.612   2.931   4.427
 2641SOL     OW19264   0.686   3.023   5.527
 2641SOL    HW119265   0.746   3.102   5.541
 2641SOL    HW219266   0.600   3.054   5.486
 2642SOL     OW19267   0.335   3.297   4.785
 2642SOL    HW119268   0.257   3.266   4.732
 2642SOL    HW219269   0.393   3.355   4.728
 2643SOL     OW19270   1.460   3.367   5.063
 2643SOL    HW119271   1.484   3.461   5.089
 2643SOL    HW219272   1.444   3.313   5.145
 2644SOL     OW19273   0.438   2.254   5.223
 2644SOL    HW119274   0.520   2.198   5.232
 2644SOL    HW219275   0.357   2.196   5.227
 2645SOL     OW19276   1.603   2.309   4.461
 2645SOL    HW119277   1.529   2.355   4.411
 2645SOL    HW219278   1.654   2.377   4.514
 2646SOL     OW19279   0.231   3.575   4.207
 2646SOL    HW119280   0.265   3.652   4.261
 2646SOL    HW219281   0.275   3.575   4.117
 2647SOL     OW19282   1.127   3.203   5.414
 2647SOL    HW119283   1.174   3.203   5.502
 2647SOL    HW219284   1.079   3.116   5.403
 2648SOL     OW19285   0.230   3.296   4.262
 2648SOL    HW119286   0.204   3.392   4.262
 2648SOL    HW219287   0.159   3.242   4.307
 2649SOL     OW19288   0.240   2.953   4.610
 2649SOL    HW119289   0.254   2.869   4.662
 2649SOL    HW219290   0.185   3.017   4.665
 2650SOL     OW19291   0.620   3.648   5.163
 2650SOL    HW119292   0.528   3.631   5.198
 2650SOL    HW219293   0.648   3.740   5.189
 2651SOL     OW19294   0.606   2.826   3.847
 2651SOL    HW119295   0.613   2.910   3.793
 2651SOL    HW219296   0.652   2.839   3.935
 2652SOL     OW19297   1.594   1.976   5.204
 2652SOL    HW119298   1.576   2.043   5.132
 2652SOL    HW219299   1.591   2.022   5.293
 2653SOL     OW19300   0.122   2.505   4.287
 2653SOL    HW119301   0.077   2.417   4.304
 2653SOL    HW219302   0.121   2.559   4.371
 2654SOL     OW19303   1.842   3.629   4.083
 2654SOL    HW119304   1.896   3.600   4.163
 2654SOL    HW219305   1.872   3.719   4.054
 2655SOL     OW19306   0.027   3.458   3.841
 2655SOL    HW119307   0.008   3.362   3.862
 2655SOL    HW219308  -0.006   3.516   3.916
 2656SOL     OW19309   1.689   2.784   4.336
 2656SOL    HW119310   1.784   2.755   4.344
 2656SOL    HW219311   1.681   2.849   4.261
 2657SOL     OW19312   1.641   2.970   4.156
 2657SOL    HW119313   1.727   2.972   4.104
 2657SOL    HW219314   1.655   3.017   4.244
 2658SOL     OW19315   0.113   2.599   5.321
 2658SOL    HW119316   0.201   2.586   5.366
 2658SOL    HW219317   0.100   2.696   5.299
 2659SOL     OW19318   0.613   3.227   4.450
 2659SOL    HW119319   0.564   3.140   4.459
 2659SOL    HW219320   0.590   3.270   4.363
 2660SOL     OW19321   1.293   3.090   5.147
 2660SOL    HW119322   1.330   3.017   5.089
 2660SOL    HW219323   1.345   3.095   5.232
 2661SOL     OW19324   0.809   1.866   4.226
 2661SOL    HW119325   0.849   1.957   4.217
 2661SOL    HW219326   0.709   1.874   4.232
 2662SOL     OW19327   0.197   2.838   4.988
 2662SOL    HW119328   0.286   2.793   4.974
 2662SOL    HW219329   0.124   2.773   4.969
 2663SOL     OW19330   1.525   2.861   3.914
 2663SOL    HW119331   1.462   2.785   3.927
 2663SOL    HW219332   1.573   2.879   4.000
 2664SOL     OW19333   1.187   3.654   5.340
 2664SOL    HW119334   1.211   3.714   5.264
 2664SOL    HW219335   1.194   3.559   5.310
 2665SOL     OW19336   0.317   2.113   5.525
 2665SOL    HW119337   0.388   2.184   5.531
 2665SOL    HW219338   0.229   2.152   5.553
 2666SOL     OW19339   1.466   3.279   4.677
 2666SOL    HW119340   1.407   3.285   4.757
 2666SOL    HW219341   1.451   3.191   4.631
 2667SOL     OW19342   1.667   3.576   4.296
 2667SOL    HW119343   1.626   3.553   4.208
 2667SOL    HW219344   1.649   3.502   4.361
 2668SOL     OW19345   0.598   2.591   3.994
 2668SOL    HW119346   0.622   2.660   3.926
 2668SOL    HW219347   0.520   2.624   4.048
 2669SOL     OW19348   1.281   2.207   4.668
 2669SOL    HW119349   1.195   2.157   4.655
 2669SOL    HW219350   1.343   2.153   4.724
 2670SOL     OW19351   1.576   3.524   4.031
 2670SOL    HW119352   1.665   3.570   4.034
 2670SOL    HW219353   1.555   3.500   3.936
 2671SOL     OW19354   0.807   2.467   5.189
 2671SOL    HW119355   0.760   2.464   5.278
 2671SOL    HW219356   0.756   2.412   5.123
 2672SOL     OW19357   1.394   2.331   5.398
 2672SOL    HW119358   1.374   2.374   5.486
 2672SOL    HW219359   1.472   2.269   5.407
 2673SOL     OW19360   0.973   2.752   5.296
 2673SOL    HW119361   1.019   2.668   5.267
 2673SOL    HW219362   0.917   2.786   5.221
 2674SOL     OW19363   0.991   2.272   4.966
 2674SOL    HW119364   0.914   2.306   5.020
 2674SOL    HW219365   0.957   2.221   4.887
 2675SOL     OW19366   1.041   2.563   4.153
 2675SOL    HW119367   1.067   2.559   4.249
 2675SOL    HW219368   0.956   2.512   4.139
 2676SOL     OW19369   0.076   2.673   4.513
 2676SOL    HW119370   0.175   2.661   4.522
 2676SOL    HW219371   0.052   2.768   4.534
 2677SOL     OW19372   0.130   3.683   5.295
 2677SOL    HW119373   0.120   3.668   5.394
 2677SOL    HW219374   0.044   3.719   5.259
 2678SOL     OW19375   0.865   2.210   3.919
 2678SOL    HW119376   0.924   2.273   3.870
 2678SOL    HW219377   0.884   2.116   3.890
 2679SOL     OW19378   1.719   2.447   5.555
 2679SOL    HW119379   1.693   2.536   5.519
 2679SOL    HW219380   1.717   2.379   5.482
 2680SOL     OW19381   1.362   3.006   4.269
 2680SOL    HW119382   1.445   2.977   4.221
 2680SOL    HW219383   1.313   3.073   4.213
 2681SOL     OW19384   0.550   2.058   4.609
 2681SOL    HW119385   0.545   2.053   4.709
 2681SOL    HW219386   0.552   2.154   4.580
 2682SOL     OW19387   1.008   3.318   4.201
 2682SOL    HW119388   0.962   3.390   4.149
 2682SOL    HW219389   1.004   3.338   4.299
 2683SOL     OW19390   0.351   3.663   4.577
 2683SOL    HW119391   0.401   3.577   4.583
 2683SOL    HW219392   0.416   3.740   4.574
 2684SOL     OW19393   1.795   2.928   4.597
 2684SOL    HW119394   1.733   2.913   4.521
 2684SOL    HW219395   1.743   2.939   4.682
 2685SOL     OW19396   1.227   3.412   5.230
 2685SOL    HW119397   1.233   3.335   5.294
 2685SOL    HW219398   1.175   3.386   5.150
 2686SOL     OW19399   0.321   2.805   3.966
 2686SOL    HW119400   0.403   2.844   3.924
 2686SOL    HW219401   0.294   2.723   3.917
 2687SOL     OW19402   1.458   2.597   4.452
 2687SOL    HW119403   1.453   2.532   4.527
 2687SOL    HW219404   1.538   2.656   4.465
 2688SOL     OW19405   0.461   3.128   5.451
 2688SOL    HW119406   0.411   3.129   5.365
 2688SOL    HW219407   0.398   3.110   5.527
 2689SOL     OW19408   1.111   3.638   3.961
 2689SOL    HW119409   1.051   3.576   4.011
 2689SOL    HW219410   1.142   3.594   3.876
 2690SOL     OW19411   0.202   2.147   5.222
 2690SOL    HW119412   0.122   2.207   5.209
 2690SOL    HW219413   0.192   2.098   5.308
 2691SOL     OW19414   1.632   3.239   3.805
 2691SOL    HW119415   1.600   3.333   3.795
 2691SOL    HW219416   1.556   3.176   3.793
 2692SOL     OW19417   0.464   3.605   4.047
 2692SOL    HW119418   0.497   3.644   4.133
 2692SOL    HW219419   0.540   3.598   3.982
 2693SOL     OW19420   1.400   1.969   4.150
 2693SOL    HW119421   1.376   1.932   4.060
 2693SOL    HW219422   1.499   1.985   4.154
 2694SOL     OW19423   0.249   3.647   4.965
 2694SOL    HW119424   0.306   3.582   5.015
 2694SOL    HW219425   0.233   3.614   4.872
 2695SOL     OW19426   0.940   3.560   4.628
 2695SOL    HW119427   1.020   3.503   4.649
 2695SOL    HW219428   0.891   3.520   4.551
 2696SOL     OW19429   0.382   2.562   4.204
 2696SOL    HW119430   0.427   2.472   4.201
 2696SOL    HW219431   0.288   2.551   4.237
 2697SOL     OW19432   1.547   2.084   5.453
 2697SOL    HW119433   1.542   2.121   5.545
 2697SOL    HW219434   1.475   2.015   5.441
 2698SOL     OW19435   0.614   1.984   3.841
 2698SOL    HW119436   0.712   1.962   3.848
 2698SOL    HW219437   0.583   1.967   3.748
 2699SOL     OW19438   0.781   2.126   5.473
 2699SOL    HW119439   0.848   2.065   5.516
 2699SOL    HW219440   0.708   2.145   5.538
 2700SOL     OW19441   0.888   3.376   4.919
 2700SOL    HW119442   0.865   3.351   4.825
 2700SOL    HW219443   0.949   3.307   4.958
 2701SOL     OW19444   1.351   2.452   5.157
 2701SOL    HW119445   1.379   2.409   5.242
 2701SOL    HW219446   1.376   2.548   5.158
 2702SOL     OW19447   0.803   3.264   4.648
 2702SOL    HW119448   0.893   3.278   4.606
 2702SOL    HW219449   0.732   3.266   4.577
 2703SOL     OW19450   0.922   2.365   4.623
 2703SOL    HW119451   0.897   2.356   4.527
 2703SOL    HW219452   0.970   2.283   4.654
 2704SOL     OW19453   0.539   1.926   4.236
 2704SOL    HW119454   0.458   1.927   4.294
 2704SOL    HW219455   0.542   2.009   4.181
 2705SOL     OW19456   1.434   3.050   3.765
 2705SOL    HW119457   1.466   2.974   3.822
 2705SOL    HW219458   1.342   3.077   3.795
 2706SOL     OW19459   0.297   1.897   3.895
 2706SOL    HW119460   0.346   1.981   3.874
 2706SOL    HW219461   0.359   1.832   3.940
 2707SOL     OW19462   0.935   2.098   4.204
 2707SOL    HW119463   0.887   2.139   4.126
 2707SOL    HW219464   1.034   2.096   4.185
 2708SOL     OW19465   1.076   2.545   5.188
 2708SOL    HW119466   0.996   2.484   5.191
 2708SOL    HW219467   1.157   2.492   5.164
 2709SOL     OW19468   1.227   3.432   4.517
 2709SOL    HW119469   1.248   3.506   4.452
 2709SOL    HW219470   1.295   3.432   4.590
 2710SOL     OW19471   0.459   3.014   4.465
 2710SOL    HW119472   0.388   2.987   4.530
 2710SOL    HW219473   0.433   2.986   4.372
 2711SOL     OW19474   1.271   3.659   4.315
 2711SOL    HW119475   1.315   3.723   4.251
 2711SOL    HW219476   1.221   3.711   4.385
 2712SOL     OW19477   1.032   2.411   3.740
 2712SOL    HW119478   0.991   2.493   3.701
 2712SOL    HW219479   1.096   2.437   3.813
 2713SOL     OW19480   0.078   2.418   5.110
 2713SOL    HW119481   0.170   2.417   5.069
 2713SOL    HW219482   0.072   2.492   5.177
 2714SOL     OW19483   0.561   2.084   4.871
 2714SOL    HW119484   0.599   2.000   4.908
 2714SOL    HW219485   0.473   2.103   4.915
 2715SOL     OW19486   0.866   2.316   4.366
 2715SOL    HW119487   0.834   2.388   4.304
 2715SOL    HW219488   0.890   2.235   4.313
 2716SOL     OW19489   1.017   1.901   4.477
 2716SOL    HW119490   0.945   1.906   4.408
 2716SOL    HW219491   0.993   1.832   4.546
 2717SOL     OW19492   1.429   3.035   4.591
 2717SOL    HW119493   1.374   2.951   4.584
 2717SOL    HW219494   1.455   3.064   4.499
 2718SOL     OW19495   1.466   2.452   4.716
 2718SOL    HW119496   1.436   2.357   4.723
 2718SOL    HW219497   1.539   2.468   4.782
 2719SOL     OW19498   1.857   2.695   4.101
 2719SOL    HW119499   1.899   2.631   4.165
 2719SOL    HW219500   1.819   2.644   4.023
 2720SOL     OW19501   0.488   3.247   3.898
 2720SOL    HW119502   0.401   3.232   3.945
 2720SOL    HW219503   0.471   3.273   3.803
 2721SOL     OW19504   1.664   3.142   4.381
 2721SOL    HW119505   1.763   3.150   4.395
 2721SOL    HW219506   1.619   3.226   4.412
 2722SOL     OW19507   1.390   2.437   3.802
 2722SOL    HW119508   1.336   2.416   3.883
 2722SOL    HW219509   1.481   2.396   3.811
 2723SOL     OW19510   0.527   2.118   4.052
 2723SOL    HW119511   0.554   2.059   3.977
 2723SOL    HW219512   0.527   2.213   4.021
 2724SOL     OW19513   1.754   3.085   5.312
 2724SOL    HW119514   1.845   3.046   5.299
 2724SOL    HW219515   1.762   3.181   5.336
 2725SOL     OW19516   1.064   3.209   5.064
 2725SOL    HW119517   0.984   3.186   5.119
 2725SOL    HW219518   1.147   3.183   5.113
 2726SOL     OW19519   1.592   3.491   5.349
 2726SOL    HW119520   1.619   3.525   5.259
 2726SOL    HW219521   1.671   3.453   5.395
 2727SOL     OW19522   1.111   3.057   4.824
 2727SOL    HW119523   1.071   3.101   4.905
 2727SOL    HW219524   1.070   3.094   4.741
 2728SOL     OW19525   1.638   2.961   4.803
 2728SOL    HW119526   1.643   3.042   4.862
 2728SOL    HW219527   1.552   2.963   4.752
 2729SOL     OW19528   0.915   1.951   5.126
 2729SOL    HW119529   0.940   1.931   5.031
 2729SOL    HW219530   0.987   2.007   5.168
 2730SOL     OW19531   0.980   2.978   5.443
 2730SOL    HW119532   0.881   2.984   5.453
 2730SOL    HW219533   1.003   2.898   5.387
 2731SOL     OW19534   0.705   2.912   4.092
 2731SOL    HW119535   0.691   2.919   4.191
 2731SOL    HW219536   0.789   2.861   4.074
 2732SOL     OW19537   0.410   2.675   4.975
 2732SOL    HW119538   0.496   2.687   5.025
 2732SOL    HW219539   0.368   2.588   5.002
 2733SOL     OW19540   1.274   2.248   4.986
 2733SOL    HW119541   1.295   2.322   5.050
 2733SOL    HW219542   1.185   2.265   4.943
 2734SOL     OW19543   0.064   3.426   5.055
 2734SOL    HW119544   0.018   3.508   5.021
 2734SOL    HW219545   0.162   3.445   5.064
 2735SOL     OW19546   0.367   2.962   4.225
 2735SOL    HW119547   0.360   3.045   4.169
 2735SOL    HW219548   0.371   2.882   4.165
 2736SOL     OW19549   0.566   2.399   4.589
 2736SOL    HW119550   0.578   2.465   4.515
 2736SOL    HW219551   0.612   2.433   4.672
 2737SOL     OW19552   1.252   3.210   4.112
 2737SOL    HW119553   1.302   3.287   4.152
 2737SOL    HW219554   1.157   3.212   4.144
 2738SOL     OW19555   1.272   3.307   4.866
 2738SOL    HW119556   1.319   3.320   4.953
 2738SOL    HW219557   1.206   3.233   4.875
 2739SOL     OW19558   1.582   2.501   4.196
 2739SOL    HW119559   1.551   2.562   4.269
 2739SOL    HW219560   1.632   2.553   4.127
 2740SOL     OW19561   0.354   3.372   5.053
 2740SOL    HW119562   0.333   3.328   4.966
 2740SOL    HW219563   0.451   3.398   5.056
 2741SOL     OW19564   0.402   2.613   5.322
 2741SOL    HW119565   0.470   2.668   5.275
 2741SOL    HW219566   0.442   2.525   5.349
 2742SOL     OW19567   1.587   2.641   5.394
 2742SOL    HW119568   1.495   2.679   5.389
 2742SOL    HW219569   1.647   2.688   5.329
 2743SOL     OW19570   1.013   1.967   5.494
 2743SOL    HW119571   1.019   2.052   5.442
 2743SOL    HW219572   1.045   1.891   5.437
 2744SOL     OW19573   0.504   1.912   5.464
 2744SOL    HW119574   0.462   1.855   5.394
 2744SOL    HW219575   0.438   1.981   5.496
 2745SOL     OW19576   0.573   2.732   4.753
 2745SOL    HW119577   0.617   2.821   4.744
 2745SOL    HW219578   0.510   2.732   4.830
 2746SOL     OW19579   1.360   2.724   4.769
 2746SOL    HW119580   1.285   2.724   4.703
 2746SOL    HW219581   1.397   2.632   4.778
 2747SOL     OW19582   1.209   2.387   3.999
 2747SOL    HW119583   1.222   2.303   4.053
 2747SOL    HW219584   1.180   2.461   4.059
 2748SOL     OW19585   0.307   2.075   4.955
 2748SOL    HW119586   0.284   2.112   5.045
 2748SOL    HW219587   0.277   1.980   4.949
 2749SOL     OW19588   0.037   3.172   5.006
 2749SOL    HW119589   0.090   3.123   5.074
 2749SOL    HW219590   0.059   3.270   5.011
 2750SOL     OW19591   0.732   2.496   4.788
 2750SOL    HW119592   0.791   2.470   4.712
 2750SOL    HW219593   0.704   2.592   4.777
 2751SOL     OW19594   1.728   2.797   5.578
 2751SOL    HW119595   1.682   2.790   5.489
 2751SOL    HW219596   1.666   2.841   5.644
 2752SOL     OW19597   0.307   1.925   4.342
 2752SOL    HW119598   0.296   2.019   4.375
 2752SOL    HW219599   0.302   1.862   4.419
 2753SOL     OW19600   1.622   2.229   4.098
 2753SOL    HW119601   1.624   2.153   4.162
 2753SOL    HW219602   1.574   2.306   4.138
 2754SOL     OW19603   1.023   2.628   4.690
 2754SOL    HW119604   1.038   2.649   4.786
 2754SOL    HW219605   0.993   2.533   4.681
 2755SOL     OW19606   0.980   3.435   5.424
 2755SOL    HW119607   0.960   3.479   5.336
 2755SOL    HW219608   1.019   3.344   5.408
 2756SOL     OW19609   1.859   3.380   5.329
 2756SOL    HW119610   1.873   3.407   5.234
 2756SOL    HW219611   1.942   3.402   5.382
 2757SOL     OW19612   0.350   2.760   5.528
 2757SOL    HW119613   0.426   2.804   5.576
 2757SOL    HW219614   0.385   2.713   5.446
 2758SOL     OW19615   1.540   2.136   3.849
 2758SOL    HW119616   1.479   2.061   3.872
 2758SOL    HW219617   1.562   2.188   3.932
 2759SOL     OW19618   1.303   2.700   3.766
 2759SOL    HW119619   1.337   2.607   3.781
 2759SOL    HW219620   1.321   2.727   3.671
 2760SOL     OW19621   1.068   3.195   4.573
 2760SOL    HW119622   1.075   3.111   4.518
 2760SOL    HW219623   1.130   3.264   4.537
 2761SOL     OW19624   0.319   2.672   4.673
 2761SOL    HW119625   0.412   2.708   4.678
 2761SOL    HW219626   0.313   2.587   4.725
 2762SOL     OW19627   0.339   2.371   4.730
 2762SOL    HW119628   0.287   2.288   4.713
 2762SOL    HW219629   0.416   2.376   4.666
 2763SOL     OW19630   1.138   2.242   5.402
 2763SOL    HW119631   1.093   2.305   5.466
 2763SOL    HW219632   1.231   2.273   5.385
 2764SOL     OW19633   1.160   2.069   5.201
 2764SOL    HW119634   1.160   2.133   5.278
 2764SOL    HW219635   1.188   2.117   5.118
 2765SOL     OW19636   0.008   3.188   3.924
 2765SOL    HW119637  -0.085   3.209   3.893
 2765SOL    HW219638   0.018   3.089   3.937
 2766SOL     OW19639   0.088   3.663   4.651
 2766SOL    HW119640   0.046   3.577   4.624
 2766SOL    HW219641   0.182   3.666   4.617
 2767SOL     OW19642   0.504   3.430   4.634
 2767SOL    HW119643   0.570   3.504   4.643
 2767SOL    HW219644   0.548   3.351   4.592
 2768SOL     OW19645   1.002   2.658   4.962
 2768SOL    HW119646   1.043   2.626   5.048
 2768SOL    HW219647   0.906   2.631   4.959
 2769SOL     OW19648   0.040   2.406   4.838
 2769SOL    HW119649   0.125   2.373   4.797
 2769SOL    HW219650   0.053   2.421   4.936
 2770SOL     OW19651   0.189   2.382   5.446
 2770SOL    HW119652   0.248   2.342   5.376
 2770SOL    HW219653   0.131   2.453   5.405
 2771SOL     OW19654   1.369   2.812   5.384
 2771SOL    HW119655   1.408   2.901   5.404
 2771SOL    HW219656   1.379   2.792   5.287
 2772SOL     OW19657   0.815   2.434   4.049
 2772SOL    HW119658   0.822   2.345   4.003
 2772SOL    HW219659   0.721   2.468   4.041
 2773SOL     OW19660   1.657   2.466   4.930
 2773SOL    HW119661   1.619   2.397   4.992
 2773SOL    HW219662   1.739   2.430   4.886
 2774SOL     OW19663   0.252   3.426   5.468
 2774SOL    HW119664   0.222   3.483   5.544
 2774SOL    HW219665   0.245   3.329   5.494
 2775SOL     OW19666   0.671   2.326   4.993
 2775SOL    HW119667   0.637   2.237   4.963
 2775SOL    HW219668   0.697   2.380   4.913
 2776SOL     OW19669   0.930   3.540   5.189
 2776SOL    HW119670   0.906   3.522   5.094
 2776SOL    HW219671   0.960   3.634   5.199
 2777SOL     OW19672   0.473   2.362   3.915
 2777SOL    HW119673   0.534   2.442   3.919
 2777SOL    HW219674   0.378   2.393   3.922
 2778SOL     OW19675   0.159   2.999   5.190
 2778SOL    HW119676   0.181   2.938   5.266
 2778SOL    HW219677   0.169   2.950   5.104
 2779SOL     OW19678   1.347   2.921   4.958
 2779SOL    HW119679   1.371   2.858   4.884
 2779SOL    HW219680   1.257   2.961   4.940
 2780SOL     OW19681   1.302   2.717   4.033
 2780SOL    HW119682   1.216   2.686   4.075
 2780SOL    HW219683   1.298   2.703   3.934
 2781SOL     OW19684   1.759   3.609   4.878
 2781SOL    HW119685   1.820   3.639   4.805
 2781SOL    HW219686   1.721   3.520   4.856
 2782SOL     OW19687   1.252   3.593   4.852
 2782SOL    HW119688   1.336   3.598   4.798
 2782SOL    HW219689   1.229   3.497   4.870
 2783SOL     OW19690   0.083   3.120   4.746
 2783SOL    HW119691   0.078   3.119   4.846
 2783SOL    HW219692   0.000   3.079   4.708
 2784SOL     OW19693   0.688   3.524   5.440
 2784SOL    HW119694   0.632   3.605   5.449
 2784SOL    HW219695   0.740   3.528   5.354
 2785SOL     OW19696   1.726   1.997   4.247
 2785SOL    HW119697   1.799   1.980   4.180
 2785SOL    HW219698   1.695   1.910   4.285
 2786SOL     OW19699   1.388   3.435   4.201
 2786SOL    HW119700   1.455   3.447   4.127
 2786SOL    HW219701   1.348   3.524   4.224
 2787SOL     OW19702   0.130   3.656   5.575
 2787SOL    HW119703   0.089   3.582   5.628
 2787SOL    HW219704   0.194   3.707   5.633
 2788SOL     OW19705   1.280   2.789   4.396
 2788SOL    HW119706   1.340   2.708   4.398
 2788SOL    HW219707   1.320   2.858   4.336
 2789SOL     OW19708   0.830   3.135   5.146
 2789SOL    HW119709   0.825   3.168   5.241
 2789SOL    HW219710   0.744   3.154   5.100
 2790SOL     OW19711   0.672   3.478   3.878
 2790SOL    HW119712   0.681   3.488   3.779
 2790SOL    HW219713   0.632   3.389   3.899
 2791SOL     OW19714   1.650   3.582   5.118
 2791SOL    HW119715   1.703   3.592   5.034
 2791SOL    HW219716   1.623   3.672   5.152
 2792SOL     OW19717   1.841   2.037   4.687
 2792SOL    HW119718   1.880   1.952   4.651
 2792SOL    HW219719   1.743   2.039   4.668
 2793SOL     OW19720   0.263   2.188   4.444
 2793SOL    HW119721   0.184   2.239   4.410
 2793SOL    HW219722   0.254   2.173   4.542
 2794SOL     OW19723   1.194   3.474   3.755
 2794SOL    HW119724   1.200   3.381   3.792
 2794SOL    HW219725   1.135   3.474   3.675
 2795SOL     OW19726   0.822   2.864   5.096
 2795SOL    HW119727   0.862   2.863   5.004
 2795SOL    HW219728   0.832   2.956   5.136
 2796SOL     OW19729   0.916   2.772   4.015
 2796SOL    HW119730   0.979   2.810   3.947
 2796SOL    HW219731   0.956   2.689   4.054
 2797SOL     OW19732   1.504   3.469   3.768
 2797SOL    HW119733   1.412   3.506   3.775
 2797SOL    HW219734   1.542   3.489   3.678
 2798SOL     OW19735   0.372   3.150   5.214
 2798SOL    HW119736   0.359   3.243   5.180
 2798SOL    HW219737   0.288   3.098   5.201
 2799SOL     OW19738   1.614   3.154   5.013
 2799SOL    HW119739   1.674   3.157   5.093
 2799SOL    HW219740   1.539   3.218   5.026
 2800SOL     OW19741   1.039   2.960   4.420
 2800SOL    HW119742   0.969   2.913   4.474
 2800SOL    HW219743   1.098   2.892   4.377
 2801SOL     OW19744   1.014   2.098   4.695
 2801SOL    HW119745   1.006   2.062   4.602
 2801SOL    HW219746   1.012   2.022   4.760
 2802SOL     OW19747   0.590   3.349   4.215
 2802SOL    HW119748   0.632   3.291   4.145
 2802SOL    HW219749   0.546   3.428   4.171
 2803SOL     OW19750   1.709   2.247   5.105
 2803SOL    HW119751   1.782   2.316   5.109
 2803SOL    HW219752   1.737   2.172   5.046
 2804SOL     OW19753   0.255   3.210   4.014
 2804SOL    HW119754   0.159   3.211   3.987
 2804SOL    HW219755   0.267   3.263   4.098
 2805SOL     OW19756   0.105   2.875   5.450
 2805SOL    HW119757   0.028   2.842   5.504
 2805SOL    HW219758   0.190   2.845   5.492
 2806SOL     OW19759   0.672   2.065   5.213
 2806SOL    HW119760   0.762   2.049   5.173
 2806SOL    HW219761   0.680   2.070   5.312
 2807SOL     OW19762   0.075   2.207   3.757
 2807SOL    HW119763  -0.017   2.179   3.728
 2807SOL    HW219764   0.106   2.284   3.701
 2808SOL     OW19765   1.440   2.718   5.122
 2808SOL    HW119766   1.383   2.770   5.059
 2808SOL    HW219767   1.536   2.730   5.098
 2809SOL     OW19768   0.072   2.028   4.042
 2809SOL    HW119769   0.055   2.111   3.988
 2809SOL    HW219770   0.162   1.991   4.020
 2810SOL     OW19771   1.183   3.197   3.843
 2810SOL    HW119772   1.084   3.186   3.845
 2810SOL    HW219773   1.217   3.212   3.936
 2811SOL     OW19774   0.613   2.704   5.155
 2811SOL    HW119775   0.669   2.785   5.138
 2811SOL    HW219776   0.672   2.624   5.158
 2812SOL     OW19777   1.493   3.629   4.683
 2812SOL    HW119778   1.526   3.693   4.614
 2812SOL    HW219779   1.559   3.623   4.758
 2813SOL     OW19780   0.716   2.427   5.432
 2813SOL    HW119781   0.735   2.492   5.506
 2813SOL    HW219782   0.776   2.347   5.441
 2814SOL     OW19783   1.450   3.082   5.357
 2814SOL    HW119784   1.441   3.072   5.456
 2814SOL    HW219785   1.546   3.075   5.331
 2815SOL     OW19786   0.390   3.603   5.284
 2815SOL    HW119787   0.299   3.644   5.282
 2815SOL    HW219788   0.383   3.509   5.316
 2816SOL     OW19789   1.674   2.745   4.978
 2816SOL    HW119790   1.647   2.656   4.941
 2816SOL    HW219791   1.675   2.813   4.905
 2817SOL     OW19792   1.225   2.187   4.173
 2817SOL    HW119793   1.290   2.113   4.162
 2817SOL    HW219794   1.245   2.237   4.257
 2818SOL     OW19795   0.594   2.607   4.376
 2818SOL    HW119796   0.644   2.692   4.357
 2818SOL    HW219797   0.506   2.609   4.328
 2819SOL     OW19798   1.777   2.204   5.366
 2819SOL    HW119799   1.760   2.235   5.272
 2819SOL    HW219800   1.693   2.167   5.404
 2820SOL     OW19801   1.730   2.796   5.241
 2820SOL    HW119802   1.768   2.887   5.256
 2820SOL    HW219803   1.722   2.779   5.142
 2821SOL     OW19804   0.859   3.236   3.740
 2821SOL    HW119805   0.813   3.251   3.828
 2821SOL    HW219806   0.903   3.321   3.710
 2822SOL     OW19807   0.661   3.652   4.677
 2822SOL    HW119808   0.615   3.740   4.664
 2822SOL    HW219809   0.760   3.664   4.670
 2823SOL     OW19810   0.859   2.818   4.585
 2823SOL    HW119811   0.913   2.749   4.633
 2823SOL    HW219812   0.827   2.887   4.651
 2824SOL     OW19813   1.083   2.846   3.811
 2824SOL    HW119814   1.060   2.899   3.729
 2824SOL    HW219815   1.164   2.790   3.792
 2825SOL     OW19816   1.861   3.431   4.575
 2825SOL    HW119817   1.790   3.419   4.505
 2825SOL    HW219818   1.862   3.352   4.635
 2826SOL     OW19819   0.221   3.176   5.568
 2826SOL    HW119820   0.156   3.103   5.547
 2826SOL    HW219821   0.225   3.190   5.666
 2827SOL     OW19822   0.079   3.102   4.377
 2827SOL    HW119823   0.078   3.055   4.465
 2827SOL    HW219824   0.161   3.074   4.326
 2828SOL     OW19825   0.672   3.253   5.348
 2828SOL    HW119826   0.594   3.203   5.386
 2828SOL    HW219827   0.669   3.348   5.379
 2829SOL     OW19828   1.824   2.054   4.951
 2829SOL    HW119829   1.820   1.964   4.995
 2829SOL    HW219830   1.827   2.043   4.852
 2830SOL     OW19831   0.428   2.286   4.244
 2830SOL    HW119832   0.458   2.214   4.182
 2830SOL    HW219833   0.389   2.246   4.327
 2831SOL     OW19834   1.705   3.349   4.828
 2831SOL    HW119835   1.612   3.324   4.801
 2831SOL    HW219836   1.731   3.299   4.910
 2832SOL     OW19837   0.317   2.409   5.004
 2832SOL    HW119838   0.355   2.350   5.076
 2832SOL    HW219839   0.357   2.383   4.916
 2833SOL     OW19840   0.812   3.448   4.411
 2833SOL    HW119841   0.844   3.458   4.317
 2833SOL    HW219842   0.733   3.386   4.413
 2834SOL     OW19843   1.424   2.076   4.836
 2834SOL    HW119844   1.476   2.011   4.891
 2834SOL    HW219845   1.375   2.139   4.897
 2835SOL     OW19846   1.001   1.896   4.878
 2835SOL    HW119847   0.938   1.824   4.847
 2835SOL    HW219848   1.094   1.860   4.878
 2836SOL     OW19849   0.770   3.192   4.025
 2836SOL    HW119850   0.724   3.105   4.042
 2836SOL    HW219851   0.861   3.189   4.066
 2837SOL     OW19852   0.618   3.429   5.008
 2837SOL    HW119853   0.613   3.511   5.065
 2837SOL    HW219854   0.707   3.426   4.963
 2838SOL     OW19855   1.352   1.914   3.892
 2838SOL    HW119856   1.387   1.873   3.808
 2838SOL    HW219857   1.262   1.876   3.912
 2839SOL     OW19858   1.300   2.315   4.415
 2839SOL    HW119859   1.241   2.395   4.419
 2839SOL    HW219860   1.315   2.280   4.508
 2840SOL     OW19861   1.593   2.083   4.606
 2840SOL    HW119862   1.509   2.082   4.660
 2840SOL    HW219863   1.595   2.166   4.550
 2841SOL     OW19864   0.039   2.939   4.024
 2841SOL    HW119865   0.138   2.928   4.015
 2841SOL    HW219866  -0.001   2.853   4.056
 2842SOL     OW19867   0.875   3.508   4.061
 2842SOL    HW119868   0.798   3.473   4.007
 2842SOL    HW219869   0.843   3.579   4.123
 2843SOL     OW19870   0.230   2.490   5.699
 2843SOL    HW119871   0.137   2.488   5.736
 2843SOL    HW219872   0.231   2.451   5.607
 2844SOL     OW19873   0.225   2.137   6.582
 2844SOL    HW119874   0.260   2.120   6.674
 2844SOL    HW219875   0.137   2.092   6.570
 2845SOL     OW19876   0.019   2.230   6.233
 2845SOL    HW119877  -0.063   2.273   6.272
 2845SOL    HW219878  -0.009   2.157   6.170
 2846SOL     OW19879   0.569   3.137   6.751
 2846SOL    HW119880   0.476   3.130   6.714
 2846SOL    HW219881   0.580   3.226   6.795
 2847SOL     OW19882   1.555   3.373   6.289
 2847SOL    HW119883   1.498   3.357   6.370
 2847SOL    HW219884   1.496   3.383   6.209
 2848SOL     OW19885   1.135   2.565   6.303
 2848SOL    HW119886   1.192   2.643   6.278
 2848SOL    HW219887   1.075   2.591   6.379
 2849SOL     OW19888   1.755   2.469   5.817
 2849SOL    HW119889   1.743   2.456   5.718
 2849SOL    HW219890   1.725   2.388   5.866
 2850SOL     OW19891   0.768   3.006   6.609
 2850SOL    HW119892   0.690   3.023   6.669
 2850SOL    HW219893   0.802   3.093   6.573
 2851SOL     OW19894   0.850   2.660   7.409
 2851SOL    HW119895   0.846   2.736   7.474
 2851SOL    HW219896   0.872   2.696   7.318
 2852SOL     OW19897   0.685   2.874   6.251
 2852SOL    HW119898   0.754   2.858   6.321
 2852SOL    HW219899   0.612   2.931   6.289
 2853SOL     OW19900   0.686   3.023   7.389
 2853SOL    HW119901   0.746   3.102   7.403
 2853SOL    HW219902   0.600   3.054   7.348
 2854SOL     OW19903   0.335   3.297   6.647
 2854SOL    HW119904   0.257   3.266   6.594
 2854SOL    HW219905   0.393   3.355   6.590
 2855SOL     OW19906   1.460   3.367   6.925
 2855SOL    HW119907   1.484   3.461   6.951
 2855SOL    HW219908   1.444   3.313   7.007
 2856SOL     OW19909   0.438   2.254   7.085
 2856SOL    HW119910   0.520   2.198   7.094
 2856SOL    HW219911   0.357   2.196   7.089
 2857SOL     OW19912   1.603   2.309   6.323
 2857SOL    HW119913   1.529   2.355   6.273
 2857SOL    HW219914   1.654   2.377   6.376
 2858SOL     OW19915   0.231   3.575   6.069
 2858SOL    HW119916   0.265   3.652   6.123
 2858SOL    HW219917   0.275   3.575   5.979
 2859SOL     OW19918   1.127   3.203   7.276
 2859SOL    HW119919   1.174   3.203   7.364
 2859SOL    HW219920   1.079   3.116   7.265
 2860SOL     OW19921   0.230   3.296   6.124
 2860SOL    HW119922   0.204   3.392   6.124
 2860SOL    HW219923   0.159   3.242   6.169
 2861SOL     OW19924   0.240   2.953   6.472
 2861SOL    HW119925   0.254   2.869   6.524
 2861SOL    HW219926   0.185   3.017   6.527
 2862SOL     OW19927   0.620   3.648   7.025
 2862SOL    HW119928   0.528   3.631   7.060
 2862SOL    HW219929   0.648   3.740   7.051
 2863SOL     OW19930   0.606   2.826   5.709
 2863SOL    HW119931   0.613   2.910   5.655
 2863SOL    HW219932   0.652   2.839   5.797
 2864SOL     OW19933   1.594   1.976   7.066
 2864SOL    HW119934   1.576   2.043   6.994
 2864SOL    HW219935   1.591   2.022   7.155
 2865SOL     OW19936   0.122   2.505   6.149
 2865SOL    HW119937   0.077   2.417   6.166
 2865SOL    HW219938   0.121   2.559   6.233
 2866SOL     OW19939   1.842   3.629   5.945
 2866SOL    HW119940   1.896   3.600   6.025
 2866SOL    HW219941   1.872   3.719   5.916
 2867SOL     OW19942   0.027   3.458   5.703
 2867SOL    HW119943   0.008   3.362   5.724
 2867SOL    HW219944  -0.006   3.516   5.778
 2868SOL     OW19945   1.689   2.784   6.198
 2868SOL    HW119946   1.784   2.755   6.206
 2868SOL    HW219947   1.681   2.849   6.123
 2869SOL     OW19948   1.641   2.970   6.018
 2869SOL    HW119949   1.727   2.972   5.966
 2869SOL    HW219950   1.655   3.017   6.106
 2870SOL     OW19951   0.113   2.599   7.183
 2870SOL    HW119952   0.201   2.586   7.228
 2870SOL    HW219953   0.100   2.696   7.161
 2871SOL     OW19954   0.613   3.227   6.312
 2871SOL    HW119955   0.564   3.140   6.321
 2871SOL    HW219956   0.590   3.270   6.225
 2872SOL     OW19957   1.293   3.090   7.009
 2872SOL    HW119958   1.330   3.017   6.951
 2872SOL    HW219959   1.345   3.095   7.094
 2873SOL     OW19960   0.809   1.866   6.088
 2873SOL    HW119961   0.849   1.957   6.079
 2873SOL    HW219962   0.709   1.874   6.094
 2874SOL     OW19963   0.197   2.838   6.850
 2874SOL    HW119964   0.286   2.793   6.836
 2874SOL    HW219965   0.124   2.773   6.831
 2875SOL     OW19966   1.525   2.861   5.776
 2875SOL    HW119967   1.462   2.785   5.789
 2875SOL    HW219968   1.573   2.879   5.862
 2876SOL     OW19969   1.187   3.654   7.202
 2876SOL    HW119970   1.211   3.714   7.126
 2876SOL    HW219971   1.194   3.559   7.172
 2877SOL     OW19972   0.317   2.113   7.387
 2877SOL    HW119973   0.388   2.184   7.393
 2877SOL    HW219974   0.229   2.152   7.415
 2878SOL     OW19975   1.466   3.279   6.539
 2878SOL    HW119976   1.407   3.285   6.619
 2878SOL    HW219977   1.451   3.191   6.493
 2879SOL     OW19978   1.667   3.576   6.158
 2879SOL    HW119979   1.626   3.553   6.070
 2879SOL    HW219980   1.649   3.502   6.223
 2880SOL     OW19981   0.598   2.591   5.856
 2880SOL    HW119982   0.622   2.660   5.788
 2880SOL    HW219983   0.520   2.624   5.910
 2881SOL     OW19984   1.281   2.207   6.530
 2881SOL    HW119985   1.195   2.157   6.517
 2881SOL    HW219986   1.343   2.153   6.586
 2882SOL     OW19987   1.576   3.524   5.893
 2882SOL    HW119988   1.665   3.570   5.896
 2882SOL    HW219989   1.555   3.500   5.798
 2883SOL     OW19990   0.807   2.467   7.051
 2883SOL    HW119991   0.760   2.464   7.140
 2883SOL    HW219992   0.756   2.412   6.985
 2884SOL     OW19993   1.394   2.331   7.260
 2884SOL    HW119994   1.374   2.374   7.348
 2884SOL    HW219995   1.472   2.269   7.269
 2885SOL     OW19996   0.973   2.752   7.158
 2885SOL    HW119997   1.019   2.668   7.129
 2885SOL    HW219998   0.917   2.786   7.083
 2886SOL     OW19999   0.991   2.272   6.828
 2886SOL    HW120000   0.914   2.306   6.882
 2886SOL    HW220001   0.957   2.221   6.749
 2887SOL     OW20002   1.041   2.563   6.015
 2887SOL    HW120003   1.067   2.559   6.111
 2887SOL    HW220004   0.956   2.512   6.001
 2888SOL     OW20005   0.076   2.673   6.375
 2888SOL    HW120006   0.175   2.661   6.384
 2888SOL    HW220007   0.052   2.768   6.396
 2889SOL     OW20008   0.130   3.683   7.157
 2889SOL    HW120009   0.120   3.668   7.256
 2889SOL    HW220010   0.044   3.719   7.121
 2890SOL     OW20011   0.865   2.210   5.781
 2890SOL    HW120012   0.924   2.273   5.732
 2890SOL    HW220013   0.884   2.116   5.752
 2891SOL     OW20014   1.719   2.447   7.417
 2891SOL    HW120015   1.693   2.536   7.381
 2891SOL    HW220016   1.717   2.379   7.344
 2892SOL     OW20017   1.362   3.006   6.131
 2892SOL    HW120018   1.445   2.977   6.083
 2892SOL    HW220019   1.313   3.073   6.075
 2893SOL     OW20020   0.550   2.058   6.471
 2893SOL    HW120021   0.545   2.053   6.571
 2893SOL    HW220022   0.552   2.154   6.442
 2894SOL     OW20023   1.008   3.318   6.063
 2894SOL    HW120024   0.962   3.390   6.011
 2894SOL    HW220025   1.004   3.338   6.161
 2895SOL     OW20026   0.351   3.663   6.439
 2895SOL    HW120027   0.401   3.577   6.445
 2895SOL    HW220028   0.416   3.740   6.436
 2896SOL     OW20029   1.795   2.928   6.459
 2896SOL    HW120030   1.733   2.913   6.383
 2896SOL    HW220031   1.743   2.939   6.544
 2897SOL     OW20032   1.227   3.412   7.092
 2897SOL    HW120033   1.233   3.335   7.156
 2897SOL    HW220034   1.175   3.386   7.012
 2898SOL     OW20035   0.321   2.805   5.828
 2898SOL    HW120036   0.403   2.844   5.786
 2898SOL    HW220037   0.294   2.723   5.779
 2899SOL     OW20038   1.458   2.597   6.314
 2899SOL    HW120039   1.453   2.532   6.389
 2899SOL    HW220040   1.538   2.656   6.327
 2900SOL     OW20041   0.461   3.128   7.313
 2900SOL    HW120042   0.411   3.129   7.227
 2900SOL    HW220043   0.398   3.110   7.389
 2901SOL     OW20044   1.111   3.638   5.823
 2901SOL    HW120045   1.051   3.576   5.873
 2901SOL    HW220046   1.142   3.594   5.738
 2902SOL     OW20047   0.202   2.147   7.084
 2902SOL    HW120048   0.122   2.207   7.071
 2902SOL    HW220049   0.192   2.098   7.170
 2903SOL     OW20050   1.632   3.239   5.667
 2903SOL    HW120051   1.600   3.333   5.657
 2903SOL    HW220052   1.556   3.176   5.655
 2904SOL     OW20053   0.464   3.605   5.909
 2904SOL    HW120054   0.497   3.644   5.995
 2904SOL    HW220055   0.540   3.598   5.844
 2905SOL     OW20056   1.400   1.969   6.012
 2905SOL    HW120057   1.376   1.932   5.922
 2905SOL    HW220058   1.499   1.985   6.016
 2906SOL     OW20059   0.249   3.647   6.827
 2906SOL    HW120060   0.306   3.582   6.877
 2906SOL    HW220061   0.233   3.614   6.734
 2907SOL     OW20062   0.940   3.560   6.490
 2907SOL    HW120063   1.020   3.503   6.511
 2907SOL    HW220064   0.891   3.520   6.413
 2908SOL     OW20065   0.382   2.562   6.066
 2908SOL    HW120066   0.427   2.472   6.063
 2908SOL    HW220067   0.288   2.551   6.099
 2909SOL     OW20068   1.547   2.084   7.315
 2909SOL    HW120069   1.542   2.121   7.407
 2909SOL    HW220070   1.475   2.015   7.303
 2910SOL     OW20071   0.614   1.984   5.703
 2910SOL    HW120072   0.712   1.962   5.710
 2910SOL    HW220073   0.583   1.967   5.610
 2911SOL     OW20074   0.781   2.126   7.335
 2911SOL    HW120075   0.848   2.065   7.378
 2911SOL    HW220076   0.708   2.145   7.400
 2912SOL     OW20077   0.888   3.376   6.781
 2912SOL    HW120078   0.865   3.351   6.687
 2912SOL    HW220079   0.949   3.307   6.820
 2913SOL     OW20080   1.351   2.452   7.019
 2913SOL    HW120081   1.379   2.409   7.104
 2913SOL    HW220082   1.376   2.548   7.020
 2914SOL     OW20083   0.803   3.264   6.510
 2914SOL    HW120084   0.893   3.278   6.468
 2914SOL    HW220085   0.732   3.266   6.439
 2915SOL     OW20086   0.922   2.365   6.485
 2915SOL    HW120087   0.897   2.356   6.389
 2915SOL    HW220088   0.970   2.283   6.516
 2916SOL     OW20089   0.539   1.926   6.098
 2916SOL    HW120090   0.458   1.927   6.156
 2916SOL    HW220091   0.542   2.009   6.043
 2917SOL     OW20092   1.434   3.050   5.627
 2917SOL    HW120093   1.466   2.974   5.684
 2917SOL    HW220094   1.342   3.077   5.657
 2918SOL     OW20095   0.297   1.897   5.757
 2918SOL    HW120096   0.346   1.981   5.736
 2918SOL    HW220097   0.359   1.832   5.802
 2919SOL     OW20098   0.935   2.098   6.066
 2919SOL    HW120099   0.887   2.139   5.988
 2919SOL    HW220100   1.034   2.096   6.047
 2920SOL     OW20101   1.076   2.545   7.050
 2920SOL    HW120102   0.996   2.484   7.053
 2920SOL    HW220103   1.157   2.492   7.026
 2921SOL     OW20104   1.227   3.432   6.379
 2921SOL    HW120105   1.248   3.506   6.314
 2921SOL    HW220106   1.295   3.432   6.452
 2922SOL     OW20107   0.459   3.014   6.327
 2922SOL    HW120108   0.388   2.987   6.392
 2922SOL    HW220109   0.433   2.986   6.234
 2923SOL     OW20110   1.271   3.659   6.177
 2923SOL    HW120111   1.315   3.723   6.113
 2923SOL    HW220112   1.221   3.711   6.247
 2924SOL     OW20113   1.032   2.411   5.602
 2924SOL    HW120114   0.991   2.493   5.563
 2924SOL    HW220115   1.096   2.437   5.675
 2925SOL     OW20116   0.078   2.418   6.972
 2925SOL    HW120117   0.170   2.417   6.931
 2925SOL    HW220118   0.072   2.492   7.039
 2926SOL     OW20119   0.561   2.084   6.733
 2926SOL    HW120120   0.599   2.000   6.770
 2926SOL    HW220121   0.473   2.103   6.777
 2927SOL     OW20122   0.866   2.316   6.228
 2927SOL    HW120123   0.834   2.388   6.166
 2927SOL    HW220124   0.890   2.235   6.175
 2928SOL     OW20125   1.017   1.901   6.339
 2928SOL    HW120126   0.945   1.906   6.270
 2928SOL    HW220127   0.993   1.832   6.408
 2929SOL     OW20128   1.429   3.035   6.453
 2929SOL    HW120129   1.374   2.951   6.446
 2929SOL    HW220130   1.455   3.064   6.361
 2930SOL     OW20131   1.466   2.452   6.578
 2930SOL    HW120132   1.436   2.357   6.585
 2930SOL    HW220133   1.539   2.468   6.644
 2931SOL     OW20134   1.857   2.695   5.963
 2931SOL    HW120135   1.899   2.631   6.027
 2931SOL    HW220136   1.819   2.644   5.885
 2932SOL     OW20137   0.488   3.247   5.760
 2932SOL    HW120138   0.401   3.232   5.807
 2932SOL    HW220139   0.471   3.273   5.665
 2933SOL     OW20140   1.664   3.142   6.243
 2933SOL    HW120141   1.763   3.150   6.257
 2933SOL    HW220142   1.619   3.226   6.274
 2934SOL     OW20143   1.390   2.437   5.664
 2934SOL    HW120144   1.336   2.416   5.745
 2934SOL    HW220145   1.481   2.396   5.673
 2935SOL     OW20146   0.527   2.118   5.914
 2935SOL    HW120147   0.554   2.059   5.839
 2935SOL    HW220148   0.527   2.213   5.883
 2936SOL     OW20149   1.754   3.085   7.174
 2936SOL    HW120150   1.845   3.046   7.161
 2936SOL    HW220151   1.762   3.181   7.198
 2937SOL     OW20152   1.064   3.209   6.926
 2937SOL    HW120153   0.984   3.186   6.981
 2937SOL    HW220154   1.147   3.183   6.975
 2938SOL     OW20155   1.592   3.491   7.211
 2938SOL    HW120156   1.619   3.525   7.121
 2938SOL    HW220157   1.671   3.453   7.257
 2939SOL     OW20158   1.111   3.057   6.686
 2939SOL    HW120159   1.071   3.101   6.767
 2939SOL    HW220160   1.070   3.094   6.603
 2940SOL     OW20161   1.638   2.961   6.665
 2940SOL    HW120162   1.643   3.042   6.724
 2940SOL    HW220163   1.552   2.963   6.614
 2941SOL     OW20164   0.915   1.951   6.988
 2941SOL    HW120165   0.940   1.931   6.893
 2941SOL    HW220166   0.987   2.007   7.030
 2942SOL     OW20167   0.980   2.978   7.305
 2942SOL    HW120168   0.881   2.984   7.315
 2942SOL    HW220169   1.003   2.898   7.249
 2943SOL     OW20170   0.705   2.912   5.954
 2943SOL    HW120171   0.691   2.919   6.053
 2943SOL    HW220172   0.789   2.861   5.936
 2944SOL     OW20173   0.410   2.675   6.837
 2944SOL    HW120174   0.496   2.687   6.887
 2944SOL    HW220175   0.368   2.588   6.864
 2945SOL     OW20176   1.274   2.248   6.848
 2945SOL    HW120177   1.295   2.322   6.912
 2945SOL    HW220178   1.185   2.265   6.805
 2946SOL     OW20179   0.064   3.426   6.917
 2946SOL    HW120180   0.018   3.508   6.883
 2946SOL    HW220181   0.162   3.445   6.926
 2947SOL     OW20182   0.367   2.962   6.087
 2947SOL    HW120183   0.360   3.045   6.031
 2947SOL    HW220184   0.371   2.882   6.027
 2948SOL     OW20185   0.566   2.399   6.451
 2948SOL    HW120186   0.578   2.465   6.377
 2948SOL    HW220187   0.612   2.433   6.534
 2949SOL     OW20188   1.252   3.210   5.974
 2949SOL    HW120189   1.302   3.287   6.014
 2949SOL    HW220190   1.157   3.212   6.006
 2950SOL     OW20191   1.272   3.307   6.728
 2950SOL    HW120192   1.319   3.320   6.815
 2950SOL    HW220193   1.206   3.233   6.737
 2951SOL     OW20194   1.582   2.501   6.058
 2951SOL    HW120195   1.551   2.562   6.131
 2951SOL    HW220196   1.632   2.553   5.989
 2952SOL     OW20197   0.354   3.372   6.915
 2952SOL    HW120198   0.333   3.328   6.828
 2952SOL    HW220199   0.451   3.398   6.918
 2953SOL     OW20200   0.402   2.613   7.184
 2953SOL    HW120201   0.470   2.668   7.137
 2953SOL    HW220202   0.442   2.525   7.211
 2954SOL     OW20203   1.587   2.641   7.256
 2954SOL    HW120204   1.495   2.679   7.251
 2954SOL    HW220205   1.647   2.688   7.191
 2955SOL     OW20206   1.013   1.967   7.356
 2955SOL    HW120207   1.019   2.052   7.304
 2955SOL    HW220208   1.045   1.891   7.299
 2956SOL     OW20209   0.504   1.912   7.326
 2956SOL    HW120210   0.462   1.855   7.256
 2956SOL    HW220211   0.438   1.981   7.358
 2957SOL     OW20212   0.573   2.732   6.615
 2957SOL    HW120213   0.617   2.821   6.606
 2957SOL    HW220214   0.510   2.732   6.692
 2958SOL     OW20215   1.360   2.724   6.631
 2958SOL    HW120216   1.285   2.724   6.565
 2958SOL    HW220217   1.397   2.632   6.640
 2959SOL     OW20218   1.209   2.387   5.861
 2959SOL    HW120219   1.222   2.303   5.915
 2959SOL    HW220220   1.180   2.461   5.921
 2960SOL     OW20221   0.307   2.075   6.817
 2960SOL    HW120222   0.284   2.112   6.907
 2960SOL    HW220223   0.277   1.980   6.811
 2961SOL     OW20224   0.037   3.172   6.868
 2961SOL    HW120225   0.090   3.123   6.936
 2961SOL    HW220226   0.059   3.270   6.873
 2962SOL     OW20227   0.732   2.496   6.650
 2962SOL    HW120228   0.791   2.470   6.574
 2962SOL    HW220229   0.704   2.592   6.639
 2963SOL     OW20230   1.728   2.797   7.440
 2963SOL    HW120231   1.682   2.790   7.351
 2963SOL    HW220232   1.666   2.841   7.506
 2964SOL     OW20233   0.307   1.925   6.204
 2964SOL    HW120234   0.296   2.019   6.237
 2964SOL    HW220235   0.302   1.862   6.281
 2965SOL     OW20236   1.622   2.229   5.960
 2965SOL    HW120237   1.624   2.153   6.024
 2965SOL    HW220238   1.574   2.306   6.000
 2966SOL     OW20239   1.023   2.628   6.552
 2966SOL    HW120240   1.038   2.649   6.648
 2966SOL    HW220241   0.993   2.533   6.543
 2967SOL     OW20242   0.980   3.435   7.286
 2967SOL    HW120243   0.960   3.479   7.198
 2967SOL    HW220244   1.019   3.344   7.270
 2968SOL     OW20245   1.859   3.380   7.191
 2968SOL    HW120246   1.873   3.407   7.096
 2968SOL    HW220247   1.942   3.402   7.244
 2969SOL     OW20248   0.350   2.760   7.390
 2969SOL    HW120249   0.426   2.804   7.438
 2969SOL    HW220250   0.385   2.713   7.308
 2970SOL     OW20251   1.540   2.136   5.711
 2970SOL    HW120252   1.479   2.061   5.734
 2970SOL    HW220253   1.562   2.188   5.794
 2971SOL     OW20254   1.303   2.700   5.628
 2971SOL    HW120255   1.337   2.607   5.643
 2971SOL    HW220256   1.321   2.727   5.533
 2972SOL     OW20257   1.068   3.195   6.435
 2972SOL    HW120258   1.075   3.111   6.380
 2972SOL    HW220259   1.130   3.264   6.399
 2973SOL     OW20260   0.319   2.672   6.535
 2973SOL    HW120261   0.412   2.708   6.540
 2973SOL    HW220262   0.313   2.587   6.587
 2974SOL     OW20263   0.339   2.371   6.592
 2974SOL    HW120264   0.287   2.288   6.575
 2974SOL    HW220265   0.416   2.376   6.528
 2975SOL     OW20266   1.138   2.242   7.264
 2975SOL    HW120267   1.093   2.305   7.328
 2975SOL    HW220268   1.231   2.273   7.247
 2976SOL     OW20269   1.160   2.069   7.063
 2976SOL    HW120270   1.160   2.133   7.140
 2976SOL    HW220271   1.188   2.117   6.980
 2977SOL     OW20272   0.008   3.188   5.786
 2977SOL    HW120273  -0.085   3.209   5.755
 2977SOL    HW220274   0.018   3.089   5.799
 2978SOL     OW20275   0.088   3.663   6.513
 2978SOL    HW120276   0.046   3.577   6.486
 2978SOL    HW220277   0.182   3.666   6.479
 2979SOL     OW20278   0.504   3.430   6.496
 2979SOL    HW120279   0.570   3.504   6.505
 2979SOL    HW220280   0.548   3.351   6.454
 2980SOL     OW20281   1.002   2.658   6.824
 2980SOL    HW120282   1.043   2.626   6.910
 2980SOL    HW220283   0.906   2.631   6.821
 2981SOL     OW20284   0.040   2.406   6.700
 2981SOL    HW120285   0.125   2.373   6.659
 2981SOL    HW220286   0.053   2.421   6.798
 2982SOL     OW20287   0.189   2.382   7.308
 2982SOL    HW120288   0.248   2.342   7.238
 2982SOL    HW220289   0.131   2.453   7.267
 2983SOL     OW20290   1.369   2.812   7.246
 2983SOL    HW120291   1.408   2.901   7.266
 2983SOL    HW220292   1.379   2.792   7.149
 2984SOL     OW20293   0.815   2.434   5.911
 2984SOL    HW120294   0.822   2.345   5.865
 2984SOL    HW220295   0.721   2.468   5.903
 2985SOL     OW20296   1.657   2.466   6.792
 2985SOL    HW120297   1.619   2.397   6.854
 2985SOL    HW220298   1.739   2.430   6.748
 2986SOL     OW20299   0.252   3.426   7.330
 2986SOL    HW120300   0.222   3.483   7.406
 2986SOL    HW220301   0.245   3.329   7.356
 2987SOL     OW20302   0.671   2.326   6.855
 2987SOL    HW120303   0.637   2.237   6.825
 2987SOL    HW220304   0.697   2.380   6.775
 2988SOL     OW20305   0.930   3.540   7.051
 2988SOL    HW120306   0.906   3.522   6.956
 2988SOL    HW220307   0.960   3.634   7.061
 2989SOL     OW20308   0.473   2.362   5.777
 2989SOL    HW120309   0.534   2.442   5.781
 2989SOL    HW220310   0.378   2.393   5.784
 2990SOL     OW20311   0.159   2.999   7.052
 2990SOL    HW120312   0.181   2.938   7.128
 2990SOL    HW220313   0.169   2.950   6.966
 2991SOL     OW20314   1.347   2.921   6.820
 2991SOL    HW120315   1.371   2.858   6.746
 2991SOL    HW220316   1.257   2.961   6.802
 2992SOL     OW20317   1.302   2.717   5.895
 2992SOL    HW120318   1.216   2.686   5.937
 2992SOL    HW220319   1.298   2.703   5.796
 2993SOL     OW20320   1.759   3.609   6.740
 2993SOL    HW120321   1.820   3.639   6.667
 2993SOL    HW220322   1.721   3.520   6.718
 2994SOL     OW20323   1.252   3.593   6.714
 2994SOL    HW120324   1.336   3.598   6.660
 2994SOL    HW220325   1.229   3.497   6.732
 2995SOL     OW20326   0.083   3.120   6.608
 2995SOL    HW120327   0.078   3.119   6.708
 2995SOL    HW220328   0.000   3.079   6.570
 2996SOL     OW20329   0.688   3.524   7.302
 2996SOL    HW120330   0.632   3.605   7.311
 2996SOL    HW220331   0.740   3.528   7.216
 2997SOL     OW20332   1.726   1.997   6.109
 2997SOL    HW120333   1.799   1.980   6.042
 2997SOL    HW220334   1.695   1.910   6.147
 2998SOL     OW20335   1.388   3.435   6.063
 2998SOL    HW120336   1.455   3.447   5.989
 2998SOL    HW220337   1.348   3.524   6.086
 2999SOL     OW20338   0.130   3.656   7.437
 2999SOL    HW120339   0.089   3.582   7.490
 2999SOL    HW220340   0.194   3.707   7.495
 3000SOL     OW20341   1.280   2.789   6.258
 3000SOL    HW120342   1.340   2.708   6.260
 3000SOL    HW220343   1.320   2.858   6.198
 3001SOL     OW20344   0.830   3.135   7.008
 3001SOL    HW120345   0.825   3.168   7.103
 3001SOL    HW220346   0.744   3.154   6.962
 3002SOL     OW20347   0.672   3.478   5.740
 3002SOL    HW120348   0.681   3.488   5.641
 3002SOL    HW220349   0.632   3.389   5.761
 3003SOL     OW20350   1.650   3.582   6.980
 3003SOL    HW120351   1.703   3.592   6.896
 3003SOL    HW220352   1.623   3.672   7.014
 3004SOL     OW20353   1.841   2.037   6.549
 3004SOL    HW120354   1.880   1.952   6.513
 3004SOL    HW220355   1.743   2.039   6.530
 3005SOL     OW20356   1.194   3.474   5.617
 3005SOL    HW120357   1.200   3.381   5.654
 3005SOL    HW220358   1.135   3.474   5.537
 3006SOL     OW20359   0.822   2.864   6.958
 3006SOL    HW120360   0.862   2.863   6.866
 3006SOL    HW220361   0.832   2.956   6.998
 3007SOL     OW20362   0.916   2.772   5.877
 3007SOL    HW120363   0.979   2.810   5.809
 3007SOL    HW220364   0.956   2.689   5.916
 3008SOL     OW20365   1.504   3.469   5.630
 3008SOL    HW120366   1.412   3.506   5.637
 3008SOL    HW220367   1.542   3.489   5.540
 3009SOL     OW20368   0.372   3.150   7.076
 3009SOL    HW120369   0.359   3.243   7.042
 3009SOL    HW220370   0.288   3.098   7.063
 3010SOL     OW20371   1.614   3.154   6.875
 3010SOL    HW120372   1.674   3.157   6.955
 3010SOL    HW220373   1.539   3.218   6.888
 3011SOL     OW20374   1.039   2.960   6.282
 3011SOL    HW120375   0.969   2.913   6.336
 3011SOL    HW220376   1.098   2.892   6.239
 3012SOL     OW20377   1.014   2.098   6.557
 3012SOL    HW120378   1.006   2.062   6.464
 3012SOL    HW220379   1.012   2.022   6.622
 3013SOL     OW20380   0.590   3.349   6.077
 3013SOL    HW120381   0.632   3.291   6.007
 3013SOL    HW220382   0.546   3.428   6.033
 3014SOL     OW20383   1.709   2.247   6.967
 3014SOL    HW120384   1.782   2.316   6.971
 3014SOL    HW220385   1.737   2.172   6.908
 3015SOL     OW20386   0.255   3.210   5.876
 3015SOL    HW120387   0.159   3.211   5.849
 3015SOL    HW220388   0.267   3.263   5.960
 3016SOL     OW20389   0.105   2.875   7.312
 3016SOL    HW120390   0.028   2.842   7.366
 3016SOL    HW220391   0.190   2.845   7.354
 3017SOL     OW20392   0.672   2.065   7.075
 3017SOL    HW120393   0.762   2.049   7.035
 3017SOL    HW220394   0.680   2.070   7.174
 3018SOL     OW20395   0.075   2.207   5.619
 3018SOL    HW120396  -0.017   2.179   5.590
 3018SOL    HW220397   0.106   2.284   5.563
 3019SOL     OW20398   1.440   2.718   6.984
 3019SOL    HW120399   1.383   2.770   6.921
 3019SOL    HW220400   1.536   2.730   6.960
 3020SOL     OW20401   0.072   2.028   5.904
 3020SOL    HW120402   0.055   2.111   5.850
 3020SOL    HW220403   0.162   1.991   5.882
 3021SOL     OW20404   1.183   3.197   5.705
 3021SOL    HW120405   1.084   3.186   5.707
 3021SOL    HW220406   1.217   3.212   5.798
 3022SOL     OW20407   0.613   2.704   7.017
 3022SOL    HW120408   0.669   2.785   7.000
 3022SOL    HW220409   0.672   2.624   7.020
 3023SOL     OW20410   1.493   3.629   6.545
 3023SOL    HW120411   1.526   3.693   6.476
 3023SOL    HW220412   1.559   3.623   6.620
 3024SOL     OW20413   0.716   2.427   7.294
 3024SOL    HW120414   0.735   2.492   7.368
 3024SOL    HW220415   0.776   2.347   7.303
 3025SOL     OW20416   1.450   3.082   7.219
 3025SOL    HW120417   1.441   3.072   7.318
 3025SOL    HW220418   1.546   3.075   7.193
 3026SOL     OW20419   0.390   3.603   7.146
 3026SOL    HW120420   0.299   3.644   7.144
 3026SOL    HW220421   0.383   3.509   7.178
 3027SOL     OW20422   1.674   2.745   6.840
 3027SOL    HW120423   1.647   2.656   6.803
 3027SOL    HW220424   1.675   2.813   6.767
 3028SOL     OW20425   1.225   2.187   6.035
 3028SOL    HW120426   1.290   2.113   6.024
 3028SOL    HW220427   1.245   2.237   6.119
 3029SOL     OW20428   0.594   2.607   6.238
 3029SOL    HW120429   0.644   2.692   6.219
 3029SOL    HW220430   0.506   2.609   6.190
 3030SOL     OW20431   1.777   2.204   7.228
 3030SOL    HW120432   1.760   2.235   7.134
 3030SOL    HW220433   1.693   2.167   7.266
 3031SOL     OW20434   1.730   2.796   7.103
 3031SOL    HW120435   1.768   2.887   7.118
 3031SOL    HW220436   1.722   2.779   7.004
 3032SOL     OW20437   0.859   3.236   5.602
 3032SOL    HW120438   0.813   3.251   5.690
 3032SOL    HW220439   0.903   3.321   5.572
 3033SOL     OW20440   0.661   3.652   6.539
 3033SOL    HW120441   0.615   3.740   6.526
 3033SOL    HW220442   0.760   3.664   6.532
 3034SOL     OW20443   0.859   2.818   6.447
 3034SOL    HW120444   0.913   2.749   6.495
 3034SOL    HW220445   0.827   2.887   6.513
 3035SOL     OW20446   1.083   2.846   5.673
 3035SOL    HW120447   1.060   2.899   5.591
 3035SOL    HW220448   1.164   2.790   5.654
 3036SOL     OW20449   1.861   3.431   6.437
 3036SOL    HW120450   1.790   3.419   6.367
 3036SOL    HW220451   1.862   3.352   6.497
 3037SOL     OW20452   0.221   3.176   7.430
 3037SOL    HW120453   0.156   3.103   7.409
 3037SOL    HW220454   0.225   3.190   7.528
 3038SOL     OW20455   0.079   3.102   6.239
 3038SOL    HW120456   0.078   3.055   6.327
 3038SOL    HW220457   0.161   3.074   6.188
 3039SOL     OW20458   0.672   3.253   7.210
 3039SOL    HW120459   0.594   3.203   7.248
 3039SOL    HW220460   0.669   3.348   7.241
 3040SOL     OW20461   1.824   2.054   6.813
 3040SOL    HW120462   1.820   1.964   6.857
 3040SOL    HW220463   1.827   2.043   6.714
 3041SOL     OW20464   1.705   3.349   6.690
 3041SOL    HW120465   1.612   3.324   6.663
 3041SOL    HW220466   1.731   3.299   6.772
 3042SOL     OW20467   0.317   2.409   6.866
 3042SOL    HW120468   0.355   2.350   6.938
 3042SOL    HW220469   0.357   2.383   6.778
 3043SOL     OW20470   0.812   3.448   6.273
 3043SOL    HW120471   0.844   3.458   6.179
 3043SOL    HW220472   0.733   3.386   6.275
 3044SOL     OW20473   1.424   2.076   6.698
 3044SOL    HW120474   1.476   2.011   6.753
 3044SOL    HW220475   1.375   2.139   6.759
 3045SOL     OW20476   1.001   1.896   6.740
 3045SOL    HW120477   0.938   1.824   6.709
 3045SOL    HW220478   1.094   1.860   6.740
 3046SOL     OW20479   0.770   3.192   5.887
 3046SOL    HW120480   0.724   3.105   5.904
 3046SOL    HW220481   0.861   3.189   5.928
 3047SOL     OW20482   0.618   3.429   6.870
 3047SOL    HW120483   0.613   3.511   6.927
 3047SOL    HW220484   0.707   3.426   6.825
 3048SOL     OW20485   1.352   1.914   5.754
 3048SOL    HW120486   1.387   1.873   5.670
 3048SOL    HW220487   1.262   1.876   5.774
 3049SOL     OW20488   1.300   2.315   6.277
 3049SOL    HW120489   1.241   2.395   6.281
 3049SOL    HW220490   1.315   2.280   6.370
 3050SOL     OW20491   1.593   2.083   6.468
 3050SOL    HW120492   1.509   2.082   6.522
 3050SOL    HW220493   1.595   2.166   6.412
 3051SOL     OW20494   0.039   2.939   5.886
 3051SOL    HW120495   0.138   2.928   5.877
 3051SOL    HW220496  -0.001   2.853   5.918
 3052SOL     OW20497   0.875   3.508   5.923
 3052SOL    HW120498   0.798   3.473   5.869
 3052SOL    HW220499   0.843   3.579   5.985
 3053SOL     OW20500   0.230   2.490   7.561
 3053SOL    HW120501   0.137   2.488   7.598
 3053SOL    HW220502   0.231   2.451   7.469
 3054SOL     OW20503   0.225   2.137   8.444
 3054SOL    HW120504   0.260   2.120   8.536
 3054SOL    HW220505   0.137   2.092   8.432
 3055SOL     OW20506   0.019   2.230   8.095
 3055SOL    HW120507  -0.063   2.273   8.134
 3055SOL    HW220508  -0.009   2.157   8.032
 3056SOL     OW20509   0.569   3.137   8.613
 3056SOL    HW120510   0.476   3.130   8.576
 3056SOL    HW220511   0.580   3.226   8.657
 3057SOL     OW20512   1.555   3.373   8.151
 3057SOL    HW120513   1.498   3.357   8.232
 3057SOL    HW220514   1.496   3.383   8.071
 3058SOL     OW20515   1.135   2.565   8.165
 3058SOL    HW120516   1.192   2.643   8.140
 3058SOL    HW220517   1.075   2.591   8.241
 3059SOL     OW20518   1.755   2.469   7.679
 3059SOL    HW120519   1.743   2.456   7.580
 3059SOL    HW220520   1.725   2.388   7.728
 3060SOL     OW20521   0.768   3.006   8.471
 3060SOL    HW120522   0.690   3.023   8.531
 3060SOL    HW220523   0.802   3.093   8.435
 3061SOL     OW20524   0.850   2.660   9.271
 3061SOL    HW120525   0.846   2.736   9.336
 3061SOL    HW220526   0.872   2.696   9.180
 3062SOL     OW20527   0.685   2.874   8.113
 3062SOL    HW120528   0.754   2.858   8.183
 3062SOL    HW220529   0.612   2.931   8.151
 3063SOL     OW20530   0.686   3.023   9.251
 3063SOL    HW120531   0.746   3.102   9.265
 3063SOL    HW220532   0.600   3.054   9.210
 3064SOL     OW20533   0.335   3.297   8.509
 3064SOL    HW120534   0.257   3.266   8.456
 3064SOL    HW220535   0.393   3.355   8.452
 3065SOL     OW20536   1.460   3.367   8.787
 3065SOL    HW120537   1.484   3.461   8.813
 3065SOL    HW220538   1.444   3.313   8.869
 3066SOL     OW20539   0.438   2.254   8.947
 3066SOL    HW120540   0.520   2.198   8.956
 3066SOL    HW220541   0.357   2.196   8.951
 3067SOL     OW20542   1.603   2.309   8.185
 3067SOL    HW120543   1.529   2.355   8.135
 3067SOL    HW220544   1.654   2.377   8.238
 3068SOL     OW20545   0.231   3.575   7.931
 3068SOL    HW120546   0.265   3.652   7.985
 3068SOL    HW220547   0.275   3.575   7.841
 3069SOL     OW20548   1.127   3.203   9.138
 3069SOL    HW120549   1.174   3.203   9.226
 3069SOL    HW220550   1.079   3.116   9.127
 3070SOL     OW20551   0.230   3.296   7.986
 3070SOL    HW120552   0.204   3.392   7.986
 3070SOL    HW220553   0.159   3.242   8.031
 3071SOL     OW20554   0.240   2.953   8.334
 3071SOL    HW120555   0.254   2.869   8.386
 3071SOL    HW220556   0.185   3.017   8.389
 3072SOL     OW20557   0.620   3.648   8.887
 3072SOL    HW120558   0.528   3.631   8.922
 3072SOL    HW220559   0.648   3.740   8.913
 3073SOL     OW20560   0.606   2.826   7.571
 3073SOL    HW120561   0.613   2.910   7.517
 3073SOL    HW220562   0.652   2.839   7.659
 3074SOL     OW20563   1.594   1.976   8.928
 3074SOL    HW120564   1.576   2.043   8.856
 3074SOL    HW220565   1.591   2.022   9.017
 3075SOL     OW20566   0.122   2.505   8.011
 3075SOL    HW120567   0.077   2.417   8.028
 3075SOL    HW220568   0.121   2.559   8.095
 3076SOL     OW20569   1.842   3.629   7.807
 3076SOL    HW120570   1.896   3.600   7.887
 3076SOL    HW220571   1.872   3.719   7.778
 3077SOL     OW20572   0.027   3.458   7.565
 3077SOL    HW120573   0.008   3.362   7.586
 3077SOL    HW220574  -0.006   3.516   7.640
 3078SOL     OW20575   1.689   2.784   8.060
 3078SOL    HW120576   1.784   2.755   8.068
 3078SOL    HW220577   1.681   2.849   7.985
 3079SOL     OW20578   1.641   2.970   7.880
 3079SOL    HW120579   1.727   2.972   7.828
 3079SOL    HW220580   1.655   3.017   7.968
 3080SOL     OW20581   0.113   2.599   9.045
 3080SOL    HW120582   0.201   2.586   9.090
 3080SOL    HW220583   0.100   2.696   9.023
 3081SOL     OW20584   0.613   3.227   8.174
 3081SOL    HW120585   0.564   3.140   8.183
 3081SOL    HW220586   0.590   3.270   8.087
 3082SOL     OW20587   1.293   3.090   8.871
 3082SOL    HW120588   1.330   3.017   8.813
 3082SOL    HW220589   1.345   3.095   8.956
 3083SOL     OW20590   0.809   1.866   7.950
 3083SOL    HW120591   0.849   1.957   7.941
 3083SOL    HW220592   0.709   1.874   7.956
 3084SOL     OW20593   0.197   2.838   8.712
 3084SOL    HW120594   0.286   2.793   8.698
 3084SOL    HW220595   0.124   2.773   8.693
 3085SOL     OW20596   1.525   2.861   7.638
 3085SOL    HW120597   1.462   2.785   7.651
 3085SOL    HW220598   1.573   2.879   7.724
 3086SOL     OW20599   1.187   3.654   9.064
 3086SOL    HW120600   1.211   3.714   8.988
 3086SOL    HW220601   1.194   3.559   9.034
 3087SOL     OW20602   0.317   2.113   9.249
 3087SOL    HW120603   0.388   2.184   9.255
 3087SOL    HW220604   0.229   2.152   9.277
 3088SOL     OW20605   1.466   3.279   8.401
 3088SOL    HW120606   1.407   3.285   8.481
 3088SOL    HW220607   1.451   3.191   8.355
 3089SOL     OW20608   1.667   3.576   8.020
 3089SOL    HW120609   1.626   3.553   7.932
 3089SOL    HW220610   1.649   3.502   8.085
 3090SOL     OW20611   0.598   2.591   7.718
 3090SOL    HW120612   0.622   2.660   7.650
 3090SOL    HW220613   0.520   2.624   7.772
 3091SOL     OW20614   1.281   2.207   8.392
 3091SOL    HW120615   1.195   2.157   8.379
 3091SOL    HW220616   1.343   2.153   8.448
 3092SOL     OW20617   1.576   3.524   7.755
 3092SOL    HW120618   1.665   3.570   7.758
 3092SOL    HW220619   1.555   3.500   7.660
 3093SOL     OW20620   0.807   2.467   8.913
 3093SOL    HW120621   0.760   2.464   9.002
 3093SOL    HW220622   0.756   2.412   8.847
 3094SOL     OW20623   1.394   2.331   9.122
 3094SOL    HW120624   1.374   2.374   9.210
 3094SOL    HW220625   1.472   2.269   9.131
 3095SOL     OW20626   0.973   2.752   9.020
 3095SOL    HW120627   1.019   2.668   8.991
 3095SOL    HW220628   0.917   2.786   8.945
 3096SOL     OW20629   0.991   2.272   8.690
 3096SOL    HW120630   0.914   2.306   8.744
 3096SOL    HW220631   0.957   2.221   8.611
 3097SOL     OW20632   1.041   2.563   7.877
 3097SOL    HW120633   1.067   2.559   7.973
 3097SOL    HW220634   0.956   2.512   7.863
 3098SOL     OW20635   0.076   2.673   8.237
 3098SOL    HW120636   0.175   2.661   8.246
 3098SOL    HW220637   0.052   2.768   8.258
 3099SOL     OW20638   0.130   3.683   9.019
 3099SOL    HW120639   0.120   3.668   9.118
 3099SOL    HW220640   0.044   3.719   8.983
 3100SOL     OW20641   0.865   2.210   7.643
 3100SOL    HW120642   0.924   2.273   7.594
 3100SOL    HW220643   0.884   2.116   7.614
 3101SOL     OW20644   1.719   2.447   9.279
 3101SOL    HW120645   1.693   2.536   9.243
 3101SOL    HW220646   1.717   2.379   9.206
 3102SOL     OW20647   1.362   3.006   7.993
 3102SOL    HW120648   1.445   2.977   7.945
 3102SOL    HW220649   1.313   3.073   7.937
 3103SOL     OW20650   0.550   2.058   8.333
 3103SOL    HW120651   0.545   2.053   8.433
 3103SOL    HW220652   0.552   2.154   8.304
 3104SOL     OW20653   1.008   3.318   7.925
 3104SOL    HW120654   0.962   3.390   7.873
 3104SOL    HW220655   1.004   3.338   8.023
 3105SOL     OW20656   0.351   3.663   8.301
 3105SOL    HW120657   0.401   3.577   8.307
 3105SOL    HW220658   0.416   3.740   8.298
 3106SOL     OW20659   1.795   2.928   8.321
 3106SOL    HW120660   1.733   2.913   8.245
 3106SOL    HW220661   1.743   2.939   8.406
 3107SOL     OW20662   1.227   3.412   8.954
 3107SOL    HW120663   1.233   3.335   9.018
 3107SOL    HW220664   1.175   3.386   8.874
 3108SOL     OW20665   0.321   2.805   7.690
 3108SOL    HW120666   0.403   2.844   7.648
 3108SOL    HW220667   0.294   2.723   7.641
 3109SOL     OW20668   1.458   2.597   8.176
 3109SOL    HW120669   1.453   2.532   8.251
 3109SOL    HW220670   1.538   2.656   8.189
 3110SOL     OW20671   0.461   3.128   9.175
 3110SOL    HW120672   0.411   3.129   9.089
 3110SOL    HW220673   0.398   3.110   9.251
 3111SOL     OW20674   1.111   3.638   7.685
 3111SOL    HW120675   1.051   3.576   7.735
 3111SOL    HW220676   1.142   3.594   7.600
 3112SOL     OW20677   0.202   2.147   8.946
 3112SOL    HW120678   0.122   2.207   8.933
 3112SOL    HW220679   0.192   2.098   9.032
 3113SOL     OW20680   1.632   3.239   7.529
 3113SOL    HW120681   1.600   3.333   7.519
 3113SOL    HW220682   1.556   3.176   7.517
 3114SOL     OW20683   0.464   3.605   7.771
 3114SOL    HW120684   0.497   3.644   7.857
 3114SOL    HW220685   0.540   3.598   7.706
 3115SOL     OW20686   1.400   1.969   7.874
 3115SOL    HW120687   1.376   1.932   7.784
 3115SOL    HW220688   1.499   1.985   7.878
 3116SOL     OW20689   0.249   3.647   8.689
 3116SOL    HW120690   0.306   3.582   8.739
 3116SOL    HW220691   0.233   3.614   8.596
 3117SOL     OW20692   0.940   3.560   8.352
 3117SOL    HW120693   1.020   3.503   8.373
 3117SOL    HW220694   0.891   3.520   8.275
 3118SOL     OW20695   0.382   2.562   7.928
 3118SOL    HW120696   0.427   2.472   7.925
 3118SOL    HW220697   0.288   2.551   7.961
 3119SOL     OW20698   1.547   2.084   9.177
 3119SOL    HW120699   1.542   2.121   9.269
 3119SOL    HW220700   1.475   2.015   9.165
 3120SOL     OW20701   0.614   1.984   7.565
 3120SOL    HW120702   0.712   1.962   7.572
 3120SOL    HW220703   0.583   1.967   7.472
 3121SOL     OW20704   0.781   2.126   9.197
 3121SOL    HW120705   0.848   2.065   9.240
 3121SOL    HW220706   0.708   2.145   9.262
 3122SOL     OW20707   0.888   3.376   8.643
 3122SOL    HW120708   0.865   3.351   8.549
 3122SOL    HW220709   0.949   3.307   8.682
 3123SOL     OW20710   1.351   2.452   8.881
 3123SOL    HW120711   1.379   2.409   8.966
 3123SOL    HW220712   1.376   2.548   8.882
 3124SOL     OW20713   0.803   3.264   8.372
 3124SOL    HW120714   0.893   3.278   8.330
 3124SOL    HW220715   0.732   3.266   8.301
 3125SOL     OW20716   0.922   2.365   8.347
 3125SOL    HW120717   0.897   2.356   8.251
 3125SOL    HW220718   0.970   2.283   8.378
 3126SOL     OW20719   0.539   1.926   7.960
 3126SOL    HW120720   0.458   1.927   8.018
 3126SOL    HW220721   0.542   2.009   7.905
 3127SOL     OW20722   1.434   3.050   7.489
 3127SOL    HW120723   1.466   2.974   7.546
 3127SOL    HW220724   1.342   3.077   7.519
 3128SOL     OW20725   0.297   1.897   7.619
 3128SOL    HW120726   0.346   1.981   7.598
 3128SOL    HW220727   0.359   1.832   7.664
 3129SOL     OW20728   0.935   2.098   7.928
 3129SOL    HW120729   0.887   2.139   7.850
 3129SOL    HW220730   1.034   2.096   7.909
 3130SOL     OW20731   1.076   2.545   8.912
 3130SOL    HW120732   0.996   2.484   8.915
 3130SOL    HW220733   1.157   2.492   8.888
 3131SOL     OW20734   1.227   3.432   8.241
 3131SOL    HW120735   1.248   3.506   8.176
 3131SOL    HW220736   1.295   3.432   8.314
 3132SOL     OW20737   0.459   3.014   8.189
 3132SOL    HW120738   0.388   2.987   8.254
 3132SOL    HW220739   0.433   2.986   8.096
 3133SOL     OW20740   1.271   3.659   8.039
 3133SOL    HW120741   1.315   3.723   7.975
 3133SOL    HW220742   1.221   3.711   8.109
 3134SOL     OW20743   1.032   2.411   7.464
 3134SOL    HW120744   0.991   2.493   7.425
 3134SOL    HW220745   1.096   2.437   7.537
 3135SOL     OW20746   0.078   2.418   8.834
 3135SOL    HW120747   0.170   2.417   8.793
 3135SOL    HW220748   0.072   2.492   8.901
 3136SOL     OW20749   0.561   2.084   8.595
 3136SOL    HW120750   0.599   2.000   8.632
 3136SOL    HW220751   0.473   2.103   8.639
 3137SOL     OW20752   0.866   2.316   8.090
 3137SOL    HW120753   0.834   2.388   8.028
 3137SOL    HW220754   0.890   2.235   8.037
 3138SOL     OW20755   1.017   1.901   8.201
 3138SOL    HW120756   0.945   1.906   8.132
 3138SOL    HW220757   0.993   1.832   8.270
 3139SOL     OW20758   1.429   3.035   8.315
 3139SOL    HW120759   1.374   2.951   8.308
 3139SOL    HW220760   1.455   3.064   8.223
 3140SOL     OW20761   1.466   2.452   8.440
 3140SOL    HW120762   1.436   2.357   8.447
 3140SOL    HW220763   1.539   2.468   8.506
 3141SOL     OW20764   1.857   2.695   7.825
 3141SOL    HW120765   1.899   2.631   7.889
 3141SOL    HW220766   1.819   2.644   7.747
 3142SOL     OW20767   0.488   3.247   7.622
 3142SOL    HW120768   0.401   3.232   7.669
 3142SOL    HW220769   0.471   3.273   7.527
 3143SOL     OW20770   1.664   3.142   8.105
 3143SOL    HW120771   1.763   3.150   8.119
 3143SOL    HW220772   1.619   3.226   8.136
 3144SOL     OW20773   1.390   2.437   7.526
 3144SOL    HW120774   1.336   2.416   7.607
 3144SOL    HW220775   1.481   2.396   7.535
 3145SOL     OW20776   0.527   2.118   7.776
 3145SOL    HW120777   0.554   2.059   7.701
 3145SOL    HW220778   0.527   2.213   7.745
 3146SOL     OW20779   1.754   3.085   9.036
 3146SOL    HW120780   1.845   3.046   9.023
 3146SOL    HW220781   1.762   3.181   9.060
 3147SOL     OW20782   1.064   3.209   8.788
 3147SOL    HW120783   0.984   3.186   8.843
 3147SOL    HW220784   1.147   3.183   8.837
 3148SOL     OW20785   1.592   3.491   9.073
 3148SOL    HW120786   1.619   3.525   8.983
 3148SOL    HW220787   1.671   3.453   9.119
 3149SOL     OW20788   1.111   3.057   8.548
 3149SOL    HW120789   1.071   3.101   8.629
 3149SOL    HW220790   1.070   3.094   8.465
 3150SOL     OW20791   1.638   2.961   8.527
 3150SOL    HW120792   1.643   3.042   8.586
 3150SOL    HW220793   1.552   2.963   8.476
 3151SOL     OW20794   0.915   1.951   8.850
 3151SOL    HW120795   0.940   1.931   8.755
 3151SOL    HW220796   0.987   2.007   8.892
 3152SOL     OW20797   0.980   2.978   9.167
 3152SOL    HW120798   0.881   2.984   9.177
 3152SOL    HW220799   1.003   2.898   9.111
 3153SOL     OW20800   0.705   2.912   7.816
 3153SOL    HW120801   0.691   2.919   7.915
 3153SOL    HW220802   0.789   2.861   7.798
 3154SOL     OW20803   0.410   2.675   8.699
 3154SOL    HW120804   0.496   2.687   8.749
 3154SOL    HW220805   0.368   2.588   8.726
 3155SOL     OW20806   1.274   2.248   8.710
 3155SOL    HW120807   1.295   2.322   8.774
 3155SOL    HW220808   1.185   2.265   8.667
 3156SOL     OW20809   0.064   3.426   8.779
 3156SOL    HW120810   0.018   3.508   8.745
 3156SOL    HW220811   0.162   3.445   8.788
 3157SOL     OW20812   0.367   2.962   7.949
 3157SOL    HW120813   0.360   3.045   7.893
 3157SOL    HW220814   0.371   2.882   7.889
 3158SOL     OW20815   0.566   2.399   8.313
 3158SOL    HW120816   0.578   2.465   8.239
 3158SOL    HW220817   0.612   2.433   8.396
 3159SOL     OW20818   1.252   3.210   7.836
 3159SOL    HW120819   1.302   3.287   7.876
 3159SOL    HW220820   1.157   3.212   7.868
 3160SOL     OW20821   1.272   3.307   8.590
 3160SOL    HW120822   1.319   3.320   8.677
 3160SOL    HW220823   1.206   3.233   8.599
 3161SOL     OW20824   1.582   2.501   7.920
 3161SOL    HW120825   1.551   2.562   7.993
 3161SOL    HW220826   1.632   2.553   7.851
 3162SOL     OW20827   0.354   3.372   8.777
 3162SOL    HW120828   0.333   3.328   8.690
 3162SOL    HW220829   0.451   3.398   8.780
 3163SOL     OW20830   0.402   2.613   9.046
 3163SOL    HW120831   0.470   2.668   8.999
 3163SOL    HW220832   0.442   2.525   9.073
 3164SOL     OW20833   1.587   2.641   9.118
 3164SOL    HW120834   1.495   2.679   9.113
 3164SOL    HW220835   1.647   2.688   9.053
 3165SOL     OW20836   1.013   1.967   9.218
 3165SOL    HW120837   1.019   2.052   9.166
 3165SOL    HW220838   1.045   1.891   9.161
 3166SOL     OW20839   0.504   1.912   9.188
 3166SOL    HW120840   0.462   1.855   9.118
 3166SOL    HW220841   0.438   1.981   9.220
 3167SOL     OW20842   0.573   2.732   8.477
 3167SOL    HW120843   0.617   2.821   8.468
 3167SOL    HW220844   0.510   2.732   8.554
 3168SOL     OW20845   1.360   2.724   8.493
 3168SOL    HW120846   1.285   2.724   8.427
 3168SOL    HW220847   1.397   2.632   8.502
 3169SOL     OW20848   1.209   2.387   7.723
 3169SOL    HW120849   1.222   2.303   7.777
 3169SOL    HW220850   1.180   2.461   7.783
 3170SOL     OW20851   0.307   2.075   8.679
 3170SOL    HW120852   0.284   2.112   8.769
 3170SOL    HW220853   0.277   1.980   8.673
 3171SOL     OW20854   0.037   3.172   8.730
 3171SOL    HW120855   0.090   3.123   8.798
 3171SOL    HW220856   0.059   3.270   8.735
 3172SOL     OW20857   0.732   2.496   8.512
 3172SOL    HW120858   0.791   2.470   8.436
 3172SOL    HW220859   0.704   2.592   8.501
 3173SOL     OW20860   1.728   2.797   9.302
 3173SOL    HW120861   1.682   2.790   9.213
 3173SOL    HW220862   1.666   2.841   9.368
 3174SOL     OW20863   0.307   1.925   8.066
 3174SOL    HW120864   0.296   2.019   8.099
 3174SOL    HW220865   0.302   1.862   8.143
 3175SOL     OW20866   1.622   2.229   7.822
 3175SOL    HW120867   1.624   2.153   7.886
 3175SOL    HW220868   1.574   2.306   7.862
 3176SOL     OW20869   1.023   2.628   8.414
 3176SOL    HW120870   1.038   2.649   8.510
 3176SOL    HW220871   0.993   2.533   8.405
 3177SOL     OW20872   0.980   3.435   9.148
 3177SOL    HW120873   0.960   3.479   9.060
 3177SOL    HW220874   1.019   3.344   9.132
 3178SOL     OW20875   0.350   2.760   9.252
 3178SOL    HW120876   0.426   2.804   9.300
 3178SOL    HW220877   0.385   2.713   9.170
 3179SOL     OW20878   1.540   2.136   7.573
 3179SOL    HW120879   1.479   2.061   7.596
 3179SOL    HW220880   1.562   2.188   7.656
 3180SOL     OW20881   1.303   2.700   7.490
 3180SOL    HW120882   1.337   2.607   7.505
 3180SOL    HW220883   1.321   2.727   7.395
 3181SOL     OW20884   1.068   3.195   8.297
 3181SOL    HW120885   1.075   3.111   8.242
 3181SOL    HW220886   1.130   3.264   8.261
 3182SOL     OW20887   0.319   2.672   8.397
 3182SOL    HW120888   0.412   2.708   8.402
 3182SOL    HW220889   0.313   2.587   8.449
 3183SOL     OW20890   0.339   2.371   8.454
 3183SOL    HW120891   0.287   2.288   8.437
 3183SOL    HW220892   0.416   2.376   8.390
 3184SOL     OW20893   1.138   2.242   9.126
 3184SOL    HW120894   1.093   2.305   9.190
 3184SOL    HW220895   1.231   2.273   9.109
 3185SOL     OW20896   1.160   2.069   8.925
 3185SOL    HW120897   1.160   2.133   9.002
 3185SOL    HW220898   1.188   2.117   8.842
 3186SOL     OW20899   0.008   3.188   7.648
 3186SOL    HW120900  -0.085   3.209   7.617
 3186SOL    HW220901   0.018   3.089   7.661
 3187SOL     OW20902   0.088   3.663   8.375
 3187SOL    HW120903   0.046   3.577   8.348
 3187SOL    HW220904   0.182   3.666   8.341
 3188SOL     OW20905   0.504   3.430   8.358
 3188SOL    HW120906   0.570   3.504   8.367
 3188SOL    HW220907   0.548   3.351   8.316
 3189SOL     OW20908   1.002   2.658   8.686
 3189SOL    HW120909   1.043   2.626   8.772
 3189SOL    HW220910   0.906   2.631   8.683
 3190SOL     OW20911   0.040   2.406   8.562
 3190SOL    HW120912   0.125   2.373   8.521
 3190SOL    HW220913   0.053   2.421   8.660
 3191SOL     OW20914   0.189   2.382   9.170
 3191SOL    HW120915   0.248   2.342   9.100
 3191SOL    HW220916   0.131   2.453   9.129
 3192SOL     OW20917   1.369   2.812   9.108
 3192SOL    HW120918   1.408   2.901   9.128
 3192SOL    HW220919   1.379   2.792   9.011
 3193SOL     OW20920   0.815   2.434   7.773
 3193SOL    HW120921   0.822   2.345   7.727
 3193SOL    HW220922   0.721   2.468   7.765
 3194SOL     OW20923   1.657   2.466   8.654
 3194SOL    HW120924   1.619   2.397   8.716
 3194SOL    HW220925   1.739   2.430   8.610
 3195SOL     OW20926   0.252   3.426   9.192
 3195SOL    HW120927   0.222   3.483   9.268
 3195SOL    HW220928   0.245   3.329   9.218
 3196SOL     OW20929   0.671   2.326   8.717
 3196SOL    HW120930   0.637   2.237   8.687
 3196SOL    HW220931   0.697   2.380   8.637
 3197SOL     OW20932   0.930   3.540   8.913
 3197SOL    HW120933   0.906   3.522   8.818
 3197SOL    HW220934   0.960   3.634   8.923
 3198SOL     OW20935   0.473   2.362   7.639
 3198SOL    HW120936   0.534   2.442   7.643
 3198SOL    HW220937   0.378   2.393   7.646
 3199SOL     OW20938   0.159   2.999   8.914
 3199SOL    HW120939   0.181   2.938   8.990
 3199SOL    HW220940   0.169   2.950   8.828
 3200SOL     OW20941   1.347   2.921   8.682
 3200SOL    HW120942   1.371   2.858   8.608
 3200SOL    HW220943   1.257   2.961   8.664
 3201SOL     OW20944   1.302   2.717   7.757
 3201SOL    HW120945   1.216   2.686   7.799
 3201SOL    HW220946   1.298   2.703   7.658
 3202SOL     OW20947   1.759   3.609   8.602
 3202SOL    HW120948   1.820   3.639   8.529
 3202SOL    HW220949   1.721   3.520   8.580
 3203SOL     OW20950   1.252   3.593   8.576
 3203SOL    HW120951   1.336   3.598   8.522
 3203SOL    HW220952   1.229   3.497   8.594
 3204SOL     OW20953   0.083   3.120   8.470
 3204SOL    HW120954   0.078   3.119   8.570
 3204SOL    HW220955   0.000   3.079   8.432
 3205SOL     OW20956   0.688   3.524   9.164
 3205SOL    HW120957   0.632   3.605   9.173
 3205SOL    HW220958   0.740   3.528   9.078
 3206SOL     OW20959   1.726   1.997   7.971
 3206SOL    HW120960   1.799   1.980   7.904
 3206SOL    HW220961   1.695   1.910   8.009
 3207SOL     OW20962   1.388   3.435   7.925
 3207SOL    HW120963   1.455   3.447   7.851
 3207SOL    HW220964   1.348   3.524   7.948
 3208SOL     OW20965   0.130   3.656   9.299
 3208SOL    HW120966   0.089   3.582   9.352
 3208SOL    HW220967   0.194   3.707   9.357
 3209SOL     OW20968   1.280   2.789   8.120
 3209SOL    HW120969   1.340   2.708   8.122
 3209SOL    HW220970   1.320   2.858   8.060
 3210SOL     OW20971   0.830   3.135   8.870
 3210SOL    HW120972   0.825   3.168   8.965
 3210SOL    HW220973   0.744   3.154   8.824
 3211SOL     OW20974   0.672   3.478   7.602
 3211SOL    HW120975   0.681   3.488   7.503
 3211SOL    HW220976   0.632   3.389   7.623
 3212SOL     OW20977   1.650   3.582   8.842
 3212SOL    HW120978   1.703   3.592   8.758
 3212SOL    HW220979   1.623   3.672   8.876
 3213SOL     OW20980   1.841   2.037   8.411
 3213SOL    HW120981   1.880   1.952   8.375
 3213SOL    HW220982   1.743   2.039   8.392
 3214SOL     OW20983   0.263   2.188   8.168
 3214SOL    HW120984   0.184   2.239   8.134
 3214SOL    HW220985   0.254   2.173   8.266
 3215SOL     OW20986   1.194   3.474   7.479
 3215SOL    HW120987   1.200   3.381   7.516
 3215SOL    HW220988   1.135   3.474   7.399
 3216SOL     OW20989   0.822   2.864   8.820
 3216SOL    HW120990   0.862   2.863   8.728
 3216SOL    HW220991   0.832   2.956   8.860
 3217SOL     OW20992   0.916   2.772   7.739
 3217SOL    HW120993   0.979   2.810   7.671
 3217SOL    HW220994   0.956   2.689   7.778
 3218SOL     OW20995   1.504   3.469   7.492
 3218SOL    HW120996   1.412   3.506   7.499
 3218SOL    HW220997   1.542   3.489   7.402
 3219SOL     OW20998   0.372   3.150   8.938
 3219SOL    HW120999   0.359   3.243   8.904
 3219SOL    HW221000   0.288   3.098   8.925
 3220SOL     OW21001   1.614   3.154   8.737
 3220SOL    HW121002   1.674   3.157   8.817
 3220SOL    HW221003   1.539   3.218   8.750
 3221SOL     OW21004   1.039   2.960   8.144
 3221SOL    HW121005   0.969   2.913   8.198
 3221SOL    HW221006   1.098   2.892   8.101
 3222SOL     OW21007   1.014   2.098   8.419
 3222SOL    HW121008   1.006   2.062   8.326
 3222SOL    HW221009   1.012   2.022   8.484
 3223SOL     OW21010   0.590   3.349   7.939
 3223SOL    HW121011   0.632   3.291   7.869
 3223SOL    HW221012   0.546   3.428   7.895
 3224SOL     OW21013   1.709   2.247   8.829
 3224SOL    HW121014   1.782   2.316   8.833
 3224SOL    HW221015   1.737   2.172   8.770
 3225SOL     OW21016   0.255   3.210   7.738
 3225SOL    HW121017   0.159   3.211   7.711
 3225SOL    HW221018   0.267   3.263   7.822
 3226SOL     OW21019   0.105   2.875   9.174
 3226SOL    HW121020   0.028   2.842   9.228
 3226SOL    HW221021   0.190   2.845   9.216
 3227SOL     OW21022   0.672   2.065   8.937
 3227SOL    HW121023   0.762   2.049   8.897
 3227SOL    HW221024   0.680   2.070   9.036
 3228SOL     OW21025   0.075   2.207   7.481
 3228SOL    HW121026  -0.017   2.179   7.452
 3228SOL    HW221027   0.106   2.284   7.425
 3229SOL     OW21028   1.440   2.718   8.846
 3229SOL    HW121029   1.383   2.770   8.783
 3229SOL    HW221030   1.536   2.730   8.822
 3230SOL     OW21031   0.072   2.028   7.766
 3230SOL    HW121032   0.055   2.111   7.712
 3230SOL    HW221033   0.162   1.991   7.744
 3231SOL     OW21034   1.183   3.197   7.567
 3231SOL    HW121035   1.084   3.186   7.569
 3231SOL    HW221036   1.217   3.212   7.660
 3232SOL     OW21037   0.613   2.704   8.879
 3232SOL    HW121038   0.669   2.785   8.862
 3232SOL    HW221039   0.672   2.624   8.882
 3233SOL     OW21040   1.493   3.629   8.407
 3233SOL    HW121041   1.526   3.693   8.338
 3233SOL    HW221042   1.559   3.623   8.482
 3234SOL     OW21043   0.716   2.427   9.156
 3234SOL    HW121044   0.735   2.492   9.230
 3234SOL    HW221045   0.776   2.347   9.165
 3235SOL     OW21046   1.450   3.082   9.081
 3235SOL    HW121047   1.441   3.072   9.180
 3235SOL    HW221048   1.546   3.075   9.055
 3236SOL     OW21049   0.390   3.603   9.008
 3236SOL    HW121050   0.299   3.644   9.006
 3236SOL    HW221051   0.383   3.509   9.040
 3237SOL     OW21052   1.674   2.745   8.702
 3237SOL    HW121053   1.647   2.656   8.665
 3237SOL    HW221054   1.675   2.813   8.629
 3238SOL     OW21055   1.225   2.187   7.897
 3238SOL    HW121056   1.290   2.113   7.886
 3238SOL    HW221057   1.245   2.237   7.981
 3239SOL     OW21058   0.594   2.607   8.100
 3239SOL    HW121059   0.644   2.692   8.081
 3239SOL    HW221060   0.506   2.609   8.052
 3240SOL     OW21061   1.777   2.204   9.090
 3240SOL    HW121062   1.760   2.235   8.996
 3240SOL    HW221063   1.693   2.167   9.128
 3241SOL     OW21064   1.730   2.796   8.965
 3241SOL    HW121065   1.768   2.887   8.980
 3241SOL    HW221066   1.722   2.779   8.866
 3242SOL     OW21067   0.859   3.236   7.464
 3242SOL    HW121068   0.813   3.251   7.552
 3242SOL    HW221069   0.903   3.321   7.434
 3243SOL     OW21070   0.661   3.652   8.401
 3243SOL    HW121071   0.615   3.740   8.388
 3243SOL    HW221072   0.760   3.664   8.394
 3244SOL     OW21073   0.859   2.818   8.309
 3244SOL    HW121074   0.913   2.749   8.357
 3244SOL    HW221075   0.827   2.887   8.375
 3245SOL     OW21076   1.083   2.846   7.535
 3245SOL    HW121077   1.060   2.899   7.453
 3245SOL    HW221078   1.164   2.790   7.516
 3246SOL     OW21079   1.861   3.431   8.299
 3246SOL    HW121080   1.790   3.419   8.229
 3246SOL    HW221081   1.862   3.352   8.359
 3247SOL     OW21082   0.221   3.176   9.292
 3247SOL    HW121083   0.156   3.103   9.271
 3247SOL    HW221084   0.225   3.190   9.390
 3248SOL     OW21085   0.079   3.102   8.101
 3248SOL    HW121086   0.078   3.055   8.189
 3248SOL    HW221087   0.161   3.074   8.050
 3249SOL     OW21088   0.672   3.253   9.072
 3249SOL    HW121089   0.594   3.203   9.110
 3249SOL    HW221090   0.669   3.348   9.103
 3250SOL     OW21091   1.824   2.054   8.675
 3250SOL    HW121092   1.820   1.964   8.719
 3250SOL    HW221093   1.827   2.043   8.576
 3251SOL     OW21094   0.428   2.286   7.968
 3251SOL    HW121095   0.458   2.214   7.906
 3251SOL    HW221096   0.389   2.246   8.051
 3252SOL     OW21097   1.705   3.349   8.552
 3252SOL    HW121098   1.612   3.324   8.525
 3252SOL    HW221099   1.731   3.299   8.634
 3253SOL     OW21100   0.317   2.409   8.728
 3253SOL    HW121101   0.355   2.350   8.800
 3253SOL    HW221102   0.357   2.383   8.640
 3254SOL     OW21103   0.812   3.448   8.135
 3254SOL    HW121104   0.844   3.458   8.041
 3254SOL    HW221105   0.733   3.386   8.137
 3255SOL     OW21106   1.424   2.076   8.560
 3255SOL    HW121107   1.476   2.011   8.615
 3255SOL    HW221108   1.375   2.139   8.621
 3256SOL     OW21109   1.001   1.896   8.602
 3256SOL    HW121110   0.938   1.824   8.571
 3256SOL    HW221111   1.094   1.860   8.602
 3257SOL     OW21112   0.770   3.192   7.749
 3257SOL    HW121113   0.724   3.105   7.766
 3257SOL    HW221114   0.861   3.189   7.790
 3258SOL     OW21115   0.618   3.429   8.732
 3258SOL    HW121116   0.613   3.511   8.789
 3258SOL    HW221117   0.707   3.426   8.687
 3259SOL     OW21118   1.352   1.914   7.616
 3259SOL    HW121119   1.387   1.873   7.532
 3259SOL    HW221120   1.262   1.876   7.636
 3260SOL     OW21121   1.300   2.315   8.139
 3260SOL    HW121122   1.241   2.395   8.143
 3260SOL    HW221123   1.315   2.280   8.232
 3261SOL     OW21124   1.593   2.083   8.330
 3261SOL    HW121125   1.509   2.082   8.384
 3261SOL    HW221126   1.595   2.166   8.274
 3262SOL     OW21127   0.039   2.939   7.748
 3262SOL    HW121128   0.138   2.928   7.739
 3262SOL    HW221129  -0.001   2.853   7.780
 3263SOL     OW21130   0.875   3.508   7.785
 3263SOL    HW121131   0.798   3.473   7.731
 3263SOL    HW221132   0.843   3.579   7.847
 3264SOL     OW21133   0.230   2.490   9.423
 3264SOL    HW121134   0.137   2.488   9.460
 3264SOL    HW221135   0.231   2.451   9.331
 3265SOL     OW21136   0.225   2.137  10.306
 3265SOL    HW121137   0.260   2.120  10.398
 3265SOL    HW221138   0.137   2.092  10.294
 3266SOL     OW21139   0.019   2.230   9.957
 3266SOL    HW121140  -0.063   2.273   9.996
 3266SOL    HW221141  -0.009   2.157   9.894
 3267SOL     OW21142   0.569   3.137  10.475
 3267SOL    HW121143   0.476   3.130  10.438
 3267SOL    HW221144   0.580   3.226  10.519
 3268SOL     OW21145   1.555   3.373  10.013
 3268SOL    HW121146   1.498   3.357  10.094
 3268SOL    HW221147   1.496   3.383   9.933
 3269SOL     OW21148   1.135   2.565  10.027
 3269SOL    HW121149   1.192   2.643  10.002
 3269SOL    HW221150   1.075   2.591  10.103
 3270SOL     OW21151   0.620   3.648  10.749
 3270SOL    HW121152   0.528   3.631  10.784
 3270SOL    HW221153   0.648   3.740  10.775
 3271SOL     OW21154   0.606   2.826   9.433
 3271SOL    HW121155   0.613   2.910   9.379
 3271SOL    HW221156   0.652   2.839   9.521
 3272SOL     OW21157   1.594   1.976  10.790
 3272SOL    HW121158   1.576   2.043  10.718
 3272SOL    HW221159   1.591   2.022  10.879
 3273SOL     OW21160   0.122   2.505   9.873
 3273SOL    HW121161   0.077   2.417   9.890
 3273SOL    HW221162   0.121   2.559   9.957
 3274SOL     OW21163   0.027   3.458   9.427
 3274SOL    HW121164   0.008   3.362   9.448
 3274SOL    HW221165  -0.006   3.516   9.502
 3275SOL     OW21166   0.809   1.866   9.812
 3275SOL    HW121167   0.849   1.957   9.803
 3275SOL    HW221168   0.709   1.874   9.818
 3276SOL     OW21169   0.317   2.113  11.111
 3276SOL    HW121170   0.388   2.184  11.117
 3276SOL    HW221171   0.229   2.152  11.139
 3277SOL     OW21172   1.466   3.279  10.263
 3277SOL    HW121173   1.407   3.285  10.343
 3277SOL    HW221174   1.451   3.191  10.217
 3278SOL     OW21175   1.667   3.576   9.882
 3278SOL    HW121176   1.626   3.553   9.794
 3278SOL    HW221177   1.649   3.502   9.947
 3279SOL     OW21178   0.598   2.591   9.580
 3279SOL    HW121179   0.622   2.660   9.512
 3279SOL    HW221180   0.520   2.624   9.634
 3280SOL     OW21181   1.281   2.207  10.254
 3280SOL    HW121182   1.195   2.157  10.241
 3280SOL    HW221183   1.343   2.153  10.310
 3281SOL     OW21184   1.576   3.524   9.617
 3281SOL    HW121185   1.665   3.570   9.620
 3281SOL    HW221186   1.555   3.500   9.522
 3282SOL     OW21187   1.394   2.331  10.984
 3282SOL    HW121188   1.374   2.374  11.072
 3282SOL    HW221189   1.472   2.269  10.993
 3283SOL     OW21190   1.041   2.563   9.739
 3283SOL    HW121191   1.067   2.559   9.835
 3283SOL    HW221192   0.956   2.512   9.725
 3284SOL     OW21193   0.865   2.210   9.505
 3284SOL    HW121194   0.924   2.273   9.456
 3284SOL    HW221195   0.884   2.116   9.476
 3285SOL     OW21196   1.719   2.447  11.141
 3285SOL    HW121197   1.693   2.536  11.105
 3285SOL    HW221198   1.717   2.379  11.068
 3286SOL     OW21199   0.550   2.058  10.195
 3286SOL    HW121200   0.545   2.053  10.295
 3286SOL    HW221201   0.552   2.154  10.166
 3287SOL     OW21202   0.351   3.663  10.163
 3287SOL    HW121203   0.401   3.577  10.169
 3287SOL    HW221204   0.416   3.740  10.160
 3288SOL     OW21205   0.321   2.805   9.552
 3288SOL    HW121206   0.403   2.844   9.510
 3288SOL    HW221207   0.294   2.723   9.503
 3289SOL     OW21208   1.111   3.638   9.547
 3289SOL    HW121209   1.051   3.576   9.597
 3289SOL    HW221210   1.142   3.594   9.462
 3290SOL     OW21211   1.400   1.969   9.736
 3290SOL    HW121212   1.376   1.932   9.646
 3290SOL    HW221213   1.499   1.985   9.740
 3291SOL     OW21214   0.940   3.560  10.214
 3291SOL    HW121215   1.020   3.503  10.235
 3291SOL    HW221216   0.891   3.520  10.137
 3292SOL     OW21217   1.547   2.084  11.039
 3292SOL    HW121218   1.542   2.121  11.131
 3292SOL    HW221219   1.475   2.015  11.027
 3293SOL     OW21220   0.614   1.984   9.427
 3293SOL    HW121221   0.712   1.962   9.434
 3293SOL    HW221222   0.583   1.967   9.334
 3294SOL     OW21223   0.539   1.926   9.822
 3294SOL    HW121224   0.458   1.927   9.880
 3294SOL    HW221225   0.542   2.009   9.767
 3295SOL     OW21226   1.434   3.050   9.351
 3295SOL    HW121227   1.466   2.974   9.408
 3295SOL    HW221228   1.342   3.077   9.381
 3296SOL     OW21229   0.297   1.897   9.481
 3296SOL    HW121230   0.346   1.981   9.460
 3296SOL    HW221231   0.359   1.832   9.526
 3297SOL     OW21232   0.935   2.098   9.790
 3297SOL    HW121233   0.887   2.139   9.712
 3297SOL    HW221234   1.034   2.096   9.771
 3298SOL     OW21235   1.076   2.545  10.774
 3298SOL    HW121236   0.996   2.484  10.777
 3298SOL    HW221237   1.157   2.492  10.750
 3299SOL     OW21238   1.227   3.432  10.103
 3299SOL    HW121239   1.248   3.506  10.038
 3299SOL    HW221240   1.295   3.432  10.176
 3300SOL     OW21241   1.271   3.659   9.901
 3300SOL    HW121242   1.315   3.723   9.837
 3300SOL    HW221243   1.221   3.711   9.971
 3301SOL     OW21244   1.032   2.411   9.326
 3301SOL    HW121245   0.991   2.493   9.287
 3301SOL    HW221246   1.096   2.437   9.399
 3302SOL     OW21247   0.866   2.316   9.952
 3302SOL    HW121248   0.834   2.388   9.890
 3302SOL    HW221249   0.890   2.235   9.899
 3303SOL     OW21250   1.017   1.901  10.063
 3303SOL    HW121251   0.945   1.906   9.994
 3303SOL    HW221252   0.993   1.832  10.132
 3304SOL     OW21253   0.488   3.247   9.484
 3304SOL    HW121254   0.401   3.232   9.531
 3304SOL    HW221255   0.471   3.273   9.389
 3305SOL     OW21256   1.754   3.085  10.898
 3305SOL    HW121257   1.845   3.046  10.885
 3305SOL    HW221258   1.762   3.181  10.922
 3306SOL     OW21259   1.638   2.961  10.389
 3306SOL    HW121260   1.643   3.042  10.448
 3306SOL    HW221261   1.552   2.963  10.338
 3307SOL     OW21262   0.705   2.912   9.678
 3307SOL    HW121263   0.691   2.919   9.777
 3307SOL    HW221264   0.789   2.861   9.660
 3308SOL     OW21265   1.274   2.248  10.572
 3308SOL    HW121266   1.295   2.322  10.636
 3308SOL    HW221267   1.185   2.265  10.529
 3309SOL     OW21268   1.252   3.210   9.698
 3309SOL    HW121269   1.302   3.287   9.738
 3309SOL    HW221270   1.157   3.212   9.730
 3310SOL     OW21271   1.360   2.724  10.355
 3310SOL    HW121272   1.285   2.724  10.289
 3310SOL    HW221273   1.397   2.632  10.364
 3311SOL     OW21274   1.209   2.387   9.585
 3311SOL    HW121275   1.222   2.303   9.639
 3311SOL    HW221276   1.180   2.461   9.645
 3312SOL     OW21277   0.037   3.172  10.592
 3312SOL    HW121278   0.090   3.123  10.660
 3312SOL    HW221279   0.059   3.270  10.597
 3313SOL     OW21280   0.307   1.925   9.928
 3313SOL    HW121281   0.296   2.019   9.961
 3313SOL    HW221282   0.302   1.862  10.005
 3314SOL     OW21283   1.303   2.700   9.352
 3314SOL    HW121284   1.337   2.607   9.367
 3314SOL    HW221285   1.321   2.727   9.257
 3315SOL     OW21286   1.138   2.242  10.988
 3315SOL    HW121287   1.093   2.305  11.052
 3315SOL    HW221288   1.231   2.273  10.971
 3316SOL     OW21289   1.160   2.069  10.787
 3316SOL    HW121290   1.160   2.133  10.864
 3316SOL    HW221291   1.188   2.117  10.704
 3317SOL     OW21292   0.008   3.188   9.510
 3317SOL    HW121293  -0.085   3.209   9.479
 3317SOL    HW221294   0.018   3.089   9.523
 3318SOL     OW21295   0.088   3.663  10.237
 3318SOL    HW121296   0.046   3.577  10.210
 3318SOL    HW221297   0.182   3.666  10.203
 3319SOL     OW21298   0.189   2.382  11.032
 3319SOL    HW121299   0.248   2.342  10.962
 3319SOL    HW221300   0.131   2.453  10.991
 3320SOL     OW21301   0.815   2.434   9.635
 3320SOL    HW121302   0.822   2.345   9.589
 3320SOL    HW221303   0.721   2.468   9.627
 3321SOL     OW21304   1.302   2.717   9.619
 3321SOL    HW121305   1.216   2.686   9.661
 3321SOL    HW221306   1.298   2.703   9.520
 3322SOL     OW21307   0.688   3.524  11.026
 3322SOL    HW121308   0.632   3.605  11.035
 3322SOL    HW221309   0.740   3.528  10.940
 3323SOL     OW21310   1.726   1.997   9.833
 3323SOL    HW121311   1.799   1.980   9.766
 3323SOL    HW221312   1.695   1.910   9.871
 3324SOL     OW21313   1.388   3.435   9.787
 3324SOL    HW121314   1.455   3.447   9.713
 3324SOL    HW221315   1.348   3.524   9.810
 3325SOL     OW21316   0.672   3.478   9.464
 3325SOL    HW121317   0.681   3.488   9.365
 3325SOL    HW221318   0.632   3.389   9.485
 3326SOL     OW21319   0.263   2.188  10.030
 3326SOL    HW121320   0.184   2.239   9.996
 3326SOL    HW221321   0.254   2.173  10.128
 3327SOL     OW21322   1.194   3.474   9.341
 3327SOL    HW121323   1.200   3.381   9.378
 3327SOL    HW221324   1.135   3.474   9.261
 3328SOL     OW21325   0.822   2.864  10.682
 3328SOL    HW121326   0.862   2.863  10.590
 3328SOL    HW221327   0.832   2.956  10.722
 3329SOL     OW21328   0.916   2.772   9.601
 3329SOL    HW121329   0.979   2.810   9.533
 3329SOL    HW221330   0.956   2.689   9.640
 3330SOL     OW21331   1.504   3.469   9.354
 3330SOL    HW121332   1.412   3.506   9.361
 3330SOL    HW221333   1.542   3.489   9.264
 3331SOL     OW21334   1.039   2.960  10.006
 3331SOL    HW121335   0.969   2.913  10.060
 3331SOL    HW221336   1.098   2.892   9.963
 3332SOL     OW21337   1.709   2.247  10.691
 3332SOL    HW121338   1.782   2.316  10.695
 3332SOL    HW221339   1.737   2.172  10.632
 3333SOL     OW21340   0.255   3.210   9.600
 3333SOL    HW121341   0.159   3.211   9.573
 3333SOL    HW221342   0.267   3.263   9.684
 3334SOL     OW21343   0.105   2.875  11.036
 3334SOL    HW121344   0.028   2.842  11.090
 3334SOL    HW221345   0.190   2.845  11.078
 3335SOL     OW21346   0.075   2.207   9.343
 3335SOL    HW121347  -0.017   2.179   9.314
 3335SOL    HW221348   0.106   2.284   9.287
 3336SOL     OW21349   1.440   2.718  10.708
 3336SOL    HW121350   1.383   2.770  10.645
 3336SOL    HW221351   1.536   2.730  10.684
 3337SOL     OW21352   0.072   2.028   9.628
 3337SOL    HW121353   0.055   2.111   9.574
 3337SOL    HW221354   0.162   1.991   9.606
 3338SOL     OW21355   1.183   3.197   9.429
 3338SOL    HW121356   1.084   3.186   9.431
 3338SOL    HW221357   1.217   3.212   9.522
 3339SOL     OW21358   0.390   3.603  10.870
 3339SOL    HW121359   0.299   3.644  10.868
 3339SOL    HW221360   0.383   3.509  10.902
 3340SOL     OW21361   1.674   2.745  10.564
 3340SOL    HW121362   1.647   2.656  10.527
 3340SOL    HW221363   1.675   2.813  10.491
 3341SOL     OW21364   1.225   2.187   9.759
 3341SOL    HW121365   1.290   2.113   9.748
 3341SOL    HW221366   1.245   2.237   9.843
 3342SOL     OW21367   1.777   2.204  10.952
 3342SOL    HW121368   1.760   2.235  10.858
 3342SOL    HW221369   1.693   2.167  10.990
 3343SOL     OW21370   1.730   2.796  10.827
 3343SOL    HW121371   1.768   2.887  10.842
 3343SOL    HW221372   1.722   2.779  10.728
 3344SOL     OW21373   0.859   3.236   9.326
 3344SOL    HW121374   0.813   3.251   9.414
 3344SOL    HW221375   0.903   3.321   9.296
 3345SOL     OW21376   1.083   2.846   9.397
 3345SOL    HW121377   1.060   2.899   9.315
 3345SOL    HW221378   1.164   2.790   9.378
 3346SOL     OW21379   0.428   2.286   9.830
 3346SOL    HW121380   0.458   2.214   9.768
 3346SOL    HW221381   0.389   2.246   9.913
 3347SOL     OW21382   0.770   3.192   9.611
 3347SOL    HW121383   0.724   3.105   9.628
 3347SOL    HW221384   0.861   3.189   9.652
 3348SOL     OW21385   0.618   3.429  10.594
 3348SOL    HW121386   0.613   3.511  10.651
 3348SOL    HW221387   0.707   3.426  10.549
 3349SOL     OW21388   1.352   1.914   9.478
 3349SOL    HW121389   1.387   1.873   9.394
 3349SOL    HW221390   1.262   1.876   9.498
 3350SOL     OW21391   1.300   2.315  10.001
 3350SOL    HW121392   1.241   2.395  10.005
 3350SOL    HW221393   1.315   2.280  10.094
 3351SOL     OW21394   0.039   2.939   9.610
 3351SOL    HW121395   0.138   2.928   9.601
 3351SOL    HW221396  -0.001   2.853   9.642
 3352SOL     OW21397   0.225   2.137  12.168
 3352SOL    HW121398   0.260   2.120  12.260
 3352SOL    HW221399   0.137   2.092  12.156
 3353SOL     OW21400   0.569   3.137  12.337
 3353SOL    HW121401   0.476   3.130  12.300
 3353SOL    HW221402   0.580   3.226  12.381
 3354SOL     OW21403   0.685   2.874  11.837
 3354SOL    HW121404   0.754   2.858  11.907
 3354SOL    HW221405   0.612   2.931  11.875
 3355SOL     OW21406   0.686   3.023  12.975
 3355SOL    HW121407   0.746   3.102  12.989
 3355SOL    HW221408   0.600   3.054  12.934
 3356SOL     OW21409   0.335   3.297  12.233
 3356SOL    HW121410   0.257   3.266  12.180
 3356SOL    HW221411   0.393   3.355  12.176
 3357SOL     OW21412   1.460   3.367  12.511
 3357SOL    HW121413   1.484   3.461  12.537
 3357SOL    HW221414   1.444   3.313  12.593
 3358SOL     OW21415   0.438   2.254  12.671
 3358SOL    HW121416   0.520   2.198  12.680
 3358SOL    HW221417   0.357   2.196  12.675
 3359SOL     OW21418   1.603   2.309  11.909
 3359SOL    HW121419   1.529   2.355  11.859
 3359SOL    HW221420   1.654   2.377  11.962
 3360SOL     OW21421   0.620   3.648  12.611
 3360SOL    HW121422   0.528   3.631  12.646
 3360SOL    HW221423   0.648   3.740  12.637
 3361SOL     OW21424   1.842   3.629  11.531
 3361SOL    HW121425   1.896   3.600  11.611
 3361SOL    HW221426   1.872   3.719  11.502
 3362SOL     OW21427   1.689   2.784  11.784
 3362SOL    HW121428   1.784   2.755  11.792
 3362SOL    HW221429   1.681   2.849  11.709
 3363SOL     OW21430   0.613   3.227  11.898
 3363SOL    HW121431   0.564   3.140  11.907
 3363SOL    HW221432   0.590   3.270  11.811
 3364SOL     OW21433   1.293   3.090  12.595
 3364SOL    HW121434   1.330   3.017  12.537
 3364SOL    HW221435   1.345   3.095  12.680
 3365SOL     OW21436   0.809   1.866  11.674
 3365SOL    HW121437   0.849   1.957  11.665
 3365SOL    HW221438   0.709   1.874  11.680
 3366SOL     OW21439   0.317   2.113  12.973
 3366SOL    HW121440   0.388   2.184  12.979
 3366SOL    HW221441   0.229   2.152  13.001
 3367SOL     OW21442   1.667   3.576  11.744
 3367SOL    HW121443   1.626   3.553  11.656
 3367SOL    HW221444   1.649   3.502  11.809
 3368SOL     OW21445   1.281   2.207  12.116
 3368SOL    HW121446   1.195   2.157  12.103
 3368SOL    HW221447   1.343   2.153  12.172
 3369SOL     OW21448   1.576   3.524  11.479
 3369SOL    HW121449   1.665   3.570  11.482
 3369SOL    HW221450   1.555   3.500  11.384
 3370SOL     OW21451   1.394   2.331  12.846
 3370SOL    HW121452   1.374   2.374  12.934
 3370SOL    HW221453   1.472   2.269  12.855
 3371SOL     OW21454   0.076   2.673  11.961
 3371SOL    HW121455   0.175   2.661  11.970
 3371SOL    HW221456   0.052   2.768  11.982
 3372SOL     OW21457   1.795   2.928  12.045
 3372SOL    HW121458   1.733   2.913  11.969
 3372SOL    HW221459   1.743   2.939  12.130
 3373SOL     OW21460   0.321   2.805  11.414
 3373SOL    HW121461   0.403   2.844  11.372
 3373SOL    HW221462   0.294   2.723  11.365
 3374SOL     OW21463   1.458   2.597  11.900
 3374SOL    HW121464   1.453   2.532  11.975
 3374SOL    HW221465   1.538   2.656  11.913
 3375SOL     OW21466   0.461   3.128  12.899
 3375SOL    HW121467   0.411   3.129  12.813
 3375SOL    HW221468   0.398   3.110  12.975
 3376SOL     OW21469   0.249   3.647  12.413
 3376SOL    HW121470   0.306   3.582  12.463
 3376SOL    HW221471   0.233   3.614  12.320
 3377SOL     OW21472   0.781   2.126  12.921
 3377SOL    HW121473   0.848   2.065  12.964
 3377SOL    HW221474   0.708   2.145  12.986
 3378SOL     OW21475   0.539   1.926  11.684
 3378SOL    HW121476   0.458   1.927  11.742
 3378SOL    HW221477   0.542   2.009  11.629
 3379SOL     OW21478   0.297   1.897  11.343
 3379SOL    HW121479   0.346   1.981  11.322
 3379SOL    HW221480   0.359   1.832  11.388
 3380SOL     OW21481   0.459   3.014  11.913
 3380SOL    HW121482   0.388   2.987  11.978
 3380SOL    HW221483   0.433   2.986  11.820
 3381SOL     OW21484   0.561   2.084  12.319
 3381SOL    HW121485   0.599   2.000  12.356
 3381SOL    HW221486   0.473   2.103  12.363
 3382SOL     OW21487   1.466   2.452  12.164
 3382SOL    HW121488   1.436   2.357  12.171
 3382SOL    HW221489   1.539   2.468  12.230
 3383SOL     OW21490   1.857   2.695  11.549
 3383SOL    HW121491   1.899   2.631  11.613
 3383SOL    HW221492   1.819   2.644  11.471
 3384SOL     OW21493   1.664   3.142  11.829
 3384SOL    HW121494   1.763   3.150  11.843
 3384SOL    HW221495   1.619   3.226  11.860
 3385SOL     OW21496   0.527   2.118  11.500
 3385SOL    HW121497   0.554   2.059  11.425
 3385SOL    HW221498   0.527   2.213  11.469
 3386SOL     OW21499   1.592   3.491  12.797
 3386SOL    HW121500   1.619   3.525  12.707
 3386SOL    HW221501   1.671   3.453  12.843
 3387SOL     OW21502   0.980   2.978  12.891
 3387SOL    HW121503   0.881   2.984  12.901
 3387SOL    HW221504   1.003   2.898  12.835
 3388SOL     OW21505   0.410   2.675  12.423
 3388SOL    HW121506   0.496   2.687  12.473
 3388SOL    HW221507   0.368   2.588  12.450
 3389SOL     OW21508   0.367   2.962  11.673
 3389SOL    HW121509   0.360   3.045  11.617
 3389SOL    HW221510   0.371   2.882  11.613
 3390SOL     OW21511   1.272   3.307  12.314
 3390SOL    HW121512   1.319   3.320  12.401
 3390SOL    HW221513   1.206   3.233  12.323
 3391SOL     OW21514   0.354   3.372  12.501
 3391SOL    HW121515   0.333   3.328  12.414
 3391SOL    HW221516   0.451   3.398  12.504
 3392SOL     OW21517   0.402   2.613  12.770
 3392SOL    HW121518   0.470   2.668  12.723
 3392SOL    HW221519   0.442   2.525  12.797
 3393SOL     OW21520   1.587   2.641  12.842
 3393SOL    HW121521   1.495   2.679  12.837
 3393SOL    HW221522   1.647   2.688  12.777
 3394SOL     OW21523   1.013   1.967  12.942
 3394SOL    HW121524   1.019   2.052  12.890
 3394SOL    HW221525   1.045   1.891  12.885
 3395SOL     OW21526   0.504   1.912  12.912
 3395SOL    HW121527   0.462   1.855  12.842
 3395SOL    HW221528   0.438   1.981  12.944
 3396SOL     OW21529   0.307   2.075  12.403
 3396SOL    HW121530   0.284   2.112  12.493
 3396SOL    HW221531   0.277   1.980  12.397
 3397SOL     OW21532   0.732   2.496  12.236
 3397SOL    HW121533   0.791   2.470  12.160
 3397SOL    HW221534   0.704   2.592  12.225
 3398SOL     OW21535   1.728   2.797  13.026
 3398SOL    HW121536   1.682   2.790  12.937
 3398SOL    HW221537   1.666   2.841  13.092
 3399SOL     OW21538   0.307   1.925  11.790
 3399SOL    HW121539   0.296   2.019  11.823
 3399SOL    HW221540   0.302   1.862  11.867
 3400SOL     OW21541   0.350   2.760  12.976
 3400SOL    HW121542   0.426   2.804  13.024
 3400SOL    HW221543   0.385   2.713  12.894
 3401SOL     OW21544   0.088   3.663  12.099
 3401SOL    HW121545   0.046   3.577  12.072
 3401SOL    HW221546   0.182   3.666  12.065
 3402SOL     OW21547   0.504   3.430  12.082
 3402SOL    HW121548   0.570   3.504  12.091
 3402SOL    HW221549   0.548   3.351  12.040
 3403SOL     OW21550   1.369   2.812  12.832
 3403SOL    HW121551   1.408   2.901  12.852
 3403SOL    HW221552   1.379   2.792  12.735
 3404SOL     OW21553   0.671   2.326  12.441
 3404SOL    HW121554   0.637   2.237  12.411
 3404SOL    HW221555   0.697   2.380  12.361
 3405SOL     OW21556   0.159   2.999  12.638
 3405SOL    HW121557   0.181   2.938  12.714
 3405SOL    HW221558   0.169   2.950  12.552
 3406SOL     OW21559   1.759   3.609  12.326
 3406SOL    HW121560   1.820   3.639  12.253
 3406SOL    HW221561   1.721   3.520  12.304
 3407SOL     OW21562   1.252   3.593  12.300
 3407SOL    HW121563   1.336   3.598  12.246
 3407SOL    HW221564   1.229   3.497  12.318
 3408SOL     OW21565   1.388   3.435  11.649
 3408SOL    HW121566   1.455   3.447  11.575
 3408SOL    HW221567   1.348   3.524  11.672
 3409SOL     OW21568   1.650   3.582  12.566
 3409SOL    HW121569   1.703   3.592  12.482
 3409SOL    HW221570   1.623   3.672  12.600
 3410SOL     OW21571   1.504   3.469  11.216
 3410SOL    HW121572   1.412   3.506  11.223
 3410SOL    HW221573   1.542   3.489  11.126
 3411SOL     OW21574   0.372   3.150  12.662
 3411SOL    HW121575   0.359   3.243  12.628
 3411SOL    HW221576   0.288   3.098  12.649
 3412SOL     OW21577   1.614   3.154  12.461
 3412SOL    HW121578   1.674   3.157  12.541
 3412SOL    HW221579   1.539   3.218  12.474
 3413SOL     OW21580   0.105   2.875  12.898
 3413SOL    HW121581   0.028   2.842  12.952
 3413SOL    HW221582   0.190   2.845  12.940
 3414SOL     OW21583   0.672   2.065  12.661
 3414SOL    HW121584   0.762   2.049  12.621
 3414SOL    HW221585   0.680   2.070  12.760
 3415SOL     OW21586   0.075   2.207  11.205
 3415SOL    HW121587  -0.017   2.179  11.176
 3415SOL    HW221588   0.106   2.284  11.149
 3416SOL     OW21589   0.613   2.704  12.603
 3416SOL    HW121590   0.669   2.785  12.586
 3416SOL    HW221591   0.672   2.624  12.606
 3417SOL     OW21592   1.493   3.629  12.131
 3417SOL    HW121593   1.526   3.693  12.062
 3417SOL    HW221594   1.559   3.623  12.206
 3418SOL     OW21595   0.716   2.427  12.880
 3418SOL    HW121596   0.735   2.492  12.954
 3418SOL    HW221597   0.776   2.347  12.889
 3419SOL     OW21598   0.390   3.603  12.732
 3419SOL    HW121599   0.299   3.644  12.730
 3419SOL    HW221600   0.383   3.509  12.764
 3420SOL     OW21601   1.674   2.745  12.426
 3420SOL    HW121602   1.647   2.656  12.389
 3420SOL    HW221603   1.675   2.813  12.353
 3421SOL     OW21604   0.594   2.607  11.824
 3421SOL    HW121605   0.644   2.692  11.805
 3421SOL    HW221606   0.506   2.609  11.776
 3422SOL     OW21607   1.861   3.431  12.023
 3422SOL    HW121608   1.790   3.419  11.953
 3422SOL    HW221609   1.862   3.352  12.083
 3423SOL     OW21610   0.079   3.102  11.825
 3423SOL    HW121611   0.078   3.055  11.913
 3423SOL    HW221612   0.161   3.074  11.774
 3424SOL     OW21613   1.705   3.349  12.276
 3424SOL    HW121614   1.612   3.324  12.249
 3424SOL    HW221615   1.731   3.299  12.358
 3425SOL     OW21616   0.812   3.448  11.859
 3425SOL    HW121617   0.844   3.458  11.765
 3425SOL    HW221618   0.733   3.386  11.861
 3426SOL     OW21619   1.424   2.076  12.284
 3426SOL    HW121620   1.476   2.011  12.339
 3426SOL    HW221621   1.375   2.139  12.345
 3427SOL     OW21622   1.300   2.315  11.863
 3427SOL    HW121623   1.241   2.395  11.867
 3427SOL    HW221624   1.315   2.280  11.956
 3428SOL     OW21625   0.039   2.939  11.472
 3428SOL    HW121626   0.138   2.928  11.463
 3428SOL    HW221627  -0.001   2.853  11.504
 3429SOL     OW21628   0.230   2.490  13.147
 3429SOL    HW121629   0.137   2.488  13.184
 3429SOL    HW221630   0.231   2.451  13.055
 3430SOL     OW21631   0.768   3.006  14.057
 3430SOL    HW121632   0.690   3.023  14.117
 3430SOL    HW221633   0.802   3.093  14.021
 3431SOL     OW21634   1.127   3.203  14.724
 3431SOL    HW121635   1.174   3.203  14.812
 3431SOL    HW221636   1.079   3.116  14.713
 3432SOL     OW21637   0.606   2.826  13.157
 3432SOL    HW121638   0.613   2.910  13.103
 3432SOL    HW221639   0.652   2.839  13.245
 3433SOL     OW21640   0.809   1.866  13.536
 3433SOL    HW121641   0.849   1.957  13.527
 3433SOL    HW221642   0.709   1.874  13.542
 3434SOL     OW21643   1.187   3.654  14.650
 3434SOL    HW121644   1.211   3.714  14.574
 3434SOL    HW221645   1.194   3.559  14.620
 3435SOL     OW21646   0.598   2.591  13.304
 3435SOL    HW121647   0.622   2.660  13.236
 3435SOL    HW221648   0.520   2.624  13.358
 3436SOL     OW21649   1.576   3.524  13.341
 3436SOL    HW121650   1.665   3.570  13.344
 3436SOL    HW221651   1.555   3.500  13.246
 3437SOL     OW21652   1.394   2.331  14.708
 3437SOL    HW121653   1.374   2.374  14.796
 3437SOL    HW221654   1.472   2.269  14.717
 3438SOL     OW21655   0.973   2.752  14.606
 3438SOL    HW121656   1.019   2.668  14.577
 3438SOL    HW221657   0.917   2.786  14.531
 3439SOL     OW21658   1.719   2.447  14.865
 3439SOL    HW121659   1.693   2.536  14.829
 3439SOL    HW221660   1.717   2.379  14.792
 3440SOL     OW21661   0.550   2.058  13.919
 3440SOL    HW121662   0.545   2.053  14.019
 3440SOL    HW221663   0.552   2.154  13.890
 3441SOL     OW21664   0.321   2.805  13.276
 3441SOL    HW121665   0.403   2.844  13.234
 3441SOL    HW221666   0.294   2.723  13.227
 3442SOL     OW21667   0.249   3.647  14.275
 3442SOL    HW121668   0.306   3.582  14.325
 3442SOL    HW221669   0.233   3.614  14.182
 3443SOL     OW21670   0.940   3.560  13.938
 3443SOL    HW121671   1.020   3.503  13.959
 3443SOL    HW221672   0.891   3.520  13.861
 3444SOL     OW21673   0.614   1.984  13.151
 3444SOL    HW121674   0.712   1.962  13.158
 3444SOL    HW221675   0.583   1.967  13.058
 3445SOL     OW21676   0.888   3.376  14.229
 3445SOL    HW121677   0.865   3.351  14.135
 3445SOL    HW221678   0.949   3.307  14.268
 3446SOL     OW21679   0.539   1.926  13.546
 3446SOL    HW121680   0.458   1.927  13.604
 3446SOL    HW221681   0.542   2.009  13.491
 3447SOL     OW21682   1.434   3.050  13.075
 3447SOL    HW121683   1.466   2.974  13.132
 3447SOL    HW221684   1.342   3.077  13.105
 3448SOL     OW21685   0.297   1.897  13.205
 3448SOL    HW121686   0.346   1.981  13.184
 3448SOL    HW221687   0.359   1.832  13.250
 3449SOL     OW21688   1.076   2.545  14.498
 3449SOL    HW121689   0.996   2.484  14.501
 3449SOL    HW221690   1.157   2.492  14.474
 3450SOL     OW21691   1.227   3.432  13.827
 3450SOL    HW121692   1.248   3.506  13.762
 3450SOL    HW221693   1.295   3.432  13.900
 3451SOL     OW21694   1.017   1.901  13.787
 3451SOL    HW121695   0.945   1.906  13.718
 3451SOL    HW221696   0.993   1.832  13.856
 3452SOL     OW21697   1.429   3.035  13.901
 3452SOL    HW121698   1.374   2.951  13.894
 3452SOL    HW221699   1.455   3.064  13.809
 3453SOL     OW21700   0.488   3.247  13.208
 3453SOL    HW121701   0.401   3.232  13.255
 3453SOL    HW221702   0.471   3.273  13.113
 3454SOL     OW21703   0.527   2.118  13.362
 3454SOL    HW121704   0.554   2.059  13.287
 3454SOL    HW221705   0.527   2.213  13.331
 3455SOL     OW21706   1.064   3.209  14.374
 3455SOL    HW121707   0.984   3.186  14.429
 3455SOL    HW221708   1.147   3.183  14.423
 3456SOL     OW21709   0.705   2.912  13.402
 3456SOL    HW121710   0.691   2.919  13.501
 3456SOL    HW221711   0.789   2.861  13.384
 3457SOL     OW21712   1.274   2.248  14.296
 3457SOL    HW121713   1.295   2.322  14.360
 3457SOL    HW221714   1.185   2.265  14.253
 3458SOL     OW21715   0.064   3.426  14.365
 3458SOL    HW121716   0.018   3.508  14.331
 3458SOL    HW221717   0.162   3.445  14.374
 3459SOL     OW21718   1.272   3.307  14.176
 3459SOL    HW121719   1.319   3.320  14.263
 3459SOL    HW221720   1.206   3.233  14.185
 3460SOL     OW21721   1.582   2.501  13.506
 3460SOL    HW121722   1.551   2.562  13.579
 3460SOL    HW221723   1.632   2.553  13.437
 3461SOL     OW21724   0.354   3.372  14.363
 3461SOL    HW121725   0.333   3.328  14.276
 3461SOL    HW221726   0.451   3.398  14.366
 3462SOL     OW21727   1.587   2.641  14.704
 3462SOL    HW121728   1.495   2.679  14.699
 3462SOL    HW221729   1.647   2.688  14.639
 3463SOL     OW21730   0.504   1.912  14.774
 3463SOL    HW121731   0.462   1.855  14.704
 3463SOL    HW221732   0.438   1.981  14.806
 3464SOL     OW21733   0.037   3.172  14.316
 3464SOL    HW121734   0.090   3.123  14.384
 3464SOL    HW221735   0.059   3.270  14.321
 3465SOL     OW21736   0.307   1.925  13.652
 3465SOL    HW121737   0.296   2.019  13.685
 3465SOL    HW221738   0.302   1.862  13.729
 3466SOL     OW21739   1.068   3.195  13.883
 3466SOL    HW121740   1.075   3.111  13.828
 3466SOL    HW221741   1.130   3.264  13.847
 3467SOL     OW21742   1.138   2.242  14.712
 3467SOL    HW121743   1.093   2.305  14.776
 3467SOL    HW221744   1.231   2.273  14.695
 3468SOL     OW21745   0.252   3.426  14.778
 3468SOL    HW121746   0.222   3.483  14.854
 3468SOL    HW221747   0.245   3.329  14.804
 3469SOL     OW21748   0.473   2.362  13.225
 3469SOL    HW121749   0.534   2.442  13.229
 3469SOL    HW221750   0.378   2.393  13.232
 3470SOL     OW21751   1.759   3.609  14.188
 3470SOL    HW121752   1.820   3.639  14.115
 3470SOL    HW221753   1.721   3.520  14.166
 3471SOL     OW21754   1.252   3.593  14.162
 3471SOL    HW121755   1.336   3.598  14.108
 3471SOL    HW221756   1.229   3.497  14.180
 3472SOL     OW21757   0.083   3.120  14.056
 3472SOL    HW121758   0.078   3.119  14.156
 3472SOL    HW221759   0.000   3.079  14.018
 3473SOL     OW21760   1.726   1.997  13.557
 3473SOL    HW121761   1.799   1.980  13.490
 3473SOL    HW221762   1.695   1.910  13.595
 3474SOL     OW21763   0.130   3.656  14.885
 3474SOL    HW121764   0.089   3.582  14.938
 3474SOL    HW221765   0.194   3.707  14.943
 3475SOL     OW21766   0.255   3.210  13.324
 3475SOL    HW121767   0.159   3.211  13.297
 3475SOL    HW221768   0.267   3.263  13.408
 3476SOL     OW21769   0.075   2.207  13.067
 3476SOL    HW121770  -0.017   2.179  13.038
 3476SOL    HW221771   0.106   2.284  13.011
 3477SOL     OW21772   0.072   2.028  13.352
 3477SOL    HW121773   0.055   2.111  13.298
 3477SOL    HW221774   0.162   1.991  13.330
 3478SOL     OW21775   1.183   3.197  13.153
 3478SOL    HW121776   1.084   3.186  13.155
 3478SOL    HW221777   1.217   3.212  13.246
 3479SOL     OW21778   0.613   2.704  14.465
 3479SOL    HW121779   0.669   2.785  14.448
 3479SOL    HW221780   0.672   2.624  14.468
 3480SOL     OW21781   0.390   3.603  14.594
 3480SOL    HW121782   0.299   3.644  14.592
 3480SOL    HW221783   0.383   3.509  14.626
 3481SOL     OW21784   0.594   2.607  13.686
 3481SOL    HW121785   0.644   2.692  13.667
 3481SOL    HW221786   0.506   2.609  13.638
 3482SOL     OW21787   0.221   3.176  14.878
 3482SOL    HW121788   0.156   3.103  14.857
 3482SOL    HW221789   0.225   3.190  14.976
 3483SOL     OW21790   0.019   2.230  15.543
 3483SOL    HW121791  -0.063   2.273  15.582
 3483SOL    HW221792  -0.009   2.157  15.480
 3484SOL     OW21793   0.569   3.137  16.062
 3484SOL    HW121794   0.476   3.130  16.025
 3484SOL    HW221795   0.580   3.226  16.106
 3485SOL     OW21796   1.555   3.373  15.599
 3485SOL    HW121797   1.498   3.357  15.680
 3485SOL    HW221798   1.496   3.383  15.519
 3486SOL     OW21799   1.135   2.565  15.613
 3486SOL    HW121800   1.192   2.643  15.588
 3486SOL    HW221801   1.075   2.591  15.689
 3487SOL     OW21802   0.850   2.660  16.720
 3487SOL    HW121803   0.846   2.736  16.785
 3487SOL    HW221804   0.872   2.696  16.629
 3488SOL     OW21805   0.335   3.297  15.958
 3488SOL    HW121806   0.257   3.266  15.905
 3488SOL    HW221807   0.393   3.355  15.901
 3489SOL     OW21808   1.127   3.203  16.587
 3489SOL    HW121809   1.174   3.203  16.675
 3489SOL    HW221810   1.079   3.116  16.576
 3490SOL     OW21811   0.122   2.505  15.459
 3490SOL    HW121812   0.077   2.417  15.476
 3490SOL    HW221813   0.121   2.559  15.543
 3491SOL     OW21814   0.113   2.599  16.494
 3491SOL    HW121815   0.201   2.586  16.539
 3491SOL    HW221816   0.100   2.696  16.472
 3492SOL     OW21817   0.613   3.227  15.622
 3492SOL    HW121818   0.564   3.140  15.631
 3492SOL    HW221819   0.590   3.270  15.535
 3493SOL     OW21820   0.197   2.838  16.161
 3493SOL    HW121821   0.286   2.793  16.147
 3493SOL    HW221822   0.124   2.773  16.142
 3494SOL     OW21823   0.317   2.113  16.698
 3494SOL    HW121824   0.388   2.184  16.704
 3494SOL    HW221825   0.229   2.152  16.726
 3495SOL     OW21826   1.667   3.576  15.468
 3495SOL    HW121827   1.626   3.553  15.380
 3495SOL    HW221828   1.649   3.502  15.533
 3496SOL     OW21829   1.281   2.207  15.841
 3496SOL    HW121830   1.195   2.157  15.828
 3496SOL    HW221831   1.343   2.153  15.897
 3497SOL     OW21832   0.130   3.683  16.468
 3497SOL    HW121833   0.120   3.668  16.567
 3497SOL    HW221834   0.044   3.719  16.432
 3498SOL     OW21835   1.795   2.928  15.769
 3498SOL    HW121836   1.733   2.913  15.693
 3498SOL    HW221837   1.743   2.939  15.854
 3499SOL     OW21838   0.464   3.605  15.219
 3499SOL    HW121839   0.497   3.644  15.305
 3499SOL    HW221840   0.540   3.598  15.154
 3500SOL     OW21841   0.249   3.647  16.138
 3500SOL    HW121842   0.306   3.582  16.188
 3500SOL    HW221843   0.233   3.614  16.045
 3501SOL     OW21844   0.382   2.562  15.376
 3501SOL    HW121845   0.427   2.472  15.373
 3501SOL    HW221846   0.288   2.551  15.409
 3502SOL     OW21847   0.614   1.984  15.013
 3502SOL    HW121848   0.712   1.962  15.020
 3502SOL    HW221849   0.583   1.967  14.920
 3503SOL     OW21850   0.888   3.376  16.092
 3503SOL    HW121851   0.865   3.351  15.998
 3503SOL    HW221852   0.949   3.307  16.131
 3504SOL     OW21853   0.922   2.365  15.795
 3504SOL    HW121854   0.897   2.356  15.699
 3504SOL    HW221855   0.970   2.283  15.826
 3505SOL     OW21856   0.539   1.926  15.408
 3505SOL    HW121857   0.458   1.927  15.466
 3505SOL    HW221858   0.542   2.009  15.353
 3506SOL     OW21859   0.297   1.897  15.067
 3506SOL    HW121860   0.346   1.981  15.046
 3506SOL    HW221861   0.359   1.832  15.112
 3507SOL     OW21862   1.271   3.659  15.487
 3507SOL    HW121863   1.315   3.723  15.423
 3507SOL    HW221864   1.221   3.711  15.557
 3508SOL     OW21865   0.078   2.418  16.283
 3508SOL    HW121866   0.170   2.417  16.242
 3508SOL    HW221867   0.072   2.492  16.350
 3509SOL     OW21868   0.866   2.316  15.538
 3509SOL    HW121869   0.834   2.388  15.476
 3509SOL    HW221870   0.890   2.235  15.485
 3510SOL     OW21871   1.429   3.035  15.763
 3510SOL    HW121872   1.374   2.951  15.756
 3510SOL    HW221873   1.455   3.064  15.671
 3511SOL     OW21874   1.466   2.452  15.889
 3511SOL    HW121875   1.436   2.357  15.896
 3511SOL    HW221876   1.539   2.468  15.955
 3512SOL     OW21877   0.488   3.247  15.070
 3512SOL    HW121878   0.401   3.232  15.117
 3512SOL    HW221879   0.471   3.273  14.975
 3513SOL     OW21880   1.592   3.491  16.522
 3513SOL    HW121881   1.619   3.525  16.432
 3513SOL    HW221882   1.671   3.453  16.568
 3514SOL     OW21883   1.638   2.961  15.976
 3514SOL    HW121884   1.643   3.042  16.035
 3514SOL    HW221885   1.552   2.963  15.925
 3515SOL     OW21886   0.410   2.675  16.148
 3515SOL    HW121887   0.496   2.687  16.198
 3515SOL    HW221888   0.368   2.588  16.175
 3516SOL     OW21889   1.274   2.248  16.159
 3516SOL    HW121890   1.295   2.322  16.223
 3516SOL    HW221891   1.185   2.265  16.116
 3517SOL     OW21892   0.367   2.962  15.397
 3517SOL    HW121893   0.360   3.045  15.341
 3517SOL    HW221894   0.371   2.882  15.337
 3518SOL     OW21895   0.566   2.399  15.761
 3518SOL    HW121896   0.578   2.465  15.687
 3518SOL    HW221897   0.612   2.433  15.844
 3519SOL     OW21898   0.354   3.372  16.226
 3519SOL    HW121899   0.333   3.328  16.139
 3519SOL    HW221900   0.451   3.398  16.229
 3520SOL     OW21901   0.402   2.613  16.495
 3520SOL    HW121902   0.470   2.668  16.448
 3520SOL    HW221903   0.442   2.525  16.522
 3521SOL     OW21904   0.350   2.760  16.701
 3521SOL    HW121905   0.426   2.804  16.749
 3521SOL    HW221906   0.385   2.713  16.619
 3522SOL     OW21907   1.160   2.069  16.374
 3522SOL    HW121908   1.160   2.133  16.451
 3522SOL    HW221909   1.188   2.117  16.291
 3523SOL     OW21910   0.504   3.430  15.806
 3523SOL    HW121911   0.570   3.504  15.815
 3523SOL    HW221912   0.548   3.351  15.764
 3524SOL     OW21913   0.189   2.382  16.619
 3524SOL    HW121914   0.248   2.342  16.549
 3524SOL    HW221915   0.131   2.453  16.578
 3525SOL     OW21916   1.657   2.466  16.103
 3525SOL    HW121917   1.619   2.397  16.165
 3525SOL    HW221918   1.739   2.430  16.059
 3526SOL     OW21919   0.252   3.426  16.641
 3526SOL    HW121920   0.222   3.483  16.717
 3526SOL    HW221921   0.245   3.329  16.667
 3527SOL     OW21922   0.671   2.326  16.166
 3527SOL    HW121923   0.637   2.237  16.136
 3527SOL    HW221924   0.697   2.380  16.086
 3528SOL     OW21925   0.159   2.999  16.363
 3528SOL    HW121926   0.181   2.938  16.439
 3528SOL    HW221927   0.169   2.950  16.277
 3529SOL     OW21928   1.347   2.921  16.131
 3529SOL    HW121929   1.371   2.858  16.057
 3529SOL    HW221930   1.257   2.961  16.113
 3530SOL     OW21931   0.083   3.120  15.919
 3530SOL    HW121932   0.078   3.119  16.019
 3530SOL    HW221933   0.000   3.079  15.881
 3531SOL     OW21934   1.388   3.435  15.373
 3531SOL    HW121935   1.455   3.447  15.299
 3531SOL    HW221936   1.348   3.524  15.396
 3532SOL     OW21937   0.130   3.656  16.748
 3532SOL    HW121938   0.089   3.582  16.801
 3532SOL    HW221939   0.194   3.707  16.806
 3533SOL     OW21940   0.263   2.188  15.616
 3533SOL    HW121941   0.184   2.239  15.582
 3533SOL    HW221942   0.254   2.173  15.714
 3534SOL     OW21943   0.372   3.150  16.387
 3534SOL    HW121944   0.359   3.243  16.353
 3534SOL    HW221945   0.288   3.098  16.374
 3535SOL     OW21946   1.614   3.154  16.186
 3535SOL    HW121947   1.674   3.157  16.266
 3535SOL    HW221948   1.539   3.218  16.199
 3536SOL     OW21949   1.014   2.098  15.868
 3536SOL    HW121950   1.006   2.062  15.775
 3536SOL    HW221951   1.012   2.022  15.933
 3537SOL     OW21952   1.709   2.247  16.278
 3537SOL    HW121953   1.782   2.316  16.282
 3537SOL    HW221954   1.737   2.172  16.219
 3538SOL     OW21955   0.255   3.210  15.186
 3538SOL    HW121956   0.159   3.211  15.159
 3538SOL    HW221957   0.267   3.263  15.270
 3539SOL     OW21958   0.105   2.875  16.623
 3539SOL    HW121959   0.028   2.842  16.677
 3539SOL    HW221960   0.190   2.845  16.665
 3540SOL     OW21961   0.672   2.065  16.386
 3540SOL    HW121962   0.762   2.049  16.346
 3540SOL    HW221963   0.680   2.070  16.485
 3541SOL     OW21964   1.440   2.718  16.295
 3541SOL    HW121965   1.383   2.770  16.232
 3541SOL    HW221966   1.536   2.730  16.271
 3542SOL     OW21967   0.072   2.028  15.214
 3542SOL    HW121968   0.055   2.111  15.160
 3542SOL    HW221969   0.162   1.991  15.192
 3543SOL     OW21970   1.183   3.197  15.015
 3543SOL    HW121971   1.084   3.186  15.017
 3543SOL    HW221972   1.217   3.212  15.108
 3544SOL     OW21973   0.613   2.704  16.328
 3544SOL    HW121974   0.669   2.785  16.311
 3544SOL    HW221975   0.672   2.624  16.331
 3545SOL     OW21976   0.716   2.427  16.605
 3545SOL    HW121977   0.735   2.492  16.679
 3545SOL    HW221978   0.776   2.347  16.614
 3546SOL     OW21979   0.390   3.603  16.457
 3546SOL    HW121980   0.299   3.644  16.455
 3546SOL    HW221981   0.383   3.509  16.489
 3547SOL     OW21982   0.594   2.607  15.548
 3547SOL    HW121983   0.644   2.692  15.529
 3547SOL    HW221984   0.506   2.609  15.500
 3548SOL     OW21985   1.777   2.204  16.539
 3548SOL    HW121986   1.760   2.235  16.445
 3548SOL    HW221987   1.693   2.167  16.577
 3549SOL     OW21988   0.661   3.652  15.850
 3549SOL    HW121989   0.615   3.740  15.837
 3549SOL    HW221990   0.760   3.664  15.843
 3550SOL     OW21991   0.221   3.176  16.741
 3550SOL    HW121992   0.156   3.103  16.720
 3550SOL    HW221993   0.225   3.190  16.839
 3551SOL     OW21994   0.079   3.102  15.549
 3551SOL    HW121995   0.078   3.055  15.637
 3551SOL    HW221996   0.161   3.074  15.498
 3552SOL     OW21997   1.824   2.054  16.124
 3552SOL    HW121998   1.820   1.964  16.168
 3552SOL    HW221999   1.827   2.043  16.025
 3553SOL     OW22000   0.428   2.286  15.416
 3553SOL    HW122001   0.458   2.214  15.354
 3553SOL    HW222002   0.389   2.246  15.499
 3554SOL     OW22003   1.424   2.076  16.009
 3554SOL    HW122004   1.476   2.011  16.064
 3554SOL    HW222005   1.375   2.139  16.070
 3555SOL     OW22006   1.001   1.896  16.051
 3555SOL    HW122007   0.938   1.824  16.020
 3555SOL    HW222008   1.094   1.860  16.051
 3556SOL     OW22009   0.618   3.429  16.181
 3556SOL    HW122010   0.613   3.511  16.238
 3556SOL    HW222011   0.707   3.426  16.136
 3557SOL     OW22012   0.039   2.939  15.196
 3557SOL    HW122013   0.138   2.928  15.187
 3557SOL    HW222014  -0.001   2.853  15.228
 3558SOL     OW22015   0.875   3.508  15.233
 3558SOL    HW122016   0.798   3.473  15.179
 3558SOL    HW222017   0.843   3.579  15.295
 3559SOL     OW22018   0.230   2.490  16.872
 3559SOL    HW122019   0.137   2.488  16.909
 3559SOL    HW222020   0.231   2.451  16.780
 3560SOL     OW22021   0.019   2.230  17.406
 3560SOL    HW122022  -0.063   2.273  17.445
 3560SOL    HW222023  -0.009   2.157  17.343
 3561SOL     OW22024   0.768   3.006  17.782
 3561SOL    HW122025   0.690   3.023  17.842
 3561SOL    HW222026   0.802   3.093  17.746
 3562SOL     OW22027   0.122   2.505  17.322
 3562SOL    HW122028   0.077   2.417  17.339
 3562SOL    HW222029   0.121   2.559  17.406
 3563SOL     OW22030   1.689   2.784  17.371
 3563SOL    HW122031   1.784   2.755  17.379
 3563SOL    HW222032   1.681   2.849  17.296
 3564SOL     OW22033   1.641   2.970  17.191
 3564SOL    HW122034   1.727   2.972  17.139
 3564SOL    HW222035   1.655   3.017  17.279
 3565SOL     OW22036   0.613   3.227  17.485
 3565SOL    HW122037   0.564   3.140  17.494
 3565SOL    HW222038   0.590   3.270  17.398
 3566SOL     OW22039   0.197   2.838  18.023
 3566SOL    HW122040   0.286   2.793  18.009
 3566SOL    HW222041   0.124   2.773  18.004
 3567SOL     OW22042   1.466   3.279  17.712
 3567SOL    HW122043   1.407   3.285  17.792
 3567SOL    HW222044   1.451   3.191  17.666
 3568SOL     OW22045   1.667   3.576  17.331
 3568SOL    HW122046   1.626   3.553  17.243
 3568SOL    HW222047   1.649   3.502  17.396
 3569SOL     OW22048   1.041   2.563  17.188
 3569SOL    HW122049   1.067   2.559  17.284
 3569SOL    HW222050   0.956   2.512  17.174
 3570SOL     OW22051   1.795   2.928  17.632
 3570SOL    HW122052   1.733   2.913  17.556
 3570SOL    HW222053   1.743   2.939  17.717
 3571SOL     OW22054   0.321   2.805  17.001
 3571SOL    HW122055   0.403   2.844  16.959
 3571SOL    HW222056   0.294   2.723  16.952
 3572SOL     OW22057   1.400   1.969  17.185
 3572SOL    HW122058   1.376   1.932  17.095
 3572SOL    HW222059   1.499   1.985  17.189
 3573SOL     OW22060   0.297   1.897  16.930
 3573SOL    HW122061   0.346   1.981  16.909
 3573SOL    HW222062   0.359   1.832  16.975
 3574SOL     OW22063   1.032   2.411  16.775
 3574SOL    HW122064   0.991   2.493  16.736
 3574SOL    HW222065   1.096   2.437  16.848
 3575SOL     OW22066   1.429   3.035  17.626
 3575SOL    HW122067   1.374   2.951  17.619
 3575SOL    HW222068   1.455   3.064  17.534
 3576SOL     OW22069   1.664   3.142  17.416
 3576SOL    HW122070   1.763   3.150  17.430
 3576SOL    HW222071   1.619   3.226  17.447
 3577SOL     OW22072   1.390   2.437  16.837
 3577SOL    HW122073   1.336   2.416  16.918
 3577SOL    HW222074   1.481   2.396  16.846
 3578SOL     OW22075   1.638   2.961  17.838
 3578SOL    HW122076   1.643   3.042  17.897
 3578SOL    HW222077   1.552   2.963  17.787
 3579SOL     OW22078   0.410   2.675  18.010
 3579SOL    HW122079   0.496   2.687  18.060
 3579SOL    HW222080   0.368   2.588  18.037
 3580SOL     OW22081   0.566   2.399  17.624
 3580SOL    HW122082   0.578   2.465  17.550
 3580SOL    HW222083   0.612   2.433  17.707
 3581SOL     OW22084   0.573   2.732  17.788
 3581SOL    HW122085   0.617   2.821  17.779
 3581SOL    HW222086   0.510   2.732  17.865
 3582SOL     OW22087   1.209   2.387  17.034
 3582SOL    HW122088   1.222   2.303  17.088
 3582SOL    HW222089   1.180   2.461  17.094
 3583SOL     OW22090   0.339   2.371  17.765
 3583SOL    HW122091   0.287   2.288  17.748
 3583SOL    HW222092   0.416   2.376  17.701
 3584SOL     OW22093   0.008   3.188  16.959
 3584SOL    HW122094  -0.085   3.209  16.928
 3584SOL    HW222095   0.018   3.089  16.972
 3585SOL     OW22096   0.504   3.430  17.669
 3585SOL    HW122097   0.570   3.504  17.678
 3585SOL    HW222098   0.548   3.351  17.627
 3586SOL     OW22099   0.815   2.434  17.084
 3586SOL    HW122100   0.822   2.345  17.038
 3586SOL    HW222101   0.721   2.468  17.076
 3587SOL     OW22102   0.671   2.326  18.028
 3587SOL    HW122103   0.637   2.237  17.998
 3587SOL    HW222104   0.697   2.380  17.948
 3588SOL     OW22105   1.302   2.717  17.068
 3588SOL    HW122106   1.216   2.686  17.110
 3588SOL    HW222107   1.298   2.703  16.969
 3589SOL     OW22108   1.759   3.609  17.913
 3589SOL    HW122109   1.820   3.639  17.840
 3589SOL    HW222110   1.721   3.520  17.891
 3590SOL     OW22111   0.083   3.120  17.781
 3590SOL    HW122112   0.078   3.119  17.881
 3590SOL    HW222113   0.000   3.079  17.743
 3591SOL     OW22114   1.726   1.997  17.282
 3591SOL    HW122115   1.799   1.980  17.215
 3591SOL    HW222116   1.695   1.910  17.320
 3592SOL     OW22117   0.263   2.188  17.479
 3592SOL    HW122118   0.184   2.239  17.445
 3592SOL    HW222119   0.254   2.173  17.577
 3593SOL     OW22120   0.822   2.864  18.131
 3593SOL    HW122121   0.862   2.863  18.039
 3593SOL    HW222122   0.832   2.956  18.171
 3594SOL     OW22123   1.504   3.469  16.803
 3594SOL    HW122124   1.412   3.506  16.810
 3594SOL    HW222125   1.542   3.489  16.713
 3595SOL     OW22126   0.590   3.349  17.250
 3595SOL    HW122127   0.632   3.291  17.180
 3595SOL    HW222128   0.546   3.428  17.206
 3596SOL     OW22129   1.493   3.629  17.718
 3596SOL    HW122130   1.526   3.693  17.649
 3596SOL    HW222131   1.559   3.623  17.793
 3597SOL     OW22132   1.674   2.745  18.013
 3597SOL    HW122133   1.647   2.656  17.976
 3597SOL    HW222134   1.675   2.813  17.940
 3598SOL     OW22135   1.861   3.431  17.610
 3598SOL    HW122136   1.790   3.419  17.540
 3598SOL    HW222137   1.862   3.352  17.670
 3599SOL     OW22138   1.705   3.349  17.863
 3599SOL    HW122139   1.612   3.324  17.836
 3599SOL    HW222140   1.731   3.299  17.945
 3600SOL     OW22141   1.352   1.914  16.927
 3600SOL    HW122142   1.387   1.873  16.843
 3600SOL    HW222143   1.262   1.876  16.947
 3601SOL     OW22144   1.135   4.427   0.717
 3601SOL    HW122145   1.192   4.505   0.692
 3601SOL    HW222146   1.075   4.453   0.793
 3602SOL     OW22147   1.755   4.331   0.231
 3602SOL    HW122148   1.743   4.318   0.132
 3602SOL    HW222149   1.725   4.250   0.280
 3603SOL     OW22150   0.768   4.868   1.023
 3603SOL    HW122151   0.690   4.885   1.083
 3603SOL    HW222152   0.802   4.955   0.987
 3604SOL     OW22153   0.850   4.522   1.823
 3604SOL    HW122154   0.846   4.598   1.888
 3604SOL    HW222155   0.872   4.558   1.732
 3605SOL     OW22156   0.685   4.736   0.665
 3605SOL    HW122157   0.754   4.720   0.735
 3605SOL    HW222158   0.612   4.793   0.703
 3606SOL     OW22159   1.603   4.171   0.737
 3606SOL    HW122160   1.529   4.217   0.687
 3606SOL    HW222161   1.654   4.239   0.790
 3607SOL     OW22162   1.594   3.838   1.480
 3607SOL    HW122163   1.576   3.905   1.408
 3607SOL    HW222164   1.591   3.884   1.569
 3608SOL     OW22165   0.598   4.453   0.270
 3608SOL    HW122166   0.622   4.522   0.202
 3608SOL    HW222167   0.520   4.486   0.324
 3609SOL     OW22168   1.281   4.069   0.944
 3609SOL    HW122169   1.195   4.019   0.931
 3609SOL    HW222170   1.343   4.015   1.000
 3610SOL     OW22171   1.394   4.193   1.674
 3610SOL    HW122172   1.374   4.236   1.762
 3610SOL    HW222173   1.472   4.131   1.683
 3611SOL     OW22174   0.973   4.614   1.572
 3611SOL    HW122175   1.019   4.530   1.543
 3611SOL    HW222176   0.917   4.648   1.497
 3612SOL     OW22177   1.041   4.425   0.429
 3612SOL    HW122178   1.067   4.421   0.525
 3612SOL    HW222179   0.956   4.374   0.415
 3613SOL     OW22180   0.865   4.072   0.195
 3613SOL    HW122181   0.924   4.135   0.146
 3613SOL    HW222182   0.884   3.978   0.166
 3614SOL     OW22183   1.719   4.309   1.831
 3614SOL    HW122184   1.693   4.398   1.795
 3614SOL    HW222185   1.717   4.241   1.758
 3615SOL     OW22186   1.458   4.459   0.728
 3615SOL    HW122187   1.453   4.394   0.803
 3615SOL    HW222188   1.538   4.518   0.741
 3616SOL     OW22189   1.400   3.831   0.426
 3616SOL    HW122190   1.376   3.794   0.336
 3616SOL    HW222191   1.499   3.847   0.430
 3617SOL     OW22192   0.382   4.424   0.480
 3617SOL    HW122193   0.427   4.334   0.477
 3617SOL    HW222194   0.288   4.413   0.513
 3618SOL     OW22195   1.547   3.946   1.729
 3618SOL    HW122196   1.542   3.983   1.821
 3618SOL    HW222197   1.475   3.877   1.717
 3619SOL     OW22198   0.781   3.988   1.749
 3619SOL    HW122199   0.848   3.927   1.792
 3619SOL    HW222200   0.708   4.007   1.814
 3620SOL     OW22201   1.351   4.314   1.433
 3620SOL    HW122202   1.379   4.271   1.518
 3620SOL    HW222203   1.376   4.410   1.434
 3621SOL     OW22204   0.539   3.788   0.512
 3621SOL    HW122205   0.458   3.789   0.570
 3621SOL    HW222206   0.542   3.871   0.457
 3622SOL     OW22207   0.866   4.178   0.642
 3622SOL    HW122208   0.834   4.250   0.580
 3622SOL    HW222209   0.890   4.097   0.589
 3623SOL     OW22210   1.429   4.897   0.867
 3623SOL    HW122211   1.374   4.813   0.860
 3623SOL    HW222212   1.455   4.926   0.775
 3624SOL     OW22213   1.466   4.314   0.992
 3624SOL    HW122214   1.436   4.219   0.999
 3624SOL    HW222215   1.539   4.330   1.058
 3625SOL     OW22216   1.857   4.557   0.377
 3625SOL    HW122217   1.899   4.493   0.441
 3625SOL    HW222218   1.819   4.506   0.299
 3626SOL     OW22219   1.390   4.299   0.078
 3626SOL    HW122220   1.336   4.278   0.159
 3626SOL    HW222221   1.481   4.258   0.087
 3627SOL     OW22222   0.527   3.980   0.328
 3627SOL    HW122223   0.554   3.921   0.253
 3627SOL    HW222224   0.527   4.075   0.297
 3628SOL     OW22225   1.274   4.110   1.262
 3628SOL    HW122226   1.295   4.184   1.326
 3628SOL    HW222227   1.185   4.127   1.219
 3629SOL     OW22228   1.582   4.363   0.472
 3629SOL    HW122229   1.551   4.424   0.545
 3629SOL    HW222230   1.632   4.415   0.403
 3630SOL     OW22231   1.587   4.503   1.670
 3630SOL    HW122232   1.495   4.541   1.665
 3630SOL    HW222233   1.647   4.550   1.605
 3631SOL     OW22234   1.013   3.829   1.770
 3631SOL    HW122235   1.019   3.914   1.718
 3631SOL    HW222236   1.045   3.753   1.713
 3632SOL     OW22237   1.209   4.249   0.275
 3632SOL    HW122238   1.222   4.165   0.329
 3632SOL    HW222239   1.180   4.323   0.335
 3633SOL     OW22240   0.037   5.034   1.282
 3633SOL    HW122241   0.090   4.985   1.350
 3633SOL    HW222242   0.059   5.132   1.287
 3634SOL     OW22243   1.728   4.659   1.854
 3634SOL    HW122244   1.682   4.652   1.765
 3634SOL    HW222245   1.666   4.703   1.920
 3635SOL     OW22246   0.307   3.787   0.618
 3635SOL    HW122247   0.296   3.881   0.651
 3635SOL    HW222248   0.302   3.724   0.695
 3636SOL     OW22249   1.622   4.091   0.374
 3636SOL    HW122250   1.624   4.015   0.438
 3636SOL    HW222251   1.574   4.168   0.414
 3637SOL     OW22252   0.350   4.622   1.804
 3637SOL    HW122253   0.426   4.666   1.852
 3637SOL    HW222254   0.385   4.575   1.722
 3638SOL     OW22255   1.540   3.998   0.125
 3638SOL    HW122256   1.479   3.923   0.148
 3638SOL    HW222257   1.562   4.050   0.208
 3639SOL     OW22258   1.138   4.104   1.678
 3639SOL    HW122259   1.093   4.167   1.742
 3639SOL    HW222260   1.231   4.135   1.661
 3640SOL     OW22261   1.160   3.931   1.477
 3640SOL    HW122262   1.160   3.995   1.554
 3640SOL    HW222263   1.188   3.979   1.394
 3641SOL     OW22264   0.815   4.296   0.325
 3641SOL    HW122265   0.822   4.207   0.279
 3641SOL    HW222266   0.721   4.330   0.317
 3642SOL     OW22267   1.657   4.328   1.206
 3642SOL    HW122268   1.619   4.259   1.268
 3642SOL    HW222269   1.739   4.292   1.162
 3643SOL     OW22270   0.473   4.224   0.191
 3643SOL    HW122271   0.534   4.304   0.195
 3643SOL    HW222272   0.378   4.255   0.198
 3644SOL     OW22273   1.302   4.579   0.309
 3644SOL    HW122274   1.216   4.548   0.351
 3644SOL    HW222275   1.298   4.565   0.210
 3645SOL     OW22276   0.903   3.810   0.133
 3645SOL    HW122277   0.954   3.811   0.047
 3645SOL    HW222278   0.959   3.768   0.204
 3646SOL     OW22279   1.726   3.859   0.523
 3646SOL    HW122280   1.799   3.842   0.456
 3646SOL    HW222281   1.695   3.772   0.561
 3647SOL     OW22282   1.280   4.651   0.672
 3647SOL    HW122283   1.340   4.570   0.674
 3647SOL    HW222284   1.320   4.720   0.612
 3648SOL     OW22285   1.841   3.899   0.963
 3648SOL    HW122286   1.880   3.814   0.927
 3648SOL    HW222287   1.743   3.901   0.944
 3649SOL     OW22288   0.916   4.634   0.291
 3649SOL    HW122289   0.979   4.672   0.223
 3649SOL    HW222290   0.956   4.551   0.330
 3650SOL     OW22291   1.709   4.109   1.381
 3650SOL    HW122292   1.782   4.178   1.385
 3650SOL    HW222293   1.737   4.034   1.322
 3651SOL     OW22294   0.672   3.927   1.489
 3651SOL    HW122295   0.762   3.911   1.449
 3651SOL    HW222296   0.680   3.932   1.588
 3652SOL     OW22297   0.613   4.566   1.431
 3652SOL    HW122298   0.669   4.647   1.414
 3652SOL    HW222299   0.672   4.486   1.434
 3653SOL     OW22300   0.716   4.289   1.708
 3653SOL    HW122301   0.735   4.354   1.782
 3653SOL    HW222302   0.776   4.209   1.717
 3654SOL     OW22303   1.674   4.607   1.254
 3654SOL    HW122304   1.647   4.518   1.217
 3654SOL    HW222305   1.675   4.675   1.181
 3655SOL     OW22306   1.225   4.049   0.449
 3655SOL    HW122307   1.290   3.975   0.438
 3655SOL    HW222308   1.245   4.099   0.533
 3656SOL     OW22309   0.594   4.469   0.652
 3656SOL    HW122310   0.644   4.554   0.633
 3656SOL    HW222311   0.506   4.471   0.604
 3657SOL     OW22312   1.777   4.066   1.642
 3657SOL    HW122313   1.760   4.097   1.548
 3657SOL    HW222314   1.693   4.029   1.680
 3658SOL     OW22315   1.730   4.658   1.517
 3658SOL    HW122316   1.768   4.749   1.532
 3658SOL    HW222317   1.722   4.641   1.418
 3659SOL     OW22318   0.859   4.680   0.861
 3659SOL    HW122319   0.913   4.611   0.909
 3659SOL    HW222320   0.827   4.749   0.927
 3660SOL     OW22321   1.824   3.916   1.227
 3660SOL    HW122322   1.820   3.826   1.271
 3660SOL    HW222323   1.827   3.905   1.128
 3661SOL     OW22324   0.428   4.148   0.520
 3661SOL    HW122325   0.458   4.076   0.458
 3661SOL    HW222326   0.389   4.108   0.603
 3662SOL     OW22327   1.424   3.938   1.112
 3662SOL    HW122328   1.476   3.873   1.167
 3662SOL    HW222329   1.375   4.001   1.173
 3663SOL     OW22330   1.352   3.776   0.168
 3663SOL    HW122331   1.387   3.735   0.084
 3663SOL    HW222332   1.262   3.738   0.188
 3664SOL     OW22333   1.300   4.177   0.691
 3664SOL    HW122334   1.241   4.257   0.695
 3664SOL    HW222335   1.315   4.142   0.784
 3665SOL     OW22336   1.593   3.945   0.882
 3665SOL    HW122337   1.509   3.944   0.936
 3665SOL    HW222338   1.595   4.028   0.826
 3666SOL     OW22339   0.225   3.999   2.858
 3666SOL    HW122340   0.260   3.982   2.950
 3666SOL    HW222341   0.137   3.954   2.846
 3667SOL     OW22342   0.019   4.092   2.509
 3667SOL    HW122343  -0.063   4.135   2.548
 3667SOL    HW222344  -0.009   4.019   2.446
 3668SOL     OW22345   1.135   4.427   2.579
 3668SOL    HW122346   1.192   4.505   2.554
 3668SOL    HW222347   1.075   4.453   2.655
 3669SOL     OW22348   1.755   4.331   2.093
 3669SOL    HW122349   1.743   4.318   1.994
 3669SOL    HW222350   1.725   4.250   2.142
 3670SOL     OW22351   0.768   4.868   2.885
 3670SOL    HW122352   0.690   4.885   2.945
 3670SOL    HW222353   0.802   4.955   2.849
 3671SOL     OW22354   0.850   4.522   3.685
 3671SOL    HW122355   0.846   4.598   3.750
 3671SOL    HW222356   0.872   4.558   3.594
 3672SOL     OW22357   0.685   4.736   2.527
 3672SOL    HW122358   0.754   4.720   2.597
 3672SOL    HW222359   0.612   4.793   2.565
 3673SOL     OW22360   0.438   4.116   3.361
 3673SOL    HW122361   0.520   4.060   3.370
 3673SOL    HW222362   0.357   4.058   3.365
 3674SOL     OW22363   1.603   4.171   2.599
 3674SOL    HW122364   1.529   4.217   2.549
 3674SOL    HW222365   1.654   4.239   2.652
 3675SOL     OW22366   0.240   4.815   2.748
 3675SOL    HW122367   0.254   4.731   2.800
 3675SOL    HW222368   0.185   4.879   2.803
 3676SOL     OW22369   0.606   4.688   1.985
 3676SOL    HW122370   0.613   4.772   1.931
 3676SOL    HW222371   0.652   4.701   2.073
 3677SOL     OW22372   1.594   3.838   3.342
 3677SOL    HW122373   1.576   3.905   3.270
 3677SOL    HW222374   1.591   3.884   3.431
 3678SOL     OW22375   0.122   4.367   2.425
 3678SOL    HW122376   0.077   4.279   2.442
 3678SOL    HW222377   0.121   4.421   2.509
 3679SOL     OW22378   1.689   4.646   2.474
 3679SOL    HW122379   1.784   4.617   2.482
 3679SOL    HW222380   1.681   4.711   2.399
 3680SOL     OW22381   0.113   4.461   3.459
 3680SOL    HW122382   0.201   4.448   3.504
 3680SOL    HW222383   0.100   4.558   3.437
 3681SOL     OW22384   0.809   3.728   2.364
 3681SOL    HW122385   0.849   3.819   2.355
 3681SOL    HW222386   0.709   3.736   2.370
 3682SOL     OW22387   0.197   4.700   3.126
 3682SOL    HW122388   0.286   4.655   3.112
 3682SOL    HW222389   0.124   4.635   3.107
 3683SOL     OW22390   1.525   4.723   2.052
 3683SOL    HW122391   1.462   4.647   2.065
 3683SOL    HW222392   1.573   4.741   2.138
 3684SOL     OW22393   0.317   3.975   3.663
 3684SOL    HW122394   0.388   4.046   3.669
 3684SOL    HW222395   0.229   4.014   3.691
 3685SOL     OW22396   0.598   4.453   2.132
 3685SOL    HW122397   0.622   4.522   2.064
 3685SOL    HW222398   0.520   4.486   2.186
 3686SOL     OW22399   1.281   4.069   2.806
 3686SOL    HW122400   1.195   4.019   2.793
 3686SOL    HW222401   1.343   4.015   2.862
 3687SOL     OW22402   0.807   4.329   3.327
 3687SOL    HW122403   0.760   4.326   3.416
 3687SOL    HW222404   0.756   4.274   3.261
 3688SOL     OW22405   1.394   4.193   3.536
 3688SOL    HW122406   1.374   4.236   3.624
 3688SOL    HW222407   1.472   4.131   3.545
 3689SOL     OW22408   0.973   4.614   3.434
 3689SOL    HW122409   1.019   4.530   3.405
 3689SOL    HW222410   0.917   4.648   3.359
 3690SOL     OW22411   0.991   4.134   3.104
 3690SOL    HW122412   0.914   4.168   3.158
 3690SOL    HW222413   0.957   4.083   3.025
 3691SOL     OW22414   1.041   4.425   2.291
 3691SOL    HW122415   1.067   4.421   2.387
 3691SOL    HW222416   0.956   4.374   2.277
 3692SOL     OW22417   0.076   4.535   2.651
 3692SOL    HW122418   0.175   4.523   2.660
 3692SOL    HW222419   0.052   4.630   2.672
 3693SOL     OW22420   0.865   4.072   2.057
 3693SOL    HW122421   0.924   4.135   2.008
 3693SOL    HW222422   0.884   3.978   2.028
 3694SOL     OW22423   1.719   4.309   3.693
 3694SOL    HW122424   1.693   4.398   3.657
 3694SOL    HW222425   1.717   4.241   3.620
 3695SOL     OW22426   0.550   3.920   2.747
 3695SOL    HW122427   0.545   3.915   2.847
 3695SOL    HW222428   0.552   4.016   2.718
 3696SOL     OW22429   1.458   4.459   2.590
 3696SOL    HW122430   1.453   4.394   2.665
 3696SOL    HW222431   1.538   4.518   2.603
 3697SOL     OW22432   0.202   4.009   3.360
 3697SOL    HW122433   0.122   4.069   3.347
 3697SOL    HW222434   0.192   3.960   3.446
 3698SOL     OW22435   1.400   3.831   2.288
 3698SOL    HW122436   1.376   3.794   2.198
 3698SOL    HW222437   1.499   3.847   2.292
 3699SOL     OW22438   0.382   4.424   2.342
 3699SOL    HW122439   0.427   4.334   2.339
 3699SOL    HW222440   0.288   4.413   2.375
 3700SOL     OW22441   1.547   3.946   3.591
 3700SOL    HW122442   1.542   3.983   3.683
 3700SOL    HW222443   1.475   3.877   3.579
 3701SOL     OW22444   0.614   3.846   1.979
 3701SOL    HW122445   0.712   3.824   1.986
 3701SOL    HW222446   0.583   3.829   1.886
 3702SOL     OW22447   0.781   3.988   3.611
 3702SOL    HW122448   0.848   3.927   3.654
 3702SOL    HW222449   0.708   4.007   3.676
 3703SOL     OW22450   1.351   4.314   3.295
 3703SOL    HW122451   1.379   4.271   3.380
 3703SOL    HW222452   1.376   4.410   3.296
 3704SOL     OW22453   0.922   4.227   2.761
 3704SOL    HW122454   0.897   4.218   2.665
 3704SOL    HW222455   0.970   4.145   2.792
 3705SOL     OW22456   0.539   3.788   2.374
 3705SOL    HW122457   0.458   3.789   2.432
 3705SOL    HW222458   0.542   3.871   2.319
 3706SOL     OW22459   0.935   3.960   2.342
 3706SOL    HW122460   0.887   4.001   2.264
 3706SOL    HW222461   1.034   3.958   2.323
 3707SOL     OW22462   1.076   4.407   3.326
 3707SOL    HW122463   0.996   4.346   3.329
 3707SOL    HW222464   1.157   4.354   3.302
 3708SOL     OW22465   1.032   4.273   1.878
 3708SOL    HW122466   0.991   4.355   1.839
 3708SOL    HW222467   1.096   4.299   1.951
 3709SOL     OW22468   0.078   4.280   3.248
 3709SOL    HW122469   0.170   4.279   3.207
 3709SOL    HW222470   0.072   4.354   3.315
 3710SOL     OW22471   0.561   3.946   3.009
 3710SOL    HW122472   0.599   3.862   3.046
 3710SOL    HW222473   0.473   3.965   3.053
 3711SOL     OW22474   0.866   4.178   2.504
 3711SOL    HW122475   0.834   4.250   2.442
 3711SOL    HW222476   0.890   4.097   2.451
 3712SOL     OW22477   1.017   3.763   2.615
 3712SOL    HW122478   0.945   3.768   2.546
 3712SOL    HW222479   0.993   3.694   2.684
 3713SOL     OW22480   1.429   4.897   2.729
 3713SOL    HW122481   1.374   4.813   2.722
 3713SOL    HW222482   1.455   4.926   2.637
 3714SOL     OW22483   1.466   4.314   2.854
 3714SOL    HW122484   1.436   4.219   2.861
 3714SOL    HW222485   1.539   4.330   2.920
 3715SOL     OW22486   1.857   4.557   2.239
 3715SOL    HW122487   1.899   4.493   2.303
 3715SOL    HW222488   1.819   4.506   2.161
 3716SOL     OW22489   1.390   4.299   1.940
 3716SOL    HW122490   1.336   4.278   2.021
 3716SOL    HW222491   1.481   4.258   1.949
 3717SOL     OW22492   0.527   3.980   2.190
 3717SOL    HW122493   0.554   3.921   2.115
 3717SOL    HW222494   0.527   4.075   2.159
 3718SOL     OW22495   1.638   4.823   2.941
 3718SOL    HW122496   1.643   4.904   3.000
 3718SOL    HW222497   1.552   4.825   2.890
 3719SOL     OW22498   0.915   3.813   3.264
 3719SOL    HW122499   0.940   3.793   3.169
 3719SOL    HW222500   0.987   3.869   3.306
 3720SOL     OW22501   0.410   4.537   3.113
 3720SOL    HW122502   0.496   4.549   3.163
 3720SOL    HW222503   0.368   4.450   3.140
 3721SOL     OW22504   1.274   4.110   3.124
 3721SOL    HW122505   1.295   4.184   3.188
 3721SOL    HW222506   1.185   4.127   3.081
 3722SOL     OW22507   0.566   4.261   2.727
 3722SOL    HW122508   0.578   4.327   2.653
 3722SOL    HW222509   0.612   4.295   2.810
 3723SOL     OW22510   1.582   4.363   2.334
 3723SOL    HW122511   1.551   4.424   2.407
 3723SOL    HW222512   1.632   4.415   2.265
 3724SOL     OW22513   0.402   4.475   3.460
 3724SOL    HW122514   0.470   4.530   3.413
 3724SOL    HW222515   0.442   4.387   3.487
 3725SOL     OW22516   1.587   4.503   3.532
 3725SOL    HW122517   1.495   4.541   3.527
 3725SOL    HW222518   1.647   4.550   3.467
 3726SOL     OW22519   1.013   3.829   3.632
 3726SOL    HW122520   1.019   3.914   3.580
 3726SOL    HW222521   1.045   3.753   3.575
 3727SOL     OW22522   0.504   3.774   3.602
 3727SOL    HW122523   0.462   3.717   3.532
 3727SOL    HW222524   0.438   3.843   3.634
 3728SOL     OW22525   0.573   4.594   2.891
 3728SOL    HW122526   0.617   4.683   2.882
 3728SOL    HW222527   0.510   4.594   2.968
 3729SOL     OW22528   1.360   4.586   2.907
 3729SOL    HW122529   1.285   4.586   2.841
 3729SOL    HW222530   1.397   4.494   2.916
 3730SOL     OW22531   1.209   4.249   2.137
 3730SOL    HW122532   1.222   4.165   2.191
 3730SOL    HW222533   1.180   4.323   2.197
 3731SOL     OW22534   0.307   3.937   3.093
 3731SOL    HW122535   0.284   3.974   3.183
 3731SOL    HW222536   0.277   3.842   3.087
 3732SOL     OW22537   0.037   5.034   3.144
 3732SOL    HW122538   0.090   4.985   3.212
 3732SOL    HW222539   0.059   5.132   3.149
 3733SOL     OW22540   0.732   4.358   2.926
 3733SOL    HW122541   0.791   4.332   2.850
 3733SOL    HW222542   0.704   4.454   2.915
 3734SOL     OW22543   1.728   4.659   3.716
 3734SOL    HW122544   1.682   4.652   3.627
 3734SOL    HW222545   1.666   4.703   3.782
 3735SOL     OW22546   0.307   3.787   2.480
 3735SOL    HW122547   0.296   3.881   2.513
 3735SOL    HW222548   0.302   3.724   2.557
 3736SOL     OW22549   1.622   4.091   2.236
 3736SOL    HW122550   1.624   4.015   2.300
 3736SOL    HW222551   1.574   4.168   2.276
 3737SOL     OW22552   1.023   4.490   2.828
 3737SOL    HW122553   1.038   4.511   2.924
 3737SOL    HW222554   0.993   4.395   2.819
 3738SOL     OW22555   0.350   4.622   3.666
 3738SOL    HW122556   0.426   4.666   3.714
 3738SOL    HW222557   0.385   4.575   3.584
 3739SOL     OW22558   1.540   3.998   1.987
 3739SOL    HW122559   1.479   3.923   2.010
 3739SOL    HW222560   1.562   4.050   2.070
 3740SOL     OW22561   1.303   4.562   1.904
 3740SOL    HW122562   1.337   4.469   1.919
 3740SOL    HW222563   1.321   4.589   1.809
 3741SOL     OW22564   0.319   4.534   2.811
 3741SOL    HW122565   0.412   4.570   2.816
 3741SOL    HW222566   0.313   4.449   2.863
 3742SOL     OW22567   0.339   4.233   2.868
 3742SOL    HW122568   0.287   4.150   2.851
 3742SOL    HW222569   0.416   4.238   2.804
 3743SOL     OW22570   1.138   4.104   3.540
 3743SOL    HW122571   1.093   4.167   3.604
 3743SOL    HW222572   1.231   4.135   3.523
 3744SOL     OW22573   1.160   3.931   3.339
 3744SOL    HW122574   1.160   3.995   3.416
 3744SOL    HW222575   1.188   3.979   3.256
 3745SOL     OW22576   1.002   4.520   3.100
 3745SOL    HW122577   1.043   4.488   3.186
 3745SOL    HW222578   0.906   4.493   3.097
 3746SOL     OW22579   0.040   4.268   2.976
 3746SOL    HW122580   0.125   4.235   2.935
 3746SOL    HW222581   0.053   4.283   3.074
 3747SOL     OW22582   0.189   4.244   3.584
 3747SOL    HW122583   0.248   4.204   3.514
 3747SOL    HW222584   0.131   4.315   3.543
 3748SOL     OW22585   1.369   4.674   3.522
 3748SOL    HW122586   1.408   4.763   3.542
 3748SOL    HW222587   1.379   4.654   3.425
 3749SOL     OW22588   0.815   4.296   2.187
 3749SOL    HW122589   0.822   4.207   2.141
 3749SOL    HW222590   0.721   4.330   2.179
 3750SOL     OW22591   1.657   4.328   3.068
 3750SOL    HW122592   1.619   4.259   3.130
 3750SOL    HW222593   1.739   4.292   3.024
 3751SOL     OW22594   0.671   4.188   3.131
 3751SOL    HW122595   0.637   4.099   3.101
 3751SOL    HW222596   0.697   4.242   3.051
 3752SOL     OW22597   0.473   4.224   2.053
 3752SOL    HW122598   0.534   4.304   2.057
 3752SOL    HW222599   0.378   4.255   2.060
 3753SOL     OW22600   0.159   4.861   3.328
 3753SOL    HW122601   0.181   4.800   3.404
 3753SOL    HW222602   0.169   4.812   3.242
 3754SOL     OW22603   1.347   4.783   3.096
 3754SOL    HW122604   1.371   4.720   3.022
 3754SOL    HW222605   1.257   4.823   3.078
 3755SOL     OW22606   1.302   4.579   2.171
 3755SOL    HW122607   1.216   4.548   2.213
 3755SOL    HW222608   1.298   4.565   2.072
 3756SOL     OW22609   1.726   3.859   2.385
 3756SOL    HW122610   1.799   3.842   2.318
 3756SOL    HW222611   1.695   3.772   2.423
 3757SOL     OW22612   1.280   4.651   2.534
 3757SOL    HW122613   1.340   4.570   2.536
 3757SOL    HW222614   1.320   4.720   2.474
 3758SOL     OW22615   1.841   3.899   2.825
 3758SOL    HW122616   1.880   3.814   2.789
 3758SOL    HW222617   1.743   3.901   2.806
 3759SOL     OW22618   0.263   4.050   2.582
 3759SOL    HW122619   0.184   4.101   2.548
 3759SOL    HW222620   0.254   4.035   2.680
 3760SOL     OW22621   0.916   4.634   2.153
 3760SOL    HW122622   0.979   4.672   2.085
 3760SOL    HW222623   0.956   4.551   2.192
 3761SOL     OW22624   1.014   3.960   2.833
 3761SOL    HW122625   1.006   3.924   2.740
 3761SOL    HW222626   1.012   3.884   2.898
 3762SOL     OW22627   1.709   4.109   3.243
 3762SOL    HW122628   1.782   4.178   3.247
 3762SOL    HW222629   1.737   4.034   3.184
 3763SOL     OW22630   0.105   4.737   3.588
 3763SOL    HW122631   0.028   4.704   3.642
 3763SOL    HW222632   0.190   4.707   3.630
 3764SOL     OW22633   0.672   3.927   3.351
 3764SOL    HW122634   0.762   3.911   3.311
 3764SOL    HW222635   0.680   3.932   3.450
 3765SOL     OW22636   0.075   4.069   1.895
 3765SOL    HW122637  -0.017   4.041   1.866
 3765SOL    HW222638   0.106   4.146   1.839
 3766SOL     OW22639   1.440   4.580   3.260
 3766SOL    HW122640   1.383   4.632   3.197
 3766SOL    HW222641   1.536   4.592   3.236
 3767SOL     OW22642   0.072   3.890   2.180
 3767SOL    HW122643   0.055   3.973   2.126
 3767SOL    HW222644   0.162   3.853   2.158
 3768SOL     OW22645   1.183   5.059   1.981
 3768SOL    HW122646   1.084   5.048   1.983
 3768SOL    HW222647   1.217   5.074   2.074
 3769SOL     OW22648   0.613   4.566   3.293
 3769SOL    HW122649   0.669   4.647   3.276
 3769SOL    HW222650   0.672   4.486   3.296
 3770SOL     OW22651   0.716   4.289   3.570
 3770SOL    HW122652   0.735   4.354   3.644
 3770SOL    HW222653   0.776   4.209   3.579
 3771SOL     OW22654   1.674   4.607   3.116
 3771SOL    HW122655   1.647   4.518   3.079
 3771SOL    HW222656   1.675   4.675   3.043
 3772SOL     OW22657   1.225   4.049   2.311
 3772SOL    HW122658   1.290   3.975   2.300
 3772SOL    HW222659   1.245   4.099   2.395
 3773SOL     OW22660   0.594   4.469   2.514
 3773SOL    HW122661   0.644   4.554   2.495
 3773SOL    HW222662   0.506   4.471   2.466
 3774SOL     OW22663   1.777   4.066   3.504
 3774SOL    HW122664   1.760   4.097   3.410
 3774SOL    HW222665   1.693   4.029   3.542
 3775SOL     OW22666   1.730   4.658   3.379
 3775SOL    HW122667   1.768   4.749   3.394
 3775SOL    HW222668   1.722   4.641   3.280
 3776SOL     OW22669   0.859   4.680   2.723
 3776SOL    HW122670   0.913   4.611   2.771
 3776SOL    HW222671   0.827   4.749   2.789
 3777SOL     OW22672   1.083   4.708   1.949
 3777SOL    HW122673   1.060   4.761   1.867
 3777SOL    HW222674   1.164   4.652   1.930
 3778SOL     OW22675   0.079   4.964   2.515
 3778SOL    HW122676   0.078   4.917   2.603
 3778SOL    HW222677   0.161   4.936   2.464
 3779SOL     OW22678   1.824   3.916   3.089
 3779SOL    HW122679   1.820   3.826   3.133
 3779SOL    HW222680   1.827   3.905   2.990
 3780SOL     OW22681   0.428   4.148   2.382
 3780SOL    HW122682   0.458   4.076   2.320
 3780SOL    HW222683   0.389   4.108   2.465
 3781SOL     OW22684   0.317   4.271   3.142
 3781SOL    HW122685   0.355   4.212   3.214
 3781SOL    HW222686   0.357   4.245   3.054
 3782SOL     OW22687   1.424   3.938   2.974
 3782SOL    HW122688   1.476   3.873   3.029
 3782SOL    HW222689   1.375   4.001   3.035
 3783SOL     OW22690   1.001   3.758   3.016
 3783SOL    HW122691   0.938   3.686   2.985
 3783SOL    HW222692   1.094   3.722   3.016
 3784SOL     OW22693   1.352   3.776   2.030
 3784SOL    HW122694   1.387   3.735   1.946
 3784SOL    HW222695   1.262   3.738   2.050
 3785SOL     OW22696   1.300   4.177   2.553
 3785SOL    HW122697   1.241   4.257   2.557
 3785SOL    HW222698   1.315   4.142   2.646
 3786SOL     OW22699   1.593   3.945   2.744
 3786SOL    HW122700   1.509   3.944   2.798
 3786SOL    HW222701   1.595   4.028   2.688
 3787SOL     OW22702   0.039   4.801   2.162
 3787SOL    HW122703   0.138   4.790   2.153
 3787SOL    HW222704  -0.001   4.715   2.194
 3788SOL     OW22705   0.230   4.352   3.837
 3788SOL    HW122706   0.137   4.350   3.874
 3788SOL    HW222707   0.231   4.313   3.745
 3789SOL     OW22708   0.225   3.999   4.720
 3789SOL    HW122709   0.260   3.982   4.812
 3789SOL    HW222710   0.137   3.954   4.708
 3790SOL     OW22711   0.019   4.092   4.371
 3790SOL    HW122712  -0.063   4.135   4.410
 3790SOL    HW222713  -0.009   4.019   4.308
 3791SOL     OW22714   1.135   4.427   4.441
 3791SOL    HW122715   1.192   4.505   4.416
 3791SOL    HW222716   1.075   4.453   4.517
 3792SOL     OW22717   1.755   4.331   3.955
 3792SOL    HW122718   1.743   4.318   3.856
 3792SOL    HW222719   1.725   4.250   4.004
 3793SOL     OW22720   0.768   4.868   4.747
 3793SOL    HW122721   0.690   4.885   4.807
 3793SOL    HW222722   0.802   4.955   4.711
 3794SOL     OW22723   0.850   4.522   5.547
 3794SOL    HW122724   0.846   4.598   5.612
 3794SOL    HW222725   0.872   4.558   5.456
 3795SOL     OW22726   0.685   4.736   4.389
 3795SOL    HW122727   0.754   4.720   4.459
 3795SOL    HW222728   0.612   4.793   4.427
 3796SOL     OW22729   0.438   4.116   5.223
 3796SOL    HW122730   0.520   4.060   5.232
 3796SOL    HW222731   0.357   4.058   5.227
 3797SOL     OW22732   1.603   4.171   4.461
 3797SOL    HW122733   1.529   4.217   4.411
 3797SOL    HW222734   1.654   4.239   4.514
 3798SOL     OW22735   0.240   4.815   4.610
 3798SOL    HW122736   0.254   4.731   4.662
 3798SOL    HW222737   0.185   4.879   4.665
 3799SOL     OW22738   0.606   4.688   3.847
 3799SOL    HW122739   0.613   4.772   3.793
 3799SOL    HW222740   0.652   4.701   3.935
 3800SOL     OW22741   1.594   3.838   5.204
 3800SOL    HW122742   1.576   3.905   5.132
 3800SOL    HW222743   1.591   3.884   5.293
 3801SOL     OW22744   0.122   4.367   4.287
 3801SOL    HW122745   0.077   4.279   4.304
 3801SOL    HW222746   0.121   4.421   4.371
 3802SOL     OW22747   1.689   4.646   4.336
 3802SOL    HW122748   1.784   4.617   4.344
 3802SOL    HW222749   1.681   4.711   4.261
 3803SOL     OW22750   0.113   4.461   5.321
 3803SOL    HW122751   0.201   4.448   5.366
 3803SOL    HW222752   0.100   4.558   5.299
 3804SOL     OW22753   0.809   3.728   4.226
 3804SOL    HW122754   0.849   3.819   4.217
 3804SOL    HW222755   0.709   3.736   4.232
 3805SOL     OW22756   0.197   4.700   4.988
 3805SOL    HW122757   0.286   4.655   4.974
 3805SOL    HW222758   0.124   4.635   4.969
 3806SOL     OW22759   1.525   4.723   3.914
 3806SOL    HW122760   1.462   4.647   3.927
 3806SOL    HW222761   1.573   4.741   4.000
 3807SOL     OW22762   0.317   3.975   5.525
 3807SOL    HW122763   0.388   4.046   5.531
 3807SOL    HW222764   0.229   4.014   5.553
 3808SOL     OW22765   0.598   4.453   3.994
 3808SOL    HW122766   0.622   4.522   3.926
 3808SOL    HW222767   0.520   4.486   4.048
 3809SOL     OW22768   1.281   4.069   4.668
 3809SOL    HW122769   1.195   4.019   4.655
 3809SOL    HW222770   1.343   4.015   4.724
 3810SOL     OW22771   0.807   4.329   5.189
 3810SOL    HW122772   0.760   4.326   5.278
 3810SOL    HW222773   0.756   4.274   5.123
 3811SOL     OW22774   1.394   4.193   5.398
 3811SOL    HW122775   1.374   4.236   5.486
 3811SOL    HW222776   1.472   4.131   5.407
 3812SOL     OW22777   0.973   4.614   5.296
 3812SOL    HW122778   1.019   4.530   5.267
 3812SOL    HW222779   0.917   4.648   5.221
 3813SOL     OW22780   0.991   4.134   4.966
 3813SOL    HW122781   0.914   4.168   5.020
 3813SOL    HW222782   0.957   4.083   4.887
 3814SOL     OW22783   1.041   4.425   4.153
 3814SOL    HW122784   1.067   4.421   4.249
 3814SOL    HW222785   0.956   4.374   4.139
 3815SOL     OW22786   0.076   4.535   4.513
 3815SOL    HW122787   0.175   4.523   4.522
 3815SOL    HW222788   0.052   4.630   4.534
 3816SOL     OW22789   0.865   4.072   3.919
 3816SOL    HW122790   0.924   4.135   3.870
 3816SOL    HW222791   0.884   3.978   3.890
 3817SOL     OW22792   1.719   4.309   5.555
 3817SOL    HW122793   1.693   4.398   5.519
 3817SOL    HW222794   1.717   4.241   5.482
 3818SOL     OW22795   0.550   3.920   4.609
 3818SOL    HW122796   0.545   3.915   4.709
 3818SOL    HW222797   0.552   4.016   4.580
 3819SOL     OW22798   1.458   4.459   4.452
 3819SOL    HW122799   1.453   4.394   4.527
 3819SOL    HW222800   1.538   4.518   4.465
 3820SOL     OW22801   0.202   4.009   5.222
 3820SOL    HW122802   0.122   4.069   5.209
 3820SOL    HW222803   0.192   3.960   5.308
 3821SOL     OW22804   1.400   3.831   4.150
 3821SOL    HW122805   1.376   3.794   4.060
 3821SOL    HW222806   1.499   3.847   4.154
 3822SOL     OW22807   0.382   4.424   4.204
 3822SOL    HW122808   0.427   4.334   4.201
 3822SOL    HW222809   0.288   4.413   4.237
 3823SOL     OW22810   1.547   3.946   5.453
 3823SOL    HW122811   1.542   3.983   5.545
 3823SOL    HW222812   1.475   3.877   5.441
 3824SOL     OW22813   0.614   3.846   3.841
 3824SOL    HW122814   0.712   3.824   3.848
 3824SOL    HW222815   0.583   3.829   3.748
 3825SOL     OW22816   0.781   3.988   5.473
 3825SOL    HW122817   0.848   3.927   5.516
 3825SOL    HW222818   0.708   4.007   5.538
 3826SOL     OW22819   1.351   4.314   5.157
 3826SOL    HW122820   1.379   4.271   5.242
 3826SOL    HW222821   1.376   4.410   5.158
 3827SOL     OW22822   0.922   4.227   4.623
 3827SOL    HW122823   0.897   4.218   4.527
 3827SOL    HW222824   0.970   4.145   4.654
 3828SOL     OW22825   0.539   3.788   4.236
 3828SOL    HW122826   0.458   3.789   4.294
 3828SOL    HW222827   0.542   3.871   4.181
 3829SOL     OW22828   0.297   3.759   3.895
 3829SOL    HW122829   0.346   3.843   3.874
 3829SOL    HW222830   0.359   3.694   3.940
 3830SOL     OW22831   0.935   3.960   4.204
 3830SOL    HW122832   0.887   4.001   4.126
 3830SOL    HW222833   1.034   3.958   4.185
 3831SOL     OW22834   1.076   4.407   5.188
 3831SOL    HW122835   0.996   4.346   5.191
 3831SOL    HW222836   1.157   4.354   5.164
 3832SOL     OW22837   1.032   4.273   3.740
 3832SOL    HW122838   0.991   4.355   3.701
 3832SOL    HW222839   1.096   4.299   3.813
 3833SOL     OW22840   0.078   4.280   5.110
 3833SOL    HW122841   0.170   4.279   5.069
 3833SOL    HW222842   0.072   4.354   5.177
 3834SOL     OW22843   0.561   3.946   4.871
 3834SOL    HW122844   0.599   3.862   4.908
 3834SOL    HW222845   0.473   3.965   4.915
 3835SOL     OW22846   0.866   4.178   4.366
 3835SOL    HW122847   0.834   4.250   4.304
 3835SOL    HW222848   0.890   4.097   4.313
 3836SOL     OW22849   1.017   3.763   4.477
 3836SOL    HW122850   0.945   3.768   4.408
 3836SOL    HW222851   0.993   3.694   4.546
 3837SOL     OW22852   1.429   4.897   4.591
 3837SOL    HW122853   1.374   4.813   4.584
 3837SOL    HW222854   1.455   4.926   4.499
 3838SOL     OW22855   1.466   4.314   4.716
 3838SOL    HW122856   1.436   4.219   4.723
 3838SOL    HW222857   1.539   4.330   4.782
 3839SOL     OW22858   1.857   4.557   4.101
 3839SOL    HW122859   1.899   4.493   4.165
 3839SOL    HW222860   1.819   4.506   4.023
 3840SOL     OW22861   1.390   4.299   3.802
 3840SOL    HW122862   1.336   4.278   3.883
 3840SOL    HW222863   1.481   4.258   3.811
 3841SOL     OW22864   0.527   3.980   4.052
 3841SOL    HW122865   0.554   3.921   3.977
 3841SOL    HW222866   0.527   4.075   4.021
 3842SOL     OW22867   1.638   4.823   4.803
 3842SOL    HW122868   1.643   4.904   4.862
 3842SOL    HW222869   1.552   4.825   4.752
 3843SOL     OW22870   0.915   3.813   5.126
 3843SOL    HW122871   0.940   3.793   5.031
 3843SOL    HW222872   0.987   3.869   5.168
 3844SOL     OW22873   0.410   4.537   4.975
 3844SOL    HW122874   0.496   4.549   5.025
 3844SOL    HW222875   0.368   4.450   5.002
 3845SOL     OW22876   1.274   4.110   4.986
 3845SOL    HW122877   1.295   4.184   5.050
 3845SOL    HW222878   1.185   4.127   4.943
 3846SOL     OW22879   0.566   4.261   4.589
 3846SOL    HW122880   0.578   4.327   4.515
 3846SOL    HW222881   0.612   4.295   4.672
 3847SOL     OW22882   1.582   4.363   4.196
 3847SOL    HW122883   1.551   4.424   4.269
 3847SOL    HW222884   1.632   4.415   4.127
 3848SOL     OW22885   0.402   4.475   5.322
 3848SOL    HW122886   0.470   4.530   5.275
 3848SOL    HW222887   0.442   4.387   5.349
 3849SOL     OW22888   1.587   4.503   5.394
 3849SOL    HW122889   1.495   4.541   5.389
 3849SOL    HW222890   1.647   4.550   5.329
 3850SOL     OW22891   1.013   3.829   5.494
 3850SOL    HW122892   1.019   3.914   5.442
 3850SOL    HW222893   1.045   3.753   5.437
 3851SOL     OW22894   0.504   3.774   5.464
 3851SOL    HW122895   0.462   3.717   5.394
 3851SOL    HW222896   0.438   3.843   5.496
 3852SOL     OW22897   0.573   4.594   4.753
 3852SOL    HW122898   0.617   4.683   4.744
 3852SOL    HW222899   0.510   4.594   4.830
 3853SOL     OW22900   1.360   4.586   4.769
 3853SOL    HW122901   1.285   4.586   4.703
 3853SOL    HW222902   1.397   4.494   4.778
 3854SOL     OW22903   1.209   4.249   3.999
 3854SOL    HW122904   1.222   4.165   4.053
 3854SOL    HW222905   1.180   4.323   4.059
 3855SOL     OW22906   0.307   3.937   4.955
 3855SOL    HW122907   0.284   3.974   5.045
 3855SOL    HW222908   0.277   3.842   4.949
 3856SOL     OW22909   0.037   5.034   5.006
 3856SOL    HW122910   0.090   4.985   5.074
 3856SOL    HW222911   0.059   5.132   5.011
 3857SOL     OW22912   0.732   4.358   4.788
 3857SOL    HW122913   0.791   4.332   4.712
 3857SOL    HW222914   0.704   4.454   4.777
 3858SOL     OW22915   1.728   4.659   5.578
 3858SOL    HW122916   1.682   4.652   5.489
 3858SOL    HW222917   1.666   4.703   5.644
 3859SOL     OW22918   0.307   3.787   4.342
 3859SOL    HW122919   0.296   3.881   4.375
 3859SOL    HW222920   0.302   3.724   4.419
 3860SOL     OW22921   1.622   4.091   4.098
 3860SOL    HW122922   1.624   4.015   4.162
 3860SOL    HW222923   1.574   4.168   4.138
 3861SOL     OW22924   1.023   4.490   4.690
 3861SOL    HW122925   1.038   4.511   4.786
 3861SOL    HW222926   0.993   4.395   4.681
 3862SOL     OW22927   0.350   4.622   5.528
 3862SOL    HW122928   0.426   4.666   5.576
 3862SOL    HW222929   0.385   4.575   5.446
 3863SOL     OW22930   1.540   3.998   3.849
 3863SOL    HW122931   1.479   3.923   3.872
 3863SOL    HW222932   1.562   4.050   3.932
 3864SOL     OW22933   1.303   4.562   3.766
 3864SOL    HW122934   1.337   4.469   3.781
 3864SOL    HW222935   1.321   4.589   3.671
 3865SOL     OW22936   0.319   4.534   4.673
 3865SOL    HW122937   0.412   4.570   4.678
 3865SOL    HW222938   0.313   4.449   4.725
 3866SOL     OW22939   0.339   4.233   4.730
 3866SOL    HW122940   0.287   4.150   4.713
 3866SOL    HW222941   0.416   4.238   4.666
 3867SOL     OW22942   1.138   4.104   5.402
 3867SOL    HW122943   1.093   4.167   5.466
 3867SOL    HW222944   1.231   4.135   5.385
 3868SOL     OW22945   1.160   3.931   5.201
 3868SOL    HW122946   1.160   3.995   5.278
 3868SOL    HW222947   1.188   3.979   5.118
 3869SOL     OW22948   1.002   4.520   4.962
 3869SOL    HW122949   1.043   4.488   5.048
 3869SOL    HW222950   0.906   4.493   4.959
 3870SOL     OW22951   0.040   4.268   4.838
 3870SOL    HW122952   0.125   4.235   4.797
 3870SOL    HW222953   0.053   4.283   4.936
 3871SOL     OW22954   0.189   4.244   5.446
 3871SOL    HW122955   0.248   4.204   5.376
 3871SOL    HW222956   0.131   4.315   5.405
 3872SOL     OW22957   1.369   4.674   5.384
 3872SOL    HW122958   1.408   4.763   5.404
 3872SOL    HW222959   1.379   4.654   5.287
 3873SOL     OW22960   0.815   4.296   4.049
 3873SOL    HW122961   0.822   4.207   4.003
 3873SOL    HW222962   0.721   4.330   4.041
 3874SOL     OW22963   1.657   4.328   4.930
 3874SOL    HW122964   1.619   4.259   4.992
 3874SOL    HW222965   1.739   4.292   4.886
 3875SOL     OW22966   0.671   4.188   4.993
 3875SOL    HW122967   0.637   4.099   4.963
 3875SOL    HW222968   0.697   4.242   4.913
 3876SOL     OW22969   0.473   4.224   3.915
 3876SOL    HW122970   0.534   4.304   3.919
 3876SOL    HW222971   0.378   4.255   3.922
 3877SOL     OW22972   0.159   4.861   5.190
 3877SOL    HW122973   0.181   4.800   5.266
 3877SOL    HW222974   0.169   4.812   5.104
 3878SOL     OW22975   1.347   4.783   4.958
 3878SOL    HW122976   1.371   4.720   4.884
 3878SOL    HW222977   1.257   4.823   4.940
 3879SOL     OW22978   1.302   4.579   4.033
 3879SOL    HW122979   1.216   4.548   4.075
 3879SOL    HW222980   1.298   4.565   3.934
 3880SOL     OW22981   1.726   3.859   4.247
 3880SOL    HW122982   1.799   3.842   4.180
 3880SOL    HW222983   1.695   3.772   4.285
 3881SOL     OW22984   1.280   4.651   4.396
 3881SOL    HW122985   1.340   4.570   4.398
 3881SOL    HW222986   1.320   4.720   4.336
 3882SOL     OW22987   1.841   3.899   4.687
 3882SOL    HW122988   1.880   3.814   4.651
 3882SOL    HW222989   1.743   3.901   4.668
 3883SOL     OW22990   0.263   4.050   4.444
 3883SOL    HW122991   0.184   4.101   4.410
 3883SOL    HW222992   0.254   4.035   4.542
 3884SOL     OW22993   0.916   4.634   4.015
 3884SOL    HW122994   0.979   4.672   3.947
 3884SOL    HW222995   0.956   4.551   4.054
 3885SOL     OW22996   1.014   3.960   4.695
 3885SOL    HW122997   1.006   3.924   4.602
 3885SOL    HW222998   1.012   3.884   4.760
 3886SOL     OW22999   1.709   4.109   5.105
 3886SOL    HW123000   1.782   4.178   5.109
 3886SOL    HW223001   1.737   4.034   5.046
 3887SOL     OW23002   0.105   4.737   5.450
 3887SOL    HW123003   0.028   4.704   5.504
 3887SOL    HW223004   0.190   4.707   5.492
 3888SOL     OW23005   0.672   3.927   5.213
 3888SOL    HW123006   0.762   3.911   5.173
 3888SOL    HW223007   0.680   3.932   5.312
 3889SOL     OW23008   0.075   4.069   3.757
 3889SOL    HW123009  -0.017   4.041   3.728
 3889SOL    HW223010   0.106   4.146   3.701
 3890SOL     OW23011   1.440   4.580   5.122
 3890SOL    HW123012   1.383   4.632   5.059
 3890SOL    HW223013   1.536   4.592   5.098
 3891SOL     OW23014   0.072   3.890   4.042
 3891SOL    HW123015   0.055   3.973   3.988
 3891SOL    HW223016   0.162   3.853   4.020
 3892SOL     OW23017   1.183   5.059   3.843
 3892SOL    HW123018   1.084   5.048   3.845
 3892SOL    HW223019   1.217   5.074   3.936
 3893SOL     OW23020   0.613   4.566   5.155
 3893SOL    HW123021   0.669   4.647   5.138
 3893SOL    HW223022   0.672   4.486   5.158
 3894SOL     OW23023   0.716   4.289   5.432
 3894SOL    HW123024   0.735   4.354   5.506
 3894SOL    HW223025   0.776   4.209   5.441
 3895SOL     OW23026   1.674   4.607   4.978
 3895SOL    HW123027   1.647   4.518   4.941
 3895SOL    HW223028   1.675   4.675   4.905
 3896SOL     OW23029   1.225   4.049   4.173
 3896SOL    HW123030   1.290   3.975   4.162
 3896SOL    HW223031   1.245   4.099   4.257
 3897SOL     OW23032   0.594   4.469   4.376
 3897SOL    HW123033   0.644   4.554   4.357
 3897SOL    HW223034   0.506   4.471   4.328
 3898SOL     OW23035   1.777   4.066   5.366
 3898SOL    HW123036   1.760   4.097   5.272
 3898SOL    HW223037   1.693   4.029   5.404
 3899SOL     OW23038   1.730   4.658   5.241
 3899SOL    HW123039   1.768   4.749   5.256
 3899SOL    HW223040   1.722   4.641   5.142
 3900SOL     OW23041   0.859   4.680   4.585
 3900SOL    HW123042   0.913   4.611   4.633
 3900SOL    HW223043   0.827   4.749   4.651
 3901SOL     OW23044   1.083   4.708   3.811
 3901SOL    HW123045   1.060   4.761   3.729
 3901SOL    HW223046   1.164   4.652   3.792
 3902SOL     OW23047   0.079   4.964   4.377
 3902SOL    HW123048   0.078   4.917   4.465
 3902SOL    HW223049   0.161   4.936   4.326
 3903SOL     OW23050   1.824   3.916   4.951
 3903SOL    HW123051   1.820   3.826   4.995
 3903SOL    HW223052   1.827   3.905   4.852
 3904SOL     OW23053   0.428   4.148   4.244
 3904SOL    HW123054   0.458   4.076   4.182
 3904SOL    HW223055   0.389   4.108   4.327
 3905SOL     OW23056   0.317   4.271   5.004
 3905SOL    HW123057   0.355   4.212   5.076
 3905SOL    HW223058   0.357   4.245   4.916
 3906SOL     OW23059   1.424   3.938   4.836
 3906SOL    HW123060   1.476   3.873   4.891
 3906SOL    HW223061   1.375   4.001   4.897
 3907SOL     OW23062   1.001   3.758   4.878
 3907SOL    HW123063   0.938   3.686   4.847
 3907SOL    HW223064   1.094   3.722   4.878
 3908SOL     OW23065   1.352   3.776   3.892
 3908SOL    HW123066   1.387   3.735   3.808
 3908SOL    HW223067   1.262   3.738   3.912
 3909SOL     OW23068   1.300   4.177   4.415
 3909SOL    HW123069   1.241   4.257   4.419
 3909SOL    HW223070   1.315   4.142   4.508
 3910SOL     OW23071   1.593   3.945   4.606
 3910SOL    HW123072   1.509   3.944   4.660
 3910SOL    HW223073   1.595   4.028   4.550
 3911SOL     OW23074   0.039   4.801   4.024
 3911SOL    HW123075   0.138   4.790   4.015
 3911SOL    HW223076  -0.001   4.715   4.056
 3912SOL     OW23077   0.230   4.352   5.699
 3912SOL    HW123078   0.137   4.350   5.736
 3912SOL    HW223079   0.231   4.313   5.607
 3913SOL     OW23080   0.225   3.999   6.582
 3913SOL    HW123081   0.260   3.982   6.674
 3913SOL    HW223082   0.137   3.954   6.570
 3914SOL     OW23083   0.019   4.092   6.233
 3914SOL    HW123084  -0.063   4.135   6.272
 3914SOL    HW223085  -0.009   4.019   6.170
 3915SOL     OW23086   1.135   4.427   6.303
 3915SOL    HW123087   1.192   4.505   6.278
 3915SOL    HW223088   1.075   4.453   6.379
 3916SOL     OW23089   1.755   4.331   5.817
 3916SOL    HW123090   1.743   4.318   5.718
 3916SOL    HW223091   1.725   4.250   5.866
 3917SOL     OW23092   0.768   4.868   6.609
 3917SOL    HW123093   0.690   4.885   6.669
 3917SOL    HW223094   0.802   4.955   6.573
 3918SOL     OW23095   0.850   4.522   7.409
 3918SOL    HW123096   0.846   4.598   7.474
 3918SOL    HW223097   0.872   4.558   7.318
 3919SOL     OW23098   0.685   4.736   6.251
 3919SOL    HW123099   0.754   4.720   6.321
 3919SOL    HW223100   0.612   4.793   6.289
 3920SOL     OW23101   0.438   4.116   7.085
 3920SOL    HW123102   0.520   4.060   7.094
 3920SOL    HW223103   0.357   4.058   7.089
 3921SOL     OW23104   1.603   4.171   6.323
 3921SOL    HW123105   1.529   4.217   6.273
 3921SOL    HW223106   1.654   4.239   6.376
 3922SOL     OW23107   0.240   4.815   6.472
 3922SOL    HW123108   0.254   4.731   6.524
 3922SOL    HW223109   0.185   4.879   6.527
 3923SOL     OW23110   0.606   4.688   5.709
 3923SOL    HW123111   0.613   4.772   5.655
 3923SOL    HW223112   0.652   4.701   5.797
 3924SOL     OW23113   1.594   3.838   7.066
 3924SOL    HW123114   1.576   3.905   6.994
 3924SOL    HW223115   1.591   3.884   7.155
 3925SOL     OW23116   0.122   4.367   6.149
 3925SOL    HW123117   0.077   4.279   6.166
 3925SOL    HW223118   0.121   4.421   6.233
 3926SOL     OW23119   1.689   4.646   6.198
 3926SOL    HW123120   1.784   4.617   6.206
 3926SOL    HW223121   1.681   4.711   6.123
 3927SOL     OW23122   0.113   4.461   7.183
 3927SOL    HW123123   0.201   4.448   7.228
 3927SOL    HW223124   0.100   4.558   7.161
 3928SOL     OW23125   0.809   3.728   6.088
 3928SOL    HW123126   0.849   3.819   6.079
 3928SOL    HW223127   0.709   3.736   6.094
 3929SOL     OW23128   0.197   4.700   6.850
 3929SOL    HW123129   0.286   4.655   6.836
 3929SOL    HW223130   0.124   4.635   6.831
 3930SOL     OW23131   1.525   4.723   5.776
 3930SOL    HW123132   1.462   4.647   5.789
 3930SOL    HW223133   1.573   4.741   5.862
 3931SOL     OW23134   0.317   3.975   7.387
 3931SOL    HW123135   0.388   4.046   7.393
 3931SOL    HW223136   0.229   4.014   7.415
 3932SOL     OW23137   0.598   4.453   5.856
 3932SOL    HW123138   0.622   4.522   5.788
 3932SOL    HW223139   0.520   4.486   5.910
 3933SOL     OW23140   1.281   4.069   6.530
 3933SOL    HW123141   1.195   4.019   6.517
 3933SOL    HW223142   1.343   4.015   6.586
 3934SOL     OW23143   0.807   4.329   7.051
 3934SOL    HW123144   0.760   4.326   7.140
 3934SOL    HW223145   0.756   4.274   6.985
 3935SOL     OW23146   1.394   4.193   7.260
 3935SOL    HW123147   1.374   4.236   7.348
 3935SOL    HW223148   1.472   4.131   7.269
 3936SOL     OW23149   0.973   4.614   7.158
 3936SOL    HW123150   1.019   4.530   7.129
 3936SOL    HW223151   0.917   4.648   7.083
 3937SOL     OW23152   0.991   4.134   6.828
 3937SOL    HW123153   0.914   4.168   6.882
 3937SOL    HW223154   0.957   4.083   6.749
 3938SOL     OW23155   1.041   4.425   6.015
 3938SOL    HW123156   1.067   4.421   6.111
 3938SOL    HW223157   0.956   4.374   6.001
 3939SOL     OW23158   0.076   4.535   6.375
 3939SOL    HW123159   0.175   4.523   6.384
 3939SOL    HW223160   0.052   4.630   6.396
 3940SOL     OW23161   0.865   4.072   5.781
 3940SOL    HW123162   0.924   4.135   5.732
 3940SOL    HW223163   0.884   3.978   5.752
 3941SOL     OW23164   1.719   4.309   7.417
 3941SOL    HW123165   1.693   4.398   7.381
 3941SOL    HW223166   1.717   4.241   7.344
 3942SOL     OW23167   0.550   3.920   6.471
 3942SOL    HW123168   0.545   3.915   6.571
 3942SOL    HW223169   0.552   4.016   6.442
 3943SOL     OW23170   1.458   4.459   6.314
 3943SOL    HW123171   1.453   4.394   6.389
 3943SOL    HW223172   1.538   4.518   6.327
 3944SOL     OW23173   0.202   4.009   7.084
 3944SOL    HW123174   0.122   4.069   7.071
 3944SOL    HW223175   0.192   3.960   7.170
 3945SOL     OW23176   1.400   3.831   6.012
 3945SOL    HW123177   1.376   3.794   5.922
 3945SOL    HW223178   1.499   3.847   6.016
 3946SOL     OW23179   0.382   4.424   6.066
 3946SOL    HW123180   0.427   4.334   6.063
 3946SOL    HW223181   0.288   4.413   6.099
 3947SOL     OW23182   1.547   3.946   7.315
 3947SOL    HW123183   1.542   3.983   7.407
 3947SOL    HW223184   1.475   3.877   7.303
 3948SOL     OW23185   0.614   3.846   5.703
 3948SOL    HW123186   0.712   3.824   5.710
 3948SOL    HW223187   0.583   3.829   5.610
 3949SOL     OW23188   0.781   3.988   7.335
 3949SOL    HW123189   0.848   3.927   7.378
 3949SOL    HW223190   0.708   4.007   7.400
 3950SOL     OW23191   1.351   4.314   7.019
 3950SOL    HW123192   1.379   4.271   7.104
 3950SOL    HW223193   1.376   4.410   7.020
 3951SOL     OW23194   0.922   4.227   6.485
 3951SOL    HW123195   0.897   4.218   6.389
 3951SOL    HW223196   0.970   4.145   6.516
 3952SOL     OW23197   0.539   3.788   6.098
 3952SOL    HW123198   0.458   3.789   6.156
 3952SOL    HW223199   0.542   3.871   6.043
 3953SOL     OW23200   0.297   3.759   5.757
 3953SOL    HW123201   0.346   3.843   5.736
 3953SOL    HW223202   0.359   3.694   5.802
 3954SOL     OW23203   0.935   3.960   6.066
 3954SOL    HW123204   0.887   4.001   5.988
 3954SOL    HW223205   1.034   3.958   6.047
 3955SOL     OW23206   1.076   4.407   7.050
 3955SOL    HW123207   0.996   4.346   7.053
 3955SOL    HW223208   1.157   4.354   7.026
 3956SOL     OW23209   1.032   4.273   5.602
 3956SOL    HW123210   0.991   4.355   5.563
 3956SOL    HW223211   1.096   4.299   5.675
 3957SOL     OW23212   0.078   4.280   6.972
 3957SOL    HW123213   0.170   4.279   6.931
 3957SOL    HW223214   0.072   4.354   7.039
 3958SOL     OW23215   0.561   3.946   6.733
 3958SOL    HW123216   0.599   3.862   6.770
 3958SOL    HW223217   0.473   3.965   6.777
 3959SOL     OW23218   0.866   4.178   6.228
 3959SOL    HW123219   0.834   4.250   6.166
 3959SOL    HW223220   0.890   4.097   6.175
 3960SOL     OW23221   1.017   3.763   6.339
 3960SOL    HW123222   0.945   3.768   6.270
 3960SOL    HW223223   0.993   3.694   6.408
 3961SOL     OW23224   1.429   4.897   6.453
 3961SOL    HW123225   1.374   4.813   6.446
 3961SOL    HW223226   1.455   4.926   6.361
 3962SOL     OW23227   1.466   4.314   6.578
 3962SOL    HW123228   1.436   4.219   6.585
 3962SOL    HW223229   1.539   4.330   6.644
 3963SOL     OW23230   1.857   4.557   5.963
 3963SOL    HW123231   1.899   4.493   6.027
 3963SOL    HW223232   1.819   4.506   5.885
 3964SOL     OW23233   1.390   4.299   5.664
 3964SOL    HW123234   1.336   4.278   5.745
 3964SOL    HW223235   1.481   4.258   5.673
 3965SOL     OW23236   0.527   3.980   5.914
 3965SOL    HW123237   0.554   3.921   5.839
 3965SOL    HW223238   0.527   4.075   5.883
 3966SOL     OW23239   1.638   4.823   6.665
 3966SOL    HW123240   1.643   4.904   6.724
 3966SOL    HW223241   1.552   4.825   6.614
 3967SOL     OW23242   0.915   3.813   6.988
 3967SOL    HW123243   0.940   3.793   6.893
 3967SOL    HW223244   0.987   3.869   7.030
 3968SOL     OW23245   0.410   4.537   6.837
 3968SOL    HW123246   0.496   4.549   6.887
 3968SOL    HW223247   0.368   4.450   6.864
 3969SOL     OW23248   1.274   4.110   6.848
 3969SOL    HW123249   1.295   4.184   6.912
 3969SOL    HW223250   1.185   4.127   6.805
 3970SOL     OW23251   0.566   4.261   6.451
 3970SOL    HW123252   0.578   4.327   6.377
 3970SOL    HW223253   0.612   4.295   6.534
 3971SOL     OW23254   1.582   4.363   6.058
 3971SOL    HW123255   1.551   4.424   6.131
 3971SOL    HW223256   1.632   4.415   5.989
 3972SOL     OW23257   0.402   4.475   7.184
 3972SOL    HW123258   0.470   4.530   7.137
 3972SOL    HW223259   0.442   4.387   7.211
 3973SOL     OW23260   1.587   4.503   7.256
 3973SOL    HW123261   1.495   4.541   7.251
 3973SOL    HW223262   1.647   4.550   7.191
 3974SOL     OW23263   1.013   3.829   7.356
 3974SOL    HW123264   1.019   3.914   7.304
 3974SOL    HW223265   1.045   3.753   7.299
 3975SOL     OW23266   0.504   3.774   7.326
 3975SOL    HW123267   0.462   3.717   7.256
 3975SOL    HW223268   0.438   3.843   7.358
 3976SOL     OW23269   0.573   4.594   6.615
 3976SOL    HW123270   0.617   4.683   6.606
 3976SOL    HW223271   0.510   4.594   6.692
 3977SOL     OW23272   1.360   4.586   6.631
 3977SOL    HW123273   1.285   4.586   6.565
 3977SOL    HW223274   1.397   4.494   6.640
 3978SOL     OW23275   1.209   4.249   5.861
 3978SOL    HW123276   1.222   4.165   5.915
 3978SOL    HW223277   1.180   4.323   5.921
 3979SOL     OW23278   0.307   3.937   6.817
 3979SOL    HW123279   0.284   3.974   6.907
 3979SOL    HW223280   0.277   3.842   6.811
 3980SOL     OW23281   0.037   5.034   6.868
 3980SOL    HW123282   0.090   4.985   6.936
 3980SOL    HW223283   0.059   5.132   6.873
 3981SOL     OW23284   0.732   4.358   6.650
 3981SOL    HW123285   0.791   4.332   6.574
 3981SOL    HW223286   0.704   4.454   6.639
 3982SOL     OW23287   1.728   4.659   7.440
 3982SOL    HW123288   1.682   4.652   7.351
 3982SOL    HW223289   1.666   4.703   7.506
 3983SOL     OW23290   0.307   3.787   6.204
 3983SOL    HW123291   0.296   3.881   6.237
 3983SOL    HW223292   0.302   3.724   6.281
 3984SOL     OW23293   1.622   4.091   5.960
 3984SOL    HW123294   1.624   4.015   6.024
 3984SOL    HW223295   1.574   4.168   6.000
 3985SOL     OW23296   1.023   4.490   6.552
 3985SOL    HW123297   1.038   4.511   6.648
 3985SOL    HW223298   0.993   4.395   6.543
 3986SOL     OW23299   0.350   4.622   7.390
 3986SOL    HW123300   0.426   4.666   7.438
 3986SOL    HW223301   0.385   4.575   7.308
 3987SOL     OW23302   1.540   3.998   5.711
 3987SOL    HW123303   1.479   3.923   5.734
 3987SOL    HW223304   1.562   4.050   5.794
 3988SOL     OW23305   1.303   4.562   5.628
 3988SOL    HW123306   1.337   4.469   5.643
 3988SOL    HW223307   1.321   4.589   5.533
 3989SOL     OW23308   0.319   4.534   6.535
 3989SOL    HW123309   0.412   4.570   6.540
 3989SOL    HW223310   0.313   4.449   6.587
 3990SOL     OW23311   0.339   4.233   6.592
 3990SOL    HW123312   0.287   4.150   6.575
 3990SOL    HW223313   0.416   4.238   6.528
 3991SOL     OW23314   1.138   4.104   7.264
 3991SOL    HW123315   1.093   4.167   7.328
 3991SOL    HW223316   1.231   4.135   7.247
 3992SOL     OW23317   1.160   3.931   7.063
 3992SOL    HW123318   1.160   3.995   7.140
 3992SOL    HW223319   1.188   3.979   6.980
 3993SOL     OW23320   1.002   4.520   6.824
 3993SOL    HW123321   1.043   4.488   6.910
 3993SOL    HW223322   0.906   4.493   6.821
 3994SOL     OW23323   0.040   4.268   6.700
 3994SOL    HW123324   0.125   4.235   6.659
 3994SOL    HW223325   0.053   4.283   6.798
 3995SOL     OW23326   0.189   4.244   7.308
 3995SOL    HW123327   0.248   4.204   7.238
 3995SOL    HW223328   0.131   4.315   7.267
 3996SOL     OW23329   1.369   4.674   7.246
 3996SOL    HW123330   1.408   4.763   7.266
 3996SOL    HW223331   1.379   4.654   7.149
 3997SOL     OW23332   0.815   4.296   5.911
 3997SOL    HW123333   0.822   4.207   5.865
 3997SOL    HW223334   0.721   4.330   5.903
 3998SOL     OW23335   1.657   4.328   6.792
 3998SOL    HW123336   1.619   4.259   6.854
 3998SOL    HW223337   1.739   4.292   6.748
 3999SOL     OW23338   0.671   4.188   6.855
 3999SOL    HW123339   0.637   4.099   6.825
 3999SOL    HW223340   0.697   4.242   6.775
 4000SOL     OW23341   0.473   4.224   5.777
 4000SOL    HW123342   0.534   4.304   5.781
 4000SOL    HW223343   0.378   4.255   5.784
 4001SOL     OW23344   0.159   4.861   7.052
 4001SOL    HW123345   0.181   4.800   7.128
 4001SOL    HW223346   0.169   4.812   6.966
 4002SOL     OW23347   1.347   4.783   6.820
 4002SOL    HW123348   1.371   4.720   6.746
 4002SOL    HW223349   1.257   4.823   6.802
 4003SOL     OW23350   1.302   4.579   5.895
 4003SOL    HW123351   1.216   4.548   5.937
 4003SOL    HW223352   1.298   4.565   5.796
 4004SOL     OW23353   1.726   3.859   6.109
 4004SOL    HW123354   1.799   3.842   6.042
 4004SOL    HW223355   1.695   3.772   6.147
 4005SOL     OW23356   1.280   4.651   6.258
 4005SOL    HW123357   1.340   4.570   6.260
 4005SOL    HW223358   1.320   4.720   6.198
 4006SOL     OW23359   1.841   3.899   6.549
 4006SOL    HW123360   1.880   3.814   6.513
 4006SOL    HW223361   1.743   3.901   6.530
 4007SOL     OW23362   0.263   4.050   6.306
 4007SOL    HW123363   0.184   4.101   6.272
 4007SOL    HW223364   0.254   4.035   6.404
 4008SOL     OW23365   0.916   4.634   5.877
 4008SOL    HW123366   0.979   4.672   5.809
 4008SOL    HW223367   0.956   4.551   5.916
 4009SOL     OW23368   1.014   3.960   6.557
 4009SOL    HW123369   1.006   3.924   6.464
 4009SOL    HW223370   1.012   3.884   6.622
 4010SOL     OW23371   1.709   4.109   6.967
 4010SOL    HW123372   1.782   4.178   6.971
 4010SOL    HW223373   1.737   4.034   6.908
 4011SOL     OW23374   0.105   4.737   7.312
 4011SOL    HW123375   0.028   4.704   7.366
 4011SOL    HW223376   0.190   4.707   7.354
 4012SOL     OW23377   0.672   3.927   7.075
 4012SOL    HW123378   0.762   3.911   7.035
 4012SOL    HW223379   0.680   3.932   7.174
 4013SOL     OW23380   0.075   4.069   5.619
 4013SOL    HW123381  -0.017   4.041   5.590
 4013SOL    HW223382   0.106   4.146   5.563
 4014SOL     OW23383   1.440   4.580   6.984
 4014SOL    HW123384   1.383   4.632   6.921
 4014SOL    HW223385   1.536   4.592   6.960
 4015SOL     OW23386   0.072   3.890   5.904
 4015SOL    HW123387   0.055   3.973   5.850
 4015SOL    HW223388   0.162   3.853   5.882
 4016SOL     OW23389   1.183   5.059   5.705
 4016SOL    HW123390   1.084   5.048   5.707
 4016SOL    HW223391   1.217   5.074   5.798
 4017SOL     OW23392   0.613   4.566   7.017
 4017SOL    HW123393   0.669   4.647   7.000
 4017SOL    HW223394   0.672   4.486   7.020
 4018SOL     OW23395   0.716   4.289   7.294
 4018SOL    HW123396   0.735   4.354   7.368
 4018SOL    HW223397   0.776   4.209   7.303
 4019SOL     OW23398   1.674   4.607   6.840
 4019SOL    HW123399   1.647   4.518   6.803
 4019SOL    HW223400   1.675   4.675   6.767
 4020SOL     OW23401   1.225   4.049   6.035
 4020SOL    HW123402   1.290   3.975   6.024
 4020SOL    HW223403   1.245   4.099   6.119
 4021SOL     OW23404   0.594   4.469   6.238
 4021SOL    HW123405   0.644   4.554   6.219
 4021SOL    HW223406   0.506   4.471   6.190
 4022SOL     OW23407   1.777   4.066   7.228
 4022SOL    HW123408   1.760   4.097   7.134
 4022SOL    HW223409   1.693   4.029   7.266
 4023SOL     OW23410   1.730   4.658   7.103
 4023SOL    HW123411   1.768   4.749   7.118
 4023SOL    HW223412   1.722   4.641   7.004
 4024SOL     OW23413   0.859   4.680   6.447
 4024SOL    HW123414   0.913   4.611   6.495
 4024SOL    HW223415   0.827   4.749   6.513
 4025SOL     OW23416   1.083   4.708   5.673
 4025SOL    HW123417   1.060   4.761   5.591
 4025SOL    HW223418   1.164   4.652   5.654
 4026SOL     OW23419   0.079   4.964   6.239
 4026SOL    HW123420   0.078   4.917   6.327
 4026SOL    HW223421   0.161   4.936   6.188
 4027SOL     OW23422   1.824   3.916   6.813
 4027SOL    HW123423   1.820   3.826   6.857
 4027SOL    HW223424   1.827   3.905   6.714
 4028SOL     OW23425   0.428   4.148   6.106
 4028SOL    HW123426   0.458   4.076   6.044
 4028SOL    HW223427   0.389   4.108   6.189
 4029SOL     OW23428   0.317   4.271   6.866
 4029SOL    HW123429   0.355   4.212   6.938
 4029SOL    HW223430   0.357   4.245   6.778
 4030SOL     OW23431   1.424   3.938   6.698
 4030SOL    HW123432   1.476   3.873   6.753
 4030SOL    HW223433   1.375   4.001   6.759
 4031SOL     OW23434   1.001   3.758   6.740
 4031SOL    HW123435   0.938   3.686   6.709
 4031SOL    HW223436   1.094   3.722   6.740
 4032SOL     OW23437   1.352   3.776   5.754
 4032SOL    HW123438   1.387   3.735   5.670
 4032SOL    HW223439   1.262   3.738   5.774
 4033SOL     OW23440   1.300   4.177   6.277
 4033SOL    HW123441   1.241   4.257   6.281
 4033SOL    HW223442   1.315   4.142   6.370
 4034SOL     OW23443   1.593   3.945   6.468
 4034SOL    HW123444   1.509   3.944   6.522
 4034SOL    HW223445   1.595   4.028   6.412
 4035SOL     OW23446   0.039   4.801   5.886
 4035SOL    HW123447   0.138   4.790   5.877
 4035SOL    HW223448  -0.001   4.715   5.918
 4036SOL     OW23449   0.230   4.352   7.561
 4036SOL    HW123450   0.137   4.350   7.598
 4036SOL    HW223451   0.231   4.313   7.469
 4037SOL     OW23452   0.225   3.999   8.444
 4037SOL    HW123453   0.260   3.982   8.536
 4037SOL    HW223454   0.137   3.954   8.432
 4038SOL     OW23455   0.019   4.092   8.095
 4038SOL    HW123456  -0.063   4.135   8.134
 4038SOL    HW223457  -0.009   4.019   8.032
 4039SOL     OW23458   1.135   4.427   8.165
 4039SOL    HW123459   1.192   4.505   8.140
 4039SOL    HW223460   1.075   4.453   8.241
 4040SOL     OW23461   1.755   4.331   7.679
 4040SOL    HW123462   1.743   4.318   7.580
 4040SOL    HW223463   1.725   4.250   7.728
 4041SOL     OW23464   0.768   4.868   8.471
 4041SOL    HW123465   0.690   4.885   8.531
 4041SOL    HW223466   0.802   4.955   8.435
 4042SOL     OW23467   0.685   4.736   8.113
 4042SOL    HW123468   0.754   4.720   8.183
 4042SOL    HW223469   0.612   4.793   8.151
 4043SOL     OW23470   0.438   4.116   8.947
 4043SOL    HW123471   0.520   4.060   8.956
 4043SOL    HW223472   0.357   4.058   8.951
 4044SOL     OW23473   1.603   4.171   8.185
 4044SOL    HW123474   1.529   4.217   8.135
 4044SOL    HW223475   1.654   4.239   8.238
 4045SOL     OW23476   0.240   4.815   8.334
 4045SOL    HW123477   0.254   4.731   8.386
 4045SOL    HW223478   0.185   4.879   8.389
 4046SOL     OW23479   0.606   4.688   7.571
 4046SOL    HW123480   0.613   4.772   7.517
 4046SOL    HW223481   0.652   4.701   7.659
 4047SOL     OW23482   0.122   4.367   8.011
 4047SOL    HW123483   0.077   4.279   8.028
 4047SOL    HW223484   0.121   4.421   8.095
 4048SOL     OW23485   1.689   4.646   8.060
 4048SOL    HW123486   1.784   4.617   8.068
 4048SOL    HW223487   1.681   4.711   7.985
 4049SOL     OW23488   0.809   3.728   7.950
 4049SOL    HW123489   0.849   3.819   7.941
 4049SOL    HW223490   0.709   3.736   7.956
 4050SOL     OW23491   0.598   4.453   7.718
 4050SOL    HW123492   0.622   4.522   7.650
 4050SOL    HW223493   0.520   4.486   7.772
 4051SOL     OW23494   1.281   4.069   8.392
 4051SOL    HW123495   1.195   4.019   8.379
 4051SOL    HW223496   1.343   4.015   8.448
 4052SOL     OW23497   0.807   4.329   8.913
 4052SOL    HW123498   0.760   4.326   9.002
 4052SOL    HW223499   0.756   4.274   8.847
 4053SOL     OW23500   1.394   4.193   9.122
 4053SOL    HW123501   1.374   4.236   9.210
 4053SOL    HW223502   1.472   4.131   9.131
 4054SOL     OW23503   0.973   4.614   9.020
 4054SOL    HW123504   1.019   4.530   8.991
 4054SOL    HW223505   0.917   4.648   8.945
 4055SOL     OW23506   0.991   4.134   8.690
 4055SOL    HW123507   0.914   4.168   8.744
 4055SOL    HW223508   0.957   4.083   8.611
 4056SOL     OW23509   1.041   4.425   7.877
 4056SOL    HW123510   1.067   4.421   7.973
 4056SOL    HW223511   0.956   4.374   7.863
 4057SOL     OW23512   0.076   4.535   8.237
 4057SOL    HW123513   0.175   4.523   8.246
 4057SOL    HW223514   0.052   4.630   8.258
 4058SOL     OW23515   0.865   4.072   7.643
 4058SOL    HW123516   0.924   4.135   7.594
 4058SOL    HW223517   0.884   3.978   7.614
 4059SOL     OW23518   0.550   3.920   8.333
 4059SOL    HW123519   0.545   3.915   8.433
 4059SOL    HW223520   0.552   4.016   8.304
 4060SOL     OW23521   1.458   4.459   8.176
 4060SOL    HW123522   1.453   4.394   8.251
 4060SOL    HW223523   1.538   4.518   8.189
 4061SOL     OW23524   0.202   4.009   8.946
 4061SOL    HW123525   0.122   4.069   8.933
 4061SOL    HW223526   0.192   3.960   9.032
 4062SOL     OW23527   1.400   3.831   7.874
 4062SOL    HW123528   1.376   3.794   7.784
 4062SOL    HW223529   1.499   3.847   7.878
 4063SOL     OW23530   0.382   4.424   7.928
 4063SOL    HW123531   0.427   4.334   7.925
 4063SOL    HW223532   0.288   4.413   7.961
 4064SOL     OW23533   0.614   3.846   7.565
 4064SOL    HW123534   0.712   3.824   7.572
 4064SOL    HW223535   0.583   3.829   7.472
 4065SOL     OW23536   0.781   3.988   9.197
 4065SOL    HW123537   0.848   3.927   9.240
 4065SOL    HW223538   0.708   4.007   9.262
 4066SOL     OW23539   1.351   4.314   8.881
 4066SOL    HW123540   1.379   4.271   8.966
 4066SOL    HW223541   1.376   4.410   8.882
 4067SOL     OW23542   0.922   4.227   8.347
 4067SOL    HW123543   0.897   4.218   8.251
 4067SOL    HW223544   0.970   4.145   8.378
 4068SOL     OW23545   0.539   3.788   7.960
 4068SOL    HW123546   0.458   3.789   8.018
 4068SOL    HW223547   0.542   3.871   7.905
 4069SOL     OW23548   0.297   3.759   7.619
 4069SOL    HW123549   0.346   3.843   7.598
 4069SOL    HW223550   0.359   3.694   7.664
 4070SOL     OW23551   0.935   3.960   7.928
 4070SOL    HW123552   0.887   4.001   7.850
 4070SOL    HW223553   1.034   3.958   7.909
 4071SOL     OW23554   1.076   4.407   8.912
 4071SOL    HW123555   0.996   4.346   8.915
 4071SOL    HW223556   1.157   4.354   8.888
 4072SOL     OW23557   1.032   4.273   7.464
 4072SOL    HW123558   0.991   4.355   7.425
 4072SOL    HW223559   1.096   4.299   7.537
 4073SOL     OW23560   0.078   4.280   8.834
 4073SOL    HW123561   0.170   4.279   8.793
 4073SOL    HW223562   0.072   4.354   8.901
 4074SOL     OW23563   0.561   3.946   8.595
 4074SOL    HW123564   0.599   3.862   8.632
 4074SOL    HW223565   0.473   3.965   8.639
 4075SOL     OW23566   0.866   4.178   8.090
 4075SOL    HW123567   0.834   4.250   8.028
 4075SOL    HW223568   0.890   4.097   8.037
 4076SOL     OW23569   1.017   3.763   8.201
 4076SOL    HW123570   0.945   3.768   8.132
 4076SOL    HW223571   0.993   3.694   8.270
 4077SOL     OW23572   1.429   4.897   8.315
 4077SOL    HW123573   1.374   4.813   8.308
 4077SOL    HW223574   1.455   4.926   8.223
 4078SOL     OW23575   1.466   4.314   8.440
 4078SOL    HW123576   1.436   4.219   8.447
 4078SOL    HW223577   1.539   4.330   8.506
 4079SOL     OW23578   1.857   4.557   7.825
 4079SOL    HW123579   1.899   4.493   7.889
 4079SOL    HW223580   1.819   4.506   7.747
 4080SOL     OW23581   1.390   4.299   7.526
 4080SOL    HW123582   1.336   4.278   7.607
 4080SOL    HW223583   1.481   4.258   7.535
 4081SOL     OW23584   0.527   3.980   7.776
 4081SOL    HW123585   0.554   3.921   7.701
 4081SOL    HW223586   0.527   4.075   7.745
 4082SOL     OW23587   1.638   4.823   8.527
 4082SOL    HW123588   1.643   4.904   8.586
 4082SOL    HW223589   1.552   4.825   8.476
 4083SOL     OW23590   0.915   3.813   8.850
 4083SOL    HW123591   0.940   3.793   8.755
 4083SOL    HW223592   0.987   3.869   8.892
 4084SOL     OW23593   0.410   4.537   8.699
 4084SOL    HW123594   0.496   4.549   8.749
 4084SOL    HW223595   0.368   4.450   8.726
 4085SOL     OW23596   1.274   4.110   8.710
 4085SOL    HW123597   1.295   4.184   8.774
 4085SOL    HW223598   1.185   4.127   8.667
 4086SOL     OW23599   0.566   4.261   8.313
 4086SOL    HW123600   0.578   4.327   8.239
 4086SOL    HW223601   0.612   4.295   8.396
 4087SOL     OW23602   1.582   4.363   7.920
 4087SOL    HW123603   1.551   4.424   7.993
 4087SOL    HW223604   1.632   4.415   7.851
 4088SOL     OW23605   0.402   4.475   9.046
 4088SOL    HW123606   0.470   4.530   8.999
 4088SOL    HW223607   0.442   4.387   9.073
 4089SOL     OW23608   1.013   3.829   9.218
 4089SOL    HW123609   1.019   3.914   9.166
 4089SOL    HW223610   1.045   3.753   9.161
 4090SOL     OW23611   0.504   3.774   9.188
 4090SOL    HW123612   0.462   3.717   9.118
 4090SOL    HW223613   0.438   3.843   9.220
 4091SOL     OW23614   0.573   4.594   8.477
 4091SOL    HW123615   0.617   4.683   8.468
 4091SOL    HW223616   0.510   4.594   8.554
 4092SOL     OW23617   1.209   4.249   7.723
 4092SOL    HW123618   1.222   4.165   7.777
 4092SOL    HW223619   1.180   4.323   7.783
 4093SOL     OW23620   0.307   3.937   8.679
 4093SOL    HW123621   0.284   3.974   8.769
 4093SOL    HW223622   0.277   3.842   8.673
 4094SOL     OW23623   0.037   5.034   8.730
 4094SOL    HW123624   0.090   4.985   8.798
 4094SOL    HW223625   0.059   5.132   8.735
 4095SOL     OW23626   0.732   4.358   8.512
 4095SOL    HW123627   0.791   4.332   8.436
 4095SOL    HW223628   0.704   4.454   8.501
 4096SOL     OW23629   1.728   4.659   9.302
 4096SOL    HW123630   1.682   4.652   9.213
 4096SOL    HW223631   1.666   4.703   9.368
 4097SOL     OW23632   0.307   3.787   8.066
 4097SOL    HW123633   0.296   3.881   8.099
 4097SOL    HW223634   0.302   3.724   8.143
 4098SOL     OW23635   1.622   4.091   7.822
 4098SOL    HW123636   1.624   4.015   7.886
 4098SOL    HW223637   1.574   4.168   7.862
 4099SOL     OW23638   1.023   4.490   8.414
 4099SOL    HW123639   1.038   4.511   8.510
 4099SOL    HW223640   0.993   4.395   8.405
 4100SOL     OW23641   1.540   3.998   7.573
 4100SOL    HW123642   1.479   3.923   7.596
 4100SOL    HW223643   1.562   4.050   7.656
 4101SOL     OW23644   1.303   4.562   7.490
 4101SOL    HW123645   1.337   4.469   7.505
 4101SOL    HW223646   1.321   4.589   7.395
 4102SOL     OW23647   0.319   4.534   8.397
 4102SOL    HW123648   0.412   4.570   8.402
 4102SOL    HW223649   0.313   4.449   8.449
 4103SOL     OW23650   0.339   4.233   8.454
 4103SOL    HW123651   0.287   4.150   8.437
 4103SOL    HW223652   0.416   4.238   8.390
 4104SOL     OW23653   1.138   4.104   9.126
 4104SOL    HW123654   1.093   4.167   9.190
 4104SOL    HW223655   1.231   4.135   9.109
 4105SOL     OW23656   1.160   3.931   8.925
 4105SOL    HW123657   1.160   3.995   9.002
 4105SOL    HW223658   1.188   3.979   8.842
 4106SOL     OW23659   1.002   4.520   8.686
 4106SOL    HW123660   1.043   4.488   8.772
 4106SOL    HW223661   0.906   4.493   8.683
 4107SOL     OW23662   0.040   4.268   8.562
 4107SOL    HW123663   0.125   4.235   8.521
 4107SOL    HW223664   0.053   4.283   8.660
 4108SOL     OW23665   0.815   4.296   7.773
 4108SOL    HW123666   0.822   4.207   7.727
 4108SOL    HW223667   0.721   4.330   7.765
 4109SOL     OW23668   1.657   4.328   8.654
 4109SOL    HW123669   1.619   4.259   8.716
 4109SOL    HW223670   1.739   4.292   8.610
 4110SOL     OW23671   0.671   4.188   8.717
 4110SOL    HW123672   0.637   4.099   8.687
 4110SOL    HW223673   0.697   4.242   8.637
 4111SOL     OW23674   0.473   4.224   7.639
 4111SOL    HW123675   0.534   4.304   7.643
 4111SOL    HW223676   0.378   4.255   7.646
 4112SOL     OW23677   0.159   4.861   8.914
 4112SOL    HW123678   0.181   4.800   8.990
 4112SOL    HW223679   0.169   4.812   8.828
 4113SOL     OW23680   1.347   4.783   8.682
 4113SOL    HW123681   1.371   4.720   8.608
 4113SOL    HW223682   1.257   4.823   8.664
 4114SOL     OW23683   1.302   4.579   7.757
 4114SOL    HW123684   1.216   4.548   7.799
 4114SOL    HW223685   1.298   4.565   7.658
 4115SOL     OW23686   1.726   3.859   7.971
 4115SOL    HW123687   1.799   3.842   7.904
 4115SOL    HW223688   1.695   3.772   8.009
 4116SOL     OW23689   1.280   4.651   8.120
 4116SOL    HW123690   1.340   4.570   8.122
 4116SOL    HW223691   1.320   4.720   8.060
 4117SOL     OW23692   1.841   3.899   8.411
 4117SOL    HW123693   1.880   3.814   8.375
 4117SOL    HW223694   1.743   3.901   8.392
 4118SOL     OW23695   0.263   4.050   8.168
 4118SOL    HW123696   0.184   4.101   8.134
 4118SOL    HW223697   0.254   4.035   8.266
 4119SOL     OW23698   0.916   4.634   7.739
 4119SOL    HW123699   0.979   4.672   7.671
 4119SOL    HW223700   0.956   4.551   7.778
 4120SOL     OW23701   1.014   3.960   8.419
 4120SOL    HW123702   1.006   3.924   8.326
 4120SOL    HW223703   1.012   3.884   8.484
 4121SOL     OW23704   1.709   4.109   8.829
 4121SOL    HW123705   1.782   4.178   8.833
 4121SOL    HW223706   1.737   4.034   8.770
 4122SOL     OW23707   0.672   3.927   8.937
 4122SOL    HW123708   0.762   3.911   8.897
 4122SOL    HW223709   0.680   3.932   9.036
 4123SOL     OW23710   0.075   4.069   7.481
 4123SOL    HW123711  -0.017   4.041   7.452
 4123SOL    HW223712   0.106   4.146   7.425
 4124SOL     OW23713   0.072   3.890   7.766
 4124SOL    HW123714   0.055   3.973   7.712
 4124SOL    HW223715   0.162   3.853   7.744
 4125SOL     OW23716   1.183   5.059   7.567
 4125SOL    HW123717   1.084   5.048   7.569
 4125SOL    HW223718   1.217   5.074   7.660
 4126SOL     OW23719   0.613   4.566   8.879
 4126SOL    HW123720   0.669   4.647   8.862
 4126SOL    HW223721   0.672   4.486   8.882
 4127SOL     OW23722   0.716   4.289   9.156
 4127SOL    HW123723   0.735   4.354   9.230
 4127SOL    HW223724   0.776   4.209   9.165
 4128SOL     OW23725   1.225   4.049   7.897
 4128SOL    HW123726   1.290   3.975   7.886
 4128SOL    HW223727   1.245   4.099   7.981
 4129SOL     OW23728   0.594   4.469   8.100
 4129SOL    HW123729   0.644   4.554   8.081
 4129SOL    HW223730   0.506   4.471   8.052
 4130SOL     OW23731   0.859   4.680   8.309
 4130SOL    HW123732   0.913   4.611   8.357
 4130SOL    HW223733   0.827   4.749   8.375
 4131SOL     OW23734   1.083   4.708   7.535
 4131SOL    HW123735   1.060   4.761   7.453
 4131SOL    HW223736   1.164   4.652   7.516
 4132SOL     OW23737   0.079   4.964   8.101
 4132SOL    HW123738   0.078   4.917   8.189
 4132SOL    HW223739   0.161   4.936   8.050
 4133SOL     OW23740   1.824   3.916   8.675
 4133SOL    HW123741   1.820   3.826   8.719
 4133SOL    HW223742   1.827   3.905   8.576
 4134SOL     OW23743   0.428   4.148   7.968
 4134SOL    HW123744   0.458   4.076   7.906
 4134SOL    HW223745   0.389   4.108   8.051
 4135SOL     OW23746   0.317   4.271   8.728
 4135SOL    HW123747   0.355   4.212   8.800
 4135SOL    HW223748   0.357   4.245   8.640
 4136SOL     OW23749   1.424   3.938   8.560
 4136SOL    HW123750   1.476   3.873   8.615
 4136SOL    HW223751   1.375   4.001   8.621
 4137SOL     OW23752   1.001   3.758   8.602
 4137SOL    HW123753   0.938   3.686   8.571
 4137SOL    HW223754   1.094   3.722   8.602
 4138SOL     OW23755   1.352   3.776   7.616
 4138SOL    HW123756   1.387   3.735   7.532
 4138SOL    HW223757   1.262   3.738   7.636
 4139SOL     OW23758   1.300   4.177   8.139
 4139SOL    HW123759   1.241   4.257   8.143
 4139SOL    HW223760   1.315   4.142   8.232
 4140SOL     OW23761   1.593   3.945   8.330
 4140SOL    HW123762   1.509   3.944   8.384
 4140SOL    HW223763   1.595   4.028   8.274
 4141SOL     OW23764   0.039   4.801   7.748
 4141SOL    HW123765   0.138   4.790   7.739
 4141SOL    HW223766  -0.001   4.715   7.780
 4142SOL     OW23767   0.225   3.999  10.306
 4142SOL    HW123768   0.260   3.982  10.398
 4142SOL    HW223769   0.137   3.954  10.294
 4143SOL     OW23770   1.135   4.427  10.027
 4143SOL    HW123771   1.192   4.505  10.002
 4143SOL    HW223772   1.075   4.453  10.103
 4144SOL     OW23773   0.438   4.116  10.809
 4144SOL    HW123774   0.520   4.060  10.818
 4144SOL    HW223775   0.357   4.058  10.813
 4145SOL     OW23776   1.689   4.646   9.922
 4145SOL    HW123777   1.784   4.617   9.930
 4145SOL    HW223778   1.681   4.711   9.847
 4146SOL     OW23779   0.317   3.975  11.111
 4146SOL    HW123780   0.388   4.046  11.117
 4146SOL    HW223781   0.229   4.014  11.139
 4147SOL     OW23782   1.281   4.069  10.254
 4147SOL    HW123783   1.195   4.019  10.241
 4147SOL    HW223784   1.343   4.015  10.310
 4148SOL     OW23785   1.394   4.193  10.984
 4148SOL    HW123786   1.374   4.236  11.072
 4148SOL    HW223787   1.472   4.131  10.993
 4149SOL     OW23788   0.076   4.535  10.099
 4149SOL    HW123789   0.175   4.523  10.108
 4149SOL    HW223790   0.052   4.630  10.120
 4150SOL     OW23791   1.458   4.459  10.038
 4150SOL    HW123792   1.453   4.394  10.113
 4150SOL    HW223793   1.538   4.518  10.051
 4151SOL     OW23794   1.547   3.946  11.039
 4151SOL    HW123795   1.542   3.983  11.131
 4151SOL    HW223796   1.475   3.877  11.027
 4152SOL     OW23797   0.614   3.846   9.427
 4152SOL    HW123798   0.712   3.824   9.434
 4152SOL    HW223799   0.583   3.829   9.334
 4153SOL     OW23800   0.922   4.227  10.209
 4153SOL    HW123801   0.897   4.218  10.113
 4153SOL    HW223802   0.970   4.145  10.240
 4154SOL     OW23803   0.297   3.759   9.481
 4154SOL    HW123804   0.346   3.843   9.460
 4154SOL    HW223805   0.359   3.694   9.526
 4155SOL     OW23806   1.032   4.273   9.326
 4155SOL    HW123807   0.991   4.355   9.287
 4155SOL    HW223808   1.096   4.299   9.399
 4156SOL     OW23809   0.561   3.946  10.457
 4156SOL    HW123810   0.599   3.862  10.494
 4156SOL    HW223811   0.473   3.965  10.501
 4157SOL     OW23812   1.857   4.557   9.687
 4157SOL    HW123813   1.899   4.493   9.751
 4157SOL    HW223814   1.819   4.506   9.609
 4158SOL     OW23815   1.390   4.299   9.388
 4158SOL    HW123816   1.336   4.278   9.469
 4158SOL    HW223817   1.481   4.258   9.397
 4159SOL     OW23818   0.402   4.475  10.908
 4159SOL    HW123819   0.470   4.530  10.861
 4159SOL    HW223820   0.442   4.387  10.935
 4160SOL     OW23821   1.587   4.503  10.980
 4160SOL    HW123822   1.495   4.541  10.975
 4160SOL    HW223823   1.647   4.550  10.915
 4161SOL     OW23824   0.504   3.774  11.050
 4161SOL    HW123825   0.462   3.717  10.980
 4161SOL    HW223826   0.438   3.843  11.082
 4162SOL     OW23827   1.360   4.586  10.355
 4162SOL    HW123828   1.285   4.586  10.289
 4162SOL    HW223829   1.397   4.494  10.364
 4163SOL     OW23830   1.209   4.249   9.585
 4163SOL    HW123831   1.222   4.165   9.639
 4163SOL    HW223832   1.180   4.323   9.645
 4164SOL     OW23833   0.037   5.034  10.592
 4164SOL    HW123834   0.090   4.985  10.660
 4164SOL    HW223835   0.059   5.132  10.597
 4165SOL     OW23836   1.728   4.659  11.164
 4165SOL    HW123837   1.682   4.652  11.075
 4165SOL    HW223838   1.666   4.703  11.230
 4166SOL     OW23839   1.023   4.490  10.276
 4166SOL    HW123840   1.038   4.511  10.372
 4166SOL    HW223841   0.993   4.395  10.267
 4167SOL     OW23842   0.350   4.622  11.114
 4167SOL    HW123843   0.426   4.666  11.162
 4167SOL    HW223844   0.385   4.575  11.032
 4168SOL     OW23845   1.540   3.998   9.435
 4168SOL    HW123846   1.479   3.923   9.458
 4168SOL    HW223847   1.562   4.050   9.518
 4169SOL     OW23848   1.303   4.562   9.352
 4169SOL    HW123849   1.337   4.469   9.367
 4169SOL    HW223850   1.321   4.589   9.257
 4170SOL     OW23851   1.002   4.520  10.548
 4170SOL    HW123852   1.043   4.488  10.634
 4170SOL    HW223853   0.906   4.493  10.545
 4171SOL     OW23854   0.040   4.268  10.424
 4171SOL    HW123855   0.125   4.235  10.383
 4171SOL    HW223856   0.053   4.283  10.522
 4172SOL     OW23857   0.671   4.188  10.579
 4172SOL    HW123858   0.637   4.099  10.549
 4172SOL    HW223859   0.697   4.242  10.499
 4173SOL     OW23860   0.159   4.861  10.776
 4173SOL    HW123861   0.181   4.800  10.852
 4173SOL    HW223862   0.169   4.812  10.690
 4174SOL     OW23863   1.280   4.651   9.982
 4174SOL    HW123864   1.340   4.570   9.984
 4174SOL    HW223865   1.320   4.720   9.922
 4175SOL     OW23866   1.014   3.960  10.281
 4175SOL    HW123867   1.006   3.924  10.188
 4175SOL    HW223868   1.012   3.884  10.346
 4176SOL     OW23869   0.105   4.737  11.036
 4176SOL    HW123870   0.028   4.704  11.090
 4176SOL    HW223871   0.190   4.707  11.078
 4177SOL     OW23872   0.672   3.927  10.799
 4177SOL    HW123873   0.762   3.911  10.759
 4177SOL    HW223874   0.680   3.932  10.898
 4178SOL     OW23875   0.072   3.890   9.628
 4178SOL    HW123876   0.055   3.973   9.574
 4178SOL    HW223877   0.162   3.853   9.606
 4179SOL     OW23878   0.613   4.566  10.741
 4179SOL    HW123879   0.669   4.647  10.724
 4179SOL    HW223880   0.672   4.486  10.744
 4180SOL     OW23881   1.225   4.049   9.759
 4180SOL    HW123882   1.290   3.975   9.748
 4180SOL    HW223883   1.245   4.099   9.843
 4181SOL     OW23884   0.859   4.680  10.171
 4181SOL    HW123885   0.913   4.611  10.219
 4181SOL    HW223886   0.827   4.749  10.237
 4182SOL     OW23887   0.079   4.964   9.963
 4182SOL    HW123888   0.078   4.917  10.051
 4182SOL    HW223889   0.161   4.936   9.912
 4183SOL     OW23890   1.352   3.776   9.478
 4183SOL    HW123891   1.387   3.735   9.394
 4183SOL    HW223892   1.262   3.738   9.498
 4184SOL     OW23893   1.300   4.177  10.001
 4184SOL    HW123894   1.241   4.257  10.005
 4184SOL    HW223895   1.315   4.142  10.094
 4185SOL     OW23896   0.039   4.801   9.610
 4185SOL    HW123897   0.138   4.790   9.601
 4185SOL    HW223898  -0.001   4.715   9.642
 4186SOL     OW23899   0.230   4.352  11.285
 4186SOL    HW123900   0.137   4.350  11.322
 4186SOL    HW223901   0.231   4.313  11.193
 4187SOL     OW23902   1.135   4.427  11.889
 4187SOL    HW123903   1.192   4.505  11.864
 4187SOL    HW223904   1.075   4.453  11.965
 4188SOL     OW23905   0.850   4.522  12.995
 4188SOL    HW123906   0.846   4.598  13.060
 4188SOL    HW223907   0.872   4.558  12.904
 4189SOL     OW23908   0.606   4.688  11.295
 4189SOL    HW123909   0.613   4.772  11.241
 4189SOL    HW223910   0.652   4.701  11.383
 4190SOL     OW23911   1.594   3.838  12.652
 4190SOL    HW123912   1.576   3.905  12.580
 4190SOL    HW223913   1.591   3.884  12.741
 4191SOL     OW23914   0.122   4.367  11.735
 4191SOL    HW123915   0.077   4.279  11.752
 4191SOL    HW223916   0.121   4.421  11.819
 4192SOL     OW23917   0.598   4.453  11.442
 4192SOL    HW123918   0.622   4.522  11.374
 4192SOL    HW223919   0.520   4.486  11.496
 4193SOL     OW23920   0.807   4.329  12.637
 4193SOL    HW123921   0.760   4.326  12.726
 4193SOL    HW223922   0.756   4.274  12.571
 4194SOL     OW23923   1.041   4.425  11.601
 4194SOL    HW123924   1.067   4.421  11.697
 4194SOL    HW223925   0.956   4.374  11.587
 4195SOL     OW23926   0.865   4.072  11.367
 4195SOL    HW123927   0.924   4.135  11.318
 4195SOL    HW223928   0.884   3.978  11.338
 4196SOL     OW23929   0.202   4.009  12.670
 4196SOL    HW123930   0.122   4.069  12.657
 4196SOL    HW223931   0.192   3.960  12.756
 4197SOL     OW23932   0.382   4.424  11.652
 4197SOL    HW123933   0.427   4.334  11.649
 4197SOL    HW223934   0.288   4.413  11.685
 4198SOL     OW23935   1.547   3.946  12.901
 4198SOL    HW123936   1.542   3.983  12.993
 4198SOL    HW223937   1.475   3.877  12.889
 4199SOL     OW23938   0.614   3.846  11.289
 4199SOL    HW123939   0.712   3.824  11.296
 4199SOL    HW223940   0.583   3.829  11.196
 4200SOL     OW23941   0.781   3.988  12.921
 4200SOL    HW123942   0.848   3.927  12.964
 4200SOL    HW223943   0.708   4.007  12.986
 4201SOL     OW23944   0.922   4.227  12.071
 4201SOL    HW123945   0.897   4.218  11.975
 4201SOL    HW223946   0.970   4.145  12.102
 4202SOL     OW23947   0.935   3.960  11.652
 4202SOL    HW123948   0.887   4.001  11.574
 4202SOL    HW223949   1.034   3.958  11.633
 4203SOL     OW23950   0.561   3.946  12.319
 4203SOL    HW123951   0.599   3.862  12.356
 4203SOL    HW223952   0.473   3.965  12.363
 4204SOL     OW23953   0.866   4.178  11.814
 4204SOL    HW123954   0.834   4.250  11.752
 4204SOL    HW223955   0.890   4.097  11.761
 4205SOL     OW23956   1.857   4.557  11.549
 4205SOL    HW123957   1.899   4.493  11.613
 4205SOL    HW223958   1.819   4.506  11.471
 4206SOL     OW23959   0.527   3.980  11.500
 4206SOL    HW123960   0.554   3.921  11.425
 4206SOL    HW223961   0.527   4.075  11.469
 4207SOL     OW23962   0.566   4.261  12.037
 4207SOL    HW123963   0.578   4.327  11.963
 4207SOL    HW223964   0.612   4.295  12.120
 4208SOL     OW23965   0.732   4.358  12.236
 4208SOL    HW123966   0.791   4.332  12.160
 4208SOL    HW223967   0.704   4.454  12.225
 4209SOL     OW23968   0.307   3.787  11.790
 4209SOL    HW123969   0.296   3.881  11.823
 4209SOL    HW223970   0.302   3.724  11.867
 4210SOL     OW23971   1.622   4.091  11.546
 4210SOL    HW123972   1.624   4.015  11.610
 4210SOL    HW223973   1.574   4.168  11.586
 4211SOL     OW23974   1.023   4.490  12.138
 4211SOL    HW123975   1.038   4.511  12.234
 4211SOL    HW223976   0.993   4.395  12.129
 4212SOL     OW23977   1.540   3.998  11.297
 4212SOL    HW123978   1.479   3.923  11.320
 4212SOL    HW223979   1.562   4.050  11.380
 4213SOL     OW23980   1.002   4.520  12.410
 4213SOL    HW123981   1.043   4.488  12.496
 4213SOL    HW223982   0.906   4.493  12.407
 4214SOL     OW23983   1.369   4.674  12.832
 4214SOL    HW123984   1.408   4.763  12.852
 4214SOL    HW223985   1.379   4.654  12.735
 4215SOL     OW23986   0.815   4.296  11.497
 4215SOL    HW123987   0.822   4.207  11.451
 4215SOL    HW223988   0.721   4.330  11.489
 4216SOL     OW23989   0.671   4.188  12.441
 4216SOL    HW123990   0.637   4.099  12.411
 4216SOL    HW223991   0.697   4.242  12.361
 4217SOL     OW23992   0.473   4.224  11.363
 4217SOL    HW123993   0.534   4.304  11.367
 4217SOL    HW223994   0.378   4.255  11.370
 4218SOL     OW23995   1.726   3.859  11.695
 4218SOL    HW123996   1.799   3.842  11.628
 4218SOL    HW223997   1.695   3.772  11.733
 4219SOL     OW23998   1.280   4.651  11.844
 4219SOL    HW123999   1.340   4.570  11.846
 4219SOL    HW224000   1.320   4.720  11.784
 4220SOL     OW24001   0.916   4.634  11.463
 4220SOL    HW124002   0.979   4.672  11.395
 4220SOL    HW224003   0.956   4.551  11.502
 4221SOL     OW24004   1.014   3.960  12.143
 4221SOL    HW124005   1.006   3.924  12.050
 4221SOL    HW224006   1.012   3.884  12.208
 4222SOL     OW24007   0.075   4.069  11.205
 4222SOL    HW124008  -0.017   4.041  11.176
 4222SOL    HW224009   0.106   4.146  11.149
 4223SOL     OW24010   0.072   3.890  11.490
 4223SOL    HW124011   0.055   3.973  11.436
 4223SOL    HW224012   0.162   3.853  11.468
 4224SOL     OW24013   0.594   4.469  11.824
 4224SOL    HW124014   0.644   4.554  11.805
 4224SOL    HW224015   0.506   4.471  11.776
 4225SOL     OW24016   1.777   4.066  12.814
 4225SOL    HW124017   1.760   4.097  12.720
 4225SOL    HW224018   1.693   4.029  12.852
 4226SOL     OW24019   1.730   4.658  12.689
 4226SOL    HW124020   1.768   4.749  12.704
 4226SOL    HW224021   1.722   4.641  12.590
 4227SOL     OW24022   1.824   3.916  12.399
 4227SOL    HW124023   1.820   3.826  12.443
 4227SOL    HW224024   1.827   3.905  12.300
 4228SOL     OW24025   0.428   4.148  11.692
 4228SOL    HW124026   0.458   4.076  11.630
 4228SOL    HW224027   0.389   4.108  11.775
 4229SOL     OW24028   1.352   3.776  11.340
 4229SOL    HW124029   1.387   3.735  11.256
 4229SOL    HW224030   1.262   3.738  11.360
 4230SOL     OW24031   0.039   4.801  11.472
 4230SOL    HW124032   0.138   4.790  11.463
 4230SOL    HW224033  -0.001   4.715  11.504
 4231SOL     OW24034   0.225   3.999  14.030
 4231SOL    HW124035   0.260   3.982  14.122
 4231SOL    HW224036   0.137   3.954  14.018
 4232SOL     OW24037   0.019   4.092  13.681
 4232SOL    HW124038  -0.063   4.135  13.720
 4232SOL    HW224039  -0.009   4.019  13.618
 4233SOL     OW24040   0.768   4.868  14.057
 4233SOL    HW124041   0.690   4.885  14.117
 4233SOL    HW224042   0.802   4.955  14.021
 4234SOL     OW24043   0.685   4.736  13.699
 4234SOL    HW124044   0.754   4.720  13.769
 4234SOL    HW224045   0.612   4.793  13.737
 4235SOL     OW24046   0.122   4.367  13.597
 4235SOL    HW124047   0.077   4.279  13.614
 4235SOL    HW224048   0.121   4.421  13.681
 4236SOL     OW24049   1.281   4.069  13.978
 4236SOL    HW124050   1.195   4.019  13.965
 4236SOL    HW224051   1.343   4.015  14.034
 4237SOL     OW24052   1.394   4.193  14.708
 4237SOL    HW124053   1.374   4.236  14.796
 4237SOL    HW224054   1.472   4.131  14.717
 4238SOL     OW24055   0.991   4.134  14.276
 4238SOL    HW124056   0.914   4.168  14.330
 4238SOL    HW224057   0.957   4.083  14.197
 4239SOL     OW24058   0.865   4.072  13.229
 4239SOL    HW124059   0.924   4.135  13.180
 4239SOL    HW224060   0.884   3.978  13.200
 4240SOL     OW24061   1.719   4.309  14.865
 4240SOL    HW124062   1.693   4.398  14.829
 4240SOL    HW224063   1.717   4.241  14.792
 4241SOL     OW24064   0.202   4.009  14.532
 4241SOL    HW124065   0.122   4.069  14.519
 4241SOL    HW224066   0.192   3.960  14.618
 4242SOL     OW24067   0.614   3.846  13.151
 4242SOL    HW124068   0.712   3.824  13.158
 4242SOL    HW224069   0.583   3.829  13.058
 4243SOL     OW24070   0.781   3.988  14.783
 4243SOL    HW124071   0.848   3.927  14.826
 4243SOL    HW224072   0.708   4.007  14.848
 4244SOL     OW24073   1.076   4.407  14.498
 4244SOL    HW124074   0.996   4.346  14.501
 4244SOL    HW224075   1.157   4.354  14.474
 4245SOL     OW24076   0.561   3.946  14.181
 4245SOL    HW124077   0.599   3.862  14.218
 4245SOL    HW224078   0.473   3.965  14.225
 4246SOL     OW24079   0.410   4.537  14.285
 4246SOL    HW124080   0.496   4.549  14.335
 4246SOL    HW224081   0.368   4.450  14.312
 4247SOL     OW24082   0.566   4.261  13.899
 4247SOL    HW124083   0.578   4.327  13.825
 4247SOL    HW224084   0.612   4.295  13.982
 4248SOL     OW24085   1.013   3.829  14.804
 4248SOL    HW124086   1.019   3.914  14.752
 4248SOL    HW224087   1.045   3.753  14.747
 4249SOL     OW24088   0.504   3.774  14.774
 4249SOL    HW124089   0.462   3.717  14.704
 4249SOL    HW224090   0.438   3.843  14.806
 4250SOL     OW24091   0.573   4.594  14.063
 4250SOL    HW124092   0.617   4.683  14.054
 4250SOL    HW224093   0.510   4.594  14.140
 4251SOL     OW24094   0.307   3.937  14.265
 4251SOL    HW124095   0.284   3.974  14.355
 4251SOL    HW224096   0.277   3.842  14.259
 4252SOL     OW24097   0.732   4.358  14.098
 4252SOL    HW124098   0.791   4.332  14.022
 4252SOL    HW224099   0.704   4.454  14.087
 4253SOL     OW24100   0.319   4.534  13.983
 4253SOL    HW124101   0.412   4.570  13.988
 4253SOL    HW224102   0.313   4.449  14.035
 4254SOL     OW24103   0.339   4.233  14.040
 4254SOL    HW124104   0.287   4.150  14.023
 4254SOL    HW224105   0.416   4.238  13.976
 4255SOL     OW24106   1.138   4.104  14.712
 4255SOL    HW124107   1.093   4.167  14.776
 4255SOL    HW224108   1.231   4.135  14.695
 4256SOL     OW24109   0.815   4.296  13.359
 4256SOL    HW124110   0.822   4.207  13.313
 4256SOL    HW224111   0.721   4.330  13.351
 4257SOL     OW24112   0.671   4.188  14.303
 4257SOL    HW124113   0.637   4.099  14.273
 4257SOL    HW224114   0.697   4.242  14.223
 4258SOL     OW24115   1.841   3.899  13.997
 4258SOL    HW124116   1.880   3.814  13.961
 4258SOL    HW224117   1.743   3.901  13.978
 4259SOL     OW24118   0.105   4.737  14.760
 4259SOL    HW124119   0.028   4.704  14.814
 4259SOL    HW224120   0.190   4.707  14.802
 4260SOL     OW24121   0.672   3.927  14.523
 4260SOL    HW124122   0.762   3.911  14.483
 4260SOL    HW224123   0.680   3.932  14.622
 4261SOL     OW24124   0.613   4.566  14.465
 4261SOL    HW124125   0.669   4.647  14.448
 4261SOL    HW224126   0.672   4.486  14.468
 4262SOL     OW24127   0.079   4.964  13.687
 4262SOL    HW124128   0.078   4.917  13.775
 4262SOL    HW224129   0.161   4.936  13.636
 4263SOL     OW24130   1.824   3.916  14.261
 4263SOL    HW124131   1.820   3.826  14.305
 4263SOL    HW224132   1.827   3.905  14.162
 4264SOL     OW24133   0.317   4.271  14.314
 4264SOL    HW124134   0.355   4.212  14.386
 4264SOL    HW224135   0.357   4.245  14.226
 4265SOL     OW24136   1.594   3.838  16.377
 4265SOL    HW124137   1.576   3.905  16.305
 4265SOL    HW224138   1.591   3.884  16.466
 4266SOL     OW24139   0.197   4.700  16.161
 4266SOL    HW124140   0.286   4.655  16.147
 4266SOL    HW224141   0.124   4.635  16.142
 4267SOL     OW24142   0.598   4.453  15.166
 4267SOL    HW124143   0.622   4.522  15.098
 4267SOL    HW224144   0.520   4.486  15.220
 4268SOL     OW24145   1.041   4.425  15.325
 4268SOL    HW124146   1.067   4.421  15.421
 4268SOL    HW224147   0.956   4.374  15.311
 4269SOL     OW24148   1.400   3.831  15.322
 4269SOL    HW124149   1.376   3.794  15.232
 4269SOL    HW224150   1.499   3.847  15.326
 4270SOL     OW24151   0.382   4.424  15.376
 4270SOL    HW124152   0.427   4.334  15.373
 4270SOL    HW224153   0.288   4.413  15.409
 4271SOL     OW24154   0.614   3.846  15.013
 4271SOL    HW124155   0.712   3.824  15.020
 4271SOL    HW224156   0.583   3.829  14.920
 4272SOL     OW24157   0.922   4.227  15.795
 4272SOL    HW124158   0.897   4.218  15.699
 4272SOL    HW224159   0.970   4.145  15.826
 4273SOL     OW24160   0.539   3.788  15.408
 4273SOL    HW124161   0.458   3.789  15.466
 4273SOL    HW224162   0.542   3.871  15.353
 4274SOL     OW24163   0.297   3.759  15.067
 4274SOL    HW124164   0.346   3.843  15.046
 4274SOL    HW224165   0.359   3.694  15.112
 4275SOL     OW24166   0.078   4.280  16.283
 4275SOL    HW124167   0.170   4.279  16.242
 4275SOL    HW224168   0.072   4.354  16.350
 4276SOL     OW24169   0.561   3.946  16.044
 4276SOL    HW124170   0.599   3.862  16.081
 4276SOL    HW224171   0.473   3.965  16.088
 4277SOL     OW24172   1.390   4.299  14.974
 4277SOL    HW124173   1.336   4.278  15.055
 4277SOL    HW224174   1.481   4.258  14.983
 4278SOL     OW24175   1.638   4.823  15.976
 4278SOL    HW124176   1.643   4.904  16.035
 4278SOL    HW224177   1.552   4.825  15.925
 4279SOL     OW24178   1.274   4.110  16.159
 4279SOL    HW124179   1.295   4.184  16.223
 4279SOL    HW224180   1.185   4.127  16.116
 4280SOL     OW24181   0.504   3.774  16.637
 4280SOL    HW124182   0.462   3.717  16.567
 4280SOL    HW224183   0.438   3.843  16.669
 4281SOL     OW24184   0.307   3.937  16.128
 4281SOL    HW124185   0.284   3.974  16.218
 4281SOL    HW224186   0.277   3.842  16.122
 4282SOL     OW24187   0.339   4.233  15.903
 4282SOL    HW124188   0.287   4.150  15.886
 4282SOL    HW224189   0.416   4.238  15.839
 4283SOL     OW24190   1.160   3.931  16.374
 4283SOL    HW124191   1.160   3.995  16.451
 4283SOL    HW224192   1.188   3.979  16.291
 4284SOL     OW24193   1.302   4.579  15.205
 4284SOL    HW124194   1.216   4.548  15.247
 4284SOL    HW224195   1.298   4.565  15.106
 4285SOL     OW24196   1.726   3.859  15.419
 4285SOL    HW124197   1.799   3.842  15.352
 4285SOL    HW224198   1.695   3.772  15.457
 4286SOL     OW24199   1.841   3.899  15.860
 4286SOL    HW124200   1.880   3.814  15.824
 4286SOL    HW224201   1.743   3.901  15.841
 4287SOL     OW24202   0.916   4.634  15.187
 4287SOL    HW124203   0.979   4.672  15.119
 4287SOL    HW224204   0.956   4.551  15.226
 4288SOL     OW24205   1.674   4.607  16.151
 4288SOL    HW124206   1.647   4.518  16.114
 4288SOL    HW224207   1.675   4.675  16.078
 4289SOL     OW24208   1.824   3.916  16.124
 4289SOL    HW124209   1.820   3.826  16.168
 4289SOL    HW224210   1.827   3.905  16.025
 4290SOL     OW24211   1.424   3.938  16.009
 4290SOL    HW124212   1.476   3.873  16.064
 4290SOL    HW224213   1.375   4.001  16.070
 4291SOL     OW24214   1.593   3.945  15.778
 4291SOL    HW124215   1.509   3.944  15.832
 4291SOL    HW224216   1.595   4.028  15.722
 4292SOL     OW24217   0.039   4.801  15.196
 4292SOL    HW124218   0.138   4.790  15.187
 4292SOL    HW224219  -0.001   4.715  15.228
 4293SOL     OW24220   1.135   4.427  17.476
 4293SOL    HW124221   1.192   4.505  17.451
 4293SOL    HW224222   1.075   4.453  17.552
 4294SOL     OW24223   1.603   4.171  17.496
 4294SOL    HW124224   1.529   4.217  17.446
 4294SOL    HW224225   1.654   4.239  17.549
 4295SOL     OW24226   1.689   4.646  17.371
 4295SOL    HW124227   1.784   4.617  17.379
 4295SOL    HW224228   1.681   4.711  17.296
 4296SOL     OW24229   1.281   4.069  17.703
 4296SOL    HW124230   1.195   4.019  17.690
 4296SOL    HW224231   1.343   4.015  17.759
 4297SOL     OW24232   0.865   4.072  16.954
 4297SOL    HW124233   0.924   4.135  16.905
 4297SOL    HW224234   0.884   3.978  16.925
 4298SOL     OW24235   1.458   4.459  17.487
 4298SOL    HW124236   1.453   4.394  17.562
 4298SOL    HW224237   1.538   4.518  17.500
 4299SOL     OW24238   0.382   4.424  17.239
 4299SOL    HW124239   0.427   4.334  17.236
 4299SOL    HW224240   0.288   4.413  17.272
 4300SOL     OW24241   0.922   4.227  17.658
 4300SOL    HW124242   0.897   4.218  17.562
 4300SOL    HW224243   0.970   4.145  17.689
 4301SOL     OW24244   1.582   4.363  17.231
 4301SOL    HW124245   1.551   4.424  17.304
 4301SOL    HW224246   1.632   4.415  17.162
 4302SOL     OW24247   1.209   4.249  17.034
 4302SOL    HW124248   1.222   4.165  17.088
 4302SOL    HW224249   1.180   4.323  17.094
 4303SOL     OW24250   1.622   4.091  17.133
 4303SOL    HW124251   1.624   4.015  17.197
 4303SOL    HW224252   1.574   4.168  17.173
 4304SOL     OW24253   1.160   3.931  18.236
 4304SOL    HW124254   1.160   3.995  18.313
 4304SOL    HW224255   1.188   3.979  18.153
 4305SOL     OW24256   0.040   4.268  17.873
 4305SOL    HW124257   0.125   4.235  17.832
 4305SOL    HW224258   0.053   4.283  17.971
 4306SOL     OW24259   1.657   4.328  17.965
 4306SOL    HW124260   1.619   4.259  18.027
 4306SOL    HW224261   1.739   4.292  17.921
 4307SOL     OW24262   1.726   3.859  17.282
 4307SOL    HW124263   1.799   3.842  17.215
 4307SOL    HW224264   1.695   3.772  17.320
 4308SOL     OW24265   1.841   3.899  17.722
 4308SOL    HW124266   1.880   3.814  17.686
 4308SOL    HW224267   1.743   3.901  17.703
 4309SOL     OW24268   0.263   4.050  17.479
 4309SOL    HW124269   0.184   4.101  17.445
 4309SOL    HW224270   0.254   4.035  17.577
 4310SOL     OW24271   1.709   4.109  18.140
 4310SOL    HW124272   1.782   4.178  18.144
 4310SOL    HW224273   1.737   4.034  18.081
 4311SOL     OW24274   0.072   3.890  17.077
 4311SOL    HW124275   0.055   3.973  17.023
 4311SOL    HW224276   0.162   3.853  17.055
 4312SOL     OW24277   1.225   4.049  17.208
 4312SOL    HW124278   1.290   3.975  17.197
 4312SOL    HW224279   1.245   4.099  17.292
 4313SOL     OW24280   1.824   3.916  17.986
 4313SOL    HW124281   1.820   3.826  18.030
 4313SOL    HW224282   1.827   3.905  17.887
 4314SOL     OW24283   1.424   3.938  17.871
 4314SOL    HW124284   1.476   3.873  17.926
 4314SOL    HW224285   1.375   4.001  17.932
 4315SOL     OW24286   1.300   4.177  17.450
 4315SOL    HW124287   1.241   4.257  17.454
 4315SOL    HW224288   1.315   4.142  17.543
 4316SOL     OW24289   1.593   3.945  17.641
 4316SOL    HW124290   1.509   3.944  17.695
 4316SOL    HW224291   1.595   4.028  17.585
 4317SOL     OW24292   2.092   0.628   0.113
 4317SOL    HW124293   1.999   0.626   0.150
 4317SOL    HW224294   2.093   0.589   0.021
 4318SOL     OW24295   1.881   0.368   0.647
 4318SOL    HW124296   1.799   0.411   0.686
 4318SOL    HW224297   1.853   0.295   0.584
 4319SOL     OW24298   2.997   0.703   0.717
 4319SOL    HW124299   3.054   0.781   0.692
 4319SOL    HW224300   2.937   0.729   0.793
 4320SOL     OW24301   2.712   0.798   1.823
 4320SOL    HW124302   2.708   0.874   1.888
 4320SOL    HW224303   2.734   0.834   1.732
 4321SOL     OW24304   2.548   1.161   1.803
 4321SOL    HW124305   2.608   1.240   1.817
 4321SOL    HW224306   2.462   1.192   1.762
 4322SOL     OW24307   2.197   1.435   1.061
 4322SOL    HW124308   2.119   1.404   1.008
 4322SOL    HW224309   2.255   1.493   1.004
 4323SOL     OW24310   2.989   1.341   1.690
 4323SOL    HW124311   3.036   1.341   1.778
 4323SOL    HW224312   2.941   1.254   1.679
 4324SOL     OW24313   2.092   1.434   0.538
 4324SOL    HW124314   2.066   1.530   0.538
 4324SOL    HW224315   2.021   1.380   0.583
 4325SOL     OW24316   2.468   0.964   0.123
 4325SOL    HW124317   2.475   1.048   0.069
 4325SOL    HW224318   2.514   0.977   0.211
 4326SOL     OW24319   3.456   0.114   1.480
 4326SOL    HW124320   3.438   0.181   1.408
 4326SOL    HW224321   3.453   0.160   1.569
 4327SOL     OW24322   3.704   1.767   0.359
 4327SOL    HW124323   3.758   1.738   0.439
 4327SOL    HW224324   3.734   1.857   0.330
 4328SOL     OW24325   3.551   0.922   0.612
 4328SOL    HW124326   3.646   0.893   0.620
 4328SOL    HW224327   3.543   0.987   0.537
 4329SOL     OW24328   1.975   0.737   1.597
 4329SOL    HW124329   2.063   0.724   1.642
 4329SOL    HW224330   1.962   0.834   1.575
 4330SOL     OW24331   3.155   1.228   1.423
 4330SOL    HW124332   3.192   1.155   1.365
 4330SOL    HW224333   3.207   1.233   1.508
 4331SOL     OW24334   2.059   0.976   1.264
 4331SOL    HW124335   2.148   0.931   1.250
 4331SOL    HW224336   1.986   0.911   1.245
 4332SOL     OW24337   2.179   0.251   1.801
 4332SOL    HW124338   2.250   0.322   1.807
 4332SOL    HW224339   2.091   0.290   1.829
 4333SOL     OW24340   3.328   1.417   0.953
 4333SOL    HW124341   3.269   1.423   1.033
 4333SOL    HW224342   3.313   1.329   0.907
 4334SOL     OW24343   3.256   0.469   1.674
 4334SOL    HW124344   3.236   0.512   1.762
 4334SOL    HW224345   3.334   0.407   1.683
 4335SOL     OW24346   2.727   0.348   0.195
 4335SOL    HW124347   2.786   0.411   0.146
 4335SOL    HW224348   2.746   0.254   0.166
 4336SOL     OW24349   3.581   0.585   1.831
 4336SOL    HW124350   3.555   0.674   1.795
 4336SOL    HW224351   3.579   0.517   1.758
 4337SOL     OW24352   3.089   1.550   1.506
 4337SOL    HW124353   3.095   1.473   1.570
 4337SOL    HW224354   3.037   1.524   1.426
 4338SOL     OW24355   3.320   0.735   0.728
 4338SOL    HW124356   3.315   0.670   0.803
 4338SOL    HW224357   3.400   0.794   0.741
 4339SOL     OW24358   2.323   1.266   1.727
 4339SOL    HW124359   2.273   1.267   1.641
 4339SOL    HW224360   2.260   1.248   1.803
 4340SOL     OW24361   2.973   1.776   0.237
 4340SOL    HW124362   2.913   1.714   0.287
 4340SOL    HW224363   3.004   1.732   0.152
 4341SOL     OW24364   2.064   0.285   1.498
 4341SOL    HW124365   1.984   0.345   1.485
 4341SOL    HW224366   2.054   0.236   1.584
 4342SOL     OW24367   3.262   0.107   0.426
 4342SOL    HW124368   3.238   0.070   0.336
 4342SOL    HW224369   3.361   0.123   0.430
 4343SOL     OW24370   3.409   0.222   1.729
 4343SOL    HW124371   3.404   0.259   1.821
 4343SOL    HW224372   3.337   0.153   1.717
 4344SOL     OW24373   2.476   0.122   0.117
 4344SOL    HW124374   2.574   0.100   0.124
 4344SOL    HW224375   2.445   0.105   0.024
 4345SOL     OW24376   2.750   1.514   1.195
 4345SOL    HW124377   2.727   1.489   1.101
 4345SOL    HW224378   2.811   1.445   1.234
 4346SOL     OW24379   3.213   0.590   1.433
 4346SOL    HW124380   3.241   0.547   1.518
 4346SOL    HW224381   3.238   0.686   1.434
 4347SOL     OW24382   2.665   1.402   0.924
 4347SOL    HW124383   2.755   1.416   0.882
 4347SOL    HW224384   2.594   1.404   0.853
 4348SOL     OW24385   2.784   0.503   0.899
 4348SOL    HW124386   2.759   0.494   0.803
 4348SOL    HW224387   2.832   0.421   0.930
 4349SOL     OW24388   2.159   0.035   0.171
 4349SOL    HW124389   2.208   0.119   0.150
 4349SOL    HW224390   2.221  -0.030   0.216
 4350SOL     OW24391   2.321   1.152   0.741
 4350SOL    HW124392   2.250   1.125   0.806
 4350SOL    HW224393   2.295   1.124   0.648
 4351SOL     OW24394   1.940   0.556   1.386
 4351SOL    HW124395   2.032   0.555   1.345
 4351SOL    HW224396   1.934   0.630   1.453
 4352SOL     OW24397   3.252   0.575   0.078
 4352SOL    HW124398   3.198   0.554   0.159
 4352SOL    HW224399   3.343   0.534   0.087
 4353SOL     OW24400   2.389   0.256   0.328
 4353SOL    HW124401   2.416   0.197   0.253
 4353SOL    HW224402   2.389   0.351   0.297
 4354SOL     OW24403   3.616   1.223   1.588
 4354SOL    HW124404   3.707   1.184   1.575
 4354SOL    HW224405   3.624   1.319   1.612
 4355SOL     OW24406   2.926   1.347   1.340
 4355SOL    HW124407   2.846   1.324   1.395
 4355SOL    HW224408   3.009   1.321   1.389
 4356SOL     OW24409   2.973   1.195   1.100
 4356SOL    HW124410   2.933   1.239   1.181
 4356SOL    HW224411   2.932   1.232   1.017
 4357SOL     OW24412   2.842   1.116   1.719
 4357SOL    HW124413   2.743   1.122   1.729
 4357SOL    HW224414   2.865   1.036   1.663
 4358SOL     OW24415   2.567   1.050   0.368
 4358SOL    HW124416   2.553   1.057   0.467
 4358SOL    HW224417   2.651   0.999   0.350
 4359SOL     OW24418   2.428   0.537   0.865
 4359SOL    HW124419   2.440   0.603   0.791
 4359SOL    HW224420   2.474   0.571   0.948
 4360SOL     OW24421   3.134   1.445   1.142
 4360SOL    HW124422   3.181   1.458   1.229
 4360SOL    HW224423   3.068   1.371   1.151
 4361SOL     OW24424   2.216   1.510   1.329
 4361SOL    HW124425   2.195   1.466   1.242
 4361SOL    HW224426   2.313   1.536   1.332
 4362SOL     OW24427   3.449   0.779   1.670
 4362SOL    HW124428   3.357   0.817   1.665
 4362SOL    HW224429   3.509   0.826   1.605
 4363SOL     OW24430   2.875   0.105   1.770
 4363SOL    HW124431   2.881   0.190   1.718
 4363SOL    HW224432   2.907   0.029   1.713
 4364SOL     OW24433   2.366   0.050   1.740
 4364SOL    HW124434   2.324  -0.007   1.670
 4364SOL    HW224435   2.300   0.119   1.772
 4365SOL     OW24436   3.071   0.525   0.275
 4365SOL    HW124437   3.084   0.441   0.329
 4365SOL    HW224438   3.042   0.599   0.335
 4366SOL     OW24439   2.594   0.634   1.064
 4366SOL    HW124440   2.653   0.608   0.988
 4366SOL    HW224441   2.566   0.730   1.053
 4367SOL     OW24442   3.590   0.935   1.854
 4367SOL    HW124443   3.544   0.928   1.765
 4367SOL    HW224444   3.528   0.979   1.920
 4368SOL     OW24445   2.169   0.063   0.618
 4368SOL    HW124446   2.158   0.157   0.651
 4368SOL    HW224447   2.164   0.000   0.695
 4369SOL     OW24448   3.484   0.367   0.374
 4369SOL    HW124449   3.486   0.291   0.438
 4369SOL    HW224450   3.436   0.444   0.414
 4370SOL     OW24451   2.842   1.573   1.700
 4370SOL    HW124452   2.822   1.617   1.612
 4370SOL    HW224453   2.881   1.482   1.684
 4371SOL     OW24454   2.212   0.898   1.804
 4371SOL    HW124455   2.288   0.942   1.852
 4371SOL    HW224456   2.247   0.851   1.722
 4372SOL     OW24457   3.165   0.838   0.042
 4372SOL    HW124458   3.199   0.745   0.057
 4372SOL    HW224459   3.183   0.865  -0.053
 4373SOL     OW24460   2.930   1.333   0.849
 4373SOL    HW124461   2.937   1.249   0.794
 4373SOL    HW224462   2.992   1.402   0.813
 4374SOL     OW24463   2.181   0.810   0.949
 4374SOL    HW124464   2.274   0.846   0.954
 4374SOL    HW224465   2.175   0.725   1.001
 4375SOL     OW24466   2.201   0.509   1.006
 4375SOL    HW124467   2.149   0.426   0.989
 4375SOL    HW224468   2.278   0.514   0.942
 4376SOL     OW24469   2.366   1.568   0.910
 4376SOL    HW124470   2.432   1.642   0.919
 4376SOL    HW224471   2.410   1.489   0.868
 4377SOL     OW24472   2.051   0.520   1.722
 4377SOL    HW124473   2.110   0.480   1.652
 4377SOL    HW224474   1.993   0.591   1.681
 4378SOL     OW24475   3.231   0.950   1.660
 4378SOL    HW124476   3.270   1.039   1.680
 4378SOL    HW224477   3.241   0.930   1.563
 4379SOL     OW24478   2.114   1.564   1.744
 4379SOL    HW124479   2.084   1.621   1.820
 4379SOL    HW224480   2.107   1.467   1.770
 4380SOL     OW24481   3.209   1.059   1.234
 4380SOL    HW124482   3.233   0.996   1.160
 4380SOL    HW224483   3.119   1.099   1.216
 4381SOL     OW24484   3.164   0.855   0.309
 4381SOL    HW124485   3.078   0.824   0.351
 4381SOL    HW224486   3.160   0.841   0.210
 4382SOL     OW24487   2.550   1.662   1.716
 4382SOL    HW124488   2.494   1.743   1.725
 4382SOL    HW224489   2.602   1.666   1.630
 4383SOL     OW24490   2.765   0.086   0.133
 4383SOL    HW124491   2.816   0.087   0.047
 4383SOL    HW224492   2.821   0.044   0.204
 4384SOL     OW24493   3.142   0.927   0.672
 4384SOL    HW124494   3.202   0.846   0.674
 4384SOL    HW224495   3.182   0.996   0.612
 4385SOL     OW24496   2.692   1.273   1.422
 4385SOL    HW124497   2.687   1.306   1.517
 4385SOL    HW224498   2.606   1.292   1.376
 4386SOL     OW24499   2.125   0.326   0.720
 4386SOL    HW124500   2.046   0.377   0.686
 4386SOL    HW224501   2.116   0.311   0.818
 4387SOL     OW24502   3.056   1.612   0.031
 4387SOL    HW124503   3.062   1.519   0.068
 4387SOL    HW224504   2.997   1.612  -0.049
 4388SOL     OW24505   3.476   1.292   1.289
 4388SOL    HW124506   3.536   1.295   1.369
 4388SOL    HW224507   3.401   1.356   1.302
 4389SOL     OW24508   2.452   1.487   0.491
 4389SOL    HW124509   2.494   1.429   0.421
 4389SOL    HW224510   2.408   1.566   0.447
 4390SOL     OW24511   1.967   1.013   1.726
 4390SOL    HW124512   1.890   0.980   1.780
 4390SOL    HW224513   2.052   0.983   1.768
 4391SOL     OW24514   3.302   0.856   1.398
 4391SOL    HW124515   3.245   0.908   1.335
 4391SOL    HW224516   3.398   0.868   1.374
 4392SOL     OW24517   3.355   1.767   0.959
 4392SOL    HW124518   3.388   1.831   0.890
 4392SOL    HW224519   3.421   1.761   1.034
 4393SOL     OW24520   3.312   1.220   1.633
 4393SOL    HW124521   3.303   1.210   1.732
 4393SOL    HW224522   3.408   1.213   1.607
 4394SOL     OW24523   2.456   0.745   0.652
 4394SOL    HW124524   2.506   0.830   0.633
 4394SOL    HW224525   2.368   0.747   0.604
 4395SOL     OW24526   3.639   0.342   1.642
 4395SOL    HW124527   3.622   0.373   1.548
 4395SOL    HW224528   3.555   0.305   1.680
 4396SOL     OW24529   3.592   0.934   1.517
 4396SOL    HW124530   3.630   1.025   1.532
 4396SOL    HW224531   3.584   0.917   1.418
 4397SOL     OW24532   2.523   1.790   0.953
 4397SOL    HW124533   2.477   1.878   0.940
 4397SOL    HW224534   2.622   1.802   0.946
 4398SOL     OW24535   2.083   1.314   1.844
 4398SOL    HW124536   2.018   1.241   1.823
 4398SOL    HW224537   2.087   1.328   1.942
 4399SOL     OW24538   2.534   1.391   1.624
 4399SOL    HW124539   2.456   1.341   1.662
 4399SOL    HW224540   2.531   1.486   1.655
 4400SOL     OW24541   3.686   0.192   1.227
 4400SOL    HW124542   3.682   0.102   1.271
 4400SOL    HW224543   3.689   0.181   1.128
 4401SOL     OW24544   2.290   0.424   0.520
 4401SOL    HW124545   2.320   0.352   0.458
 4401SOL    HW224546   2.251   0.384   0.603
 4402SOL     OW24547   2.480   1.567   1.284
 4402SOL    HW124548   2.475   1.649   1.341
 4402SOL    HW224549   2.569   1.564   1.239
 4403SOL     OW24550   3.214   0.052   0.168
 4403SOL    HW124551   3.249   0.011   0.084
 4403SOL    HW224552   3.124   0.014   0.188
 4404SOL     OW24553   2.087   0.275   2.858
 4404SOL    HW124554   2.122   0.258   2.950
 4404SOL    HW224555   1.999   0.230   2.846
 4405SOL     OW24556   1.881   0.368   2.509
 4405SOL    HW124557   1.799   0.411   2.548
 4405SOL    HW224558   1.853   0.295   2.446
 4406SOL     OW24559   2.431   1.275   3.027
 4406SOL    HW124560   2.338   1.268   2.990
 4406SOL    HW224561   2.442   1.364   3.071
 4407SOL     OW24562   3.417   1.511   2.565
 4407SOL    HW124563   3.360   1.495   2.646
 4407SOL    HW224564   3.358   1.521   2.485
 4408SOL     OW24565   2.997   0.703   2.579
 4408SOL    HW124566   3.054   0.781   2.554
 4408SOL    HW224567   2.937   0.729   2.655
 4409SOL     OW24568   3.617   0.607   2.093
 4409SOL    HW124569   3.605   0.594   1.994
 4409SOL    HW224570   3.587   0.526   2.142
 4410SOL     OW24571   2.630   1.144   2.885
 4410SOL    HW124572   2.552   1.161   2.945
 4410SOL    HW224573   2.664   1.231   2.849
 4411SOL     OW24574   2.712   0.798   3.685
 4411SOL    HW124575   2.708   0.874   3.750
 4411SOL    HW224576   2.734   0.834   3.594
 4412SOL     OW24577   2.547   1.012   2.527
 4412SOL    HW124578   2.616   0.996   2.597
 4412SOL    HW224579   2.474   1.069   2.565
 4413SOL     OW24580   2.548   1.161   3.665
 4413SOL    HW124581   2.608   1.240   3.679
 4413SOL    HW224582   2.462   1.192   3.624
 4414SOL     OW24583   2.197   1.435   2.923
 4414SOL    HW124584   2.119   1.404   2.870
 4414SOL    HW224585   2.255   1.493   2.866
 4415SOL     OW24586   3.322   1.505   3.201
 4415SOL    HW124587   3.346   1.599   3.227
 4415SOL    HW224588   3.306   1.451   3.283
 4416SOL     OW24589   2.300   0.392   3.361
 4416SOL    HW124590   2.382   0.336   3.370
 4416SOL    HW224591   2.219   0.334   3.365
 4417SOL     OW24592   3.465   0.447   2.599
 4417SOL    HW124593   3.391   0.493   2.549
 4417SOL    HW224594   3.516   0.515   2.652
 4418SOL     OW24595   2.093   1.713   2.345
 4418SOL    HW124596   2.127   1.790   2.399
 4418SOL    HW224597   2.137   1.713   2.255
 4419SOL     OW24598   2.989   1.341   3.552
 4419SOL    HW124599   3.036   1.341   3.640
 4419SOL    HW224600   2.941   1.254   3.541
 4420SOL     OW24601   2.092   1.434   2.400
 4420SOL    HW124602   2.066   1.530   2.400
 4420SOL    HW224603   2.021   1.380   2.445
 4421SOL     OW24604   2.102   1.091   2.748
 4421SOL    HW124605   2.116   1.007   2.800
 4421SOL    HW224606   2.047   1.155   2.803
 4422SOL     OW24607   2.482   1.786   3.301
 4422SOL    HW124608   2.390   1.769   3.336
 4422SOL    HW224609   2.510   1.878   3.327
 4423SOL     OW24610   2.468   0.964   1.985
 4423SOL    HW124611   2.475   1.048   1.931
 4423SOL    HW224612   2.514   0.977   2.073
 4424SOL     OW24613   3.456   0.114   3.342
 4424SOL    HW124614   3.438   0.181   3.270
 4424SOL    HW224615   3.453   0.160   3.431
 4425SOL     OW24616   1.984   0.643   2.425
 4425SOL    HW124617   1.939   0.555   2.442
 4425SOL    HW224618   1.983   0.697   2.509
 4426SOL     OW24619   3.704   1.767   2.221
 4426SOL    HW124620   3.758   1.738   2.301
 4426SOL    HW224621   3.734   1.857   2.192
 4427SOL     OW24622   3.551   0.922   2.474
 4427SOL    HW124623   3.646   0.893   2.482
 4427SOL    HW224624   3.543   0.987   2.399
 4428SOL     OW24625   3.503   1.108   2.294
 4428SOL    HW124626   3.589   1.110   2.242
 4428SOL    HW224627   3.517   1.155   2.382
 4429SOL     OW24628   1.975   0.737   3.459
 4429SOL    HW124629   2.063   0.724   3.504
 4429SOL    HW224630   1.962   0.834   3.437
 4430SOL     OW24631   2.475   1.365   2.588
 4430SOL    HW124632   2.426   1.278   2.597
 4430SOL    HW224633   2.452   1.408   2.501
 4431SOL     OW24634   3.155   1.228   3.285
 4431SOL    HW124635   3.192   1.155   3.227
 4431SOL    HW224636   3.207   1.233   3.370
 4432SOL     OW24637   2.671   0.004   2.364
 4432SOL    HW124638   2.711   0.095   2.355
 4432SOL    HW224639   2.571   0.012   2.370
 4433SOL     OW24640   2.059   0.976   3.126
 4433SOL    HW124641   2.148   0.931   3.112
 4433SOL    HW224642   1.986   0.911   3.107
 4434SOL     OW24643   3.387   0.999   2.052
 4434SOL    HW124644   3.324   0.923   2.065
 4434SOL    HW224645   3.435   1.017   2.138
 4435SOL     OW24646   3.049   1.792   3.478
 4435SOL    HW124647   3.073   1.852   3.402
 4435SOL    HW224648   3.056   1.697   3.448
 4436SOL     OW24649   2.179   0.251   3.663
 4436SOL    HW124650   2.250   0.322   3.669
 4436SOL    HW224651   2.091   0.290   3.691
 4437SOL     OW24652   3.328   1.417   2.815
 4437SOL    HW124653   3.269   1.423   2.895
 4437SOL    HW224654   3.313   1.329   2.769
 4438SOL     OW24655   3.529   1.714   2.434
 4438SOL    HW124656   3.488   1.691   2.346
 4438SOL    HW224657   3.511   1.640   2.499
 4439SOL     OW24658   2.460   0.729   2.132
 4439SOL    HW124659   2.484   0.798   2.064
 4439SOL    HW224660   2.382   0.762   2.186
 4440SOL     OW24661   3.143   0.345   2.806
 4440SOL    HW124662   3.057   0.295   2.793
 4440SOL    HW224663   3.205   0.291   2.862
 4441SOL     OW24664   3.438   1.662   2.169
 4441SOL    HW124665   3.527   1.708   2.172
 4441SOL    HW224666   3.417   1.638   2.074
 4442SOL     OW24667   2.669   0.605   3.327
 4442SOL    HW124668   2.622   0.602   3.416
 4442SOL    HW224669   2.618   0.550   3.261
 4443SOL     OW24670   3.256   0.469   3.536
 4443SOL    HW124671   3.236   0.512   3.624
 4443SOL    HW224672   3.334   0.407   3.545
 4444SOL     OW24673   2.835   0.890   3.434
 4444SOL    HW124674   2.881   0.806   3.405
 4444SOL    HW224675   2.779   0.924   3.359
 4445SOL     OW24676   2.853   0.410   3.104
 4445SOL    HW124677   2.776   0.444   3.158
 4445SOL    HW224678   2.819   0.359   3.025
 4446SOL     OW24679   2.903   0.701   2.291
 4446SOL    HW124680   2.929   0.697   2.387
 4446SOL    HW224681   2.818   0.650   2.277
 4447SOL     OW24682   1.938   0.811   2.651
 4447SOL    HW124683   2.037   0.799   2.660
 4447SOL    HW224684   1.914   0.906   2.672
 4448SOL     OW24685   1.992   1.821   3.433
 4448SOL    HW124686   1.982   1.806   3.532
 4448SOL    HW224687   1.906   1.857   3.397
 4449SOL     OW24688   3.581   0.585   3.693
 4449SOL    HW124689   3.555   0.674   3.657
 4449SOL    HW224690   3.579   0.517   3.620
 4450SOL     OW24691   3.224   1.144   2.407
 4450SOL    HW124692   3.307   1.115   2.359
 4450SOL    HW224693   3.175   1.211   2.351
 4451SOL     OW24694   2.412   0.196   2.747
 4451SOL    HW124695   2.407   0.191   2.847
 4451SOL    HW224696   2.414   0.292   2.718
 4452SOL     OW24697   2.870   1.456   2.339
 4452SOL    HW124698   2.824   1.528   2.287
 4452SOL    HW224699   2.866   1.476   2.437
 4453SOL     OW24700   2.213   1.801   2.715
 4453SOL    HW124701   2.263   1.715   2.721
 4453SOL    HW224702   2.278   1.878   2.712
 4454SOL     OW24703   3.657   1.066   2.735
 4454SOL    HW124704   3.595   1.051   2.659
 4454SOL    HW224705   3.605   1.077   2.820
 4455SOL     OW24706   3.089   1.550   3.368
 4455SOL    HW124707   3.095   1.473   3.432
 4455SOL    HW224708   3.037   1.524   3.288
 4456SOL     OW24709   2.183   0.943   2.104
 4456SOL    HW124710   2.265   0.982   2.062
 4456SOL    HW224711   2.156   0.861   2.055
 4457SOL     OW24712   3.320   0.735   2.590
 4457SOL    HW124713   3.315   0.670   2.665
 4457SOL    HW224714   3.400   0.794   2.603
 4458SOL     OW24715   2.323   1.266   3.589
 4458SOL    HW124716   2.273   1.267   3.503
 4458SOL    HW224717   2.260   1.248   3.665
 4459SOL     OW24718   2.973   1.776   2.099
 4459SOL    HW124719   2.913   1.714   2.149
 4459SOL    HW224720   3.004   1.732   2.014
 4460SOL     OW24721   2.064   0.285   3.360
 4460SOL    HW124722   1.984   0.345   3.347
 4460SOL    HW224723   2.054   0.236   3.446
 4461SOL     OW24724   3.494   1.377   1.943
 4461SOL    HW124725   3.462   1.471   1.933
 4461SOL    HW224726   3.418   1.314   1.931
 4462SOL     OW24727   2.326   1.743   2.185
 4462SOL    HW124728   2.359   1.782   2.271
 4462SOL    HW224729   2.402   1.736   2.120
 4463SOL     OW24730   3.262   0.107   2.288
 4463SOL    HW124731   3.238   0.070   2.198
 4463SOL    HW224732   3.361   0.123   2.292
 4464SOL     OW24733   2.111   1.785   3.103
 4464SOL    HW124734   2.168   1.720   3.153
 4464SOL    HW224735   2.095   1.752   3.010
 4465SOL     OW24736   2.802   1.698   2.766
 4465SOL    HW124737   2.882   1.641   2.787
 4465SOL    HW224738   2.753   1.658   2.689
 4466SOL     OW24739   2.244   0.700   2.342
 4466SOL    HW124740   2.289   0.610   2.339
 4466SOL    HW224741   2.150   0.689   2.375
 4467SOL     OW24742   3.409   0.222   3.591
 4467SOL    HW124743   3.404   0.259   3.683
 4467SOL    HW224744   3.337   0.153   3.579
 4468SOL     OW24745   2.476   0.122   1.979
 4468SOL    HW124746   2.574   0.100   1.986
 4468SOL    HW224747   2.445   0.105   1.886
 4469SOL     OW24748   2.643   0.264   3.611
 4469SOL    HW124749   2.710   0.203   3.654
 4469SOL    HW224750   2.570   0.283   3.676
 4470SOL     OW24751   2.750   1.514   3.057
 4470SOL    HW124752   2.727   1.489   2.963
 4470SOL    HW224753   2.811   1.445   3.096
 4471SOL     OW24754   3.213   0.590   3.295
 4471SOL    HW124755   3.241   0.547   3.380
 4471SOL    HW224756   3.238   0.686   3.296
 4472SOL     OW24757   2.665   1.402   2.786
 4472SOL    HW124758   2.755   1.416   2.744
 4472SOL    HW224759   2.594   1.404   2.715
 4473SOL     OW24760   2.784   0.503   2.761
 4473SOL    HW124761   2.759   0.494   2.665
 4473SOL    HW224762   2.832   0.421   2.792
 4474SOL     OW24763   2.401   0.064   2.374
 4474SOL    HW124764   2.320   0.065   2.432
 4474SOL    HW224765   2.404   0.147   2.319
 4475SOL     OW24766   3.296   1.188   1.903
 4475SOL    HW124767   3.328   1.112   1.960
 4475SOL    HW224768   3.204   1.215   1.933
 4476SOL     OW24769   2.159   0.035   2.033
 4476SOL    HW124770   2.208   0.119   2.012
 4476SOL    HW224771   2.221  -0.030   2.078
 4477SOL     OW24772   2.797   0.236   2.342
 4477SOL    HW124773   2.749   0.277   2.264
 4477SOL    HW224774   2.896   0.234   2.323
 4478SOL     OW24775   2.938   0.683   3.326
 4478SOL    HW124776   2.858   0.622   3.329
 4478SOL    HW224777   3.019   0.630   3.302
 4479SOL     OW24778   3.089   1.570   2.655
 4479SOL    HW124779   3.110   1.644   2.590
 4479SOL    HW224780   3.157   1.570   2.728
 4480SOL     OW24781   2.321   1.152   2.603
 4480SOL    HW124782   2.250   1.125   2.668
 4480SOL    HW224783   2.295   1.124   2.510
 4481SOL     OW24784   3.133   1.797   2.453
 4481SOL    HW124785   3.177   1.861   2.389
 4481SOL    HW224786   3.083   1.849   2.523
 4482SOL     OW24787   2.894   0.549   1.878
 4482SOL    HW124788   2.853   0.631   1.839
 4482SOL    HW224789   2.958   0.575   1.951
 4483SOL     OW24790   1.940   0.556   3.248
 4483SOL    HW124791   2.032   0.555   3.207
 4483SOL    HW224792   1.934   0.630   3.315
 4484SOL     OW24793   2.423   0.222   3.009
 4484SOL    HW124794   2.461   0.138   3.046
 4484SOL    HW224795   2.335   0.241   3.053
 4485SOL     OW24796   2.728   0.454   2.504
 4485SOL    HW124797   2.696   0.526   2.442
 4485SOL    HW224798   2.752   0.373   2.451
 4486SOL     OW24799   2.879   0.039   2.615
 4486SOL    HW124800   2.807   0.044   2.546
 4486SOL    HW224801   2.855  -0.030   2.684
 4487SOL     OW24802   3.291   1.173   2.729
 4487SOL    HW124803   3.236   1.089   2.722
 4487SOL    HW224804   3.317   1.202   2.637
 4488SOL     OW24805   3.328   0.590   2.854
 4488SOL    HW124806   3.298   0.495   2.861
 4488SOL    HW224807   3.401   0.606   2.920
 4489SOL     OW24808   3.719   0.833   2.239
 4489SOL    HW124809   3.761   0.769   2.303
 4489SOL    HW224810   3.681   0.782   2.161
 4490SOL     OW24811   2.350   1.385   2.036
 4490SOL    HW124812   2.263   1.370   2.083
 4490SOL    HW224813   2.333   1.411   1.941
 4491SOL     OW24814   3.526   1.280   2.519
 4491SOL    HW124815   3.625   1.288   2.533
 4491SOL    HW224816   3.481   1.364   2.550
 4492SOL     OW24817   3.252   0.575   1.940
 4492SOL    HW124818   3.198   0.554   2.021
 4492SOL    HW224819   3.343   0.534   1.949
 4493SOL     OW24820   2.389   0.256   2.190
 4493SOL    HW124821   2.416   0.197   2.115
 4493SOL    HW224822   2.389   0.351   2.159
 4494SOL     OW24823   3.616   1.223   3.450
 4494SOL    HW124824   3.707   1.184   3.437
 4494SOL    HW224825   3.624   1.319   3.474
 4495SOL     OW24826   2.926   1.347   3.202
 4495SOL    HW124827   2.846   1.324   3.257
 4495SOL    HW224828   3.009   1.321   3.251
 4496SOL     OW24829   3.454   1.629   3.487
 4496SOL    HW124830   3.481   1.663   3.397
 4496SOL    HW224831   3.533   1.591   3.533
 4497SOL     OW24832   2.973   1.195   2.962
 4497SOL    HW124833   2.933   1.239   3.043
 4497SOL    HW224834   2.932   1.232   2.879
 4498SOL     OW24835   3.500   1.099   2.941
 4498SOL    HW124836   3.505   1.180   3.000
 4498SOL    HW224837   3.414   1.101   2.890
 4499SOL     OW24838   2.777   0.089   3.264
 4499SOL    HW124839   2.802   0.069   3.169
 4499SOL    HW224840   2.849   0.145   3.306
 4500SOL     OW24841   2.842   1.116   3.581
 4500SOL    HW124842   2.743   1.122   3.591
 4500SOL    HW224843   2.865   1.036   3.525
 4501SOL     OW24844   2.567   1.050   2.230
 4501SOL    HW124845   2.553   1.057   2.329
 4501SOL    HW224846   2.651   0.999   2.212
 4502SOL     OW24847   2.272   0.813   3.113
 4502SOL    HW124848   2.358   0.825   3.163
 4502SOL    HW224849   2.230   0.726   3.140
 4503SOL     OW24850   3.136   0.386   3.124
 4503SOL    HW124851   3.157   0.460   3.188
 4503SOL    HW224852   3.047   0.403   3.081
 4504SOL     OW24853   1.926   1.564   3.193
 4504SOL    HW124854   1.880   1.646   3.159
 4504SOL    HW224855   2.024   1.583   3.202
 4505SOL     OW24856   2.229   1.100   2.363
 4505SOL    HW124857   2.222   1.183   2.307
 4505SOL    HW224858   2.233   1.020   2.303
 4506SOL     OW24859   2.428   0.537   2.727
 4506SOL    HW124860   2.440   0.603   2.653
 4506SOL    HW224861   2.474   0.571   2.810
 4507SOL     OW24862   3.114   1.348   2.250
 4507SOL    HW124863   3.164   1.425   2.290
 4507SOL    HW224864   3.019   1.350   2.282
 4508SOL     OW24865   3.134   1.445   3.004
 4508SOL    HW124866   3.181   1.458   3.091
 4508SOL    HW224867   3.068   1.371   3.013
 4509SOL     OW24868   3.444   0.639   2.334
 4509SOL    HW124869   3.413   0.700   2.407
 4509SOL    HW224870   3.494   0.691   2.265
 4510SOL     OW24871   2.216   1.510   3.191
 4510SOL    HW124872   2.195   1.466   3.104
 4510SOL    HW224873   2.313   1.536   3.194
 4511SOL     OW24874   2.264   0.751   3.460
 4511SOL    HW124875   2.332   0.806   3.413
 4511SOL    HW224876   2.304   0.663   3.487
 4512SOL     OW24877   3.449   0.779   3.532
 4512SOL    HW124878   3.357   0.817   3.527
 4512SOL    HW224879   3.509   0.826   3.467
 4513SOL     OW24880   2.875   0.105   3.632
 4513SOL    HW124881   2.881   0.190   3.580
 4513SOL    HW224882   2.907   0.029   3.575
 4514SOL     OW24883   2.366   0.050   3.602
 4514SOL    HW124884   2.324  -0.007   3.532
 4514SOL    HW224885   2.300   0.119   3.634
 4515SOL     OW24886   2.435   0.870   2.891
 4515SOL    HW124887   2.479   0.959   2.882
 4515SOL    HW224888   2.372   0.870   2.968
 4516SOL     OW24889   3.222   0.862   2.907
 4516SOL    HW124890   3.147   0.862   2.841
 4516SOL    HW224891   3.259   0.770   2.916
 4517SOL     OW24892   3.071   0.525   2.137
 4517SOL    HW124893   3.084   0.441   2.191
 4517SOL    HW224894   3.042   0.599   2.197
 4518SOL     OW24895   2.169   0.213   3.093
 4518SOL    HW124896   2.146   0.250   3.183
 4518SOL    HW224897   2.139   0.118   3.087
 4519SOL     OW24898   1.899   1.310   3.144
 4519SOL    HW124899   1.952   1.261   3.212
 4519SOL    HW224900   1.921   1.408   3.149
 4520SOL     OW24901   2.594   0.634   2.926
 4520SOL    HW124902   2.653   0.608   2.850
 4520SOL    HW224903   2.566   0.730   2.915
 4521SOL     OW24904   3.590   0.935   3.716
 4521SOL    HW124905   3.544   0.928   3.627
 4521SOL    HW224906   3.528   0.979   3.782
 4522SOL     OW24907   2.169   0.063   2.480
 4522SOL    HW124908   2.158   0.157   2.513
 4522SOL    HW224909   2.164   0.000   2.557
 4523SOL     OW24910   3.484   0.367   2.236
 4523SOL    HW124911   3.486   0.291   2.300
 4523SOL    HW224912   3.436   0.444   2.276
 4524SOL     OW24913   2.885   0.766   2.828
 4524SOL    HW124914   2.900   0.787   2.924
 4524SOL    HW224915   2.855   0.671   2.819
 4525SOL     OW24916   2.842   1.573   3.562
 4525SOL    HW124917   2.822   1.617   3.474
 4525SOL    HW224918   2.881   1.482   3.546
 4526SOL     OW24919   3.721   1.518   3.467
 4526SOL    HW124920   3.735   1.545   3.372
 4526SOL    HW224921   3.804   1.540   3.520
 4527SOL     OW24922   2.212   0.898   3.666
 4527SOL    HW124923   2.288   0.942   3.714
 4527SOL    HW224924   2.247   0.851   3.584
 4528SOL     OW24925   3.402   0.274   1.987
 4528SOL    HW124926   3.341   0.199   2.010
 4528SOL    HW224927   3.424   0.326   2.070
 4529SOL     OW24928   3.165   0.838   1.904
 4529SOL    HW124929   3.199   0.745   1.919
 4529SOL    HW224930   3.183   0.865   1.809
 4530SOL     OW24931   2.930   1.333   2.711
 4530SOL    HW124932   2.937   1.249   2.656
 4530SOL    HW224933   2.992   1.402   2.675
 4531SOL     OW24934   2.181   0.810   2.811
 4531SOL    HW124935   2.274   0.846   2.816
 4531SOL    HW224936   2.175   0.725   2.863
 4532SOL     OW24937   2.201   0.509   2.868
 4532SOL    HW124938   2.149   0.426   2.851
 4532SOL    HW224939   2.278   0.514   2.804
 4533SOL     OW24940   3.000   0.380   3.540
 4533SOL    HW124941   2.955   0.443   3.604
 4533SOL    HW224942   3.093   0.411   3.523
 4534SOL     OW24943   3.022   0.207   3.339
 4534SOL    HW124944   3.022   0.271   3.416
 4534SOL    HW224945   3.050   0.255   3.256
 4535SOL     OW24946   1.870   1.326   2.062
 4535SOL    HW124947   1.777   1.347   2.031
 4535SOL    HW224948   1.880   1.227   2.075
 4536SOL     OW24949   1.950   1.801   2.789
 4536SOL    HW124950   1.908   1.715   2.762
 4536SOL    HW224951   2.044   1.804   2.755
 4537SOL     OW24952   2.366   1.568   2.772
 4537SOL    HW124953   2.432   1.642   2.781
 4537SOL    HW224954   2.410   1.489   2.730
 4538SOL     OW24955   2.864   0.796   3.100
 4538SOL    HW124956   2.905   0.764   3.186
 4538SOL    HW224957   2.768   0.769   3.097
 4539SOL     OW24958   1.902   0.544   2.976
 4539SOL    HW124959   1.987   0.511   2.935
 4539SOL    HW224960   1.915   0.559   3.074
 4540SOL     OW24961   2.051   0.520   3.584
 4540SOL    HW124962   2.110   0.480   3.514
 4540SOL    HW224963   1.993   0.591   3.543
 4541SOL     OW24964   3.231   0.950   3.522
 4541SOL    HW124965   3.270   1.039   3.542
 4541SOL    HW224966   3.241   0.930   3.425
 4542SOL     OW24967   2.677   0.572   2.187
 4542SOL    HW124968   2.684   0.483   2.141
 4542SOL    HW224969   2.583   0.606   2.179
 4543SOL     OW24970   3.519   0.604   3.068
 4543SOL    HW124971   3.481   0.535   3.130
 4543SOL    HW224972   3.601   0.568   3.024
 4544SOL     OW24973   2.114   1.564   3.606
 4544SOL    HW124974   2.084   1.621   3.682
 4544SOL    HW224975   2.107   1.467   3.632
 4545SOL     OW24976   2.533   0.464   3.131
 4545SOL    HW124977   2.499   0.375   3.101
 4545SOL    HW224978   2.559   0.518   3.051
 4546SOL     OW24979   2.792   1.678   3.327
 4546SOL    HW124980   2.768   1.660   3.232
 4546SOL    HW224981   2.822   1.772   3.337
 4547SOL     OW24982   2.021   1.137   3.328
 4547SOL    HW124983   2.043   1.076   3.404
 4547SOL    HW224984   2.031   1.088   3.242
 4548SOL     OW24985   3.209   1.059   3.096
 4548SOL    HW124986   3.233   0.996   3.022
 4548SOL    HW224987   3.119   1.099   3.078
 4549SOL     OW24988   3.164   0.855   2.171
 4549SOL    HW124989   3.078   0.824   2.213
 4549SOL    HW224990   3.160   0.841   2.072
 4550SOL     OW24991   3.621   1.747   3.016
 4550SOL    HW124992   3.682   1.777   2.943
 4550SOL    HW224993   3.583   1.658   2.994
 4551SOL     OW24994   3.114   1.731   2.990
 4551SOL    HW124995   3.198   1.736   2.936
 4551SOL    HW224996   3.091   1.635   3.008
 4552SOL     OW24997   1.945   1.258   2.884
 4552SOL    HW124998   1.940   1.257   2.984
 4552SOL    HW224999   1.862   1.217   2.846
 4553SOL     OW25000   2.550   1.662   3.578
 4553SOL    HW125001   2.494   1.743   3.587
 4553SOL    HW225002   2.602   1.666   3.492
 4554SOL     OW25003   3.588   0.135   2.385
 4554SOL    HW125004   3.661   0.118   2.318
 4554SOL    HW225005   3.557   0.048   2.423
 4555SOL     OW25006   3.250   1.573   2.339
 4555SOL    HW125007   3.317   1.585   2.265
 4555SOL    HW225008   3.210   1.662   2.362
 4556SOL     OW25009   1.992   1.794   3.713
 4556SOL    HW125010   1.951   1.720   3.766
 4556SOL    HW225011   2.056   1.845   3.771
 4557SOL     OW25012   3.142   0.927   2.534
 4557SOL    HW125013   3.202   0.846   2.536
 4557SOL    HW225014   3.182   0.996   2.474
 4558SOL     OW25015   2.692   1.273   3.284
 4558SOL    HW125016   2.687   1.306   3.379
 4558SOL    HW225017   2.606   1.292   3.238
 4559SOL     OW25018   2.534   1.616   2.016
 4559SOL    HW125019   2.543   1.626   1.917
 4559SOL    HW225020   2.494   1.527   2.037
 4560SOL     OW25021   3.512   1.720   3.256
 4560SOL    HW125022   3.565   1.730   3.172
 4560SOL    HW225023   3.485   1.810   3.290
 4561SOL     OW25024   3.703   0.175   2.825
 4561SOL    HW125025   3.742   0.090   2.789
 4561SOL    HW225026   3.605   0.177   2.806
 4562SOL     OW25027   2.125   0.326   2.582
 4562SOL    HW125028   2.046   0.377   2.548
 4562SOL    HW225029   2.116   0.311   2.680
 4563SOL     OW25030   3.056   1.612   1.893
 4563SOL    HW125031   3.062   1.519   1.930
 4563SOL    HW225032   2.997   1.612   1.813
 4564SOL     OW25033   2.684   1.002   3.234
 4564SOL    HW125034   2.724   1.001   3.142
 4564SOL    HW225035   2.694   1.094   3.274
 4565SOL     OW25036   2.778   0.910   2.153
 4565SOL    HW125037   2.841   0.948   2.085
 4565SOL    HW225038   2.818   0.827   2.192
 4566SOL     OW25039   3.366   1.607   1.906
 4566SOL    HW125040   3.274   1.644   1.913
 4566SOL    HW225041   3.404   1.627   1.816
 4567SOL     OW25042   2.234   1.288   3.352
 4567SOL    HW125043   2.221   1.381   3.318
 4567SOL    HW225044   2.150   1.236   3.339
 4568SOL     OW25045   3.476   1.292   3.151
 4568SOL    HW125046   3.536   1.295   3.231
 4568SOL    HW225047   3.401   1.356   3.164
 4569SOL     OW25048   2.901   1.098   2.558
 4569SOL    HW125049   2.831   1.051   2.612
 4569SOL    HW225050   2.960   1.030   2.515
 4570SOL     OW25051   2.876   0.236   2.833
 4570SOL    HW125052   2.868   0.200   2.740
 4570SOL    HW225053   2.874   0.160   2.898
 4571SOL     OW25054   2.452   1.487   2.353
 4571SOL    HW125055   2.494   1.429   2.283
 4571SOL    HW225056   2.408   1.566   2.309
 4572SOL     OW25057   3.571   0.385   3.243
 4572SOL    HW125058   3.644   0.454   3.247
 4572SOL    HW225059   3.599   0.310   3.184
 4573SOL     OW25060   2.117   1.348   2.152
 4573SOL    HW125061   2.021   1.349   2.125
 4573SOL    HW225062   2.129   1.401   2.236
 4574SOL     OW25063   1.967   1.013   3.588
 4574SOL    HW125064   1.890   0.980   3.642
 4574SOL    HW225065   2.052   0.983   3.630
 4575SOL     OW25066   2.534   0.203   3.351
 4575SOL    HW125067   2.624   0.187   3.311
 4575SOL    HW225068   2.542   0.208   3.450
 4576SOL     OW25069   1.937   0.345   1.895
 4576SOL    HW125070   1.845   0.317   1.866
 4576SOL    HW225071   1.968   0.422   1.839
 4577SOL     OW25072   3.302   0.856   3.260
 4577SOL    HW125073   3.245   0.908   3.197
 4577SOL    HW225074   3.398   0.868   3.236
 4578SOL     OW25075   1.934   0.166   2.180
 4578SOL    HW125076   1.917   0.249   2.126
 4578SOL    HW225077   2.024   0.129   2.158
 4579SOL     OW25078   3.045   1.335   1.981
 4579SOL    HW125079   2.946   1.324   1.983
 4579SOL    HW225080   3.079   1.350   2.074
 4580SOL     OW25081   2.475   0.842   3.293
 4580SOL    HW125082   2.531   0.923   3.276
 4580SOL    HW225083   2.534   0.762   3.296
 4581SOL     OW25084   3.355   1.767   2.821
 4581SOL    HW125085   3.388   1.831   2.752
 4581SOL    HW225086   3.421   1.761   2.896
 4582SOL     OW25087   2.578   0.565   3.570
 4582SOL    HW125088   2.597   0.630   3.644
 4582SOL    HW225089   2.638   0.485   3.579
 4583SOL     OW25090   3.312   1.220   3.495
 4583SOL    HW125091   3.303   1.210   3.594
 4583SOL    HW225092   3.408   1.213   3.469
 4584SOL     OW25093   2.252   1.741   3.422
 4584SOL    HW125094   2.161   1.782   3.420
 4584SOL    HW225095   2.245   1.647   3.454
 4585SOL     OW25096   3.536   0.883   3.116
 4585SOL    HW125097   3.509   0.794   3.079
 4585SOL    HW225098   3.537   0.951   3.043
 4586SOL     OW25099   3.087   0.325   2.311
 4586SOL    HW125100   3.152   0.251   2.300
 4586SOL    HW225101   3.107   0.375   2.395
 4587SOL     OW25102   2.456   0.745   2.514
 4587SOL    HW125103   2.506   0.830   2.495
 4587SOL    HW225104   2.368   0.747   2.466
 4588SOL     OW25105   3.639   0.342   3.504
 4588SOL    HW125106   3.622   0.373   3.410
 4588SOL    HW225107   3.555   0.305   3.542
 4589SOL     OW25108   3.592   0.934   3.379
 4589SOL    HW125109   3.630   1.025   3.394
 4589SOL    HW225110   3.584   0.917   3.280
 4590SOL     OW25111   2.721   1.374   1.878
 4590SOL    HW125112   2.675   1.389   1.966
 4590SOL    HW225113   2.765   1.459   1.848
 4591SOL     OW25114   2.523   1.790   2.815
 4591SOL    HW125115   2.477   1.878   2.802
 4591SOL    HW225116   2.622   1.802   2.808
 4592SOL     OW25117   2.721   0.956   2.723
 4592SOL    HW125118   2.775   0.887   2.771
 4592SOL    HW225119   2.689   1.025   2.789
 4593SOL     OW25120   2.945   0.984   1.949
 4593SOL    HW125121   2.922   1.037   1.867
 4593SOL    HW225122   3.026   0.928   1.930
 4594SOL     OW25123   3.723   1.569   2.713
 4594SOL    HW125124   3.652   1.557   2.643
 4594SOL    HW225125   3.724   1.490   2.773
 4595SOL     OW25126   2.083   1.314   3.706
 4595SOL    HW125127   2.018   1.241   3.685
 4595SOL    HW225128   2.087   1.328   3.804
 4596SOL     OW25129   1.941   1.240   2.515
 4596SOL    HW125130   1.940   1.193   2.603
 4596SOL    HW225131   2.023   1.212   2.464
 4597SOL     OW25132   2.534   1.391   3.486
 4597SOL    HW125133   2.456   1.341   3.524
 4597SOL    HW225134   2.531   1.486   3.517
 4598SOL     OW25135   3.686   0.192   3.089
 4598SOL    HW125136   3.682   0.102   3.133
 4598SOL    HW225137   3.689   0.181   2.990
 4599SOL     OW25138   2.290   0.424   2.382
 4599SOL    HW125139   2.320   0.352   2.320
 4599SOL    HW225140   2.251   0.384   2.465
 4600SOL     OW25141   3.567   1.487   2.966
 4600SOL    HW125142   3.474   1.462   2.939
 4600SOL    HW225143   3.593   1.437   3.048
 4601SOL     OW25144   2.179   0.547   3.142
 4601SOL    HW125145   2.217   0.488   3.214
 4601SOL    HW225146   2.219   0.521   3.054
 4602SOL     OW25147   2.674   1.586   2.549
 4602SOL    HW125148   2.706   1.596   2.455
 4602SOL    HW225149   2.595   1.524   2.551
 4603SOL     OW25150   3.286   0.214   2.974
 4603SOL    HW125151   3.338   0.149   3.029
 4603SOL    HW225152   3.237   0.277   3.035
 4604SOL     OW25153   2.863   0.034   3.016
 4604SOL    HW125154   2.800  -0.038   2.985
 4604SOL    HW225155   2.956  -0.002   3.016
 4605SOL     OW25156   2.632   1.330   2.163
 4605SOL    HW125157   2.586   1.243   2.180
 4605SOL    HW225158   2.723   1.327   2.204
 4606SOL     OW25159   2.480   1.567   3.146
 4606SOL    HW125160   2.475   1.649   3.203
 4606SOL    HW225161   2.569   1.564   3.101
 4607SOL     OW25162   3.214   0.052   2.030
 4607SOL    HW125163   3.249   0.011   1.946
 4607SOL    HW225164   3.124   0.014   2.050
 4608SOL     OW25165   3.162   0.453   2.553
 4608SOL    HW125166   3.103   0.533   2.557
 4608SOL    HW225167   3.177   0.418   2.646
 4609SOL     OW25168   3.455   0.221   2.744
 4609SOL    HW125169   3.371   0.220   2.798
 4609SOL    HW225170   3.457   0.304   2.688
 4610SOL     OW25171   1.901   1.077   2.162
 4610SOL    HW125172   2.000   1.066   2.153
 4610SOL    HW225173   1.861   0.991   2.194
 4611SOL     OW25174   2.737   1.646   2.199
 4611SOL    HW125175   2.660   1.611   2.145
 4611SOL    HW225176   2.705   1.717   2.261
 4612SOL     OW25177   2.092   0.628   3.837
 4612SOL    HW125178   1.999   0.626   3.874
 4612SOL    HW225179   2.093   0.589   3.745
 4613SOL     OW25180   2.087   0.275   4.720
 4613SOL    HW125181   2.122   0.258   4.812
 4613SOL    HW225182   1.999   0.230   4.708
 4614SOL     OW25183   1.881   0.368   4.371
 4614SOL    HW125184   1.799   0.411   4.410
 4614SOL    HW225185   1.853   0.295   4.308
 4615SOL     OW25186   2.431   1.275   4.889
 4615SOL    HW125187   2.338   1.268   4.852
 4615SOL    HW225188   2.442   1.364   4.933
 4616SOL     OW25189   3.417   1.511   4.427
 4616SOL    HW125190   3.360   1.495   4.508
 4616SOL    HW225191   3.358   1.521   4.347
 4617SOL     OW25192   2.997   0.703   4.441
 4617SOL    HW125193   3.054   0.781   4.416
 4617SOL    HW225194   2.937   0.729   4.517
 4618SOL     OW25195   3.617   0.607   3.955
 4618SOL    HW125196   3.605   0.594   3.856
 4618SOL    HW225197   3.587   0.526   4.004
 4619SOL     OW25198   2.630   1.144   4.747
 4619SOL    HW125199   2.552   1.161   4.807
 4619SOL    HW225200   2.664   1.231   4.711
 4620SOL     OW25201   2.712   0.798   5.547
 4620SOL    HW125202   2.708   0.874   5.612
 4620SOL    HW225203   2.734   0.834   5.456
 4621SOL     OW25204   2.547   1.012   4.389
 4621SOL    HW125205   2.616   0.996   4.459
 4621SOL    HW225206   2.474   1.069   4.427
 4622SOL     OW25207   2.548   1.161   5.527
 4622SOL    HW125208   2.608   1.240   5.541
 4622SOL    HW225209   2.462   1.192   5.486
 4623SOL     OW25210   2.197   1.435   4.785
 4623SOL    HW125211   2.119   1.404   4.732
 4623SOL    HW225212   2.255   1.493   4.728
 4624SOL     OW25213   3.322   1.505   5.063
 4624SOL    HW125214   3.346   1.599   5.089
 4624SOL    HW225215   3.306   1.451   5.145
 4625SOL     OW25216   2.300   0.392   5.223
 4625SOL    HW125217   2.382   0.336   5.232
 4625SOL    HW225218   2.219   0.334   5.227
 4626SOL     OW25219   3.465   0.447   4.461
 4626SOL    HW125220   3.391   0.493   4.411
 4626SOL    HW225221   3.516   0.515   4.514
 4627SOL     OW25222   2.093   1.713   4.207
 4627SOL    HW125223   2.127   1.790   4.261
 4627SOL    HW225224   2.137   1.713   4.117
 4628SOL     OW25225   2.989   1.341   5.414
 4628SOL    HW125226   3.036   1.341   5.502
 4628SOL    HW225227   2.941   1.254   5.403
 4629SOL     OW25228   2.092   1.434   4.262
 4629SOL    HW125229   2.066   1.530   4.262
 4629SOL    HW225230   2.021   1.380   4.307
 4630SOL     OW25231   2.102   1.091   4.610
 4630SOL    HW125232   2.116   1.007   4.662
 4630SOL    HW225233   2.047   1.155   4.665
 4631SOL     OW25234   2.482   1.786   5.163
 4631SOL    HW125235   2.390   1.769   5.198
 4631SOL    HW225236   2.510   1.878   5.189
 4632SOL     OW25237   2.468   0.964   3.847
 4632SOL    HW125238   2.475   1.048   3.793
 4632SOL    HW225239   2.514   0.977   3.935
 4633SOL     OW25240   3.456   0.114   5.204
 4633SOL    HW125241   3.438   0.181   5.132
 4633SOL    HW225242   3.453   0.160   5.293
 4634SOL     OW25243   1.984   0.643   4.287
 4634SOL    HW125244   1.939   0.555   4.304
 4634SOL    HW225245   1.983   0.697   4.371
 4635SOL     OW25246   3.704   1.767   4.083
 4635SOL    HW125247   3.758   1.738   4.163
 4635SOL    HW225248   3.734   1.857   4.054
 4636SOL     OW25249   1.889   1.596   3.841
 4636SOL    HW125250   1.870   1.500   3.862
 4636SOL    HW225251   1.856   1.654   3.916
 4637SOL     OW25252   3.551   0.922   4.336
 4637SOL    HW125253   3.646   0.893   4.344
 4637SOL    HW225254   3.543   0.987   4.261
 4638SOL     OW25255   3.503   1.108   4.156
 4638SOL    HW125256   3.589   1.110   4.104
 4638SOL    HW225257   3.517   1.155   4.244
 4639SOL     OW25258   1.975   0.737   5.321
 4639SOL    HW125259   2.063   0.724   5.366
 4639SOL    HW225260   1.962   0.834   5.299
 4640SOL     OW25261   2.475   1.365   4.450
 4640SOL    HW125262   2.426   1.278   4.459
 4640SOL    HW225263   2.452   1.408   4.363
 4641SOL     OW25264   3.155   1.228   5.147
 4641SOL    HW125265   3.192   1.155   5.089
 4641SOL    HW225266   3.207   1.233   5.232
 4642SOL     OW25267   2.671   0.004   4.226
 4642SOL    HW125268   2.711   0.095   4.217
 4642SOL    HW225269   2.571   0.012   4.232
 4643SOL     OW25270   2.059   0.976   4.988
 4643SOL    HW125271   2.148   0.931   4.974
 4643SOL    HW225272   1.986   0.911   4.969
 4644SOL     OW25273   3.387   0.999   3.914
 4644SOL    HW125274   3.324   0.923   3.927
 4644SOL    HW225275   3.435   1.017   4.000
 4645SOL     OW25276   3.049   1.792   5.340
 4645SOL    HW125277   3.073   1.852   5.264
 4645SOL    HW225278   3.056   1.697   5.310
 4646SOL     OW25279   2.179   0.251   5.525
 4646SOL    HW125280   2.250   0.322   5.531
 4646SOL    HW225281   2.091   0.290   5.553
 4647SOL     OW25282   3.328   1.417   4.677
 4647SOL    HW125283   3.269   1.423   4.757
 4647SOL    HW225284   3.313   1.329   4.631
 4648SOL     OW25285   3.529   1.714   4.296
 4648SOL    HW125286   3.488   1.691   4.208
 4648SOL    HW225287   3.511   1.640   4.361
 4649SOL     OW25288   2.460   0.729   3.994
 4649SOL    HW125289   2.484   0.798   3.926
 4649SOL    HW225290   2.382   0.762   4.048
 4650SOL     OW25291   3.143   0.345   4.668
 4650SOL    HW125292   3.057   0.295   4.655
 4650SOL    HW225293   3.205   0.291   4.724
 4651SOL     OW25294   3.438   1.662   4.031
 4651SOL    HW125295   3.527   1.708   4.034
 4651SOL    HW225296   3.417   1.638   3.936
 4652SOL     OW25297   2.669   0.605   5.189
 4652SOL    HW125298   2.622   0.602   5.278
 4652SOL    HW225299   2.618   0.550   5.123
 4653SOL     OW25300   3.256   0.469   5.398
 4653SOL    HW125301   3.236   0.512   5.486
 4653SOL    HW225302   3.334   0.407   5.407
 4654SOL     OW25303   2.835   0.890   5.296
 4654SOL    HW125304   2.881   0.806   5.267
 4654SOL    HW225305   2.779   0.924   5.221
 4655SOL     OW25306   2.853   0.410   4.966
 4655SOL    HW125307   2.776   0.444   5.020
 4655SOL    HW225308   2.819   0.359   4.887
 4656SOL     OW25309   2.903   0.701   4.153
 4656SOL    HW125310   2.929   0.697   4.249
 4656SOL    HW225311   2.818   0.650   4.139
 4657SOL     OW25312   1.938   0.811   4.513
 4657SOL    HW125313   2.037   0.799   4.522
 4657SOL    HW225314   1.914   0.906   4.534
 4658SOL     OW25315   1.992   1.821   5.295
 4658SOL    HW125316   1.982   1.806   5.394
 4658SOL    HW225317   1.906   1.857   5.259
 4659SOL     OW25318   2.727   0.348   3.919
 4659SOL    HW125319   2.786   0.411   3.870
 4659SOL    HW225320   2.746   0.254   3.890
 4660SOL     OW25321   3.581   0.585   5.555
 4660SOL    HW125322   3.555   0.674   5.519
 4660SOL    HW225323   3.579   0.517   5.482
 4661SOL     OW25324   3.224   1.144   4.269
 4661SOL    HW125325   3.307   1.115   4.221
 4661SOL    HW225326   3.175   1.211   4.213
 4662SOL     OW25327   2.412   0.196   4.609
 4662SOL    HW125328   2.407   0.191   4.709
 4662SOL    HW225329   2.414   0.292   4.580
 4663SOL     OW25330   2.870   1.456   4.201
 4663SOL    HW125331   2.824   1.528   4.149
 4663SOL    HW225332   2.866   1.476   4.299
 4664SOL     OW25333   2.213   1.801   4.577
 4664SOL    HW125334   2.263   1.715   4.583
 4664SOL    HW225335   2.278   1.878   4.574
 4665SOL     OW25336   3.657   1.066   4.597
 4665SOL    HW125337   3.595   1.051   4.521
 4665SOL    HW225338   3.605   1.077   4.682
 4666SOL     OW25339   3.089   1.550   5.230
 4666SOL    HW125340   3.095   1.473   5.294
 4666SOL    HW225341   3.037   1.524   5.150
 4667SOL     OW25342   2.183   0.943   3.966
 4667SOL    HW125343   2.265   0.982   3.924
 4667SOL    HW225344   2.156   0.861   3.917
 4668SOL     OW25345   3.320   0.735   4.452
 4668SOL    HW125346   3.315   0.670   4.527
 4668SOL    HW225347   3.400   0.794   4.465
 4669SOL     OW25348   2.323   1.266   5.451
 4669SOL    HW125349   2.273   1.267   5.365
 4669SOL    HW225350   2.260   1.248   5.527
 4670SOL     OW25351   2.973   1.776   3.961
 4670SOL    HW125352   2.913   1.714   4.011
 4670SOL    HW225353   3.004   1.732   3.876
 4671SOL     OW25354   2.064   0.285   5.222
 4671SOL    HW125355   1.984   0.345   5.209
 4671SOL    HW225356   2.054   0.236   5.308
 4672SOL     OW25357   3.494   1.377   3.805
 4672SOL    HW125358   3.462   1.471   3.795
 4672SOL    HW225359   3.418   1.314   3.793
 4673SOL     OW25360   2.326   1.743   4.047
 4673SOL    HW125361   2.359   1.782   4.133
 4673SOL    HW225362   2.402   1.736   3.982
 4674SOL     OW25363   3.262   0.107   4.150
 4674SOL    HW125364   3.238   0.070   4.060
 4674SOL    HW225365   3.361   0.123   4.154
 4675SOL     OW25366   2.111   1.785   4.965
 4675SOL    HW125367   2.168   1.720   5.015
 4675SOL    HW225368   2.095   1.752   4.872
 4676SOL     OW25369   2.802   1.698   4.628
 4676SOL    HW125370   2.882   1.641   4.649
 4676SOL    HW225371   2.753   1.658   4.551
 4677SOL     OW25372   2.244   0.700   4.204
 4677SOL    HW125373   2.289   0.610   4.201
 4677SOL    HW225374   2.150   0.689   4.237
 4678SOL     OW25375   3.409   0.222   5.453
 4678SOL    HW125376   3.404   0.259   5.545
 4678SOL    HW225377   3.337   0.153   5.441
 4679SOL     OW25378   2.476   0.122   3.841
 4679SOL    HW125379   2.574   0.100   3.848
 4679SOL    HW225380   2.445   0.105   3.748
 4680SOL     OW25381   2.643   0.264   5.473
 4680SOL    HW125382   2.710   0.203   5.516
 4680SOL    HW225383   2.570   0.283   5.538
 4681SOL     OW25384   2.750   1.514   4.919
 4681SOL    HW125385   2.727   1.489   4.825
 4681SOL    HW225386   2.811   1.445   4.958
 4682SOL     OW25387   3.213   0.590   5.157
 4682SOL    HW125388   3.241   0.547   5.242
 4682SOL    HW225389   3.238   0.686   5.158
 4683SOL     OW25390   2.665   1.402   4.648
 4683SOL    HW125391   2.755   1.416   4.606
 4683SOL    HW225392   2.594   1.404   4.577
 4684SOL     OW25393   2.784   0.503   4.623
 4684SOL    HW125394   2.759   0.494   4.527
 4684SOL    HW225395   2.832   0.421   4.654
 4685SOL     OW25396   2.401   0.064   4.236
 4685SOL    HW125397   2.320   0.065   4.294
 4685SOL    HW225398   2.404   0.147   4.181
 4686SOL     OW25399   3.296   1.188   3.765
 4686SOL    HW125400   3.328   1.112   3.822
 4686SOL    HW225401   3.204   1.215   3.795
 4687SOL     OW25402   2.159   0.035   3.895
 4687SOL    HW125403   2.208   0.119   3.874
 4687SOL    HW225404   2.221  -0.030   3.940
 4688SOL     OW25405   2.797   0.236   4.204
 4688SOL    HW125406   2.749   0.277   4.126
 4688SOL    HW225407   2.896   0.234   4.185
 4689SOL     OW25408   2.938   0.683   5.188
 4689SOL    HW125409   2.858   0.622   5.191
 4689SOL    HW225410   3.019   0.630   5.164
 4690SOL     OW25411   3.089   1.570   4.517
 4690SOL    HW125412   3.110   1.644   4.452
 4690SOL    HW225413   3.157   1.570   4.590
 4691SOL     OW25414   2.321   1.152   4.465
 4691SOL    HW125415   2.250   1.125   4.530
 4691SOL    HW225416   2.295   1.124   4.372
 4692SOL     OW25417   3.133   1.797   4.315
 4692SOL    HW125418   3.177   1.861   4.251
 4692SOL    HW225419   3.083   1.849   4.385
 4693SOL     OW25420   2.894   0.549   3.740
 4693SOL    HW125421   2.853   0.631   3.701
 4693SOL    HW225422   2.958   0.575   3.813
 4694SOL     OW25423   1.940   0.556   5.110
 4694SOL    HW125424   2.032   0.555   5.069
 4694SOL    HW225425   1.934   0.630   5.177
 4695SOL     OW25426   2.423   0.222   4.871
 4695SOL    HW125427   2.461   0.138   4.908
 4695SOL    HW225428   2.335   0.241   4.915
 4696SOL     OW25429   2.728   0.454   4.366
 4696SOL    HW125430   2.696   0.526   4.304
 4696SOL    HW225431   2.752   0.373   4.313
 4697SOL     OW25432   2.879   0.039   4.477
 4697SOL    HW125433   2.807   0.044   4.408
 4697SOL    HW225434   2.855  -0.030   4.546
 4698SOL     OW25435   3.291   1.173   4.591
 4698SOL    HW125436   3.236   1.089   4.584
 4698SOL    HW225437   3.317   1.202   4.499
 4699SOL     OW25438   3.328   0.590   4.716
 4699SOL    HW125439   3.298   0.495   4.723
 4699SOL    HW225440   3.401   0.606   4.782
 4700SOL     OW25441   3.719   0.833   4.101
 4700SOL    HW125442   3.761   0.769   4.165
 4700SOL    HW225443   3.681   0.782   4.023
 4701SOL     OW25444   2.350   1.385   3.898
 4701SOL    HW125445   2.263   1.370   3.945
 4701SOL    HW225446   2.333   1.411   3.803
 4702SOL     OW25447   3.526   1.280   4.381
 4702SOL    HW125448   3.625   1.288   4.395
 4702SOL    HW225449   3.481   1.364   4.412
 4703SOL     OW25450   3.252   0.575   3.802
 4703SOL    HW125451   3.198   0.554   3.883
 4703SOL    HW225452   3.343   0.534   3.811
 4704SOL     OW25453   2.389   0.256   4.052
 4704SOL    HW125454   2.416   0.197   3.977
 4704SOL    HW225455   2.389   0.351   4.021
 4705SOL     OW25456   3.616   1.223   5.312
 4705SOL    HW125457   3.707   1.184   5.299
 4705SOL    HW225458   3.624   1.319   5.336
 4706SOL     OW25459   2.926   1.347   5.064
 4706SOL    HW125460   2.846   1.324   5.119
 4706SOL    HW225461   3.009   1.321   5.113
 4707SOL     OW25462   3.454   1.629   5.349
 4707SOL    HW125463   3.481   1.663   5.259
 4707SOL    HW225464   3.533   1.591   5.395
 4708SOL     OW25465   2.973   1.195   4.824
 4708SOL    HW125466   2.933   1.239   4.905
 4708SOL    HW225467   2.932   1.232   4.741
 4709SOL     OW25468   3.500   1.099   4.803
 4709SOL    HW125469   3.505   1.180   4.862
 4709SOL    HW225470   3.414   1.101   4.752
 4710SOL     OW25471   2.777   0.089   5.126
 4710SOL    HW125472   2.802   0.069   5.031
 4710SOL    HW225473   2.849   0.145   5.168
 4711SOL     OW25474   2.842   1.116   5.443
 4711SOL    HW125475   2.743   1.122   5.453
 4711SOL    HW225476   2.865   1.036   5.387
 4712SOL     OW25477   2.567   1.050   4.092
 4712SOL    HW125478   2.553   1.057   4.191
 4712SOL    HW225479   2.651   0.999   4.074
 4713SOL     OW25480   2.272   0.813   4.975
 4713SOL    HW125481   2.358   0.825   5.025
 4713SOL    HW225482   2.230   0.726   5.002
 4714SOL     OW25483   3.136   0.386   4.986
 4714SOL    HW125484   3.157   0.460   5.050
 4714SOL    HW225485   3.047   0.403   4.943
 4715SOL     OW25486   1.926   1.564   5.055
 4715SOL    HW125487   1.880   1.646   5.021
 4715SOL    HW225488   2.024   1.583   5.064
 4716SOL     OW25489   2.229   1.100   4.225
 4716SOL    HW125490   2.222   1.183   4.169
 4716SOL    HW225491   2.233   1.020   4.165
 4717SOL     OW25492   2.428   0.537   4.589
 4717SOL    HW125493   2.440   0.603   4.515
 4717SOL    HW225494   2.474   0.571   4.672
 4718SOL     OW25495   3.114   1.348   4.112
 4718SOL    HW125496   3.164   1.425   4.152
 4718SOL    HW225497   3.019   1.350   4.144
 4719SOL     OW25498   3.134   1.445   4.866
 4719SOL    HW125499   3.181   1.458   4.953
 4719SOL    HW225500   3.068   1.371   4.875
 4720SOL     OW25501   3.444   0.639   4.196
 4720SOL    HW125502   3.413   0.700   4.269
 4720SOL    HW225503   3.494   0.691   4.127
 4721SOL     OW25504   2.216   1.510   5.053
 4721SOL    HW125505   2.195   1.466   4.966
 4721SOL    HW225506   2.313   1.536   5.056
 4722SOL     OW25507   2.264   0.751   5.322
 4722SOL    HW125508   2.332   0.806   5.275
 4722SOL    HW225509   2.304   0.663   5.349
 4723SOL     OW25510   3.449   0.779   5.394
 4723SOL    HW125511   3.357   0.817   5.389
 4723SOL    HW225512   3.509   0.826   5.329
 4724SOL     OW25513   2.875   0.105   5.494
 4724SOL    HW125514   2.881   0.190   5.442
 4724SOL    HW225515   2.907   0.029   5.437
 4725SOL     OW25516   2.366   0.050   5.464
 4725SOL    HW125517   2.324  -0.007   5.394
 4725SOL    HW225518   2.300   0.119   5.496
 4726SOL     OW25519   2.435   0.870   4.753
 4726SOL    HW125520   2.479   0.959   4.744
 4726SOL    HW225521   2.372   0.870   4.830
 4727SOL     OW25522   3.222   0.862   4.769
 4727SOL    HW125523   3.147   0.862   4.703
 4727SOL    HW225524   3.259   0.770   4.778
 4728SOL     OW25525   3.071   0.525   3.999
 4728SOL    HW125526   3.084   0.441   4.053
 4728SOL    HW225527   3.042   0.599   4.059
 4729SOL     OW25528   2.169   0.213   4.955
 4729SOL    HW125529   2.146   0.250   5.045
 4729SOL    HW225530   2.139   0.118   4.949
 4730SOL     OW25531   1.899   1.310   5.006
 4730SOL    HW125532   1.952   1.261   5.074
 4730SOL    HW225533   1.921   1.408   5.011
 4731SOL     OW25534   2.594   0.634   4.788
 4731SOL    HW125535   2.653   0.608   4.712
 4731SOL    HW225536   2.566   0.730   4.777
 4732SOL     OW25537   3.590   0.935   5.578
 4732SOL    HW125538   3.544   0.928   5.489
 4732SOL    HW225539   3.528   0.979   5.644
 4733SOL     OW25540   2.169   0.063   4.342
 4733SOL    HW125541   2.158   0.157   4.375
 4733SOL    HW225542   2.164   0.000   4.419
 4734SOL     OW25543   3.484   0.367   4.098
 4734SOL    HW125544   3.486   0.291   4.162
 4734SOL    HW225545   3.436   0.444   4.138
 4735SOL     OW25546   2.885   0.766   4.690
 4735SOL    HW125547   2.900   0.787   4.786
 4735SOL    HW225548   2.855   0.671   4.681
 4736SOL     OW25549   2.842   1.573   5.424
 4736SOL    HW125550   2.822   1.617   5.336
 4736SOL    HW225551   2.881   1.482   5.408
 4737SOL     OW25552   3.721   1.518   5.329
 4737SOL    HW125553   3.735   1.545   5.234
 4737SOL    HW225554   3.804   1.540   5.382
 4738SOL     OW25555   2.212   0.898   5.528
 4738SOL    HW125556   2.288   0.942   5.576
 4738SOL    HW225557   2.247   0.851   5.446
 4739SOL     OW25558   3.402   0.274   3.849
 4739SOL    HW125559   3.341   0.199   3.872
 4739SOL    HW225560   3.424   0.326   3.932
 4740SOL     OW25561   3.165   0.838   3.766
 4740SOL    HW125562   3.199   0.745   3.781
 4740SOL    HW225563   3.183   0.865   3.671
 4741SOL     OW25564   2.930   1.333   4.573
 4741SOL    HW125565   2.937   1.249   4.518
 4741SOL    HW225566   2.992   1.402   4.537
 4742SOL     OW25567   2.181   0.810   4.673
 4742SOL    HW125568   2.274   0.846   4.678
 4742SOL    HW225569   2.175   0.725   4.725
 4743SOL     OW25570   2.201   0.509   4.730
 4743SOL    HW125571   2.149   0.426   4.713
 4743SOL    HW225572   2.278   0.514   4.666
 4744SOL     OW25573   3.000   0.380   5.402
 4744SOL    HW125574   2.955   0.443   5.466
 4744SOL    HW225575   3.093   0.411   5.385
 4745SOL     OW25576   3.022   0.207   5.201
 4745SOL    HW125577   3.022   0.271   5.278
 4745SOL    HW225578   3.050   0.255   5.118
 4746SOL     OW25579   1.870   1.326   3.924
 4746SOL    HW125580   1.777   1.347   3.893
 4746SOL    HW225581   1.880   1.227   3.937
 4747SOL     OW25582   1.950   1.801   4.651
 4747SOL    HW125583   1.908   1.715   4.624
 4747SOL    HW225584   2.044   1.804   4.617
 4748SOL     OW25585   2.366   1.568   4.634
 4748SOL    HW125586   2.432   1.642   4.643
 4748SOL    HW225587   2.410   1.489   4.592
 4749SOL     OW25588   2.864   0.796   4.962
 4749SOL    HW125589   2.905   0.764   5.048
 4749SOL    HW225590   2.768   0.769   4.959
 4750SOL     OW25591   1.902   0.544   4.838
 4750SOL    HW125592   1.987   0.511   4.797
 4750SOL    HW225593   1.915   0.559   4.936
 4751SOL     OW25594   2.051   0.520   5.446
 4751SOL    HW125595   2.110   0.480   5.376
 4751SOL    HW225596   1.993   0.591   5.405
 4752SOL     OW25597   3.231   0.950   5.384
 4752SOL    HW125598   3.270   1.039   5.404
 4752SOL    HW225599   3.241   0.930   5.287
 4753SOL     OW25600   2.677   0.572   4.049
 4753SOL    HW125601   2.684   0.483   4.003
 4753SOL    HW225602   2.583   0.606   4.041
 4754SOL     OW25603   3.519   0.604   4.930
 4754SOL    HW125604   3.481   0.535   4.992
 4754SOL    HW225605   3.601   0.568   4.886
 4755SOL     OW25606   2.114   1.564   5.468
 4755SOL    HW125607   2.084   1.621   5.544
 4755SOL    HW225608   2.107   1.467   5.494
 4756SOL     OW25609   2.533   0.464   4.993
 4756SOL    HW125610   2.499   0.375   4.963
 4756SOL    HW225611   2.559   0.518   4.913
 4757SOL     OW25612   2.792   1.678   5.189
 4757SOL    HW125613   2.768   1.660   5.094
 4757SOL    HW225614   2.822   1.772   5.199
 4758SOL     OW25615   2.335   0.500   3.915
 4758SOL    HW125616   2.396   0.580   3.919
 4758SOL    HW225617   2.240   0.531   3.922
 4759SOL     OW25618   2.021   1.137   5.190
 4759SOL    HW125619   2.043   1.076   5.266
 4759SOL    HW225620   2.031   1.088   5.104
 4760SOL     OW25621   3.209   1.059   4.958
 4760SOL    HW125622   3.233   0.996   4.884
 4760SOL    HW225623   3.119   1.099   4.940
 4761SOL     OW25624   3.164   0.855   4.033
 4761SOL    HW125625   3.078   0.824   4.075
 4761SOL    HW225626   3.160   0.841   3.934
 4762SOL     OW25627   3.621   1.747   4.878
 4762SOL    HW125628   3.682   1.777   4.805
 4762SOL    HW225629   3.583   1.658   4.856
 4763SOL     OW25630   3.114   1.731   4.852
 4763SOL    HW125631   3.198   1.736   4.798
 4763SOL    HW225632   3.091   1.635   4.870
 4764SOL     OW25633   1.945   1.258   4.746
 4764SOL    HW125634   1.940   1.257   4.846
 4764SOL    HW225635   1.862   1.217   4.708
 4765SOL     OW25636   2.550   1.662   5.440
 4765SOL    HW125637   2.494   1.743   5.449
 4765SOL    HW225638   2.602   1.666   5.354
 4766SOL     OW25639   3.588   0.135   4.247
 4766SOL    HW125640   3.661   0.118   4.180
 4766SOL    HW225641   3.557   0.048   4.285
 4767SOL     OW25642   3.250   1.573   4.201
 4767SOL    HW125643   3.317   1.585   4.127
 4767SOL    HW225644   3.210   1.662   4.224
 4768SOL     OW25645   1.992   1.794   5.575
 4768SOL    HW125646   1.951   1.720   5.628
 4768SOL    HW225647   2.056   1.845   5.633
 4769SOL     OW25648   3.142   0.927   4.396
 4769SOL    HW125649   3.202   0.846   4.398
 4769SOL    HW225650   3.182   0.996   4.336
 4770SOL     OW25651   2.692   1.273   5.146
 4770SOL    HW125652   2.687   1.306   5.241
 4770SOL    HW225653   2.606   1.292   5.100
 4771SOL     OW25654   2.534   1.616   3.878
 4771SOL    HW125655   2.543   1.626   3.779
 4771SOL    HW225656   2.494   1.527   3.899
 4772SOL     OW25657   3.512   1.720   5.118
 4772SOL    HW125658   3.565   1.730   5.034
 4772SOL    HW225659   3.485   1.810   5.152
 4773SOL     OW25660   3.703   0.175   4.687
 4773SOL    HW125661   3.742   0.090   4.651
 4773SOL    HW225662   3.605   0.177   4.668
 4774SOL     OW25663   2.125   0.326   4.444
 4774SOL    HW125664   2.046   0.377   4.410
 4774SOL    HW225665   2.116   0.311   4.542
 4775SOL     OW25666   3.056   1.612   3.755
 4775SOL    HW125667   3.062   1.519   3.792
 4775SOL    HW225668   2.997   1.612   3.675
 4776SOL     OW25669   2.684   1.002   5.096
 4776SOL    HW125670   2.724   1.001   5.004
 4776SOL    HW225671   2.694   1.094   5.136
 4777SOL     OW25672   2.778   0.910   4.015
 4777SOL    HW125673   2.841   0.948   3.947
 4777SOL    HW225674   2.818   0.827   4.054
 4778SOL     OW25675   3.366   1.607   3.768
 4778SOL    HW125676   3.274   1.644   3.775
 4778SOL    HW225677   3.404   1.627   3.678
 4779SOL     OW25678   2.234   1.288   5.214
 4779SOL    HW125679   2.221   1.381   5.180
 4779SOL    HW225680   2.150   1.236   5.201
 4780SOL     OW25681   3.476   1.292   5.013
 4780SOL    HW125682   3.536   1.295   5.093
 4780SOL    HW225683   3.401   1.356   5.026
 4781SOL     OW25684   2.901   1.098   4.420
 4781SOL    HW125685   2.831   1.051   4.474
 4781SOL    HW225686   2.960   1.030   4.377
 4782SOL     OW25687   2.876   0.236   4.695
 4782SOL    HW125688   2.868   0.200   4.602
 4782SOL    HW225689   2.874   0.160   4.760
 4783SOL     OW25690   2.452   1.487   4.215
 4783SOL    HW125691   2.494   1.429   4.145
 4783SOL    HW225692   2.408   1.566   4.171
 4784SOL     OW25693   3.571   0.385   5.105
 4784SOL    HW125694   3.644   0.454   5.109
 4784SOL    HW225695   3.599   0.310   5.046
 4785SOL     OW25696   2.117   1.348   4.014
 4785SOL    HW125697   2.021   1.349   3.987
 4785SOL    HW225698   2.129   1.401   4.098
 4786SOL     OW25699   1.967   1.013   5.450
 4786SOL    HW125700   1.890   0.980   5.504
 4786SOL    HW225701   2.052   0.983   5.492
 4787SOL     OW25702   2.534   0.203   5.213
 4787SOL    HW125703   2.624   0.187   5.173
 4787SOL    HW225704   2.542   0.208   5.312
 4788SOL     OW25705   1.937   0.345   3.757
 4788SOL    HW125706   1.845   0.317   3.728
 4788SOL    HW225707   1.968   0.422   3.701
 4789SOL     OW25708   3.302   0.856   5.122
 4789SOL    HW125709   3.245   0.908   5.059
 4789SOL    HW225710   3.398   0.868   5.098
 4790SOL     OW25711   1.934   0.166   4.042
 4790SOL    HW125712   1.917   0.249   3.988
 4790SOL    HW225713   2.024   0.129   4.020
 4791SOL     OW25714   3.045   1.335   3.843
 4791SOL    HW125715   2.946   1.324   3.845
 4791SOL    HW225716   3.079   1.350   3.936
 4792SOL     OW25717   2.475   0.842   5.155
 4792SOL    HW125718   2.531   0.923   5.138
 4792SOL    HW225719   2.534   0.762   5.158
 4793SOL     OW25720   3.355   1.767   4.683
 4793SOL    HW125721   3.388   1.831   4.614
 4793SOL    HW225722   3.421   1.761   4.758
 4794SOL     OW25723   2.578   0.565   5.432
 4794SOL    HW125724   2.597   0.630   5.506
 4794SOL    HW225725   2.638   0.485   5.441
 4795SOL     OW25726   3.312   1.220   5.357
 4795SOL    HW125727   3.303   1.210   5.456
 4795SOL    HW225728   3.408   1.213   5.331
 4796SOL     OW25729   2.252   1.741   5.284
 4796SOL    HW125730   2.161   1.782   5.282
 4796SOL    HW225731   2.245   1.647   5.316
 4797SOL     OW25732   3.536   0.883   4.978
 4797SOL    HW125733   3.509   0.794   4.941
 4797SOL    HW225734   3.537   0.951   4.905
 4798SOL     OW25735   3.087   0.325   4.173
 4798SOL    HW125736   3.152   0.251   4.162
 4798SOL    HW225737   3.107   0.375   4.257
 4799SOL     OW25738   2.456   0.745   4.376
 4799SOL    HW125739   2.506   0.830   4.357
 4799SOL    HW225740   2.368   0.747   4.328
 4800SOL     OW25741   3.639   0.342   5.366
 4800SOL    HW125742   3.622   0.373   5.272
 4800SOL    HW225743   3.555   0.305   5.404
 4801SOL     OW25744   3.592   0.934   5.241
 4801SOL    HW125745   3.630   1.025   5.256
 4801SOL    HW225746   3.584   0.917   5.142
 4802SOL     OW25747   2.721   1.374   3.740
 4802SOL    HW125748   2.675   1.389   3.828
 4802SOL    HW225749   2.765   1.459   3.710
 4803SOL     OW25750   2.523   1.790   4.677
 4803SOL    HW125751   2.477   1.878   4.664
 4803SOL    HW225752   2.622   1.802   4.670
 4804SOL     OW25753   2.721   0.956   4.585
 4804SOL    HW125754   2.775   0.887   4.633
 4804SOL    HW225755   2.689   1.025   4.651
 4805SOL     OW25756   2.945   0.984   3.811
 4805SOL    HW125757   2.922   1.037   3.729
 4805SOL    HW225758   3.026   0.928   3.792
 4806SOL     OW25759   3.723   1.569   4.575
 4806SOL    HW125760   3.652   1.557   4.505
 4806SOL    HW225761   3.724   1.490   4.635
 4807SOL     OW25762   2.083   1.314   5.568
 4807SOL    HW125763   2.018   1.241   5.547
 4807SOL    HW225764   2.087   1.328   5.666
 4808SOL     OW25765   1.941   1.240   4.377
 4808SOL    HW125766   1.940   1.193   4.465
 4808SOL    HW225767   2.023   1.212   4.326
 4809SOL     OW25768   2.534   1.391   5.348
 4809SOL    HW125769   2.456   1.341   5.386
 4809SOL    HW225770   2.531   1.486   5.379
 4810SOL     OW25771   3.686   0.192   4.951
 4810SOL    HW125772   3.682   0.102   4.995
 4810SOL    HW225773   3.689   0.181   4.852
 4811SOL     OW25774   2.290   0.424   4.244
 4811SOL    HW125775   2.320   0.352   4.182
 4811SOL    HW225776   2.251   0.384   4.327
 4812SOL     OW25777   3.567   1.487   4.828
 4812SOL    HW125778   3.474   1.462   4.801
 4812SOL    HW225779   3.593   1.437   4.910
 4813SOL     OW25780   2.179   0.547   5.004
 4813SOL    HW125781   2.217   0.488   5.076
 4813SOL    HW225782   2.219   0.521   4.916
 4814SOL     OW25783   2.674   1.586   4.411
 4814SOL    HW125784   2.706   1.596   4.317
 4814SOL    HW225785   2.595   1.524   4.413
 4815SOL     OW25786   3.286   0.214   4.836
 4815SOL    HW125787   3.338   0.149   4.891
 4815SOL    HW225788   3.237   0.277   4.897
 4816SOL     OW25789   2.863   0.034   4.878
 4816SOL    HW125790   2.800  -0.038   4.847
 4816SOL    HW225791   2.956  -0.002   4.878
 4817SOL     OW25792   2.480   1.567   5.008
 4817SOL    HW125793   2.475   1.649   5.065
 4817SOL    HW225794   2.569   1.564   4.963
 4818SOL     OW25795   3.214   0.052   3.892
 4818SOL    HW125796   3.249   0.011   3.808
 4818SOL    HW225797   3.124   0.014   3.912
 4819SOL     OW25798   3.162   0.453   4.415
 4819SOL    HW125799   3.103   0.533   4.419
 4819SOL    HW225800   3.177   0.418   4.508
 4820SOL     OW25801   3.455   0.221   4.606
 4820SOL    HW125802   3.371   0.220   4.660
 4820SOL    HW225803   3.457   0.304   4.550
 4821SOL     OW25804   1.901   1.077   4.024
 4821SOL    HW125805   2.000   1.066   4.015
 4821SOL    HW225806   1.861   0.991   4.056
 4822SOL     OW25807   2.737   1.646   4.061
 4822SOL    HW125808   2.660   1.611   4.007
 4822SOL    HW225809   2.705   1.717   4.123
 4823SOL     OW25810   2.092   0.628   5.699
 4823SOL    HW125811   1.999   0.626   5.736
 4823SOL    HW225812   2.093   0.589   5.607
 4824SOL     OW25813   2.087   0.275   6.582
 4824SOL    HW125814   2.122   0.258   6.674
 4824SOL    HW225815   1.999   0.230   6.570
 4825SOL     OW25816   1.881   0.368   6.233
 4825SOL    HW125817   1.799   0.411   6.272
 4825SOL    HW225818   1.853   0.295   6.170
 4826SOL     OW25819   2.431   1.275   6.751
 4826SOL    HW125820   2.338   1.268   6.714
 4826SOL    HW225821   2.442   1.364   6.795
 4827SOL     OW25822   3.417   1.511   6.289
 4827SOL    HW125823   3.360   1.495   6.370
 4827SOL    HW225824   3.358   1.521   6.209
 4828SOL     OW25825   2.997   0.703   6.303
 4828SOL    HW125826   3.054   0.781   6.278
 4828SOL    HW225827   2.937   0.729   6.379
 4829SOL     OW25828   3.617   0.607   5.817
 4829SOL    HW125829   3.605   0.594   5.718
 4829SOL    HW225830   3.587   0.526   5.866
 4830SOL     OW25831   2.630   1.144   6.609
 4830SOL    HW125832   2.552   1.161   6.669
 4830SOL    HW225833   2.664   1.231   6.573
 4831SOL     OW25834   2.712   0.798   7.409
 4831SOL    HW125835   2.708   0.874   7.474
 4831SOL    HW225836   2.734   0.834   7.318
 4832SOL     OW25837   2.547   1.012   6.251
 4832SOL    HW125838   2.616   0.996   6.321
 4832SOL    HW225839   2.474   1.069   6.289
 4833SOL     OW25840   2.548   1.161   7.389
 4833SOL    HW125841   2.608   1.240   7.403
 4833SOL    HW225842   2.462   1.192   7.348
 4834SOL     OW25843   2.197   1.435   6.647
 4834SOL    HW125844   2.119   1.404   6.594
 4834SOL    HW225845   2.255   1.493   6.590
 4835SOL     OW25846   3.322   1.505   6.925
 4835SOL    HW125847   3.346   1.599   6.951
 4835SOL    HW225848   3.306   1.451   7.007
 4836SOL     OW25849   2.300   0.392   7.085
 4836SOL    HW125850   2.382   0.336   7.094
 4836SOL    HW225851   2.219   0.334   7.089
 4837SOL     OW25852   3.465   0.447   6.323
 4837SOL    HW125853   3.391   0.493   6.273
 4837SOL    HW225854   3.516   0.515   6.376
 4838SOL     OW25855   2.093   1.713   6.069
 4838SOL    HW125856   2.127   1.790   6.123
 4838SOL    HW225857   2.137   1.713   5.979
 4839SOL     OW25858   2.989   1.341   7.276
 4839SOL    HW125859   3.036   1.341   7.364
 4839SOL    HW225860   2.941   1.254   7.265
 4840SOL     OW25861   2.092   1.434   6.124
 4840SOL    HW125862   2.066   1.530   6.124
 4840SOL    HW225863   2.021   1.380   6.169
 4841SOL     OW25864   2.102   1.091   6.472
 4841SOL    HW125865   2.116   1.007   6.524
 4841SOL    HW225866   2.047   1.155   6.527
 4842SOL     OW25867   2.482   1.786   7.025
 4842SOL    HW125868   2.390   1.769   7.060
 4842SOL    HW225869   2.510   1.878   7.051
 4843SOL     OW25870   2.468   0.964   5.709
 4843SOL    HW125871   2.475   1.048   5.655
 4843SOL    HW225872   2.514   0.977   5.797
 4844SOL     OW25873   3.456   0.114   7.066
 4844SOL    HW125874   3.438   0.181   6.994
 4844SOL    HW225875   3.453   0.160   7.155
 4845SOL     OW25876   1.984   0.643   6.149
 4845SOL    HW125877   1.939   0.555   6.166
 4845SOL    HW225878   1.983   0.697   6.233
 4846SOL     OW25879   3.704   1.767   5.945
 4846SOL    HW125880   3.758   1.738   6.025
 4846SOL    HW225881   3.734   1.857   5.916
 4847SOL     OW25882   1.889   1.596   5.703
 4847SOL    HW125883   1.870   1.500   5.724
 4847SOL    HW225884   1.856   1.654   5.778
 4848SOL     OW25885   3.551   0.922   6.198
 4848SOL    HW125886   3.646   0.893   6.206
 4848SOL    HW225887   3.543   0.987   6.123
 4849SOL     OW25888   3.503   1.108   6.018
 4849SOL    HW125889   3.589   1.110   5.966
 4849SOL    HW225890   3.517   1.155   6.106
 4850SOL     OW25891   1.975   0.737   7.183
 4850SOL    HW125892   2.063   0.724   7.228
 4850SOL    HW225893   1.962   0.834   7.161
 4851SOL     OW25894   2.475   1.365   6.312
 4851SOL    HW125895   2.426   1.278   6.321
 4851SOL    HW225896   2.452   1.408   6.225
 4852SOL     OW25897   3.155   1.228   7.009
 4852SOL    HW125898   3.192   1.155   6.951
 4852SOL    HW225899   3.207   1.233   7.094
 4853SOL     OW25900   2.671   0.004   6.088
 4853SOL    HW125901   2.711   0.095   6.079
 4853SOL    HW225902   2.571   0.012   6.094
 4854SOL     OW25903   2.059   0.976   6.850
 4854SOL    HW125904   2.148   0.931   6.836
 4854SOL    HW225905   1.986   0.911   6.831
 4855SOL     OW25906   3.387   0.999   5.776
 4855SOL    HW125907   3.324   0.923   5.789
 4855SOL    HW225908   3.435   1.017   5.862
 4856SOL     OW25909   3.049   1.792   7.202
 4856SOL    HW125910   3.073   1.852   7.126
 4856SOL    HW225911   3.056   1.697   7.172
 4857SOL     OW25912   2.179   0.251   7.387
 4857SOL    HW125913   2.250   0.322   7.393
 4857SOL    HW225914   2.091   0.290   7.415
 4858SOL     OW25915   3.328   1.417   6.539
 4858SOL    HW125916   3.269   1.423   6.619
 4858SOL    HW225917   3.313   1.329   6.493
 4859SOL     OW25918   3.529   1.714   6.158
 4859SOL    HW125919   3.488   1.691   6.070
 4859SOL    HW225920   3.511   1.640   6.223
 4860SOL     OW25921   2.460   0.729   5.856
 4860SOL    HW125922   2.484   0.798   5.788
 4860SOL    HW225923   2.382   0.762   5.910
 4861SOL     OW25924   3.143   0.345   6.530
 4861SOL    HW125925   3.057   0.295   6.517
 4861SOL    HW225926   3.205   0.291   6.586
 4862SOL     OW25927   3.438   1.662   5.893
 4862SOL    HW125928   3.527   1.708   5.896
 4862SOL    HW225929   3.417   1.638   5.798
 4863SOL     OW25930   2.669   0.605   7.051
 4863SOL    HW125931   2.622   0.602   7.140
 4863SOL    HW225932   2.618   0.550   6.985
 4864SOL     OW25933   3.256   0.469   7.260
 4864SOL    HW125934   3.236   0.512   7.348
 4864SOL    HW225935   3.334   0.407   7.269
 4865SOL     OW25936   2.835   0.890   7.158
 4865SOL    HW125937   2.881   0.806   7.129
 4865SOL    HW225938   2.779   0.924   7.083
 4866SOL     OW25939   2.853   0.410   6.828
 4866SOL    HW125940   2.776   0.444   6.882
 4866SOL    HW225941   2.819   0.359   6.749
 4867SOL     OW25942   2.903   0.701   6.015
 4867SOL    HW125943   2.929   0.697   6.111
 4867SOL    HW225944   2.818   0.650   6.001
 4868SOL     OW25945   1.938   0.811   6.375
 4868SOL    HW125946   2.037   0.799   6.384
 4868SOL    HW225947   1.914   0.906   6.396
 4869SOL     OW25948   1.992   1.821   7.157
 4869SOL    HW125949   1.982   1.806   7.256
 4869SOL    HW225950   1.906   1.857   7.121
 4870SOL     OW25951   2.727   0.348   5.781
 4870SOL    HW125952   2.786   0.411   5.732
 4870SOL    HW225953   2.746   0.254   5.752
 4871SOL     OW25954   3.581   0.585   7.417
 4871SOL    HW125955   3.555   0.674   7.381
 4871SOL    HW225956   3.579   0.517   7.344
 4872SOL     OW25957   3.224   1.144   6.131
 4872SOL    HW125958   3.307   1.115   6.083
 4872SOL    HW225959   3.175   1.211   6.075
 4873SOL     OW25960   2.412   0.196   6.471
 4873SOL    HW125961   2.407   0.191   6.571
 4873SOL    HW225962   2.414   0.292   6.442
 4874SOL     OW25963   2.870   1.456   6.063
 4874SOL    HW125964   2.824   1.528   6.011
 4874SOL    HW225965   2.866   1.476   6.161
 4875SOL     OW25966   2.213   1.801   6.439
 4875SOL    HW125967   2.263   1.715   6.445
 4875SOL    HW225968   2.278   1.878   6.436
 4876SOL     OW25969   3.657   1.066   6.459
 4876SOL    HW125970   3.595   1.051   6.383
 4876SOL    HW225971   3.605   1.077   6.544
 4877SOL     OW25972   3.089   1.550   7.092
 4877SOL    HW125973   3.095   1.473   7.156
 4877SOL    HW225974   3.037   1.524   7.012
 4878SOL     OW25975   2.183   0.943   5.828
 4878SOL    HW125976   2.265   0.982   5.786
 4878SOL    HW225977   2.156   0.861   5.779
 4879SOL     OW25978   3.320   0.735   6.314
 4879SOL    HW125979   3.315   0.670   6.389
 4879SOL    HW225980   3.400   0.794   6.327
 4880SOL     OW25981   2.323   1.266   7.313
 4880SOL    HW125982   2.273   1.267   7.227
 4880SOL    HW225983   2.260   1.248   7.389
 4881SOL     OW25984   2.973   1.776   5.823
 4881SOL    HW125985   2.913   1.714   5.873
 4881SOL    HW225986   3.004   1.732   5.738
 4882SOL     OW25987   2.064   0.285   7.084
 4882SOL    HW125988   1.984   0.345   7.071
 4882SOL    HW225989   2.054   0.236   7.170
 4883SOL     OW25990   3.494   1.377   5.667
 4883SOL    HW125991   3.462   1.471   5.657
 4883SOL    HW225992   3.418   1.314   5.655
 4884SOL     OW25993   2.326   1.743   5.909
 4884SOL    HW125994   2.359   1.782   5.995
 4884SOL    HW225995   2.402   1.736   5.844
 4885SOL     OW25996   3.262   0.107   6.012
 4885SOL    HW125997   3.238   0.070   5.922
 4885SOL    HW225998   3.361   0.123   6.016
 4886SOL     OW25999   2.111   1.785   6.827
 4886SOL    HW126000   2.168   1.720   6.877
 4886SOL    HW226001   2.095   1.752   6.734
 4887SOL     OW26002   2.802   1.698   6.490
 4887SOL    HW126003   2.882   1.641   6.511
 4887SOL    HW226004   2.753   1.658   6.413
 4888SOL     OW26005   2.244   0.700   6.066
 4888SOL    HW126006   2.289   0.610   6.063
 4888SOL    HW226007   2.150   0.689   6.099
 4889SOL     OW26008   3.409   0.222   7.315
 4889SOL    HW126009   3.404   0.259   7.407
 4889SOL    HW226010   3.337   0.153   7.303
 4890SOL     OW26011   2.476   0.122   5.703
 4890SOL    HW126012   2.574   0.100   5.710
 4890SOL    HW226013   2.445   0.105   5.610
 4891SOL     OW26014   2.643   0.264   7.335
 4891SOL    HW126015   2.710   0.203   7.378
 4891SOL    HW226016   2.570   0.283   7.400
 4892SOL     OW26017   2.750   1.514   6.781
 4892SOL    HW126018   2.727   1.489   6.687
 4892SOL    HW226019   2.811   1.445   6.820
 4893SOL     OW26020   3.213   0.590   7.019
 4893SOL    HW126021   3.241   0.547   7.104
 4893SOL    HW226022   3.238   0.686   7.020
 4894SOL     OW26023   2.665   1.402   6.510
 4894SOL    HW126024   2.755   1.416   6.468
 4894SOL    HW226025   2.594   1.404   6.439
 4895SOL     OW26026   2.784   0.503   6.485
 4895SOL    HW126027   2.759   0.494   6.389
 4895SOL    HW226028   2.832   0.421   6.516
 4896SOL     OW26029   2.401   0.064   6.098
 4896SOL    HW126030   2.320   0.065   6.156
 4896SOL    HW226031   2.404   0.147   6.043
 4897SOL     OW26032   3.296   1.188   5.627
 4897SOL    HW126033   3.328   1.112   5.684
 4897SOL    HW226034   3.204   1.215   5.657
 4898SOL     OW26035   2.159   0.035   5.757
 4898SOL    HW126036   2.208   0.119   5.736
 4898SOL    HW226037   2.221  -0.030   5.802
 4899SOL     OW26038   2.797   0.236   6.066
 4899SOL    HW126039   2.749   0.277   5.988
 4899SOL    HW226040   2.896   0.234   6.047
 4900SOL     OW26041   2.938   0.683   7.050
 4900SOL    HW126042   2.858   0.622   7.053
 4900SOL    HW226043   3.019   0.630   7.026
 4901SOL     OW26044   3.089   1.570   6.379
 4901SOL    HW126045   3.110   1.644   6.314
 4901SOL    HW226046   3.157   1.570   6.452
 4902SOL     OW26047   2.321   1.152   6.327
 4902SOL    HW126048   2.250   1.125   6.392
 4902SOL    HW226049   2.295   1.124   6.234
 4903SOL     OW26050   3.133   1.797   6.177
 4903SOL    HW126051   3.177   1.861   6.113
 4903SOL    HW226052   3.083   1.849   6.247
 4904SOL     OW26053   2.894   0.549   5.602
 4904SOL    HW126054   2.853   0.631   5.563
 4904SOL    HW226055   2.958   0.575   5.675
 4905SOL     OW26056   1.940   0.556   6.972
 4905SOL    HW126057   2.032   0.555   6.931
 4905SOL    HW226058   1.934   0.630   7.039
 4906SOL     OW26059   2.423   0.222   6.733
 4906SOL    HW126060   2.461   0.138   6.770
 4906SOL    HW226061   2.335   0.241   6.777
 4907SOL     OW26062   2.728   0.454   6.228
 4907SOL    HW126063   2.696   0.526   6.166
 4907SOL    HW226064   2.752   0.373   6.175
 4908SOL     OW26065   2.879   0.039   6.339
 4908SOL    HW126066   2.807   0.044   6.270
 4908SOL    HW226067   2.855  -0.030   6.408
 4909SOL     OW26068   3.291   1.173   6.453
 4909SOL    HW126069   3.236   1.089   6.446
 4909SOL    HW226070   3.317   1.202   6.361
 4910SOL     OW26071   3.328   0.590   6.578
 4910SOL    HW126072   3.298   0.495   6.585
 4910SOL    HW226073   3.401   0.606   6.644
 4911SOL     OW26074   3.719   0.833   5.963
 4911SOL    HW126075   3.761   0.769   6.027
 4911SOL    HW226076   3.681   0.782   5.885
 4912SOL     OW26077   2.350   1.385   5.760
 4912SOL    HW126078   2.263   1.370   5.807
 4912SOL    HW226079   2.333   1.411   5.665
 4913SOL     OW26080   3.526   1.280   6.243
 4913SOL    HW126081   3.625   1.288   6.257
 4913SOL    HW226082   3.481   1.364   6.274
 4914SOL     OW26083   3.252   0.575   5.664
 4914SOL    HW126084   3.198   0.554   5.745
 4914SOL    HW226085   3.343   0.534   5.673
 4915SOL     OW26086   2.389   0.256   5.914
 4915SOL    HW126087   2.416   0.197   5.839
 4915SOL    HW226088   2.389   0.351   5.883
 4916SOL     OW26089   3.616   1.223   7.174
 4916SOL    HW126090   3.707   1.184   7.161
 4916SOL    HW226091   3.624   1.319   7.198
 4917SOL     OW26092   2.926   1.347   6.926
 4917SOL    HW126093   2.846   1.324   6.981
 4917SOL    HW226094   3.009   1.321   6.975
 4918SOL     OW26095   3.454   1.629   7.211
 4918SOL    HW126096   3.481   1.663   7.121
 4918SOL    HW226097   3.533   1.591   7.257
 4919SOL     OW26098   2.973   1.195   6.686
 4919SOL    HW126099   2.933   1.239   6.767
 4919SOL    HW226100   2.932   1.232   6.603
 4920SOL     OW26101   3.500   1.099   6.665
 4920SOL    HW126102   3.505   1.180   6.724
 4920SOL    HW226103   3.414   1.101   6.614
 4921SOL     OW26104   2.777   0.089   6.988
 4921SOL    HW126105   2.802   0.069   6.893
 4921SOL    HW226106   2.849   0.145   7.030
 4922SOL     OW26107   2.842   1.116   7.305
 4922SOL    HW126108   2.743   1.122   7.315
 4922SOL    HW226109   2.865   1.036   7.249
 4923SOL     OW26110   2.567   1.050   5.954
 4923SOL    HW126111   2.553   1.057   6.053
 4923SOL    HW226112   2.651   0.999   5.936
 4924SOL     OW26113   2.272   0.813   6.837
 4924SOL    HW126114   2.358   0.825   6.887
 4924SOL    HW226115   2.230   0.726   6.864
 4925SOL     OW26116   3.136   0.386   6.848
 4925SOL    HW126117   3.157   0.460   6.912
 4925SOL    HW226118   3.047   0.403   6.805
 4926SOL     OW26119   1.926   1.564   6.917
 4926SOL    HW126120   1.880   1.646   6.883
 4926SOL    HW226121   2.024   1.583   6.926
 4927SOL     OW26122   2.229   1.100   6.087
 4927SOL    HW126123   2.222   1.183   6.031
 4927SOL    HW226124   2.233   1.020   6.027
 4928SOL     OW26125   2.428   0.537   6.451
 4928SOL    HW126126   2.440   0.603   6.377
 4928SOL    HW226127   2.474   0.571   6.534
 4929SOL     OW26128   3.114   1.348   5.974
 4929SOL    HW126129   3.164   1.425   6.014
 4929SOL    HW226130   3.019   1.350   6.006
 4930SOL     OW26131   3.134   1.445   6.728
 4930SOL    HW126132   3.181   1.458   6.815
 4930SOL    HW226133   3.068   1.371   6.737
 4931SOL     OW26134   3.444   0.639   6.058
 4931SOL    HW126135   3.413   0.700   6.131
 4931SOL    HW226136   3.494   0.691   5.989
 4932SOL     OW26137   2.216   1.510   6.915
 4932SOL    HW126138   2.195   1.466   6.828
 4932SOL    HW226139   2.313   1.536   6.918
 4933SOL     OW26140   2.264   0.751   7.184
 4933SOL    HW126141   2.332   0.806   7.137
 4933SOL    HW226142   2.304   0.663   7.211
 4934SOL     OW26143   3.449   0.779   7.256
 4934SOL    HW126144   3.357   0.817   7.251
 4934SOL    HW226145   3.509   0.826   7.191
 4935SOL     OW26146   2.875   0.105   7.356
 4935SOL    HW126147   2.881   0.190   7.304
 4935SOL    HW226148   2.907   0.029   7.299
 4936SOL     OW26149   2.366   0.050   7.326
 4936SOL    HW126150   2.324  -0.007   7.256
 4936SOL    HW226151   2.300   0.119   7.358
 4937SOL     OW26152   2.435   0.870   6.615
 4937SOL    HW126153   2.479   0.959   6.606
 4937SOL    HW226154   2.372   0.870   6.692
 4938SOL     OW26155   3.222   0.862   6.631
 4938SOL    HW126156   3.147   0.862   6.565
 4938SOL    HW226157   3.259   0.770   6.640
 4939SOL     OW26158   3.071   0.525   5.861
 4939SOL    HW126159   3.084   0.441   5.915
 4939SOL    HW226160   3.042   0.599   5.921
 4940SOL     OW26161   2.169   0.213   6.817
 4940SOL    HW126162   2.146   0.250   6.907
 4940SOL    HW226163   2.139   0.118   6.811
 4941SOL     OW26164   1.899   1.310   6.868
 4941SOL    HW126165   1.952   1.261   6.936
 4941SOL    HW226166   1.921   1.408   6.873
 4942SOL     OW26167   2.594   0.634   6.650
 4942SOL    HW126168   2.653   0.608   6.574
 4942SOL    HW226169   2.566   0.730   6.639
 4943SOL     OW26170   3.590   0.935   7.440
 4943SOL    HW126171   3.544   0.928   7.351
 4943SOL    HW226172   3.528   0.979   7.506
 4944SOL     OW26173   2.169   0.063   6.204
 4944SOL    HW126174   2.158   0.157   6.237
 4944SOL    HW226175   2.164   0.000   6.281
 4945SOL     OW26176   3.484   0.367   5.960
 4945SOL    HW126177   3.486   0.291   6.024
 4945SOL    HW226178   3.436   0.444   6.000
 4946SOL     OW26179   2.885   0.766   6.552
 4946SOL    HW126180   2.900   0.787   6.648
 4946SOL    HW226181   2.855   0.671   6.543
 4947SOL     OW26182   2.842   1.573   7.286
 4947SOL    HW126183   2.822   1.617   7.198
 4947SOL    HW226184   2.881   1.482   7.270
 4948SOL     OW26185   3.721   1.518   7.191
 4948SOL    HW126186   3.735   1.545   7.096
 4948SOL    HW226187   3.804   1.540   7.244
 4949SOL     OW26188   2.212   0.898   7.390
 4949SOL    HW126189   2.288   0.942   7.438
 4949SOL    HW226190   2.247   0.851   7.308
 4950SOL     OW26191   3.402   0.274   5.711
 4950SOL    HW126192   3.341   0.199   5.734
 4950SOL    HW226193   3.424   0.326   5.794
 4951SOL     OW26194   3.165   0.838   5.628
 4951SOL    HW126195   3.199   0.745   5.643
 4951SOL    HW226196   3.183   0.865   5.533
 4952SOL     OW26197   2.930   1.333   6.435
 4952SOL    HW126198   2.937   1.249   6.380
 4952SOL    HW226199   2.992   1.402   6.399
 4953SOL     OW26200   2.181   0.810   6.535
 4953SOL    HW126201   2.274   0.846   6.540
 4953SOL    HW226202   2.175   0.725   6.587
 4954SOL     OW26203   2.201   0.509   6.592
 4954SOL    HW126204   2.149   0.426   6.575
 4954SOL    HW226205   2.278   0.514   6.528
 4955SOL     OW26206   3.000   0.380   7.264
 4955SOL    HW126207   2.955   0.443   7.328
 4955SOL    HW226208   3.093   0.411   7.247
 4956SOL     OW26209   3.022   0.207   7.063
 4956SOL    HW126210   3.022   0.271   7.140
 4956SOL    HW226211   3.050   0.255   6.980
 4957SOL     OW26212   1.870   1.326   5.786
 4957SOL    HW126213   1.777   1.347   5.755
 4957SOL    HW226214   1.880   1.227   5.799
 4958SOL     OW26215   1.950   1.801   6.513
 4958SOL    HW126216   1.908   1.715   6.486
 4958SOL    HW226217   2.044   1.804   6.479
 4959SOL     OW26218   2.366   1.568   6.496
 4959SOL    HW126219   2.432   1.642   6.505
 4959SOL    HW226220   2.410   1.489   6.454
 4960SOL     OW26221   2.864   0.796   6.824
 4960SOL    HW126222   2.905   0.764   6.910
 4960SOL    HW226223   2.768   0.769   6.821
 4961SOL     OW26224   1.902   0.544   6.700
 4961SOL    HW126225   1.987   0.511   6.659
 4961SOL    HW226226   1.915   0.559   6.798
 4962SOL     OW26227   2.051   0.520   7.308
 4962SOL    HW126228   2.110   0.480   7.238
 4962SOL    HW226229   1.993   0.591   7.267
 4963SOL     OW26230   3.231   0.950   7.246
 4963SOL    HW126231   3.270   1.039   7.266
 4963SOL    HW226232   3.241   0.930   7.149
 4964SOL     OW26233   2.677   0.572   5.911
 4964SOL    HW126234   2.684   0.483   5.865
 4964SOL    HW226235   2.583   0.606   5.903
 4965SOL     OW26236   3.519   0.604   6.792
 4965SOL    HW126237   3.481   0.535   6.854
 4965SOL    HW226238   3.601   0.568   6.748
 4966SOL     OW26239   2.114   1.564   7.330
 4966SOL    HW126240   2.084   1.621   7.406
 4966SOL    HW226241   2.107   1.467   7.356
 4967SOL     OW26242   2.533   0.464   6.855
 4967SOL    HW126243   2.499   0.375   6.825
 4967SOL    HW226244   2.559   0.518   6.775
 4968SOL     OW26245   2.792   1.678   7.051
 4968SOL    HW126246   2.768   1.660   6.956
 4968SOL    HW226247   2.822   1.772   7.061
 4969SOL     OW26248   2.335   0.500   5.777
 4969SOL    HW126249   2.396   0.580   5.781
 4969SOL    HW226250   2.240   0.531   5.784
 4970SOL     OW26251   2.021   1.137   7.052
 4970SOL    HW126252   2.043   1.076   7.128
 4970SOL    HW226253   2.031   1.088   6.966
 4971SOL     OW26254   3.209   1.059   6.820
 4971SOL    HW126255   3.233   0.996   6.746
 4971SOL    HW226256   3.119   1.099   6.802
 4972SOL     OW26257   3.164   0.855   5.895
 4972SOL    HW126258   3.078   0.824   5.937
 4972SOL    HW226259   3.160   0.841   5.796
 4973SOL     OW26260   3.621   1.747   6.740
 4973SOL    HW126261   3.682   1.777   6.667
 4973SOL    HW226262   3.583   1.658   6.718
 4974SOL     OW26263   3.114   1.731   6.714
 4974SOL    HW126264   3.198   1.736   6.660
 4974SOL    HW226265   3.091   1.635   6.732
 4975SOL     OW26266   1.945   1.258   6.608
 4975SOL    HW126267   1.940   1.257   6.708
 4975SOL    HW226268   1.862   1.217   6.570
 4976SOL     OW26269   2.550   1.662   7.302
 4976SOL    HW126270   2.494   1.743   7.311
 4976SOL    HW226271   2.602   1.666   7.216
 4977SOL     OW26272   3.588   0.135   6.109
 4977SOL    HW126273   3.661   0.118   6.042
 4977SOL    HW226274   3.557   0.048   6.147
 4978SOL     OW26275   3.250   1.573   6.063
 4978SOL    HW126276   3.317   1.585   5.989
 4978SOL    HW226277   3.210   1.662   6.086
 4979SOL     OW26278   1.992   1.794   7.437
 4979SOL    HW126279   1.951   1.720   7.490
 4979SOL    HW226280   2.056   1.845   7.495
 4980SOL     OW26281   3.142   0.927   6.258
 4980SOL    HW126282   3.202   0.846   6.260
 4980SOL    HW226283   3.182   0.996   6.198
 4981SOL     OW26284   2.692   1.273   7.008
 4981SOL    HW126285   2.687   1.306   7.103
 4981SOL    HW226286   2.606   1.292   6.962
 4982SOL     OW26287   2.534   1.616   5.740
 4982SOL    HW126288   2.543   1.626   5.641
 4982SOL    HW226289   2.494   1.527   5.761
 4983SOL     OW26290   3.512   1.720   6.980
 4983SOL    HW126291   3.565   1.730   6.896
 4983SOL    HW226292   3.485   1.810   7.014
 4984SOL     OW26293   3.703   0.175   6.549
 4984SOL    HW126294   3.742   0.090   6.513
 4984SOL    HW226295   3.605   0.177   6.530
 4985SOL     OW26296   2.125   0.326   6.306
 4985SOL    HW126297   2.046   0.377   6.272
 4985SOL    HW226298   2.116   0.311   6.404
 4986SOL     OW26299   3.056   1.612   5.617
 4986SOL    HW126300   3.062   1.519   5.654
 4986SOL    HW226301   2.997   1.612   5.537
 4987SOL     OW26302   2.684   1.002   6.958
 4987SOL    HW126303   2.724   1.001   6.866
 4987SOL    HW226304   2.694   1.094   6.998
 4988SOL     OW26305   2.778   0.910   5.877
 4988SOL    HW126306   2.841   0.948   5.809
 4988SOL    HW226307   2.818   0.827   5.916
 4989SOL     OW26308   3.366   1.607   5.630
 4989SOL    HW126309   3.274   1.644   5.637
 4989SOL    HW226310   3.404   1.627   5.540
 4990SOL     OW26311   2.234   1.288   7.076
 4990SOL    HW126312   2.221   1.381   7.042
 4990SOL    HW226313   2.150   1.236   7.063
 4991SOL     OW26314   3.476   1.292   6.875
 4991SOL    HW126315   3.536   1.295   6.955
 4991SOL    HW226316   3.401   1.356   6.888
 4992SOL     OW26317   2.901   1.098   6.282
 4992SOL    HW126318   2.831   1.051   6.336
 4992SOL    HW226319   2.960   1.030   6.239
 4993SOL     OW26320   2.876   0.236   6.557
 4993SOL    HW126321   2.868   0.200   6.464
 4993SOL    HW226322   2.874   0.160   6.622
 4994SOL     OW26323   2.452   1.487   6.077
 4994SOL    HW126324   2.494   1.429   6.007
 4994SOL    HW226325   2.408   1.566   6.033
 4995SOL     OW26326   3.571   0.385   6.967
 4995SOL    HW126327   3.644   0.454   6.971
 4995SOL    HW226328   3.599   0.310   6.908
 4996SOL     OW26329   2.117   1.348   5.876
 4996SOL    HW126330   2.021   1.349   5.849
 4996SOL    HW226331   2.129   1.401   5.960
 4997SOL     OW26332   1.967   1.013   7.312
 4997SOL    HW126333   1.890   0.980   7.366
 4997SOL    HW226334   2.052   0.983   7.354
 4998SOL     OW26335   2.534   0.203   7.075
 4998SOL    HW126336   2.624   0.187   7.035
 4998SOL    HW226337   2.542   0.208   7.174
 4999SOL     OW26338   1.937   0.345   5.619
 4999SOL    HW126339   1.845   0.317   5.590
 4999SOL    HW226340   1.968   0.422   5.563
 5000SOL     OW26341   3.302   0.856   6.984
 5000SOL    HW126342   3.245   0.908   6.921
 5000SOL    HW226343   3.398   0.868   6.960
 5001SOL     OW26344   1.934   0.166   5.904
 5001SOL    HW126345   1.917   0.249   5.850
 5001SOL    HW226346   2.024   0.129   5.882
 5002SOL     OW26347   3.045   1.335   5.705
 5002SOL    HW126348   2.946   1.324   5.707
 5002SOL    HW226349   3.079   1.350   5.798
 5003SOL     OW26350   2.475   0.842   7.017
 5003SOL    HW126351   2.531   0.923   7.000
 5003SOL    HW226352   2.534   0.762   7.020
 5004SOL     OW26353   3.355   1.767   6.545
 5004SOL    HW126354   3.388   1.831   6.476
 5004SOL    HW226355   3.421   1.761   6.620
 5005SOL     OW26356   2.578   0.565   7.294
 5005SOL    HW126357   2.597   0.630   7.368
 5005SOL    HW226358   2.638   0.485   7.303
 5006SOL     OW26359   3.312   1.220   7.219
 5006SOL    HW126360   3.303   1.210   7.318
 5006SOL    HW226361   3.408   1.213   7.193
 5007SOL     OW26362   2.252   1.741   7.146
 5007SOL    HW126363   2.161   1.782   7.144
 5007SOL    HW226364   2.245   1.647   7.178
 5008SOL     OW26365   3.536   0.883   6.840
 5008SOL    HW126366   3.509   0.794   6.803
 5008SOL    HW226367   3.537   0.951   6.767
 5009SOL     OW26368   3.087   0.325   6.035
 5009SOL    HW126369   3.152   0.251   6.024
 5009SOL    HW226370   3.107   0.375   6.119
 5010SOL     OW26371   2.456   0.745   6.238
 5010SOL    HW126372   2.506   0.830   6.219
 5010SOL    HW226373   2.368   0.747   6.190
 5011SOL     OW26374   3.639   0.342   7.228
 5011SOL    HW126375   3.622   0.373   7.134
 5011SOL    HW226376   3.555   0.305   7.266
 5012SOL     OW26377   3.592   0.934   7.103
 5012SOL    HW126378   3.630   1.025   7.118
 5012SOL    HW226379   3.584   0.917   7.004
 5013SOL     OW26380   2.721   1.374   5.602
 5013SOL    HW126381   2.675   1.389   5.690
 5013SOL    HW226382   2.765   1.459   5.572
 5014SOL     OW26383   2.523   1.790   6.539
 5014SOL    HW126384   2.477   1.878   6.526
 5014SOL    HW226385   2.622   1.802   6.532
 5015SOL     OW26386   2.721   0.956   6.447
 5015SOL    HW126387   2.775   0.887   6.495
 5015SOL    HW226388   2.689   1.025   6.513
 5016SOL     OW26389   2.945   0.984   5.673
 5016SOL    HW126390   2.922   1.037   5.591
 5016SOL    HW226391   3.026   0.928   5.654
 5017SOL     OW26392   3.723   1.569   6.437
 5017SOL    HW126393   3.652   1.557   6.367
 5017SOL    HW226394   3.724   1.490   6.497
 5018SOL     OW26395   2.083   1.314   7.430
 5018SOL    HW126396   2.018   1.241   7.409
 5018SOL    HW226397   2.087   1.328   7.528
 5019SOL     OW26398   1.941   1.240   6.239
 5019SOL    HW126399   1.940   1.193   6.327
 5019SOL    HW226400   2.023   1.212   6.188
 5020SOL     OW26401   2.534   1.391   7.210
 5020SOL    HW126402   2.456   1.341   7.248
 5020SOL    HW226403   2.531   1.486   7.241
 5021SOL     OW26404   3.686   0.192   6.813
 5021SOL    HW126405   3.682   0.102   6.857
 5021SOL    HW226406   3.689   0.181   6.714
 5022SOL     OW26407   2.290   0.424   6.106
 5022SOL    HW126408   2.320   0.352   6.044
 5022SOL    HW226409   2.251   0.384   6.189
 5023SOL     OW26410   3.567   1.487   6.690
 5023SOL    HW126411   3.474   1.462   6.663
 5023SOL    HW226412   3.593   1.437   6.772
 5024SOL     OW26413   2.179   0.547   6.866
 5024SOL    HW126414   2.217   0.488   6.938
 5024SOL    HW226415   2.219   0.521   6.778
 5025SOL     OW26416   2.674   1.586   6.273
 5025SOL    HW126417   2.706   1.596   6.179
 5025SOL    HW226418   2.595   1.524   6.275
 5026SOL     OW26419   3.286   0.214   6.698
 5026SOL    HW126420   3.338   0.149   6.753
 5026SOL    HW226421   3.237   0.277   6.759
 5027SOL     OW26422   2.863   0.034   6.740
 5027SOL    HW126423   2.800  -0.038   6.709
 5027SOL    HW226424   2.956  -0.002   6.740
 5028SOL     OW26425   2.632   1.330   5.887
 5028SOL    HW126426   2.586   1.243   5.904
 5028SOL    HW226427   2.723   1.327   5.928
 5029SOL     OW26428   2.480   1.567   6.870
 5029SOL    HW126429   2.475   1.649   6.927
 5029SOL    HW226430   2.569   1.564   6.825
 5030SOL     OW26431   3.214   0.052   5.754
 5030SOL    HW126432   3.249   0.011   5.670
 5030SOL    HW226433   3.124   0.014   5.774
 5031SOL     OW26434   3.162   0.453   6.277
 5031SOL    HW126435   3.103   0.533   6.281
 5031SOL    HW226436   3.177   0.418   6.370
 5032SOL     OW26437   3.455   0.221   6.468
 5032SOL    HW126438   3.371   0.220   6.522
 5032SOL    HW226439   3.457   0.304   6.412
 5033SOL     OW26440   1.901   1.077   5.886
 5033SOL    HW126441   2.000   1.066   5.877
 5033SOL    HW226442   1.861   0.991   5.918
 5034SOL     OW26443   2.737   1.646   5.923
 5034SOL    HW126444   2.660   1.611   5.869
 5034SOL    HW226445   2.705   1.717   5.985
 5035SOL     OW26446   2.092   0.628   7.561
 5035SOL    HW126447   1.999   0.626   7.598
 5035SOL    HW226448   2.093   0.589   7.469
 5036SOL     OW26449   2.087   0.275   8.444
 5036SOL    HW126450   2.122   0.258   8.536
 5036SOL    HW226451   1.999   0.230   8.432
 5037SOL     OW26452   1.881   0.368   8.095
 5037SOL    HW126453   1.799   0.411   8.134
 5037SOL    HW226454   1.853   0.295   8.032
 5038SOL     OW26455   2.431   1.275   8.613
 5038SOL    HW126456   2.338   1.268   8.576
 5038SOL    HW226457   2.442   1.364   8.657
 5039SOL     OW26458   3.417   1.511   8.151
 5039SOL    HW126459   3.360   1.495   8.232
 5039SOL    HW226460   3.358   1.521   8.071
 5040SOL     OW26461   2.997   0.703   8.165
 5040SOL    HW126462   3.054   0.781   8.140
 5040SOL    HW226463   2.937   0.729   8.241
 5041SOL     OW26464   3.617   0.607   7.679
 5041SOL    HW126465   3.605   0.594   7.580
 5041SOL    HW226466   3.587   0.526   7.728
 5042SOL     OW26467   2.630   1.144   8.471
 5042SOL    HW126468   2.552   1.161   8.531
 5042SOL    HW226469   2.664   1.231   8.435
 5043SOL     OW26470   2.547   1.012   8.113
 5043SOL    HW126471   2.616   0.996   8.183
 5043SOL    HW226472   2.474   1.069   8.151
 5044SOL     OW26473   2.548   1.161   9.251
 5044SOL    HW126474   2.608   1.240   9.265
 5044SOL    HW226475   2.462   1.192   9.210
 5045SOL     OW26476   2.197   1.435   8.509
 5045SOL    HW126477   2.119   1.404   8.456
 5045SOL    HW226478   2.255   1.493   8.452
 5046SOL     OW26479   3.322   1.505   8.787
 5046SOL    HW126480   3.346   1.599   8.813
 5046SOL    HW226481   3.306   1.451   8.869
 5047SOL     OW26482   2.300   0.392   8.947
 5047SOL    HW126483   2.382   0.336   8.956
 5047SOL    HW226484   2.219   0.334   8.951
 5048SOL     OW26485   3.465   0.447   8.185
 5048SOL    HW126486   3.391   0.493   8.135
 5048SOL    HW226487   3.516   0.515   8.238
 5049SOL     OW26488   2.093   1.713   7.931
 5049SOL    HW126489   2.127   1.790   7.985
 5049SOL    HW226490   2.137   1.713   7.841
 5050SOL     OW26491   2.989   1.341   9.138
 5050SOL    HW126492   3.036   1.341   9.226
 5050SOL    HW226493   2.941   1.254   9.127
 5051SOL     OW26494   2.092   1.434   7.986
 5051SOL    HW126495   2.066   1.530   7.986
 5051SOL    HW226496   2.021   1.380   8.031
 5052SOL     OW26497   2.102   1.091   8.334
 5052SOL    HW126498   2.116   1.007   8.386
 5052SOL    HW226499   2.047   1.155   8.389
 5053SOL     OW26500   2.482   1.786   8.887
 5053SOL    HW126501   2.390   1.769   8.922
 5053SOL    HW226502   2.510   1.878   8.913
 5054SOL     OW26503   2.468   0.964   7.571
 5054SOL    HW126504   2.475   1.048   7.517
 5054SOL    HW226505   2.514   0.977   7.659
 5055SOL     OW26506   3.456   0.114   8.928
 5055SOL    HW126507   3.438   0.181   8.856
 5055SOL    HW226508   3.453   0.160   9.017
 5056SOL     OW26509   1.984   0.643   8.011
 5056SOL    HW126510   1.939   0.555   8.028
 5056SOL    HW226511   1.983   0.697   8.095
 5057SOL     OW26512   3.704   1.767   7.807
 5057SOL    HW126513   3.758   1.738   7.887
 5057SOL    HW226514   3.734   1.857   7.778
 5058SOL     OW26515   1.889   1.596   7.565
 5058SOL    HW126516   1.870   1.500   7.586
 5058SOL    HW226517   1.856   1.654   7.640
 5059SOL     OW26518   3.551   0.922   8.060
 5059SOL    HW126519   3.646   0.893   8.068
 5059SOL    HW226520   3.543   0.987   7.985
 5060SOL     OW26521   3.503   1.108   7.880
 5060SOL    HW126522   3.589   1.110   7.828
 5060SOL    HW226523   3.517   1.155   7.968
 5061SOL     OW26524   1.975   0.737   9.045
 5061SOL    HW126525   2.063   0.724   9.090
 5061SOL    HW226526   1.962   0.834   9.023
 5062SOL     OW26527   2.475   1.365   8.174
 5062SOL    HW126528   2.426   1.278   8.183
 5062SOL    HW226529   2.452   1.408   8.087
 5063SOL     OW26530   3.155   1.228   8.871
 5063SOL    HW126531   3.192   1.155   8.813
 5063SOL    HW226532   3.207   1.233   8.956
 5064SOL     OW26533   2.671   0.004   7.950
 5064SOL    HW126534   2.711   0.095   7.941
 5064SOL    HW226535   2.571   0.012   7.956
 5065SOL     OW26536   2.059   0.976   8.712
 5065SOL    HW126537   2.148   0.931   8.698
 5065SOL    HW226538   1.986   0.911   8.693
 5066SOL     OW26539   3.387   0.999   7.638
 5066SOL    HW126540   3.324   0.923   7.651
 5066SOL    HW226541   3.435   1.017   7.724
 5067SOL     OW26542   3.049   1.792   9.064
 5067SOL    HW126543   3.073   1.852   8.988
 5067SOL    HW226544   3.056   1.697   9.034
 5068SOL     OW26545   3.328   1.417   8.401
 5068SOL    HW126546   3.269   1.423   8.481
 5068SOL    HW226547   3.313   1.329   8.355
 5069SOL     OW26548   3.529   1.714   8.020
 5069SOL    HW126549   3.488   1.691   7.932
 5069SOL    HW226550   3.511   1.640   8.085
 5070SOL     OW26551   2.460   0.729   7.718
 5070SOL    HW126552   2.484   0.798   7.650
 5070SOL    HW226553   2.382   0.762   7.772
 5071SOL     OW26554   3.143   0.345   8.392
 5071SOL    HW126555   3.057   0.295   8.379
 5071SOL    HW226556   3.205   0.291   8.448
 5072SOL     OW26557   3.438   1.662   7.755
 5072SOL    HW126558   3.527   1.708   7.758
 5072SOL    HW226559   3.417   1.638   7.660
 5073SOL     OW26560   3.256   0.469   9.122
 5073SOL    HW126561   3.236   0.512   9.210
 5073SOL    HW226562   3.334   0.407   9.131
 5074SOL     OW26563   2.853   0.410   8.690
 5074SOL    HW126564   2.776   0.444   8.744
 5074SOL    HW226565   2.819   0.359   8.611
 5075SOL     OW26566   2.903   0.701   7.877
 5075SOL    HW126567   2.929   0.697   7.973
 5075SOL    HW226568   2.818   0.650   7.863
 5076SOL     OW26569   1.938   0.811   8.237
 5076SOL    HW126570   2.037   0.799   8.246
 5076SOL    HW226571   1.914   0.906   8.258
 5077SOL     OW26572   1.992   1.821   9.019
 5077SOL    HW126573   1.982   1.806   9.118
 5077SOL    HW226574   1.906   1.857   8.983
 5078SOL     OW26575   2.727   0.348   7.643
 5078SOL    HW126576   2.786   0.411   7.594
 5078SOL    HW226577   2.746   0.254   7.614
 5079SOL     OW26578   3.581   0.585   9.279
 5079SOL    HW126579   3.555   0.674   9.243
 5079SOL    HW226580   3.579   0.517   9.206
 5080SOL     OW26581   3.224   1.144   7.993
 5080SOL    HW126582   3.307   1.115   7.945
 5080SOL    HW226583   3.175   1.211   7.937
 5081SOL     OW26584   2.412   0.196   8.333
 5081SOL    HW126585   2.407   0.191   8.433
 5081SOL    HW226586   2.414   0.292   8.304
 5082SOL     OW26587   2.870   1.456   7.925
 5082SOL    HW126588   2.824   1.528   7.873
 5082SOL    HW226589   2.866   1.476   8.023
 5083SOL     OW26590   2.213   1.801   8.301
 5083SOL    HW126591   2.263   1.715   8.307
 5083SOL    HW226592   2.278   1.878   8.298
 5084SOL     OW26593   3.657   1.066   8.321
 5084SOL    HW126594   3.595   1.051   8.245
 5084SOL    HW226595   3.605   1.077   8.406
 5085SOL     OW26596   3.089   1.550   8.954
 5085SOL    HW126597   3.095   1.473   9.018
 5085SOL    HW226598   3.037   1.524   8.874
 5086SOL     OW26599   2.183   0.943   7.690
 5086SOL    HW126600   2.265   0.982   7.648
 5086SOL    HW226601   2.156   0.861   7.641
 5087SOL     OW26602   3.320   0.735   8.176
 5087SOL    HW126603   3.315   0.670   8.251
 5087SOL    HW226604   3.400   0.794   8.189
 5088SOL     OW26605   2.323   1.266   9.175
 5088SOL    HW126606   2.273   1.267   9.089
 5088SOL    HW226607   2.260   1.248   9.251
 5089SOL     OW26608   2.973   1.776   7.685
 5089SOL    HW126609   2.913   1.714   7.735
 5089SOL    HW226610   3.004   1.732   7.600
 5090SOL     OW26611   3.494   1.377   7.529
 5090SOL    HW126612   3.462   1.471   7.519
 5090SOL    HW226613   3.418   1.314   7.517
 5091SOL     OW26614   2.326   1.743   7.771
 5091SOL    HW126615   2.359   1.782   7.857
 5091SOL    HW226616   2.402   1.736   7.706
 5092SOL     OW26617   3.262   0.107   7.874
 5092SOL    HW126618   3.238   0.070   7.784
 5092SOL    HW226619   3.361   0.123   7.878
 5093SOL     OW26620   2.111   1.785   8.689
 5093SOL    HW126621   2.168   1.720   8.739
 5093SOL    HW226622   2.095   1.752   8.596
 5094SOL     OW26623   2.802   1.698   8.352
 5094SOL    HW126624   2.882   1.641   8.373
 5094SOL    HW226625   2.753   1.658   8.275
 5095SOL     OW26626   2.244   0.700   7.928
 5095SOL    HW126627   2.289   0.610   7.925
 5095SOL    HW226628   2.150   0.689   7.961
 5096SOL     OW26629   3.409   0.222   9.177
 5096SOL    HW126630   3.404   0.259   9.269
 5096SOL    HW226631   3.337   0.153   9.165
 5097SOL     OW26632   2.476   0.122   7.565
 5097SOL    HW126633   2.574   0.100   7.572
 5097SOL    HW226634   2.445   0.105   7.472
 5098SOL     OW26635   2.643   0.264   9.197
 5098SOL    HW126636   2.710   0.203   9.240
 5098SOL    HW226637   2.570   0.283   9.262
 5099SOL     OW26638   2.750   1.514   8.643
 5099SOL    HW126639   2.727   1.489   8.549
 5099SOL    HW226640   2.811   1.445   8.682
 5100SOL     OW26641   3.213   0.590   8.881
 5100SOL    HW126642   3.241   0.547   8.966
 5100SOL    HW226643   3.238   0.686   8.882
 5101SOL     OW26644   2.665   1.402   8.372
 5101SOL    HW126645   2.755   1.416   8.330
 5101SOL    HW226646   2.594   1.404   8.301
 5102SOL     OW26647   2.784   0.503   8.347
 5102SOL    HW126648   2.759   0.494   8.251
 5102SOL    HW226649   2.832   0.421   8.378
 5103SOL     OW26650   2.401   0.064   7.960
 5103SOL    HW126651   2.320   0.065   8.018
 5103SOL    HW226652   2.404   0.147   7.905
 5104SOL     OW26653   3.296   1.188   7.489
 5104SOL    HW126654   3.328   1.112   7.546
 5104SOL    HW226655   3.204   1.215   7.519
 5105SOL     OW26656   2.159   0.035   7.619
 5105SOL    HW126657   2.208   0.119   7.598
 5105SOL    HW226658   2.221  -0.030   7.664
 5106SOL     OW26659   2.797   0.236   7.928
 5106SOL    HW126660   2.749   0.277   7.850
 5106SOL    HW226661   2.896   0.234   7.909
 5107SOL     OW26662   3.089   1.570   8.241
 5107SOL    HW126663   3.110   1.644   8.176
 5107SOL    HW226664   3.157   1.570   8.314
 5108SOL     OW26665   2.321   1.152   8.189
 5108SOL    HW126666   2.250   1.125   8.254
 5108SOL    HW226667   2.295   1.124   8.096
 5109SOL     OW26668   3.133   1.797   8.039
 5109SOL    HW126669   3.177   1.861   7.975
 5109SOL    HW226670   3.083   1.849   8.109
 5110SOL     OW26671   2.894   0.549   7.464
 5110SOL    HW126672   2.853   0.631   7.425
 5110SOL    HW226673   2.958   0.575   7.537
 5111SOL     OW26674   1.940   0.556   8.834
 5111SOL    HW126675   2.032   0.555   8.793
 5111SOL    HW226676   1.934   0.630   8.901
 5112SOL     OW26677   2.423   0.222   8.595
 5112SOL    HW126678   2.461   0.138   8.632
 5112SOL    HW226679   2.335   0.241   8.639
 5113SOL     OW26680   2.879   0.039   8.201
 5113SOL    HW126681   2.807   0.044   8.132
 5113SOL    HW226682   2.855  -0.030   8.270
 5114SOL     OW26683   3.291   1.173   8.315
 5114SOL    HW126684   3.236   1.089   8.308
 5114SOL    HW226685   3.317   1.202   8.223
 5115SOL     OW26686   3.328   0.590   8.440
 5115SOL    HW126687   3.298   0.495   8.447
 5115SOL    HW226688   3.401   0.606   8.506
 5116SOL     OW26689   3.719   0.833   7.825
 5116SOL    HW126690   3.761   0.769   7.889
 5116SOL    HW226691   3.681   0.782   7.747
 5117SOL     OW26692   2.350   1.385   7.622
 5117SOL    HW126693   2.263   1.370   7.669
 5117SOL    HW226694   2.333   1.411   7.527
 5118SOL     OW26695   3.526   1.280   8.105
 5118SOL    HW126696   3.625   1.288   8.119
 5118SOL    HW226697   3.481   1.364   8.136
 5119SOL     OW26698   3.252   0.575   7.526
 5119SOL    HW126699   3.198   0.554   7.607
 5119SOL    HW226700   3.343   0.534   7.535
 5120SOL     OW26701   2.389   0.256   7.776
 5120SOL    HW126702   2.416   0.197   7.701
 5120SOL    HW226703   2.389   0.351   7.745
 5121SOL     OW26704   3.616   1.223   9.036
 5121SOL    HW126705   3.707   1.184   9.023
 5121SOL    HW226706   3.624   1.319   9.060
 5122SOL     OW26707   2.926   1.347   8.788
 5122SOL    HW126708   2.846   1.324   8.843
 5122SOL    HW226709   3.009   1.321   8.837
 5123SOL     OW26710   3.454   1.629   9.073
 5123SOL    HW126711   3.481   1.663   8.983
 5123SOL    HW226712   3.533   1.591   9.119
 5124SOL     OW26713   2.973   1.195   8.548
 5124SOL    HW126714   2.933   1.239   8.629
 5124SOL    HW226715   2.932   1.232   8.465
 5125SOL     OW26716   3.500   1.099   8.527
 5125SOL    HW126717   3.505   1.180   8.586
 5125SOL    HW226718   3.414   1.101   8.476
 5126SOL     OW26719   2.777   0.089   8.850
 5126SOL    HW126720   2.802   0.069   8.755
 5126SOL    HW226721   2.849   0.145   8.892
 5127SOL     OW26722   2.567   1.050   7.816
 5127SOL    HW126723   2.553   1.057   7.915
 5127SOL    HW226724   2.651   0.999   7.798
 5128SOL     OW26725   2.272   0.813   8.699
 5128SOL    HW126726   2.358   0.825   8.749
 5128SOL    HW226727   2.230   0.726   8.726
 5129SOL     OW26728   3.136   0.386   8.710
 5129SOL    HW126729   3.157   0.460   8.774
 5129SOL    HW226730   3.047   0.403   8.667
 5130SOL     OW26731   1.926   1.564   8.779
 5130SOL    HW126732   1.880   1.646   8.745
 5130SOL    HW226733   2.024   1.583   8.788
 5131SOL     OW26734   2.229   1.100   7.949
 5131SOL    HW126735   2.222   1.183   7.893
 5131SOL    HW226736   2.233   1.020   7.889
 5132SOL     OW26737   2.428   0.537   8.313
 5132SOL    HW126738   2.440   0.603   8.239
 5132SOL    HW226739   2.474   0.571   8.396
 5133SOL     OW26740   3.114   1.348   7.836
 5133SOL    HW126741   3.164   1.425   7.876
 5133SOL    HW226742   3.019   1.350   7.868
 5134SOL     OW26743   3.134   1.445   8.590
 5134SOL    HW126744   3.181   1.458   8.677
 5134SOL    HW226745   3.068   1.371   8.599
 5135SOL     OW26746   3.444   0.639   7.920
 5135SOL    HW126747   3.413   0.700   7.993
 5135SOL    HW226748   3.494   0.691   7.851
 5136SOL     OW26749   2.216   1.510   8.777
 5136SOL    HW126750   2.195   1.466   8.690
 5136SOL    HW226751   2.313   1.536   8.780
 5137SOL     OW26752   3.449   0.779   9.118
 5137SOL    HW126753   3.357   0.817   9.113
 5137SOL    HW226754   3.509   0.826   9.053
 5138SOL     OW26755   2.435   0.870   8.477
 5138SOL    HW126756   2.479   0.959   8.468
 5138SOL    HW226757   2.372   0.870   8.554
 5139SOL     OW26758   3.222   0.862   8.493
 5139SOL    HW126759   3.147   0.862   8.427
 5139SOL    HW226760   3.259   0.770   8.502
 5140SOL     OW26761   3.071   0.525   7.723
 5140SOL    HW126762   3.084   0.441   7.777
 5140SOL    HW226763   3.042   0.599   7.783
 5141SOL     OW26764   2.169   0.213   8.679
 5141SOL    HW126765   2.146   0.250   8.769
 5141SOL    HW226766   2.139   0.118   8.673
 5142SOL     OW26767   1.899   1.310   8.730
 5142SOL    HW126768   1.952   1.261   8.798
 5142SOL    HW226769   1.921   1.408   8.735
 5143SOL     OW26770   2.594   0.634   8.512
 5143SOL    HW126771   2.653   0.608   8.436
 5143SOL    HW226772   2.566   0.730   8.501
 5144SOL     OW26773   3.590   0.935   9.302
 5144SOL    HW126774   3.544   0.928   9.213
 5144SOL    HW226775   3.528   0.979   9.368
 5145SOL     OW26776   2.169   0.063   8.066
 5145SOL    HW126777   2.158   0.157   8.099
 5145SOL    HW226778   2.164   0.000   8.143
 5146SOL     OW26779   3.484   0.367   7.822
 5146SOL    HW126780   3.486   0.291   7.886
 5146SOL    HW226781   3.436   0.444   7.862
 5147SOL     OW26782   2.885   0.766   8.414
 5147SOL    HW126783   2.900   0.787   8.510
 5147SOL    HW226784   2.855   0.671   8.405
 5148SOL     OW26785   2.842   1.573   9.148
 5148SOL    HW126786   2.822   1.617   9.060
 5148SOL    HW226787   2.881   1.482   9.132
 5149SOL     OW26788   3.721   1.518   9.053
 5149SOL    HW126789   3.735   1.545   8.958
 5149SOL    HW226790   3.804   1.540   9.106
 5150SOL     OW26791   3.402   0.274   7.573
 5150SOL    HW126792   3.341   0.199   7.596
 5150SOL    HW226793   3.424   0.326   7.656
 5151SOL     OW26794   3.165   0.838   7.490
 5151SOL    HW126795   3.199   0.745   7.505
 5151SOL    HW226796   3.183   0.865   7.395
 5152SOL     OW26797   2.930   1.333   8.297
 5152SOL    HW126798   2.937   1.249   8.242
 5152SOL    HW226799   2.992   1.402   8.261
 5153SOL     OW26800   2.181   0.810   8.397
 5153SOL    HW126801   2.274   0.846   8.402
 5153SOL    HW226802   2.175   0.725   8.449
 5154SOL     OW26803   2.201   0.509   8.454
 5154SOL    HW126804   2.149   0.426   8.437
 5154SOL    HW226805   2.278   0.514   8.390
 5155SOL     OW26806   3.000   0.380   9.126
 5155SOL    HW126807   2.955   0.443   9.190
 5155SOL    HW226808   3.093   0.411   9.109
 5156SOL     OW26809   3.022   0.207   8.925
 5156SOL    HW126810   3.022   0.271   9.002
 5156SOL    HW226811   3.050   0.255   8.842
 5157SOL     OW26812   1.870   1.326   7.648
 5157SOL    HW126813   1.777   1.347   7.617
 5157SOL    HW226814   1.880   1.227   7.661
 5158SOL     OW26815   1.950   1.801   8.375
 5158SOL    HW126816   1.908   1.715   8.348
 5158SOL    HW226817   2.044   1.804   8.341
 5159SOL     OW26818   2.366   1.568   8.358
 5159SOL    HW126819   2.432   1.642   8.367
 5159SOL    HW226820   2.410   1.489   8.316
 5160SOL     OW26821   2.864   0.796   8.686
 5160SOL    HW126822   2.905   0.764   8.772
 5160SOL    HW226823   2.768   0.769   8.683
 5161SOL     OW26824   1.902   0.544   8.562
 5161SOL    HW126825   1.987   0.511   8.521
 5161SOL    HW226826   1.915   0.559   8.660
 5162SOL     OW26827   3.231   0.950   9.108
 5162SOL    HW126828   3.270   1.039   9.128
 5162SOL    HW226829   3.241   0.930   9.011
 5163SOL     OW26830   2.677   0.572   7.773
 5163SOL    HW126831   2.684   0.483   7.727
 5163SOL    HW226832   2.583   0.606   7.765
 5164SOL     OW26833   3.519   0.604   8.654
 5164SOL    HW126834   3.481   0.535   8.716
 5164SOL    HW226835   3.601   0.568   8.610
 5165SOL     OW26836   2.533   0.464   8.717
 5165SOL    HW126837   2.499   0.375   8.687
 5165SOL    HW226838   2.559   0.518   8.637
 5166SOL     OW26839   2.792   1.678   8.913
 5166SOL    HW126840   2.768   1.660   8.818
 5166SOL    HW226841   2.822   1.772   8.923
 5167SOL     OW26842   2.335   0.500   7.639
 5167SOL    HW126843   2.396   0.580   7.643
 5167SOL    HW226844   2.240   0.531   7.646
 5168SOL     OW26845   2.021   1.137   8.914
 5168SOL    HW126846   2.043   1.076   8.990
 5168SOL    HW226847   2.031   1.088   8.828
 5169SOL     OW26848   3.209   1.059   8.682
 5169SOL    HW126849   3.233   0.996   8.608
 5169SOL    HW226850   3.119   1.099   8.664
 5170SOL     OW26851   3.164   0.855   7.757
 5170SOL    HW126852   3.078   0.824   7.799
 5170SOL    HW226853   3.160   0.841   7.658
 5171SOL     OW26854   3.621   1.747   8.602
 5171SOL    HW126855   3.682   1.777   8.529
 5171SOL    HW226856   3.583   1.658   8.580
 5172SOL     OW26857   3.114   1.731   8.576
 5172SOL    HW126858   3.198   1.736   8.522
 5172SOL    HW226859   3.091   1.635   8.594
 5173SOL     OW26860   1.945   1.258   8.470
 5173SOL    HW126861   1.940   1.257   8.570
 5173SOL    HW226862   1.862   1.217   8.432
 5174SOL     OW26863   2.550   1.662   9.164
 5174SOL    HW126864   2.494   1.743   9.173
 5174SOL    HW226865   2.602   1.666   9.078
 5175SOL     OW26866   3.588   0.135   7.971
 5175SOL    HW126867   3.661   0.118   7.904
 5175SOL    HW226868   3.557   0.048   8.009
 5176SOL     OW26869   3.250   1.573   7.925
 5176SOL    HW126870   3.317   1.585   7.851
 5176SOL    HW226871   3.210   1.662   7.948
 5177SOL     OW26872   3.142   0.927   8.120
 5177SOL    HW126873   3.202   0.846   8.122
 5177SOL    HW226874   3.182   0.996   8.060
 5178SOL     OW26875   2.692   1.273   8.870
 5178SOL    HW126876   2.687   1.306   8.965
 5178SOL    HW226877   2.606   1.292   8.824
 5179SOL     OW26878   2.534   1.616   7.602
 5179SOL    HW126879   2.543   1.626   7.503
 5179SOL    HW226880   2.494   1.527   7.623
 5180SOL     OW26881   3.512   1.720   8.842
 5180SOL    HW126882   3.565   1.730   8.758
 5180SOL    HW226883   3.485   1.810   8.876
 5181SOL     OW26884   3.703   0.175   8.411
 5181SOL    HW126885   3.742   0.090   8.375
 5181SOL    HW226886   3.605   0.177   8.392
 5182SOL     OW26887   2.125   0.326   8.168
 5182SOL    HW126888   2.046   0.377   8.134
 5182SOL    HW226889   2.116   0.311   8.266
 5183SOL     OW26890   3.056   1.612   7.479
 5183SOL    HW126891   3.062   1.519   7.516
 5183SOL    HW226892   2.997   1.612   7.399
 5184SOL     OW26893   2.684   1.002   8.820
 5184SOL    HW126894   2.724   1.001   8.728
 5184SOL    HW226895   2.694   1.094   8.860
 5185SOL     OW26896   2.778   0.910   7.739
 5185SOL    HW126897   2.841   0.948   7.671
 5185SOL    HW226898   2.818   0.827   7.778
 5186SOL     OW26899   3.366   1.607   7.492
 5186SOL    HW126900   3.274   1.644   7.499
 5186SOL    HW226901   3.404   1.627   7.402
 5187SOL     OW26902   2.234   1.288   8.938
 5187SOL    HW126903   2.221   1.381   8.904
 5187SOL    HW226904   2.150   1.236   8.925
 5188SOL     OW26905   3.476   1.292   8.737
 5188SOL    HW126906   3.536   1.295   8.817
 5188SOL    HW226907   3.401   1.356   8.750
 5189SOL     OW26908   2.901   1.098   8.144
 5189SOL    HW126909   2.831   1.051   8.198
 5189SOL    HW226910   2.960   1.030   8.101
 5190SOL     OW26911   2.876   0.236   8.419
 5190SOL    HW126912   2.868   0.200   8.326
 5190SOL    HW226913   2.874   0.160   8.484
 5191SOL     OW26914   2.452   1.487   7.939
 5191SOL    HW126915   2.494   1.429   7.869
 5191SOL    HW226916   2.408   1.566   7.895
 5192SOL     OW26917   3.571   0.385   8.829
 5192SOL    HW126918   3.644   0.454   8.833
 5192SOL    HW226919   3.599   0.310   8.770
 5193SOL     OW26920   2.117   1.348   7.738
 5193SOL    HW126921   2.021   1.349   7.711
 5193SOL    HW226922   2.129   1.401   7.822
 5194SOL     OW26923   2.534   0.203   8.937
 5194SOL    HW126924   2.624   0.187   8.897
 5194SOL    HW226925   2.542   0.208   9.036
 5195SOL     OW26926   1.937   0.345   7.481
 5195SOL    HW126927   1.845   0.317   7.452
 5195SOL    HW226928   1.968   0.422   7.425
 5196SOL     OW26929   3.302   0.856   8.846
 5196SOL    HW126930   3.245   0.908   8.783
 5196SOL    HW226931   3.398   0.868   8.822
 5197SOL     OW26932   1.934   0.166   7.766
 5197SOL    HW126933   1.917   0.249   7.712
 5197SOL    HW226934   2.024   0.129   7.744
 5198SOL     OW26935   3.045   1.335   7.567
 5198SOL    HW126936   2.946   1.324   7.569
 5198SOL    HW226937   3.079   1.350   7.660
 5199SOL     OW26938   2.475   0.842   8.879
 5199SOL    HW126939   2.531   0.923   8.862
 5199SOL    HW226940   2.534   0.762   8.882
 5200SOL     OW26941   3.355   1.767   8.407
 5200SOL    HW126942   3.388   1.831   8.338
 5200SOL    HW226943   3.421   1.761   8.482
 5201SOL     OW26944   3.312   1.220   9.081
 5201SOL    HW126945   3.303   1.210   9.180
 5201SOL    HW226946   3.408   1.213   9.055
 5202SOL     OW26947   2.252   1.741   9.008
 5202SOL    HW126948   2.161   1.782   9.006
 5202SOL    HW226949   2.245   1.647   9.040
 5203SOL     OW26950   3.536   0.883   8.702
 5203SOL    HW126951   3.509   0.794   8.665
 5203SOL    HW226952   3.537   0.951   8.629
 5204SOL     OW26953   3.087   0.325   7.897
 5204SOL    HW126954   3.152   0.251   7.886
 5204SOL    HW226955   3.107   0.375   7.981
 5205SOL     OW26956   2.456   0.745   8.100
 5205SOL    HW126957   2.506   0.830   8.081
 5205SOL    HW226958   2.368   0.747   8.052
 5206SOL     OW26959   3.639   0.342   9.090
 5206SOL    HW126960   3.622   0.373   8.996
 5206SOL    HW226961   3.555   0.305   9.128
 5207SOL     OW26962   3.592   0.934   8.965
 5207SOL    HW126963   3.630   1.025   8.980
 5207SOL    HW226964   3.584   0.917   8.866
 5208SOL     OW26965   2.721   1.374   7.464
 5208SOL    HW126966   2.675   1.389   7.552
 5208SOL    HW226967   2.765   1.459   7.434
 5209SOL     OW26968   2.523   1.790   8.401
 5209SOL    HW126969   2.477   1.878   8.388
 5209SOL    HW226970   2.622   1.802   8.394
 5210SOL     OW26971   2.721   0.956   8.309
 5210SOL    HW126972   2.775   0.887   8.357
 5210SOL    HW226973   2.689   1.025   8.375
 5211SOL     OW26974   2.945   0.984   7.535
 5211SOL    HW126975   2.922   1.037   7.453
 5211SOL    HW226976   3.026   0.928   7.516
 5212SOL     OW26977   3.723   1.569   8.299
 5212SOL    HW126978   3.652   1.557   8.229
 5212SOL    HW226979   3.724   1.490   8.359
 5213SOL     OW26980   1.941   1.240   8.101
 5213SOL    HW126981   1.940   1.193   8.189
 5213SOL    HW226982   2.023   1.212   8.050
 5214SOL     OW26983   2.534   1.391   9.072
 5214SOL    HW126984   2.456   1.341   9.110
 5214SOL    HW226985   2.531   1.486   9.103
 5215SOL     OW26986   3.686   0.192   8.675
 5215SOL    HW126987   3.682   0.102   8.719
 5215SOL    HW226988   3.689   0.181   8.576
 5216SOL     OW26989   2.290   0.424   7.968
 5216SOL    HW126990   2.320   0.352   7.906
 5216SOL    HW226991   2.251   0.384   8.051
 5217SOL     OW26992   3.567   1.487   8.552
 5217SOL    HW126993   3.474   1.462   8.525
 5217SOL    HW226994   3.593   1.437   8.634
 5218SOL     OW26995   2.179   0.547   8.728
 5218SOL    HW126996   2.217   0.488   8.800
 5218SOL    HW226997   2.219   0.521   8.640
 5219SOL     OW26998   2.674   1.586   8.135
 5219SOL    HW126999   2.706   1.596   8.041
 5219SOL    HW227000   2.595   1.524   8.137
 5220SOL     OW27001   3.286   0.214   8.560
 5220SOL    HW127002   3.338   0.149   8.615
 5220SOL    HW227003   3.237   0.277   8.621
 5221SOL     OW27004   2.863   0.034   8.602
 5221SOL    HW127005   2.800  -0.038   8.571
 5221SOL    HW227006   2.956  -0.002   8.602
 5222SOL     OW27007   2.632   1.330   7.749
 5222SOL    HW127008   2.586   1.243   7.766
 5222SOL    HW227009   2.723   1.327   7.790
 5223SOL     OW27010   2.480   1.567   8.732
 5223SOL    HW127011   2.475   1.649   8.789
 5223SOL    HW227012   2.569   1.564   8.687
 5224SOL     OW27013   3.214   0.052   7.616
 5224SOL    HW127014   3.249   0.011   7.532
 5224SOL    HW227015   3.124   0.014   7.636
 5225SOL     OW27016   3.162   0.453   8.139
 5225SOL    HW127017   3.103   0.533   8.143
 5225SOL    HW227018   3.177   0.418   8.232
 5226SOL     OW27019   3.455   0.221   8.330
 5226SOL    HW127020   3.371   0.220   8.384
 5226SOL    HW227021   3.457   0.304   8.274
 5227SOL     OW27022   1.901   1.077   7.748
 5227SOL    HW127023   2.000   1.066   7.739
 5227SOL    HW227024   1.861   0.991   7.780
 5228SOL     OW27025   2.737   1.646   7.785
 5228SOL    HW127026   2.660   1.611   7.731
 5228SOL    HW227027   2.705   1.717   7.847
 5229SOL     OW27028   2.087   0.275  10.306
 5229SOL    HW127029   2.122   0.258  10.398
 5229SOL    HW227030   1.999   0.230  10.294
 5230SOL     OW27031   1.881   0.368   9.957
 5230SOL    HW127032   1.799   0.411   9.996
 5230SOL    HW227033   1.853   0.295   9.894
 5231SOL     OW27034   3.417   1.511  10.013
 5231SOL    HW127035   3.360   1.495  10.094
 5231SOL    HW227036   3.358   1.521   9.933
 5232SOL     OW27037   3.617   0.607   9.541
 5232SOL    HW127038   3.605   0.594   9.442
 5232SOL    HW227039   3.587   0.526   9.590
 5233SOL     OW27040   2.712   0.798  11.133
 5233SOL    HW127041   2.708   0.874  11.198
 5233SOL    HW227042   2.734   0.834  11.042
 5234SOL     OW27043   2.548   1.161  11.113
 5234SOL    HW127044   2.608   1.240  11.127
 5234SOL    HW227045   2.462   1.192  11.072
 5235SOL     OW27046   3.704   1.767   9.669
 5235SOL    HW127047   3.758   1.738   9.749
 5235SOL    HW227048   3.734   1.857   9.640
 5236SOL     OW27049   3.503   1.108   9.742
 5236SOL    HW127050   3.589   1.110   9.690
 5236SOL    HW227051   3.517   1.155   9.830
 5237SOL     OW27052   2.475   1.365  10.036
 5237SOL    HW127053   2.426   1.278  10.045
 5237SOL    HW227054   2.452   1.408   9.949
 5238SOL     OW27055   3.387   0.999   9.500
 5238SOL    HW127056   3.324   0.923   9.513
 5238SOL    HW227057   3.435   1.017   9.586
 5239SOL     OW27058   3.049   1.792  10.926
 5239SOL    HW127059   3.073   1.852  10.850
 5239SOL    HW227060   3.056   1.697  10.896
 5240SOL     OW27061   3.328   1.417  10.263
 5240SOL    HW127062   3.269   1.423  10.343
 5240SOL    HW227063   3.313   1.329  10.217
 5241SOL     OW27064   3.529   1.714   9.882
 5241SOL    HW127065   3.488   1.691   9.794
 5241SOL    HW227066   3.511   1.640   9.947
 5242SOL     OW27067   3.438   1.662   9.617
 5242SOL    HW127068   3.527   1.708   9.620
 5242SOL    HW227069   3.417   1.638   9.522
 5243SOL     OW27070   2.669   0.605  10.775
 5243SOL    HW127071   2.622   0.602  10.864
 5243SOL    HW227072   2.618   0.550  10.709
 5244SOL     OW27073   2.853   0.410  10.552
 5244SOL    HW127074   2.776   0.444  10.606
 5244SOL    HW227075   2.819   0.359  10.473
 5245SOL     OW27076   2.727   0.348   9.505
 5245SOL    HW127077   2.786   0.411   9.456
 5245SOL    HW227078   2.746   0.254   9.476
 5246SOL     OW27079   3.581   0.585  11.141
 5246SOL    HW127080   3.555   0.674  11.105
 5246SOL    HW227081   3.579   0.517  11.068
 5247SOL     OW27082   2.412   0.196  10.195
 5247SOL    HW127083   2.407   0.191  10.295
 5247SOL    HW227084   2.414   0.292  10.166
 5248SOL     OW27085   3.657   1.066  10.183
 5248SOL    HW127086   3.595   1.051  10.107
 5248SOL    HW227087   3.605   1.077  10.268
 5249SOL     OW27088   2.323   1.266  11.037
 5249SOL    HW127089   2.273   1.267  10.951
 5249SOL    HW227090   2.260   1.248  11.113
 5250SOL     OW27091   2.973   1.776   9.547
 5250SOL    HW127092   2.913   1.714   9.597
 5250SOL    HW227093   3.004   1.732   9.462
 5251SOL     OW27094   3.494   1.377   9.391
 5251SOL    HW127095   3.462   1.471   9.381
 5251SOL    HW227096   3.418   1.314   9.379
 5252SOL     OW27097   2.802   1.698  10.214
 5252SOL    HW127098   2.882   1.641  10.235
 5252SOL    HW227099   2.753   1.658  10.137
 5253SOL     OW27100   2.784   0.503  10.209
 5253SOL    HW127101   2.759   0.494  10.113
 5253SOL    HW227102   2.832   0.421  10.240
 5254SOL     OW27103   2.401   0.064   9.822
 5254SOL    HW127104   2.320   0.065   9.880
 5254SOL    HW227105   2.404   0.147   9.767
 5255SOL     OW27106   3.296   1.188   9.351
 5255SOL    HW127107   3.328   1.112   9.408
 5255SOL    HW227108   3.204   1.215   9.381
 5256SOL     OW27109   3.089   1.570  10.103
 5256SOL    HW127110   3.110   1.644  10.038
 5256SOL    HW227111   3.157   1.570  10.176
 5257SOL     OW27112   2.321   1.152  10.051
 5257SOL    HW127113   2.250   1.125  10.116
 5257SOL    HW227114   2.295   1.124   9.958
 5258SOL     OW27115   3.133   1.797   9.901
 5258SOL    HW127116   3.177   1.861   9.837
 5258SOL    HW227117   3.083   1.849   9.971
 5259SOL     OW27118   2.894   0.549   9.326
 5259SOL    HW127119   2.853   0.631   9.287
 5259SOL    HW227120   2.958   0.575   9.399
 5260SOL     OW27121   2.423   0.222  10.457
 5260SOL    HW127122   2.461   0.138  10.494
 5260SOL    HW227123   2.335   0.241  10.501
 5261SOL     OW27124   3.291   1.173  10.177
 5261SOL    HW127125   3.236   1.089  10.170
 5261SOL    HW227126   3.317   1.202  10.085
 5262SOL     OW27127   3.328   0.590  10.302
 5262SOL    HW127128   3.298   0.495  10.309
 5262SOL    HW227129   3.401   0.606  10.368
 5263SOL     OW27130   3.719   0.833   9.687
 5263SOL    HW127131   3.761   0.769   9.751
 5263SOL    HW227132   3.681   0.782   9.609
 5264SOL     OW27133   2.350   1.385   9.484
 5264SOL    HW127134   2.263   1.370   9.531
 5264SOL    HW227135   2.333   1.411   9.389
 5265SOL     OW27136   3.526   1.280   9.967
 5265SOL    HW127137   3.625   1.288   9.981
 5265SOL    HW227138   3.481   1.364   9.998
 5266SOL     OW27139   3.252   0.575   9.388
 5266SOL    HW127140   3.198   0.554   9.469
 5266SOL    HW227141   3.343   0.534   9.397
 5267SOL     OW27142   3.500   1.099  10.389
 5267SOL    HW127143   3.505   1.180  10.448
 5267SOL    HW227144   3.414   1.101  10.338
 5268SOL     OW27145   2.272   0.813  10.561
 5268SOL    HW127146   2.358   0.825  10.611
 5268SOL    HW227147   2.230   0.726  10.588
 5269SOL     OW27148   2.229   1.100   9.811
 5269SOL    HW127149   2.222   1.183   9.755
 5269SOL    HW227150   2.233   1.020   9.751
 5270SOL     OW27151   2.428   0.537  10.175
 5270SOL    HW127152   2.440   0.603  10.101
 5270SOL    HW227153   2.474   0.571  10.258
 5271SOL     OW27154   3.134   1.445  10.452
 5271SOL    HW127155   3.181   1.458  10.539
 5271SOL    HW227156   3.068   1.371  10.461
 5272SOL     OW27157   2.264   0.751  10.908
 5272SOL    HW127158   2.332   0.806  10.861
 5272SOL    HW227159   2.304   0.663  10.935
 5273SOL     OW27160   3.449   0.779  10.980
 5273SOL    HW127161   3.357   0.817  10.975
 5273SOL    HW227162   3.509   0.826  10.915
 5274SOL     OW27163   3.071   0.525   9.585
 5274SOL    HW127164   3.084   0.441   9.639
 5274SOL    HW227165   3.042   0.599   9.645
 5275SOL     OW27166   3.484   0.367   9.684
 5275SOL    HW127167   3.486   0.291   9.748
 5275SOL    HW227168   3.436   0.444   9.724
 5276SOL     OW27169   2.885   0.766  10.276
 5276SOL    HW127170   2.900   0.787  10.372
 5276SOL    HW227171   2.855   0.671  10.267
 5277SOL     OW27172   2.212   0.898  11.114
 5277SOL    HW127173   2.288   0.942  11.162
 5277SOL    HW227174   2.247   0.851  11.032
 5278SOL     OW27175   3.402   0.274   9.435
 5278SOL    HW127176   3.341   0.199   9.458
 5278SOL    HW227177   3.424   0.326   9.518
 5279SOL     OW27178   3.165   0.838   9.352
 5279SOL    HW127179   3.199   0.745   9.367
 5279SOL    HW227180   3.183   0.865   9.257
 5280SOL     OW27181   2.930   1.333  10.159
 5280SOL    HW127182   2.937   1.249  10.104
 5280SOL    HW227183   2.992   1.402  10.123
 5281SOL     OW27184   2.201   0.509  10.316
 5281SOL    HW127185   2.149   0.426  10.299
 5281SOL    HW227186   2.278   0.514  10.252
 5282SOL     OW27187   2.677   0.572   9.635
 5282SOL    HW127188   2.684   0.483   9.589
 5282SOL    HW227189   2.583   0.606   9.627
 5283SOL     OW27190   3.519   0.604  10.516
 5283SOL    HW127191   3.481   0.535  10.578
 5283SOL    HW227192   3.601   0.568  10.472
 5284SOL     OW27193   3.588   0.135   9.833
 5284SOL    HW127194   3.661   0.118   9.766
 5284SOL    HW227195   3.557   0.048   9.871
 5285SOL     OW27196   3.250   1.573   9.787
 5285SOL    HW127197   3.317   1.585   9.713
 5285SOL    HW227198   3.210   1.662   9.810
 5286SOL     OW27199   1.992   1.794  11.161
 5286SOL    HW127200   1.951   1.720  11.214
 5286SOL    HW227201   2.056   1.845  11.219
 5287SOL     OW27202   2.692   1.273  10.732
 5287SOL    HW127203   2.687   1.306  10.827
 5287SOL    HW227204   2.606   1.292  10.686
 5288SOL     OW27205   2.534   1.616   9.464
 5288SOL    HW127206   2.543   1.626   9.365
 5288SOL    HW227207   2.494   1.527   9.485
 5289SOL     OW27208   3.056   1.612   9.341
 5289SOL    HW127209   3.062   1.519   9.378
 5289SOL    HW227210   2.997   1.612   9.261
 5290SOL     OW27211   2.684   1.002  10.682
 5290SOL    HW127212   2.724   1.001  10.590
 5290SOL    HW227213   2.694   1.094  10.722
 5291SOL     OW27214   3.366   1.607   9.354
 5291SOL    HW127215   3.274   1.644   9.361
 5291SOL    HW227216   3.404   1.627   9.264
 5292SOL     OW27217   3.476   1.292  10.599
 5292SOL    HW127218   3.536   1.295  10.679
 5292SOL    HW227219   3.401   1.356  10.612
 5293SOL     OW27220   2.876   0.236  10.281
 5293SOL    HW127221   2.868   0.200  10.188
 5293SOL    HW227222   2.874   0.160  10.346
 5294SOL     OW27223   3.571   0.385  10.691
 5294SOL    HW127224   3.644   0.454  10.695
 5294SOL    HW227225   3.599   0.310  10.632
 5295SOL     OW27226   1.967   1.013  11.036
 5295SOL    HW127227   1.890   0.980  11.090
 5295SOL    HW227228   2.052   0.983  11.078
 5296SOL     OW27229   3.302   0.856  10.708
 5296SOL    HW127230   3.245   0.908  10.645
 5296SOL    HW227231   3.398   0.868  10.684
 5297SOL     OW27232   3.045   1.335   9.429
 5297SOL    HW127233   2.946   1.324   9.431
 5297SOL    HW227234   3.079   1.350   9.522
 5298SOL     OW27235   2.475   0.842  10.741
 5298SOL    HW127236   2.531   0.923  10.724
 5298SOL    HW227237   2.534   0.762  10.744
 5299SOL     OW27238   3.355   1.767  10.269
 5299SOL    HW127239   3.388   1.831  10.200
 5299SOL    HW227240   3.421   1.761  10.344
 5300SOL     OW27241   3.536   0.883  10.564
 5300SOL    HW127242   3.509   0.794  10.527
 5300SOL    HW227243   3.537   0.951  10.491
 5301SOL     OW27244   2.456   0.745   9.962
 5301SOL    HW127245   2.506   0.830   9.943
 5301SOL    HW227246   2.368   0.747   9.914
 5302SOL     OW27247   3.639   0.342  10.952
 5302SOL    HW127248   3.622   0.373  10.858
 5302SOL    HW227249   3.555   0.305  10.990
 5303SOL     OW27250   3.592   0.934  10.827
 5303SOL    HW127251   3.630   1.025  10.842
 5303SOL    HW227252   3.584   0.917  10.728
 5304SOL     OW27253   2.721   1.374   9.326
 5304SOL    HW127254   2.675   1.389   9.414
 5304SOL    HW227255   2.765   1.459   9.296
 5305SOL     OW27256   2.721   0.956  10.171
 5305SOL    HW127257   2.775   0.887  10.219
 5305SOL    HW227258   2.689   1.025  10.237
 5306SOL     OW27259   3.723   1.569  10.161
 5306SOL    HW127260   3.652   1.557  10.091
 5306SOL    HW227261   3.724   1.490  10.221
 5307SOL     OW27262   2.290   0.424   9.830
 5307SOL    HW127263   2.320   0.352   9.768
 5307SOL    HW227264   2.251   0.384   9.913
 5308SOL     OW27265   3.567   1.487  10.414
 5308SOL    HW127266   3.474   1.462  10.387
 5308SOL    HW227267   3.593   1.437  10.496
 5309SOL     OW27268   3.286   0.214  10.422
 5309SOL    HW127269   3.338   0.149  10.477
 5309SOL    HW227270   3.237   0.277  10.483
 5310SOL     OW27271   2.863   0.034  10.464
 5310SOL    HW127272   2.800  -0.038  10.433
 5310SOL    HW227273   2.956  -0.002  10.464
 5311SOL     OW27274   2.480   1.567  10.594
 5311SOL    HW127275   2.475   1.649  10.651
 5311SOL    HW227276   2.569   1.564  10.549
 5312SOL     OW27277   2.431   1.275  12.337
 5312SOL    HW127278   2.338   1.268  12.300
 5312SOL    HW227279   2.442   1.364  12.381
 5313SOL     OW27280   2.197   1.435  12.233
 5313SOL    HW127281   2.119   1.404  12.180
 5313SOL    HW227282   2.255   1.493  12.176
 5314SOL     OW27283   2.093   1.713  11.655
 5314SOL    HW127284   2.127   1.790  11.709
 5314SOL    HW227285   2.137   1.713  11.565
 5315SOL     OW27286   2.482   1.786  12.611
 5315SOL    HW127287   2.390   1.769  12.646
 5315SOL    HW227288   2.510   1.878  12.637
 5316SOL     OW27289   3.456   0.114  12.652
 5316SOL    HW127290   3.438   0.181  12.580
 5316SOL    HW227291   3.453   0.160  12.741
 5317SOL     OW27292   2.475   1.365  11.898
 5317SOL    HW127293   2.426   1.278  11.907
 5317SOL    HW227294   2.452   1.408  11.811
 5318SOL     OW27295   2.671   0.004  11.674
 5318SOL    HW127296   2.711   0.095  11.665
 5318SOL    HW227297   2.571   0.012  11.680
 5319SOL     OW27298   3.049   1.792  12.788
 5319SOL    HW127299   3.073   1.852  12.712
 5319SOL    HW227300   3.056   1.697  12.758
 5320SOL     OW27301   2.179   0.251  12.973
 5320SOL    HW127302   2.250   0.322  12.979
 5320SOL    HW227303   2.091   0.290  13.001
 5321SOL     OW27304   3.328   1.417  12.125
 5321SOL    HW127305   3.269   1.423  12.205
 5321SOL    HW227306   3.313   1.329  12.079
 5322SOL     OW27307   3.143   0.345  12.116
 5322SOL    HW127308   3.057   0.295  12.103
 5322SOL    HW227309   3.205   0.291  12.172
 5323SOL     OW27310   3.438   1.662  11.479
 5323SOL    HW127311   3.527   1.708  11.482
 5323SOL    HW227312   3.417   1.638  11.384
 5324SOL     OW27313   2.835   0.890  12.744
 5324SOL    HW127314   2.881   0.806  12.715
 5324SOL    HW227315   2.779   0.924  12.669
 5325SOL     OW27316   3.581   0.585  13.003
 5325SOL    HW127317   3.555   0.674  12.967
 5325SOL    HW227318   3.579   0.517  12.930
 5326SOL     OW27319   3.089   1.550  12.678
 5326SOL    HW127320   3.095   1.473  12.742
 5326SOL    HW227321   3.037   1.524  12.598
 5327SOL     OW27322   2.183   0.943  11.414
 5327SOL    HW127323   2.265   0.982  11.372
 5327SOL    HW227324   2.156   0.861  11.365
 5328SOL     OW27325   2.064   0.285  12.670
 5328SOL    HW127326   1.984   0.345  12.657
 5328SOL    HW227327   2.054   0.236  12.756
 5329SOL     OW27328   3.494   1.377  11.253
 5329SOL    HW127329   3.462   1.471  11.243
 5329SOL    HW227330   3.418   1.314  11.241
 5330SOL     OW27331   3.409   0.222  12.901
 5330SOL    HW127332   3.404   0.259  12.993
 5330SOL    HW227333   3.337   0.153  12.889
 5331SOL     OW27334   2.476   0.122  11.289
 5331SOL    HW127335   2.574   0.100  11.296
 5331SOL    HW227336   2.445   0.105  11.196
 5332SOL     OW27337   3.213   0.590  12.605
 5332SOL    HW127338   3.241   0.547  12.690
 5332SOL    HW227339   3.238   0.686  12.606
 5333SOL     OW27340   2.665   1.402  12.096
 5333SOL    HW127341   2.755   1.416  12.054
 5333SOL    HW227342   2.594   1.404  12.025
 5334SOL     OW27343   2.159   0.035  11.343
 5334SOL    HW127344   2.208   0.119  11.322
 5334SOL    HW227345   2.221  -0.030  11.388
 5335SOL     OW27346   2.938   0.683  12.636
 5335SOL    HW127347   2.858   0.622  12.639
 5335SOL    HW227348   3.019   0.630  12.612
 5336SOL     OW27349   2.879   0.039  11.925
 5336SOL    HW127350   2.807   0.044  11.856
 5336SOL    HW227351   2.855  -0.030  11.994
 5337SOL     OW27352   2.389   0.256  11.500
 5337SOL    HW127353   2.416   0.197  11.425
 5337SOL    HW227354   2.389   0.351  11.469
 5338SOL     OW27355   2.272   0.813  12.423
 5338SOL    HW127356   2.358   0.825  12.473
 5338SOL    HW227357   2.230   0.726  12.450
 5339SOL     OW27358   3.136   0.386  12.434
 5339SOL    HW127359   3.157   0.460  12.498
 5339SOL    HW227360   3.047   0.403  12.391
 5340SOL     OW27361   3.114   1.348  11.560
 5340SOL    HW127362   3.164   1.425  11.600
 5340SOL    HW227363   3.019   1.350  11.592
 5341SOL     OW27364   3.134   1.445  12.314
 5341SOL    HW127365   3.181   1.458  12.401
 5341SOL    HW227366   3.068   1.371  12.323
 5342SOL     OW27367   2.216   1.510  12.501
 5342SOL    HW127368   2.195   1.466  12.414
 5342SOL    HW227369   2.313   1.536  12.504
 5343SOL     OW27370   2.264   0.751  12.770
 5343SOL    HW127371   2.332   0.806  12.723
 5343SOL    HW227372   2.304   0.663  12.797
 5344SOL     OW27373   3.449   0.779  12.842
 5344SOL    HW127374   3.357   0.817  12.837
 5344SOL    HW227375   3.509   0.826  12.777
 5345SOL     OW27376   2.366   0.050  12.912
 5345SOL    HW127377   2.324  -0.007  12.842
 5345SOL    HW227378   2.300   0.119  12.944
 5346SOL     OW27379   3.590   0.935  13.026
 5346SOL    HW127380   3.544   0.928  12.937
 5346SOL    HW227381   3.528   0.979  13.092
 5347SOL     OW27382   2.842   1.573  12.872
 5347SOL    HW127383   2.822   1.617  12.784
 5347SOL    HW227384   2.881   1.482  12.856
 5348SOL     OW27385   2.212   0.898  12.976
 5348SOL    HW127386   2.288   0.942  13.024
 5348SOL    HW227387   2.247   0.851  12.894
 5349SOL     OW27388   3.165   0.838  11.214
 5349SOL    HW127389   3.199   0.745  11.229
 5349SOL    HW227390   3.183   0.865  11.119
 5350SOL     OW27391   3.000   0.380  12.850
 5350SOL    HW127392   2.955   0.443  12.914
 5350SOL    HW227393   3.093   0.411  12.833
 5351SOL     OW27394   3.022   0.207  12.649
 5351SOL    HW127395   3.022   0.271  12.726
 5351SOL    HW227396   3.050   0.255  12.566
 5352SOL     OW27397   2.366   1.568  12.082
 5352SOL    HW127398   2.432   1.642  12.091
 5352SOL    HW227399   2.410   1.489  12.040
 5353SOL     OW27400   2.533   0.464  12.441
 5353SOL    HW127401   2.499   0.375  12.411
 5353SOL    HW227402   2.559   0.518  12.361
 5354SOL     OW27403   2.021   1.137  12.638
 5354SOL    HW127404   2.043   1.076  12.714
 5354SOL    HW227405   2.031   1.088  12.552
 5355SOL     OW27406   2.550   1.662  12.888
 5355SOL    HW127407   2.494   1.743  12.897
 5355SOL    HW227408   2.602   1.666  12.802
 5356SOL     OW27409   3.588   0.135  11.695
 5356SOL    HW127410   3.661   0.118  11.628
 5356SOL    HW227411   3.557   0.048  11.733
 5357SOL     OW27412   3.250   1.573  11.649
 5357SOL    HW127413   3.317   1.585  11.575
 5357SOL    HW227414   3.210   1.662  11.672
 5358SOL     OW27415   3.512   1.720  12.566
 5358SOL    HW127416   3.565   1.730  12.482
 5358SOL    HW227417   3.485   1.810  12.600
 5359SOL     OW27418   3.366   1.607  11.216
 5359SOL    HW127419   3.274   1.644  11.223
 5359SOL    HW227420   3.404   1.627  11.126
 5360SOL     OW27421   2.234   1.288  12.662
 5360SOL    HW127422   2.221   1.381  12.628
 5360SOL    HW227423   2.150   1.236  12.649
 5361SOL     OW27424   3.476   1.292  12.461
 5361SOL    HW127425   3.536   1.295  12.541
 5361SOL    HW227426   3.401   1.356  12.474
 5362SOL     OW27427   1.967   1.013  12.898
 5362SOL    HW127428   1.890   0.980  12.952
 5362SOL    HW227429   2.052   0.983  12.940
 5363SOL     OW27430   1.937   0.345  11.205
 5363SOL    HW127431   1.845   0.317  11.176
 5363SOL    HW227432   1.968   0.422  11.149
 5364SOL     OW27433   3.045   1.335  11.291
 5364SOL    HW127434   2.946   1.324  11.293
 5364SOL    HW227435   3.079   1.350  11.384
 5365SOL     OW27436   2.475   0.842  12.603
 5365SOL    HW127437   2.531   0.923  12.586
 5365SOL    HW227438   2.534   0.762  12.606
 5366SOL     OW27439   2.523   1.790  12.125
 5366SOL    HW127440   2.477   1.878  12.112
 5366SOL    HW227441   2.622   1.802  12.118
 5367SOL     OW27442   2.083   1.314  13.016
 5367SOL    HW127443   2.018   1.241  12.995
 5367SOL    HW227444   2.087   1.328  13.114
 5368SOL     OW27445   1.941   1.240  11.825
 5368SOL    HW127446   1.940   1.193  11.913
 5368SOL    HW227447   2.023   1.212  11.774
 5369SOL     OW27448   3.286   0.214  12.284
 5369SOL    HW127449   3.338   0.149  12.339
 5369SOL    HW227450   3.237   0.277  12.345
 5370SOL     OW27451   2.632   1.330  11.473
 5370SOL    HW127452   2.586   1.243  11.490
 5370SOL    HW227453   2.723   1.327  11.514
 5371SOL     OW27454   2.480   1.567  12.456
 5371SOL    HW127455   2.475   1.649  12.513
 5371SOL    HW227456   2.569   1.564  12.411
 5372SOL     OW27457   1.901   1.077  11.472
 5372SOL    HW127458   2.000   1.066  11.463
 5372SOL    HW227459   1.861   0.991  11.504
 5373SOL     OW27460   2.737   1.646  11.509
 5373SOL    HW127461   2.660   1.611  11.455
 5373SOL    HW227462   2.705   1.717  11.571
 5374SOL     OW27463   2.087   0.275  14.030
 5374SOL    HW127464   2.122   0.258  14.122
 5374SOL    HW227465   1.999   0.230  14.018
 5375SOL     OW27466   3.417   1.511  13.737
 5375SOL    HW127467   3.360   1.495  13.818
 5375SOL    HW227468   3.358   1.521  13.657
 5376SOL     OW27469   2.630   1.144  14.057
 5376SOL    HW127470   2.552   1.161  14.117
 5376SOL    HW227471   2.664   1.231  14.021
 5377SOL     OW27472   2.548   1.161  14.837
 5377SOL    HW127473   2.608   1.240  14.851
 5377SOL    HW227474   2.462   1.192  14.796
 5378SOL     OW27475   2.989   1.341  14.724
 5378SOL    HW127476   3.036   1.341  14.812
 5378SOL    HW227477   2.941   1.254  14.713
 5379SOL     OW27478   2.482   1.786  14.473
 5379SOL    HW127479   2.390   1.769  14.508
 5379SOL    HW227480   2.510   1.878  14.499
 5380SOL     OW27481   3.456   0.114  14.514
 5380SOL    HW127482   3.438   0.181  14.442
 5380SOL    HW227483   3.453   0.160  14.603
 5381SOL     OW27484   1.984   0.643  13.597
 5381SOL    HW127485   1.939   0.555  13.614
 5381SOL    HW227486   1.983   0.697  13.681
 5382SOL     OW27487   1.889   1.596  13.151
 5382SOL    HW127488   1.870   1.500  13.172
 5382SOL    HW227489   1.856   1.654  13.226
 5383SOL     OW27490   2.475   1.365  13.760
 5383SOL    HW127491   2.426   1.278  13.769
 5383SOL    HW227492   2.452   1.408  13.673
 5384SOL     OW27493   3.049   1.792  14.650
 5384SOL    HW127494   3.073   1.852  14.574
 5384SOL    HW227495   3.056   1.697  14.620
 5385SOL     OW27496   3.438   1.662  13.341
 5385SOL    HW127497   3.527   1.708  13.344
 5385SOL    HW227498   3.417   1.638  13.246
 5386SOL     OW27499   2.835   0.890  14.606
 5386SOL    HW127500   2.881   0.806  14.577
 5386SOL    HW227501   2.779   0.924  14.531
 5387SOL     OW27502   2.323   1.266  14.761
 5387SOL    HW127503   2.273   1.267  14.675
 5387SOL    HW227504   2.260   1.248  14.837
 5388SOL     OW27505   2.973   1.776  13.271
 5388SOL    HW127506   2.913   1.714  13.321
 5388SOL    HW227507   3.004   1.732  13.186
 5389SOL     OW27508   3.409   0.222  14.763
 5389SOL    HW127509   3.404   0.259  14.855
 5389SOL    HW227510   3.337   0.153  14.751
 5390SOL     OW27511   2.784   0.503  13.933
 5390SOL    HW127512   2.759   0.494  13.837
 5390SOL    HW227513   2.832   0.421  13.964
 5391SOL     OW27514   2.797   0.236  13.514
 5391SOL    HW127515   2.749   0.277  13.436
 5391SOL    HW227516   2.896   0.234  13.495
 5392SOL     OW27517   2.894   0.549  13.050
 5392SOL    HW127518   2.853   0.631  13.011
 5392SOL    HW227519   2.958   0.575  13.123
 5393SOL     OW27520   2.423   0.222  14.181
 5393SOL    HW127521   2.461   0.138  14.218
 5393SOL    HW227522   2.335   0.241  14.225
 5394SOL     OW27523   3.291   1.173  13.901
 5394SOL    HW127524   3.236   1.089  13.894
 5394SOL    HW227525   3.317   1.202  13.809
 5395SOL     OW27526   3.719   0.833  13.411
 5395SOL    HW127527   3.761   0.769  13.475
 5395SOL    HW227528   3.681   0.782  13.333
 5396SOL     OW27529   2.389   0.256  13.362
 5396SOL    HW127530   2.416   0.197  13.287
 5396SOL    HW227531   2.389   0.351  13.331
 5397SOL     OW27532   2.973   1.195  14.134
 5397SOL    HW127533   2.933   1.239  14.215
 5397SOL    HW227534   2.932   1.232  14.051
 5398SOL     OW27535   2.842   1.116  14.753
 5398SOL    HW127536   2.743   1.122  14.763
 5398SOL    HW227537   2.865   1.036  14.697
 5399SOL     OW27538   2.229   1.100  13.535
 5399SOL    HW127539   2.222   1.183  13.479
 5399SOL    HW227540   2.233   1.020  13.475
 5400SOL     OW27541   2.366   0.050  14.774
 5400SOL    HW127542   2.324  -0.007  14.704
 5400SOL    HW227543   2.300   0.119  14.806
 5401SOL     OW27544   3.590   0.935  14.888
 5401SOL    HW127545   3.544   0.928  14.799
 5401SOL    HW227546   3.528   0.979  14.954
 5402SOL     OW27547   2.212   0.898  14.838
 5402SOL    HW127548   2.288   0.942  14.886
 5402SOL    HW227549   2.247   0.851  14.756
 5403SOL     OW27550   2.930   1.333  13.883
 5403SOL    HW127551   2.937   1.249  13.828
 5403SOL    HW227552   2.992   1.402  13.847
 5404SOL     OW27553   2.201   0.509  14.040
 5404SOL    HW127554   2.149   0.426  14.023
 5404SOL    HW227555   2.278   0.514  13.976
 5405SOL     OW27556   3.000   0.380  14.712
 5405SOL    HW127557   2.955   0.443  14.776
 5405SOL    HW227558   3.093   0.411  14.695
 5406SOL     OW27559   2.533   0.464  14.303
 5406SOL    HW127560   2.499   0.375  14.273
 5406SOL    HW227561   2.559   0.518  14.223
 5407SOL     OW27562   2.335   0.500  13.225
 5407SOL    HW127563   2.396   0.580  13.229
 5407SOL    HW227564   2.240   0.531  13.232
 5408SOL     OW27565   3.056   1.612  13.065
 5408SOL    HW127566   3.062   1.519  13.102
 5408SOL    HW227567   2.997   1.612  12.985
 5409SOL     OW27568   2.778   0.910  13.325
 5409SOL    HW127569   2.841   0.948  13.257
 5409SOL    HW227570   2.818   0.827  13.364
 5410SOL     OW27571   2.234   1.288  14.524
 5410SOL    HW127572   2.221   1.381  14.490
 5410SOL    HW227573   2.150   1.236  14.511
 5411SOL     OW27574   2.901   1.098  13.730
 5411SOL    HW127575   2.831   1.051  13.784
 5411SOL    HW227576   2.960   1.030  13.687
 5412SOL     OW27577   1.967   1.013  14.760
 5412SOL    HW127578   1.890   0.980  14.814
 5412SOL    HW227579   2.052   0.983  14.802
 5413SOL     OW27580   2.252   1.741  14.594
 5413SOL    HW127581   2.161   1.782  14.592
 5413SOL    HW227582   2.245   1.647  14.626
 5414SOL     OW27583   2.083   1.314  14.878
 5414SOL    HW127584   2.018   1.241  14.857
 5414SOL    HW227585   2.087   1.328  14.976
 5415SOL     OW27586   1.941   1.240  13.687
 5415SOL    HW127587   1.940   1.193  13.775
 5415SOL    HW227588   2.023   1.212  13.636
 5416SOL     OW27589   2.534   1.391  14.658
 5416SOL    HW127590   2.456   1.341  14.696
 5416SOL    HW227591   2.531   1.486  14.689
 5417SOL     OW27592   2.290   0.424  13.554
 5417SOL    HW127593   2.320   0.352  13.492
 5417SOL    HW227594   2.251   0.384  13.637
 5418SOL     OW27595   2.632   1.330  13.335
 5418SOL    HW127596   2.586   1.243  13.352
 5418SOL    HW227597   2.723   1.327  13.376
 5419SOL     OW27598   3.455   0.221  13.916
 5419SOL    HW127599   3.371   0.220  13.970
 5419SOL    HW227600   3.457   0.304  13.860
 5420SOL     OW27601   2.087   0.275  15.893
 5420SOL    HW127602   2.122   0.258  15.985
 5420SOL    HW227603   1.999   0.230  15.881
 5421SOL     OW27604   2.431   1.275  16.062
 5421SOL    HW127605   2.338   1.268  16.025
 5421SOL    HW227606   2.442   1.364  16.106
 5422SOL     OW27607   3.417   1.511  15.599
 5422SOL    HW127608   3.360   1.495  15.680
 5422SOL    HW227609   3.358   1.521  15.519
 5423SOL     OW27610   2.630   1.144  15.920
 5423SOL    HW127611   2.552   1.161  15.980
 5423SOL    HW227612   2.664   1.231  15.884
 5424SOL     OW27613   2.712   0.798  16.720
 5424SOL    HW127614   2.708   0.874  16.785
 5424SOL    HW227615   2.734   0.834  16.629
 5425SOL     OW27616   2.548   1.161  16.700
 5425SOL    HW127617   2.608   1.240  16.714
 5425SOL    HW227618   2.462   1.192  16.659
 5426SOL     OW27619   2.093   1.713  15.379
 5426SOL    HW127620   2.127   1.790  15.433
 5426SOL    HW227621   2.137   1.713  15.289
 5427SOL     OW27622   2.468   0.964  15.019
 5427SOL    HW127623   2.475   1.048  14.965
 5427SOL    HW227624   2.514   0.977  15.107
 5428SOL     OW27625   3.529   1.714  15.468
 5428SOL    HW127626   3.488   1.691  15.380
 5428SOL    HW227627   3.511   1.640  15.533
 5429SOL     OW27628   3.143   0.345  15.841
 5429SOL    HW127629   3.057   0.295  15.828
 5429SOL    HW227630   3.205   0.291  15.897
 5430SOL     OW27631   3.438   1.662  15.203
 5430SOL    HW127632   3.527   1.708  15.206
 5430SOL    HW227633   3.417   1.638  15.108
 5431SOL     OW27634   2.835   0.890  16.469
 5431SOL    HW127635   2.881   0.806  16.440
 5431SOL    HW227636   2.779   0.924  16.394
 5432SOL     OW27637   2.903   0.701  15.325
 5432SOL    HW127638   2.929   0.697  15.421
 5432SOL    HW227639   2.818   0.650  15.311
 5433SOL     OW27640   1.992   1.821  16.468
 5433SOL    HW127641   1.982   1.806  16.567
 5433SOL    HW227642   1.906   1.857  16.432
 5434SOL     OW27643   3.581   0.585  16.728
 5434SOL    HW127644   3.555   0.674  16.692
 5434SOL    HW227645   3.579   0.517  16.655
 5435SOL     OW27646   2.323   1.266  16.624
 5435SOL    HW127647   2.273   1.267  16.538
 5435SOL    HW227648   2.260   1.248  16.700
 5436SOL     OW27649   2.973   1.776  15.133
 5436SOL    HW127650   2.913   1.714  15.183
 5436SOL    HW227651   3.004   1.732  15.048
 5437SOL     OW27652   2.064   0.285  16.395
 5437SOL    HW127653   1.984   0.345  16.382
 5437SOL    HW227654   2.054   0.236  16.481
 5438SOL     OW27655   3.494   1.377  14.977
 5438SOL    HW127656   3.462   1.471  14.967
 5438SOL    HW227657   3.418   1.314  14.965
 5439SOL     OW27658   2.326   1.743  15.219
 5439SOL    HW127659   2.359   1.782  15.305
 5439SOL    HW227660   2.402   1.736  15.154
 5440SOL     OW27661   2.784   0.503  15.795
 5440SOL    HW127662   2.759   0.494  15.699
 5440SOL    HW227663   2.832   0.421  15.826
 5441SOL     OW27664   2.159   0.035  15.067
 5441SOL    HW127665   2.208   0.119  15.046
 5441SOL    HW227666   2.221  -0.030  15.112
 5442SOL     OW27667   2.938   0.683  16.361
 5442SOL    HW127668   2.858   0.622  16.364
 5442SOL    HW227669   3.019   0.630  16.337
 5443SOL     OW27670   2.894   0.549  14.912
 5443SOL    HW127671   2.853   0.631  14.873
 5443SOL    HW227672   2.958   0.575  14.985
 5444SOL     OW27673   2.423   0.222  16.044
 5444SOL    HW127674   2.461   0.138  16.081
 5444SOL    HW227675   2.335   0.241  16.088
 5445SOL     OW27676   2.728   0.454  15.538
 5445SOL    HW127677   2.696   0.526  15.476
 5445SOL    HW227678   2.752   0.373  15.485
 5446SOL     OW27679   2.350   1.385  15.070
 5446SOL    HW127680   2.263   1.370  15.117
 5446SOL    HW227681   2.333   1.411  14.975
 5447SOL     OW27682   3.526   1.280  15.553
 5447SOL    HW127683   3.625   1.288  15.567
 5447SOL    HW227684   3.481   1.364  15.584
 5448SOL     OW27685   3.454   1.629  16.522
 5448SOL    HW127686   3.481   1.663  16.432
 5448SOL    HW227687   3.533   1.591  16.568
 5449SOL     OW27688   2.842   1.116  16.616
 5449SOL    HW127689   2.743   1.122  16.626
 5449SOL    HW227690   2.865   1.036  16.560
 5450SOL     OW27691   2.567   1.050  15.264
 5450SOL    HW127692   2.553   1.057  15.363
 5450SOL    HW227693   2.651   0.999  15.246
 5451SOL     OW27694   3.136   0.386  16.159
 5451SOL    HW127695   3.157   0.460  16.223
 5451SOL    HW227696   3.047   0.403  16.116
 5452SOL     OW27697   2.428   0.537  15.761
 5452SOL    HW127698   2.440   0.603  15.687
 5452SOL    HW227699   2.474   0.571  15.844
 5453SOL     OW27700   3.114   1.348  15.284
 5453SOL    HW127701   3.164   1.425  15.324
 5453SOL    HW227702   3.019   1.350  15.316
 5454SOL     OW27703   2.216   1.510  16.226
 5454SOL    HW127704   2.195   1.466  16.139
 5454SOL    HW227705   2.313   1.536  16.229
 5455SOL     OW27706   3.071   0.525  15.171
 5455SOL    HW127707   3.084   0.441  15.225
 5455SOL    HW227708   3.042   0.599  15.231
 5456SOL     OW27709   2.169   0.213  16.128
 5456SOL    HW127710   2.146   0.250  16.218
 5456SOL    HW227711   2.139   0.118  16.122
 5457SOL     OW27712   2.842   1.573  16.597
 5457SOL    HW127713   2.822   1.617  16.509
 5457SOL    HW227714   2.881   1.482  16.581
 5458SOL     OW27715   3.402   0.274  15.021
 5458SOL    HW127716   3.341   0.199  15.044
 5458SOL    HW227717   3.424   0.326  15.104
 5459SOL     OW27718   3.000   0.380  16.575
 5459SOL    HW127719   2.955   0.443  16.639
 5459SOL    HW227720   3.093   0.411  16.558
 5460SOL     OW27721   1.902   0.544  16.011
 5460SOL    HW127722   1.987   0.511  15.970
 5460SOL    HW227723   1.915   0.559  16.109
 5461SOL     OW27724   2.677   0.572  15.221
 5461SOL    HW127725   2.684   0.483  15.175
 5461SOL    HW227726   2.583   0.606  15.213
 5462SOL     OW27727   3.519   0.604  16.103
 5462SOL    HW127728   3.481   0.535  16.165
 5462SOL    HW227729   3.601   0.568  16.059
 5463SOL     OW27730   3.621   1.747  16.051
 5463SOL    HW127731   3.682   1.777  15.978
 5463SOL    HW227732   3.583   1.658  16.029
 5464SOL     OW27733   3.250   1.573  15.373
 5464SOL    HW127734   3.317   1.585  15.299
 5464SOL    HW227735   3.210   1.662  15.396
 5465SOL     OW27736   2.692   1.273  16.319
 5465SOL    HW127737   2.687   1.306  16.414
 5465SOL    HW227738   2.606   1.292  16.273
 5466SOL     OW27739   2.534   1.616  15.050
 5466SOL    HW127740   2.543   1.626  14.951
 5466SOL    HW227741   2.494   1.527  15.071
 5467SOL     OW27742   3.512   1.720  16.291
 5467SOL    HW127743   3.565   1.730  16.207
 5467SOL    HW227744   3.485   1.810  16.325
 5468SOL     OW27745   3.056   1.612  14.927
 5468SOL    HW127746   3.062   1.519  14.964
 5468SOL    HW227747   2.997   1.612  14.847
 5469SOL     OW27748   2.778   0.910  15.187
 5469SOL    HW127749   2.841   0.948  15.119
 5469SOL    HW227750   2.818   0.827  15.226
 5470SOL     OW27751   3.366   1.607  14.940
 5470SOL    HW127752   3.274   1.644  14.947
 5470SOL    HW227753   3.404   1.627  14.850
 5471SOL     OW27754   3.476   1.292  16.186
 5471SOL    HW127755   3.536   1.295  16.266
 5471SOL    HW227756   3.401   1.356  16.199
 5472SOL     OW27757   2.901   1.098  15.592
 5472SOL    HW127758   2.831   1.051  15.646
 5472SOL    HW227759   2.960   1.030  15.549
 5473SOL     OW27760   2.117   1.348  15.186
 5473SOL    HW127761   2.021   1.349  15.159
 5473SOL    HW227762   2.129   1.401  15.270
 5474SOL     OW27763   1.934   0.166  15.214
 5474SOL    HW127764   1.917   0.249  15.160
 5474SOL    HW227765   2.024   0.129  15.192
 5475SOL     OW27766   3.045   1.335  15.015
 5475SOL    HW127767   2.946   1.324  15.017
 5475SOL    HW227768   3.079   1.350  15.108
 5476SOL     OW27769   2.475   0.842  16.328
 5476SOL    HW127770   2.531   0.923  16.311
 5476SOL    HW227771   2.534   0.762  16.331
 5477SOL     OW27772   2.456   0.745  15.548
 5477SOL    HW127773   2.506   0.830  15.529
 5477SOL    HW227774   2.368   0.747  15.500
 5478SOL     OW27775   2.721   1.374  14.912
 5478SOL    HW127776   2.675   1.389  15.000
 5478SOL    HW227777   2.765   1.459  14.882
 5479SOL     OW27778   2.523   1.790  15.850
 5479SOL    HW127779   2.477   1.878  15.837
 5479SOL    HW227780   2.622   1.802  15.843
 5480SOL     OW27781   2.721   0.956  15.757
 5480SOL    HW127782   2.775   0.887  15.805
 5480SOL    HW227783   2.689   1.025  15.823
 5481SOL     OW27784   2.945   0.984  14.983
 5481SOL    HW127785   2.922   1.037  14.901
 5481SOL    HW227786   3.026   0.928  14.964
 5482SOL     OW27787   3.723   1.569  15.747
 5482SOL    HW127788   3.652   1.557  15.677
 5482SOL    HW227789   3.724   1.490  15.807
 5483SOL     OW27790   2.534   1.391  16.521
 5483SOL    HW127791   2.456   1.341  16.559
 5483SOL    HW227792   2.531   1.486  16.552
 5484SOL     OW27793   3.567   1.487  16.001
 5484SOL    HW127794   3.474   1.462  15.974
 5484SOL    HW227795   3.593   1.437  16.083
 5485SOL     OW27796   2.674   1.586  15.583
 5485SOL    HW127797   2.706   1.596  15.489
 5485SOL    HW227798   2.595   1.524  15.585
 5486SOL     OW27799   2.092   0.628  16.872
 5486SOL    HW127800   1.999   0.626  16.909
 5486SOL    HW227801   2.093   0.589  16.780
 5487SOL     OW27802   3.617   0.607  16.990
 5487SOL    HW127803   3.605   0.594  16.891
 5487SOL    HW227804   3.587   0.526  17.039
 5488SOL     OW27805   3.465   0.447  17.496
 5488SOL    HW127806   3.391   0.493  17.446
 5488SOL    HW227807   3.516   0.515  17.549
 5489SOL     OW27808   2.092   1.434  17.297
 5489SOL    HW127809   2.066   1.530  17.297
 5489SOL    HW227810   2.021   1.380  17.342
 5490SOL     OW27811   2.468   0.964  16.882
 5490SOL    HW127812   2.475   1.048  16.828
 5490SOL    HW227813   2.514   0.977  16.970
 5491SOL     OW27814   3.704   1.767  17.118
 5491SOL    HW127815   3.758   1.738  17.198
 5491SOL    HW227816   3.734   1.857  17.089
 5492SOL     OW27817   3.529   1.714  17.331
 5492SOL    HW127818   3.488   1.691  17.243
 5492SOL    HW227819   3.511   1.640  17.396
 5493SOL     OW27820   2.460   0.729  17.029
 5493SOL    HW127821   2.484   0.798  16.961
 5493SOL    HW227822   2.382   0.762  17.083
 5494SOL     OW27823   3.143   0.345  17.703
 5494SOL    HW127824   3.057   0.295  17.690
 5494SOL    HW227825   3.205   0.291  17.759
 5495SOL     OW27826   3.438   1.662  17.066
 5495SOL    HW127827   3.527   1.708  17.069
 5495SOL    HW227828   3.417   1.638  16.971
 5496SOL     OW27829   2.903   0.701  17.188
 5496SOL    HW127830   2.929   0.697  17.284
 5496SOL    HW227831   2.818   0.650  17.174
 5497SOL     OW27832   2.412   0.196  17.644
 5497SOL    HW127833   2.407   0.191  17.744
 5497SOL    HW227834   2.414   0.292  17.615
 5498SOL     OW27835   3.320   0.735  17.487
 5498SOL    HW127836   3.315   0.670  17.562
 5498SOL    HW227837   3.400   0.794  17.500
 5499SOL     OW27838   2.973   1.776  16.996
 5499SOL    HW127839   2.913   1.714  17.046
 5499SOL    HW227840   3.004   1.732  16.911
 5500SOL     OW27841   3.494   1.377  16.840
 5500SOL    HW127842   3.462   1.471  16.830
 5500SOL    HW227843   3.418   1.314  16.828
 5501SOL     OW27844   3.262   0.107  17.185
 5501SOL    HW127845   3.238   0.070  17.095
 5501SOL    HW227846   3.361   0.123  17.189
 5502SOL     OW27847   2.159   0.035  16.930
 5502SOL    HW127848   2.208   0.119  16.909
 5502SOL    HW227849   2.221  -0.030  16.975
 5503SOL     OW27850   2.321   1.152  17.500
 5503SOL    HW127851   2.250   1.125  17.565
 5503SOL    HW227852   2.295   1.124  17.407
 5504SOL     OW27853   3.133   1.797  17.350
 5504SOL    HW127854   3.177   1.861  17.286
 5504SOL    HW227855   3.083   1.849  17.420
 5505SOL     OW27856   3.291   1.173  17.626
 5505SOL    HW127857   3.236   1.089  17.619
 5505SOL    HW227858   3.317   1.202  17.534
 5506SOL     OW27859   3.719   0.833  17.136
 5506SOL    HW127860   3.761   0.769  17.200
 5506SOL    HW227861   3.681   0.782  17.058
 5507SOL     OW27862   2.389   0.256  17.087
 5507SOL    HW127863   2.416   0.197  17.012
 5507SOL    HW227864   2.389   0.351  17.056
 5508SOL     OW27865   2.272   0.813  18.010
 5508SOL    HW127866   2.358   0.825  18.060
 5508SOL    HW227867   2.230   0.726  18.037
 5509SOL     OW27868   2.229   1.100  17.260
 5509SOL    HW127869   2.222   1.183  17.204
 5509SOL    HW227870   2.233   1.020  17.200
 5510SOL     OW27871   2.428   0.537  17.624
 5510SOL    HW127872   2.440   0.603  17.550
 5510SOL    HW227873   2.474   0.571  17.707
 5511SOL     OW27874   3.134   1.445  17.901
 5511SOL    HW127875   3.181   1.458  17.988
 5511SOL    HW227876   3.068   1.371  17.910
 5512SOL     OW27877   3.444   0.639  17.231
 5512SOL    HW127878   3.413   0.700  17.304
 5512SOL    HW227879   3.494   0.691  17.162
 5513SOL     OW27880   2.594   0.634  17.823
 5513SOL    HW127881   2.653   0.608  17.747
 5513SOL    HW227882   2.566   0.730  17.812
 5514SOL     OW27883   2.169   0.063  17.377
 5514SOL    HW127884   2.158   0.157  17.410
 5514SOL    HW227885   2.164   0.000  17.454
 5515SOL     OW27886   3.484   0.367  17.133
 5515SOL    HW127887   3.486   0.291  17.197
 5515SOL    HW227888   3.436   0.444  17.173
 5516SOL     OW27889   2.181   0.810  17.708
 5516SOL    HW127890   2.274   0.846  17.713
 5516SOL    HW227891   2.175   0.725  17.760
 5517SOL     OW27892   2.201   0.509  17.765
 5517SOL    HW127893   2.149   0.426  17.748
 5517SOL    HW227894   2.278   0.514  17.701
 5518SOL     OW27895   1.902   0.544  17.873
 5518SOL    HW127896   1.987   0.511  17.832
 5518SOL    HW227897   1.915   0.559  17.971
 5519SOL     OW27898   2.677   0.572  17.084
 5519SOL    HW127899   2.684   0.483  17.038
 5519SOL    HW227900   2.583   0.606  17.076
 5520SOL     OW27901   2.533   0.464  18.028
 5520SOL    HW127902   2.499   0.375  17.998
 5520SOL    HW227903   2.559   0.518  17.948
 5521SOL     OW27904   3.250   1.573  17.236
 5521SOL    HW127905   3.317   1.585  17.162
 5521SOL    HW227906   3.210   1.662  17.259
 5522SOL     OW27907   3.142   0.927  17.431
 5522SOL    HW127908   3.202   0.846  17.433
 5522SOL    HW227909   3.182   0.996  17.371
 5523SOL     OW27910   2.125   0.326  17.479
 5523SOL    HW127911   2.046   0.377  17.445
 5523SOL    HW227912   2.116   0.311  17.577
 5524SOL     OW27913   2.778   0.910  17.050
 5524SOL    HW127914   2.841   0.948  16.982
 5524SOL    HW227915   2.818   0.827  17.089
 5525SOL     OW27916   2.117   1.348  17.049
 5525SOL    HW127917   2.021   1.349  17.022
 5525SOL    HW227918   2.129   1.401  17.133
 5526SOL     OW27919   1.937   0.345  16.792
 5526SOL    HW127920   1.845   0.317  16.763
 5526SOL    HW227921   1.968   0.422  16.736
 5527SOL     OW27922   1.934   0.166  17.077
 5527SOL    HW127923   1.917   0.249  17.023
 5527SOL    HW227924   2.024   0.129  17.055
 5528SOL     OW27925   3.045   1.335  16.878
 5528SOL    HW127926   2.946   1.324  16.880
 5528SOL    HW227927   3.079   1.350  16.971
 5529SOL     OW27928   2.456   0.745  17.411
 5529SOL    HW127929   2.506   0.830  17.392
 5529SOL    HW227930   2.368   0.747  17.363
 5530SOL     OW27931   2.721   1.374  16.775
 5530SOL    HW127932   2.675   1.389  16.863
 5530SOL    HW227933   2.765   1.459  16.745
 5531SOL     OW27934   2.523   1.790  17.712
 5531SOL    HW127935   2.477   1.878  17.699
 5531SOL    HW227936   2.622   1.802  17.705
 5532SOL     OW27937   2.721   0.956  17.620
 5532SOL    HW127938   2.775   0.887  17.668
 5532SOL    HW227939   2.689   1.025  17.686
 5533SOL     OW27940   2.945   0.984  16.846
 5533SOL    HW127941   2.922   1.037  16.764
 5533SOL    HW227942   3.026   0.928  16.827
 5534SOL     OW27943   1.941   1.240  17.412
 5534SOL    HW127944   1.940   1.193  17.500
 5534SOL    HW227945   2.023   1.212  17.361
 5535SOL     OW27946   2.290   0.424  17.279
 5535SOL    HW127947   2.320   0.352  17.217
 5535SOL    HW227948   2.251   0.384  17.362
 5536SOL     OW27949   3.286   0.214  17.871
 5536SOL    HW127950   3.338   0.149  17.926
 5536SOL    HW227951   3.237   0.277  17.932
 5537SOL     OW27952   3.455   0.221  17.641
 5537SOL    HW127953   3.371   0.220  17.695
 5537SOL    HW227954   3.457   0.304  17.585
 5538SOL     OW27955   1.881   2.230   0.647
 5538SOL    HW127956   1.799   2.273   0.686
 5538SOL    HW227957   1.853   2.157   0.584
 5539SOL     OW27958   2.431   3.137   1.165
 5539SOL    HW127959   2.338   3.130   1.128
 5539SOL    HW227960   2.442   3.226   1.209
 5540SOL     OW27961   3.417   3.373   0.703
 5540SOL    HW127962   3.360   3.357   0.784
 5540SOL    HW227963   3.358   3.383   0.623
 5541SOL     OW27964   2.997   2.565   0.717
 5541SOL    HW127965   3.054   2.643   0.692
 5541SOL    HW227966   2.937   2.591   0.793
 5542SOL     OW27967   3.617   2.469   0.231
 5542SOL    HW127968   3.605   2.456   0.132
 5542SOL    HW227969   3.587   2.388   0.280
 5543SOL     OW27970   2.630   3.006   1.023
 5543SOL    HW127971   2.552   3.023   1.083
 5543SOL    HW227972   2.664   3.093   0.987
 5544SOL     OW27973   2.712   2.660   1.823
 5544SOL    HW127974   2.708   2.736   1.888
 5544SOL    HW227975   2.734   2.696   1.732
 5545SOL     OW27976   2.547   2.874   0.665
 5545SOL    HW127977   2.616   2.858   0.735
 5545SOL    HW227978   2.474   2.931   0.703
 5546SOL     OW27979   2.548   3.023   1.803
 5546SOL    HW127980   2.608   3.102   1.817
 5546SOL    HW227981   2.462   3.054   1.762
 5547SOL     OW27982   2.197   3.297   1.061
 5547SOL    HW127983   2.119   3.266   1.008
 5547SOL    HW227984   2.255   3.355   1.004
 5548SOL     OW27985   3.322   3.367   1.339
 5548SOL    HW127986   3.346   3.461   1.365
 5548SOL    HW227987   3.306   3.313   1.421
 5549SOL     OW27988   2.300   2.254   1.499
 5549SOL    HW127989   2.382   2.198   1.508
 5549SOL    HW227990   2.219   2.196   1.503
 5550SOL     OW27991   2.093   3.575   0.483
 5550SOL    HW127992   2.127   3.652   0.537
 5550SOL    HW227993   2.137   3.575   0.393
 5551SOL     OW27994   2.989   3.203   1.690
 5551SOL    HW127995   3.036   3.203   1.778
 5551SOL    HW227996   2.941   3.116   1.679
 5552SOL     OW27997   2.092   3.296   0.538
 5552SOL    HW127998   2.066   3.392   0.538
 5552SOL    HW227999   2.021   3.242   0.583
 5553SOL     OW28000   2.102   2.953   0.886
 5553SOL    HW128001   2.116   2.869   0.938
 5553SOL    HW228002   2.047   3.017   0.941
 5554SOL     OW28003   2.482   3.648   1.439
 5554SOL    HW128004   2.390   3.631   1.474
 5554SOL    HW228005   2.510   3.740   1.465
 5555SOL     OW28006   3.704   3.629   0.359
 5555SOL    HW128007   3.758   3.600   0.439
 5555SOL    HW228008   3.734   3.719   0.330
 5556SOL     OW28009   1.889   3.458   0.117
 5556SOL    HW128010   1.870   3.362   0.138
 5556SOL    HW228011   1.856   3.516   0.192
 5557SOL     OW28012   3.551   2.784   0.612
 5557SOL    HW128013   3.646   2.755   0.620
 5557SOL    HW228014   3.543   2.849   0.537
 5558SOL     OW28015   3.503   2.970   0.432
 5558SOL    HW128016   3.589   2.972   0.380
 5558SOL    HW228017   3.517   3.017   0.520
 5559SOL     OW28018   2.475   3.227   0.726
 5559SOL    HW128019   2.426   3.140   0.735
 5559SOL    HW228020   2.452   3.270   0.639
 5560SOL     OW28021   3.155   3.090   1.423
 5560SOL    HW128022   3.192   3.017   1.365
 5560SOL    HW228023   3.207   3.095   1.508
 5561SOL     OW28024   2.059   2.838   1.264
 5561SOL    HW128025   2.148   2.793   1.250
 5561SOL    HW228026   1.986   2.773   1.245
 5562SOL     OW28027   3.387   2.861   0.190
 5562SOL    HW128028   3.324   2.785   0.203
 5562SOL    HW228029   3.435   2.879   0.276
 5563SOL     OW28030   3.328   3.279   0.953
 5563SOL    HW128031   3.269   3.285   1.033
 5563SOL    HW228032   3.313   3.191   0.907
 5564SOL     OW28033   3.529   3.576   0.572
 5564SOL    HW128034   3.488   3.553   0.484
 5564SOL    HW228035   3.511   3.502   0.637
 5565SOL     OW28036   3.438   3.524   0.307
 5565SOL    HW128037   3.527   3.570   0.310
 5565SOL    HW228038   3.417   3.500   0.212
 5566SOL     OW28039   2.669   2.467   1.465
 5566SOL    HW128040   2.622   2.464   1.554
 5566SOL    HW228041   2.618   2.412   1.399
 5567SOL     OW28042   2.835   2.752   1.572
 5567SOL    HW128043   2.881   2.668   1.543
 5567SOL    HW228044   2.779   2.786   1.497
 5568SOL     OW28045   2.903   2.563   0.429
 5568SOL    HW128046   2.929   2.559   0.525
 5568SOL    HW228047   2.818   2.512   0.415
 5569SOL     OW28048   1.992   3.683   1.571
 5569SOL    HW128049   1.982   3.668   1.670
 5569SOL    HW228050   1.906   3.719   1.535
 5570SOL     OW28051   3.581   2.447   1.831
 5570SOL    HW128052   3.555   2.536   1.795
 5570SOL    HW228053   3.579   2.379   1.758
 5571SOL     OW28054   3.224   3.006   0.545
 5571SOL    HW128055   3.307   2.977   0.497
 5571SOL    HW228056   3.175   3.073   0.489
 5572SOL     OW28057   2.213   3.663   0.853
 5572SOL    HW128058   2.263   3.577   0.859
 5572SOL    HW228059   2.278   3.740   0.850
 5573SOL     OW28060   3.657   2.928   0.873
 5573SOL    HW128061   3.595   2.913   0.797
 5573SOL    HW228062   3.605   2.939   0.958
 5574SOL     OW28063   3.089   3.412   1.506
 5574SOL    HW128064   3.095   3.335   1.570
 5574SOL    HW228065   3.037   3.386   1.426
 5575SOL     OW28066   2.323   3.128   1.727
 5575SOL    HW128067   2.273   3.129   1.641
 5575SOL    HW228068   2.260   3.110   1.803
 5576SOL     OW28069   2.973   3.638   0.237
 5576SOL    HW128070   2.913   3.576   0.287
 5576SOL    HW228071   3.004   3.594   0.152
 5577SOL     OW28072   3.494   3.239   0.081
 5577SOL    HW128073   3.462   3.333   0.071
 5577SOL    HW228074   3.418   3.176   0.069
 5578SOL     OW28075   2.326   3.605   0.323
 5578SOL    HW128076   2.359   3.644   0.409
 5578SOL    HW228077   2.402   3.598   0.258
 5579SOL     OW28078   2.111   3.647   1.241
 5579SOL    HW128079   2.168   3.582   1.291
 5579SOL    HW228080   2.095   3.614   1.148
 5580SOL     OW28081   2.802   3.560   0.904
 5580SOL    HW128082   2.882   3.503   0.925
 5580SOL    HW228083   2.753   3.520   0.827
 5581SOL     OW28084   2.244   2.562   0.480
 5581SOL    HW128085   2.289   2.472   0.477
 5581SOL    HW228086   2.150   2.551   0.513
 5582SOL     OW28087   3.409   2.084   1.729
 5582SOL    HW128088   3.404   2.121   1.821
 5582SOL    HW228089   3.337   2.015   1.717
 5583SOL     OW28090   2.476   1.984   0.117
 5583SOL    HW128091   2.574   1.962   0.124
 5583SOL    HW228092   2.445   1.967   0.024
 5584SOL     OW28093   2.643   2.126   1.749
 5584SOL    HW128094   2.710   2.065   1.792
 5584SOL    HW228095   2.570   2.145   1.814
 5585SOL     OW28096   2.750   3.376   1.195
 5585SOL    HW128097   2.727   3.351   1.101
 5585SOL    HW228098   2.811   3.307   1.234
 5586SOL     OW28099   2.401   1.926   0.512
 5586SOL    HW128100   2.320   1.927   0.570
 5586SOL    HW228101   2.404   2.009   0.457
 5587SOL     OW28102   3.296   3.050   0.041
 5587SOL    HW128103   3.328   2.974   0.098
 5587SOL    HW228104   3.204   3.077   0.071
 5588SOL     OW28105   2.797   2.098   0.480
 5588SOL    HW128106   2.749   2.139   0.402
 5588SOL    HW228107   2.896   2.096   0.461
 5589SOL     OW28108   2.321   3.014   0.741
 5589SOL    HW128109   2.250   2.987   0.806
 5589SOL    HW228110   2.295   2.986   0.648
 5590SOL     OW28111   1.940   2.418   1.386
 5590SOL    HW128112   2.032   2.417   1.345
 5590SOL    HW228113   1.934   2.492   1.453
 5591SOL     OW28114   3.291   3.035   0.867
 5591SOL    HW128115   3.236   2.951   0.860
 5591SOL    HW228116   3.317   3.064   0.775
 5592SOL     OW28117   3.328   2.452   0.992
 5592SOL    HW128118   3.298   2.357   0.999
 5592SOL    HW228119   3.401   2.468   1.058
 5593SOL     OW28120   3.719   2.695   0.377
 5593SOL    HW128121   3.761   2.631   0.441
 5593SOL    HW228122   3.681   2.644   0.299
 5594SOL     OW28123   3.526   3.142   0.657
 5594SOL    HW128124   3.625   3.150   0.671
 5594SOL    HW228125   3.481   3.226   0.688
 5595SOL     OW28126   2.389   2.118   0.328
 5595SOL    HW128127   2.416   2.059   0.253
 5595SOL    HW228128   2.389   2.213   0.297
 5596SOL     OW28129   3.616   3.085   1.588
 5596SOL    HW128130   3.707   3.046   1.575
 5596SOL    HW228131   3.624   3.181   1.612
 5597SOL     OW28132   2.926   3.209   1.340
 5597SOL    HW128133   2.846   3.186   1.395
 5597SOL    HW228134   3.009   3.183   1.389
 5598SOL     OW28135   3.454   3.491   1.625
 5598SOL    HW128136   3.481   3.525   1.535
 5598SOL    HW228137   3.533   3.453   1.671
 5599SOL     OW28138   2.842   2.978   1.719
 5599SOL    HW128139   2.743   2.984   1.729
 5599SOL    HW228140   2.865   2.898   1.663
 5600SOL     OW28141   2.272   2.675   1.251
 5600SOL    HW128142   2.358   2.687   1.301
 5600SOL    HW228143   2.230   2.588   1.278
 5601SOL     OW28144   1.926   3.426   1.331
 5601SOL    HW128145   1.880   3.508   1.297
 5601SOL    HW228146   2.024   3.445   1.340
 5602SOL     OW28147   2.229   2.962   0.501
 5602SOL    HW128148   2.222   3.045   0.445
 5602SOL    HW228149   2.233   2.882   0.441
 5603SOL     OW28150   3.114   3.210   0.388
 5603SOL    HW128151   3.164   3.287   0.428
 5603SOL    HW228152   3.019   3.212   0.420
 5604SOL     OW28153   3.134   3.307   1.142
 5604SOL    HW128154   3.181   3.320   1.229
 5604SOL    HW228155   3.068   3.233   1.151
 5605SOL     OW28156   3.444   2.501   0.472
 5605SOL    HW128157   3.413   2.562   0.545
 5605SOL    HW228158   3.494   2.553   0.403
 5606SOL     OW28159   2.216   3.372   1.329
 5606SOL    HW128160   2.195   3.328   1.242
 5606SOL    HW228161   2.313   3.398   1.332
 5607SOL     OW28162   2.264   2.613   1.598
 5607SOL    HW128163   2.332   2.668   1.551
 5607SOL    HW228164   2.304   2.525   1.625
 5608SOL     OW28165   2.875   1.967   1.770
 5608SOL    HW128166   2.881   2.052   1.718
 5608SOL    HW228167   2.907   1.891   1.713
 5609SOL     OW28168   2.366   1.912   1.740
 5609SOL    HW128169   2.324   1.855   1.670
 5609SOL    HW228170   2.300   1.981   1.772
 5610SOL     OW28171   1.899   3.172   1.282
 5610SOL    HW128172   1.952   3.123   1.350
 5610SOL    HW228173   1.921   3.270   1.287
 5611SOL     OW28174   3.484   2.229   0.374
 5611SOL    HW128175   3.486   2.153   0.438
 5611SOL    HW228176   3.436   2.306   0.414
 5612SOL     OW28177   2.842   3.435   1.700
 5612SOL    HW128178   2.822   3.479   1.612
 5612SOL    HW228179   2.881   3.344   1.684
 5613SOL     OW28180   3.721   3.380   1.605
 5613SOL    HW128181   3.735   3.407   1.510
 5613SOL    HW228182   3.804   3.402   1.658
 5614SOL     OW28183   2.212   2.760   1.804
 5614SOL    HW128184   2.288   2.804   1.852
 5614SOL    HW228185   2.247   2.713   1.722
 5615SOL     OW28186   1.950   3.663   0.927
 5615SOL    HW128187   1.908   3.577   0.900
 5615SOL    HW228188   2.044   3.666   0.893
 5616SOL     OW28189   2.366   3.430   0.910
 5616SOL    HW128190   2.432   3.504   0.919
 5616SOL    HW228191   2.410   3.351   0.868
 5617SOL     OW28192   1.902   2.406   1.114
 5617SOL    HW128193   1.987   2.373   1.073
 5617SOL    HW228194   1.915   2.421   1.212
 5618SOL     OW28195   2.114   3.426   1.744
 5618SOL    HW128196   2.084   3.483   1.820
 5618SOL    HW228197   2.107   3.329   1.770
 5619SOL     OW28198   2.533   2.326   1.269
 5619SOL    HW128199   2.499   2.237   1.239
 5619SOL    HW228200   2.559   2.380   1.189
 5620SOL     OW28201   2.792   3.540   1.465
 5620SOL    HW128202   2.768   3.522   1.370
 5620SOL    HW228203   2.822   3.634   1.475
 5621SOL     OW28204   2.335   2.362   0.191
 5621SOL    HW128205   2.396   2.442   0.195
 5621SOL    HW228206   2.240   2.393   0.198
 5622SOL     OW28207   2.021   2.999   1.466
 5622SOL    HW128208   2.043   2.938   1.542
 5622SOL    HW228209   2.031   2.950   1.380
 5623SOL     OW28210   3.621   3.609   1.154
 5623SOL    HW128211   3.682   3.639   1.081
 5623SOL    HW228212   3.583   3.520   1.132
 5624SOL     OW28213   3.114   3.593   1.128
 5624SOL    HW128214   3.198   3.598   1.074
 5624SOL    HW228215   3.091   3.497   1.146
 5625SOL     OW28216   1.945   3.120   1.022
 5625SOL    HW128217   1.940   3.119   1.122
 5625SOL    HW228218   1.862   3.079   0.984
 5626SOL     OW28219   2.550   3.524   1.716
 5626SOL    HW128220   2.494   3.605   1.725
 5626SOL    HW228221   2.602   3.528   1.630
 5627SOL     OW28222   2.765   1.948   0.133
 5627SOL    HW128223   2.816   1.949   0.047
 5627SOL    HW228224   2.821   1.906   0.204
 5628SOL     OW28225   3.250   3.435   0.477
 5628SOL    HW128226   3.317   3.447   0.403
 5628SOL    HW228227   3.210   3.524   0.500
 5629SOL     OW28228   1.992   3.656   1.851
 5629SOL    HW128229   1.951   3.582   1.904
 5629SOL    HW228230   2.056   3.707   1.909
 5630SOL     OW28231   3.142   2.789   0.672
 5630SOL    HW128232   3.202   2.708   0.674
 5630SOL    HW228233   3.182   2.858   0.612
 5631SOL     OW28234   2.692   3.135   1.422
 5631SOL    HW128235   2.687   3.168   1.517
 5631SOL    HW228236   2.606   3.154   1.376
 5632SOL     OW28237   3.512   3.582   1.394
 5632SOL    HW128238   3.565   3.592   1.310
 5632SOL    HW228239   3.485   3.672   1.428
 5633SOL     OW28240   3.056   3.474   0.031
 5633SOL    HW128241   3.062   3.381   0.068
 5633SOL    HW228242   2.997   3.474  -0.049
 5634SOL     OW28243   2.684   2.864   1.372
 5634SOL    HW128244   2.724   2.863   1.280
 5634SOL    HW228245   2.694   2.956   1.412
 5635SOL     OW28246   2.778   2.772   0.291
 5635SOL    HW128247   2.841   2.810   0.223
 5635SOL    HW228248   2.818   2.689   0.330
 5636SOL     OW28249   3.366   3.469   0.044
 5636SOL    HW128250   3.274   3.506   0.051
 5636SOL    HW228251   3.404   3.489  -0.046
 5637SOL     OW28252   2.234   3.150   1.490
 5637SOL    HW128253   2.221   3.243   1.456
 5637SOL    HW228254   2.150   3.098   1.477
 5638SOL     OW28255   3.476   3.154   1.289
 5638SOL    HW128256   3.536   3.157   1.369
 5638SOL    HW228257   3.401   3.218   1.302
 5639SOL     OW28258   1.967   2.875   1.726
 5639SOL    HW128259   1.890   2.842   1.780
 5639SOL    HW228260   2.052   2.845   1.768
 5640SOL     OW28261   3.045   3.197   0.119
 5640SOL    HW128262   2.946   3.186   0.121
 5640SOL    HW228263   3.079   3.212   0.212
 5641SOL     OW28264   2.475   2.704   1.431
 5641SOL    HW128265   2.531   2.785   1.414
 5641SOL    HW228266   2.534   2.624   1.434
 5642SOL     OW28267   3.355   3.629   0.959
 5642SOL    HW128268   3.388   3.693   0.890
 5642SOL    HW228269   3.421   3.623   1.034
 5643SOL     OW28270   2.578   2.427   1.708
 5643SOL    HW128271   2.597   2.492   1.782
 5643SOL    HW228272   2.638   2.347   1.717
 5644SOL     OW28273   3.312   3.082   1.633
 5644SOL    HW128274   3.303   3.072   1.732
 5644SOL    HW228275   3.408   3.075   1.607
 5645SOL     OW28276   2.252   3.603   1.560
 5645SOL    HW128277   2.161   3.644   1.558
 5645SOL    HW228278   2.245   3.509   1.592
 5646SOL     OW28279   3.639   2.204   1.642
 5646SOL    HW128280   3.622   2.235   1.548
 5646SOL    HW228281   3.555   2.167   1.680
 5647SOL     OW28282   3.592   2.796   1.517
 5647SOL    HW128283   3.630   2.887   1.532
 5647SOL    HW228284   3.584   2.779   1.418
 5648SOL     OW28285   2.721   3.236   0.016
 5648SOL    HW128286   2.675   3.251   0.104
 5648SOL    HW228287   2.765   3.321  -0.014
 5649SOL     OW28288   2.523   3.652   0.953
 5649SOL    HW128289   2.477   3.740   0.940
 5649SOL    HW228290   2.622   3.664   0.946
 5650SOL     OW28291   2.945   2.846   0.087
 5650SOL    HW128292   2.922   2.899   0.005
 5650SOL    HW228293   3.026   2.790   0.068
 5651SOL     OW28294   3.723   3.431   0.851
 5651SOL    HW128295   3.652   3.419   0.781
 5651SOL    HW228296   3.724   3.352   0.911
 5652SOL     OW28297   2.083   3.176   1.844
 5652SOL    HW128298   2.018   3.103   1.823
 5652SOL    HW228299   2.087   3.190   1.942
 5653SOL     OW28300   1.941   3.102   0.653
 5653SOL    HW128301   1.940   3.055   0.741
 5653SOL    HW228302   2.023   3.074   0.602
 5654SOL     OW28303   2.534   3.253   1.624
 5654SOL    HW128304   2.456   3.203   1.662
 5654SOL    HW228305   2.531   3.348   1.655
 5655SOL     OW28306   2.290   2.286   0.520
 5655SOL    HW128307   2.320   2.214   0.458
 5655SOL    HW228308   2.251   2.246   0.603
 5656SOL     OW28309   3.567   3.349   1.104
 5656SOL    HW128310   3.474   3.324   1.077
 5656SOL    HW228311   3.593   3.299   1.186
 5657SOL     OW28312   2.480   3.429   1.284
 5657SOL    HW128313   2.475   3.511   1.341
 5657SOL    HW228314   2.569   3.426   1.239
 5658SOL     OW28315   3.162   2.315   0.691
 5658SOL    HW128316   3.103   2.395   0.695
 5658SOL    HW228317   3.177   2.280   0.784
 5659SOL     OW28318   3.455   2.083   0.882
 5659SOL    HW128319   3.371   2.082   0.936
 5659SOL    HW228320   3.457   2.166   0.826
 5660SOL     OW28321   2.087   2.137   2.858
 5660SOL    HW128322   2.122   2.120   2.950
 5660SOL    HW228323   1.999   2.092   2.846
 5661SOL     OW28324   1.881   2.230   2.509
 5661SOL    HW128325   1.799   2.273   2.548
 5661SOL    HW228326   1.853   2.157   2.446
 5662SOL     OW28327   2.431   3.137   3.027
 5662SOL    HW128328   2.338   3.130   2.990
 5662SOL    HW228329   2.442   3.226   3.071
 5663SOL     OW28330   3.417   3.373   2.565
 5663SOL    HW128331   3.360   3.357   2.646
 5663SOL    HW228332   3.358   3.383   2.485
 5664SOL     OW28333   2.997   2.565   2.579
 5664SOL    HW128334   3.054   2.643   2.554
 5664SOL    HW228335   2.937   2.591   2.655
 5665SOL     OW28336   3.617   2.469   2.093
 5665SOL    HW128337   3.605   2.456   1.994
 5665SOL    HW228338   3.587   2.388   2.142
 5666SOL     OW28339   2.630   3.006   2.885
 5666SOL    HW128340   2.552   3.023   2.945
 5666SOL    HW228341   2.664   3.093   2.849
 5667SOL     OW28342   2.712   2.660   3.685
 5667SOL    HW128343   2.708   2.736   3.750
 5667SOL    HW228344   2.734   2.696   3.594
 5668SOL     OW28345   2.547   2.874   2.527
 5668SOL    HW128346   2.616   2.858   2.597
 5668SOL    HW228347   2.474   2.931   2.565
 5669SOL     OW28348   2.548   3.023   3.665
 5669SOL    HW128349   2.608   3.102   3.679
 5669SOL    HW228350   2.462   3.054   3.624
 5670SOL     OW28351   2.197   3.297   2.923
 5670SOL    HW128352   2.119   3.266   2.870
 5670SOL    HW228353   2.255   3.355   2.866
 5671SOL     OW28354   3.322   3.367   3.201
 5671SOL    HW128355   3.346   3.461   3.227
 5671SOL    HW228356   3.306   3.313   3.283
 5672SOL     OW28357   2.300   2.254   3.361
 5672SOL    HW128358   2.382   2.198   3.370
 5672SOL    HW228359   2.219   2.196   3.365
 5673SOL     OW28360   3.465   2.309   2.599
 5673SOL    HW128361   3.391   2.355   2.549
 5673SOL    HW228362   3.516   2.377   2.652
 5674SOL     OW28363   2.093   3.575   2.345
 5674SOL    HW128364   2.127   3.652   2.399
 5674SOL    HW228365   2.137   3.575   2.255
 5675SOL     OW28366   2.989   3.203   3.552
 5675SOL    HW128367   3.036   3.203   3.640
 5675SOL    HW228368   2.941   3.116   3.541
 5676SOL     OW28369   2.092   3.296   2.400
 5676SOL    HW128370   2.066   3.392   2.400
 5676SOL    HW228371   2.021   3.242   2.445
 5677SOL     OW28372   2.102   2.953   2.748
 5677SOL    HW128373   2.116   2.869   2.800
 5677SOL    HW228374   2.047   3.017   2.803
 5678SOL     OW28375   2.482   3.648   3.301
 5678SOL    HW128376   2.390   3.631   3.336
 5678SOL    HW228377   2.510   3.740   3.327
 5679SOL     OW28378   2.468   2.826   1.985
 5679SOL    HW128379   2.475   2.910   1.931
 5679SOL    HW228380   2.514   2.839   2.073
 5680SOL     OW28381   3.456   1.976   3.342
 5680SOL    HW128382   3.438   2.043   3.270
 5680SOL    HW228383   3.453   2.022   3.431
 5681SOL     OW28384   1.984   2.505   2.425
 5681SOL    HW128385   1.939   2.417   2.442
 5681SOL    HW228386   1.983   2.559   2.509
 5682SOL     OW28387   3.704   3.629   2.221
 5682SOL    HW128388   3.758   3.600   2.301
 5682SOL    HW228389   3.734   3.719   2.192
 5683SOL     OW28390   1.889   3.458   1.979
 5683SOL    HW128391   1.870   3.362   2.000
 5683SOL    HW228392   1.856   3.516   2.054
 5684SOL     OW28393   3.551   2.784   2.474
 5684SOL    HW128394   3.646   2.755   2.482
 5684SOL    HW228395   3.543   2.849   2.399
 5685SOL     OW28396   1.975   2.599   3.459
 5685SOL    HW128397   2.063   2.586   3.504
 5685SOL    HW228398   1.962   2.696   3.437
 5686SOL     OW28399   2.475   3.227   2.588
 5686SOL    HW128400   2.426   3.140   2.597
 5686SOL    HW228401   2.452   3.270   2.501
 5687SOL     OW28402   3.155   3.090   3.285
 5687SOL    HW128403   3.192   3.017   3.227
 5687SOL    HW228404   3.207   3.095   3.370
 5688SOL     OW28405   2.671   1.866   2.364
 5688SOL    HW128406   2.711   1.957   2.355
 5688SOL    HW228407   2.571   1.874   2.370
 5689SOL     OW28408   2.059   2.838   3.126
 5689SOL    HW128409   2.148   2.793   3.112
 5689SOL    HW228410   1.986   2.773   3.107
 5690SOL     OW28411   3.049   3.654   3.478
 5690SOL    HW128412   3.073   3.714   3.402
 5690SOL    HW228413   3.056   3.559   3.448
 5691SOL     OW28414   2.179   2.113   3.663
 5691SOL    HW128415   2.250   2.184   3.669
 5691SOL    HW228416   2.091   2.152   3.691
 5692SOL     OW28417   3.328   3.279   2.815
 5692SOL    HW128418   3.269   3.285   2.895
 5692SOL    HW228419   3.313   3.191   2.769
 5693SOL     OW28420   3.529   3.576   2.434
 5693SOL    HW128421   3.488   3.553   2.346
 5693SOL    HW228422   3.511   3.502   2.499
 5694SOL     OW28423   2.460   2.591   2.132
 5694SOL    HW128424   2.484   2.660   2.064
 5694SOL    HW228425   2.382   2.624   2.186
 5695SOL     OW28426   3.143   2.207   2.806
 5695SOL    HW128427   3.057   2.157   2.793
 5695SOL    HW228428   3.205   2.153   2.862
 5696SOL     OW28429   3.438   3.524   2.169
 5696SOL    HW128430   3.527   3.570   2.172
 5696SOL    HW228431   3.417   3.500   2.074
 5697SOL     OW28432   2.669   2.467   3.327
 5697SOL    HW128433   2.622   2.464   3.416
 5697SOL    HW228434   2.618   2.412   3.261
 5698SOL     OW28435   3.256   2.331   3.536
 5698SOL    HW128436   3.236   2.374   3.624
 5698SOL    HW228437   3.334   2.269   3.545
 5699SOL     OW28438   2.835   2.752   3.434
 5699SOL    HW128439   2.881   2.668   3.405
 5699SOL    HW228440   2.779   2.786   3.359
 5700SOL     OW28441   2.853   2.272   3.104
 5700SOL    HW128442   2.776   2.306   3.158
 5700SOL    HW228443   2.819   2.221   3.025
 5701SOL     OW28444   2.903   2.563   2.291
 5701SOL    HW128445   2.929   2.559   2.387
 5701SOL    HW228446   2.818   2.512   2.277
 5702SOL     OW28447   1.938   2.673   2.651
 5702SOL    HW128448   2.037   2.661   2.660
 5702SOL    HW228449   1.914   2.768   2.672
 5703SOL     OW28450   1.992   3.683   3.433
 5703SOL    HW128451   1.982   3.668   3.532
 5703SOL    HW228452   1.906   3.719   3.397
 5704SOL     OW28453   2.727   2.210   2.057
 5704SOL    HW128454   2.786   2.273   2.008
 5704SOL    HW228455   2.746   2.116   2.028
 5705SOL     OW28456   3.581   2.447   3.693
 5705SOL    HW128457   3.555   2.536   3.657
 5705SOL    HW228458   3.579   2.379   3.620
 5706SOL     OW28459   3.224   3.006   2.407
 5706SOL    HW128460   3.307   2.977   2.359
 5706SOL    HW228461   3.175   3.073   2.351
 5707SOL     OW28462   2.412   2.058   2.747
 5707SOL    HW128463   2.407   2.053   2.847
 5707SOL    HW228464   2.414   2.154   2.718
 5708SOL     OW28465   2.870   3.318   2.339
 5708SOL    HW128466   2.824   3.390   2.287
 5708SOL    HW228467   2.866   3.338   2.437
 5709SOL     OW28468   2.213   3.663   2.715
 5709SOL    HW128469   2.263   3.577   2.721
 5709SOL    HW228470   2.278   3.740   2.712
 5710SOL     OW28471   3.657   2.928   2.735
 5710SOL    HW128472   3.595   2.913   2.659
 5710SOL    HW228473   3.605   2.939   2.820
 5711SOL     OW28474   3.089   3.412   3.368
 5711SOL    HW128475   3.095   3.335   3.432
 5711SOL    HW228476   3.037   3.386   3.288
 5712SOL     OW28477   2.183   2.805   2.104
 5712SOL    HW128478   2.265   2.844   2.062
 5712SOL    HW228479   2.156   2.723   2.055
 5713SOL     OW28480   3.320   2.597   2.590
 5713SOL    HW128481   3.315   2.532   2.665
 5713SOL    HW228482   3.400   2.656   2.603
 5714SOL     OW28483   2.323   3.128   3.589
 5714SOL    HW128484   2.273   3.129   3.503
 5714SOL    HW228485   2.260   3.110   3.665
 5715SOL     OW28486   2.973   3.638   2.099
 5715SOL    HW128487   2.913   3.576   2.149
 5715SOL    HW228488   3.004   3.594   2.014
 5716SOL     OW28489   2.064   2.147   3.360
 5716SOL    HW128490   1.984   2.207   3.347
 5716SOL    HW228491   2.054   2.098   3.446
 5717SOL     OW28492   3.494   3.239   1.943
 5717SOL    HW128493   3.462   3.333   1.933
 5717SOL    HW228494   3.418   3.176   1.931
 5718SOL     OW28495   2.326   3.605   2.185
 5718SOL    HW128496   2.359   3.644   2.271
 5718SOL    HW228497   2.402   3.598   2.120
 5719SOL     OW28498   3.262   1.969   2.288
 5719SOL    HW128499   3.238   1.932   2.198
 5719SOL    HW228500   3.361   1.985   2.292
 5720SOL     OW28501   2.111   3.647   3.103
 5720SOL    HW128502   2.168   3.582   3.153
 5720SOL    HW228503   2.095   3.614   3.010
 5721SOL     OW28504   2.802   3.560   2.766
 5721SOL    HW128505   2.882   3.503   2.787
 5721SOL    HW228506   2.753   3.520   2.689
 5722SOL     OW28507   2.244   2.562   2.342
 5722SOL    HW128508   2.289   2.472   2.339
 5722SOL    HW228509   2.150   2.551   2.375
 5723SOL     OW28510   3.409   2.084   3.591
 5723SOL    HW128511   3.404   2.121   3.683
 5723SOL    HW228512   3.337   2.015   3.579
 5724SOL     OW28513   2.476   1.984   1.979
 5724SOL    HW128514   2.574   1.962   1.986
 5724SOL    HW228515   2.445   1.967   1.886
 5725SOL     OW28516   2.643   2.126   3.611
 5725SOL    HW128517   2.710   2.065   3.654
 5725SOL    HW228518   2.570   2.145   3.676
 5726SOL     OW28519   2.750   3.376   3.057
 5726SOL    HW128520   2.727   3.351   2.963
 5726SOL    HW228521   2.811   3.307   3.096
 5727SOL     OW28522   3.213   2.452   3.295
 5727SOL    HW128523   3.241   2.409   3.380
 5727SOL    HW228524   3.238   2.548   3.296
 5728SOL     OW28525   2.665   3.264   2.786
 5728SOL    HW128526   2.755   3.278   2.744
 5728SOL    HW228527   2.594   3.266   2.715
 5729SOL     OW28528   2.784   2.365   2.761
 5729SOL    HW128529   2.759   2.356   2.665
 5729SOL    HW228530   2.832   2.283   2.792
 5730SOL     OW28531   2.401   1.926   2.374
 5730SOL    HW128532   2.320   1.927   2.432
 5730SOL    HW228533   2.404   2.009   2.319
 5731SOL     OW28534   2.159   1.897   2.033
 5731SOL    HW128535   2.208   1.981   2.012
 5731SOL    HW228536   2.221   1.832   2.078
 5732SOL     OW28537   2.797   2.098   2.342
 5732SOL    HW128538   2.749   2.139   2.264
 5732SOL    HW228539   2.896   2.096   2.323
 5733SOL     OW28540   2.938   2.545   3.326
 5733SOL    HW128541   2.858   2.484   3.329
 5733SOL    HW228542   3.019   2.492   3.302
 5734SOL     OW28543   3.089   3.432   2.655
 5734SOL    HW128544   3.110   3.506   2.590
 5734SOL    HW228545   3.157   3.432   2.728
 5735SOL     OW28546   2.321   3.014   2.603
 5735SOL    HW128547   2.250   2.987   2.668
 5735SOL    HW228548   2.295   2.986   2.510
 5736SOL     OW28549   3.133   3.659   2.453
 5736SOL    HW128550   3.177   3.723   2.389
 5736SOL    HW228551   3.083   3.711   2.523
 5737SOL     OW28552   2.894   2.411   1.878
 5737SOL    HW128553   2.853   2.493   1.839
 5737SOL    HW228554   2.958   2.437   1.951
 5738SOL     OW28555   1.940   2.418   3.248
 5738SOL    HW128556   2.032   2.417   3.207
 5738SOL    HW228557   1.934   2.492   3.315
 5739SOL     OW28558   2.423   2.084   3.009
 5739SOL    HW128559   2.461   2.000   3.046
 5739SOL    HW228560   2.335   2.103   3.053
 5740SOL     OW28561   2.728   2.316   2.504
 5740SOL    HW128562   2.696   2.388   2.442
 5740SOL    HW228563   2.752   2.235   2.451
 5741SOL     OW28564   2.879   1.901   2.615
 5741SOL    HW128565   2.807   1.906   2.546
 5741SOL    HW228566   2.855   1.832   2.684
 5742SOL     OW28567   3.291   3.035   2.729
 5742SOL    HW128568   3.236   2.951   2.722
 5742SOL    HW228569   3.317   3.064   2.637
 5743SOL     OW28570   3.328   2.452   2.854
 5743SOL    HW128571   3.298   2.357   2.861
 5743SOL    HW228572   3.401   2.468   2.920
 5744SOL     OW28573   3.719   2.695   2.239
 5744SOL    HW128574   3.761   2.631   2.303
 5744SOL    HW228575   3.681   2.644   2.161
 5745SOL     OW28576   2.350   3.247   2.036
 5745SOL    HW128577   2.263   3.232   2.083
 5745SOL    HW228578   2.333   3.273   1.941
 5746SOL     OW28579   3.526   3.142   2.519
 5746SOL    HW128580   3.625   3.150   2.533
 5746SOL    HW228581   3.481   3.226   2.550
 5747SOL     OW28582   3.252   2.437   1.940
 5747SOL    HW128583   3.198   2.416   2.021
 5747SOL    HW228584   3.343   2.396   1.949
 5748SOL     OW28585   2.389   2.118   2.190
 5748SOL    HW128586   2.416   2.059   2.115
 5748SOL    HW228587   2.389   2.213   2.159
 5749SOL     OW28588   3.616   3.085   3.450
 5749SOL    HW128589   3.707   3.046   3.437
 5749SOL    HW228590   3.624   3.181   3.474
 5750SOL     OW28591   2.926   3.209   3.202
 5750SOL    HW128592   2.846   3.186   3.257
 5750SOL    HW228593   3.009   3.183   3.251
 5751SOL     OW28594   3.454   3.491   3.487
 5751SOL    HW128595   3.481   3.525   3.397
 5751SOL    HW228596   3.533   3.453   3.533
 5752SOL     OW28597   2.973   3.057   2.962
 5752SOL    HW128598   2.933   3.101   3.043
 5752SOL    HW228599   2.932   3.094   2.879
 5753SOL     OW28600   3.500   2.961   2.941
 5753SOL    HW128601   3.505   3.042   3.000
 5753SOL    HW228602   3.414   2.963   2.890
 5754SOL     OW28603   2.777   1.951   3.264
 5754SOL    HW128604   2.802   1.931   3.169
 5754SOL    HW228605   2.849   2.007   3.306
 5755SOL     OW28606   2.842   2.978   3.581
 5755SOL    HW128607   2.743   2.984   3.591
 5755SOL    HW228608   2.865   2.898   3.525
 5756SOL     OW28609   2.567   2.912   2.230
 5756SOL    HW128610   2.553   2.919   2.329
 5756SOL    HW228611   2.651   2.861   2.212
 5757SOL     OW28612   2.272   2.675   3.113
 5757SOL    HW128613   2.358   2.687   3.163
 5757SOL    HW228614   2.230   2.588   3.140
 5758SOL     OW28615   3.136   2.248   3.124
 5758SOL    HW128616   3.157   2.322   3.188
 5758SOL    HW228617   3.047   2.265   3.081
 5759SOL     OW28618   1.926   3.426   3.193
 5759SOL    HW128619   1.880   3.508   3.159
 5759SOL    HW228620   2.024   3.445   3.202
 5760SOL     OW28621   2.229   2.962   2.363
 5760SOL    HW128622   2.222   3.045   2.307
 5760SOL    HW228623   2.233   2.882   2.303
 5761SOL     OW28624   2.428   2.399   2.727
 5761SOL    HW128625   2.440   2.465   2.653
 5761SOL    HW228626   2.474   2.433   2.810
 5762SOL     OW28627   3.114   3.210   2.250
 5762SOL    HW128628   3.164   3.287   2.290
 5762SOL    HW228629   3.019   3.212   2.282
 5763SOL     OW28630   3.134   3.307   3.004
 5763SOL    HW128631   3.181   3.320   3.091
 5763SOL    HW228632   3.068   3.233   3.013
 5764SOL     OW28633   3.444   2.501   2.334
 5764SOL    HW128634   3.413   2.562   2.407
 5764SOL    HW228635   3.494   2.553   2.265
 5765SOL     OW28636   2.216   3.372   3.191
 5765SOL    HW128637   2.195   3.328   3.104
 5765SOL    HW228638   2.313   3.398   3.194
 5766SOL     OW28639   2.264   2.613   3.460
 5766SOL    HW128640   2.332   2.668   3.413
 5766SOL    HW228641   2.304   2.525   3.487
 5767SOL     OW28642   3.449   2.641   3.532
 5767SOL    HW128643   3.357   2.679   3.527
 5767SOL    HW228644   3.509   2.688   3.467
 5768SOL     OW28645   2.875   1.967   3.632
 5768SOL    HW128646   2.881   2.052   3.580
 5768SOL    HW228647   2.907   1.891   3.575
 5769SOL     OW28648   2.366   1.912   3.602
 5769SOL    HW128649   2.324   1.855   3.532
 5769SOL    HW228650   2.300   1.981   3.634
 5770SOL     OW28651   2.435   2.732   2.891
 5770SOL    HW128652   2.479   2.821   2.882
 5770SOL    HW228653   2.372   2.732   2.968
 5771SOL     OW28654   3.222   2.724   2.907
 5771SOL    HW128655   3.147   2.724   2.841
 5771SOL    HW228656   3.259   2.632   2.916
 5772SOL     OW28657   3.071   2.387   2.137
 5772SOL    HW128658   3.084   2.303   2.191
 5772SOL    HW228659   3.042   2.461   2.197
 5773SOL     OW28660   2.169   2.075   3.093
 5773SOL    HW128661   2.146   2.112   3.183
 5773SOL    HW228662   2.139   1.980   3.087
 5774SOL     OW28663   1.899   3.172   3.144
 5774SOL    HW128664   1.952   3.123   3.212
 5774SOL    HW228665   1.921   3.270   3.149
 5775SOL     OW28666   2.594   2.496   2.926
 5775SOL    HW128667   2.653   2.470   2.850
 5775SOL    HW228668   2.566   2.592   2.915
 5776SOL     OW28669   3.590   2.797   3.716
 5776SOL    HW128670   3.544   2.790   3.627
 5776SOL    HW228671   3.528   2.841   3.782
 5777SOL     OW28672   2.169   1.925   2.480
 5777SOL    HW128673   2.158   2.019   2.513
 5777SOL    HW228674   2.164   1.862   2.557
 5778SOL     OW28675   3.484   2.229   2.236
 5778SOL    HW128676   3.486   2.153   2.300
 5778SOL    HW228677   3.436   2.306   2.276
 5779SOL     OW28678   2.885   2.628   2.828
 5779SOL    HW128679   2.900   2.649   2.924
 5779SOL    HW228680   2.855   2.533   2.819
 5780SOL     OW28681   2.842   3.435   3.562
 5780SOL    HW128682   2.822   3.479   3.474
 5780SOL    HW228683   2.881   3.344   3.546
 5781SOL     OW28684   3.721   3.380   3.467
 5781SOL    HW128685   3.735   3.407   3.372
 5781SOL    HW228686   3.804   3.402   3.520
 5782SOL     OW28687   2.212   2.760   3.666
 5782SOL    HW128688   2.288   2.804   3.714
 5782SOL    HW228689   2.247   2.713   3.584
 5783SOL     OW28690   3.402   2.136   1.987
 5783SOL    HW128691   3.341   2.061   2.010
 5783SOL    HW228692   3.424   2.188   2.070
 5784SOL     OW28693   2.930   3.195   2.711
 5784SOL    HW128694   2.937   3.111   2.656
 5784SOL    HW228695   2.992   3.264   2.675
 5785SOL     OW28696   2.181   2.672   2.811
 5785SOL    HW128697   2.274   2.708   2.816
 5785SOL    HW228698   2.175   2.587   2.863
 5786SOL     OW28699   2.201   2.371   2.868
 5786SOL    HW128700   2.149   2.288   2.851
 5786SOL    HW228701   2.278   2.376   2.804
 5787SOL     OW28702   3.000   2.242   3.540
 5787SOL    HW128703   2.955   2.305   3.604
 5787SOL    HW228704   3.093   2.273   3.523
 5788SOL     OW28705   3.022   2.069   3.339
 5788SOL    HW128706   3.022   2.133   3.416
 5788SOL    HW228707   3.050   2.117   3.256
 5789SOL     OW28708   1.870   3.188   2.062
 5789SOL    HW128709   1.777   3.209   2.031
 5789SOL    HW228710   1.880   3.089   2.075
 5790SOL     OW28711   1.950   3.663   2.789
 5790SOL    HW128712   1.908   3.577   2.762
 5790SOL    HW228713   2.044   3.666   2.755
 5791SOL     OW28714   2.366   3.430   2.772
 5791SOL    HW128715   2.432   3.504   2.781
 5791SOL    HW228716   2.410   3.351   2.730
 5792SOL     OW28717   2.864   2.658   3.100
 5792SOL    HW128718   2.905   2.626   3.186
 5792SOL    HW228719   2.768   2.631   3.097
 5793SOL     OW28720   1.902   2.406   2.976
 5793SOL    HW128721   1.987   2.373   2.935
 5793SOL    HW228722   1.915   2.421   3.074
 5794SOL     OW28723   2.051   2.382   3.584
 5794SOL    HW128724   2.110   2.342   3.514
 5794SOL    HW228725   1.993   2.453   3.543
 5795SOL     OW28726   3.231   2.812   3.522
 5795SOL    HW128727   3.270   2.901   3.542
 5795SOL    HW228728   3.241   2.792   3.425
 5796SOL     OW28729   2.677   2.434   2.187
 5796SOL    HW128730   2.684   2.345   2.141
 5796SOL    HW228731   2.583   2.468   2.179
 5797SOL     OW28732   3.519   2.466   3.068
 5797SOL    HW128733   3.481   2.397   3.130
 5797SOL    HW228734   3.601   2.430   3.024
 5798SOL     OW28735   2.114   3.426   3.606
 5798SOL    HW128736   2.084   3.483   3.682
 5798SOL    HW228737   2.107   3.329   3.632
 5799SOL     OW28738   2.533   2.326   3.131
 5799SOL    HW128739   2.499   2.237   3.101
 5799SOL    HW228740   2.559   2.380   3.051
 5800SOL     OW28741   2.792   3.540   3.327
 5800SOL    HW128742   2.768   3.522   3.232
 5800SOL    HW228743   2.822   3.634   3.337
 5801SOL     OW28744   2.335   2.362   2.053
 5801SOL    HW128745   2.396   2.442   2.057
 5801SOL    HW228746   2.240   2.393   2.060
 5802SOL     OW28747   2.021   2.999   3.328
 5802SOL    HW128748   2.043   2.938   3.404
 5802SOL    HW228749   2.031   2.950   3.242
 5803SOL     OW28750   3.209   2.921   3.096
 5803SOL    HW128751   3.233   2.858   3.022
 5803SOL    HW228752   3.119   2.961   3.078
 5804SOL     OW28753   3.164   2.717   2.171
 5804SOL    HW128754   3.078   2.686   2.213
 5804SOL    HW228755   3.160   2.703   2.072
 5805SOL     OW28756   3.621   3.609   3.016
 5805SOL    HW128757   3.682   3.639   2.943
 5805SOL    HW228758   3.583   3.520   2.994
 5806SOL     OW28759   3.114   3.593   2.990
 5806SOL    HW128760   3.198   3.598   2.936
 5806SOL    HW228761   3.091   3.497   3.008
 5807SOL     OW28762   1.945   3.120   2.884
 5807SOL    HW128763   1.940   3.119   2.984
 5807SOL    HW228764   1.862   3.079   2.846
 5808SOL     OW28765   2.550   3.524   3.578
 5808SOL    HW128766   2.494   3.605   3.587
 5808SOL    HW228767   2.602   3.528   3.492
 5809SOL     OW28768   3.588   1.997   2.385
 5809SOL    HW128769   3.661   1.980   2.318
 5809SOL    HW228770   3.557   1.910   2.423
 5810SOL     OW28771   3.250   3.435   2.339
 5810SOL    HW128772   3.317   3.447   2.265
 5810SOL    HW228773   3.210   3.524   2.362
 5811SOL     OW28774   1.992   3.656   3.713
 5811SOL    HW128775   1.951   3.582   3.766
 5811SOL    HW228776   2.056   3.707   3.771
 5812SOL     OW28777   3.142   2.789   2.534
 5812SOL    HW128778   3.202   2.708   2.536
 5812SOL    HW228779   3.182   2.858   2.474
 5813SOL     OW28780   2.692   3.135   3.284
 5813SOL    HW128781   2.687   3.168   3.379
 5813SOL    HW228782   2.606   3.154   3.238
 5814SOL     OW28783   2.534   3.478   2.016
 5814SOL    HW128784   2.543   3.488   1.917
 5814SOL    HW228785   2.494   3.389   2.037
 5815SOL     OW28786   3.512   3.582   3.256
 5815SOL    HW128787   3.565   3.592   3.172
 5815SOL    HW228788   3.485   3.672   3.290
 5816SOL     OW28789   3.703   2.037   2.825
 5816SOL    HW128790   3.742   1.952   2.789
 5816SOL    HW228791   3.605   2.039   2.806
 5817SOL     OW28792   2.125   2.188   2.582
 5817SOL    HW128793   2.046   2.239   2.548
 5817SOL    HW228794   2.116   2.173   2.680
 5818SOL     OW28795   3.056   3.474   1.893
 5818SOL    HW128796   3.062   3.381   1.930
 5818SOL    HW228797   2.997   3.474   1.813
 5819SOL     OW28798   2.684   2.864   3.234
 5819SOL    HW128799   2.724   2.863   3.142
 5819SOL    HW228800   2.694   2.956   3.274
 5820SOL     OW28801   2.778   2.772   2.153
 5820SOL    HW128802   2.841   2.810   2.085
 5820SOL    HW228803   2.818   2.689   2.192
 5821SOL     OW28804   3.366   3.469   1.906
 5821SOL    HW128805   3.274   3.506   1.913
 5821SOL    HW228806   3.404   3.489   1.816
 5822SOL     OW28807   2.234   3.150   3.352
 5822SOL    HW128808   2.221   3.243   3.318
 5822SOL    HW228809   2.150   3.098   3.339
 5823SOL     OW28810   3.476   3.154   3.151
 5823SOL    HW128811   3.536   3.157   3.231
 5823SOL    HW228812   3.401   3.218   3.164
 5824SOL     OW28813   2.901   2.960   2.558
 5824SOL    HW128814   2.831   2.913   2.612
 5824SOL    HW228815   2.960   2.892   2.515
 5825SOL     OW28816   2.876   2.098   2.833
 5825SOL    HW128817   2.868   2.062   2.740
 5825SOL    HW228818   2.874   2.022   2.898
 5826SOL     OW28819   2.452   3.349   2.353
 5826SOL    HW128820   2.494   3.291   2.283
 5826SOL    HW228821   2.408   3.428   2.309
 5827SOL     OW28822   3.571   2.247   3.243
 5827SOL    HW128823   3.644   2.316   3.247
 5827SOL    HW228824   3.599   2.172   3.184
 5828SOL     OW28825   2.117   3.210   2.152
 5828SOL    HW128826   2.021   3.211   2.125
 5828SOL    HW228827   2.129   3.263   2.236
 5829SOL     OW28828   1.967   2.875   3.588
 5829SOL    HW128829   1.890   2.842   3.642
 5829SOL    HW228830   2.052   2.845   3.630
 5830SOL     OW28831   2.534   2.065   3.351
 5830SOL    HW128832   2.624   2.049   3.311
 5830SOL    HW228833   2.542   2.070   3.450
 5831SOL     OW28834   3.302   2.718   3.260
 5831SOL    HW128835   3.245   2.770   3.197
 5831SOL    HW228836   3.398   2.730   3.236
 5832SOL     OW28837   1.934   2.028   2.180
 5832SOL    HW128838   1.917   2.111   2.126
 5832SOL    HW228839   2.024   1.991   2.158
 5833SOL     OW28840   3.045   3.197   1.981
 5833SOL    HW128841   2.946   3.186   1.983
 5833SOL    HW228842   3.079   3.212   2.074
 5834SOL     OW28843   2.475   2.704   3.293
 5834SOL    HW128844   2.531   2.785   3.276
 5834SOL    HW228845   2.534   2.624   3.296
 5835SOL     OW28846   3.355   3.629   2.821
 5835SOL    HW128847   3.388   3.693   2.752
 5835SOL    HW228848   3.421   3.623   2.896
 5836SOL     OW28849   2.578   2.427   3.570
 5836SOL    HW128850   2.597   2.492   3.644
 5836SOL    HW228851   2.638   2.347   3.579
 5837SOL     OW28852   3.312   3.082   3.495
 5837SOL    HW128853   3.303   3.072   3.594
 5837SOL    HW228854   3.408   3.075   3.469
 5838SOL     OW28855   2.252   3.603   3.422
 5838SOL    HW128856   2.161   3.644   3.420
 5838SOL    HW228857   2.245   3.509   3.454
 5839SOL     OW28858   3.536   2.745   3.116
 5839SOL    HW128859   3.509   2.656   3.079
 5839SOL    HW228860   3.537   2.813   3.043
 5840SOL     OW28861   3.087   2.187   2.311
 5840SOL    HW128862   3.152   2.113   2.300
 5840SOL    HW228863   3.107   2.237   2.395
 5841SOL     OW28864   2.456   2.607   2.514
 5841SOL    HW128865   2.506   2.692   2.495
 5841SOL    HW228866   2.368   2.609   2.466
 5842SOL     OW28867   3.639   2.204   3.504
 5842SOL    HW128868   3.622   2.235   3.410
 5842SOL    HW228869   3.555   2.167   3.542
 5843SOL     OW28870   3.592   2.796   3.379
 5843SOL    HW128871   3.630   2.887   3.394
 5843SOL    HW228872   3.584   2.779   3.280
 5844SOL     OW28873   2.721   3.236   1.878
 5844SOL    HW128874   2.675   3.251   1.966
 5844SOL    HW228875   2.765   3.321   1.848
 5845SOL     OW28876   2.523   3.652   2.815
 5845SOL    HW128877   2.477   3.740   2.802
 5845SOL    HW228878   2.622   3.664   2.808
 5846SOL     OW28879   2.721   2.818   2.723
 5846SOL    HW128880   2.775   2.749   2.771
 5846SOL    HW228881   2.689   2.887   2.789
 5847SOL     OW28882   2.945   2.846   1.949
 5847SOL    HW128883   2.922   2.899   1.867
 5847SOL    HW228884   3.026   2.790   1.930
 5848SOL     OW28885   3.723   3.431   2.713
 5848SOL    HW128886   3.652   3.419   2.643
 5848SOL    HW228887   3.724   3.352   2.773
 5849SOL     OW28888   2.083   3.176   3.706
 5849SOL    HW128889   2.018   3.103   3.685
 5849SOL    HW228890   2.087   3.190   3.804
 5850SOL     OW28891   1.941   3.102   2.515
 5850SOL    HW128892   1.940   3.055   2.603
 5850SOL    HW228893   2.023   3.074   2.464
 5851SOL     OW28894   2.534   3.253   3.486
 5851SOL    HW128895   2.456   3.203   3.524
 5851SOL    HW228896   2.531   3.348   3.517
 5852SOL     OW28897   3.686   2.054   3.089
 5852SOL    HW128898   3.682   1.964   3.133
 5852SOL    HW228899   3.689   2.043   2.990
 5853SOL     OW28900   2.290   2.286   2.382
 5853SOL    HW128901   2.320   2.214   2.320
 5853SOL    HW228902   2.251   2.246   2.465
 5854SOL     OW28903   3.567   3.349   2.966
 5854SOL    HW128904   3.474   3.324   2.939
 5854SOL    HW228905   3.593   3.299   3.048
 5855SOL     OW28906   2.179   2.409   3.142
 5855SOL    HW128907   2.217   2.350   3.214
 5855SOL    HW228908   2.219   2.383   3.054
 5856SOL     OW28909   2.674   3.448   2.549
 5856SOL    HW128910   2.706   3.458   2.455
 5856SOL    HW228911   2.595   3.386   2.551
 5857SOL     OW28912   3.286   2.076   2.974
 5857SOL    HW128913   3.338   2.011   3.029
 5857SOL    HW228914   3.237   2.139   3.035
 5858SOL     OW28915   2.863   1.896   3.016
 5858SOL    HW128916   2.800   1.824   2.985
 5858SOL    HW228917   2.956   1.860   3.016
 5859SOL     OW28918   2.632   3.192   2.163
 5859SOL    HW128919   2.586   3.105   2.180
 5859SOL    HW228920   2.723   3.189   2.204
 5860SOL     OW28921   2.480   3.429   3.146
 5860SOL    HW128922   2.475   3.511   3.203
 5860SOL    HW228923   2.569   3.426   3.101
 5861SOL     OW28924   3.214   1.914   2.030
 5861SOL    HW128925   3.249   1.873   1.946
 5861SOL    HW228926   3.124   1.876   2.050
 5862SOL     OW28927   3.162   2.315   2.553
 5862SOL    HW128928   3.103   2.395   2.557
 5862SOL    HW228929   3.177   2.280   2.646
 5863SOL     OW28930   3.455   2.083   2.744
 5863SOL    HW128931   3.371   2.082   2.798
 5863SOL    HW228932   3.457   2.166   2.688
 5864SOL     OW28933   1.901   2.939   2.162
 5864SOL    HW128934   2.000   2.928   2.153
 5864SOL    HW228935   1.861   2.853   2.194
 5865SOL     OW28936   2.737   3.508   2.199
 5865SOL    HW128937   2.660   3.473   2.145
 5865SOL    HW228938   2.705   3.579   2.261
 5866SOL     OW28939   2.092   2.490   3.837
 5866SOL    HW128940   1.999   2.488   3.874
 5866SOL    HW228941   2.093   2.451   3.745
 5867SOL     OW28942   2.087   2.137   4.720
 5867SOL    HW128943   2.122   2.120   4.812
 5867SOL    HW228944   1.999   2.092   4.708
 5868SOL     OW28945   1.881   2.230   4.371
 5868SOL    HW128946   1.799   2.273   4.410
 5868SOL    HW228947   1.853   2.157   4.308
 5869SOL     OW28948   2.431   3.137   4.889
 5869SOL    HW128949   2.338   3.130   4.852
 5869SOL    HW228950   2.442   3.226   4.933
 5870SOL     OW28951   3.417   3.373   4.427
 5870SOL    HW128952   3.360   3.357   4.508
 5870SOL    HW228953   3.358   3.383   4.347
 5871SOL     OW28954   2.997   2.565   4.441
 5871SOL    HW128955   3.054   2.643   4.416
 5871SOL    HW228956   2.937   2.591   4.517
 5872SOL     OW28957   3.617   2.469   3.955
 5872SOL    HW128958   3.605   2.456   3.856
 5872SOL    HW228959   3.587   2.388   4.004
 5873SOL     OW28960   2.630   3.006   4.747
 5873SOL    HW128961   2.552   3.023   4.807
 5873SOL    HW228962   2.664   3.093   4.711
 5874SOL     OW28963   2.712   2.660   5.547
 5874SOL    HW128964   2.708   2.736   5.612
 5874SOL    HW228965   2.734   2.696   5.456
 5875SOL     OW28966   2.547   2.874   4.389
 5875SOL    HW128967   2.616   2.858   4.459
 5875SOL    HW228968   2.474   2.931   4.427
 5876SOL     OW28969   2.548   3.023   5.527
 5876SOL    HW128970   2.608   3.102   5.541
 5876SOL    HW228971   2.462   3.054   5.486
 5877SOL     OW28972   2.197   3.297   4.785
 5877SOL    HW128973   2.119   3.266   4.732
 5877SOL    HW228974   2.255   3.355   4.728
 5878SOL     OW28975   3.322   3.367   5.063
 5878SOL    HW128976   3.346   3.461   5.089
 5878SOL    HW228977   3.306   3.313   5.145
 5879SOL     OW28978   2.300   2.254   5.223
 5879SOL    HW128979   2.382   2.198   5.232
 5879SOL    HW228980   2.219   2.196   5.227
 5880SOL     OW28981   3.465   2.309   4.461
 5880SOL    HW128982   3.391   2.355   4.411
 5880SOL    HW228983   3.516   2.377   4.514
 5881SOL     OW28984   2.093   3.575   4.207
 5881SOL    HW128985   2.127   3.652   4.261
 5881SOL    HW228986   2.137   3.575   4.117
 5882SOL     OW28987   2.989   3.203   5.414
 5882SOL    HW128988   3.036   3.203   5.502
 5882SOL    HW228989   2.941   3.116   5.403
 5883SOL     OW28990   2.092   3.296   4.262
 5883SOL    HW128991   2.066   3.392   4.262
 5883SOL    HW228992   2.021   3.242   4.307
 5884SOL     OW28993   2.102   2.953   4.610
 5884SOL    HW128994   2.116   2.869   4.662
 5884SOL    HW228995   2.047   3.017   4.665
 5885SOL     OW28996   2.482   3.648   5.163
 5885SOL    HW128997   2.390   3.631   5.198
 5885SOL    HW228998   2.510   3.740   5.189
 5886SOL     OW28999   2.468   2.826   3.847
 5886SOL    HW129000   2.475   2.910   3.793
 5886SOL    HW229001   2.514   2.839   3.935
 5887SOL     OW29002   3.456   1.976   5.204
 5887SOL    HW129003   3.438   2.043   5.132
 5887SOL    HW229004   3.453   2.022   5.293
 5888SOL     OW29005   1.984   2.505   4.287
 5888SOL    HW129006   1.939   2.417   4.304
 5888SOL    HW229007   1.983   2.559   4.371
 5889SOL     OW29008   3.704   3.629   4.083
 5889SOL    HW129009   3.758   3.600   4.163
 5889SOL    HW229010   3.734   3.719   4.054
 5890SOL     OW29011   1.889   3.458   3.841
 5890SOL    HW129012   1.870   3.362   3.862
 5890SOL    HW229013   1.856   3.516   3.916
 5891SOL     OW29014   3.551   2.784   4.336
 5891SOL    HW129015   3.646   2.755   4.344
 5891SOL    HW229016   3.543   2.849   4.261
 5892SOL     OW29017   3.503   2.970   4.156
 5892SOL    HW129018   3.589   2.972   4.104
 5892SOL    HW229019   3.517   3.017   4.244
 5893SOL     OW29020   1.975   2.599   5.321
 5893SOL    HW129021   2.063   2.586   5.366
 5893SOL    HW229022   1.962   2.696   5.299
 5894SOL     OW29023   2.475   3.227   4.450
 5894SOL    HW129024   2.426   3.140   4.459
 5894SOL    HW229025   2.452   3.270   4.363
 5895SOL     OW29026   3.155   3.090   5.147
 5895SOL    HW129027   3.192   3.017   5.089
 5895SOL    HW229028   3.207   3.095   5.232
 5896SOL     OW29029   2.671   1.866   4.226
 5896SOL    HW129030   2.711   1.957   4.217
 5896SOL    HW229031   2.571   1.874   4.232
 5897SOL     OW29032   2.059   2.838   4.988
 5897SOL    HW129033   2.148   2.793   4.974
 5897SOL    HW229034   1.986   2.773   4.969
 5898SOL     OW29035   3.387   2.861   3.914
 5898SOL    HW129036   3.324   2.785   3.927
 5898SOL    HW229037   3.435   2.879   4.000
 5899SOL     OW29038   3.049   3.654   5.340
 5899SOL    HW129039   3.073   3.714   5.264
 5899SOL    HW229040   3.056   3.559   5.310
 5900SOL     OW29041   2.179   2.113   5.525
 5900SOL    HW129042   2.250   2.184   5.531
 5900SOL    HW229043   2.091   2.152   5.553
 5901SOL     OW29044   3.328   3.279   4.677
 5901SOL    HW129045   3.269   3.285   4.757
 5901SOL    HW229046   3.313   3.191   4.631
 5902SOL     OW29047   3.529   3.576   4.296
 5902SOL    HW129048   3.488   3.553   4.208
 5902SOL    HW229049   3.511   3.502   4.361
 5903SOL     OW29050   2.460   2.591   3.994
 5903SOL    HW129051   2.484   2.660   3.926
 5903SOL    HW229052   2.382   2.624   4.048
 5904SOL     OW29053   3.143   2.207   4.668
 5904SOL    HW129054   3.057   2.157   4.655
 5904SOL    HW229055   3.205   2.153   4.724
 5905SOL     OW29056   3.438   3.524   4.031
 5905SOL    HW129057   3.527   3.570   4.034
 5905SOL    HW229058   3.417   3.500   3.936
 5906SOL     OW29059   2.669   2.467   5.189
 5906SOL    HW129060   2.622   2.464   5.278
 5906SOL    HW229061   2.618   2.412   5.123
 5907SOL     OW29062   3.256   2.331   5.398
 5907SOL    HW129063   3.236   2.374   5.486
 5907SOL    HW229064   3.334   2.269   5.407
 5908SOL     OW29065   2.835   2.752   5.296
 5908SOL    HW129066   2.881   2.668   5.267
 5908SOL    HW229067   2.779   2.786   5.221
 5909SOL     OW29068   2.853   2.272   4.966
 5909SOL    HW129069   2.776   2.306   5.020
 5909SOL    HW229070   2.819   2.221   4.887
 5910SOL     OW29071   2.903   2.563   4.153
 5910SOL    HW129072   2.929   2.559   4.249
 5910SOL    HW229073   2.818   2.512   4.139
 5911SOL     OW29074   1.938   2.673   4.513
 5911SOL    HW129075   2.037   2.661   4.522
 5911SOL    HW229076   1.914   2.768   4.534
 5912SOL     OW29077   1.992   3.683   5.295
 5912SOL    HW129078   1.982   3.668   5.394
 5912SOL    HW229079   1.906   3.719   5.259
 5913SOL     OW29080   2.727   2.210   3.919
 5913SOL    HW129081   2.786   2.273   3.870
 5913SOL    HW229082   2.746   2.116   3.890
 5914SOL     OW29083   3.581   2.447   5.555
 5914SOL    HW129084   3.555   2.536   5.519
 5914SOL    HW229085   3.579   2.379   5.482
 5915SOL     OW29086   3.224   3.006   4.269
 5915SOL    HW129087   3.307   2.977   4.221
 5915SOL    HW229088   3.175   3.073   4.213
 5916SOL     OW29089   2.412   2.058   4.609
 5916SOL    HW129090   2.407   2.053   4.709
 5916SOL    HW229091   2.414   2.154   4.580
 5917SOL     OW29092   2.870   3.318   4.201
 5917SOL    HW129093   2.824   3.390   4.149
 5917SOL    HW229094   2.866   3.338   4.299
 5918SOL     OW29095   2.213   3.663   4.577
 5918SOL    HW129096   2.263   3.577   4.583
 5918SOL    HW229097   2.278   3.740   4.574
 5919SOL     OW29098   3.657   2.928   4.597
 5919SOL    HW129099   3.595   2.913   4.521
 5919SOL    HW229100   3.605   2.939   4.682
 5920SOL     OW29101   3.089   3.412   5.230
 5920SOL    HW129102   3.095   3.335   5.294
 5920SOL    HW229103   3.037   3.386   5.150
 5921SOL     OW29104   2.183   2.805   3.966
 5921SOL    HW129105   2.265   2.844   3.924
 5921SOL    HW229106   2.156   2.723   3.917
 5922SOL     OW29107   3.320   2.597   4.452
 5922SOL    HW129108   3.315   2.532   4.527
 5922SOL    HW229109   3.400   2.656   4.465
 5923SOL     OW29110   2.323   3.128   5.451
 5923SOL    HW129111   2.273   3.129   5.365
 5923SOL    HW229112   2.260   3.110   5.527
 5924SOL     OW29113   2.973   3.638   3.961
 5924SOL    HW129114   2.913   3.576   4.011
 5924SOL    HW229115   3.004   3.594   3.876
 5925SOL     OW29116   2.064   2.147   5.222
 5925SOL    HW129117   1.984   2.207   5.209
 5925SOL    HW229118   2.054   2.098   5.308
 5926SOL     OW29119   3.494   3.239   3.805
 5926SOL    HW129120   3.462   3.333   3.795
 5926SOL    HW229121   3.418   3.176   3.793
 5927SOL     OW29122   2.326   3.605   4.047
 5927SOL    HW129123   2.359   3.644   4.133
 5927SOL    HW229124   2.402   3.598   3.982
 5928SOL     OW29125   3.262   1.969   4.150
 5928SOL    HW129126   3.238   1.932   4.060
 5928SOL    HW229127   3.361   1.985   4.154
 5929SOL     OW29128   2.111   3.647   4.965
 5929SOL    HW129129   2.168   3.582   5.015
 5929SOL    HW229130   2.095   3.614   4.872
 5930SOL     OW29131   2.802   3.560   4.628
 5930SOL    HW129132   2.882   3.503   4.649
 5930SOL    HW229133   2.753   3.520   4.551
 5931SOL     OW29134   2.244   2.562   4.204
 5931SOL    HW129135   2.289   2.472   4.201
 5931SOL    HW229136   2.150   2.551   4.237
 5932SOL     OW29137   3.409   2.084   5.453
 5932SOL    HW129138   3.404   2.121   5.545
 5932SOL    HW229139   3.337   2.015   5.441
 5933SOL     OW29140   2.476   1.984   3.841
 5933SOL    HW129141   2.574   1.962   3.848
 5933SOL    HW229142   2.445   1.967   3.748
 5934SOL     OW29143   2.643   2.126   5.473
 5934SOL    HW129144   2.710   2.065   5.516
 5934SOL    HW229145   2.570   2.145   5.538
 5935SOL     OW29146   2.750   3.376   4.919
 5935SOL    HW129147   2.727   3.351   4.825
 5935SOL    HW229148   2.811   3.307   4.958
 5936SOL     OW29149   3.213   2.452   5.157
 5936SOL    HW129150   3.241   2.409   5.242
 5936SOL    HW229151   3.238   2.548   5.158
 5937SOL     OW29152   2.665   3.264   4.648
 5937SOL    HW129153   2.755   3.278   4.606
 5937SOL    HW229154   2.594   3.266   4.577
 5938SOL     OW29155   2.784   2.365   4.623
 5938SOL    HW129156   2.759   2.356   4.527
 5938SOL    HW229157   2.832   2.283   4.654
 5939SOL     OW29158   2.401   1.926   4.236
 5939SOL    HW129159   2.320   1.927   4.294
 5939SOL    HW229160   2.404   2.009   4.181
 5940SOL     OW29161   3.296   3.050   3.765
 5940SOL    HW129162   3.328   2.974   3.822
 5940SOL    HW229163   3.204   3.077   3.795
 5941SOL     OW29164   2.159   1.897   3.895
 5941SOL    HW129165   2.208   1.981   3.874
 5941SOL    HW229166   2.221   1.832   3.940
 5942SOL     OW29167   2.797   2.098   4.204
 5942SOL    HW129168   2.749   2.139   4.126
 5942SOL    HW229169   2.896   2.096   4.185
 5943SOL     OW29170   2.938   2.545   5.188
 5943SOL    HW129171   2.858   2.484   5.191
 5943SOL    HW229172   3.019   2.492   5.164
 5944SOL     OW29173   3.089   3.432   4.517
 5944SOL    HW129174   3.110   3.506   4.452
 5944SOL    HW229175   3.157   3.432   4.590
 5945SOL     OW29176   2.321   3.014   4.465
 5945SOL    HW129177   2.250   2.987   4.530
 5945SOL    HW229178   2.295   2.986   4.372
 5946SOL     OW29179   3.133   3.659   4.315
 5946SOL    HW129180   3.177   3.723   4.251
 5946SOL    HW229181   3.083   3.711   4.385
 5947SOL     OW29182   2.894   2.411   3.740
 5947SOL    HW129183   2.853   2.493   3.701
 5947SOL    HW229184   2.958   2.437   3.813
 5948SOL     OW29185   1.940   2.418   5.110
 5948SOL    HW129186   2.032   2.417   5.069
 5948SOL    HW229187   1.934   2.492   5.177
 5949SOL     OW29188   2.423   2.084   4.871
 5949SOL    HW129189   2.461   2.000   4.908
 5949SOL    HW229190   2.335   2.103   4.915
 5950SOL     OW29191   2.728   2.316   4.366
 5950SOL    HW129192   2.696   2.388   4.304
 5950SOL    HW229193   2.752   2.235   4.313
 5951SOL     OW29194   2.879   1.901   4.477
 5951SOL    HW129195   2.807   1.906   4.408
 5951SOL    HW229196   2.855   1.832   4.546
 5952SOL     OW29197   3.291   3.035   4.591
 5952SOL    HW129198   3.236   2.951   4.584
 5952SOL    HW229199   3.317   3.064   4.499
 5953SOL     OW29200   3.328   2.452   4.716
 5953SOL    HW129201   3.298   2.357   4.723
 5953SOL    HW229202   3.401   2.468   4.782
 5954SOL     OW29203   3.719   2.695   4.101
 5954SOL    HW129204   3.761   2.631   4.165
 5954SOL    HW229205   3.681   2.644   4.023
 5955SOL     OW29206   2.350   3.247   3.898
 5955SOL    HW129207   2.263   3.232   3.945
 5955SOL    HW229208   2.333   3.273   3.803
 5956SOL     OW29209   3.526   3.142   4.381
 5956SOL    HW129210   3.625   3.150   4.395
 5956SOL    HW229211   3.481   3.226   4.412
 5957SOL     OW29212   3.252   2.437   3.802
 5957SOL    HW129213   3.198   2.416   3.883
 5957SOL    HW229214   3.343   2.396   3.811
 5958SOL     OW29215   2.389   2.118   4.052
 5958SOL    HW129216   2.416   2.059   3.977
 5958SOL    HW229217   2.389   2.213   4.021
 5959SOL     OW29218   3.616   3.085   5.312
 5959SOL    HW129219   3.707   3.046   5.299
 5959SOL    HW229220   3.624   3.181   5.336
 5960SOL     OW29221   2.926   3.209   5.064
 5960SOL    HW129222   2.846   3.186   5.119
 5960SOL    HW229223   3.009   3.183   5.113
 5961SOL     OW29224   3.454   3.491   5.349
 5961SOL    HW129225   3.481   3.525   5.259
 5961SOL    HW229226   3.533   3.453   5.395
 5962SOL     OW29227   2.973   3.057   4.824
 5962SOL    HW129228   2.933   3.101   4.905
 5962SOL    HW229229   2.932   3.094   4.741
 5963SOL     OW29230   3.500   2.961   4.803
 5963SOL    HW129231   3.505   3.042   4.862
 5963SOL    HW229232   3.414   2.963   4.752
 5964SOL     OW29233   2.777   1.951   5.126
 5964SOL    HW129234   2.802   1.931   5.031
 5964SOL    HW229235   2.849   2.007   5.168
 5965SOL     OW29236   2.842   2.978   5.443
 5965SOL    HW129237   2.743   2.984   5.453
 5965SOL    HW229238   2.865   2.898   5.387
 5966SOL     OW29239   2.567   2.912   4.092
 5966SOL    HW129240   2.553   2.919   4.191
 5966SOL    HW229241   2.651   2.861   4.074
 5967SOL     OW29242   2.272   2.675   4.975
 5967SOL    HW129243   2.358   2.687   5.025
 5967SOL    HW229244   2.230   2.588   5.002
 5968SOL     OW29245   3.136   2.248   4.986
 5968SOL    HW129246   3.157   2.322   5.050
 5968SOL    HW229247   3.047   2.265   4.943
 5969SOL     OW29248   1.926   3.426   5.055
 5969SOL    HW129249   1.880   3.508   5.021
 5969SOL    HW229250   2.024   3.445   5.064
 5970SOL     OW29251   2.229   2.962   4.225
 5970SOL    HW129252   2.222   3.045   4.169
 5970SOL    HW229253   2.233   2.882   4.165
 5971SOL     OW29254   2.428   2.399   4.589
 5971SOL    HW129255   2.440   2.465   4.515
 5971SOL    HW229256   2.474   2.433   4.672
 5972SOL     OW29257   3.114   3.210   4.112
 5972SOL    HW129258   3.164   3.287   4.152
 5972SOL    HW229259   3.019   3.212   4.144
 5973SOL     OW29260   3.134   3.307   4.866
 5973SOL    HW129261   3.181   3.320   4.953
 5973SOL    HW229262   3.068   3.233   4.875
 5974SOL     OW29263   3.444   2.501   4.196
 5974SOL    HW129264   3.413   2.562   4.269
 5974SOL    HW229265   3.494   2.553   4.127
 5975SOL     OW29266   2.216   3.372   5.053
 5975SOL    HW129267   2.195   3.328   4.966
 5975SOL    HW229268   2.313   3.398   5.056
 5976SOL     OW29269   2.264   2.613   5.322
 5976SOL    HW129270   2.332   2.668   5.275
 5976SOL    HW229271   2.304   2.525   5.349
 5977SOL     OW29272   3.449   2.641   5.394
 5977SOL    HW129273   3.357   2.679   5.389
 5977SOL    HW229274   3.509   2.688   5.329
 5978SOL     OW29275   2.875   1.967   5.494
 5978SOL    HW129276   2.881   2.052   5.442
 5978SOL    HW229277   2.907   1.891   5.437
 5979SOL     OW29278   2.366   1.912   5.464
 5979SOL    HW129279   2.324   1.855   5.394
 5979SOL    HW229280   2.300   1.981   5.496
 5980SOL     OW29281   2.435   2.732   4.753
 5980SOL    HW129282   2.479   2.821   4.744
 5980SOL    HW229283   2.372   2.732   4.830
 5981SOL     OW29284   3.222   2.724   4.769
 5981SOL    HW129285   3.147   2.724   4.703
 5981SOL    HW229286   3.259   2.632   4.778
 5982SOL     OW29287   3.071   2.387   3.999
 5982SOL    HW129288   3.084   2.303   4.053
 5982SOL    HW229289   3.042   2.461   4.059
 5983SOL     OW29290   2.169   2.075   4.955
 5983SOL    HW129291   2.146   2.112   5.045
 5983SOL    HW229292   2.139   1.980   4.949
 5984SOL     OW29293   1.899   3.172   5.006
 5984SOL    HW129294   1.952   3.123   5.074
 5984SOL    HW229295   1.921   3.270   5.011
 5985SOL     OW29296   2.594   2.496   4.788
 5985SOL    HW129297   2.653   2.470   4.712
 5985SOL    HW229298   2.566   2.592   4.777
 5986SOL     OW29299   3.590   2.797   5.578
 5986SOL    HW129300   3.544   2.790   5.489
 5986SOL    HW229301   3.528   2.841   5.644
 5987SOL     OW29302   2.169   1.925   4.342
 5987SOL    HW129303   2.158   2.019   4.375
 5987SOL    HW229304   2.164   1.862   4.419
 5988SOL     OW29305   3.484   2.229   4.098
 5988SOL    HW129306   3.486   2.153   4.162
 5988SOL    HW229307   3.436   2.306   4.138
 5989SOL     OW29308   2.885   2.628   4.690
 5989SOL    HW129309   2.900   2.649   4.786
 5989SOL    HW229310   2.855   2.533   4.681
 5990SOL     OW29311   2.842   3.435   5.424
 5990SOL    HW129312   2.822   3.479   5.336
 5990SOL    HW229313   2.881   3.344   5.408
 5991SOL     OW29314   3.721   3.380   5.329
 5991SOL    HW129315   3.735   3.407   5.234
 5991SOL    HW229316   3.804   3.402   5.382
 5992SOL     OW29317   2.212   2.760   5.528
 5992SOL    HW129318   2.288   2.804   5.576
 5992SOL    HW229319   2.247   2.713   5.446
 5993SOL     OW29320   3.402   2.136   3.849
 5993SOL    HW129321   3.341   2.061   3.872
 5993SOL    HW229322   3.424   2.188   3.932
 5994SOL     OW29323   3.165   2.700   3.766
 5994SOL    HW129324   3.199   2.607   3.781
 5994SOL    HW229325   3.183   2.727   3.671
 5995SOL     OW29326   2.930   3.195   4.573
 5995SOL    HW129327   2.937   3.111   4.518
 5995SOL    HW229328   2.992   3.264   4.537
 5996SOL     OW29329   2.181   2.672   4.673
 5996SOL    HW129330   2.274   2.708   4.678
 5996SOL    HW229331   2.175   2.587   4.725
 5997SOL     OW29332   2.201   2.371   4.730
 5997SOL    HW129333   2.149   2.288   4.713
 5997SOL    HW229334   2.278   2.376   4.666
 5998SOL     OW29335   3.000   2.242   5.402
 5998SOL    HW129336   2.955   2.305   5.466
 5998SOL    HW229337   3.093   2.273   5.385
 5999SOL     OW29338   3.022   2.069   5.201
 5999SOL    HW129339   3.022   2.133   5.278
 5999SOL    HW229340   3.050   2.117   5.118
 6000SOL     OW29341   1.870   3.188   3.924
 6000SOL    HW129342   1.777   3.209   3.893
 6000SOL    HW229343   1.880   3.089   3.937
 6001SOL     OW29344   1.950   3.663   4.651
 6001SOL    HW129345   1.908   3.577   4.624
 6001SOL    HW229346   2.044   3.666   4.617
 6002SOL     OW29347   2.366   3.430   4.634
 6002SOL    HW129348   2.432   3.504   4.643
 6002SOL    HW229349   2.410   3.351   4.592
 6003SOL     OW29350   2.864   2.658   4.962
 6003SOL    HW129351   2.905   2.626   5.048
 6003SOL    HW229352   2.768   2.631   4.959
 6004SOL     OW29353   1.902   2.406   4.838
 6004SOL    HW129354   1.987   2.373   4.797
 6004SOL    HW229355   1.915   2.421   4.936
 6005SOL     OW29356   2.051   2.382   5.446
 6005SOL    HW129357   2.110   2.342   5.376
 6005SOL    HW229358   1.993   2.453   5.405
 6006SOL     OW29359   3.231   2.812   5.384
 6006SOL    HW129360   3.270   2.901   5.404
 6006SOL    HW229361   3.241   2.792   5.287
 6007SOL     OW29362   2.677   2.434   4.049
 6007SOL    HW129363   2.684   2.345   4.003
 6007SOL    HW229364   2.583   2.468   4.041
 6008SOL     OW29365   3.519   2.466   4.930
 6008SOL    HW129366   3.481   2.397   4.992
 6008SOL    HW229367   3.601   2.430   4.886
 6009SOL     OW29368   2.114   3.426   5.468
 6009SOL    HW129369   2.084   3.483   5.544
 6009SOL    HW229370   2.107   3.329   5.494
 6010SOL     OW29371   2.533   2.326   4.993
 6010SOL    HW129372   2.499   2.237   4.963
 6010SOL    HW229373   2.559   2.380   4.913
 6011SOL     OW29374   2.792   3.540   5.189
 6011SOL    HW129375   2.768   3.522   5.094
 6011SOL    HW229376   2.822   3.634   5.199
 6012SOL     OW29377   2.335   2.362   3.915
 6012SOL    HW129378   2.396   2.442   3.919
 6012SOL    HW229379   2.240   2.393   3.922
 6013SOL     OW29380   2.021   2.999   5.190
 6013SOL    HW129381   2.043   2.938   5.266
 6013SOL    HW229382   2.031   2.950   5.104
 6014SOL     OW29383   3.209   2.921   4.958
 6014SOL    HW129384   3.233   2.858   4.884
 6014SOL    HW229385   3.119   2.961   4.940
 6015SOL     OW29386   3.164   2.717   4.033
 6015SOL    HW129387   3.078   2.686   4.075
 6015SOL    HW229388   3.160   2.703   3.934
 6016SOL     OW29389   3.621   3.609   4.878
 6016SOL    HW129390   3.682   3.639   4.805
 6016SOL    HW229391   3.583   3.520   4.856
 6017SOL     OW29392   3.114   3.593   4.852
 6017SOL    HW129393   3.198   3.598   4.798
 6017SOL    HW229394   3.091   3.497   4.870
 6018SOL     OW29395   1.945   3.120   4.746
 6018SOL    HW129396   1.940   3.119   4.846
 6018SOL    HW229397   1.862   3.079   4.708
 6019SOL     OW29398   2.550   3.524   5.440
 6019SOL    HW129399   2.494   3.605   5.449
 6019SOL    HW229400   2.602   3.528   5.354
 6020SOL     OW29401   3.588   1.997   4.247
 6020SOL    HW129402   3.661   1.980   4.180
 6020SOL    HW229403   3.557   1.910   4.285
 6021SOL     OW29404   3.250   3.435   4.201
 6021SOL    HW129405   3.317   3.447   4.127
 6021SOL    HW229406   3.210   3.524   4.224
 6022SOL     OW29407   1.992   3.656   5.575
 6022SOL    HW129408   1.951   3.582   5.628
 6022SOL    HW229409   2.056   3.707   5.633
 6023SOL     OW29410   3.142   2.789   4.396
 6023SOL    HW129411   3.202   2.708   4.398
 6023SOL    HW229412   3.182   2.858   4.336
 6024SOL     OW29413   2.692   3.135   5.146
 6024SOL    HW129414   2.687   3.168   5.241
 6024SOL    HW229415   2.606   3.154   5.100
 6025SOL     OW29416   2.534   3.478   3.878
 6025SOL    HW129417   2.543   3.488   3.779
 6025SOL    HW229418   2.494   3.389   3.899
 6026SOL     OW29419   3.512   3.582   5.118
 6026SOL    HW129420   3.565   3.592   5.034
 6026SOL    HW229421   3.485   3.672   5.152
 6027SOL     OW29422   3.703   2.037   4.687
 6027SOL    HW129423   3.742   1.952   4.651
 6027SOL    HW229424   3.605   2.039   4.668
 6028SOL     OW29425   2.125   2.188   4.444
 6028SOL    HW129426   2.046   2.239   4.410
 6028SOL    HW229427   2.116   2.173   4.542
 6029SOL     OW29428   3.056   3.474   3.755
 6029SOL    HW129429   3.062   3.381   3.792
 6029SOL    HW229430   2.997   3.474   3.675
 6030SOL     OW29431   2.684   2.864   5.096
 6030SOL    HW129432   2.724   2.863   5.004
 6030SOL    HW229433   2.694   2.956   5.136
 6031SOL     OW29434   2.778   2.772   4.015
 6031SOL    HW129435   2.841   2.810   3.947
 6031SOL    HW229436   2.818   2.689   4.054
 6032SOL     OW29437   3.366   3.469   3.768
 6032SOL    HW129438   3.274   3.506   3.775
 6032SOL    HW229439   3.404   3.489   3.678
 6033SOL     OW29440   2.234   3.150   5.214
 6033SOL    HW129441   2.221   3.243   5.180
 6033SOL    HW229442   2.150   3.098   5.201
 6034SOL     OW29443   3.476   3.154   5.013
 6034SOL    HW129444   3.536   3.157   5.093
 6034SOL    HW229445   3.401   3.218   5.026
 6035SOL     OW29446   2.901   2.960   4.420
 6035SOL    HW129447   2.831   2.913   4.474
 6035SOL    HW229448   2.960   2.892   4.377
 6036SOL     OW29449   2.876   2.098   4.695
 6036SOL    HW129450   2.868   2.062   4.602
 6036SOL    HW229451   2.874   2.022   4.760
 6037SOL     OW29452   2.452   3.349   4.215
 6037SOL    HW129453   2.494   3.291   4.145
 6037SOL    HW229454   2.408   3.428   4.171
 6038SOL     OW29455   3.571   2.247   5.105
 6038SOL    HW129456   3.644   2.316   5.109
 6038SOL    HW229457   3.599   2.172   5.046
 6039SOL     OW29458   2.117   3.210   4.014
 6039SOL    HW129459   2.021   3.211   3.987
 6039SOL    HW229460   2.129   3.263   4.098
 6040SOL     OW29461   1.967   2.875   5.450
 6040SOL    HW129462   1.890   2.842   5.504
 6040SOL    HW229463   2.052   2.845   5.492
 6041SOL     OW29464   2.534   2.065   5.213
 6041SOL    HW129465   2.624   2.049   5.173
 6041SOL    HW229466   2.542   2.070   5.312
 6042SOL     OW29467   1.937   2.207   3.757
 6042SOL    HW129468   1.845   2.179   3.728
 6042SOL    HW229469   1.968   2.284   3.701
 6043SOL     OW29470   3.302   2.718   5.122
 6043SOL    HW129471   3.245   2.770   5.059
 6043SOL    HW229472   3.398   2.730   5.098
 6044SOL     OW29473   1.934   2.028   4.042
 6044SOL    HW129474   1.917   2.111   3.988
 6044SOL    HW229475   2.024   1.991   4.020
 6045SOL     OW29476   3.045   3.197   3.843
 6045SOL    HW129477   2.946   3.186   3.845
 6045SOL    HW229478   3.079   3.212   3.936
 6046SOL     OW29479   2.475   2.704   5.155
 6046SOL    HW129480   2.531   2.785   5.138
 6046SOL    HW229481   2.534   2.624   5.158
 6047SOL     OW29482   3.355   3.629   4.683
 6047SOL    HW129483   3.388   3.693   4.614
 6047SOL    HW229484   3.421   3.623   4.758
 6048SOL     OW29485   2.578   2.427   5.432
 6048SOL    HW129486   2.597   2.492   5.506
 6048SOL    HW229487   2.638   2.347   5.441
 6049SOL     OW29488   3.312   3.082   5.357
 6049SOL    HW129489   3.303   3.072   5.456
 6049SOL    HW229490   3.408   3.075   5.331
 6050SOL     OW29491   2.252   3.603   5.284
 6050SOL    HW129492   2.161   3.644   5.282
 6050SOL    HW229493   2.245   3.509   5.316
 6051SOL     OW29494   3.536   2.745   4.978
 6051SOL    HW129495   3.509   2.656   4.941
 6051SOL    HW229496   3.537   2.813   4.905
 6052SOL     OW29497   3.087   2.187   4.173
 6052SOL    HW129498   3.152   2.113   4.162
 6052SOL    HW229499   3.107   2.237   4.257
 6053SOL     OW29500   2.456   2.607   4.376
 6053SOL    HW129501   2.506   2.692   4.357
 6053SOL    HW229502   2.368   2.609   4.328
 6054SOL     OW29503   3.639   2.204   5.366
 6054SOL    HW129504   3.622   2.235   5.272
 6054SOL    HW229505   3.555   2.167   5.404
 6055SOL     OW29506   3.592   2.796   5.241
 6055SOL    HW129507   3.630   2.887   5.256
 6055SOL    HW229508   3.584   2.779   5.142
 6056SOL     OW29509   2.721   3.236   3.740
 6056SOL    HW129510   2.675   3.251   3.828
 6056SOL    HW229511   2.765   3.321   3.710
 6057SOL     OW29512   2.523   3.652   4.677
 6057SOL    HW129513   2.477   3.740   4.664
 6057SOL    HW229514   2.622   3.664   4.670
 6058SOL     OW29515   2.721   2.818   4.585
 6058SOL    HW129516   2.775   2.749   4.633
 6058SOL    HW229517   2.689   2.887   4.651
 6059SOL     OW29518   2.945   2.846   3.811
 6059SOL    HW129519   2.922   2.899   3.729
 6059SOL    HW229520   3.026   2.790   3.792
 6060SOL     OW29521   3.723   3.431   4.575
 6060SOL    HW129522   3.652   3.419   4.505
 6060SOL    HW229523   3.724   3.352   4.635
 6061SOL     OW29524   2.083   3.176   5.568
 6061SOL    HW129525   2.018   3.103   5.547
 6061SOL    HW229526   2.087   3.190   5.666
 6062SOL     OW29527   1.941   3.102   4.377
 6062SOL    HW129528   1.940   3.055   4.465
 6062SOL    HW229529   2.023   3.074   4.326
 6063SOL     OW29530   2.534   3.253   5.348
 6063SOL    HW129531   2.456   3.203   5.386
 6063SOL    HW229532   2.531   3.348   5.379
 6064SOL     OW29533   3.686   2.054   4.951
 6064SOL    HW129534   3.682   1.964   4.995
 6064SOL    HW229535   3.689   2.043   4.852
 6065SOL     OW29536   2.290   2.286   4.244
 6065SOL    HW129537   2.320   2.214   4.182
 6065SOL    HW229538   2.251   2.246   4.327
 6066SOL     OW29539   3.567   3.349   4.828
 6066SOL    HW129540   3.474   3.324   4.801
 6066SOL    HW229541   3.593   3.299   4.910
 6067SOL     OW29542   2.179   2.409   5.004
 6067SOL    HW129543   2.217   2.350   5.076
 6067SOL    HW229544   2.219   2.383   4.916
 6068SOL     OW29545   2.674   3.448   4.411
 6068SOL    HW129546   2.706   3.458   4.317
 6068SOL    HW229547   2.595   3.386   4.413
 6069SOL     OW29548   3.286   2.076   4.836
 6069SOL    HW129549   3.338   2.011   4.891
 6069SOL    HW229550   3.237   2.139   4.897
 6070SOL     OW29551   2.863   1.896   4.878
 6070SOL    HW129552   2.800   1.824   4.847
 6070SOL    HW229553   2.956   1.860   4.878
 6071SOL     OW29554   2.632   3.192   4.025
 6071SOL    HW129555   2.586   3.105   4.042
 6071SOL    HW229556   2.723   3.189   4.066
 6072SOL     OW29557   2.480   3.429   5.008
 6072SOL    HW129558   2.475   3.511   5.065
 6072SOL    HW229559   2.569   3.426   4.963
 6073SOL     OW29560   3.214   1.914   3.892
 6073SOL    HW129561   3.249   1.873   3.808
 6073SOL    HW229562   3.124   1.876   3.912
 6074SOL     OW29563   3.162   2.315   4.415
 6074SOL    HW129564   3.103   2.395   4.419
 6074SOL    HW229565   3.177   2.280   4.508
 6075SOL     OW29566   3.455   2.083   4.606
 6075SOL    HW129567   3.371   2.082   4.660
 6075SOL    HW229568   3.457   2.166   4.550
 6076SOL     OW29569   1.901   2.939   4.024
 6076SOL    HW129570   2.000   2.928   4.015
 6076SOL    HW229571   1.861   2.853   4.056
 6077SOL     OW29572   2.737   3.508   4.061
 6077SOL    HW129573   2.660   3.473   4.007
 6077SOL    HW229574   2.705   3.579   4.123
 6078SOL     OW29575   2.092   2.490   5.699
 6078SOL    HW129576   1.999   2.488   5.736
 6078SOL    HW229577   2.093   2.451   5.607
 6079SOL     OW29578   2.087   2.137   6.582
 6079SOL    HW129579   2.122   2.120   6.674
 6079SOL    HW229580   1.999   2.092   6.570
 6080SOL     OW29581   1.881   2.230   6.233
 6080SOL    HW129582   1.799   2.273   6.272
 6080SOL    HW229583   1.853   2.157   6.170
 6081SOL     OW29584   2.431   3.137   6.751
 6081SOL    HW129585   2.338   3.130   6.714
 6081SOL    HW229586   2.442   3.226   6.795
 6082SOL     OW29587   3.417   3.373   6.289
 6082SOL    HW129588   3.360   3.357   6.370
 6082SOL    HW229589   3.358   3.383   6.209
 6083SOL     OW29590   2.997   2.565   6.303
 6083SOL    HW129591   3.054   2.643   6.278
 6083SOL    HW229592   2.937   2.591   6.379
 6084SOL     OW29593   3.617   2.469   5.817
 6084SOL    HW129594   3.605   2.456   5.718
 6084SOL    HW229595   3.587   2.388   5.866
 6085SOL     OW29596   2.630   3.006   6.609
 6085SOL    HW129597   2.552   3.023   6.669
 6085SOL    HW229598   2.664   3.093   6.573
 6086SOL     OW29599   2.712   2.660   7.409
 6086SOL    HW129600   2.708   2.736   7.474
 6086SOL    HW229601   2.734   2.696   7.318
 6087SOL     OW29602   2.547   2.874   6.251
 6087SOL    HW129603   2.616   2.858   6.321
 6087SOL    HW229604   2.474   2.931   6.289
 6088SOL     OW29605   2.548   3.023   7.389
 6088SOL    HW129606   2.608   3.102   7.403
 6088SOL    HW229607   2.462   3.054   7.348
 6089SOL     OW29608   2.197   3.297   6.647
 6089SOL    HW129609   2.119   3.266   6.594
 6089SOL    HW229610   2.255   3.355   6.590
 6090SOL     OW29611   3.322   3.367   6.925
 6090SOL    HW129612   3.346   3.461   6.951
 6090SOL    HW229613   3.306   3.313   7.007
 6091SOL     OW29614   2.300   2.254   7.085
 6091SOL    HW129615   2.382   2.198   7.094
 6091SOL    HW229616   2.219   2.196   7.089
 6092SOL     OW29617   3.465   2.309   6.323
 6092SOL    HW129618   3.391   2.355   6.273
 6092SOL    HW229619   3.516   2.377   6.376
 6093SOL     OW29620   2.093   3.575   6.069
 6093SOL    HW129621   2.127   3.652   6.123
 6093SOL    HW229622   2.137   3.575   5.979
 6094SOL     OW29623   2.989   3.203   7.276
 6094SOL    HW129624   3.036   3.203   7.364
 6094SOL    HW229625   2.941   3.116   7.265
 6095SOL     OW29626   2.092   3.296   6.124
 6095SOL    HW129627   2.066   3.392   6.124
 6095SOL    HW229628   2.021   3.242   6.169
 6096SOL     OW29629   2.102   2.953   6.472
 6096SOL    HW129630   2.116   2.869   6.524
 6096SOL    HW229631   2.047   3.017   6.527
 6097SOL     OW29632   2.482   3.648   7.025
 6097SOL    HW129633   2.390   3.631   7.060
 6097SOL    HW229634   2.510   3.740   7.051
 6098SOL     OW29635   2.468   2.826   5.709
 6098SOL    HW129636   2.475   2.910   5.655
 6098SOL    HW229637   2.514   2.839   5.797
 6099SOL     OW29638   3.456   1.976   7.066
 6099SOL    HW129639   3.438   2.043   6.994
 6099SOL    HW229640   3.453   2.022   7.155
 6100SOL     OW29641   1.984   2.505   6.149
 6100SOL    HW129642   1.939   2.417   6.166
 6100SOL    HW229643   1.983   2.559   6.233
 6101SOL     OW29644   3.704   3.629   5.945
 6101SOL    HW129645   3.758   3.600   6.025
 6101SOL    HW229646   3.734   3.719   5.916
 6102SOL     OW29647   1.889   3.458   5.703
 6102SOL    HW129648   1.870   3.362   5.724
 6102SOL    HW229649   1.856   3.516   5.778
 6103SOL     OW29650   3.551   2.784   6.198
 6103SOL    HW129651   3.646   2.755   6.206
 6103SOL    HW229652   3.543   2.849   6.123
 6104SOL     OW29653   3.503   2.970   6.018
 6104SOL    HW129654   3.589   2.972   5.966
 6104SOL    HW229655   3.517   3.017   6.106
 6105SOL     OW29656   1.975   2.599   7.183
 6105SOL    HW129657   2.063   2.586   7.228
 6105SOL    HW229658   1.962   2.696   7.161
 6106SOL     OW29659   2.475   3.227   6.312
 6106SOL    HW129660   2.426   3.140   6.321
 6106SOL    HW229661   2.452   3.270   6.225
 6107SOL     OW29662   3.155   3.090   7.009
 6107SOL    HW129663   3.192   3.017   6.951
 6107SOL    HW229664   3.207   3.095   7.094
 6108SOL     OW29665   2.671   1.866   6.088
 6108SOL    HW129666   2.711   1.957   6.079
 6108SOL    HW229667   2.571   1.874   6.094
 6109SOL     OW29668   2.059   2.838   6.850
 6109SOL    HW129669   2.148   2.793   6.836
 6109SOL    HW229670   1.986   2.773   6.831
 6110SOL     OW29671   3.387   2.861   5.776
 6110SOL    HW129672   3.324   2.785   5.789
 6110SOL    HW229673   3.435   2.879   5.862
 6111SOL     OW29674   3.049   3.654   7.202
 6111SOL    HW129675   3.073   3.714   7.126
 6111SOL    HW229676   3.056   3.559   7.172
 6112SOL     OW29677   2.179   2.113   7.387
 6112SOL    HW129678   2.250   2.184   7.393
 6112SOL    HW229679   2.091   2.152   7.415
 6113SOL     OW29680   3.328   3.279   6.539
 6113SOL    HW129681   3.269   3.285   6.619
 6113SOL    HW229682   3.313   3.191   6.493
 6114SOL     OW29683   3.529   3.576   6.158
 6114SOL    HW129684   3.488   3.553   6.070
 6114SOL    HW229685   3.511   3.502   6.223
 6115SOL     OW29686   2.460   2.591   5.856
 6115SOL    HW129687   2.484   2.660   5.788
 6115SOL    HW229688   2.382   2.624   5.910
 6116SOL     OW29689   3.143   2.207   6.530
 6116SOL    HW129690   3.057   2.157   6.517
 6116SOL    HW229691   3.205   2.153   6.586
 6117SOL     OW29692   3.438   3.524   5.893
 6117SOL    HW129693   3.527   3.570   5.896
 6117SOL    HW229694   3.417   3.500   5.798
 6118SOL     OW29695   2.669   2.467   7.051
 6118SOL    HW129696   2.622   2.464   7.140
 6118SOL    HW229697   2.618   2.412   6.985
 6119SOL     OW29698   3.256   2.331   7.260
 6119SOL    HW129699   3.236   2.374   7.348
 6119SOL    HW229700   3.334   2.269   7.269
 6120SOL     OW29701   2.835   2.752   7.158
 6120SOL    HW129702   2.881   2.668   7.129
 6120SOL    HW229703   2.779   2.786   7.083
 6121SOL     OW29704   2.853   2.272   6.828
 6121SOL    HW129705   2.776   2.306   6.882
 6121SOL    HW229706   2.819   2.221   6.749
 6122SOL     OW29707   2.903   2.563   6.015
 6122SOL    HW129708   2.929   2.559   6.111
 6122SOL    HW229709   2.818   2.512   6.001
 6123SOL     OW29710   1.938   2.673   6.375
 6123SOL    HW129711   2.037   2.661   6.384
 6123SOL    HW229712   1.914   2.768   6.396
 6124SOL     OW29713   1.992   3.683   7.157
 6124SOL    HW129714   1.982   3.668   7.256
 6124SOL    HW229715   1.906   3.719   7.121
 6125SOL     OW29716   2.727   2.210   5.781
 6125SOL    HW129717   2.786   2.273   5.732
 6125SOL    HW229718   2.746   2.116   5.752
 6126SOL     OW29719   3.581   2.447   7.417
 6126SOL    HW129720   3.555   2.536   7.381
 6126SOL    HW229721   3.579   2.379   7.344
 6127SOL     OW29722   3.224   3.006   6.131
 6127SOL    HW129723   3.307   2.977   6.083
 6127SOL    HW229724   3.175   3.073   6.075
 6128SOL     OW29725   2.412   2.058   6.471
 6128SOL    HW129726   2.407   2.053   6.571
 6128SOL    HW229727   2.414   2.154   6.442
 6129SOL     OW29728   2.870   3.318   6.063
 6129SOL    HW129729   2.824   3.390   6.011
 6129SOL    HW229730   2.866   3.338   6.161
 6130SOL     OW29731   2.213   3.663   6.439
 6130SOL    HW129732   2.263   3.577   6.445
 6130SOL    HW229733   2.278   3.740   6.436
 6131SOL     OW29734   3.657   2.928   6.459
 6131SOL    HW129735   3.595   2.913   6.383
 6131SOL    HW229736   3.605   2.939   6.544
 6132SOL     OW29737   3.089   3.412   7.092
 6132SOL    HW129738   3.095   3.335   7.156
 6132SOL    HW229739   3.037   3.386   7.012
 6133SOL     OW29740   2.183   2.805   5.828
 6133SOL    HW129741   2.265   2.844   5.786
 6133SOL    HW229742   2.156   2.723   5.779
 6134SOL     OW29743   3.320   2.597   6.314
 6134SOL    HW129744   3.315   2.532   6.389
 6134SOL    HW229745   3.400   2.656   6.327
 6135SOL     OW29746   2.323   3.128   7.313
 6135SOL    HW129747   2.273   3.129   7.227
 6135SOL    HW229748   2.260   3.110   7.389
 6136SOL     OW29749   2.973   3.638   5.823
 6136SOL    HW129750   2.913   3.576   5.873
 6136SOL    HW229751   3.004   3.594   5.738
 6137SOL     OW29752   2.064   2.147   7.084
 6137SOL    HW129753   1.984   2.207   7.071
 6137SOL    HW229754   2.054   2.098   7.170
 6138SOL     OW29755   3.494   3.239   5.667
 6138SOL    HW129756   3.462   3.333   5.657
 6138SOL    HW229757   3.418   3.176   5.655
 6139SOL     OW29758   2.326   3.605   5.909
 6139SOL    HW129759   2.359   3.644   5.995
 6139SOL    HW229760   2.402   3.598   5.844
 6140SOL     OW29761   3.262   1.969   6.012
 6140SOL    HW129762   3.238   1.932   5.922
 6140SOL    HW229763   3.361   1.985   6.016
 6141SOL     OW29764   2.111   3.647   6.827
 6141SOL    HW129765   2.168   3.582   6.877
 6141SOL    HW229766   2.095   3.614   6.734
 6142SOL     OW29767   2.802   3.560   6.490
 6142SOL    HW129768   2.882   3.503   6.511
 6142SOL    HW229769   2.753   3.520   6.413
 6143SOL     OW29770   2.244   2.562   6.066
 6143SOL    HW129771   2.289   2.472   6.063
 6143SOL    HW229772   2.150   2.551   6.099
 6144SOL     OW29773   3.409   2.084   7.315
 6144SOL    HW129774   3.404   2.121   7.407
 6144SOL    HW229775   3.337   2.015   7.303
 6145SOL     OW29776   2.476   1.984   5.703
 6145SOL    HW129777   2.574   1.962   5.710
 6145SOL    HW229778   2.445   1.967   5.610
 6146SOL     OW29779   2.643   2.126   7.335
 6146SOL    HW129780   2.710   2.065   7.378
 6146SOL    HW229781   2.570   2.145   7.400
 6147SOL     OW29782   2.750   3.376   6.781
 6147SOL    HW129783   2.727   3.351   6.687
 6147SOL    HW229784   2.811   3.307   6.820
 6148SOL     OW29785   3.213   2.452   7.019
 6148SOL    HW129786   3.241   2.409   7.104
 6148SOL    HW229787   3.238   2.548   7.020
 6149SOL     OW29788   2.665   3.264   6.510
 6149SOL    HW129789   2.755   3.278   6.468
 6149SOL    HW229790   2.594   3.266   6.439
 6150SOL     OW29791   2.784   2.365   6.485
 6150SOL    HW129792   2.759   2.356   6.389
 6150SOL    HW229793   2.832   2.283   6.516
 6151SOL     OW29794   2.401   1.926   6.098
 6151SOL    HW129795   2.320   1.927   6.156
 6151SOL    HW229796   2.404   2.009   6.043
 6152SOL     OW29797   3.296   3.050   5.627
 6152SOL    HW129798   3.328   2.974   5.684
 6152SOL    HW229799   3.204   3.077   5.657
 6153SOL     OW29800   2.159   1.897   5.757
 6153SOL    HW129801   2.208   1.981   5.736
 6153SOL    HW229802   2.221   1.832   5.802
 6154SOL     OW29803   2.797   2.098   6.066
 6154SOL    HW129804   2.749   2.139   5.988
 6154SOL    HW229805   2.896   2.096   6.047
 6155SOL     OW29806   2.938   2.545   7.050
 6155SOL    HW129807   2.858   2.484   7.053
 6155SOL    HW229808   3.019   2.492   7.026
 6156SOL     OW29809   3.089   3.432   6.379
 6156SOL    HW129810   3.110   3.506   6.314
 6156SOL    HW229811   3.157   3.432   6.452
 6157SOL     OW29812   2.321   3.014   6.327
 6157SOL    HW129813   2.250   2.987   6.392
 6157SOL    HW229814   2.295   2.986   6.234
 6158SOL     OW29815   3.133   3.659   6.177
 6158SOL    HW129816   3.177   3.723   6.113
 6158SOL    HW229817   3.083   3.711   6.247
 6159SOL     OW29818   2.894   2.411   5.602
 6159SOL    HW129819   2.853   2.493   5.563
 6159SOL    HW229820   2.958   2.437   5.675
 6160SOL     OW29821   1.940   2.418   6.972
 6160SOL    HW129822   2.032   2.417   6.931
 6160SOL    HW229823   1.934   2.492   7.039
 6161SOL     OW29824   2.423   2.084   6.733
 6161SOL    HW129825   2.461   2.000   6.770
 6161SOL    HW229826   2.335   2.103   6.777
 6162SOL     OW29827   2.728   2.316   6.228
 6162SOL    HW129828   2.696   2.388   6.166
 6162SOL    HW229829   2.752   2.235   6.175
 6163SOL     OW29830   2.879   1.901   6.339
 6163SOL    HW129831   2.807   1.906   6.270
 6163SOL    HW229832   2.855   1.832   6.408
 6164SOL     OW29833   3.291   3.035   6.453
 6164SOL    HW129834   3.236   2.951   6.446
 6164SOL    HW229835   3.317   3.064   6.361
 6165SOL     OW29836   3.328   2.452   6.578
 6165SOL    HW129837   3.298   2.357   6.585
 6165SOL    HW229838   3.401   2.468   6.644
 6166SOL     OW29839   3.719   2.695   5.963
 6166SOL    HW129840   3.761   2.631   6.027
 6166SOL    HW229841   3.681   2.644   5.885
 6167SOL     OW29842   3.526   3.142   6.243
 6167SOL    HW129843   3.625   3.150   6.257
 6167SOL    HW229844   3.481   3.226   6.274
 6168SOL     OW29845   3.252   2.437   5.664
 6168SOL    HW129846   3.198   2.416   5.745
 6168SOL    HW229847   3.343   2.396   5.673
 6169SOL     OW29848   2.389   2.118   5.914
 6169SOL    HW129849   2.416   2.059   5.839
 6169SOL    HW229850   2.389   2.213   5.883
 6170SOL     OW29851   3.616   3.085   7.174
 6170SOL    HW129852   3.707   3.046   7.161
 6170SOL    HW229853   3.624   3.181   7.198
 6171SOL     OW29854   2.926   3.209   6.926
 6171SOL    HW129855   2.846   3.186   6.981
 6171SOL    HW229856   3.009   3.183   6.975
 6172SOL     OW29857   3.454   3.491   7.211
 6172SOL    HW129858   3.481   3.525   7.121
 6172SOL    HW229859   3.533   3.453   7.257
 6173SOL     OW29860   2.973   3.057   6.686
 6173SOL    HW129861   2.933   3.101   6.767
 6173SOL    HW229862   2.932   3.094   6.603
 6174SOL     OW29863   3.500   2.961   6.665
 6174SOL    HW129864   3.505   3.042   6.724
 6174SOL    HW229865   3.414   2.963   6.614
 6175SOL     OW29866   2.777   1.951   6.988
 6175SOL    HW129867   2.802   1.931   6.893
 6175SOL    HW229868   2.849   2.007   7.030
 6176SOL     OW29869   2.842   2.978   7.305
 6176SOL    HW129870   2.743   2.984   7.315
 6176SOL    HW229871   2.865   2.898   7.249
 6177SOL     OW29872   2.567   2.912   5.954
 6177SOL    HW129873   2.553   2.919   6.053
 6177SOL    HW229874   2.651   2.861   5.936
 6178SOL     OW29875   2.272   2.675   6.837
 6178SOL    HW129876   2.358   2.687   6.887
 6178SOL    HW229877   2.230   2.588   6.864
 6179SOL     OW29878   3.136   2.248   6.848
 6179SOL    HW129879   3.157   2.322   6.912
 6179SOL    HW229880   3.047   2.265   6.805
 6180SOL     OW29881   1.926   3.426   6.917
 6180SOL    HW129882   1.880   3.508   6.883
 6180SOL    HW229883   2.024   3.445   6.926
 6181SOL     OW29884   2.229   2.962   6.087
 6181SOL    HW129885   2.222   3.045   6.031
 6181SOL    HW229886   2.233   2.882   6.027
 6182SOL     OW29887   2.428   2.399   6.451
 6182SOL    HW129888   2.440   2.465   6.377
 6182SOL    HW229889   2.474   2.433   6.534
 6183SOL     OW29890   3.114   3.210   5.974
 6183SOL    HW129891   3.164   3.287   6.014
 6183SOL    HW229892   3.019   3.212   6.006
 6184SOL     OW29893   3.134   3.307   6.728
 6184SOL    HW129894   3.181   3.320   6.815
 6184SOL    HW229895   3.068   3.233   6.737
 6185SOL     OW29896   3.444   2.501   6.058
 6185SOL    HW129897   3.413   2.562   6.131
 6185SOL    HW229898   3.494   2.553   5.989
 6186SOL     OW29899   2.216   3.372   6.915
 6186SOL    HW129900   2.195   3.328   6.828
 6186SOL    HW229901   2.313   3.398   6.918
 6187SOL     OW29902   2.264   2.613   7.184
 6187SOL    HW129903   2.332   2.668   7.137
 6187SOL    HW229904   2.304   2.525   7.211
 6188SOL     OW29905   3.449   2.641   7.256
 6188SOL    HW129906   3.357   2.679   7.251
 6188SOL    HW229907   3.509   2.688   7.191
 6189SOL     OW29908   2.875   1.967   7.356
 6189SOL    HW129909   2.881   2.052   7.304
 6189SOL    HW229910   2.907   1.891   7.299
 6190SOL     OW29911   2.366   1.912   7.326
 6190SOL    HW129912   2.324   1.855   7.256
 6190SOL    HW229913   2.300   1.981   7.358
 6191SOL     OW29914   2.435   2.732   6.615
 6191SOL    HW129915   2.479   2.821   6.606
 6191SOL    HW229916   2.372   2.732   6.692
 6192SOL     OW29917   3.222   2.724   6.631
 6192SOL    HW129918   3.147   2.724   6.565
 6192SOL    HW229919   3.259   2.632   6.640
 6193SOL     OW29920   3.071   2.387   5.861
 6193SOL    HW129921   3.084   2.303   5.915
 6193SOL    HW229922   3.042   2.461   5.921
 6194SOL     OW29923   2.169   2.075   6.817
 6194SOL    HW129924   2.146   2.112   6.907
 6194SOL    HW229925   2.139   1.980   6.811
 6195SOL     OW29926   1.899   3.172   6.868
 6195SOL    HW129927   1.952   3.123   6.936
 6195SOL    HW229928   1.921   3.270   6.873
 6196SOL     OW29929   2.594   2.496   6.650
 6196SOL    HW129930   2.653   2.470   6.574
 6196SOL    HW229931   2.566   2.592   6.639
 6197SOL     OW29932   3.590   2.797   7.440
 6197SOL    HW129933   3.544   2.790   7.351
 6197SOL    HW229934   3.528   2.841   7.506
 6198SOL     OW29935   2.169   1.925   6.204
 6198SOL    HW129936   2.158   2.019   6.237
 6198SOL    HW229937   2.164   1.862   6.281
 6199SOL     OW29938   3.484   2.229   5.960
 6199SOL    HW129939   3.486   2.153   6.024
 6199SOL    HW229940   3.436   2.306   6.000
 6200SOL     OW29941   2.885   2.628   6.552
 6200SOL    HW129942   2.900   2.649   6.648
 6200SOL    HW229943   2.855   2.533   6.543
 6201SOL     OW29944   2.842   3.435   7.286
 6201SOL    HW129945   2.822   3.479   7.198
 6201SOL    HW229946   2.881   3.344   7.270
 6202SOL     OW29947   3.721   3.380   7.191
 6202SOL    HW129948   3.735   3.407   7.096
 6202SOL    HW229949   3.804   3.402   7.244
 6203SOL     OW29950   2.212   2.760   7.390
 6203SOL    HW129951   2.288   2.804   7.438
 6203SOL    HW229952   2.247   2.713   7.308
 6204SOL     OW29953   3.402   2.136   5.711
 6204SOL    HW129954   3.341   2.061   5.734
 6204SOL    HW229955   3.424   2.188   5.794
 6205SOL     OW29956   3.165   2.700   5.628
 6205SOL    HW129957   3.199   2.607   5.643
 6205SOL    HW229958   3.183   2.727   5.533
 6206SOL     OW29959   2.930   3.195   6.435
 6206SOL    HW129960   2.937   3.111   6.380
 6206SOL    HW229961   2.992   3.264   6.399
 6207SOL     OW29962   2.181   2.672   6.535
 6207SOL    HW129963   2.274   2.708   6.540
 6207SOL    HW229964   2.175   2.587   6.587
 6208SOL     OW29965   2.201   2.371   6.592
 6208SOL    HW129966   2.149   2.288   6.575
 6208SOL    HW229967   2.278   2.376   6.528
 6209SOL     OW29968   3.000   2.242   7.264
 6209SOL    HW129969   2.955   2.305   7.328
 6209SOL    HW229970   3.093   2.273   7.247
 6210SOL     OW29971   3.022   2.069   7.063
 6210SOL    HW129972   3.022   2.133   7.140
 6210SOL    HW229973   3.050   2.117   6.980
 6211SOL     OW29974   1.870   3.188   5.786
 6211SOL    HW129975   1.777   3.209   5.755
 6211SOL    HW229976   1.880   3.089   5.799
 6212SOL     OW29977   1.950   3.663   6.513
 6212SOL    HW129978   1.908   3.577   6.486
 6212SOL    HW229979   2.044   3.666   6.479
 6213SOL     OW29980   2.366   3.430   6.496
 6213SOL    HW129981   2.432   3.504   6.505
 6213SOL    HW229982   2.410   3.351   6.454
 6214SOL     OW29983   2.864   2.658   6.824
 6214SOL    HW129984   2.905   2.626   6.910
 6214SOL    HW229985   2.768   2.631   6.821
 6215SOL     OW29986   1.902   2.406   6.700
 6215SOL    HW129987   1.987   2.373   6.659
 6215SOL    HW229988   1.915   2.421   6.798
 6216SOL     OW29989   2.051   2.382   7.308
 6216SOL    HW129990   2.110   2.342   7.238
 6216SOL    HW229991   1.993   2.453   7.267
 6217SOL     OW29992   3.231   2.812   7.246
 6217SOL    HW129993   3.270   2.901   7.266
 6217SOL    HW229994   3.241   2.792   7.149
 6218SOL     OW29995   2.677   2.434   5.911
 6218SOL    HW129996   2.684   2.345   5.865
 6218SOL    HW229997   2.583   2.468   5.903
 6219SOL     OW29998   3.519   2.466   6.792
 6219SOL    HW129999   3.481   2.397   6.854
 6219SOL    HW230000   3.601   2.430   6.748
 6220SOL     OW30001   2.114   3.426   7.330
 6220SOL    HW130002   2.084   3.483   7.406
 6220SOL    HW230003   2.107   3.329   7.356
 6221SOL     OW30004   2.533   2.326   6.855
 6221SOL    HW130005   2.499   2.237   6.825
 6221SOL    HW230006   2.559   2.380   6.775
 6222SOL     OW30007   2.792   3.540   7.051
 6222SOL    HW130008   2.768   3.522   6.956
 6222SOL    HW230009   2.822   3.634   7.061
 6223SOL     OW30010   2.335   2.362   5.777
 6223SOL    HW130011   2.396   2.442   5.781
 6223SOL    HW230012   2.240   2.393   5.784
 6224SOL     OW30013   2.021   2.999   7.052
 6224SOL    HW130014   2.043   2.938   7.128
 6224SOL    HW230015   2.031   2.950   6.966
 6225SOL     OW30016   3.209   2.921   6.820
 6225SOL    HW130017   3.233   2.858   6.746
 6225SOL    HW230018   3.119   2.961   6.802
 6226SOL     OW30019   3.164   2.717   5.895
 6226SOL    HW130020   3.078   2.686   5.937
 6226SOL    HW230021   3.160   2.703   5.796
 6227SOL     OW30022   3.621   3.609   6.740
 6227SOL    HW130023   3.682   3.639   6.667
 6227SOL    HW230024   3.583   3.520   6.718
 6228SOL     OW30025   3.114   3.593   6.714
 6228SOL    HW130026   3.198   3.598   6.660
 6228SOL    HW230027   3.091   3.497   6.732
 6229SOL     OW30028   1.945   3.120   6.608
 6229SOL    HW130029   1.940   3.119   6.708
 6229SOL    HW230030   1.862   3.079   6.570
 6230SOL     OW30031   2.550   3.524   7.302
 6230SOL    HW130032   2.494   3.605   7.311
 6230SOL    HW230033   2.602   3.528   7.216
 6231SOL     OW30034   3.588   1.997   6.109
 6231SOL    HW130035   3.661   1.980   6.042
 6231SOL    HW230036   3.557   1.910   6.147
 6232SOL     OW30037   3.250   3.435   6.063
 6232SOL    HW130038   3.317   3.447   5.989
 6232SOL    HW230039   3.210   3.524   6.086
 6233SOL     OW30040   1.992   3.656   7.437
 6233SOL    HW130041   1.951   3.582   7.490
 6233SOL    HW230042   2.056   3.707   7.495
 6234SOL     OW30043   3.142   2.789   6.258
 6234SOL    HW130044   3.202   2.708   6.260
 6234SOL    HW230045   3.182   2.858   6.198
 6235SOL     OW30046   2.692   3.135   7.008
 6235SOL    HW130047   2.687   3.168   7.103
 6235SOL    HW230048   2.606   3.154   6.962
 6236SOL     OW30049   3.512   3.582   6.980
 6236SOL    HW130050   3.565   3.592   6.896
 6236SOL    HW230051   3.485   3.672   7.014
 6237SOL     OW30052   3.703   2.037   6.549
 6237SOL    HW130053   3.742   1.952   6.513
 6237SOL    HW230054   3.605   2.039   6.530
 6238SOL     OW30055   2.125   2.188   6.306
 6238SOL    HW130056   2.046   2.239   6.272
 6238SOL    HW230057   2.116   2.173   6.404
 6239SOL     OW30058   3.056   3.474   5.617
 6239SOL    HW130059   3.062   3.381   5.654
 6239SOL    HW230060   2.997   3.474   5.537
 6240SOL     OW30061   2.684   2.864   6.958
 6240SOL    HW130062   2.724   2.863   6.866
 6240SOL    HW230063   2.694   2.956   6.998
 6241SOL     OW30064   2.778   2.772   5.877
 6241SOL    HW130065   2.841   2.810   5.809
 6241SOL    HW230066   2.818   2.689   5.916
 6242SOL     OW30067   3.366   3.469   5.630
 6242SOL    HW130068   3.274   3.506   5.637
 6242SOL    HW230069   3.404   3.489   5.540
 6243SOL     OW30070   2.234   3.150   7.076
 6243SOL    HW130071   2.221   3.243   7.042
 6243SOL    HW230072   2.150   3.098   7.063
 6244SOL     OW30073   3.476   3.154   6.875
 6244SOL    HW130074   3.536   3.157   6.955
 6244SOL    HW230075   3.401   3.218   6.888
 6245SOL     OW30076   2.901   2.960   6.282
 6245SOL    HW130077   2.831   2.913   6.336
 6245SOL    HW230078   2.960   2.892   6.239
 6246SOL     OW30079   2.876   2.098   6.557
 6246SOL    HW130080   2.868   2.062   6.464
 6246SOL    HW230081   2.874   2.022   6.622
 6247SOL     OW30082   2.452   3.349   6.077
 6247SOL    HW130083   2.494   3.291   6.007
 6247SOL    HW230084   2.408   3.428   6.033
 6248SOL     OW30085   3.571   2.247   6.967
 6248SOL    HW130086   3.644   2.316   6.971
 6248SOL    HW230087   3.599   2.172   6.908
 6249SOL     OW30088   2.117   3.210   5.876
 6249SOL    HW130089   2.021   3.211   5.849
 6249SOL    HW230090   2.129   3.263   5.960
 6250SOL     OW30091   1.967   2.875   7.312
 6250SOL    HW130092   1.890   2.842   7.366
 6250SOL    HW230093   2.052   2.845   7.354
 6251SOL     OW30094   2.534   2.065   7.075
 6251SOL    HW130095   2.624   2.049   7.035
 6251SOL    HW230096   2.542   2.070   7.174
 6252SOL     OW30097   1.937   2.207   5.619
 6252SOL    HW130098   1.845   2.179   5.590
 6252SOL    HW230099   1.968   2.284   5.563
 6253SOL     OW30100   3.302   2.718   6.984
 6253SOL    HW130101   3.245   2.770   6.921
 6253SOL    HW230102   3.398   2.730   6.960
 6254SOL     OW30103   1.934   2.028   5.904
 6254SOL    HW130104   1.917   2.111   5.850
 6254SOL    HW230105   2.024   1.991   5.882
 6255SOL     OW30106   3.045   3.197   5.705
 6255SOL    HW130107   2.946   3.186   5.707
 6255SOL    HW230108   3.079   3.212   5.798
 6256SOL     OW30109   2.475   2.704   7.017
 6256SOL    HW130110   2.531   2.785   7.000
 6256SOL    HW230111   2.534   2.624   7.020
 6257SOL     OW30112   3.355   3.629   6.545
 6257SOL    HW130113   3.388   3.693   6.476
 6257SOL    HW230114   3.421   3.623   6.620
 6258SOL     OW30115   2.578   2.427   7.294
 6258SOL    HW130116   2.597   2.492   7.368
 6258SOL    HW230117   2.638   2.347   7.303
 6259SOL     OW30118   3.312   3.082   7.219
 6259SOL    HW130119   3.303   3.072   7.318
 6259SOL    HW230120   3.408   3.075   7.193
 6260SOL     OW30121   2.252   3.603   7.146
 6260SOL    HW130122   2.161   3.644   7.144
 6260SOL    HW230123   2.245   3.509   7.178
 6261SOL     OW30124   3.536   2.745   6.840
 6261SOL    HW130125   3.509   2.656   6.803
 6261SOL    HW230126   3.537   2.813   6.767
 6262SOL     OW30127   3.087   2.187   6.035
 6262SOL    HW130128   3.152   2.113   6.024
 6262SOL    HW230129   3.107   2.237   6.119
 6263SOL     OW30130   2.456   2.607   6.238
 6263SOL    HW130131   2.506   2.692   6.219
 6263SOL    HW230132   2.368   2.609   6.190
 6264SOL     OW30133   3.639   2.204   7.228
 6264SOL    HW130134   3.622   2.235   7.134
 6264SOL    HW230135   3.555   2.167   7.266
 6265SOL     OW30136   3.592   2.796   7.103
 6265SOL    HW130137   3.630   2.887   7.118
 6265SOL    HW230138   3.584   2.779   7.004
 6266SOL     OW30139   2.721   3.236   5.602
 6266SOL    HW130140   2.675   3.251   5.690
 6266SOL    HW230141   2.765   3.321   5.572
 6267SOL     OW30142   2.523   3.652   6.539
 6267SOL    HW130143   2.477   3.740   6.526
 6267SOL    HW230144   2.622   3.664   6.532
 6268SOL     OW30145   2.721   2.818   6.447
 6268SOL    HW130146   2.775   2.749   6.495
 6268SOL    HW230147   2.689   2.887   6.513
 6269SOL     OW30148   2.945   2.846   5.673
 6269SOL    HW130149   2.922   2.899   5.591
 6269SOL    HW230150   3.026   2.790   5.654
 6270SOL     OW30151   3.723   3.431   6.437
 6270SOL    HW130152   3.652   3.419   6.367
 6270SOL    HW230153   3.724   3.352   6.497
 6271SOL     OW30154   2.083   3.176   7.430
 6271SOL    HW130155   2.018   3.103   7.409
 6271SOL    HW230156   2.087   3.190   7.528
 6272SOL     OW30157   1.941   3.102   6.239
 6272SOL    HW130158   1.940   3.055   6.327
 6272SOL    HW230159   2.023   3.074   6.188
 6273SOL     OW30160   2.534   3.253   7.210
 6273SOL    HW130161   2.456   3.203   7.248
 6273SOL    HW230162   2.531   3.348   7.241
 6274SOL     OW30163   3.686   2.054   6.813
 6274SOL    HW130164   3.682   1.964   6.857
 6274SOL    HW230165   3.689   2.043   6.714
 6275SOL     OW30166   2.290   2.286   6.106
 6275SOL    HW130167   2.320   2.214   6.044
 6275SOL    HW230168   2.251   2.246   6.189
 6276SOL     OW30169   3.567   3.349   6.690
 6276SOL    HW130170   3.474   3.324   6.663
 6276SOL    HW230171   3.593   3.299   6.772
 6277SOL     OW30172   2.179   2.409   6.866
 6277SOL    HW130173   2.217   2.350   6.938
 6277SOL    HW230174   2.219   2.383   6.778
 6278SOL     OW30175   2.674   3.448   6.273
 6278SOL    HW130176   2.706   3.458   6.179
 6278SOL    HW230177   2.595   3.386   6.275
 6279SOL     OW30178   3.286   2.076   6.698
 6279SOL    HW130179   3.338   2.011   6.753
 6279SOL    HW230180   3.237   2.139   6.759
 6280SOL     OW30181   2.863   1.896   6.740
 6280SOL    HW130182   2.800   1.824   6.709
 6280SOL    HW230183   2.956   1.860   6.740
 6281SOL     OW30184   2.632   3.192   5.887
 6281SOL    HW130185   2.586   3.105   5.904
 6281SOL    HW230186   2.723   3.189   5.928
 6282SOL     OW30187   2.480   3.429   6.870
 6282SOL    HW130188   2.475   3.511   6.927
 6282SOL    HW230189   2.569   3.426   6.825
 6283SOL     OW30190   3.214   1.914   5.754
 6283SOL    HW130191   3.249   1.873   5.670
 6283SOL    HW230192   3.124   1.876   5.774
 6284SOL     OW30193   3.162   2.315   6.277
 6284SOL    HW130194   3.103   2.395   6.281
 6284SOL    HW230195   3.177   2.280   6.370
 6285SOL     OW30196   3.455   2.083   6.468
 6285SOL    HW130197   3.371   2.082   6.522
 6285SOL    HW230198   3.457   2.166   6.412
 6286SOL     OW30199   1.901   2.939   5.886
 6286SOL    HW130200   2.000   2.928   5.877
 6286SOL    HW230201   1.861   2.853   5.918
 6287SOL     OW30202   2.737   3.508   5.923
 6287SOL    HW130203   2.660   3.473   5.869
 6287SOL    HW230204   2.705   3.579   5.985
 6288SOL     OW30205   2.092   2.490   7.561
 6288SOL    HW130206   1.999   2.488   7.598
 6288SOL    HW230207   2.093   2.451   7.469
 6289SOL     OW30208   2.087   2.137   8.444
 6289SOL    HW130209   2.122   2.120   8.536
 6289SOL    HW230210   1.999   2.092   8.432
 6290SOL     OW30211   1.881   2.230   8.095
 6290SOL    HW130212   1.799   2.273   8.134
 6290SOL    HW230213   1.853   2.157   8.032
 6291SOL     OW30214   2.431   3.137   8.613
 6291SOL    HW130215   2.338   3.130   8.576
 6291SOL    HW230216   2.442   3.226   8.657
 6292SOL     OW30217   3.417   3.373   8.151
 6292SOL    HW130218   3.360   3.357   8.232
 6292SOL    HW230219   3.358   3.383   8.071
 6293SOL     OW30220   2.997   2.565   8.165
 6293SOL    HW130221   3.054   2.643   8.140
 6293SOL    HW230222   2.937   2.591   8.241
 6294SOL     OW30223   3.617   2.469   7.679
 6294SOL    HW130224   3.605   2.456   7.580
 6294SOL    HW230225   3.587   2.388   7.728
 6295SOL     OW30226   2.630   3.006   8.471
 6295SOL    HW130227   2.552   3.023   8.531
 6295SOL    HW230228   2.664   3.093   8.435
 6296SOL     OW30229   2.712   2.660   9.271
 6296SOL    HW130230   2.708   2.736   9.336
 6296SOL    HW230231   2.734   2.696   9.180
 6297SOL     OW30232   2.547   2.874   8.113
 6297SOL    HW130233   2.616   2.858   8.183
 6297SOL    HW230234   2.474   2.931   8.151
 6298SOL     OW30235   2.548   3.023   9.251
 6298SOL    HW130236   2.608   3.102   9.265
 6298SOL    HW230237   2.462   3.054   9.210
 6299SOL     OW30238   2.197   3.297   8.509
 6299SOL    HW130239   2.119   3.266   8.456
 6299SOL    HW230240   2.255   3.355   8.452
 6300SOL     OW30241   3.322   3.367   8.787
 6300SOL    HW130242   3.346   3.461   8.813
 6300SOL    HW230243   3.306   3.313   8.869
 6301SOL     OW30244   2.300   2.254   8.947
 6301SOL    HW130245   2.382   2.198   8.956
 6301SOL    HW230246   2.219   2.196   8.951
 6302SOL     OW30247   3.465   2.309   8.185
 6302SOL    HW130248   3.391   2.355   8.135
 6302SOL    HW230249   3.516   2.377   8.238
 6303SOL     OW30250   2.093   3.575   7.931
 6303SOL    HW130251   2.127   3.652   7.985
 6303SOL    HW230252   2.137   3.575   7.841
 6304SOL     OW30253   2.989   3.203   9.138
 6304SOL    HW130254   3.036   3.203   9.226
 6304SOL    HW230255   2.941   3.116   9.127
 6305SOL     OW30256   2.092   3.296   7.986
 6305SOL    HW130257   2.066   3.392   7.986
 6305SOL    HW230258   2.021   3.242   8.031
 6306SOL     OW30259   2.102   2.953   8.334
 6306SOL    HW130260   2.116   2.869   8.386
 6306SOL    HW230261   2.047   3.017   8.389
 6307SOL     OW30262   2.482   3.648   8.887
 6307SOL    HW130263   2.390   3.631   8.922
 6307SOL    HW230264   2.510   3.740   8.913
 6308SOL     OW30265   2.468   2.826   7.571
 6308SOL    HW130266   2.475   2.910   7.517
 6308SOL    HW230267   2.514   2.839   7.659
 6309SOL     OW30268   3.456   1.976   8.928
 6309SOL    HW130269   3.438   2.043   8.856
 6309SOL    HW230270   3.453   2.022   9.017
 6310SOL     OW30271   1.984   2.505   8.011
 6310SOL    HW130272   1.939   2.417   8.028
 6310SOL    HW230273   1.983   2.559   8.095
 6311SOL     OW30274   3.704   3.629   7.807
 6311SOL    HW130275   3.758   3.600   7.887
 6311SOL    HW230276   3.734   3.719   7.778
 6312SOL     OW30277   1.889   3.458   7.565
 6312SOL    HW130278   1.870   3.362   7.586
 6312SOL    HW230279   1.856   3.516   7.640
 6313SOL     OW30280   3.551   2.784   8.060
 6313SOL    HW130281   3.646   2.755   8.068
 6313SOL    HW230282   3.543   2.849   7.985
 6314SOL     OW30283   3.503   2.970   7.880
 6314SOL    HW130284   3.589   2.972   7.828
 6314SOL    HW230285   3.517   3.017   7.968
 6315SOL     OW30286   1.975   2.599   9.045
 6315SOL    HW130287   2.063   2.586   9.090
 6315SOL    HW230288   1.962   2.696   9.023
 6316SOL     OW30289   2.475   3.227   8.174
 6316SOL    HW130290   2.426   3.140   8.183
 6316SOL    HW230291   2.452   3.270   8.087
 6317SOL     OW30292   3.155   3.090   8.871
 6317SOL    HW130293   3.192   3.017   8.813
 6317SOL    HW230294   3.207   3.095   8.956
 6318SOL     OW30295   2.671   1.866   7.950
 6318SOL    HW130296   2.711   1.957   7.941
 6318SOL    HW230297   2.571   1.874   7.956
 6319SOL     OW30298   2.059   2.838   8.712
 6319SOL    HW130299   2.148   2.793   8.698
 6319SOL    HW230300   1.986   2.773   8.693
 6320SOL     OW30301   3.387   2.861   7.638
 6320SOL    HW130302   3.324   2.785   7.651
 6320SOL    HW230303   3.435   2.879   7.724
 6321SOL     OW30304   3.049   3.654   9.064
 6321SOL    HW130305   3.073   3.714   8.988
 6321SOL    HW230306   3.056   3.559   9.034
 6322SOL     OW30307   2.179   2.113   9.249
 6322SOL    HW130308   2.250   2.184   9.255
 6322SOL    HW230309   2.091   2.152   9.277
 6323SOL     OW30310   3.328   3.279   8.401
 6323SOL    HW130311   3.269   3.285   8.481
 6323SOL    HW230312   3.313   3.191   8.355
 6324SOL     OW30313   3.529   3.576   8.020
 6324SOL    HW130314   3.488   3.553   7.932
 6324SOL    HW230315   3.511   3.502   8.085
 6325SOL     OW30316   2.460   2.591   7.718
 6325SOL    HW130317   2.484   2.660   7.650
 6325SOL    HW230318   2.382   2.624   7.772
 6326SOL     OW30319   3.143   2.207   8.392
 6326SOL    HW130320   3.057   2.157   8.379
 6326SOL    HW230321   3.205   2.153   8.448
 6327SOL     OW30322   3.438   3.524   7.755
 6327SOL    HW130323   3.527   3.570   7.758
 6327SOL    HW230324   3.417   3.500   7.660
 6328SOL     OW30325   2.669   2.467   8.913
 6328SOL    HW130326   2.622   2.464   9.002
 6328SOL    HW230327   2.618   2.412   8.847
 6329SOL     OW30328   3.256   2.331   9.122
 6329SOL    HW130329   3.236   2.374   9.210
 6329SOL    HW230330   3.334   2.269   9.131
 6330SOL     OW30331   2.835   2.752   9.020
 6330SOL    HW130332   2.881   2.668   8.991
 6330SOL    HW230333   2.779   2.786   8.945
 6331SOL     OW30334   2.853   2.272   8.690
 6331SOL    HW130335   2.776   2.306   8.744
 6331SOL    HW230336   2.819   2.221   8.611
 6332SOL     OW30337   2.903   2.563   7.877
 6332SOL    HW130338   2.929   2.559   7.973
 6332SOL    HW230339   2.818   2.512   7.863
 6333SOL     OW30340   1.938   2.673   8.237
 6333SOL    HW130341   2.037   2.661   8.246
 6333SOL    HW230342   1.914   2.768   8.258
 6334SOL     OW30343   2.727   2.210   7.643
 6334SOL    HW130344   2.786   2.273   7.594
 6334SOL    HW230345   2.746   2.116   7.614
 6335SOL     OW30346   3.581   2.447   9.279
 6335SOL    HW130347   3.555   2.536   9.243
 6335SOL    HW230348   3.579   2.379   9.206
 6336SOL     OW30349   3.224   3.006   7.993
 6336SOL    HW130350   3.307   2.977   7.945
 6336SOL    HW230351   3.175   3.073   7.937
 6337SOL     OW30352   2.412   2.058   8.333
 6337SOL    HW130353   2.407   2.053   8.433
 6337SOL    HW230354   2.414   2.154   8.304
 6338SOL     OW30355   2.870   3.318   7.925
 6338SOL    HW130356   2.824   3.390   7.873
 6338SOL    HW230357   2.866   3.338   8.023
 6339SOL     OW30358   2.213   3.663   8.301
 6339SOL    HW130359   2.263   3.577   8.307
 6339SOL    HW230360   2.278   3.740   8.298
 6340SOL     OW30361   3.657   2.928   8.321
 6340SOL    HW130362   3.595   2.913   8.245
 6340SOL    HW230363   3.605   2.939   8.406
 6341SOL     OW30364   3.089   3.412   8.954
 6341SOL    HW130365   3.095   3.335   9.018
 6341SOL    HW230366   3.037   3.386   8.874
 6342SOL     OW30367   2.183   2.805   7.690
 6342SOL    HW130368   2.265   2.844   7.648
 6342SOL    HW230369   2.156   2.723   7.641
 6343SOL     OW30370   3.320   2.597   8.176
 6343SOL    HW130371   3.315   2.532   8.251
 6343SOL    HW230372   3.400   2.656   8.189
 6344SOL     OW30373   2.323   3.128   9.175
 6344SOL    HW130374   2.273   3.129   9.089
 6344SOL    HW230375   2.260   3.110   9.251
 6345SOL     OW30376   2.973   3.638   7.685
 6345SOL    HW130377   2.913   3.576   7.735
 6345SOL    HW230378   3.004   3.594   7.600
 6346SOL     OW30379   2.064   2.147   8.946
 6346SOL    HW130380   1.984   2.207   8.933
 6346SOL    HW230381   2.054   2.098   9.032
 6347SOL     OW30382   3.494   3.239   7.529
 6347SOL    HW130383   3.462   3.333   7.519
 6347SOL    HW230384   3.418   3.176   7.517
 6348SOL     OW30385   2.326   3.605   7.771
 6348SOL    HW130386   2.359   3.644   7.857
 6348SOL    HW230387   2.402   3.598   7.706
 6349SOL     OW30388   3.262   1.969   7.874
 6349SOL    HW130389   3.238   1.932   7.784
 6349SOL    HW230390   3.361   1.985   7.878
 6350SOL     OW30391   2.111   3.647   8.689
 6350SOL    HW130392   2.168   3.582   8.739
 6350SOL    HW230393   2.095   3.614   8.596
 6351SOL     OW30394   2.802   3.560   8.352
 6351SOL    HW130395   2.882   3.503   8.373
 6351SOL    HW230396   2.753   3.520   8.275
 6352SOL     OW30397   2.244   2.562   7.928
 6352SOL    HW130398   2.289   2.472   7.925
 6352SOL    HW230399   2.150   2.551   7.961
 6353SOL     OW30400   3.409   2.084   9.177
 6353SOL    HW130401   3.404   2.121   9.269
 6353SOL    HW230402   3.337   2.015   9.165
 6354SOL     OW30403   2.476   1.984   7.565
 6354SOL    HW130404   2.574   1.962   7.572
 6354SOL    HW230405   2.445   1.967   7.472
 6355SOL     OW30406   2.643   2.126   9.197
 6355SOL    HW130407   2.710   2.065   9.240
 6355SOL    HW230408   2.570   2.145   9.262
 6356SOL     OW30409   2.750   3.376   8.643
 6356SOL    HW130410   2.727   3.351   8.549
 6356SOL    HW230411   2.811   3.307   8.682
 6357SOL     OW30412   3.213   2.452   8.881
 6357SOL    HW130413   3.241   2.409   8.966
 6357SOL    HW230414   3.238   2.548   8.882
 6358SOL     OW30415   2.665   3.264   8.372
 6358SOL    HW130416   2.755   3.278   8.330
 6358SOL    HW230417   2.594   3.266   8.301
 6359SOL     OW30418   2.784   2.365   8.347
 6359SOL    HW130419   2.759   2.356   8.251
 6359SOL    HW230420   2.832   2.283   8.378
 6360SOL     OW30421   2.401   1.926   7.960
 6360SOL    HW130422   2.320   1.927   8.018
 6360SOL    HW230423   2.404   2.009   7.905
 6361SOL     OW30424   3.296   3.050   7.489
 6361SOL    HW130425   3.328   2.974   7.546
 6361SOL    HW230426   3.204   3.077   7.519
 6362SOL     OW30427   2.159   1.897   7.619
 6362SOL    HW130428   2.208   1.981   7.598
 6362SOL    HW230429   2.221   1.832   7.664
 6363SOL     OW30430   2.797   2.098   7.928
 6363SOL    HW130431   2.749   2.139   7.850
 6363SOL    HW230432   2.896   2.096   7.909
 6364SOL     OW30433   2.938   2.545   8.912
 6364SOL    HW130434   2.858   2.484   8.915
 6364SOL    HW230435   3.019   2.492   8.888
 6365SOL     OW30436   3.089   3.432   8.241
 6365SOL    HW130437   3.110   3.506   8.176
 6365SOL    HW230438   3.157   3.432   8.314
 6366SOL     OW30439   2.321   3.014   8.189
 6366SOL    HW130440   2.250   2.987   8.254
 6366SOL    HW230441   2.295   2.986   8.096
 6367SOL     OW30442   3.133   3.659   8.039
 6367SOL    HW130443   3.177   3.723   7.975
 6367SOL    HW230444   3.083   3.711   8.109
 6368SOL     OW30445   2.894   2.411   7.464
 6368SOL    HW130446   2.853   2.493   7.425
 6368SOL    HW230447   2.958   2.437   7.537
 6369SOL     OW30448   1.940   2.418   8.834
 6369SOL    HW130449   2.032   2.417   8.793
 6369SOL    HW230450   1.934   2.492   8.901
 6370SOL     OW30451   2.423   2.084   8.595
 6370SOL    HW130452   2.461   2.000   8.632
 6370SOL    HW230453   2.335   2.103   8.639
 6371SOL     OW30454   2.728   2.316   8.090
 6371SOL    HW130455   2.696   2.388   8.028
 6371SOL    HW230456   2.752   2.235   8.037
 6372SOL     OW30457   2.879   1.901   8.201
 6372SOL    HW130458   2.807   1.906   8.132
 6372SOL    HW230459   2.855   1.832   8.270
 6373SOL     OW30460   3.291   3.035   8.315
 6373SOL    HW130461   3.236   2.951   8.308
 6373SOL    HW230462   3.317   3.064   8.223
 6374SOL     OW30463   3.328   2.452   8.440
 6374SOL    HW130464   3.298   2.357   8.447
 6374SOL    HW230465   3.401   2.468   8.506
 6375SOL     OW30466   3.719   2.695   7.825
 6375SOL    HW130467   3.761   2.631   7.889
 6375SOL    HW230468   3.681   2.644   7.747
 6376SOL     OW30469   2.350   3.247   7.622
 6376SOL    HW130470   2.263   3.232   7.669
 6376SOL    HW230471   2.333   3.273   7.527
 6377SOL     OW30472   3.526   3.142   8.105
 6377SOL    HW130473   3.625   3.150   8.119
 6377SOL    HW230474   3.481   3.226   8.136
 6378SOL     OW30475   3.252   2.437   7.526
 6378SOL    HW130476   3.198   2.416   7.607
 6378SOL    HW230477   3.343   2.396   7.535
 6379SOL     OW30478   2.389   2.118   7.776
 6379SOL    HW130479   2.416   2.059   7.701
 6379SOL    HW230480   2.389   2.213   7.745
 6380SOL     OW30481   3.616   3.085   9.036
 6380SOL    HW130482   3.707   3.046   9.023
 6380SOL    HW230483   3.624   3.181   9.060
 6381SOL     OW30484   2.926   3.209   8.788
 6381SOL    HW130485   2.846   3.186   8.843
 6381SOL    HW230486   3.009   3.183   8.837
 6382SOL     OW30487   3.454   3.491   9.073
 6382SOL    HW130488   3.481   3.525   8.983
 6382SOL    HW230489   3.533   3.453   9.119
 6383SOL     OW30490   2.973   3.057   8.548
 6383SOL    HW130491   2.933   3.101   8.629
 6383SOL    HW230492   2.932   3.094   8.465
 6384SOL     OW30493   3.500   2.961   8.527
 6384SOL    HW130494   3.505   3.042   8.586
 6384SOL    HW230495   3.414   2.963   8.476
 6385SOL     OW30496   2.777   1.951   8.850
 6385SOL    HW130497   2.802   1.931   8.755
 6385SOL    HW230498   2.849   2.007   8.892
 6386SOL     OW30499   2.842   2.978   9.167
 6386SOL    HW130500   2.743   2.984   9.177
 6386SOL    HW230501   2.865   2.898   9.111
 6387SOL     OW30502   2.567   2.912   7.816
 6387SOL    HW130503   2.553   2.919   7.915
 6387SOL    HW230504   2.651   2.861   7.798
 6388SOL     OW30505   2.272   2.675   8.699
 6388SOL    HW130506   2.358   2.687   8.749
 6388SOL    HW230507   2.230   2.588   8.726
 6389SOL     OW30508   3.136   2.248   8.710
 6389SOL    HW130509   3.157   2.322   8.774
 6389SOL    HW230510   3.047   2.265   8.667
 6390SOL     OW30511   1.926   3.426   8.779
 6390SOL    HW130512   1.880   3.508   8.745
 6390SOL    HW230513   2.024   3.445   8.788
 6391SOL     OW30514   2.229   2.962   7.949
 6391SOL    HW130515   2.222   3.045   7.893
 6391SOL    HW230516   2.233   2.882   7.889
 6392SOL     OW30517   2.428   2.399   8.313
 6392SOL    HW130518   2.440   2.465   8.239
 6392SOL    HW230519   2.474   2.433   8.396
 6393SOL     OW30520   3.114   3.210   7.836
 6393SOL    HW130521   3.164   3.287   7.876
 6393SOL    HW230522   3.019   3.212   7.868
 6394SOL     OW30523   3.134   3.307   8.590
 6394SOL    HW130524   3.181   3.320   8.677
 6394SOL    HW230525   3.068   3.233   8.599
 6395SOL     OW30526   3.444   2.501   7.920
 6395SOL    HW130527   3.413   2.562   7.993
 6395SOL    HW230528   3.494   2.553   7.851
 6396SOL     OW30529   2.216   3.372   8.777
 6396SOL    HW130530   2.195   3.328   8.690
 6396SOL    HW230531   2.313   3.398   8.780
 6397SOL     OW30532   2.264   2.613   9.046
 6397SOL    HW130533   2.332   2.668   8.999
 6397SOL    HW230534   2.304   2.525   9.073
 6398SOL     OW30535   3.449   2.641   9.118
 6398SOL    HW130536   3.357   2.679   9.113
 6398SOL    HW230537   3.509   2.688   9.053
 6399SOL     OW30538   2.875   1.967   9.218
 6399SOL    HW130539   2.881   2.052   9.166
 6399SOL    HW230540   2.907   1.891   9.161
 6400SOL     OW30541   2.366   1.912   9.188
 6400SOL    HW130542   2.324   1.855   9.118
 6400SOL    HW230543   2.300   1.981   9.220
 6401SOL     OW30544   2.435   2.732   8.477
 6401SOL    HW130545   2.479   2.821   8.468
 6401SOL    HW230546   2.372   2.732   8.554
 6402SOL     OW30547   3.222   2.724   8.493
 6402SOL    HW130548   3.147   2.724   8.427
 6402SOL    HW230549   3.259   2.632   8.502
 6403SOL     OW30550   3.071   2.387   7.723
 6403SOL    HW130551   3.084   2.303   7.777
 6403SOL    HW230552   3.042   2.461   7.783
 6404SOL     OW30553   2.169   2.075   8.679
 6404SOL    HW130554   2.146   2.112   8.769
 6404SOL    HW230555   2.139   1.980   8.673
 6405SOL     OW30556   1.899   3.172   8.730
 6405SOL    HW130557   1.952   3.123   8.798
 6405SOL    HW230558   1.921   3.270   8.735
 6406SOL     OW30559   2.594   2.496   8.512
 6406SOL    HW130560   2.653   2.470   8.436
 6406SOL    HW230561   2.566   2.592   8.501
 6407SOL     OW30562   3.590   2.797   9.302
 6407SOL    HW130563   3.544   2.790   9.213
 6407SOL    HW230564   3.528   2.841   9.368
 6408SOL     OW30565   2.169   1.925   8.066
 6408SOL    HW130566   2.158   2.019   8.099
 6408SOL    HW230567   2.164   1.862   8.143
 6409SOL     OW30568   3.484   2.229   7.822
 6409SOL    HW130569   3.486   2.153   7.886
 6409SOL    HW230570   3.436   2.306   7.862
 6410SOL     OW30571   2.885   2.628   8.414
 6410SOL    HW130572   2.900   2.649   8.510
 6410SOL    HW230573   2.855   2.533   8.405
 6411SOL     OW30574   2.842   3.435   9.148
 6411SOL    HW130575   2.822   3.479   9.060
 6411SOL    HW230576   2.881   3.344   9.132
 6412SOL     OW30577   3.721   3.380   9.053
 6412SOL    HW130578   3.735   3.407   8.958
 6412SOL    HW230579   3.804   3.402   9.106
 6413SOL     OW30580   2.212   2.760   9.252
 6413SOL    HW130581   2.288   2.804   9.300
 6413SOL    HW230582   2.247   2.713   9.170
 6414SOL     OW30583   3.402   2.136   7.573
 6414SOL    HW130584   3.341   2.061   7.596
 6414SOL    HW230585   3.424   2.188   7.656
 6415SOL     OW30586   3.165   2.700   7.490
 6415SOL    HW130587   3.199   2.607   7.505
 6415SOL    HW230588   3.183   2.727   7.395
 6416SOL     OW30589   2.930   3.195   8.297
 6416SOL    HW130590   2.937   3.111   8.242
 6416SOL    HW230591   2.992   3.264   8.261
 6417SOL     OW30592   2.181   2.672   8.397
 6417SOL    HW130593   2.274   2.708   8.402
 6417SOL    HW230594   2.175   2.587   8.449
 6418SOL     OW30595   2.201   2.371   8.454
 6418SOL    HW130596   2.149   2.288   8.437
 6418SOL    HW230597   2.278   2.376   8.390
 6419SOL     OW30598   3.000   2.242   9.126
 6419SOL    HW130599   2.955   2.305   9.190
 6419SOL    HW230600   3.093   2.273   9.109
 6420SOL     OW30601   3.022   2.069   8.925
 6420SOL    HW130602   3.022   2.133   9.002
 6420SOL    HW230603   3.050   2.117   8.842
 6421SOL     OW30604   1.870   3.188   7.648
 6421SOL    HW130605   1.777   3.209   7.617
 6421SOL    HW230606   1.880   3.089   7.661
 6422SOL     OW30607   1.950   3.663   8.375
 6422SOL    HW130608   1.908   3.577   8.348
 6422SOL    HW230609   2.044   3.666   8.341
 6423SOL     OW30610   2.366   3.430   8.358
 6423SOL    HW130611   2.432   3.504   8.367
 6423SOL    HW230612   2.410   3.351   8.316
 6424SOL     OW30613   2.864   2.658   8.686
 6424SOL    HW130614   2.905   2.626   8.772
 6424SOL    HW230615   2.768   2.631   8.683
 6425SOL     OW30616   1.902   2.406   8.562
 6425SOL    HW130617   1.987   2.373   8.521
 6425SOL    HW230618   1.915   2.421   8.660
 6426SOL     OW30619   2.051   2.382   9.170
 6426SOL    HW130620   2.110   2.342   9.100
 6426SOL    HW230621   1.993   2.453   9.129
 6427SOL     OW30622   3.231   2.812   9.108
 6427SOL    HW130623   3.270   2.901   9.128
 6427SOL    HW230624   3.241   2.792   9.011
 6428SOL     OW30625   2.677   2.434   7.773
 6428SOL    HW130626   2.684   2.345   7.727
 6428SOL    HW230627   2.583   2.468   7.765
 6429SOL     OW30628   3.519   2.466   8.654
 6429SOL    HW130629   3.481   2.397   8.716
 6429SOL    HW230630   3.601   2.430   8.610
 6430SOL     OW30631   2.114   3.426   9.192
 6430SOL    HW130632   2.084   3.483   9.268
 6430SOL    HW230633   2.107   3.329   9.218
 6431SOL     OW30634   2.533   2.326   8.717
 6431SOL    HW130635   2.499   2.237   8.687
 6431SOL    HW230636   2.559   2.380   8.637
 6432SOL     OW30637   2.792   3.540   8.913
 6432SOL    HW130638   2.768   3.522   8.818
 6432SOL    HW230639   2.822   3.634   8.923
 6433SOL     OW30640   2.335   2.362   7.639
 6433SOL    HW130641   2.396   2.442   7.643
 6433SOL    HW230642   2.240   2.393   7.646
 6434SOL     OW30643   2.021   2.999   8.914
 6434SOL    HW130644   2.043   2.938   8.990
 6434SOL    HW230645   2.031   2.950   8.828
 6435SOL     OW30646   3.209   2.921   8.682
 6435SOL    HW130647   3.233   2.858   8.608
 6435SOL    HW230648   3.119   2.961   8.664
 6436SOL     OW30649   3.164   2.717   7.757
 6436SOL    HW130650   3.078   2.686   7.799
 6436SOL    HW230651   3.160   2.703   7.658
 6437SOL     OW30652   3.621   3.609   8.602
 6437SOL    HW130653   3.682   3.639   8.529
 6437SOL    HW230654   3.583   3.520   8.580
 6438SOL     OW30655   3.114   3.593   8.576
 6438SOL    HW130656   3.198   3.598   8.522
 6438SOL    HW230657   3.091   3.497   8.594
 6439SOL     OW30658   1.945   3.120   8.470
 6439SOL    HW130659   1.940   3.119   8.570
 6439SOL    HW230660   1.862   3.079   8.432
 6440SOL     OW30661   2.550   3.524   9.164
 6440SOL    HW130662   2.494   3.605   9.173
 6440SOL    HW230663   2.602   3.528   9.078
 6441SOL     OW30664   3.588   1.997   7.971
 6441SOL    HW130665   3.661   1.980   7.904
 6441SOL    HW230666   3.557   1.910   8.009
 6442SOL     OW30667   3.250   3.435   7.925
 6442SOL    HW130668   3.317   3.447   7.851
 6442SOL    HW230669   3.210   3.524   7.948
 6443SOL     OW30670   3.142   2.789   8.120
 6443SOL    HW130671   3.202   2.708   8.122
 6443SOL    HW230672   3.182   2.858   8.060
 6444SOL     OW30673   2.692   3.135   8.870
 6444SOL    HW130674   2.687   3.168   8.965
 6444SOL    HW230675   2.606   3.154   8.824
 6445SOL     OW30676   2.534   3.478   7.602
 6445SOL    HW130677   2.543   3.488   7.503
 6445SOL    HW230678   2.494   3.389   7.623
 6446SOL     OW30679   3.512   3.582   8.842
 6446SOL    HW130680   3.565   3.592   8.758
 6446SOL    HW230681   3.485   3.672   8.876
 6447SOL     OW30682   3.703   2.037   8.411
 6447SOL    HW130683   3.742   1.952   8.375
 6447SOL    HW230684   3.605   2.039   8.392
 6448SOL     OW30685   2.125   2.188   8.168
 6448SOL    HW130686   2.046   2.239   8.134
 6448SOL    HW230687   2.116   2.173   8.266
 6449SOL     OW30688   3.056   3.474   7.479
 6449SOL    HW130689   3.062   3.381   7.516
 6449SOL    HW230690   2.997   3.474   7.399
 6450SOL     OW30691   2.684   2.864   8.820
 6450SOL    HW130692   2.724   2.863   8.728
 6450SOL    HW230693   2.694   2.956   8.860
 6451SOL     OW30694   2.778   2.772   7.739
 6451SOL    HW130695   2.841   2.810   7.671
 6451SOL    HW230696   2.818   2.689   7.778
 6452SOL     OW30697   3.366   3.469   7.492
 6452SOL    HW130698   3.274   3.506   7.499
 6452SOL    HW230699   3.404   3.489   7.402
 6453SOL     OW30700   2.234   3.150   8.938
 6453SOL    HW130701   2.221   3.243   8.904
 6453SOL    HW230702   2.150   3.098   8.925
 6454SOL     OW30703   3.476   3.154   8.737
 6454SOL    HW130704   3.536   3.157   8.817
 6454SOL    HW230705   3.401   3.218   8.750
 6455SOL     OW30706   2.901   2.960   8.144
 6455SOL    HW130707   2.831   2.913   8.198
 6455SOL    HW230708   2.960   2.892   8.101
 6456SOL     OW30709   2.876   2.098   8.419
 6456SOL    HW130710   2.868   2.062   8.326
 6456SOL    HW230711   2.874   2.022   8.484
 6457SOL     OW30712   2.452   3.349   7.939
 6457SOL    HW130713   2.494   3.291   7.869
 6457SOL    HW230714   2.408   3.428   7.895
 6458SOL     OW30715   3.571   2.247   8.829
 6458SOL    HW130716   3.644   2.316   8.833
 6458SOL    HW230717   3.599   2.172   8.770
 6459SOL     OW30718   2.117   3.210   7.738
 6459SOL    HW130719   2.021   3.211   7.711
 6459SOL    HW230720   2.129   3.263   7.822
 6460SOL     OW30721   1.967   2.875   9.174
 6460SOL    HW130722   1.890   2.842   9.228
 6460SOL    HW230723   2.052   2.845   9.216
 6461SOL     OW30724   2.534   2.065   8.937
 6461SOL    HW130725   2.624   2.049   8.897
 6461SOL    HW230726   2.542   2.070   9.036
 6462SOL     OW30727   1.937   2.207   7.481
 6462SOL    HW130728   1.845   2.179   7.452
 6462SOL    HW230729   1.968   2.284   7.425
 6463SOL     OW30730   3.302   2.718   8.846
 6463SOL    HW130731   3.245   2.770   8.783
 6463SOL    HW230732   3.398   2.730   8.822
 6464SOL     OW30733   1.934   2.028   7.766
 6464SOL    HW130734   1.917   2.111   7.712
 6464SOL    HW230735   2.024   1.991   7.744
 6465SOL     OW30736   3.045   3.197   7.567
 6465SOL    HW130737   2.946   3.186   7.569
 6465SOL    HW230738   3.079   3.212   7.660
 6466SOL     OW30739   2.475   2.704   8.879
 6466SOL    HW130740   2.531   2.785   8.862
 6466SOL    HW230741   2.534   2.624   8.882
 6467SOL     OW30742   3.355   3.629   8.407
 6467SOL    HW130743   3.388   3.693   8.338
 6467SOL    HW230744   3.421   3.623   8.482
 6468SOL     OW30745   2.578   2.427   9.156
 6468SOL    HW130746   2.597   2.492   9.230
 6468SOL    HW230747   2.638   2.347   9.165
 6469SOL     OW30748   3.312   3.082   9.081
 6469SOL    HW130749   3.303   3.072   9.180
 6469SOL    HW230750   3.408   3.075   9.055
 6470SOL     OW30751   3.536   2.745   8.702
 6470SOL    HW130752   3.509   2.656   8.665
 6470SOL    HW230753   3.537   2.813   8.629
 6471SOL     OW30754   3.087   2.187   7.897
 6471SOL    HW130755   3.152   2.113   7.886
 6471SOL    HW230756   3.107   2.237   7.981
 6472SOL     OW30757   2.456   2.607   8.100
 6472SOL    HW130758   2.506   2.692   8.081
 6472SOL    HW230759   2.368   2.609   8.052
 6473SOL     OW30760   3.639   2.204   9.090
 6473SOL    HW130761   3.622   2.235   8.996
 6473SOL    HW230762   3.555   2.167   9.128
 6474SOL     OW30763   3.592   2.796   8.965
 6474SOL    HW130764   3.630   2.887   8.980
 6474SOL    HW230765   3.584   2.779   8.866
 6475SOL     OW30766   2.721   3.236   7.464
 6475SOL    HW130767   2.675   3.251   7.552
 6475SOL    HW230768   2.765   3.321   7.434
 6476SOL     OW30769   2.523   3.652   8.401
 6476SOL    HW130770   2.477   3.740   8.388
 6476SOL    HW230771   2.622   3.664   8.394
 6477SOL     OW30772   2.721   2.818   8.309
 6477SOL    HW130773   2.775   2.749   8.357
 6477SOL    HW230774   2.689   2.887   8.375
 6478SOL     OW30775   2.945   2.846   7.535
 6478SOL    HW130776   2.922   2.899   7.453
 6478SOL    HW230777   3.026   2.790   7.516
 6479SOL     OW30778   3.723   3.431   8.299
 6479SOL    HW130779   3.652   3.419   8.229
 6479SOL    HW230780   3.724   3.352   8.359
 6480SOL     OW30781   2.083   3.176   9.292
 6480SOL    HW130782   2.018   3.103   9.271
 6480SOL    HW230783   2.087   3.190   9.390
 6481SOL     OW30784   1.941   3.102   8.101
 6481SOL    HW130785   1.940   3.055   8.189
 6481SOL    HW230786   2.023   3.074   8.050
 6482SOL     OW30787   2.534   3.253   9.072
 6482SOL    HW130788   2.456   3.203   9.110
 6482SOL    HW230789   2.531   3.348   9.103
 6483SOL     OW30790   3.686   2.054   8.675
 6483SOL    HW130791   3.682   1.964   8.719
 6483SOL    HW230792   3.689   2.043   8.576
 6484SOL     OW30793   2.290   2.286   7.968
 6484SOL    HW130794   2.320   2.214   7.906
 6484SOL    HW230795   2.251   2.246   8.051
 6485SOL     OW30796   3.567   3.349   8.552
 6485SOL    HW130797   3.474   3.324   8.525
 6485SOL    HW230798   3.593   3.299   8.634
 6486SOL     OW30799   2.179   2.409   8.728
 6486SOL    HW130800   2.217   2.350   8.800
 6486SOL    HW230801   2.219   2.383   8.640
 6487SOL     OW30802   2.674   3.448   8.135
 6487SOL    HW130803   2.706   3.458   8.041
 6487SOL    HW230804   2.595   3.386   8.137
 6488SOL     OW30805   3.286   2.076   8.560
 6488SOL    HW130806   3.338   2.011   8.615
 6488SOL    HW230807   3.237   2.139   8.621
 6489SOL     OW30808   2.863   1.896   8.602
 6489SOL    HW130809   2.800   1.824   8.571
 6489SOL    HW230810   2.956   1.860   8.602
 6490SOL     OW30811   2.632   3.192   7.749
 6490SOL    HW130812   2.586   3.105   7.766
 6490SOL    HW230813   2.723   3.189   7.790
 6491SOL     OW30814   2.480   3.429   8.732
 6491SOL    HW130815   2.475   3.511   8.789
 6491SOL    HW230816   2.569   3.426   8.687
 6492SOL     OW30817   3.214   1.914   7.616
 6492SOL    HW130818   3.249   1.873   7.532
 6492SOL    HW230819   3.124   1.876   7.636
 6493SOL     OW30820   3.162   2.315   8.139
 6493SOL    HW130821   3.103   2.395   8.143
 6493SOL    HW230822   3.177   2.280   8.232
 6494SOL     OW30823   3.455   2.083   8.330
 6494SOL    HW130824   3.371   2.082   8.384
 6494SOL    HW230825   3.457   2.166   8.274
 6495SOL     OW30826   1.901   2.939   7.748
 6495SOL    HW130827   2.000   2.928   7.739
 6495SOL    HW230828   1.861   2.853   7.780
 6496SOL     OW30829   2.737   3.508   7.785
 6496SOL    HW130830   2.660   3.473   7.731
 6496SOL    HW230831   2.705   3.579   7.847
 6497SOL     OW30832   2.092   2.490   9.423
 6497SOL    HW130833   1.999   2.488   9.460
 6497SOL    HW230834   2.093   2.451   9.331
 6498SOL     OW30835   2.431   3.137  10.475
 6498SOL    HW130836   2.338   3.130  10.438
 6498SOL    HW230837   2.442   3.226  10.519
 6499SOL     OW30838   2.997   2.565  10.027
 6499SOL    HW130839   3.054   2.643  10.002
 6499SOL    HW230840   2.937   2.591  10.103
 6500SOL     OW30841   3.617   2.469   9.541
 6500SOL    HW130842   3.605   2.456   9.442
 6500SOL    HW230843   3.587   2.388   9.590
 6501SOL     OW30844   2.547   2.874   9.975
 6501SOL    HW130845   2.616   2.858  10.045
 6501SOL    HW230846   2.474   2.931  10.013
 6502SOL     OW30847   2.548   3.023  11.113
 6502SOL    HW130848   2.608   3.102  11.127
 6502SOL    HW230849   2.462   3.054  11.072
 6503SOL     OW30850   3.322   3.367  10.649
 6503SOL    HW130851   3.346   3.461  10.675
 6503SOL    HW230852   3.306   3.313  10.731
 6504SOL     OW30853   3.465   2.309  10.047
 6504SOL    HW130854   3.391   2.355   9.997
 6504SOL    HW230855   3.516   2.377  10.100
 6505SOL     OW30856   2.989   3.203  11.000
 6505SOL    HW130857   3.036   3.203  11.088
 6505SOL    HW230858   2.941   3.116  10.989
 6506SOL     OW30859   2.482   3.648  10.749
 6506SOL    HW130860   2.390   3.631  10.784
 6506SOL    HW230861   2.510   3.740  10.775
 6507SOL     OW30862   2.468   2.826   9.433
 6507SOL    HW130863   2.475   2.910   9.379
 6507SOL    HW230864   2.514   2.839   9.521
 6508SOL     OW30865   3.456   1.976  10.790
 6508SOL    HW130866   3.438   2.043  10.718
 6508SOL    HW230867   3.453   2.022  10.879
 6509SOL     OW30868   1.984   2.505   9.873
 6509SOL    HW130869   1.939   2.417   9.890
 6509SOL    HW230870   1.983   2.559   9.957
 6510SOL     OW30871   3.551   2.784   9.922
 6510SOL    HW130872   3.646   2.755   9.930
 6510SOL    HW230873   3.543   2.849   9.847
 6511SOL     OW30874   3.503   2.970   9.742
 6511SOL    HW130875   3.589   2.972   9.690
 6511SOL    HW230876   3.517   3.017   9.830
 6512SOL     OW30877   3.155   3.090  10.733
 6512SOL    HW130878   3.192   3.017  10.675
 6512SOL    HW230879   3.207   3.095  10.818
 6513SOL     OW30880   3.387   2.861   9.500
 6513SOL    HW130881   3.324   2.785   9.513
 6513SOL    HW230882   3.435   2.879   9.586
 6514SOL     OW30883   3.049   3.654  10.926
 6514SOL    HW130884   3.073   3.714  10.850
 6514SOL    HW230885   3.056   3.559  10.896
 6515SOL     OW30886   3.328   3.279  10.263
 6515SOL    HW130887   3.269   3.285  10.343
 6515SOL    HW230888   3.313   3.191  10.217
 6516SOL     OW30889   2.460   2.591   9.580
 6516SOL    HW130890   2.484   2.660   9.512
 6516SOL    HW230891   2.382   2.624   9.634
 6517SOL     OW30892   3.143   2.207  10.254
 6517SOL    HW130893   3.057   2.157  10.241
 6517SOL    HW230894   3.205   2.153  10.310
 6518SOL     OW30895   3.438   3.524   9.617
 6518SOL    HW130896   3.527   3.570   9.620
 6518SOL    HW230897   3.417   3.500   9.522
 6519SOL     OW30898   2.853   2.272  10.552
 6519SOL    HW130899   2.776   2.306  10.606
 6519SOL    HW230900   2.819   2.221  10.473
 6520SOL     OW30901   2.903   2.563   9.739
 6520SOL    HW130902   2.929   2.559   9.835
 6520SOL    HW230903   2.818   2.512   9.725
 6521SOL     OW30904   1.938   2.673  10.099
 6521SOL    HW130905   2.037   2.661  10.108
 6521SOL    HW230906   1.914   2.768  10.120
 6522SOL     OW30907   2.727   2.210   9.505
 6522SOL    HW130908   2.786   2.273   9.456
 6522SOL    HW230909   2.746   2.116   9.476
 6523SOL     OW30910   3.224   3.006   9.855
 6523SOL    HW130911   3.307   2.977   9.807
 6523SOL    HW230912   3.175   3.073   9.799
 6524SOL     OW30913   2.412   2.058  10.195
 6524SOL    HW130914   2.407   2.053  10.295
 6524SOL    HW230915   2.414   2.154  10.166
 6525SOL     OW30916   2.870   3.318   9.787
 6525SOL    HW130917   2.824   3.390   9.735
 6525SOL    HW230918   2.866   3.338   9.885
 6526SOL     OW30919   3.657   2.928  10.183
 6526SOL    HW130920   3.595   2.913  10.107
 6526SOL    HW230921   3.605   2.939  10.268
 6527SOL     OW30922   3.089   3.412  10.816
 6527SOL    HW130923   3.095   3.335  10.880
 6527SOL    HW230924   3.037   3.386  10.736
 6528SOL     OW30925   2.183   2.805   9.552
 6528SOL    HW130926   2.265   2.844   9.510
 6528SOL    HW230927   2.156   2.723   9.503
 6529SOL     OW30928   3.320   2.597  10.038
 6529SOL    HW130929   3.315   2.532  10.113
 6529SOL    HW230930   3.400   2.656  10.051
 6530SOL     OW30931   2.323   3.128  11.037
 6530SOL    HW130932   2.273   3.129  10.951
 6530SOL    HW230933   2.260   3.110  11.113
 6531SOL     OW30934   2.973   3.638   9.547
 6531SOL    HW130935   2.913   3.576   9.597
 6531SOL    HW230936   3.004   3.594   9.462
 6532SOL     OW30937   3.494   3.239   9.391
 6532SOL    HW130938   3.462   3.333   9.381
 6532SOL    HW230939   3.418   3.176   9.379
 6533SOL     OW30940   2.326   3.605   9.633
 6533SOL    HW130941   2.359   3.644   9.719
 6533SOL    HW230942   2.402   3.598   9.568
 6534SOL     OW30943   2.111   3.647  10.551
 6534SOL    HW130944   2.168   3.582  10.601
 6534SOL    HW230945   2.095   3.614  10.458
 6535SOL     OW30946   2.802   3.560  10.214
 6535SOL    HW130947   2.882   3.503  10.235
 6535SOL    HW230948   2.753   3.520  10.137
 6536SOL     OW30949   2.244   2.562   9.790
 6536SOL    HW130950   2.289   2.472   9.787
 6536SOL    HW230951   2.150   2.551   9.823
 6537SOL     OW30952   3.409   2.084  11.039
 6537SOL    HW130953   3.404   2.121  11.131
 6537SOL    HW230954   3.337   2.015  11.027
 6538SOL     OW30955   2.476   1.984   9.427
 6538SOL    HW130956   2.574   1.962   9.434
 6538SOL    HW230957   2.445   1.967   9.334
 6539SOL     OW30958   2.750   3.376  10.505
 6539SOL    HW130959   2.727   3.351  10.411
 6539SOL    HW230960   2.811   3.307  10.544
 6540SOL     OW30961   2.784   2.365  10.209
 6540SOL    HW130962   2.759   2.356  10.113
 6540SOL    HW230963   2.832   2.283  10.240
 6541SOL     OW30964   3.296   3.050   9.351
 6541SOL    HW130965   3.328   2.974   9.408
 6541SOL    HW230966   3.204   3.077   9.381
 6542SOL     OW30967   2.797   2.098   9.790
 6542SOL    HW130968   2.749   2.139   9.712
 6542SOL    HW230969   2.896   2.096   9.771
 6543SOL     OW30970   2.938   2.545  10.774
 6543SOL    HW130971   2.858   2.484  10.777
 6543SOL    HW230972   3.019   2.492  10.750
 6544SOL     OW30973   3.089   3.432  10.103
 6544SOL    HW130974   3.110   3.506  10.038
 6544SOL    HW230975   3.157   3.432  10.176
 6545SOL     OW30976   3.133   3.659   9.901
 6545SOL    HW130977   3.177   3.723   9.837
 6545SOL    HW230978   3.083   3.711   9.971
 6546SOL     OW30979   2.894   2.411   9.326
 6546SOL    HW130980   2.853   2.493   9.287
 6546SOL    HW230981   2.958   2.437   9.399
 6547SOL     OW30982   2.423   2.084  10.457
 6547SOL    HW130983   2.461   2.000  10.494
 6547SOL    HW230984   2.335   2.103  10.501
 6548SOL     OW30985   2.728   2.316   9.952
 6548SOL    HW130986   2.696   2.388   9.890
 6548SOL    HW230987   2.752   2.235   9.899
 6549SOL     OW30988   3.291   3.035  10.177
 6549SOL    HW130989   3.236   2.951  10.170
 6549SOL    HW230990   3.317   3.064  10.085
 6550SOL     OW30991   3.328   2.452  10.302
 6550SOL    HW130992   3.298   2.357  10.309
 6550SOL    HW230993   3.401   2.468  10.368
 6551SOL     OW30994   3.719   2.695   9.687
 6551SOL    HW130995   3.761   2.631   9.751
 6551SOL    HW230996   3.681   2.644   9.609
 6552SOL     OW30997   2.350   3.247   9.484
 6552SOL    HW130998   2.263   3.232   9.531
 6552SOL    HW230999   2.333   3.273   9.389
 6553SOL     OW31000   3.252   2.437   9.388
 6553SOL    HW131001   3.198   2.416   9.469
 6553SOL    HW231002   3.343   2.396   9.397
 6554SOL     OW31003   2.389   2.118   9.638
 6554SOL    HW131004   2.416   2.059   9.563
 6554SOL    HW231005   2.389   2.213   9.607
 6555SOL     OW31006   2.926   3.209  10.650
 6555SOL    HW131007   2.846   3.186  10.705
 6555SOL    HW231008   3.009   3.183  10.699
 6556SOL     OW31009   2.973   3.057  10.410
 6556SOL    HW131010   2.933   3.101  10.491
 6556SOL    HW231011   2.932   3.094  10.327
 6557SOL     OW31012   2.842   2.978  11.029
 6557SOL    HW131013   2.743   2.984  11.039
 6557SOL    HW231014   2.865   2.898  10.973
 6558SOL     OW31015   2.567   2.912   9.678
 6558SOL    HW131016   2.553   2.919   9.777
 6558SOL    HW231017   2.651   2.861   9.660
 6559SOL     OW31018   2.229   2.962   9.811
 6559SOL    HW131019   2.222   3.045   9.755
 6559SOL    HW231020   2.233   2.882   9.751
 6560SOL     OW31021   2.428   2.399  10.175
 6560SOL    HW131022   2.440   2.465  10.101
 6560SOL    HW231023   2.474   2.433  10.258
 6561SOL     OW31024   3.114   3.210   9.698
 6561SOL    HW131025   3.164   3.287   9.738
 6561SOL    HW231026   3.019   3.212   9.730
 6562SOL     OW31027   3.134   3.307  10.452
 6562SOL    HW131028   3.181   3.320  10.539
 6562SOL    HW231029   3.068   3.233  10.461
 6563SOL     OW31030   3.444   2.501   9.782
 6563SOL    HW131031   3.413   2.562   9.855
 6563SOL    HW231032   3.494   2.553   9.713
 6564SOL     OW31033   2.366   1.912  11.050
 6564SOL    HW131034   2.324   1.855  10.980
 6564SOL    HW231035   2.300   1.981  11.082
 6565SOL     OW31036   3.222   2.724  10.355
 6565SOL    HW131037   3.147   2.724  10.289
 6565SOL    HW231038   3.259   2.632  10.364
 6566SOL     OW31039   3.071   2.387   9.585
 6566SOL    HW131040   3.084   2.303   9.639
 6566SOL    HW231041   3.042   2.461   9.645
 6567SOL     OW31042   2.169   2.075  10.541
 6567SOL    HW131043   2.146   2.112  10.631
 6567SOL    HW231044   2.139   1.980  10.535
 6568SOL     OW31045   1.899   3.172  10.592
 6568SOL    HW131046   1.952   3.123  10.660
 6568SOL    HW231047   1.921   3.270  10.597
 6569SOL     OW31048   2.594   2.496  10.374
 6569SOL    HW131049   2.653   2.470  10.298
 6569SOL    HW231050   2.566   2.592  10.363
 6570SOL     OW31051   3.484   2.229   9.684
 6570SOL    HW131052   3.486   2.153   9.748
 6570SOL    HW231053   3.436   2.306   9.724
 6571SOL     OW31054   2.885   2.628  10.276
 6571SOL    HW131055   2.900   2.649  10.372
 6571SOL    HW231056   2.855   2.533  10.267
 6572SOL     OW31057   2.842   3.435  11.010
 6572SOL    HW131058   2.822   3.479  10.922
 6572SOL    HW231059   2.881   3.344  10.994
 6573SOL     OW31060   3.402   2.136   9.435
 6573SOL    HW131061   3.341   2.061   9.458
 6573SOL    HW231062   3.424   2.188   9.518
 6574SOL     OW31063   3.165   2.700   9.352
 6574SOL    HW131064   3.199   2.607   9.367
 6574SOL    HW231065   3.183   2.727   9.257
 6575SOL     OW31066   2.930   3.195  10.159
 6575SOL    HW131067   2.937   3.111  10.104
 6575SOL    HW231068   2.992   3.264  10.123
 6576SOL     OW31069   2.181   2.672  10.259
 6576SOL    HW131070   2.274   2.708  10.264
 6576SOL    HW231071   2.175   2.587  10.311
 6577SOL     OW31072   2.677   2.434   9.635
 6577SOL    HW131073   2.684   2.345   9.589
 6577SOL    HW231074   2.583   2.468   9.627
 6578SOL     OW31075   2.114   3.426  11.054
 6578SOL    HW131076   2.084   3.483  11.130
 6578SOL    HW231077   2.107   3.329  11.080
 6579SOL     OW31078   2.792   3.540  10.775
 6579SOL    HW131079   2.768   3.522  10.680
 6579SOL    HW231080   2.822   3.634  10.785
 6580SOL     OW31081   2.335   2.362   9.501
 6580SOL    HW131082   2.396   2.442   9.505
 6580SOL    HW231083   2.240   2.393   9.508
 6581SOL     OW31084   2.021   2.999  10.776
 6581SOL    HW131085   2.043   2.938  10.852
 6581SOL    HW231086   2.031   2.950  10.690
 6582SOL     OW31087   3.209   2.921  10.544
 6582SOL    HW131088   3.233   2.858  10.470
 6582SOL    HW231089   3.119   2.961  10.526
 6583SOL     OW31090   3.164   2.717   9.619
 6583SOL    HW131091   3.078   2.686   9.661
 6583SOL    HW231092   3.160   2.703   9.520
 6584SOL     OW31093   3.114   3.593  10.438
 6584SOL    HW131094   3.198   3.598  10.384
 6584SOL    HW231095   3.091   3.497  10.456
 6585SOL     OW31096   2.550   3.524  11.026
 6585SOL    HW131097   2.494   3.605  11.035
 6585SOL    HW231098   2.602   3.528  10.940
 6586SOL     OW31099   3.588   1.997   9.833
 6586SOL    HW131100   3.661   1.980   9.766
 6586SOL    HW231101   3.557   1.910   9.871
 6587SOL     OW31102   3.250   3.435   9.787
 6587SOL    HW131103   3.317   3.447   9.713
 6587SOL    HW231104   3.210   3.524   9.810
 6588SOL     OW31105   1.992   3.656  11.161
 6588SOL    HW131106   1.951   3.582  11.214
 6588SOL    HW231107   2.056   3.707  11.219
 6589SOL     OW31108   3.142   2.789   9.982
 6589SOL    HW131109   3.202   2.708   9.984
 6589SOL    HW231110   3.182   2.858   9.922
 6590SOL     OW31111   2.692   3.135  10.732
 6590SOL    HW131112   2.687   3.168  10.827
 6590SOL    HW231113   2.606   3.154  10.686
 6591SOL     OW31114   2.534   3.478   9.464
 6591SOL    HW131115   2.543   3.488   9.365
 6591SOL    HW231116   2.494   3.389   9.485
 6592SOL     OW31117   3.703   2.037  10.273
 6592SOL    HW131118   3.742   1.952  10.237
 6592SOL    HW231119   3.605   2.039  10.254
 6593SOL     OW31120   2.125   2.188  10.030
 6593SOL    HW131121   2.046   2.239   9.996
 6593SOL    HW231122   2.116   2.173  10.128
 6594SOL     OW31123   3.056   3.474   9.341
 6594SOL    HW131124   3.062   3.381   9.378
 6594SOL    HW231125   2.997   3.474   9.261
 6595SOL     OW31126   2.778   2.772   9.601
 6595SOL    HW131127   2.841   2.810   9.533
 6595SOL    HW231128   2.818   2.689   9.640
 6596SOL     OW31129   3.366   3.469   9.354
 6596SOL    HW131130   3.274   3.506   9.361
 6596SOL    HW231131   3.404   3.489   9.264
 6597SOL     OW31132   2.234   3.150  10.800
 6597SOL    HW131133   2.221   3.243  10.766
 6597SOL    HW231134   2.150   3.098  10.787
 6598SOL     OW31135   2.901   2.960  10.006
 6598SOL    HW131136   2.831   2.913  10.060
 6598SOL    HW231137   2.960   2.892   9.963
 6599SOL     OW31138   2.876   2.098  10.281
 6599SOL    HW131139   2.868   2.062  10.188
 6599SOL    HW231140   2.874   2.022  10.346
 6600SOL     OW31141   2.452   3.349   9.801
 6600SOL    HW131142   2.494   3.291   9.731
 6600SOL    HW231143   2.408   3.428   9.757
 6601SOL     OW31144   3.571   2.247  10.691
 6601SOL    HW131145   3.644   2.316  10.695
 6601SOL    HW231146   3.599   2.172  10.632
 6602SOL     OW31147   1.937   2.207   9.343
 6602SOL    HW131148   1.845   2.179   9.314
 6602SOL    HW231149   1.968   2.284   9.287
 6603SOL     OW31150   3.302   2.718  10.708
 6603SOL    HW131151   3.245   2.770  10.645
 6603SOL    HW231152   3.398   2.730  10.684
 6604SOL     OW31153   3.045   3.197   9.429
 6604SOL    HW131154   2.946   3.186   9.431
 6604SOL    HW231155   3.079   3.212   9.522
 6605SOL     OW31156   3.355   3.629  10.269
 6605SOL    HW131157   3.388   3.693  10.200
 6605SOL    HW231158   3.421   3.623  10.344
 6606SOL     OW31159   2.578   2.427  11.018
 6606SOL    HW131160   2.597   2.492  11.092
 6606SOL    HW231161   2.638   2.347  11.027
 6607SOL     OW31162   3.312   3.082  10.943
 6607SOL    HW131163   3.303   3.072  11.042
 6607SOL    HW231164   3.408   3.075  10.917
 6608SOL     OW31165   2.456   2.607   9.962
 6608SOL    HW131166   2.506   2.692   9.943
 6608SOL    HW231167   2.368   2.609   9.914
 6609SOL     OW31168   3.639   2.204  10.952
 6609SOL    HW131169   3.622   2.235  10.858
 6609SOL    HW231170   3.555   2.167  10.990
 6610SOL     OW31171   2.721   3.236   9.326
 6610SOL    HW131172   2.675   3.251   9.414
 6610SOL    HW231173   2.765   3.321   9.296
 6611SOL     OW31174   2.523   3.652  10.263
 6611SOL    HW131175   2.477   3.740  10.250
 6611SOL    HW231176   2.622   3.664  10.256
 6612SOL     OW31177   2.721   2.818  10.171
 6612SOL    HW131178   2.775   2.749  10.219
 6612SOL    HW231179   2.689   2.887  10.237
 6613SOL     OW31180   2.945   2.846   9.397
 6613SOL    HW131181   2.922   2.899   9.315
 6613SOL    HW231182   3.026   2.790   9.378
 6614SOL     OW31183   2.534   3.253  10.934
 6614SOL    HW131184   2.456   3.203  10.972
 6614SOL    HW231185   2.531   3.348  10.965
 6615SOL     OW31186   3.686   2.054  10.537
 6615SOL    HW131187   3.682   1.964  10.581
 6615SOL    HW231188   3.689   2.043  10.438
 6616SOL     OW31189   2.290   2.286   9.830
 6616SOL    HW131190   2.320   2.214   9.768
 6616SOL    HW231191   2.251   2.246   9.913
 6617SOL     OW31192   2.674   3.448   9.997
 6617SOL    HW131193   2.706   3.458   9.903
 6617SOL    HW231194   2.595   3.386   9.999
 6618SOL     OW31195   2.632   3.192   9.611
 6618SOL    HW131196   2.586   3.105   9.628
 6618SOL    HW231197   2.723   3.189   9.652
 6619SOL     OW31198   2.480   3.429  10.594
 6619SOL    HW131199   2.475   3.511  10.651
 6619SOL    HW231200   2.569   3.426  10.549
 6620SOL     OW31201   3.214   1.914   9.478
 6620SOL    HW131202   3.249   1.873   9.394
 6620SOL    HW231203   3.124   1.876   9.498
 6621SOL     OW31204   3.162   2.315  10.001
 6621SOL    HW131205   3.103   2.395  10.005
 6621SOL    HW231206   3.177   2.280  10.094
 6622SOL     OW31207   3.455   2.083  10.192
 6622SOL    HW131208   3.371   2.082  10.246
 6622SOL    HW231209   3.457   2.166  10.136
 6623SOL     OW31210   1.901   2.939   9.610
 6623SOL    HW131211   2.000   2.928   9.601
 6623SOL    HW231212   1.861   2.853   9.642
 6624SOL     OW31213   2.737   3.508   9.647
 6624SOL    HW131214   2.660   3.473   9.593
 6624SOL    HW231215   2.705   3.579   9.709
 6625SOL     OW31216   2.548   3.023  12.975
 6625SOL    HW131217   2.608   3.102  12.989
 6625SOL    HW231218   2.462   3.054  12.934
 6626SOL     OW31219   2.300   2.254  12.671
 6626SOL    HW131220   2.382   2.198  12.680
 6626SOL    HW231221   2.219   2.196  12.675
 6627SOL     OW31222   2.093   3.575  11.655
 6627SOL    HW131223   2.127   3.652  11.709
 6627SOL    HW231224   2.137   3.575  11.565
 6628SOL     OW31225   2.092   3.296  11.710
 6628SOL    HW131226   2.066   3.392  11.710
 6628SOL    HW231227   2.021   3.242  11.755
 6629SOL     OW31228   1.984   2.505  11.735
 6629SOL    HW131229   1.939   2.417  11.752
 6629SOL    HW231230   1.983   2.559  11.819
 6630SOL     OW31231   1.889   3.458  11.289
 6630SOL    HW131232   1.870   3.362  11.310
 6630SOL    HW231233   1.856   3.516  11.364
 6631SOL     OW31234   3.551   2.784  11.784
 6631SOL    HW131235   3.646   2.755  11.792
 6631SOL    HW231236   3.543   2.849  11.709
 6632SOL     OW31237   3.503   2.970  11.604
 6632SOL    HW131238   3.589   2.972  11.552
 6632SOL    HW231239   3.517   3.017  11.692
 6633SOL     OW31240   3.155   3.090  12.595
 6633SOL    HW131241   3.192   3.017  12.537
 6633SOL    HW231242   3.207   3.095  12.680
 6634SOL     OW31243   3.387   2.861  11.362
 6634SOL    HW131244   3.324   2.785  11.375
 6634SOL    HW231245   3.435   2.879  11.448
 6635SOL     OW31246   3.049   3.654  12.788
 6635SOL    HW131247   3.073   3.714  12.712
 6635SOL    HW231248   3.056   3.559  12.758
 6636SOL     OW31249   3.328   3.279  12.125
 6636SOL    HW131250   3.269   3.285  12.205
 6636SOL    HW231251   3.313   3.191  12.079
 6637SOL     OW31252   3.438   3.524  11.479
 6637SOL    HW131253   3.527   3.570  11.482
 6637SOL    HW231254   3.417   3.500  11.384
 6638SOL     OW31255   2.669   2.467  12.637
 6638SOL    HW131256   2.622   2.464  12.726
 6638SOL    HW231257   2.618   2.412  12.571
 6639SOL     OW31258   1.938   2.673  11.961
 6639SOL    HW131259   2.037   2.661  11.970
 6639SOL    HW231260   1.914   2.768  11.982
 6640SOL     OW31261   1.992   3.683  12.743
 6640SOL    HW131262   1.982   3.668  12.842
 6640SOL    HW231263   1.906   3.719  12.707
 6641SOL     OW31264   3.224   3.006  11.717
 6641SOL    HW131265   3.307   2.977  11.669
 6641SOL    HW231266   3.175   3.073  11.661
 6642SOL     OW31267   2.213   3.663  12.025
 6642SOL    HW131268   2.263   3.577  12.031
 6642SOL    HW231269   2.278   3.740  12.022
 6643SOL     OW31270   3.657   2.928  12.045
 6643SOL    HW131271   3.595   2.913  11.969
 6643SOL    HW231272   3.605   2.939  12.130
 6644SOL     OW31273   3.320   2.597  11.900
 6644SOL    HW131274   3.315   2.532  11.975
 6644SOL    HW231275   3.400   2.656  11.913
 6645SOL     OW31276   2.323   3.128  12.899
 6645SOL    HW131277   2.273   3.129  12.813
 6645SOL    HW231278   2.260   3.110  12.975
 6646SOL     OW31279   2.064   2.147  12.670
 6646SOL    HW131280   1.984   2.207  12.657
 6646SOL    HW231281   2.054   2.098  12.756
 6647SOL     OW31282   3.494   3.239  11.253
 6647SOL    HW131283   3.462   3.333  11.243
 6647SOL    HW231284   3.418   3.176  11.241
 6648SOL     OW31285   2.326   3.605  11.495
 6648SOL    HW131286   2.359   3.644  11.581
 6648SOL    HW231287   2.402   3.598  11.430
 6649SOL     OW31288   2.643   2.126  12.921
 6649SOL    HW131289   2.710   2.065  12.964
 6649SOL    HW231290   2.570   2.145  12.986
 6650SOL     OW31291   2.750   3.376  12.367
 6650SOL    HW131292   2.727   3.351  12.273
 6650SOL    HW231293   2.811   3.307  12.406
 6651SOL     OW31294   2.784   2.365  12.071
 6651SOL    HW131295   2.759   2.356  11.975
 6651SOL    HW231296   2.832   2.283  12.102
 6652SOL     OW31297   3.296   3.050  11.213
 6652SOL    HW131298   3.328   2.974  11.270
 6652SOL    HW231299   3.204   3.077  11.243
 6653SOL     OW31300   3.089   3.432  11.965
 6653SOL    HW131301   3.110   3.506  11.900
 6653SOL    HW231302   3.157   3.432  12.038
 6654SOL     OW31303   2.894   2.411  11.188
 6654SOL    HW131304   2.853   2.493  11.149
 6654SOL    HW231305   2.958   2.437  11.261
 6655SOL     OW31306   3.291   3.035  12.039
 6655SOL    HW131307   3.236   2.951  12.032
 6655SOL    HW231308   3.317   3.064  11.947
 6656SOL     OW31309   2.350   3.247  11.346
 6656SOL    HW131310   2.263   3.232  11.393
 6656SOL    HW231311   2.333   3.273  11.251
 6657SOL     OW31312   3.500   2.961  12.251
 6657SOL    HW131313   3.505   3.042  12.310
 6657SOL    HW231314   3.414   2.963  12.200
 6658SOL     OW31315   2.777   1.951  12.574
 6658SOL    HW131316   2.802   1.931  12.479
 6658SOL    HW231317   2.849   2.007  12.616
 6659SOL     OW31318   2.842   2.978  12.891
 6659SOL    HW131319   2.743   2.984  12.901
 6659SOL    HW231320   2.865   2.898  12.835
 6660SOL     OW31321   2.272   2.675  12.423
 6660SOL    HW131322   2.358   2.687  12.473
 6660SOL    HW231323   2.230   2.588  12.450
 6661SOL     OW31324   3.136   2.248  12.434
 6661SOL    HW131325   3.157   2.322  12.498
 6661SOL    HW231326   3.047   2.265  12.391
 6662SOL     OW31327   2.229   2.962  11.673
 6662SOL    HW131328   2.222   3.045  11.617
 6662SOL    HW231329   2.233   2.882  11.613
 6663SOL     OW31330   3.444   2.501  11.644
 6663SOL    HW131331   3.413   2.562  11.717
 6663SOL    HW231332   3.494   2.553  11.575
 6664SOL     OW31333   2.875   1.967  12.942
 6664SOL    HW131334   2.881   2.052  12.890
 6664SOL    HW231335   2.907   1.891  12.885
 6665SOL     OW31336   2.366   1.912  12.912
 6665SOL    HW131337   2.324   1.855  12.842
 6665SOL    HW231338   2.300   1.981  12.944
 6666SOL     OW31339   1.899   3.172  12.454
 6666SOL    HW131340   1.952   3.123  12.522
 6666SOL    HW231341   1.921   3.270  12.459
 6667SOL     OW31342   2.169   1.925  11.790
 6667SOL    HW131343   2.158   2.019  11.823
 6667SOL    HW231344   2.164   1.862  11.867
 6668SOL     OW31345   3.721   3.380  12.777
 6668SOL    HW131346   3.735   3.407  12.682
 6668SOL    HW231347   3.804   3.402  12.830
 6669SOL     OW31348   3.402   2.136  11.297
 6669SOL    HW131349   3.341   2.061  11.320
 6669SOL    HW231350   3.424   2.188  11.380
 6670SOL     OW31351   3.022   2.069  12.649
 6670SOL    HW131352   3.022   2.133  12.726
 6670SOL    HW231353   3.050   2.117  12.566
 6671SOL     OW31354   1.950   3.663  12.099
 6671SOL    HW131355   1.908   3.577  12.072
 6671SOL    HW231356   2.044   3.666  12.065
 6672SOL     OW31357   2.366   3.430  12.082
 6672SOL    HW131358   2.432   3.504  12.091
 6672SOL    HW231359   2.410   3.351  12.040
 6673SOL     OW31360   2.864   2.658  12.410
 6673SOL    HW131361   2.905   2.626  12.496
 6673SOL    HW231362   2.768   2.631  12.407
 6674SOL     OW31363   3.231   2.812  12.832
 6674SOL    HW131364   3.270   2.901  12.852
 6674SOL    HW231365   3.241   2.792  12.735
 6675SOL     OW31366   3.519   2.466  12.378
 6675SOL    HW131367   3.481   2.397  12.440
 6675SOL    HW231368   3.601   2.430  12.334
 6676SOL     OW31369   2.792   3.540  12.637
 6676SOL    HW131370   2.768   3.522  12.542
 6676SOL    HW231371   2.822   3.634  12.647
 6677SOL     OW31372   3.114   3.593  12.300
 6677SOL    HW131373   3.198   3.598  12.246
 6677SOL    HW231374   3.091   3.497  12.318
 6678SOL     OW31375   2.550   3.524  12.888
 6678SOL    HW131376   2.494   3.605  12.897
 6678SOL    HW231377   2.602   3.528  12.802
 6679SOL     OW31378   1.992   3.656  13.023
 6679SOL    HW131379   1.951   3.582  13.076
 6679SOL    HW231380   2.056   3.707  13.081
 6680SOL     OW31381   3.142   2.789  11.844
 6680SOL    HW131382   3.202   2.708  11.846
 6680SOL    HW231383   3.182   2.858  11.784
 6681SOL     OW31384   2.534   3.478  11.326
 6681SOL    HW131385   2.543   3.488  11.227
 6681SOL    HW231386   2.494   3.389  11.347
 6682SOL     OW31387   3.512   3.582  12.566
 6682SOL    HW131388   3.565   3.592  12.482
 6682SOL    HW231389   3.485   3.672  12.600
 6683SOL     OW31390   3.056   3.474  11.203
 6683SOL    HW131391   3.062   3.381  11.240
 6683SOL    HW231392   2.997   3.474  11.123
 6684SOL     OW31393   3.366   3.469  11.216
 6684SOL    HW131394   3.274   3.506  11.223
 6684SOL    HW231395   3.404   3.489  11.126
 6685SOL     OW31396   2.234   3.150  12.662
 6685SOL    HW131397   2.221   3.243  12.628
 6685SOL    HW231398   2.150   3.098  12.649
 6686SOL     OW31399   2.452   3.349  11.663
 6686SOL    HW131400   2.494   3.291  11.593
 6686SOL    HW231401   2.408   3.428  11.619
 6687SOL     OW31402   2.534   2.065  12.661
 6687SOL    HW131403   2.624   2.049  12.621
 6687SOL    HW231404   2.542   2.070  12.760
 6688SOL     OW31405   1.937   2.207  11.205
 6688SOL    HW131406   1.845   2.179  11.176
 6688SOL    HW231407   1.968   2.284  11.149
 6689SOL     OW31408   3.045   3.197  11.291
 6689SOL    HW131409   2.946   3.186  11.293
 6689SOL    HW231410   3.079   3.212  11.384
 6690SOL     OW31411   2.475   2.704  12.603
 6690SOL    HW131412   2.531   2.785  12.586
 6690SOL    HW231413   2.534   2.624  12.606
 6691SOL     OW31414   3.312   3.082  12.805
 6691SOL    HW131415   3.303   3.072  12.904
 6691SOL    HW231416   3.408   3.075  12.779
 6692SOL     OW31417   2.721   3.236  11.188
 6692SOL    HW131418   2.675   3.251  11.276
 6692SOL    HW231419   2.765   3.321  11.158
 6693SOL     OW31420   1.941   3.102  11.825
 6693SOL    HW131421   1.940   3.055  11.913
 6693SOL    HW231422   2.023   3.074  11.774
 6694SOL     OW31423   2.534   3.253  12.796
 6694SOL    HW131424   2.456   3.203  12.834
 6694SOL    HW231425   2.531   3.348  12.827
 6695SOL     OW31426   2.179   2.409  12.452
 6695SOL    HW131427   2.217   2.350  12.524
 6695SOL    HW231428   2.219   2.383  12.364
 6696SOL     OW31429   2.674   3.448  11.859
 6696SOL    HW131430   2.706   3.458  11.765
 6696SOL    HW231431   2.595   3.386  11.861
 6697SOL     OW31432   2.997   2.565  13.751
 6697SOL    HW131433   3.054   2.643  13.726
 6697SOL    HW231434   2.937   2.591  13.827
 6698SOL     OW31435   3.617   2.469  13.265
 6698SOL    HW131436   3.605   2.456  13.166
 6698SOL    HW231437   3.587   2.388  13.314
 6699SOL     OW31438   2.712   2.660  14.857
 6699SOL    HW131439   2.708   2.736  14.922
 6699SOL    HW231440   2.734   2.696  14.766
 6700SOL     OW31441   3.465   2.309  13.771
 6700SOL    HW131442   3.391   2.355  13.721
 6700SOL    HW231443   3.516   2.377  13.824
 6701SOL     OW31444   2.102   2.953  13.920
 6701SOL    HW131445   2.116   2.869  13.972
 6701SOL    HW231446   2.047   3.017  13.975
 6702SOL     OW31447   1.889   3.458  13.151
 6702SOL    HW131448   1.870   3.362  13.172
 6702SOL    HW231449   1.856   3.516  13.226
 6703SOL     OW31450   3.551   2.784  13.646
 6703SOL    HW131451   3.646   2.755  13.654
 6703SOL    HW231452   3.543   2.849  13.571
 6704SOL     OW31453   3.503   2.970  13.466
 6704SOL    HW131454   3.589   2.972  13.414
 6704SOL    HW231455   3.517   3.017  13.554
 6705SOL     OW31456   3.155   3.090  14.457
 6705SOL    HW131457   3.192   3.017  14.399
 6705SOL    HW231458   3.207   3.095  14.542
 6706SOL     OW31459   3.049   3.654  14.650
 6706SOL    HW131460   3.073   3.714  14.574
 6706SOL    HW231461   3.056   3.559  14.620
 6707SOL     OW31462   3.328   3.279  13.987
 6707SOL    HW131463   3.269   3.285  14.067
 6707SOL    HW231464   3.313   3.191  13.941
 6708SOL     OW31465   2.903   2.563  13.463
 6708SOL    HW131466   2.929   2.559  13.559
 6708SOL    HW231467   2.818   2.512  13.449
 6709SOL     OW31468   1.938   2.673  13.823
 6709SOL    HW131469   2.037   2.661  13.832
 6709SOL    HW231470   1.914   2.768  13.844
 6710SOL     OW31471   1.992   3.683  14.605
 6710SOL    HW131472   1.982   3.668  14.704
 6710SOL    HW231473   1.906   3.719  14.569
 6711SOL     OW31474   3.224   3.006  13.579
 6711SOL    HW131475   3.307   2.977  13.531
 6711SOL    HW231476   3.175   3.073  13.523
 6712SOL     OW31477   3.657   2.928  13.907
 6712SOL    HW131478   3.595   2.913  13.831
 6712SOL    HW231479   3.605   2.939  13.992
 6713SOL     OW31480   3.320   2.597  13.762
 6713SOL    HW131481   3.315   2.532  13.837
 6713SOL    HW231482   3.400   2.656  13.775
 6714SOL     OW31483   3.262   1.969  13.460
 6714SOL    HW131484   3.238   1.932  13.370
 6714SOL    HW231485   3.361   1.985  13.464
 6715SOL     OW31486   3.409   2.084  14.763
 6715SOL    HW131487   3.404   2.121  14.855
 6715SOL    HW231488   3.337   2.015  14.751
 6716SOL     OW31489   2.665   3.264  13.958
 6716SOL    HW131490   2.755   3.278  13.916
 6716SOL    HW231491   2.594   3.266  13.887
 6717SOL     OW31492   2.784   2.365  13.933
 6717SOL    HW131493   2.759   2.356  13.837
 6717SOL    HW231494   2.832   2.283  13.964
 6718SOL     OW31495   2.159   1.897  13.205
 6718SOL    HW131496   2.208   1.981  13.184
 6718SOL    HW231497   2.221   1.832  13.250
 6719SOL     OW31498   2.938   2.545  14.498
 6719SOL    HW131499   2.858   2.484  14.501
 6719SOL    HW231500   3.019   2.492  14.474
 6720SOL     OW31501   2.728   2.316  13.676
 6720SOL    HW131502   2.696   2.388  13.614
 6720SOL    HW231503   2.752   2.235  13.623
 6721SOL     OW31504   3.291   3.035  13.901
 6721SOL    HW131505   3.236   2.951  13.894
 6721SOL    HW231506   3.317   3.064  13.809
 6722SOL     OW31507   3.328   2.452  14.026
 6722SOL    HW131508   3.298   2.357  14.033
 6722SOL    HW231509   3.401   2.468  14.092
 6723SOL     OW31510   3.526   3.142  13.691
 6723SOL    HW131511   3.625   3.150  13.705
 6723SOL    HW231512   3.481   3.226  13.722
 6724SOL     OW31513   3.252   2.437  13.112
 6724SOL    HW131514   3.198   2.416  13.193
 6724SOL    HW231515   3.343   2.396  13.121
 6725SOL     OW31516   2.926   3.209  14.374
 6725SOL    HW131517   2.846   3.186  14.429
 6725SOL    HW231518   3.009   3.183  14.423
 6726SOL     OW31519   3.500   2.961  14.113
 6726SOL    HW131520   3.505   3.042  14.172
 6726SOL    HW231521   3.414   2.963  14.062
 6727SOL     OW31522   3.114   3.210  13.422
 6727SOL    HW131523   3.164   3.287  13.462
 6727SOL    HW231524   3.019   3.212  13.454
 6728SOL     OW31525   3.444   2.501  13.506
 6728SOL    HW131526   3.413   2.562  13.579
 6728SOL    HW231527   3.494   2.553  13.437
 6729SOL     OW31528   3.071   2.387  13.309
 6729SOL    HW131529   3.084   2.303  13.363
 6729SOL    HW231530   3.042   2.461  13.369
 6730SOL     OW31531   2.169   2.075  14.265
 6730SOL    HW131532   2.146   2.112  14.355
 6730SOL    HW231533   2.139   1.980  14.259
 6731SOL     OW31534   1.899   3.172  14.316
 6731SOL    HW131535   1.952   3.123  14.384
 6731SOL    HW231536   1.921   3.270  14.321
 6732SOL     OW31537   3.484   2.229  13.408
 6732SOL    HW131538   3.486   2.153  13.472
 6732SOL    HW231539   3.436   2.306  13.448
 6733SOL     OW31540   2.885   2.628  14.000
 6733SOL    HW131541   2.900   2.649  14.096
 6733SOL    HW231542   2.855   2.533  13.991
 6734SOL     OW31543   2.842   3.435  14.734
 6734SOL    HW131544   2.822   3.479  14.646
 6734SOL    HW231545   2.881   3.344  14.718
 6735SOL     OW31546   3.721   3.380  14.639
 6735SOL    HW131547   3.735   3.407  14.544
 6735SOL    HW231548   3.804   3.402  14.692
 6736SOL     OW31549   3.402   2.136  13.159
 6736SOL    HW131550   3.341   2.061  13.182
 6736SOL    HW231551   3.424   2.188  13.242
 6737SOL     OW31552   3.000   2.242  14.712
 6737SOL    HW131553   2.955   2.305  14.776
 6737SOL    HW231554   3.093   2.273  14.695
 6738SOL     OW31555   3.022   2.069  14.511
 6738SOL    HW131556   3.022   2.133  14.588
 6738SOL    HW231557   3.050   2.117  14.428
 6739SOL     OW31558   1.870   3.188  13.234
 6739SOL    HW131559   1.777   3.209  13.203
 6739SOL    HW231560   1.880   3.089  13.247
 6740SOL     OW31561   2.864   2.658  14.272
 6740SOL    HW131562   2.905   2.626  14.358
 6740SOL    HW231563   2.768   2.631  14.269
 6741SOL     OW31564   2.677   2.434  13.359
 6741SOL    HW131565   2.684   2.345  13.313
 6741SOL    HW231566   2.583   2.468  13.351
 6742SOL     OW31567   2.792   3.540  14.499
 6742SOL    HW131568   2.768   3.522  14.404
 6742SOL    HW231569   2.822   3.634  14.509
 6743SOL     OW31570   3.621   3.609  14.188
 6743SOL    HW131571   3.682   3.639  14.115
 6743SOL    HW231572   3.583   3.520  14.166
 6744SOL     OW31573   1.945   3.120  14.056
 6744SOL    HW131574   1.940   3.119  14.156
 6744SOL    HW231575   1.862   3.079  14.018
 6745SOL     OW31576   3.250   3.435  13.511
 6745SOL    HW131577   3.317   3.447  13.437
 6745SOL    HW231578   3.210   3.524  13.534
 6746SOL     OW31579   1.992   3.656  14.885
 6746SOL    HW131580   1.951   3.582  14.938
 6746SOL    HW231581   2.056   3.707  14.943
 6747SOL     OW31582   3.142   2.789  13.706
 6747SOL    HW131583   3.202   2.708  13.708
 6747SOL    HW231584   3.182   2.858  13.646
 6748SOL     OW31585   2.684   2.864  14.406
 6748SOL    HW131586   2.724   2.863  14.314
 6748SOL    HW231587   2.694   2.956  14.446
 6749SOL     OW31588   2.234   3.150  14.524
 6749SOL    HW131589   2.221   3.243  14.490
 6749SOL    HW231590   2.150   3.098  14.511
 6750SOL     OW31591   3.476   3.154  14.323
 6750SOL    HW131592   3.536   3.157  14.403
 6750SOL    HW231593   3.401   3.218  14.336
 6751SOL     OW31594   2.876   2.098  14.005
 6751SOL    HW131595   2.868   2.062  13.912
 6751SOL    HW231596   2.874   2.022  14.070
 6752SOL     OW31597   1.967   2.875  14.760
 6752SOL    HW131598   1.890   2.842  14.814
 6752SOL    HW231599   2.052   2.845  14.802
 6753SOL     OW31600   3.045   3.197  13.153
 6753SOL    HW131601   2.946   3.186  13.155
 6753SOL    HW231602   3.079   3.212  13.246
 6754SOL     OW31603   3.355   3.629  13.993
 6754SOL    HW131604   3.388   3.693  13.924
 6754SOL    HW231605   3.421   3.623  14.068
 6755SOL     OW31606   2.252   3.603  14.594
 6755SOL    HW131607   2.161   3.644  14.592
 6755SOL    HW231608   2.245   3.509  14.626
 6756SOL     OW31609   3.087   2.187  13.483
 6756SOL    HW131610   3.152   2.113  13.472
 6756SOL    HW231611   3.107   2.237  13.567
 6757SOL     OW31612   2.456   2.607  13.686
 6757SOL    HW131613   2.506   2.692  13.667
 6757SOL    HW231614   2.368   2.609  13.638
 6758SOL     OW31615   3.723   3.431  13.885
 6758SOL    HW131616   3.652   3.419  13.815
 6758SOL    HW231617   3.724   3.352  13.945
 6759SOL     OW31618   3.567   3.349  14.138
 6759SOL    HW131619   3.474   3.324  14.111
 6759SOL    HW231620   3.593   3.299  14.220
 6760SOL     OW31621   2.179   2.409  14.314
 6760SOL    HW131622   2.217   2.350  14.386
 6760SOL    HW231623   2.219   2.383  14.226
 6761SOL     OW31624   2.674   3.448  13.721
 6761SOL    HW131625   2.706   3.458  13.627
 6761SOL    HW231626   2.595   3.386  13.723
 6762SOL     OW31627   2.632   3.192  13.335
 6762SOL    HW131628   2.586   3.105  13.352
 6762SOL    HW231629   2.723   3.189  13.376
 6763SOL     OW31630   3.214   1.914  13.202
 6763SOL    HW131631   3.249   1.873  13.118
 6763SOL    HW231632   3.124   1.876  13.222
 6764SOL     OW31633   3.162   2.315  13.725
 6764SOL    HW131634   3.103   2.395  13.729
 6764SOL    HW231635   3.177   2.280  13.818
 6765SOL     OW31636   2.737   3.508  13.371
 6765SOL    HW131637   2.660   3.473  13.317
 6765SOL    HW231638   2.705   3.579  13.433
 6766SOL     OW31639   2.092   2.490  15.009
 6766SOL    HW131640   1.999   2.488  15.046
 6766SOL    HW231641   2.093   2.451  14.917
 6767SOL     OW31642   3.417   3.373  15.599
 6767SOL    HW131643   3.360   3.357  15.680
 6767SOL    HW231644   3.358   3.383  15.519
 6768SOL     OW31645   2.712   2.660  16.720
 6768SOL    HW131646   2.708   2.736  16.785
 6768SOL    HW231647   2.734   2.696  16.629
 6769SOL     OW31648   3.465   2.309  15.633
 6769SOL    HW131649   3.391   2.355  15.583
 6769SOL    HW231650   3.516   2.377  15.686
 6770SOL     OW31651   1.984   2.505  15.459
 6770SOL    HW131652   1.939   2.417  15.476
 6770SOL    HW231653   1.983   2.559  15.543
 6771SOL     OW31654   3.704   3.629  15.255
 6771SOL    HW131655   3.758   3.600  15.335
 6771SOL    HW231656   3.734   3.719  15.226
 6772SOL     OW31657   3.551   2.784  15.508
 6772SOL    HW131658   3.646   2.755  15.516
 6772SOL    HW231659   3.543   2.849  15.433
 6773SOL     OW31660   3.503   2.970  15.328
 6773SOL    HW131661   3.589   2.972  15.276
 6773SOL    HW231662   3.517   3.017  15.416
 6774SOL     OW31663   2.059   2.838  16.161
 6774SOL    HW131664   2.148   2.793  16.147
 6774SOL    HW231665   1.986   2.773  16.142
 6775SOL     OW31666   3.387   2.861  15.086
 6775SOL    HW131667   3.324   2.785  15.099
 6775SOL    HW231668   3.435   2.879  15.172
 6776SOL     OW31669   3.049   3.654  16.513
 6776SOL    HW131670   3.073   3.714  16.437
 6776SOL    HW231671   3.056   3.559  16.483
 6777SOL     OW31672   3.529   3.576  15.468
 6777SOL    HW131673   3.488   3.553  15.380
 6777SOL    HW231674   3.511   3.502  15.533
 6778SOL     OW31675   3.438   3.524  15.203
 6778SOL    HW131676   3.527   3.570  15.206
 6778SOL    HW231677   3.417   3.500  15.108
 6779SOL     OW31678   2.669   2.467  16.362
 6779SOL    HW131679   2.622   2.464  16.451
 6779SOL    HW231680   2.618   2.412  16.296
 6780SOL     OW31681   2.835   2.752  16.469
 6780SOL    HW131682   2.881   2.668  16.440
 6780SOL    HW231683   2.779   2.786  16.394
 6781SOL     OW31684   2.853   2.272  16.139
 6781SOL    HW131685   2.776   2.306  16.193
 6781SOL    HW231686   2.819   2.221  16.060
 6782SOL     OW31687   2.903   2.563  15.325
 6782SOL    HW131688   2.929   2.559  15.421
 6782SOL    HW231689   2.818   2.512  15.311
 6783SOL     OW31690   1.938   2.673  15.685
 6783SOL    HW131691   2.037   2.661  15.694
 6783SOL    HW231692   1.914   2.768  15.706
 6784SOL     OW31693   3.581   2.447  16.728
 6784SOL    HW131694   3.555   2.536  16.692
 6784SOL    HW231695   3.579   2.379  16.655
 6785SOL     OW31696   3.224   3.006  15.441
 6785SOL    HW131697   3.307   2.977  15.393
 6785SOL    HW231698   3.175   3.073  15.385
 6786SOL     OW31699   2.412   2.058  15.781
 6786SOL    HW131700   2.407   2.053  15.881
 6786SOL    HW231701   2.414   2.154  15.752
 6787SOL     OW31702   2.870   3.318  15.373
 6787SOL    HW131703   2.824   3.390  15.321
 6787SOL    HW231704   2.866   3.338  15.471
 6788SOL     OW31705   3.657   2.928  15.769
 6788SOL    HW131706   3.595   2.913  15.693
 6788SOL    HW231707   3.605   2.939  15.854
 6789SOL     OW31708   3.320   2.597  15.624
 6789SOL    HW131709   3.315   2.532  15.699
 6789SOL    HW231710   3.400   2.656  15.637
 6790SOL     OW31711   3.262   1.969  15.322
 6790SOL    HW131712   3.238   1.932  15.232
 6790SOL    HW231713   3.361   1.985  15.326
 6791SOL     OW31714   2.802   3.560  15.800
 6791SOL    HW131715   2.882   3.503  15.821
 6791SOL    HW231716   2.753   3.520  15.723
 6792SOL     OW31717   2.665   3.264  15.820
 6792SOL    HW131718   2.755   3.278  15.778
 6792SOL    HW231719   2.594   3.266  15.749
 6793SOL     OW31720   2.784   2.365  15.795
 6793SOL    HW131721   2.759   2.356  15.699
 6793SOL    HW231722   2.832   2.283  15.826
 6794SOL     OW31723   2.401   1.926  15.408
 6794SOL    HW131724   2.320   1.927  15.466
 6794SOL    HW231725   2.404   2.009  15.353
 6795SOL     OW31726   3.296   3.050  14.937
 6795SOL    HW131727   3.328   2.974  14.994
 6795SOL    HW231728   3.204   3.077  14.967
 6796SOL     OW31729   2.938   2.545  16.361
 6796SOL    HW131730   2.858   2.484  16.364
 6796SOL    HW231731   3.019   2.492  16.337
 6797SOL     OW31732   2.894   2.411  14.912
 6797SOL    HW131733   2.853   2.493  14.873
 6797SOL    HW231734   2.958   2.437  14.985
 6798SOL     OW31735   2.423   2.084  16.044
 6798SOL    HW131736   2.461   2.000  16.081
 6798SOL    HW231737   2.335   2.103  16.088
 6799SOL     OW31738   3.291   3.035  15.763
 6799SOL    HW131739   3.236   2.951  15.756
 6799SOL    HW231740   3.317   3.064  15.671
 6800SOL     OW31741   3.719   2.695  15.273
 6800SOL    HW131742   3.761   2.631  15.337
 6800SOL    HW231743   3.681   2.644  15.195
 6801SOL     OW31744   3.526   3.142  15.553
 6801SOL    HW131745   3.625   3.150  15.567
 6801SOL    HW231746   3.481   3.226  15.584
 6802SOL     OW31747   3.252   2.437  14.974
 6802SOL    HW131748   3.198   2.416  15.055
 6802SOL    HW231749   3.343   2.396  14.983
 6803SOL     OW31750   3.500   2.961  15.976
 6803SOL    HW131751   3.505   3.042  16.035
 6803SOL    HW231752   3.414   2.963  15.925
 6804SOL     OW31753   2.842   2.978  16.616
 6804SOL    HW131754   2.743   2.984  16.626
 6804SOL    HW231755   2.865   2.898  16.560
 6805SOL     OW31756   3.136   2.248  16.159
 6805SOL    HW131757   3.157   2.322  16.223
 6805SOL    HW231758   3.047   2.265  16.116
 6806SOL     OW31759   1.926   3.426  16.228
 6806SOL    HW131760   1.880   3.508  16.194
 6806SOL    HW231761   2.024   3.445  16.237
 6807SOL     OW31762   2.428   2.399  15.761
 6807SOL    HW131763   2.440   2.465  15.687
 6807SOL    HW231764   2.474   2.433  15.844
 6808SOL     OW31765   3.114   3.210  15.284
 6808SOL    HW131766   3.164   3.287  15.324
 6808SOL    HW231767   3.019   3.212  15.316
 6809SOL     OW31768   3.449   2.641  16.567
 6809SOL    HW131769   3.357   2.679  16.562
 6809SOL    HW231770   3.509   2.688  16.502
 6810SOL     OW31771   2.594   2.496  15.961
 6810SOL    HW131772   2.653   2.470  15.885
 6810SOL    HW231773   2.566   2.592  15.950
 6811SOL     OW31774   3.590   2.797  16.751
 6811SOL    HW131775   3.544   2.790  16.662
 6811SOL    HW231776   3.528   2.841  16.817
 6812SOL     OW31777   2.885   2.628  15.863
 6812SOL    HW131778   2.900   2.649  15.959
 6812SOL    HW231779   2.855   2.533  15.854
 6813SOL     OW31780   3.165   2.700  14.938
 6813SOL    HW131781   3.199   2.607  14.953
 6813SOL    HW231782   3.183   2.727  14.843
 6814SOL     OW31783   3.000   2.242  16.575
 6814SOL    HW131784   2.955   2.305  16.639
 6814SOL    HW231785   3.093   2.273  16.558
 6815SOL     OW31786   3.022   2.069  16.374
 6815SOL    HW131787   3.022   2.133  16.451
 6815SOL    HW231788   3.050   2.117  16.291
 6816SOL     OW31789   1.870   3.188  15.096
 6816SOL    HW131790   1.777   3.209  15.065
 6816SOL    HW231791   1.880   3.089  15.109
 6817SOL     OW31792   2.864   2.658  16.135
 6817SOL    HW131793   2.905   2.626  16.221
 6817SOL    HW231794   2.768   2.631  16.132
 6818SOL     OW31795   3.231   2.812  16.557
 6818SOL    HW131796   3.270   2.901  16.577
 6818SOL    HW231797   3.241   2.792  16.460
 6819SOL     OW31798   2.533   2.326  16.166
 6819SOL    HW131799   2.499   2.237  16.136
 6819SOL    HW231800   2.559   2.380  16.086
 6820SOL     OW31801   3.164   2.717  15.205
 6820SOL    HW131802   3.078   2.686  15.247
 6820SOL    HW231803   3.160   2.703  15.106
 6821SOL     OW31804   3.114   3.593  16.025
 6821SOL    HW131805   3.198   3.598  15.971
 6821SOL    HW231806   3.091   3.497  16.043
 6822SOL     OW31807   3.142   2.789  15.568
 6822SOL    HW131808   3.202   2.708  15.570
 6822SOL    HW231809   3.182   2.858  15.508
 6823SOL     OW31810   3.703   2.037  15.860
 6823SOL    HW131811   3.742   1.952  15.824
 6823SOL    HW231812   3.605   2.039  15.841
 6824SOL     OW31813   3.056   3.474  14.927
 6824SOL    HW131814   3.062   3.381  14.964
 6824SOL    HW231815   2.997   3.474  14.847
 6825SOL     OW31816   2.778   2.772  15.187
 6825SOL    HW131817   2.841   2.810  15.119
 6825SOL    HW231818   2.818   2.689  15.226
 6826SOL     OW31819   3.366   3.469  14.940
 6826SOL    HW131820   3.274   3.506  14.947
 6826SOL    HW231821   3.404   3.489  14.850
 6827SOL     OW31822   2.234   3.150  16.387
 6827SOL    HW131823   2.221   3.243  16.353
 6827SOL    HW231824   2.150   3.098  16.374
 6828SOL     OW31825   3.476   3.154  16.186
 6828SOL    HW131826   3.536   3.157  16.266
 6828SOL    HW231827   3.401   3.218  16.199
 6829SOL     OW31828   2.876   2.098  15.868
 6829SOL    HW131829   2.868   2.062  15.775
 6829SOL    HW231830   2.874   2.022  15.933
 6830SOL     OW31831   3.045   3.197  15.015
 6830SOL    HW131832   2.946   3.186  15.017
 6830SOL    HW231833   3.079   3.212  15.108
 6831SOL     OW31834   2.578   2.427  16.605
 6831SOL    HW131835   2.597   2.492  16.679
 6831SOL    HW231836   2.638   2.347  16.614
 6832SOL     OW31837   2.252   3.603  16.457
 6832SOL    HW131838   2.161   3.644  16.455
 6832SOL    HW231839   2.245   3.509  16.489
 6833SOL     OW31840   2.721   3.236  14.912
 6833SOL    HW131841   2.675   3.251  15.000
 6833SOL    HW231842   2.765   3.321  14.882
 6834SOL     OW31843   2.523   3.652  15.850
 6834SOL    HW131844   2.477   3.740  15.837
 6834SOL    HW231845   2.622   3.664  15.843
 6835SOL     OW31846   2.945   2.846  14.983
 6835SOL    HW131847   2.922   2.899  14.901
 6835SOL    HW231848   3.026   2.790  14.964
 6836SOL     OW31849   3.723   3.431  15.747
 6836SOL    HW131850   3.652   3.419  15.677
 6836SOL    HW231851   3.724   3.352  15.807
 6837SOL     OW31852   3.686   2.054  16.124
 6837SOL    HW131853   3.682   1.964  16.168
 6837SOL    HW231854   3.689   2.043  16.025
 6838SOL     OW31855   2.674   3.448  15.583
 6838SOL    HW131856   2.706   3.458  15.489
 6838SOL    HW231857   2.595   3.386  15.585
 6839SOL     OW31858   2.632   3.192  15.197
 6839SOL    HW131859   2.586   3.105  15.214
 6839SOL    HW231860   2.723   3.189  15.238
 6840SOL     OW31861   3.214   1.914  15.064
 6840SOL    HW131862   3.249   1.873  14.980
 6840SOL    HW231863   3.124   1.876  15.084
 6841SOL     OW31864   3.162   2.315  15.587
 6841SOL    HW131865   3.103   2.395  15.591
 6841SOL    HW231866   3.177   2.280  15.680
 6842SOL     OW31867   2.431   3.137  17.924
 6842SOL    HW131868   2.338   3.130  17.887
 6842SOL    HW231869   2.442   3.226  17.968
 6843SOL     OW31870   3.617   2.469  16.990
 6843SOL    HW131871   3.605   2.456  16.891
 6843SOL    HW231872   3.587   2.388  17.039
 6844SOL     OW31873   2.630   3.006  17.782
 6844SOL    HW131874   2.552   3.023  17.842
 6844SOL    HW231875   2.664   3.093  17.746
 6845SOL     OW31876   2.547   2.874  17.424
 6845SOL    HW131877   2.616   2.858  17.494
 6845SOL    HW231878   2.474   2.931  17.462
 6846SOL     OW31879   2.102   2.953  17.645
 6846SOL    HW131880   2.116   2.869  17.697
 6846SOL    HW231881   2.047   3.017  17.700
 6847SOL     OW31882   2.475   3.227  17.485
 6847SOL    HW131883   2.426   3.140  17.494
 6847SOL    HW231884   2.452   3.270  17.398
 6848SOL     OW31885   2.671   1.866  17.261
 6848SOL    HW131886   2.711   1.957  17.252
 6848SOL    HW231887   2.571   1.874  17.267
 6849SOL     OW31888   2.059   2.838  18.023
 6849SOL    HW131889   2.148   2.793  18.009
 6849SOL    HW231890   1.986   2.773  18.004
 6850SOL     OW31891   3.387   2.861  16.949
 6850SOL    HW131892   3.324   2.785  16.962
 6850SOL    HW231893   3.435   2.879  17.035
 6851SOL     OW31894   2.727   2.210  16.954
 6851SOL    HW131895   2.786   2.273  16.905
 6851SOL    HW231896   2.746   2.116  16.925
 6852SOL     OW31897   2.412   2.058  17.644
 6852SOL    HW131898   2.407   2.053  17.744
 6852SOL    HW231899   2.414   2.154  17.615
 6853SOL     OW31900   2.973   3.638  16.996
 6853SOL    HW131901   2.913   3.576  17.046
 6853SOL    HW231902   3.004   3.594  16.911
 6854SOL     OW31903   2.326   3.605  17.082
 6854SOL    HW131904   2.359   3.644  17.168
 6854SOL    HW231905   2.402   3.598  17.017
 6855SOL     OW31906   3.262   1.969  17.185
 6855SOL    HW131907   3.238   1.932  17.095
 6855SOL    HW231908   3.361   1.985  17.189
 6856SOL     OW31909   2.111   3.647  18.000
 6856SOL    HW131910   2.168   3.582  18.050
 6856SOL    HW231911   2.095   3.614  17.907
 6857SOL     OW31912   2.802   3.560  17.663
 6857SOL    HW131913   2.882   3.503  17.684
 6857SOL    HW231914   2.753   3.520  17.586
 6858SOL     OW31915   2.476   1.984  16.876
 6858SOL    HW131916   2.574   1.962  16.883
 6858SOL    HW231917   2.445   1.967  16.783
 6859SOL     OW31918   2.665   3.264  17.683
 6859SOL    HW131919   2.755   3.278  17.641
 6859SOL    HW231920   2.594   3.266  17.612
 6860SOL     OW31921   2.401   1.926  17.271
 6860SOL    HW131922   2.320   1.927  17.329
 6860SOL    HW231923   2.404   2.009  17.216
 6861SOL     OW31924   3.296   3.050  16.800
 6861SOL    HW131925   3.328   2.974  16.857
 6861SOL    HW231926   3.204   3.077  16.830
 6862SOL     OW31927   3.089   3.432  17.552
 6862SOL    HW131928   3.110   3.506  17.487
 6862SOL    HW231929   3.157   3.432  17.625
 6863SOL     OW31930   2.321   3.014  17.500
 6863SOL    HW131931   2.250   2.987  17.565
 6863SOL    HW231932   2.295   2.986  17.407
 6864SOL     OW31933   3.133   3.659  17.350
 6864SOL    HW131934   3.177   3.723  17.286
 6864SOL    HW231935   3.083   3.711  17.420
 6865SOL     OW31936   2.894   2.411  16.775
 6865SOL    HW131937   2.853   2.493  16.736
 6865SOL    HW231938   2.958   2.437  16.848
 6866SOL     OW31939   3.291   3.035  17.626
 6866SOL    HW131940   3.236   2.951  17.619
 6866SOL    HW231941   3.317   3.064  17.534
 6867SOL     OW31942   3.719   2.695  17.136
 6867SOL    HW131943   3.761   2.631  17.200
 6867SOL    HW231944   3.681   2.644  17.058
 6868SOL     OW31945   2.350   3.247  16.933
 6868SOL    HW131946   2.263   3.232  16.980
 6868SOL    HW231947   2.333   3.273  16.838
 6869SOL     OW31948   2.973   3.057  17.859
 6869SOL    HW131949   2.933   3.101  17.940
 6869SOL    HW231950   2.932   3.094  17.776
 6870SOL     OW31951   3.500   2.961  17.838
 6870SOL    HW131952   3.505   3.042  17.897
 6870SOL    HW231953   3.414   2.963  17.787
 6871SOL     OW31954   2.567   2.912  17.127
 6871SOL    HW131955   2.553   2.919  17.226
 6871SOL    HW231956   2.651   2.861  17.109
 6872SOL     OW31957   2.272   2.675  18.010
 6872SOL    HW131958   2.358   2.687  18.060
 6872SOL    HW231959   2.230   2.588  18.037
 6873SOL     OW31960   2.229   2.962  17.260
 6873SOL    HW131961   2.222   3.045  17.204
 6873SOL    HW231962   2.233   2.882  17.200
 6874SOL     OW31963   2.428   2.399  17.624
 6874SOL    HW131964   2.440   2.465  17.550
 6874SOL    HW231965   2.474   2.433  17.707
 6875SOL     OW31966   3.134   3.307  17.901
 6875SOL    HW131967   3.181   3.320  17.988
 6875SOL    HW231968   3.068   3.233  17.910
 6876SOL     OW31969   2.435   2.732  17.788
 6876SOL    HW131970   2.479   2.821  17.779
 6876SOL    HW231971   2.372   2.732  17.865
 6877SOL     OW31972   2.594   2.496  17.823
 6877SOL    HW131973   2.653   2.470  17.747
 6877SOL    HW231974   2.566   2.592  17.812
 6878SOL     OW31975   3.484   2.229  17.133
 6878SOL    HW131976   3.486   2.153  17.197
 6878SOL    HW231977   3.436   2.306  17.173
 6879SOL     OW31978   2.885   2.628  17.725
 6879SOL    HW131979   2.900   2.649  17.821
 6879SOL    HW231980   2.855   2.533  17.716
 6880SOL     OW31981   3.402   2.136  16.884
 6880SOL    HW131982   3.341   2.061  16.907
 6880SOL    HW231983   3.424   2.188  16.967
 6881SOL     OW31984   2.930   3.195  17.608
 6881SOL    HW131985   2.937   3.111  17.553
 6881SOL    HW231986   2.992   3.264  17.572
 6882SOL     OW31987   2.181   2.672  17.708
 6882SOL    HW131988   2.274   2.708  17.713
 6882SOL    HW231989   2.175   2.587  17.760
 6883SOL     OW31990   2.201   2.371  17.765
 6883SOL    HW131991   2.149   2.288  17.748
 6883SOL    HW231992   2.278   2.376  17.701
 6884SOL     OW31993   1.950   3.663  17.686
 6884SOL    HW131994   1.908   3.577  17.659
 6884SOL    HW231995   2.044   3.666  17.652
 6885SOL     OW31996   2.864   2.658  17.997
 6885SOL    HW131997   2.905   2.626  18.083
 6885SOL    HW231998   2.768   2.631  17.994
 6886SOL     OW31999   1.902   2.406  17.873
 6886SOL    HW132000   1.987   2.373  17.832
 6886SOL    HW232001   1.915   2.421  17.971
 6887SOL     OW32002   2.677   2.434  17.084
 6887SOL    HW132003   2.684   2.345  17.038
 6887SOL    HW232004   2.583   2.468  17.076
 6888SOL     OW32005   3.250   3.435  17.236
 6888SOL    HW132006   3.317   3.447  17.162
 6888SOL    HW232007   3.210   3.524  17.259
 6889SOL     OW32008   2.534   3.478  16.913
 6889SOL    HW132009   2.543   3.488  16.814
 6889SOL    HW232010   2.494   3.389  16.934
 6890SOL     OW32011   2.684   2.864  18.131
 6890SOL    HW132012   2.724   2.863  18.039
 6890SOL    HW232013   2.694   2.956  18.171
 6891SOL     OW32014   2.778   2.772  17.050
 6891SOL    HW132015   2.841   2.810  16.982
 6891SOL    HW232016   2.818   2.689  17.089
 6892SOL     OW32017   2.452   3.349  17.250
 6892SOL    HW132018   2.494   3.291  17.180
 6892SOL    HW232019   2.408   3.428  17.206
 6893SOL     OW32020   3.536   2.745  18.013
 6893SOL    HW132021   3.509   2.656  17.976
 6893SOL    HW232022   3.537   2.813  17.940
 6894SOL     OW32023   2.523   3.652  17.712
 6894SOL    HW132024   2.477   3.740  17.699
 6894SOL    HW232025   2.622   3.664  17.705
 6895SOL     OW32026   2.721   2.818  17.620
 6895SOL    HW132027   2.775   2.749  17.668
 6895SOL    HW232028   2.689   2.887  17.686
 6896SOL     OW32029   2.945   2.846  16.846
 6896SOL    HW132030   2.922   2.899  16.764
 6896SOL    HW232031   3.026   2.790  16.827
 6897SOL     OW32032   1.941   3.102  17.412
 6897SOL    HW132033   1.940   3.055  17.500
 6897SOL    HW232034   2.023   3.074  17.361
 6898SOL     OW32035   2.674   3.448  17.446
 6898SOL    HW132036   2.706   3.458  17.352
 6898SOL    HW232037   2.595   3.386  17.448
 6899SOL     OW32038   2.632   3.192  17.060
 6899SOL    HW132039   2.586   3.105  17.077
 6899SOL    HW232040   2.723   3.189  17.101
 6900SOL     OW32041   3.214   1.914  16.927
 6900SOL    HW132042   3.249   1.873  16.843
 6900SOL    HW232043   3.124   1.876  16.947
 6901SOL     OW32044   2.737   3.508  17.096
 6901SOL    HW132045   2.660   3.473  17.042
 6901SOL    HW232046   2.705   3.579  17.158
 6902SOL     OW32047   1.881   4.092   0.647
 6902SOL    HW132048   1.799   4.135   0.686
 6902SOL    HW232049   1.853   4.019   0.584
 6903SOL     OW32050   2.712   4.522   1.823
 6903SOL    HW132051   2.708   4.598   1.888
 6903SOL    HW232052   2.734   4.558   1.732
 6904SOL     OW32053   1.975   4.461   1.597
 6904SOL    HW132054   2.063   4.448   1.642
 6904SOL    HW232055   1.962   4.558   1.575
 6905SOL     OW32056   2.671   3.728   0.502
 6905SOL    HW132057   2.711   3.819   0.493
 6905SOL    HW232058   2.571   3.736   0.508
 6906SOL     OW32059   2.179   3.975   1.801
 6906SOL    HW132060   2.250   4.046   1.807
 6906SOL    HW232061   2.091   4.014   1.829
 6907SOL     OW32062   3.143   4.069   0.944
 6907SOL    HW132063   3.057   4.019   0.931
 6907SOL    HW232064   3.205   4.015   1.000
 6908SOL     OW32065   3.256   4.193   1.674
 6908SOL    HW132066   3.236   4.236   1.762
 6908SOL    HW232067   3.334   4.131   1.683
 6909SOL     OW32068   2.727   4.072   0.195
 6909SOL    HW132069   2.786   4.135   0.146
 6909SOL    HW232070   2.746   3.978   0.166
 6910SOL     OW32071   3.581   4.309   1.831
 6910SOL    HW132072   3.555   4.398   1.795
 6910SOL    HW232073   3.579   4.241   1.758
 6911SOL     OW32074   2.412   3.920   0.885
 6911SOL    HW132075   2.407   3.915   0.985
 6911SOL    HW232076   2.414   4.016   0.856
 6912SOL     OW32077   2.064   4.009   1.498
 6912SOL    HW132078   1.984   4.069   1.485
 6912SOL    HW232079   2.054   3.960   1.584
 6913SOL     OW32080   2.476   3.846   0.117
 6913SOL    HW132081   2.574   3.824   0.124
 6913SOL    HW232082   2.445   3.829   0.024
 6914SOL     OW32083   2.643   3.988   1.749
 6914SOL    HW132084   2.710   3.927   1.792
 6914SOL    HW232085   2.570   4.007   1.814
 6915SOL     OW32086   2.784   4.227   0.899
 6915SOL    HW132087   2.759   4.218   0.803
 6915SOL    HW232088   2.832   4.145   0.930
 6916SOL     OW32089   2.401   3.788   0.512
 6916SOL    HW132090   2.320   3.789   0.570
 6916SOL    HW232091   2.404   3.871   0.457
 6917SOL     OW32092   2.159   3.759   0.171
 6917SOL    HW132093   2.208   3.843   0.150
 6917SOL    HW232094   2.221   3.694   0.216
 6918SOL     OW32095   2.797   3.960   0.480
 6918SOL    HW132096   2.749   4.001   0.402
 6918SOL    HW232097   2.896   3.958   0.461
 6919SOL     OW32098   2.423   3.946   1.147
 6919SOL    HW132099   2.461   3.862   1.184
 6919SOL    HW232100   2.335   3.965   1.191
 6920SOL     OW32101   3.291   4.897   0.867
 6920SOL    HW132102   3.236   4.813   0.860
 6920SOL    HW232103   3.317   4.926   0.775
 6921SOL     OW32104   2.389   3.980   0.328
 6921SOL    HW132105   2.416   3.921   0.253
 6921SOL    HW232106   2.389   4.075   0.297
 6922SOL     OW32107   2.777   3.813   1.402
 6922SOL    HW132108   2.802   3.793   1.307
 6922SOL    HW232109   2.849   3.869   1.444
 6923SOL     OW32110   2.264   4.475   1.598
 6923SOL    HW132111   2.332   4.530   1.551
 6923SOL    HW232112   2.304   4.387   1.625
 6924SOL     OW32113   3.449   4.503   1.670
 6924SOL    HW132114   3.357   4.541   1.665
 6924SOL    HW232115   3.509   4.550   1.605
 6925SOL     OW32116   2.875   3.829   1.770
 6925SOL    HW132117   2.881   3.914   1.718
 6925SOL    HW232118   2.907   3.753   1.713
 6926SOL     OW32119   2.366   3.774   1.740
 6926SOL    HW132120   2.324   3.717   1.670
 6926SOL    HW232121   2.300   3.843   1.772
 6927SOL     OW32122   3.222   4.586   1.045
 6927SOL    HW132123   3.147   4.586   0.979
 6927SOL    HW232124   3.259   4.494   1.054
 6928SOL     OW32125   2.594   4.358   1.064
 6928SOL    HW132126   2.653   4.332   0.988
 6928SOL    HW232127   2.566   4.454   1.053
 6929SOL     OW32128   3.590   4.659   1.854
 6929SOL    HW132129   3.544   4.652   1.765
 6929SOL    HW232130   3.528   4.703   1.920
 6930SOL     OW32131   2.212   4.622   1.804
 6930SOL    HW132132   2.288   4.666   1.852
 6930SOL    HW232133   2.247   4.575   1.722
 6931SOL     OW32134   3.165   4.562   0.042
 6931SOL    HW132135   3.199   4.469   0.057
 6931SOL    HW232136   3.183   4.589  -0.053
 6932SOL     OW32137   2.201   4.233   1.006
 6932SOL    HW132138   2.149   4.150   0.989
 6932SOL    HW232139   2.278   4.238   0.942
 6933SOL     OW32140   3.000   4.104   1.678
 6933SOL    HW132141   2.955   4.167   1.742
 6933SOL    HW232142   3.093   4.135   1.661
 6934SOL     OW32143   3.022   3.931   1.477
 6934SOL    HW132144   3.022   3.995   1.554
 6934SOL    HW232145   3.050   3.979   1.394
 6935SOL     OW32146   2.864   4.520   1.238
 6935SOL    HW132147   2.905   4.488   1.324
 6935SOL    HW232148   2.768   4.493   1.235
 6936SOL     OW32149   1.902   4.268   1.114
 6936SOL    HW132150   1.987   4.235   1.073
 6936SOL    HW232151   1.915   4.283   1.212
 6937SOL     OW32152   2.051   4.244   1.722
 6937SOL    HW132153   2.110   4.204   1.652
 6937SOL    HW232154   1.993   4.315   1.681
 6938SOL     OW32155   2.533   4.188   1.269
 6938SOL    HW132156   2.499   4.099   1.239
 6938SOL    HW232157   2.559   4.242   1.189
 6939SOL     OW32158   2.021   4.861   1.466
 6939SOL    HW132159   2.043   4.800   1.542
 6939SOL    HW232160   2.031   4.812   1.380
 6940SOL     OW32161   2.765   3.810   0.133
 6940SOL    HW132162   2.816   3.811   0.047
 6940SOL    HW232163   2.821   3.768   0.204
 6941SOL     OW32164   3.588   3.859   0.523
 6941SOL    HW132165   3.661   3.842   0.456
 6941SOL    HW232166   3.557   3.772   0.561
 6942SOL     OW32167   3.142   4.651   0.672
 6942SOL    HW132168   3.202   4.570   0.674
 6942SOL    HW232169   3.182   4.720   0.612
 6943SOL     OW32170   3.703   3.899   0.963
 6943SOL    HW132171   3.742   3.814   0.927
 6943SOL    HW232172   3.605   3.901   0.944
 6944SOL     OW32173   2.876   3.960   0.971
 6944SOL    HW132174   2.868   3.924   0.878
 6944SOL    HW232175   2.874   3.884   1.036
 6945SOL     OW32176   1.967   4.737   1.726
 6945SOL    HW132177   1.890   4.704   1.780
 6945SOL    HW232178   2.052   4.707   1.768
 6946SOL     OW32179   2.534   3.927   1.489
 6946SOL    HW132180   2.624   3.911   1.449
 6946SOL    HW232181   2.542   3.932   1.588
 6947SOL     OW32182   3.302   4.580   1.398
 6947SOL    HW132183   3.245   4.632   1.335
 6947SOL    HW232184   3.398   4.592   1.374
 6948SOL     OW32185   1.934   3.890   0.318
 6948SOL    HW132186   1.917   3.973   0.264
 6948SOL    HW232187   2.024   3.853   0.296
 6949SOL     OW32188   2.578   4.289   1.708
 6949SOL    HW132189   2.597   4.354   1.782
 6949SOL    HW232190   2.638   4.209   1.717
 6950SOL     OW32191   3.536   4.607   1.254
 6950SOL    HW132192   3.509   4.518   1.217
 6950SOL    HW232193   3.537   4.675   1.181
 6951SOL     OW32194   2.456   4.469   0.652
 6951SOL    HW132195   2.506   4.554   0.633
 6951SOL    HW232196   2.368   4.471   0.604
 6952SOL     OW32197   3.592   4.658   1.517
 6952SOL    HW132198   3.630   4.749   1.532
 6952SOL    HW232199   3.584   4.641   1.418
 6953SOL     OW32200   2.945   4.708   0.087
 6953SOL    HW132201   2.922   4.761   0.005
 6953SOL    HW232202   3.026   4.652   0.068
 6954SOL     OW32203   1.941   4.964   0.653
 6954SOL    HW132204   1.940   4.917   0.741
 6954SOL    HW232205   2.023   4.936   0.602
 6955SOL     OW32206   2.863   3.758   1.154
 6955SOL    HW132207   2.800   3.686   1.123
 6955SOL    HW232208   2.956   3.722   1.154
 6956SOL     OW32209   3.214   3.776   0.168
 6956SOL    HW132210   3.249   3.735   0.084
 6956SOL    HW232211   3.124   3.738   0.188
 6957SOL     OW32212   2.092   4.352   1.975
 6957SOL    HW132213   1.999   4.350   2.012
 6957SOL    HW232214   2.093   4.313   1.883
 6958SOL     OW32215   2.087   3.999   2.858
 6958SOL    HW132216   2.122   3.982   2.950
 6958SOL    HW232217   1.999   3.954   2.846
 6959SOL     OW32218   1.881   4.092   2.509
 6959SOL    HW132219   1.799   4.135   2.548
 6959SOL    HW232220   1.853   4.019   2.446
 6960SOL     OW32221   2.997   4.427   2.579
 6960SOL    HW132222   3.054   4.505   2.554
 6960SOL    HW232223   2.937   4.453   2.655
 6961SOL     OW32224   3.617   4.331   2.093
 6961SOL    HW132225   3.605   4.318   1.994
 6961SOL    HW232226   3.587   4.250   2.142
 6962SOL     OW32227   2.630   4.868   2.885
 6962SOL    HW132228   2.552   4.885   2.945
 6962SOL    HW232229   2.664   4.955   2.849
 6963SOL     OW32230   2.712   4.522   3.685
 6963SOL    HW132231   2.708   4.598   3.750
 6963SOL    HW232232   2.734   4.558   3.594
 6964SOL     OW32233   2.547   4.736   2.527
 6964SOL    HW132234   2.616   4.720   2.597
 6964SOL    HW232235   2.474   4.793   2.565
 6965SOL     OW32236   2.300   4.116   3.361
 6965SOL    HW132237   2.382   4.060   3.370
 6965SOL    HW232238   2.219   4.058   3.365
 6966SOL     OW32239   3.465   4.171   2.599
 6966SOL    HW132240   3.391   4.217   2.549
 6966SOL    HW232241   3.516   4.239   2.652
 6967SOL     OW32242   2.102   4.815   2.748
 6967SOL    HW132243   2.116   4.731   2.800
 6967SOL    HW232244   2.047   4.879   2.803
 6968SOL     OW32245   2.468   4.688   1.985
 6968SOL    HW132246   2.475   4.772   1.931
 6968SOL    HW232247   2.514   4.701   2.073
 6969SOL     OW32248   3.456   3.838   3.342
 6969SOL    HW132249   3.438   3.905   3.270
 6969SOL    HW232250   3.453   3.884   3.431
 6970SOL     OW32251   1.984   4.367   2.425
 6970SOL    HW132252   1.939   4.279   2.442
 6970SOL    HW232253   1.983   4.421   2.509
 6971SOL     OW32254   3.551   4.646   2.474
 6971SOL    HW132255   3.646   4.617   2.482
 6971SOL    HW232256   3.543   4.711   2.399
 6972SOL     OW32257   1.975   4.461   3.459
 6972SOL    HW132258   2.063   4.448   3.504
 6972SOL    HW232259   1.962   4.558   3.437
 6973SOL     OW32260   2.671   3.728   2.364
 6973SOL    HW132261   2.711   3.819   2.355
 6973SOL    HW232262   2.571   3.736   2.370
 6974SOL     OW32263   2.059   4.700   3.126
 6974SOL    HW132264   2.148   4.655   3.112
 6974SOL    HW232265   1.986   4.635   3.107
 6975SOL     OW32266   3.387   4.723   2.052
 6975SOL    HW132267   3.324   4.647   2.065
 6975SOL    HW232268   3.435   4.741   2.138
 6976SOL     OW32269   2.179   3.975   3.663
 6976SOL    HW132270   2.250   4.046   3.669
 6976SOL    HW232271   2.091   4.014   3.691
 6977SOL     OW32272   2.460   4.453   2.132
 6977SOL    HW132273   2.484   4.522   2.064
 6977SOL    HW232274   2.382   4.486   2.186
 6978SOL     OW32275   3.143   4.069   2.806
 6978SOL    HW132276   3.057   4.019   2.793
 6978SOL    HW232277   3.205   4.015   2.862
 6979SOL     OW32278   2.669   4.329   3.327
 6979SOL    HW132279   2.622   4.326   3.416
 6979SOL    HW232280   2.618   4.274   3.261
 6980SOL     OW32281   3.256   4.193   3.536
 6980SOL    HW132282   3.236   4.236   3.624
 6980SOL    HW232283   3.334   4.131   3.545
 6981SOL     OW32284   2.835   4.614   3.434
 6981SOL    HW132285   2.881   4.530   3.405
 6981SOL    HW232286   2.779   4.648   3.359
 6982SOL     OW32287   2.853   4.134   3.104
 6982SOL    HW132288   2.776   4.168   3.158
 6982SOL    HW232289   2.819   4.083   3.025
 6983SOL     OW32290   2.903   4.425   2.291
 6983SOL    HW132291   2.929   4.421   2.387
 6983SOL    HW232292   2.818   4.374   2.277
 6984SOL     OW32293   1.938   4.535   2.651
 6984SOL    HW132294   2.037   4.523   2.660
 6984SOL    HW232295   1.914   4.630   2.672
 6985SOL     OW32296   2.727   4.072   2.057
 6985SOL    HW132297   2.786   4.135   2.008
 6985SOL    HW232298   2.746   3.978   2.028
 6986SOL     OW32299   3.581   4.309   3.693
 6986SOL    HW132300   3.555   4.398   3.657
 6986SOL    HW232301   3.579   4.241   3.620
 6987SOL     OW32302   2.412   3.920   2.747
 6987SOL    HW132303   2.407   3.915   2.847
 6987SOL    HW232304   2.414   4.016   2.718
 6988SOL     OW32305   3.320   4.459   2.590
 6988SOL    HW132306   3.315   4.394   2.665
 6988SOL    HW232307   3.400   4.518   2.603
 6989SOL     OW32308   2.064   4.009   3.360
 6989SOL    HW132309   1.984   4.069   3.347
 6989SOL    HW232310   2.054   3.960   3.446
 6990SOL     OW32311   3.262   3.831   2.288
 6990SOL    HW132312   3.238   3.794   2.198
 6990SOL    HW232313   3.361   3.847   2.292
 6991SOL     OW32314   2.244   4.424   2.342
 6991SOL    HW132315   2.289   4.334   2.339
 6991SOL    HW232316   2.150   4.413   2.375
 6992SOL     OW32317   3.409   3.946   3.591
 6992SOL    HW132318   3.404   3.983   3.683
 6992SOL    HW232319   3.337   3.877   3.579
 6993SOL     OW32320   2.643   3.988   3.611
 6993SOL    HW132321   2.710   3.927   3.654
 6993SOL    HW232322   2.570   4.007   3.676
 6994SOL     OW32323   3.213   4.314   3.295
 6994SOL    HW132324   3.241   4.271   3.380
 6994SOL    HW232325   3.238   4.410   3.296
 6995SOL     OW32326   2.784   4.227   2.761
 6995SOL    HW132327   2.759   4.218   2.665
 6995SOL    HW232328   2.832   4.145   2.792
 6996SOL     OW32329   2.401   3.788   2.374
 6996SOL    HW132330   2.320   3.789   2.432
 6996SOL    HW232331   2.404   3.871   2.319
 6997SOL     OW32332   2.159   3.759   2.033
 6997SOL    HW132333   2.208   3.843   2.012
 6997SOL    HW232334   2.221   3.694   2.078
 6998SOL     OW32335   2.797   3.960   2.342
 6998SOL    HW132336   2.749   4.001   2.264
 6998SOL    HW232337   2.896   3.958   2.323
 6999SOL     OW32338   2.894   4.273   1.878
 6999SOL    HW132339   2.853   4.355   1.839
 6999SOL    HW232340   2.958   4.299   1.951
 7000SOL     OW32341   1.940   4.280   3.248
 7000SOL    HW132342   2.032   4.279   3.207
 7000SOL    HW232343   1.934   4.354   3.315
 7001SOL     OW32344   2.423   3.946   3.009
 7001SOL    HW132345   2.461   3.862   3.046
 7001SOL    HW232346   2.335   3.965   3.053
 7002SOL     OW32347   2.728   4.178   2.504
 7002SOL    HW132348   2.696   4.250   2.442
 7002SOL    HW232349   2.752   4.097   2.451
 7003SOL     OW32350   2.879   3.763   2.615
 7003SOL    HW132351   2.807   3.768   2.546
 7003SOL    HW232352   2.855   3.694   2.684
 7004SOL     OW32353   3.291   4.897   2.729
 7004SOL    HW132354   3.236   4.813   2.722
 7004SOL    HW232355   3.317   4.926   2.637
 7005SOL     OW32356   3.328   4.314   2.854
 7005SOL    HW132357   3.298   4.219   2.861
 7005SOL    HW232358   3.401   4.330   2.920
 7006SOL     OW32359   3.719   4.557   2.239
 7006SOL    HW132360   3.761   4.493   2.303
 7006SOL    HW232361   3.681   4.506   2.161
 7007SOL     OW32362   3.252   4.299   1.940
 7007SOL    HW132363   3.198   4.278   2.021
 7007SOL    HW232364   3.343   4.258   1.949
 7008SOL     OW32365   2.389   3.980   2.190
 7008SOL    HW132366   2.416   3.921   2.115
 7008SOL    HW232367   2.389   4.075   2.159
 7009SOL     OW32368   3.500   4.823   2.941
 7009SOL    HW132369   3.505   4.904   3.000
 7009SOL    HW232370   3.414   4.825   2.890
 7010SOL     OW32371   2.777   3.813   3.264
 7010SOL    HW132372   2.802   3.793   3.169
 7010SOL    HW232373   2.849   3.869   3.306
 7011SOL     OW32374   2.272   4.537   3.113
 7011SOL    HW132375   2.358   4.549   3.163
 7011SOL    HW232376   2.230   4.450   3.140
 7012SOL     OW32377   3.136   4.110   3.124
 7012SOL    HW132378   3.157   4.184   3.188
 7012SOL    HW232379   3.047   4.127   3.081
 7013SOL     OW32380   2.428   4.261   2.727
 7013SOL    HW132381   2.440   4.327   2.653
 7013SOL    HW232382   2.474   4.295   2.810
 7014SOL     OW32383   3.444   4.363   2.334
 7014SOL    HW132384   3.413   4.424   2.407
 7014SOL    HW232385   3.494   4.415   2.265
 7015SOL     OW32386   2.264   4.475   3.460
 7015SOL    HW132387   2.332   4.530   3.413
 7015SOL    HW232388   2.304   4.387   3.487
 7016SOL     OW32389   3.449   4.503   3.532
 7016SOL    HW132390   3.357   4.541   3.527
 7016SOL    HW232391   3.509   4.550   3.467
 7017SOL     OW32392   2.875   3.829   3.632
 7017SOL    HW132393   2.881   3.914   3.580
 7017SOL    HW232394   2.907   3.753   3.575
 7018SOL     OW32395   2.366   3.774   3.602
 7018SOL    HW132396   2.324   3.717   3.532
 7018SOL    HW232397   2.300   3.843   3.634
 7019SOL     OW32398   2.435   4.594   2.891
 7019SOL    HW132399   2.479   4.683   2.882
 7019SOL    HW232400   2.372   4.594   2.968
 7020SOL     OW32401   3.222   4.586   2.907
 7020SOL    HW132402   3.147   4.586   2.841
 7020SOL    HW232403   3.259   4.494   2.916
 7021SOL     OW32404   3.071   4.249   2.137
 7021SOL    HW132405   3.084   4.165   2.191
 7021SOL    HW232406   3.042   4.323   2.197
 7022SOL     OW32407   2.169   3.937   3.093
 7022SOL    HW132408   2.146   3.974   3.183
 7022SOL    HW232409   2.139   3.842   3.087
 7023SOL     OW32410   2.594   4.358   2.926
 7023SOL    HW132411   2.653   4.332   2.850
 7023SOL    HW232412   2.566   4.454   2.915
 7024SOL     OW32413   3.590   4.659   3.716
 7024SOL    HW132414   3.544   4.652   3.627
 7024SOL    HW232415   3.528   4.703   3.782
 7025SOL     OW32416   2.169   3.787   2.480
 7025SOL    HW132417   2.158   3.881   2.513
 7025SOL    HW232418   2.164   3.724   2.557
 7026SOL     OW32419   3.484   4.091   2.236
 7026SOL    HW132420   3.486   4.015   2.300
 7026SOL    HW232421   3.436   4.168   2.276
 7027SOL     OW32422   2.885   4.490   2.828
 7027SOL    HW132423   2.900   4.511   2.924
 7027SOL    HW232424   2.855   4.395   2.819
 7028SOL     OW32425   2.212   4.622   3.666
 7028SOL    HW132426   2.288   4.666   3.714
 7028SOL    HW232427   2.247   4.575   3.584
 7029SOL     OW32428   3.165   4.562   1.904
 7029SOL    HW132429   3.199   4.469   1.919
 7029SOL    HW232430   3.183   4.589   1.809
 7030SOL     OW32431   2.181   4.534   2.811
 7030SOL    HW132432   2.274   4.570   2.816
 7030SOL    HW232433   2.175   4.449   2.863
 7031SOL     OW32434   2.201   4.233   2.868
 7031SOL    HW132435   2.149   4.150   2.851
 7031SOL    HW232436   2.278   4.238   2.804
 7032SOL     OW32437   3.000   4.104   3.540
 7032SOL    HW132438   2.955   4.167   3.604
 7032SOL    HW232439   3.093   4.135   3.523
 7033SOL     OW32440   3.022   3.931   3.339
 7033SOL    HW132441   3.022   3.995   3.416
 7033SOL    HW232442   3.050   3.979   3.256
 7034SOL     OW32443   2.864   4.520   3.100
 7034SOL    HW132444   2.905   4.488   3.186
 7034SOL    HW232445   2.768   4.493   3.097
 7035SOL     OW32446   1.902   4.268   2.976
 7035SOL    HW132447   1.987   4.235   2.935
 7035SOL    HW232448   1.915   4.283   3.074
 7036SOL     OW32449   2.051   4.244   3.584
 7036SOL    HW132450   2.110   4.204   3.514
 7036SOL    HW232451   1.993   4.315   3.543
 7037SOL     OW32452   3.231   4.674   3.522
 7037SOL    HW132453   3.270   4.763   3.542
 7037SOL    HW232454   3.241   4.654   3.425
 7038SOL     OW32455   2.677   4.296   2.187
 7038SOL    HW132456   2.684   4.207   2.141
 7038SOL    HW232457   2.583   4.330   2.179
 7039SOL     OW32458   3.519   4.328   3.068
 7039SOL    HW132459   3.481   4.259   3.130
 7039SOL    HW232460   3.601   4.292   3.024
 7040SOL     OW32461   2.533   4.188   3.131
 7040SOL    HW132462   2.499   4.099   3.101
 7040SOL    HW232463   2.559   4.242   3.051
 7041SOL     OW32464   2.335   4.224   2.053
 7041SOL    HW132465   2.396   4.304   2.057
 7041SOL    HW232466   2.240   4.255   2.060
 7042SOL     OW32467   2.021   4.861   3.328
 7042SOL    HW132468   2.043   4.800   3.404
 7042SOL    HW232469   2.031   4.812   3.242
 7043SOL     OW32470   3.209   4.783   3.096
 7043SOL    HW132471   3.233   4.720   3.022
 7043SOL    HW232472   3.119   4.823   3.078
 7044SOL     OW32473   3.164   4.579   2.171
 7044SOL    HW132474   3.078   4.548   2.213
 7044SOL    HW232475   3.160   4.565   2.072
 7045SOL     OW32476   3.588   3.859   2.385
 7045SOL    HW132477   3.661   3.842   2.318
 7045SOL    HW232478   3.557   3.772   2.423
 7046SOL     OW32479   3.142   4.651   2.534
 7046SOL    HW132480   3.202   4.570   2.536
 7046SOL    HW232481   3.182   4.720   2.474
 7047SOL     OW32482   3.703   3.899   2.825
 7047SOL    HW132483   3.742   3.814   2.789
 7047SOL    HW232484   3.605   3.901   2.806
 7048SOL     OW32485   2.125   4.050   2.582
 7048SOL    HW132486   2.046   4.101   2.548
 7048SOL    HW232487   2.116   4.035   2.680
 7049SOL     OW32488   2.778   4.634   2.153
 7049SOL    HW132489   2.841   4.672   2.085
 7049SOL    HW232490   2.818   4.551   2.192
 7050SOL     OW32491   2.876   3.960   2.833
 7050SOL    HW132492   2.868   3.924   2.740
 7050SOL    HW232493   2.874   3.884   2.898
 7051SOL     OW32494   3.571   4.109   3.243
 7051SOL    HW132495   3.644   4.178   3.247
 7051SOL    HW232496   3.599   4.034   3.184
 7052SOL     OW32497   1.967   4.737   3.588
 7052SOL    HW132498   1.890   4.704   3.642
 7052SOL    HW232499   2.052   4.707   3.630
 7053SOL     OW32500   2.534   3.927   3.351
 7053SOL    HW132501   2.624   3.911   3.311
 7053SOL    HW232502   2.542   3.932   3.450
 7054SOL     OW32503   1.937   4.069   1.895
 7054SOL    HW132504   1.845   4.041   1.866
 7054SOL    HW232505   1.968   4.146   1.839
 7055SOL     OW32506   3.302   4.580   3.260
 7055SOL    HW132507   3.245   4.632   3.197
 7055SOL    HW232508   3.398   4.592   3.236
 7056SOL     OW32509   1.934   3.890   2.180
 7056SOL    HW132510   1.917   3.973   2.126
 7056SOL    HW232511   2.024   3.853   2.158
 7057SOL     OW32512   3.045   5.059   1.981
 7057SOL    HW132513   2.946   5.048   1.983
 7057SOL    HW232514   3.079   5.074   2.074
 7058SOL     OW32515   2.475   4.566   3.293
 7058SOL    HW132516   2.531   4.647   3.276
 7058SOL    HW232517   2.534   4.486   3.296
 7059SOL     OW32518   2.578   4.289   3.570
 7059SOL    HW132519   2.597   4.354   3.644
 7059SOL    HW232520   2.638   4.209   3.579
 7060SOL     OW32521   3.536   4.607   3.116
 7060SOL    HW132522   3.509   4.518   3.079
 7060SOL    HW232523   3.537   4.675   3.043
 7061SOL     OW32524   3.087   4.049   2.311
 7061SOL    HW132525   3.152   3.975   2.300
 7061SOL    HW232526   3.107   4.099   2.395
 7062SOL     OW32527   2.456   4.469   2.514
 7062SOL    HW132528   2.506   4.554   2.495
 7062SOL    HW232529   2.368   4.471   2.466
 7063SOL     OW32530   3.639   4.066   3.504
 7063SOL    HW132531   3.622   4.097   3.410
 7063SOL    HW232532   3.555   4.029   3.542
 7064SOL     OW32533   3.592   4.658   3.379
 7064SOL    HW132534   3.630   4.749   3.394
 7064SOL    HW232535   3.584   4.641   3.280
 7065SOL     OW32536   2.721   4.680   2.723
 7065SOL    HW132537   2.775   4.611   2.771
 7065SOL    HW232538   2.689   4.749   2.789
 7066SOL     OW32539   2.945   4.708   1.949
 7066SOL    HW132540   2.922   4.761   1.867
 7066SOL    HW232541   3.026   4.652   1.930
 7067SOL     OW32542   1.941   4.964   2.515
 7067SOL    HW132543   1.940   4.917   2.603
 7067SOL    HW232544   2.023   4.936   2.464
 7068SOL     OW32545   3.686   3.916   3.089
 7068SOL    HW132546   3.682   3.826   3.133
 7068SOL    HW232547   3.689   3.905   2.990
 7069SOL     OW32548   2.290   4.148   2.382
 7069SOL    HW132549   2.320   4.076   2.320
 7069SOL    HW232550   2.251   4.108   2.465
 7070SOL     OW32551   2.179   4.271   3.142
 7070SOL    HW132552   2.217   4.212   3.214
 7070SOL    HW232553   2.219   4.245   3.054
 7071SOL     OW32554   3.286   3.938   2.974
 7071SOL    HW132555   3.338   3.873   3.029
 7071SOL    HW232556   3.237   4.001   3.035
 7072SOL     OW32557   2.863   3.758   3.016
 7072SOL    HW132558   2.800   3.686   2.985
 7072SOL    HW232559   2.956   3.722   3.016
 7073SOL     OW32560   3.162   4.177   2.553
 7073SOL    HW132561   3.103   4.257   2.557
 7073SOL    HW232562   3.177   4.142   2.646
 7074SOL     OW32563   3.455   3.945   2.744
 7074SOL    HW132564   3.371   3.944   2.798
 7074SOL    HW232565   3.457   4.028   2.688
 7075SOL     OW32566   1.901   4.801   2.162
 7075SOL    HW132567   2.000   4.790   2.153
 7075SOL    HW232568   1.861   4.715   2.194
 7076SOL     OW32569   2.092   4.352   3.837
 7076SOL    HW132570   1.999   4.350   3.874
 7076SOL    HW232571   2.093   4.313   3.745
 7077SOL     OW32572   1.881   4.092   4.371
 7077SOL    HW132573   1.799   4.135   4.410
 7077SOL    HW232574   1.853   4.019   4.308
 7078SOL     OW32575   2.997   4.427   4.441
 7078SOL    HW132576   3.054   4.505   4.416
 7078SOL    HW232577   2.937   4.453   4.517
 7079SOL     OW32578   3.617   4.331   3.955
 7079SOL    HW132579   3.605   4.318   3.856
 7079SOL    HW232580   3.587   4.250   4.004
 7080SOL     OW32581   2.630   4.868   4.747
 7080SOL    HW132582   2.552   4.885   4.807
 7080SOL    HW232583   2.664   4.955   4.711
 7081SOL     OW32584   2.712   4.522   5.547
 7081SOL    HW132585   2.708   4.598   5.612
 7081SOL    HW232586   2.734   4.558   5.456
 7082SOL     OW32587   2.547   4.736   4.389
 7082SOL    HW132588   2.616   4.720   4.459
 7082SOL    HW232589   2.474   4.793   4.427
 7083SOL     OW32590   2.300   4.116   5.223
 7083SOL    HW132591   2.382   4.060   5.232
 7083SOL    HW232592   2.219   4.058   5.227
 7084SOL     OW32593   3.465   4.171   4.461
 7084SOL    HW132594   3.391   4.217   4.411
 7084SOL    HW232595   3.516   4.239   4.514
 7085SOL     OW32596   2.102   4.815   4.610
 7085SOL    HW132597   2.116   4.731   4.662
 7085SOL    HW232598   2.047   4.879   4.665
 7086SOL     OW32599   2.468   4.688   3.847
 7086SOL    HW132600   2.475   4.772   3.793
 7086SOL    HW232601   2.514   4.701   3.935
 7087SOL     OW32602   3.456   3.838   5.204
 7087SOL    HW132603   3.438   3.905   5.132
 7087SOL    HW232604   3.453   3.884   5.293
 7088SOL     OW32605   1.984   4.367   4.287
 7088SOL    HW132606   1.939   4.279   4.304
 7088SOL    HW232607   1.983   4.421   4.371
 7089SOL     OW32608   3.551   4.646   4.336
 7089SOL    HW132609   3.646   4.617   4.344
 7089SOL    HW232610   3.543   4.711   4.261
 7090SOL     OW32611   1.975   4.461   5.321
 7090SOL    HW132612   2.063   4.448   5.366
 7090SOL    HW232613   1.962   4.558   5.299
 7091SOL     OW32614   2.671   3.728   4.226
 7091SOL    HW132615   2.711   3.819   4.217
 7091SOL    HW232616   2.571   3.736   4.232
 7092SOL     OW32617   2.059   4.700   4.988
 7092SOL    HW132618   2.148   4.655   4.974
 7092SOL    HW232619   1.986   4.635   4.969
 7093SOL     OW32620   3.387   4.723   3.914
 7093SOL    HW132621   3.324   4.647   3.927
 7093SOL    HW232622   3.435   4.741   4.000
 7094SOL     OW32623   2.179   3.975   5.525
 7094SOL    HW132624   2.250   4.046   5.531
 7094SOL    HW232625   2.091   4.014   5.553
 7095SOL     OW32626   2.460   4.453   3.994
 7095SOL    HW132627   2.484   4.522   3.926
 7095SOL    HW232628   2.382   4.486   4.048
 7096SOL     OW32629   3.143   4.069   4.668
 7096SOL    HW132630   3.057   4.019   4.655
 7096SOL    HW232631   3.205   4.015   4.724
 7097SOL     OW32632   2.669   4.329   5.189
 7097SOL    HW132633   2.622   4.326   5.278
 7097SOL    HW232634   2.618   4.274   5.123
 7098SOL     OW32635   3.256   4.193   5.398
 7098SOL    HW132636   3.236   4.236   5.486
 7098SOL    HW232637   3.334   4.131   5.407
 7099SOL     OW32638   2.835   4.614   5.296
 7099SOL    HW132639   2.881   4.530   5.267
 7099SOL    HW232640   2.779   4.648   5.221
 7100SOL     OW32641   2.853   4.134   4.966
 7100SOL    HW132642   2.776   4.168   5.020
 7100SOL    HW232643   2.819   4.083   4.887
 7101SOL     OW32644   2.903   4.425   4.153
 7101SOL    HW132645   2.929   4.421   4.249
 7101SOL    HW232646   2.818   4.374   4.139
 7102SOL     OW32647   1.938   4.535   4.513
 7102SOL    HW132648   2.037   4.523   4.522
 7102SOL    HW232649   1.914   4.630   4.534
 7103SOL     OW32650   2.727   4.072   3.919
 7103SOL    HW132651   2.786   4.135   3.870
 7103SOL    HW232652   2.746   3.978   3.890
 7104SOL     OW32653   3.581   4.309   5.555
 7104SOL    HW132654   3.555   4.398   5.519
 7104SOL    HW232655   3.579   4.241   5.482
 7105SOL     OW32656   2.412   3.920   4.609
 7105SOL    HW132657   2.407   3.915   4.709
 7105SOL    HW232658   2.414   4.016   4.580
 7106SOL     OW32659   2.064   4.009   5.222
 7106SOL    HW132660   1.984   4.069   5.209
 7106SOL    HW232661   2.054   3.960   5.308
 7107SOL     OW32662   3.262   3.831   4.150
 7107SOL    HW132663   3.238   3.794   4.060
 7107SOL    HW232664   3.361   3.847   4.154
 7108SOL     OW32665   2.244   4.424   4.204
 7108SOL    HW132666   2.289   4.334   4.201
 7108SOL    HW232667   2.150   4.413   4.237
 7109SOL     OW32668   3.409   3.946   5.453
 7109SOL    HW132669   3.404   3.983   5.545
 7109SOL    HW232670   3.337   3.877   5.441
 7110SOL     OW32671   2.476   3.846   3.841
 7110SOL    HW132672   2.574   3.824   3.848
 7110SOL    HW232673   2.445   3.829   3.748
 7111SOL     OW32674   2.643   3.988   5.473
 7111SOL    HW132675   2.710   3.927   5.516
 7111SOL    HW232676   2.570   4.007   5.538
 7112SOL     OW32677   3.213   4.314   5.157
 7112SOL    HW132678   3.241   4.271   5.242
 7112SOL    HW232679   3.238   4.410   5.158
 7113SOL     OW32680   2.784   4.227   4.623
 7113SOL    HW132681   2.759   4.218   4.527
 7113SOL    HW232682   2.832   4.145   4.654
 7114SOL     OW32683   2.401   3.788   4.236
 7114SOL    HW132684   2.320   3.789   4.294
 7114SOL    HW232685   2.404   3.871   4.181
 7115SOL     OW32686   2.159   3.759   3.895
 7115SOL    HW132687   2.208   3.843   3.874
 7115SOL    HW232688   2.221   3.694   3.940
 7116SOL     OW32689   2.797   3.960   4.204
 7116SOL    HW132690   2.749   4.001   4.126
 7116SOL    HW232691   2.896   3.958   4.185
 7117SOL     OW32692   2.938   4.407   5.188
 7117SOL    HW132693   2.858   4.346   5.191
 7117SOL    HW232694   3.019   4.354   5.164
 7118SOL     OW32695   2.894   4.273   3.740
 7118SOL    HW132696   2.853   4.355   3.701
 7118SOL    HW232697   2.958   4.299   3.813
 7119SOL     OW32698   1.940   4.280   5.110
 7119SOL    HW132699   2.032   4.279   5.069
 7119SOL    HW232700   1.934   4.354   5.177
 7120SOL     OW32701   2.423   3.946   4.871
 7120SOL    HW132702   2.461   3.862   4.908
 7120SOL    HW232703   2.335   3.965   4.915
 7121SOL     OW32704   2.728   4.178   4.366
 7121SOL    HW132705   2.696   4.250   4.304
 7121SOL    HW232706   2.752   4.097   4.313
 7122SOL     OW32707   2.879   3.763   4.477
 7122SOL    HW132708   2.807   3.768   4.408
 7122SOL    HW232709   2.855   3.694   4.546
 7123SOL     OW32710   3.291   4.897   4.591
 7123SOL    HW132711   3.236   4.813   4.584
 7123SOL    HW232712   3.317   4.926   4.499
 7124SOL     OW32713   3.719   4.557   4.101
 7124SOL    HW132714   3.761   4.493   4.165
 7124SOL    HW232715   3.681   4.506   4.023
 7125SOL     OW32716   3.252   4.299   3.802
 7125SOL    HW132717   3.198   4.278   3.883
 7125SOL    HW232718   3.343   4.258   3.811
 7126SOL     OW32719   2.389   3.980   4.052
 7126SOL    HW132720   2.416   3.921   3.977
 7126SOL    HW232721   2.389   4.075   4.021
 7127SOL     OW32722   3.500   4.823   4.803
 7127SOL    HW132723   3.505   4.904   4.862
 7127SOL    HW232724   3.414   4.825   4.752
 7128SOL     OW32725   2.777   3.813   5.126
 7128SOL    HW132726   2.802   3.793   5.031
 7128SOL    HW232727   2.849   3.869   5.168
 7129SOL     OW32728   2.272   4.537   4.975
 7129SOL    HW132729   2.358   4.549   5.025
 7129SOL    HW232730   2.230   4.450   5.002
 7130SOL     OW32731   3.136   4.110   4.986
 7130SOL    HW132732   3.157   4.184   5.050
 7130SOL    HW232733   3.047   4.127   4.943
 7131SOL     OW32734   2.428   4.261   4.589
 7131SOL    HW132735   2.440   4.327   4.515
 7131SOL    HW232736   2.474   4.295   4.672
 7132SOL     OW32737   3.444   4.363   4.196
 7132SOL    HW132738   3.413   4.424   4.269
 7132SOL    HW232739   3.494   4.415   4.127
 7133SOL     OW32740   2.264   4.475   5.322
 7133SOL    HW132741   2.332   4.530   5.275
 7133SOL    HW232742   2.304   4.387   5.349
 7134SOL     OW32743   3.449   4.503   5.394
 7134SOL    HW132744   3.357   4.541   5.389
 7134SOL    HW232745   3.509   4.550   5.329
 7135SOL     OW32746   2.875   3.829   5.494
 7135SOL    HW132747   2.881   3.914   5.442
 7135SOL    HW232748   2.907   3.753   5.437
 7136SOL     OW32749   2.366   3.774   5.464
 7136SOL    HW132750   2.324   3.717   5.394
 7136SOL    HW232751   2.300   3.843   5.496
 7137SOL     OW32752   2.435   4.594   4.753
 7137SOL    HW132753   2.479   4.683   4.744
 7137SOL    HW232754   2.372   4.594   4.830
 7138SOL     OW32755   3.222   4.586   4.769
 7138SOL    HW132756   3.147   4.586   4.703
 7138SOL    HW232757   3.259   4.494   4.778
 7139SOL     OW32758   3.071   4.249   3.999
 7139SOL    HW132759   3.084   4.165   4.053
 7139SOL    HW232760   3.042   4.323   4.059
 7140SOL     OW32761   2.169   3.937   4.955
 7140SOL    HW132762   2.146   3.974   5.045
 7140SOL    HW232763   2.139   3.842   4.949
 7141SOL     OW32764   2.594   4.358   4.788
 7141SOL    HW132765   2.653   4.332   4.712
 7141SOL    HW232766   2.566   4.454   4.777
 7142SOL     OW32767   3.590   4.659   5.578
 7142SOL    HW132768   3.544   4.652   5.489
 7142SOL    HW232769   3.528   4.703   5.644
 7143SOL     OW32770   2.169   3.787   4.342
 7143SOL    HW132771   2.158   3.881   4.375
 7143SOL    HW232772   2.164   3.724   4.419
 7144SOL     OW32773   3.484   4.091   4.098
 7144SOL    HW132774   3.486   4.015   4.162
 7144SOL    HW232775   3.436   4.168   4.138
 7145SOL     OW32776   2.885   4.490   4.690
 7145SOL    HW132777   2.900   4.511   4.786
 7145SOL    HW232778   2.855   4.395   4.681
 7146SOL     OW32779   2.212   4.622   5.528
 7146SOL    HW132780   2.288   4.666   5.576
 7146SOL    HW232781   2.247   4.575   5.446
 7147SOL     OW32782   3.402   3.998   3.849
 7147SOL    HW132783   3.341   3.923   3.872
 7147SOL    HW232784   3.424   4.050   3.932
 7148SOL     OW32785   3.165   4.562   3.766
 7148SOL    HW132786   3.199   4.469   3.781
 7148SOL    HW232787   3.183   4.589   3.671
 7149SOL     OW32788   2.181   4.534   4.673
 7149SOL    HW132789   2.274   4.570   4.678
 7149SOL    HW232790   2.175   4.449   4.725
 7150SOL     OW32791   2.201   4.233   4.730
 7150SOL    HW132792   2.149   4.150   4.713
 7150SOL    HW232793   2.278   4.238   4.666
 7151SOL     OW32794   3.000   4.104   5.402
 7151SOL    HW132795   2.955   4.167   5.466
 7151SOL    HW232796   3.093   4.135   5.385
 7152SOL     OW32797   3.022   3.931   5.201
 7152SOL    HW132798   3.022   3.995   5.278
 7152SOL    HW232799   3.050   3.979   5.118
 7153SOL     OW32800   2.864   4.520   4.962
 7153SOL    HW132801   2.905   4.488   5.048
 7153SOL    HW232802   2.768   4.493   4.959
 7154SOL     OW32803   1.902   4.268   4.838
 7154SOL    HW132804   1.987   4.235   4.797
 7154SOL    HW232805   1.915   4.283   4.936
 7155SOL     OW32806   2.051   4.244   5.446
 7155SOL    HW132807   2.110   4.204   5.376
 7155SOL    HW232808   1.993   4.315   5.405
 7156SOL     OW32809   3.231   4.674   5.384
 7156SOL    HW132810   3.270   4.763   5.404
 7156SOL    HW232811   3.241   4.654   5.287
 7157SOL     OW32812   2.677   4.296   4.049
 7157SOL    HW132813   2.684   4.207   4.003
 7157SOL    HW232814   2.583   4.330   4.041
 7158SOL     OW32815   3.519   4.328   4.930
 7158SOL    HW132816   3.481   4.259   4.992
 7158SOL    HW232817   3.601   4.292   4.886
 7159SOL     OW32818   2.533   4.188   4.993
 7159SOL    HW132819   2.499   4.099   4.963
 7159SOL    HW232820   2.559   4.242   4.913
 7160SOL     OW32821   2.335   4.224   3.915
 7160SOL    HW132822   2.396   4.304   3.919
 7160SOL    HW232823   2.240   4.255   3.922
 7161SOL     OW32824   2.021   4.861   5.190
 7161SOL    HW132825   2.043   4.800   5.266
 7161SOL    HW232826   2.031   4.812   5.104
 7162SOL     OW32827   3.209   4.783   4.958
 7162SOL    HW132828   3.233   4.720   4.884
 7162SOL    HW232829   3.119   4.823   4.940
 7163SOL     OW32830   3.164   4.579   4.033
 7163SOL    HW132831   3.078   4.548   4.075
 7163SOL    HW232832   3.160   4.565   3.934
 7164SOL     OW32833   3.588   3.859   4.247
 7164SOL    HW132834   3.661   3.842   4.180
 7164SOL    HW232835   3.557   3.772   4.285
 7165SOL     OW32836   3.142   4.651   4.396
 7165SOL    HW132837   3.202   4.570   4.398
 7165SOL    HW232838   3.182   4.720   4.336
 7166SOL     OW32839   3.703   3.899   4.687
 7166SOL    HW132840   3.742   3.814   4.651
 7166SOL    HW232841   3.605   3.901   4.668
 7167SOL     OW32842   2.125   4.050   4.444
 7167SOL    HW132843   2.046   4.101   4.410
 7167SOL    HW232844   2.116   4.035   4.542
 7168SOL     OW32845   2.778   4.634   4.015
 7168SOL    HW132846   2.841   4.672   3.947
 7168SOL    HW232847   2.818   4.551   4.054
 7169SOL     OW32848   2.876   3.960   4.695
 7169SOL    HW132849   2.868   3.924   4.602
 7169SOL    HW232850   2.874   3.884   4.760
 7170SOL     OW32851   3.571   4.109   5.105
 7170SOL    HW132852   3.644   4.178   5.109
 7170SOL    HW232853   3.599   4.034   5.046
 7171SOL     OW32854   1.967   4.737   5.450
 7171SOL    HW132855   1.890   4.704   5.504
 7171SOL    HW232856   2.052   4.707   5.492
 7172SOL     OW32857   2.534   3.927   5.213
 7172SOL    HW132858   2.624   3.911   5.173
 7172SOL    HW232859   2.542   3.932   5.312
 7173SOL     OW32860   1.937   4.069   3.757
 7173SOL    HW132861   1.845   4.041   3.728
 7173SOL    HW232862   1.968   4.146   3.701
 7174SOL     OW32863   3.302   4.580   5.122
 7174SOL    HW132864   3.245   4.632   5.059
 7174SOL    HW232865   3.398   4.592   5.098
 7175SOL     OW32866   1.934   3.890   4.042
 7175SOL    HW132867   1.917   3.973   3.988
 7175SOL    HW232868   2.024   3.853   4.020
 7176SOL     OW32869   3.045   5.059   3.843
 7176SOL    HW132870   2.946   5.048   3.845
 7176SOL    HW232871   3.079   5.074   3.936
 7177SOL     OW32872   2.475   4.566   5.155
 7177SOL    HW132873   2.531   4.647   5.138
 7177SOL    HW232874   2.534   4.486   5.158
 7178SOL     OW32875   2.578   4.289   5.432
 7178SOL    HW132876   2.597   4.354   5.506
 7178SOL    HW232877   2.638   4.209   5.441
 7179SOL     OW32878   3.536   4.607   4.978
 7179SOL    HW132879   3.509   4.518   4.941
 7179SOL    HW232880   3.537   4.675   4.905
 7180SOL     OW32881   3.087   4.049   4.173
 7180SOL    HW132882   3.152   3.975   4.162
 7180SOL    HW232883   3.107   4.099   4.257
 7181SOL     OW32884   2.456   4.469   4.376
 7181SOL    HW132885   2.506   4.554   4.357
 7181SOL    HW232886   2.368   4.471   4.328
 7182SOL     OW32887   3.639   4.066   5.366
 7182SOL    HW132888   3.622   4.097   5.272
 7182SOL    HW232889   3.555   4.029   5.404
 7183SOL     OW32890   3.592   4.658   5.241
 7183SOL    HW132891   3.630   4.749   5.256
 7183SOL    HW232892   3.584   4.641   5.142
 7184SOL     OW32893   2.721   4.680   4.585
 7184SOL    HW132894   2.775   4.611   4.633
 7184SOL    HW232895   2.689   4.749   4.651
 7185SOL     OW32896   2.945   4.708   3.811
 7185SOL    HW132897   2.922   4.761   3.729
 7185SOL    HW232898   3.026   4.652   3.792
 7186SOL     OW32899   1.941   4.964   4.377
 7186SOL    HW132900   1.940   4.917   4.465
 7186SOL    HW232901   2.023   4.936   4.326
 7187SOL     OW32902   3.686   3.916   4.951
 7187SOL    HW132903   3.682   3.826   4.995
 7187SOL    HW232904   3.689   3.905   4.852
 7188SOL     OW32905   2.290   4.148   4.244
 7188SOL    HW132906   2.320   4.076   4.182
 7188SOL    HW232907   2.251   4.108   4.327
 7189SOL     OW32908   2.179   4.271   5.004
 7189SOL    HW132909   2.217   4.212   5.076
 7189SOL    HW232910   2.219   4.245   4.916
 7190SOL     OW32911   3.286   3.938   4.836
 7190SOL    HW132912   3.338   3.873   4.891
 7190SOL    HW232913   3.237   4.001   4.897
 7191SOL     OW32914   2.863   3.758   4.878
 7191SOL    HW132915   2.800   3.686   4.847
 7191SOL    HW232916   2.956   3.722   4.878
 7192SOL     OW32917   3.214   3.776   3.892
 7192SOL    HW132918   3.249   3.735   3.808
 7192SOL    HW232919   3.124   3.738   3.912
 7193SOL     OW32920   3.162   4.177   4.415
 7193SOL    HW132921   3.103   4.257   4.419
 7193SOL    HW232922   3.177   4.142   4.508
 7194SOL     OW32923   3.455   3.945   4.606
 7194SOL    HW132924   3.371   3.944   4.660
 7194SOL    HW232925   3.457   4.028   4.550
 7195SOL     OW32926   1.901   4.801   4.024
 7195SOL    HW132927   2.000   4.790   4.015
 7195SOL    HW232928   1.861   4.715   4.056
 7196SOL     OW32929   2.092   4.352   5.699
 7196SOL    HW132930   1.999   4.350   5.736
 7196SOL    HW232931   2.093   4.313   5.607
 7197SOL     OW32932   2.087   3.999   6.582
 7197SOL    HW132933   2.122   3.982   6.674
 7197SOL    HW232934   1.999   3.954   6.570
 7198SOL     OW32935   1.881   4.092   6.233
 7198SOL    HW132936   1.799   4.135   6.272
 7198SOL    HW232937   1.853   4.019   6.170
 7199SOL     OW32938   2.997   4.427   6.303
 7199SOL    HW132939   3.054   4.505   6.278
 7199SOL    HW232940   2.937   4.453   6.379
 7200SOL     OW32941   3.617   4.331   5.817
 7200SOL    HW132942   3.605   4.318   5.718
 7200SOL    HW232943   3.587   4.250   5.866
 7201SOL     OW32944   2.630   4.868   6.609
 7201SOL    HW132945   2.552   4.885   6.669
 7201SOL    HW232946   2.664   4.955   6.573
 7202SOL     OW32947   2.712   4.522   7.409
 7202SOL    HW132948   2.708   4.598   7.474
 7202SOL    HW232949   2.734   4.558   7.318
 7203SOL     OW32950   2.547   4.736   6.251
 7203SOL    HW132951   2.616   4.720   6.321
 7203SOL    HW232952   2.474   4.793   6.289
 7204SOL     OW32953   2.300   4.116   7.085
 7204SOL    HW132954   2.382   4.060   7.094
 7204SOL    HW232955   2.219   4.058   7.089
 7205SOL     OW32956   3.465   4.171   6.323
 7205SOL    HW132957   3.391   4.217   6.273
 7205SOL    HW232958   3.516   4.239   6.376
 7206SOL     OW32959   2.102   4.815   6.472
 7206SOL    HW132960   2.116   4.731   6.524
 7206SOL    HW232961   2.047   4.879   6.527
 7207SOL     OW32962   2.468   4.688   5.709
 7207SOL    HW132963   2.475   4.772   5.655
 7207SOL    HW232964   2.514   4.701   5.797
 7208SOL     OW32965   3.456   3.838   7.066
 7208SOL    HW132966   3.438   3.905   6.994
 7208SOL    HW232967   3.453   3.884   7.155
 7209SOL     OW32968   1.984   4.367   6.149
 7209SOL    HW132969   1.939   4.279   6.166
 7209SOL    HW232970   1.983   4.421   6.233
 7210SOL     OW32971   3.551   4.646   6.198
 7210SOL    HW132972   3.646   4.617   6.206
 7210SOL    HW232973   3.543   4.711   6.123
 7211SOL     OW32974   1.975   4.461   7.183
 7211SOL    HW132975   2.063   4.448   7.228
 7211SOL    HW232976   1.962   4.558   7.161
 7212SOL     OW32977   2.671   3.728   6.088
 7212SOL    HW132978   2.711   3.819   6.079
 7212SOL    HW232979   2.571   3.736   6.094
 7213SOL     OW32980   2.059   4.700   6.850
 7213SOL    HW132981   2.148   4.655   6.836
 7213SOL    HW232982   1.986   4.635   6.831
 7214SOL     OW32983   3.387   4.723   5.776
 7214SOL    HW132984   3.324   4.647   5.789
 7214SOL    HW232985   3.435   4.741   5.862
 7215SOL     OW32986   2.179   3.975   7.387
 7215SOL    HW132987   2.250   4.046   7.393
 7215SOL    HW232988   2.091   4.014   7.415
 7216SOL     OW32989   2.460   4.453   5.856
 7216SOL    HW132990   2.484   4.522   5.788
 7216SOL    HW232991   2.382   4.486   5.910
 7217SOL     OW32992   3.143   4.069   6.530
 7217SOL    HW132993   3.057   4.019   6.517
 7217SOL    HW232994   3.205   4.015   6.586
 7218SOL     OW32995   2.669   4.329   7.051
 7218SOL    HW132996   2.622   4.326   7.140
 7218SOL    HW232997   2.618   4.274   6.985
 7219SOL     OW32998   3.256   4.193   7.260
 7219SOL    HW132999   3.236   4.236   7.348
 7219SOL    HW233000   3.334   4.131   7.269
 7220SOL     OW33001   2.835   4.614   7.158
 7220SOL    HW133002   2.881   4.530   7.129
 7220SOL    HW233003   2.779   4.648   7.083
 7221SOL     OW33004   2.853   4.134   6.828
 7221SOL    HW133005   2.776   4.168   6.882
 7221SOL    HW233006   2.819   4.083   6.749
 7222SOL     OW33007   2.903   4.425   6.015
 7222SOL    HW133008   2.929   4.421   6.111
 7222SOL    HW233009   2.818   4.374   6.001
 7223SOL     OW33010   1.938   4.535   6.375
 7223SOL    HW133011   2.037   4.523   6.384
 7223SOL    HW233012   1.914   4.630   6.396
 7224SOL     OW33013   2.727   4.072   5.781
 7224SOL    HW133014   2.786   4.135   5.732
 7224SOL    HW233015   2.746   3.978   5.752
 7225SOL     OW33016   3.581   4.309   7.417
 7225SOL    HW133017   3.555   4.398   7.381
 7225SOL    HW233018   3.579   4.241   7.344
 7226SOL     OW33019   2.412   3.920   6.471
 7226SOL    HW133020   2.407   3.915   6.571
 7226SOL    HW233021   2.414   4.016   6.442
 7227SOL     OW33022   3.320   4.459   6.314
 7227SOL    HW133023   3.315   4.394   6.389
 7227SOL    HW233024   3.400   4.518   6.327
 7228SOL     OW33025   2.064   4.009   7.084
 7228SOL    HW133026   1.984   4.069   7.071
 7228SOL    HW233027   2.054   3.960   7.170
 7229SOL     OW33028   3.262   3.831   6.012
 7229SOL    HW133029   3.238   3.794   5.922
 7229SOL    HW233030   3.361   3.847   6.016
 7230SOL     OW33031   2.244   4.424   6.066
 7230SOL    HW133032   2.289   4.334   6.063
 7230SOL    HW233033   2.150   4.413   6.099
 7231SOL     OW33034   3.409   3.946   7.315
 7231SOL    HW133035   3.404   3.983   7.407
 7231SOL    HW233036   3.337   3.877   7.303
 7232SOL     OW33037   2.476   3.846   5.703
 7232SOL    HW133038   2.574   3.824   5.710
 7232SOL    HW233039   2.445   3.829   5.610
 7233SOL     OW33040   2.643   3.988   7.335
 7233SOL    HW133041   2.710   3.927   7.378
 7233SOL    HW233042   2.570   4.007   7.400
 7234SOL     OW33043   3.213   4.314   7.019
 7234SOL    HW133044   3.241   4.271   7.104
 7234SOL    HW233045   3.238   4.410   7.020
 7235SOL     OW33046   2.784   4.227   6.485
 7235SOL    HW133047   2.759   4.218   6.389
 7235SOL    HW233048   2.832   4.145   6.516
 7236SOL     OW33049   2.401   3.788   6.098
 7236SOL    HW133050   2.320   3.789   6.156
 7236SOL    HW233051   2.404   3.871   6.043
 7237SOL     OW33052   2.159   3.759   5.757
 7237SOL    HW133053   2.208   3.843   5.736
 7237SOL    HW233054   2.221   3.694   5.802
 7238SOL     OW33055   2.797   3.960   6.066
 7238SOL    HW133056   2.749   4.001   5.988
 7238SOL    HW233057   2.896   3.958   6.047
 7239SOL     OW33058   2.938   4.407   7.050
 7239SOL    HW133059   2.858   4.346   7.053
 7239SOL    HW233060   3.019   4.354   7.026
 7240SOL     OW33061   2.894   4.273   5.602
 7240SOL    HW133062   2.853   4.355   5.563
 7240SOL    HW233063   2.958   4.299   5.675
 7241SOL     OW33064   1.940   4.280   6.972
 7241SOL    HW133065   2.032   4.279   6.931
 7241SOL    HW233066   1.934   4.354   7.039
 7242SOL     OW33067   2.423   3.946   6.733
 7242SOL    HW133068   2.461   3.862   6.770
 7242SOL    HW233069   2.335   3.965   6.777
 7243SOL     OW33070   2.728   4.178   6.228
 7243SOL    HW133071   2.696   4.250   6.166
 7243SOL    HW233072   2.752   4.097   6.175
 7244SOL     OW33073   2.879   3.763   6.339
 7244SOL    HW133074   2.807   3.768   6.270
 7244SOL    HW233075   2.855   3.694   6.408
 7245SOL     OW33076   3.291   4.897   6.453
 7245SOL    HW133077   3.236   4.813   6.446
 7245SOL    HW233078   3.317   4.926   6.361
 7246SOL     OW33079   3.328   4.314   6.578
 7246SOL    HW133080   3.298   4.219   6.585
 7246SOL    HW233081   3.401   4.330   6.644
 7247SOL     OW33082   3.719   4.557   5.963
 7247SOL    HW133083   3.761   4.493   6.027
 7247SOL    HW233084   3.681   4.506   5.885
 7248SOL     OW33085   3.252   4.299   5.664
 7248SOL    HW133086   3.198   4.278   5.745
 7248SOL    HW233087   3.343   4.258   5.673
 7249SOL     OW33088   2.389   3.980   5.914
 7249SOL    HW133089   2.416   3.921   5.839
 7249SOL    HW233090   2.389   4.075   5.883
 7250SOL     OW33091   3.500   4.823   6.665
 7250SOL    HW133092   3.505   4.904   6.724
 7250SOL    HW233093   3.414   4.825   6.614
 7251SOL     OW33094   2.777   3.813   6.988
 7251SOL    HW133095   2.802   3.793   6.893
 7251SOL    HW233096   2.849   3.869   7.030
 7252SOL     OW33097   2.272   4.537   6.837
 7252SOL    HW133098   2.358   4.549   6.887
 7252SOL    HW233099   2.230   4.450   6.864
 7253SOL     OW33100   3.136   4.110   6.848
 7253SOL    HW133101   3.157   4.184   6.912
 7253SOL    HW233102   3.047   4.127   6.805
 7254SOL     OW33103   2.428   4.261   6.451
 7254SOL    HW133104   2.440   4.327   6.377
 7254SOL    HW233105   2.474   4.295   6.534
 7255SOL     OW33106   3.444   4.363   6.058
 7255SOL    HW133107   3.413   4.424   6.131
 7255SOL    HW233108   3.494   4.415   5.989
 7256SOL     OW33109   2.264   4.475   7.184
 7256SOL    HW133110   2.332   4.530   7.137
 7256SOL    HW233111   2.304   4.387   7.211
 7257SOL     OW33112   3.449   4.503   7.256
 7257SOL    HW133113   3.357   4.541   7.251
 7257SOL    HW233114   3.509   4.550   7.191
 7258SOL     OW33115   2.875   3.829   7.356
 7258SOL    HW133116   2.881   3.914   7.304
 7258SOL    HW233117   2.907   3.753   7.299
 7259SOL     OW33118   2.366   3.774   7.326
 7259SOL    HW133119   2.324   3.717   7.256
 7259SOL    HW233120   2.300   3.843   7.358
 7260SOL     OW33121   2.435   4.594   6.615
 7260SOL    HW133122   2.479   4.683   6.606
 7260SOL    HW233123   2.372   4.594   6.692
 7261SOL     OW33124   3.222   4.586   6.631
 7261SOL    HW133125   3.147   4.586   6.565
 7261SOL    HW233126   3.259   4.494   6.640
 7262SOL     OW33127   3.071   4.249   5.861
 7262SOL    HW133128   3.084   4.165   5.915
 7262SOL    HW233129   3.042   4.323   5.921
 7263SOL     OW33130   2.169   3.937   6.817
 7263SOL    HW133131   2.146   3.974   6.907
 7263SOL    HW233132   2.139   3.842   6.811
 7264SOL     OW33133   2.594   4.358   6.650
 7264SOL    HW133134   2.653   4.332   6.574
 7264SOL    HW233135   2.566   4.454   6.639
 7265SOL     OW33136   3.590   4.659   7.440
 7265SOL    HW133137   3.544   4.652   7.351
 7265SOL    HW233138   3.528   4.703   7.506
 7266SOL     OW33139   2.169   3.787   6.204
 7266SOL    HW133140   2.158   3.881   6.237
 7266SOL    HW233141   2.164   3.724   6.281
 7267SOL     OW33142   3.484   4.091   5.960
 7267SOL    HW133143   3.486   4.015   6.024
 7267SOL    HW233144   3.436   4.168   6.000
 7268SOL     OW33145   2.885   4.490   6.552
 7268SOL    HW133146   2.900   4.511   6.648
 7268SOL    HW233147   2.855   4.395   6.543
 7269SOL     OW33148   2.212   4.622   7.390
 7269SOL    HW133149   2.288   4.666   7.438
 7269SOL    HW233150   2.247   4.575   7.308
 7270SOL     OW33151   3.402   3.998   5.711
 7270SOL    HW133152   3.341   3.923   5.734
 7270SOL    HW233153   3.424   4.050   5.794
 7271SOL     OW33154   3.165   4.562   5.628
 7271SOL    HW133155   3.199   4.469   5.643
 7271SOL    HW233156   3.183   4.589   5.533
 7272SOL     OW33157   2.181   4.534   6.535
 7272SOL    HW133158   2.274   4.570   6.540
 7272SOL    HW233159   2.175   4.449   6.587
 7273SOL     OW33160   2.201   4.233   6.592
 7273SOL    HW133161   2.149   4.150   6.575
 7273SOL    HW233162   2.278   4.238   6.528
 7274SOL     OW33163   3.000   4.104   7.264
 7274SOL    HW133164   2.955   4.167   7.328
 7274SOL    HW233165   3.093   4.135   7.247
 7275SOL     OW33166   3.022   3.931   7.063
 7275SOL    HW133167   3.022   3.995   7.140
 7275SOL    HW233168   3.050   3.979   6.980
 7276SOL     OW33169   2.864   4.520   6.824
 7276SOL    HW133170   2.905   4.488   6.910
 7276SOL    HW233171   2.768   4.493   6.821
 7277SOL     OW33172   1.902   4.268   6.700
 7277SOL    HW133173   1.987   4.235   6.659
 7277SOL    HW233174   1.915   4.283   6.798
 7278SOL     OW33175   2.051   4.244   7.308
 7278SOL    HW133176   2.110   4.204   7.238
 7278SOL    HW233177   1.993   4.315   7.267
 7279SOL     OW33178   3.231   4.674   7.246
 7279SOL    HW133179   3.270   4.763   7.266
 7279SOL    HW233180   3.241   4.654   7.149
 7280SOL     OW33181   2.677   4.296   5.911
 7280SOL    HW133182   2.684   4.207   5.865
 7280SOL    HW233183   2.583   4.330   5.903
 7281SOL     OW33184   3.519   4.328   6.792
 7281SOL    HW133185   3.481   4.259   6.854
 7281SOL    HW233186   3.601   4.292   6.748
 7282SOL     OW33187   2.533   4.188   6.855
 7282SOL    HW133188   2.499   4.099   6.825
 7282SOL    HW233189   2.559   4.242   6.775
 7283SOL     OW33190   2.335   4.224   5.777
 7283SOL    HW133191   2.396   4.304   5.781
 7283SOL    HW233192   2.240   4.255   5.784
 7284SOL     OW33193   2.021   4.861   7.052
 7284SOL    HW133194   2.043   4.800   7.128
 7284SOL    HW233195   2.031   4.812   6.966
 7285SOL     OW33196   3.209   4.783   6.820
 7285SOL    HW133197   3.233   4.720   6.746
 7285SOL    HW233198   3.119   4.823   6.802
 7286SOL     OW33199   3.164   4.579   5.895
 7286SOL    HW133200   3.078   4.548   5.937
 7286SOL    HW233201   3.160   4.565   5.796
 7287SOL     OW33202   3.588   3.859   6.109
 7287SOL    HW133203   3.661   3.842   6.042
 7287SOL    HW233204   3.557   3.772   6.147
 7288SOL     OW33205   3.142   4.651   6.258
 7288SOL    HW133206   3.202   4.570   6.260
 7288SOL    HW233207   3.182   4.720   6.198
 7289SOL     OW33208   3.703   3.899   6.549
 7289SOL    HW133209   3.742   3.814   6.513
 7289SOL    HW233210   3.605   3.901   6.530
 7290SOL     OW33211   2.125   4.050   6.306
 7290SOL    HW133212   2.046   4.101   6.272
 7290SOL    HW233213   2.116   4.035   6.404
 7291SOL     OW33214   2.778   4.634   5.877
 7291SOL    HW133215   2.841   4.672   5.809
 7291SOL    HW233216   2.818   4.551   5.916
 7292SOL     OW33217   2.876   3.960   6.557
 7292SOL    HW133218   2.868   3.924   6.464
 7292SOL    HW233219   2.874   3.884   6.622
 7293SOL     OW33220   3.571   4.109   6.967
 7293SOL    HW133221   3.644   4.178   6.971
 7293SOL    HW233222   3.599   4.034   6.908
 7294SOL     OW33223   1.967   4.737   7.312
 7294SOL    HW133224   1.890   4.704   7.366
 7294SOL    HW233225   2.052   4.707   7.354
 7295SOL     OW33226   2.534   3.927   7.075
 7295SOL    HW133227   2.624   3.911   7.035
 7295SOL    HW233228   2.542   3.932   7.174
 7296SOL     OW33229   1.937   4.069   5.619
 7296SOL    HW133230   1.845   4.041   5.590
 7296SOL    HW233231   1.968   4.146   5.563
 7297SOL     OW33232   3.302   4.580   6.984
 7297SOL    HW133233   3.245   4.632   6.921
 7297SOL    HW233234   3.398   4.592   6.960
 7298SOL     OW33235   1.934   3.890   5.904
 7298SOL    HW133236   1.917   3.973   5.850
 7298SOL    HW233237   2.024   3.853   5.882
 7299SOL     OW33238   3.045   5.059   5.705
 7299SOL    HW133239   2.946   5.048   5.707
 7299SOL    HW233240   3.079   5.074   5.798
 7300SOL     OW33241   2.475   4.566   7.017
 7300SOL    HW133242   2.531   4.647   7.000
 7300SOL    HW233243   2.534   4.486   7.020
 7301SOL     OW33244   2.578   4.289   7.294
 7301SOL    HW133245   2.597   4.354   7.368
 7301SOL    HW233246   2.638   4.209   7.303
 7302SOL     OW33247   3.536   4.607   6.840
 7302SOL    HW133248   3.509   4.518   6.803
 7302SOL    HW233249   3.537   4.675   6.767
 7303SOL     OW33250   3.087   4.049   6.035
 7303SOL    HW133251   3.152   3.975   6.024
 7303SOL    HW233252   3.107   4.099   6.119
 7304SOL     OW33253   2.456   4.469   6.238
 7304SOL    HW133254   2.506   4.554   6.219
 7304SOL    HW233255   2.368   4.471   6.190
 7305SOL     OW33256   3.639   4.066   7.228
 7305SOL    HW133257   3.622   4.097   7.134
 7305SOL    HW233258   3.555   4.029   7.266
 7306SOL     OW33259   3.592   4.658   7.103
 7306SOL    HW133260   3.630   4.749   7.118
 7306SOL    HW233261   3.584   4.641   7.004
 7307SOL     OW33262   2.721   4.680   6.447
 7307SOL    HW133263   2.775   4.611   6.495
 7307SOL    HW233264   2.689   4.749   6.513
 7308SOL     OW33265   2.945   4.708   5.673
 7308SOL    HW133266   2.922   4.761   5.591
 7308SOL    HW233267   3.026   4.652   5.654
 7309SOL     OW33268   1.941   4.964   6.239
 7309SOL    HW133269   1.940   4.917   6.327
 7309SOL    HW233270   2.023   4.936   6.188
 7310SOL     OW33271   3.686   3.916   6.813
 7310SOL    HW133272   3.682   3.826   6.857
 7310SOL    HW233273   3.689   3.905   6.714
 7311SOL     OW33274   2.290   4.148   6.106
 7311SOL    HW133275   2.320   4.076   6.044
 7311SOL    HW233276   2.251   4.108   6.189
 7312SOL     OW33277   2.179   4.271   6.866
 7312SOL    HW133278   2.217   4.212   6.938
 7312SOL    HW233279   2.219   4.245   6.778
 7313SOL     OW33280   3.286   3.938   6.698
 7313SOL    HW133281   3.338   3.873   6.753
 7313SOL    HW233282   3.237   4.001   6.759
 7314SOL     OW33283   2.863   3.758   6.740
 7314SOL    HW133284   2.800   3.686   6.709
 7314SOL    HW233285   2.956   3.722   6.740
 7315SOL     OW33286   3.214   3.776   5.754
 7315SOL    HW133287   3.249   3.735   5.670
 7315SOL    HW233288   3.124   3.738   5.774
 7316SOL     OW33289   3.162   4.177   6.277
 7316SOL    HW133290   3.103   4.257   6.281
 7316SOL    HW233291   3.177   4.142   6.370
 7317SOL     OW33292   3.455   3.945   6.468
 7317SOL    HW133293   3.371   3.944   6.522
 7317SOL    HW233294   3.457   4.028   6.412
 7318SOL     OW33295   1.901   4.801   5.886
 7318SOL    HW133296   2.000   4.790   5.877
 7318SOL    HW233297   1.861   4.715   5.918
 7319SOL     OW33298   2.092   4.352   7.561
 7319SOL    HW133299   1.999   4.350   7.598
 7319SOL    HW233300   2.093   4.313   7.469
 7320SOL     OW33301   2.087   3.999   8.444
 7320SOL    HW133302   2.122   3.982   8.536
 7320SOL    HW233303   1.999   3.954   8.432
 7321SOL     OW33304   1.881   4.092   8.095
 7321SOL    HW133305   1.799   4.135   8.134
 7321SOL    HW233306   1.853   4.019   8.032
 7322SOL     OW33307   2.997   4.427   8.165
 7322SOL    HW133308   3.054   4.505   8.140
 7322SOL    HW233309   2.937   4.453   8.241
 7323SOL     OW33310   3.617   4.331   7.679
 7323SOL    HW133311   3.605   4.318   7.580
 7323SOL    HW233312   3.587   4.250   7.728
 7324SOL     OW33313   2.630   4.868   8.471
 7324SOL    HW133314   2.552   4.885   8.531
 7324SOL    HW233315   2.664   4.955   8.435
 7325SOL     OW33316   2.547   4.736   8.113
 7325SOL    HW133317   2.616   4.720   8.183
 7325SOL    HW233318   2.474   4.793   8.151
 7326SOL     OW33319   2.300   4.116   8.947
 7326SOL    HW133320   2.382   4.060   8.956
 7326SOL    HW233321   2.219   4.058   8.951
 7327SOL     OW33322   3.465   4.171   8.185
 7327SOL    HW133323   3.391   4.217   8.135
 7327SOL    HW233324   3.516   4.239   8.238
 7328SOL     OW33325   2.102   4.815   8.334
 7328SOL    HW133326   2.116   4.731   8.386
 7328SOL    HW233327   2.047   4.879   8.389
 7329SOL     OW33328   2.468   4.688   7.571
 7329SOL    HW133329   2.475   4.772   7.517
 7329SOL    HW233330   2.514   4.701   7.659
 7330SOL     OW33331   3.456   3.838   8.928
 7330SOL    HW133332   3.438   3.905   8.856
 7330SOL    HW233333   3.453   3.884   9.017
 7331SOL     OW33334   1.984   4.367   8.011
 7331SOL    HW133335   1.939   4.279   8.028
 7331SOL    HW233336   1.983   4.421   8.095
 7332SOL     OW33337   3.551   4.646   8.060
 7332SOL    HW133338   3.646   4.617   8.068
 7332SOL    HW233339   3.543   4.711   7.985
 7333SOL     OW33340   2.671   3.728   7.950
 7333SOL    HW133341   2.711   3.819   7.941
 7333SOL    HW233342   2.571   3.736   7.956
 7334SOL     OW33343   2.059   4.700   8.712
 7334SOL    HW133344   2.148   4.655   8.698
 7334SOL    HW233345   1.986   4.635   8.693
 7335SOL     OW33346   3.387   4.723   7.638
 7335SOL    HW133347   3.324   4.647   7.651
 7335SOL    HW233348   3.435   4.741   7.724
 7336SOL     OW33349   2.179   3.975   9.249
 7336SOL    HW133350   2.250   4.046   9.255
 7336SOL    HW233351   2.091   4.014   9.277
 7337SOL     OW33352   2.460   4.453   7.718
 7337SOL    HW133353   2.484   4.522   7.650
 7337SOL    HW233354   2.382   4.486   7.772
 7338SOL     OW33355   3.143   4.069   8.392
 7338SOL    HW133356   3.057   4.019   8.379
 7338SOL    HW233357   3.205   4.015   8.448
 7339SOL     OW33358   2.669   4.329   8.913
 7339SOL    HW133359   2.622   4.326   9.002
 7339SOL    HW233360   2.618   4.274   8.847
 7340SOL     OW33361   3.256   4.193   9.122
 7340SOL    HW133362   3.236   4.236   9.210
 7340SOL    HW233363   3.334   4.131   9.131
 7341SOL     OW33364   2.835   4.614   9.020
 7341SOL    HW133365   2.881   4.530   8.991
 7341SOL    HW233366   2.779   4.648   8.945
 7342SOL     OW33367   2.853   4.134   8.690
 7342SOL    HW133368   2.776   4.168   8.744
 7342SOL    HW233369   2.819   4.083   8.611
 7343SOL     OW33370   2.903   4.425   7.877
 7343SOL    HW133371   2.929   4.421   7.973
 7343SOL    HW233372   2.818   4.374   7.863
 7344SOL     OW33373   1.938   4.535   8.237
 7344SOL    HW133374   2.037   4.523   8.246
 7344SOL    HW233375   1.914   4.630   8.258
 7345SOL     OW33376   2.727   4.072   7.643
 7345SOL    HW133377   2.786   4.135   7.594
 7345SOL    HW233378   2.746   3.978   7.614
 7346SOL     OW33379   3.581   4.309   9.279
 7346SOL    HW133380   3.555   4.398   9.243
 7346SOL    HW233381   3.579   4.241   9.206
 7347SOL     OW33382   2.412   3.920   8.333
 7347SOL    HW133383   2.407   3.915   8.433
 7347SOL    HW233384   2.414   4.016   8.304
 7348SOL     OW33385   3.320   4.459   8.176
 7348SOL    HW133386   3.315   4.394   8.251
 7348SOL    HW233387   3.400   4.518   8.189
 7349SOL     OW33388   3.262   3.831   7.874
 7349SOL    HW133389   3.238   3.794   7.784
 7349SOL    HW233390   3.361   3.847   7.878
 7350SOL     OW33391   2.244   4.424   7.928
 7350SOL    HW133392   2.289   4.334   7.925
 7350SOL    HW233393   2.150   4.413   7.961
 7351SOL     OW33394   3.409   3.946   9.177
 7351SOL    HW133395   3.404   3.983   9.269
 7351SOL    HW233396   3.337   3.877   9.165
 7352SOL     OW33397   2.476   3.846   7.565
 7352SOL    HW133398   2.574   3.824   7.572
 7352SOL    HW233399   2.445   3.829   7.472
 7353SOL     OW33400   2.643   3.988   9.197
 7353SOL    HW133401   2.710   3.927   9.240
 7353SOL    HW233402   2.570   4.007   9.262
 7354SOL     OW33403   3.213   4.314   8.881
 7354SOL    HW133404   3.241   4.271   8.966
 7354SOL    HW233405   3.238   4.410   8.882
 7355SOL     OW33406   2.784   4.227   8.347
 7355SOL    HW133407   2.759   4.218   8.251
 7355SOL    HW233408   2.832   4.145   8.378
 7356SOL     OW33409   2.401   3.788   7.960
 7356SOL    HW133410   2.320   3.789   8.018
 7356SOL    HW233411   2.404   3.871   7.905
 7357SOL     OW33412   2.159   3.759   7.619
 7357SOL    HW133413   2.208   3.843   7.598
 7357SOL    HW233414   2.221   3.694   7.664
 7358SOL     OW33415   2.797   3.960   7.928
 7358SOL    HW133416   2.749   4.001   7.850
 7358SOL    HW233417   2.896   3.958   7.909
 7359SOL     OW33418   2.938   4.407   8.912
 7359SOL    HW133419   2.858   4.346   8.915
 7359SOL    HW233420   3.019   4.354   8.888
 7360SOL     OW33421   2.894   4.273   7.464
 7360SOL    HW133422   2.853   4.355   7.425
 7360SOL    HW233423   2.958   4.299   7.537
 7361SOL     OW33424   1.940   4.280   8.834
 7361SOL    HW133425   2.032   4.279   8.793
 7361SOL    HW233426   1.934   4.354   8.901
 7362SOL     OW33427   2.423   3.946   8.595
 7362SOL    HW133428   2.461   3.862   8.632
 7362SOL    HW233429   2.335   3.965   8.639
 7363SOL     OW33430   2.728   4.178   8.090
 7363SOL    HW133431   2.696   4.250   8.028
 7363SOL    HW233432   2.752   4.097   8.037
 7364SOL     OW33433   2.879   3.763   8.201
 7364SOL    HW133434   2.807   3.768   8.132
 7364SOL    HW233435   2.855   3.694   8.270
 7365SOL     OW33436   3.291   4.897   8.315
 7365SOL    HW133437   3.236   4.813   8.308
 7365SOL    HW233438   3.317   4.926   8.223
 7366SOL     OW33439   3.328   4.314   8.440
 7366SOL    HW133440   3.298   4.219   8.447
 7366SOL    HW233441   3.401   4.330   8.506
 7367SOL     OW33442   3.719   4.557   7.825
 7367SOL    HW133443   3.761   4.493   7.889
 7367SOL    HW233444   3.681   4.506   7.747
 7368SOL     OW33445   3.252   4.299   7.526
 7368SOL    HW133446   3.198   4.278   7.607
 7368SOL    HW233447   3.343   4.258   7.535
 7369SOL     OW33448   2.389   3.980   7.776
 7369SOL    HW133449   2.416   3.921   7.701
 7369SOL    HW233450   2.389   4.075   7.745
 7370SOL     OW33451   3.500   4.823   8.527
 7370SOL    HW133452   3.505   4.904   8.586
 7370SOL    HW233453   3.414   4.825   8.476
 7371SOL     OW33454   2.777   3.813   8.850
 7371SOL    HW133455   2.802   3.793   8.755
 7371SOL    HW233456   2.849   3.869   8.892
 7372SOL     OW33457   2.272   4.537   8.699
 7372SOL    HW133458   2.358   4.549   8.749
 7372SOL    HW233459   2.230   4.450   8.726
 7373SOL     OW33460   3.136   4.110   8.710
 7373SOL    HW133461   3.157   4.184   8.774
 7373SOL    HW233462   3.047   4.127   8.667
 7374SOL     OW33463   2.428   4.261   8.313
 7374SOL    HW133464   2.440   4.327   8.239
 7374SOL    HW233465   2.474   4.295   8.396
 7375SOL     OW33466   3.444   4.363   7.920
 7375SOL    HW133467   3.413   4.424   7.993
 7375SOL    HW233468   3.494   4.415   7.851
 7376SOL     OW33469   2.264   4.475   9.046
 7376SOL    HW133470   2.332   4.530   8.999
 7376SOL    HW233471   2.304   4.387   9.073
 7377SOL     OW33472   3.449   4.503   9.118
 7377SOL    HW133473   3.357   4.541   9.113
 7377SOL    HW233474   3.509   4.550   9.053
 7378SOL     OW33475   2.875   3.829   9.218
 7378SOL    HW133476   2.881   3.914   9.166
 7378SOL    HW233477   2.907   3.753   9.161
 7379SOL     OW33478   2.366   3.774   9.188
 7379SOL    HW133479   2.324   3.717   9.118
 7379SOL    HW233480   2.300   3.843   9.220
 7380SOL     OW33481   2.435   4.594   8.477
 7380SOL    HW133482   2.479   4.683   8.468
 7380SOL    HW233483   2.372   4.594   8.554
 7381SOL     OW33484   3.222   4.586   8.493
 7381SOL    HW133485   3.147   4.586   8.427
 7381SOL    HW233486   3.259   4.494   8.502
 7382SOL     OW33487   3.071   4.249   7.723
 7382SOL    HW133488   3.084   4.165   7.777
 7382SOL    HW233489   3.042   4.323   7.783
 7383SOL     OW33490   2.169   3.937   8.679
 7383SOL    HW133491   2.146   3.974   8.769
 7383SOL    HW233492   2.139   3.842   8.673
 7384SOL     OW33493   2.594   4.358   8.512
 7384SOL    HW133494   2.653   4.332   8.436
 7384SOL    HW233495   2.566   4.454   8.501
 7385SOL     OW33496   3.590   4.659   9.302
 7385SOL    HW133497   3.544   4.652   9.213
 7385SOL    HW233498   3.528   4.703   9.368
 7386SOL     OW33499   2.169   3.787   8.066
 7386SOL    HW133500   2.158   3.881   8.099
 7386SOL    HW233501   2.164   3.724   8.143
 7387SOL     OW33502   3.484   4.091   7.822
 7387SOL    HW133503   3.486   4.015   7.886
 7387SOL    HW233504   3.436   4.168   7.862
 7388SOL     OW33505   2.885   4.490   8.414
 7388SOL    HW133506   2.900   4.511   8.510
 7388SOL    HW233507   2.855   4.395   8.405
 7389SOL     OW33508   2.212   4.622   9.252
 7389SOL    HW133509   2.288   4.666   9.300
 7389SOL    HW233510   2.247   4.575   9.170
 7390SOL     OW33511   3.402   3.998   7.573
 7390SOL    HW133512   3.341   3.923   7.596
 7390SOL    HW233513   3.424   4.050   7.656
 7391SOL     OW33514   3.165   4.562   7.490
 7391SOL    HW133515   3.199   4.469   7.505
 7391SOL    HW233516   3.183   4.589   7.395
 7392SOL     OW33517   2.181   4.534   8.397
 7392SOL    HW133518   2.274   4.570   8.402
 7392SOL    HW233519   2.175   4.449   8.449
 7393SOL     OW33520   2.201   4.233   8.454
 7393SOL    HW133521   2.149   4.150   8.437
 7393SOL    HW233522   2.278   4.238   8.390
 7394SOL     OW33523   3.000   4.104   9.126
 7394SOL    HW133524   2.955   4.167   9.190
 7394SOL    HW233525   3.093   4.135   9.109
 7395SOL     OW33526   3.022   3.931   8.925
 7395SOL    HW133527   3.022   3.995   9.002
 7395SOL    HW233528   3.050   3.979   8.842
 7396SOL     OW33529   2.864   4.520   8.686
 7396SOL    HW133530   2.905   4.488   8.772
 7396SOL    HW233531   2.768   4.493   8.683
 7397SOL     OW33532   1.902   4.268   8.562
 7397SOL    HW133533   1.987   4.235   8.521
 7397SOL    HW233534   1.915   4.283   8.660
 7398SOL     OW33535   3.231   4.674   9.108
 7398SOL    HW133536   3.270   4.763   9.128
 7398SOL    HW233537   3.241   4.654   9.011
 7399SOL     OW33538   2.677   4.296   7.773
 7399SOL    HW133539   2.684   4.207   7.727
 7399SOL    HW233540   2.583   4.330   7.765
 7400SOL     OW33541   3.519   4.328   8.654
 7400SOL    HW133542   3.481   4.259   8.716
 7400SOL    HW233543   3.601   4.292   8.610
 7401SOL     OW33544   2.533   4.188   8.717
 7401SOL    HW133545   2.499   4.099   8.687
 7401SOL    HW233546   2.559   4.242   8.637
 7402SOL     OW33547   2.335   4.224   7.639
 7402SOL    HW133548   2.396   4.304   7.643
 7402SOL    HW233549   2.240   4.255   7.646
 7403SOL     OW33550   2.021   4.861   8.914
 7403SOL    HW133551   2.043   4.800   8.990
 7403SOL    HW233552   2.031   4.812   8.828
 7404SOL     OW33553   3.209   4.783   8.682
 7404SOL    HW133554   3.233   4.720   8.608
 7404SOL    HW233555   3.119   4.823   8.664
 7405SOL     OW33556   3.164   4.579   7.757
 7405SOL    HW133557   3.078   4.548   7.799
 7405SOL    HW233558   3.160   4.565   7.658
 7406SOL     OW33559   3.588   3.859   7.971
 7406SOL    HW133560   3.661   3.842   7.904
 7406SOL    HW233561   3.557   3.772   8.009
 7407SOL     OW33562   3.142   4.651   8.120
 7407SOL    HW133563   3.202   4.570   8.122
 7407SOL    HW233564   3.182   4.720   8.060
 7408SOL     OW33565   3.703   3.899   8.411
 7408SOL    HW133566   3.742   3.814   8.375
 7408SOL    HW233567   3.605   3.901   8.392
 7409SOL     OW33568   2.125   4.050   8.168
 7409SOL    HW133569   2.046   4.101   8.134
 7409SOL    HW233570   2.116   4.035   8.266
 7410SOL     OW33571   2.778   4.634   7.739
 7410SOL    HW133572   2.841   4.672   7.671
 7410SOL    HW233573   2.818   4.551   7.778
 7411SOL     OW33574   2.876   3.960   8.419
 7411SOL    HW133575   2.868   3.924   8.326
 7411SOL    HW233576   2.874   3.884   8.484
 7412SOL     OW33577   3.571   4.109   8.829
 7412SOL    HW133578   3.644   4.178   8.833
 7412SOL    HW233579   3.599   4.034   8.770
 7413SOL     OW33580   2.534   3.927   8.937
 7413SOL    HW133581   2.624   3.911   8.897
 7413SOL    HW233582   2.542   3.932   9.036
 7414SOL     OW33583   1.937   4.069   7.481
 7414SOL    HW133584   1.845   4.041   7.452
 7414SOL    HW233585   1.968   4.146   7.425
 7415SOL     OW33586   3.302   4.580   8.846
 7415SOL    HW133587   3.245   4.632   8.783
 7415SOL    HW233588   3.398   4.592   8.822
 7416SOL     OW33589   1.934   3.890   7.766
 7416SOL    HW133590   1.917   3.973   7.712
 7416SOL    HW233591   2.024   3.853   7.744
 7417SOL     OW33592   3.045   5.059   7.567
 7417SOL    HW133593   2.946   5.048   7.569
 7417SOL    HW233594   3.079   5.074   7.660
 7418SOL     OW33595   2.475   4.566   8.879
 7418SOL    HW133596   2.531   4.647   8.862
 7418SOL    HW233597   2.534   4.486   8.882
 7419SOL     OW33598   2.578   4.289   9.156
 7419SOL    HW133599   2.597   4.354   9.230
 7419SOL    HW233600   2.638   4.209   9.165
 7420SOL     OW33601   3.536   4.607   8.702
 7420SOL    HW133602   3.509   4.518   8.665
 7420SOL    HW233603   3.537   4.675   8.629
 7421SOL     OW33604   3.087   4.049   7.897
 7421SOL    HW133605   3.152   3.975   7.886
 7421SOL    HW233606   3.107   4.099   7.981
 7422SOL     OW33607   2.456   4.469   8.100
 7422SOL    HW133608   2.506   4.554   8.081
 7422SOL    HW233609   2.368   4.471   8.052
 7423SOL     OW33610   3.639   4.066   9.090
 7423SOL    HW133611   3.622   4.097   8.996
 7423SOL    HW233612   3.555   4.029   9.128
 7424SOL     OW33613   3.592   4.658   8.965
 7424SOL    HW133614   3.630   4.749   8.980
 7424SOL    HW233615   3.584   4.641   8.866
 7425SOL     OW33616   2.721   4.680   8.309
 7425SOL    HW133617   2.775   4.611   8.357
 7425SOL    HW233618   2.689   4.749   8.375
 7426SOL     OW33619   2.945   4.708   7.535
 7426SOL    HW133620   2.922   4.761   7.453
 7426SOL    HW233621   3.026   4.652   7.516
 7427SOL     OW33622   1.941   4.964   8.101
 7427SOL    HW133623   1.940   4.917   8.189
 7427SOL    HW233624   2.023   4.936   8.050
 7428SOL     OW33625   3.686   3.916   8.675
 7428SOL    HW133626   3.682   3.826   8.719
 7428SOL    HW233627   3.689   3.905   8.576
 7429SOL     OW33628   2.290   4.148   7.968
 7429SOL    HW133629   2.320   4.076   7.906
 7429SOL    HW233630   2.251   4.108   8.051
 7430SOL     OW33631   2.179   4.271   8.728
 7430SOL    HW133632   2.217   4.212   8.800
 7430SOL    HW233633   2.219   4.245   8.640
 7431SOL     OW33634   3.286   3.938   8.560
 7431SOL    HW133635   3.338   3.873   8.615
 7431SOL    HW233636   3.237   4.001   8.621
 7432SOL     OW33637   2.863   3.758   8.602
 7432SOL    HW133638   2.800   3.686   8.571
 7432SOL    HW233639   2.956   3.722   8.602
 7433SOL     OW33640   3.214   3.776   7.616
 7433SOL    HW133641   3.249   3.735   7.532
 7433SOL    HW233642   3.124   3.738   7.636
 7434SOL     OW33643   3.162   4.177   8.139
 7434SOL    HW133644   3.103   4.257   8.143
 7434SOL    HW233645   3.177   4.142   8.232
 7435SOL     OW33646   3.455   3.945   8.330
 7435SOL    HW133647   3.371   3.944   8.384
 7435SOL    HW233648   3.457   4.028   8.274
 7436SOL     OW33649   1.901   4.801   7.748
 7436SOL    HW133650   2.000   4.790   7.739
 7436SOL    HW233651   1.861   4.715   7.780
 7437SOL     OW33652   3.617   4.331   9.541
 7437SOL    HW133653   3.605   4.318   9.442
 7437SOL    HW233654   3.587   4.250   9.590
 7438SOL     OW33655   2.630   4.868  10.333
 7438SOL    HW133656   2.552   4.885  10.393
 7438SOL    HW233657   2.664   4.955  10.297
 7439SOL     OW33658   2.547   4.736   9.975
 7439SOL    HW133659   2.616   4.720  10.045
 7439SOL    HW233660   2.474   4.793  10.013
 7440SOL     OW33661   3.465   4.171  10.047
 7440SOL    HW133662   3.391   4.217   9.997
 7440SOL    HW233663   3.516   4.239  10.100
 7441SOL     OW33664   2.671   3.728   9.812
 7441SOL    HW133665   2.711   3.819   9.803
 7441SOL    HW233666   2.571   3.736   9.818
 7442SOL     OW33667   3.387   4.723   9.500
 7442SOL    HW133668   3.324   4.647   9.513
 7442SOL    HW233669   3.435   4.741   9.586
 7443SOL     OW33670   3.143   4.069  10.254
 7443SOL    HW133671   3.057   4.019  10.241
 7443SOL    HW233672   3.205   4.015  10.310
 7444SOL     OW33673   3.256   4.193  10.984
 7444SOL    HW133674   3.236   4.236  11.072
 7444SOL    HW233675   3.334   4.131  10.993
 7445SOL     OW33676   1.938   4.535  10.099
 7445SOL    HW133677   2.037   4.523  10.108
 7445SOL    HW233678   1.914   4.630  10.120
 7446SOL     OW33679   2.727   4.072   9.505
 7446SOL    HW133680   2.786   4.135   9.456
 7446SOL    HW233681   2.746   3.978   9.476
 7447SOL     OW33682   2.412   3.920  10.195
 7447SOL    HW133683   2.407   3.915  10.295
 7447SOL    HW233684   2.414   4.016  10.166
 7448SOL     OW33685   3.320   4.459  10.038
 7448SOL    HW133686   3.315   4.394  10.113
 7448SOL    HW233687   3.400   4.518  10.051
 7449SOL     OW33688   3.409   3.946  11.039
 7449SOL    HW133689   3.404   3.983  11.131
 7449SOL    HW233690   3.337   3.877  11.027
 7450SOL     OW33691   2.476   3.846   9.427
 7450SOL    HW133692   2.574   3.824   9.434
 7450SOL    HW233693   2.445   3.829   9.334
 7451SOL     OW33694   2.797   3.960   9.790
 7451SOL    HW133695   2.749   4.001   9.712
 7451SOL    HW233696   2.896   3.958   9.771
 7452SOL     OW33697   2.894   4.273   9.326
 7452SOL    HW133698   2.853   4.355   9.287
 7452SOL    HW233699   2.958   4.299   9.399
 7453SOL     OW33700   2.423   3.946  10.457
 7453SOL    HW133701   2.461   3.862  10.494
 7453SOL    HW233702   2.335   3.965  10.501
 7454SOL     OW33703   2.879   3.763  10.063
 7454SOL    HW133704   2.807   3.768   9.994
 7454SOL    HW233705   2.855   3.694  10.132
 7455SOL     OW33706   3.719   4.557   9.687
 7455SOL    HW133707   3.761   4.493   9.751
 7455SOL    HW233708   3.681   4.506   9.609
 7456SOL     OW33709   3.252   4.299   9.388
 7456SOL    HW133710   3.198   4.278   9.469
 7456SOL    HW233711   3.343   4.258   9.397
 7457SOL     OW33712   2.777   3.813  10.712
 7457SOL    HW133713   2.802   3.793  10.617
 7457SOL    HW233714   2.849   3.869  10.754
 7458SOL     OW33715   3.136   4.110  10.572
 7458SOL    HW133716   3.157   4.184  10.636
 7458SOL    HW233717   3.047   4.127  10.529
 7459SOL     OW33718   3.444   4.363   9.782
 7459SOL    HW133719   3.413   4.424   9.855
 7459SOL    HW233720   3.494   4.415   9.713
 7460SOL     OW33721   2.169   3.937  10.541
 7460SOL    HW133722   2.146   3.974  10.631
 7460SOL    HW233723   2.139   3.842  10.535
 7461SOL     OW33724   3.484   4.091   9.684
 7461SOL    HW133725   3.486   4.015   9.748
 7461SOL    HW233726   3.436   4.168   9.724
 7462SOL     OW33727   2.212   4.622  11.114
 7462SOL    HW133728   2.288   4.666  11.162
 7462SOL    HW233729   2.247   4.575  11.032
 7463SOL     OW33730   3.402   3.998   9.435
 7463SOL    HW133731   3.341   3.923   9.458
 7463SOL    HW233732   3.424   4.050   9.518
 7464SOL     OW33733   3.000   4.104  10.988
 7464SOL    HW133734   2.955   4.167  11.052
 7464SOL    HW233735   3.093   4.135  10.971
 7465SOL     OW33736   3.022   3.931  10.787
 7465SOL    HW133737   3.022   3.995  10.864
 7465SOL    HW233738   3.050   3.979  10.704
 7466SOL     OW33739   2.864   4.520  10.548
 7466SOL    HW133740   2.905   4.488  10.634
 7466SOL    HW233741   2.768   4.493  10.545
 7467SOL     OW33742   1.902   4.268  10.424
 7467SOL    HW133743   1.987   4.235  10.383
 7467SOL    HW233744   1.915   4.283  10.522
 7468SOL     OW33745   2.677   4.296   9.635
 7468SOL    HW133746   2.684   4.207   9.589
 7468SOL    HW233747   2.583   4.330   9.627
 7469SOL     OW33748   3.571   4.109  10.691
 7469SOL    HW133749   3.644   4.178  10.695
 7469SOL    HW233750   3.599   4.034  10.632
 7470SOL     OW33751   3.536   4.607  10.564
 7470SOL    HW133752   3.509   4.518  10.527
 7470SOL    HW233753   3.537   4.675  10.491
 7471SOL     OW33754   2.721   4.680  10.171
 7471SOL    HW133755   2.775   4.611  10.219
 7471SOL    HW233756   2.689   4.749  10.237
 7472SOL     OW33757   3.286   3.938  10.422
 7472SOL    HW133758   3.338   3.873  10.477
 7472SOL    HW233759   3.237   4.001  10.483
 7473SOL     OW33760   2.863   3.758  10.464
 7473SOL    HW133761   2.800   3.686  10.433
 7473SOL    HW233762   2.956   3.722  10.464
 7474SOL     OW33763   3.214   3.776   9.478
 7474SOL    HW133764   3.249   3.735   9.394
 7474SOL    HW233765   3.124   3.738   9.498
 7475SOL     OW33766   2.092   4.352  11.285
 7475SOL    HW133767   1.999   4.350  11.322
 7475SOL    HW233768   2.093   4.313  11.193
 7476SOL     OW33769   1.881   4.092  11.819
 7476SOL    HW133770   1.799   4.135  11.858
 7476SOL    HW233771   1.853   4.019  11.756
 7477SOL     OW33772   2.997   4.427  11.889
 7477SOL    HW133773   3.054   4.505  11.864
 7477SOL    HW233774   2.937   4.453  11.965
 7478SOL     OW33775   3.617   4.331  11.403
 7478SOL    HW133776   3.605   4.318  11.304
 7478SOL    HW233777   3.587   4.250  11.452
 7479SOL     OW33778   2.712   4.522  12.995
 7479SOL    HW133779   2.708   4.598  13.060
 7479SOL    HW233780   2.734   4.558  12.904
 7480SOL     OW33781   3.465   4.171  11.909
 7480SOL    HW133782   3.391   4.217  11.859
 7480SOL    HW233783   3.516   4.239  11.962
 7481SOL     OW33784   2.102   4.815  12.058
 7481SOL    HW133785   2.116   4.731  12.110
 7481SOL    HW233786   2.047   4.879  12.113
 7482SOL     OW33787   2.468   4.688  11.295
 7482SOL    HW133788   2.475   4.772  11.241
 7482SOL    HW233789   2.514   4.701  11.383
 7483SOL     OW33790   3.456   3.838  12.652
 7483SOL    HW133791   3.438   3.905  12.580
 7483SOL    HW233792   3.453   3.884  12.741
 7484SOL     OW33793   2.671   3.728  11.674
 7484SOL    HW133794   2.711   3.819  11.665
 7484SOL    HW233795   2.571   3.736  11.680
 7485SOL     OW33796   2.059   4.700  12.436
 7485SOL    HW133797   2.148   4.655  12.422
 7485SOL    HW233798   1.986   4.635  12.417
 7486SOL     OW33799   3.387   4.723  11.362
 7486SOL    HW133800   3.324   4.647  11.375
 7486SOL    HW233801   3.435   4.741  11.448
 7487SOL     OW33802   2.669   4.329  12.637
 7487SOL    HW133803   2.622   4.326  12.726
 7487SOL    HW233804   2.618   4.274  12.571
 7488SOL     OW33805   3.256   4.193  12.846
 7488SOL    HW133806   3.236   4.236  12.934
 7488SOL    HW233807   3.334   4.131  12.855
 7489SOL     OW33808   3.262   3.831  11.598
 7489SOL    HW133809   3.238   3.794  11.508
 7489SOL    HW233810   3.361   3.847  11.602
 7490SOL     OW33811   3.409   3.946  12.901
 7490SOL    HW133812   3.404   3.983  12.993
 7490SOL    HW233813   3.337   3.877  12.889
 7491SOL     OW33814   2.643   3.988  12.921
 7491SOL    HW133815   2.710   3.927  12.964
 7491SOL    HW233816   2.570   4.007  12.986
 7492SOL     OW33817   3.213   4.314  12.605
 7492SOL    HW133818   3.241   4.271  12.690
 7492SOL    HW233819   3.238   4.410  12.606
 7493SOL     OW33820   2.159   3.759  11.343
 7493SOL    HW133821   2.208   3.843  11.322
 7493SOL    HW233822   2.221   3.694  11.388
 7494SOL     OW33823   2.938   4.407  12.636
 7494SOL    HW133824   2.858   4.346  12.639
 7494SOL    HW233825   3.019   4.354  12.612
 7495SOL     OW33826   2.894   4.273  11.188
 7495SOL    HW133827   2.853   4.355  11.149
 7495SOL    HW233828   2.958   4.299  11.261
 7496SOL     OW33829   3.252   4.299  11.250
 7496SOL    HW133830   3.198   4.278  11.331
 7496SOL    HW233831   3.343   4.258  11.259
 7497SOL     OW33832   2.777   3.813  12.574
 7497SOL    HW133833   2.802   3.793  12.479
 7497SOL    HW233834   2.849   3.869  12.616
 7498SOL     OW33835   2.272   4.537  12.423
 7498SOL    HW133836   2.358   4.549  12.473
 7498SOL    HW233837   2.230   4.450  12.450
 7499SOL     OW33838   3.136   4.110  12.434
 7499SOL    HW133839   3.157   4.184  12.498
 7499SOL    HW233840   3.047   4.127  12.391
 7500SOL     OW33841   3.449   4.503  12.842
 7500SOL    HW133842   3.357   4.541  12.837
 7500SOL    HW233843   3.509   4.550  12.777
 7501SOL     OW33844   2.875   3.829  12.942
 7501SOL    HW133845   2.881   3.914  12.890
 7501SOL    HW233846   2.907   3.753  12.885
 7502SOL     OW33847   3.222   4.586  12.217
 7502SOL    HW133848   3.147   4.586  12.151
 7502SOL    HW233849   3.259   4.494  12.226
 7503SOL     OW33850   2.594   4.358  12.236
 7503SOL    HW133851   2.653   4.332  12.160
 7503SOL    HW233852   2.566   4.454  12.225
 7504SOL     OW33853   2.169   3.787  11.790
 7504SOL    HW133854   2.158   3.881  11.823
 7504SOL    HW233855   2.164   3.724  11.867
 7505SOL     OW33856   2.212   4.622  12.976
 7505SOL    HW133857   2.288   4.666  13.024
 7505SOL    HW233858   2.247   4.575  12.894
 7506SOL     OW33859   2.181   4.534  12.121
 7506SOL    HW133860   2.274   4.570  12.126
 7506SOL    HW233861   2.175   4.449  12.173
 7507SOL     OW33862   3.000   4.104  12.850
 7507SOL    HW133863   2.955   4.167  12.914
 7507SOL    HW233864   3.093   4.135  12.833
 7508SOL     OW33865   3.022   3.931  12.649
 7508SOL    HW133866   3.022   3.995  12.726
 7508SOL    HW233867   3.050   3.979  12.566
 7509SOL     OW33868   3.231   4.674  12.832
 7509SOL    HW133869   3.270   4.763  12.852
 7509SOL    HW233870   3.241   4.654  12.735
 7510SOL     OW33871   2.021   4.861  12.638
 7510SOL    HW133872   2.043   4.800  12.714
 7510SOL    HW233873   2.031   4.812  12.552
 7511SOL     OW33874   3.164   4.579  11.481
 7511SOL    HW133875   3.078   4.548  11.523
 7511SOL    HW233876   3.160   4.565  11.382
 7512SOL     OW33877   3.571   4.109  12.553
 7512SOL    HW133878   3.644   4.178  12.557
 7512SOL    HW233879   3.599   4.034  12.494
 7513SOL     OW33880   2.534   3.927  12.661
 7513SOL    HW133881   2.624   3.911  12.621
 7513SOL    HW233882   2.542   3.932  12.760
 7514SOL     OW33883   2.578   4.289  12.880
 7514SOL    HW133884   2.597   4.354  12.954
 7514SOL    HW233885   2.638   4.209  12.889
 7515SOL     OW33886   3.639   4.066  12.814
 7515SOL    HW133887   3.622   4.097  12.720
 7515SOL    HW233888   3.555   4.029  12.852
 7516SOL     OW33889   3.592   4.658  12.689
 7516SOL    HW133890   3.630   4.749  12.704
 7516SOL    HW233891   3.584   4.641  12.590
 7517SOL     OW33892   3.686   3.916  12.399
 7517SOL    HW133893   3.682   3.826  12.443
 7517SOL    HW233894   3.689   3.905  12.300
 7518SOL     OW33895   2.863   3.758  12.326
 7518SOL    HW133896   2.800   3.686  12.295
 7518SOL    HW233897   2.956   3.722  12.326
 7519SOL     OW33898   3.455   3.945  12.054
 7519SOL    HW133899   3.371   3.944  12.108
 7519SOL    HW233900   3.457   4.028  11.998
 7520SOL     OW33901   1.901   4.801  11.472
 7520SOL    HW133902   2.000   4.790  11.463
 7520SOL    HW233903   1.861   4.715  11.504
 7521SOL     OW33904   2.087   3.999  14.030
 7521SOL    HW133905   2.122   3.982  14.122
 7521SOL    HW233906   1.999   3.954  14.018
 7522SOL     OW33907   1.881   4.092  13.681
 7522SOL    HW133908   1.799   4.135  13.720
 7522SOL    HW233909   1.853   4.019  13.618
 7523SOL     OW33910   2.300   4.116  14.533
 7523SOL    HW133911   2.382   4.060  14.542
 7523SOL    HW233912   2.219   4.058  14.537
 7524SOL     OW33913   3.551   4.646  13.646
 7524SOL    HW133914   3.646   4.617  13.654
 7524SOL    HW233915   3.543   4.711  13.571
 7525SOL     OW33916   1.975   4.461  14.631
 7525SOL    HW133917   2.063   4.448  14.676
 7525SOL    HW233918   1.962   4.558  14.609
 7526SOL     OW33919   3.387   4.723  13.224
 7526SOL    HW133920   3.324   4.647  13.237
 7526SOL    HW233921   3.435   4.741  13.310
 7527SOL     OW33922   2.179   3.975  14.835
 7527SOL    HW133923   2.250   4.046  14.841
 7527SOL    HW233924   2.091   4.014  14.863
 7528SOL     OW33925   2.669   4.329  14.499
 7528SOL    HW133926   2.622   4.326  14.588
 7528SOL    HW233927   2.618   4.274  14.433
 7529SOL     OW33928   3.256   4.193  14.708
 7529SOL    HW133929   3.236   4.236  14.796
 7529SOL    HW233930   3.334   4.131  14.717
 7530SOL     OW33931   2.853   4.134  14.276
 7530SOL    HW133932   2.776   4.168  14.330
 7530SOL    HW233933   2.819   4.083  14.197
 7531SOL     OW33934   2.903   4.425  13.463
 7531SOL    HW133935   2.929   4.421  13.559
 7531SOL    HW233936   2.818   4.374  13.449
 7532SOL     OW33937   3.409   3.946  14.763
 7532SOL    HW133938   3.404   3.983  14.855
 7532SOL    HW233939   3.337   3.877  14.751
 7533SOL     OW33940   2.784   4.227  13.933
 7533SOL    HW133941   2.759   4.218  13.837
 7533SOL    HW233942   2.832   4.145  13.964
 7534SOL     OW33943   2.894   4.273  13.050
 7534SOL    HW133944   2.853   4.355  13.011
 7534SOL    HW233945   2.958   4.299  13.123
 7535SOL     OW33946   2.423   3.946  14.181
 7535SOL    HW133947   2.461   3.862  14.218
 7535SOL    HW233948   2.335   3.965  14.225
 7536SOL     OW33949   2.879   3.763  13.787
 7536SOL    HW133950   2.807   3.768  13.718
 7536SOL    HW233951   2.855   3.694  13.856
 7537SOL     OW33952   3.291   4.897  13.901
 7537SOL    HW133953   3.236   4.813  13.894
 7537SOL    HW233954   3.317   4.926  13.809
 7538SOL     OW33955   3.252   4.299  13.112
 7538SOL    HW133956   3.198   4.278  13.193
 7538SOL    HW233957   3.343   4.258  13.121
 7539SOL     OW33958   2.777   3.813  14.436
 7539SOL    HW133959   2.802   3.793  14.341
 7539SOL    HW233960   2.849   3.869  14.478
 7540SOL     OW33961   3.136   4.110  14.296
 7540SOL    HW133962   3.157   4.184  14.360
 7540SOL    HW233963   3.047   4.127  14.253
 7541SOL     OW33964   3.444   4.363  13.506
 7541SOL    HW133965   3.413   4.424  13.579
 7541SOL    HW233966   3.494   4.415  13.437
 7542SOL     OW33967   2.366   3.774  14.774
 7542SOL    HW133968   2.324   3.717  14.704
 7542SOL    HW233969   2.300   3.843  14.806
 7543SOL     OW33970   2.169   3.937  14.265
 7543SOL    HW133971   2.146   3.974  14.355
 7543SOL    HW233972   2.139   3.842  14.259
 7544SOL     OW33973   2.594   4.358  14.098
 7544SOL    HW133974   2.653   4.332  14.022
 7544SOL    HW233975   2.566   4.454  14.087
 7545SOL     OW33976   2.212   4.622  14.838
 7545SOL    HW133977   2.288   4.666  14.886
 7545SOL    HW233978   2.247   4.575  14.756
 7546SOL     OW33979   3.165   4.562  13.076
 7546SOL    HW133980   3.199   4.469  13.091
 7546SOL    HW233981   3.183   4.589  12.981
 7547SOL     OW33982   2.181   4.534  13.983
 7547SOL    HW133983   2.274   4.570  13.988
 7547SOL    HW233984   2.175   4.449  14.035
 7548SOL     OW33985   2.201   4.233  14.040
 7548SOL    HW133986   2.149   4.150  14.023
 7548SOL    HW233987   2.278   4.238  13.976
 7549SOL     OW33988   3.022   3.931  14.511
 7549SOL    HW133989   3.022   3.995  14.588
 7549SOL    HW233990   3.050   3.979  14.428
 7550SOL     OW33991   2.864   4.520  14.272
 7550SOL    HW133992   2.905   4.488  14.358
 7550SOL    HW233993   2.768   4.493  14.269
 7551SOL     OW33994   2.051   4.244  14.756
 7551SOL    HW133995   2.110   4.204  14.686
 7551SOL    HW233996   1.993   4.315  14.715
 7552SOL     OW33997   2.533   4.188  14.303
 7552SOL    HW133998   2.499   4.099  14.273
 7552SOL    HW233999   2.559   4.242  14.223
 7553SOL     OW34000   3.164   4.579  13.343
 7553SOL    HW134001   3.078   4.548  13.385
 7553SOL    HW234002   3.160   4.565  13.244
 7554SOL     OW34003   3.142   4.651  13.706
 7554SOL    HW134004   3.202   4.570  13.708
 7554SOL    HW234005   3.182   4.720  13.646
 7555SOL     OW34006   2.778   4.634  13.325
 7555SOL    HW134007   2.841   4.672  13.257
 7555SOL    HW234008   2.818   4.551  13.364
 7556SOL     OW34009   2.876   3.960  14.005
 7556SOL    HW134010   2.868   3.924  13.912
 7556SOL    HW234011   2.874   3.884  14.070
 7557SOL     OW34012   1.937   4.069  13.067
 7557SOL    HW134013   1.845   4.041  13.038
 7557SOL    HW234014   1.968   4.146  13.011
 7558SOL     OW34015   1.934   3.890  13.352
 7558SOL    HW134016   1.917   3.973  13.298
 7558SOL    HW234017   2.024   3.853  13.330
 7559SOL     OW34018   3.087   4.049  13.483
 7559SOL    HW134019   3.152   3.975  13.472
 7559SOL    HW234020   3.107   4.099  13.567
 7560SOL     OW34021   3.639   4.066  14.676
 7560SOL    HW134022   3.622   4.097  14.582
 7560SOL    HW234023   3.555   4.029  14.714
 7561SOL     OW34024   2.945   4.708  13.121
 7561SOL    HW134025   2.922   4.761  13.039
 7561SOL    HW234026   3.026   4.652  13.102
 7562SOL     OW34027   2.179   4.271  14.314
 7562SOL    HW134028   2.217   4.212  14.386
 7562SOL    HW234029   2.219   4.245  14.226
 7563SOL     OW34030   2.092   4.352  15.009
 7563SOL    HW134031   1.999   4.350  15.046
 7563SOL    HW234032   2.093   4.313  14.917
 7564SOL     OW34033   2.087   3.999  15.893
 7564SOL    HW134034   2.122   3.982  15.985
 7564SOL    HW234035   1.999   3.954  15.881
 7565SOL     OW34036   2.712   4.522  16.720
 7565SOL    HW134037   2.708   4.598  16.785
 7565SOL    HW234038   2.734   4.558  16.629
 7566SOL     OW34039   2.102   4.815  15.782
 7566SOL    HW134040   2.116   4.731  15.834
 7566SOL    HW234041   2.047   4.879  15.837
 7567SOL     OW34042   2.468   4.688  15.019
 7567SOL    HW134043   2.475   4.772  14.965
 7567SOL    HW234044   2.514   4.701  15.107
 7568SOL     OW34045   2.460   4.453  15.166
 7568SOL    HW134046   2.484   4.522  15.098
 7568SOL    HW234047   2.382   4.486  15.220
 7569SOL     OW34048   2.669   4.329  16.362
 7569SOL    HW134049   2.622   4.326  16.451
 7569SOL    HW234050   2.618   4.274  16.296
 7570SOL     OW34051   2.853   4.134  16.139
 7570SOL    HW134052   2.776   4.168  16.193
 7570SOL    HW234053   2.819   4.083  16.060
 7571SOL     OW34054   3.262   3.831  15.322
 7571SOL    HW134055   3.238   3.794  15.232
 7571SOL    HW234056   3.361   3.847  15.326
 7572SOL     OW34057   2.784   4.227  15.795
 7572SOL    HW134058   2.759   4.218  15.699
 7572SOL    HW234059   2.832   4.145  15.826
 7573SOL     OW34060   2.159   3.759  15.067
 7573SOL    HW134061   2.208   3.843  15.046
 7573SOL    HW234062   2.221   3.694  15.112
 7574SOL     OW34063   1.940   4.280  16.283
 7574SOL    HW134064   2.032   4.279  16.242
 7574SOL    HW234065   1.934   4.354  16.350
 7575SOL     OW34066   2.728   4.178  15.538
 7575SOL    HW134067   2.696   4.250  15.476
 7575SOL    HW234068   2.752   4.097  15.485
 7576SOL     OW34069   2.879   3.763  15.649
 7576SOL    HW134070   2.807   3.768  15.580
 7576SOL    HW234071   2.855   3.694  15.718
 7577SOL     OW34072   2.389   3.980  15.224
 7577SOL    HW134073   2.416   3.921  15.149
 7577SOL    HW234074   2.389   4.075  15.193
 7578SOL     OW34075   2.777   3.813  16.299
 7578SOL    HW134076   2.802   3.793  16.204
 7578SOL    HW234077   2.849   3.869  16.341
 7579SOL     OW34078   3.136   4.110  16.159
 7579SOL    HW134079   3.157   4.184  16.223
 7579SOL    HW234080   3.047   4.127  16.116
 7580SOL     OW34081   3.449   4.503  16.567
 7580SOL    HW134082   3.357   4.541  16.562
 7580SOL    HW234083   3.509   4.550  16.502
 7581SOL     OW34084   2.435   4.594  15.926
 7581SOL    HW134085   2.479   4.683  15.917
 7581SOL    HW234086   2.372   4.594  16.003
 7582SOL     OW34087   2.594   4.358  15.961
 7582SOL    HW134088   2.653   4.332  15.885
 7582SOL    HW234089   2.566   4.454  15.950
 7583SOL     OW34090   2.169   3.787  15.514
 7583SOL    HW134091   2.158   3.881  15.547
 7583SOL    HW234092   2.164   3.724  15.591
 7584SOL     OW34093   2.885   4.490  15.863
 7584SOL    HW134094   2.900   4.511  15.959
 7584SOL    HW234095   2.855   4.395  15.854
 7585SOL     OW34096   2.212   4.622  16.701
 7585SOL    HW134097   2.288   4.666  16.749
 7585SOL    HW234098   2.247   4.575  16.619
 7586SOL     OW34099   2.864   4.520  16.135
 7586SOL    HW134100   2.905   4.488  16.221
 7586SOL    HW234101   2.768   4.493  16.132
 7587SOL     OW34102   1.902   4.268  16.011
 7587SOL    HW134103   1.987   4.235  15.970
 7587SOL    HW234104   1.915   4.283  16.109
 7588SOL     OW34105   3.231   4.674  16.557
 7588SOL    HW134106   3.270   4.763  16.577
 7588SOL    HW234107   3.241   4.654  16.460
 7589SOL     OW34108   2.533   4.188  16.166
 7589SOL    HW134109   2.499   4.099  16.136
 7589SOL    HW234110   2.559   4.242  16.086
 7590SOL     OW34111   2.335   4.224  15.087
 7590SOL    HW134112   2.396   4.304  15.091
 7590SOL    HW234113   2.240   4.255  15.094
 7591SOL     OW34114   3.588   3.859  15.419
 7591SOL    HW134115   3.661   3.842  15.352
 7591SOL    HW234116   3.557   3.772  15.457
 7592SOL     OW34117   2.125   4.050  15.616
 7592SOL    HW134118   2.046   4.101  15.582
 7592SOL    HW234119   2.116   4.035  15.714
 7593SOL     OW34120   2.876   3.960  15.868
 7593SOL    HW134121   2.868   3.924  15.775
 7593SOL    HW234122   2.874   3.884  15.933
 7594SOL     OW34123   1.937   4.069  14.929
 7594SOL    HW134124   1.845   4.041  14.900
 7594SOL    HW234125   1.968   4.146  14.873
 7595SOL     OW34126   1.934   3.890  15.214
 7595SOL    HW134127   1.917   3.973  15.160
 7595SOL    HW234128   2.024   3.853  15.192
 7596SOL     OW34129   3.045   5.059  15.015
 7596SOL    HW134130   2.946   5.048  15.017
 7596SOL    HW234131   3.079   5.074  15.108
 7597SOL     OW34132   3.592   4.658  16.414
 7597SOL    HW134133   3.630   4.749  16.429
 7597SOL    HW234134   3.584   4.641  16.315
 7598SOL     OW34135   3.286   3.938  16.009
 7598SOL    HW134136   3.338   3.873  16.064
 7598SOL    HW234137   3.237   4.001  16.070
 7599SOL     OW34138   2.863   3.758  16.051
 7599SOL    HW134139   2.800   3.686  16.020
 7599SOL    HW234140   2.956   3.722  16.051
 7600SOL     OW34141   3.214   3.776  15.064
 7600SOL    HW134142   3.249   3.735  14.980
 7600SOL    HW234143   3.124   3.738  15.084
 7601SOL     OW34144   2.087   3.999  17.755
 7601SOL    HW134145   2.122   3.982  17.847
 7601SOL    HW234146   1.999   3.954  17.743
 7602SOL     OW34147   1.881   4.092  17.406
 7602SOL    HW134148   1.799   4.135  17.445
 7602SOL    HW234149   1.853   4.019  17.343
 7603SOL     OW34150   2.468   4.688  16.882
 7603SOL    HW134151   2.475   4.772  16.828
 7603SOL    HW234152   2.514   4.701  16.970
 7604SOL     OW34153   1.984   4.367  17.322
 7604SOL    HW134154   1.939   4.279  17.339
 7604SOL    HW234155   1.983   4.421  17.406
 7605SOL     OW34156   2.671   3.728  17.261
 7605SOL    HW134157   2.711   3.819  17.252
 7605SOL    HW234158   2.571   3.736  17.267
 7606SOL     OW34159   2.059   4.700  18.023
 7606SOL    HW134160   2.148   4.655  18.009
 7606SOL    HW234161   1.986   4.635  18.004
 7607SOL     OW34162   2.412   3.920  17.644
 7607SOL    HW134163   2.407   3.915  17.744
 7607SOL    HW234164   2.414   4.016  17.615
 7608SOL     OW34165   3.320   4.459  17.487
 7608SOL    HW134166   3.315   4.394  17.562
 7608SOL    HW234167   3.400   4.518  17.500
 7609SOL     OW34168   2.244   4.424  17.239
 7609SOL    HW134169   2.289   4.334  17.236
 7609SOL    HW234170   2.150   4.413  17.272
 7610SOL     OW34171   2.784   4.227  17.658
 7610SOL    HW134172   2.759   4.218  17.562
 7610SOL    HW234173   2.832   4.145  17.689
 7611SOL     OW34174   2.401   3.788  17.271
 7611SOL    HW134175   2.320   3.789  17.329
 7611SOL    HW234176   2.404   3.871  17.216
 7612SOL     OW34177   2.797   3.960  17.239
 7612SOL    HW134178   2.749   4.001  17.161
 7612SOL    HW234179   2.896   3.958  17.220
 7613SOL     OW34180   2.894   4.273  16.775
 7613SOL    HW134181   2.853   4.355  16.736
 7613SOL    HW234182   2.958   4.299  16.848
 7614SOL     OW34183   2.879   3.763  17.512
 7614SOL    HW134184   2.807   3.768  17.443
 7614SOL    HW234185   2.855   3.694  17.581
 7615SOL     OW34186   3.444   4.363  17.231
 7615SOL    HW134187   3.413   4.424  17.304
 7615SOL    HW234188   3.494   4.415  17.162
 7616SOL     OW34189   3.071   4.249  17.034
 7616SOL    HW134190   3.084   4.165  17.088
 7616SOL    HW234191   3.042   4.323  17.094
 7617SOL     OW34192   2.169   3.937  17.990
 7617SOL    HW134193   2.146   3.974  18.080
 7617SOL    HW234194   2.139   3.842  17.984
 7618SOL     OW34195   3.165   4.562  16.801
 7618SOL    HW134196   3.199   4.469  16.816
 7618SOL    HW234197   3.183   4.589  16.706
 7619SOL     OW34198   2.201   4.233  17.765
 7619SOL    HW134199   2.149   4.150  17.748
 7619SOL    HW234200   2.278   4.238  17.701
 7620SOL     OW34201   3.022   3.931  18.236
 7620SOL    HW134202   3.022   3.995  18.313
 7620SOL    HW234203   3.050   3.979  18.153
 7621SOL     OW34204   1.902   4.268  17.873
 7621SOL    HW134205   1.987   4.235  17.832
 7621SOL    HW234206   1.915   4.283  17.971
 7622SOL     OW34207   3.164   4.579  17.068
 7622SOL    HW134208   3.078   4.548  17.110
 7622SOL    HW234209   3.160   4.565  16.969
 7623SOL     OW34210   3.588   3.859  17.282
 7623SOL    HW134211   3.661   3.842  17.215
 7623SOL    HW234212   3.557   3.772  17.320
 7624SOL     OW34213   3.703   3.899  17.722
 7624SOL    HW134214   3.742   3.814  17.686
 7624SOL    HW234215   3.605   3.901  17.703
 7625SOL     OW34216   2.125   4.050  17.479
 7625SOL    HW134217   2.046   4.101  17.445
 7625SOL    HW234218   2.116   4.035  17.577
 7626SOL     OW34219   2.778   4.634  17.050
 7626SOL    HW134220   2.841   4.672  16.982
 7626SOL    HW234221   2.818   4.551  17.089
 7627SOL     OW34222   2.876   3.960  17.730
 7627SOL    HW134223   2.868   3.924  17.637
 7627SOL    HW234224   2.874   3.884  17.795
 7628SOL     OW34225   2.456   4.469  17.411
 7628SOL    HW134226   2.506   4.554  17.392
 7628SOL    HW234227   2.368   4.471  17.363
 7629SOL     OW34228   2.945   4.708  16.846
 7629SOL    HW134229   2.922   4.761  16.764
 7629SOL    HW234230   3.026   4.652  16.827
 7630SOL     OW34231   2.290   4.148  17.279
 7630SOL    HW134232   2.320   4.076  17.217
 7630SOL    HW234233   2.251   4.108  17.362
 7631SOL     OW34234   3.949   0.275   0.996
 7631SOL    HW134235   3.984   0.258   1.088
 7631SOL    HW234236   3.861   0.230   0.984
 7632SOL     OW34237   3.743   0.368   0.647
 7632SOL    HW134238   3.661   0.411   0.686
 7632SOL    HW234239   3.715   0.295   0.584
 7633SOL     OW34240   4.492   1.144   1.023
 7633SOL    HW134241   4.414   1.161   1.083
 7633SOL    HW234242   4.526   1.231   0.987
 7634SOL     OW34243   4.574   0.798   1.823
 7634SOL    HW134244   4.570   0.874   1.888
 7634SOL    HW234245   4.596   0.834   1.732
 7635SOL     OW34246   4.409   1.012   0.665
 7635SOL    HW134247   4.478   0.996   0.735
 7635SOL    HW234248   4.336   1.069   0.703
 7636SOL     OW34249   4.410   1.161   1.803
 7636SOL    HW134250   4.470   1.240   1.817
 7636SOL    HW234251   4.324   1.192   1.762
 7637SOL     OW34252   4.059   1.435   1.061
 7637SOL    HW134253   3.981   1.404   1.008
 7637SOL    HW234254   4.117   1.493   1.004
 7638SOL     OW34255   4.162   0.392   1.499
 7638SOL    HW134256   4.244   0.336   1.508
 7638SOL    HW234257   4.081   0.334   1.503
 7639SOL     OW34258   3.955   1.713   0.483
 7639SOL    HW134259   3.989   1.790   0.537
 7639SOL    HW234260   3.999   1.713   0.393
 7640SOL     OW34261   4.344   1.786   1.439
 7640SOL    HW134262   4.252   1.769   1.474
 7640SOL    HW234263   4.372   1.878   1.465
 7641SOL     OW34264   3.837   0.737   1.597
 7641SOL    HW134265   3.925   0.724   1.642
 7641SOL    HW234266   3.824   0.834   1.575
 7642SOL     OW34267   4.337   1.365   0.726
 7642SOL    HW134268   4.288   1.278   0.735
 7642SOL    HW234269   4.314   1.408   0.639
 7643SOL     OW34270   4.533   0.004   0.502
 7643SOL    HW134271   4.573   0.095   0.493
 7643SOL    HW234272   4.433   0.012   0.508
 7644SOL     OW34273   4.041   0.251   1.801
 7644SOL    HW134274   4.112   0.322   1.807
 7644SOL    HW234275   3.953   0.290   1.829
 7645SOL     OW34276   4.322   0.729   0.270
 7645SOL    HW134277   4.346   0.798   0.202
 7645SOL    HW234278   4.244   0.762   0.324
 7646SOL     OW34279   4.531   0.605   1.465
 7646SOL    HW134280   4.484   0.602   1.554
 7646SOL    HW234281   4.480   0.550   1.399
 7647SOL     OW34282   4.697   0.890   1.572
 7647SOL    HW134283   4.743   0.806   1.543
 7647SOL    HW234284   4.641   0.924   1.497
 7648SOL     OW34285   4.274   0.196   0.885
 7648SOL    HW134286   4.269   0.191   0.985
 7648SOL    HW234287   4.276   0.292   0.856
 7649SOL     OW34288   4.185   1.266   1.727
 7649SOL    HW134289   4.135   1.267   1.641
 7649SOL    HW234290   4.122   1.248   1.803
 7650SOL     OW34291   3.926   0.285   1.498
 7650SOL    HW134292   3.846   0.345   1.485
 7650SOL    HW234293   3.916   0.236   1.584
 7651SOL     OW34294   4.527   1.402   0.924
 7651SOL    HW134295   4.617   1.416   0.882
 7651SOL    HW234296   4.456   1.404   0.853
 7652SOL     OW34297   4.646   0.503   0.899
 7652SOL    HW134298   4.621   0.494   0.803
 7652SOL    HW234299   4.694   0.421   0.930
 7653SOL     OW34300   4.659   0.236   0.480
 7653SOL    HW134301   4.611   0.277   0.402
 7653SOL    HW234302   4.758   0.234   0.461
 7654SOL     OW34303   4.183   1.152   0.741
 7654SOL    HW134304   4.112   1.125   0.806
 7654SOL    HW234305   4.157   1.124   0.648
 7655SOL     OW34306   4.590   0.454   0.642
 7655SOL    HW134307   4.558   0.526   0.580
 7655SOL    HW234308   4.614   0.373   0.589
 7656SOL     OW34309   4.741   0.039   0.753
 7656SOL    HW134310   4.669   0.044   0.684
 7656SOL    HW234311   4.717  -0.030   0.822
 7657SOL     OW34312   4.704   1.116   1.719
 7657SOL    HW134313   4.605   1.122   1.729
 7657SOL    HW234314   4.727   1.036   1.663
 7658SOL     OW34315   4.429   1.050   0.368
 7658SOL    HW134316   4.415   1.057   0.467
 7658SOL    HW234317   4.513   0.999   0.350
 7659SOL     OW34318   4.091   1.100   0.501
 7659SOL    HW134319   4.084   1.183   0.445
 7659SOL    HW234320   4.095   1.020   0.441
 7660SOL     OW34321   4.290   0.537   0.865
 7660SOL    HW134322   4.302   0.603   0.791
 7660SOL    HW234323   4.336   0.571   0.948
 7661SOL     OW34324   4.078   1.510   1.329
 7661SOL    HW134325   4.057   1.466   1.242
 7661SOL    HW234326   4.175   1.536   1.332
 7662SOL     OW34327   4.747   0.766   0.966
 7662SOL    HW134328   4.762   0.787   1.062
 7662SOL    HW234329   4.717   0.671   0.957
 7663SOL     OW34330   4.704   1.573   1.700
 7663SOL    HW134331   4.684   1.617   1.612
 7663SOL    HW234332   4.743   1.482   1.684
 7664SOL     OW34333   4.074   0.898   1.804
 7664SOL    HW134334   4.150   0.942   1.852
 7664SOL    HW234335   4.109   0.851   1.722
 7665SOL     OW34336   4.228   1.568   0.910
 7665SOL    HW134337   4.294   1.642   0.919
 7665SOL    HW234338   4.272   1.489   0.868
 7666SOL     OW34339   3.913   0.520   1.722
 7666SOL    HW134340   3.972   0.480   1.652
 7666SOL    HW234341   3.855   0.591   1.681
 7667SOL     OW34342   3.976   1.564   1.744
 7667SOL    HW134343   3.946   1.621   1.820
 7667SOL    HW234344   3.969   1.467   1.770
 7668SOL     OW34345   4.654   1.678   1.465
 7668SOL    HW134346   4.630   1.660   1.370
 7668SOL    HW234347   4.684   1.772   1.475
 7669SOL     OW34348   3.883   1.137   1.466
 7669SOL    HW134349   3.905   1.076   1.542
 7669SOL    HW234350   3.893   1.088   1.380
 7670SOL     OW34351   4.412   1.662   1.716
 7670SOL    HW134352   4.356   1.743   1.725
 7670SOL    HW234353   4.464   1.666   1.630
 7671SOL     OW34354   3.854   1.794   1.851
 7671SOL    HW134355   3.813   1.720   1.904
 7671SOL    HW234356   3.918   1.845   1.909
 7672SOL     OW34357   3.987   0.326   0.720
 7672SOL    HW134358   3.908   0.377   0.686
 7672SOL    HW234359   3.978   0.311   0.818
 7673SOL     OW34360   4.640   0.910   0.291
 7673SOL    HW134361   4.703   0.948   0.223
 7673SOL    HW234362   4.680   0.827   0.330
 7674SOL     OW34363   4.096   1.288   1.490
 7674SOL    HW134364   4.083   1.381   1.456
 7674SOL    HW234365   4.012   1.236   1.477
 7675SOL     OW34366   4.763   1.098   0.696
 7675SOL    HW134367   4.693   1.051   0.750
 7675SOL    HW234368   4.822   1.030   0.653
 7676SOL     OW34369   4.738   0.236   0.971
 7676SOL    HW134370   4.730   0.200   0.878
 7676SOL    HW234371   4.736   0.160   1.036
 7677SOL     OW34372   3.979   1.348   0.290
 7677SOL    HW134373   3.883   1.349   0.263
 7677SOL    HW234374   3.991   1.401   0.374
 7678SOL     OW34375   3.829   1.013   1.726
 7678SOL    HW134376   3.752   0.980   1.780
 7678SOL    HW234377   3.914   0.983   1.768
 7679SOL     OW34378   4.396   0.203   1.489
 7679SOL    HW134379   4.486   0.187   1.449
 7679SOL    HW234380   4.404   0.208   1.588
 7680SOL     OW34381   4.440   0.565   1.708
 7680SOL    HW134382   4.459   0.630   1.782
 7680SOL    HW234383   4.500   0.485   1.717
 7681SOL     OW34384   4.114   1.741   1.560
 7681SOL    HW134385   4.023   1.782   1.558
 7681SOL    HW234386   4.107   1.647   1.592
 7682SOL     OW34387   4.318   0.745   0.652
 7682SOL    HW134388   4.368   0.830   0.633
 7682SOL    HW234389   4.230   0.747   0.604
 7683SOL     OW34390   4.385   1.790   0.953
 7683SOL    HW134391   4.339   1.878   0.940
 7683SOL    HW234392   4.484   1.802   0.946
 7684SOL     OW34393   3.945   1.314   1.844
 7684SOL    HW134394   3.880   1.241   1.823
 7684SOL    HW234395   3.949   1.328   1.942
 7685SOL     OW34396   4.396   1.391   1.624
 7685SOL    HW134397   4.318   1.341   1.662
 7685SOL    HW234398   4.393   1.486   1.655
 7686SOL     OW34399   4.494   1.330   0.301
 7686SOL    HW134400   4.448   1.243   0.318
 7686SOL    HW234401   4.585   1.327   0.342
 7687SOL     OW34402   3.954   0.628   1.975
 7687SOL    HW134403   3.861   0.626   2.012
 7687SOL    HW234404   3.955   0.589   1.883
 7688SOL     OW34405   3.949   0.275   2.858
 7688SOL    HW134406   3.984   0.258   2.950
 7688SOL    HW234407   3.861   0.230   2.846
 7689SOL     OW34408   3.743   0.368   2.509
 7689SOL    HW134409   3.661   0.411   2.548
 7689SOL    HW234410   3.715   0.295   2.446
 7690SOL     OW34411   4.293   1.275   3.027
 7690SOL    HW134412   4.200   1.268   2.990
 7690SOL    HW234413   4.304   1.364   3.071
 7691SOL     OW34414   4.492   1.144   2.885
 7691SOL    HW134415   4.414   1.161   2.945
 7691SOL    HW234416   4.526   1.231   2.849
 7692SOL     OW34417   4.574   0.798   3.685
 7692SOL    HW134418   4.570   0.874   3.750
 7692SOL    HW234419   4.596   0.834   3.594
 7693SOL     OW34420   4.409   1.012   2.527
 7693SOL    HW134421   4.478   0.996   2.597
 7693SOL    HW234422   4.336   1.069   2.565
 7694SOL     OW34423   4.410   1.161   3.665
 7694SOL    HW134424   4.470   1.240   3.679
 7694SOL    HW234425   4.324   1.192   3.624
 7695SOL     OW34426   4.059   1.435   2.923
 7695SOL    HW134427   3.981   1.404   2.870
 7695SOL    HW234428   4.117   1.493   2.866
 7696SOL     OW34429   4.162   0.392   3.361
 7696SOL    HW134430   4.244   0.336   3.370
 7696SOL    HW234431   4.081   0.334   3.365
 7697SOL     OW34432   3.955   1.713   2.345
 7697SOL    HW134433   3.989   1.790   2.399
 7697SOL    HW234434   3.999   1.713   2.255
 7698SOL     OW34435   3.954   1.434   2.400
 7698SOL    HW134436   3.928   1.530   2.400
 7698SOL    HW234437   3.883   1.380   2.445
 7699SOL     OW34438   3.964   1.091   2.748
 7699SOL    HW134439   3.978   1.007   2.800
 7699SOL    HW234440   3.909   1.155   2.803
 7700SOL     OW34441   4.344   1.786   3.301
 7700SOL    HW134442   4.252   1.769   3.336
 7700SOL    HW234443   4.372   1.878   3.327
 7701SOL     OW34444   4.330   0.964   1.985
 7701SOL    HW134445   4.337   1.048   1.931
 7701SOL    HW234446   4.376   0.977   2.073
 7702SOL     OW34447   3.846   0.643   2.425
 7702SOL    HW134448   3.801   0.555   2.442
 7702SOL    HW234449   3.845   0.697   2.509
 7703SOL     OW34450   3.751   1.596   1.979
 7703SOL    HW134451   3.732   1.500   2.000
 7703SOL    HW234452   3.718   1.654   2.054
 7704SOL     OW34453   3.837   0.737   3.459
 7704SOL    HW134454   3.925   0.724   3.504
 7704SOL    HW234455   3.824   0.834   3.437
 7705SOL     OW34456   4.337   1.365   2.588
 7705SOL    HW134457   4.288   1.278   2.597
 7705SOL    HW234458   4.314   1.408   2.501
 7706SOL     OW34459   4.533   0.004   2.364
 7706SOL    HW134460   4.573   0.095   2.355
 7706SOL    HW234461   4.433   0.012   2.370
 7707SOL     OW34462   3.921   0.976   3.126
 7707SOL    HW134463   4.010   0.931   3.112
 7707SOL    HW234464   3.848   0.911   3.107
 7708SOL     OW34465   4.041   0.251   3.663
 7708SOL    HW134466   4.112   0.322   3.669
 7708SOL    HW234467   3.953   0.290   3.691
 7709SOL     OW34468   4.322   0.729   2.132
 7709SOL    HW134469   4.346   0.798   2.064
 7709SOL    HW234470   4.244   0.762   2.186
 7710SOL     OW34471   4.531   0.605   3.327
 7710SOL    HW134472   4.484   0.602   3.416
 7710SOL    HW234473   4.480   0.550   3.261
 7711SOL     OW34474   4.697   0.890   3.434
 7711SOL    HW134475   4.743   0.806   3.405
 7711SOL    HW234476   4.641   0.924   3.359
 7712SOL     OW34477   4.715   0.410   3.104
 7712SOL    HW134478   4.638   0.444   3.158
 7712SOL    HW234479   4.681   0.359   3.025
 7713SOL     OW34480   3.800   0.811   2.651
 7713SOL    HW134481   3.899   0.799   2.660
 7713SOL    HW234482   3.776   0.906   2.672
 7714SOL     OW34483   3.854   1.821   3.433
 7714SOL    HW134484   3.844   1.806   3.532
 7714SOL    HW234485   3.768   1.857   3.397
 7715SOL     OW34486   4.589   0.348   2.057
 7715SOL    HW134487   4.648   0.411   2.008
 7715SOL    HW234488   4.608   0.254   2.028
 7716SOL     OW34489   4.274   0.196   2.747
 7716SOL    HW134490   4.269   0.191   2.847
 7716SOL    HW234491   4.276   0.292   2.718
 7717SOL     OW34492   4.732   1.456   2.339
 7717SOL    HW134493   4.686   1.528   2.287
 7717SOL    HW234494   4.728   1.476   2.437
 7718SOL     OW34495   4.075   1.801   2.715
 7718SOL    HW134496   4.125   1.715   2.721
 7718SOL    HW234497   4.140   1.878   2.712
 7719SOL     OW34498   4.045   0.943   2.104
 7719SOL    HW134499   4.127   0.982   2.062
 7719SOL    HW234500   4.018   0.861   2.055
 7720SOL     OW34501   4.185   1.266   3.589
 7720SOL    HW134502   4.135   1.267   3.503
 7720SOL    HW234503   4.122   1.248   3.665
 7721SOL     OW34504   3.926   0.285   3.360
 7721SOL    HW134505   3.846   0.345   3.347
 7721SOL    HW234506   3.916   0.236   3.446
 7722SOL     OW34507   4.188   1.743   2.185
 7722SOL    HW134508   4.221   1.782   2.271
 7722SOL    HW234509   4.264   1.736   2.120
 7723SOL     OW34510   3.973   1.785   3.103
 7723SOL    HW134511   4.030   1.720   3.153
 7723SOL    HW234512   3.957   1.752   3.010
 7724SOL     OW34513   4.106   0.700   2.342
 7724SOL    HW134514   4.151   0.610   2.339
 7724SOL    HW234515   4.012   0.689   2.375
 7725SOL     OW34516   4.338   0.122   1.979
 7725SOL    HW134517   4.436   0.100   1.986
 7725SOL    HW234518   4.307   0.105   1.886
 7726SOL     OW34519   4.505   0.264   3.611
 7726SOL    HW134520   4.572   0.203   3.654
 7726SOL    HW234521   4.432   0.283   3.676
 7727SOL     OW34522   4.612   1.514   3.057
 7727SOL    HW134523   4.589   1.489   2.963
 7727SOL    HW234524   4.673   1.445   3.096
 7728SOL     OW34525   4.527   1.402   2.786
 7728SOL    HW134526   4.617   1.416   2.744
 7728SOL    HW234527   4.456   1.404   2.715
 7729SOL     OW34528   4.646   0.503   2.761
 7729SOL    HW134529   4.621   0.494   2.665
 7729SOL    HW234530   4.694   0.421   2.792
 7730SOL     OW34531   4.263   0.064   2.374
 7730SOL    HW134532   4.182   0.065   2.432
 7730SOL    HW234533   4.266   0.147   2.319
 7731SOL     OW34534   4.021   0.035   2.033
 7731SOL    HW134535   4.070   0.119   2.012
 7731SOL    HW234536   4.083  -0.030   2.078
 7732SOL     OW34537   4.659   0.236   2.342
 7732SOL    HW134538   4.611   0.277   2.264
 7732SOL    HW234539   4.758   0.234   2.323
 7733SOL     OW34540   4.951   1.570   2.655
 7733SOL    HW134541   4.972   1.644   2.590
 7733SOL    HW234542   5.019   1.570   2.728
 7734SOL     OW34543   4.183   1.152   2.603
 7734SOL    HW134544   4.112   1.125   2.668
 7734SOL    HW234545   4.157   1.124   2.510
 7735SOL     OW34546   4.756   0.549   1.878
 7735SOL    HW134547   4.715   0.631   1.839
 7735SOL    HW234548   4.820   0.575   1.951
 7736SOL     OW34549   3.802   0.556   3.248
 7736SOL    HW134550   3.894   0.555   3.207
 7736SOL    HW234551   3.796   0.630   3.315
 7737SOL     OW34552   4.285   0.222   3.009
 7737SOL    HW134553   4.323   0.138   3.046
 7737SOL    HW234554   4.197   0.241   3.053
 7738SOL     OW34555   4.590   0.454   2.504
 7738SOL    HW134556   4.558   0.526   2.442
 7738SOL    HW234557   4.614   0.373   2.451
 7739SOL     OW34558   4.741   0.039   2.615
 7739SOL    HW134559   4.669   0.044   2.546
 7739SOL    HW234560   4.717  -0.030   2.684
 7740SOL     OW34561   4.212   1.385   2.036
 7740SOL    HW134562   4.125   1.370   2.083
 7740SOL    HW234563   4.195   1.411   1.941
 7741SOL     OW34564   4.251   0.256   2.190
 7741SOL    HW134565   4.278   0.197   2.115
 7741SOL    HW234566   4.251   0.351   2.159
 7742SOL     OW34567   4.639   0.089   3.264
 7742SOL    HW134568   4.664   0.069   3.169
 7742SOL    HW234569   4.711   0.145   3.306
 7743SOL     OW34570   4.704   1.116   3.581
 7743SOL    HW134571   4.605   1.122   3.591
 7743SOL    HW234572   4.727   1.036   3.525
 7744SOL     OW34573   4.429   1.050   2.230
 7744SOL    HW134574   4.415   1.057   2.329
 7744SOL    HW234575   4.513   0.999   2.212
 7745SOL     OW34576   4.134   0.813   3.113
 7745SOL    HW134577   4.220   0.825   3.163
 7745SOL    HW234578   4.092   0.726   3.140
 7746SOL     OW34579   3.788   1.564   3.193
 7746SOL    HW134580   3.742   1.646   3.159
 7746SOL    HW234581   3.886   1.583   3.202
 7747SOL     OW34582   4.091   1.100   2.363
 7747SOL    HW134583   4.084   1.183   2.307
 7747SOL    HW234584   4.095   1.020   2.303
 7748SOL     OW34585   4.290   0.537   2.727
 7748SOL    HW134586   4.302   0.603   2.653
 7748SOL    HW234587   4.336   0.571   2.810
 7749SOL     OW34588   4.078   1.510   3.191
 7749SOL    HW134589   4.057   1.466   3.104
 7749SOL    HW234590   4.175   1.536   3.194
 7750SOL     OW34591   4.126   0.751   3.460
 7750SOL    HW134592   4.194   0.806   3.413
 7750SOL    HW234593   4.166   0.663   3.487
 7751SOL     OW34594   4.737   0.105   3.632
 7751SOL    HW134595   4.743   0.190   3.580
 7751SOL    HW234596   4.769   0.029   3.575
 7752SOL     OW34597   4.228   0.050   3.602
 7752SOL    HW134598   4.186  -0.007   3.532
 7752SOL    HW234599   4.162   0.119   3.634
 7753SOL     OW34600   4.297   0.870   2.891
 7753SOL    HW134601   4.341   0.959   2.882
 7753SOL    HW234602   4.234   0.870   2.968
 7754SOL     OW34603   4.933   0.525   2.137
 7754SOL    HW134604   4.946   0.441   2.191
 7754SOL    HW234605   4.904   0.599   2.197
 7755SOL     OW34606   4.031   0.213   3.093
 7755SOL    HW134607   4.008   0.250   3.183
 7755SOL    HW234608   4.001   0.118   3.087
 7756SOL     OW34609   3.761   1.310   3.144
 7756SOL    HW134610   3.814   1.261   3.212
 7756SOL    HW234611   3.783   1.408   3.149
 7757SOL     OW34612   4.456   0.634   2.926
 7757SOL    HW134613   4.515   0.608   2.850
 7757SOL    HW234614   4.428   0.730   2.915
 7758SOL     OW34615   4.031   0.063   2.480
 7758SOL    HW134616   4.020   0.157   2.513
 7758SOL    HW234617   4.026   0.000   2.557
 7759SOL     OW34618   4.747   0.766   2.828
 7759SOL    HW134619   4.762   0.787   2.924
 7759SOL    HW234620   4.717   0.671   2.819
 7760SOL     OW34621   4.704   1.573   3.562
 7760SOL    HW134622   4.684   1.617   3.474
 7760SOL    HW234623   4.743   1.482   3.546
 7761SOL     OW34624   4.074   0.898   3.666
 7761SOL    HW134625   4.150   0.942   3.714
 7761SOL    HW234626   4.109   0.851   3.584
 7762SOL     OW34627   4.043   0.810   2.811
 7762SOL    HW134628   4.136   0.846   2.816
 7762SOL    HW234629   4.037   0.725   2.863
 7763SOL     OW34630   4.063   0.509   2.868
 7763SOL    HW134631   4.011   0.426   2.851
 7763SOL    HW234632   4.140   0.514   2.804
 7764SOL     OW34633   3.732   1.326   2.062
 7764SOL    HW134634   3.639   1.347   2.031
 7764SOL    HW234635   3.742   1.227   2.075
 7765SOL     OW34636   3.812   1.801   2.789
 7765SOL    HW134637   3.770   1.715   2.762
 7765SOL    HW234638   3.906   1.804   2.755
 7766SOL     OW34639   4.228   1.568   2.772
 7766SOL    HW134640   4.294   1.642   2.781
 7766SOL    HW234641   4.272   1.489   2.730
 7767SOL     OW34642   4.726   0.796   3.100
 7767SOL    HW134643   4.767   0.764   3.186
 7767SOL    HW234644   4.630   0.769   3.097
 7768SOL     OW34645   3.764   0.544   2.976
 7768SOL    HW134646   3.849   0.511   2.935
 7768SOL    HW234647   3.777   0.559   3.074
 7769SOL     OW34648   3.913   0.520   3.584
 7769SOL    HW134649   3.972   0.480   3.514
 7769SOL    HW234650   3.855   0.591   3.543
 7770SOL     OW34651   4.539   0.572   2.187
 7770SOL    HW134652   4.546   0.483   2.141
 7770SOL    HW234653   4.445   0.606   2.179
 7771SOL     OW34654   3.976   1.564   3.606
 7771SOL    HW134655   3.946   1.621   3.682
 7771SOL    HW234656   3.969   1.467   3.632
 7772SOL     OW34657   4.395   0.464   3.131
 7772SOL    HW134658   4.361   0.375   3.101
 7772SOL    HW234659   4.421   0.518   3.051
 7773SOL     OW34660   4.654   1.678   3.327
 7773SOL    HW134661   4.630   1.660   3.232
 7773SOL    HW234662   4.684   1.772   3.337
 7774SOL     OW34663   4.197   0.500   2.053
 7774SOL    HW134664   4.258   0.580   2.057
 7774SOL    HW234665   4.102   0.531   2.060
 7775SOL     OW34666   3.883   1.137   3.328
 7775SOL    HW134667   3.905   1.076   3.404
 7775SOL    HW234668   3.893   1.088   3.242
 7776SOL     OW34669   3.807   1.258   2.884
 7776SOL    HW134670   3.802   1.257   2.984
 7776SOL    HW234671   3.724   1.217   2.846
 7777SOL     OW34672   4.412   1.662   3.578
 7777SOL    HW134673   4.356   1.743   3.587
 7777SOL    HW234674   4.464   1.666   3.492
 7778SOL     OW34675   3.854   1.794   3.713
 7778SOL    HW134676   3.813   1.720   3.766
 7778SOL    HW234677   3.918   1.845   3.771
 7779SOL     OW34678   5.004   0.927   2.534
 7779SOL    HW134679   5.064   0.846   2.536
 7779SOL    HW234680   5.044   0.996   2.474
 7780SOL     OW34681   4.554   1.273   3.284
 7780SOL    HW134682   4.549   1.306   3.379
 7780SOL    HW234683   4.468   1.292   3.238
 7781SOL     OW34684   4.396   1.616   2.016
 7781SOL    HW134685   4.405   1.626   1.917
 7781SOL    HW234686   4.356   1.527   2.037
 7782SOL     OW34687   3.987   0.326   2.582
 7782SOL    HW134688   3.908   0.377   2.548
 7782SOL    HW234689   3.978   0.311   2.680
 7783SOL     OW34690   4.546   1.002   3.234
 7783SOL    HW134691   4.586   1.001   3.142
 7783SOL    HW234692   4.556   1.094   3.274
 7784SOL     OW34693   4.640   0.910   2.153
 7784SOL    HW134694   4.703   0.948   2.085
 7784SOL    HW234695   4.680   0.827   2.192
 7785SOL     OW34696   4.096   1.288   3.352
 7785SOL    HW134697   4.083   1.381   3.318
 7785SOL    HW234698   4.012   1.236   3.339
 7786SOL     OW34699   4.763   1.098   2.558
 7786SOL    HW134700   4.693   1.051   2.612
 7786SOL    HW234701   4.822   1.030   2.515
 7787SOL     OW34702   4.738   0.236   2.833
 7787SOL    HW134703   4.730   0.200   2.740
 7787SOL    HW234704   4.736   0.160   2.898
 7788SOL     OW34705   4.314   1.487   2.353
 7788SOL    HW134706   4.356   1.429   2.283
 7788SOL    HW234707   4.270   1.566   2.309
 7789SOL     OW34708   3.979   1.348   2.152
 7789SOL    HW134709   3.883   1.349   2.125
 7789SOL    HW234710   3.991   1.401   2.236
 7790SOL     OW34711   3.829   1.013   3.588
 7790SOL    HW134712   3.752   0.980   3.642
 7790SOL    HW234713   3.914   0.983   3.630
 7791SOL     OW34714   4.396   0.203   3.351
 7791SOL    HW134715   4.486   0.187   3.311
 7791SOL    HW234716   4.404   0.208   3.450
 7792SOL     OW34717   3.799   0.345   1.895
 7792SOL    HW134718   3.707   0.317   1.866
 7792SOL    HW234719   3.830   0.422   1.839
 7793SOL     OW34720   3.796   0.166   2.180
 7793SOL    HW134721   3.779   0.249   2.126
 7793SOL    HW234722   3.886   0.129   2.158
 7794SOL     OW34723   4.337   0.842   3.293
 7794SOL    HW134724   4.393   0.923   3.276
 7794SOL    HW234725   4.396   0.762   3.296
 7795SOL     OW34726   4.440   0.565   3.570
 7795SOL    HW134727   4.459   0.630   3.644
 7795SOL    HW234728   4.500   0.485   3.579
 7796SOL     OW34729   4.114   1.741   3.422
 7796SOL    HW134730   4.023   1.782   3.420
 7796SOL    HW234731   4.107   1.647   3.454
 7797SOL     OW34732   4.949   0.325   2.311
 7797SOL    HW134733   5.014   0.251   2.300
 7797SOL    HW234734   4.969   0.375   2.395
 7798SOL     OW34735   4.318   0.745   2.514
 7798SOL    HW134736   4.368   0.830   2.495
 7798SOL    HW234737   4.230   0.747   2.466
 7799SOL     OW34738   4.583   1.374   1.878
 7799SOL    HW134739   4.537   1.389   1.966
 7799SOL    HW234740   4.627   1.459   1.848
 7800SOL     OW34741   4.385   1.790   2.815
 7800SOL    HW134742   4.339   1.878   2.802
 7800SOL    HW234743   4.484   1.802   2.808
 7801SOL     OW34744   4.583   0.956   2.723
 7801SOL    HW134745   4.637   0.887   2.771
 7801SOL    HW234746   4.551   1.025   2.789
 7802SOL     OW34747   3.945   1.314   3.706
 7802SOL    HW134748   3.880   1.241   3.685
 7802SOL    HW234749   3.949   1.328   3.804
 7803SOL     OW34750   3.803   1.240   2.515
 7803SOL    HW134751   3.802   1.193   2.603
 7803SOL    HW234752   3.885   1.212   2.464
 7804SOL     OW34753   4.396   1.391   3.486
 7804SOL    HW134754   4.318   1.341   3.524
 7804SOL    HW234755   4.393   1.486   3.517
 7805SOL     OW34756   4.152   0.424   2.382
 7805SOL    HW134757   4.182   0.352   2.320
 7805SOL    HW234758   4.113   0.384   2.465
 7806SOL     OW34759   4.041   0.547   3.142
 7806SOL    HW134760   4.079   0.488   3.214
 7806SOL    HW234761   4.081   0.521   3.054
 7807SOL     OW34762   4.536   1.586   2.549
 7807SOL    HW134763   4.568   1.596   2.455
 7807SOL    HW234764   4.457   1.524   2.551
 7808SOL     OW34765   4.725   0.034   3.016
 7808SOL    HW134766   4.662  -0.038   2.985
 7808SOL    HW234767   4.818  -0.002   3.016
 7809SOL     OW34768   4.494   1.330   2.163
 7809SOL    HW134769   4.448   1.243   2.180
 7809SOL    HW234770   4.585   1.327   2.204
 7810SOL     OW34771   4.342   1.567   3.146
 7810SOL    HW134772   4.337   1.649   3.203
 7810SOL    HW234773   4.431   1.564   3.101
 7811SOL     OW34774   3.763   1.077   2.162
 7811SOL    HW134775   3.862   1.066   2.153
 7811SOL    HW234776   3.723   0.991   2.194
 7812SOL     OW34777   4.599   1.646   2.199
 7812SOL    HW134778   4.522   1.611   2.145
 7812SOL    HW234779   4.567   1.717   2.261
 7813SOL     OW34780   3.954   0.628   3.837
 7813SOL    HW134781   3.861   0.626   3.874
 7813SOL    HW234782   3.955   0.589   3.745
 7814SOL     OW34783   3.949   0.275   4.720
 7814SOL    HW134784   3.984   0.258   4.812
 7814SOL    HW234785   3.861   0.230   4.708
 7815SOL     OW34786   3.743   0.368   4.371
 7815SOL    HW134787   3.661   0.411   4.410
 7815SOL    HW234788   3.715   0.295   4.308
 7816SOL     OW34789   4.293   1.275   4.889
 7816SOL    HW134790   4.200   1.268   4.852
 7816SOL    HW234791   4.304   1.364   4.933
 7817SOL     OW34792   4.492   1.144   4.747
 7817SOL    HW134793   4.414   1.161   4.807
 7817SOL    HW234794   4.526   1.231   4.711
 7818SOL     OW34795   4.574   0.798   5.547
 7818SOL    HW134796   4.570   0.874   5.612
 7818SOL    HW234797   4.596   0.834   5.456
 7819SOL     OW34798   4.409   1.012   4.389
 7819SOL    HW134799   4.478   0.996   4.459
 7819SOL    HW234800   4.336   1.069   4.427
 7820SOL     OW34801   4.410   1.161   5.527
 7820SOL    HW134802   4.470   1.240   5.541
 7820SOL    HW234803   4.324   1.192   5.486
 7821SOL     OW34804   4.059   1.435   4.785
 7821SOL    HW134805   3.981   1.404   4.732
 7821SOL    HW234806   4.117   1.493   4.728
 7822SOL     OW34807   4.162   0.392   5.223
 7822SOL    HW134808   4.244   0.336   5.232
 7822SOL    HW234809   4.081   0.334   5.227
 7823SOL     OW34810   3.955   1.713   4.207
 7823SOL    HW134811   3.989   1.790   4.261
 7823SOL    HW234812   3.999   1.713   4.117
 7824SOL     OW34813   3.954   1.434   4.262
 7824SOL    HW134814   3.928   1.530   4.262
 7824SOL    HW234815   3.883   1.380   4.307
 7825SOL     OW34816   3.964   1.091   4.610
 7825SOL    HW134817   3.978   1.007   4.662
 7825SOL    HW234818   3.909   1.155   4.665
 7826SOL     OW34819   4.344   1.786   5.163
 7826SOL    HW134820   4.252   1.769   5.198
 7826SOL    HW234821   4.372   1.878   5.189
 7827SOL     OW34822   4.330   0.964   3.847
 7827SOL    HW134823   4.337   1.048   3.793
 7827SOL    HW234824   4.376   0.977   3.935
 7828SOL     OW34825   3.846   0.643   4.287
 7828SOL    HW134826   3.801   0.555   4.304
 7828SOL    HW234827   3.845   0.697   4.371
 7829SOL     OW34828   3.751   1.596   3.841
 7829SOL    HW134829   3.732   1.500   3.862
 7829SOL    HW234830   3.718   1.654   3.916
 7830SOL     OW34831   3.837   0.737   5.321
 7830SOL    HW134832   3.925   0.724   5.366
 7830SOL    HW234833   3.824   0.834   5.299
 7831SOL     OW34834   4.337   1.365   4.450
 7831SOL    HW134835   4.288   1.278   4.459
 7831SOL    HW234836   4.314   1.408   4.363
 7832SOL     OW34837   4.533   0.004   4.226
 7832SOL    HW134838   4.573   0.095   4.217
 7832SOL    HW234839   4.433   0.012   4.232
 7833SOL     OW34840   3.921   0.976   4.988
 7833SOL    HW134841   4.010   0.931   4.974
 7833SOL    HW234842   3.848   0.911   4.969
 7834SOL     OW34843   4.041   0.251   5.525
 7834SOL    HW134844   4.112   0.322   5.531
 7834SOL    HW234845   3.953   0.290   5.553
 7835SOL     OW34846   4.322   0.729   3.994
 7835SOL    HW134847   4.346   0.798   3.926
 7835SOL    HW234848   4.244   0.762   4.048
 7836SOL     OW34849   4.531   0.605   5.189
 7836SOL    HW134850   4.484   0.602   5.278
 7836SOL    HW234851   4.480   0.550   5.123
 7837SOL     OW34852   4.697   0.890   5.296
 7837SOL    HW134853   4.743   0.806   5.267
 7837SOL    HW234854   4.641   0.924   5.221
 7838SOL     OW34855   4.715   0.410   4.966
 7838SOL    HW134856   4.638   0.444   5.020
 7838SOL    HW234857   4.681   0.359   4.887
 7839SOL     OW34858   3.800   0.811   4.513
 7839SOL    HW134859   3.899   0.799   4.522
 7839SOL    HW234860   3.776   0.906   4.534
 7840SOL     OW34861   3.854   1.821   5.295
 7840SOL    HW134862   3.844   1.806   5.394
 7840SOL    HW234863   3.768   1.857   5.259
 7841SOL     OW34864   4.589   0.348   3.919
 7841SOL    HW134865   4.648   0.411   3.870
 7841SOL    HW234866   4.608   0.254   3.890
 7842SOL     OW34867   4.274   0.196   4.609
 7842SOL    HW134868   4.269   0.191   4.709
 7842SOL    HW234869   4.276   0.292   4.580
 7843SOL     OW34870   4.732   1.456   4.201
 7843SOL    HW134871   4.686   1.528   4.149
 7843SOL    HW234872   4.728   1.476   4.299
 7844SOL     OW34873   4.075   1.801   4.577
 7844SOL    HW134874   4.125   1.715   4.583
 7844SOL    HW234875   4.140   1.878   4.574
 7845SOL     OW34876   4.045   0.943   3.966
 7845SOL    HW134877   4.127   0.982   3.924
 7845SOL    HW234878   4.018   0.861   3.917
 7846SOL     OW34879   4.185   1.266   5.451
 7846SOL    HW134880   4.135   1.267   5.365
 7846SOL    HW234881   4.122   1.248   5.527
 7847SOL     OW34882   3.926   0.285   5.222
 7847SOL    HW134883   3.846   0.345   5.209
 7847SOL    HW234884   3.916   0.236   5.308
 7848SOL     OW34885   4.188   1.743   4.047
 7848SOL    HW134886   4.221   1.782   4.133
 7848SOL    HW234887   4.264   1.736   3.982
 7849SOL     OW34888   3.973   1.785   4.965
 7849SOL    HW134889   4.030   1.720   5.015
 7849SOL    HW234890   3.957   1.752   4.872
 7850SOL     OW34891   4.106   0.700   4.204
 7850SOL    HW134892   4.151   0.610   4.201
 7850SOL    HW234893   4.012   0.689   4.237
 7851SOL     OW34894   4.338   0.122   3.841
 7851SOL    HW134895   4.436   0.100   3.848
 7851SOL    HW234896   4.307   0.105   3.748
 7852SOL     OW34897   4.505   0.264   5.473
 7852SOL    HW134898   4.572   0.203   5.516
 7852SOL    HW234899   4.432   0.283   5.538
 7853SOL     OW34900   4.612   1.514   4.919
 7853SOL    HW134901   4.589   1.489   4.825
 7853SOL    HW234902   4.673   1.445   4.958
 7854SOL     OW34903   4.527   1.402   4.648
 7854SOL    HW134904   4.617   1.416   4.606
 7854SOL    HW234905   4.456   1.404   4.577
 7855SOL     OW34906   4.646   0.503   4.623
 7855SOL    HW134907   4.621   0.494   4.527
 7855SOL    HW234908   4.694   0.421   4.654
 7856SOL     OW34909   4.263   0.064   4.236
 7856SOL    HW134910   4.182   0.065   4.294
 7856SOL    HW234911   4.266   0.147   4.181
 7857SOL     OW34912   4.021   0.035   3.895
 7857SOL    HW134913   4.070   0.119   3.874
 7857SOL    HW234914   4.083  -0.030   3.940
 7858SOL     OW34915   4.659   0.236   4.204
 7858SOL    HW134916   4.611   0.277   4.126
 7858SOL    HW234917   4.758   0.234   4.185
 7859SOL     OW34918   4.951   1.570   4.517
 7859SOL    HW134919   4.972   1.644   4.452
 7859SOL    HW234920   5.019   1.570   4.590
 7860SOL     OW34921   4.183   1.152   4.465
 7860SOL    HW134922   4.112   1.125   4.530
 7860SOL    HW234923   4.157   1.124   4.372
 7861SOL     OW34924   4.756   0.549   3.740
 7861SOL    HW134925   4.715   0.631   3.701
 7861SOL    HW234926   4.820   0.575   3.813
 7862SOL     OW34927   3.802   0.556   5.110
 7862SOL    HW134928   3.894   0.555   5.069
 7862SOL    HW234929   3.796   0.630   5.177
 7863SOL     OW34930   4.285   0.222   4.871
 7863SOL    HW134931   4.323   0.138   4.908
 7863SOL    HW234932   4.197   0.241   4.915
 7864SOL     OW34933   4.590   0.454   4.366
 7864SOL    HW134934   4.558   0.526   4.304
 7864SOL    HW234935   4.614   0.373   4.313
 7865SOL     OW34936   4.741   0.039   4.477
 7865SOL    HW134937   4.669   0.044   4.408
 7865SOL    HW234938   4.717  -0.030   4.546
 7866SOL     OW34939   4.212   1.385   3.898
 7866SOL    HW134940   4.125   1.370   3.945
 7866SOL    HW234941   4.195   1.411   3.803
 7867SOL     OW34942   4.251   0.256   4.052
 7867SOL    HW134943   4.278   0.197   3.977
 7867SOL    HW234944   4.251   0.351   4.021
 7868SOL     OW34945   4.639   0.089   5.126
 7868SOL    HW134946   4.664   0.069   5.031
 7868SOL    HW234947   4.711   0.145   5.168
 7869SOL     OW34948   4.704   1.116   5.443
 7869SOL    HW134949   4.605   1.122   5.453
 7869SOL    HW234950   4.727   1.036   5.387
 7870SOL     OW34951   4.429   1.050   4.092
 7870SOL    HW134952   4.415   1.057   4.191
 7870SOL    HW234953   4.513   0.999   4.074
 7871SOL     OW34954   4.134   0.813   4.975
 7871SOL    HW134955   4.220   0.825   5.025
 7871SOL    HW234956   4.092   0.726   5.002
 7872SOL     OW34957   3.788   1.564   5.055
 7872SOL    HW134958   3.742   1.646   5.021
 7872SOL    HW234959   3.886   1.583   5.064
 7873SOL     OW34960   4.091   1.100   4.225
 7873SOL    HW134961   4.084   1.183   4.169
 7873SOL    HW234962   4.095   1.020   4.165
 7874SOL     OW34963   4.290   0.537   4.589
 7874SOL    HW134964   4.302   0.603   4.515
 7874SOL    HW234965   4.336   0.571   4.672
 7875SOL     OW34966   4.078   1.510   5.053
 7875SOL    HW134967   4.057   1.466   4.966
 7875SOL    HW234968   4.175   1.536   5.056
 7876SOL     OW34969   4.126   0.751   5.322
 7876SOL    HW134970   4.194   0.806   5.275
 7876SOL    HW234971   4.166   0.663   5.349
 7877SOL     OW34972   4.737   0.105   5.494
 7877SOL    HW134973   4.743   0.190   5.442
 7877SOL    HW234974   4.769   0.029   5.437
 7878SOL     OW34975   4.228   0.050   5.464
 7878SOL    HW134976   4.186  -0.007   5.394
 7878SOL    HW234977   4.162   0.119   5.496
 7879SOL     OW34978   4.297   0.870   4.753
 7879SOL    HW134979   4.341   0.959   4.744
 7879SOL    HW234980   4.234   0.870   4.830
 7880SOL     OW34981   4.933   0.525   3.999
 7880SOL    HW134982   4.946   0.441   4.053
 7880SOL    HW234983   4.904   0.599   4.059
 7881SOL     OW34984   4.031   0.213   4.955
 7881SOL    HW134985   4.008   0.250   5.045
 7881SOL    HW234986   4.001   0.118   4.949
 7882SOL     OW34987   3.761   1.310   5.006
 7882SOL    HW134988   3.814   1.261   5.074
 7882SOL    HW234989   3.783   1.408   5.011
 7883SOL     OW34990   4.456   0.634   4.788
 7883SOL    HW134991   4.515   0.608   4.712
 7883SOL    HW234992   4.428   0.730   4.777
 7884SOL     OW34993   4.031   0.063   4.342
 7884SOL    HW134994   4.020   0.157   4.375
 7884SOL    HW234995   4.026   0.000   4.419
 7885SOL     OW34996   4.747   0.766   4.690
 7885SOL    HW134997   4.762   0.787   4.786
 7885SOL    HW234998   4.717   0.671   4.681
 7886SOL     OW34999   4.704   1.573   5.424
 7886SOL    HW135000   4.684   1.617   5.336
 7886SOL    HW235001   4.743   1.482   5.408
 7887SOL     OW35002   4.074   0.898   5.528
 7887SOL    HW135003   4.150   0.942   5.576
 7887SOL    HW235004   4.109   0.851   5.446
 7888SOL     OW35005   4.043   0.810   4.673
 7888SOL    HW135006   4.136   0.846   4.678
 7888SOL    HW235007   4.037   0.725   4.725
 7889SOL     OW35008   4.063   0.509   4.730
 7889SOL    HW135009   4.011   0.426   4.713
 7889SOL    HW235010   4.140   0.514   4.666
 7890SOL     OW35011   3.732   1.326   3.924
 7890SOL    HW135012   3.639   1.347   3.893
 7890SOL    HW235013   3.742   1.227   3.937
 7891SOL     OW35014   3.812   1.801   4.651
 7891SOL    HW135015   3.770   1.715   4.624
 7891SOL    HW235016   3.906   1.804   4.617
 7892SOL     OW35017   4.228   1.568   4.634
 7892SOL    HW135018   4.294   1.642   4.643
 7892SOL    HW235019   4.272   1.489   4.592
 7893SOL     OW35020   4.726   0.796   4.962
 7893SOL    HW135021   4.767   0.764   5.048
 7893SOL    HW235022   4.630   0.769   4.959
 7894SOL     OW35023   3.764   0.544   4.838
 7894SOL    HW135024   3.849   0.511   4.797
 7894SOL    HW235025   3.777   0.559   4.936
 7895SOL     OW35026   3.913   0.520   5.446
 7895SOL    HW135027   3.972   0.480   5.376
 7895SOL    HW235028   3.855   0.591   5.405
 7896SOL     OW35029   4.539   0.572   4.049
 7896SOL    HW135030   4.546   0.483   4.003
 7896SOL    HW235031   4.445   0.606   4.041
 7897SOL     OW35032   3.976   1.564   5.468
 7897SOL    HW135033   3.946   1.621   5.544
 7897SOL    HW235034   3.969   1.467   5.494
 7898SOL     OW35035   4.395   0.464   4.993
 7898SOL    HW135036   4.361   0.375   4.963
 7898SOL    HW235037   4.421   0.518   4.913
 7899SOL     OW35038   4.654   1.678   5.189
 7899SOL    HW135039   4.630   1.660   5.094
 7899SOL    HW235040   4.684   1.772   5.199
 7900SOL     OW35041   4.197   0.500   3.915
 7900SOL    HW135042   4.258   0.580   3.919
 7900SOL    HW235043   4.102   0.531   3.922
 7901SOL     OW35044   3.883   1.137   5.190
 7901SOL    HW135045   3.905   1.076   5.266
 7901SOL    HW235046   3.893   1.088   5.104
 7902SOL     OW35047   3.807   1.258   4.746
 7902SOL    HW135048   3.802   1.257   4.846
 7902SOL    HW235049   3.724   1.217   4.708
 7903SOL     OW35050   4.412   1.662   5.440
 7903SOL    HW135051   4.356   1.743   5.449
 7903SOL    HW235052   4.464   1.666   5.354
 7904SOL     OW35053   3.854   1.794   5.575
 7904SOL    HW135054   3.813   1.720   5.628
 7904SOL    HW235055   3.918   1.845   5.633
 7905SOL     OW35056   5.004   0.927   4.396
 7905SOL    HW135057   5.064   0.846   4.398
 7905SOL    HW235058   5.044   0.996   4.336
 7906SOL     OW35059   4.554   1.273   5.146
 7906SOL    HW135060   4.549   1.306   5.241
 7906SOL    HW235061   4.468   1.292   5.100
 7907SOL     OW35062   4.396   1.616   3.878
 7907SOL    HW135063   4.405   1.626   3.779
 7907SOL    HW235064   4.356   1.527   3.899
 7908SOL     OW35065   3.987   0.326   4.444
 7908SOL    HW135066   3.908   0.377   4.410
 7908SOL    HW235067   3.978   0.311   4.542
 7909SOL     OW35068   4.546   1.002   5.096
 7909SOL    HW135069   4.586   1.001   5.004
 7909SOL    HW235070   4.556   1.094   5.136
 7910SOL     OW35071   4.640   0.910   4.015
 7910SOL    HW135072   4.703   0.948   3.947
 7910SOL    HW235073   4.680   0.827   4.054
 7911SOL     OW35074   4.096   1.288   5.214
 7911SOL    HW135075   4.083   1.381   5.180
 7911SOL    HW235076   4.012   1.236   5.201
 7912SOL     OW35077   4.763   1.098   4.420
 7912SOL    HW135078   4.693   1.051   4.474
 7912SOL    HW235079   4.822   1.030   4.377
 7913SOL     OW35080   4.738   0.236   4.695
 7913SOL    HW135081   4.730   0.200   4.602
 7913SOL    HW235082   4.736   0.160   4.760
 7914SOL     OW35083   4.314   1.487   4.215
 7914SOL    HW135084   4.356   1.429   4.145
 7914SOL    HW235085   4.270   1.566   4.171
 7915SOL     OW35086   3.979   1.348   4.014
 7915SOL    HW135087   3.883   1.349   3.987
 7915SOL    HW235088   3.991   1.401   4.098
 7916SOL     OW35089   3.829   1.013   5.450
 7916SOL    HW135090   3.752   0.980   5.504
 7916SOL    HW235091   3.914   0.983   5.492
 7917SOL     OW35092   4.396   0.203   5.213
 7917SOL    HW135093   4.486   0.187   5.173
 7917SOL    HW235094   4.404   0.208   5.312
 7918SOL     OW35095   3.799   0.345   3.757
 7918SOL    HW135096   3.707   0.317   3.728
 7918SOL    HW235097   3.830   0.422   3.701
 7919SOL     OW35098   3.796   0.166   4.042
 7919SOL    HW135099   3.779   0.249   3.988
 7919SOL    HW235100   3.886   0.129   4.020
 7920SOL     OW35101   4.337   0.842   5.155
 7920SOL    HW135102   4.393   0.923   5.138
 7920SOL    HW235103   4.396   0.762   5.158
 7921SOL     OW35104   4.440   0.565   5.432
 7921SOL    HW135105   4.459   0.630   5.506
 7921SOL    HW235106   4.500   0.485   5.441
 7922SOL     OW35107   4.114   1.741   5.284
 7922SOL    HW135108   4.023   1.782   5.282
 7922SOL    HW235109   4.107   1.647   5.316
 7923SOL     OW35110   4.949   0.325   4.173
 7923SOL    HW135111   5.014   0.251   4.162
 7923SOL    HW235112   4.969   0.375   4.257
 7924SOL     OW35113   4.318   0.745   4.376
 7924SOL    HW135114   4.368   0.830   4.357
 7924SOL    HW235115   4.230   0.747   4.328
 7925SOL     OW35116   4.583   1.374   3.740
 7925SOL    HW135117   4.537   1.389   3.828
 7925SOL    HW235118   4.627   1.459   3.710
 7926SOL     OW35119   4.385   1.790   4.677
 7926SOL    HW135120   4.339   1.878   4.664
 7926SOL    HW235121   4.484   1.802   4.670
 7927SOL     OW35122   4.583   0.956   4.585
 7927SOL    HW135123   4.637   0.887   4.633
 7927SOL    HW235124   4.551   1.025   4.651
 7928SOL     OW35125   3.945   1.314   5.568
 7928SOL    HW135126   3.880   1.241   5.547
 7928SOL    HW235127   3.949   1.328   5.666
 7929SOL     OW35128   3.803   1.240   4.377
 7929SOL    HW135129   3.802   1.193   4.465
 7929SOL    HW235130   3.885   1.212   4.326
 7930SOL     OW35131   4.396   1.391   5.348
 7930SOL    HW135132   4.318   1.341   5.386
 7930SOL    HW235133   4.393   1.486   5.379
 7931SOL     OW35134   4.152   0.424   4.244
 7931SOL    HW135135   4.182   0.352   4.182
 7931SOL    HW235136   4.113   0.384   4.327
 7932SOL     OW35137   4.041   0.547   5.004
 7932SOL    HW135138   4.079   0.488   5.076
 7932SOL    HW235139   4.081   0.521   4.916
 7933SOL     OW35140   4.536   1.586   4.411
 7933SOL    HW135141   4.568   1.596   4.317
 7933SOL    HW235142   4.457   1.524   4.413
 7934SOL     OW35143   4.725   0.034   4.878
 7934SOL    HW135144   4.662  -0.038   4.847
 7934SOL    HW235145   4.818  -0.002   4.878
 7935SOL     OW35146   4.494   1.330   4.025
 7935SOL    HW135147   4.448   1.243   4.042
 7935SOL    HW235148   4.585   1.327   4.066
 7936SOL     OW35149   4.342   1.567   5.008
 7936SOL    HW135150   4.337   1.649   5.065
 7936SOL    HW235151   4.431   1.564   4.963
 7937SOL     OW35152   3.763   1.077   4.024
 7937SOL    HW135153   3.862   1.066   4.015
 7937SOL    HW235154   3.723   0.991   4.056
 7938SOL     OW35155   4.599   1.646   4.061
 7938SOL    HW135156   4.522   1.611   4.007
 7938SOL    HW235157   4.567   1.717   4.123
 7939SOL     OW35158   3.954   0.628   5.699
 7939SOL    HW135159   3.861   0.626   5.736
 7939SOL    HW235160   3.955   0.589   5.607
 7940SOL     OW35161   3.949   0.275   6.582
 7940SOL    HW135162   3.984   0.258   6.674
 7940SOL    HW235163   3.861   0.230   6.570
 7941SOL     OW35164   3.743   0.368   6.233
 7941SOL    HW135165   3.661   0.411   6.272
 7941SOL    HW235166   3.715   0.295   6.170
 7942SOL     OW35167   4.293   1.275   6.751
 7942SOL    HW135168   4.200   1.268   6.714
 7942SOL    HW235169   4.304   1.364   6.795
 7943SOL     OW35170   4.492   1.144   6.609
 7943SOL    HW135171   4.414   1.161   6.669
 7943SOL    HW235172   4.526   1.231   6.573
 7944SOL     OW35173   4.574   0.798   7.409
 7944SOL    HW135174   4.570   0.874   7.474
 7944SOL    HW235175   4.596   0.834   7.318
 7945SOL     OW35176   4.409   1.012   6.251
 7945SOL    HW135177   4.478   0.996   6.321
 7945SOL    HW235178   4.336   1.069   6.289
 7946SOL     OW35179   4.410   1.161   7.389
 7946SOL    HW135180   4.470   1.240   7.403
 7946SOL    HW235181   4.324   1.192   7.348
 7947SOL     OW35182   4.059   1.435   6.647
 7947SOL    HW135183   3.981   1.404   6.594
 7947SOL    HW235184   4.117   1.493   6.590
 7948SOL     OW35185   4.162   0.392   7.085
 7948SOL    HW135186   4.244   0.336   7.094
 7948SOL    HW235187   4.081   0.334   7.089
 7949SOL     OW35188   3.955   1.713   6.069
 7949SOL    HW135189   3.989   1.790   6.123
 7949SOL    HW235190   3.999   1.713   5.979
 7950SOL     OW35191   3.954   1.434   6.124
 7950SOL    HW135192   3.928   1.530   6.124
 7950SOL    HW235193   3.883   1.380   6.169
 7951SOL     OW35194   3.964   1.091   6.472
 7951SOL    HW135195   3.978   1.007   6.524
 7951SOL    HW235196   3.909   1.155   6.527
 7952SOL     OW35197   4.344   1.786   7.025
 7952SOL    HW135198   4.252   1.769   7.060
 7952SOL    HW235199   4.372   1.878   7.051
 7953SOL     OW35200   4.330   0.964   5.709
 7953SOL    HW135201   4.337   1.048   5.655
 7953SOL    HW235202   4.376   0.977   5.797
 7954SOL     OW35203   3.846   0.643   6.149
 7954SOL    HW135204   3.801   0.555   6.166
 7954SOL    HW235205   3.845   0.697   6.233
 7955SOL     OW35206   3.751   1.596   5.703
 7955SOL    HW135207   3.732   1.500   5.724
 7955SOL    HW235208   3.718   1.654   5.778
 7956SOL     OW35209   3.837   0.737   7.183
 7956SOL    HW135210   3.925   0.724   7.228
 7956SOL    HW235211   3.824   0.834   7.161
 7957SOL     OW35212   4.337   1.365   6.312
 7957SOL    HW135213   4.288   1.278   6.321
 7957SOL    HW235214   4.314   1.408   6.225
 7958SOL     OW35215   4.533   0.004   6.088
 7958SOL    HW135216   4.573   0.095   6.079
 7958SOL    HW235217   4.433   0.012   6.094
 7959SOL     OW35218   3.921   0.976   6.850
 7959SOL    HW135219   4.010   0.931   6.836
 7959SOL    HW235220   3.848   0.911   6.831
 7960SOL     OW35221   4.041   0.251   7.387
 7960SOL    HW135222   4.112   0.322   7.393
 7960SOL    HW235223   3.953   0.290   7.415
 7961SOL     OW35224   4.322   0.729   5.856
 7961SOL    HW135225   4.346   0.798   5.788
 7961SOL    HW235226   4.244   0.762   5.910
 7962SOL     OW35227   4.531   0.605   7.051
 7962SOL    HW135228   4.484   0.602   7.140
 7962SOL    HW235229   4.480   0.550   6.985
 7963SOL     OW35230   4.697   0.890   7.158
 7963SOL    HW135231   4.743   0.806   7.129
 7963SOL    HW235232   4.641   0.924   7.083
 7964SOL     OW35233   4.715   0.410   6.828
 7964SOL    HW135234   4.638   0.444   6.882
 7964SOL    HW235235   4.681   0.359   6.749
 7965SOL     OW35236   3.800   0.811   6.375
 7965SOL    HW135237   3.899   0.799   6.384
 7965SOL    HW235238   3.776   0.906   6.396
 7966SOL     OW35239   3.854   1.821   7.157
 7966SOL    HW135240   3.844   1.806   7.256
 7966SOL    HW235241   3.768   1.857   7.121
 7967SOL     OW35242   4.589   0.348   5.781
 7967SOL    HW135243   4.648   0.411   5.732
 7967SOL    HW235244   4.608   0.254   5.752
 7968SOL     OW35245   4.274   0.196   6.471
 7968SOL    HW135246   4.269   0.191   6.571
 7968SOL    HW235247   4.276   0.292   6.442
 7969SOL     OW35248   4.732   1.456   6.063
 7969SOL    HW135249   4.686   1.528   6.011
 7969SOL    HW235250   4.728   1.476   6.161
 7970SOL     OW35251   4.075   1.801   6.439
 7970SOL    HW135252   4.125   1.715   6.445
 7970SOL    HW235253   4.140   1.878   6.436
 7971SOL     OW35254   4.045   0.943   5.828
 7971SOL    HW135255   4.127   0.982   5.786
 7971SOL    HW235256   4.018   0.861   5.779
 7972SOL     OW35257   4.185   1.266   7.313
 7972SOL    HW135258   4.135   1.267   7.227
 7972SOL    HW235259   4.122   1.248   7.389
 7973SOL     OW35260   3.926   0.285   7.084
 7973SOL    HW135261   3.846   0.345   7.071
 7973SOL    HW235262   3.916   0.236   7.170
 7974SOL     OW35263   4.188   1.743   5.909
 7974SOL    HW135264   4.221   1.782   5.995
 7974SOL    HW235265   4.264   1.736   5.844
 7975SOL     OW35266   3.973   1.785   6.827
 7975SOL    HW135267   4.030   1.720   6.877
 7975SOL    HW235268   3.957   1.752   6.734
 7976SOL     OW35269   4.106   0.700   6.066
 7976SOL    HW135270   4.151   0.610   6.063
 7976SOL    HW235271   4.012   0.689   6.099
 7977SOL     OW35272   4.338   0.122   5.703
 7977SOL    HW135273   4.436   0.100   5.710
 7977SOL    HW235274   4.307   0.105   5.610
 7978SOL     OW35275   4.505   0.264   7.335
 7978SOL    HW135276   4.572   0.203   7.378
 7978SOL    HW235277   4.432   0.283   7.400
 7979SOL     OW35278   4.612   1.514   6.781
 7979SOL    HW135279   4.589   1.489   6.687
 7979SOL    HW235280   4.673   1.445   6.820
 7980SOL     OW35281   4.527   1.402   6.510
 7980SOL    HW135282   4.617   1.416   6.468
 7980SOL    HW235283   4.456   1.404   6.439
 7981SOL     OW35284   4.646   0.503   6.485
 7981SOL    HW135285   4.621   0.494   6.389
 7981SOL    HW235286   4.694   0.421   6.516
 7982SOL     OW35287   4.263   0.064   6.098
 7982SOL    HW135288   4.182   0.065   6.156
 7982SOL    HW235289   4.266   0.147   6.043
 7983SOL     OW35290   4.021   0.035   5.757
 7983SOL    HW135291   4.070   0.119   5.736
 7983SOL    HW235292   4.083  -0.030   5.802
 7984SOL     OW35293   4.659   0.236   6.066
 7984SOL    HW135294   4.611   0.277   5.988
 7984SOL    HW235295   4.758   0.234   6.047
 7985SOL     OW35296   4.951   1.570   6.379
 7985SOL    HW135297   4.972   1.644   6.314
 7985SOL    HW235298   5.019   1.570   6.452
 7986SOL     OW35299   4.183   1.152   6.327
 7986SOL    HW135300   4.112   1.125   6.392
 7986SOL    HW235301   4.157   1.124   6.234
 7987SOL     OW35302   4.756   0.549   5.602
 7987SOL    HW135303   4.715   0.631   5.563
 7987SOL    HW235304   4.820   0.575   5.675
 7988SOL     OW35305   3.802   0.556   6.972
 7988SOL    HW135306   3.894   0.555   6.931
 7988SOL    HW235307   3.796   0.630   7.039
 7989SOL     OW35308   4.285   0.222   6.733
 7989SOL    HW135309   4.323   0.138   6.770
 7989SOL    HW235310   4.197   0.241   6.777
 7990SOL     OW35311   4.590   0.454   6.228
 7990SOL    HW135312   4.558   0.526   6.166
 7990SOL    HW235313   4.614   0.373   6.175
 7991SOL     OW35314   4.741   0.039   6.339
 7991SOL    HW135315   4.669   0.044   6.270
 7991SOL    HW235316   4.717  -0.030   6.408
 7992SOL     OW35317   4.212   1.385   5.760
 7992SOL    HW135318   4.125   1.370   5.807
 7992SOL    HW235319   4.195   1.411   5.665
 7993SOL     OW35320   4.251   0.256   5.914
 7993SOL    HW135321   4.278   0.197   5.839
 7993SOL    HW235322   4.251   0.351   5.883
 7994SOL     OW35323   4.639   0.089   6.988
 7994SOL    HW135324   4.664   0.069   6.893
 7994SOL    HW235325   4.711   0.145   7.030
 7995SOL     OW35326   4.704   1.116   7.305
 7995SOL    HW135327   4.605   1.122   7.315
 7995SOL    HW235328   4.727   1.036   7.249
 7996SOL     OW35329   4.429   1.050   5.954
 7996SOL    HW135330   4.415   1.057   6.053
 7996SOL    HW235331   4.513   0.999   5.936
 7997SOL     OW35332   4.134   0.813   6.837
 7997SOL    HW135333   4.220   0.825   6.887
 7997SOL    HW235334   4.092   0.726   6.864
 7998SOL     OW35335   3.788   1.564   6.917
 7998SOL    HW135336   3.742   1.646   6.883
 7998SOL    HW235337   3.886   1.583   6.926
 7999SOL     OW35338   4.091   1.100   6.087
 7999SOL    HW135339   4.084   1.183   6.031
 7999SOL    HW235340   4.095   1.020   6.027
 8000SOL     OW35341   4.290   0.537   6.451
 8000SOL    HW135342   4.302   0.603   6.377
 8000SOL    HW235343   4.336   0.571   6.534
 8001SOL     OW35344   4.078   1.510   6.915
 8001SOL    HW135345   4.057   1.466   6.828
 8001SOL    HW235346   4.175   1.536   6.918
 8002SOL     OW35347   4.126   0.751   7.184
 8002SOL    HW135348   4.194   0.806   7.137
 8002SOL    HW235349   4.166   0.663   7.211
 8003SOL     OW35350   4.737   0.105   7.356
 8003SOL    HW135351   4.743   0.190   7.304
 8003SOL    HW235352   4.769   0.029   7.299
 8004SOL     OW35353   4.228   0.050   7.326
 8004SOL    HW135354   4.186  -0.007   7.256
 8004SOL    HW235355   4.162   0.119   7.358
 8005SOL     OW35356   4.297   0.870   6.615
 8005SOL    HW135357   4.341   0.959   6.606
 8005SOL    HW235358   4.234   0.870   6.692
 8006SOL     OW35359   4.933   0.525   5.861
 8006SOL    HW135360   4.946   0.441   5.915
 8006SOL    HW235361   4.904   0.599   5.921
 8007SOL     OW35362   4.031   0.213   6.817
 8007SOL    HW135363   4.008   0.250   6.907
 8007SOL    HW235364   4.001   0.118   6.811
 8008SOL     OW35365   3.761   1.310   6.868
 8008SOL    HW135366   3.814   1.261   6.936
 8008SOL    HW235367   3.783   1.408   6.873
 8009SOL     OW35368   4.456   0.634   6.650
 8009SOL    HW135369   4.515   0.608   6.574
 8009SOL    HW235370   4.428   0.730   6.639
 8010SOL     OW35371   4.031   0.063   6.204
 8010SOL    HW135372   4.020   0.157   6.237
 8010SOL    HW235373   4.026   0.000   6.281
 8011SOL     OW35374   4.747   0.766   6.552
 8011SOL    HW135375   4.762   0.787   6.648
 8011SOL    HW235376   4.717   0.671   6.543
 8012SOL     OW35377   4.704   1.573   7.286
 8012SOL    HW135378   4.684   1.617   7.198
 8012SOL    HW235379   4.743   1.482   7.270
 8013SOL     OW35380   4.074   0.898   7.390
 8013SOL    HW135381   4.150   0.942   7.438
 8013SOL    HW235382   4.109   0.851   7.308
 8014SOL     OW35383   4.043   0.810   6.535
 8014SOL    HW135384   4.136   0.846   6.540
 8014SOL    HW235385   4.037   0.725   6.587
 8015SOL     OW35386   4.063   0.509   6.592
 8015SOL    HW135387   4.011   0.426   6.575
 8015SOL    HW235388   4.140   0.514   6.528
 8016SOL     OW35389   3.732   1.326   5.786
 8016SOL    HW135390   3.639   1.347   5.755
 8016SOL    HW235391   3.742   1.227   5.799
 8017SOL     OW35392   3.812   1.801   6.513
 8017SOL    HW135393   3.770   1.715   6.486
 8017SOL    HW235394   3.906   1.804   6.479
 8018SOL     OW35395   4.228   1.568   6.496
 8018SOL    HW135396   4.294   1.642   6.505
 8018SOL    HW235397   4.272   1.489   6.454
 8019SOL     OW35398   4.726   0.796   6.824
 8019SOL    HW135399   4.767   0.764   6.910
 8019SOL    HW235400   4.630   0.769   6.821
 8020SOL     OW35401   3.764   0.544   6.700
 8020SOL    HW135402   3.849   0.511   6.659
 8020SOL    HW235403   3.777   0.559   6.798
 8021SOL     OW35404   3.913   0.520   7.308
 8021SOL    HW135405   3.972   0.480   7.238
 8021SOL    HW235406   3.855   0.591   7.267
 8022SOL     OW35407   4.539   0.572   5.911
 8022SOL    HW135408   4.546   0.483   5.865
 8022SOL    HW235409   4.445   0.606   5.903
 8023SOL     OW35410   3.976   1.564   7.330
 8023SOL    HW135411   3.946   1.621   7.406
 8023SOL    HW235412   3.969   1.467   7.356
 8024SOL     OW35413   4.395   0.464   6.855
 8024SOL    HW135414   4.361   0.375   6.825
 8024SOL    HW235415   4.421   0.518   6.775
 8025SOL     OW35416   4.654   1.678   7.051
 8025SOL    HW135417   4.630   1.660   6.956
 8025SOL    HW235418   4.684   1.772   7.061
 8026SOL     OW35419   4.197   0.500   5.777
 8026SOL    HW135420   4.258   0.580   5.781
 8026SOL    HW235421   4.102   0.531   5.784
 8027SOL     OW35422   3.883   1.137   7.052
 8027SOL    HW135423   3.905   1.076   7.128
 8027SOL    HW235424   3.893   1.088   6.966
 8028SOL     OW35425   3.807   1.258   6.608
 8028SOL    HW135426   3.802   1.257   6.708
 8028SOL    HW235427   3.724   1.217   6.570
 8029SOL     OW35428   4.412   1.662   7.302
 8029SOL    HW135429   4.356   1.743   7.311
 8029SOL    HW235430   4.464   1.666   7.216
 8030SOL     OW35431   3.854   1.794   7.437
 8030SOL    HW135432   3.813   1.720   7.490
 8030SOL    HW235433   3.918   1.845   7.495
 8031SOL     OW35434   5.004   0.927   6.258
 8031SOL    HW135435   5.064   0.846   6.260
 8031SOL    HW235436   5.044   0.996   6.198
 8032SOL     OW35437   4.554   1.273   7.008
 8032SOL    HW135438   4.549   1.306   7.103
 8032SOL    HW235439   4.468   1.292   6.962
 8033SOL     OW35440   4.396   1.616   5.740
 8033SOL    HW135441   4.405   1.626   5.641
 8033SOL    HW235442   4.356   1.527   5.761
 8034SOL     OW35443   3.987   0.326   6.306
 8034SOL    HW135444   3.908   0.377   6.272
 8034SOL    HW235445   3.978   0.311   6.404
 8035SOL     OW35446   4.546   1.002   6.958
 8035SOL    HW135447   4.586   1.001   6.866
 8035SOL    HW235448   4.556   1.094   6.998
 8036SOL     OW35449   4.640   0.910   5.877
 8036SOL    HW135450   4.703   0.948   5.809
 8036SOL    HW235451   4.680   0.827   5.916
 8037SOL     OW35452   4.096   1.288   7.076
 8037SOL    HW135453   4.083   1.381   7.042
 8037SOL    HW235454   4.012   1.236   7.063
 8038SOL     OW35455   4.763   1.098   6.282
 8038SOL    HW135456   4.693   1.051   6.336
 8038SOL    HW235457   4.822   1.030   6.239
 8039SOL     OW35458   4.738   0.236   6.557
 8039SOL    HW135459   4.730   0.200   6.464
 8039SOL    HW235460   4.736   0.160   6.622
 8040SOL     OW35461   4.314   1.487   6.077
 8040SOL    HW135462   4.356   1.429   6.007
 8040SOL    HW235463   4.270   1.566   6.033
 8041SOL     OW35464   3.979   1.348   5.876
 8041SOL    HW135465   3.883   1.349   5.849
 8041SOL    HW235466   3.991   1.401   5.960
 8042SOL     OW35467   3.829   1.013   7.312
 8042SOL    HW135468   3.752   0.980   7.366
 8042SOL    HW235469   3.914   0.983   7.354
 8043SOL     OW35470   4.396   0.203   7.075
 8043SOL    HW135471   4.486   0.187   7.035
 8043SOL    HW235472   4.404   0.208   7.174
 8044SOL     OW35473   3.799   0.345   5.619
 8044SOL    HW135474   3.707   0.317   5.590
 8044SOL    HW235475   3.830   0.422   5.563
 8045SOL     OW35476   3.796   0.166   5.904
 8045SOL    HW135477   3.779   0.249   5.850
 8045SOL    HW235478   3.886   0.129   5.882
 8046SOL     OW35479   4.337   0.842   7.017
 8046SOL    HW135480   4.393   0.923   7.000
 8046SOL    HW235481   4.396   0.762   7.020
 8047SOL     OW35482   4.440   0.565   7.294
 8047SOL    HW135483   4.459   0.630   7.368
 8047SOL    HW235484   4.500   0.485   7.303
 8048SOL     OW35485   4.114   1.741   7.146
 8048SOL    HW135486   4.023   1.782   7.144
 8048SOL    HW235487   4.107   1.647   7.178
 8049SOL     OW35488   4.949   0.325   6.035
 8049SOL    HW135489   5.014   0.251   6.024
 8049SOL    HW235490   4.969   0.375   6.119
 8050SOL     OW35491   4.318   0.745   6.238
 8050SOL    HW135492   4.368   0.830   6.219
 8050SOL    HW235493   4.230   0.747   6.190
 8051SOL     OW35494   4.583   1.374   5.602
 8051SOL    HW135495   4.537   1.389   5.690
 8051SOL    HW235496   4.627   1.459   5.572
 8052SOL     OW35497   4.385   1.790   6.539
 8052SOL    HW135498   4.339   1.878   6.526
 8052SOL    HW235499   4.484   1.802   6.532
 8053SOL     OW35500   4.583   0.956   6.447
 8053SOL    HW135501   4.637   0.887   6.495
 8053SOL    HW235502   4.551   1.025   6.513
 8054SOL     OW35503   3.945   1.314   7.430
 8054SOL    HW135504   3.880   1.241   7.409
 8054SOL    HW235505   3.949   1.328   7.528
 8055SOL     OW35506   3.803   1.240   6.239
 8055SOL    HW135507   3.802   1.193   6.327
 8055SOL    HW235508   3.885   1.212   6.188
 8056SOL     OW35509   4.396   1.391   7.210
 8056SOL    HW135510   4.318   1.341   7.248
 8056SOL    HW235511   4.393   1.486   7.241
 8057SOL     OW35512   4.152   0.424   6.106
 8057SOL    HW135513   4.182   0.352   6.044
 8057SOL    HW235514   4.113   0.384   6.189
 8058SOL     OW35515   4.041   0.547   6.866
 8058SOL    HW135516   4.079   0.488   6.938
 8058SOL    HW235517   4.081   0.521   6.778
 8059SOL     OW35518   4.536   1.586   6.273
 8059SOL    HW135519   4.568   1.596   6.179
 8059SOL    HW235520   4.457   1.524   6.275
 8060SOL     OW35521   4.725   0.034   6.740
 8060SOL    HW135522   4.662  -0.038   6.709
 8060SOL    HW235523   4.818  -0.002   6.740
 8061SOL     OW35524   4.494   1.330   5.887
 8061SOL    HW135525   4.448   1.243   5.904
 8061SOL    HW235526   4.585   1.327   5.928
 8062SOL     OW35527   4.342   1.567   6.870
 8062SOL    HW135528   4.337   1.649   6.927
 8062SOL    HW235529   4.431   1.564   6.825
 8063SOL     OW35530   3.763   1.077   5.886
 8063SOL    HW135531   3.862   1.066   5.877
 8063SOL    HW235532   3.723   0.991   5.918
 8064SOL     OW35533   4.599   1.646   5.923
 8064SOL    HW135534   4.522   1.611   5.869
 8064SOL    HW235535   4.567   1.717   5.985
 8065SOL     OW35536   3.954   0.628   7.561
 8065SOL    HW135537   3.861   0.626   7.598
 8065SOL    HW235538   3.955   0.589   7.469
 8066SOL     OW35539   3.949   0.275   8.444
 8066SOL    HW135540   3.984   0.258   8.536
 8066SOL    HW235541   3.861   0.230   8.432
 8067SOL     OW35542   3.743   0.368   8.095
 8067SOL    HW135543   3.661   0.411   8.134
 8067SOL    HW235544   3.715   0.295   8.032
 8068SOL     OW35545   4.293   1.275   8.613
 8068SOL    HW135546   4.200   1.268   8.576
 8068SOL    HW235547   4.304   1.364   8.657
 8069SOL     OW35548   4.492   1.144   8.471
 8069SOL    HW135549   4.414   1.161   8.531
 8069SOL    HW235550   4.526   1.231   8.435
 8070SOL     OW35551   4.574   0.798   9.271
 8070SOL    HW135552   4.570   0.874   9.336
 8070SOL    HW235553   4.596   0.834   9.180
 8071SOL     OW35554   4.409   1.012   8.113
 8071SOL    HW135555   4.478   0.996   8.183
 8071SOL    HW235556   4.336   1.069   8.151
 8072SOL     OW35557   4.410   1.161   9.251
 8072SOL    HW135558   4.470   1.240   9.265
 8072SOL    HW235559   4.324   1.192   9.210
 8073SOL     OW35560   4.059   1.435   8.509
 8073SOL    HW135561   3.981   1.404   8.456
 8073SOL    HW235562   4.117   1.493   8.452
 8074SOL     OW35563   4.162   0.392   8.947
 8074SOL    HW135564   4.244   0.336   8.956
 8074SOL    HW235565   4.081   0.334   8.951
 8075SOL     OW35566   3.955   1.713   7.931
 8075SOL    HW135567   3.989   1.790   7.985
 8075SOL    HW235568   3.999   1.713   7.841
 8076SOL     OW35569   3.954   1.434   7.986
 8076SOL    HW135570   3.928   1.530   7.986
 8076SOL    HW235571   3.883   1.380   8.031
 8077SOL     OW35572   3.964   1.091   8.334
 8077SOL    HW135573   3.978   1.007   8.386
 8077SOL    HW235574   3.909   1.155   8.389
 8078SOL     OW35575   4.344   1.786   8.887
 8078SOL    HW135576   4.252   1.769   8.922
 8078SOL    HW235577   4.372   1.878   8.913
 8079SOL     OW35578   4.330   0.964   7.571
 8079SOL    HW135579   4.337   1.048   7.517
 8079SOL    HW235580   4.376   0.977   7.659
 8080SOL     OW35581   3.846   0.643   8.011
 8080SOL    HW135582   3.801   0.555   8.028
 8080SOL    HW235583   3.845   0.697   8.095
 8081SOL     OW35584   3.751   1.596   7.565
 8081SOL    HW135585   3.732   1.500   7.586
 8081SOL    HW235586   3.718   1.654   7.640
 8082SOL     OW35587   3.837   0.737   9.045
 8082SOL    HW135588   3.925   0.724   9.090
 8082SOL    HW235589   3.824   0.834   9.023
 8083SOL     OW35590   4.337   1.365   8.174
 8083SOL    HW135591   4.288   1.278   8.183
 8083SOL    HW235592   4.314   1.408   8.087
 8084SOL     OW35593   4.533   0.004   7.950
 8084SOL    HW135594   4.573   0.095   7.941
 8084SOL    HW235595   4.433   0.012   7.956
 8085SOL     OW35596   3.921   0.976   8.712
 8085SOL    HW135597   4.010   0.931   8.698
 8085SOL    HW235598   3.848   0.911   8.693
 8086SOL     OW35599   4.041   0.251   9.249
 8086SOL    HW135600   4.112   0.322   9.255
 8086SOL    HW235601   3.953   0.290   9.277
 8087SOL     OW35602   4.322   0.729   7.718
 8087SOL    HW135603   4.346   0.798   7.650
 8087SOL    HW235604   4.244   0.762   7.772
 8088SOL     OW35605   4.531   0.605   8.913
 8088SOL    HW135606   4.484   0.602   9.002
 8088SOL    HW235607   4.480   0.550   8.847
 8089SOL     OW35608   4.697   0.890   9.020
 8089SOL    HW135609   4.743   0.806   8.991
 8089SOL    HW235610   4.641   0.924   8.945
 8090SOL     OW35611   4.715   0.410   8.690
 8090SOL    HW135612   4.638   0.444   8.744
 8090SOL    HW235613   4.681   0.359   8.611
 8091SOL     OW35614   3.800   0.811   8.237
 8091SOL    HW135615   3.899   0.799   8.246
 8091SOL    HW235616   3.776   0.906   8.258
 8092SOL     OW35617   3.854   1.821   9.019
 8092SOL    HW135618   3.844   1.806   9.118
 8092SOL    HW235619   3.768   1.857   8.983
 8093SOL     OW35620   4.589   0.348   7.643
 8093SOL    HW135621   4.648   0.411   7.594
 8093SOL    HW235622   4.608   0.254   7.614
 8094SOL     OW35623   4.274   0.196   8.333
 8094SOL    HW135624   4.269   0.191   8.433
 8094SOL    HW235625   4.276   0.292   8.304
 8095SOL     OW35626   4.732   1.456   7.925
 8095SOL    HW135627   4.686   1.528   7.873
 8095SOL    HW235628   4.728   1.476   8.023
 8096SOL     OW35629   4.075   1.801   8.301
 8096SOL    HW135630   4.125   1.715   8.307
 8096SOL    HW235631   4.140   1.878   8.298
 8097SOL     OW35632   4.045   0.943   7.690
 8097SOL    HW135633   4.127   0.982   7.648
 8097SOL    HW235634   4.018   0.861   7.641
 8098SOL     OW35635   4.185   1.266   9.175
 8098SOL    HW135636   4.135   1.267   9.089
 8098SOL    HW235637   4.122   1.248   9.251
 8099SOL     OW35638   3.926   0.285   8.946
 8099SOL    HW135639   3.846   0.345   8.933
 8099SOL    HW235640   3.916   0.236   9.032
 8100SOL     OW35641   4.188   1.743   7.771
 8100SOL    HW135642   4.221   1.782   7.857
 8100SOL    HW235643   4.264   1.736   7.706
 8101SOL     OW35644   3.973   1.785   8.689
 8101SOL    HW135645   4.030   1.720   8.739
 8101SOL    HW235646   3.957   1.752   8.596
 8102SOL     OW35647   4.106   0.700   7.928
 8102SOL    HW135648   4.151   0.610   7.925
 8102SOL    HW235649   4.012   0.689   7.961
 8103SOL     OW35650   4.338   0.122   7.565
 8103SOL    HW135651   4.436   0.100   7.572
 8103SOL    HW235652   4.307   0.105   7.472
 8104SOL     OW35653   4.612   1.514   8.643
 8104SOL    HW135654   4.589   1.489   8.549
 8104SOL    HW235655   4.673   1.445   8.682
 8105SOL     OW35656   4.527   1.402   8.372
 8105SOL    HW135657   4.617   1.416   8.330
 8105SOL    HW235658   4.456   1.404   8.301
 8106SOL     OW35659   4.646   0.503   8.347
 8106SOL    HW135660   4.621   0.494   8.251
 8106SOL    HW235661   4.694   0.421   8.378
 8107SOL     OW35662   4.263   0.064   7.960
 8107SOL    HW135663   4.182   0.065   8.018
 8107SOL    HW235664   4.266   0.147   7.905
 8108SOL     OW35665   4.021   0.035   7.619
 8108SOL    HW135666   4.070   0.119   7.598
 8108SOL    HW235667   4.083  -0.030   7.664
 8109SOL     OW35668   4.659   0.236   7.928
 8109SOL    HW135669   4.611   0.277   7.850
 8109SOL    HW235670   4.758   0.234   7.909
 8110SOL     OW35671   4.951   1.570   8.241
 8110SOL    HW135672   4.972   1.644   8.176
 8110SOL    HW235673   5.019   1.570   8.314
 8111SOL     OW35674   4.183   1.152   8.189
 8111SOL    HW135675   4.112   1.125   8.254
 8111SOL    HW235676   4.157   1.124   8.096
 8112SOL     OW35677   4.756   0.549   7.464
 8112SOL    HW135678   4.715   0.631   7.425
 8112SOL    HW235679   4.820   0.575   7.537
 8113SOL     OW35680   3.802   0.556   8.834
 8113SOL    HW135681   3.894   0.555   8.793
 8113SOL    HW235682   3.796   0.630   8.901
 8114SOL     OW35683   4.285   0.222   8.595
 8114SOL    HW135684   4.323   0.138   8.632
 8114SOL    HW235685   4.197   0.241   8.639
 8115SOL     OW35686   4.590   0.454   8.090
 8115SOL    HW135687   4.558   0.526   8.028
 8115SOL    HW235688   4.614   0.373   8.037
 8116SOL     OW35689   4.741   0.039   8.201
 8116SOL    HW135690   4.669   0.044   8.132
 8116SOL    HW235691   4.717  -0.030   8.270
 8117SOL     OW35692   4.212   1.385   7.622
 8117SOL    HW135693   4.125   1.370   7.669
 8117SOL    HW235694   4.195   1.411   7.527
 8118SOL     OW35695   4.251   0.256   7.776
 8118SOL    HW135696   4.278   0.197   7.701
 8118SOL    HW235697   4.251   0.351   7.745
 8119SOL     OW35698   4.704   1.116   9.167
 8119SOL    HW135699   4.605   1.122   9.177
 8119SOL    HW235700   4.727   1.036   9.111
 8120SOL     OW35701   4.429   1.050   7.816
 8120SOL    HW135702   4.415   1.057   7.915
 8120SOL    HW235703   4.513   0.999   7.798
 8121SOL     OW35704   4.134   0.813   8.699
 8121SOL    HW135705   4.220   0.825   8.749
 8121SOL    HW235706   4.092   0.726   8.726
 8122SOL     OW35707   3.788   1.564   8.779
 8122SOL    HW135708   3.742   1.646   8.745
 8122SOL    HW235709   3.886   1.583   8.788
 8123SOL     OW35710   4.091   1.100   7.949
 8123SOL    HW135711   4.084   1.183   7.893
 8123SOL    HW235712   4.095   1.020   7.889
 8124SOL     OW35713   4.290   0.537   8.313
 8124SOL    HW135714   4.302   0.603   8.239
 8124SOL    HW235715   4.336   0.571   8.396
 8125SOL     OW35716   4.078   1.510   8.777
 8125SOL    HW135717   4.057   1.466   8.690
 8125SOL    HW235718   4.175   1.536   8.780
 8126SOL     OW35719   4.126   0.751   9.046
 8126SOL    HW135720   4.194   0.806   8.999
 8126SOL    HW235721   4.166   0.663   9.073
 8127SOL     OW35722   4.228   0.050   9.188
 8127SOL    HW135723   4.186  -0.007   9.118
 8127SOL    HW235724   4.162   0.119   9.220
 8128SOL     OW35725   4.297   0.870   8.477
 8128SOL    HW135726   4.341   0.959   8.468
 8128SOL    HW235727   4.234   0.870   8.554
 8129SOL     OW35728   4.933   0.525   7.723
 8129SOL    HW135729   4.946   0.441   7.777
 8129SOL    HW235730   4.904   0.599   7.783
 8130SOL     OW35731   4.031   0.213   8.679
 8130SOL    HW135732   4.008   0.250   8.769
 8130SOL    HW235733   4.001   0.118   8.673
 8131SOL     OW35734   3.761   1.310   8.730
 8131SOL    HW135735   3.814   1.261   8.798
 8131SOL    HW235736   3.783   1.408   8.735
 8132SOL     OW35737   4.456   0.634   8.512
 8132SOL    HW135738   4.515   0.608   8.436
 8132SOL    HW235739   4.428   0.730   8.501
 8133SOL     OW35740   4.031   0.063   8.066
 8133SOL    HW135741   4.020   0.157   8.099
 8133SOL    HW235742   4.026   0.000   8.143
 8134SOL     OW35743   4.747   0.766   8.414
 8134SOL    HW135744   4.762   0.787   8.510
 8134SOL    HW235745   4.717   0.671   8.405
 8135SOL     OW35746   4.704   1.573   9.148
 8135SOL    HW135747   4.684   1.617   9.060
 8135SOL    HW235748   4.743   1.482   9.132
 8136SOL     OW35749   4.074   0.898   9.252
 8136SOL    HW135750   4.150   0.942   9.300
 8136SOL    HW235751   4.109   0.851   9.170
 8137SOL     OW35752   4.043   0.810   8.397
 8137SOL    HW135753   4.136   0.846   8.402
 8137SOL    HW235754   4.037   0.725   8.449
 8138SOL     OW35755   4.063   0.509   8.454
 8138SOL    HW135756   4.011   0.426   8.437
 8138SOL    HW235757   4.140   0.514   8.390
 8139SOL     OW35758   3.732   1.326   7.648
 8139SOL    HW135759   3.639   1.347   7.617
 8139SOL    HW235760   3.742   1.227   7.661
 8140SOL     OW35761   3.812   1.801   8.375
 8140SOL    HW135762   3.770   1.715   8.348
 8140SOL    HW235763   3.906   1.804   8.341
 8141SOL     OW35764   4.228   1.568   8.358
 8141SOL    HW135765   4.294   1.642   8.367
 8141SOL    HW235766   4.272   1.489   8.316
 8142SOL     OW35767   4.726   0.796   8.686
 8142SOL    HW135768   4.767   0.764   8.772
 8142SOL    HW235769   4.630   0.769   8.683
 8143SOL     OW35770   3.764   0.544   8.562
 8143SOL    HW135771   3.849   0.511   8.521
 8143SOL    HW235772   3.777   0.559   8.660
 8144SOL     OW35773   3.913   0.520   9.170
 8144SOL    HW135774   3.972   0.480   9.100
 8144SOL    HW235775   3.855   0.591   9.129
 8145SOL     OW35776   4.539   0.572   7.773
 8145SOL    HW135777   4.546   0.483   7.727
 8145SOL    HW235778   4.445   0.606   7.765
 8146SOL     OW35779   3.976   1.564   9.192
 8146SOL    HW135780   3.946   1.621   9.268
 8146SOL    HW235781   3.969   1.467   9.218
 8147SOL     OW35782   4.395   0.464   8.717
 8147SOL    HW135783   4.361   0.375   8.687
 8147SOL    HW235784   4.421   0.518   8.637
 8148SOL     OW35785   4.654   1.678   8.913
 8148SOL    HW135786   4.630   1.660   8.818
 8148SOL    HW235787   4.684   1.772   8.923
 8149SOL     OW35788   4.197   0.500   7.639
 8149SOL    HW135789   4.258   0.580   7.643
 8149SOL    HW235790   4.102   0.531   7.646
 8150SOL     OW35791   3.883   1.137   8.914
 8150SOL    HW135792   3.905   1.076   8.990
 8150SOL    HW235793   3.893   1.088   8.828
 8151SOL     OW35794   3.807   1.258   8.470
 8151SOL    HW135795   3.802   1.257   8.570
 8151SOL    HW235796   3.724   1.217   8.432
 8152SOL     OW35797   4.412   1.662   9.164
 8152SOL    HW135798   4.356   1.743   9.173
 8152SOL    HW235799   4.464   1.666   9.078
 8153SOL     OW35800   3.854   1.794   9.299
 8153SOL    HW135801   3.813   1.720   9.352
 8153SOL    HW235802   3.918   1.845   9.357
 8154SOL     OW35803   5.004   0.927   8.120
 8154SOL    HW135804   5.064   0.846   8.122
 8154SOL    HW235805   5.044   0.996   8.060
 8155SOL     OW35806   4.554   1.273   8.870
 8155SOL    HW135807   4.549   1.306   8.965
 8155SOL    HW235808   4.468   1.292   8.824
 8156SOL     OW35809   4.396   1.616   7.602
 8156SOL    HW135810   4.405   1.626   7.503
 8156SOL    HW235811   4.356   1.527   7.623
 8157SOL     OW35812   3.987   0.326   8.168
 8157SOL    HW135813   3.908   0.377   8.134
 8157SOL    HW235814   3.978   0.311   8.266
 8158SOL     OW35815   4.546   1.002   8.820
 8158SOL    HW135816   4.586   1.001   8.728
 8158SOL    HW235817   4.556   1.094   8.860
 8159SOL     OW35818   4.640   0.910   7.739
 8159SOL    HW135819   4.703   0.948   7.671
 8159SOL    HW235820   4.680   0.827   7.778
 8160SOL     OW35821   4.096   1.288   8.938
 8160SOL    HW135822   4.083   1.381   8.904
 8160SOL    HW235823   4.012   1.236   8.925
 8161SOL     OW35824   4.763   1.098   8.144
 8161SOL    HW135825   4.693   1.051   8.198
 8161SOL    HW235826   4.822   1.030   8.101
 8162SOL     OW35827   4.738   0.236   8.419
 8162SOL    HW135828   4.730   0.200   8.326
 8162SOL    HW235829   4.736   0.160   8.484
 8163SOL     OW35830   4.314   1.487   7.939
 8163SOL    HW135831   4.356   1.429   7.869
 8163SOL    HW235832   4.270   1.566   7.895
 8164SOL     OW35833   3.979   1.348   7.738
 8164SOL    HW135834   3.883   1.349   7.711
 8164SOL    HW235835   3.991   1.401   7.822
 8165SOL     OW35836   3.829   1.013   9.174
 8165SOL    HW135837   3.752   0.980   9.228
 8165SOL    HW235838   3.914   0.983   9.216
 8166SOL     OW35839   4.396   0.203   8.937
 8166SOL    HW135840   4.486   0.187   8.897
 8166SOL    HW235841   4.404   0.208   9.036
 8167SOL     OW35842   3.799   0.345   7.481
 8167SOL    HW135843   3.707   0.317   7.452
 8167SOL    HW235844   3.830   0.422   7.425
 8168SOL     OW35845   3.796   0.166   7.766
 8168SOL    HW135846   3.779   0.249   7.712
 8168SOL    HW235847   3.886   0.129   7.744
 8169SOL     OW35848   4.337   0.842   8.879
 8169SOL    HW135849   4.393   0.923   8.862
 8169SOL    HW235850   4.396   0.762   8.882
 8170SOL     OW35851   4.440   0.565   9.156
 8170SOL    HW135852   4.459   0.630   9.230
 8170SOL    HW235853   4.500   0.485   9.165
 8171SOL     OW35854   4.114   1.741   9.008
 8171SOL    HW135855   4.023   1.782   9.006
 8171SOL    HW235856   4.107   1.647   9.040
 8172SOL     OW35857   4.949   0.325   7.897
 8172SOL    HW135858   5.014   0.251   7.886
 8172SOL    HW235859   4.969   0.375   7.981
 8173SOL     OW35860   4.318   0.745   8.100
 8173SOL    HW135861   4.368   0.830   8.081
 8173SOL    HW235862   4.230   0.747   8.052
 8174SOL     OW35863   4.583   1.374   7.464
 8174SOL    HW135864   4.537   1.389   7.552
 8174SOL    HW235865   4.627   1.459   7.434
 8175SOL     OW35866   4.385   1.790   8.401
 8175SOL    HW135867   4.339   1.878   8.388
 8175SOL    HW235868   4.484   1.802   8.394
 8176SOL     OW35869   4.583   0.956   8.309
 8176SOL    HW135870   4.637   0.887   8.357
 8176SOL    HW235871   4.551   1.025   8.375
 8177SOL     OW35872   3.945   1.314   9.292
 8177SOL    HW135873   3.880   1.241   9.271
 8177SOL    HW235874   3.949   1.328   9.390
 8178SOL     OW35875   3.803   1.240   8.101
 8178SOL    HW135876   3.802   1.193   8.189
 8178SOL    HW235877   3.885   1.212   8.050
 8179SOL     OW35878   4.396   1.391   9.072
 8179SOL    HW135879   4.318   1.341   9.110
 8179SOL    HW235880   4.393   1.486   9.103
 8180SOL     OW35881   4.152   0.424   7.968
 8180SOL    HW135882   4.182   0.352   7.906
 8180SOL    HW235883   4.113   0.384   8.051
 8181SOL     OW35884   4.041   0.547   8.728
 8181SOL    HW135885   4.079   0.488   8.800
 8181SOL    HW235886   4.081   0.521   8.640
 8182SOL     OW35887   4.536   1.586   8.135
 8182SOL    HW135888   4.568   1.596   8.041
 8182SOL    HW235889   4.457   1.524   8.137
 8183SOL     OW35890   4.725   0.034   8.602
 8183SOL    HW135891   4.662  -0.038   8.571
 8183SOL    HW235892   4.818  -0.002   8.602
 8184SOL     OW35893   4.494   1.330   7.749
 8184SOL    HW135894   4.448   1.243   7.766
 8184SOL    HW235895   4.585   1.327   7.790
 8185SOL     OW35896   4.342   1.567   8.732
 8185SOL    HW135897   4.337   1.649   8.789
 8185SOL    HW235898   4.431   1.564   8.687
 8186SOL     OW35899   3.763   1.077   7.748
 8186SOL    HW135900   3.862   1.066   7.739
 8186SOL    HW235901   3.723   0.991   7.780
 8187SOL     OW35902   4.599   1.646   7.785
 8187SOL    HW135903   4.522   1.611   7.731
 8187SOL    HW235904   4.567   1.717   7.847
 8188SOL     OW35905   3.954   0.628   9.423
 8188SOL    HW135906   3.861   0.626   9.460
 8188SOL    HW235907   3.955   0.589   9.331
 8189SOL     OW35908   3.949   0.275  10.306
 8189SOL    HW135909   3.984   0.258  10.398
 8189SOL    HW235910   3.861   0.230  10.294
 8190SOL     OW35911   3.743   0.368   9.957
 8190SOL    HW135912   3.661   0.411   9.996
 8190SOL    HW235913   3.715   0.295   9.894
 8191SOL     OW35914   4.492   1.144  10.333
 8191SOL    HW135915   4.414   1.161  10.393
 8191SOL    HW235916   4.526   1.231  10.297
 8192SOL     OW35917   4.409   1.012   9.975
 8192SOL    HW135918   4.478   0.996  10.045
 8192SOL    HW235919   4.336   1.069  10.013
 8193SOL     OW35920   4.162   0.392  10.809
 8193SOL    HW135921   4.244   0.336  10.818
 8193SOL    HW235922   4.081   0.334  10.813
 8194SOL     OW35923   3.955   1.713   9.793
 8194SOL    HW135924   3.989   1.790   9.847
 8194SOL    HW235925   3.999   1.713   9.703
 8195SOL     OW35926   3.954   1.434   9.848
 8195SOL    HW135927   3.928   1.530   9.848
 8195SOL    HW235928   3.883   1.380   9.893
 8196SOL     OW35929   3.964   1.091  10.196
 8196SOL    HW135930   3.978   1.007  10.248
 8196SOL    HW235931   3.909   1.155  10.251
 8197SOL     OW35932   4.330   0.964   9.433
 8197SOL    HW135933   4.337   1.048   9.379
 8197SOL    HW235934   4.376   0.977   9.521
 8198SOL     OW35935   3.846   0.643   9.873
 8198SOL    HW135936   3.801   0.555   9.890
 8198SOL    HW235937   3.845   0.697   9.957
 8199SOL     OW35938   3.751   1.596   9.427
 8199SOL    HW135939   3.732   1.500   9.448
 8199SOL    HW235940   3.718   1.654   9.502
 8200SOL     OW35941   3.837   0.737  10.907
 8200SOL    HW135942   3.925   0.724  10.952
 8200SOL    HW235943   3.824   0.834  10.885
 8201SOL     OW35944   4.337   1.365  10.036
 8201SOL    HW135945   4.288   1.278  10.045
 8201SOL    HW235946   4.314   1.408   9.949
 8202SOL     OW35947   4.533   0.004   9.812
 8202SOL    HW135948   4.573   0.095   9.803
 8202SOL    HW235949   4.433   0.012   9.818
 8203SOL     OW35950   3.921   0.976  10.574
 8203SOL    HW135951   4.010   0.931  10.560
 8203SOL    HW235952   3.848   0.911  10.555
 8204SOL     OW35953   4.041   0.251  11.111
 8204SOL    HW135954   4.112   0.322  11.117
 8204SOL    HW235955   3.953   0.290  11.139
 8205SOL     OW35956   4.322   0.729   9.580
 8205SOL    HW135957   4.346   0.798   9.512
 8205SOL    HW235958   4.244   0.762   9.634
 8206SOL     OW35959   4.531   0.605  10.775
 8206SOL    HW135960   4.484   0.602  10.864
 8206SOL    HW235961   4.480   0.550  10.709
 8207SOL     OW35962   4.697   0.890  10.882
 8207SOL    HW135963   4.743   0.806  10.853
 8207SOL    HW235964   4.641   0.924  10.807
 8208SOL     OW35965   4.715   0.410  10.552
 8208SOL    HW135966   4.638   0.444  10.606
 8208SOL    HW235967   4.681   0.359  10.473
 8209SOL     OW35968   3.800   0.811  10.099
 8209SOL    HW135969   3.899   0.799  10.108
 8209SOL    HW235970   3.776   0.906  10.120
 8210SOL     OW35971   4.589   0.348   9.505
 8210SOL    HW135972   4.648   0.411   9.456
 8210SOL    HW235973   4.608   0.254   9.476
 8211SOL     OW35974   4.274   0.196  10.195
 8211SOL    HW135975   4.269   0.191  10.295
 8211SOL    HW235976   4.276   0.292  10.166
 8212SOL     OW35977   4.732   1.456   9.787
 8212SOL    HW135978   4.686   1.528   9.735
 8212SOL    HW235979   4.728   1.476   9.885
 8213SOL     OW35980   4.045   0.943   9.552
 8213SOL    HW135981   4.127   0.982   9.510
 8213SOL    HW235982   4.018   0.861   9.503
 8214SOL     OW35983   3.926   0.285  10.808
 8214SOL    HW135984   3.846   0.345  10.795
 8214SOL    HW235985   3.916   0.236  10.894
 8215SOL     OW35986   4.188   1.743   9.633
 8215SOL    HW135987   4.221   1.782   9.719
 8215SOL    HW235988   4.264   1.736   9.568
 8216SOL     OW35989   4.106   0.700   9.790
 8216SOL    HW135990   4.151   0.610   9.787
 8216SOL    HW235991   4.012   0.689   9.823
 8217SOL     OW35992   4.527   1.402  10.234
 8217SOL    HW135993   4.617   1.416  10.192
 8217SOL    HW235994   4.456   1.404  10.163
 8218SOL     OW35995   4.646   0.503  10.209
 8218SOL    HW135996   4.621   0.494  10.113
 8218SOL    HW235997   4.694   0.421  10.240
 8219SOL     OW35998   4.263   0.064   9.822
 8219SOL    HW135999   4.182   0.065   9.880
 8219SOL    HW236000   4.266   0.147   9.767
 8220SOL     OW36001   4.021   0.035   9.481
 8220SOL    HW136002   4.070   0.119   9.460
 8220SOL    HW236003   4.083  -0.030   9.526
 8221SOL     OW36004   4.659   0.236   9.790
 8221SOL    HW136005   4.611   0.277   9.712
 8221SOL    HW236006   4.758   0.234   9.771
 8222SOL     OW36007   4.951   1.570  10.103
 8222SOL    HW136008   4.972   1.644  10.038
 8222SOL    HW236009   5.019   1.570  10.176
 8223SOL     OW36010   4.183   1.152  10.051
 8223SOL    HW136011   4.112   1.125  10.116
 8223SOL    HW236012   4.157   1.124   9.958
 8224SOL     OW36013   4.756   0.549   9.326
 8224SOL    HW136014   4.715   0.631   9.287
 8224SOL    HW236015   4.820   0.575   9.399
 8225SOL     OW36016   3.802   0.556  10.696
 8225SOL    HW136017   3.894   0.555  10.655
 8225SOL    HW236018   3.796   0.630  10.763
 8226SOL     OW36019   4.285   0.222  10.457
 8226SOL    HW136020   4.323   0.138  10.494
 8226SOL    HW236021   4.197   0.241  10.501
 8227SOL     OW36022   4.590   0.454   9.952
 8227SOL    HW136023   4.558   0.526   9.890
 8227SOL    HW236024   4.614   0.373   9.899
 8228SOL     OW36025   4.741   0.039  10.063
 8228SOL    HW136026   4.669   0.044   9.994
 8228SOL    HW236027   4.717  -0.030  10.132
 8229SOL     OW36028   4.212   1.385   9.484
 8229SOL    HW136029   4.125   1.370   9.531
 8229SOL    HW236030   4.195   1.411   9.389
 8230SOL     OW36031   4.251   0.256   9.638
 8230SOL    HW136032   4.278   0.197   9.563
 8230SOL    HW236033   4.251   0.351   9.607
 8231SOL     OW36034   4.639   0.089  10.712
 8231SOL    HW136035   4.664   0.069  10.617
 8231SOL    HW236036   4.711   0.145  10.754
 8232SOL     OW36037   4.429   1.050   9.678
 8232SOL    HW136038   4.415   1.057   9.777
 8232SOL    HW236039   4.513   0.999   9.660
 8233SOL     OW36040   4.134   0.813  10.561
 8233SOL    HW136041   4.220   0.825  10.611
 8233SOL    HW236042   4.092   0.726  10.588
 8234SOL     OW36043   4.091   1.100   9.811
 8234SOL    HW136044   4.084   1.183   9.755
 8234SOL    HW236045   4.095   1.020   9.751
 8235SOL     OW36046   4.290   0.537  10.175
 8235SOL    HW136047   4.302   0.603  10.101
 8235SOL    HW236048   4.336   0.571  10.258
 8236SOL     OW36049   4.126   0.751  10.908
 8236SOL    HW136050   4.194   0.806  10.861
 8236SOL    HW236051   4.166   0.663  10.935
 8237SOL     OW36052   4.297   0.870  10.339
 8237SOL    HW136053   4.341   0.959  10.330
 8237SOL    HW236054   4.234   0.870  10.416
 8238SOL     OW36055   4.933   0.525   9.585
 8238SOL    HW136056   4.946   0.441   9.639
 8238SOL    HW236057   4.904   0.599   9.645
 8239SOL     OW36058   4.031   0.213  10.541
 8239SOL    HW136059   4.008   0.250  10.631
 8239SOL    HW236060   4.001   0.118  10.535
 8240SOL     OW36061   4.456   0.634  10.374
 8240SOL    HW136062   4.515   0.608  10.298
 8240SOL    HW236063   4.428   0.730  10.363
 8241SOL     OW36064   4.031   0.063   9.928
 8241SOL    HW136065   4.020   0.157   9.961
 8241SOL    HW236066   4.026   0.000  10.005
 8242SOL     OW36067   4.747   0.766  10.276
 8242SOL    HW136068   4.762   0.787  10.372
 8242SOL    HW236069   4.717   0.671  10.267
 8243SOL     OW36070   4.074   0.898  11.114
 8243SOL    HW136071   4.150   0.942  11.162
 8243SOL    HW236072   4.109   0.851  11.032
 8244SOL     OW36073   4.043   0.810  10.259
 8244SOL    HW136074   4.136   0.846  10.264
 8244SOL    HW236075   4.037   0.725  10.311
 8245SOL     OW36076   4.063   0.509  10.316
 8245SOL    HW136077   4.011   0.426  10.299
 8245SOL    HW236078   4.140   0.514  10.252
 8246SOL     OW36079   3.732   1.326   9.510
 8246SOL    HW136080   3.639   1.347   9.479
 8246SOL    HW236081   3.742   1.227   9.523
 8247SOL     OW36082   3.812   1.801  10.237
 8247SOL    HW136083   3.770   1.715  10.210
 8247SOL    HW236084   3.906   1.804  10.203
 8248SOL     OW36085   4.726   0.796  10.548
 8248SOL    HW136086   4.767   0.764  10.634
 8248SOL    HW236087   4.630   0.769  10.545
 8249SOL     OW36088   3.764   0.544  10.424
 8249SOL    HW136089   3.849   0.511  10.383
 8249SOL    HW236090   3.777   0.559  10.522
 8250SOL     OW36091   3.913   0.520  11.032
 8250SOL    HW136092   3.972   0.480  10.962
 8250SOL    HW236093   3.855   0.591  10.991
 8251SOL     OW36094   4.539   0.572   9.635
 8251SOL    HW136095   4.546   0.483   9.589
 8251SOL    HW236096   4.445   0.606   9.627
 8252SOL     OW36097   4.395   0.464  10.579
 8252SOL    HW136098   4.361   0.375  10.549
 8252SOL    HW236099   4.421   0.518  10.499
 8253SOL     OW36100   4.197   0.500   9.501
 8253SOL    HW136101   4.258   0.580   9.505
 8253SOL    HW236102   4.102   0.531   9.508
 8254SOL     OW36103   3.807   1.258  10.332
 8254SOL    HW136104   3.802   1.257  10.432
 8254SOL    HW236105   3.724   1.217  10.294
 8255SOL     OW36106   5.004   0.927   9.982
 8255SOL    HW136107   5.064   0.846   9.984
 8255SOL    HW236108   5.044   0.996   9.922
 8256SOL     OW36109   4.554   1.273  10.732
 8256SOL    HW136110   4.549   1.306  10.827
 8256SOL    HW236111   4.468   1.292  10.686
 8257SOL     OW36112   4.396   1.616   9.464
 8257SOL    HW136113   4.405   1.626   9.365
 8257SOL    HW236114   4.356   1.527   9.485
 8258SOL     OW36115   3.987   0.326  10.030
 8258SOL    HW136116   3.908   0.377   9.996
 8258SOL    HW236117   3.978   0.311  10.128
 8259SOL     OW36118   4.546   1.002  10.682
 8259SOL    HW136119   4.586   1.001  10.590
 8259SOL    HW236120   4.556   1.094  10.722
 8260SOL     OW36121   4.640   0.910   9.601
 8260SOL    HW136122   4.703   0.948   9.533
 8260SOL    HW236123   4.680   0.827   9.640
 8261SOL     OW36124   4.763   1.098  10.006
 8261SOL    HW136125   4.693   1.051  10.060
 8261SOL    HW236126   4.822   1.030   9.963
 8262SOL     OW36127   4.738   0.236  10.281
 8262SOL    HW136128   4.730   0.200  10.188
 8262SOL    HW236129   4.736   0.160  10.346
 8263SOL     OW36130   4.314   1.487   9.801
 8263SOL    HW136131   4.356   1.429   9.731
 8263SOL    HW236132   4.270   1.566   9.757
 8264SOL     OW36133   3.979   1.348   9.600
 8264SOL    HW136134   3.883   1.349   9.573
 8264SOL    HW236135   3.991   1.401   9.684
 8265SOL     OW36136   3.799   0.345   9.343
 8265SOL    HW136137   3.707   0.317   9.314
 8265SOL    HW236138   3.830   0.422   9.287
 8266SOL     OW36139   3.796   0.166   9.628
 8266SOL    HW136140   3.779   0.249   9.574
 8266SOL    HW236141   3.886   0.129   9.606
 8267SOL     OW36142   4.337   0.842  10.741
 8267SOL    HW136143   4.393   0.923  10.724
 8267SOL    HW236144   4.396   0.762  10.744
 8268SOL     OW36145   4.949   0.325   9.759
 8268SOL    HW136146   5.014   0.251   9.748
 8268SOL    HW236147   4.969   0.375   9.843
 8269SOL     OW36148   4.318   0.745   9.962
 8269SOL    HW136149   4.368   0.830   9.943
 8269SOL    HW236150   4.230   0.747   9.914
 8270SOL     OW36151   4.583   1.374   9.326
 8270SOL    HW136152   4.537   1.389   9.414
 8270SOL    HW236153   4.627   1.459   9.296
 8271SOL     OW36154   4.583   0.956  10.171
 8271SOL    HW136155   4.637   0.887  10.219
 8271SOL    HW236156   4.551   1.025  10.237
 8272SOL     OW36157   3.803   1.240   9.963
 8272SOL    HW136158   3.802   1.193  10.051
 8272SOL    HW236159   3.885   1.212   9.912
 8273SOL     OW36160   4.152   0.424   9.830
 8273SOL    HW136161   4.182   0.352   9.768
 8273SOL    HW236162   4.113   0.384   9.913
 8274SOL     OW36163   4.041   0.547  10.590
 8274SOL    HW136164   4.079   0.488  10.662
 8274SOL    HW236165   4.081   0.521  10.502
 8275SOL     OW36166   4.536   1.586   9.997
 8275SOL    HW136167   4.568   1.596   9.903
 8275SOL    HW236168   4.457   1.524   9.999
 8276SOL     OW36169   4.725   0.034  10.464
 8276SOL    HW136170   4.662  -0.038  10.433
 8276SOL    HW236171   4.818  -0.002  10.464
 8277SOL     OW36172   4.494   1.330   9.611
 8277SOL    HW136173   4.448   1.243   9.628
 8277SOL    HW236174   4.585   1.327   9.652
 8278SOL     OW36175   3.763   1.077   9.610
 8278SOL    HW136176   3.862   1.066   9.601
 8278SOL    HW236177   3.723   0.991   9.642
 8279SOL     OW36178   4.599   1.646   9.647
 8279SOL    HW136179   4.522   1.611   9.593
 8279SOL    HW236180   4.567   1.717   9.709
 8280SOL     OW36181   3.954   0.628  11.285
 8280SOL    HW136182   3.861   0.626  11.322
 8280SOL    HW236183   3.955   0.589  11.193
 8281SOL     OW36184   3.743   0.368  11.819
 8281SOL    HW136185   3.661   0.411  11.858
 8281SOL    HW236186   3.715   0.295  11.756
 8282SOL     OW36187   4.410   1.161  12.975
 8282SOL    HW136188   4.470   1.240  12.989
 8282SOL    HW236189   4.324   1.192  12.934
 8283SOL     OW36190   4.330   0.964  11.295
 8283SOL    HW136191   4.337   1.048  11.241
 8283SOL    HW236192   4.376   0.977  11.383
 8284SOL     OW36193   4.533   0.004  11.674
 8284SOL    HW136194   4.573   0.095  11.665
 8284SOL    HW236195   4.433   0.012  11.680
 8285SOL     OW36196   3.854   1.821  12.743
 8285SOL    HW136197   3.844   1.806  12.842
 8285SOL    HW236198   3.768   1.857  12.707
 8286SOL     OW36199   4.732   1.456  11.649
 8286SOL    HW136200   4.686   1.528  11.597
 8286SOL    HW236201   4.728   1.476  11.747
 8287SOL     OW36202   4.045   0.943  11.414
 8287SOL    HW136203   4.127   0.982  11.372
 8287SOL    HW236204   4.018   0.861  11.365
 8288SOL     OW36205   4.263   0.064  11.684
 8288SOL    HW136206   4.182   0.065  11.742
 8288SOL    HW236207   4.266   0.147  11.629
 8289SOL     OW36208   4.659   0.236  11.652
 8289SOL    HW136209   4.611   0.277  11.574
 8289SOL    HW236210   4.758   0.234  11.633
 8290SOL     OW36211   4.951   1.570  11.965
 8290SOL    HW136212   4.972   1.644  11.900
 8290SOL    HW236213   5.019   1.570  12.038
 8291SOL     OW36214   4.183   1.152  11.913
 8291SOL    HW136215   4.112   1.125  11.978
 8291SOL    HW236216   4.157   1.124  11.820
 8292SOL     OW36217   4.212   1.385  11.346
 8292SOL    HW136218   4.125   1.370  11.393
 8292SOL    HW236219   4.195   1.411  11.251
 8293SOL     OW36220   4.429   1.050  11.540
 8293SOL    HW136221   4.415   1.057  11.639
 8293SOL    HW236222   4.513   0.999  11.522
 8294SOL     OW36223   4.091   1.100  11.673
 8294SOL    HW136224   4.084   1.183  11.617
 8294SOL    HW236225   4.095   1.020  11.613
 8295SOL     OW36226   4.737   0.105  12.942
 8295SOL    HW136227   4.743   0.190  12.890
 8295SOL    HW236228   4.769   0.029  12.885
 8296SOL     OW36229   4.031   0.063  11.790
 8296SOL    HW136230   4.020   0.157  11.823
 8296SOL    HW236231   4.026   0.000  11.867
 8297SOL     OW36232   4.704   1.573  12.872
 8297SOL    HW136233   4.684   1.617  12.784
 8297SOL    HW236234   4.743   1.482  12.856
 8298SOL     OW36235   4.043   0.810  12.121
 8298SOL    HW136236   4.136   0.846  12.126
 8298SOL    HW236237   4.037   0.725  12.173
 8299SOL     OW36238   3.732   1.326  11.372
 8299SOL    HW136239   3.639   1.347  11.341
 8299SOL    HW236240   3.742   1.227  11.385
 8300SOL     OW36241   4.654   1.678  12.637
 8300SOL    HW136242   4.630   1.660  12.542
 8300SOL    HW236243   4.684   1.772  12.647
 8301SOL     OW36244   5.004   0.927  11.844
 8301SOL    HW136245   5.064   0.846  11.846
 8301SOL    HW236246   5.044   0.996  11.784
 8302SOL     OW36247   4.396   1.616  11.326
 8302SOL    HW136248   4.405   1.626  11.227
 8302SOL    HW236249   4.356   1.527  11.347
 8303SOL     OW36250   3.987   0.326  11.892
 8303SOL    HW136251   3.908   0.377  11.858
 8303SOL    HW236252   3.978   0.311  11.990
 8304SOL     OW36253   3.979   1.348  11.462
 8304SOL    HW136254   3.883   1.349  11.435
 8304SOL    HW236255   3.991   1.401  11.546
 8305SOL     OW36256   3.799   0.345  11.205
 8305SOL    HW136257   3.707   0.317  11.176
 8305SOL    HW236258   3.830   0.422  11.149
 8306SOL     OW36259   4.385   1.790  12.125
 8306SOL    HW136260   4.339   1.878  12.112
 8306SOL    HW236261   4.484   1.802  12.118
 8307SOL     OW36262   4.396   1.391  12.796
 8307SOL    HW136263   4.318   1.341  12.834
 8307SOL    HW236264   4.393   1.486  12.827
 8308SOL     OW36265   4.152   0.424  11.692
 8308SOL    HW136266   4.182   0.352  11.630
 8308SOL    HW236267   4.113   0.384  11.775
 8309SOL     OW36268   4.536   1.586  11.859
 8309SOL    HW136269   4.568   1.596  11.765
 8309SOL    HW236270   4.457   1.524  11.861
 8310SOL     OW36271   4.494   1.330  11.473
 8310SOL    HW136272   4.448   1.243  11.490
 8310SOL    HW236273   4.585   1.327  11.514
 8311SOL     OW36274   4.599   1.646  11.509
 8311SOL    HW136275   4.522   1.611  11.455
 8311SOL    HW236276   4.567   1.717  11.571
 8312SOL     OW36277   3.954   0.628  13.147
 8312SOL    HW136278   3.861   0.626  13.184
 8312SOL    HW236279   3.955   0.589  13.055
 8313SOL     OW36280   4.410   1.161  14.837
 8313SOL    HW136281   4.470   1.240  14.851
 8313SOL    HW236282   4.324   1.192  14.796
 8314SOL     OW36283   4.162   0.392  14.533
 8314SOL    HW136284   4.244   0.336  14.542
 8314SOL    HW236285   4.081   0.334  14.537
 8315SOL     OW36286   3.954   1.434  13.572
 8315SOL    HW136287   3.928   1.530  13.572
 8315SOL    HW236288   3.883   1.380  13.617
 8316SOL     OW36289   4.330   0.964  13.157
 8316SOL    HW136290   4.337   1.048  13.103
 8316SOL    HW236291   4.376   0.977  13.245
 8317SOL     OW36292   3.846   0.643  13.597
 8317SOL    HW136293   3.801   0.555  13.614
 8317SOL    HW236294   3.845   0.697  13.681
 8318SOL     OW36295   4.533   0.004  13.536
 8318SOL    HW136296   4.573   0.095  13.527
 8318SOL    HW236297   4.433   0.012  13.542
 8319SOL     OW36298   3.921   0.976  14.298
 8319SOL    HW136299   4.010   0.931  14.284
 8319SOL    HW236300   3.848   0.911  14.279
 8320SOL     OW36301   4.322   0.729  13.304
 8320SOL    HW136302   4.346   0.798  13.236
 8320SOL    HW236303   4.244   0.762  13.358
 8321SOL     OW36304   4.045   0.943  13.276
 8321SOL    HW136305   4.127   0.982  13.234
 8321SOL    HW236306   4.018   0.861  13.227
 8322SOL     OW36307   4.612   1.514  14.229
 8322SOL    HW136308   4.589   1.489  14.135
 8322SOL    HW236309   4.673   1.445  14.268
 8323SOL     OW36310   4.021   0.035  13.205
 8323SOL    HW136311   4.070   0.119  13.184
 8323SOL    HW236312   4.083  -0.030  13.250
 8324SOL     OW36313   4.183   1.152  13.775
 8324SOL    HW136314   4.112   1.125  13.840
 8324SOL    HW236315   4.157   1.124  13.682
 8325SOL     OW36316   4.212   1.385  13.208
 8325SOL    HW136317   4.125   1.370  13.255
 8325SOL    HW236318   4.195   1.411  13.113
 8326SOL     OW36319   4.251   0.256  13.362
 8326SOL    HW136320   4.278   0.197  13.287
 8326SOL    HW236321   4.251   0.351  13.331
 8327SOL     OW36322   4.429   1.050  13.402
 8327SOL    HW136323   4.415   1.057  13.501
 8327SOL    HW236324   4.513   0.999  13.384
 8328SOL     OW36325   4.091   1.100  13.535
 8328SOL    HW136326   4.084   1.183  13.479
 8328SOL    HW236327   4.095   1.020  13.475
 8329SOL     OW36328   4.737   0.105  14.804
 8329SOL    HW136329   4.743   0.190  14.752
 8329SOL    HW236330   4.769   0.029  14.747
 8330SOL     OW36331   4.031   0.063  13.652
 8330SOL    HW136332   4.020   0.157  13.685
 8330SOL    HW236333   4.026   0.000  13.729
 8331SOL     OW36334   4.654   1.678  14.499
 8331SOL    HW136335   4.630   1.660  14.404
 8331SOL    HW236336   4.684   1.772  14.509
 8332SOL     OW36337   4.197   0.500  13.225
 8332SOL    HW136338   4.258   0.580  13.229
 8332SOL    HW236339   4.102   0.531  13.232
 8333SOL     OW36340   4.738   0.236  14.005
 8333SOL    HW136341   4.730   0.200  13.912
 8333SOL    HW236342   4.736   0.160  14.070
 8334SOL     OW36343   3.799   0.345  13.067
 8334SOL    HW136344   3.707   0.317  13.038
 8334SOL    HW236345   3.830   0.422  13.011
 8335SOL     OW36346   3.796   0.166  13.352
 8335SOL    HW136347   3.779   0.249  13.298
 8335SOL    HW236348   3.886   0.129  13.330
 8336SOL     OW36349   4.583   1.374  13.050
 8336SOL    HW136350   4.537   1.389  13.138
 8336SOL    HW236351   4.627   1.459  13.020
 8337SOL     OW36352   4.041   0.547  14.314
 8337SOL    HW136353   4.079   0.488  14.386
 8337SOL    HW236354   4.081   0.521  14.226
 8338SOL     OW36355   3.763   1.077  13.334
 8338SOL    HW136356   3.862   1.066  13.325
 8338SOL    HW236357   3.723   0.991  13.366
 8339SOL     OW36358   4.574   0.798  16.720
 8339SOL    HW136359   4.570   0.874  16.785
 8339SOL    HW236360   4.596   0.834  16.629
 8340SOL     OW36361   4.162   0.392  16.396
 8340SOL    HW136362   4.244   0.336  16.405
 8340SOL    HW236363   4.081   0.334  16.400
 8341SOL     OW36364   3.954   1.434  15.434
 8341SOL    HW136365   3.928   1.530  15.434
 8341SOL    HW236366   3.883   1.380  15.479
 8342SOL     OW36367   3.964   1.091  15.782
 8342SOL    HW136368   3.978   1.007  15.834
 8342SOL    HW236369   3.909   1.155  15.837
 8343SOL     OW36370   3.846   0.643  15.459
 8343SOL    HW136371   3.801   0.555  15.476
 8343SOL    HW236372   3.845   0.697  15.543
 8344SOL     OW36373   4.533   0.004  15.398
 8344SOL    HW136374   4.573   0.095  15.389
 8344SOL    HW236375   4.433   0.012  15.404
 8345SOL     OW36376   3.921   0.976  16.161
 8345SOL    HW136377   4.010   0.931  16.147
 8345SOL    HW236378   3.848   0.911  16.142
 8346SOL     OW36379   4.531   0.605  16.362
 8346SOL    HW136380   4.484   0.602  16.451
 8346SOL    HW236381   4.480   0.550  16.296
 8347SOL     OW36382   4.697   0.890  16.469
 8347SOL    HW136383   4.743   0.806  16.440
 8347SOL    HW236384   4.641   0.924  16.394
 8348SOL     OW36385   3.800   0.811  15.685
 8348SOL    HW136386   3.899   0.799  15.694
 8348SOL    HW236387   3.776   0.906  15.706
 8349SOL     OW36388   4.589   0.348  15.091
 8349SOL    HW136389   4.648   0.411  15.042
 8349SOL    HW236390   4.608   0.254  15.062
 8350SOL     OW36391   3.973   1.785  16.138
 8350SOL    HW136392   4.030   1.720  16.188
 8350SOL    HW236393   3.957   1.752  16.045
 8351SOL     OW36394   4.646   0.503  15.795
 8351SOL    HW136395   4.621   0.494  15.699
 8351SOL    HW236396   4.694   0.421  15.826
 8352SOL     OW36397   4.659   0.236  15.376
 8352SOL    HW136398   4.611   0.277  15.298
 8352SOL    HW236399   4.758   0.234  15.357
 8353SOL     OW36400   4.590   0.454  15.538
 8353SOL    HW136401   4.558   0.526  15.476
 8353SOL    HW236402   4.614   0.373  15.485
 8354SOL     OW36403   4.212   1.385  15.070
 8354SOL    HW136404   4.125   1.370  15.117
 8354SOL    HW236405   4.195   1.411  14.975
 8355SOL     OW36406   4.134   0.813  16.148
 8355SOL    HW136407   4.220   0.825  16.198
 8355SOL    HW236408   4.092   0.726  16.175
 8356SOL     OW36409   4.126   0.751  16.495
 8356SOL    HW136410   4.194   0.806  16.448
 8356SOL    HW236411   4.166   0.663  16.522
 8357SOL     OW36412   4.933   0.525  15.171
 8357SOL    HW136413   4.946   0.441  15.225
 8357SOL    HW236414   4.904   0.599  15.231
 8358SOL     OW36415   4.456   0.634  15.961
 8358SOL    HW136416   4.515   0.608  15.885
 8358SOL    HW236417   4.428   0.730  15.950
 8359SOL     OW36418   4.043   0.810  15.846
 8359SOL    HW136419   4.136   0.846  15.851
 8359SOL    HW236420   4.037   0.725  15.898
 8360SOL     OW36421   4.063   0.509  15.903
 8360SOL    HW136422   4.011   0.426  15.886
 8360SOL    HW236423   4.140   0.514  15.839
 8361SOL     OW36424   3.732   1.326  15.096
 8361SOL    HW136425   3.639   1.347  15.065
 8361SOL    HW236426   3.742   1.227  15.109
 8362SOL     OW36427   3.812   1.801  15.823
 8362SOL    HW136428   3.770   1.715  15.796
 8362SOL    HW236429   3.906   1.804  15.789
 8363SOL     OW36430   3.764   0.544  16.011
 8363SOL    HW136431   3.849   0.511  15.970
 8363SOL    HW236432   3.777   0.559  16.109
 8364SOL     OW36433   3.976   1.564  16.641
 8364SOL    HW136434   3.946   1.621  16.717
 8364SOL    HW236435   3.969   1.467  16.667
 8365SOL     OW36436   3.807   1.258  15.919
 8365SOL    HW136437   3.802   1.257  16.019
 8365SOL    HW236438   3.724   1.217  15.881
 8366SOL     OW36439   3.854   1.794  16.748
 8366SOL    HW136440   3.813   1.720  16.801
 8366SOL    HW236441   3.918   1.845  16.806
 8367SOL     OW36442   3.987   0.326  15.616
 8367SOL    HW136443   3.908   0.377  15.582
 8367SOL    HW236444   3.978   0.311  15.714
 8368SOL     OW36445   4.546   1.002  16.269
 8368SOL    HW136446   4.586   1.001  16.177
 8368SOL    HW236447   4.556   1.094  16.309
 8369SOL     OW36448   4.314   1.487  15.387
 8369SOL    HW136449   4.356   1.429  15.317
 8369SOL    HW236450   4.270   1.566  15.343
 8370SOL     OW36451   3.979   1.348  15.186
 8370SOL    HW136452   3.883   1.349  15.159
 8370SOL    HW236453   3.991   1.401  15.270
 8371SOL     OW36454   4.337   0.842  16.328
 8371SOL    HW136455   4.393   0.923  16.311
 8371SOL    HW236456   4.396   0.762  16.331
 8372SOL     OW36457   4.440   0.565  16.605
 8372SOL    HW136458   4.459   0.630  16.679
 8372SOL    HW236459   4.500   0.485  16.614
 8373SOL     OW36460   4.949   0.325  15.345
 8373SOL    HW136461   5.014   0.251  15.334
 8373SOL    HW236462   4.969   0.375  15.429
 8374SOL     OW36463   3.803   1.240  15.549
 8374SOL    HW136464   3.802   1.193  15.637
 8374SOL    HW236465   3.885   1.212  15.498
 8375SOL     OW36466   4.152   0.424  15.416
 8375SOL    HW136467   4.182   0.352  15.354
 8375SOL    HW236468   4.113   0.384  15.499
 8376SOL     OW36469   4.041   0.547  16.177
 8376SOL    HW136470   4.079   0.488  16.249
 8376SOL    HW236471   4.081   0.521  16.089
 8377SOL     OW36472   4.494   1.330  15.197
 8377SOL    HW136473   4.448   1.243  15.214
 8377SOL    HW236474   4.585   1.327  15.238
 8378SOL     OW36475   3.743   0.368  17.406
 8378SOL    HW136476   3.661   0.411  17.445
 8378SOL    HW236477   3.715   0.295  17.343
 8379SOL     OW36478   3.955   1.713  17.242
 8379SOL    HW136479   3.989   1.790  17.296
 8379SOL    HW236480   3.999   1.713  17.152
 8380SOL     OW36481   4.330   0.964  16.882
 8380SOL    HW136482   4.337   1.048  16.828
 8380SOL    HW236483   4.376   0.977  16.970
 8381SOL     OW36484   3.846   0.643  17.322
 8381SOL    HW136485   3.801   0.555  17.339
 8381SOL    HW236486   3.845   0.697  17.406
 8382SOL     OW36487   3.751   1.596  16.876
 8382SOL    HW136488   3.732   1.500  16.897
 8382SOL    HW236489   3.718   1.654  16.951
 8383SOL     OW36490   4.322   0.729  17.029
 8383SOL    HW136491   4.346   0.798  16.961
 8383SOL    HW236492   4.244   0.762  17.083
 8384SOL     OW36493   4.732   1.456  17.236
 8384SOL    HW136494   4.686   1.528  17.184
 8384SOL    HW236495   4.728   1.476  17.334
 8385SOL     OW36496   3.973   1.785  18.000
 8385SOL    HW136497   4.030   1.720  18.050
 8385SOL    HW236498   3.957   1.752  17.907
 8386SOL     OW36499   4.106   0.700  17.239
 8386SOL    HW136500   4.151   0.610  17.236
 8386SOL    HW236501   4.012   0.689  17.272
 8387SOL     OW36502   4.756   0.549  16.775
 8387SOL    HW136503   4.715   0.631  16.736
 8387SOL    HW236504   4.820   0.575  16.848
 8388SOL     OW36505   4.741   0.039  17.512
 8388SOL    HW136506   4.669   0.044  17.443
 8388SOL    HW236507   4.717  -0.030  17.581
 8389SOL     OW36508   4.251   0.256  17.087
 8389SOL    HW136509   4.278   0.197  17.012
 8389SOL    HW236510   4.251   0.351  17.056
 8390SOL     OW36511   4.429   1.050  17.127
 8390SOL    HW136512   4.415   1.057  17.226
 8390SOL    HW236513   4.513   0.999  17.109
 8391SOL     OW36514   4.297   0.870  17.788
 8391SOL    HW136515   4.341   0.959  17.779
 8391SOL    HW236516   4.234   0.870  17.865
 8392SOL     OW36517   4.031   0.063  17.377
 8392SOL    HW136518   4.020   0.157  17.410
 8392SOL    HW236519   4.026   0.000  17.454
 8393SOL     OW36520   4.747   0.766  17.725
 8393SOL    HW136521   4.762   0.787  17.821
 8393SOL    HW236522   4.717   0.671  17.716
 8394SOL     OW36523   3.732   1.326  16.959
 8394SOL    HW136524   3.639   1.347  16.928
 8394SOL    HW236525   3.742   1.227  16.972
 8395SOL     OW36526   4.726   0.796  17.997
 8395SOL    HW136527   4.767   0.764  18.083
 8395SOL    HW236528   4.630   0.769  17.994
 8396SOL     OW36529   4.197   0.500  16.950
 8396SOL    HW136530   4.258   0.580  16.954
 8396SOL    HW236531   4.102   0.531  16.957
 8397SOL     OW36532   3.987   0.326  17.479
 8397SOL    HW136533   3.908   0.377  17.445
 8397SOL    HW236534   3.978   0.311  17.577
 8398SOL     OW36535   4.314   1.487  17.250
 8398SOL    HW136536   4.356   1.429  17.180
 8398SOL    HW236537   4.270   1.566  17.206
 8399SOL     OW36538   4.949   0.325  17.208
 8399SOL    HW136539   5.014   0.251  17.197
 8399SOL    HW236540   4.969   0.375  17.292
 8400SOL     OW36541   4.583   0.956  17.620
 8400SOL    HW136542   4.637   0.887  17.668
 8400SOL    HW236543   4.551   1.025  17.686
 8401SOL     OW36544   4.152   0.424  17.279
 8401SOL    HW136545   4.182   0.352  17.217
 8401SOL    HW236546   4.113   0.384  17.362
 8402SOL     OW36547   4.536   1.586  17.446
 8402SOL    HW136548   4.568   1.596  17.352
 8402SOL    HW236549   4.457   1.524  17.448
 8403SOL     OW36550   4.494   1.330  17.060
 8403SOL    HW136551   4.448   1.243  17.077
 8403SOL    HW236552   4.585   1.327  17.101
 8404SOL     OW36553   3.949   2.137   0.996
 8404SOL    HW136554   3.984   2.120   1.088
 8404SOL    HW236555   3.861   2.092   0.984
 8405SOL     OW36556   4.293   3.137   1.165
 8405SOL    HW136557   4.200   3.130   1.128
 8405SOL    HW236558   4.304   3.226   1.209
 8406SOL     OW36559   4.492   3.006   1.023
 8406SOL    HW136560   4.414   3.023   1.083
 8406SOL    HW236561   4.526   3.093   0.987
 8407SOL     OW36562   4.574   2.660   1.823
 8407SOL    HW136563   4.570   2.736   1.888
 8407SOL    HW236564   4.596   2.696   1.732
 8408SOL     OW36565   4.410   3.023   1.803
 8408SOL    HW136566   4.470   3.102   1.817
 8408SOL    HW236567   4.324   3.054   1.762
 8409SOL     OW36568   4.059   3.297   1.061
 8409SOL    HW136569   3.981   3.266   1.008
 8409SOL    HW236570   4.117   3.355   1.004
 8410SOL     OW36571   3.955   3.575   0.483
 8410SOL    HW136572   3.989   3.652   0.537
 8410SOL    HW236573   3.999   3.575   0.393
 8411SOL     OW36574   3.954   3.296   0.538
 8411SOL    HW136575   3.928   3.392   0.538
 8411SOL    HW236576   3.883   3.242   0.583
 8412SOL     OW36577   3.964   2.953   0.886
 8412SOL    HW136578   3.978   2.869   0.938
 8412SOL    HW236579   3.909   3.017   0.941
 8413SOL     OW36580   4.344   3.648   1.439
 8413SOL    HW136581   4.252   3.631   1.474
 8413SOL    HW236582   4.372   3.740   1.465
 8414SOL     OW36583   4.330   2.826   0.123
 8414SOL    HW136584   4.337   2.910   0.069
 8414SOL    HW236585   4.376   2.839   0.211
 8415SOL     OW36586   3.751   3.458   0.117
 8415SOL    HW136587   3.732   3.362   0.138
 8415SOL    HW236588   3.718   3.516   0.192
 8416SOL     OW36589   4.337   3.227   0.726
 8416SOL    HW136590   4.288   3.140   0.735
 8416SOL    HW236591   4.314   3.270   0.639
 8417SOL     OW36592   4.041   2.113   1.801
 8417SOL    HW136593   4.112   2.184   1.807
 8417SOL    HW236594   3.953   2.152   1.829
 8418SOL     OW36595   4.531   2.467   1.465
 8418SOL    HW136596   4.484   2.464   1.554
 8418SOL    HW236597   4.480   2.412   1.399
 8419SOL     OW36598   4.697   2.752   1.572
 8419SOL    HW136599   4.743   2.668   1.543
 8419SOL    HW236600   4.641   2.786   1.497
 8420SOL     OW36601   3.800   2.673   0.789
 8420SOL    HW136602   3.899   2.661   0.798
 8420SOL    HW236603   3.776   2.768   0.810
 8421SOL     OW36604   3.854   3.683   1.571
 8421SOL    HW136605   3.844   3.668   1.670
 8421SOL    HW236606   3.768   3.719   1.535
 8422SOL     OW36607   4.075   3.663   0.853
 8422SOL    HW136608   4.125   3.577   0.859
 8422SOL    HW236609   4.140   3.740   0.850
 8423SOL     OW36610   4.045   2.805   0.242
 8423SOL    HW136611   4.127   2.844   0.200
 8423SOL    HW236612   4.018   2.723   0.193
 8424SOL     OW36613   4.185   3.128   1.727
 8424SOL    HW136614   4.135   3.129   1.641
 8424SOL    HW236615   4.122   3.110   1.803
 8425SOL     OW36616   3.973   3.647   1.241
 8425SOL    HW136617   4.030   3.582   1.291
 8425SOL    HW236618   3.957   3.614   1.148
 8426SOL     OW36619   4.505   2.126   1.749
 8426SOL    HW136620   4.572   2.065   1.792
 8426SOL    HW236621   4.432   2.145   1.814
 8427SOL     OW36622   4.527   3.264   0.924
 8427SOL    HW136623   4.617   3.278   0.882
 8427SOL    HW236624   4.456   3.266   0.853
 8428SOL     OW36625   4.263   1.926   0.512
 8428SOL    HW136626   4.182   1.927   0.570
 8428SOL    HW236627   4.266   2.009   0.457
 8429SOL     OW36628   4.021   1.897   0.171
 8429SOL    HW136629   4.070   1.981   0.150
 8429SOL    HW236630   4.083   1.832   0.216
 8430SOL     OW36631   4.951   3.432   0.793
 8430SOL    HW136632   4.972   3.506   0.728
 8430SOL    HW236633   5.019   3.432   0.866
 8431SOL     OW36634   4.183   3.014   0.741
 8431SOL    HW136635   4.112   2.987   0.806
 8431SOL    HW236636   4.157   2.986   0.648
 8432SOL     OW36637   4.285   2.084   1.147
 8432SOL    HW136638   4.323   2.000   1.184
 8432SOL    HW236639   4.197   2.103   1.191
 8433SOL     OW36640   4.212   3.247   0.174
 8433SOL    HW136641   4.125   3.232   0.221
 8433SOL    HW236642   4.195   3.273   0.079
 8434SOL     OW36643   4.704   2.978   1.719
 8434SOL    HW136644   4.605   2.984   1.729
 8434SOL    HW236645   4.727   2.898   1.663
 8435SOL     OW36646   4.429   2.912   0.368
 8435SOL    HW136647   4.415   2.919   0.467
 8435SOL    HW236648   4.513   2.861   0.350
 8436SOL     OW36649   4.134   2.675   1.251
 8436SOL    HW136650   4.220   2.687   1.301
 8436SOL    HW236651   4.092   2.588   1.278
 8437SOL     OW36652   3.788   3.426   1.331
 8437SOL    HW136653   3.742   3.508   1.297
 8437SOL    HW236654   3.886   3.445   1.340
 8438SOL     OW36655   4.091   2.962   0.501
 8438SOL    HW136656   4.084   3.045   0.445
 8438SOL    HW236657   4.095   2.882   0.441
 8439SOL     OW36658   4.078   3.372   1.329
 8439SOL    HW136659   4.057   3.328   1.242
 8439SOL    HW236660   4.175   3.398   1.332
 8440SOL     OW36661   4.737   1.967   1.770
 8440SOL    HW136662   4.743   2.052   1.718
 8440SOL    HW236663   4.769   1.891   1.713
 8441SOL     OW36664   4.228   1.912   1.740
 8441SOL    HW136665   4.186   1.855   1.670
 8441SOL    HW236666   4.162   1.981   1.772
 8442SOL     OW36667   4.297   2.732   1.029
 8442SOL    HW136668   4.341   2.821   1.020
 8442SOL    HW236669   4.234   2.732   1.106
 8443SOL     OW36670   3.761   3.172   1.282
 8443SOL    HW136671   3.814   3.123   1.350
 8443SOL    HW236672   3.783   3.270   1.287
 8444SOL     OW36673   4.031   1.925   0.618
 8444SOL    HW136674   4.020   2.019   0.651
 8444SOL    HW236675   4.026   1.862   0.695
 8445SOL     OW36676   4.704   3.435   1.700
 8445SOL    HW136677   4.684   3.479   1.612
 8445SOL    HW236678   4.743   3.344   1.684
 8446SOL     OW36679   4.043   2.672   0.949
 8446SOL    HW136680   4.136   2.708   0.954
 8446SOL    HW236681   4.037   2.587   1.001
 8447SOL     OW36682   3.732   3.188   0.200
 8447SOL    HW136683   3.639   3.209   0.169
 8447SOL    HW236684   3.742   3.089   0.213
 8448SOL     OW36685   3.812   3.663   0.927
 8448SOL    HW136686   3.770   3.577   0.900
 8448SOL    HW236687   3.906   3.666   0.893
 8449SOL     OW36688   4.228   3.430   0.910
 8449SOL    HW136689   4.294   3.504   0.919
 8449SOL    HW236690   4.272   3.351   0.868
 8450SOL     OW36691   4.539   2.434   0.325
 8450SOL    HW136692   4.546   2.345   0.279
 8450SOL    HW236693   4.445   2.468   0.317
 8451SOL     OW36694   3.976   3.426   1.744
 8451SOL    HW136695   3.946   3.483   1.820
 8451SOL    HW236696   3.969   3.329   1.770
 8452SOL     OW36697   4.654   3.540   1.465
 8452SOL    HW136698   4.630   3.522   1.370
 8452SOL    HW236699   4.684   3.634   1.475
 8453SOL     OW36700   3.883   2.999   1.466
 8453SOL    HW136701   3.905   2.938   1.542
 8453SOL    HW236702   3.893   2.950   1.380
 8454SOL     OW36703   3.807   3.120   1.022
 8454SOL    HW136704   3.802   3.119   1.122
 8454SOL    HW236705   3.724   3.079   0.984
 8455SOL     OW36706   4.412   3.524   1.716
 8455SOL    HW136707   4.356   3.605   1.725
 8455SOL    HW236708   4.464   3.528   1.630
 8456SOL     OW36709   3.854   3.656   1.851
 8456SOL    HW136710   3.813   3.582   1.904
 8456SOL    HW236711   3.918   3.707   1.909
 8457SOL     OW36712   5.004   2.789   0.672
 8457SOL    HW136713   5.064   2.708   0.674
 8457SOL    HW236714   5.044   2.858   0.612
 8458SOL     OW36715   4.554   3.135   1.422
 8458SOL    HW136716   4.549   3.168   1.517
 8458SOL    HW236717   4.468   3.154   1.376
 8459SOL     OW36718   4.096   3.150   1.490
 8459SOL    HW136719   4.083   3.243   1.456
 8459SOL    HW236720   4.012   3.098   1.477
 8460SOL     OW36721   3.979   3.210   0.290
 8460SOL    HW136722   3.883   3.211   0.263
 8460SOL    HW236723   3.991   3.263   0.374
 8461SOL     OW36724   3.829   2.875   1.726
 8461SOL    HW136725   3.752   2.842   1.780
 8461SOL    HW236726   3.914   2.845   1.768
 8462SOL     OW36727   4.396   2.065   1.489
 8462SOL    HW136728   4.486   2.049   1.449
 8462SOL    HW236729   4.404   2.070   1.588
 8463SOL     OW36730   4.337   2.704   1.431
 8463SOL    HW136731   4.393   2.785   1.414
 8463SOL    HW236732   4.396   2.624   1.434
 8464SOL     OW36733   4.440   2.427   1.708
 8464SOL    HW136734   4.459   2.492   1.782
 8464SOL    HW236735   4.500   2.347   1.717
 8465SOL     OW36736   4.114   3.603   1.560
 8465SOL    HW136737   4.023   3.644   1.558
 8465SOL    HW236738   4.107   3.509   1.592
 8466SOL     OW36739   4.385   3.652   0.953
 8466SOL    HW136740   4.339   3.740   0.940
 8466SOL    HW236741   4.484   3.664   0.946
 8467SOL     OW36742   3.945   3.176   1.844
 8467SOL    HW136743   3.880   3.103   1.823
 8467SOL    HW236744   3.949   3.190   1.942
 8468SOL     OW36745   3.803   3.102   0.653
 8468SOL    HW136746   3.802   3.055   0.741
 8468SOL    HW236747   3.885   3.074   0.602
 8469SOL     OW36748   4.396   3.253   1.624
 8469SOL    HW136749   4.318   3.203   1.662
 8469SOL    HW236750   4.393   3.348   1.655
 8470SOL     OW36751   4.152   2.286   0.520
 8470SOL    HW136752   4.182   2.214   0.458
 8470SOL    HW236753   4.113   2.246   0.603
 8471SOL     OW36754   4.536   3.448   0.687
 8471SOL    HW136755   4.568   3.458   0.593
 8471SOL    HW236756   4.457   3.386   0.689
 8472SOL     OW36757   4.342   3.429   1.284
 8472SOL    HW136758   4.337   3.511   1.341
 8472SOL    HW236759   4.431   3.426   1.239
 8473SOL     OW36760   3.763   2.939   0.300
 8473SOL    HW136761   3.862   2.928   0.291
 8473SOL    HW236762   3.723   2.853   0.332
 8474SOL     OW36763   3.949   2.137   2.858
 8474SOL    HW136764   3.984   2.120   2.950
 8474SOL    HW236765   3.861   2.092   2.846
 8475SOL     OW36766   3.743   2.230   2.509
 8475SOL    HW136767   3.661   2.273   2.548
 8475SOL    HW236768   3.715   2.157   2.446
 8476SOL     OW36769   4.293   3.137   3.027
 8476SOL    HW136770   4.200   3.130   2.990
 8476SOL    HW236771   4.304   3.226   3.071
 8477SOL     OW36772   4.492   3.006   2.885
 8477SOL    HW136773   4.414   3.023   2.945
 8477SOL    HW236774   4.526   3.093   2.849
 8478SOL     OW36775   4.574   2.660   3.685
 8478SOL    HW136776   4.570   2.736   3.750
 8478SOL    HW236777   4.596   2.696   3.594
 8479SOL     OW36778   4.409   2.874   2.527
 8479SOL    HW136779   4.478   2.858   2.597
 8479SOL    HW236780   4.336   2.931   2.565
 8480SOL     OW36781   4.410   3.023   3.665
 8480SOL    HW136782   4.470   3.102   3.679
 8480SOL    HW236783   4.324   3.054   3.624
 8481SOL     OW36784   4.059   3.297   2.923
 8481SOL    HW136785   3.981   3.266   2.870
 8481SOL    HW236786   4.117   3.355   2.866
 8482SOL     OW36787   4.162   2.254   3.361
 8482SOL    HW136788   4.244   2.198   3.370
 8482SOL    HW236789   4.081   2.196   3.365
 8483SOL     OW36790   3.955   3.575   2.345
 8483SOL    HW136791   3.989   3.652   2.399
 8483SOL    HW236792   3.999   3.575   2.255
 8484SOL     OW36793   3.954   3.296   2.400
 8484SOL    HW136794   3.928   3.392   2.400
 8484SOL    HW236795   3.883   3.242   2.445
 8485SOL     OW36796   3.964   2.953   2.748
 8485SOL    HW136797   3.978   2.869   2.800
 8485SOL    HW236798   3.909   3.017   2.803
 8486SOL     OW36799   4.344   3.648   3.301
 8486SOL    HW136800   4.252   3.631   3.336
 8486SOL    HW236801   4.372   3.740   3.327
 8487SOL     OW36802   4.330   2.826   1.985
 8487SOL    HW136803   4.337   2.910   1.931
 8487SOL    HW236804   4.376   2.839   2.073
 8488SOL     OW36805   3.846   2.505   2.425
 8488SOL    HW136806   3.801   2.417   2.442
 8488SOL    HW236807   3.845   2.559   2.509
 8489SOL     OW36808   3.751   3.458   1.979
 8489SOL    HW136809   3.732   3.362   2.000
 8489SOL    HW236810   3.718   3.516   2.054
 8490SOL     OW36811   3.837   2.599   3.459
 8490SOL    HW136812   3.925   2.586   3.504
 8490SOL    HW236813   3.824   2.696   3.437
 8491SOL     OW36814   4.337   3.227   2.588
 8491SOL    HW136815   4.288   3.140   2.597
 8491SOL    HW236816   4.314   3.270   2.501
 8492SOL     OW36817   4.533   1.866   2.364
 8492SOL    HW136818   4.573   1.957   2.355
 8492SOL    HW236819   4.433   1.874   2.370
 8493SOL     OW36820   3.921   2.838   3.126
 8493SOL    HW136821   4.010   2.793   3.112
 8493SOL    HW236822   3.848   2.773   3.107
 8494SOL     OW36823   4.041   2.113   3.663
 8494SOL    HW136824   4.112   2.184   3.669
 8494SOL    HW236825   3.953   2.152   3.691
 8495SOL     OW36826   4.322   2.591   2.132
 8495SOL    HW136827   4.346   2.660   2.064
 8495SOL    HW236828   4.244   2.624   2.186
 8496SOL     OW36829   4.531   2.467   3.327
 8496SOL    HW136830   4.484   2.464   3.416
 8496SOL    HW236831   4.480   2.412   3.261
 8497SOL     OW36832   4.697   2.752   3.434
 8497SOL    HW136833   4.743   2.668   3.405
 8497SOL    HW236834   4.641   2.786   3.359
 8498SOL     OW36835   4.715   2.272   3.104
 8498SOL    HW136836   4.638   2.306   3.158
 8498SOL    HW236837   4.681   2.221   3.025
 8499SOL     OW36838   3.800   2.673   2.651
 8499SOL    HW136839   3.899   2.661   2.660
 8499SOL    HW236840   3.776   2.768   2.672
 8500SOL     OW36841   3.854   3.683   3.433
 8500SOL    HW136842   3.844   3.668   3.532
 8500SOL    HW236843   3.768   3.719   3.397
 8501SOL     OW36844   4.589   2.210   2.057
 8501SOL    HW136845   4.648   2.273   2.008
 8501SOL    HW236846   4.608   2.116   2.028
 8502SOL     OW36847   4.274   2.058   2.747
 8502SOL    HW136848   4.269   2.053   2.847
 8502SOL    HW236849   4.276   2.154   2.718
 8503SOL     OW36850   4.732   3.318   2.339
 8503SOL    HW136851   4.686   3.390   2.287
 8503SOL    HW236852   4.728   3.338   2.437
 8504SOL     OW36853   4.075   3.663   2.715
 8504SOL    HW136854   4.125   3.577   2.721
 8504SOL    HW236855   4.140   3.740   2.712
 8505SOL     OW36856   4.185   3.128   3.589
 8505SOL    HW136857   4.135   3.129   3.503
 8505SOL    HW236858   4.122   3.110   3.665
 8506SOL     OW36859   3.926   2.147   3.360
 8506SOL    HW136860   3.846   2.207   3.347
 8506SOL    HW236861   3.916   2.098   3.446
 8507SOL     OW36862   4.188   3.605   2.185
 8507SOL    HW136863   4.221   3.644   2.271
 8507SOL    HW236864   4.264   3.598   2.120
 8508SOL     OW36865   3.973   3.647   3.103
 8508SOL    HW136866   4.030   3.582   3.153
 8508SOL    HW236867   3.957   3.614   3.010
 8509SOL     OW36868   4.106   2.562   2.342
 8509SOL    HW136869   4.151   2.472   2.339
 8509SOL    HW236870   4.012   2.551   2.375
 8510SOL     OW36871   4.338   1.984   1.979
 8510SOL    HW136872   4.436   1.962   1.986
 8510SOL    HW236873   4.307   1.967   1.886
 8511SOL     OW36874   4.505   2.126   3.611
 8511SOL    HW136875   4.572   2.065   3.654
 8511SOL    HW236876   4.432   2.145   3.676
 8512SOL     OW36877   4.612   3.376   3.057
 8512SOL    HW136878   4.589   3.351   2.963
 8512SOL    HW236879   4.673   3.307   3.096
 8513SOL     OW36880   4.527   3.264   2.786
 8513SOL    HW136881   4.617   3.278   2.744
 8513SOL    HW236882   4.456   3.266   2.715
 8514SOL     OW36883   4.646   2.365   2.761
 8514SOL    HW136884   4.621   2.356   2.665
 8514SOL    HW236885   4.694   2.283   2.792
 8515SOL     OW36886   4.263   1.926   2.374
 8515SOL    HW136887   4.182   1.927   2.432
 8515SOL    HW236888   4.266   2.009   2.319
 8516SOL     OW36889   4.021   1.897   2.033
 8516SOL    HW136890   4.070   1.981   2.012
 8516SOL    HW236891   4.083   1.832   2.078
 8517SOL     OW36892   4.659   2.098   2.342
 8517SOL    HW136893   4.611   2.139   2.264
 8517SOL    HW236894   4.758   2.096   2.323
 8518SOL     OW36895   4.951   3.432   2.655
 8518SOL    HW136896   4.972   3.506   2.590
 8518SOL    HW236897   5.019   3.432   2.728
 8519SOL     OW36898   4.183   3.014   2.603
 8519SOL    HW136899   4.112   2.987   2.668
 8519SOL    HW236900   4.157   2.986   2.510
 8520SOL     OW36901   4.756   2.411   1.878
 8520SOL    HW136902   4.715   2.493   1.839
 8520SOL    HW236903   4.820   2.437   1.951
 8521SOL     OW36904   3.802   2.418   3.248
 8521SOL    HW136905   3.894   2.417   3.207
 8521SOL    HW236906   3.796   2.492   3.315
 8522SOL     OW36907   4.285   2.084   3.009
 8522SOL    HW136908   4.323   2.000   3.046
 8522SOL    HW236909   4.197   2.103   3.053
 8523SOL     OW36910   4.590   2.316   2.504
 8523SOL    HW136911   4.558   2.388   2.442
 8523SOL    HW236912   4.614   2.235   2.451
 8524SOL     OW36913   4.741   1.901   2.615
 8524SOL    HW136914   4.669   1.906   2.546
 8524SOL    HW236915   4.717   1.832   2.684
 8525SOL     OW36916   4.212   3.247   2.036
 8525SOL    HW136917   4.125   3.232   2.083
 8525SOL    HW236918   4.195   3.273   1.941
 8526SOL     OW36919   4.251   2.118   2.190
 8526SOL    HW136920   4.278   2.059   2.115
 8526SOL    HW236921   4.251   2.213   2.159
 8527SOL     OW36922   4.639   1.951   3.264
 8527SOL    HW136923   4.664   1.931   3.169
 8527SOL    HW236924   4.711   2.007   3.306
 8528SOL     OW36925   4.704   2.978   3.581
 8528SOL    HW136926   4.605   2.984   3.591
 8528SOL    HW236927   4.727   2.898   3.525
 8529SOL     OW36928   4.429   2.912   2.230
 8529SOL    HW136929   4.415   2.919   2.329
 8529SOL    HW236930   4.513   2.861   2.212
 8530SOL     OW36931   4.134   2.675   3.113
 8530SOL    HW136932   4.220   2.687   3.163
 8530SOL    HW236933   4.092   2.588   3.140
 8531SOL     OW36934   3.788   3.426   3.193
 8531SOL    HW136935   3.742   3.508   3.159
 8531SOL    HW236936   3.886   3.445   3.202
 8532SOL     OW36937   4.091   2.962   2.363
 8532SOL    HW136938   4.084   3.045   2.307
 8532SOL    HW236939   4.095   2.882   2.303
 8533SOL     OW36940   4.290   2.399   2.727
 8533SOL    HW136941   4.302   2.465   2.653
 8533SOL    HW236942   4.336   2.433   2.810
 8534SOL     OW36943   4.078   3.372   3.191
 8534SOL    HW136944   4.057   3.328   3.104
 8534SOL    HW236945   4.175   3.398   3.194
 8535SOL     OW36946   4.126   2.613   3.460
 8535SOL    HW136947   4.194   2.668   3.413
 8535SOL    HW236948   4.166   2.525   3.487
 8536SOL     OW36949   4.737   1.967   3.632
 8536SOL    HW136950   4.743   2.052   3.580
 8536SOL    HW236951   4.769   1.891   3.575
 8537SOL     OW36952   4.228   1.912   3.602
 8537SOL    HW136953   4.186   1.855   3.532
 8537SOL    HW236954   4.162   1.981   3.634
 8538SOL     OW36955   4.297   2.732   2.891
 8538SOL    HW136956   4.341   2.821   2.882
 8538SOL    HW236957   4.234   2.732   2.968
 8539SOL     OW36958   4.933   2.387   2.137
 8539SOL    HW136959   4.946   2.303   2.191
 8539SOL    HW236960   4.904   2.461   2.197
 8540SOL     OW36961   4.031   2.075   3.093
 8540SOL    HW136962   4.008   2.112   3.183
 8540SOL    HW236963   4.001   1.980   3.087
 8541SOL     OW36964   3.761   3.172   3.144
 8541SOL    HW136965   3.814   3.123   3.212
 8541SOL    HW236966   3.783   3.270   3.149
 8542SOL     OW36967   4.456   2.496   2.926
 8542SOL    HW136968   4.515   2.470   2.850
 8542SOL    HW236969   4.428   2.592   2.915
 8543SOL     OW36970   4.031   1.925   2.480
 8543SOL    HW136971   4.020   2.019   2.513
 8543SOL    HW236972   4.026   1.862   2.557
 8544SOL     OW36973   4.747   2.628   2.828
 8544SOL    HW136974   4.762   2.649   2.924
 8544SOL    HW236975   4.717   2.533   2.819
 8545SOL     OW36976   4.704   3.435   3.562
 8545SOL    HW136977   4.684   3.479   3.474
 8545SOL    HW236978   4.743   3.344   3.546
 8546SOL     OW36979   4.074   2.760   3.666
 8546SOL    HW136980   4.150   2.804   3.714
 8546SOL    HW236981   4.109   2.713   3.584
 8547SOL     OW36982   4.043   2.672   2.811
 8547SOL    HW136983   4.136   2.708   2.816
 8547SOL    HW236984   4.037   2.587   2.863
 8548SOL     OW36985   4.063   2.371   2.868
 8548SOL    HW136986   4.011   2.288   2.851
 8548SOL    HW236987   4.140   2.376   2.804
 8549SOL     OW36988   3.812   3.663   2.789
 8549SOL    HW136989   3.770   3.577   2.762
 8549SOL    HW236990   3.906   3.666   2.755
 8550SOL     OW36991   4.228   3.430   2.772
 8550SOL    HW136992   4.294   3.504   2.781
 8550SOL    HW236993   4.272   3.351   2.730
 8551SOL     OW36994   4.726   2.658   3.100
 8551SOL    HW136995   4.767   2.626   3.186
 8551SOL    HW236996   4.630   2.631   3.097
 8552SOL     OW36997   3.764   2.406   2.976
 8552SOL    HW136998   3.849   2.373   2.935
 8552SOL    HW236999   3.777   2.421   3.074
 8553SOL     OW37000   3.913   2.382   3.584
 8553SOL    HW137001   3.972   2.342   3.514
 8553SOL    HW237002   3.855   2.453   3.543
 8554SOL     OW37003   4.539   2.434   2.187
 8554SOL    HW137004   4.546   2.345   2.141
 8554SOL    HW237005   4.445   2.468   2.179
 8555SOL     OW37006   3.976   3.426   3.606
 8555SOL    HW137007   3.946   3.483   3.682
 8555SOL    HW237008   3.969   3.329   3.632
 8556SOL     OW37009   4.395   2.326   3.131
 8556SOL    HW137010   4.361   2.237   3.101
 8556SOL    HW237011   4.421   2.380   3.051
 8557SOL     OW37012   4.654   3.540   3.327
 8557SOL    HW137013   4.630   3.522   3.232
 8557SOL    HW237014   4.684   3.634   3.337
 8558SOL     OW37015   4.197   2.362   2.053
 8558SOL    HW137016   4.258   2.442   2.057
 8558SOL    HW237017   4.102   2.393   2.060
 8559SOL     OW37018   3.883   2.999   3.328
 8559SOL    HW137019   3.905   2.938   3.404
 8559SOL    HW237020   3.893   2.950   3.242
 8560SOL     OW37021   3.807   3.120   2.884
 8560SOL    HW137022   3.802   3.119   2.984
 8560SOL    HW237023   3.724   3.079   2.846
 8561SOL     OW37024   4.412   3.524   3.578
 8561SOL    HW137025   4.356   3.605   3.587
 8561SOL    HW237026   4.464   3.528   3.492
 8562SOL     OW37027   3.854   3.656   3.713
 8562SOL    HW137028   3.813   3.582   3.766
 8562SOL    HW237029   3.918   3.707   3.771
 8563SOL     OW37030   5.004   2.789   2.534
 8563SOL    HW137031   5.064   2.708   2.536
 8563SOL    HW237032   5.044   2.858   2.474
 8564SOL     OW37033   4.554   3.135   3.284
 8564SOL    HW137034   4.549   3.168   3.379
 8564SOL    HW237035   4.468   3.154   3.238
 8565SOL     OW37036   4.396   3.478   2.016
 8565SOL    HW137037   4.405   3.488   1.917
 8565SOL    HW237038   4.356   3.389   2.037
 8566SOL     OW37039   3.987   2.188   2.582
 8566SOL    HW137040   3.908   2.239   2.548
 8566SOL    HW237041   3.978   2.173   2.680
 8567SOL     OW37042   4.546   2.864   3.234
 8567SOL    HW137043   4.586   2.863   3.142
 8567SOL    HW237044   4.556   2.956   3.274
 8568SOL     OW37045   4.640   2.772   2.153
 8568SOL    HW137046   4.703   2.810   2.085
 8568SOL    HW237047   4.680   2.689   2.192
 8569SOL     OW37048   4.096   3.150   3.352
 8569SOL    HW137049   4.083   3.243   3.318
 8569SOL    HW237050   4.012   3.098   3.339
 8570SOL     OW37051   4.763   2.960   2.558
 8570SOL    HW137052   4.693   2.913   2.612
 8570SOL    HW237053   4.822   2.892   2.515
 8571SOL     OW37054   4.738   2.098   2.833
 8571SOL    HW137055   4.730   2.062   2.740
 8571SOL    HW237056   4.736   2.022   2.898
 8572SOL     OW37057   4.314   3.349   2.353
 8572SOL    HW137058   4.356   3.291   2.283
 8572SOL    HW237059   4.270   3.428   2.309
 8573SOL     OW37060   3.979   3.210   2.152
 8573SOL    HW137061   3.883   3.211   2.125
 8573SOL    HW237062   3.991   3.263   2.236
 8574SOL     OW37063   3.829   2.875   3.588
 8574SOL    HW137064   3.752   2.842   3.642
 8574SOL    HW237065   3.914   2.845   3.630
 8575SOL     OW37066   4.396   2.065   3.351
 8575SOL    HW137067   4.486   2.049   3.311
 8575SOL    HW237068   4.404   2.070   3.450
 8576SOL     OW37069   3.796   2.028   2.180
 8576SOL    HW137070   3.779   2.111   2.126
 8576SOL    HW237071   3.886   1.991   2.158
 8577SOL     OW37072   4.337   2.704   3.293
 8577SOL    HW137073   4.393   2.785   3.276
 8577SOL    HW237074   4.396   2.624   3.296
 8578SOL     OW37075   4.440   2.427   3.570
 8578SOL    HW137076   4.459   2.492   3.644
 8578SOL    HW237077   4.500   2.347   3.579
 8579SOL     OW37078   4.114   3.603   3.422
 8579SOL    HW137079   4.023   3.644   3.420
 8579SOL    HW237080   4.107   3.509   3.454
 8580SOL     OW37081   4.949   2.187   2.311
 8580SOL    HW137082   5.014   2.113   2.300
 8580SOL    HW237083   4.969   2.237   2.395
 8581SOL     OW37084   4.318   2.607   2.514
 8581SOL    HW137085   4.368   2.692   2.495
 8581SOL    HW237086   4.230   2.609   2.466
 8582SOL     OW37087   4.583   3.236   1.878
 8582SOL    HW137088   4.537   3.251   1.966
 8582SOL    HW237089   4.627   3.321   1.848
 8583SOL     OW37090   4.385   3.652   2.815
 8583SOL    HW137091   4.339   3.740   2.802
 8583SOL    HW237092   4.484   3.664   2.808
 8584SOL     OW37093   4.583   2.818   2.723
 8584SOL    HW137094   4.637   2.749   2.771
 8584SOL    HW237095   4.551   2.887   2.789
 8585SOL     OW37096   3.945   3.176   3.706
 8585SOL    HW137097   3.880   3.103   3.685
 8585SOL    HW237098   3.949   3.190   3.804
 8586SOL     OW37099   3.803   3.102   2.515
 8586SOL    HW137100   3.802   3.055   2.603
 8586SOL    HW237101   3.885   3.074   2.464
 8587SOL     OW37102   4.396   3.253   3.486
 8587SOL    HW137103   4.318   3.203   3.524
 8587SOL    HW237104   4.393   3.348   3.517
 8588SOL     OW37105   4.152   2.286   2.382
 8588SOL    HW137106   4.182   2.214   2.320
 8588SOL    HW237107   4.113   2.246   2.465
 8589SOL     OW37108   4.041   2.409   3.142
 8589SOL    HW137109   4.079   2.350   3.214
 8589SOL    HW237110   4.081   2.383   3.054
 8590SOL     OW37111   4.536   3.448   2.549
 8590SOL    HW137112   4.568   3.458   2.455
 8590SOL    HW237113   4.457   3.386   2.551
 8591SOL     OW37114   4.725   1.896   3.016
 8591SOL    HW137115   4.662   1.824   2.985
 8591SOL    HW237116   4.818   1.860   3.016
 8592SOL     OW37117   4.494   3.192   2.163
 8592SOL    HW137118   4.448   3.105   2.180
 8592SOL    HW237119   4.585   3.189   2.204
 8593SOL     OW37120   4.342   3.429   3.146
 8593SOL    HW137121   4.337   3.511   3.203
 8593SOL    HW237122   4.431   3.426   3.101
 8594SOL     OW37123   4.599   3.508   2.199
 8594SOL    HW137124   4.522   3.473   2.145
 8594SOL    HW237125   4.567   3.579   2.261
 8595SOL     OW37126   3.954   2.490   3.837
 8595SOL    HW137127   3.861   2.488   3.874
 8595SOL    HW237128   3.955   2.451   3.745
 8596SOL     OW37129   3.949   2.137   4.720
 8596SOL    HW137130   3.984   2.120   4.812
 8596SOL    HW237131   3.861   2.092   4.708
 8597SOL     OW37132   3.743   2.230   4.371
 8597SOL    HW137133   3.661   2.273   4.410
 8597SOL    HW237134   3.715   2.157   4.308
 8598SOL     OW37135   4.293   3.137   4.889
 8598SOL    HW137136   4.200   3.130   4.852
 8598SOL    HW237137   4.304   3.226   4.933
 8599SOL     OW37138   4.492   3.006   4.747
 8599SOL    HW137139   4.414   3.023   4.807
 8599SOL    HW237140   4.526   3.093   4.711
 8600SOL     OW37141   4.574   2.660   5.547
 8600SOL    HW137142   4.570   2.736   5.612
 8600SOL    HW237143   4.596   2.696   5.456
 8601SOL     OW37144   4.409   2.874   4.389
 8601SOL    HW137145   4.478   2.858   4.459
 8601SOL    HW237146   4.336   2.931   4.427
 8602SOL     OW37147   4.410   3.023   5.527
 8602SOL    HW137148   4.470   3.102   5.541
 8602SOL    HW237149   4.324   3.054   5.486
 8603SOL     OW37150   4.059   3.297   4.785
 8603SOL    HW137151   3.981   3.266   4.732
 8603SOL    HW237152   4.117   3.355   4.728
 8604SOL     OW37153   4.162   2.254   5.223
 8604SOL    HW137154   4.244   2.198   5.232
 8604SOL    HW237155   4.081   2.196   5.227
 8605SOL     OW37156   3.955   3.575   4.207
 8605SOL    HW137157   3.989   3.652   4.261
 8605SOL    HW237158   3.999   3.575   4.117
 8606SOL     OW37159   3.954   3.296   4.262
 8606SOL    HW137160   3.928   3.392   4.262
 8606SOL    HW237161   3.883   3.242   4.307
 8607SOL     OW37162   3.964   2.953   4.610
 8607SOL    HW137163   3.978   2.869   4.662
 8607SOL    HW237164   3.909   3.017   4.665
 8608SOL     OW37165   4.344   3.648   5.163
 8608SOL    HW137166   4.252   3.631   5.198
 8608SOL    HW237167   4.372   3.740   5.189
 8609SOL     OW37168   4.330   2.826   3.847
 8609SOL    HW137169   4.337   2.910   3.793
 8609SOL    HW237170   4.376   2.839   3.935
 8610SOL     OW37171   3.846   2.505   4.287
 8610SOL    HW137172   3.801   2.417   4.304
 8610SOL    HW237173   3.845   2.559   4.371
 8611SOL     OW37174   3.751   3.458   3.841
 8611SOL    HW137175   3.732   3.362   3.862
 8611SOL    HW237176   3.718   3.516   3.916
 8612SOL     OW37177   3.837   2.599   5.321
 8612SOL    HW137178   3.925   2.586   5.366
 8612SOL    HW237179   3.824   2.696   5.299
 8613SOL     OW37180   4.337   3.227   4.450
 8613SOL    HW137181   4.288   3.140   4.459
 8613SOL    HW237182   4.314   3.270   4.363
 8614SOL     OW37183   4.533   1.866   4.226
 8614SOL    HW137184   4.573   1.957   4.217
 8614SOL    HW237185   4.433   1.874   4.232
 8615SOL     OW37186   3.921   2.838   4.988
 8615SOL    HW137187   4.010   2.793   4.974
 8615SOL    HW237188   3.848   2.773   4.969
 8616SOL     OW37189   4.041   2.113   5.525
 8616SOL    HW137190   4.112   2.184   5.531
 8616SOL    HW237191   3.953   2.152   5.553
 8617SOL     OW37192   4.322   2.591   3.994
 8617SOL    HW137193   4.346   2.660   3.926
 8617SOL    HW237194   4.244   2.624   4.048
 8618SOL     OW37195   4.531   2.467   5.189
 8618SOL    HW137196   4.484   2.464   5.278
 8618SOL    HW237197   4.480   2.412   5.123
 8619SOL     OW37198   4.697   2.752   5.296
 8619SOL    HW137199   4.743   2.668   5.267
 8619SOL    HW237200   4.641   2.786   5.221
 8620SOL     OW37201   4.715   2.272   4.966
 8620SOL    HW137202   4.638   2.306   5.020
 8620SOL    HW237203   4.681   2.221   4.887
 8621SOL     OW37204   3.800   2.673   4.513
 8621SOL    HW137205   3.899   2.661   4.522
 8621SOL    HW237206   3.776   2.768   4.534
 8622SOL     OW37207   3.854   3.683   5.295
 8622SOL    HW137208   3.844   3.668   5.394
 8622SOL    HW237209   3.768   3.719   5.259
 8623SOL     OW37210   4.589   2.210   3.919
 8623SOL    HW137211   4.648   2.273   3.870
 8623SOL    HW237212   4.608   2.116   3.890
 8624SOL     OW37213   4.274   2.058   4.609
 8624SOL    HW137214   4.269   2.053   4.709
 8624SOL    HW237215   4.276   2.154   4.580
 8625SOL     OW37216   4.732   3.318   4.201
 8625SOL    HW137217   4.686   3.390   4.149
 8625SOL    HW237218   4.728   3.338   4.299
 8626SOL     OW37219   4.075   3.663   4.577
 8626SOL    HW137220   4.125   3.577   4.583
 8626SOL    HW237221   4.140   3.740   4.574
 8627SOL     OW37222   4.045   2.805   3.966
 8627SOL    HW137223   4.127   2.844   3.924
 8627SOL    HW237224   4.018   2.723   3.917
 8628SOL     OW37225   4.185   3.128   5.451
 8628SOL    HW137226   4.135   3.129   5.365
 8628SOL    HW237227   4.122   3.110   5.527
 8629SOL     OW37228   3.926   2.147   5.222
 8629SOL    HW137229   3.846   2.207   5.209
 8629SOL    HW237230   3.916   2.098   5.308
 8630SOL     OW37231   4.188   3.605   4.047
 8630SOL    HW137232   4.221   3.644   4.133
 8630SOL    HW237233   4.264   3.598   3.982
 8631SOL     OW37234   3.973   3.647   4.965
 8631SOL    HW137235   4.030   3.582   5.015
 8631SOL    HW237236   3.957   3.614   4.872
 8632SOL     OW37237   4.106   2.562   4.204
 8632SOL    HW137238   4.151   2.472   4.201
 8632SOL    HW237239   4.012   2.551   4.237
 8633SOL     OW37240   4.338   1.984   3.841
 8633SOL    HW137241   4.436   1.962   3.848
 8633SOL    HW237242   4.307   1.967   3.748
 8634SOL     OW37243   4.505   2.126   5.473
 8634SOL    HW137244   4.572   2.065   5.516
 8634SOL    HW237245   4.432   2.145   5.538
 8635SOL     OW37246   4.612   3.376   4.919
 8635SOL    HW137247   4.589   3.351   4.825
 8635SOL    HW237248   4.673   3.307   4.958
 8636SOL     OW37249   4.527   3.264   4.648
 8636SOL    HW137250   4.617   3.278   4.606
 8636SOL    HW237251   4.456   3.266   4.577
 8637SOL     OW37252   4.646   2.365   4.623
 8637SOL    HW137253   4.621   2.356   4.527
 8637SOL    HW237254   4.694   2.283   4.654
 8638SOL     OW37255   4.263   1.926   4.236
 8638SOL    HW137256   4.182   1.927   4.294
 8638SOL    HW237257   4.266   2.009   4.181
 8639SOL     OW37258   4.021   1.897   3.895
 8639SOL    HW137259   4.070   1.981   3.874
 8639SOL    HW237260   4.083   1.832   3.940
 8640SOL     OW37261   4.659   2.098   4.204
 8640SOL    HW137262   4.611   2.139   4.126
 8640SOL    HW237263   4.758   2.096   4.185
 8641SOL     OW37264   4.951   3.432   4.517
 8641SOL    HW137265   4.972   3.506   4.452
 8641SOL    HW237266   5.019   3.432   4.590
 8642SOL     OW37267   4.183   3.014   4.465
 8642SOL    HW137268   4.112   2.987   4.530
 8642SOL    HW237269   4.157   2.986   4.372
 8643SOL     OW37270   4.756   2.411   3.740
 8643SOL    HW137271   4.715   2.493   3.701
 8643SOL    HW237272   4.820   2.437   3.813
 8644SOL     OW37273   3.802   2.418   5.110
 8644SOL    HW137274   3.894   2.417   5.069
 8644SOL    HW237275   3.796   2.492   5.177
 8645SOL     OW37276   4.285   2.084   4.871
 8645SOL    HW137277   4.323   2.000   4.908
 8645SOL    HW237278   4.197   2.103   4.915
 8646SOL     OW37279   4.590   2.316   4.366
 8646SOL    HW137280   4.558   2.388   4.304
 8646SOL    HW237281   4.614   2.235   4.313
 8647SOL     OW37282   4.741   1.901   4.477
 8647SOL    HW137283   4.669   1.906   4.408
 8647SOL    HW237284   4.717   1.832   4.546
 8648SOL     OW37285   4.212   3.247   3.898
 8648SOL    HW137286   4.125   3.232   3.945
 8648SOL    HW237287   4.195   3.273   3.803
 8649SOL     OW37288   4.251   2.118   4.052
 8649SOL    HW137289   4.278   2.059   3.977
 8649SOL    HW237290   4.251   2.213   4.021
 8650SOL     OW37291   4.639   1.951   5.126
 8650SOL    HW137292   4.664   1.931   5.031
 8650SOL    HW237293   4.711   2.007   5.168
 8651SOL     OW37294   4.704   2.978   5.443
 8651SOL    HW137295   4.605   2.984   5.453
 8651SOL    HW237296   4.727   2.898   5.387
 8652SOL     OW37297   4.429   2.912   4.092
 8652SOL    HW137298   4.415   2.919   4.191
 8652SOL    HW237299   4.513   2.861   4.074
 8653SOL     OW37300   4.134   2.675   4.975
 8653SOL    HW137301   4.220   2.687   5.025
 8653SOL    HW237302   4.092   2.588   5.002
 8654SOL     OW37303   3.788   3.426   5.055
 8654SOL    HW137304   3.742   3.508   5.021
 8654SOL    HW237305   3.886   3.445   5.064
 8655SOL     OW37306   4.091   2.962   4.225
 8655SOL    HW137307   4.084   3.045   4.169
 8655SOL    HW237308   4.095   2.882   4.165
 8656SOL     OW37309   4.290   2.399   4.589
 8656SOL    HW137310   4.302   2.465   4.515
 8656SOL    HW237311   4.336   2.433   4.672
 8657SOL     OW37312   4.078   3.372   5.053
 8657SOL    HW137313   4.057   3.328   4.966
 8657SOL    HW237314   4.175   3.398   5.056
 8658SOL     OW37315   4.126   2.613   5.322
 8658SOL    HW137316   4.194   2.668   5.275
 8658SOL    HW237317   4.166   2.525   5.349
 8659SOL     OW37318   4.737   1.967   5.494
 8659SOL    HW137319   4.743   2.052   5.442
 8659SOL    HW237320   4.769   1.891   5.437
 8660SOL     OW37321   4.228   1.912   5.464
 8660SOL    HW137322   4.186   1.855   5.394
 8660SOL    HW237323   4.162   1.981   5.496
 8661SOL     OW37324   4.297   2.732   4.753
 8661SOL    HW137325   4.341   2.821   4.744
 8661SOL    HW237326   4.234   2.732   4.830
 8662SOL     OW37327   4.933   2.387   3.999
 8662SOL    HW137328   4.946   2.303   4.053
 8662SOL    HW237329   4.904   2.461   4.059
 8663SOL     OW37330   4.031   2.075   4.955
 8663SOL    HW137331   4.008   2.112   5.045
 8663SOL    HW237332   4.001   1.980   4.949
 8664SOL     OW37333   3.761   3.172   5.006
 8664SOL    HW137334   3.814   3.123   5.074
 8664SOL    HW237335   3.783   3.270   5.011
 8665SOL     OW37336   4.456   2.496   4.788
 8665SOL    HW137337   4.515   2.470   4.712
 8665SOL    HW237338   4.428   2.592   4.777
 8666SOL     OW37339   4.031   1.925   4.342
 8666SOL    HW137340   4.020   2.019   4.375
 8666SOL    HW237341   4.026   1.862   4.419
 8667SOL     OW37342   4.747   2.628   4.690
 8667SOL    HW137343   4.762   2.649   4.786
 8667SOL    HW237344   4.717   2.533   4.681
 8668SOL     OW37345   4.704   3.435   5.424
 8668SOL    HW137346   4.684   3.479   5.336
 8668SOL    HW237347   4.743   3.344   5.408
 8669SOL     OW37348   4.074   2.760   5.528
 8669SOL    HW137349   4.150   2.804   5.576
 8669SOL    HW237350   4.109   2.713   5.446
 8670SOL     OW37351   4.043   2.672   4.673
 8670SOL    HW137352   4.136   2.708   4.678
 8670SOL    HW237353   4.037   2.587   4.725
 8671SOL     OW37354   4.063   2.371   4.730
 8671SOL    HW137355   4.011   2.288   4.713
 8671SOL    HW237356   4.140   2.376   4.666
 8672SOL     OW37357   3.732   3.188   3.924
 8672SOL    HW137358   3.639   3.209   3.893
 8672SOL    HW237359   3.742   3.089   3.937
 8673SOL     OW37360   3.812   3.663   4.651
 8673SOL    HW137361   3.770   3.577   4.624
 8673SOL    HW237362   3.906   3.666   4.617
 8674SOL     OW37363   4.228   3.430   4.634
 8674SOL    HW137364   4.294   3.504   4.643
 8674SOL    HW237365   4.272   3.351   4.592
 8675SOL     OW37366   4.726   2.658   4.962
 8675SOL    HW137367   4.767   2.626   5.048
 8675SOL    HW237368   4.630   2.631   4.959
 8676SOL     OW37369   3.764   2.406   4.838
 8676SOL    HW137370   3.849   2.373   4.797
 8676SOL    HW237371   3.777   2.421   4.936
 8677SOL     OW37372   3.913   2.382   5.446
 8677SOL    HW137373   3.972   2.342   5.376
 8677SOL    HW237374   3.855   2.453   5.405
 8678SOL     OW37375   4.539   2.434   4.049
 8678SOL    HW137376   4.546   2.345   4.003
 8678SOL    HW237377   4.445   2.468   4.041
 8679SOL     OW37378   3.976   3.426   5.468
 8679SOL    HW137379   3.946   3.483   5.544
 8679SOL    HW237380   3.969   3.329   5.494
 8680SOL     OW37381   4.395   2.326   4.993
 8680SOL    HW137382   4.361   2.237   4.963
 8680SOL    HW237383   4.421   2.380   4.913
 8681SOL     OW37384   4.654   3.540   5.189
 8681SOL    HW137385   4.630   3.522   5.094
 8681SOL    HW237386   4.684   3.634   5.199
 8682SOL     OW37387   4.197   2.362   3.915
 8682SOL    HW137388   4.258   2.442   3.919
 8682SOL    HW237389   4.102   2.393   3.922
 8683SOL     OW37390   3.883   2.999   5.190
 8683SOL    HW137391   3.905   2.938   5.266
 8683SOL    HW237392   3.893   2.950   5.104
 8684SOL     OW37393   3.807   3.120   4.746
 8684SOL    HW137394   3.802   3.119   4.846
 8684SOL    HW237395   3.724   3.079   4.708
 8685SOL     OW37396   4.412   3.524   5.440
 8685SOL    HW137397   4.356   3.605   5.449
 8685SOL    HW237398   4.464   3.528   5.354
 8686SOL     OW37399   3.854   3.656   5.575
 8686SOL    HW137400   3.813   3.582   5.628
 8686SOL    HW237401   3.918   3.707   5.633
 8687SOL     OW37402   5.004   2.789   4.396
 8687SOL    HW137403   5.064   2.708   4.398
 8687SOL    HW237404   5.044   2.858   4.336
 8688SOL     OW37405   4.554   3.135   5.146
 8688SOL    HW137406   4.549   3.168   5.241
 8688SOL    HW237407   4.468   3.154   5.100
 8689SOL     OW37408   4.396   3.478   3.878
 8689SOL    HW137409   4.405   3.488   3.779
 8689SOL    HW237410   4.356   3.389   3.899
 8690SOL     OW37411   3.987   2.188   4.444
 8690SOL    HW137412   3.908   2.239   4.410
 8690SOL    HW237413   3.978   2.173   4.542
 8691SOL     OW37414   4.546   2.864   5.096
 8691SOL    HW137415   4.586   2.863   5.004
 8691SOL    HW237416   4.556   2.956   5.136
 8692SOL     OW37417   4.640   2.772   4.015
 8692SOL    HW137418   4.703   2.810   3.947
 8692SOL    HW237419   4.680   2.689   4.054
 8693SOL     OW37420   4.096   3.150   5.214
 8693SOL    HW137421   4.083   3.243   5.180
 8693SOL    HW237422   4.012   3.098   5.201
 8694SOL     OW37423   4.763   2.960   4.420
 8694SOL    HW137424   4.693   2.913   4.474
 8694SOL    HW237425   4.822   2.892   4.377
 8695SOL     OW37426   4.738   2.098   4.695
 8695SOL    HW137427   4.730   2.062   4.602
 8695SOL    HW237428   4.736   2.022   4.760
 8696SOL     OW37429   4.314   3.349   4.215
 8696SOL    HW137430   4.356   3.291   4.145
 8696SOL    HW237431   4.270   3.428   4.171
 8697SOL     OW37432   3.979   3.210   4.014
 8697SOL    HW137433   3.883   3.211   3.987
 8697SOL    HW237434   3.991   3.263   4.098
 8698SOL     OW37435   3.829   2.875   5.450
 8698SOL    HW137436   3.752   2.842   5.504
 8698SOL    HW237437   3.914   2.845   5.492
 8699SOL     OW37438   4.396   2.065   5.213
 8699SOL    HW137439   4.486   2.049   5.173
 8699SOL    HW237440   4.404   2.070   5.312
 8700SOL     OW37441   3.799   2.207   3.757
 8700SOL    HW137442   3.707   2.179   3.728
 8700SOL    HW237443   3.830   2.284   3.701
 8701SOL     OW37444   3.796   2.028   4.042
 8701SOL    HW137445   3.779   2.111   3.988
 8701SOL    HW237446   3.886   1.991   4.020
 8702SOL     OW37447   4.337   2.704   5.155
 8702SOL    HW137448   4.393   2.785   5.138
 8702SOL    HW237449   4.396   2.624   5.158
 8703SOL     OW37450   4.440   2.427   5.432
 8703SOL    HW137451   4.459   2.492   5.506
 8703SOL    HW237452   4.500   2.347   5.441
 8704SOL     OW37453   4.114   3.603   5.284
 8704SOL    HW137454   4.023   3.644   5.282
 8704SOL    HW237455   4.107   3.509   5.316
 8705SOL     OW37456   4.949   2.187   4.173
 8705SOL    HW137457   5.014   2.113   4.162
 8705SOL    HW237458   4.969   2.237   4.257
 8706SOL     OW37459   4.318   2.607   4.376
 8706SOL    HW137460   4.368   2.692   4.357
 8706SOL    HW237461   4.230   2.609   4.328
 8707SOL     OW37462   4.583   3.236   3.740
 8707SOL    HW137463   4.537   3.251   3.828
 8707SOL    HW237464   4.627   3.321   3.710
 8708SOL     OW37465   4.385   3.652   4.677
 8708SOL    HW137466   4.339   3.740   4.664
 8708SOL    HW237467   4.484   3.664   4.670
 8709SOL     OW37468   4.583   2.818   4.585
 8709SOL    HW137469   4.637   2.749   4.633
 8709SOL    HW237470   4.551   2.887   4.651
 8710SOL     OW37471   3.945   3.176   5.568
 8710SOL    HW137472   3.880   3.103   5.547
 8710SOL    HW237473   3.949   3.190   5.666
 8711SOL     OW37474   3.803   3.102   4.377
 8711SOL    HW137475   3.802   3.055   4.465
 8711SOL    HW237476   3.885   3.074   4.326
 8712SOL     OW37477   4.396   3.253   5.348
 8712SOL    HW137478   4.318   3.203   5.386
 8712SOL    HW237479   4.393   3.348   5.379
 8713SOL     OW37480   4.152   2.286   4.244
 8713SOL    HW137481   4.182   2.214   4.182
 8713SOL    HW237482   4.113   2.246   4.327
 8714SOL     OW37483   4.041   2.409   5.004
 8714SOL    HW137484   4.079   2.350   5.076
 8714SOL    HW237485   4.081   2.383   4.916
 8715SOL     OW37486   4.536   3.448   4.411
 8715SOL    HW137487   4.568   3.458   4.317
 8715SOL    HW237488   4.457   3.386   4.413
 8716SOL     OW37489   4.725   1.896   4.878
 8716SOL    HW137490   4.662   1.824   4.847
 8716SOL    HW237491   4.818   1.860   4.878
 8717SOL     OW37492   4.494   3.192   4.025
 8717SOL    HW137493   4.448   3.105   4.042
 8717SOL    HW237494   4.585   3.189   4.066
 8718SOL     OW37495   4.342   3.429   5.008
 8718SOL    HW137496   4.337   3.511   5.065
 8718SOL    HW237497   4.431   3.426   4.963
 8719SOL     OW37498   3.763   2.939   4.024
 8719SOL    HW137499   3.862   2.928   4.015
 8719SOL    HW237500   3.723   2.853   4.056
 8720SOL     OW37501   4.599   3.508   4.061
 8720SOL    HW137502   4.522   3.473   4.007
 8720SOL    HW237503   4.567   3.579   4.123
 8721SOL     OW37504   3.954   2.490   5.699
 8721SOL    HW137505   3.861   2.488   5.736
 8721SOL    HW237506   3.955   2.451   5.607
 8722SOL     OW37507   3.949   2.137   6.582
 8722SOL    HW137508   3.984   2.120   6.674
 8722SOL    HW237509   3.861   2.092   6.570
 8723SOL     OW37510   3.743   2.230   6.233
 8723SOL    HW137511   3.661   2.273   6.272
 8723SOL    HW237512   3.715   2.157   6.170
 8724SOL     OW37513   4.293   3.137   6.751
 8724SOL    HW137514   4.200   3.130   6.714
 8724SOL    HW237515   4.304   3.226   6.795
 8725SOL     OW37516   4.492   3.006   6.609
 8725SOL    HW137517   4.414   3.023   6.669
 8725SOL    HW237518   4.526   3.093   6.573
 8726SOL     OW37519   4.574   2.660   7.409
 8726SOL    HW137520   4.570   2.736   7.474
 8726SOL    HW237521   4.596   2.696   7.318
 8727SOL     OW37522   4.409   2.874   6.251
 8727SOL    HW137523   4.478   2.858   6.321
 8727SOL    HW237524   4.336   2.931   6.289
 8728SOL     OW37525   4.410   3.023   7.389
 8728SOL    HW137526   4.470   3.102   7.403
 8728SOL    HW237527   4.324   3.054   7.348
 8729SOL     OW37528   4.059   3.297   6.647
 8729SOL    HW137529   3.981   3.266   6.594
 8729SOL    HW237530   4.117   3.355   6.590
 8730SOL     OW37531   4.162   2.254   7.085
 8730SOL    HW137532   4.244   2.198   7.094
 8730SOL    HW237533   4.081   2.196   7.089
 8731SOL     OW37534   3.955   3.575   6.069
 8731SOL    HW137535   3.989   3.652   6.123
 8731SOL    HW237536   3.999   3.575   5.979
 8732SOL     OW37537   3.954   3.296   6.124
 8732SOL    HW137538   3.928   3.392   6.124
 8732SOL    HW237539   3.883   3.242   6.169
 8733SOL     OW37540   3.964   2.953   6.472
 8733SOL    HW137541   3.978   2.869   6.524
 8733SOL    HW237542   3.909   3.017   6.527
 8734SOL     OW37543   4.344   3.648   7.025
 8734SOL    HW137544   4.252   3.631   7.060
 8734SOL    HW237545   4.372   3.740   7.051
 8735SOL     OW37546   4.330   2.826   5.709
 8735SOL    HW137547   4.337   2.910   5.655
 8735SOL    HW237548   4.376   2.839   5.797
 8736SOL     OW37549   3.846   2.505   6.149
 8736SOL    HW137550   3.801   2.417   6.166
 8736SOL    HW237551   3.845   2.559   6.233
 8737SOL     OW37552   3.751   3.458   5.703
 8737SOL    HW137553   3.732   3.362   5.724
 8737SOL    HW237554   3.718   3.516   5.778
 8738SOL     OW37555   3.837   2.599   7.183
 8738SOL    HW137556   3.925   2.586   7.228
 8738SOL    HW237557   3.824   2.696   7.161
 8739SOL     OW37558   4.337   3.227   6.312
 8739SOL    HW137559   4.288   3.140   6.321
 8739SOL    HW237560   4.314   3.270   6.225
 8740SOL     OW37561   4.533   1.866   6.088
 8740SOL    HW137562   4.573   1.957   6.079
 8740SOL    HW237563   4.433   1.874   6.094
 8741SOL     OW37564   3.921   2.838   6.850
 8741SOL    HW137565   4.010   2.793   6.836
 8741SOL    HW237566   3.848   2.773   6.831
 8742SOL     OW37567   4.041   2.113   7.387
 8742SOL    HW137568   4.112   2.184   7.393
 8742SOL    HW237569   3.953   2.152   7.415
 8743SOL     OW37570   4.322   2.591   5.856
 8743SOL    HW137571   4.346   2.660   5.788
 8743SOL    HW237572   4.244   2.624   5.910
 8744SOL     OW37573   4.531   2.467   7.051
 8744SOL    HW137574   4.484   2.464   7.140
 8744SOL    HW237575   4.480   2.412   6.985
 8745SOL     OW37576   4.697   2.752   7.158
 8745SOL    HW137577   4.743   2.668   7.129
 8745SOL    HW237578   4.641   2.786   7.083
 8746SOL     OW37579   4.715   2.272   6.828
 8746SOL    HW137580   4.638   2.306   6.882
 8746SOL    HW237581   4.681   2.221   6.749
 8747SOL     OW37582   3.800   2.673   6.375
 8747SOL    HW137583   3.899   2.661   6.384
 8747SOL    HW237584   3.776   2.768   6.396
 8748SOL     OW37585   3.854   3.683   7.157
 8748SOL    HW137586   3.844   3.668   7.256
 8748SOL    HW237587   3.768   3.719   7.121
 8749SOL     OW37588   4.589   2.210   5.781
 8749SOL    HW137589   4.648   2.273   5.732
 8749SOL    HW237590   4.608   2.116   5.752
 8750SOL     OW37591   4.274   2.058   6.471
 8750SOL    HW137592   4.269   2.053   6.571
 8750SOL    HW237593   4.276   2.154   6.442
 8751SOL     OW37594   4.732   3.318   6.063
 8751SOL    HW137595   4.686   3.390   6.011
 8751SOL    HW237596   4.728   3.338   6.161
 8752SOL     OW37597   4.075   3.663   6.439
 8752SOL    HW137598   4.125   3.577   6.445
 8752SOL    HW237599   4.140   3.740   6.436
 8753SOL     OW37600   4.045   2.805   5.828
 8753SOL    HW137601   4.127   2.844   5.786
 8753SOL    HW237602   4.018   2.723   5.779
 8754SOL     OW37603   4.185   3.128   7.313
 8754SOL    HW137604   4.135   3.129   7.227
 8754SOL    HW237605   4.122   3.110   7.389
 8755SOL     OW37606   3.926   2.147   7.084
 8755SOL    HW137607   3.846   2.207   7.071
 8755SOL    HW237608   3.916   2.098   7.170
 8756SOL     OW37609   4.188   3.605   5.909
 8756SOL    HW137610   4.221   3.644   5.995
 8756SOL    HW237611   4.264   3.598   5.844
 8757SOL     OW37612   3.973   3.647   6.827
 8757SOL    HW137613   4.030   3.582   6.877
 8757SOL    HW237614   3.957   3.614   6.734
 8758SOL     OW37615   4.106   2.562   6.066
 8758SOL    HW137616   4.151   2.472   6.063
 8758SOL    HW237617   4.012   2.551   6.099
 8759SOL     OW37618   4.338   1.984   5.703
 8759SOL    HW137619   4.436   1.962   5.710
 8759SOL    HW237620   4.307   1.967   5.610
 8760SOL     OW37621   4.505   2.126   7.335
 8760SOL    HW137622   4.572   2.065   7.378
 8760SOL    HW237623   4.432   2.145   7.400
 8761SOL     OW37624   4.612   3.376   6.781
 8761SOL    HW137625   4.589   3.351   6.687
 8761SOL    HW237626   4.673   3.307   6.820
 8762SOL     OW37627   4.527   3.264   6.510
 8762SOL    HW137628   4.617   3.278   6.468
 8762SOL    HW237629   4.456   3.266   6.439
 8763SOL     OW37630   4.646   2.365   6.485
 8763SOL    HW137631   4.621   2.356   6.389
 8763SOL    HW237632   4.694   2.283   6.516
 8764SOL     OW37633   4.263   1.926   6.098
 8764SOL    HW137634   4.182   1.927   6.156
 8764SOL    HW237635   4.266   2.009   6.043
 8765SOL     OW37636   4.021   1.897   5.757
 8765SOL    HW137637   4.070   1.981   5.736
 8765SOL    HW237638   4.083   1.832   5.802
 8766SOL     OW37639   4.659   2.098   6.066
 8766SOL    HW137640   4.611   2.139   5.988
 8766SOL    HW237641   4.758   2.096   6.047
 8767SOL     OW37642   4.951   3.432   6.379
 8767SOL    HW137643   4.972   3.506   6.314
 8767SOL    HW237644   5.019   3.432   6.452
 8768SOL     OW37645   4.183   3.014   6.327
 8768SOL    HW137646   4.112   2.987   6.392
 8768SOL    HW237647   4.157   2.986   6.234
 8769SOL     OW37648   4.756   2.411   5.602
 8769SOL    HW137649   4.715   2.493   5.563
 8769SOL    HW237650   4.820   2.437   5.675
 8770SOL     OW37651   3.802   2.418   6.972
 8770SOL    HW137652   3.894   2.417   6.931
 8770SOL    HW237653   3.796   2.492   7.039
 8771SOL     OW37654   4.285   2.084   6.733
 8771SOL    HW137655   4.323   2.000   6.770
 8771SOL    HW237656   4.197   2.103   6.777
 8772SOL     OW37657   4.590   2.316   6.228
 8772SOL    HW137658   4.558   2.388   6.166
 8772SOL    HW237659   4.614   2.235   6.175
 8773SOL     OW37660   4.741   1.901   6.339
 8773SOL    HW137661   4.669   1.906   6.270
 8773SOL    HW237662   4.717   1.832   6.408
 8774SOL     OW37663   4.212   3.247   5.760
 8774SOL    HW137664   4.125   3.232   5.807
 8774SOL    HW237665   4.195   3.273   5.665
 8775SOL     OW37666   4.251   2.118   5.914
 8775SOL    HW137667   4.278   2.059   5.839
 8775SOL    HW237668   4.251   2.213   5.883
 8776SOL     OW37669   4.639   1.951   6.988
 8776SOL    HW137670   4.664   1.931   6.893
 8776SOL    HW237671   4.711   2.007   7.030
 8777SOL     OW37672   4.704   2.978   7.305
 8777SOL    HW137673   4.605   2.984   7.315
 8777SOL    HW237674   4.727   2.898   7.249
 8778SOL     OW37675   4.429   2.912   5.954
 8778SOL    HW137676   4.415   2.919   6.053
 8778SOL    HW237677   4.513   2.861   5.936
 8779SOL     OW37678   4.134   2.675   6.837
 8779SOL    HW137679   4.220   2.687   6.887
 8779SOL    HW237680   4.092   2.588   6.864
 8780SOL     OW37681   3.788   3.426   6.917
 8780SOL    HW137682   3.742   3.508   6.883
 8780SOL    HW237683   3.886   3.445   6.926
 8781SOL     OW37684   4.091   2.962   6.087
 8781SOL    HW137685   4.084   3.045   6.031
 8781SOL    HW237686   4.095   2.882   6.027
 8782SOL     OW37687   4.290   2.399   6.451
 8782SOL    HW137688   4.302   2.465   6.377
 8782SOL    HW237689   4.336   2.433   6.534
 8783SOL     OW37690   4.078   3.372   6.915
 8783SOL    HW137691   4.057   3.328   6.828
 8783SOL    HW237692   4.175   3.398   6.918
 8784SOL     OW37693   4.126   2.613   7.184
 8784SOL    HW137694   4.194   2.668   7.137
 8784SOL    HW237695   4.166   2.525   7.211
 8785SOL     OW37696   4.737   1.967   7.356
 8785SOL    HW137697   4.743   2.052   7.304
 8785SOL    HW237698   4.769   1.891   7.299
 8786SOL     OW37699   4.228   1.912   7.326
 8786SOL    HW137700   4.186   1.855   7.256
 8786SOL    HW237701   4.162   1.981   7.358
 8787SOL     OW37702   4.297   2.732   6.615
 8787SOL    HW137703   4.341   2.821   6.606
 8787SOL    HW237704   4.234   2.732   6.692
 8788SOL     OW37705   4.933   2.387   5.861
 8788SOL    HW137706   4.946   2.303   5.915
 8788SOL    HW237707   4.904   2.461   5.921
 8789SOL     OW37708   4.031   2.075   6.817
 8789SOL    HW137709   4.008   2.112   6.907
 8789SOL    HW237710   4.001   1.980   6.811
 8790SOL     OW37711   3.761   3.172   6.868
 8790SOL    HW137712   3.814   3.123   6.936
 8790SOL    HW237713   3.783   3.270   6.873
 8791SOL     OW37714   4.456   2.496   6.650
 8791SOL    HW137715   4.515   2.470   6.574
 8791SOL    HW237716   4.428   2.592   6.639
 8792SOL     OW37717   4.031   1.925   6.204
 8792SOL    HW137718   4.020   2.019   6.237
 8792SOL    HW237719   4.026   1.862   6.281
 8793SOL     OW37720   4.747   2.628   6.552
 8793SOL    HW137721   4.762   2.649   6.648
 8793SOL    HW237722   4.717   2.533   6.543
 8794SOL     OW37723   4.704   3.435   7.286
 8794SOL    HW137724   4.684   3.479   7.198
 8794SOL    HW237725   4.743   3.344   7.270
 8795SOL     OW37726   4.074   2.760   7.390
 8795SOL    HW137727   4.150   2.804   7.438
 8795SOL    HW237728   4.109   2.713   7.308
 8796SOL     OW37729   4.043   2.672   6.535
 8796SOL    HW137730   4.136   2.708   6.540
 8796SOL    HW237731   4.037   2.587   6.587
 8797SOL     OW37732   4.063   2.371   6.592
 8797SOL    HW137733   4.011   2.288   6.575
 8797SOL    HW237734   4.140   2.376   6.528
 8798SOL     OW37735   3.732   3.188   5.786
 8798SOL    HW137736   3.639   3.209   5.755
 8798SOL    HW237737   3.742   3.089   5.799
 8799SOL     OW37738   3.812   3.663   6.513
 8799SOL    HW137739   3.770   3.577   6.486
 8799SOL    HW237740   3.906   3.666   6.479
 8800SOL     OW37741   4.228   3.430   6.496
 8800SOL    HW137742   4.294   3.504   6.505
 8800SOL    HW237743   4.272   3.351   6.454
 8801SOL     OW37744   4.726   2.658   6.824
 8801SOL    HW137745   4.767   2.626   6.910
 8801SOL    HW237746   4.630   2.631   6.821
 8802SOL     OW37747   3.764   2.406   6.700
 8802SOL    HW137748   3.849   2.373   6.659
 8802SOL    HW237749   3.777   2.421   6.798
 8803SOL     OW37750   3.913   2.382   7.308
 8803SOL    HW137751   3.972   2.342   7.238
 8803SOL    HW237752   3.855   2.453   7.267
 8804SOL     OW37753   4.539   2.434   5.911
 8804SOL    HW137754   4.546   2.345   5.865
 8804SOL    HW237755   4.445   2.468   5.903
 8805SOL     OW37756   3.976   3.426   7.330
 8805SOL    HW137757   3.946   3.483   7.406
 8805SOL    HW237758   3.969   3.329   7.356
 8806SOL     OW37759   4.395   2.326   6.855
 8806SOL    HW137760   4.361   2.237   6.825
 8806SOL    HW237761   4.421   2.380   6.775
 8807SOL     OW37762   4.654   3.540   7.051
 8807SOL    HW137763   4.630   3.522   6.956
 8807SOL    HW237764   4.684   3.634   7.061
 8808SOL     OW37765   4.197   2.362   5.777
 8808SOL    HW137766   4.258   2.442   5.781
 8808SOL    HW237767   4.102   2.393   5.784
 8809SOL     OW37768   3.883   2.999   7.052
 8809SOL    HW137769   3.905   2.938   7.128
 8809SOL    HW237770   3.893   2.950   6.966
 8810SOL     OW37771   3.807   3.120   6.608
 8810SOL    HW137772   3.802   3.119   6.708
 8810SOL    HW237773   3.724   3.079   6.570
 8811SOL     OW37774   4.412   3.524   7.302
 8811SOL    HW137775   4.356   3.605   7.311
 8811SOL    HW237776   4.464   3.528   7.216
 8812SOL     OW37777   3.854   3.656   7.437
 8812SOL    HW137778   3.813   3.582   7.490
 8812SOL    HW237779   3.918   3.707   7.495
 8813SOL     OW37780   5.004   2.789   6.258
 8813SOL    HW137781   5.064   2.708   6.260
 8813SOL    HW237782   5.044   2.858   6.198
 8814SOL     OW37783   4.554   3.135   7.008
 8814SOL    HW137784   4.549   3.168   7.103
 8814SOL    HW237785   4.468   3.154   6.962
 8815SOL     OW37786   4.396   3.478   5.740
 8815SOL    HW137787   4.405   3.488   5.641
 8815SOL    HW237788   4.356   3.389   5.761
 8816SOL     OW37789   3.987   2.188   6.306
 8816SOL    HW137790   3.908   2.239   6.272
 8816SOL    HW237791   3.978   2.173   6.404
 8817SOL     OW37792   4.546   2.864   6.958
 8817SOL    HW137793   4.586   2.863   6.866
 8817SOL    HW237794   4.556   2.956   6.998
 8818SOL     OW37795   4.640   2.772   5.877
 8818SOL    HW137796   4.703   2.810   5.809
 8818SOL    HW237797   4.680   2.689   5.916
 8819SOL     OW37798   4.096   3.150   7.076
 8819SOL    HW137799   4.083   3.243   7.042
 8819SOL    HW237800   4.012   3.098   7.063
 8820SOL     OW37801   4.763   2.960   6.282
 8820SOL    HW137802   4.693   2.913   6.336
 8820SOL    HW237803   4.822   2.892   6.239
 8821SOL     OW37804   4.738   2.098   6.557
 8821SOL    HW137805   4.730   2.062   6.464
 8821SOL    HW237806   4.736   2.022   6.622
 8822SOL     OW37807   4.314   3.349   6.077
 8822SOL    HW137808   4.356   3.291   6.007
 8822SOL    HW237809   4.270   3.428   6.033
 8823SOL     OW37810   3.979   3.210   5.876
 8823SOL    HW137811   3.883   3.211   5.849
 8823SOL    HW237812   3.991   3.263   5.960
 8824SOL     OW37813   3.829   2.875   7.312
 8824SOL    HW137814   3.752   2.842   7.366
 8824SOL    HW237815   3.914   2.845   7.354
 8825SOL     OW37816   4.396   2.065   7.075
 8825SOL    HW137817   4.486   2.049   7.035
 8825SOL    HW237818   4.404   2.070   7.174
 8826SOL     OW37819   3.799   2.207   5.619
 8826SOL    HW137820   3.707   2.179   5.590
 8826SOL    HW237821   3.830   2.284   5.563
 8827SOL     OW37822   3.796   2.028   5.904
 8827SOL    HW137823   3.779   2.111   5.850
 8827SOL    HW237824   3.886   1.991   5.882
 8828SOL     OW37825   4.337   2.704   7.017
 8828SOL    HW137826   4.393   2.785   7.000
 8828SOL    HW237827   4.396   2.624   7.020
 8829SOL     OW37828   4.440   2.427   7.294
 8829SOL    HW137829   4.459   2.492   7.368
 8829SOL    HW237830   4.500   2.347   7.303
 8830SOL     OW37831   4.114   3.603   7.146
 8830SOL    HW137832   4.023   3.644   7.144
 8830SOL    HW237833   4.107   3.509   7.178
 8831SOL     OW37834   4.318   2.607   6.238
 8831SOL    HW137835   4.368   2.692   6.219
 8831SOL    HW237836   4.230   2.609   6.190
 8832SOL     OW37837   4.583   3.236   5.602
 8832SOL    HW137838   4.537   3.251   5.690
 8832SOL    HW237839   4.627   3.321   5.572
 8833SOL     OW37840   4.385   3.652   6.539
 8833SOL    HW137841   4.339   3.740   6.526
 8833SOL    HW237842   4.484   3.664   6.532
 8834SOL     OW37843   4.583   2.818   6.447
 8834SOL    HW137844   4.637   2.749   6.495
 8834SOL    HW237845   4.551   2.887   6.513
 8835SOL     OW37846   3.945   3.176   7.430
 8835SOL    HW137847   3.880   3.103   7.409
 8835SOL    HW237848   3.949   3.190   7.528
 8836SOL     OW37849   3.803   3.102   6.239
 8836SOL    HW137850   3.802   3.055   6.327
 8836SOL    HW237851   3.885   3.074   6.188
 8837SOL     OW37852   4.396   3.253   7.210
 8837SOL    HW137853   4.318   3.203   7.248
 8837SOL    HW237854   4.393   3.348   7.241
 8838SOL     OW37855   4.152   2.286   6.106
 8838SOL    HW137856   4.182   2.214   6.044
 8838SOL    HW237857   4.113   2.246   6.189
 8839SOL     OW37858   4.041   2.409   6.866
 8839SOL    HW137859   4.079   2.350   6.938
 8839SOL    HW237860   4.081   2.383   6.778
 8840SOL     OW37861   4.536   3.448   6.273
 8840SOL    HW137862   4.568   3.458   6.179
 8840SOL    HW237863   4.457   3.386   6.275
 8841SOL     OW37864   4.725   1.896   6.740
 8841SOL    HW137865   4.662   1.824   6.709
 8841SOL    HW237866   4.818   1.860   6.740
 8842SOL     OW37867   4.494   3.192   5.887
 8842SOL    HW137868   4.448   3.105   5.904
 8842SOL    HW237869   4.585   3.189   5.928
 8843SOL     OW37870   4.342   3.429   6.870
 8843SOL    HW137871   4.337   3.511   6.927
 8843SOL    HW237872   4.431   3.426   6.825
 8844SOL     OW37873   3.763   2.939   5.886
 8844SOL    HW137874   3.862   2.928   5.877
 8844SOL    HW237875   3.723   2.853   5.918
 8845SOL     OW37876   4.599   3.508   5.923
 8845SOL    HW137877   4.522   3.473   5.869
 8845SOL    HW237878   4.567   3.579   5.985
 8846SOL     OW37879   3.954   2.490   7.561
 8846SOL    HW137880   3.861   2.488   7.598
 8846SOL    HW237881   3.955   2.451   7.469
 8847SOL     OW37882   3.949   2.137   8.444
 8847SOL    HW137883   3.984   2.120   8.536
 8847SOL    HW237884   3.861   2.092   8.432
 8848SOL     OW37885   3.743   2.230   8.095
 8848SOL    HW137886   3.661   2.273   8.134
 8848SOL    HW237887   3.715   2.157   8.032
 8849SOL     OW37888   4.293   3.137   8.613
 8849SOL    HW137889   4.200   3.130   8.576
 8849SOL    HW237890   4.304   3.226   8.657
 8850SOL     OW37891   4.492   3.006   8.471
 8850SOL    HW137892   4.414   3.023   8.531
 8850SOL    HW237893   4.526   3.093   8.435
 8851SOL     OW37894   4.574   2.660   9.271
 8851SOL    HW137895   4.570   2.736   9.336
 8851SOL    HW237896   4.596   2.696   9.180
 8852SOL     OW37897   4.409   2.874   8.113
 8852SOL    HW137898   4.478   2.858   8.183
 8852SOL    HW237899   4.336   2.931   8.151
 8853SOL     OW37900   4.410   3.023   9.251
 8853SOL    HW137901   4.470   3.102   9.265
 8853SOL    HW237902   4.324   3.054   9.210
 8854SOL     OW37903   4.059   3.297   8.509
 8854SOL    HW137904   3.981   3.266   8.456
 8854SOL    HW237905   4.117   3.355   8.452
 8855SOL     OW37906   4.162   2.254   8.947
 8855SOL    HW137907   4.244   2.198   8.956
 8855SOL    HW237908   4.081   2.196   8.951
 8856SOL     OW37909   3.955   3.575   7.931
 8856SOL    HW137910   3.989   3.652   7.985
 8856SOL    HW237911   3.999   3.575   7.841
 8857SOL     OW37912   3.954   3.296   7.986
 8857SOL    HW137913   3.928   3.392   7.986
 8857SOL    HW237914   3.883   3.242   8.031
 8858SOL     OW37915   3.964   2.953   8.334
 8858SOL    HW137916   3.978   2.869   8.386
 8858SOL    HW237917   3.909   3.017   8.389
 8859SOL     OW37918   4.344   3.648   8.887
 8859SOL    HW137919   4.252   3.631   8.922
 8859SOL    HW237920   4.372   3.740   8.913
 8860SOL     OW37921   4.330   2.826   7.571
 8860SOL    HW137922   4.337   2.910   7.517
 8860SOL    HW237923   4.376   2.839   7.659
 8861SOL     OW37924   3.846   2.505   8.011
 8861SOL    HW137925   3.801   2.417   8.028
 8861SOL    HW237926   3.845   2.559   8.095
 8862SOL     OW37927   3.751   3.458   7.565
 8862SOL    HW137928   3.732   3.362   7.586
 8862SOL    HW237929   3.718   3.516   7.640
 8863SOL     OW37930   3.837   2.599   9.045
 8863SOL    HW137931   3.925   2.586   9.090
 8863SOL    HW237932   3.824   2.696   9.023
 8864SOL     OW37933   4.337   3.227   8.174
 8864SOL    HW137934   4.288   3.140   8.183
 8864SOL    HW237935   4.314   3.270   8.087
 8865SOL     OW37936   4.533   1.866   7.950
 8865SOL    HW137937   4.573   1.957   7.941
 8865SOL    HW237938   4.433   1.874   7.956
 8866SOL     OW37939   3.921   2.838   8.712
 8866SOL    HW137940   4.010   2.793   8.698
 8866SOL    HW237941   3.848   2.773   8.693
 8867SOL     OW37942   4.041   2.113   9.249
 8867SOL    HW137943   4.112   2.184   9.255
 8867SOL    HW237944   3.953   2.152   9.277
 8868SOL     OW37945   4.322   2.591   7.718
 8868SOL    HW137946   4.346   2.660   7.650
 8868SOL    HW237947   4.244   2.624   7.772
 8869SOL     OW37948   4.531   2.467   8.913
 8869SOL    HW137949   4.484   2.464   9.002
 8869SOL    HW237950   4.480   2.412   8.847
 8870SOL     OW37951   4.697   2.752   9.020
 8870SOL    HW137952   4.743   2.668   8.991
 8870SOL    HW237953   4.641   2.786   8.945
 8871SOL     OW37954   4.715   2.272   8.690
 8871SOL    HW137955   4.638   2.306   8.744
 8871SOL    HW237956   4.681   2.221   8.611
 8872SOL     OW37957   3.800   2.673   8.237
 8872SOL    HW137958   3.899   2.661   8.246
 8872SOL    HW237959   3.776   2.768   8.258
 8873SOL     OW37960   3.854   3.683   9.019
 8873SOL    HW137961   3.844   3.668   9.118
 8873SOL    HW237962   3.768   3.719   8.983
 8874SOL     OW37963   4.589   2.210   7.643
 8874SOL    HW137964   4.648   2.273   7.594
 8874SOL    HW237965   4.608   2.116   7.614
 8875SOL     OW37966   4.274   2.058   8.333
 8875SOL    HW137967   4.269   2.053   8.433
 8875SOL    HW237968   4.276   2.154   8.304
 8876SOL     OW37969   4.732   3.318   7.925
 8876SOL    HW137970   4.686   3.390   7.873
 8876SOL    HW237971   4.728   3.338   8.023
 8877SOL     OW37972   4.075   3.663   8.301
 8877SOL    HW137973   4.125   3.577   8.307
 8877SOL    HW237974   4.140   3.740   8.298
 8878SOL     OW37975   4.045   2.805   7.690
 8878SOL    HW137976   4.127   2.844   7.648
 8878SOL    HW237977   4.018   2.723   7.641
 8879SOL     OW37978   4.185   3.128   9.175
 8879SOL    HW137979   4.135   3.129   9.089
 8879SOL    HW237980   4.122   3.110   9.251
 8880SOL     OW37981   3.926   2.147   8.946
 8880SOL    HW137982   3.846   2.207   8.933
 8880SOL    HW237983   3.916   2.098   9.032
 8881SOL     OW37984   4.188   3.605   7.771
 8881SOL    HW137985   4.221   3.644   7.857
 8881SOL    HW237986   4.264   3.598   7.706
 8882SOL     OW37987   3.973   3.647   8.689
 8882SOL    HW137988   4.030   3.582   8.739
 8882SOL    HW237989   3.957   3.614   8.596
 8883SOL     OW37990   4.106   2.562   7.928
 8883SOL    HW137991   4.151   2.472   7.925
 8883SOL    HW237992   4.012   2.551   7.961
 8884SOL     OW37993   4.338   1.984   7.565
 8884SOL    HW137994   4.436   1.962   7.572
 8884SOL    HW237995   4.307   1.967   7.472
 8885SOL     OW37996   4.505   2.126   9.197
 8885SOL    HW137997   4.572   2.065   9.240
 8885SOL    HW237998   4.432   2.145   9.262
 8886SOL     OW37999   4.612   3.376   8.643
 8886SOL    HW138000   4.589   3.351   8.549
 8886SOL    HW238001   4.673   3.307   8.682
 8887SOL     OW38002   4.527   3.264   8.372
 8887SOL    HW138003   4.617   3.278   8.330
 8887SOL    HW238004   4.456   3.266   8.301
 8888SOL     OW38005   4.646   2.365   8.347
 8888SOL    HW138006   4.621   2.356   8.251
 8888SOL    HW238007   4.694   2.283   8.378
 8889SOL     OW38008   4.263   1.926   7.960
 8889SOL    HW138009   4.182   1.927   8.018
 8889SOL    HW238010   4.266   2.009   7.905
 8890SOL     OW38011   4.021   1.897   7.619
 8890SOL    HW138012   4.070   1.981   7.598
 8890SOL    HW238013   4.083   1.832   7.664
 8891SOL     OW38014   4.659   2.098   7.928
 8891SOL    HW138015   4.611   2.139   7.850
 8891SOL    HW238016   4.758   2.096   7.909
 8892SOL     OW38017   4.951   3.432   8.241
 8892SOL    HW138018   4.972   3.506   8.176
 8892SOL    HW238019   5.019   3.432   8.314
 8893SOL     OW38020   4.183   3.014   8.189
 8893SOL    HW138021   4.112   2.987   8.254
 8893SOL    HW238022   4.157   2.986   8.096
 8894SOL     OW38023   4.756   2.411   7.464
 8894SOL    HW138024   4.715   2.493   7.425
 8894SOL    HW238025   4.820   2.437   7.537
 8895SOL     OW38026   3.802   2.418   8.834
 8895SOL    HW138027   3.894   2.417   8.793
 8895SOL    HW238028   3.796   2.492   8.901
 8896SOL     OW38029   4.285   2.084   8.595
 8896SOL    HW138030   4.323   2.000   8.632
 8896SOL    HW238031   4.197   2.103   8.639
 8897SOL     OW38032   4.590   2.316   8.090
 8897SOL    HW138033   4.558   2.388   8.028
 8897SOL    HW238034   4.614   2.235   8.037
 8898SOL     OW38035   4.741   1.901   8.201
 8898SOL    HW138036   4.669   1.906   8.132
 8898SOL    HW238037   4.717   1.832   8.270
 8899SOL     OW38038   4.212   3.247   7.622
 8899SOL    HW138039   4.125   3.232   7.669
 8899SOL    HW238040   4.195   3.273   7.527
 8900SOL     OW38041   4.251   2.118   7.776
 8900SOL    HW138042   4.278   2.059   7.701
 8900SOL    HW238043   4.251   2.213   7.745
 8901SOL     OW38044   4.639   1.951   8.850
 8901SOL    HW138045   4.664   1.931   8.755
 8901SOL    HW238046   4.711   2.007   8.892
 8902SOL     OW38047   4.704   2.978   9.167
 8902SOL    HW138048   4.605   2.984   9.177
 8902SOL    HW238049   4.727   2.898   9.111
 8903SOL     OW38050   4.429   2.912   7.816
 8903SOL    HW138051   4.415   2.919   7.915
 8903SOL    HW238052   4.513   2.861   7.798
 8904SOL     OW38053   4.134   2.675   8.699
 8904SOL    HW138054   4.220   2.687   8.749
 8904SOL    HW238055   4.092   2.588   8.726
 8905SOL     OW38056   3.788   3.426   8.779
 8905SOL    HW138057   3.742   3.508   8.745
 8905SOL    HW238058   3.886   3.445   8.788
 8906SOL     OW38059   4.091   2.962   7.949
 8906SOL    HW138060   4.084   3.045   7.893
 8906SOL    HW238061   4.095   2.882   7.889
 8907SOL     OW38062   4.290   2.399   8.313
 8907SOL    HW138063   4.302   2.465   8.239
 8907SOL    HW238064   4.336   2.433   8.396
 8908SOL     OW38065   4.078   3.372   8.777
 8908SOL    HW138066   4.057   3.328   8.690
 8908SOL    HW238067   4.175   3.398   8.780
 8909SOL     OW38068   4.126   2.613   9.046
 8909SOL    HW138069   4.194   2.668   8.999
 8909SOL    HW238070   4.166   2.525   9.073
 8910SOL     OW38071   4.737   1.967   9.218
 8910SOL    HW138072   4.743   2.052   9.166
 8910SOL    HW238073   4.769   1.891   9.161
 8911SOL     OW38074   4.228   1.912   9.188
 8911SOL    HW138075   4.186   1.855   9.118
 8911SOL    HW238076   4.162   1.981   9.220
 8912SOL     OW38077   4.297   2.732   8.477
 8912SOL    HW138078   4.341   2.821   8.468
 8912SOL    HW238079   4.234   2.732   8.554
 8913SOL     OW38080   4.933   2.387   7.723
 8913SOL    HW138081   4.946   2.303   7.777
 8913SOL    HW238082   4.904   2.461   7.783
 8914SOL     OW38083   4.031   2.075   8.679
 8914SOL    HW138084   4.008   2.112   8.769
 8914SOL    HW238085   4.001   1.980   8.673
 8915SOL     OW38086   3.761   3.172   8.730
 8915SOL    HW138087   3.814   3.123   8.798
 8915SOL    HW238088   3.783   3.270   8.735
 8916SOL     OW38089   4.456   2.496   8.512
 8916SOL    HW138090   4.515   2.470   8.436
 8916SOL    HW238091   4.428   2.592   8.501
 8917SOL     OW38092   4.031   1.925   8.066
 8917SOL    HW138093   4.020   2.019   8.099
 8917SOL    HW238094   4.026   1.862   8.143
 8918SOL     OW38095   4.747   2.628   8.414
 8918SOL    HW138096   4.762   2.649   8.510
 8918SOL    HW238097   4.717   2.533   8.405
 8919SOL     OW38098   4.704   3.435   9.148
 8919SOL    HW138099   4.684   3.479   9.060
 8919SOL    HW238100   4.743   3.344   9.132
 8920SOL     OW38101   4.074   2.760   9.252
 8920SOL    HW138102   4.150   2.804   9.300
 8920SOL    HW238103   4.109   2.713   9.170
 8921SOL     OW38104   4.043   2.672   8.397
 8921SOL    HW138105   4.136   2.708   8.402
 8921SOL    HW238106   4.037   2.587   8.449
 8922SOL     OW38107   4.063   2.371   8.454
 8922SOL    HW138108   4.011   2.288   8.437
 8922SOL    HW238109   4.140   2.376   8.390
 8923SOL     OW38110   3.732   3.188   7.648
 8923SOL    HW138111   3.639   3.209   7.617
 8923SOL    HW238112   3.742   3.089   7.661
 8924SOL     OW38113   3.812   3.663   8.375
 8924SOL    HW138114   3.770   3.577   8.348
 8924SOL    HW238115   3.906   3.666   8.341
 8925SOL     OW38116   4.228   3.430   8.358
 8925SOL    HW138117   4.294   3.504   8.367
 8925SOL    HW238118   4.272   3.351   8.316
 8926SOL     OW38119   4.726   2.658   8.686
 8926SOL    HW138120   4.767   2.626   8.772
 8926SOL    HW238121   4.630   2.631   8.683
 8927SOL     OW38122   3.764   2.406   8.562
 8927SOL    HW138123   3.849   2.373   8.521
 8927SOL    HW238124   3.777   2.421   8.660
 8928SOL     OW38125   3.913   2.382   9.170
 8928SOL    HW138126   3.972   2.342   9.100
 8928SOL    HW238127   3.855   2.453   9.129
 8929SOL     OW38128   4.539   2.434   7.773
 8929SOL    HW138129   4.546   2.345   7.727
 8929SOL    HW238130   4.445   2.468   7.765
 8930SOL     OW38131   3.976   3.426   9.192
 8930SOL    HW138132   3.946   3.483   9.268
 8930SOL    HW238133   3.969   3.329   9.218
 8931SOL     OW38134   4.395   2.326   8.717
 8931SOL    HW138135   4.361   2.237   8.687
 8931SOL    HW238136   4.421   2.380   8.637
 8932SOL     OW38137   4.654   3.540   8.913
 8932SOL    HW138138   4.630   3.522   8.818
 8932SOL    HW238139   4.684   3.634   8.923
 8933SOL     OW38140   4.197   2.362   7.639
 8933SOL    HW138141   4.258   2.442   7.643
 8933SOL    HW238142   4.102   2.393   7.646
 8934SOL     OW38143   3.883   2.999   8.914
 8934SOL    HW138144   3.905   2.938   8.990
 8934SOL    HW238145   3.893   2.950   8.828
 8935SOL     OW38146   3.807   3.120   8.470
 8935SOL    HW138147   3.802   3.119   8.570
 8935SOL    HW238148   3.724   3.079   8.432
 8936SOL     OW38149   4.412   3.524   9.164
 8936SOL    HW138150   4.356   3.605   9.173
 8936SOL    HW238151   4.464   3.528   9.078
 8937SOL     OW38152   3.854   3.656   9.299
 8937SOL    HW138153   3.813   3.582   9.352
 8937SOL    HW238154   3.918   3.707   9.357
 8938SOL     OW38155   5.004   2.789   8.120
 8938SOL    HW138156   5.064   2.708   8.122
 8938SOL    HW238157   5.044   2.858   8.060
 8939SOL     OW38158   4.554   3.135   8.870
 8939SOL    HW138159   4.549   3.168   8.965
 8939SOL    HW238160   4.468   3.154   8.824
 8940SOL     OW38161   4.396   3.478   7.602
 8940SOL    HW138162   4.405   3.488   7.503
 8940SOL    HW238163   4.356   3.389   7.623
 8941SOL     OW38164   3.987   2.188   8.168
 8941SOL    HW138165   3.908   2.239   8.134
 8941SOL    HW238166   3.978   2.173   8.266
 8942SOL     OW38167   4.546   2.864   8.820
 8942SOL    HW138168   4.586   2.863   8.728
 8942SOL    HW238169   4.556   2.956   8.860
 8943SOL     OW38170   4.640   2.772   7.739
 8943SOL    HW138171   4.703   2.810   7.671
 8943SOL    HW238172   4.680   2.689   7.778
 8944SOL     OW38173   4.096   3.150   8.938
 8944SOL    HW138174   4.083   3.243   8.904
 8944SOL    HW238175   4.012   3.098   8.925
 8945SOL     OW38176   4.763   2.960   8.144
 8945SOL    HW138177   4.693   2.913   8.198
 8945SOL    HW238178   4.822   2.892   8.101
 8946SOL     OW38179   4.738   2.098   8.419
 8946SOL    HW138180   4.730   2.062   8.326
 8946SOL    HW238181   4.736   2.022   8.484
 8947SOL     OW38182   4.314   3.349   7.939
 8947SOL    HW138183   4.356   3.291   7.869
 8947SOL    HW238184   4.270   3.428   7.895
 8948SOL     OW38185   3.979   3.210   7.738
 8948SOL    HW138186   3.883   3.211   7.711
 8948SOL    HW238187   3.991   3.263   7.822
 8949SOL     OW38188   3.829   2.875   9.174
 8949SOL    HW138189   3.752   2.842   9.228
 8949SOL    HW238190   3.914   2.845   9.216
 8950SOL     OW38191   4.396   2.065   8.937
 8950SOL    HW138192   4.486   2.049   8.897
 8950SOL    HW238193   4.404   2.070   9.036
 8951SOL     OW38194   3.799   2.207   7.481
 8951SOL    HW138195   3.707   2.179   7.452
 8951SOL    HW238196   3.830   2.284   7.425
 8952SOL     OW38197   3.796   2.028   7.766
 8952SOL    HW138198   3.779   2.111   7.712
 8952SOL    HW238199   3.886   1.991   7.744
 8953SOL     OW38200   4.337   2.704   8.879
 8953SOL    HW138201   4.393   2.785   8.862
 8953SOL    HW238202   4.396   2.624   8.882
 8954SOL     OW38203   4.440   2.427   9.156
 8954SOL    HW138204   4.459   2.492   9.230
 8954SOL    HW238205   4.500   2.347   9.165
 8955SOL     OW38206   4.114   3.603   9.008
 8955SOL    HW138207   4.023   3.644   9.006
 8955SOL    HW238208   4.107   3.509   9.040
 8956SOL     OW38209   4.949   2.187   7.897
 8956SOL    HW138210   5.014   2.113   7.886
 8956SOL    HW238211   4.969   2.237   7.981
 8957SOL     OW38212   4.318   2.607   8.100
 8957SOL    HW138213   4.368   2.692   8.081
 8957SOL    HW238214   4.230   2.609   8.052
 8958SOL     OW38215   4.583   3.236   7.464
 8958SOL    HW138216   4.537   3.251   7.552
 8958SOL    HW238217   4.627   3.321   7.434
 8959SOL     OW38218   4.385   3.652   8.401
 8959SOL    HW138219   4.339   3.740   8.388
 8959SOL    HW238220   4.484   3.664   8.394
 8960SOL     OW38221   4.583   2.818   8.309
 8960SOL    HW138222   4.637   2.749   8.357
 8960SOL    HW238223   4.551   2.887   8.375
 8961SOL     OW38224   3.945   3.176   9.292
 8961SOL    HW138225   3.880   3.103   9.271
 8961SOL    HW238226   3.949   3.190   9.390
 8962SOL     OW38227   3.803   3.102   8.101
 8962SOL    HW138228   3.802   3.055   8.189
 8962SOL    HW238229   3.885   3.074   8.050
 8963SOL     OW38230   4.396   3.253   9.072
 8963SOL    HW138231   4.318   3.203   9.110
 8963SOL    HW238232   4.393   3.348   9.103
 8964SOL     OW38233   4.152   2.286   7.968
 8964SOL    HW138234   4.182   2.214   7.906
 8964SOL    HW238235   4.113   2.246   8.051
 8965SOL     OW38236   4.041   2.409   8.728
 8965SOL    HW138237   4.079   2.350   8.800
 8965SOL    HW238238   4.081   2.383   8.640
 8966SOL     OW38239   4.536   3.448   8.135
 8966SOL    HW138240   4.568   3.458   8.041
 8966SOL    HW238241   4.457   3.386   8.137
 8967SOL     OW38242   4.725   1.896   8.602
 8967SOL    HW138243   4.662   1.824   8.571
 8967SOL    HW238244   4.818   1.860   8.602
 8968SOL     OW38245   4.494   3.192   7.749
 8968SOL    HW138246   4.448   3.105   7.766
 8968SOL    HW238247   4.585   3.189   7.790
 8969SOL     OW38248   4.342   3.429   8.732
 8969SOL    HW138249   4.337   3.511   8.789
 8969SOL    HW238250   4.431   3.426   8.687
 8970SOL     OW38251   3.763   2.939   7.748
 8970SOL    HW138252   3.862   2.928   7.739
 8970SOL    HW238253   3.723   2.853   7.780
 8971SOL     OW38254   4.599   3.508   7.785
 8971SOL    HW138255   4.522   3.473   7.731
 8971SOL    HW238256   4.567   3.579   7.847
 8972SOL     OW38257   3.954   2.490   9.423
 8972SOL    HW138258   3.861   2.488   9.460
 8972SOL    HW238259   3.955   2.451   9.331
 8973SOL     OW38260   3.743   2.230   9.957
 8973SOL    HW138261   3.661   2.273   9.996
 8973SOL    HW238262   3.715   2.157   9.894
 8974SOL     OW38263   4.574   2.660  11.133
 8974SOL    HW138264   4.570   2.736  11.198
 8974SOL    HW238265   4.596   2.696  11.042
 8975SOL     OW38266   4.410   3.023  11.113
 8975SOL    HW138267   4.470   3.102  11.127
 8975SOL    HW238268   4.324   3.054  11.072
 8976SOL     OW38269   4.162   2.254  10.809
 8976SOL    HW138270   4.244   2.198  10.818
 8976SOL    HW238271   4.081   2.196  10.813
 8977SOL     OW38272   3.954   3.296   9.848
 8977SOL    HW138273   3.928   3.392   9.848
 8977SOL    HW238274   3.883   3.242   9.893
 8978SOL     OW38275   4.344   3.648  10.749
 8978SOL    HW138276   4.252   3.631  10.784
 8978SOL    HW238277   4.372   3.740  10.775
 8979SOL     OW38278   4.330   2.826   9.433
 8979SOL    HW138279   4.337   2.910   9.379
 8979SOL    HW238280   4.376   2.839   9.521
 8980SOL     OW38281   3.846   2.505   9.873
 8980SOL    HW138282   3.801   2.417   9.890
 8980SOL    HW238283   3.845   2.559   9.957
 8981SOL     OW38284   3.751   3.458   9.427
 8981SOL    HW138285   3.732   3.362   9.448
 8981SOL    HW238286   3.718   3.516   9.502
 8982SOL     OW38287   3.837   2.599  10.907
 8982SOL    HW138288   3.925   2.586  10.952
 8982SOL    HW238289   3.824   2.696  10.885
 8983SOL     OW38290   4.533   1.866   9.812
 8983SOL    HW138291   4.573   1.957   9.803
 8983SOL    HW238292   4.433   1.874   9.818
 8984SOL     OW38293   4.322   2.591   9.580
 8984SOL    HW138294   4.346   2.660   9.512
 8984SOL    HW238295   4.244   2.624   9.634
 8985SOL     OW38296   4.697   2.752  10.882
 8985SOL    HW138297   4.743   2.668  10.853
 8985SOL    HW238298   4.641   2.786  10.807
 8986SOL     OW38299   3.800   2.673  10.099
 8986SOL    HW138300   3.899   2.661  10.108
 8986SOL    HW238301   3.776   2.768  10.120
 8987SOL     OW38302   3.854   3.683  10.881
 8987SOL    HW138303   3.844   3.668  10.980
 8987SOL    HW238304   3.768   3.719  10.845
 8988SOL     OW38305   4.589   2.210   9.505
 8988SOL    HW138306   4.648   2.273   9.456
 8988SOL    HW238307   4.608   2.116   9.476
 8989SOL     OW38308   4.274   2.058  10.195
 8989SOL    HW138309   4.269   2.053  10.295
 8989SOL    HW238310   4.276   2.154  10.166
 8990SOL     OW38311   4.045   2.805   9.552
 8990SOL    HW138312   4.127   2.844   9.510
 8990SOL    HW238313   4.018   2.723   9.503
 8991SOL     OW38314   3.926   2.147  10.808
 8991SOL    HW138315   3.846   2.207  10.795
 8991SOL    HW238316   3.916   2.098  10.894
 8992SOL     OW38317   3.973   3.647  10.551
 8992SOL    HW138318   4.030   3.582  10.601
 8992SOL    HW238319   3.957   3.614  10.458
 8993SOL     OW38320   4.106   2.562   9.790
 8993SOL    HW138321   4.151   2.472   9.787
 8993SOL    HW238322   4.012   2.551   9.823
 8994SOL     OW38323   4.338   1.984   9.427
 8994SOL    HW138324   4.436   1.962   9.434
 8994SOL    HW238325   4.307   1.967   9.334
 8995SOL     OW38326   4.612   3.376  10.505
 8995SOL    HW138327   4.589   3.351  10.411
 8995SOL    HW238328   4.673   3.307  10.544
 8996SOL     OW38329   4.263   1.926   9.822
 8996SOL    HW138330   4.182   1.927   9.880
 8996SOL    HW238331   4.266   2.009   9.767
 8997SOL     OW38332   4.021   1.897   9.481
 8997SOL    HW138333   4.070   1.981   9.460
 8997SOL    HW238334   4.083   1.832   9.526
 8998SOL     OW38335   4.659   2.098   9.790
 8998SOL    HW138336   4.611   2.139   9.712
 8998SOL    HW238337   4.758   2.096   9.771
 8999SOL     OW38338   4.951   3.432  10.103
 8999SOL    HW138339   4.972   3.506  10.038
 8999SOL    HW238340   5.019   3.432  10.176
 9000SOL     OW38341   4.756   2.411   9.326
 9000SOL    HW138342   4.715   2.493   9.287
 9000SOL    HW238343   4.820   2.437   9.399
 9001SOL     OW38344   3.802   2.418  10.696
 9001SOL    HW138345   3.894   2.417  10.655
 9001SOL    HW238346   3.796   2.492  10.763
 9002SOL     OW38347   4.590   2.316   9.952
 9002SOL    HW138348   4.558   2.388   9.890
 9002SOL    HW238349   4.614   2.235   9.899
 9003SOL     OW38350   4.741   1.901  10.063
 9003SOL    HW138351   4.669   1.906   9.994
 9003SOL    HW238352   4.717   1.832  10.132
 9004SOL     OW38353   4.212   3.247   9.484
 9004SOL    HW138354   4.125   3.232   9.531
 9004SOL    HW238355   4.195   3.273   9.389
 9005SOL     OW38356   4.251   2.118   9.638
 9005SOL    HW138357   4.278   2.059   9.563
 9005SOL    HW238358   4.251   2.213   9.607
 9006SOL     OW38359   4.429   2.912   9.678
 9006SOL    HW138360   4.415   2.919   9.777
 9006SOL    HW238361   4.513   2.861   9.660
 9007SOL     OW38362   4.134   2.675  10.561
 9007SOL    HW138363   4.220   2.687  10.611
 9007SOL    HW238364   4.092   2.588  10.588
 9008SOL     OW38365   4.091   2.962   9.811
 9008SOL    HW138366   4.084   3.045   9.755
 9008SOL    HW238367   4.095   2.882   9.751
 9009SOL     OW38368   4.290   2.399  10.175
 9009SOL    HW138369   4.302   2.465  10.101
 9009SOL    HW238370   4.336   2.433  10.258
 9010SOL     OW38371   4.297   2.732  10.339
 9010SOL    HW138372   4.341   2.821  10.330
 9010SOL    HW238373   4.234   2.732  10.416
 9011SOL     OW38374   4.456   2.496  10.374
 9011SOL    HW138375   4.515   2.470  10.298
 9011SOL    HW238376   4.428   2.592  10.363
 9012SOL     OW38377   4.031   1.925   9.928
 9012SOL    HW138378   4.020   2.019   9.961
 9012SOL    HW238379   4.026   1.862  10.005
 9013SOL     OW38380   3.732   3.188   9.510
 9013SOL    HW138381   3.639   3.209   9.479
 9013SOL    HW238382   3.742   3.089   9.523
 9014SOL     OW38383   3.913   2.382  11.032
 9014SOL    HW138384   3.972   2.342  10.962
 9014SOL    HW238385   3.855   2.453  10.991
 9015SOL     OW38386   4.539   2.434   9.635
 9015SOL    HW138387   4.546   2.345   9.589
 9015SOL    HW238388   4.445   2.468   9.627
 9016SOL     OW38389   4.395   2.326  10.579
 9016SOL    HW138390   4.361   2.237  10.549
 9016SOL    HW238391   4.421   2.380  10.499
 9017SOL     OW38392   4.654   3.540  10.775
 9017SOL    HW138393   4.630   3.522  10.680
 9017SOL    HW238394   4.684   3.634  10.785
 9018SOL     OW38395   4.197   2.362   9.501
 9018SOL    HW138396   4.258   2.442   9.505
 9018SOL    HW238397   4.102   2.393   9.508
 9019SOL     OW38398   4.554   3.135  10.732
 9019SOL    HW138399   4.549   3.168  10.827
 9019SOL    HW238400   4.468   3.154  10.686
 9020SOL     OW38401   4.396   3.478   9.464
 9020SOL    HW138402   4.405   3.488   9.365
 9020SOL    HW238403   4.356   3.389   9.485
 9021SOL     OW38404   4.640   2.772   9.601
 9021SOL    HW138405   4.703   2.810   9.533
 9021SOL    HW238406   4.680   2.689   9.640
 9022SOL     OW38407   4.738   2.098  10.281
 9022SOL    HW138408   4.730   2.062  10.188
 9022SOL    HW238409   4.736   2.022  10.346
 9023SOL     OW38410   3.979   3.210   9.600
 9023SOL    HW138411   3.883   3.211   9.573
 9023SOL    HW238412   3.991   3.263   9.684
 9024SOL     OW38413   3.799   2.207   9.343
 9024SOL    HW138414   3.707   2.179   9.314
 9024SOL    HW238415   3.830   2.284   9.287
 9025SOL     OW38416   3.796   2.028   9.628
 9025SOL    HW138417   3.779   2.111   9.574
 9025SOL    HW238418   3.886   1.991   9.606
 9026SOL     OW38419   4.949   2.187   9.759
 9026SOL    HW138420   5.014   2.113   9.748
 9026SOL    HW238421   4.969   2.237   9.843
 9027SOL     OW38422   4.318   2.607   9.962
 9027SOL    HW138423   4.368   2.692   9.943
 9027SOL    HW238424   4.230   2.609   9.914
 9028SOL     OW38425   4.583   3.236   9.326
 9028SOL    HW138426   4.537   3.251   9.414
 9028SOL    HW238427   4.627   3.321   9.296
 9029SOL     OW38428   4.152   2.286   9.830
 9029SOL    HW138429   4.182   2.214   9.768
 9029SOL    HW238430   4.113   2.246   9.913
 9030SOL     OW38431   4.494   3.192   9.611
 9030SOL    HW138432   4.448   3.105   9.628
 9030SOL    HW238433   4.585   3.189   9.652
 9031SOL     OW38434   4.342   3.429  10.594
 9031SOL    HW138435   4.337   3.511  10.651
 9031SOL    HW238436   4.431   3.426  10.549
 9032SOL     OW38437   3.763   2.939   9.610
 9032SOL    HW138438   3.862   2.928   9.601
 9032SOL    HW238439   3.723   2.853   9.642
 9033SOL     OW38440   3.954   2.490  11.285
 9033SOL    HW138441   3.861   2.488  11.322
 9033SOL    HW238442   3.955   2.451  11.193
 9034SOL     OW38443   3.954   3.296  11.710
 9034SOL    HW138444   3.928   3.392  11.710
 9034SOL    HW238445   3.883   3.242  11.755
 9035SOL     OW38446   3.964   2.953  12.058
 9035SOL    HW138447   3.978   2.869  12.110
 9035SOL    HW238448   3.909   3.017  12.113
 9036SOL     OW38449   4.344   3.648  12.611
 9036SOL    HW138450   4.252   3.631  12.646
 9036SOL    HW238451   4.372   3.740  12.637
 9037SOL     OW38452   3.837   2.599  12.769
 9037SOL    HW138453   3.925   2.586  12.814
 9037SOL    HW238454   3.824   2.696  12.747
 9038SOL     OW38455   3.921   2.838  12.436
 9038SOL    HW138456   4.010   2.793  12.422
 9038SOL    HW238457   3.848   2.773  12.417
 9039SOL     OW38458   3.800   2.673  11.961
 9039SOL    HW138459   3.899   2.661  11.970
 9039SOL    HW238460   3.776   2.768  11.982
 9040SOL     OW38461   3.854   3.683  12.743
 9040SOL    HW138462   3.844   3.668  12.842
 9040SOL    HW238463   3.768   3.719  12.707
 9041SOL     OW38464   4.274   2.058  12.057
 9041SOL    HW138465   4.269   2.053  12.157
 9041SOL    HW238466   4.276   2.154  12.028
 9042SOL     OW38467   4.106   2.562  11.652
 9042SOL    HW138468   4.151   2.472  11.649
 9042SOL    HW238469   4.012   2.551  11.685
 9043SOL     OW38470   4.183   3.014  11.913
 9043SOL    HW138471   4.112   2.987  11.978
 9043SOL    HW238472   4.157   2.986  11.820
 9044SOL     OW38473   4.285   2.084  12.319
 9044SOL    HW138474   4.323   2.000  12.356
 9044SOL    HW238475   4.197   2.103  12.363
 9045SOL     OW38476   4.590   2.316  11.814
 9045SOL    HW138477   4.558   2.388  11.752
 9045SOL    HW238478   4.614   2.235  11.761
 9046SOL     OW38479   4.741   1.901  11.925
 9046SOL    HW138480   4.669   1.906  11.856
 9046SOL    HW238481   4.717   1.832  11.994
 9047SOL     OW38482   4.639   1.951  12.574
 9047SOL    HW138483   4.664   1.931  12.479
 9047SOL    HW238484   4.711   2.007  12.616
 9048SOL     OW38485   4.134   2.675  12.423
 9048SOL    HW138486   4.220   2.687  12.473
 9048SOL    HW238487   4.092   2.588  12.450
 9049SOL     OW38488   3.788   3.426  12.503
 9049SOL    HW138489   3.742   3.508  12.469
 9049SOL    HW238490   3.886   3.445  12.512
 9050SOL     OW38491   4.290   2.399  12.037
 9050SOL    HW138492   4.302   2.465  11.963
 9050SOL    HW238493   4.336   2.433  12.120
 9051SOL     OW38494   4.078   3.372  12.501
 9051SOL    HW138495   4.057   3.328  12.414
 9051SOL    HW238496   4.175   3.398  12.504
 9052SOL     OW38497   4.297   2.732  12.201
 9052SOL    HW138498   4.341   2.821  12.192
 9052SOL    HW238499   4.234   2.732  12.278
 9053SOL     OW38500   3.761   3.172  12.454
 9053SOL    HW138501   3.814   3.123  12.522
 9053SOL    HW238502   3.783   3.270  12.459
 9054SOL     OW38503   4.456   2.496  12.236
 9054SOL    HW138504   4.515   2.470  12.160
 9054SOL    HW238505   4.428   2.592  12.225
 9055SOL     OW38506   4.043   2.672  12.121
 9055SOL    HW138507   4.136   2.708  12.126
 9055SOL    HW238508   4.037   2.587  12.173
 9056SOL     OW38509   4.063   2.371  12.178
 9056SOL    HW138510   4.011   2.288  12.161
 9056SOL    HW238511   4.140   2.376  12.114
 9057SOL     OW38512   3.764   2.406  12.286
 9057SOL    HW138513   3.849   2.373  12.245
 9057SOL    HW238514   3.777   2.421  12.384
 9058SOL     OW38515   3.913   2.382  12.894
 9058SOL    HW138516   3.972   2.342  12.824
 9058SOL    HW238517   3.855   2.453  12.853
 9059SOL     OW38518   3.883   2.999  12.638
 9059SOL    HW138519   3.905   2.938  12.714
 9059SOL    HW238520   3.893   2.950  12.552
 9060SOL     OW38521   3.807   3.120  12.194
 9060SOL    HW138522   3.802   3.119  12.294
 9060SOL    HW238523   3.724   3.079  12.156
 9061SOL     OW38524   5.004   2.789  11.844
 9061SOL    HW138525   5.064   2.708  11.846
 9061SOL    HW238526   5.044   2.858  11.784
 9062SOL     OW38527   4.396   3.478  11.326
 9062SOL    HW138528   4.405   3.488  11.227
 9062SOL    HW238529   4.356   3.389  11.347
 9063SOL     OW38530   4.763   2.960  11.868
 9063SOL    HW138531   4.693   2.913  11.922
 9063SOL    HW238532   4.822   2.892  11.825
 9064SOL     OW38533   4.738   2.098  12.143
 9064SOL    HW138534   4.730   2.062  12.050
 9064SOL    HW238535   4.736   2.022  12.208
 9065SOL     OW38536   4.396   2.065  12.661
 9065SOL    HW138537   4.486   2.049  12.621
 9065SOL    HW238538   4.404   2.070  12.760
 9066SOL     OW38539   3.799   2.207  11.205
 9066SOL    HW138540   3.707   2.179  11.176
 9066SOL    HW238541   3.830   2.284  11.149
 9067SOL     OW38542   4.114   3.603  12.732
 9067SOL    HW138543   4.023   3.644  12.730
 9067SOL    HW238544   4.107   3.509  12.764
 9068SOL     OW38545   4.318   2.607  11.824
 9068SOL    HW138546   4.368   2.692  11.805
 9068SOL    HW238547   4.230   2.609  11.776
 9069SOL     OW38548   3.803   3.102  11.825
 9069SOL    HW138549   3.802   3.055  11.913
 9069SOL    HW238550   3.885   3.074  11.774
 9070SOL     OW38551   4.725   1.896  12.326
 9070SOL    HW138552   4.662   1.824  12.295
 9070SOL    HW238553   4.818   1.860  12.326
 9071SOL     OW38554   4.494   3.192  11.473
 9071SOL    HW138555   4.448   3.105  11.490
 9071SOL    HW238556   4.585   3.189  11.514
 9072SOL     OW38557   3.954   2.490  13.147
 9072SOL    HW138558   3.861   2.488  13.184
 9072SOL    HW238559   3.955   2.451  13.055
 9073SOL     OW38560   3.949   2.137  14.030
 9073SOL    HW138561   3.984   2.120  14.122
 9073SOL    HW238562   3.861   2.092  14.018
 9074SOL     OW38563   4.293   3.137  14.199
 9074SOL    HW138564   4.200   3.130  14.162
 9074SOL    HW238565   4.304   3.226  14.243
 9075SOL     OW38566   4.059   3.297  14.095
 9075SOL    HW138567   3.981   3.266  14.042
 9075SOL    HW238568   4.117   3.355  14.038
 9076SOL     OW38569   4.162   2.254  14.533
 9076SOL    HW138570   4.244   2.198  14.542
 9076SOL    HW238571   4.081   2.196  14.537
 9077SOL     OW38572   4.337   3.227  13.760
 9077SOL    HW138573   4.288   3.140  13.769
 9077SOL    HW238574   4.314   3.270  13.673
 9078SOL     OW38575   4.041   2.113  14.835
 9078SOL    HW138576   4.112   2.184  14.841
 9078SOL    HW238577   3.953   2.152  14.863
 9079SOL     OW38578   4.263   1.926  13.546
 9079SOL    HW138579   4.182   1.927  13.604
 9079SOL    HW238580   4.266   2.009  13.491
 9080SOL     OW38581   4.183   3.014  13.775
 9080SOL    HW138582   4.112   2.987  13.840
 9080SOL    HW238583   4.157   2.986  13.682
 9081SOL     OW38584   4.590   2.316  13.676
 9081SOL    HW138585   4.558   2.388  13.614
 9081SOL    HW238586   4.614   2.235  13.623
 9082SOL     OW38587   4.134   2.675  14.285
 9082SOL    HW138588   4.220   2.687  14.335
 9082SOL    HW238589   4.092   2.588  14.312
 9083SOL     OW38590   4.933   2.387  13.309
 9083SOL    HW138591   4.946   2.303  13.363
 9083SOL    HW238592   4.904   2.461  13.369
 9084SOL     OW38593   4.704   3.435  14.734
 9084SOL    HW138594   4.684   3.479  14.646
 9084SOL    HW238595   4.743   3.344  14.718
 9085SOL     OW38596   4.043   2.672  13.983
 9085SOL    HW138597   4.136   2.708  13.988
 9085SOL    HW238598   4.037   2.587  14.035
 9086SOL     OW38599   3.812   3.663  13.961
 9086SOL    HW138600   3.770   3.577  13.934
 9086SOL    HW238601   3.906   3.666  13.927
 9087SOL     OW38602   4.539   2.434  13.359
 9087SOL    HW138603   4.546   2.345  13.313
 9087SOL    HW238604   4.445   2.468  13.351
 9088SOL     OW38605   3.976   3.426  14.778
 9088SOL    HW138606   3.946   3.483  14.854
 9088SOL    HW238607   3.969   3.329  14.804
 9089SOL     OW38608   4.654   3.540  14.499
 9089SOL    HW138609   4.630   3.522  14.404
 9089SOL    HW238610   4.684   3.634  14.509
 9090SOL     OW38611   4.197   2.362  13.225
 9090SOL    HW138612   4.258   2.442  13.229
 9090SOL    HW238613   4.102   2.393  13.232
 9091SOL     OW38614   4.412   3.524  14.750
 9091SOL    HW138615   4.356   3.605  14.759
 9091SOL    HW238616   4.464   3.528  14.664
 9092SOL     OW38617   3.854   3.656  14.885
 9092SOL    HW138618   3.813   3.582  14.938
 9092SOL    HW238619   3.918   3.707  14.943
 9093SOL     OW38620   4.096   3.150  14.524
 9093SOL    HW138621   4.083   3.243  14.490
 9093SOL    HW238622   4.012   3.098  14.511
 9094SOL     OW38623   4.738   2.098  14.005
 9094SOL    HW138624   4.730   2.062  13.912
 9094SOL    HW238625   4.736   2.022  14.070
 9095SOL     OW38626   4.396   2.065  14.523
 9095SOL    HW138627   4.486   2.049  14.483
 9095SOL    HW238628   4.404   2.070  14.622
 9096SOL     OW38629   4.536   3.448  13.721
 9096SOL    HW138630   4.568   3.458  13.627
 9096SOL    HW238631   4.457   3.386  13.723
 9097SOL     OW38632   4.725   1.896  14.188
 9097SOL    HW138633   4.662   1.824  14.157
 9097SOL    HW238634   4.818   1.860  14.188
 9098SOL     OW38635   4.599   3.508  13.371
 9098SOL    HW138636   4.522   3.473  13.317
 9098SOL    HW238637   4.567   3.579  13.433
 9099SOL     OW38638   3.954   2.490  15.009
 9099SOL    HW138639   3.861   2.488  15.046
 9099SOL    HW238640   3.955   2.451  14.917
 9100SOL     OW38641   4.492   3.006  15.920
 9100SOL    HW138642   4.414   3.023  15.980
 9100SOL    HW238643   4.526   3.093  15.884
 9101SOL     OW38644   3.954   3.296  15.434
 9101SOL    HW138645   3.928   3.392  15.434
 9101SOL    HW238646   3.883   3.242  15.479
 9102SOL     OW38647   4.344   3.648  16.336
 9102SOL    HW138648   4.252   3.631  16.371
 9102SOL    HW238649   4.372   3.740  16.362
 9103SOL     OW38650   3.751   3.458  15.013
 9103SOL    HW138651   3.732   3.362  15.034
 9103SOL    HW238652   3.718   3.516  15.088
 9104SOL     OW38653   4.041   2.113  16.698
 9104SOL    HW138654   4.112   2.184  16.704
 9104SOL    HW238655   3.953   2.152  16.726
 9105SOL     OW38656   4.322   2.591  15.166
 9105SOL    HW138657   4.346   2.660  15.098
 9105SOL    HW238658   4.244   2.624  15.220
 9106SOL     OW38659   4.697   2.752  16.469
 9106SOL    HW138660   4.743   2.668  16.440
 9106SOL    HW238661   4.641   2.786  16.394
 9107SOL     OW38662   4.274   2.058  15.781
 9107SOL    HW138663   4.269   2.053  15.881
 9107SOL    HW238664   4.276   2.154  15.752
 9108SOL     OW38665   4.045   2.805  15.138
 9108SOL    HW138666   4.127   2.844  15.096
 9108SOL    HW238667   4.018   2.723  15.089
 9109SOL     OW38668   4.188   3.605  15.219
 9109SOL    HW138669   4.221   3.644  15.305
 9109SOL    HW238670   4.264   3.598  15.154
 9110SOL     OW38671   3.973   3.647  16.138
 9110SOL    HW138672   4.030   3.582  16.188
 9110SOL    HW238673   3.957   3.614  16.045
 9111SOL     OW38674   4.183   3.014  15.637
 9111SOL    HW138675   4.112   2.987  15.702
 9111SOL    HW238676   4.157   2.986  15.544
 9112SOL     OW38677   4.212   3.247  15.070
 9112SOL    HW138678   4.125   3.232  15.117
 9112SOL    HW238679   4.195   3.273  14.975
 9113SOL     OW38680   4.639   1.951  16.299
 9113SOL    HW138681   4.664   1.931  16.204
 9113SOL    HW238682   4.711   2.007  16.341
 9114SOL     OW38683   4.704   2.978  16.616
 9114SOL    HW138684   4.605   2.984  16.626
 9114SOL    HW238685   4.727   2.898  16.560
 9115SOL     OW38686   4.091   2.962  15.397
 9115SOL    HW138687   4.084   3.045  15.341
 9115SOL    HW238688   4.095   2.882  15.337
 9116SOL     OW38689   4.078   3.372  16.226
 9116SOL    HW138690   4.057   3.328  16.139
 9116SOL    HW238691   4.175   3.398  16.229
 9117SOL     OW38692   4.126   2.613  16.495
 9117SOL    HW138693   4.194   2.668  16.448
 9117SOL    HW238694   4.166   2.525  16.522
 9118SOL     OW38695   4.228   1.912  16.637
 9118SOL    HW138696   4.186   1.855  16.567
 9118SOL    HW238697   4.162   1.981  16.669
 9119SOL     OW38698   4.933   2.387  15.171
 9119SOL    HW138699   4.946   2.303  15.225
 9119SOL    HW238700   4.904   2.461  15.231
 9120SOL     OW38701   4.747   2.628  15.863
 9120SOL    HW138702   4.762   2.649  15.959
 9120SOL    HW238703   4.717   2.533  15.854
 9121SOL     OW38704   4.704   3.435  16.597
 9121SOL    HW138705   4.684   3.479  16.509
 9121SOL    HW238706   4.743   3.344  16.581
 9122SOL     OW38707   4.726   2.658  16.135
 9122SOL    HW138708   4.767   2.626  16.221
 9122SOL    HW238709   4.630   2.631  16.132
 9123SOL     OW38710   3.883   2.999  16.363
 9123SOL    HW138711   3.905   2.938  16.439
 9123SOL    HW238712   3.893   2.950  16.277
 9124SOL     OW38713   4.412   3.524  16.613
 9124SOL    HW138714   4.356   3.605  16.622
 9124SOL    HW238715   4.464   3.528  16.527
 9125SOL     OW38716   3.854   3.656  16.748
 9125SOL    HW138717   3.813   3.582  16.801
 9125SOL    HW238718   3.918   3.707  16.806
 9126SOL     OW38719   5.004   2.789  15.568
 9126SOL    HW138720   5.064   2.708  15.570
 9126SOL    HW238721   5.044   2.858  15.508
 9127SOL     OW38722   4.554   3.135  16.319
 9127SOL    HW138723   4.549   3.168  16.414
 9127SOL    HW238724   4.468   3.154  16.273
 9128SOL     OW38725   4.396   3.478  15.050
 9128SOL    HW138726   4.405   3.488  14.951
 9128SOL    HW238727   4.356   3.389  15.071
 9129SOL     OW38728   3.987   2.188  15.616
 9129SOL    HW138729   3.908   2.239  15.582
 9129SOL    HW238730   3.978   2.173  15.714
 9130SOL     OW38731   4.546   2.864  16.269
 9130SOL    HW138732   4.586   2.863  16.177
 9130SOL    HW238733   4.556   2.956  16.309
 9131SOL     OW38734   4.096   3.150  16.387
 9131SOL    HW138735   4.083   3.243  16.353
 9131SOL    HW238736   4.012   3.098  16.374
 9132SOL     OW38737   4.763   2.960  15.592
 9132SOL    HW138738   4.693   2.913  15.646
 9132SOL    HW238739   4.822   2.892  15.549
 9133SOL     OW38740   4.314   3.349  15.387
 9133SOL    HW138741   4.356   3.291  15.317
 9133SOL    HW238742   4.270   3.428  15.343
 9134SOL     OW38743   3.979   3.210  15.186
 9134SOL    HW138744   3.883   3.211  15.159
 9134SOL    HW238745   3.991   3.263  15.270
 9135SOL     OW38746   4.337   2.704  16.328
 9135SOL    HW138747   4.393   2.785  16.311
 9135SOL    HW238748   4.396   2.624  16.331
 9136SOL     OW38749   4.440   2.427  16.605
 9136SOL    HW138750   4.459   2.492  16.679
 9136SOL    HW238751   4.500   2.347  16.614
 9137SOL     OW38752   4.949   2.187  15.345
 9137SOL    HW138753   5.014   2.113  15.334
 9137SOL    HW238754   4.969   2.237  15.429
 9138SOL     OW38755   4.583   2.818  15.757
 9138SOL    HW138756   4.637   2.749  15.805
 9138SOL    HW238757   4.551   2.887  15.823
 9139SOL     OW38758   3.803   3.102  15.549
 9139SOL    HW138759   3.802   3.055  15.637
 9139SOL    HW238760   3.885   3.074  15.498
 9140SOL     OW38761   4.396   3.253  16.521
 9140SOL    HW138762   4.318   3.203  16.559
 9140SOL    HW238763   4.393   3.348  16.552
 9141SOL     OW38764   3.954   2.490  16.872
 9141SOL    HW138765   3.861   2.488  16.909
 9141SOL    HW238766   3.955   2.451  16.780
 9142SOL     OW38767   4.293   3.137  17.924
 9142SOL    HW138768   4.200   3.130  17.887
 9142SOL    HW238769   4.304   3.226  17.968
 9143SOL     OW38770   3.955   3.575  17.242
 9143SOL    HW138771   3.989   3.652  17.296
 9143SOL    HW238772   3.999   3.575  17.152
 9144SOL     OW38773   3.846   2.505  17.322
 9144SOL    HW138774   3.801   2.417  17.339
 9144SOL    HW238775   3.845   2.559  17.406
 9145SOL     OW38776   3.751   3.458  16.876
 9145SOL    HW138777   3.732   3.362  16.897
 9145SOL    HW238778   3.718   3.516  16.951
 9146SOL     OW38779   4.533   1.866  17.261
 9146SOL    HW138780   4.573   1.957  17.252
 9146SOL    HW238781   4.433   1.874  17.267
 9147SOL     OW38782   4.075   3.663  17.612
 9147SOL    HW138783   4.125   3.577  17.618
 9147SOL    HW238784   4.140   3.740  17.609
 9148SOL     OW38785   4.045   2.805  17.001
 9148SOL    HW138786   4.127   2.844  16.959
 9148SOL    HW238787   4.018   2.723  16.952
 9149SOL     OW38788   4.188   3.605  17.082
 9149SOL    HW138789   4.221   3.644  17.168
 9149SOL    HW238790   4.264   3.598  17.017
 9150SOL     OW38791   3.973   3.647  18.000
 9150SOL    HW138792   4.030   3.582  18.050
 9150SOL    HW238793   3.957   3.614  17.907
 9151SOL     OW38794   4.338   1.984  16.876
 9151SOL    HW138795   4.436   1.962  16.883
 9151SOL    HW238796   4.307   1.967  16.783
 9152SOL     OW38797   4.646   2.365  17.658
 9152SOL    HW138798   4.621   2.356  17.562
 9152SOL    HW238799   4.694   2.283  17.689
 9153SOL     OW38800   4.021   1.897  16.930
 9153SOL    HW138801   4.070   1.981  16.909
 9153SOL    HW238802   4.083   1.832  16.975
 9154SOL     OW38803   4.756   2.411  16.775
 9154SOL    HW138804   4.715   2.493  16.736
 9154SOL    HW238805   4.820   2.437  16.848
 9155SOL     OW38806   4.590   2.316  17.401
 9155SOL    HW138807   4.558   2.388  17.339
 9155SOL    HW238808   4.614   2.235  17.348
 9156SOL     OW38809   4.741   1.901  17.512
 9156SOL    HW138810   4.669   1.906  17.443
 9156SOL    HW238811   4.717   1.832  17.581
 9157SOL     OW38812   4.290   2.399  17.624
 9157SOL    HW138813   4.302   2.465  17.550
 9157SOL    HW238814   4.336   2.433  17.707
 9158SOL     OW38815   4.297   2.732  17.788
 9158SOL    HW138816   4.341   2.821  17.779
 9158SOL    HW238817   4.234   2.732  17.865
 9159SOL     OW38818   4.933   2.387  17.034
 9159SOL    HW138819   4.946   2.303  17.088
 9159SOL    HW238820   4.904   2.461  17.094
 9160SOL     OW38821   4.031   2.075  17.990
 9160SOL    HW138822   4.008   2.112  18.080
 9160SOL    HW238823   4.001   1.980  17.984
 9161SOL     OW38824   4.043   2.672  17.708
 9161SOL    HW138825   4.136   2.708  17.713
 9161SOL    HW238826   4.037   2.587  17.760
 9162SOL     OW38827   4.396   3.478  16.913
 9162SOL    HW138828   4.405   3.488  16.814
 9162SOL    HW238829   4.356   3.389  16.934
 9163SOL     OW38830   4.546   2.864  18.131
 9163SOL    HW138831   4.586   2.863  18.039
 9163SOL    HW238832   4.556   2.956  18.171
 9164SOL     OW38833   4.314   3.349  17.250
 9164SOL    HW138834   4.356   3.291  17.180
 9164SOL    HW238835   4.270   3.428  17.206
 9165SOL     OW38836   3.799   2.207  16.792
 9165SOL    HW138837   3.707   2.179  16.763
 9165SOL    HW238838   3.830   2.284  16.736
 9166SOL     OW38839   3.796   2.028  17.077
 9166SOL    HW138840   3.779   2.111  17.023
 9166SOL    HW238841   3.886   1.991  17.055
 9167SOL     OW38842   4.949   2.187  17.208
 9167SOL    HW138843   5.014   2.113  17.197
 9167SOL    HW238844   4.969   2.237  17.292
 9168SOL     OW38845   4.583   3.236  16.775
 9168SOL    HW138846   4.537   3.251  16.863
 9168SOL    HW238847   4.627   3.321  16.745
 9169SOL     OW38848   4.385   3.652  17.712
 9169SOL    HW138849   4.339   3.740  17.699
 9169SOL    HW238850   4.484   3.664  17.705
 9170SOL     OW38851   3.763   2.939  17.059
 9170SOL    HW138852   3.862   2.928  17.050
 9170SOL    HW238853   3.723   2.853  17.091
 9171SOL     OW38854   3.954   4.352   0.113
 9171SOL    HW138855   3.861   4.350   0.150
 9171SOL    HW238856   3.955   4.313   0.021
 9172SOL     OW38857   3.949   3.999   0.996
 9172SOL    HW138858   3.984   3.982   1.088
 9172SOL    HW238859   3.861   3.954   0.984
 9173SOL     OW38860   4.492   4.868   1.023
 9173SOL    HW138861   4.414   4.885   1.083
 9173SOL    HW238862   4.526   4.955   0.987
 9174SOL     OW38863   4.409   4.736   0.665
 9174SOL    HW138864   4.478   4.720   0.735
 9174SOL    HW238865   4.336   4.793   0.703
 9175SOL     OW38866   3.964   4.815   0.886
 9175SOL    HW138867   3.978   4.731   0.938
 9175SOL    HW238868   3.909   4.879   0.941
 9176SOL     OW38869   4.330   4.688   0.123
 9176SOL    HW138870   4.337   4.772   0.069
 9176SOL    HW238871   4.376   4.701   0.211
 9177SOL     OW38872   3.846   4.367   0.563
 9177SOL    HW138873   3.801   4.279   0.580
 9177SOL    HW238874   3.845   4.421   0.647
 9178SOL     OW38875   4.533   3.728   0.502
 9178SOL    HW138876   4.573   3.819   0.493
 9178SOL    HW238877   4.433   3.736   0.508
 9179SOL     OW38878   4.322   4.453   0.270
 9179SOL    HW138879   4.346   4.522   0.202
 9179SOL    HW238880   4.244   4.486   0.324
 9180SOL     OW38881   4.589   4.072   0.195
 9180SOL    HW138882   4.648   4.135   0.146
 9180SOL    HW238883   4.608   3.978   0.166
 9181SOL     OW38884   4.106   4.424   0.480
 9181SOL    HW138885   4.151   4.334   0.477
 9181SOL    HW238886   4.012   4.413   0.513
 9182SOL     OW38887   4.338   3.846   0.117
 9182SOL    HW138888   4.436   3.824   0.124
 9182SOL    HW238889   4.307   3.829   0.024
 9183SOL     OW38890   4.505   3.988   1.749
 9183SOL    HW138891   4.572   3.927   1.792
 9183SOL    HW238892   4.432   4.007   1.814
 9184SOL     OW38893   4.646   4.227   0.899
 9184SOL    HW138894   4.621   4.218   0.803
 9184SOL    HW238895   4.694   4.145   0.930
 9185SOL     OW38896   4.251   3.980   0.328
 9185SOL    HW138897   4.278   3.921   0.253
 9185SOL    HW238898   4.251   4.075   0.297
 9186SOL     OW38899   4.639   3.813   1.402
 9186SOL    HW138900   4.664   3.793   1.307
 9186SOL    HW238901   4.711   3.869   1.444
 9187SOL     OW38902   4.737   3.829   1.770
 9187SOL    HW138903   4.743   3.914   1.718
 9187SOL    HW238904   4.769   3.753   1.713
 9188SOL     OW38905   4.747   4.490   0.966
 9188SOL    HW138906   4.762   4.511   1.062
 9188SOL    HW238907   4.717   4.395   0.957
 9189SOL     OW38908   4.074   4.622   1.804
 9189SOL    HW138909   4.150   4.666   1.852
 9189SOL    HW238910   4.109   4.575   1.722
 9190SOL     OW38911   3.913   4.244   1.722
 9190SOL    HW138912   3.972   4.204   1.652
 9190SOL    HW238913   3.855   4.315   1.681
 9191SOL     OW38914   4.539   4.296   0.325
 9191SOL    HW138915   4.546   4.207   0.279
 9191SOL    HW238916   4.445   4.330   0.317
 9192SOL     OW38917   4.197   4.224   0.191
 9192SOL    HW138918   4.258   4.304   0.195
 9192SOL    HW238919   4.102   4.255   0.198
 9193SOL     OW38920   3.987   4.050   0.720
 9193SOL    HW138921   3.908   4.101   0.686
 9193SOL    HW238922   3.978   4.035   0.818
 9194SOL     OW38923   4.640   4.634   0.291
 9194SOL    HW138924   4.703   4.672   0.223
 9194SOL    HW238925   4.680   4.551   0.330
 9195SOL     OW38926   3.829   4.737   1.726
 9195SOL    HW138927   3.752   4.704   1.780
 9195SOL    HW238928   3.914   4.707   1.768
 9196SOL     OW38929   4.396   3.927   1.489
 9196SOL    HW138930   4.486   3.911   1.449
 9196SOL    HW238931   4.404   3.932   1.588
 9197SOL     OW38932   4.318   4.469   0.652
 9197SOL    HW138933   4.368   4.554   0.633
 9197SOL    HW238934   4.230   4.471   0.604
 9198SOL     OW38935   4.583   4.680   0.861
 9198SOL    HW138936   4.637   4.611   0.909
 9198SOL    HW238937   4.551   4.749   0.927
 9199SOL     OW38938   4.152   4.148   0.520
 9199SOL    HW138939   4.182   4.076   0.458
 9199SOL    HW238940   4.113   4.108   0.603
 9200SOL     OW38941   4.725   3.758   1.154
 9200SOL    HW138942   4.662   3.686   1.123
 9200SOL    HW238943   4.818   3.722   1.154
 9201SOL     OW38944   3.954   4.352   1.975
 9201SOL    HW138945   3.861   4.350   2.012
 9201SOL    HW238946   3.955   4.313   1.883
 9202SOL     OW38947   3.949   3.999   2.858
 9202SOL    HW138948   3.984   3.982   2.950
 9202SOL    HW238949   3.861   3.954   2.846
 9203SOL     OW38950   3.743   4.092   2.509
 9203SOL    HW138951   3.661   4.135   2.548
 9203SOL    HW238952   3.715   4.019   2.446
 9204SOL     OW38953   4.492   4.868   2.885
 9204SOL    HW138954   4.414   4.885   2.945
 9204SOL    HW238955   4.526   4.955   2.849
 9205SOL     OW38956   4.574   4.522   3.685
 9205SOL    HW138957   4.570   4.598   3.750
 9205SOL    HW238958   4.596   4.558   3.594
 9206SOL     OW38959   4.409   4.736   2.527
 9206SOL    HW138960   4.478   4.720   2.597
 9206SOL    HW238961   4.336   4.793   2.565
 9207SOL     OW38962   4.162   4.116   3.361
 9207SOL    HW138963   4.244   4.060   3.370
 9207SOL    HW238964   4.081   4.058   3.365
 9208SOL     OW38965   3.964   4.815   2.748
 9208SOL    HW138966   3.978   4.731   2.800
 9208SOL    HW238967   3.909   4.879   2.803
 9209SOL     OW38968   4.330   4.688   1.985
 9209SOL    HW138969   4.337   4.772   1.931
 9209SOL    HW238970   4.376   4.701   2.073
 9210SOL     OW38971   3.846   4.367   2.425
 9210SOL    HW138972   3.801   4.279   2.442
 9210SOL    HW238973   3.845   4.421   2.509
 9211SOL     OW38974   3.837   4.461   3.459
 9211SOL    HW138975   3.925   4.448   3.504
 9211SOL    HW238976   3.824   4.558   3.437
 9212SOL     OW38977   4.533   3.728   2.364
 9212SOL    HW138978   4.573   3.819   2.355
 9212SOL    HW238979   4.433   3.736   2.370
 9213SOL     OW38980   3.921   4.700   3.126
 9213SOL    HW138981   4.010   4.655   3.112
 9213SOL    HW238982   3.848   4.635   3.107
 9214SOL     OW38983   4.041   3.975   3.663
 9214SOL    HW138984   4.112   4.046   3.669
 9214SOL    HW238985   3.953   4.014   3.691
 9215SOL     OW38986   4.322   4.453   2.132
 9215SOL    HW138987   4.346   4.522   2.064
 9215SOL    HW238988   4.244   4.486   2.186
 9216SOL     OW38989   4.531   4.329   3.327
 9216SOL    HW138990   4.484   4.326   3.416
 9216SOL    HW238991   4.480   4.274   3.261
 9217SOL     OW38992   4.697   4.614   3.434
 9217SOL    HW138993   4.743   4.530   3.405
 9217SOL    HW238994   4.641   4.648   3.359
 9218SOL     OW38995   4.715   4.134   3.104
 9218SOL    HW138996   4.638   4.168   3.158
 9218SOL    HW238997   4.681   4.083   3.025
 9219SOL     OW38998   3.800   4.535   2.651
 9219SOL    HW138999   3.899   4.523   2.660
 9219SOL    HW239000   3.776   4.630   2.672
 9220SOL     OW39001   4.589   4.072   2.057
 9220SOL    HW139002   4.648   4.135   2.008
 9220SOL    HW239003   4.608   3.978   2.028
 9221SOL     OW39004   4.274   3.920   2.747
 9221SOL    HW139005   4.269   3.915   2.847
 9221SOL    HW239006   4.276   4.016   2.718
 9222SOL     OW39007   3.926   4.009   3.360
 9222SOL    HW139008   3.846   4.069   3.347
 9222SOL    HW239009   3.916   3.960   3.446
 9223SOL     OW39010   4.106   4.424   2.342
 9223SOL    HW139011   4.151   4.334   2.339
 9223SOL    HW239012   4.012   4.413   2.375
 9224SOL     OW39013   4.338   3.846   1.979
 9224SOL    HW139014   4.436   3.824   1.986
 9224SOL    HW239015   4.307   3.829   1.886
 9225SOL     OW39016   4.505   3.988   3.611
 9225SOL    HW139017   4.572   3.927   3.654
 9225SOL    HW239018   4.432   4.007   3.676
 9226SOL     OW39019   4.646   4.227   2.761
 9226SOL    HW139020   4.621   4.218   2.665
 9226SOL    HW239021   4.694   4.145   2.792
 9227SOL     OW39022   4.263   3.788   2.374
 9227SOL    HW139023   4.182   3.789   2.432
 9227SOL    HW239024   4.266   3.871   2.319
 9228SOL     OW39025   4.021   3.759   2.033
 9228SOL    HW139026   4.070   3.843   2.012
 9228SOL    HW239027   4.083   3.694   2.078
 9229SOL     OW39028   4.659   3.960   2.342
 9229SOL    HW139029   4.611   4.001   2.264
 9229SOL    HW239030   4.758   3.958   2.323
 9230SOL     OW39031   3.802   4.280   3.248
 9230SOL    HW139032   3.894   4.279   3.207
 9230SOL    HW239033   3.796   4.354   3.315
 9231SOL     OW39034   4.285   3.946   3.009
 9231SOL    HW139035   4.323   3.862   3.046
 9231SOL    HW239036   4.197   3.965   3.053
 9232SOL     OW39037   4.590   4.178   2.504
 9232SOL    HW139038   4.558   4.250   2.442
 9232SOL    HW239039   4.614   4.097   2.451
 9233SOL     OW39040   4.741   3.763   2.615
 9233SOL    HW139041   4.669   3.768   2.546
 9233SOL    HW239042   4.717   3.694   2.684
 9234SOL     OW39043   4.251   3.980   2.190
 9234SOL    HW139044   4.278   3.921   2.115
 9234SOL    HW239045   4.251   4.075   2.159
 9235SOL     OW39046   4.639   3.813   3.264
 9235SOL    HW139047   4.664   3.793   3.169
 9235SOL    HW239048   4.711   3.869   3.306
 9236SOL     OW39049   4.134   4.537   3.113
 9236SOL    HW139050   4.220   4.549   3.163
 9236SOL    HW239051   4.092   4.450   3.140
 9237SOL     OW39052   4.290   4.261   2.727
 9237SOL    HW139053   4.302   4.327   2.653
 9237SOL    HW239054   4.336   4.295   2.810
 9238SOL     OW39055   4.126   4.475   3.460
 9238SOL    HW139056   4.194   4.530   3.413
 9238SOL    HW239057   4.166   4.387   3.487
 9239SOL     OW39058   4.737   3.829   3.632
 9239SOL    HW139059   4.743   3.914   3.580
 9239SOL    HW239060   4.769   3.753   3.575
 9240SOL     OW39061   4.228   3.774   3.602
 9240SOL    HW139062   4.186   3.717   3.532
 9240SOL    HW239063   4.162   3.843   3.634
 9241SOL     OW39064   4.297   4.594   2.891
 9241SOL    HW139065   4.341   4.683   2.882
 9241SOL    HW239066   4.234   4.594   2.968
 9242SOL     OW39067   4.933   4.249   2.137
 9242SOL    HW139068   4.946   4.165   2.191
 9242SOL    HW239069   4.904   4.323   2.197
 9243SOL     OW39070   4.031   3.937   3.093
 9243SOL    HW139071   4.008   3.974   3.183
 9243SOL    HW239072   4.001   3.842   3.087
 9244SOL     OW39073   4.456   4.358   2.926
 9244SOL    HW139074   4.515   4.332   2.850
 9244SOL    HW239075   4.428   4.454   2.915
 9245SOL     OW39076   4.031   3.787   2.480
 9245SOL    HW139077   4.020   3.881   2.513
 9245SOL    HW239078   4.026   3.724   2.557
 9246SOL     OW39079   4.747   4.490   2.828
 9246SOL    HW139080   4.762   4.511   2.924
 9246SOL    HW239081   4.717   4.395   2.819
 9247SOL     OW39082   4.074   4.622   3.666
 9247SOL    HW139083   4.150   4.666   3.714
 9247SOL    HW239084   4.109   4.575   3.584
 9248SOL     OW39085   4.043   4.534   2.811
 9248SOL    HW139086   4.136   4.570   2.816
 9248SOL    HW239087   4.037   4.449   2.863
 9249SOL     OW39088   4.063   4.233   2.868
 9249SOL    HW139089   4.011   4.150   2.851
 9249SOL    HW239090   4.140   4.238   2.804
 9250SOL     OW39091   4.726   4.520   3.100
 9250SOL    HW139092   4.767   4.488   3.186
 9250SOL    HW239093   4.630   4.493   3.097
 9251SOL     OW39094   3.764   4.268   2.976
 9251SOL    HW139095   3.849   4.235   2.935
 9251SOL    HW239096   3.777   4.283   3.074
 9252SOL     OW39097   3.913   4.244   3.584
 9252SOL    HW139098   3.972   4.204   3.514
 9252SOL    HW239099   3.855   4.315   3.543
 9253SOL     OW39100   4.539   4.296   2.187
 9253SOL    HW139101   4.546   4.207   2.141
 9253SOL    HW239102   4.445   4.330   2.179
 9254SOL     OW39103   4.395   4.188   3.131
 9254SOL    HW139104   4.361   4.099   3.101
 9254SOL    HW239105   4.421   4.242   3.051
 9255SOL     OW39106   4.197   4.224   2.053
 9255SOL    HW139107   4.258   4.304   2.057
 9255SOL    HW239108   4.102   4.255   2.060
 9256SOL     OW39109   5.026   4.579   2.171
 9256SOL    HW139110   4.940   4.548   2.213
 9256SOL    HW239111   5.022   4.565   2.072
 9257SOL     OW39112   3.987   4.050   2.582
 9257SOL    HW139113   3.908   4.101   2.548
 9257SOL    HW239114   3.978   4.035   2.680
 9258SOL     OW39115   4.640   4.634   2.153
 9258SOL    HW139116   4.703   4.672   2.085
 9258SOL    HW239117   4.680   4.551   2.192
 9259SOL     OW39118   4.738   3.960   2.833
 9259SOL    HW139119   4.730   3.924   2.740
 9259SOL    HW239120   4.736   3.884   2.898
 9260SOL     OW39121   4.396   3.927   3.351
 9260SOL    HW139122   4.486   3.911   3.311
 9260SOL    HW239123   4.404   3.932   3.450
 9261SOL     OW39124   3.799   4.069   1.895
 9261SOL    HW139125   3.707   4.041   1.866
 9261SOL    HW239126   3.830   4.146   1.839
 9262SOL     OW39127   3.796   3.890   2.180
 9262SOL    HW139128   3.779   3.973   2.126
 9262SOL    HW239129   3.886   3.853   2.158
 9263SOL     OW39130   4.337   4.566   3.293
 9263SOL    HW139131   4.393   4.647   3.276
 9263SOL    HW239132   4.396   4.486   3.296
 9264SOL     OW39133   4.440   4.289   3.570
 9264SOL    HW139134   4.459   4.354   3.644
 9264SOL    HW239135   4.500   4.209   3.579
 9265SOL     OW39136   4.949   4.049   2.311
 9265SOL    HW139137   5.014   3.975   2.300
 9265SOL    HW239138   4.969   4.099   2.395
 9266SOL     OW39139   4.318   4.469   2.514
 9266SOL    HW139140   4.368   4.554   2.495
 9266SOL    HW239141   4.230   4.471   2.466
 9267SOL     OW39142   4.583   4.680   2.723
 9267SOL    HW139143   4.637   4.611   2.771
 9267SOL    HW239144   4.551   4.749   2.789
 9268SOL     OW39145   3.803   4.964   2.515
 9268SOL    HW139146   3.802   4.917   2.603
 9268SOL    HW239147   3.885   4.936   2.464
 9269SOL     OW39148   4.152   4.148   2.382
 9269SOL    HW139149   4.182   4.076   2.320
 9269SOL    HW239150   4.113   4.108   2.465
 9270SOL     OW39151   4.041   4.271   3.142
 9270SOL    HW139152   4.079   4.212   3.214
 9270SOL    HW239153   4.081   4.245   3.054
 9271SOL     OW39154   4.725   3.758   3.016
 9271SOL    HW139155   4.662   3.686   2.985
 9271SOL    HW239156   4.818   3.722   3.016
 9272SOL     OW39157   3.763   4.801   2.162
 9272SOL    HW139158   3.862   4.790   2.153
 9272SOL    HW239159   3.723   4.715   2.194
 9273SOL     OW39160   3.954   4.352   3.837
 9273SOL    HW139161   3.861   4.350   3.874
 9273SOL    HW239162   3.955   4.313   3.745
 9274SOL     OW39163   3.949   3.999   4.720
 9274SOL    HW139164   3.984   3.982   4.812
 9274SOL    HW239165   3.861   3.954   4.708
 9275SOL     OW39166   3.743   4.092   4.371
 9275SOL    HW139167   3.661   4.135   4.410
 9275SOL    HW239168   3.715   4.019   4.308
 9276SOL     OW39169   4.492   4.868   4.747
 9276SOL    HW139170   4.414   4.885   4.807
 9276SOL    HW239171   4.526   4.955   4.711
 9277SOL     OW39172   4.574   4.522   5.547
 9277SOL    HW139173   4.570   4.598   5.612
 9277SOL    HW239174   4.596   4.558   5.456
 9278SOL     OW39175   4.409   4.736   4.389
 9278SOL    HW139176   4.478   4.720   4.459
 9278SOL    HW239177   4.336   4.793   4.427
 9279SOL     OW39178   4.162   4.116   5.223
 9279SOL    HW139179   4.244   4.060   5.232
 9279SOL    HW239180   4.081   4.058   5.227
 9280SOL     OW39181   3.964   4.815   4.610
 9280SOL    HW139182   3.978   4.731   4.662
 9280SOL    HW239183   3.909   4.879   4.665
 9281SOL     OW39184   4.330   4.688   3.847
 9281SOL    HW139185   4.337   4.772   3.793
 9281SOL    HW239186   4.376   4.701   3.935
 9282SOL     OW39187   3.846   4.367   4.287
 9282SOL    HW139188   3.801   4.279   4.304
 9282SOL    HW239189   3.845   4.421   4.371
 9283SOL     OW39190   3.837   4.461   5.321
 9283SOL    HW139191   3.925   4.448   5.366
 9283SOL    HW239192   3.824   4.558   5.299
 9284SOL     OW39193   4.533   3.728   4.226
 9284SOL    HW139194   4.573   3.819   4.217
 9284SOL    HW239195   4.433   3.736   4.232
 9285SOL     OW39196   3.921   4.700   4.988
 9285SOL    HW139197   4.010   4.655   4.974
 9285SOL    HW239198   3.848   4.635   4.969
 9286SOL     OW39199   4.041   3.975   5.525
 9286SOL    HW139200   4.112   4.046   5.531
 9286SOL    HW239201   3.953   4.014   5.553
 9287SOL     OW39202   4.322   4.453   3.994
 9287SOL    HW139203   4.346   4.522   3.926
 9287SOL    HW239204   4.244   4.486   4.048
 9288SOL     OW39205   4.531   4.329   5.189
 9288SOL    HW139206   4.484   4.326   5.278
 9288SOL    HW239207   4.480   4.274   5.123
 9289SOL     OW39208   4.697   4.614   5.296
 9289SOL    HW139209   4.743   4.530   5.267
 9289SOL    HW239210   4.641   4.648   5.221
 9290SOL     OW39211   4.715   4.134   4.966
 9290SOL    HW139212   4.638   4.168   5.020
 9290SOL    HW239213   4.681   4.083   4.887
 9291SOL     OW39214   3.800   4.535   4.513
 9291SOL    HW139215   3.899   4.523   4.522
 9291SOL    HW239216   3.776   4.630   4.534
 9292SOL     OW39217   4.589   4.072   3.919
 9292SOL    HW139218   4.648   4.135   3.870
 9292SOL    HW239219   4.608   3.978   3.890
 9293SOL     OW39220   4.274   3.920   4.609
 9293SOL    HW139221   4.269   3.915   4.709
 9293SOL    HW239222   4.276   4.016   4.580
 9294SOL     OW39223   3.926   4.009   5.222
 9294SOL    HW139224   3.846   4.069   5.209
 9294SOL    HW239225   3.916   3.960   5.308
 9295SOL     OW39226   4.106   4.424   4.204
 9295SOL    HW139227   4.151   4.334   4.201
 9295SOL    HW239228   4.012   4.413   4.237
 9296SOL     OW39229   4.338   3.846   3.841
 9296SOL    HW139230   4.436   3.824   3.848
 9296SOL    HW239231   4.307   3.829   3.748
 9297SOL     OW39232   4.505   3.988   5.473
 9297SOL    HW139233   4.572   3.927   5.516
 9297SOL    HW239234   4.432   4.007   5.538
 9298SOL     OW39235   4.646   4.227   4.623
 9298SOL    HW139236   4.621   4.218   4.527
 9298SOL    HW239237   4.694   4.145   4.654
 9299SOL     OW39238   4.263   3.788   4.236
 9299SOL    HW139239   4.182   3.789   4.294
 9299SOL    HW239240   4.266   3.871   4.181
 9300SOL     OW39241   4.021   3.759   3.895
 9300SOL    HW139242   4.070   3.843   3.874
 9300SOL    HW239243   4.083   3.694   3.940
 9301SOL     OW39244   4.659   3.960   4.204
 9301SOL    HW139245   4.611   4.001   4.126
 9301SOL    HW239246   4.758   3.958   4.185
 9302SOL     OW39247   4.756   4.273   3.740
 9302SOL    HW139248   4.715   4.355   3.701
 9302SOL    HW239249   4.820   4.299   3.813
 9303SOL     OW39250   3.802   4.280   5.110
 9303SOL    HW139251   3.894   4.279   5.069
 9303SOL    HW239252   3.796   4.354   5.177
 9304SOL     OW39253   4.285   3.946   4.871
 9304SOL    HW139254   4.323   3.862   4.908
 9304SOL    HW239255   4.197   3.965   4.915
 9305SOL     OW39256   4.590   4.178   4.366
 9305SOL    HW139257   4.558   4.250   4.304
 9305SOL    HW239258   4.614   4.097   4.313
 9306SOL     OW39259   4.741   3.763   4.477
 9306SOL    HW139260   4.669   3.768   4.408
 9306SOL    HW239261   4.717   3.694   4.546
 9307SOL     OW39262   4.251   3.980   4.052
 9307SOL    HW139263   4.278   3.921   3.977
 9307SOL    HW239264   4.251   4.075   4.021
 9308SOL     OW39265   4.639   3.813   5.126
 9308SOL    HW139266   4.664   3.793   5.031
 9308SOL    HW239267   4.711   3.869   5.168
 9309SOL     OW39268   4.134   4.537   4.975
 9309SOL    HW139269   4.220   4.549   5.025
 9309SOL    HW239270   4.092   4.450   5.002
 9310SOL     OW39271   4.290   4.261   4.589
 9310SOL    HW139272   4.302   4.327   4.515
 9310SOL    HW239273   4.336   4.295   4.672
 9311SOL     OW39274   4.737   3.829   5.494
 9311SOL    HW139275   4.743   3.914   5.442
 9311SOL    HW239276   4.769   3.753   5.437
 9312SOL     OW39277   4.228   3.774   5.464
 9312SOL    HW139278   4.186   3.717   5.394
 9312SOL    HW239279   4.162   3.843   5.496
 9313SOL     OW39280   4.297   4.594   4.753
 9313SOL    HW139281   4.341   4.683   4.744
 9313SOL    HW239282   4.234   4.594   4.830
 9314SOL     OW39283   4.933   4.249   3.999
 9314SOL    HW139284   4.946   4.165   4.053
 9314SOL    HW239285   4.904   4.323   4.059
 9315SOL     OW39286   4.031   3.937   4.955
 9315SOL    HW139287   4.008   3.974   5.045
 9315SOL    HW239288   4.001   3.842   4.949
 9316SOL     OW39289   4.456   4.358   4.788
 9316SOL    HW139290   4.515   4.332   4.712
 9316SOL    HW239291   4.428   4.454   4.777
 9317SOL     OW39292   4.031   3.787   4.342
 9317SOL    HW139293   4.020   3.881   4.375
 9317SOL    HW239294   4.026   3.724   4.419
 9318SOL     OW39295   4.747   4.490   4.690
 9318SOL    HW139296   4.762   4.511   4.786
 9318SOL    HW239297   4.717   4.395   4.681
 9319SOL     OW39298   4.074   4.622   5.528
 9319SOL    HW139299   4.150   4.666   5.576
 9319SOL    HW239300   4.109   4.575   5.446
 9320SOL     OW39301   4.043   4.534   4.673
 9320SOL    HW139302   4.136   4.570   4.678
 9320SOL    HW239303   4.037   4.449   4.725
 9321SOL     OW39304   4.063   4.233   4.730
 9321SOL    HW139305   4.011   4.150   4.713
 9321SOL    HW239306   4.140   4.238   4.666
 9322SOL     OW39307   4.726   4.520   4.962
 9322SOL    HW139308   4.767   4.488   5.048
 9322SOL    HW239309   4.630   4.493   4.959
 9323SOL     OW39310   3.764   4.268   4.838
 9323SOL    HW139311   3.849   4.235   4.797
 9323SOL    HW239312   3.777   4.283   4.936
 9324SOL     OW39313   3.913   4.244   5.446
 9324SOL    HW139314   3.972   4.204   5.376
 9324SOL    HW239315   3.855   4.315   5.405
 9325SOL     OW39316   4.539   4.296   4.049
 9325SOL    HW139317   4.546   4.207   4.003
 9325SOL    HW239318   4.445   4.330   4.041
 9326SOL     OW39319   4.395   4.188   4.993
 9326SOL    HW139320   4.361   4.099   4.963
 9326SOL    HW239321   4.421   4.242   4.913
 9327SOL     OW39322   4.197   4.224   3.915
 9327SOL    HW139323   4.258   4.304   3.919
 9327SOL    HW239324   4.102   4.255   3.922
 9328SOL     OW39325   3.883   4.861   5.190
 9328SOL    HW139326   3.905   4.800   5.266
 9328SOL    HW239327   3.893   4.812   5.104
 9329SOL     OW39328   5.026   4.579   4.033
 9329SOL    HW139329   4.940   4.548   4.075
 9329SOL    HW239330   5.022   4.565   3.934
 9330SOL     OW39331   3.987   4.050   4.444
 9330SOL    HW139332   3.908   4.101   4.410
 9330SOL    HW239333   3.978   4.035   4.542
 9331SOL     OW39334   4.640   4.634   4.015
 9331SOL    HW139335   4.703   4.672   3.947
 9331SOL    HW239336   4.680   4.551   4.054
 9332SOL     OW39337   4.738   3.960   4.695
 9332SOL    HW139338   4.730   3.924   4.602
 9332SOL    HW239339   4.736   3.884   4.760
 9333SOL     OW39340   3.829   4.737   5.450
 9333SOL    HW139341   3.752   4.704   5.504
 9333SOL    HW239342   3.914   4.707   5.492
 9334SOL     OW39343   4.396   3.927   5.213
 9334SOL    HW139344   4.486   3.911   5.173
 9334SOL    HW239345   4.404   3.932   5.312
 9335SOL     OW39346   3.799   4.069   3.757
 9335SOL    HW139347   3.707   4.041   3.728
 9335SOL    HW239348   3.830   4.146   3.701
 9336SOL     OW39349   3.796   3.890   4.042
 9336SOL    HW139350   3.779   3.973   3.988
 9336SOL    HW239351   3.886   3.853   4.020
 9337SOL     OW39352   4.337   4.566   5.155
 9337SOL    HW139353   4.393   4.647   5.138
 9337SOL    HW239354   4.396   4.486   5.158
 9338SOL     OW39355   4.440   4.289   5.432
 9338SOL    HW139356   4.459   4.354   5.506
 9338SOL    HW239357   4.500   4.209   5.441
 9339SOL     OW39358   4.949   4.049   4.173
 9339SOL    HW139359   5.014   3.975   4.162
 9339SOL    HW239360   4.969   4.099   4.257
 9340SOL     OW39361   4.318   4.469   4.376
 9340SOL    HW139362   4.368   4.554   4.357
 9340SOL    HW239363   4.230   4.471   4.328
 9341SOL     OW39364   4.583   4.680   4.585
 9341SOL    HW139365   4.637   4.611   4.633
 9341SOL    HW239366   4.551   4.749   4.651
 9342SOL     OW39367   3.803   4.964   4.377
 9342SOL    HW139368   3.802   4.917   4.465
 9342SOL    HW239369   3.885   4.936   4.326
 9343SOL     OW39370   4.152   4.148   4.244
 9343SOL    HW139371   4.182   4.076   4.182
 9343SOL    HW239372   4.113   4.108   4.327
 9344SOL     OW39373   4.041   4.271   5.004
 9344SOL    HW139374   4.079   4.212   5.076
 9344SOL    HW239375   4.081   4.245   4.916
 9345SOL     OW39376   4.725   3.758   4.878
 9345SOL    HW139377   4.662   3.686   4.847
 9345SOL    HW239378   4.818   3.722   4.878
 9346SOL     OW39379   3.763   4.801   4.024
 9346SOL    HW139380   3.862   4.790   4.015
 9346SOL    HW239381   3.723   4.715   4.056
 9347SOL     OW39382   3.954   4.352   5.699
 9347SOL    HW139383   3.861   4.350   5.736
 9347SOL    HW239384   3.955   4.313   5.607
 9348SOL     OW39385   3.949   3.999   6.582
 9348SOL    HW139386   3.984   3.982   6.674
 9348SOL    HW239387   3.861   3.954   6.570
 9349SOL     OW39388   3.743   4.092   6.233
 9349SOL    HW139389   3.661   4.135   6.272
 9349SOL    HW239390   3.715   4.019   6.170
 9350SOL     OW39391   4.492   4.868   6.609
 9350SOL    HW139392   4.414   4.885   6.669
 9350SOL    HW239393   4.526   4.955   6.573
 9351SOL     OW39394   4.574   4.522   7.409
 9351SOL    HW139395   4.570   4.598   7.474
 9351SOL    HW239396   4.596   4.558   7.318
 9352SOL     OW39397   4.409   4.736   6.251
 9352SOL    HW139398   4.478   4.720   6.321
 9352SOL    HW239399   4.336   4.793   6.289
 9353SOL     OW39400   4.162   4.116   7.085
 9353SOL    HW139401   4.244   4.060   7.094
 9353SOL    HW239402   4.081   4.058   7.089
 9354SOL     OW39403   3.964   4.815   6.472
 9354SOL    HW139404   3.978   4.731   6.524
 9354SOL    HW239405   3.909   4.879   6.527
 9355SOL     OW39406   4.330   4.688   5.709
 9355SOL    HW139407   4.337   4.772   5.655
 9355SOL    HW239408   4.376   4.701   5.797
 9356SOL     OW39409   3.846   4.367   6.149
 9356SOL    HW139410   3.801   4.279   6.166
 9356SOL    HW239411   3.845   4.421   6.233
 9357SOL     OW39412   3.837   4.461   7.183
 9357SOL    HW139413   3.925   4.448   7.228
 9357SOL    HW239414   3.824   4.558   7.161
 9358SOL     OW39415   4.533   3.728   6.088
 9358SOL    HW139416   4.573   3.819   6.079
 9358SOL    HW239417   4.433   3.736   6.094
 9359SOL     OW39418   3.921   4.700   6.850
 9359SOL    HW139419   4.010   4.655   6.836
 9359SOL    HW239420   3.848   4.635   6.831
 9360SOL     OW39421   4.041   3.975   7.387
 9360SOL    HW139422   4.112   4.046   7.393
 9360SOL    HW239423   3.953   4.014   7.415
 9361SOL     OW39424   4.322   4.453   5.856
 9361SOL    HW139425   4.346   4.522   5.788
 9361SOL    HW239426   4.244   4.486   5.910
 9362SOL     OW39427   4.531   4.329   7.051
 9362SOL    HW139428   4.484   4.326   7.140
 9362SOL    HW239429   4.480   4.274   6.985
 9363SOL     OW39430   4.697   4.614   7.158
 9363SOL    HW139431   4.743   4.530   7.129
 9363SOL    HW239432   4.641   4.648   7.083
 9364SOL     OW39433   4.715   4.134   6.828
 9364SOL    HW139434   4.638   4.168   6.882
 9364SOL    HW239435   4.681   4.083   6.749
 9365SOL     OW39436   3.800   4.535   6.375
 9365SOL    HW139437   3.899   4.523   6.384
 9365SOL    HW239438   3.776   4.630   6.396
 9366SOL     OW39439   4.589   4.072   5.781
 9366SOL    HW139440   4.648   4.135   5.732
 9366SOL    HW239441   4.608   3.978   5.752
 9367SOL     OW39442   4.274   3.920   6.471
 9367SOL    HW139443   4.269   3.915   6.571
 9367SOL    HW239444   4.276   4.016   6.442
 9368SOL     OW39445   3.926   4.009   7.084
 9368SOL    HW139446   3.846   4.069   7.071
 9368SOL    HW239447   3.916   3.960   7.170
 9369SOL     OW39448   4.106   4.424   6.066
 9369SOL    HW139449   4.151   4.334   6.063
 9369SOL    HW239450   4.012   4.413   6.099
 9370SOL     OW39451   4.338   3.846   5.703
 9370SOL    HW139452   4.436   3.824   5.710
 9370SOL    HW239453   4.307   3.829   5.610
 9371SOL     OW39454   4.505   3.988   7.335
 9371SOL    HW139455   4.572   3.927   7.378
 9371SOL    HW239456   4.432   4.007   7.400
 9372SOL     OW39457   4.646   4.227   6.485
 9372SOL    HW139458   4.621   4.218   6.389
 9372SOL    HW239459   4.694   4.145   6.516
 9373SOL     OW39460   4.263   3.788   6.098
 9373SOL    HW139461   4.182   3.789   6.156
 9373SOL    HW239462   4.266   3.871   6.043
 9374SOL     OW39463   4.021   3.759   5.757
 9374SOL    HW139464   4.070   3.843   5.736
 9374SOL    HW239465   4.083   3.694   5.802
 9375SOL     OW39466   4.659   3.960   6.066
 9375SOL    HW139467   4.611   4.001   5.988
 9375SOL    HW239468   4.758   3.958   6.047
 9376SOL     OW39469   4.756   4.273   5.602
 9376SOL    HW139470   4.715   4.355   5.563
 9376SOL    HW239471   4.820   4.299   5.675
 9377SOL     OW39472   3.802   4.280   6.972
 9377SOL    HW139473   3.894   4.279   6.931
 9377SOL    HW239474   3.796   4.354   7.039
 9378SOL     OW39475   4.285   3.946   6.733
 9378SOL    HW139476   4.323   3.862   6.770
 9378SOL    HW239477   4.197   3.965   6.777
 9379SOL     OW39478   4.590   4.178   6.228
 9379SOL    HW139479   4.558   4.250   6.166
 9379SOL    HW239480   4.614   4.097   6.175
 9380SOL     OW39481   4.741   3.763   6.339
 9380SOL    HW139482   4.669   3.768   6.270
 9380SOL    HW239483   4.717   3.694   6.408
 9381SOL     OW39484   4.251   3.980   5.914
 9381SOL    HW139485   4.278   3.921   5.839
 9381SOL    HW239486   4.251   4.075   5.883
 9382SOL     OW39487   4.639   3.813   6.988
 9382SOL    HW139488   4.664   3.793   6.893
 9382SOL    HW239489   4.711   3.869   7.030
 9383SOL     OW39490   4.134   4.537   6.837
 9383SOL    HW139491   4.220   4.549   6.887
 9383SOL    HW239492   4.092   4.450   6.864
 9384SOL     OW39493   4.290   4.261   6.451
 9384SOL    HW139494   4.302   4.327   6.377
 9384SOL    HW239495   4.336   4.295   6.534
 9385SOL     OW39496   4.126   4.475   7.184
 9385SOL    HW139497   4.194   4.530   7.137
 9385SOL    HW239498   4.166   4.387   7.211
 9386SOL     OW39499   4.737   3.829   7.356
 9386SOL    HW139500   4.743   3.914   7.304
 9386SOL    HW239501   4.769   3.753   7.299
 9387SOL     OW39502   4.228   3.774   7.326
 9387SOL    HW139503   4.186   3.717   7.256
 9387SOL    HW239504   4.162   3.843   7.358
 9388SOL     OW39505   4.297   4.594   6.615
 9388SOL    HW139506   4.341   4.683   6.606
 9388SOL    HW239507   4.234   4.594   6.692
 9389SOL     OW39508   4.933   4.249   5.861
 9389SOL    HW139509   4.946   4.165   5.915
 9389SOL    HW239510   4.904   4.323   5.921
 9390SOL     OW39511   4.031   3.937   6.817
 9390SOL    HW139512   4.008   3.974   6.907
 9390SOL    HW239513   4.001   3.842   6.811
 9391SOL     OW39514   4.456   4.358   6.650
 9391SOL    HW139515   4.515   4.332   6.574
 9391SOL    HW239516   4.428   4.454   6.639
 9392SOL     OW39517   4.031   3.787   6.204
 9392SOL    HW139518   4.020   3.881   6.237
 9392SOL    HW239519   4.026   3.724   6.281
 9393SOL     OW39520   4.747   4.490   6.552
 9393SOL    HW139521   4.762   4.511   6.648
 9393SOL    HW239522   4.717   4.395   6.543
 9394SOL     OW39523   4.074   4.622   7.390
 9394SOL    HW139524   4.150   4.666   7.438
 9394SOL    HW239525   4.109   4.575   7.308
 9395SOL     OW39526   4.043   4.534   6.535
 9395SOL    HW139527   4.136   4.570   6.540
 9395SOL    HW239528   4.037   4.449   6.587
 9396SOL     OW39529   4.063   4.233   6.592
 9396SOL    HW139530   4.011   4.150   6.575
 9396SOL    HW239531   4.140   4.238   6.528
 9397SOL     OW39532   4.726   4.520   6.824
 9397SOL    HW139533   4.767   4.488   6.910
 9397SOL    HW239534   4.630   4.493   6.821
 9398SOL     OW39535   3.764   4.268   6.700
 9398SOL    HW139536   3.849   4.235   6.659
 9398SOL    HW239537   3.777   4.283   6.798
 9399SOL     OW39538   3.913   4.244   7.308
 9399SOL    HW139539   3.972   4.204   7.238
 9399SOL    HW239540   3.855   4.315   7.267
 9400SOL     OW39541   4.539   4.296   5.911
 9400SOL    HW139542   4.546   4.207   5.865
 9400SOL    HW239543   4.445   4.330   5.903
 9401SOL     OW39544   4.395   4.188   6.855
 9401SOL    HW139545   4.361   4.099   6.825
 9401SOL    HW239546   4.421   4.242   6.775
 9402SOL     OW39547   4.197   4.224   5.777
 9402SOL    HW139548   4.258   4.304   5.781
 9402SOL    HW239549   4.102   4.255   5.784
 9403SOL     OW39550   3.883   4.861   7.052
 9403SOL    HW139551   3.905   4.800   7.128
 9403SOL    HW239552   3.893   4.812   6.966
 9404SOL     OW39553   5.026   4.579   5.895
 9404SOL    HW139554   4.940   4.548   5.937
 9404SOL    HW239555   5.022   4.565   5.796
 9405SOL     OW39556   3.987   4.050   6.306
 9405SOL    HW139557   3.908   4.101   6.272
 9405SOL    HW239558   3.978   4.035   6.404
 9406SOL     OW39559   4.640   4.634   5.877
 9406SOL    HW139560   4.703   4.672   5.809
 9406SOL    HW239561   4.680   4.551   5.916
 9407SOL     OW39562   4.738   3.960   6.557
 9407SOL    HW139563   4.730   3.924   6.464
 9407SOL    HW239564   4.736   3.884   6.622
 9408SOL     OW39565   3.829   4.737   7.312
 9408SOL    HW139566   3.752   4.704   7.366
 9408SOL    HW239567   3.914   4.707   7.354
 9409SOL     OW39568   4.396   3.927   7.075
 9409SOL    HW139569   4.486   3.911   7.035
 9409SOL    HW239570   4.404   3.932   7.174
 9410SOL     OW39571   3.799   4.069   5.619
 9410SOL    HW139572   3.707   4.041   5.590
 9410SOL    HW239573   3.830   4.146   5.563
 9411SOL     OW39574   3.796   3.890   5.904
 9411SOL    HW139575   3.779   3.973   5.850
 9411SOL    HW239576   3.886   3.853   5.882
 9412SOL     OW39577   4.337   4.566   7.017
 9412SOL    HW139578   4.393   4.647   7.000
 9412SOL    HW239579   4.396   4.486   7.020
 9413SOL     OW39580   4.440   4.289   7.294
 9413SOL    HW139581   4.459   4.354   7.368
 9413SOL    HW239582   4.500   4.209   7.303
 9414SOL     OW39583   4.949   4.049   6.035
 9414SOL    HW139584   5.014   3.975   6.024
 9414SOL    HW239585   4.969   4.099   6.119
 9415SOL     OW39586   4.318   4.469   6.238
 9415SOL    HW139587   4.368   4.554   6.219
 9415SOL    HW239588   4.230   4.471   6.190
 9416SOL     OW39589   4.583   4.680   6.447
 9416SOL    HW139590   4.637   4.611   6.495
 9416SOL    HW239591   4.551   4.749   6.513
 9417SOL     OW39592   3.803   4.964   6.239
 9417SOL    HW139593   3.802   4.917   6.327
 9417SOL    HW239594   3.885   4.936   6.188
 9418SOL     OW39595   4.152   4.148   6.106
 9418SOL    HW139596   4.182   4.076   6.044
 9418SOL    HW239597   4.113   4.108   6.189
 9419SOL     OW39598   4.041   4.271   6.866
 9419SOL    HW139599   4.079   4.212   6.938
 9419SOL    HW239600   4.081   4.245   6.778
 9420SOL     OW39601   4.725   3.758   6.740
 9420SOL    HW139602   4.662   3.686   6.709
 9420SOL    HW239603   4.818   3.722   6.740
 9421SOL     OW39604   3.763   4.801   5.886
 9421SOL    HW139605   3.862   4.790   5.877
 9421SOL    HW239606   3.723   4.715   5.918
 9422SOL     OW39607   3.954   4.352   7.561
 9422SOL    HW139608   3.861   4.350   7.598
 9422SOL    HW239609   3.955   4.313   7.469
 9423SOL     OW39610   3.949   3.999   8.444
 9423SOL    HW139611   3.984   3.982   8.536
 9423SOL    HW239612   3.861   3.954   8.432
 9424SOL     OW39613   3.743   4.092   8.095
 9424SOL    HW139614   3.661   4.135   8.134
 9424SOL    HW239615   3.715   4.019   8.032
 9425SOL     OW39616   4.492   4.868   8.471
 9425SOL    HW139617   4.414   4.885   8.531
 9425SOL    HW239618   4.526   4.955   8.435
 9426SOL     OW39619   4.409   4.736   8.113
 9426SOL    HW139620   4.478   4.720   8.183
 9426SOL    HW239621   4.336   4.793   8.151
 9427SOL     OW39622   4.162   4.116   8.947
 9427SOL    HW139623   4.244   4.060   8.956
 9427SOL    HW239624   4.081   4.058   8.951
 9428SOL     OW39625   3.964   4.815   8.334
 9428SOL    HW139626   3.978   4.731   8.386
 9428SOL    HW239627   3.909   4.879   8.389
 9429SOL     OW39628   4.330   4.688   7.571
 9429SOL    HW139629   4.337   4.772   7.517
 9429SOL    HW239630   4.376   4.701   7.659
 9430SOL     OW39631   3.846   4.367   8.011
 9430SOL    HW139632   3.801   4.279   8.028
 9430SOL    HW239633   3.845   4.421   8.095
 9431SOL     OW39634   3.837   4.461   9.045
 9431SOL    HW139635   3.925   4.448   9.090
 9431SOL    HW239636   3.824   4.558   9.023
 9432SOL     OW39637   4.533   3.728   7.950
 9432SOL    HW139638   4.573   3.819   7.941
 9432SOL    HW239639   4.433   3.736   7.956
 9433SOL     OW39640   3.921   4.700   8.712
 9433SOL    HW139641   4.010   4.655   8.698
 9433SOL    HW239642   3.848   4.635   8.693
 9434SOL     OW39643   4.041   3.975   9.249
 9434SOL    HW139644   4.112   4.046   9.255
 9434SOL    HW239645   3.953   4.014   9.277
 9435SOL     OW39646   4.322   4.453   7.718
 9435SOL    HW139647   4.346   4.522   7.650
 9435SOL    HW239648   4.244   4.486   7.772
 9436SOL     OW39649   4.531   4.329   8.913
 9436SOL    HW139650   4.484   4.326   9.002
 9436SOL    HW239651   4.480   4.274   8.847
 9437SOL     OW39652   4.715   4.134   8.690
 9437SOL    HW139653   4.638   4.168   8.744
 9437SOL    HW239654   4.681   4.083   8.611
 9438SOL     OW39655   3.800   4.535   8.237
 9438SOL    HW139656   3.899   4.523   8.246
 9438SOL    HW239657   3.776   4.630   8.258
 9439SOL     OW39658   4.589   4.072   7.643
 9439SOL    HW139659   4.648   4.135   7.594
 9439SOL    HW239660   4.608   3.978   7.614
 9440SOL     OW39661   4.274   3.920   8.333
 9440SOL    HW139662   4.269   3.915   8.433
 9440SOL    HW239663   4.276   4.016   8.304
 9441SOL     OW39664   3.926   4.009   8.946
 9441SOL    HW139665   3.846   4.069   8.933
 9441SOL    HW239666   3.916   3.960   9.032
 9442SOL     OW39667   4.106   4.424   7.928
 9442SOL    HW139668   4.151   4.334   7.925
 9442SOL    HW239669   4.012   4.413   7.961
 9443SOL     OW39670   4.338   3.846   7.565
 9443SOL    HW139671   4.436   3.824   7.572
 9443SOL    HW239672   4.307   3.829   7.472
 9444SOL     OW39673   4.505   3.988   9.197
 9444SOL    HW139674   4.572   3.927   9.240
 9444SOL    HW239675   4.432   4.007   9.262
 9445SOL     OW39676   4.646   4.227   8.347
 9445SOL    HW139677   4.621   4.218   8.251
 9445SOL    HW239678   4.694   4.145   8.378
 9446SOL     OW39679   4.263   3.788   7.960
 9446SOL    HW139680   4.182   3.789   8.018
 9446SOL    HW239681   4.266   3.871   7.905
 9447SOL     OW39682   4.021   3.759   7.619
 9447SOL    HW139683   4.070   3.843   7.598
 9447SOL    HW239684   4.083   3.694   7.664
 9448SOL     OW39685   4.659   3.960   7.928
 9448SOL    HW139686   4.611   4.001   7.850
 9448SOL    HW239687   4.758   3.958   7.909
 9449SOL     OW39688   4.756   4.273   7.464
 9449SOL    HW139689   4.715   4.355   7.425
 9449SOL    HW239690   4.820   4.299   7.537
 9450SOL     OW39691   3.802   4.280   8.834
 9450SOL    HW139692   3.894   4.279   8.793
 9450SOL    HW239693   3.796   4.354   8.901
 9451SOL     OW39694   4.285   3.946   8.595
 9451SOL    HW139695   4.323   3.862   8.632
 9451SOL    HW239696   4.197   3.965   8.639
 9452SOL     OW39697   4.590   4.178   8.090
 9452SOL    HW139698   4.558   4.250   8.028
 9452SOL    HW239699   4.614   4.097   8.037
 9453SOL     OW39700   4.741   3.763   8.201
 9453SOL    HW139701   4.669   3.768   8.132
 9453SOL    HW239702   4.717   3.694   8.270
 9454SOL     OW39703   4.251   3.980   7.776
 9454SOL    HW139704   4.278   3.921   7.701
 9454SOL    HW239705   4.251   4.075   7.745
 9455SOL     OW39706   4.639   3.813   8.850
 9455SOL    HW139707   4.664   3.793   8.755
 9455SOL    HW239708   4.711   3.869   8.892
 9456SOL     OW39709   4.134   4.537   8.699
 9456SOL    HW139710   4.220   4.549   8.749
 9456SOL    HW239711   4.092   4.450   8.726
 9457SOL     OW39712   4.290   4.261   8.313
 9457SOL    HW139713   4.302   4.327   8.239
 9457SOL    HW239714   4.336   4.295   8.396
 9458SOL     OW39715   4.126   4.475   9.046
 9458SOL    HW139716   4.194   4.530   8.999
 9458SOL    HW239717   4.166   4.387   9.073
 9459SOL     OW39718   4.228   3.774   9.188
 9459SOL    HW139719   4.186   3.717   9.118
 9459SOL    HW239720   4.162   3.843   9.220
 9460SOL     OW39721   4.933   4.249   7.723
 9460SOL    HW139722   4.946   4.165   7.777
 9460SOL    HW239723   4.904   4.323   7.783
 9461SOL     OW39724   4.031   3.937   8.679
 9461SOL    HW139725   4.008   3.974   8.769
 9461SOL    HW239726   4.001   3.842   8.673
 9462SOL     OW39727   4.456   4.358   8.512
 9462SOL    HW139728   4.515   4.332   8.436
 9462SOL    HW239729   4.428   4.454   8.501
 9463SOL     OW39730   4.031   3.787   8.066
 9463SOL    HW139731   4.020   3.881   8.099
 9463SOL    HW239732   4.026   3.724   8.143
 9464SOL     OW39733   4.043   4.534   8.397
 9464SOL    HW139734   4.136   4.570   8.402
 9464SOL    HW239735   4.037   4.449   8.449
 9465SOL     OW39736   4.063   4.233   8.454
 9465SOL    HW139737   4.011   4.150   8.437
 9465SOL    HW239738   4.140   4.238   8.390
 9466SOL     OW39739   3.764   4.268   8.562
 9466SOL    HW139740   3.849   4.235   8.521
 9466SOL    HW239741   3.777   4.283   8.660
 9467SOL     OW39742   3.913   4.244   9.170
 9467SOL    HW139743   3.972   4.204   9.100
 9467SOL    HW239744   3.855   4.315   9.129
 9468SOL     OW39745   4.539   4.296   7.773
 9468SOL    HW139746   4.546   4.207   7.727
 9468SOL    HW239747   4.445   4.330   7.765
 9469SOL     OW39748   4.395   4.188   8.717
 9469SOL    HW139749   4.361   4.099   8.687
 9469SOL    HW239750   4.421   4.242   8.637
 9470SOL     OW39751   4.197   4.224   7.639
 9470SOL    HW139752   4.258   4.304   7.643
 9470SOL    HW239753   4.102   4.255   7.646
 9471SOL     OW39754   3.883   4.861   8.914
 9471SOL    HW139755   3.905   4.800   8.990
 9471SOL    HW239756   3.893   4.812   8.828
 9472SOL     OW39757   5.026   4.579   7.757
 9472SOL    HW139758   4.940   4.548   7.799
 9472SOL    HW239759   5.022   4.565   7.658
 9473SOL     OW39760   3.987   4.050   8.168
 9473SOL    HW139761   3.908   4.101   8.134
 9473SOL    HW239762   3.978   4.035   8.266
 9474SOL     OW39763   4.640   4.634   7.739
 9474SOL    HW139764   4.703   4.672   7.671
 9474SOL    HW239765   4.680   4.551   7.778
 9475SOL     OW39766   4.738   3.960   8.419
 9475SOL    HW139767   4.730   3.924   8.326
 9475SOL    HW239768   4.736   3.884   8.484
 9476SOL     OW39769   3.829   4.737   9.174
 9476SOL    HW139770   3.752   4.704   9.228
 9476SOL    HW239771   3.914   4.707   9.216
 9477SOL     OW39772   4.396   3.927   8.937
 9477SOL    HW139773   4.486   3.911   8.897
 9477SOL    HW239774   4.404   3.932   9.036
 9478SOL     OW39775   3.799   4.069   7.481
 9478SOL    HW139776   3.707   4.041   7.452
 9478SOL    HW239777   3.830   4.146   7.425
 9479SOL     OW39778   3.796   3.890   7.766
 9479SOL    HW139779   3.779   3.973   7.712
 9479SOL    HW239780   3.886   3.853   7.744
 9480SOL     OW39781   4.949   4.049   7.897
 9480SOL    HW139782   5.014   3.975   7.886
 9480SOL    HW239783   4.969   4.099   7.981
 9481SOL     OW39784   4.318   4.469   8.100
 9481SOL    HW139785   4.368   4.554   8.081
 9481SOL    HW239786   4.230   4.471   8.052
 9482SOL     OW39787   3.803   4.964   8.101
 9482SOL    HW139788   3.802   4.917   8.189
 9482SOL    HW239789   3.885   4.936   8.050
 9483SOL     OW39790   4.152   4.148   7.968
 9483SOL    HW139791   4.182   4.076   7.906
 9483SOL    HW239792   4.113   4.108   8.051
 9484SOL     OW39793   4.725   3.758   8.602
 9484SOL    HW139794   4.662   3.686   8.571
 9484SOL    HW239795   4.818   3.722   8.602
 9485SOL     OW39796   3.763   4.801   7.748
 9485SOL    HW139797   3.862   4.790   7.739
 9485SOL    HW239798   3.723   4.715   7.780
 9486SOL     OW39799   4.492   4.868  10.333
 9486SOL    HW139800   4.414   4.885  10.393
 9486SOL    HW239801   4.526   4.955  10.297
 9487SOL     OW39802   4.409   4.736   9.975
 9487SOL    HW139803   4.478   4.720  10.045
 9487SOL    HW239804   4.336   4.793  10.013
 9488SOL     OW39805   3.964   4.815  10.196
 9488SOL    HW139806   3.978   4.731  10.248
 9488SOL    HW239807   3.909   4.879  10.251
 9489SOL     OW39808   4.041   3.975  11.111
 9489SOL    HW139809   4.112   4.046  11.117
 9489SOL    HW239810   3.953   4.014  11.139
 9490SOL     OW39811   4.697   4.614  10.882
 9490SOL    HW139812   4.743   4.530  10.853
 9490SOL    HW239813   4.641   4.648  10.807
 9491SOL     OW39814   4.715   4.134  10.552
 9491SOL    HW139815   4.638   4.168  10.606
 9491SOL    HW239816   4.681   4.083  10.473
 9492SOL     OW39817   3.800   4.535  10.099
 9492SOL    HW139818   3.899   4.523  10.108
 9492SOL    HW239819   3.776   4.630  10.120
 9493SOL     OW39820   4.659   3.960   9.790
 9493SOL    HW139821   4.611   4.001   9.712
 9493SOL    HW239822   4.758   3.958   9.771
 9494SOL     OW39823   4.285   3.946  10.457
 9494SOL    HW139824   4.323   3.862  10.494
 9494SOL    HW239825   4.197   3.965  10.501
 9495SOL     OW39826   4.134   4.537  10.561
 9495SOL    HW139827   4.220   4.549  10.611
 9495SOL    HW239828   4.092   4.450  10.588
 9496SOL     OW39829   4.290   4.261  10.175
 9496SOL    HW139830   4.302   4.327  10.101
 9496SOL    HW239831   4.336   4.295  10.258
 9497SOL     OW39832   4.297   4.594  10.339
 9497SOL    HW139833   4.341   4.683  10.330
 9497SOL    HW239834   4.234   4.594  10.416
 9498SOL     OW39835   4.456   4.358  10.374
 9498SOL    HW139836   4.515   4.332  10.298
 9498SOL    HW239837   4.428   4.454  10.363
 9499SOL     OW39838   4.747   4.490  10.276
 9499SOL    HW139839   4.762   4.511  10.372
 9499SOL    HW239840   4.717   4.395  10.267
 9500SOL     OW39841   4.043   4.534  10.259
 9500SOL    HW139842   4.136   4.570  10.264
 9500SOL    HW239843   4.037   4.449  10.311
 9501SOL     OW39844   4.063   4.233  10.316
 9501SOL    HW139845   4.011   4.150  10.299
 9501SOL    HW239846   4.140   4.238  10.252
 9502SOL     OW39847   4.726   4.520  10.548
 9502SOL    HW139848   4.767   4.488  10.634
 9502SOL    HW239849   4.630   4.493  10.545
 9503SOL     OW39850   4.539   4.296   9.635
 9503SOL    HW139851   4.546   4.207   9.589
 9503SOL    HW239852   4.445   4.330   9.627
 9504SOL     OW39853   4.395   4.188  10.579
 9504SOL    HW139854   4.361   4.099  10.549
 9504SOL    HW239855   4.421   4.242  10.499
 9505SOL     OW39856   4.738   3.960  10.281
 9505SOL    HW139857   4.730   3.924  10.188
 9505SOL    HW239858   4.736   3.884  10.346
 9506SOL     OW39859   3.799   4.069   9.343
 9506SOL    HW139860   3.707   4.041   9.314
 9506SOL    HW239861   3.830   4.146   9.287
 9507SOL     OW39862   4.583   4.680  10.171
 9507SOL    HW139863   4.637   4.611  10.219
 9507SOL    HW239864   4.551   4.749  10.237
 9508SOL     OW39865   3.803   4.964   9.963
 9508SOL    HW139866   3.802   4.917  10.051
 9508SOL    HW239867   3.885   4.936   9.912
 9509SOL     OW39868   4.725   3.758  10.464
 9509SOL    HW139869   4.662   3.686  10.433
 9509SOL    HW239870   4.818   3.722  10.464
 9510SOL     OW39871   3.763   4.801   9.610
 9510SOL    HW139872   3.862   4.790   9.601
 9510SOL    HW239873   3.723   4.715   9.642
 9511SOL     OW39874   3.743   4.092  11.819
 9511SOL    HW139875   3.661   4.135  11.858
 9511SOL    HW239876   3.715   4.019  11.756
 9512SOL     OW39877   4.162   4.116  12.671
 9512SOL    HW139878   4.244   4.060  12.680
 9512SOL    HW239879   4.081   4.058  12.675
 9513SOL     OW39880   3.964   4.815  12.058
 9513SOL    HW139881   3.978   4.731  12.110
 9513SOL    HW239882   3.909   4.879  12.113
 9514SOL     OW39883   3.837   4.461  12.769
 9514SOL    HW139884   3.925   4.448  12.814
 9514SOL    HW239885   3.824   4.558  12.747
 9515SOL     OW39886   3.921   4.700  12.436
 9515SOL    HW139887   4.010   4.655  12.422
 9515SOL    HW239888   3.848   4.635  12.417
 9516SOL     OW39889   4.041   3.975  12.973
 9516SOL    HW139890   4.112   4.046  12.979
 9516SOL    HW239891   3.953   4.014  13.001
 9517SOL     OW39892   4.322   4.453  11.442
 9517SOL    HW139893   4.346   4.522  11.374
 9517SOL    HW239894   4.244   4.486  11.496
 9518SOL     OW39895   4.531   4.329  12.637
 9518SOL    HW139896   4.484   4.326  12.726
 9518SOL    HW239897   4.480   4.274  12.571
 9519SOL     OW39898   4.697   4.614  12.744
 9519SOL    HW139899   4.743   4.530  12.715
 9519SOL    HW239900   4.641   4.648  12.669
 9520SOL     OW39901   4.589   4.072  11.367
 9520SOL    HW139902   4.648   4.135  11.318
 9520SOL    HW239903   4.608   3.978  11.338
 9521SOL     OW39904   3.926   4.009  12.670
 9521SOL    HW139905   3.846   4.069  12.657
 9521SOL    HW239906   3.916   3.960  12.756
 9522SOL     OW39907   4.756   4.273  11.188
 9522SOL    HW139908   4.715   4.355  11.149
 9522SOL    HW239909   4.820   4.299  11.261
 9523SOL     OW39910   3.802   4.280  12.558
 9523SOL    HW139911   3.894   4.279  12.517
 9523SOL    HW239912   3.796   4.354  12.625
 9524SOL     OW39913   4.285   3.946  12.319
 9524SOL    HW139914   4.323   3.862  12.356
 9524SOL    HW239915   4.197   3.965  12.363
 9525SOL     OW39916   4.126   4.475  12.770
 9525SOL    HW139917   4.194   4.530  12.723
 9525SOL    HW239918   4.166   4.387  12.797
 9526SOL     OW39919   4.228   3.774  12.912
 9526SOL    HW139920   4.186   3.717  12.842
 9526SOL    HW239921   4.162   3.843  12.944
 9527SOL     OW39922   4.933   4.249  11.447
 9527SOL    HW139923   4.946   4.165  11.501
 9527SOL    HW239924   4.904   4.323  11.507
 9528SOL     OW39925   4.031   3.937  12.403
 9528SOL    HW139926   4.008   3.974  12.493
 9528SOL    HW239927   4.001   3.842  12.397
 9529SOL     OW39928   4.074   4.622  12.976
 9529SOL    HW139929   4.150   4.666  13.024
 9529SOL    HW239930   4.109   4.575  12.894
 9530SOL     OW39931   4.063   4.233  12.178
 9530SOL    HW139932   4.011   4.150  12.161
 9530SOL    HW239933   4.140   4.238  12.114
 9531SOL     OW39934   3.764   4.268  12.286
 9531SOL    HW139935   3.849   4.235  12.245
 9531SOL    HW239936   3.777   4.283  12.384
 9532SOL     OW39937   3.913   4.244  12.894
 9532SOL    HW139938   3.972   4.204  12.824
 9532SOL    HW239939   3.855   4.315  12.853
 9533SOL     OW39940   4.539   4.296  11.497
 9533SOL    HW139941   4.546   4.207  11.451
 9533SOL    HW239942   4.445   4.330  11.489
 9534SOL     OW39943   4.395   4.188  12.441
 9534SOL    HW139944   4.361   4.099  12.411
 9534SOL    HW239945   4.421   4.242  12.361
 9535SOL     OW39946   5.026   4.579  11.481
 9535SOL    HW139947   4.940   4.548  11.523
 9535SOL    HW239948   5.022   4.565  11.382
 9536SOL     OW39949   4.640   4.634  11.463
 9536SOL    HW139950   4.703   4.672  11.395
 9536SOL    HW239951   4.680   4.551  11.502
 9537SOL     OW39952   3.829   4.737  12.898
 9537SOL    HW139953   3.752   4.704  12.952
 9537SOL    HW239954   3.914   4.707  12.940
 9538SOL     OW39955   4.396   3.927  12.661
 9538SOL    HW139956   4.486   3.911  12.621
 9538SOL    HW239957   4.404   3.932  12.760
 9539SOL     OW39958   4.440   4.289  12.880
 9539SOL    HW139959   4.459   4.354  12.954
 9539SOL    HW239960   4.500   4.209  12.889
 9540SOL     OW39961   4.949   4.049  11.621
 9540SOL    HW139962   5.014   3.975  11.610
 9540SOL    HW239963   4.969   4.099  11.705
 9541SOL     OW39964   4.318   4.469  11.824
 9541SOL    HW139965   4.368   4.554  11.805
 9541SOL    HW239966   4.230   4.471  11.776
 9542SOL     OW39967   4.041   4.271  12.452
 9542SOL    HW139968   4.079   4.212  12.524
 9542SOL    HW239969   4.081   4.245  12.364
 9543SOL     OW39970   3.949   3.999  14.030
 9543SOL    HW139971   3.984   3.982  14.122
 9543SOL    HW239972   3.861   3.954  14.018
 9544SOL     OW39973   4.162   4.116  14.533
 9544SOL    HW139974   4.244   4.060  14.542
 9544SOL    HW239975   4.081   4.058  14.537
 9545SOL     OW39976   3.964   4.815  13.920
 9545SOL    HW139977   3.978   4.731  13.972
 9545SOL    HW239978   3.909   4.879  13.975
 9546SOL     OW39979   4.330   4.688  13.157
 9546SOL    HW139980   4.337   4.772  13.103
 9546SOL    HW239981   4.376   4.701  13.245
 9547SOL     OW39982   3.837   4.461  14.631
 9547SOL    HW139983   3.925   4.448  14.676
 9547SOL    HW239984   3.824   4.558  14.609
 9548SOL     OW39985   4.041   3.975  14.835
 9548SOL    HW139986   4.112   4.046  14.841
 9548SOL    HW239987   3.953   4.014  14.863
 9549SOL     OW39988   4.505   3.988  14.783
 9549SOL    HW139989   4.572   3.927  14.826
 9549SOL    HW239990   4.432   4.007  14.848
 9550SOL     OW39991   4.021   3.759  13.205
 9550SOL    HW139992   4.070   3.843  13.184
 9550SOL    HW239993   4.083   3.694  13.250
 9551SOL     OW39994   4.590   4.178  13.676
 9551SOL    HW139995   4.558   4.250  13.614
 9551SOL    HW239996   4.614   4.097  13.623
 9552SOL     OW39997   4.126   4.475  14.632
 9552SOL    HW139998   4.194   4.530  14.585
 9552SOL    HW239999   4.166   4.387  14.659
 9553SOL     OW40000   4.228   3.774  14.774
 9553SOL    HW140001   4.186   3.717  14.704
 9553SOL    HW240002   4.162   3.843  14.806
 9554SOL     OW40003   4.297   4.594  14.063
 9554SOL    HW140004   4.341   4.683  14.054
 9554SOL    HW240005   4.234   4.594  14.140
 9555SOL     OW40006   4.031   3.787  13.652
 9555SOL    HW140007   4.020   3.881  13.685
 9555SOL    HW240008   4.026   3.724  13.729
 9556SOL     OW40009   4.043   4.534  13.983
 9556SOL    HW140010   4.136   4.570  13.988
 9556SOL    HW240011   4.037   4.449  14.035
 9557SOL     OW40012   4.063   4.233  14.040
 9557SOL    HW140013   4.011   4.150  14.023
 9557SOL    HW240014   4.140   4.238  13.976
 9558SOL     OW40015   4.726   4.520  14.272
 9558SOL    HW140016   4.767   4.488  14.358
 9558SOL    HW240017   4.630   4.493  14.269
 9559SOL     OW40018   3.913   4.244  14.756
 9559SOL    HW140019   3.972   4.204  14.686
 9559SOL    HW240020   3.855   4.315  14.715
 9560SOL     OW40021   3.987   4.050  13.754
 9560SOL    HW140022   3.908   4.101  13.720
 9560SOL    HW240023   3.978   4.035  13.852
 9561SOL     OW40024   4.738   3.960  14.005
 9561SOL    HW140025   4.730   3.924  13.912
 9561SOL    HW240026   4.736   3.884  14.070
 9562SOL     OW40027   3.829   4.737  14.760
 9562SOL    HW140028   3.752   4.704  14.814
 9562SOL    HW240029   3.914   4.707  14.802
 9563SOL     OW40030   4.396   3.927  14.523
 9563SOL    HW140031   4.486   3.911  14.483
 9563SOL    HW240032   4.404   3.932  14.622
 9564SOL     OW40033   4.725   3.758  14.188
 9564SOL    HW140034   4.662   3.686  14.157
 9564SOL    HW240035   4.818   3.722  14.188
 9565SOL     OW40036   3.743   4.092  15.543
 9565SOL    HW140037   3.661   4.135  15.582
 9565SOL    HW240038   3.715   4.019  15.480
 9566SOL     OW40039   4.041   3.975  16.698
 9566SOL    HW140040   4.112   4.046  16.704
 9566SOL    HW240041   3.953   4.014  16.726
 9567SOL     OW40042   4.715   4.134  16.139
 9567SOL    HW140043   4.638   4.168  16.193
 9567SOL    HW240044   4.681   4.083  16.060
 9568SOL     OW40045   4.274   3.920  15.781
 9568SOL    HW140046   4.269   3.915  15.881
 9568SOL    HW240047   4.276   4.016  15.752
 9569SOL     OW40048   4.505   3.988  16.646
 9569SOL    HW140049   4.572   3.927  16.689
 9569SOL    HW240050   4.432   4.007  16.711
 9570SOL     OW40051   4.021   3.759  15.067
 9570SOL    HW140052   4.070   3.843  15.046
 9570SOL    HW240053   4.083   3.694  15.112
 9571SOL     OW40054   3.802   4.280  16.283
 9571SOL    HW140055   3.894   4.279  16.242
 9571SOL    HW240056   3.796   4.354  16.350
 9572SOL     OW40057   4.285   3.946  16.044
 9572SOL    HW140058   4.323   3.862  16.081
 9572SOL    HW240059   4.197   3.965  16.088
 9573SOL     OW40060   4.251   3.980  15.224
 9573SOL    HW140061   4.278   3.921  15.149
 9573SOL    HW240062   4.251   4.075  15.193
 9574SOL     OW40063   4.639   3.813  16.299
 9574SOL    HW140064   4.664   3.793  16.204
 9574SOL    HW240065   4.711   3.869  16.341
 9575SOL     OW40066   4.737   3.829  16.667
 9575SOL    HW140067   4.743   3.914  16.615
 9575SOL    HW240068   4.769   3.753  16.610
 9576SOL     OW40069   4.228   3.774  16.637
 9576SOL    HW140070   4.186   3.717  16.567
 9576SOL    HW240071   4.162   3.843  16.669
 9577SOL     OW40072   4.933   4.249  15.171
 9577SOL    HW140073   4.946   4.165  15.225
 9577SOL    HW240074   4.904   4.323  15.231
 9578SOL     OW40075   5.026   4.579  15.205
 9578SOL    HW140076   4.940   4.548  15.247
 9578SOL    HW240077   5.022   4.565  15.106
 9579SOL     OW40078   3.987   4.050  15.616
 9579SOL    HW140079   3.908   4.101  15.582
 9579SOL    HW240080   3.978   4.035  15.714
 9580SOL     OW40081   4.640   4.634  15.187
 9580SOL    HW140082   4.703   4.672  15.119
 9580SOL    HW240083   4.680   4.551  15.226
 9581SOL     OW40084   4.396   3.927  16.386
 9581SOL    HW140085   4.486   3.911  16.346
 9581SOL    HW240086   4.404   3.932  16.485
 9582SOL     OW40087   3.799   4.069  14.929
 9582SOL    HW140088   3.707   4.041  14.900
 9582SOL    HW240089   3.830   4.146  14.873
 9583SOL     OW40090   3.796   3.890  15.214
 9583SOL    HW140091   3.779   3.973  15.160
 9583SOL    HW240092   3.886   3.853  15.192
 9584SOL     OW40093   4.440   4.289  16.605
 9584SOL    HW140094   4.459   4.354  16.679
 9584SOL    HW240095   4.500   4.209  16.614
 9585SOL     OW40096   4.949   4.049  15.345
 9585SOL    HW140097   5.014   3.975  15.334
 9585SOL    HW240098   4.969   4.099  15.429
 9586SOL     OW40099   4.152   4.148  15.416
 9586SOL    HW140100   4.182   4.076  15.354
 9586SOL    HW240101   4.113   4.108  15.499
 9587SOL     OW40102   3.949   3.999  17.755
 9587SOL    HW140103   3.984   3.982  17.847
 9587SOL    HW240104   3.861   3.954  17.743
 9588SOL     OW40105   3.743   4.092  17.406
 9588SOL    HW140106   3.661   4.135  17.445
 9588SOL    HW240107   3.715   4.019  17.343
 9589SOL     OW40108   3.846   4.367  17.322
 9589SOL    HW140109   3.801   4.279  17.339
 9589SOL    HW240110   3.845   4.421  17.406
 9590SOL     OW40111   3.800   4.535  17.548
 9590SOL    HW140112   3.899   4.523  17.557
 9590SOL    HW240113   3.776   4.630  17.569
 9591SOL     OW40114   4.589   4.072  16.954
 9591SOL    HW140115   4.648   4.135  16.905
 9591SOL    HW240116   4.608   3.978  16.925
 9592SOL     OW40117   4.106   4.424  17.239
 9592SOL    HW140118   4.151   4.334  17.236
 9592SOL    HW240119   4.012   4.413  17.272
 9593SOL     OW40120   4.338   3.846  16.876
 9593SOL    HW140121   4.436   3.824  16.883
 9593SOL    HW240122   4.307   3.829  16.783
 9594SOL     OW40123   4.263   3.788  17.271
 9594SOL    HW140124   4.182   3.789  17.329
 9594SOL    HW240125   4.266   3.871  17.216
 9595SOL     OW40126   4.021   3.759  16.930
 9595SOL    HW140127   4.070   3.843  16.909
 9595SOL    HW240128   4.083   3.694  16.975
 9596SOL     OW40129   4.251   3.980  17.087
 9596SOL    HW140130   4.278   3.921  17.012
 9596SOL    HW240131   4.251   4.075  17.056
 9597SOL     OW40132   4.933   4.249  17.034
 9597SOL    HW140133   4.946   4.165  17.088
 9597SOL    HW240134   4.904   4.323  17.094
 9598SOL     OW40135   4.031   3.937  17.990
 9598SOL    HW140136   4.008   3.974  18.080
 9598SOL    HW240137   4.001   3.842  17.984
 9599SOL     OW40138   4.031   3.787  17.377
 9599SOL    HW140139   4.020   3.881  17.410
 9599SOL    HW240140   4.026   3.724  17.454
 9600SOL     OW40141   4.747   4.490  17.725
 9600SOL    HW140142   4.762   4.511  17.821
 9600SOL    HW240143   4.717   4.395  17.716
 9601SOL     OW40144   4.726   4.520  17.997
 9601SOL    HW140145   4.767   4.488  18.083
 9601SOL    HW240146   4.630   4.493  17.994
 9602SOL     OW40147   4.539   4.296  17.084
 9602SOL    HW140148   4.546   4.207  17.038
 9602SOL    HW240149   4.445   4.330  17.076
 9603SOL     OW40150   4.395   4.188  18.028
 9603SOL    HW140151   4.361   4.099  17.998
 9603SOL    HW240152   4.421   4.242  17.948
 9604SOL     OW40153   4.197   4.224  16.950
 9604SOL    HW140154   4.258   4.304  16.954
 9604SOL    HW240155   4.102   4.255  16.957
 9605SOL     OW40156   3.987   4.050  17.479
 9605SOL    HW140157   3.908   4.101  17.445
 9605SOL    HW240158   3.978   4.035  17.577
 9606SOL     OW40159   4.949   4.049  17.208
 9606SOL    HW140160   5.014   3.975  17.197
 9606SOL    HW240161   4.969   4.099  17.292
 9607SOL     OW40162   3.803   4.964  17.412
 9607SOL    HW140163   3.802   4.917  17.500
 9607SOL    HW240164   3.885   4.936  17.361
 9608SOL     OW40165   4.152   4.148  17.279
 9608SOL    HW140166   4.182   4.076  17.217
 9608SOL    HW240167   4.113   4.108  17.362
   4.80470   4.80470  18.00000
