; [ atomtypes ]
; NG3P3     7    14.007000    0.000  A  0.329632525712  0.83680
;  HGP2     1     1.008000    0.000  A  0.040001352445  0.19246
; [ bondtypes ]
;  NG3P3     HGP2     1   0.10400000    337230.40
; [ angletypes ]
;    HGP2    NG3P3     HGP2     1   109.500000   368.192000  

[ moleculetype ]
; Name            nrexcl
LIG                3
;
[ atoms ]
;   nr       type  resnr residue  atom   cgnr     charge       mass  typeB    chargeB      massB
; residue   1 NH4 rtp NH4  q +1.0
     1      NG3P3      1    NH4     N1      1      -0.24     14.007   ; qtot -0.24
     2       HGP2      1    NH4     H2      2       0.31      1.008   ; qtot 0.31
     3       HGP2      1    NH4     H3      3       0.31      1.008   ; qtot 0.31
     4       HGP2      1    NH4     H4      4       0.31      1.008   ; qtot 0.31
     5       HGP2      1    NH4     H5      5       0.31      1.008   ; qtot 0.31

[ bonds ]
;  ai    aj funct            c0            c1            c2            c3
    1     2     1
    1     3     1
    1     4     1
    1     5     1

[ pairs ]
;  ai    aj funct            c0            c1            c2            c3

[ angles ]
;  ai    aj    ak funct            c0            c1            c2            c3
    2     1     3    1 
    2     1     4    1 
    2     1     5    1 
    3     1     4    1 
    3     1     5    1 
    4     1     5    1 

