[ defaults ]
;nbfunc	comb_rule	gen pair	fudgeLJ	fudgeQQ
1	2	yes	1.0	1.0

[ atomtypes ]
;name mass charge ptype sig eps
OWT3	8	15.9994	-0.834	A	0.315058	0.636386	 ; reference 
HWT3	1	1.008	0.417	A	0.0	0.0	 ; reference 
SOD	11	22.98977	0.0	A	0.242993	0.19623	 ; reference 
CB	6	12.011	0.0	A	0.355005	0.29288	 ; reference 
HCMM	1	1.0079	0.0	A	0.235197	0.092048	 ; reference 
NC=C	7	14.0067	0.0	A	0.329632	0.8368	 ; reference 
HNCO	1	1.0079	0.0	A	0.040001	0.192464	 ; reference 
OR	8	15.9994	0.0	A	0.315378	0.636386	 ; reference 
C=O	6	12.011	0.0	A	0.356359	0.46024	 ; reference 
O=C	8	15.9994	0.0	A	0.302905	0.50208	 ; reference 
CO2M	6	12.011	0.0	A	0.356359	0.29288	 ; reference 
O2CM	8	15.9994	0.0	A	0.302905	0.50208	 ; reference 
HOCO	1	1.0079	0.0	A	0.040001	0.192464	 ; reference 
NC=O	7	14.0067	0.0	A	0.329632	0.8368	 ; reference 

[ atomtypes ]
NG331     7    14.007000    0.000  A  0.352795892384  0.29288
HGPAM3     1     1.008000    0.000  A  0.155016376956  0.05021

[ bondtypes ]
HWT3	OWT3	1	0.0957	376560.0	0.0957	376560.0	 ; reference 
CB	CB	1	0.1374	335613.7	0.1374	335613.7	 ; reference 
CB	HCMM	1	0.1084	319534.6	0.1084	319534.6	 ; reference 
CB	NC=C	1	0.1398	371445.5	0.1398	371445.5	 ; reference 
HNCO	NC=C	1	0.1018	396015.6	0.1018	396015.6	 ; reference 
C=O	OR	1	0.1355	349343.9	0.1355	349343.9	 ; reference 
C=O	O=C	1	0.1222	779866.6	0.1222	779866.6	 ; reference 
C=O	CB	1	0.1457	270273.8	0.1457	270273.8	 ; reference 
CB	CO2M	1	0.1468	273224.4	0.1468	273224.4	 ; reference 
CO2M	O2CM	1	0.1261	587519.8	0.1261	587519.8	 ; reference 
HOCO	OR	1	0.0981	445818.6	0.0981	445818.6	 ; reference 
CB	NC=O	1	0.1395	330133.5	0.1395	330133.5	 ; reference 
C=O	NC=O	1	0.1369	351030.1	0.1369	351030.1	 ; reference 
HNCO	NC=O	1	0.1015	401254.8	0.1015	401254.8	 ; reference 

;NH3
[ bondtypes ]
NG331   HGPAM3     1   0.10140000    381162.40

;NH3
[ angletypes ]
HGPAM3    NG331   HGPAM3     5   107.100000   347.272000   0.00000000         0.00

[ angletypes ]
HWT3	OWT3	HWT3	1	104.52	460.24	104.52	460.24	 ; reference 
CB	CB	CB	1	119.977	402.88	119.977	402.88	 ; reference 
CB	CB	HCMM	1	120.571	339.05	120.571	339.05	 ; reference 
CB	CB	NC=C	1	121.633	629.31	121.633	629.31	 ; reference 
CB	NC=C	HNCO	1	110.288	398.66	110.288	398.66	 ; reference 
HNCO	NC=C	HNCO	1	109.16	337.24	109.16	337.24	 ; reference 
C=O	OR	HOCO	1	111.948	351.09	111.948	351.09	 ; reference 
O=C	C=O	OR	1	124.425	695.55	124.425	695.55	 ; reference 
CB	C=O	OR	1	102.881	486.58	102.881	486.58	 ; reference 
CB	C=O	O=C	1	119.968	442.02	119.968	442.02	 ; reference 
C=O	CB	CB	1	114.475	480.57	114.475	480.57	 ; reference 
CB	CB	CO2M	1	119.572	537.17	119.572	537.17	 ; reference 
CB	CO2M	O2CM	1	118.871	684.11	118.871	684.11	 ; reference 
O2CM	CO2M	O2CM	1	130.6	711.2	130.6	711.2	 ; reference 
CB	CB	NC=O	1	117.918	617.27	117.918	617.27	 ; reference 
C=O	NC=O	CB	1	118.596	616.06	118.596	616.06	 ; reference 
CB	NC=O	HNCO	1	118.227	378.18	118.227	378.18	 ; reference 
C=O	NC=O	HNCO	1	120.277	346.27	120.277	346.27	 ; reference 
NC=O	C=O	O=C	1	127.152	546.2	127.152	546.2	 ; reference 
CB	C=O	NC=O	1	112.495	663.03	112.495	663.03	 ; reference 

[ dihedraltypes ]
CB	CB	CB	CB	9	180.0	14.644	2	180.0	14.644	2	 ; reference 
CB	CB	CB	HCMM	9	180.0	14.644	2	180.0	14.644	2	 ; reference 
CB	CB	NC=C	HNCO	9	0.0	1.4937	1	0.0	1.4937	1	 ; reference 
CB	CB	NC=C	HNCO	9	180.0	5.4978	2	180.0	5.4978	2	 ; reference 
CB	CB	NC=C	HNCO	9	0.0	7.0166	3	0.0	7.0166	3	 ; reference 
CB	CB	CB	NC=C	9	180.0	14.644	2	180.0	14.644	2	 ; reference 
HCMM	CB	CB	NC=C	9	180.0	14.644	2	180.0	14.644	2	 ; reference 
HCMM	CB	CB	HCMM	9	180.0	14.644	2	180.0	14.644	2	 ; reference 
CB	CB	C=O	OR	9	180.0	3.6484	2	180.0	3.6484	2	 ; reference 
C=O	CB	CB	CB	9	180.0	4.184	2	180.0	4.184	2	 ; reference 
C=O	CB	CB	HCMM	9	180.0	4.184	2	180.0	4.184	2	 ; reference 
HOCO	OR	C=O	O=C	9	0.0	3.4769	1	0.0	3.4769	1	 ; reference 
HOCO	OR	C=O	O=C	9	180.0	12.87	2	180.0	12.87	2	 ; reference 
HOCO	OR	C=O	O=C	9	0.0	-0.1213	3	0.0	-0.1213	3	 ; reference 
CB	CB	C=O	O=C	9	180.0	5.23	2	180.0	5.23	2	 ; reference 
CB	C=O	OR	HOCO	9	180.0	8.1421	2	180.0	8.1421	2	 ; reference 
CB	C=O	OR	HOCO	9	0.0	-0.1966	3	0.0	-0.1966	3	 ; reference 
CB	CB	CB	CO2M	9	180.0	14.644	2	180.0	14.644	2	 ; reference 
CB	CB	CO2M	O2CM	9	180.0	3.7656	2	180.0	3.7656	2	 ; reference 
CO2M	CB	CB	HCMM	9	180.0	14.644	2	180.0	14.644	2	 ; reference 
CB	CB	CB	NC=O	9	180.0	14.644	2	180.0	14.644	2	 ; reference 
C=O	NC=O	CB	CB	9	180.0	12.552	2	180.0	12.552	2	 ; reference 
CB	CB	NC=O	HNCO	9	180.0	12.552	2	180.0	12.552	2	 ; reference 
CB	NC=O	C=O	O=C	9	180.0	12.552	2	180.0	12.552	2	 ; reference 
CB	NC=O	C=O	CB	9	180.0	12.552	2	180.0	12.552	2	 ; reference 
HCMM	CB	CB	NC=O	9	180.0	14.644	2	180.0	14.644	2	 ; reference 
CB	CB	C=O	NC=O	9	180.0	5.23	2	180.0	5.23	2	 ; reference 
HNCO	NC=O	C=O	O=C	9	0.0	3.0041	1	0.0	3.0041	1	 ; reference 
HNCO	NC=O	C=O	O=C	9	180.0	10.4056	2	180.0	10.4056	2	 ; reference 
HNCO	NC=O	C=O	O=C	9	0.0	-0.9498	3	0.0	-0.9498	3	 ; reference 
CB	C=O	NC=O	HNCO	9	180.0	12.552	2	180.0	12.552	2	 ; reference 
CB	C=O	NC=O	CB	9	180.0	12.552	2	180.0	12.552	2	 ; reference 
CB	CB	CB	HCMM	2	0.0	9.0291	0.0	9.0291	 ; reference 
CB	CB	CB	NC=C	2	0.0	27.6981	0.0	27.6981	 ; reference 
CB	NC=C	CB	CB	2	0.0	27.6981	0.0	27.6981	 ; reference 
HNCO	CB	HNCO	NC=C	2	0.0	2.41	0.0	2.41	 ; reference 
C=O	CB	OR	O=C	2	0.0	76.4835	0.0	76.4835	 ; reference 
CB	CB	C=O	CB	2	0.0	16.259	0.0	16.259	 ; reference 
CB	CB	CB	CO2M	2	0.0	21.079	0.0	21.079	 ; reference 
C=O	CB	CB	CB	2	0.0	16.259	0.0	16.259	 ; reference 
C=O	OR	CB	O=C	2	0.0	76.4835	0.0	76.4835	 ; reference 
CO2M	O2CM	CB	O2CM	2	0.0	108.3991	0.0	108.3991	 ; reference 
CB	C=O	CB	CB	2	0.0	16.259	0.0	16.259	 ; reference 
CB	CB	NC=C	CB	2	0.0	27.6981	0.0	27.6981	 ; reference 
CB	NC=O	CB	CB	2	0.0	21.079	0.0	21.079	 ; reference 
HNCO	CB	C=O	NC=O	2	0.0	12.0416	0.0	12.0416	 ; reference 
C=O	CB	NC=O	O=C	2	0.0	78.291	0.0	78.291	 ; reference 
CB	CB	CB	NC=O	2	0.0	21.079	0.0	21.079	 ; reference 
C=O	NC=O	CB	O=C	2	0.0	78.291	0.0	78.291	 ; reference 
HNCO	C=O	CB	NC=O	2	0.0	12.0416	0.0	12.0416	 ; reference 
CB	CB	NC=O	CB	2	0.0	21.079	0.0	21.079	 ; reference 


[ moleculetype ]
; Name	nrexcl
MOL1	3

[ atoms ]
;nr	type	resnr	residue	atom	cgnr	charge	mass
1	CB	1	TMC1	C1	1	0.0862	12.011
2	CB	1	TMC1	C2	1	-0.15	12.011
3	CB	1	TMC1	C3	1	0.0862	12.011
4	CB	1	TMC1	C4	1	-0.15	12.011
5	CB	1	TMC1	C5	1	0.0862	12.011
6	CB	1	TMC1	C6	1	-0.15	12.011
7	C=O	1	TMC1	C	1	0.5438	12.011
8	O=C	1	TMC1	O	1	-0.57	15.9994
9	HCMM	1	TMC1	H	1	0.15	1.0079
10	HCMM	1	TMC1	H1	1	0.15	1.0079
11	HCMM	1	TMC1	H2	1	0.15	1.0079
12	C=O	1	TMC1	C7	1	0.6338	12.011
13	C=O	1	TMC1	C8	1	0.6338	12.011
14	O=C	1	TMC1	O1	1	-0.57	15.9994
15	O=C	1	TMC1	O2	1	-0.57	15.9994
16	OR	1	TMC1	O3	1	-0.65	15.9994
17	HOCO	1	TMC1	H3	1	0.5	1.0079
18	OR	1	TMC1	O5	1	-0.65	15.9994
19	HOCO	1	TMC1	H5	1	0.5	1.0079
20	CB	2	MPD2	C	1	-0.15	12.011
21	CB	2	MPD2	C1	1	0.117	12.011
22	CB	2	MPD2	C2	1	-0.15	12.011
23	CB	2	MPD2	C3	1	0.117	12.011
24	CB	2	MPD2	C4	1	-0.15	12.011
25	CB	2	MPD2	C5	1	-0.15	12.011
26	HCMM	2	MPD2	H	1	0.15	1.0079
27	HCMM	2	MPD2	H1	1	0.15	1.0079
28	HCMM	2	MPD2	H2	1	0.15	1.0079
29	HCMM	2	MPD2	H3	1	0.15	1.0079
30	NC=O	2	MPD2	N	1	-0.547	14.0067
31	HNCO	2	MPD2	H5	1	0.37	1.0079
32	NC=O	2	MPD2	N1	1	-0.547	14.0067
33	HNCO	2	MPD2	H7	1	0.37	1.0079
34	CB	3	TMC1	C1	1	0.0862	12.011
35	CB	3	TMC1	C2	1	-0.15	12.011
36	CB	3	TMC1	C3	1	0.0862	12.011
37	CB	3	TMC1	C4	1	-0.15	12.011
38	CB	3	TMC1	C5	1	0.0862	12.011
39	CB	3	TMC1	C6	1	-0.15	12.011
40	C=O	3	TMC1	C	1	0.5438	12.011
41	O=C	3	TMC1	O	1	-0.57	15.9994
42	HCMM	3	TMC1	H	1	0.15	1.0079
43	HCMM	3	TMC1	H1	1	0.15	1.0079
44	HCMM	3	TMC1	H2	1	0.15	1.0079
45	C=O	3	TMC1	C7	1	0.6338	12.011
46	C=O	3	TMC1	C8	1	0.6338	12.011
47	O=C	3	TMC1	O1	1	-0.57	15.9994
48	O=C	3	TMC1	O2	1	-0.57	15.9994
49	OR	3	TMC1	O3	1	-0.65	15.9994
50	HOCO	3	TMC1	H3	1	0.5	1.0079
51	OR	3	TMC1	O5	1	-0.65	15.9994
52	HOCO	3	TMC1	H5	1	0.5	1.0079
53	CB	4	MPD2	C	1	-0.15	12.011
54	CB	4	MPD2	C1	1	0.117	12.011
55	CB	4	MPD2	C2	1	-0.15	12.011
56	CB	4	MPD2	C3	1	0.117	12.011
57	CB	4	MPD2	C4	1	-0.15	12.011
58	CB	4	MPD2	C5	1	-0.15	12.011
59	HCMM	4	MPD2	H	1	0.15	1.0079
60	HCMM	4	MPD2	H1	1	0.15	1.0079
61	HCMM	4	MPD2	H2	1	0.15	1.0079
62	HCMM	4	MPD2	H3	1	0.15	1.0079
63	NC=O	4	MPD2	N	1	-0.547	14.0067
64	HNCO	4	MPD2	H5	1	0.37	1.0079
65	NC=O	4	MPD2	N1	1	-0.547	14.0067
66	HNCO	4	MPD2	H7	1	0.37	1.0079
67	OR	5	TCq1	O1	1	-0.65	15.9994
68	C=O	5	TCq1	C1	1	0.6338	12.011
69	O=C	5	TCq1	O2	1	-0.57	15.9994
70	CB	5	TCq1	C2	1	0.0862	12.011
71	CB	5	TCq1	C3	1	-0.15	12.011
72	CB	5	TCq1	C4	1	-0.179	12.011
73	CB	5	TCq1	C5	1	-0.15	12.011
74	CB	5	TCq1	C6	1	0.0862	12.011
75	CB	5	TCq1	C7	1	-0.15	12.011
76	C=O	5	TCq1	C8	1	0.5438	12.011
77	O=C	5	TCq1	O4	1	-0.57	15.9994
78	CO2M	5	TCq1	C9	1	0.979	12.011
79	O2CM	5	TCq1	O5	1	-0.9	15.9994
80	O2CM	5	TCq1	O6	1	-0.9	15.9994
81	HOCO	5	TCq1	H1	1	0.5	1.0079
82	HCMM	5	TCq1	H2	1	0.15	1.0079
83	HCMM	5	TCq1	H3	1	0.15	1.0079
84	HCMM	5	TCq1	H4	1	0.15	1.0079
85	CB	6	MPD2	C	1	-0.15	12.011
86	CB	6	MPD2	C1	1	0.117	12.011
87	CB	6	MPD2	C2	1	-0.15	12.011
88	CB	6	MPD2	C3	1	0.117	12.011
89	CB	6	MPD2	C4	1	-0.15	12.011
90	CB	6	MPD2	C5	1	-0.15	12.011
91	HCMM	6	MPD2	H	1	0.15	1.0079
92	HCMM	6	MPD2	H1	1	0.15	1.0079
93	HCMM	6	MPD2	H2	1	0.15	1.0079
94	HCMM	6	MPD2	H3	1	0.15	1.0079
95	NC=O	6	MPD2	N	1	-0.547	14.0067
96	HNCO	6	MPD2	H5	1	0.37	1.0079
97	NC=O	6	MPD2	N1	1	-0.547	14.0067
98	HNCO	6	MPD2	H7	1	0.37	1.0079
99	OR	7	TCq1	O1	1	-0.65	15.9994
100	C=O	7	TCq1	C1	1	0.6338	12.011
101	O=C	7	TCq1	O2	1	-0.57	15.9994
102	CB	7	TCq1	C2	1	0.0862	12.011
103	CB	7	TCq1	C3	1	-0.15	12.011
104	CB	7	TCq1	C4	1	-0.179	12.011
105	CB	7	TCq1	C5	1	-0.15	12.011
106	CB	7	TCq1	C6	1	0.0862	12.011
107	CB	7	TCq1	C7	1	-0.15	12.011
108	C=O	7	TCq1	C8	1	0.5438	12.011
109	O=C	7	TCq1	O4	1	-0.57	15.9994
110	CO2M	7	TCq1	C9	1	0.979	12.011
111	O2CM	7	TCq1	O5	1	-0.9	15.9994
112	O2CM	7	TCq1	O6	1	-0.9	15.9994
113	HOCO	7	TCq1	H1	1	0.5	1.0079
114	HCMM	7	TCq1	H2	1	0.15	1.0079
115	HCMM	7	TCq1	H3	1	0.15	1.0079
116	HCMM	7	TCq1	H4	1	0.15	1.0079
117	CB	8	MPD2	C	1	-0.15	12.011
118	CB	8	MPD2	C1	1	0.117	12.011
119	CB	8	MPD2	C2	1	-0.15	12.011
120	CB	8	MPD2	C3	1	0.117	12.011
121	CB	8	MPD2	C4	1	-0.15	12.011
122	CB	8	MPD2	C5	1	-0.15	12.011
123	HCMM	8	MPD2	H	1	0.15	1.0079
124	HCMM	8	MPD2	H1	1	0.15	1.0079
125	HCMM	8	MPD2	H2	1	0.15	1.0079
126	HCMM	8	MPD2	H3	1	0.15	1.0079
127	NC=O	8	MPD2	N	1	-0.547	14.0067
128	HNCO	8	MPD2	H5	1	0.37	1.0079
129	NC=O	8	MPD2	N1	1	-0.547	14.0067
130	HNCO	8	MPD2	H7	1	0.37	1.0079
131	CB	9	TMC1	C1	1	0.0862	12.011
132	CB	9	TMC1	C2	1	-0.15	12.011
133	CB	9	TMC1	C3	1	0.0862	12.011
134	CB	9	TMC1	C4	1	-0.15	12.011
135	CB	9	TMC1	C5	1	0.0862	12.011
136	CB	9	TMC1	C6	1	-0.15	12.011
137	C=O	9	TMC1	C	1	0.5438	12.011
138	O=C	9	TMC1	O	1	-0.57	15.9994
139	HCMM	9	TMC1	H	1	0.15	1.0079
140	HCMM	9	TMC1	H1	1	0.15	1.0079
141	HCMM	9	TMC1	H2	1	0.15	1.0079
142	C=O	9	TMC1	C7	1	0.6338	12.011
143	C=O	9	TMC1	C8	1	0.6338	12.011
144	O=C	9	TMC1	O1	1	-0.57	15.9994
145	O=C	9	TMC1	O2	1	-0.57	15.9994
146	OR	9	TMC1	O3	1	-0.65	15.9994
147	HOCO	9	TMC1	H3	1	0.5	1.0079
148	OR	9	TMC1	O5	1	-0.65	15.9994
149	HOCO	9	TMC1	H5	1	0.5	1.0079
150	CB	10	MPD2	C	1	-0.15	12.011
151	CB	10	MPD2	C1	1	0.117	12.011
152	CB	10	MPD2	C2	1	-0.15	12.011
153	CB	10	MPD2	C3	1	0.117	12.011
154	CB	10	MPD2	C4	1	-0.15	12.011
155	CB	10	MPD2	C5	1	-0.15	12.011
156	HCMM	10	MPD2	H	1	0.15	1.0079
157	HCMM	10	MPD2	H1	1	0.15	1.0079
158	HCMM	10	MPD2	H2	1	0.15	1.0079
159	HCMM	10	MPD2	H3	1	0.15	1.0079
160	NC=O	10	MPD2	N	1	-0.547	14.0067
161	HNCO	10	MPD2	H5	1	0.37	1.0079
162	NC=O	10	MPD2	N1	1	-0.547	14.0067
163	HNCO	10	MPD2	H7	1	0.37	1.0079
164	OR	11	TCq1	O1	1	-0.65	15.9994
165	C=O	11	TCq1	C1	1	0.6338	12.011
166	O=C	11	TCq1	O2	1	-0.57	15.9994
167	CB	11	TCq1	C2	1	0.0862	12.011
168	CB	11	TCq1	C3	1	-0.15	12.011
169	CB	11	TCq1	C4	1	-0.179	12.011
170	CB	11	TCq1	C5	1	-0.15	12.011
171	CB	11	TCq1	C6	1	0.0862	12.011
172	CB	11	TCq1	C7	1	-0.15	12.011
173	C=O	11	TCq1	C8	1	0.5438	12.011
174	O=C	11	TCq1	O4	1	-0.57	15.9994
175	CO2M	11	TCq1	C9	1	0.979	12.011
176	O2CM	11	TCq1	O5	1	-0.9	15.9994
177	O2CM	11	TCq1	O6	1	-0.9	15.9994
178	HOCO	11	TCq1	H1	1	0.5	1.0079
179	HCMM	11	TCq1	H2	1	0.15	1.0079
180	HCMM	11	TCq1	H3	1	0.15	1.0079
181	HCMM	11	TCq1	H4	1	0.15	1.0079
182	CB	12	MPD2	C	1	-0.15	12.011
183	CB	12	MPD2	C1	1	0.117	12.011
184	CB	12	MPD2	C2	1	-0.15	12.011
185	CB	12	MPD2	C3	1	0.117	12.011
186	CB	12	MPD2	C4	1	-0.15	12.011
187	CB	12	MPD2	C5	1	-0.15	12.011
188	HCMM	12	MPD2	H	1	0.15	1.0079
189	HCMM	12	MPD2	H1	1	0.15	1.0079
190	HCMM	12	MPD2	H2	1	0.15	1.0079
191	HCMM	12	MPD2	H3	1	0.15	1.0079
192	NC=O	12	MPD2	N	1	-0.547	14.0067
193	HNCO	12	MPD2	H5	1	0.37	1.0079
194	NC=O	12	MPD2	N1	1	-0.547	14.0067
195	HNCO	12	MPD2	H7	1	0.37	1.0079
196	OR	13	TCq1	O1	1	-0.65	15.9994
197	C=O	13	TCq1	C1	1	0.6338	12.011
198	O=C	13	TCq1	O2	1	-0.57	15.9994
199	CB	13	TCq1	C2	1	0.0862	12.011
200	CB	13	TCq1	C3	1	-0.15	12.011
201	CB	13	TCq1	C4	1	-0.179	12.011
202	CB	13	TCq1	C5	1	-0.15	12.011
203	CB	13	TCq1	C6	1	0.0862	12.011
204	CB	13	TCq1	C7	1	-0.15	12.011
205	C=O	13	TCq1	C8	1	0.5438	12.011
206	O=C	13	TCq1	O4	1	-0.57	15.9994
207	CO2M	13	TCq1	C9	1	0.979	12.011
208	O2CM	13	TCq1	O5	1	-0.9	15.9994
209	O2CM	13	TCq1	O6	1	-0.9	15.9994
210	HOCO	13	TCq1	H1	1	0.5	1.0079
211	HCMM	13	TCq1	H2	1	0.15	1.0079
212	HCMM	13	TCq1	H3	1	0.15	1.0079
213	HCMM	13	TCq1	H4	1	0.15	1.0079
214	CB	14	MPD2	C	1	-0.15	12.011
215	CB	14	MPD2	C1	1	0.117	12.011
216	CB	14	MPD2	C2	1	-0.15	12.011
217	CB	14	MPD2	C3	1	0.117	12.011
218	CB	14	MPD2	C4	1	-0.15	12.011
219	CB	14	MPD2	C5	1	-0.15	12.011
220	HCMM	14	MPD2	H	1	0.15	1.0079
221	HCMM	14	MPD2	H1	1	0.15	1.0079
222	HCMM	14	MPD2	H2	1	0.15	1.0079
223	HCMM	14	MPD2	H3	1	0.15	1.0079
224	NC=O	14	MPD2	N	1	-0.547	14.0067
225	HNCO	14	MPD2	H5	1	0.37	1.0079
226	NC=O	14	MPD2	N1	1	-0.547	14.0067
227	HNCO	14	MPD2	H7	1	0.37	1.0079
228	OR	15	TCq1	O1	1	-0.65	15.9994
229	C=O	15	TCq1	C1	1	0.6338	12.011
230	O=C	15	TCq1	O2	1	-0.57	15.9994
231	CB	15	TCq1	C2	1	0.0862	12.011
232	CB	15	TCq1	C3	1	-0.15	12.011
233	CB	15	TCq1	C4	1	-0.179	12.011
234	CB	15	TCq1	C5	1	-0.15	12.011
235	CB	15	TCq1	C6	1	0.0862	12.011
236	CB	15	TCq1	C7	1	-0.15	12.011
237	C=O	15	TCq1	C8	1	0.5438	12.011
238	O=C	15	TCq1	O4	1	-0.57	15.9994
239	CO2M	15	TCq1	C9	1	0.979	12.011
240	O2CM	15	TCq1	O5	1	-0.9	15.9994
241	O2CM	15	TCq1	O6	1	-0.9	15.9994
242	HOCO	15	TCq1	H1	1	0.5	1.0079
243	HCMM	15	TCq1	H2	1	0.15	1.0079
244	HCMM	15	TCq1	H3	1	0.15	1.0079
245	HCMM	15	TCq1	H4	1	0.15	1.0079
246	CB	16	MPD2	C	1	-0.15	12.011
247	CB	16	MPD2	C1	1	0.117	12.011
248	CB	16	MPD2	C2	1	-0.15	12.011
249	CB	16	MPD2	C3	1	0.117	12.011
250	CB	16	MPD2	C4	1	-0.15	12.011
251	CB	16	MPD2	C5	1	-0.15	12.011
252	HCMM	16	MPD2	H	1	0.15	1.0079
253	HCMM	16	MPD2	H1	1	0.15	1.0079
254	HCMM	16	MPD2	H2	1	0.15	1.0079
255	HCMM	16	MPD2	H3	1	0.15	1.0079
256	NC=O	16	MPD2	N	1	-0.547	14.0067
257	HNCO	16	MPD2	H5	1	0.37	1.0079
258	NC=O	16	MPD2	N1	1	-0.547	14.0067
259	HNCO	16	MPD2	H7	1	0.37	1.0079
260	CB	17	TMC1	C1	1	0.0862	12.011
261	CB	17	TMC1	C2	1	-0.15	12.011
262	CB	17	TMC1	C3	1	0.0862	12.011
263	CB	17	TMC1	C4	1	-0.15	12.011
264	CB	17	TMC1	C5	1	0.0862	12.011
265	CB	17	TMC1	C6	1	-0.15	12.011
266	C=O	17	TMC1	C	1	0.5438	12.011
267	O=C	17	TMC1	O	1	-0.57	15.9994
268	HCMM	17	TMC1	H	1	0.15	1.0079
269	HCMM	17	TMC1	H1	1	0.15	1.0079
270	HCMM	17	TMC1	H2	1	0.15	1.0079
271	C=O	17	TMC1	C7	1	0.6338	12.011
272	C=O	17	TMC1	C8	1	0.6338	12.011
273	O=C	17	TMC1	O1	1	-0.57	15.9994
274	O=C	17	TMC1	O2	1	-0.57	15.9994
275	OR	17	TMC1	O3	1	-0.65	15.9994
276	HOCO	17	TMC1	H3	1	0.5	1.0079
277	OR	17	TMC1	O5	1	-0.65	15.9994
278	HOCO	17	TMC1	H5	1	0.5	1.0079
279	CB	18	MPD2	C	1	-0.15	12.011
280	CB	18	MPD2	C1	1	0.117	12.011
281	CB	18	MPD2	C2	1	-0.15	12.011
282	CB	18	MPD2	C3	1	0.117	12.011
283	CB	18	MPD2	C4	1	-0.15	12.011
284	CB	18	MPD2	C5	1	-0.15	12.011
285	HCMM	18	MPD2	H	1	0.15	1.0079
286	HCMM	18	MPD2	H1	1	0.15	1.0079
287	HCMM	18	MPD2	H2	1	0.15	1.0079
288	HCMM	18	MPD2	H3	1	0.15	1.0079
289	NC=O	18	MPD2	N	1	-0.547	14.0067
290	HNCO	18	MPD2	H5	1	0.37	1.0079
291	NC=O	18	MPD2	N1	1	-0.547	14.0067
292	HNCO	18	MPD2	H7	1	0.37	1.0079
293	CB	19	TMC2	C1	1	0.0862	12.011
294	CB	19	TMC2	C2	1	-0.15	12.011
295	CB	19	TMC2	C3	1	0.0862	12.011
296	CB	19	TMC2	C4	1	-0.15	12.011
297	CB	19	TMC2	C5	1	0.0862	12.011
298	CB	19	TMC2	C6	1	-0.15	12.011
299	C=O	19	TMC2	C	1	0.5438	12.011
300	O=C	19	TMC2	O	1	-0.57	15.9994
301	HCMM	19	TMC2	H	1	0.15	1.0079
302	HCMM	19	TMC2	H1	1	0.15	1.0079
303	HCMM	19	TMC2	H2	1	0.15	1.0079
304	C=O	19	TMC2	C7	1	0.5438	12.011
305	C=O	19	TMC2	C8	1	0.6338	12.011
306	O=C	19	TMC2	O1	1	-0.57	15.9994
307	O=C	19	TMC2	O2	1	-0.57	15.9994
308	OR	19	TMC2	O5	1	-0.65	15.9994
309	HOCO	19	TMC2	H5	1	0.5	1.0079
310	CB	20	MPD2	C	1	-0.15	12.011
311	CB	20	MPD2	C1	1	0.117	12.011
312	CB	20	MPD2	C2	1	-0.15	12.011
313	CB	20	MPD2	C3	1	0.117	12.011
314	CB	20	MPD2	C4	1	-0.15	12.011
315	CB	20	MPD2	C5	1	-0.15	12.011
316	HCMM	20	MPD2	H	1	0.15	1.0079
317	HCMM	20	MPD2	H1	1	0.15	1.0079
318	HCMM	20	MPD2	H2	1	0.15	1.0079
319	HCMM	20	MPD2	H3	1	0.15	1.0079
320	NC=O	20	MPD2	N	1	-0.547	14.0067
321	HNCO	20	MPD2	H5	1	0.37	1.0079
322	NC=O	20	MPD2	N1	1	-0.547	14.0067
323	HNCO	20	MPD2	H7	1	0.37	1.0079
324	CB	21	TMC2	C1	1	0.0862	12.011
325	CB	21	TMC2	C2	1	-0.15	12.011
326	CB	21	TMC2	C3	1	0.0862	12.011
327	CB	21	TMC2	C4	1	-0.15	12.011
328	CB	21	TMC2	C5	1	0.0862	12.011
329	CB	21	TMC2	C6	1	-0.15	12.011
330	C=O	21	TMC2	C	1	0.5438	12.011
331	O=C	21	TMC2	O	1	-0.57	15.9994
332	HCMM	21	TMC2	H	1	0.15	1.0079
333	HCMM	21	TMC2	H1	1	0.15	1.0079
334	HCMM	21	TMC2	H2	1	0.15	1.0079
335	C=O	21	TMC2	C7	1	0.5438	12.011
336	C=O	21	TMC2	C8	1	0.6338	12.011
337	O=C	21	TMC2	O1	1	-0.57	15.9994
338	O=C	21	TMC2	O2	1	-0.57	15.9994
339	OR	21	TMC2	O5	1	-0.65	15.9994
340	HOCO	21	TMC2	H5	1	0.5	1.0079
341	CB	22	MPD2	C	1	-0.15	12.011
342	CB	22	MPD2	C1	1	0.117	12.011
343	CB	22	MPD2	C2	1	-0.15	12.011
344	CB	22	MPD2	C3	1	0.117	12.011
345	CB	22	MPD2	C4	1	-0.15	12.011
346	CB	22	MPD2	C5	1	-0.15	12.011
347	HCMM	22	MPD2	H	1	0.15	1.0079
348	HCMM	22	MPD2	H1	1	0.15	1.0079
349	HCMM	22	MPD2	H2	1	0.15	1.0079
350	HCMM	22	MPD2	H3	1	0.15	1.0079
351	NC=O	22	MPD2	N	1	-0.547	14.0067
352	HNCO	22	MPD2	H5	1	0.37	1.0079
353	NC=O	22	MPD2	N1	1	-0.547	14.0067
354	HNCO	22	MPD2	H7	1	0.37	1.0079
355	CB	23	TMC2	C1	1	0.0862	12.011
356	CB	23	TMC2	C2	1	-0.15	12.011
357	CB	23	TMC2	C3	1	0.0862	12.011
358	CB	23	TMC2	C4	1	-0.15	12.011
359	CB	23	TMC2	C5	1	0.0862	12.011
360	CB	23	TMC2	C6	1	-0.15	12.011
361	C=O	23	TMC2	C	1	0.5438	12.011
362	O=C	23	TMC2	O	1	-0.57	15.9994
363	HCMM	23	TMC2	H	1	0.15	1.0079
364	HCMM	23	TMC2	H1	1	0.15	1.0079
365	HCMM	23	TMC2	H2	1	0.15	1.0079
366	C=O	23	TMC2	C7	1	0.5438	12.011
367	C=O	23	TMC2	C8	1	0.6338	12.011
368	O=C	23	TMC2	O1	1	-0.57	15.9994
369	O=C	23	TMC2	O2	1	-0.57	15.9994
370	OR	23	TMC2	O5	1	-0.65	15.9994
371	HOCO	23	TMC2	H5	1	0.5	1.0079
372	CB	24	MPD2	C	1	-0.15	12.011
373	CB	24	MPD2	C1	1	0.117	12.011
374	CB	24	MPD2	C2	1	-0.15	12.011
375	CB	24	MPD2	C3	1	0.117	12.011
376	CB	24	MPD2	C4	1	-0.15	12.011
377	CB	24	MPD2	C5	1	-0.15	12.011
378	HCMM	24	MPD2	H	1	0.15	1.0079
379	HCMM	24	MPD2	H1	1	0.15	1.0079
380	HCMM	24	MPD2	H2	1	0.15	1.0079
381	HCMM	24	MPD2	H3	1	0.15	1.0079
382	NC=O	24	MPD2	N	1	-0.547	14.0067
383	HNCO	24	MPD2	H5	1	0.37	1.0079
384	NC=O	24	MPD2	N1	1	-0.547	14.0067
385	HNCO	24	MPD2	H7	1	0.37	1.0079
386	CB	25	TMC2	C1	1	0.0862	12.011
387	CB	25	TMC2	C2	1	-0.15	12.011
388	CB	25	TMC2	C3	1	0.0862	12.011
389	CB	25	TMC2	C4	1	-0.15	12.011
390	CB	25	TMC2	C5	1	0.0862	12.011
391	CB	25	TMC2	C6	1	-0.15	12.011
392	C=O	25	TMC2	C	1	0.5438	12.011
393	O=C	25	TMC2	O	1	-0.57	15.9994
394	HCMM	25	TMC2	H	1	0.15	1.0079
395	HCMM	25	TMC2	H1	1	0.15	1.0079
396	HCMM	25	TMC2	H2	1	0.15	1.0079
397	C=O	25	TMC2	C7	1	0.5438	12.011
398	C=O	25	TMC2	C8	1	0.6338	12.011
399	O=C	25	TMC2	O1	1	-0.57	15.9994
400	O=C	25	TMC2	O2	1	-0.57	15.9994
401	OR	25	TMC2	O5	1	-0.65	15.9994
402	HOCO	25	TMC2	H5	1	0.5	1.0079
403	CB	26	MPD2	C	1	-0.15	12.011
404	CB	26	MPD2	C1	1	0.117	12.011
405	CB	26	MPD2	C2	1	-0.15	12.011
406	CB	26	MPD2	C3	1	0.117	12.011
407	CB	26	MPD2	C4	1	-0.15	12.011
408	CB	26	MPD2	C5	1	-0.15	12.011
409	HCMM	26	MPD2	H	1	0.15	1.0079
410	HCMM	26	MPD2	H1	1	0.15	1.0079
411	HCMM	26	MPD2	H2	1	0.15	1.0079
412	HCMM	26	MPD2	H3	1	0.15	1.0079
413	NC=O	26	MPD2	N	1	-0.547	14.0067
414	HNCO	26	MPD2	H5	1	0.37	1.0079
415	NC=O	26	MPD2	N1	1	-0.547	14.0067
416	HNCO	26	MPD2	H7	1	0.37	1.0079
417	CB	27	TMC2	C1	1	0.0862	12.011
418	CB	27	TMC2	C2	1	-0.15	12.011
419	CB	27	TMC2	C3	1	0.0862	12.011
420	CB	27	TMC2	C4	1	-0.15	12.011
421	CB	27	TMC2	C5	1	0.0862	12.011
422	CB	27	TMC2	C6	1	-0.15	12.011
423	C=O	27	TMC2	C	1	0.5438	12.011
424	O=C	27	TMC2	O	1	-0.57	15.9994
425	HCMM	27	TMC2	H	1	0.15	1.0079
426	HCMM	27	TMC2	H1	1	0.15	1.0079
427	HCMM	27	TMC2	H2	1	0.15	1.0079
428	C=O	27	TMC2	C7	1	0.5438	12.011
429	C=O	27	TMC2	C8	1	0.6338	12.011
430	O=C	27	TMC2	O1	1	-0.57	15.9994
431	O=C	27	TMC2	O2	1	-0.57	15.9994
432	OR	27	TMC2	O5	1	-0.65	15.9994
433	HOCO	27	TMC2	H5	1	0.5	1.0079
434	CB	28	MPD2	C	1	-0.15	12.011
435	CB	28	MPD2	C1	1	0.117	12.011
436	CB	28	MPD2	C2	1	-0.15	12.011
437	CB	28	MPD2	C3	1	0.117	12.011
438	CB	28	MPD2	C4	1	-0.15	12.011
439	CB	28	MPD2	C5	1	-0.15	12.011
440	HCMM	28	MPD2	H	1	0.15	1.0079
441	HCMM	28	MPD2	H1	1	0.15	1.0079
442	HCMM	28	MPD2	H2	1	0.15	1.0079
443	HCMM	28	MPD2	H3	1	0.15	1.0079
444	NC=O	28	MPD2	N	1	-0.547	14.0067
445	HNCO	28	MPD2	H5	1	0.37	1.0079
446	NC=O	28	MPD2	N1	1	-0.547	14.0067
447	HNCO	28	MPD2	H7	1	0.37	1.0079
448	CB	29	TMC2	C1	1	0.0862	12.011
449	CB	29	TMC2	C2	1	-0.15	12.011
450	CB	29	TMC2	C3	1	0.0862	12.011
451	CB	29	TMC2	C4	1	-0.15	12.011
452	CB	29	TMC2	C5	1	0.0862	12.011
453	CB	29	TMC2	C6	1	-0.15	12.011
454	C=O	29	TMC2	C	1	0.5438	12.011
455	O=C	29	TMC2	O	1	-0.57	15.9994
456	HCMM	29	TMC2	H	1	0.15	1.0079
457	HCMM	29	TMC2	H1	1	0.15	1.0079
458	HCMM	29	TMC2	H2	1	0.15	1.0079
459	C=O	29	TMC2	C7	1	0.5438	12.011
460	C=O	29	TMC2	C8	1	0.6338	12.011
461	O=C	29	TMC2	O1	1	-0.57	15.9994
462	O=C	29	TMC2	O2	1	-0.57	15.9994
463	OR	29	TMC2	O5	1	-0.65	15.9994
464	HOCO	29	TMC2	H5	1	0.5	1.0079
465	CB	30	MPD2	C	1	-0.15	12.011
466	CB	30	MPD2	C1	1	0.117	12.011
467	CB	30	MPD2	C2	1	-0.15	12.011
468	CB	30	MPD2	C3	1	0.117	12.011
469	CB	30	MPD2	C4	1	-0.15	12.011
470	CB	30	MPD2	C5	1	-0.15	12.011
471	HCMM	30	MPD2	H	1	0.15	1.0079
472	HCMM	30	MPD2	H1	1	0.15	1.0079
473	HCMM	30	MPD2	H2	1	0.15	1.0079
474	HCMM	30	MPD2	H3	1	0.15	1.0079
475	NC=O	30	MPD2	N	1	-0.547	14.0067
476	HNCO	30	MPD2	H5	1	0.37	1.0079
477	NC=O	30	MPD2	N1	1	-0.547	14.0067
478	HNCO	30	MPD2	H7	1	0.37	1.0079
479	CB	31	TMC2	C1	1	0.0862	12.011
480	CB	31	TMC2	C2	1	-0.15	12.011
481	CB	31	TMC2	C3	1	0.0862	12.011
482	CB	31	TMC2	C4	1	-0.15	12.011
483	CB	31	TMC2	C5	1	0.0862	12.011
484	CB	31	TMC2	C6	1	-0.15	12.011
485	C=O	31	TMC2	C	1	0.5438	12.011
486	O=C	31	TMC2	O	1	-0.57	15.9994
487	HCMM	31	TMC2	H	1	0.15	1.0079
488	HCMM	31	TMC2	H1	1	0.15	1.0079
489	HCMM	31	TMC2	H2	1	0.15	1.0079
490	C=O	31	TMC2	C7	1	0.5438	12.011
491	C=O	31	TMC2	C8	1	0.6338	12.011
492	O=C	31	TMC2	O1	1	-0.57	15.9994
493	O=C	31	TMC2	O2	1	-0.57	15.9994
494	OR	31	TMC2	O5	1	-0.65	15.9994
495	HOCO	31	TMC2	H5	1	0.5	1.0079
496	CB	32	MPD2	C	1	-0.15	12.011
497	CB	32	MPD2	C1	1	0.117	12.011
498	CB	32	MPD2	C2	1	-0.15	12.011
499	CB	32	MPD2	C3	1	0.117	12.011
500	CB	32	MPD2	C4	1	-0.15	12.011
501	CB	32	MPD2	C5	1	-0.15	12.011
502	HCMM	32	MPD2	H	1	0.15	1.0079
503	HCMM	32	MPD2	H1	1	0.15	1.0079
504	HCMM	32	MPD2	H2	1	0.15	1.0079
505	HCMM	32	MPD2	H3	1	0.15	1.0079
506	NC=O	32	MPD2	N	1	-0.547	14.0067
507	HNCO	32	MPD2	H5	1	0.37	1.0079
508	NC=O	32	MPD2	N1	1	-0.547	14.0067
509	HNCO	32	MPD2	H7	1	0.37	1.0079
510	CB	33	TMC2	C1	1	0.0862	12.011
511	CB	33	TMC2	C2	1	-0.15	12.011
512	CB	33	TMC2	C3	1	0.0862	12.011
513	CB	33	TMC2	C4	1	-0.15	12.011
514	CB	33	TMC2	C5	1	0.0862	12.011
515	CB	33	TMC2	C6	1	-0.15	12.011
516	C=O	33	TMC2	C	1	0.5438	12.011
517	O=C	33	TMC2	O	1	-0.57	15.9994
518	HCMM	33	TMC2	H	1	0.15	1.0079
519	HCMM	33	TMC2	H1	1	0.15	1.0079
520	HCMM	33	TMC2	H2	1	0.15	1.0079
521	C=O	33	TMC2	C7	1	0.5438	12.011
522	C=O	33	TMC2	C8	1	0.6338	12.011
523	O=C	33	TMC2	O1	1	-0.57	15.9994
524	O=C	33	TMC2	O2	1	-0.57	15.9994
525	OR	33	TMC2	O5	1	-0.65	15.9994
526	HOCO	33	TMC2	H5	1	0.5	1.0079
527	CB	34	MPD2	C	1	-0.15	12.011
528	CB	34	MPD2	C1	1	0.117	12.011
529	CB	34	MPD2	C2	1	-0.15	12.011
530	CB	34	MPD2	C3	1	0.117	12.011
531	CB	34	MPD2	C4	1	-0.15	12.011
532	CB	34	MPD2	C5	1	-0.15	12.011
533	HCMM	34	MPD2	H	1	0.15	1.0079
534	HCMM	34	MPD2	H1	1	0.15	1.0079
535	HCMM	34	MPD2	H2	1	0.15	1.0079
536	HCMM	34	MPD2	H3	1	0.15	1.0079
537	NC=O	34	MPD2	N	1	-0.547	14.0067
538	HNCO	34	MPD2	H5	1	0.37	1.0079
539	NC=O	34	MPD2	N1	1	-0.547	14.0067
540	HNCO	34	MPD2	H7	1	0.37	1.0079
541	CB	35	TMC2	C1	1	0.0862	12.011
542	CB	35	TMC2	C2	1	-0.15	12.011
543	CB	35	TMC2	C3	1	0.0862	12.011
544	CB	35	TMC2	C4	1	-0.15	12.011
545	CB	35	TMC2	C5	1	0.0862	12.011
546	CB	35	TMC2	C6	1	-0.15	12.011
547	C=O	35	TMC2	C	1	0.5438	12.011
548	O=C	35	TMC2	O	1	-0.57	15.9994
549	HCMM	35	TMC2	H	1	0.15	1.0079
550	HCMM	35	TMC2	H1	1	0.15	1.0079
551	HCMM	35	TMC2	H2	1	0.15	1.0079
552	C=O	35	TMC2	C7	1	0.5438	12.011
553	C=O	35	TMC2	C8	1	0.6338	12.011
554	O=C	35	TMC2	O1	1	-0.57	15.9994
555	O=C	35	TMC2	O2	1	-0.57	15.9994
556	OR	35	TMC2	O5	1	-0.65	15.9994
557	HOCO	35	TMC2	H5	1	0.5	1.0079
558	CB	36	MPD2	C	1	-0.15	12.011
559	CB	36	MPD2	C1	1	0.117	12.011
560	CB	36	MPD2	C2	1	-0.15	12.011
561	CB	36	MPD2	C3	1	0.117	12.011
562	CB	36	MPD2	C4	1	-0.15	12.011
563	CB	36	MPD2	C5	1	-0.15	12.011
564	HCMM	36	MPD2	H	1	0.15	1.0079
565	HCMM	36	MPD2	H1	1	0.15	1.0079
566	HCMM	36	MPD2	H2	1	0.15	1.0079
567	HCMM	36	MPD2	H3	1	0.15	1.0079
568	NC=O	36	MPD2	N	1	-0.547	14.0067
569	HNCO	36	MPD2	H5	1	0.37	1.0079
570	NC=O	36	MPD2	N1	1	-0.547	14.0067
571	HNCO	36	MPD2	H7	1	0.37	1.0079
572	CB	37	TMC2	C1	1	0.0862	12.011
573	CB	37	TMC2	C2	1	-0.15	12.011
574	CB	37	TMC2	C3	1	0.0862	12.011
575	CB	37	TMC2	C4	1	-0.15	12.011
576	CB	37	TMC2	C5	1	0.0862	12.011
577	CB	37	TMC2	C6	1	-0.15	12.011
578	C=O	37	TMC2	C	1	0.5438	12.011
579	O=C	37	TMC2	O	1	-0.57	15.9994
580	HCMM	37	TMC2	H	1	0.15	1.0079
581	HCMM	37	TMC2	H1	1	0.15	1.0079
582	HCMM	37	TMC2	H2	1	0.15	1.0079
583	C=O	37	TMC2	C7	1	0.5438	12.011
584	C=O	37	TMC2	C8	1	0.6338	12.011
585	O=C	37	TMC2	O1	1	-0.57	15.9994
586	O=C	37	TMC2	O2	1	-0.57	15.9994
587	OR	37	TMC2	O5	1	-0.65	15.9994
588	HOCO	37	TMC2	H5	1	0.5	1.0079
589	CB	38	MPD2	C	1	-0.15	12.011
590	CB	38	MPD2	C1	1	0.117	12.011
591	CB	38	MPD2	C2	1	-0.15	12.011
592	CB	38	MPD2	C3	1	0.117	12.011
593	CB	38	MPD2	C4	1	-0.15	12.011
594	CB	38	MPD2	C5	1	-0.15	12.011
595	HCMM	38	MPD2	H	1	0.15	1.0079
596	HCMM	38	MPD2	H1	1	0.15	1.0079
597	HCMM	38	MPD2	H2	1	0.15	1.0079
598	HCMM	38	MPD2	H3	1	0.15	1.0079
599	NC=O	38	MPD2	N	1	-0.547	14.0067
600	HNCO	38	MPD2	H5	1	0.37	1.0079
601	NC=O	38	MPD2	N1	1	-0.547	14.0067
602	HNCO	38	MPD2	H7	1	0.37	1.0079
603	CB	39	TMC2	C1	1	0.0862	12.011
604	CB	39	TMC2	C2	1	-0.15	12.011
605	CB	39	TMC2	C3	1	0.0862	12.011
606	CB	39	TMC2	C4	1	-0.15	12.011
607	CB	39	TMC2	C5	1	0.0862	12.011
608	CB	39	TMC2	C6	1	-0.15	12.011
609	C=O	39	TMC2	C	1	0.5438	12.011
610	O=C	39	TMC2	O	1	-0.57	15.9994
611	HCMM	39	TMC2	H	1	0.15	1.0079
612	HCMM	39	TMC2	H1	1	0.15	1.0079
613	HCMM	39	TMC2	H2	1	0.15	1.0079
614	C=O	39	TMC2	C7	1	0.5438	12.011
615	C=O	39	TMC2	C8	1	0.6338	12.011
616	O=C	39	TMC2	O1	1	-0.57	15.9994
617	O=C	39	TMC2	O2	1	-0.57	15.9994
618	OR	39	TMC2	O5	1	-0.65	15.9994
619	HOCO	39	TMC2	H5	1	0.5	1.0079
620	CB	40	MPD2	C	1	-0.15	12.011
621	CB	40	MPD2	C1	1	0.117	12.011
622	CB	40	MPD2	C2	1	-0.15	12.011
623	CB	40	MPD2	C3	1	0.117	12.011
624	CB	40	MPD2	C4	1	-0.15	12.011
625	CB	40	MPD2	C5	1	-0.15	12.011
626	HCMM	40	MPD2	H	1	0.15	1.0079
627	HCMM	40	MPD2	H1	1	0.15	1.0079
628	HCMM	40	MPD2	H2	1	0.15	1.0079
629	HCMM	40	MPD2	H3	1	0.15	1.0079
630	NC=O	40	MPD2	N	1	-0.547	14.0067
631	HNCO	40	MPD2	H5	1	0.37	1.0079
632	NC=O	40	MPD2	N1	1	-0.547	14.0067
633	HNCO	40	MPD2	H7	1	0.37	1.0079
634	CB	41	TMC2	C1	1	0.0862	12.011
635	CB	41	TMC2	C2	1	-0.15	12.011
636	CB	41	TMC2	C3	1	0.0862	12.011
637	CB	41	TMC2	C4	1	-0.15	12.011
638	CB	41	TMC2	C5	1	0.0862	12.011
639	CB	41	TMC2	C6	1	-0.15	12.011
640	C=O	41	TMC2	C	1	0.5438	12.011
641	O=C	41	TMC2	O	1	-0.57	15.9994
642	HCMM	41	TMC2	H	1	0.15	1.0079
643	HCMM	41	TMC2	H1	1	0.15	1.0079
644	HCMM	41	TMC2	H2	1	0.15	1.0079
645	C=O	41	TMC2	C7	1	0.5438	12.011
646	C=O	41	TMC2	C8	1	0.6338	12.011
647	O=C	41	TMC2	O1	1	-0.57	15.9994
648	O=C	41	TMC2	O2	1	-0.57	15.9994
649	OR	41	TMC2	O5	1	-0.65	15.9994
650	HOCO	41	TMC2	H5	1	0.5	1.0079
651	CB	42	MPD2	C	1	-0.15	12.011
652	CB	42	MPD2	C1	1	0.117	12.011
653	CB	42	MPD2	C2	1	-0.15	12.011
654	CB	42	MPD2	C3	1	0.117	12.011
655	CB	42	MPD2	C4	1	-0.15	12.011
656	CB	42	MPD2	C5	1	-0.15	12.011
657	HCMM	42	MPD2	H	1	0.15	1.0079
658	HCMM	42	MPD2	H1	1	0.15	1.0079
659	HCMM	42	MPD2	H2	1	0.15	1.0079
660	HCMM	42	MPD2	H3	1	0.15	1.0079
661	NC=O	42	MPD2	N	1	-0.547	14.0067
662	HNCO	42	MPD2	H5	1	0.37	1.0079
663	NC=O	42	MPD2	N1	1	-0.547	14.0067
664	HNCO	42	MPD2	H7	1	0.37	1.0079
665	CB	43	TMC2	C1	1	0.0862	12.011
666	CB	43	TMC2	C2	1	-0.15	12.011
667	CB	43	TMC2	C3	1	0.0862	12.011
668	CB	43	TMC2	C4	1	-0.15	12.011
669	CB	43	TMC2	C5	1	0.0862	12.011
670	CB	43	TMC2	C6	1	-0.15	12.011
671	C=O	43	TMC2	C	1	0.5438	12.011
672	O=C	43	TMC2	O	1	-0.57	15.9994
673	HCMM	43	TMC2	H	1	0.15	1.0079
674	HCMM	43	TMC2	H1	1	0.15	1.0079
675	HCMM	43	TMC2	H2	1	0.15	1.0079
676	C=O	43	TMC2	C7	1	0.5438	12.011
677	C=O	43	TMC2	C8	1	0.6338	12.011
678	O=C	43	TMC2	O1	1	-0.57	15.9994
679	O=C	43	TMC2	O2	1	-0.57	15.9994
680	OR	43	TMC2	O5	1	-0.65	15.9994
681	HOCO	43	TMC2	H5	1	0.5	1.0079
682	CB	44	MPD2	C	1	-0.15	12.011
683	CB	44	MPD2	C1	1	0.117	12.011
684	CB	44	MPD2	C2	1	-0.15	12.011
685	CB	44	MPD2	C3	1	0.117	12.011
686	CB	44	MPD2	C4	1	-0.15	12.011
687	CB	44	MPD2	C5	1	-0.15	12.011
688	HCMM	44	MPD2	H	1	0.15	1.0079
689	HCMM	44	MPD2	H1	1	0.15	1.0079
690	HCMM	44	MPD2	H2	1	0.15	1.0079
691	HCMM	44	MPD2	H3	1	0.15	1.0079
692	NC=O	44	MPD2	N	1	-0.547	14.0067
693	HNCO	44	MPD2	H5	1	0.37	1.0079
694	NC=O	44	MPD2	N1	1	-0.547	14.0067
695	HNCO	44	MPD2	H7	1	0.37	1.0079
696	CB	45	TMC2	C1	1	0.0862	12.011
697	CB	45	TMC2	C2	1	-0.15	12.011
698	CB	45	TMC2	C3	1	0.0862	12.011
699	CB	45	TMC2	C4	1	-0.15	12.011
700	CB	45	TMC2	C5	1	0.0862	12.011
701	CB	45	TMC2	C6	1	-0.15	12.011
702	C=O	45	TMC2	C	1	0.5438	12.011
703	O=C	45	TMC2	O	1	-0.57	15.9994
704	HCMM	45	TMC2	H	1	0.15	1.0079
705	HCMM	45	TMC2	H1	1	0.15	1.0079
706	HCMM	45	TMC2	H2	1	0.15	1.0079
707	C=O	45	TMC2	C7	1	0.5438	12.011
708	C=O	45	TMC2	C8	1	0.6338	12.011
709	O=C	45	TMC2	O1	1	-0.57	15.9994
710	O=C	45	TMC2	O2	1	-0.57	15.9994
711	OR	45	TMC2	O5	1	-0.65	15.9994
712	HOCO	45	TMC2	H5	1	0.5	1.0079
713	CB	46	MPD2	C	1	-0.15	12.011
714	CB	46	MPD2	C1	1	0.117	12.011
715	CB	46	MPD2	C2	1	-0.15	12.011
716	CB	46	MPD2	C3	1	0.117	12.011
717	CB	46	MPD2	C4	1	-0.15	12.011
718	CB	46	MPD2	C5	1	-0.15	12.011
719	HCMM	46	MPD2	H	1	0.15	1.0079
720	HCMM	46	MPD2	H1	1	0.15	1.0079
721	HCMM	46	MPD2	H2	1	0.15	1.0079
722	HCMM	46	MPD2	H3	1	0.15	1.0079
723	NC=O	46	MPD2	N	1	-0.547	14.0067
724	HNCO	46	MPD2	H5	1	0.37	1.0079
725	NC=O	46	MPD2	N1	1	-0.547	14.0067
726	HNCO	46	MPD2	H7	1	0.37	1.0079
727	CB	47	TMC2	C1	1	0.0862	12.011
728	CB	47	TMC2	C2	1	-0.15	12.011
729	CB	47	TMC2	C3	1	0.0862	12.011
730	CB	47	TMC2	C4	1	-0.15	12.011
731	CB	47	TMC2	C5	1	0.0862	12.011
732	CB	47	TMC2	C6	1	-0.15	12.011
733	C=O	47	TMC2	C	1	0.5438	12.011
734	O=C	47	TMC2	O	1	-0.57	15.9994
735	HCMM	47	TMC2	H	1	0.15	1.0079
736	HCMM	47	TMC2	H1	1	0.15	1.0079
737	HCMM	47	TMC2	H2	1	0.15	1.0079
738	C=O	47	TMC2	C7	1	0.5438	12.011
739	C=O	47	TMC2	C8	1	0.6338	12.011
740	O=C	47	TMC2	O1	1	-0.57	15.9994
741	O=C	47	TMC2	O2	1	-0.57	15.9994
742	OR	47	TMC2	O5	1	-0.65	15.9994
743	HOCO	47	TMC2	H5	1	0.5	1.0079
744	CB	48	MPD2	C	1	-0.15	12.011
745	CB	48	MPD2	C1	1	0.117	12.011
746	CB	48	MPD2	C2	1	-0.15	12.011
747	CB	48	MPD2	C3	1	0.117	12.011
748	CB	48	MPD2	C4	1	-0.15	12.011
749	CB	48	MPD2	C5	1	-0.15	12.011
750	HCMM	48	MPD2	H	1	0.15	1.0079
751	HCMM	48	MPD2	H1	1	0.15	1.0079
752	HCMM	48	MPD2	H2	1	0.15	1.0079
753	HCMM	48	MPD2	H3	1	0.15	1.0079
754	NC=O	48	MPD2	N	1	-0.547	14.0067
755	HNCO	48	MPD2	H5	1	0.37	1.0079
756	NC=O	48	MPD2	N1	1	-0.547	14.0067
757	HNCO	48	MPD2	H7	1	0.37	1.0079
758	CB	49	TMC2	C1	1	0.0862	12.011
759	CB	49	TMC2	C2	1	-0.15	12.011
760	CB	49	TMC2	C3	1	0.0862	12.011
761	CB	49	TMC2	C4	1	-0.15	12.011
762	CB	49	TMC2	C5	1	0.0862	12.011
763	CB	49	TMC2	C6	1	-0.15	12.011
764	C=O	49	TMC2	C	1	0.5438	12.011
765	O=C	49	TMC2	O	1	-0.57	15.9994
766	HCMM	49	TMC2	H	1	0.15	1.0079
767	HCMM	49	TMC2	H1	1	0.15	1.0079
768	HCMM	49	TMC2	H2	1	0.15	1.0079
769	C=O	49	TMC2	C7	1	0.5438	12.011
770	C=O	49	TMC2	C8	1	0.6338	12.011
771	O=C	49	TMC2	O1	1	-0.57	15.9994
772	O=C	49	TMC2	O2	1	-0.57	15.9994
773	OR	49	TMC2	O5	1	-0.65	15.9994
774	HOCO	49	TMC2	H5	1	0.5	1.0079
775	CB	50	MPD2	C	1	-0.15	12.011
776	CB	50	MPD2	C1	1	0.117	12.011
777	CB	50	MPD2	C2	1	-0.15	12.011
778	CB	50	MPD2	C3	1	0.117	12.011
779	CB	50	MPD2	C4	1	-0.15	12.011
780	CB	50	MPD2	C5	1	-0.15	12.011
781	HCMM	50	MPD2	H	1	0.15	1.0079
782	HCMM	50	MPD2	H1	1	0.15	1.0079
783	HCMM	50	MPD2	H2	1	0.15	1.0079
784	HCMM	50	MPD2	H3	1	0.15	1.0079
785	NC=O	50	MPD2	N	1	-0.547	14.0067
786	HNCO	50	MPD2	H5	1	0.37	1.0079
787	NC=O	50	MPD2	N1	1	-0.547	14.0067
788	HNCO	50	MPD2	H7	1	0.37	1.0079
789	CB	51	TMC2	C1	1	0.0862	12.011
790	CB	51	TMC2	C2	1	-0.15	12.011
791	CB	51	TMC2	C3	1	0.0862	12.011
792	CB	51	TMC2	C4	1	-0.15	12.011
793	CB	51	TMC2	C5	1	0.0862	12.011
794	CB	51	TMC2	C6	1	-0.15	12.011
795	C=O	51	TMC2	C	1	0.5438	12.011
796	O=C	51	TMC2	O	1	-0.57	15.9994
797	HCMM	51	TMC2	H	1	0.15	1.0079
798	HCMM	51	TMC2	H1	1	0.15	1.0079
799	HCMM	51	TMC2	H2	1	0.15	1.0079
800	C=O	51	TMC2	C7	1	0.5438	12.011
801	C=O	51	TMC2	C8	1	0.6338	12.011
802	O=C	51	TMC2	O1	1	-0.57	15.9994
803	O=C	51	TMC2	O2	1	-0.57	15.9994
804	OR	51	TMC2	O5	1	-0.65	15.9994
805	HOCO	51	TMC2	H5	1	0.5	1.0079
806	CB	52	MPD2	C	1	-0.15	12.011
807	CB	52	MPD2	C1	1	0.117	12.011
808	CB	52	MPD2	C2	1	-0.15	12.011
809	CB	52	MPD2	C3	1	0.117	12.011
810	CB	52	MPD2	C4	1	-0.15	12.011
811	CB	52	MPD2	C5	1	-0.15	12.011
812	HCMM	52	MPD2	H	1	0.15	1.0079
813	HCMM	52	MPD2	H1	1	0.15	1.0079
814	HCMM	52	MPD2	H2	1	0.15	1.0079
815	HCMM	52	MPD2	H3	1	0.15	1.0079
816	NC=O	52	MPD2	N	1	-0.547	14.0067
817	HNCO	52	MPD2	H5	1	0.37	1.0079
818	NC=O	52	MPD2	N1	1	-0.547	14.0067
819	HNCO	52	MPD2	H7	1	0.37	1.0079
820	CB	53	TMC2	C1	1	0.0862	12.011
821	CB	53	TMC2	C2	1	-0.15	12.011
822	CB	53	TMC2	C3	1	0.0862	12.011
823	CB	53	TMC2	C4	1	-0.15	12.011
824	CB	53	TMC2	C5	1	0.0862	12.011
825	CB	53	TMC2	C6	1	-0.15	12.011
826	C=O	53	TMC2	C	1	0.5438	12.011
827	O=C	53	TMC2	O	1	-0.57	15.9994
828	HCMM	53	TMC2	H	1	0.15	1.0079
829	HCMM	53	TMC2	H1	1	0.15	1.0079
830	HCMM	53	TMC2	H2	1	0.15	1.0079
831	C=O	53	TMC2	C7	1	0.5438	12.011
832	C=O	53	TMC2	C8	1	0.6338	12.011
833	O=C	53	TMC2	O1	1	-0.57	15.9994
834	O=C	53	TMC2	O2	1	-0.57	15.9994
835	OR	53	TMC2	O5	1	-0.65	15.9994
836	HOCO	53	TMC2	H5	1	0.5	1.0079
837	CB	54	MPD2	C	1	-0.15	12.011
838	CB	54	MPD2	C1	1	0.117	12.011
839	CB	54	MPD2	C2	1	-0.15	12.011
840	CB	54	MPD2	C3	1	0.117	12.011
841	CB	54	MPD2	C4	1	-0.15	12.011
842	CB	54	MPD2	C5	1	-0.15	12.011
843	HCMM	54	MPD2	H	1	0.15	1.0079
844	HCMM	54	MPD2	H1	1	0.15	1.0079
845	HCMM	54	MPD2	H2	1	0.15	1.0079
846	HCMM	54	MPD2	H3	1	0.15	1.0079
847	NC=O	54	MPD2	N	1	-0.547	14.0067
848	HNCO	54	MPD2	H5	1	0.37	1.0079
849	NC=O	54	MPD2	N1	1	-0.547	14.0067
850	HNCO	54	MPD2	H7	1	0.37	1.0079
851	CB	55	TMC2	C1	1	0.0862	12.011
852	CB	55	TMC2	C2	1	-0.15	12.011
853	CB	55	TMC2	C3	1	0.0862	12.011
854	CB	55	TMC2	C4	1	-0.15	12.011
855	CB	55	TMC2	C5	1	0.0862	12.011
856	CB	55	TMC2	C6	1	-0.15	12.011
857	C=O	55	TMC2	C	1	0.5438	12.011
858	O=C	55	TMC2	O	1	-0.57	15.9994
859	HCMM	55	TMC2	H	1	0.15	1.0079
860	HCMM	55	TMC2	H1	1	0.15	1.0079
861	HCMM	55	TMC2	H2	1	0.15	1.0079
862	C=O	55	TMC2	C7	1	0.5438	12.011
863	C=O	55	TMC2	C8	1	0.6338	12.011
864	O=C	55	TMC2	O1	1	-0.57	15.9994
865	O=C	55	TMC2	O2	1	-0.57	15.9994
866	OR	55	TMC2	O5	1	-0.65	15.9994
867	HOCO	55	TMC2	H5	1	0.5	1.0079
868	CB	56	MPD2	C	1	-0.15	12.011
869	CB	56	MPD2	C1	1	0.117	12.011
870	CB	56	MPD2	C2	1	-0.15	12.011
871	CB	56	MPD2	C3	1	0.117	12.011
872	CB	56	MPD2	C4	1	-0.15	12.011
873	CB	56	MPD2	C5	1	-0.15	12.011
874	HCMM	56	MPD2	H	1	0.15	1.0079
875	HCMM	56	MPD2	H1	1	0.15	1.0079
876	HCMM	56	MPD2	H2	1	0.15	1.0079
877	HCMM	56	MPD2	H3	1	0.15	1.0079
878	NC=O	56	MPD2	N	1	-0.547	14.0067
879	HNCO	56	MPD2	H5	1	0.37	1.0079
880	NC=O	56	MPD2	N1	1	-0.547	14.0067
881	HNCO	56	MPD2	H7	1	0.37	1.0079
882	CB	57	TMC2	C1	1	0.0862	12.011
883	CB	57	TMC2	C2	1	-0.15	12.011
884	CB	57	TMC2	C3	1	0.0862	12.011
885	CB	57	TMC2	C4	1	-0.15	12.011
886	CB	57	TMC2	C5	1	0.0862	12.011
887	CB	57	TMC2	C6	1	-0.15	12.011
888	C=O	57	TMC2	C	1	0.5438	12.011
889	O=C	57	TMC2	O	1	-0.57	15.9994
890	HCMM	57	TMC2	H	1	0.15	1.0079
891	HCMM	57	TMC2	H1	1	0.15	1.0079
892	HCMM	57	TMC2	H2	1	0.15	1.0079
893	C=O	57	TMC2	C7	1	0.5438	12.011
894	C=O	57	TMC2	C8	1	0.6338	12.011
895	O=C	57	TMC2	O1	1	-0.57	15.9994
896	O=C	57	TMC2	O2	1	-0.57	15.9994
897	OR	57	TMC2	O5	1	-0.65	15.9994
898	HOCO	57	TMC2	H5	1	0.5	1.0079
899	CB	58	MPD2	C	1	-0.15	12.011
900	CB	58	MPD2	C1	1	0.117	12.011
901	CB	58	MPD2	C2	1	-0.15	12.011
902	CB	58	MPD2	C3	1	0.117	12.011
903	CB	58	MPD2	C4	1	-0.15	12.011
904	CB	58	MPD2	C5	1	-0.15	12.011
905	HCMM	58	MPD2	H	1	0.15	1.0079
906	HCMM	58	MPD2	H1	1	0.15	1.0079
907	HCMM	58	MPD2	H2	1	0.15	1.0079
908	HCMM	58	MPD2	H3	1	0.15	1.0079
909	NC=O	58	MPD2	N	1	-0.547	14.0067
910	HNCO	58	MPD2	H5	1	0.37	1.0079
911	NC=O	58	MPD2	N1	1	-0.547	14.0067
912	HNCO	58	MPD2	H7	1	0.37	1.0079
913	CB	59	TMC2	C1	1	0.0862	12.011
914	CB	59	TMC2	C2	1	-0.15	12.011
915	CB	59	TMC2	C3	1	0.0862	12.011
916	CB	59	TMC2	C4	1	-0.15	12.011
917	CB	59	TMC2	C5	1	0.0862	12.011
918	CB	59	TMC2	C6	1	-0.15	12.011
919	C=O	59	TMC2	C	1	0.5438	12.011
920	O=C	59	TMC2	O	1	-0.57	15.9994
921	HCMM	59	TMC2	H	1	0.15	1.0079
922	HCMM	59	TMC2	H1	1	0.15	1.0079
923	HCMM	59	TMC2	H2	1	0.15	1.0079
924	C=O	59	TMC2	C7	1	0.5438	12.011
925	C=O	59	TMC2	C8	1	0.6338	12.011
926	O=C	59	TMC2	O1	1	-0.57	15.9994
927	O=C	59	TMC2	O2	1	-0.57	15.9994
928	OR	59	TMC2	O5	1	-0.65	15.9994
929	HOCO	59	TMC2	H5	1	0.5	1.0079
930	CB	60	MPD2	C	1	-0.15	12.011
931	CB	60	MPD2	C1	1	0.117	12.011
932	CB	60	MPD2	C2	1	-0.15	12.011
933	CB	60	MPD2	C3	1	0.117	12.011
934	CB	60	MPD2	C4	1	-0.15	12.011
935	CB	60	MPD2	C5	1	-0.15	12.011
936	HCMM	60	MPD2	H	1	0.15	1.0079
937	HCMM	60	MPD2	H1	1	0.15	1.0079
938	HCMM	60	MPD2	H2	1	0.15	1.0079
939	HCMM	60	MPD2	H3	1	0.15	1.0079
940	NC=O	60	MPD2	N	1	-0.547	14.0067
941	HNCO	60	MPD2	H5	1	0.37	1.0079
942	NC=O	60	MPD2	N1	1	-0.547	14.0067
943	HNCO	60	MPD2	H7	1	0.37	1.0079
944	CB	61	TMC2	C1	1	0.0862	12.011
945	CB	61	TMC2	C2	1	-0.15	12.011
946	CB	61	TMC2	C3	1	0.0862	12.011
947	CB	61	TMC2	C4	1	-0.15	12.011
948	CB	61	TMC2	C5	1	0.0862	12.011
949	CB	61	TMC2	C6	1	-0.15	12.011
950	C=O	61	TMC2	C	1	0.5438	12.011
951	O=C	61	TMC2	O	1	-0.57	15.9994
952	HCMM	61	TMC2	H	1	0.15	1.0079
953	HCMM	61	TMC2	H1	1	0.15	1.0079
954	HCMM	61	TMC2	H2	1	0.15	1.0079
955	C=O	61	TMC2	C7	1	0.5438	12.011
956	C=O	61	TMC2	C8	1	0.6338	12.011
957	O=C	61	TMC2	O1	1	-0.57	15.9994
958	O=C	61	TMC2	O2	1	-0.57	15.9994
959	OR	61	TMC2	O5	1	-0.65	15.9994
960	HOCO	61	TMC2	H5	1	0.5	1.0079
961	CB	62	MPD2	C	1	-0.15	12.011
962	CB	62	MPD2	C1	1	0.117	12.011
963	CB	62	MPD2	C2	1	-0.15	12.011
964	CB	62	MPD2	C3	1	0.117	12.011
965	CB	62	MPD2	C4	1	-0.15	12.011
966	CB	62	MPD2	C5	1	-0.15	12.011
967	HCMM	62	MPD2	H	1	0.15	1.0079
968	HCMM	62	MPD2	H1	1	0.15	1.0079
969	HCMM	62	MPD2	H2	1	0.15	1.0079
970	HCMM	62	MPD2	H3	1	0.15	1.0079
971	NC=O	62	MPD2	N	1	-0.547	14.0067
972	HNCO	62	MPD2	H5	1	0.37	1.0079
973	NC=O	62	MPD2	N1	1	-0.547	14.0067
974	HNCO	62	MPD2	H7	1	0.37	1.0079
975	CB	63	TMC2	C1	1	0.0862	12.011
976	CB	63	TMC2	C2	1	-0.15	12.011
977	CB	63	TMC2	C3	1	0.0862	12.011
978	CB	63	TMC2	C4	1	-0.15	12.011
979	CB	63	TMC2	C5	1	0.0862	12.011
980	CB	63	TMC2	C6	1	-0.15	12.011
981	C=O	63	TMC2	C	1	0.5438	12.011
982	O=C	63	TMC2	O	1	-0.57	15.9994
983	HCMM	63	TMC2	H	1	0.15	1.0079
984	HCMM	63	TMC2	H1	1	0.15	1.0079
985	HCMM	63	TMC2	H2	1	0.15	1.0079
986	C=O	63	TMC2	C7	1	0.5438	12.011
987	C=O	63	TMC2	C8	1	0.6338	12.011
988	O=C	63	TMC2	O1	1	-0.57	15.9994
989	O=C	63	TMC2	O2	1	-0.57	15.9994
990	OR	63	TMC2	O5	1	-0.65	15.9994
991	HOCO	63	TMC2	H5	1	0.5	1.0079
992	CB	64	MPD2	C	1	-0.15	12.011
993	CB	64	MPD2	C1	1	0.117	12.011
994	CB	64	MPD2	C2	1	-0.15	12.011
995	CB	64	MPD2	C3	1	0.117	12.011
996	CB	64	MPD2	C4	1	-0.15	12.011
997	CB	64	MPD2	C5	1	-0.15	12.011
998	HCMM	64	MPD2	H	1	0.15	1.0079
999	HCMM	64	MPD2	H1	1	0.15	1.0079
1000	HCMM	64	MPD2	H2	1	0.15	1.0079
1001	HCMM	64	MPD2	H3	1	0.15	1.0079
1002	NC=O	64	MPD2	N	1	-0.547	14.0067
1003	HNCO	64	MPD2	H5	1	0.37	1.0079
1004	NC=O	64	MPD2	N1	1	-0.547	14.0067
1005	HNCO	64	MPD2	H7	1	0.37	1.0079
1006	CB	65	TMC2	C1	1	0.0862	12.011
1007	CB	65	TMC2	C2	1	-0.15	12.011
1008	CB	65	TMC2	C3	1	0.0862	12.011
1009	CB	65	TMC2	C4	1	-0.15	12.011
1010	CB	65	TMC2	C5	1	0.0862	12.011
1011	CB	65	TMC2	C6	1	-0.15	12.011
1012	C=O	65	TMC2	C	1	0.5438	12.011
1013	O=C	65	TMC2	O	1	-0.57	15.9994
1014	HCMM	65	TMC2	H	1	0.15	1.0079
1015	HCMM	65	TMC2	H1	1	0.15	1.0079
1016	HCMM	65	TMC2	H2	1	0.15	1.0079
1017	C=O	65	TMC2	C7	1	0.5438	12.011
1018	C=O	65	TMC2	C8	1	0.6338	12.011
1019	O=C	65	TMC2	O1	1	-0.57	15.9994
1020	O=C	65	TMC2	O2	1	-0.57	15.9994
1021	OR	65	TMC2	O5	1	-0.65	15.9994
1022	HOCO	65	TMC2	H5	1	0.5	1.0079
1023	CB	66	MPD2	C	1	-0.15	12.011
1024	CB	66	MPD2	C1	1	0.117	12.011
1025	CB	66	MPD2	C2	1	-0.15	12.011
1026	CB	66	MPD2	C3	1	0.117	12.011
1027	CB	66	MPD2	C4	1	-0.15	12.011
1028	CB	66	MPD2	C5	1	-0.15	12.011
1029	HCMM	66	MPD2	H	1	0.15	1.0079
1030	HCMM	66	MPD2	H1	1	0.15	1.0079
1031	HCMM	66	MPD2	H2	1	0.15	1.0079
1032	HCMM	66	MPD2	H3	1	0.15	1.0079
1033	NC=O	66	MPD2	N	1	-0.547	14.0067
1034	HNCO	66	MPD2	H5	1	0.37	1.0079
1035	NC=O	66	MPD2	N1	1	-0.547	14.0067
1036	HNCO	66	MPD2	H7	1	0.37	1.0079
1037	CB	67	TMC2	C1	1	0.0862	12.011
1038	CB	67	TMC2	C2	1	-0.15	12.011
1039	CB	67	TMC2	C3	1	0.0862	12.011
1040	CB	67	TMC2	C4	1	-0.15	12.011
1041	CB	67	TMC2	C5	1	0.0862	12.011
1042	CB	67	TMC2	C6	1	-0.15	12.011
1043	C=O	67	TMC2	C	1	0.5438	12.011
1044	O=C	67	TMC2	O	1	-0.57	15.9994
1045	HCMM	67	TMC2	H	1	0.15	1.0079
1046	HCMM	67	TMC2	H1	1	0.15	1.0079
1047	HCMM	67	TMC2	H2	1	0.15	1.0079
1048	C=O	67	TMC2	C7	1	0.5438	12.011
1049	C=O	67	TMC2	C8	1	0.6338	12.011
1050	O=C	67	TMC2	O1	1	-0.57	15.9994
1051	O=C	67	TMC2	O2	1	-0.57	15.9994
1052	OR	67	TMC2	O5	1	-0.65	15.9994
1053	HOCO	67	TMC2	H5	1	0.5	1.0079
1054	CB	68	MPD2	C	1	-0.15	12.011
1055	CB	68	MPD2	C1	1	0.117	12.011
1056	CB	68	MPD2	C2	1	-0.15	12.011
1057	CB	68	MPD2	C3	1	0.117	12.011
1058	CB	68	MPD2	C4	1	-0.15	12.011
1059	CB	68	MPD2	C5	1	-0.15	12.011
1060	HCMM	68	MPD2	H	1	0.15	1.0079
1061	HCMM	68	MPD2	H1	1	0.15	1.0079
1062	HCMM	68	MPD2	H2	1	0.15	1.0079
1063	HCMM	68	MPD2	H3	1	0.15	1.0079
1064	NC=O	68	MPD2	N	1	-0.547	14.0067
1065	HNCO	68	MPD2	H5	1	0.37	1.0079
1066	NC=O	68	MPD2	N1	1	-0.547	14.0067
1067	HNCO	68	MPD2	H7	1	0.37	1.0079
1068	CB	69	TMC2	C1	1	0.0862	12.011
1069	CB	69	TMC2	C2	1	-0.15	12.011
1070	CB	69	TMC2	C3	1	0.0862	12.011
1071	CB	69	TMC2	C4	1	-0.15	12.011
1072	CB	69	TMC2	C5	1	0.0862	12.011
1073	CB	69	TMC2	C6	1	-0.15	12.011
1074	C=O	69	TMC2	C	1	0.5438	12.011
1075	O=C	69	TMC2	O	1	-0.57	15.9994
1076	HCMM	69	TMC2	H	1	0.15	1.0079
1077	HCMM	69	TMC2	H1	1	0.15	1.0079
1078	HCMM	69	TMC2	H2	1	0.15	1.0079
1079	C=O	69	TMC2	C7	1	0.5438	12.011
1080	C=O	69	TMC2	C8	1	0.6338	12.011
1081	O=C	69	TMC2	O1	1	-0.57	15.9994
1082	O=C	69	TMC2	O2	1	-0.57	15.9994
1083	OR	69	TMC2	O5	1	-0.65	15.9994
1084	HOCO	69	TMC2	H5	1	0.5	1.0079
1085	CB	70	MPD2	C	1	-0.15	12.011
1086	CB	70	MPD2	C1	1	0.117	12.011
1087	CB	70	MPD2	C2	1	-0.15	12.011
1088	CB	70	MPD2	C3	1	0.117	12.011
1089	CB	70	MPD2	C4	1	-0.15	12.011
1090	CB	70	MPD2	C5	1	-0.15	12.011
1091	HCMM	70	MPD2	H	1	0.15	1.0079
1092	HCMM	70	MPD2	H1	1	0.15	1.0079
1093	HCMM	70	MPD2	H2	1	0.15	1.0079
1094	HCMM	70	MPD2	H3	1	0.15	1.0079
1095	NC=O	70	MPD2	N	1	-0.547	14.0067
1096	HNCO	70	MPD2	H5	1	0.37	1.0079
1097	NC=O	70	MPD2	N1	1	-0.547	14.0067
1098	HNCO	70	MPD2	H7	1	0.37	1.0079
1099	CB	71	TMC2	C1	1	0.0862	12.011
1100	CB	71	TMC2	C2	1	-0.15	12.011
1101	CB	71	TMC2	C3	1	0.0862	12.011
1102	CB	71	TMC2	C4	1	-0.15	12.011
1103	CB	71	TMC2	C5	1	0.0862	12.011
1104	CB	71	TMC2	C6	1	-0.15	12.011
1105	C=O	71	TMC2	C	1	0.5438	12.011
1106	O=C	71	TMC2	O	1	-0.57	15.9994
1107	HCMM	71	TMC2	H	1	0.15	1.0079
1108	HCMM	71	TMC2	H1	1	0.15	1.0079
1109	HCMM	71	TMC2	H2	1	0.15	1.0079
1110	C=O	71	TMC2	C7	1	0.5438	12.011
1111	C=O	71	TMC2	C8	1	0.6338	12.011
1112	O=C	71	TMC2	O1	1	-0.57	15.9994
1113	O=C	71	TMC2	O2	1	-0.57	15.9994
1114	OR	71	TMC2	O5	1	-0.65	15.9994
1115	HOCO	71	TMC2	H5	1	0.5	1.0079
1116	CB	72	MPD2	C	1	-0.15	12.011
1117	CB	72	MPD2	C1	1	0.117	12.011
1118	CB	72	MPD2	C2	1	-0.15	12.011
1119	CB	72	MPD2	C3	1	0.117	12.011
1120	CB	72	MPD2	C4	1	-0.15	12.011
1121	CB	72	MPD2	C5	1	-0.15	12.011
1122	HCMM	72	MPD2	H	1	0.15	1.0079
1123	HCMM	72	MPD2	H1	1	0.15	1.0079
1124	HCMM	72	MPD2	H2	1	0.15	1.0079
1125	HCMM	72	MPD2	H3	1	0.15	1.0079
1126	NC=O	72	MPD2	N	1	-0.547	14.0067
1127	HNCO	72	MPD2	H5	1	0.37	1.0079
1128	NC=O	72	MPD2	N1	1	-0.547	14.0067
1129	HNCO	72	MPD2	H7	1	0.37	1.0079
1130	CB	73	TMC2	C1	1	0.0862	12.011
1131	CB	73	TMC2	C2	1	-0.15	12.011
1132	CB	73	TMC2	C3	1	0.0862	12.011
1133	CB	73	TMC2	C4	1	-0.15	12.011
1134	CB	73	TMC2	C5	1	0.0862	12.011
1135	CB	73	TMC2	C6	1	-0.15	12.011
1136	C=O	73	TMC2	C	1	0.5438	12.011
1137	O=C	73	TMC2	O	1	-0.57	15.9994
1138	HCMM	73	TMC2	H	1	0.15	1.0079
1139	HCMM	73	TMC2	H1	1	0.15	1.0079
1140	HCMM	73	TMC2	H2	1	0.15	1.0079
1141	C=O	73	TMC2	C7	1	0.5438	12.011
1142	C=O	73	TMC2	C8	1	0.6338	12.011
1143	O=C	73	TMC2	O1	1	-0.57	15.9994
1144	O=C	73	TMC2	O2	1	-0.57	15.9994
1145	OR	73	TMC2	O5	1	-0.65	15.9994
1146	HOCO	73	TMC2	H5	1	0.5	1.0079
1147	CB	74	MPD2	C	1	-0.15	12.011
1148	CB	74	MPD2	C1	1	0.117	12.011
1149	CB	74	MPD2	C2	1	-0.15	12.011
1150	CB	74	MPD2	C3	1	0.117	12.011
1151	CB	74	MPD2	C4	1	-0.15	12.011
1152	CB	74	MPD2	C5	1	-0.15	12.011
1153	HCMM	74	MPD2	H	1	0.15	1.0079
1154	HCMM	74	MPD2	H1	1	0.15	1.0079
1155	HCMM	74	MPD2	H2	1	0.15	1.0079
1156	HCMM	74	MPD2	H3	1	0.15	1.0079
1157	NC=O	74	MPD2	N	1	-0.547	14.0067
1158	HNCO	74	MPD2	H5	1	0.37	1.0079
1159	NC=O	74	MPD2	N1	1	-0.547	14.0067
1160	HNCO	74	MPD2	H7	1	0.37	1.0079
1161	CB	75	TMC2	C1	1	0.0862	12.011
1162	CB	75	TMC2	C2	1	-0.15	12.011
1163	CB	75	TMC2	C3	1	0.0862	12.011
1164	CB	75	TMC2	C4	1	-0.15	12.011
1165	CB	75	TMC2	C5	1	0.0862	12.011
1166	CB	75	TMC2	C6	1	-0.15	12.011
1167	C=O	75	TMC2	C	1	0.5438	12.011
1168	O=C	75	TMC2	O	1	-0.57	15.9994
1169	HCMM	75	TMC2	H	1	0.15	1.0079
1170	HCMM	75	TMC2	H1	1	0.15	1.0079
1171	HCMM	75	TMC2	H2	1	0.15	1.0079
1172	C=O	75	TMC2	C7	1	0.5438	12.011
1173	C=O	75	TMC2	C8	1	0.6338	12.011
1174	O=C	75	TMC2	O1	1	-0.57	15.9994
1175	O=C	75	TMC2	O2	1	-0.57	15.9994
1176	OR	75	TMC2	O5	1	-0.65	15.9994
1177	HOCO	75	TMC2	H5	1	0.5	1.0079
1178	CB	76	TMC2	C1	1	0.0862	12.011
1179	CB	76	TMC2	C2	1	-0.15	12.011
1180	CB	76	TMC2	C3	1	0.0862	12.011
1181	CB	76	TMC2	C4	1	-0.15	12.011
1182	CB	76	TMC2	C5	1	0.0862	12.011
1183	CB	76	TMC2	C6	1	-0.15	12.011
1184	C=O	76	TMC2	C	1	0.5438	12.011
1185	O=C	76	TMC2	O	1	-0.57	15.9994
1186	HCMM	76	TMC2	H	1	0.15	1.0079
1187	HCMM	76	TMC2	H1	1	0.15	1.0079
1188	HCMM	76	TMC2	H2	1	0.15	1.0079
1189	C=O	76	TMC2	C7	1	0.5438	12.011
1190	C=O	76	TMC2	C8	1	0.6338	12.011
1191	O=C	76	TMC2	O1	1	-0.57	15.9994
1192	O=C	76	TMC2	O2	1	-0.57	15.9994
1193	OR	76	TMC2	O5	1	-0.65	15.9994
1194	HOCO	76	TMC2	H5	1	0.5	1.0079
1195	CB	77	MPD2	C	1	-0.15	12.011
1196	CB	77	MPD2	C1	1	0.117	12.011
1197	CB	77	MPD2	C2	1	-0.15	12.011
1198	CB	77	MPD2	C3	1	0.117	12.011
1199	CB	77	MPD2	C4	1	-0.15	12.011
1200	CB	77	MPD2	C5	1	-0.15	12.011
1201	HCMM	77	MPD2	H	1	0.15	1.0079
1202	HCMM	77	MPD2	H1	1	0.15	1.0079
1203	HCMM	77	MPD2	H2	1	0.15	1.0079
1204	HCMM	77	MPD2	H3	1	0.15	1.0079
1205	NC=O	77	MPD2	N	1	-0.547	14.0067
1206	HNCO	77	MPD2	H5	1	0.37	1.0079
1207	NC=O	77	MPD2	N1	1	-0.547	14.0067
1208	HNCO	77	MPD2	H7	1	0.37	1.0079
1209	CB	78	TMC2	C1	1	0.0862	12.011
1210	CB	78	TMC2	C2	1	-0.15	12.011
1211	CB	78	TMC2	C3	1	0.0862	12.011
1212	CB	78	TMC2	C4	1	-0.15	12.011
1213	CB	78	TMC2	C5	1	0.0862	12.011
1214	CB	78	TMC2	C6	1	-0.15	12.011
1215	C=O	78	TMC2	C	1	0.5438	12.011
1216	O=C	78	TMC2	O	1	-0.57	15.9994
1217	HCMM	78	TMC2	H	1	0.15	1.0079
1218	HCMM	78	TMC2	H1	1	0.15	1.0079
1219	HCMM	78	TMC2	H2	1	0.15	1.0079
1220	C=O	78	TMC2	C7	1	0.5438	12.011
1221	C=O	78	TMC2	C8	1	0.6338	12.011
1222	O=C	78	TMC2	O1	1	-0.57	15.9994
1223	O=C	78	TMC2	O2	1	-0.57	15.9994
1224	OR	78	TMC2	O5	1	-0.65	15.9994
1225	HOCO	78	TMC2	H5	1	0.5	1.0079
1226	CB	79	MPD1	C	1	-0.15	12.011
1227	CB	79	MPD1	C1	1	0.1	12.011
1228	CB	79	MPD1	C2	1	-0.15	12.011
1229	CB	79	MPD1	C3	1	0.117	12.011
1230	CB	79	MPD1	C4	1	-0.15	12.011
1231	CB	79	MPD1	C5	1	-0.15	12.011
1232	HCMM	79	MPD1	H	1	0.15	1.0079
1233	HCMM	79	MPD1	H1	1	0.15	1.0079
1234	HCMM	79	MPD1	H2	1	0.15	1.0079
1235	HCMM	79	MPD1	H3	1	0.15	1.0079
1236	NC=O	79	MPD1	N	1	-0.547	14.0067
1237	HNCO	79	MPD1	H5	1	0.37	1.0079
1238	NC=C	79	MPD1	N1	1	-0.9	14.0067
1239	HNCO	79	MPD1	H6	1	0.4	1.0079
1240	HNCO	79	MPD1	H7	1	0.4	1.0079
1241	CB	80	TMC2	C1	1	0.0862	12.011
1242	CB	80	TMC2	C2	1	-0.15	12.011
1243	CB	80	TMC2	C3	1	0.0862	12.011
1244	CB	80	TMC2	C4	1	-0.15	12.011
1245	CB	80	TMC2	C5	1	0.0862	12.011
1246	CB	80	TMC2	C6	1	-0.15	12.011
1247	C=O	80	TMC2	C	1	0.5438	12.011
1248	O=C	80	TMC2	O	1	-0.57	15.9994
1249	HCMM	80	TMC2	H	1	0.15	1.0079
1250	HCMM	80	TMC2	H1	1	0.15	1.0079
1251	HCMM	80	TMC2	H2	1	0.15	1.0079
1252	C=O	80	TMC2	C7	1	0.5438	12.011
1253	C=O	80	TMC2	C8	1	0.6338	12.011
1254	O=C	80	TMC2	O1	1	-0.57	15.9994
1255	O=C	80	TMC2	O2	1	-0.57	15.9994
1256	OR	80	TMC2	O5	1	-0.65	15.9994
1257	HOCO	80	TMC2	H5	1	0.5	1.0079
1258	CB	81	MPD2	C	1	-0.15	12.011
1259	CB	81	MPD2	C1	1	0.117	12.011
1260	CB	81	MPD2	C2	1	-0.15	12.011
1261	CB	81	MPD2	C3	1	0.117	12.011
1262	CB	81	MPD2	C4	1	-0.15	12.011
1263	CB	81	MPD2	C5	1	-0.15	12.011
1264	HCMM	81	MPD2	H	1	0.15	1.0079
1265	HCMM	81	MPD2	H1	1	0.15	1.0079
1266	HCMM	81	MPD2	H2	1	0.15	1.0079
1267	HCMM	81	MPD2	H3	1	0.15	1.0079
1268	NC=O	81	MPD2	N	1	-0.547	14.0067
1269	HNCO	81	MPD2	H5	1	0.37	1.0079
1270	NC=O	81	MPD2	N1	1	-0.547	14.0067
1271	HNCO	81	MPD2	H7	1	0.37	1.0079
1272	CB	82	TMC2	C1	1	0.0862	12.011
1273	CB	82	TMC2	C2	1	-0.15	12.011
1274	CB	82	TMC2	C3	1	0.0862	12.011
1275	CB	82	TMC2	C4	1	-0.15	12.011
1276	CB	82	TMC2	C5	1	0.0862	12.011
1277	CB	82	TMC2	C6	1	-0.15	12.011
1278	C=O	82	TMC2	C	1	0.5438	12.011
1279	O=C	82	TMC2	O	1	-0.57	15.9994
1280	HCMM	82	TMC2	H	1	0.15	1.0079
1281	HCMM	82	TMC2	H1	1	0.15	1.0079
1282	HCMM	82	TMC2	H2	1	0.15	1.0079
1283	C=O	82	TMC2	C7	1	0.5438	12.011
1284	C=O	82	TMC2	C8	1	0.6338	12.011
1285	O=C	82	TMC2	O1	1	-0.57	15.9994
1286	O=C	82	TMC2	O2	1	-0.57	15.9994
1287	OR	82	TMC2	O5	1	-0.65	15.9994
1288	HOCO	82	TMC2	H5	1	0.5	1.0079
1289	CB	83	MPD2	C	1	-0.15	12.011
1290	CB	83	MPD2	C1	1	0.117	12.011
1291	CB	83	MPD2	C2	1	-0.15	12.011
1292	CB	83	MPD2	C3	1	0.117	12.011
1293	CB	83	MPD2	C4	1	-0.15	12.011
1294	CB	83	MPD2	C5	1	-0.15	12.011
1295	HCMM	83	MPD2	H	1	0.15	1.0079
1296	HCMM	83	MPD2	H1	1	0.15	1.0079
1297	HCMM	83	MPD2	H2	1	0.15	1.0079
1298	HCMM	83	MPD2	H3	1	0.15	1.0079
1299	NC=O	83	MPD2	N	1	-0.547	14.0067
1300	HNCO	83	MPD2	H5	1	0.37	1.0079
1301	NC=O	83	MPD2	N1	1	-0.547	14.0067
1302	HNCO	83	MPD2	H7	1	0.37	1.0079
1303	CB	84	TMC2	C1	1	0.0862	12.011
1304	CB	84	TMC2	C2	1	-0.15	12.011
1305	CB	84	TMC2	C3	1	0.0862	12.011
1306	CB	84	TMC2	C4	1	-0.15	12.011
1307	CB	84	TMC2	C5	1	0.0862	12.011
1308	CB	84	TMC2	C6	1	-0.15	12.011
1309	C=O	84	TMC2	C	1	0.5438	12.011
1310	O=C	84	TMC2	O	1	-0.57	15.9994
1311	HCMM	84	TMC2	H	1	0.15	1.0079
1312	HCMM	84	TMC2	H1	1	0.15	1.0079
1313	HCMM	84	TMC2	H2	1	0.15	1.0079
1314	C=O	84	TMC2	C7	1	0.5438	12.011
1315	C=O	84	TMC2	C8	1	0.6338	12.011
1316	O=C	84	TMC2	O1	1	-0.57	15.9994
1317	O=C	84	TMC2	O2	1	-0.57	15.9994
1318	OR	84	TMC2	O5	1	-0.65	15.9994
1319	HOCO	84	TMC2	H5	1	0.5	1.0079
1320	CB	85	TMC2	C1	1	0.0862	12.011
1321	CB	85	TMC2	C2	1	-0.15	12.011
1322	CB	85	TMC2	C3	1	0.0862	12.011
1323	CB	85	TMC2	C4	1	-0.15	12.011
1324	CB	85	TMC2	C5	1	0.0862	12.011
1325	CB	85	TMC2	C6	1	-0.15	12.011
1326	C=O	85	TMC2	C	1	0.5438	12.011
1327	O=C	85	TMC2	O	1	-0.57	15.9994
1328	HCMM	85	TMC2	H	1	0.15	1.0079
1329	HCMM	85	TMC2	H1	1	0.15	1.0079
1330	HCMM	85	TMC2	H2	1	0.15	1.0079
1331	C=O	85	TMC2	C7	1	0.5438	12.011
1332	C=O	85	TMC2	C8	1	0.6338	12.011
1333	O=C	85	TMC2	O1	1	-0.57	15.9994
1334	O=C	85	TMC2	O2	1	-0.57	15.9994
1335	OR	85	TMC2	O5	1	-0.65	15.9994
1336	HOCO	85	TMC2	H5	1	0.5	1.0079
1337	CB	86	MPD2	C	1	-0.15	12.011
1338	CB	86	MPD2	C1	1	0.117	12.011
1339	CB	86	MPD2	C2	1	-0.15	12.011
1340	CB	86	MPD2	C3	1	0.117	12.011
1341	CB	86	MPD2	C4	1	-0.15	12.011
1342	CB	86	MPD2	C5	1	-0.15	12.011
1343	HCMM	86	MPD2	H	1	0.15	1.0079
1344	HCMM	86	MPD2	H1	1	0.15	1.0079
1345	HCMM	86	MPD2	H2	1	0.15	1.0079
1346	HCMM	86	MPD2	H3	1	0.15	1.0079
1347	NC=O	86	MPD2	N	1	-0.547	14.0067
1348	HNCO	86	MPD2	H5	1	0.37	1.0079
1349	NC=O	86	MPD2	N1	1	-0.547	14.0067
1350	HNCO	86	MPD2	H7	1	0.37	1.0079
1351	CB	87	TMC2	C1	1	0.0862	12.011
1352	CB	87	TMC2	C2	1	-0.15	12.011
1353	CB	87	TMC2	C3	1	0.0862	12.011
1354	CB	87	TMC2	C4	1	-0.15	12.011
1355	CB	87	TMC2	C5	1	0.0862	12.011
1356	CB	87	TMC2	C6	1	-0.15	12.011
1357	C=O	87	TMC2	C	1	0.5438	12.011
1358	O=C	87	TMC2	O	1	-0.57	15.9994
1359	HCMM	87	TMC2	H	1	0.15	1.0079
1360	HCMM	87	TMC2	H1	1	0.15	1.0079
1361	HCMM	87	TMC2	H2	1	0.15	1.0079
1362	C=O	87	TMC2	C7	1	0.5438	12.011
1363	C=O	87	TMC2	C8	1	0.6338	12.011
1364	O=C	87	TMC2	O1	1	-0.57	15.9994
1365	O=C	87	TMC2	O2	1	-0.57	15.9994
1366	OR	87	TMC2	O5	1	-0.65	15.9994
1367	HOCO	87	TMC2	H5	1	0.5	1.0079
1368	CB	88	MPD2	C	1	-0.15	12.011
1369	CB	88	MPD2	C1	1	0.117	12.011
1370	CB	88	MPD2	C2	1	-0.15	12.011
1371	CB	88	MPD2	C3	1	0.117	12.011
1372	CB	88	MPD2	C4	1	-0.15	12.011
1373	CB	88	MPD2	C5	1	-0.15	12.011
1374	HCMM	88	MPD2	H	1	0.15	1.0079
1375	HCMM	88	MPD2	H1	1	0.15	1.0079
1376	HCMM	88	MPD2	H2	1	0.15	1.0079
1377	HCMM	88	MPD2	H3	1	0.15	1.0079
1378	NC=O	88	MPD2	N	1	-0.547	14.0067
1379	HNCO	88	MPD2	H5	1	0.37	1.0079
1380	NC=O	88	MPD2	N1	1	-0.547	14.0067
1381	HNCO	88	MPD2	H7	1	0.37	1.0079
1382	CB	89	TMC2	C1	1	0.0862	12.011
1383	CB	89	TMC2	C2	1	-0.15	12.011
1384	CB	89	TMC2	C3	1	0.0862	12.011
1385	CB	89	TMC2	C4	1	-0.15	12.011
1386	CB	89	TMC2	C5	1	0.0862	12.011
1387	CB	89	TMC2	C6	1	-0.15	12.011
1388	C=O	89	TMC2	C	1	0.5438	12.011
1389	O=C	89	TMC2	O	1	-0.57	15.9994
1390	HCMM	89	TMC2	H	1	0.15	1.0079
1391	HCMM	89	TMC2	H1	1	0.15	1.0079
1392	HCMM	89	TMC2	H2	1	0.15	1.0079
1393	C=O	89	TMC2	C7	1	0.5438	12.011
1394	C=O	89	TMC2	C8	1	0.6338	12.011
1395	O=C	89	TMC2	O1	1	-0.57	15.9994
1396	O=C	89	TMC2	O2	1	-0.57	15.9994
1397	OR	89	TMC2	O5	1	-0.65	15.9994
1398	HOCO	89	TMC2	H5	1	0.5	1.0079
1399	CB	90	MPD2	C	1	-0.15	12.011
1400	CB	90	MPD2	C1	1	0.117	12.011
1401	CB	90	MPD2	C2	1	-0.15	12.011
1402	CB	90	MPD2	C3	1	0.117	12.011
1403	CB	90	MPD2	C4	1	-0.15	12.011
1404	CB	90	MPD2	C5	1	-0.15	12.011
1405	HCMM	90	MPD2	H	1	0.15	1.0079
1406	HCMM	90	MPD2	H1	1	0.15	1.0079
1407	HCMM	90	MPD2	H2	1	0.15	1.0079
1408	HCMM	90	MPD2	H3	1	0.15	1.0079
1409	NC=O	90	MPD2	N	1	-0.547	14.0067
1410	HNCO	90	MPD2	H5	1	0.37	1.0079
1411	NC=O	90	MPD2	N1	1	-0.547	14.0067
1412	HNCO	90	MPD2	H7	1	0.37	1.0079
1413	CB	91	TMC2	C1	1	0.0862	12.011
1414	CB	91	TMC2	C2	1	-0.15	12.011
1415	CB	91	TMC2	C3	1	0.0862	12.011
1416	CB	91	TMC2	C4	1	-0.15	12.011
1417	CB	91	TMC2	C5	1	0.0862	12.011
1418	CB	91	TMC2	C6	1	-0.15	12.011
1419	C=O	91	TMC2	C	1	0.5438	12.011
1420	O=C	91	TMC2	O	1	-0.57	15.9994
1421	HCMM	91	TMC2	H	1	0.15	1.0079
1422	HCMM	91	TMC2	H1	1	0.15	1.0079
1423	HCMM	91	TMC2	H2	1	0.15	1.0079
1424	C=O	91	TMC2	C7	1	0.5438	12.011
1425	C=O	91	TMC2	C8	1	0.6338	12.011
1426	O=C	91	TMC2	O1	1	-0.57	15.9994
1427	O=C	91	TMC2	O2	1	-0.57	15.9994
1428	OR	91	TMC2	O5	1	-0.65	15.9994
1429	HOCO	91	TMC2	H5	1	0.5	1.0079
1430	CB	92	MPD2	C	1	-0.15	12.011
1431	CB	92	MPD2	C1	1	0.117	12.011
1432	CB	92	MPD2	C2	1	-0.15	12.011
1433	CB	92	MPD2	C3	1	0.117	12.011
1434	CB	92	MPD2	C4	1	-0.15	12.011
1435	CB	92	MPD2	C5	1	-0.15	12.011
1436	HCMM	92	MPD2	H	1	0.15	1.0079
1437	HCMM	92	MPD2	H1	1	0.15	1.0079
1438	HCMM	92	MPD2	H2	1	0.15	1.0079
1439	HCMM	92	MPD2	H3	1	0.15	1.0079
1440	NC=O	92	MPD2	N	1	-0.547	14.0067
1441	HNCO	92	MPD2	H5	1	0.37	1.0079
1442	NC=O	92	MPD2	N1	1	-0.547	14.0067
1443	HNCO	92	MPD2	H7	1	0.37	1.0079
1444	CB	93	TMC2	C1	1	0.0862	12.011
1445	CB	93	TMC2	C2	1	-0.15	12.011
1446	CB	93	TMC2	C3	1	0.0862	12.011
1447	CB	93	TMC2	C4	1	-0.15	12.011
1448	CB	93	TMC2	C5	1	0.0862	12.011
1449	CB	93	TMC2	C6	1	-0.15	12.011
1450	C=O	93	TMC2	C	1	0.5438	12.011
1451	O=C	93	TMC2	O	1	-0.57	15.9994
1452	HCMM	93	TMC2	H	1	0.15	1.0079
1453	HCMM	93	TMC2	H1	1	0.15	1.0079
1454	HCMM	93	TMC2	H2	1	0.15	1.0079
1455	C=O	93	TMC2	C7	1	0.5438	12.011
1456	C=O	93	TMC2	C8	1	0.6338	12.011
1457	O=C	93	TMC2	O1	1	-0.57	15.9994
1458	O=C	93	TMC2	O2	1	-0.57	15.9994
1459	OR	93	TMC2	O5	1	-0.65	15.9994
1460	HOCO	93	TMC2	H5	1	0.5	1.0079
1461	CB	94	MPD2	C	1	-0.15	12.011
1462	CB	94	MPD2	C1	1	0.117	12.011
1463	CB	94	MPD2	C2	1	-0.15	12.011
1464	CB	94	MPD2	C3	1	0.117	12.011
1465	CB	94	MPD2	C4	1	-0.15	12.011
1466	CB	94	MPD2	C5	1	-0.15	12.011
1467	HCMM	94	MPD2	H	1	0.15	1.0079
1468	HCMM	94	MPD2	H1	1	0.15	1.0079
1469	HCMM	94	MPD2	H2	1	0.15	1.0079
1470	HCMM	94	MPD2	H3	1	0.15	1.0079
1471	NC=O	94	MPD2	N	1	-0.547	14.0067
1472	HNCO	94	MPD2	H5	1	0.37	1.0079
1473	NC=O	94	MPD2	N1	1	-0.547	14.0067
1474	HNCO	94	MPD2	H7	1	0.37	1.0079
1475	CB	95	TMC2	C1	1	0.0862	12.011
1476	CB	95	TMC2	C2	1	-0.15	12.011
1477	CB	95	TMC2	C3	1	0.0862	12.011
1478	CB	95	TMC2	C4	1	-0.15	12.011
1479	CB	95	TMC2	C5	1	0.0862	12.011
1480	CB	95	TMC2	C6	1	-0.15	12.011
1481	C=O	95	TMC2	C	1	0.5438	12.011
1482	O=C	95	TMC2	O	1	-0.57	15.9994
1483	HCMM	95	TMC2	H	1	0.15	1.0079
1484	HCMM	95	TMC2	H1	1	0.15	1.0079
1485	HCMM	95	TMC2	H2	1	0.15	1.0079
1486	C=O	95	TMC2	C7	1	0.5438	12.011
1487	C=O	95	TMC2	C8	1	0.6338	12.011
1488	O=C	95	TMC2	O1	1	-0.57	15.9994
1489	O=C	95	TMC2	O2	1	-0.57	15.9994
1490	OR	95	TMC2	O5	1	-0.65	15.9994
1491	HOCO	95	TMC2	H5	1	0.5	1.0079
1492	CB	96	MPD2	C	1	-0.15	12.011
1493	CB	96	MPD2	C1	1	0.117	12.011
1494	CB	96	MPD2	C2	1	-0.15	12.011
1495	CB	96	MPD2	C3	1	0.117	12.011
1496	CB	96	MPD2	C4	1	-0.15	12.011
1497	CB	96	MPD2	C5	1	-0.15	12.011
1498	HCMM	96	MPD2	H	1	0.15	1.0079
1499	HCMM	96	MPD2	H1	1	0.15	1.0079
1500	HCMM	96	MPD2	H2	1	0.15	1.0079
1501	HCMM	96	MPD2	H3	1	0.15	1.0079
1502	NC=O	96	MPD2	N	1	-0.547	14.0067
1503	HNCO	96	MPD2	H5	1	0.37	1.0079
1504	NC=O	96	MPD2	N1	1	-0.547	14.0067
1505	HNCO	96	MPD2	H7	1	0.37	1.0079
1506	CB	97	TMC2	C1	1	0.0862	12.011
1507	CB	97	TMC2	C2	1	-0.15	12.011
1508	CB	97	TMC2	C3	1	0.0862	12.011
1509	CB	97	TMC2	C4	1	-0.15	12.011
1510	CB	97	TMC2	C5	1	0.0862	12.011
1511	CB	97	TMC2	C6	1	-0.15	12.011
1512	C=O	97	TMC2	C	1	0.5438	12.011
1513	O=C	97	TMC2	O	1	-0.57	15.9994
1514	HCMM	97	TMC2	H	1	0.15	1.0079
1515	HCMM	97	TMC2	H1	1	0.15	1.0079
1516	HCMM	97	TMC2	H2	1	0.15	1.0079
1517	C=O	97	TMC2	C7	1	0.5438	12.011
1518	C=O	97	TMC2	C8	1	0.6338	12.011
1519	O=C	97	TMC2	O1	1	-0.57	15.9994
1520	O=C	97	TMC2	O2	1	-0.57	15.9994
1521	OR	97	TMC2	O5	1	-0.65	15.9994
1522	HOCO	97	TMC2	H5	1	0.5	1.0079
1523	CB	98	MPD2	C	1	-0.15	12.011
1524	CB	98	MPD2	C1	1	0.117	12.011
1525	CB	98	MPD2	C2	1	-0.15	12.011
1526	CB	98	MPD2	C3	1	0.117	12.011
1527	CB	98	MPD2	C4	1	-0.15	12.011
1528	CB	98	MPD2	C5	1	-0.15	12.011
1529	HCMM	98	MPD2	H	1	0.15	1.0079
1530	HCMM	98	MPD2	H1	1	0.15	1.0079
1531	HCMM	98	MPD2	H2	1	0.15	1.0079
1532	HCMM	98	MPD2	H3	1	0.15	1.0079
1533	NC=O	98	MPD2	N	1	-0.547	14.0067
1534	HNCO	98	MPD2	H5	1	0.37	1.0079
1535	NC=O	98	MPD2	N1	1	-0.547	14.0067
1536	HNCO	98	MPD2	H7	1	0.37	1.0079
1537	CB	99	TMC2	C1	1	0.0862	12.011
1538	CB	99	TMC2	C2	1	-0.15	12.011
1539	CB	99	TMC2	C3	1	0.0862	12.011
1540	CB	99	TMC2	C4	1	-0.15	12.011
1541	CB	99	TMC2	C5	1	0.0862	12.011
1542	CB	99	TMC2	C6	1	-0.15	12.011
1543	C=O	99	TMC2	C	1	0.5438	12.011
1544	O=C	99	TMC2	O	1	-0.57	15.9994
1545	HCMM	99	TMC2	H	1	0.15	1.0079
1546	HCMM	99	TMC2	H1	1	0.15	1.0079
1547	HCMM	99	TMC2	H2	1	0.15	1.0079
1548	C=O	99	TMC2	C7	1	0.5438	12.011
1549	C=O	99	TMC2	C8	1	0.6338	12.011
1550	O=C	99	TMC2	O1	1	-0.57	15.9994
1551	O=C	99	TMC2	O2	1	-0.57	15.9994
1552	OR	99	TMC2	O5	1	-0.65	15.9994
1553	HOCO	99	TMC2	H5	1	0.5	1.0079
1554	CB	100	MPD2	C	1	-0.15	12.011
1555	CB	100	MPD2	C1	1	0.117	12.011
1556	CB	100	MPD2	C2	1	-0.15	12.011
1557	CB	100	MPD2	C3	1	0.117	12.011
1558	CB	100	MPD2	C4	1	-0.15	12.011
1559	CB	100	MPD2	C5	1	-0.15	12.011
1560	HCMM	100	MPD2	H	1	0.15	1.0079
1561	HCMM	100	MPD2	H1	1	0.15	1.0079
1562	HCMM	100	MPD2	H2	1	0.15	1.0079
1563	HCMM	100	MPD2	H3	1	0.15	1.0079
1564	NC=O	100	MPD2	N	1	-0.547	14.0067
1565	HNCO	100	MPD2	H5	1	0.37	1.0079
1566	NC=O	100	MPD2	N1	1	-0.547	14.0067
1567	HNCO	100	MPD2	H7	1	0.37	1.0079
1568	CB	101	TMC2	C1	1	0.0862	12.011
1569	CB	101	TMC2	C2	1	-0.15	12.011
1570	CB	101	TMC2	C3	1	0.0862	12.011
1571	CB	101	TMC2	C4	1	-0.15	12.011
1572	CB	101	TMC2	C5	1	0.0862	12.011
1573	CB	101	TMC2	C6	1	-0.15	12.011
1574	C=O	101	TMC2	C	1	0.5438	12.011
1575	O=C	101	TMC2	O	1	-0.57	15.9994
1576	HCMM	101	TMC2	H	1	0.15	1.0079
1577	HCMM	101	TMC2	H1	1	0.15	1.0079
1578	HCMM	101	TMC2	H2	1	0.15	1.0079
1579	C=O	101	TMC2	C7	1	0.5438	12.011
1580	C=O	101	TMC2	C8	1	0.6338	12.011
1581	O=C	101	TMC2	O1	1	-0.57	15.9994
1582	O=C	101	TMC2	O2	1	-0.57	15.9994
1583	OR	101	TMC2	O5	1	-0.65	15.9994
1584	HOCO	101	TMC2	H5	1	0.5	1.0079
1585	CB	102	MPD2	C	1	-0.15	12.011
1586	CB	102	MPD2	C1	1	0.117	12.011
1587	CB	102	MPD2	C2	1	-0.15	12.011
1588	CB	102	MPD2	C3	1	0.117	12.011
1589	CB	102	MPD2	C4	1	-0.15	12.011
1590	CB	102	MPD2	C5	1	-0.15	12.011
1591	HCMM	102	MPD2	H	1	0.15	1.0079
1592	HCMM	102	MPD2	H1	1	0.15	1.0079
1593	HCMM	102	MPD2	H2	1	0.15	1.0079
1594	HCMM	102	MPD2	H3	1	0.15	1.0079
1595	NC=O	102	MPD2	N	1	-0.547	14.0067
1596	HNCO	102	MPD2	H5	1	0.37	1.0079
1597	NC=O	102	MPD2	N1	1	-0.547	14.0067
1598	HNCO	102	MPD2	H7	1	0.37	1.0079
1599	CB	103	TMC2	C1	1	0.0862	12.011
1600	CB	103	TMC2	C2	1	-0.15	12.011
1601	CB	103	TMC2	C3	1	0.0862	12.011
1602	CB	103	TMC2	C4	1	-0.15	12.011
1603	CB	103	TMC2	C5	1	0.0862	12.011
1604	CB	103	TMC2	C6	1	-0.15	12.011
1605	C=O	103	TMC2	C	1	0.5438	12.011
1606	O=C	103	TMC2	O	1	-0.57	15.9994
1607	HCMM	103	TMC2	H	1	0.15	1.0079
1608	HCMM	103	TMC2	H1	1	0.15	1.0079
1609	HCMM	103	TMC2	H2	1	0.15	1.0079
1610	C=O	103	TMC2	C7	1	0.5438	12.011
1611	C=O	103	TMC2	C8	1	0.6338	12.011
1612	O=C	103	TMC2	O1	1	-0.57	15.9994
1613	O=C	103	TMC2	O2	1	-0.57	15.9994
1614	OR	103	TMC2	O5	1	-0.65	15.9994
1615	HOCO	103	TMC2	H5	1	0.5	1.0079
1616	CB	104	MPD2	C	1	-0.15	12.011
1617	CB	104	MPD2	C1	1	0.117	12.011
1618	CB	104	MPD2	C2	1	-0.15	12.011
1619	CB	104	MPD2	C3	1	0.117	12.011
1620	CB	104	MPD2	C4	1	-0.15	12.011
1621	CB	104	MPD2	C5	1	-0.15	12.011
1622	HCMM	104	MPD2	H	1	0.15	1.0079
1623	HCMM	104	MPD2	H1	1	0.15	1.0079
1624	HCMM	104	MPD2	H2	1	0.15	1.0079
1625	HCMM	104	MPD2	H3	1	0.15	1.0079
1626	NC=O	104	MPD2	N	1	-0.547	14.0067
1627	HNCO	104	MPD2	H5	1	0.37	1.0079
1628	NC=O	104	MPD2	N1	1	-0.547	14.0067
1629	HNCO	104	MPD2	H7	1	0.37	1.0079
1630	CB	105	TMC2	C1	1	0.0862	12.011
1631	CB	105	TMC2	C2	1	-0.15	12.011
1632	CB	105	TMC2	C3	1	0.0862	12.011
1633	CB	105	TMC2	C4	1	-0.15	12.011
1634	CB	105	TMC2	C5	1	0.0862	12.011
1635	CB	105	TMC2	C6	1	-0.15	12.011
1636	C=O	105	TMC2	C	1	0.5438	12.011
1637	O=C	105	TMC2	O	1	-0.57	15.9994
1638	HCMM	105	TMC2	H	1	0.15	1.0079
1639	HCMM	105	TMC2	H1	1	0.15	1.0079
1640	HCMM	105	TMC2	H2	1	0.15	1.0079
1641	C=O	105	TMC2	C7	1	0.5438	12.011
1642	C=O	105	TMC2	C8	1	0.6338	12.011
1643	O=C	105	TMC2	O1	1	-0.57	15.9994
1644	O=C	105	TMC2	O2	1	-0.57	15.9994
1645	OR	105	TMC2	O5	1	-0.65	15.9994
1646	HOCO	105	TMC2	H5	1	0.5	1.0079
1647	CB	106	MPD2	C	1	-0.15	12.011
1648	CB	106	MPD2	C1	1	0.117	12.011
1649	CB	106	MPD2	C2	1	-0.15	12.011
1650	CB	106	MPD2	C3	1	0.117	12.011
1651	CB	106	MPD2	C4	1	-0.15	12.011
1652	CB	106	MPD2	C5	1	-0.15	12.011
1653	HCMM	106	MPD2	H	1	0.15	1.0079
1654	HCMM	106	MPD2	H1	1	0.15	1.0079
1655	HCMM	106	MPD2	H2	1	0.15	1.0079
1656	HCMM	106	MPD2	H3	1	0.15	1.0079
1657	NC=O	106	MPD2	N	1	-0.547	14.0067
1658	HNCO	106	MPD2	H5	1	0.37	1.0079
1659	NC=O	106	MPD2	N1	1	-0.547	14.0067
1660	HNCO	106	MPD2	H7	1	0.37	1.0079
1661	CB	107	TMC2	C1	1	0.0862	12.011
1662	CB	107	TMC2	C2	1	-0.15	12.011
1663	CB	107	TMC2	C3	1	0.0862	12.011
1664	CB	107	TMC2	C4	1	-0.15	12.011
1665	CB	107	TMC2	C5	1	0.0862	12.011
1666	CB	107	TMC2	C6	1	-0.15	12.011
1667	C=O	107	TMC2	C	1	0.5438	12.011
1668	O=C	107	TMC2	O	1	-0.57	15.9994
1669	HCMM	107	TMC2	H	1	0.15	1.0079
1670	HCMM	107	TMC2	H1	1	0.15	1.0079
1671	HCMM	107	TMC2	H2	1	0.15	1.0079
1672	C=O	107	TMC2	C7	1	0.5438	12.011
1673	C=O	107	TMC2	C8	1	0.6338	12.011
1674	O=C	107	TMC2	O1	1	-0.57	15.9994
1675	O=C	107	TMC2	O2	1	-0.57	15.9994
1676	OR	107	TMC2	O5	1	-0.65	15.9994
1677	HOCO	107	TMC2	H5	1	0.5	1.0079
1678	CB	108	MPD2	C	1	-0.15	12.011
1679	CB	108	MPD2	C1	1	0.117	12.011
1680	CB	108	MPD2	C2	1	-0.15	12.011
1681	CB	108	MPD2	C3	1	0.117	12.011
1682	CB	108	MPD2	C4	1	-0.15	12.011
1683	CB	108	MPD2	C5	1	-0.15	12.011
1684	HCMM	108	MPD2	H	1	0.15	1.0079
1685	HCMM	108	MPD2	H1	1	0.15	1.0079
1686	HCMM	108	MPD2	H2	1	0.15	1.0079
1687	HCMM	108	MPD2	H3	1	0.15	1.0079
1688	NC=O	108	MPD2	N	1	-0.547	14.0067
1689	HNCO	108	MPD2	H5	1	0.37	1.0079
1690	NC=O	108	MPD2	N1	1	-0.547	14.0067
1691	HNCO	108	MPD2	H7	1	0.37	1.0079
1692	CB	109	TMC2	C1	1	0.0862	12.011
1693	CB	109	TMC2	C2	1	-0.15	12.011
1694	CB	109	TMC2	C3	1	0.0862	12.011
1695	CB	109	TMC2	C4	1	-0.15	12.011
1696	CB	109	TMC2	C5	1	0.0862	12.011
1697	CB	109	TMC2	C6	1	-0.15	12.011
1698	C=O	109	TMC2	C	1	0.5438	12.011
1699	O=C	109	TMC2	O	1	-0.57	15.9994
1700	HCMM	109	TMC2	H	1	0.15	1.0079
1701	HCMM	109	TMC2	H1	1	0.15	1.0079
1702	HCMM	109	TMC2	H2	1	0.15	1.0079
1703	C=O	109	TMC2	C7	1	0.5438	12.011
1704	C=O	109	TMC2	C8	1	0.6338	12.011
1705	O=C	109	TMC2	O1	1	-0.57	15.9994
1706	O=C	109	TMC2	O2	1	-0.57	15.9994
1707	OR	109	TMC2	O5	1	-0.65	15.9994
1708	HOCO	109	TMC2	H5	1	0.5	1.0079
1709	CB	110	MPD2	C	1	-0.15	12.011
1710	CB	110	MPD2	C1	1	0.117	12.011
1711	CB	110	MPD2	C2	1	-0.15	12.011
1712	CB	110	MPD2	C3	1	0.117	12.011
1713	CB	110	MPD2	C4	1	-0.15	12.011
1714	CB	110	MPD2	C5	1	-0.15	12.011
1715	HCMM	110	MPD2	H	1	0.15	1.0079
1716	HCMM	110	MPD2	H1	1	0.15	1.0079
1717	HCMM	110	MPD2	H2	1	0.15	1.0079
1718	HCMM	110	MPD2	H3	1	0.15	1.0079
1719	NC=O	110	MPD2	N	1	-0.547	14.0067
1720	HNCO	110	MPD2	H5	1	0.37	1.0079
1721	NC=O	110	MPD2	N1	1	-0.547	14.0067
1722	HNCO	110	MPD2	H7	1	0.37	1.0079
1723	CB	111	TMC2	C1	1	0.0862	12.011
1724	CB	111	TMC2	C2	1	-0.15	12.011
1725	CB	111	TMC2	C3	1	0.0862	12.011
1726	CB	111	TMC2	C4	1	-0.15	12.011
1727	CB	111	TMC2	C5	1	0.0862	12.011
1728	CB	111	TMC2	C6	1	-0.15	12.011
1729	C=O	111	TMC2	C	1	0.5438	12.011
1730	O=C	111	TMC2	O	1	-0.57	15.9994
1731	HCMM	111	TMC2	H	1	0.15	1.0079
1732	HCMM	111	TMC2	H1	1	0.15	1.0079
1733	HCMM	111	TMC2	H2	1	0.15	1.0079
1734	C=O	111	TMC2	C7	1	0.5438	12.011
1735	C=O	111	TMC2	C8	1	0.6338	12.011
1736	O=C	111	TMC2	O1	1	-0.57	15.9994
1737	O=C	111	TMC2	O2	1	-0.57	15.9994
1738	OR	111	TMC2	O5	1	-0.65	15.9994
1739	HOCO	111	TMC2	H5	1	0.5	1.0079
1740	CB	112	MPD2	C	1	-0.15	12.011
1741	CB	112	MPD2	C1	1	0.117	12.011
1742	CB	112	MPD2	C2	1	-0.15	12.011
1743	CB	112	MPD2	C3	1	0.117	12.011
1744	CB	112	MPD2	C4	1	-0.15	12.011
1745	CB	112	MPD2	C5	1	-0.15	12.011
1746	HCMM	112	MPD2	H	1	0.15	1.0079
1747	HCMM	112	MPD2	H1	1	0.15	1.0079
1748	HCMM	112	MPD2	H2	1	0.15	1.0079
1749	HCMM	112	MPD2	H3	1	0.15	1.0079
1750	NC=O	112	MPD2	N	1	-0.547	14.0067
1751	HNCO	112	MPD2	H5	1	0.37	1.0079
1752	NC=O	112	MPD2	N1	1	-0.547	14.0067
1753	HNCO	112	MPD2	H7	1	0.37	1.0079
1754	CB	113	TMC2	C1	1	0.0862	12.011
1755	CB	113	TMC2	C2	1	-0.15	12.011
1756	CB	113	TMC2	C3	1	0.0862	12.011
1757	CB	113	TMC2	C4	1	-0.15	12.011
1758	CB	113	TMC2	C5	1	0.0862	12.011
1759	CB	113	TMC2	C6	1	-0.15	12.011
1760	C=O	113	TMC2	C	1	0.5438	12.011
1761	O=C	113	TMC2	O	1	-0.57	15.9994
1762	HCMM	113	TMC2	H	1	0.15	1.0079
1763	HCMM	113	TMC2	H1	1	0.15	1.0079
1764	HCMM	113	TMC2	H2	1	0.15	1.0079
1765	C=O	113	TMC2	C7	1	0.5438	12.011
1766	C=O	113	TMC2	C8	1	0.6338	12.011
1767	O=C	113	TMC2	O1	1	-0.57	15.9994
1768	O=C	113	TMC2	O2	1	-0.57	15.9994
1769	OR	113	TMC2	O5	1	-0.65	15.9994
1770	HOCO	113	TMC2	H5	1	0.5	1.0079
1771	CB	114	MPD2	C	1	-0.15	12.011
1772	CB	114	MPD2	C1	1	0.117	12.011
1773	CB	114	MPD2	C2	1	-0.15	12.011
1774	CB	114	MPD2	C3	1	0.117	12.011
1775	CB	114	MPD2	C4	1	-0.15	12.011
1776	CB	114	MPD2	C5	1	-0.15	12.011
1777	HCMM	114	MPD2	H	1	0.15	1.0079
1778	HCMM	114	MPD2	H1	1	0.15	1.0079
1779	HCMM	114	MPD2	H2	1	0.15	1.0079
1780	HCMM	114	MPD2	H3	1	0.15	1.0079
1781	NC=O	114	MPD2	N	1	-0.547	14.0067
1782	HNCO	114	MPD2	H5	1	0.37	1.0079
1783	NC=O	114	MPD2	N1	1	-0.547	14.0067
1784	HNCO	114	MPD2	H7	1	0.37	1.0079
1785	CB	115	TMC2	C1	1	0.0862	12.011
1786	CB	115	TMC2	C2	1	-0.15	12.011
1787	CB	115	TMC2	C3	1	0.0862	12.011
1788	CB	115	TMC2	C4	1	-0.15	12.011
1789	CB	115	TMC2	C5	1	0.0862	12.011
1790	CB	115	TMC2	C6	1	-0.15	12.011
1791	C=O	115	TMC2	C	1	0.5438	12.011
1792	O=C	115	TMC2	O	1	-0.57	15.9994
1793	HCMM	115	TMC2	H	1	0.15	1.0079
1794	HCMM	115	TMC2	H1	1	0.15	1.0079
1795	HCMM	115	TMC2	H2	1	0.15	1.0079
1796	C=O	115	TMC2	C7	1	0.5438	12.011
1797	C=O	115	TMC2	C8	1	0.6338	12.011
1798	O=C	115	TMC2	O1	1	-0.57	15.9994
1799	O=C	115	TMC2	O2	1	-0.57	15.9994
1800	OR	115	TMC2	O5	1	-0.65	15.9994
1801	HOCO	115	TMC2	H5	1	0.5	1.0079
1802	CB	116	MPD2	C	1	-0.15	12.011
1803	CB	116	MPD2	C1	1	0.117	12.011
1804	CB	116	MPD2	C2	1	-0.15	12.011
1805	CB	116	MPD2	C3	1	0.117	12.011
1806	CB	116	MPD2	C4	1	-0.15	12.011
1807	CB	116	MPD2	C5	1	-0.15	12.011
1808	HCMM	116	MPD2	H	1	0.15	1.0079
1809	HCMM	116	MPD2	H1	1	0.15	1.0079
1810	HCMM	116	MPD2	H2	1	0.15	1.0079
1811	HCMM	116	MPD2	H3	1	0.15	1.0079
1812	NC=O	116	MPD2	N	1	-0.547	14.0067
1813	HNCO	116	MPD2	H5	1	0.37	1.0079
1814	NC=O	116	MPD2	N1	1	-0.547	14.0067
1815	HNCO	116	MPD2	H7	1	0.37	1.0079
1816	CB	117	TMC2	C1	1	0.0862	12.011
1817	CB	117	TMC2	C2	1	-0.15	12.011
1818	CB	117	TMC2	C3	1	0.0862	12.011
1819	CB	117	TMC2	C4	1	-0.15	12.011
1820	CB	117	TMC2	C5	1	0.0862	12.011
1821	CB	117	TMC2	C6	1	-0.15	12.011
1822	C=O	117	TMC2	C	1	0.5438	12.011
1823	O=C	117	TMC2	O	1	-0.57	15.9994
1824	HCMM	117	TMC2	H	1	0.15	1.0079
1825	HCMM	117	TMC2	H1	1	0.15	1.0079
1826	HCMM	117	TMC2	H2	1	0.15	1.0079
1827	C=O	117	TMC2	C7	1	0.5438	12.011
1828	C=O	117	TMC2	C8	1	0.6338	12.011
1829	O=C	117	TMC2	O1	1	-0.57	15.9994
1830	O=C	117	TMC2	O2	1	-0.57	15.9994
1831	OR	117	TMC2	O5	1	-0.65	15.9994
1832	HOCO	117	TMC2	H5	1	0.5	1.0079
1833	CB	118	MPD2	C	1	-0.15	12.011
1834	CB	118	MPD2	C1	1	0.117	12.011
1835	CB	118	MPD2	C2	1	-0.15	12.011
1836	CB	118	MPD2	C3	1	0.117	12.011
1837	CB	118	MPD2	C4	1	-0.15	12.011
1838	CB	118	MPD2	C5	1	-0.15	12.011
1839	HCMM	118	MPD2	H	1	0.15	1.0079
1840	HCMM	118	MPD2	H1	1	0.15	1.0079
1841	HCMM	118	MPD2	H2	1	0.15	1.0079
1842	HCMM	118	MPD2	H3	1	0.15	1.0079
1843	NC=O	118	MPD2	N	1	-0.547	14.0067
1844	HNCO	118	MPD2	H5	1	0.37	1.0079
1845	NC=O	118	MPD2	N1	1	-0.547	14.0067
1846	HNCO	118	MPD2	H7	1	0.37	1.0079
1847	CB	119	TMC2	C1	1	0.0862	12.011
1848	CB	119	TMC2	C2	1	-0.15	12.011
1849	CB	119	TMC2	C3	1	0.0862	12.011
1850	CB	119	TMC2	C4	1	-0.15	12.011
1851	CB	119	TMC2	C5	1	0.0862	12.011
1852	CB	119	TMC2	C6	1	-0.15	12.011
1853	C=O	119	TMC2	C	1	0.5438	12.011
1854	O=C	119	TMC2	O	1	-0.57	15.9994
1855	HCMM	119	TMC2	H	1	0.15	1.0079
1856	HCMM	119	TMC2	H1	1	0.15	1.0079
1857	HCMM	119	TMC2	H2	1	0.15	1.0079
1858	C=O	119	TMC2	C7	1	0.5438	12.011
1859	C=O	119	TMC2	C8	1	0.6338	12.011
1860	O=C	119	TMC2	O1	1	-0.57	15.9994
1861	O=C	119	TMC2	O2	1	-0.57	15.9994
1862	OR	119	TMC2	O5	1	-0.65	15.9994
1863	HOCO	119	TMC2	H5	1	0.5	1.0079
1864	CB	120	MPD2	C	1	-0.15	12.011
1865	CB	120	MPD2	C1	1	0.117	12.011
1866	CB	120	MPD2	C2	1	-0.15	12.011
1867	CB	120	MPD2	C3	1	0.117	12.011
1868	CB	120	MPD2	C4	1	-0.15	12.011
1869	CB	120	MPD2	C5	1	-0.15	12.011
1870	HCMM	120	MPD2	H	1	0.15	1.0079
1871	HCMM	120	MPD2	H1	1	0.15	1.0079
1872	HCMM	120	MPD2	H2	1	0.15	1.0079
1873	HCMM	120	MPD2	H3	1	0.15	1.0079
1874	NC=O	120	MPD2	N	1	-0.547	14.0067
1875	HNCO	120	MPD2	H5	1	0.37	1.0079
1876	NC=O	120	MPD2	N1	1	-0.547	14.0067
1877	HNCO	120	MPD2	H7	1	0.37	1.0079
1878	CB	121	TMC2	C1	1	0.0862	12.011
1879	CB	121	TMC2	C2	1	-0.15	12.011
1880	CB	121	TMC2	C3	1	0.0862	12.011
1881	CB	121	TMC2	C4	1	-0.15	12.011
1882	CB	121	TMC2	C5	1	0.0862	12.011
1883	CB	121	TMC2	C6	1	-0.15	12.011
1884	C=O	121	TMC2	C	1	0.5438	12.011
1885	O=C	121	TMC2	O	1	-0.57	15.9994
1886	HCMM	121	TMC2	H	1	0.15	1.0079
1887	HCMM	121	TMC2	H1	1	0.15	1.0079
1888	HCMM	121	TMC2	H2	1	0.15	1.0079
1889	C=O	121	TMC2	C7	1	0.5438	12.011
1890	C=O	121	TMC2	C8	1	0.6338	12.011
1891	O=C	121	TMC2	O1	1	-0.57	15.9994
1892	O=C	121	TMC2	O2	1	-0.57	15.9994
1893	OR	121	TMC2	O5	1	-0.65	15.9994
1894	HOCO	121	TMC2	H5	1	0.5	1.0079
1895	CB	122	MPD2	C	1	-0.15	12.011
1896	CB	122	MPD2	C1	1	0.117	12.011
1897	CB	122	MPD2	C2	1	-0.15	12.011
1898	CB	122	MPD2	C3	1	0.117	12.011
1899	CB	122	MPD2	C4	1	-0.15	12.011
1900	CB	122	MPD2	C5	1	-0.15	12.011
1901	HCMM	122	MPD2	H	1	0.15	1.0079
1902	HCMM	122	MPD2	H1	1	0.15	1.0079
1903	HCMM	122	MPD2	H2	1	0.15	1.0079
1904	HCMM	122	MPD2	H3	1	0.15	1.0079
1905	NC=O	122	MPD2	N	1	-0.547	14.0067
1906	HNCO	122	MPD2	H5	1	0.37	1.0079
1907	NC=O	122	MPD2	N1	1	-0.547	14.0067
1908	HNCO	122	MPD2	H7	1	0.37	1.0079
1909	CB	123	TMC2	C1	1	0.0862	12.011
1910	CB	123	TMC2	C2	1	-0.15	12.011
1911	CB	123	TMC2	C3	1	0.0862	12.011
1912	CB	123	TMC2	C4	1	-0.15	12.011
1913	CB	123	TMC2	C5	1	0.0862	12.011
1914	CB	123	TMC2	C6	1	-0.15	12.011
1915	C=O	123	TMC2	C	1	0.5438	12.011
1916	O=C	123	TMC2	O	1	-0.57	15.9994
1917	HCMM	123	TMC2	H	1	0.15	1.0079
1918	HCMM	123	TMC2	H1	1	0.15	1.0079
1919	HCMM	123	TMC2	H2	1	0.15	1.0079
1920	C=O	123	TMC2	C7	1	0.5438	12.011
1921	C=O	123	TMC2	C8	1	0.6338	12.011
1922	O=C	123	TMC2	O1	1	-0.57	15.9994
1923	O=C	123	TMC2	O2	1	-0.57	15.9994
1924	OR	123	TMC2	O5	1	-0.65	15.9994
1925	HOCO	123	TMC2	H5	1	0.5	1.0079
1926	CB	124	MPD2	C	1	-0.15	12.011
1927	CB	124	MPD2	C1	1	0.117	12.011
1928	CB	124	MPD2	C2	1	-0.15	12.011
1929	CB	124	MPD2	C3	1	0.117	12.011
1930	CB	124	MPD2	C4	1	-0.15	12.011
1931	CB	124	MPD2	C5	1	-0.15	12.011
1932	HCMM	124	MPD2	H	1	0.15	1.0079
1933	HCMM	124	MPD2	H1	1	0.15	1.0079
1934	HCMM	124	MPD2	H2	1	0.15	1.0079
1935	HCMM	124	MPD2	H3	1	0.15	1.0079
1936	NC=O	124	MPD2	N	1	-0.547	14.0067
1937	HNCO	124	MPD2	H5	1	0.37	1.0079
1938	NC=O	124	MPD2	N1	1	-0.547	14.0067
1939	HNCO	124	MPD2	H7	1	0.37	1.0079
1940	CB	125	TMC2	C1	1	0.0862	12.011
1941	CB	125	TMC2	C2	1	-0.15	12.011
1942	CB	125	TMC2	C3	1	0.0862	12.011
1943	CB	125	TMC2	C4	1	-0.15	12.011
1944	CB	125	TMC2	C5	1	0.0862	12.011
1945	CB	125	TMC2	C6	1	-0.15	12.011
1946	C=O	125	TMC2	C	1	0.5438	12.011
1947	O=C	125	TMC2	O	1	-0.57	15.9994
1948	HCMM	125	TMC2	H	1	0.15	1.0079
1949	HCMM	125	TMC2	H1	1	0.15	1.0079
1950	HCMM	125	TMC2	H2	1	0.15	1.0079
1951	C=O	125	TMC2	C7	1	0.5438	12.011
1952	C=O	125	TMC2	C8	1	0.6338	12.011
1953	O=C	125	TMC2	O1	1	-0.57	15.9994
1954	O=C	125	TMC2	O2	1	-0.57	15.9994
1955	OR	125	TMC2	O5	1	-0.65	15.9994
1956	HOCO	125	TMC2	H5	1	0.5	1.0079
1957	CB	126	MPD1	C	1	-0.15	12.011
1958	CB	126	MPD1	C1	1	0.1	12.011
1959	CB	126	MPD1	C2	1	-0.15	12.011
1960	CB	126	MPD1	C3	1	0.117	12.011
1961	CB	126	MPD1	C4	1	-0.15	12.011
1962	CB	126	MPD1	C5	1	-0.15	12.011
1963	HCMM	126	MPD1	H	1	0.15	1.0079
1964	HCMM	126	MPD1	H1	1	0.15	1.0079
1965	HCMM	126	MPD1	H2	1	0.15	1.0079
1966	HCMM	126	MPD1	H3	1	0.15	1.0079
1967	NC=O	126	MPD1	N	1	-0.547	14.0067
1968	HNCO	126	MPD1	H5	1	0.37	1.0079
1969	NC=C	126	MPD1	N1	1	-0.9	14.0067
1970	HNCO	126	MPD1	H6	1	0.4	1.0079
1971	HNCO	126	MPD1	H7	1	0.4	1.0079
1972	CB	127	TMC2	C1	1	0.0862	12.011
1973	CB	127	TMC2	C2	1	-0.15	12.011
1974	CB	127	TMC2	C3	1	0.0862	12.011
1975	CB	127	TMC2	C4	1	-0.15	12.011
1976	CB	127	TMC2	C5	1	0.0862	12.011
1977	CB	127	TMC2	C6	1	-0.15	12.011
1978	C=O	127	TMC2	C	1	0.5438	12.011
1979	O=C	127	TMC2	O	1	-0.57	15.9994
1980	HCMM	127	TMC2	H	1	0.15	1.0079
1981	HCMM	127	TMC2	H1	1	0.15	1.0079
1982	HCMM	127	TMC2	H2	1	0.15	1.0079
1983	C=O	127	TMC2	C7	1	0.5438	12.011
1984	C=O	127	TMC2	C8	1	0.6338	12.011
1985	O=C	127	TMC2	O1	1	-0.57	15.9994
1986	O=C	127	TMC2	O2	1	-0.57	15.9994
1987	OR	127	TMC2	O5	1	-0.65	15.9994
1988	HOCO	127	TMC2	H5	1	0.5	1.0079
1989	CB	128	MPD2	C	1	-0.15	12.011
1990	CB	128	MPD2	C1	1	0.117	12.011
1991	CB	128	MPD2	C2	1	-0.15	12.011
1992	CB	128	MPD2	C3	1	0.117	12.011
1993	CB	128	MPD2	C4	1	-0.15	12.011
1994	CB	128	MPD2	C5	1	-0.15	12.011
1995	HCMM	128	MPD2	H	1	0.15	1.0079
1996	HCMM	128	MPD2	H1	1	0.15	1.0079
1997	HCMM	128	MPD2	H2	1	0.15	1.0079
1998	HCMM	128	MPD2	H3	1	0.15	1.0079
1999	NC=O	128	MPD2	N	1	-0.547	14.0067
2000	HNCO	128	MPD2	H5	1	0.37	1.0079
2001	NC=O	128	MPD2	N1	1	-0.547	14.0067
2002	HNCO	128	MPD2	H7	1	0.37	1.0079
2003	CB	129	TMC2	C1	1	0.0862	12.011
2004	CB	129	TMC2	C2	1	-0.15	12.011
2005	CB	129	TMC2	C3	1	0.0862	12.011
2006	CB	129	TMC2	C4	1	-0.15	12.011
2007	CB	129	TMC2	C5	1	0.0862	12.011
2008	CB	129	TMC2	C6	1	-0.15	12.011
2009	C=O	129	TMC2	C	1	0.5438	12.011
2010	O=C	129	TMC2	O	1	-0.57	15.9994
2011	HCMM	129	TMC2	H	1	0.15	1.0079
2012	HCMM	129	TMC2	H1	1	0.15	1.0079
2013	HCMM	129	TMC2	H2	1	0.15	1.0079
2014	C=O	129	TMC2	C7	1	0.5438	12.011
2015	C=O	129	TMC2	C8	1	0.6338	12.011
2016	O=C	129	TMC2	O1	1	-0.57	15.9994
2017	O=C	129	TMC2	O2	1	-0.57	15.9994
2018	OR	129	TMC2	O5	1	-0.65	15.9994
2019	HOCO	129	TMC2	H5	1	0.5	1.0079
2020	CB	130	MPD2	C	1	-0.15	12.011
2021	CB	130	MPD2	C1	1	0.117	12.011
2022	CB	130	MPD2	C2	1	-0.15	12.011
2023	CB	130	MPD2	C3	1	0.117	12.011
2024	CB	130	MPD2	C4	1	-0.15	12.011
2025	CB	130	MPD2	C5	1	-0.15	12.011
2026	HCMM	130	MPD2	H	1	0.15	1.0079
2027	HCMM	130	MPD2	H1	1	0.15	1.0079
2028	HCMM	130	MPD2	H2	1	0.15	1.0079
2029	HCMM	130	MPD2	H3	1	0.15	1.0079
2030	NC=O	130	MPD2	N	1	-0.547	14.0067
2031	HNCO	130	MPD2	H5	1	0.37	1.0079
2032	NC=O	130	MPD2	N1	1	-0.547	14.0067
2033	HNCO	130	MPD2	H7	1	0.37	1.0079
2034	CB	131	TMC2	C1	1	0.0862	12.011
2035	CB	131	TMC2	C2	1	-0.15	12.011
2036	CB	131	TMC2	C3	1	0.0862	12.011
2037	CB	131	TMC2	C4	1	-0.15	12.011
2038	CB	131	TMC2	C5	1	0.0862	12.011
2039	CB	131	TMC2	C6	1	-0.15	12.011
2040	C=O	131	TMC2	C	1	0.5438	12.011
2041	O=C	131	TMC2	O	1	-0.57	15.9994
2042	HCMM	131	TMC2	H	1	0.15	1.0079
2043	HCMM	131	TMC2	H1	1	0.15	1.0079
2044	HCMM	131	TMC2	H2	1	0.15	1.0079
2045	C=O	131	TMC2	C7	1	0.5438	12.011
2046	C=O	131	TMC2	C8	1	0.6338	12.011
2047	O=C	131	TMC2	O1	1	-0.57	15.9994
2048	O=C	131	TMC2	O2	1	-0.57	15.9994
2049	OR	131	TMC2	O5	1	-0.65	15.9994
2050	HOCO	131	TMC2	H5	1	0.5	1.0079
2051	CB	132	MPD2	C	1	-0.15	12.011
2052	CB	132	MPD2	C1	1	0.117	12.011
2053	CB	132	MPD2	C2	1	-0.15	12.011
2054	CB	132	MPD2	C3	1	0.117	12.011
2055	CB	132	MPD2	C4	1	-0.15	12.011
2056	CB	132	MPD2	C5	1	-0.15	12.011
2057	HCMM	132	MPD2	H	1	0.15	1.0079
2058	HCMM	132	MPD2	H1	1	0.15	1.0079
2059	HCMM	132	MPD2	H2	1	0.15	1.0079
2060	HCMM	132	MPD2	H3	1	0.15	1.0079
2061	NC=O	132	MPD2	N	1	-0.547	14.0067
2062	HNCO	132	MPD2	H5	1	0.37	1.0079
2063	NC=O	132	MPD2	N1	1	-0.547	14.0067
2064	HNCO	132	MPD2	H7	1	0.37	1.0079
2065	CB	133	TMC2	C1	1	0.0862	12.011
2066	CB	133	TMC2	C2	1	-0.15	12.011
2067	CB	133	TMC2	C3	1	0.0862	12.011
2068	CB	133	TMC2	C4	1	-0.15	12.011
2069	CB	133	TMC2	C5	1	0.0862	12.011
2070	CB	133	TMC2	C6	1	-0.15	12.011
2071	C=O	133	TMC2	C	1	0.5438	12.011
2072	O=C	133	TMC2	O	1	-0.57	15.9994
2073	HCMM	133	TMC2	H	1	0.15	1.0079
2074	HCMM	133	TMC2	H1	1	0.15	1.0079
2075	HCMM	133	TMC2	H2	1	0.15	1.0079
2076	C=O	133	TMC2	C7	1	0.5438	12.011
2077	C=O	133	TMC2	C8	1	0.6338	12.011
2078	O=C	133	TMC2	O1	1	-0.57	15.9994
2079	O=C	133	TMC2	O2	1	-0.57	15.9994
2080	OR	133	TMC2	O5	1	-0.65	15.9994
2081	HOCO	133	TMC2	H5	1	0.5	1.0079
2082	CB	134	MPD2	C	1	-0.15	12.011
2083	CB	134	MPD2	C1	1	0.117	12.011
2084	CB	134	MPD2	C2	1	-0.15	12.011
2085	CB	134	MPD2	C3	1	0.117	12.011
2086	CB	134	MPD2	C4	1	-0.15	12.011
2087	CB	134	MPD2	C5	1	-0.15	12.011
2088	HCMM	134	MPD2	H	1	0.15	1.0079
2089	HCMM	134	MPD2	H1	1	0.15	1.0079
2090	HCMM	134	MPD2	H2	1	0.15	1.0079
2091	HCMM	134	MPD2	H3	1	0.15	1.0079
2092	NC=O	134	MPD2	N	1	-0.547	14.0067
2093	HNCO	134	MPD2	H5	1	0.37	1.0079
2094	NC=O	134	MPD2	N1	1	-0.547	14.0067
2095	HNCO	134	MPD2	H7	1	0.37	1.0079
2096	CB	135	TMC2	C1	1	0.0862	12.011
2097	CB	135	TMC2	C2	1	-0.15	12.011
2098	CB	135	TMC2	C3	1	0.0862	12.011
2099	CB	135	TMC2	C4	1	-0.15	12.011
2100	CB	135	TMC2	C5	1	0.0862	12.011
2101	CB	135	TMC2	C6	1	-0.15	12.011
2102	C=O	135	TMC2	C	1	0.5438	12.011
2103	O=C	135	TMC2	O	1	-0.57	15.9994
2104	HCMM	135	TMC2	H	1	0.15	1.0079
2105	HCMM	135	TMC2	H1	1	0.15	1.0079
2106	HCMM	135	TMC2	H2	1	0.15	1.0079
2107	C=O	135	TMC2	C7	1	0.5438	12.011
2108	C=O	135	TMC2	C8	1	0.6338	12.011
2109	O=C	135	TMC2	O1	1	-0.57	15.9994
2110	O=C	135	TMC2	O2	1	-0.57	15.9994
2111	OR	135	TMC2	O5	1	-0.65	15.9994
2112	HOCO	135	TMC2	H5	1	0.5	1.0079
2113	CB	136	MPD2	C	1	-0.15	12.011
2114	CB	136	MPD2	C1	1	0.117	12.011
2115	CB	136	MPD2	C2	1	-0.15	12.011
2116	CB	136	MPD2	C3	1	0.117	12.011
2117	CB	136	MPD2	C4	1	-0.15	12.011
2118	CB	136	MPD2	C5	1	-0.15	12.011
2119	HCMM	136	MPD2	H	1	0.15	1.0079
2120	HCMM	136	MPD2	H1	1	0.15	1.0079
2121	HCMM	136	MPD2	H2	1	0.15	1.0079
2122	HCMM	136	MPD2	H3	1	0.15	1.0079
2123	NC=O	136	MPD2	N	1	-0.547	14.0067
2124	HNCO	136	MPD2	H5	1	0.37	1.0079
2125	NC=O	136	MPD2	N1	1	-0.547	14.0067
2126	HNCO	136	MPD2	H7	1	0.37	1.0079
2127	CB	137	TMC2	C1	1	0.0862	12.011
2128	CB	137	TMC2	C2	1	-0.15	12.011
2129	CB	137	TMC2	C3	1	0.0862	12.011
2130	CB	137	TMC2	C4	1	-0.15	12.011
2131	CB	137	TMC2	C5	1	0.0862	12.011
2132	CB	137	TMC2	C6	1	-0.15	12.011
2133	C=O	137	TMC2	C	1	0.5438	12.011
2134	O=C	137	TMC2	O	1	-0.57	15.9994
2135	HCMM	137	TMC2	H	1	0.15	1.0079
2136	HCMM	137	TMC2	H1	1	0.15	1.0079
2137	HCMM	137	TMC2	H2	1	0.15	1.0079
2138	C=O	137	TMC2	C7	1	0.5438	12.011
2139	C=O	137	TMC2	C8	1	0.6338	12.011
2140	O=C	137	TMC2	O1	1	-0.57	15.9994
2141	O=C	137	TMC2	O2	1	-0.57	15.9994
2142	OR	137	TMC2	O5	1	-0.65	15.9994
2143	HOCO	137	TMC2	H5	1	0.5	1.0079
2144	CB	138	MPD2	C	1	-0.15	12.011
2145	CB	138	MPD2	C1	1	0.117	12.011
2146	CB	138	MPD2	C2	1	-0.15	12.011
2147	CB	138	MPD2	C3	1	0.117	12.011
2148	CB	138	MPD2	C4	1	-0.15	12.011
2149	CB	138	MPD2	C5	1	-0.15	12.011
2150	HCMM	138	MPD2	H	1	0.15	1.0079
2151	HCMM	138	MPD2	H1	1	0.15	1.0079
2152	HCMM	138	MPD2	H2	1	0.15	1.0079
2153	HCMM	138	MPD2	H3	1	0.15	1.0079
2154	NC=O	138	MPD2	N	1	-0.547	14.0067
2155	HNCO	138	MPD2	H5	1	0.37	1.0079
2156	NC=O	138	MPD2	N1	1	-0.547	14.0067
2157	HNCO	138	MPD2	H7	1	0.37	1.0079
2158	CB	139	TMC2	C1	1	0.0862	12.011
2159	CB	139	TMC2	C2	1	-0.15	12.011
2160	CB	139	TMC2	C3	1	0.0862	12.011
2161	CB	139	TMC2	C4	1	-0.15	12.011
2162	CB	139	TMC2	C5	1	0.0862	12.011
2163	CB	139	TMC2	C6	1	-0.15	12.011
2164	C=O	139	TMC2	C	1	0.5438	12.011
2165	O=C	139	TMC2	O	1	-0.57	15.9994
2166	HCMM	139	TMC2	H	1	0.15	1.0079
2167	HCMM	139	TMC2	H1	1	0.15	1.0079
2168	HCMM	139	TMC2	H2	1	0.15	1.0079
2169	C=O	139	TMC2	C7	1	0.5438	12.011
2170	C=O	139	TMC2	C8	1	0.6338	12.011
2171	O=C	139	TMC2	O1	1	-0.57	15.9994
2172	O=C	139	TMC2	O2	1	-0.57	15.9994
2173	OR	139	TMC2	O5	1	-0.65	15.9994
2174	HOCO	139	TMC2	H5	1	0.5	1.0079
2175	CB	140	MPD2	C	1	-0.15	12.011
2176	CB	140	MPD2	C1	1	0.117	12.011
2177	CB	140	MPD2	C2	1	-0.15	12.011
2178	CB	140	MPD2	C3	1	0.117	12.011
2179	CB	140	MPD2	C4	1	-0.15	12.011
2180	CB	140	MPD2	C5	1	-0.15	12.011
2181	HCMM	140	MPD2	H	1	0.15	1.0079
2182	HCMM	140	MPD2	H1	1	0.15	1.0079
2183	HCMM	140	MPD2	H2	1	0.15	1.0079
2184	HCMM	140	MPD2	H3	1	0.15	1.0079
2185	NC=O	140	MPD2	N	1	-0.547	14.0067
2186	HNCO	140	MPD2	H5	1	0.37	1.0079
2187	NC=O	140	MPD2	N1	1	-0.547	14.0067
2188	HNCO	140	MPD2	H7	1	0.37	1.0079
2189	CB	141	TMC2	C1	1	0.0862	12.011
2190	CB	141	TMC2	C2	1	-0.15	12.011
2191	CB	141	TMC2	C3	1	0.0862	12.011
2192	CB	141	TMC2	C4	1	-0.15	12.011
2193	CB	141	TMC2	C5	1	0.0862	12.011
2194	CB	141	TMC2	C6	1	-0.15	12.011
2195	C=O	141	TMC2	C	1	0.5438	12.011
2196	O=C	141	TMC2	O	1	-0.57	15.9994
2197	HCMM	141	TMC2	H	1	0.15	1.0079
2198	HCMM	141	TMC2	H1	1	0.15	1.0079
2199	HCMM	141	TMC2	H2	1	0.15	1.0079
2200	C=O	141	TMC2	C7	1	0.5438	12.011
2201	C=O	141	TMC2	C8	1	0.6338	12.011
2202	O=C	141	TMC2	O1	1	-0.57	15.9994
2203	O=C	141	TMC2	O2	1	-0.57	15.9994
2204	OR	141	TMC2	O5	1	-0.65	15.9994
2205	HOCO	141	TMC2	H5	1	0.5	1.0079
2206	CB	142	TMC2	C1	1	0.0862	12.011
2207	CB	142	TMC2	C2	1	-0.15	12.011
2208	CB	142	TMC2	C3	1	0.0862	12.011
2209	CB	142	TMC2	C4	1	-0.15	12.011
2210	CB	142	TMC2	C5	1	0.0862	12.011
2211	CB	142	TMC2	C6	1	-0.15	12.011
2212	C=O	142	TMC2	C	1	0.5438	12.011
2213	O=C	142	TMC2	O	1	-0.57	15.9994
2214	HCMM	142	TMC2	H	1	0.15	1.0079
2215	HCMM	142	TMC2	H1	1	0.15	1.0079
2216	HCMM	142	TMC2	H2	1	0.15	1.0079
2217	C=O	142	TMC2	C7	1	0.5438	12.011
2218	C=O	142	TMC2	C8	1	0.6338	12.011
2219	O=C	142	TMC2	O1	1	-0.57	15.9994
2220	O=C	142	TMC2	O2	1	-0.57	15.9994
2221	OR	142	TMC2	O5	1	-0.65	15.9994
2222	HOCO	142	TMC2	H5	1	0.5	1.0079
2223	CB	143	MPD2	C	1	-0.15	12.011
2224	CB	143	MPD2	C1	1	0.117	12.011
2225	CB	143	MPD2	C2	1	-0.15	12.011
2226	CB	143	MPD2	C3	1	0.117	12.011
2227	CB	143	MPD2	C4	1	-0.15	12.011
2228	CB	143	MPD2	C5	1	-0.15	12.011
2229	HCMM	143	MPD2	H	1	0.15	1.0079
2230	HCMM	143	MPD2	H1	1	0.15	1.0079
2231	HCMM	143	MPD2	H2	1	0.15	1.0079
2232	HCMM	143	MPD2	H3	1	0.15	1.0079
2233	NC=O	143	MPD2	N	1	-0.547	14.0067
2234	HNCO	143	MPD2	H5	1	0.37	1.0079
2235	NC=O	143	MPD2	N1	1	-0.547	14.0067
2236	HNCO	143	MPD2	H7	1	0.37	1.0079
2237	CB	144	TMC2	C1	1	0.0862	12.011
2238	CB	144	TMC2	C2	1	-0.15	12.011
2239	CB	144	TMC2	C3	1	0.0862	12.011
2240	CB	144	TMC2	C4	1	-0.15	12.011
2241	CB	144	TMC2	C5	1	0.0862	12.011
2242	CB	144	TMC2	C6	1	-0.15	12.011
2243	C=O	144	TMC2	C	1	0.5438	12.011
2244	O=C	144	TMC2	O	1	-0.57	15.9994
2245	HCMM	144	TMC2	H	1	0.15	1.0079
2246	HCMM	144	TMC2	H1	1	0.15	1.0079
2247	HCMM	144	TMC2	H2	1	0.15	1.0079
2248	C=O	144	TMC2	C7	1	0.5438	12.011
2249	C=O	144	TMC2	C8	1	0.6338	12.011
2250	O=C	144	TMC2	O1	1	-0.57	15.9994
2251	O=C	144	TMC2	O2	1	-0.57	15.9994
2252	OR	144	TMC2	O5	1	-0.65	15.9994
2253	HOCO	144	TMC2	H5	1	0.5	1.0079
2254	CB	145	MPD2	C	1	-0.15	12.011
2255	CB	145	MPD2	C1	1	0.117	12.011
2256	CB	145	MPD2	C2	1	-0.15	12.011
2257	CB	145	MPD2	C3	1	0.117	12.011
2258	CB	145	MPD2	C4	1	-0.15	12.011
2259	CB	145	MPD2	C5	1	-0.15	12.011
2260	HCMM	145	MPD2	H	1	0.15	1.0079
2261	HCMM	145	MPD2	H1	1	0.15	1.0079
2262	HCMM	145	MPD2	H2	1	0.15	1.0079
2263	HCMM	145	MPD2	H3	1	0.15	1.0079
2264	NC=O	145	MPD2	N	1	-0.547	14.0067
2265	HNCO	145	MPD2	H5	1	0.37	1.0079
2266	NC=O	145	MPD2	N1	1	-0.547	14.0067
2267	HNCO	145	MPD2	H7	1	0.37	1.0079
2268	CB	146	TMC2	C1	1	0.0862	12.011
2269	CB	146	TMC2	C2	1	-0.15	12.011
2270	CB	146	TMC2	C3	1	0.0862	12.011
2271	CB	146	TMC2	C4	1	-0.15	12.011
2272	CB	146	TMC2	C5	1	0.0862	12.011
2273	CB	146	TMC2	C6	1	-0.15	12.011
2274	C=O	146	TMC2	C	1	0.5438	12.011
2275	O=C	146	TMC2	O	1	-0.57	15.9994
2276	HCMM	146	TMC2	H	1	0.15	1.0079
2277	HCMM	146	TMC2	H1	1	0.15	1.0079
2278	HCMM	146	TMC2	H2	1	0.15	1.0079
2279	C=O	146	TMC2	C7	1	0.5438	12.011
2280	C=O	146	TMC2	C8	1	0.6338	12.011
2281	O=C	146	TMC2	O1	1	-0.57	15.9994
2282	O=C	146	TMC2	O2	1	-0.57	15.9994
2283	OR	146	TMC2	O5	1	-0.65	15.9994
2284	HOCO	146	TMC2	H5	1	0.5	1.0079
2285	CB	147	MPD2	C	1	-0.15	12.011
2286	CB	147	MPD2	C1	1	0.117	12.011
2287	CB	147	MPD2	C2	1	-0.15	12.011
2288	CB	147	MPD2	C3	1	0.117	12.011
2289	CB	147	MPD2	C4	1	-0.15	12.011
2290	CB	147	MPD2	C5	1	-0.15	12.011
2291	HCMM	147	MPD2	H	1	0.15	1.0079
2292	HCMM	147	MPD2	H1	1	0.15	1.0079
2293	HCMM	147	MPD2	H2	1	0.15	1.0079
2294	HCMM	147	MPD2	H3	1	0.15	1.0079
2295	NC=O	147	MPD2	N	1	-0.547	14.0067
2296	HNCO	147	MPD2	H5	1	0.37	1.0079
2297	NC=O	147	MPD2	N1	1	-0.547	14.0067
2298	HNCO	147	MPD2	H7	1	0.37	1.0079
2299	CB	148	TMC2	C1	1	0.0862	12.011
2300	CB	148	TMC2	C2	1	-0.15	12.011
2301	CB	148	TMC2	C3	1	0.0862	12.011
2302	CB	148	TMC2	C4	1	-0.15	12.011
2303	CB	148	TMC2	C5	1	0.0862	12.011
2304	CB	148	TMC2	C6	1	-0.15	12.011
2305	C=O	148	TMC2	C	1	0.5438	12.011
2306	O=C	148	TMC2	O	1	-0.57	15.9994
2307	HCMM	148	TMC2	H	1	0.15	1.0079
2308	HCMM	148	TMC2	H1	1	0.15	1.0079
2309	HCMM	148	TMC2	H2	1	0.15	1.0079
2310	C=O	148	TMC2	C7	1	0.5438	12.011
2311	C=O	148	TMC2	C8	1	0.6338	12.011
2312	O=C	148	TMC2	O1	1	-0.57	15.9994
2313	O=C	148	TMC2	O2	1	-0.57	15.9994
2314	OR	148	TMC2	O5	1	-0.65	15.9994
2315	HOCO	148	TMC2	H5	1	0.5	1.0079
2316	CB	149	MPD2	C	1	-0.15	12.011
2317	CB	149	MPD2	C1	1	0.117	12.011
2318	CB	149	MPD2	C2	1	-0.15	12.011
2319	CB	149	MPD2	C3	1	0.117	12.011
2320	CB	149	MPD2	C4	1	-0.15	12.011
2321	CB	149	MPD2	C5	1	-0.15	12.011
2322	HCMM	149	MPD2	H	1	0.15	1.0079
2323	HCMM	149	MPD2	H1	1	0.15	1.0079
2324	HCMM	149	MPD2	H2	1	0.15	1.0079
2325	HCMM	149	MPD2	H3	1	0.15	1.0079
2326	NC=O	149	MPD2	N	1	-0.547	14.0067
2327	HNCO	149	MPD2	H5	1	0.37	1.0079
2328	NC=O	149	MPD2	N1	1	-0.547	14.0067
2329	HNCO	149	MPD2	H7	1	0.37	1.0079
2330	CB	150	TMC2	C1	1	0.0862	12.011
2331	CB	150	TMC2	C2	1	-0.15	12.011
2332	CB	150	TMC2	C3	1	0.0862	12.011
2333	CB	150	TMC2	C4	1	-0.15	12.011
2334	CB	150	TMC2	C5	1	0.0862	12.011
2335	CB	150	TMC2	C6	1	-0.15	12.011
2336	C=O	150	TMC2	C	1	0.5438	12.011
2337	O=C	150	TMC2	O	1	-0.57	15.9994
2338	HCMM	150	TMC2	H	1	0.15	1.0079
2339	HCMM	150	TMC2	H1	1	0.15	1.0079
2340	HCMM	150	TMC2	H2	1	0.15	1.0079
2341	C=O	150	TMC2	C7	1	0.5438	12.011
2342	C=O	150	TMC2	C8	1	0.6338	12.011
2343	O=C	150	TMC2	O1	1	-0.57	15.9994
2344	O=C	150	TMC2	O2	1	-0.57	15.9994
2345	OR	150	TMC2	O5	1	-0.65	15.9994
2346	HOCO	150	TMC2	H5	1	0.5	1.0079
2347	CB	151	MPD2	C	1	-0.15	12.011
2348	CB	151	MPD2	C1	1	0.117	12.011
2349	CB	151	MPD2	C2	1	-0.15	12.011
2350	CB	151	MPD2	C3	1	0.117	12.011
2351	CB	151	MPD2	C4	1	-0.15	12.011
2352	CB	151	MPD2	C5	1	-0.15	12.011
2353	HCMM	151	MPD2	H	1	0.15	1.0079
2354	HCMM	151	MPD2	H1	1	0.15	1.0079
2355	HCMM	151	MPD2	H2	1	0.15	1.0079
2356	HCMM	151	MPD2	H3	1	0.15	1.0079
2357	NC=O	151	MPD2	N	1	-0.547	14.0067
2358	HNCO	151	MPD2	H5	1	0.37	1.0079
2359	NC=O	151	MPD2	N1	1	-0.547	14.0067
2360	HNCO	151	MPD2	H7	1	0.37	1.0079
2361	CB	152	TMC2	C1	1	0.0862	12.011
2362	CB	152	TMC2	C2	1	-0.15	12.011
2363	CB	152	TMC2	C3	1	0.0862	12.011
2364	CB	152	TMC2	C4	1	-0.15	12.011
2365	CB	152	TMC2	C5	1	0.0862	12.011
2366	CB	152	TMC2	C6	1	-0.15	12.011
2367	C=O	152	TMC2	C	1	0.5438	12.011
2368	O=C	152	TMC2	O	1	-0.57	15.9994
2369	HCMM	152	TMC2	H	1	0.15	1.0079
2370	HCMM	152	TMC2	H1	1	0.15	1.0079
2371	HCMM	152	TMC2	H2	1	0.15	1.0079
2372	C=O	152	TMC2	C7	1	0.5438	12.011
2373	C=O	152	TMC2	C8	1	0.6338	12.011
2374	O=C	152	TMC2	O1	1	-0.57	15.9994
2375	O=C	152	TMC2	O2	1	-0.57	15.9994
2376	OR	152	TMC2	O5	1	-0.65	15.9994
2377	HOCO	152	TMC2	H5	1	0.5	1.0079
2378	CB	153	MPD2	C	1	-0.15	12.011
2379	CB	153	MPD2	C1	1	0.117	12.011
2380	CB	153	MPD2	C2	1	-0.15	12.011
2381	CB	153	MPD2	C3	1	0.117	12.011
2382	CB	153	MPD2	C4	1	-0.15	12.011
2383	CB	153	MPD2	C5	1	-0.15	12.011
2384	HCMM	153	MPD2	H	1	0.15	1.0079
2385	HCMM	153	MPD2	H1	1	0.15	1.0079
2386	HCMM	153	MPD2	H2	1	0.15	1.0079
2387	HCMM	153	MPD2	H3	1	0.15	1.0079
2388	NC=O	153	MPD2	N	1	-0.547	14.0067
2389	HNCO	153	MPD2	H5	1	0.37	1.0079
2390	NC=O	153	MPD2	N1	1	-0.547	14.0067
2391	HNCO	153	MPD2	H7	1	0.37	1.0079
2392	CB	154	TMC2	C1	1	0.0862	12.011
2393	CB	154	TMC2	C2	1	-0.15	12.011
2394	CB	154	TMC2	C3	1	0.0862	12.011
2395	CB	154	TMC2	C4	1	-0.15	12.011
2396	CB	154	TMC2	C5	1	0.0862	12.011
2397	CB	154	TMC2	C6	1	-0.15	12.011
2398	C=O	154	TMC2	C	1	0.5438	12.011
2399	O=C	154	TMC2	O	1	-0.57	15.9994
2400	HCMM	154	TMC2	H	1	0.15	1.0079
2401	HCMM	154	TMC2	H1	1	0.15	1.0079
2402	HCMM	154	TMC2	H2	1	0.15	1.0079
2403	C=O	154	TMC2	C7	1	0.5438	12.011
2404	C=O	154	TMC2	C8	1	0.6338	12.011
2405	O=C	154	TMC2	O1	1	-0.57	15.9994
2406	O=C	154	TMC2	O2	1	-0.57	15.9994
2407	OR	154	TMC2	O5	1	-0.65	15.9994
2408	HOCO	154	TMC2	H5	1	0.5	1.0079
2409	CB	155	MPD2	C	1	-0.15	12.011
2410	CB	155	MPD2	C1	1	0.117	12.011
2411	CB	155	MPD2	C2	1	-0.15	12.011
2412	CB	155	MPD2	C3	1	0.117	12.011
2413	CB	155	MPD2	C4	1	-0.15	12.011
2414	CB	155	MPD2	C5	1	-0.15	12.011
2415	HCMM	155	MPD2	H	1	0.15	1.0079
2416	HCMM	155	MPD2	H1	1	0.15	1.0079
2417	HCMM	155	MPD2	H2	1	0.15	1.0079
2418	HCMM	155	MPD2	H3	1	0.15	1.0079
2419	NC=O	155	MPD2	N	1	-0.547	14.0067
2420	HNCO	155	MPD2	H5	1	0.37	1.0079
2421	NC=O	155	MPD2	N1	1	-0.547	14.0067
2422	HNCO	155	MPD2	H7	1	0.37	1.0079
2423	CB	156	TMC2	C1	1	0.0862	12.011
2424	CB	156	TMC2	C2	1	-0.15	12.011
2425	CB	156	TMC2	C3	1	0.0862	12.011
2426	CB	156	TMC2	C4	1	-0.15	12.011
2427	CB	156	TMC2	C5	1	0.0862	12.011
2428	CB	156	TMC2	C6	1	-0.15	12.011
2429	C=O	156	TMC2	C	1	0.5438	12.011
2430	O=C	156	TMC2	O	1	-0.57	15.9994
2431	HCMM	156	TMC2	H	1	0.15	1.0079
2432	HCMM	156	TMC2	H1	1	0.15	1.0079
2433	HCMM	156	TMC2	H2	1	0.15	1.0079
2434	C=O	156	TMC2	C7	1	0.5438	12.011
2435	C=O	156	TMC2	C8	1	0.6338	12.011
2436	O=C	156	TMC2	O1	1	-0.57	15.9994
2437	O=C	156	TMC2	O2	1	-0.57	15.9994
2438	OR	156	TMC2	O5	1	-0.65	15.9994
2439	HOCO	156	TMC2	H5	1	0.5	1.0079
2440	CB	157	MPD2	C	1	-0.15	12.011
2441	CB	157	MPD2	C1	1	0.117	12.011
2442	CB	157	MPD2	C2	1	-0.15	12.011
2443	CB	157	MPD2	C3	1	0.117	12.011
2444	CB	157	MPD2	C4	1	-0.15	12.011
2445	CB	157	MPD2	C5	1	-0.15	12.011
2446	HCMM	157	MPD2	H	1	0.15	1.0079
2447	HCMM	157	MPD2	H1	1	0.15	1.0079
2448	HCMM	157	MPD2	H2	1	0.15	1.0079
2449	HCMM	157	MPD2	H3	1	0.15	1.0079
2450	NC=O	157	MPD2	N	1	-0.547	14.0067
2451	HNCO	157	MPD2	H5	1	0.37	1.0079
2452	NC=O	157	MPD2	N1	1	-0.547	14.0067
2453	HNCO	157	MPD2	H7	1	0.37	1.0079
2454	CB	158	TMC2	C1	1	0.0862	12.011
2455	CB	158	TMC2	C2	1	-0.15	12.011
2456	CB	158	TMC2	C3	1	0.0862	12.011
2457	CB	158	TMC2	C4	1	-0.15	12.011
2458	CB	158	TMC2	C5	1	0.0862	12.011
2459	CB	158	TMC2	C6	1	-0.15	12.011
2460	C=O	158	TMC2	C	1	0.5438	12.011
2461	O=C	158	TMC2	O	1	-0.57	15.9994
2462	HCMM	158	TMC2	H	1	0.15	1.0079
2463	HCMM	158	TMC2	H1	1	0.15	1.0079
2464	HCMM	158	TMC2	H2	1	0.15	1.0079
2465	C=O	158	TMC2	C7	1	0.5438	12.011
2466	C=O	158	TMC2	C8	1	0.6338	12.011
2467	O=C	158	TMC2	O1	1	-0.57	15.9994
2468	O=C	158	TMC2	O2	1	-0.57	15.9994
2469	OR	158	TMC2	O5	1	-0.65	15.9994
2470	HOCO	158	TMC2	H5	1	0.5	1.0079
2471	CB	159	MPD2	C	1	-0.15	12.011
2472	CB	159	MPD2	C1	1	0.117	12.011
2473	CB	159	MPD2	C2	1	-0.15	12.011
2474	CB	159	MPD2	C3	1	0.117	12.011
2475	CB	159	MPD2	C4	1	-0.15	12.011
2476	CB	159	MPD2	C5	1	-0.15	12.011
2477	HCMM	159	MPD2	H	1	0.15	1.0079
2478	HCMM	159	MPD2	H1	1	0.15	1.0079
2479	HCMM	159	MPD2	H2	1	0.15	1.0079
2480	HCMM	159	MPD2	H3	1	0.15	1.0079
2481	NC=O	159	MPD2	N	1	-0.547	14.0067
2482	HNCO	159	MPD2	H5	1	0.37	1.0079
2483	NC=O	159	MPD2	N1	1	-0.547	14.0067
2484	HNCO	159	MPD2	H7	1	0.37	1.0079
2485	CB	160	TMC2	C1	1	0.0862	12.011
2486	CB	160	TMC2	C2	1	-0.15	12.011
2487	CB	160	TMC2	C3	1	0.0862	12.011
2488	CB	160	TMC2	C4	1	-0.15	12.011
2489	CB	160	TMC2	C5	1	0.0862	12.011
2490	CB	160	TMC2	C6	1	-0.15	12.011
2491	C=O	160	TMC2	C	1	0.5438	12.011
2492	O=C	160	TMC2	O	1	-0.57	15.9994
2493	HCMM	160	TMC2	H	1	0.15	1.0079
2494	HCMM	160	TMC2	H1	1	0.15	1.0079
2495	HCMM	160	TMC2	H2	1	0.15	1.0079
2496	C=O	160	TMC2	C7	1	0.5438	12.011
2497	C=O	160	TMC2	C8	1	0.6338	12.011
2498	O=C	160	TMC2	O1	1	-0.57	15.9994
2499	O=C	160	TMC2	O2	1	-0.57	15.9994
2500	OR	160	TMC2	O5	1	-0.65	15.9994
2501	HOCO	160	TMC2	H5	1	0.5	1.0079
2502	CB	161	MPD2	C	1	-0.15	12.011
2503	CB	161	MPD2	C1	1	0.117	12.011
2504	CB	161	MPD2	C2	1	-0.15	12.011
2505	CB	161	MPD2	C3	1	0.117	12.011
2506	CB	161	MPD2	C4	1	-0.15	12.011
2507	CB	161	MPD2	C5	1	-0.15	12.011
2508	HCMM	161	MPD2	H	1	0.15	1.0079
2509	HCMM	161	MPD2	H1	1	0.15	1.0079
2510	HCMM	161	MPD2	H2	1	0.15	1.0079
2511	HCMM	161	MPD2	H3	1	0.15	1.0079
2512	NC=O	161	MPD2	N	1	-0.547	14.0067
2513	HNCO	161	MPD2	H5	1	0.37	1.0079
2514	NC=O	161	MPD2	N1	1	-0.547	14.0067
2515	HNCO	161	MPD2	H7	1	0.37	1.0079
2516	CB	162	TMC2	C1	1	0.0862	12.011
2517	CB	162	TMC2	C2	1	-0.15	12.011
2518	CB	162	TMC2	C3	1	0.0862	12.011
2519	CB	162	TMC2	C4	1	-0.15	12.011
2520	CB	162	TMC2	C5	1	0.0862	12.011
2521	CB	162	TMC2	C6	1	-0.15	12.011
2522	C=O	162	TMC2	C	1	0.5438	12.011
2523	O=C	162	TMC2	O	1	-0.57	15.9994
2524	HCMM	162	TMC2	H	1	0.15	1.0079
2525	HCMM	162	TMC2	H1	1	0.15	1.0079
2526	HCMM	162	TMC2	H2	1	0.15	1.0079
2527	C=O	162	TMC2	C7	1	0.5438	12.011
2528	C=O	162	TMC2	C8	1	0.6338	12.011
2529	O=C	162	TMC2	O1	1	-0.57	15.9994
2530	O=C	162	TMC2	O2	1	-0.57	15.9994
2531	OR	162	TMC2	O5	1	-0.65	15.9994
2532	HOCO	162	TMC2	H5	1	0.5	1.0079
2533	CB	163	MPD2	C	1	-0.15	12.011
2534	CB	163	MPD2	C1	1	0.117	12.011
2535	CB	163	MPD2	C2	1	-0.15	12.011
2536	CB	163	MPD2	C3	1	0.117	12.011
2537	CB	163	MPD2	C4	1	-0.15	12.011
2538	CB	163	MPD2	C5	1	-0.15	12.011
2539	HCMM	163	MPD2	H	1	0.15	1.0079
2540	HCMM	163	MPD2	H1	1	0.15	1.0079
2541	HCMM	163	MPD2	H2	1	0.15	1.0079
2542	HCMM	163	MPD2	H3	1	0.15	1.0079
2543	NC=O	163	MPD2	N	1	-0.547	14.0067
2544	HNCO	163	MPD2	H5	1	0.37	1.0079
2545	NC=O	163	MPD2	N1	1	-0.547	14.0067
2546	HNCO	163	MPD2	H7	1	0.37	1.0079
2547	CB	164	TMC2	C1	1	0.0862	12.011
2548	CB	164	TMC2	C2	1	-0.15	12.011
2549	CB	164	TMC2	C3	1	0.0862	12.011
2550	CB	164	TMC2	C4	1	-0.15	12.011
2551	CB	164	TMC2	C5	1	0.0862	12.011
2552	CB	164	TMC2	C6	1	-0.15	12.011
2553	C=O	164	TMC2	C	1	0.5438	12.011
2554	O=C	164	TMC2	O	1	-0.57	15.9994
2555	HCMM	164	TMC2	H	1	0.15	1.0079
2556	HCMM	164	TMC2	H1	1	0.15	1.0079
2557	HCMM	164	TMC2	H2	1	0.15	1.0079
2558	C=O	164	TMC2	C7	1	0.5438	12.011
2559	C=O	164	TMC2	C8	1	0.6338	12.011
2560	O=C	164	TMC2	O1	1	-0.57	15.9994
2561	O=C	164	TMC2	O2	1	-0.57	15.9994
2562	OR	164	TMC2	O5	1	-0.65	15.9994
2563	HOCO	164	TMC2	H5	1	0.5	1.0079
2564	CB	165	TMC2	C1	1	0.0862	12.011
2565	CB	165	TMC2	C2	1	-0.15	12.011
2566	CB	165	TMC2	C3	1	0.0862	12.011
2567	CB	165	TMC2	C4	1	-0.15	12.011
2568	CB	165	TMC2	C5	1	0.0862	12.011
2569	CB	165	TMC2	C6	1	-0.15	12.011
2570	C=O	165	TMC2	C	1	0.5438	12.011
2571	O=C	165	TMC2	O	1	-0.57	15.9994
2572	HCMM	165	TMC2	H	1	0.15	1.0079
2573	HCMM	165	TMC2	H1	1	0.15	1.0079
2574	HCMM	165	TMC2	H2	1	0.15	1.0079
2575	C=O	165	TMC2	C7	1	0.5438	12.011
2576	C=O	165	TMC2	C8	1	0.6338	12.011
2577	O=C	165	TMC2	O1	1	-0.57	15.9994
2578	O=C	165	TMC2	O2	1	-0.57	15.9994
2579	OR	165	TMC2	O5	1	-0.65	15.9994
2580	HOCO	165	TMC2	H5	1	0.5	1.0079
2581	CB	166	MPD2	C	1	-0.15	12.011
2582	CB	166	MPD2	C1	1	0.117	12.011
2583	CB	166	MPD2	C2	1	-0.15	12.011
2584	CB	166	MPD2	C3	1	0.117	12.011
2585	CB	166	MPD2	C4	1	-0.15	12.011
2586	CB	166	MPD2	C5	1	-0.15	12.011
2587	HCMM	166	MPD2	H	1	0.15	1.0079
2588	HCMM	166	MPD2	H1	1	0.15	1.0079
2589	HCMM	166	MPD2	H2	1	0.15	1.0079
2590	HCMM	166	MPD2	H3	1	0.15	1.0079
2591	NC=O	166	MPD2	N	1	-0.547	14.0067
2592	HNCO	166	MPD2	H5	1	0.37	1.0079
2593	NC=O	166	MPD2	N1	1	-0.547	14.0067
2594	HNCO	166	MPD2	H7	1	0.37	1.0079
2595	CB	167	TMC2	C1	1	0.0862	12.011
2596	CB	167	TMC2	C2	1	-0.15	12.011
2597	CB	167	TMC2	C3	1	0.0862	12.011
2598	CB	167	TMC2	C4	1	-0.15	12.011
2599	CB	167	TMC2	C5	1	0.0862	12.011
2600	CB	167	TMC2	C6	1	-0.15	12.011
2601	C=O	167	TMC2	C	1	0.5438	12.011
2602	O=C	167	TMC2	O	1	-0.57	15.9994
2603	HCMM	167	TMC2	H	1	0.15	1.0079
2604	HCMM	167	TMC2	H1	1	0.15	1.0079
2605	HCMM	167	TMC2	H2	1	0.15	1.0079
2606	C=O	167	TMC2	C7	1	0.5438	12.011
2607	C=O	167	TMC2	C8	1	0.6338	12.011
2608	O=C	167	TMC2	O1	1	-0.57	15.9994
2609	O=C	167	TMC2	O2	1	-0.57	15.9994
2610	OR	167	TMC2	O5	1	-0.65	15.9994
2611	HOCO	167	TMC2	H5	1	0.5	1.0079
2612	CB	168	MPD2	C	1	-0.15	12.011
2613	CB	168	MPD2	C1	1	0.117	12.011
2614	CB	168	MPD2	C2	1	-0.15	12.011
2615	CB	168	MPD2	C3	1	0.117	12.011
2616	CB	168	MPD2	C4	1	-0.15	12.011
2617	CB	168	MPD2	C5	1	-0.15	12.011
2618	HCMM	168	MPD2	H	1	0.15	1.0079
2619	HCMM	168	MPD2	H1	1	0.15	1.0079
2620	HCMM	168	MPD2	H2	1	0.15	1.0079
2621	HCMM	168	MPD2	H3	1	0.15	1.0079
2622	NC=O	168	MPD2	N	1	-0.547	14.0067
2623	HNCO	168	MPD2	H5	1	0.37	1.0079
2624	NC=O	168	MPD2	N1	1	-0.547	14.0067
2625	HNCO	168	MPD2	H7	1	0.37	1.0079
2626	CB	169	MPD1	C	1	-0.15	12.011
2627	CB	169	MPD1	C1	1	0.1	12.011
2628	CB	169	MPD1	C2	1	-0.15	12.011
2629	CB	169	MPD1	C3	1	0.117	12.011
2630	CB	169	MPD1	C4	1	-0.15	12.011
2631	CB	169	MPD1	C5	1	-0.15	12.011
2632	HCMM	169	MPD1	H	1	0.15	1.0079
2633	HCMM	169	MPD1	H1	1	0.15	1.0079
2634	HCMM	169	MPD1	H2	1	0.15	1.0079
2635	HCMM	169	MPD1	H3	1	0.15	1.0079
2636	NC=O	169	MPD1	N	1	-0.547	14.0067
2637	HNCO	169	MPD1	H5	1	0.37	1.0079
2638	NC=C	169	MPD1	N1	1	-0.9	14.0067
2639	HNCO	169	MPD1	H6	1	0.4	1.0079
2640	HNCO	169	MPD1	H7	1	0.4	1.0079
2641	CB	170	MPD1	C	1	-0.15	12.011
2642	CB	170	MPD1	C1	1	0.1	12.011
2643	CB	170	MPD1	C2	1	-0.15	12.011
2644	CB	170	MPD1	C3	1	0.117	12.011
2645	CB	170	MPD1	C4	1	-0.15	12.011
2646	CB	170	MPD1	C5	1	-0.15	12.011
2647	HCMM	170	MPD1	H	1	0.15	1.0079
2648	HCMM	170	MPD1	H1	1	0.15	1.0079
2649	HCMM	170	MPD1	H2	1	0.15	1.0079
2650	HCMM	170	MPD1	H3	1	0.15	1.0079
2651	NC=O	170	MPD1	N	1	-0.547	14.0067
2652	HNCO	170	MPD1	H5	1	0.37	1.0079
2653	NC=C	170	MPD1	N1	1	-0.9	14.0067
2654	HNCO	170	MPD1	H6	1	0.4	1.0079
2655	HNCO	170	MPD1	H7	1	0.4	1.0079
2656	CB	171	MPD1	C	1	-0.15	12.011
2657	CB	171	MPD1	C1	1	0.1	12.011
2658	CB	171	MPD1	C2	1	-0.15	12.011
2659	CB	171	MPD1	C3	1	0.117	12.011
2660	CB	171	MPD1	C4	1	-0.15	12.011
2661	CB	171	MPD1	C5	1	-0.15	12.011
2662	HCMM	171	MPD1	H	1	0.15	1.0079
2663	HCMM	171	MPD1	H1	1	0.15	1.0079
2664	HCMM	171	MPD1	H2	1	0.15	1.0079
2665	HCMM	171	MPD1	H3	1	0.15	1.0079
2666	NC=O	171	MPD1	N	1	-0.547	14.0067
2667	HNCO	171	MPD1	H5	1	0.37	1.0079
2668	NC=C	171	MPD1	N1	1	-0.9	14.0067
2669	HNCO	171	MPD1	H6	1	0.4	1.0079
2670	HNCO	171	MPD1	H7	1	0.4	1.0079
2671	CB	172	MPD1	C	1	-0.15	12.011
2672	CB	172	MPD1	C1	1	0.1	12.011
2673	CB	172	MPD1	C2	1	-0.15	12.011
2674	CB	172	MPD1	C3	1	0.117	12.011
2675	CB	172	MPD1	C4	1	-0.15	12.011
2676	CB	172	MPD1	C5	1	-0.15	12.011
2677	HCMM	172	MPD1	H	1	0.15	1.0079
2678	HCMM	172	MPD1	H1	1	0.15	1.0079
2679	HCMM	172	MPD1	H2	1	0.15	1.0079
2680	HCMM	172	MPD1	H3	1	0.15	1.0079
2681	NC=O	172	MPD1	N	1	-0.547	14.0067
2682	HNCO	172	MPD1	H5	1	0.37	1.0079
2683	NC=C	172	MPD1	N1	1	-0.9	14.0067
2684	HNCO	172	MPD1	H6	1	0.4	1.0079
2685	HNCO	172	MPD1	H7	1	0.4	1.0079
2686	CB	173	MPD1	C	1	-0.15	12.011
2687	CB	173	MPD1	C1	1	0.1	12.011
2688	CB	173	MPD1	C2	1	-0.15	12.011
2689	CB	173	MPD1	C3	1	0.117	12.011
2690	CB	173	MPD1	C4	1	-0.15	12.011
2691	CB	173	MPD1	C5	1	-0.15	12.011
2692	HCMM	173	MPD1	H	1	0.15	1.0079
2693	HCMM	173	MPD1	H1	1	0.15	1.0079
2694	HCMM	173	MPD1	H2	1	0.15	1.0079
2695	HCMM	173	MPD1	H3	1	0.15	1.0079
2696	NC=O	173	MPD1	N	1	-0.547	14.0067
2697	HNCO	173	MPD1	H5	1	0.37	1.0079
2698	NC=C	173	MPD1	N1	1	-0.9	14.0067
2699	HNCO	173	MPD1	H6	1	0.4	1.0079
2700	HNCO	173	MPD1	H7	1	0.4	1.0079
2701	CB	174	MPD1	C	1	-0.15	12.011
2702	CB	174	MPD1	C1	1	0.1	12.011
2703	CB	174	MPD1	C2	1	-0.15	12.011
2704	CB	174	MPD1	C3	1	0.117	12.011
2705	CB	174	MPD1	C4	1	-0.15	12.011
2706	CB	174	MPD1	C5	1	-0.15	12.011
2707	HCMM	174	MPD1	H	1	0.15	1.0079
2708	HCMM	174	MPD1	H1	1	0.15	1.0079
2709	HCMM	174	MPD1	H2	1	0.15	1.0079
2710	HCMM	174	MPD1	H3	1	0.15	1.0079
2711	NC=O	174	MPD1	N	1	-0.547	14.0067
2712	HNCO	174	MPD1	H5	1	0.37	1.0079
2713	NC=C	174	MPD1	N1	1	-0.9	14.0067
2714	HNCO	174	MPD1	H6	1	0.4	1.0079
2715	HNCO	174	MPD1	H7	1	0.4	1.0079
2716	CB	175	MPD1	C	1	-0.15	12.011
2717	CB	175	MPD1	C1	1	0.1	12.011
2718	CB	175	MPD1	C2	1	-0.15	12.011
2719	CB	175	MPD1	C3	1	0.117	12.011
2720	CB	175	MPD1	C4	1	-0.15	12.011
2721	CB	175	MPD1	C5	1	-0.15	12.011
2722	HCMM	175	MPD1	H	1	0.15	1.0079
2723	HCMM	175	MPD1	H1	1	0.15	1.0079
2724	HCMM	175	MPD1	H2	1	0.15	1.0079
2725	HCMM	175	MPD1	H3	1	0.15	1.0079
2726	NC=O	175	MPD1	N	1	-0.547	14.0067
2727	HNCO	175	MPD1	H5	1	0.37	1.0079
2728	NC=C	175	MPD1	N1	1	-0.9	14.0067
2729	HNCO	175	MPD1	H6	1	0.4	1.0079
2730	HNCO	175	MPD1	H7	1	0.4	1.0079
2731	CB	176	MPD1	C	1	-0.15	12.011
2732	CB	176	MPD1	C1	1	0.1	12.011
2733	CB	176	MPD1	C2	1	-0.15	12.011
2734	CB	176	MPD1	C3	1	0.117	12.011
2735	CB	176	MPD1	C4	1	-0.15	12.011
2736	CB	176	MPD1	C5	1	-0.15	12.011
2737	HCMM	176	MPD1	H	1	0.15	1.0079
2738	HCMM	176	MPD1	H1	1	0.15	1.0079
2739	HCMM	176	MPD1	H2	1	0.15	1.0079
2740	HCMM	176	MPD1	H3	1	0.15	1.0079
2741	NC=O	176	MPD1	N	1	-0.547	14.0067
2742	HNCO	176	MPD1	H5	1	0.37	1.0079
2743	NC=C	176	MPD1	N1	1	-0.9	14.0067
2744	HNCO	176	MPD1	H6	1	0.4	1.0079
2745	HNCO	176	MPD1	H7	1	0.4	1.0079
2746	CB	177	MPD1	C	1	-0.15	12.011
2747	CB	177	MPD1	C1	1	0.1	12.011
2748	CB	177	MPD1	C2	1	-0.15	12.011
2749	CB	177	MPD1	C3	1	0.117	12.011
2750	CB	177	MPD1	C4	1	-0.15	12.011
2751	CB	177	MPD1	C5	1	-0.15	12.011
2752	HCMM	177	MPD1	H	1	0.15	1.0079
2753	HCMM	177	MPD1	H1	1	0.15	1.0079
2754	HCMM	177	MPD1	H2	1	0.15	1.0079
2755	HCMM	177	MPD1	H3	1	0.15	1.0079
2756	NC=O	177	MPD1	N	1	-0.547	14.0067
2757	HNCO	177	MPD1	H5	1	0.37	1.0079
2758	NC=C	177	MPD1	N1	1	-0.9	14.0067
2759	HNCO	177	MPD1	H6	1	0.4	1.0079
2760	HNCO	177	MPD1	H7	1	0.4	1.0079
2761	CB	178	MPD1	C	1	-0.15	12.011
2762	CB	178	MPD1	C1	1	0.1	12.011
2763	CB	178	MPD1	C2	1	-0.15	12.011
2764	CB	178	MPD1	C3	1	0.117	12.011
2765	CB	178	MPD1	C4	1	-0.15	12.011
2766	CB	178	MPD1	C5	1	-0.15	12.011
2767	HCMM	178	MPD1	H	1	0.15	1.0079
2768	HCMM	178	MPD1	H1	1	0.15	1.0079
2769	HCMM	178	MPD1	H2	1	0.15	1.0079
2770	HCMM	178	MPD1	H3	1	0.15	1.0079
2771	NC=O	178	MPD1	N	1	-0.547	14.0067
2772	HNCO	178	MPD1	H5	1	0.37	1.0079
2773	NC=C	178	MPD1	N1	1	-0.9	14.0067
2774	HNCO	178	MPD1	H6	1	0.4	1.0079
2775	HNCO	178	MPD1	H7	1	0.4	1.0079
2776	CB	179	MPD1	C	1	-0.15	12.011
2777	CB	179	MPD1	C1	1	0.1	12.011
2778	CB	179	MPD1	C2	1	-0.15	12.011
2779	CB	179	MPD1	C3	1	0.117	12.011
2780	CB	179	MPD1	C4	1	-0.15	12.011
2781	CB	179	MPD1	C5	1	-0.15	12.011
2782	HCMM	179	MPD1	H	1	0.15	1.0079
2783	HCMM	179	MPD1	H1	1	0.15	1.0079
2784	HCMM	179	MPD1	H2	1	0.15	1.0079
2785	HCMM	179	MPD1	H3	1	0.15	1.0079
2786	NC=O	179	MPD1	N	1	-0.547	14.0067
2787	HNCO	179	MPD1	H5	1	0.37	1.0079
2788	NC=C	179	MPD1	N1	1	-0.9	14.0067
2789	HNCO	179	MPD1	H6	1	0.4	1.0079
2790	HNCO	179	MPD1	H7	1	0.4	1.0079
2791	CB	180	MPD1	C	1	-0.15	12.011
2792	CB	180	MPD1	C1	1	0.1	12.011
2793	CB	180	MPD1	C2	1	-0.15	12.011
2794	CB	180	MPD1	C3	1	0.117	12.011
2795	CB	180	MPD1	C4	1	-0.15	12.011
2796	CB	180	MPD1	C5	1	-0.15	12.011
2797	HCMM	180	MPD1	H	1	0.15	1.0079
2798	HCMM	180	MPD1	H1	1	0.15	1.0079
2799	HCMM	180	MPD1	H2	1	0.15	1.0079
2800	HCMM	180	MPD1	H3	1	0.15	1.0079
2801	NC=O	180	MPD1	N	1	-0.547	14.0067
2802	HNCO	180	MPD1	H5	1	0.37	1.0079
2803	NC=C	180	MPD1	N1	1	-0.9	14.0067
2804	HNCO	180	MPD1	H6	1	0.4	1.0079
2805	HNCO	180	MPD1	H7	1	0.4	1.0079
2806	CB	181	MPD1	C	1	-0.15	12.011
2807	CB	181	MPD1	C1	1	0.1	12.011
2808	CB	181	MPD1	C2	1	-0.15	12.011
2809	CB	181	MPD1	C3	1	0.117	12.011
2810	CB	181	MPD1	C4	1	-0.15	12.011
2811	CB	181	MPD1	C5	1	-0.15	12.011
2812	HCMM	181	MPD1	H	1	0.15	1.0079
2813	HCMM	181	MPD1	H1	1	0.15	1.0079
2814	HCMM	181	MPD1	H2	1	0.15	1.0079
2815	HCMM	181	MPD1	H3	1	0.15	1.0079
2816	NC=O	181	MPD1	N	1	-0.547	14.0067
2817	HNCO	181	MPD1	H5	1	0.37	1.0079
2818	NC=C	181	MPD1	N1	1	-0.9	14.0067
2819	HNCO	181	MPD1	H6	1	0.4	1.0079
2820	HNCO	181	MPD1	H7	1	0.4	1.0079
2821	CB	182	MPD1	C	1	-0.15	12.011
2822	CB	182	MPD1	C1	1	0.1	12.011
2823	CB	182	MPD1	C2	1	-0.15	12.011
2824	CB	182	MPD1	C3	1	0.117	12.011
2825	CB	182	MPD1	C4	1	-0.15	12.011
2826	CB	182	MPD1	C5	1	-0.15	12.011
2827	HCMM	182	MPD1	H	1	0.15	1.0079
2828	HCMM	182	MPD1	H1	1	0.15	1.0079
2829	HCMM	182	MPD1	H2	1	0.15	1.0079
2830	HCMM	182	MPD1	H3	1	0.15	1.0079
2831	NC=O	182	MPD1	N	1	-0.547	14.0067
2832	HNCO	182	MPD1	H5	1	0.37	1.0079
2833	NC=C	182	MPD1	N1	1	-0.9	14.0067
2834	HNCO	182	MPD1	H6	1	0.4	1.0079
2835	HNCO	182	MPD1	H7	1	0.4	1.0079
2836	CB	183	MPD1	C	1	-0.15	12.011
2837	CB	183	MPD1	C1	1	0.1	12.011
2838	CB	183	MPD1	C2	1	-0.15	12.011
2839	CB	183	MPD1	C3	1	0.117	12.011
2840	CB	183	MPD1	C4	1	-0.15	12.011
2841	CB	183	MPD1	C5	1	-0.15	12.011
2842	HCMM	183	MPD1	H	1	0.15	1.0079
2843	HCMM	183	MPD1	H1	1	0.15	1.0079
2844	HCMM	183	MPD1	H2	1	0.15	1.0079
2845	HCMM	183	MPD1	H3	1	0.15	1.0079
2846	NC=O	183	MPD1	N	1	-0.547	14.0067
2847	HNCO	183	MPD1	H5	1	0.37	1.0079
2848	NC=C	183	MPD1	N1	1	-0.9	14.0067
2849	HNCO	183	MPD1	H6	1	0.4	1.0079
2850	HNCO	183	MPD1	H7	1	0.4	1.0079
2851	CB	184	MPD1	C	1	-0.15	12.011
2852	CB	184	MPD1	C1	1	0.1	12.011
2853	CB	184	MPD1	C2	1	-0.15	12.011
2854	CB	184	MPD1	C3	1	0.117	12.011
2855	CB	184	MPD1	C4	1	-0.15	12.011
2856	CB	184	MPD1	C5	1	-0.15	12.011
2857	HCMM	184	MPD1	H	1	0.15	1.0079
2858	HCMM	184	MPD1	H1	1	0.15	1.0079
2859	HCMM	184	MPD1	H2	1	0.15	1.0079
2860	HCMM	184	MPD1	H3	1	0.15	1.0079
2861	NC=O	184	MPD1	N	1	-0.547	14.0067
2862	HNCO	184	MPD1	H5	1	0.37	1.0079
2863	NC=C	184	MPD1	N1	1	-0.9	14.0067
2864	HNCO	184	MPD1	H6	1	0.4	1.0079
2865	HNCO	184	MPD1	H7	1	0.4	1.0079
2866	CB	185	MPD1	C	1	-0.15	12.011
2867	CB	185	MPD1	C1	1	0.1	12.011
2868	CB	185	MPD1	C2	1	-0.15	12.011
2869	CB	185	MPD1	C3	1	0.117	12.011
2870	CB	185	MPD1	C4	1	-0.15	12.011
2871	CB	185	MPD1	C5	1	-0.15	12.011
2872	HCMM	185	MPD1	H	1	0.15	1.0079
2873	HCMM	185	MPD1	H1	1	0.15	1.0079
2874	HCMM	185	MPD1	H2	1	0.15	1.0079
2875	HCMM	185	MPD1	H3	1	0.15	1.0079
2876	NC=O	185	MPD1	N	1	-0.547	14.0067
2877	HNCO	185	MPD1	H5	1	0.37	1.0079
2878	NC=C	185	MPD1	N1	1	-0.9	14.0067
2879	HNCO	185	MPD1	H6	1	0.4	1.0079
2880	HNCO	185	MPD1	H7	1	0.4	1.0079
2881	CB	186	MPD1	C	1	-0.15	12.011
2882	CB	186	MPD1	C1	1	0.1	12.011
2883	CB	186	MPD1	C2	1	-0.15	12.011
2884	CB	186	MPD1	C3	1	0.117	12.011
2885	CB	186	MPD1	C4	1	-0.15	12.011
2886	CB	186	MPD1	C5	1	-0.15	12.011
2887	HCMM	186	MPD1	H	1	0.15	1.0079
2888	HCMM	186	MPD1	H1	1	0.15	1.0079
2889	HCMM	186	MPD1	H2	1	0.15	1.0079
2890	HCMM	186	MPD1	H3	1	0.15	1.0079
2891	NC=O	186	MPD1	N	1	-0.547	14.0067
2892	HNCO	186	MPD1	H5	1	0.37	1.0079
2893	NC=C	186	MPD1	N1	1	-0.9	14.0067
2894	HNCO	186	MPD1	H6	1	0.4	1.0079
2895	HNCO	186	MPD1	H7	1	0.4	1.0079
2896	CB	187	MPD1	C	1	-0.15	12.011
2897	CB	187	MPD1	C1	1	0.1	12.011
2898	CB	187	MPD1	C2	1	-0.15	12.011
2899	CB	187	MPD1	C3	1	0.117	12.011
2900	CB	187	MPD1	C4	1	-0.15	12.011
2901	CB	187	MPD1	C5	1	-0.15	12.011
2902	HCMM	187	MPD1	H	1	0.15	1.0079
2903	HCMM	187	MPD1	H1	1	0.15	1.0079
2904	HCMM	187	MPD1	H2	1	0.15	1.0079
2905	HCMM	187	MPD1	H3	1	0.15	1.0079
2906	NC=O	187	MPD1	N	1	-0.547	14.0067
2907	HNCO	187	MPD1	H5	1	0.37	1.0079
2908	NC=C	187	MPD1	N1	1	-0.9	14.0067
2909	HNCO	187	MPD1	H6	1	0.4	1.0079
2910	HNCO	187	MPD1	H7	1	0.4	1.0079
2911	CB	188	MPD1	C	1	-0.15	12.011
2912	CB	188	MPD1	C1	1	0.1	12.011
2913	CB	188	MPD1	C2	1	-0.15	12.011
2914	CB	188	MPD1	C3	1	0.117	12.011
2915	CB	188	MPD1	C4	1	-0.15	12.011
2916	CB	188	MPD1	C5	1	-0.15	12.011
2917	HCMM	188	MPD1	H	1	0.15	1.0079
2918	HCMM	188	MPD1	H1	1	0.15	1.0079
2919	HCMM	188	MPD1	H2	1	0.15	1.0079
2920	HCMM	188	MPD1	H3	1	0.15	1.0079
2921	NC=O	188	MPD1	N	1	-0.547	14.0067
2922	HNCO	188	MPD1	H5	1	0.37	1.0079
2923	NC=C	188	MPD1	N1	1	-0.9	14.0067
2924	HNCO	188	MPD1	H6	1	0.4	1.0079
2925	HNCO	188	MPD1	H7	1	0.4	1.0079
2926	CB	189	MPD1	C	1	-0.15	12.011
2927	CB	189	MPD1	C1	1	0.1	12.011
2928	CB	189	MPD1	C2	1	-0.15	12.011
2929	CB	189	MPD1	C3	1	0.117	12.011
2930	CB	189	MPD1	C4	1	-0.15	12.011
2931	CB	189	MPD1	C5	1	-0.15	12.011
2932	HCMM	189	MPD1	H	1	0.15	1.0079
2933	HCMM	189	MPD1	H1	1	0.15	1.0079
2934	HCMM	189	MPD1	H2	1	0.15	1.0079
2935	HCMM	189	MPD1	H3	1	0.15	1.0079
2936	NC=O	189	MPD1	N	1	-0.547	14.0067
2937	HNCO	189	MPD1	H5	1	0.37	1.0079
2938	NC=C	189	MPD1	N1	1	-0.9	14.0067
2939	HNCO	189	MPD1	H6	1	0.4	1.0079
2940	HNCO	189	MPD1	H7	1	0.4	1.0079
2941	CB	190	MPD1	C	1	-0.15	12.011
2942	CB	190	MPD1	C1	1	0.1	12.011
2943	CB	190	MPD1	C2	1	-0.15	12.011
2944	CB	190	MPD1	C3	1	0.117	12.011
2945	CB	190	MPD1	C4	1	-0.15	12.011
2946	CB	190	MPD1	C5	1	-0.15	12.011
2947	HCMM	190	MPD1	H	1	0.15	1.0079
2948	HCMM	190	MPD1	H1	1	0.15	1.0079
2949	HCMM	190	MPD1	H2	1	0.15	1.0079
2950	HCMM	190	MPD1	H3	1	0.15	1.0079
2951	NC=O	190	MPD1	N	1	-0.547	14.0067
2952	HNCO	190	MPD1	H5	1	0.37	1.0079
2953	NC=C	190	MPD1	N1	1	-0.9	14.0067
2954	HNCO	190	MPD1	H6	1	0.4	1.0079
2955	HNCO	190	MPD1	H7	1	0.4	1.0079
2956	CB	191	MPD1	C	1	-0.15	12.011
2957	CB	191	MPD1	C1	1	0.1	12.011
2958	CB	191	MPD1	C2	1	-0.15	12.011
2959	CB	191	MPD1	C3	1	0.117	12.011
2960	CB	191	MPD1	C4	1	-0.15	12.011
2961	CB	191	MPD1	C5	1	-0.15	12.011
2962	HCMM	191	MPD1	H	1	0.15	1.0079
2963	HCMM	191	MPD1	H1	1	0.15	1.0079
2964	HCMM	191	MPD1	H2	1	0.15	1.0079
2965	HCMM	191	MPD1	H3	1	0.15	1.0079
2966	NC=O	191	MPD1	N	1	-0.547	14.0067
2967	HNCO	191	MPD1	H5	1	0.37	1.0079
2968	NC=C	191	MPD1	N1	1	-0.9	14.0067
2969	HNCO	191	MPD1	H6	1	0.4	1.0079
2970	HNCO	191	MPD1	H7	1	0.4	1.0079
2971	CB	192	MPD1	C	1	-0.15	12.011
2972	CB	192	MPD1	C1	1	0.1	12.011
2973	CB	192	MPD1	C2	1	-0.15	12.011
2974	CB	192	MPD1	C3	1	0.117	12.011
2975	CB	192	MPD1	C4	1	-0.15	12.011
2976	CB	192	MPD1	C5	1	-0.15	12.011
2977	HCMM	192	MPD1	H	1	0.15	1.0079
2978	HCMM	192	MPD1	H1	1	0.15	1.0079
2979	HCMM	192	MPD1	H2	1	0.15	1.0079
2980	HCMM	192	MPD1	H3	1	0.15	1.0079
2981	NC=O	192	MPD1	N	1	-0.547	14.0067
2982	HNCO	192	MPD1	H5	1	0.37	1.0079
2983	NC=C	192	MPD1	N1	1	-0.9	14.0067
2984	HNCO	192	MPD1	H6	1	0.4	1.0079
2985	HNCO	192	MPD1	H7	1	0.4	1.0079
2986	CB	193	MPD1	C	1	-0.15	12.011
2987	CB	193	MPD1	C1	1	0.1	12.011
2988	CB	193	MPD1	C2	1	-0.15	12.011
2989	CB	193	MPD1	C3	1	0.117	12.011
2990	CB	193	MPD1	C4	1	-0.15	12.011
2991	CB	193	MPD1	C5	1	-0.15	12.011
2992	HCMM	193	MPD1	H	1	0.15	1.0079
2993	HCMM	193	MPD1	H1	1	0.15	1.0079
2994	HCMM	193	MPD1	H2	1	0.15	1.0079
2995	HCMM	193	MPD1	H3	1	0.15	1.0079
2996	NC=O	193	MPD1	N	1	-0.547	14.0067
2997	HNCO	193	MPD1	H5	1	0.37	1.0079
2998	NC=C	193	MPD1	N1	1	-0.9	14.0067
2999	HNCO	193	MPD1	H6	1	0.4	1.0079
3000	HNCO	193	MPD1	H7	1	0.4	1.0079
3001	CB	194	MPD1	C	1	-0.15	12.011
3002	CB	194	MPD1	C1	1	0.1	12.011
3003	CB	194	MPD1	C2	1	-0.15	12.011
3004	CB	194	MPD1	C3	1	0.117	12.011
3005	CB	194	MPD1	C4	1	-0.15	12.011
3006	CB	194	MPD1	C5	1	-0.15	12.011
3007	HCMM	194	MPD1	H	1	0.15	1.0079
3008	HCMM	194	MPD1	H1	1	0.15	1.0079
3009	HCMM	194	MPD1	H2	1	0.15	1.0079
3010	HCMM	194	MPD1	H3	1	0.15	1.0079
3011	NC=O	194	MPD1	N	1	-0.547	14.0067
3012	HNCO	194	MPD1	H5	1	0.37	1.0079
3013	NC=C	194	MPD1	N1	1	-0.9	14.0067
3014	HNCO	194	MPD1	H6	1	0.4	1.0079
3015	HNCO	194	MPD1	H7	1	0.4	1.0079
3016	CB	195	MPD1	C	1	-0.15	12.011
3017	CB	195	MPD1	C1	1	0.1	12.011
3018	CB	195	MPD1	C2	1	-0.15	12.011
3019	CB	195	MPD1	C3	1	0.117	12.011
3020	CB	195	MPD1	C4	1	-0.15	12.011
3021	CB	195	MPD1	C5	1	-0.15	12.011
3022	HCMM	195	MPD1	H	1	0.15	1.0079
3023	HCMM	195	MPD1	H1	1	0.15	1.0079
3024	HCMM	195	MPD1	H2	1	0.15	1.0079
3025	HCMM	195	MPD1	H3	1	0.15	1.0079
3026	NC=O	195	MPD1	N	1	-0.547	14.0067
3027	HNCO	195	MPD1	H5	1	0.37	1.0079
3028	NC=C	195	MPD1	N1	1	-0.9	14.0067
3029	HNCO	195	MPD1	H6	1	0.4	1.0079
3030	HNCO	195	MPD1	H7	1	0.4	1.0079
3031	CB	196	MPD1	C	1	-0.15	12.011
3032	CB	196	MPD1	C1	1	0.1	12.011
3033	CB	196	MPD1	C2	1	-0.15	12.011
3034	CB	196	MPD1	C3	1	0.117	12.011
3035	CB	196	MPD1	C4	1	-0.15	12.011
3036	CB	196	MPD1	C5	1	-0.15	12.011
3037	HCMM	196	MPD1	H	1	0.15	1.0079
3038	HCMM	196	MPD1	H1	1	0.15	1.0079
3039	HCMM	196	MPD1	H2	1	0.15	1.0079
3040	HCMM	196	MPD1	H3	1	0.15	1.0079
3041	NC=O	196	MPD1	N	1	-0.547	14.0067
3042	HNCO	196	MPD1	H5	1	0.37	1.0079
3043	NC=C	196	MPD1	N1	1	-0.9	14.0067
3044	HNCO	196	MPD1	H6	1	0.4	1.0079
3045	HNCO	196	MPD1	H7	1	0.4	1.0079
3046	CB	197	MPD1	C	1	-0.15	12.011
3047	CB	197	MPD1	C1	1	0.1	12.011
3048	CB	197	MPD1	C2	1	-0.15	12.011
3049	CB	197	MPD1	C3	1	0.117	12.011
3050	CB	197	MPD1	C4	1	-0.15	12.011
3051	CB	197	MPD1	C5	1	-0.15	12.011
3052	HCMM	197	MPD1	H	1	0.15	1.0079
3053	HCMM	197	MPD1	H1	1	0.15	1.0079
3054	HCMM	197	MPD1	H2	1	0.15	1.0079
3055	HCMM	197	MPD1	H3	1	0.15	1.0079
3056	NC=O	197	MPD1	N	1	-0.547	14.0067
3057	HNCO	197	MPD1	H5	1	0.37	1.0079
3058	NC=C	197	MPD1	N1	1	-0.9	14.0067
3059	HNCO	197	MPD1	H6	1	0.4	1.0079
3060	HNCO	197	MPD1	H7	1	0.4	1.0079
3061	CB	198	MPD1	C	1	-0.15	12.011
3062	CB	198	MPD1	C1	1	0.1	12.011
3063	CB	198	MPD1	C2	1	-0.15	12.011
3064	CB	198	MPD1	C3	1	0.117	12.011
3065	CB	198	MPD1	C4	1	-0.15	12.011
3066	CB	198	MPD1	C5	1	-0.15	12.011
3067	HCMM	198	MPD1	H	1	0.15	1.0079
3068	HCMM	198	MPD1	H1	1	0.15	1.0079
3069	HCMM	198	MPD1	H2	1	0.15	1.0079
3070	HCMM	198	MPD1	H3	1	0.15	1.0079
3071	NC=O	198	MPD1	N	1	-0.547	14.0067
3072	HNCO	198	MPD1	H5	1	0.37	1.0079
3073	NC=C	198	MPD1	N1	1	-0.9	14.0067
3074	HNCO	198	MPD1	H6	1	0.4	1.0079
3075	HNCO	198	MPD1	H7	1	0.4	1.0079
3076	CB	199	MPD1	C	1	-0.15	12.011
3077	CB	199	MPD1	C1	1	0.1	12.011
3078	CB	199	MPD1	C2	1	-0.15	12.011
3079	CB	199	MPD1	C3	1	0.117	12.011
3080	CB	199	MPD1	C4	1	-0.15	12.011
3081	CB	199	MPD1	C5	1	-0.15	12.011
3082	HCMM	199	MPD1	H	1	0.15	1.0079
3083	HCMM	199	MPD1	H1	1	0.15	1.0079
3084	HCMM	199	MPD1	H2	1	0.15	1.0079
3085	HCMM	199	MPD1	H3	1	0.15	1.0079
3086	NC=O	199	MPD1	N	1	-0.547	14.0067
3087	HNCO	199	MPD1	H5	1	0.37	1.0079
3088	NC=C	199	MPD1	N1	1	-0.9	14.0067
3089	HNCO	199	MPD1	H6	1	0.4	1.0079
3090	HNCO	199	MPD1	H7	1	0.4	1.0079
3091	CB	200	MPD1	C	1	-0.15	12.011
3092	CB	200	MPD1	C1	1	0.1	12.011
3093	CB	200	MPD1	C2	1	-0.15	12.011
3094	CB	200	MPD1	C3	1	0.117	12.011
3095	CB	200	MPD1	C4	1	-0.15	12.011
3096	CB	200	MPD1	C5	1	-0.15	12.011
3097	HCMM	200	MPD1	H	1	0.15	1.0079
3098	HCMM	200	MPD1	H1	1	0.15	1.0079
3099	HCMM	200	MPD1	H2	1	0.15	1.0079
3100	HCMM	200	MPD1	H3	1	0.15	1.0079
3101	NC=O	200	MPD1	N	1	-0.547	14.0067
3102	HNCO	200	MPD1	H5	1	0.37	1.0079
3103	NC=C	200	MPD1	N1	1	-0.9	14.0067
3104	HNCO	200	MPD1	H6	1	0.4	1.0079
3105	HNCO	200	MPD1	H7	1	0.4	1.0079
3106	CB	201	MPD1	C	1	-0.15	12.011
3107	CB	201	MPD1	C1	1	0.1	12.011
3108	CB	201	MPD1	C2	1	-0.15	12.011
3109	CB	201	MPD1	C3	1	0.117	12.011
3110	CB	201	MPD1	C4	1	-0.15	12.011
3111	CB	201	MPD1	C5	1	-0.15	12.011
3112	HCMM	201	MPD1	H	1	0.15	1.0079
3113	HCMM	201	MPD1	H1	1	0.15	1.0079
3114	HCMM	201	MPD1	H2	1	0.15	1.0079
3115	HCMM	201	MPD1	H3	1	0.15	1.0079
3116	NC=O	201	MPD1	N	1	-0.547	14.0067
3117	HNCO	201	MPD1	H5	1	0.37	1.0079
3118	NC=C	201	MPD1	N1	1	-0.9	14.0067
3119	HNCO	201	MPD1	H6	1	0.4	1.0079
3120	HNCO	201	MPD1	H7	1	0.4	1.0079
3121	CB	202	MPD1	C	1	-0.15	12.011
3122	CB	202	MPD1	C1	1	0.1	12.011
3123	CB	202	MPD1	C2	1	-0.15	12.011
3124	CB	202	MPD1	C3	1	0.117	12.011
3125	CB	202	MPD1	C4	1	-0.15	12.011
3126	CB	202	MPD1	C5	1	-0.15	12.011
3127	HCMM	202	MPD1	H	1	0.15	1.0079
3128	HCMM	202	MPD1	H1	1	0.15	1.0079
3129	HCMM	202	MPD1	H2	1	0.15	1.0079
3130	HCMM	202	MPD1	H3	1	0.15	1.0079
3131	NC=O	202	MPD1	N	1	-0.547	14.0067
3132	HNCO	202	MPD1	H5	1	0.37	1.0079
3133	NC=C	202	MPD1	N1	1	-0.9	14.0067
3134	HNCO	202	MPD1	H6	1	0.4	1.0079
3135	HNCO	202	MPD1	H7	1	0.4	1.0079
3136	CB	203	MPD1	C	1	-0.15	12.011
3137	CB	203	MPD1	C1	1	0.1	12.011
3138	CB	203	MPD1	C2	1	-0.15	12.011
3139	CB	203	MPD1	C3	1	0.117	12.011
3140	CB	203	MPD1	C4	1	-0.15	12.011
3141	CB	203	MPD1	C5	1	-0.15	12.011
3142	HCMM	203	MPD1	H	1	0.15	1.0079
3143	HCMM	203	MPD1	H1	1	0.15	1.0079
3144	HCMM	203	MPD1	H2	1	0.15	1.0079
3145	HCMM	203	MPD1	H3	1	0.15	1.0079
3146	NC=O	203	MPD1	N	1	-0.547	14.0067
3147	HNCO	203	MPD1	H5	1	0.37	1.0079
3148	NC=C	203	MPD1	N1	1	-0.9	14.0067
3149	HNCO	203	MPD1	H6	1	0.4	1.0079
3150	HNCO	203	MPD1	H7	1	0.4	1.0079
3151	CB	204	MPD1	C	1	-0.15	12.011
3152	CB	204	MPD1	C1	1	0.1	12.011
3153	CB	204	MPD1	C2	1	-0.15	12.011
3154	CB	204	MPD1	C3	1	0.117	12.011
3155	CB	204	MPD1	C4	1	-0.15	12.011
3156	CB	204	MPD1	C5	1	-0.15	12.011
3157	HCMM	204	MPD1	H	1	0.15	1.0079
3158	HCMM	204	MPD1	H1	1	0.15	1.0079
3159	HCMM	204	MPD1	H2	1	0.15	1.0079
3160	HCMM	204	MPD1	H3	1	0.15	1.0079
3161	NC=O	204	MPD1	N	1	-0.547	14.0067
3162	HNCO	204	MPD1	H5	1	0.37	1.0079
3163	NC=C	204	MPD1	N1	1	-0.9	14.0067
3164	HNCO	204	MPD1	H6	1	0.4	1.0079
3165	HNCO	204	MPD1	H7	1	0.4	1.0079
3166	CB	205	MPD1	C	1	-0.15	12.011
3167	CB	205	MPD1	C1	1	0.1	12.011
3168	CB	205	MPD1	C2	1	-0.15	12.011
3169	CB	205	MPD1	C3	1	0.117	12.011
3170	CB	205	MPD1	C4	1	-0.15	12.011
3171	CB	205	MPD1	C5	1	-0.15	12.011
3172	HCMM	205	MPD1	H	1	0.15	1.0079
3173	HCMM	205	MPD1	H1	1	0.15	1.0079
3174	HCMM	205	MPD1	H2	1	0.15	1.0079
3175	HCMM	205	MPD1	H3	1	0.15	1.0079
3176	NC=O	205	MPD1	N	1	-0.547	14.0067
3177	HNCO	205	MPD1	H5	1	0.37	1.0079
3178	NC=C	205	MPD1	N1	1	-0.9	14.0067
3179	HNCO	205	MPD1	H6	1	0.4	1.0079
3180	HNCO	205	MPD1	H7	1	0.4	1.0079
3181	CB	206	MPD1	C	1	-0.15	12.011
3182	CB	206	MPD1	C1	1	0.1	12.011
3183	CB	206	MPD1	C2	1	-0.15	12.011
3184	CB	206	MPD1	C3	1	0.117	12.011
3185	CB	206	MPD1	C4	1	-0.15	12.011
3186	CB	206	MPD1	C5	1	-0.15	12.011
3187	HCMM	206	MPD1	H	1	0.15	1.0079
3188	HCMM	206	MPD1	H1	1	0.15	1.0079
3189	HCMM	206	MPD1	H2	1	0.15	1.0079
3190	HCMM	206	MPD1	H3	1	0.15	1.0079
3191	NC=O	206	MPD1	N	1	-0.547	14.0067
3192	HNCO	206	MPD1	H5	1	0.37	1.0079
3193	NC=C	206	MPD1	N1	1	-0.9	14.0067
3194	HNCO	206	MPD1	H6	1	0.4	1.0079
3195	HNCO	206	MPD1	H7	1	0.4	1.0079
3196	CB	207	MPD1	C	1	-0.15	12.011
3197	CB	207	MPD1	C1	1	0.1	12.011
3198	CB	207	MPD1	C2	1	-0.15	12.011
3199	CB	207	MPD1	C3	1	0.117	12.011
3200	CB	207	MPD1	C4	1	-0.15	12.011
3201	CB	207	MPD1	C5	1	-0.15	12.011
3202	HCMM	207	MPD1	H	1	0.15	1.0079
3203	HCMM	207	MPD1	H1	1	0.15	1.0079
3204	HCMM	207	MPD1	H2	1	0.15	1.0079
3205	HCMM	207	MPD1	H3	1	0.15	1.0079
3206	NC=O	207	MPD1	N	1	-0.547	14.0067
3207	HNCO	207	MPD1	H5	1	0.37	1.0079
3208	NC=C	207	MPD1	N1	1	-0.9	14.0067
3209	HNCO	207	MPD1	H6	1	0.4	1.0079
3210	HNCO	207	MPD1	H7	1	0.4	1.0079
3211	CB	208	MPD1	C	1	-0.15	12.011
3212	CB	208	MPD1	C1	1	0.1	12.011
3213	CB	208	MPD1	C2	1	-0.15	12.011
3214	CB	208	MPD1	C3	1	0.117	12.011
3215	CB	208	MPD1	C4	1	-0.15	12.011
3216	CB	208	MPD1	C5	1	-0.15	12.011
3217	HCMM	208	MPD1	H	1	0.15	1.0079
3218	HCMM	208	MPD1	H1	1	0.15	1.0079
3219	HCMM	208	MPD1	H2	1	0.15	1.0079
3220	HCMM	208	MPD1	H3	1	0.15	1.0079
3221	NC=O	208	MPD1	N	1	-0.547	14.0067
3222	HNCO	208	MPD1	H5	1	0.37	1.0079
3223	NC=C	208	MPD1	N1	1	-0.9	14.0067
3224	HNCO	208	MPD1	H6	1	0.4	1.0079
3225	HNCO	208	MPD1	H7	1	0.4	1.0079
3226	CB	209	MPD1	C	1	-0.15	12.011
3227	CB	209	MPD1	C1	1	0.1	12.011
3228	CB	209	MPD1	C2	1	-0.15	12.011
3229	CB	209	MPD1	C3	1	0.117	12.011
3230	CB	209	MPD1	C4	1	-0.15	12.011
3231	CB	209	MPD1	C5	1	-0.15	12.011
3232	HCMM	209	MPD1	H	1	0.15	1.0079
3233	HCMM	209	MPD1	H1	1	0.15	1.0079
3234	HCMM	209	MPD1	H2	1	0.15	1.0079
3235	HCMM	209	MPD1	H3	1	0.15	1.0079
3236	NC=O	209	MPD1	N	1	-0.547	14.0067
3237	HNCO	209	MPD1	H5	1	0.37	1.0079
3238	NC=C	209	MPD1	N1	1	-0.9	14.0067
3239	HNCO	209	MPD1	H6	1	0.4	1.0079
3240	HNCO	209	MPD1	H7	1	0.4	1.0079
3241	CB	210	MPD1	C	1	-0.15	12.011
3242	CB	210	MPD1	C1	1	0.1	12.011
3243	CB	210	MPD1	C2	1	-0.15	12.011
3244	CB	210	MPD1	C3	1	0.117	12.011
3245	CB	210	MPD1	C4	1	-0.15	12.011
3246	CB	210	MPD1	C5	1	-0.15	12.011
3247	HCMM	210	MPD1	H	1	0.15	1.0079
3248	HCMM	210	MPD1	H1	1	0.15	1.0079
3249	HCMM	210	MPD1	H2	1	0.15	1.0079
3250	HCMM	210	MPD1	H3	1	0.15	1.0079
3251	NC=O	210	MPD1	N	1	-0.547	14.0067
3252	HNCO	210	MPD1	H5	1	0.37	1.0079
3253	NC=C	210	MPD1	N1	1	-0.9	14.0067
3254	HNCO	210	MPD1	H6	1	0.4	1.0079
3255	HNCO	210	MPD1	H7	1	0.4	1.0079
3256	CB	211	MPD1	C	1	-0.15	12.011
3257	CB	211	MPD1	C1	1	0.1	12.011
3258	CB	211	MPD1	C2	1	-0.15	12.011
3259	CB	211	MPD1	C3	1	0.117	12.011
3260	CB	211	MPD1	C4	1	-0.15	12.011
3261	CB	211	MPD1	C5	1	-0.15	12.011
3262	HCMM	211	MPD1	H	1	0.15	1.0079
3263	HCMM	211	MPD1	H1	1	0.15	1.0079
3264	HCMM	211	MPD1	H2	1	0.15	1.0079
3265	HCMM	211	MPD1	H3	1	0.15	1.0079
3266	NC=O	211	MPD1	N	1	-0.547	14.0067
3267	HNCO	211	MPD1	H5	1	0.37	1.0079
3268	NC=C	211	MPD1	N1	1	-0.9	14.0067
3269	HNCO	211	MPD1	H6	1	0.4	1.0079
3270	HNCO	211	MPD1	H7	1	0.4	1.0079
3271	CB	212	MPD1	C	1	-0.15	12.011
3272	CB	212	MPD1	C1	1	0.1	12.011
3273	CB	212	MPD1	C2	1	-0.15	12.011
3274	CB	212	MPD1	C3	1	0.117	12.011
3275	CB	212	MPD1	C4	1	-0.15	12.011
3276	CB	212	MPD1	C5	1	-0.15	12.011
3277	HCMM	212	MPD1	H	1	0.15	1.0079
3278	HCMM	212	MPD1	H1	1	0.15	1.0079
3279	HCMM	212	MPD1	H2	1	0.15	1.0079
3280	HCMM	212	MPD1	H3	1	0.15	1.0079
3281	NC=O	212	MPD1	N	1	-0.547	14.0067
3282	HNCO	212	MPD1	H5	1	0.37	1.0079
3283	NC=C	212	MPD1	N1	1	-0.9	14.0067
3284	HNCO	212	MPD1	H6	1	0.4	1.0079
3285	HNCO	212	MPD1	H7	1	0.4	1.0079
3286	CB	213	MPD1	C	1	-0.15	12.011
3287	CB	213	MPD1	C1	1	0.1	12.011
3288	CB	213	MPD1	C2	1	-0.15	12.011
3289	CB	213	MPD1	C3	1	0.117	12.011
3290	CB	213	MPD1	C4	1	-0.15	12.011
3291	CB	213	MPD1	C5	1	-0.15	12.011
3292	HCMM	213	MPD1	H	1	0.15	1.0079
3293	HCMM	213	MPD1	H1	1	0.15	1.0079
3294	HCMM	213	MPD1	H2	1	0.15	1.0079
3295	HCMM	213	MPD1	H3	1	0.15	1.0079
3296	NC=O	213	MPD1	N	1	-0.547	14.0067
3297	HNCO	213	MPD1	H5	1	0.37	1.0079
3298	NC=C	213	MPD1	N1	1	-0.9	14.0067
3299	HNCO	213	MPD1	H6	1	0.4	1.0079
3300	HNCO	213	MPD1	H7	1	0.4	1.0079
3301	CB	214	MPD1	C	1	-0.15	12.011
3302	CB	214	MPD1	C1	1	0.1	12.011
3303	CB	214	MPD1	C2	1	-0.15	12.011
3304	CB	214	MPD1	C3	1	0.117	12.011
3305	CB	214	MPD1	C4	1	-0.15	12.011
3306	CB	214	MPD1	C5	1	-0.15	12.011
3307	HCMM	214	MPD1	H	1	0.15	1.0079
3308	HCMM	214	MPD1	H1	1	0.15	1.0079
3309	HCMM	214	MPD1	H2	1	0.15	1.0079
3310	HCMM	214	MPD1	H3	1	0.15	1.0079
3311	NC=O	214	MPD1	N	1	-0.547	14.0067
3312	HNCO	214	MPD1	H5	1	0.37	1.0079
3313	NC=C	214	MPD1	N1	1	-0.9	14.0067
3314	HNCO	214	MPD1	H6	1	0.4	1.0079
3315	HNCO	214	MPD1	H7	1	0.4	1.0079
3316	CB	215	MPD1	C	1	-0.15	12.011
3317	CB	215	MPD1	C1	1	0.1	12.011
3318	CB	215	MPD1	C2	1	-0.15	12.011
3319	CB	215	MPD1	C3	1	0.117	12.011
3320	CB	215	MPD1	C4	1	-0.15	12.011
3321	CB	215	MPD1	C5	1	-0.15	12.011
3322	HCMM	215	MPD1	H	1	0.15	1.0079
3323	HCMM	215	MPD1	H1	1	0.15	1.0079
3324	HCMM	215	MPD1	H2	1	0.15	1.0079
3325	HCMM	215	MPD1	H3	1	0.15	1.0079
3326	NC=O	215	MPD1	N	1	-0.547	14.0067
3327	HNCO	215	MPD1	H5	1	0.37	1.0079
3328	NC=C	215	MPD1	N1	1	-0.9	14.0067
3329	HNCO	215	MPD1	H6	1	0.4	1.0079
3330	HNCO	215	MPD1	H7	1	0.4	1.0079
3331	CB	216	MPD1	C	1	-0.15	12.011
3332	CB	216	MPD1	C1	1	0.1	12.011
3333	CB	216	MPD1	C2	1	-0.15	12.011
3334	CB	216	MPD1	C3	1	0.117	12.011
3335	CB	216	MPD1	C4	1	-0.15	12.011
3336	CB	216	MPD1	C5	1	-0.15	12.011
3337	HCMM	216	MPD1	H	1	0.15	1.0079
3338	HCMM	216	MPD1	H1	1	0.15	1.0079
3339	HCMM	216	MPD1	H2	1	0.15	1.0079
3340	HCMM	216	MPD1	H3	1	0.15	1.0079
3341	NC=O	216	MPD1	N	1	-0.547	14.0067
3342	HNCO	216	MPD1	H5	1	0.37	1.0079
3343	NC=C	216	MPD1	N1	1	-0.9	14.0067
3344	HNCO	216	MPD1	H6	1	0.4	1.0079
3345	HNCO	216	MPD1	H7	1	0.4	1.0079
3346	CB	217	MPD1	C	1	-0.15	12.011
3347	CB	217	MPD1	C1	1	0.1	12.011
3348	CB	217	MPD1	C2	1	-0.15	12.011
3349	CB	217	MPD1	C3	1	0.117	12.011
3350	CB	217	MPD1	C4	1	-0.15	12.011
3351	CB	217	MPD1	C5	1	-0.15	12.011
3352	HCMM	217	MPD1	H	1	0.15	1.0079
3353	HCMM	217	MPD1	H1	1	0.15	1.0079
3354	HCMM	217	MPD1	H2	1	0.15	1.0079
3355	HCMM	217	MPD1	H3	1	0.15	1.0079
3356	NC=O	217	MPD1	N	1	-0.547	14.0067
3357	HNCO	217	MPD1	H5	1	0.37	1.0079
3358	NC=C	217	MPD1	N1	1	-0.9	14.0067
3359	HNCO	217	MPD1	H6	1	0.4	1.0079
3360	HNCO	217	MPD1	H7	1	0.4	1.0079
3361	CB	218	MPD1	C	1	-0.15	12.011
3362	CB	218	MPD1	C1	1	0.1	12.011
3363	CB	218	MPD1	C2	1	-0.15	12.011
3364	CB	218	MPD1	C3	1	0.117	12.011
3365	CB	218	MPD1	C4	1	-0.15	12.011
3366	CB	218	MPD1	C5	1	-0.15	12.011
3367	HCMM	218	MPD1	H	1	0.15	1.0079
3368	HCMM	218	MPD1	H1	1	0.15	1.0079
3369	HCMM	218	MPD1	H2	1	0.15	1.0079
3370	HCMM	218	MPD1	H3	1	0.15	1.0079
3371	NC=O	218	MPD1	N	1	-0.547	14.0067
3372	HNCO	218	MPD1	H5	1	0.37	1.0079
3373	NC=C	218	MPD1	N1	1	-0.9	14.0067
3374	HNCO	218	MPD1	H6	1	0.4	1.0079
3375	HNCO	218	MPD1	H7	1	0.4	1.0079
3376	CB	219	MPD1	C	1	-0.15	12.011
3377	CB	219	MPD1	C1	1	0.1	12.011
3378	CB	219	MPD1	C2	1	-0.15	12.011
3379	CB	219	MPD1	C3	1	0.117	12.011
3380	CB	219	MPD1	C4	1	-0.15	12.011
3381	CB	219	MPD1	C5	1	-0.15	12.011
3382	HCMM	219	MPD1	H	1	0.15	1.0079
3383	HCMM	219	MPD1	H1	1	0.15	1.0079
3384	HCMM	219	MPD1	H2	1	0.15	1.0079
3385	HCMM	219	MPD1	H3	1	0.15	1.0079
3386	NC=O	219	MPD1	N	1	-0.547	14.0067
3387	HNCO	219	MPD1	H5	1	0.37	1.0079
3388	NC=C	219	MPD1	N1	1	-0.9	14.0067
3389	HNCO	219	MPD1	H6	1	0.4	1.0079
3390	HNCO	219	MPD1	H7	1	0.4	1.0079
3391	CB	220	MPD1	C	1	-0.15	12.011
3392	CB	220	MPD1	C1	1	0.1	12.011
3393	CB	220	MPD1	C2	1	-0.15	12.011
3394	CB	220	MPD1	C3	1	0.117	12.011
3395	CB	220	MPD1	C4	1	-0.15	12.011
3396	CB	220	MPD1	C5	1	-0.15	12.011
3397	HCMM	220	MPD1	H	1	0.15	1.0079
3398	HCMM	220	MPD1	H1	1	0.15	1.0079
3399	HCMM	220	MPD1	H2	1	0.15	1.0079
3400	HCMM	220	MPD1	H3	1	0.15	1.0079
3401	NC=O	220	MPD1	N	1	-0.547	14.0067
3402	HNCO	220	MPD1	H5	1	0.37	1.0079
3403	NC=C	220	MPD1	N1	1	-0.9	14.0067
3404	HNCO	220	MPD1	H6	1	0.4	1.0079
3405	HNCO	220	MPD1	H7	1	0.4	1.0079
3406	CB	221	MPD1	C	1	-0.15	12.011
3407	CB	221	MPD1	C1	1	0.1	12.011
3408	CB	221	MPD1	C2	1	-0.15	12.011
3409	CB	221	MPD1	C3	1	0.117	12.011
3410	CB	221	MPD1	C4	1	-0.15	12.011
3411	CB	221	MPD1	C5	1	-0.15	12.011
3412	HCMM	221	MPD1	H	1	0.15	1.0079
3413	HCMM	221	MPD1	H1	1	0.15	1.0079
3414	HCMM	221	MPD1	H2	1	0.15	1.0079
3415	HCMM	221	MPD1	H3	1	0.15	1.0079
3416	NC=O	221	MPD1	N	1	-0.547	14.0067
3417	HNCO	221	MPD1	H5	1	0.37	1.0079
3418	NC=C	221	MPD1	N1	1	-0.9	14.0067
3419	HNCO	221	MPD1	H6	1	0.4	1.0079
3420	HNCO	221	MPD1	H7	1	0.4	1.0079
3421	CB	222	MPD1	C	1	-0.15	12.011
3422	CB	222	MPD1	C1	1	0.1	12.011
3423	CB	222	MPD1	C2	1	-0.15	12.011
3424	CB	222	MPD1	C3	1	0.117	12.011
3425	CB	222	MPD1	C4	1	-0.15	12.011
3426	CB	222	MPD1	C5	1	-0.15	12.011
3427	HCMM	222	MPD1	H	1	0.15	1.0079
3428	HCMM	222	MPD1	H1	1	0.15	1.0079
3429	HCMM	222	MPD1	H2	1	0.15	1.0079
3430	HCMM	222	MPD1	H3	1	0.15	1.0079
3431	NC=O	222	MPD1	N	1	-0.547	14.0067
3432	HNCO	222	MPD1	H5	1	0.37	1.0079
3433	NC=C	222	MPD1	N1	1	-0.9	14.0067
3434	HNCO	222	MPD1	H6	1	0.4	1.0079
3435	HNCO	222	MPD1	H7	1	0.4	1.0079
3436	CB	223	MPD1	C	1	-0.15	12.011
3437	CB	223	MPD1	C1	1	0.1	12.011
3438	CB	223	MPD1	C2	1	-0.15	12.011
3439	CB	223	MPD1	C3	1	0.117	12.011
3440	CB	223	MPD1	C4	1	-0.15	12.011
3441	CB	223	MPD1	C5	1	-0.15	12.011
3442	HCMM	223	MPD1	H	1	0.15	1.0079
3443	HCMM	223	MPD1	H1	1	0.15	1.0079
3444	HCMM	223	MPD1	H2	1	0.15	1.0079
3445	HCMM	223	MPD1	H3	1	0.15	1.0079
3446	NC=O	223	MPD1	N	1	-0.547	14.0067
3447	HNCO	223	MPD1	H5	1	0.37	1.0079
3448	NC=C	223	MPD1	N1	1	-0.9	14.0067
3449	HNCO	223	MPD1	H6	1	0.4	1.0079
3450	HNCO	223	MPD1	H7	1	0.4	1.0079
3451	CB	224	MPD1	C	1	-0.15	12.011
3452	CB	224	MPD1	C1	1	0.1	12.011
3453	CB	224	MPD1	C2	1	-0.15	12.011
3454	CB	224	MPD1	C3	1	0.117	12.011
3455	CB	224	MPD1	C4	1	-0.15	12.011
3456	CB	224	MPD1	C5	1	-0.15	12.011
3457	HCMM	224	MPD1	H	1	0.15	1.0079
3458	HCMM	224	MPD1	H1	1	0.15	1.0079
3459	HCMM	224	MPD1	H2	1	0.15	1.0079
3460	HCMM	224	MPD1	H3	1	0.15	1.0079
3461	NC=O	224	MPD1	N	1	-0.547	14.0067
3462	HNCO	224	MPD1	H5	1	0.37	1.0079
3463	NC=C	224	MPD1	N1	1	-0.9	14.0067
3464	HNCO	224	MPD1	H6	1	0.4	1.0079
3465	HNCO	224	MPD1	H7	1	0.4	1.0079
3466	CB	225	MPD1	C	1	-0.15	12.011
3467	CB	225	MPD1	C1	1	0.1	12.011
3468	CB	225	MPD1	C2	1	-0.15	12.011
3469	CB	225	MPD1	C3	1	0.117	12.011
3470	CB	225	MPD1	C4	1	-0.15	12.011
3471	CB	225	MPD1	C5	1	-0.15	12.011
3472	HCMM	225	MPD1	H	1	0.15	1.0079
3473	HCMM	225	MPD1	H1	1	0.15	1.0079
3474	HCMM	225	MPD1	H2	1	0.15	1.0079
3475	HCMM	225	MPD1	H3	1	0.15	1.0079
3476	NC=O	225	MPD1	N	1	-0.547	14.0067
3477	HNCO	225	MPD1	H5	1	0.37	1.0079
3478	NC=C	225	MPD1	N1	1	-0.9	14.0067
3479	HNCO	225	MPD1	H6	1	0.4	1.0079
3480	HNCO	225	MPD1	H7	1	0.4	1.0079
3481	CB	226	MPD1	C	1	-0.15	12.011
3482	CB	226	MPD1	C1	1	0.1	12.011
3483	CB	226	MPD1	C2	1	-0.15	12.011
3484	CB	226	MPD1	C3	1	0.117	12.011
3485	CB	226	MPD1	C4	1	-0.15	12.011
3486	CB	226	MPD1	C5	1	-0.15	12.011
3487	HCMM	226	MPD1	H	1	0.15	1.0079
3488	HCMM	226	MPD1	H1	1	0.15	1.0079
3489	HCMM	226	MPD1	H2	1	0.15	1.0079
3490	HCMM	226	MPD1	H3	1	0.15	1.0079
3491	NC=O	226	MPD1	N	1	-0.547	14.0067
3492	HNCO	226	MPD1	H5	1	0.37	1.0079
3493	NC=C	226	MPD1	N1	1	-0.9	14.0067
3494	HNCO	226	MPD1	H6	1	0.4	1.0079
3495	HNCO	226	MPD1	H7	1	0.4	1.0079
3496	CB	227	MPD1	C	1	-0.15	12.011
3497	CB	227	MPD1	C1	1	0.1	12.011
3498	CB	227	MPD1	C2	1	-0.15	12.011
3499	CB	227	MPD1	C3	1	0.117	12.011
3500	CB	227	MPD1	C4	1	-0.15	12.011
3501	CB	227	MPD1	C5	1	-0.15	12.011
3502	HCMM	227	MPD1	H	1	0.15	1.0079
3503	HCMM	227	MPD1	H1	1	0.15	1.0079
3504	HCMM	227	MPD1	H2	1	0.15	1.0079
3505	HCMM	227	MPD1	H3	1	0.15	1.0079
3506	NC=O	227	MPD1	N	1	-0.547	14.0067
3507	HNCO	227	MPD1	H5	1	0.37	1.0079
3508	NC=C	227	MPD1	N1	1	-0.9	14.0067
3509	HNCO	227	MPD1	H6	1	0.4	1.0079
3510	HNCO	227	MPD1	H7	1	0.4	1.0079
3511	CB	228	MPD1	C	1	-0.15	12.011
3512	CB	228	MPD1	C1	1	0.1	12.011
3513	CB	228	MPD1	C2	1	-0.15	12.011
3514	CB	228	MPD1	C3	1	0.117	12.011
3515	CB	228	MPD1	C4	1	-0.15	12.011
3516	CB	228	MPD1	C5	1	-0.15	12.011
3517	HCMM	228	MPD1	H	1	0.15	1.0079
3518	HCMM	228	MPD1	H1	1	0.15	1.0079
3519	HCMM	228	MPD1	H2	1	0.15	1.0079
3520	HCMM	228	MPD1	H3	1	0.15	1.0079
3521	NC=O	228	MPD1	N	1	-0.547	14.0067
3522	HNCO	228	MPD1	H5	1	0.37	1.0079
3523	NC=C	228	MPD1	N1	1	-0.9	14.0067
3524	HNCO	228	MPD1	H6	1	0.4	1.0079
3525	HNCO	228	MPD1	H7	1	0.4	1.0079
3526	CB	229	MPD1	C	1	-0.15	12.011
3527	CB	229	MPD1	C1	1	0.1	12.011
3528	CB	229	MPD1	C2	1	-0.15	12.011
3529	CB	229	MPD1	C3	1	0.117	12.011
3530	CB	229	MPD1	C4	1	-0.15	12.011
3531	CB	229	MPD1	C5	1	-0.15	12.011
3532	HCMM	229	MPD1	H	1	0.15	1.0079
3533	HCMM	229	MPD1	H1	1	0.15	1.0079
3534	HCMM	229	MPD1	H2	1	0.15	1.0079
3535	HCMM	229	MPD1	H3	1	0.15	1.0079
3536	NC=O	229	MPD1	N	1	-0.547	14.0067
3537	HNCO	229	MPD1	H5	1	0.37	1.0079
3538	NC=C	229	MPD1	N1	1	-0.9	14.0067
3539	HNCO	229	MPD1	H6	1	0.4	1.0079
3540	HNCO	229	MPD1	H7	1	0.4	1.0079
3541	CB	230	MPD1	C	1	-0.15	12.011
3542	CB	230	MPD1	C1	1	0.1	12.011
3543	CB	230	MPD1	C2	1	-0.15	12.011
3544	CB	230	MPD1	C3	1	0.117	12.011
3545	CB	230	MPD1	C4	1	-0.15	12.011
3546	CB	230	MPD1	C5	1	-0.15	12.011
3547	HCMM	230	MPD1	H	1	0.15	1.0079
3548	HCMM	230	MPD1	H1	1	0.15	1.0079
3549	HCMM	230	MPD1	H2	1	0.15	1.0079
3550	HCMM	230	MPD1	H3	1	0.15	1.0079
3551	NC=O	230	MPD1	N	1	-0.547	14.0067
3552	HNCO	230	MPD1	H5	1	0.37	1.0079
3553	NC=C	230	MPD1	N1	1	-0.9	14.0067
3554	HNCO	230	MPD1	H6	1	0.4	1.0079
3555	HNCO	230	MPD1	H7	1	0.4	1.0079
3556	CB	231	MPD1	C	1	-0.15	12.011
3557	CB	231	MPD1	C1	1	0.1	12.011
3558	CB	231	MPD1	C2	1	-0.15	12.011
3559	CB	231	MPD1	C3	1	0.117	12.011
3560	CB	231	MPD1	C4	1	-0.15	12.011
3561	CB	231	MPD1	C5	1	-0.15	12.011
3562	HCMM	231	MPD1	H	1	0.15	1.0079
3563	HCMM	231	MPD1	H1	1	0.15	1.0079
3564	HCMM	231	MPD1	H2	1	0.15	1.0079
3565	HCMM	231	MPD1	H3	1	0.15	1.0079
3566	NC=O	231	MPD1	N	1	-0.547	14.0067
3567	HNCO	231	MPD1	H5	1	0.37	1.0079
3568	NC=C	231	MPD1	N1	1	-0.9	14.0067
3569	HNCO	231	MPD1	H6	1	0.4	1.0079
3570	HNCO	231	MPD1	H7	1	0.4	1.0079
3571	CB	232	MPD1	C	1	-0.15	12.011
3572	CB	232	MPD1	C1	1	0.1	12.011
3573	CB	232	MPD1	C2	1	-0.15	12.011
3574	CB	232	MPD1	C3	1	0.117	12.011
3575	CB	232	MPD1	C4	1	-0.15	12.011
3576	CB	232	MPD1	C5	1	-0.15	12.011
3577	HCMM	232	MPD1	H	1	0.15	1.0079
3578	HCMM	232	MPD1	H1	1	0.15	1.0079
3579	HCMM	232	MPD1	H2	1	0.15	1.0079
3580	HCMM	232	MPD1	H3	1	0.15	1.0079
3581	NC=O	232	MPD1	N	1	-0.547	14.0067
3582	HNCO	232	MPD1	H5	1	0.37	1.0079
3583	NC=C	232	MPD1	N1	1	-0.9	14.0067
3584	HNCO	232	MPD1	H6	1	0.4	1.0079
3585	HNCO	232	MPD1	H7	1	0.4	1.0079
3586	CB	233	MPD1	C	1	-0.15	12.011
3587	CB	233	MPD1	C1	1	0.1	12.011
3588	CB	233	MPD1	C2	1	-0.15	12.011
3589	CB	233	MPD1	C3	1	0.117	12.011
3590	CB	233	MPD1	C4	1	-0.15	12.011
3591	CB	233	MPD1	C5	1	-0.15	12.011
3592	HCMM	233	MPD1	H	1	0.15	1.0079
3593	HCMM	233	MPD1	H1	1	0.15	1.0079
3594	HCMM	233	MPD1	H2	1	0.15	1.0079
3595	HCMM	233	MPD1	H3	1	0.15	1.0079
3596	NC=O	233	MPD1	N	1	-0.547	14.0067
3597	HNCO	233	MPD1	H5	1	0.37	1.0079
3598	NC=C	233	MPD1	N1	1	-0.9	14.0067
3599	HNCO	233	MPD1	H6	1	0.4	1.0079
3600	HNCO	233	MPD1	H7	1	0.4	1.0079
3601	CB	234	MPD1	C	1	-0.15	12.011
3602	CB	234	MPD1	C1	1	0.1	12.011
3603	CB	234	MPD1	C2	1	-0.15	12.011
3604	CB	234	MPD1	C3	1	0.117	12.011
3605	CB	234	MPD1	C4	1	-0.15	12.011
3606	CB	234	MPD1	C5	1	-0.15	12.011
3607	HCMM	234	MPD1	H	1	0.15	1.0079
3608	HCMM	234	MPD1	H1	1	0.15	1.0079
3609	HCMM	234	MPD1	H2	1	0.15	1.0079
3610	HCMM	234	MPD1	H3	1	0.15	1.0079
3611	NC=O	234	MPD1	N	1	-0.547	14.0067
3612	HNCO	234	MPD1	H5	1	0.37	1.0079
3613	NC=C	234	MPD1	N1	1	-0.9	14.0067
3614	HNCO	234	MPD1	H6	1	0.4	1.0079
3615	HNCO	234	MPD1	H7	1	0.4	1.0079
3616	CB	235	MPD1	C	1	-0.15	12.011
3617	CB	235	MPD1	C1	1	0.1	12.011
3618	CB	235	MPD1	C2	1	-0.15	12.011
3619	CB	235	MPD1	C3	1	0.117	12.011
3620	CB	235	MPD1	C4	1	-0.15	12.011
3621	CB	235	MPD1	C5	1	-0.15	12.011
3622	HCMM	235	MPD1	H	1	0.15	1.0079
3623	HCMM	235	MPD1	H1	1	0.15	1.0079
3624	HCMM	235	MPD1	H2	1	0.15	1.0079
3625	HCMM	235	MPD1	H3	1	0.15	1.0079
3626	NC=O	235	MPD1	N	1	-0.547	14.0067
3627	HNCO	235	MPD1	H5	1	0.37	1.0079
3628	NC=C	235	MPD1	N1	1	-0.9	14.0067
3629	HNCO	235	MPD1	H6	1	0.4	1.0079
3630	HNCO	235	MPD1	H7	1	0.4	1.0079
3631	CB	236	MPD1	C	1	-0.15	12.011
3632	CB	236	MPD1	C1	1	0.1	12.011
3633	CB	236	MPD1	C2	1	-0.15	12.011
3634	CB	236	MPD1	C3	1	0.117	12.011
3635	CB	236	MPD1	C4	1	-0.15	12.011
3636	CB	236	MPD1	C5	1	-0.15	12.011
3637	HCMM	236	MPD1	H	1	0.15	1.0079
3638	HCMM	236	MPD1	H1	1	0.15	1.0079
3639	HCMM	236	MPD1	H2	1	0.15	1.0079
3640	HCMM	236	MPD1	H3	1	0.15	1.0079
3641	NC=O	236	MPD1	N	1	-0.547	14.0067
3642	HNCO	236	MPD1	H5	1	0.37	1.0079
3643	NC=C	236	MPD1	N1	1	-0.9	14.0067
3644	HNCO	236	MPD1	H6	1	0.4	1.0079
3645	HNCO	236	MPD1	H7	1	0.4	1.0079
3646	CB	237	MPD1	C	1	-0.15	12.011
3647	CB	237	MPD1	C1	1	0.1	12.011
3648	CB	237	MPD1	C2	1	-0.15	12.011
3649	CB	237	MPD1	C3	1	0.117	12.011
3650	CB	237	MPD1	C4	1	-0.15	12.011
3651	CB	237	MPD1	C5	1	-0.15	12.011
3652	HCMM	237	MPD1	H	1	0.15	1.0079
3653	HCMM	237	MPD1	H1	1	0.15	1.0079
3654	HCMM	237	MPD1	H2	1	0.15	1.0079
3655	HCMM	237	MPD1	H3	1	0.15	1.0079
3656	NC=O	237	MPD1	N	1	-0.547	14.0067
3657	HNCO	237	MPD1	H5	1	0.37	1.0079
3658	NC=C	237	MPD1	N1	1	-0.9	14.0067
3659	HNCO	237	MPD1	H6	1	0.4	1.0079
3660	HNCO	237	MPD1	H7	1	0.4	1.0079
3661	CB	238	MPD1	C	1	-0.15	12.011
3662	CB	238	MPD1	C1	1	0.1	12.011
3663	CB	238	MPD1	C2	1	-0.15	12.011
3664	CB	238	MPD1	C3	1	0.117	12.011
3665	CB	238	MPD1	C4	1	-0.15	12.011
3666	CB	238	MPD1	C5	1	-0.15	12.011
3667	HCMM	238	MPD1	H	1	0.15	1.0079
3668	HCMM	238	MPD1	H1	1	0.15	1.0079
3669	HCMM	238	MPD1	H2	1	0.15	1.0079
3670	HCMM	238	MPD1	H3	1	0.15	1.0079
3671	NC=O	238	MPD1	N	1	-0.547	14.0067
3672	HNCO	238	MPD1	H5	1	0.37	1.0079
3673	NC=C	238	MPD1	N1	1	-0.9	14.0067
3674	HNCO	238	MPD1	H6	1	0.4	1.0079
3675	HNCO	238	MPD1	H7	1	0.4	1.0079
3676	CB	239	MPD1	C	1	-0.15	12.011
3677	CB	239	MPD1	C1	1	0.1	12.011
3678	CB	239	MPD1	C2	1	-0.15	12.011
3679	CB	239	MPD1	C3	1	0.117	12.011
3680	CB	239	MPD1	C4	1	-0.15	12.011
3681	CB	239	MPD1	C5	1	-0.15	12.011
3682	HCMM	239	MPD1	H	1	0.15	1.0079
3683	HCMM	239	MPD1	H1	1	0.15	1.0079
3684	HCMM	239	MPD1	H2	1	0.15	1.0079
3685	HCMM	239	MPD1	H3	1	0.15	1.0079
3686	NC=O	239	MPD1	N	1	-0.547	14.0067
3687	HNCO	239	MPD1	H5	1	0.37	1.0079
3688	NC=C	239	MPD1	N1	1	-0.9	14.0067
3689	HNCO	239	MPD1	H6	1	0.4	1.0079
3690	HNCO	239	MPD1	H7	1	0.4	1.0079
3691	CB	240	MPD1	C	1	-0.15	12.011
3692	CB	240	MPD1	C1	1	0.1	12.011
3693	CB	240	MPD1	C2	1	-0.15	12.011
3694	CB	240	MPD1	C3	1	0.117	12.011
3695	CB	240	MPD1	C4	1	-0.15	12.011
3696	CB	240	MPD1	C5	1	-0.15	12.011
3697	HCMM	240	MPD1	H	1	0.15	1.0079
3698	HCMM	240	MPD1	H1	1	0.15	1.0079
3699	HCMM	240	MPD1	H2	1	0.15	1.0079
3700	HCMM	240	MPD1	H3	1	0.15	1.0079
3701	NC=O	240	MPD1	N	1	-0.547	14.0067
3702	HNCO	240	MPD1	H5	1	0.37	1.0079
3703	NC=C	240	MPD1	N1	1	-0.9	14.0067
3704	HNCO	240	MPD1	H6	1	0.4	1.0079
3705	HNCO	240	MPD1	H7	1	0.4	1.0079
3706	CB	241	MPD1	C	1	-0.15	12.011
3707	CB	241	MPD1	C1	1	0.1	12.011
3708	CB	241	MPD1	C2	1	-0.15	12.011
3709	CB	241	MPD1	C3	1	0.117	12.011
3710	CB	241	MPD1	C4	1	-0.15	12.011
3711	CB	241	MPD1	C5	1	-0.15	12.011
3712	HCMM	241	MPD1	H	1	0.15	1.0079
3713	HCMM	241	MPD1	H1	1	0.15	1.0079
3714	HCMM	241	MPD1	H2	1	0.15	1.0079
3715	HCMM	241	MPD1	H3	1	0.15	1.0079
3716	NC=O	241	MPD1	N	1	-0.547	14.0067
3717	HNCO	241	MPD1	H5	1	0.37	1.0079
3718	NC=C	241	MPD1	N1	1	-0.9	14.0067
3719	HNCO	241	MPD1	H6	1	0.4	1.0079
3720	HNCO	241	MPD1	H7	1	0.4	1.0079
3721	CB	242	MPD1	C	1	-0.15	12.011
3722	CB	242	MPD1	C1	1	0.1	12.011
3723	CB	242	MPD1	C2	1	-0.15	12.011
3724	CB	242	MPD1	C3	1	0.117	12.011
3725	CB	242	MPD1	C4	1	-0.15	12.011
3726	CB	242	MPD1	C5	1	-0.15	12.011
3727	HCMM	242	MPD1	H	1	0.15	1.0079
3728	HCMM	242	MPD1	H1	1	0.15	1.0079
3729	HCMM	242	MPD1	H2	1	0.15	1.0079
3730	HCMM	242	MPD1	H3	1	0.15	1.0079
3731	NC=O	242	MPD1	N	1	-0.547	14.0067
3732	HNCO	242	MPD1	H5	1	0.37	1.0079
3733	NC=C	242	MPD1	N1	1	-0.9	14.0067
3734	HNCO	242	MPD1	H6	1	0.4	1.0079
3735	HNCO	242	MPD1	H7	1	0.4	1.0079
3736	CB	243	MPD1	C	1	-0.15	12.011
3737	CB	243	MPD1	C1	1	0.1	12.011
3738	CB	243	MPD1	C2	1	-0.15	12.011
3739	CB	243	MPD1	C3	1	0.117	12.011
3740	CB	243	MPD1	C4	1	-0.15	12.011
3741	CB	243	MPD1	C5	1	-0.15	12.011
3742	HCMM	243	MPD1	H	1	0.15	1.0079
3743	HCMM	243	MPD1	H1	1	0.15	1.0079
3744	HCMM	243	MPD1	H2	1	0.15	1.0079
3745	HCMM	243	MPD1	H3	1	0.15	1.0079
3746	NC=O	243	MPD1	N	1	-0.547	14.0067
3747	HNCO	243	MPD1	H5	1	0.37	1.0079
3748	NC=C	243	MPD1	N1	1	-0.9	14.0067
3749	HNCO	243	MPD1	H6	1	0.4	1.0079
3750	HNCO	243	MPD1	H7	1	0.4	1.0079
3751	CB	244	MPD1	C	1	-0.15	12.011
3752	CB	244	MPD1	C1	1	0.1	12.011
3753	CB	244	MPD1	C2	1	-0.15	12.011
3754	CB	244	MPD1	C3	1	0.117	12.011
3755	CB	244	MPD1	C4	1	-0.15	12.011
3756	CB	244	MPD1	C5	1	-0.15	12.011
3757	HCMM	244	MPD1	H	1	0.15	1.0079
3758	HCMM	244	MPD1	H1	1	0.15	1.0079
3759	HCMM	244	MPD1	H2	1	0.15	1.0079
3760	HCMM	244	MPD1	H3	1	0.15	1.0079
3761	NC=O	244	MPD1	N	1	-0.547	14.0067
3762	HNCO	244	MPD1	H5	1	0.37	1.0079
3763	NC=C	244	MPD1	N1	1	-0.9	14.0067
3764	HNCO	244	MPD1	H6	1	0.4	1.0079
3765	HNCO	244	MPD1	H7	1	0.4	1.0079
3766	CB	245	MPD1	C	1	-0.15	12.011
3767	CB	245	MPD1	C1	1	0.1	12.011
3768	CB	245	MPD1	C2	1	-0.15	12.011
3769	CB	245	MPD1	C3	1	0.117	12.011
3770	CB	245	MPD1	C4	1	-0.15	12.011
3771	CB	245	MPD1	C5	1	-0.15	12.011
3772	HCMM	245	MPD1	H	1	0.15	1.0079
3773	HCMM	245	MPD1	H1	1	0.15	1.0079
3774	HCMM	245	MPD1	H2	1	0.15	1.0079
3775	HCMM	245	MPD1	H3	1	0.15	1.0079
3776	NC=O	245	MPD1	N	1	-0.547	14.0067
3777	HNCO	245	MPD1	H5	1	0.37	1.0079
3778	NC=C	245	MPD1	N1	1	-0.9	14.0067
3779	HNCO	245	MPD1	H6	1	0.4	1.0079
3780	HNCO	245	MPD1	H7	1	0.4	1.0079
3781	CB	246	MPD1	C	1	-0.15	12.011
3782	CB	246	MPD1	C1	1	0.1	12.011
3783	CB	246	MPD1	C2	1	-0.15	12.011
3784	CB	246	MPD1	C3	1	0.117	12.011
3785	CB	246	MPD1	C4	1	-0.15	12.011
3786	CB	246	MPD1	C5	1	-0.15	12.011
3787	HCMM	246	MPD1	H	1	0.15	1.0079
3788	HCMM	246	MPD1	H1	1	0.15	1.0079
3789	HCMM	246	MPD1	H2	1	0.15	1.0079
3790	HCMM	246	MPD1	H3	1	0.15	1.0079
3791	NC=O	246	MPD1	N	1	-0.547	14.0067
3792	HNCO	246	MPD1	H5	1	0.37	1.0079
3793	NC=C	246	MPD1	N1	1	-0.9	14.0067
3794	HNCO	246	MPD1	H6	1	0.4	1.0079
3795	HNCO	246	MPD1	H7	1	0.4	1.0079
3796	CB	247	MPD1	C	1	-0.15	12.011
3797	CB	247	MPD1	C1	1	0.1	12.011
3798	CB	247	MPD1	C2	1	-0.15	12.011
3799	CB	247	MPD1	C3	1	0.117	12.011
3800	CB	247	MPD1	C4	1	-0.15	12.011
3801	CB	247	MPD1	C5	1	-0.15	12.011
3802	HCMM	247	MPD1	H	1	0.15	1.0079
3803	HCMM	247	MPD1	H1	1	0.15	1.0079
3804	HCMM	247	MPD1	H2	1	0.15	1.0079
3805	HCMM	247	MPD1	H3	1	0.15	1.0079
3806	NC=O	247	MPD1	N	1	-0.547	14.0067
3807	HNCO	247	MPD1	H5	1	0.37	1.0079
3808	NC=C	247	MPD1	N1	1	-0.9	14.0067
3809	HNCO	247	MPD1	H6	1	0.4	1.0079
3810	HNCO	247	MPD1	H7	1	0.4	1.0079
3811	CB	248	MPD1	C	1	-0.15	12.011
3812	CB	248	MPD1	C1	1	0.1	12.011
3813	CB	248	MPD1	C2	1	-0.15	12.011
3814	CB	248	MPD1	C3	1	0.117	12.011
3815	CB	248	MPD1	C4	1	-0.15	12.011
3816	CB	248	MPD1	C5	1	-0.15	12.011
3817	HCMM	248	MPD1	H	1	0.15	1.0079
3818	HCMM	248	MPD1	H1	1	0.15	1.0079
3819	HCMM	248	MPD1	H2	1	0.15	1.0079
3820	HCMM	248	MPD1	H3	1	0.15	1.0079
3821	NC=O	248	MPD1	N	1	-0.547	14.0067
3822	HNCO	248	MPD1	H5	1	0.37	1.0079
3823	NC=C	248	MPD1	N1	1	-0.9	14.0067
3824	HNCO	248	MPD1	H6	1	0.4	1.0079
3825	HNCO	248	MPD1	H7	1	0.4	1.0079
3826	CB	249	MPD1	C	1	-0.15	12.011
3827	CB	249	MPD1	C1	1	0.1	12.011
3828	CB	249	MPD1	C2	1	-0.15	12.011
3829	CB	249	MPD1	C3	1	0.117	12.011
3830	CB	249	MPD1	C4	1	-0.15	12.011
3831	CB	249	MPD1	C5	1	-0.15	12.011
3832	HCMM	249	MPD1	H	1	0.15	1.0079
3833	HCMM	249	MPD1	H1	1	0.15	1.0079
3834	HCMM	249	MPD1	H2	1	0.15	1.0079
3835	HCMM	249	MPD1	H3	1	0.15	1.0079
3836	NC=O	249	MPD1	N	1	-0.547	14.0067
3837	HNCO	249	MPD1	H5	1	0.37	1.0079
3838	NC=C	249	MPD1	N1	1	-0.9	14.0067
3839	HNCO	249	MPD1	H6	1	0.4	1.0079
3840	HNCO	249	MPD1	H7	1	0.4	1.0079
3841	CB	250	MPD2	C	1	-0.15	12.011
3842	CB	250	MPD2	C1	1	0.117	12.011
3843	CB	250	MPD2	C2	1	-0.15	12.011
3844	CB	250	MPD2	C3	1	0.117	12.011
3845	CB	250	MPD2	C4	1	-0.15	12.011
3846	CB	250	MPD2	C5	1	-0.15	12.011
3847	HCMM	250	MPD2	H	1	0.15	1.0079
3848	HCMM	250	MPD2	H1	1	0.15	1.0079
3849	HCMM	250	MPD2	H2	1	0.15	1.0079
3850	HCMM	250	MPD2	H3	1	0.15	1.0079
3851	NC=O	250	MPD2	N	1	-0.547	14.0067
3852	HNCO	250	MPD2	H5	1	0.37	1.0079
3853	NC=O	250	MPD2	N1	1	-0.547	14.0067
3854	HNCO	250	MPD2	H7	1	0.37	1.0079
3855	CB	251	TMC3	C1	1	0.0862	12.011
3856	CB	251	TMC3	C2	1	-0.15	12.011
3857	CB	251	TMC3	C3	1	0.0862	12.011
3858	CB	251	TMC3	C4	1	-0.15	12.011
3859	CB	251	TMC3	C5	1	0.0862	12.011
3860	CB	251	TMC3	C6	1	-0.15	12.011
3861	C=O	251	TMC3	C	1	0.5438	12.011
3862	O=C	251	TMC3	O	1	-0.57	15.9994
3863	HCMM	251	TMC3	H	1	0.15	1.0079
3864	HCMM	251	TMC3	H1	1	0.15	1.0079
3865	HCMM	251	TMC3	H2	1	0.15	1.0079
3866	C=O	251	TMC3	C7	1	0.5438	12.011
3867	C=O	251	TMC3	C8	1	0.5438	12.011
3868	O=C	251	TMC3	O1	1	-0.57	15.9994
3869	O=C	251	TMC3	O2	1	-0.57	15.9994
3870	CB	252	TMC3	C1	1	0.0862	12.011
3871	CB	252	TMC3	C2	1	-0.15	12.011
3872	CB	252	TMC3	C3	1	0.0862	12.011
3873	CB	252	TMC3	C4	1	-0.15	12.011
3874	CB	252	TMC3	C5	1	0.0862	12.011
3875	CB	252	TMC3	C6	1	-0.15	12.011
3876	C=O	252	TMC3	C	1	0.5438	12.011
3877	O=C	252	TMC3	O	1	-0.57	15.9994
3878	HCMM	252	TMC3	H	1	0.15	1.0079
3879	HCMM	252	TMC3	H1	1	0.15	1.0079
3880	HCMM	252	TMC3	H2	1	0.15	1.0079
3881	C=O	252	TMC3	C7	1	0.5438	12.011
3882	C=O	252	TMC3	C8	1	0.5438	12.011
3883	O=C	252	TMC3	O1	1	-0.57	15.9994
3884	O=C	252	TMC3	O2	1	-0.57	15.9994
3885	CB	253	MPD2	C	1	-0.15	12.011
3886	CB	253	MPD2	C1	1	0.117	12.011
3887	CB	253	MPD2	C2	1	-0.15	12.011
3888	CB	253	MPD2	C3	1	0.117	12.011
3889	CB	253	MPD2	C4	1	-0.15	12.011
3890	CB	253	MPD2	C5	1	-0.15	12.011
3891	HCMM	253	MPD2	H	1	0.15	1.0079
3892	HCMM	253	MPD2	H1	1	0.15	1.0079
3893	HCMM	253	MPD2	H2	1	0.15	1.0079
3894	HCMM	253	MPD2	H3	1	0.15	1.0079
3895	NC=O	253	MPD2	N	1	-0.547	14.0067
3896	HNCO	253	MPD2	H5	1	0.37	1.0079
3897	NC=O	253	MPD2	N1	1	-0.547	14.0067
3898	HNCO	253	MPD2	H7	1	0.37	1.0079
3899	CB	254	TMC3	C1	1	0.0862	12.011
3900	CB	254	TMC3	C2	1	-0.15	12.011
3901	CB	254	TMC3	C3	1	0.0862	12.011
3902	CB	254	TMC3	C4	1	-0.15	12.011
3903	CB	254	TMC3	C5	1	0.0862	12.011
3904	CB	254	TMC3	C6	1	-0.15	12.011
3905	C=O	254	TMC3	C	1	0.5438	12.011
3906	O=C	254	TMC3	O	1	-0.57	15.9994
3907	HCMM	254	TMC3	H	1	0.15	1.0079
3908	HCMM	254	TMC3	H1	1	0.15	1.0079
3909	HCMM	254	TMC3	H2	1	0.15	1.0079
3910	C=O	254	TMC3	C7	1	0.5438	12.011
3911	C=O	254	TMC3	C8	1	0.5438	12.011
3912	O=C	254	TMC3	O1	1	-0.57	15.9994
3913	O=C	254	TMC3	O2	1	-0.57	15.9994
3914	CB	255	MPD2	C	1	-0.15	12.011
3915	CB	255	MPD2	C1	1	0.117	12.011
3916	CB	255	MPD2	C2	1	-0.15	12.011
3917	CB	255	MPD2	C3	1	0.117	12.011
3918	CB	255	MPD2	C4	1	-0.15	12.011
3919	CB	255	MPD2	C5	1	-0.15	12.011
3920	HCMM	255	MPD2	H	1	0.15	1.0079
3921	HCMM	255	MPD2	H1	1	0.15	1.0079
3922	HCMM	255	MPD2	H2	1	0.15	1.0079
3923	HCMM	255	MPD2	H3	1	0.15	1.0079
3924	NC=O	255	MPD2	N	1	-0.547	14.0067
3925	HNCO	255	MPD2	H5	1	0.37	1.0079
3926	NC=O	255	MPD2	N1	1	-0.547	14.0067
3927	HNCO	255	MPD2	H7	1	0.37	1.0079
3928	CB	256	TMC3	C1	1	0.0862	12.011
3929	CB	256	TMC3	C2	1	-0.15	12.011
3930	CB	256	TMC3	C3	1	0.0862	12.011
3931	CB	256	TMC3	C4	1	-0.15	12.011
3932	CB	256	TMC3	C5	1	0.0862	12.011
3933	CB	256	TMC3	C6	1	-0.15	12.011
3934	C=O	256	TMC3	C	1	0.5438	12.011
3935	O=C	256	TMC3	O	1	-0.57	15.9994
3936	HCMM	256	TMC3	H	1	0.15	1.0079
3937	HCMM	256	TMC3	H1	1	0.15	1.0079
3938	HCMM	256	TMC3	H2	1	0.15	1.0079
3939	C=O	256	TMC3	C7	1	0.5438	12.011
3940	C=O	256	TMC3	C8	1	0.5438	12.011
3941	O=C	256	TMC3	O1	1	-0.57	15.9994
3942	O=C	256	TMC3	O2	1	-0.57	15.9994
3943	CB	257	MPD2	C	1	-0.15	12.011
3944	CB	257	MPD2	C1	1	0.117	12.011
3945	CB	257	MPD2	C2	1	-0.15	12.011
3946	CB	257	MPD2	C3	1	0.117	12.011
3947	CB	257	MPD2	C4	1	-0.15	12.011
3948	CB	257	MPD2	C5	1	-0.15	12.011
3949	HCMM	257	MPD2	H	1	0.15	1.0079
3950	HCMM	257	MPD2	H1	1	0.15	1.0079
3951	HCMM	257	MPD2	H2	1	0.15	1.0079
3952	HCMM	257	MPD2	H3	1	0.15	1.0079
3953	NC=O	257	MPD2	N	1	-0.547	14.0067
3954	HNCO	257	MPD2	H5	1	0.37	1.0079
3955	NC=O	257	MPD2	N1	1	-0.547	14.0067
3956	HNCO	257	MPD2	H7	1	0.37	1.0079
3957	CB	258	TMC3	C1	1	0.0862	12.011
3958	CB	258	TMC3	C2	1	-0.15	12.011
3959	CB	258	TMC3	C3	1	0.0862	12.011
3960	CB	258	TMC3	C4	1	-0.15	12.011
3961	CB	258	TMC3	C5	1	0.0862	12.011
3962	CB	258	TMC3	C6	1	-0.15	12.011
3963	C=O	258	TMC3	C	1	0.5438	12.011
3964	O=C	258	TMC3	O	1	-0.57	15.9994
3965	HCMM	258	TMC3	H	1	0.15	1.0079
3966	HCMM	258	TMC3	H1	1	0.15	1.0079
3967	HCMM	258	TMC3	H2	1	0.15	1.0079
3968	C=O	258	TMC3	C7	1	0.5438	12.011
3969	C=O	258	TMC3	C8	1	0.5438	12.011
3970	O=C	258	TMC3	O1	1	-0.57	15.9994
3971	O=C	258	TMC3	O2	1	-0.57	15.9994
3972	CB	259	MPD2	C	1	-0.15	12.011
3973	CB	259	MPD2	C1	1	0.117	12.011
3974	CB	259	MPD2	C2	1	-0.15	12.011
3975	CB	259	MPD2	C3	1	0.117	12.011
3976	CB	259	MPD2	C4	1	-0.15	12.011
3977	CB	259	MPD2	C5	1	-0.15	12.011
3978	HCMM	259	MPD2	H	1	0.15	1.0079
3979	HCMM	259	MPD2	H1	1	0.15	1.0079
3980	HCMM	259	MPD2	H2	1	0.15	1.0079
3981	HCMM	259	MPD2	H3	1	0.15	1.0079
3982	NC=O	259	MPD2	N	1	-0.547	14.0067
3983	HNCO	259	MPD2	H5	1	0.37	1.0079
3984	NC=O	259	MPD2	N1	1	-0.547	14.0067
3985	HNCO	259	MPD2	H7	1	0.37	1.0079
3986	CB	260	TMC3	C1	1	0.0862	12.011
3987	CB	260	TMC3	C2	1	-0.15	12.011
3988	CB	260	TMC3	C3	1	0.0862	12.011
3989	CB	260	TMC3	C4	1	-0.15	12.011
3990	CB	260	TMC3	C5	1	0.0862	12.011
3991	CB	260	TMC3	C6	1	-0.15	12.011
3992	C=O	260	TMC3	C	1	0.5438	12.011
3993	O=C	260	TMC3	O	1	-0.57	15.9994
3994	HCMM	260	TMC3	H	1	0.15	1.0079
3995	HCMM	260	TMC3	H1	1	0.15	1.0079
3996	HCMM	260	TMC3	H2	1	0.15	1.0079
3997	C=O	260	TMC3	C7	1	0.5438	12.011
3998	C=O	260	TMC3	C8	1	0.5438	12.011
3999	O=C	260	TMC3	O1	1	-0.57	15.9994
4000	O=C	260	TMC3	O2	1	-0.57	15.9994
4001	CB	261	MPD2	C	1	-0.15	12.011
4002	CB	261	MPD2	C1	1	0.117	12.011
4003	CB	261	MPD2	C2	1	-0.15	12.011
4004	CB	261	MPD2	C3	1	0.117	12.011
4005	CB	261	MPD2	C4	1	-0.15	12.011
4006	CB	261	MPD2	C5	1	-0.15	12.011
4007	HCMM	261	MPD2	H	1	0.15	1.0079
4008	HCMM	261	MPD2	H1	1	0.15	1.0079
4009	HCMM	261	MPD2	H2	1	0.15	1.0079
4010	HCMM	261	MPD2	H3	1	0.15	1.0079
4011	NC=O	261	MPD2	N	1	-0.547	14.0067
4012	HNCO	261	MPD2	H5	1	0.37	1.0079
4013	NC=O	261	MPD2	N1	1	-0.547	14.0067
4014	HNCO	261	MPD2	H7	1	0.37	1.0079
4015	CB	262	TMC3	C1	1	0.0862	12.011
4016	CB	262	TMC3	C2	1	-0.15	12.011
4017	CB	262	TMC3	C3	1	0.0862	12.011
4018	CB	262	TMC3	C4	1	-0.15	12.011
4019	CB	262	TMC3	C5	1	0.0862	12.011
4020	CB	262	TMC3	C6	1	-0.15	12.011
4021	C=O	262	TMC3	C	1	0.5438	12.011
4022	O=C	262	TMC3	O	1	-0.57	15.9994
4023	HCMM	262	TMC3	H	1	0.15	1.0079
4024	HCMM	262	TMC3	H1	1	0.15	1.0079
4025	HCMM	262	TMC3	H2	1	0.15	1.0079
4026	C=O	262	TMC3	C7	1	0.5438	12.011
4027	C=O	262	TMC3	C8	1	0.5438	12.011
4028	O=C	262	TMC3	O1	1	-0.57	15.9994
4029	O=C	262	TMC3	O2	1	-0.57	15.9994
4030	CB	263	MPD2	C	1	-0.15	12.011
4031	CB	263	MPD2	C1	1	0.117	12.011
4032	CB	263	MPD2	C2	1	-0.15	12.011
4033	CB	263	MPD2	C3	1	0.117	12.011
4034	CB	263	MPD2	C4	1	-0.15	12.011
4035	CB	263	MPD2	C5	1	-0.15	12.011
4036	HCMM	263	MPD2	H	1	0.15	1.0079
4037	HCMM	263	MPD2	H1	1	0.15	1.0079
4038	HCMM	263	MPD2	H2	1	0.15	1.0079
4039	HCMM	263	MPD2	H3	1	0.15	1.0079
4040	NC=O	263	MPD2	N	1	-0.547	14.0067
4041	HNCO	263	MPD2	H5	1	0.37	1.0079
4042	NC=O	263	MPD2	N1	1	-0.547	14.0067
4043	HNCO	263	MPD2	H7	1	0.37	1.0079
4044	CB	264	TMC3	C1	1	0.0862	12.011
4045	CB	264	TMC3	C2	1	-0.15	12.011
4046	CB	264	TMC3	C3	1	0.0862	12.011
4047	CB	264	TMC3	C4	1	-0.15	12.011
4048	CB	264	TMC3	C5	1	0.0862	12.011
4049	CB	264	TMC3	C6	1	-0.15	12.011
4050	C=O	264	TMC3	C	1	0.5438	12.011
4051	O=C	264	TMC3	O	1	-0.57	15.9994
4052	HCMM	264	TMC3	H	1	0.15	1.0079
4053	HCMM	264	TMC3	H1	1	0.15	1.0079
4054	HCMM	264	TMC3	H2	1	0.15	1.0079
4055	C=O	264	TMC3	C7	1	0.5438	12.011
4056	C=O	264	TMC3	C8	1	0.5438	12.011
4057	O=C	264	TMC3	O1	1	-0.57	15.9994
4058	O=C	264	TMC3	O2	1	-0.57	15.9994
4059	CB	265	MPD2	C	1	-0.15	12.011
4060	CB	265	MPD2	C1	1	0.117	12.011
4061	CB	265	MPD2	C2	1	-0.15	12.011
4062	CB	265	MPD2	C3	1	0.117	12.011
4063	CB	265	MPD2	C4	1	-0.15	12.011
4064	CB	265	MPD2	C5	1	-0.15	12.011
4065	HCMM	265	MPD2	H	1	0.15	1.0079
4066	HCMM	265	MPD2	H1	1	0.15	1.0079
4067	HCMM	265	MPD2	H2	1	0.15	1.0079
4068	HCMM	265	MPD2	H3	1	0.15	1.0079
4069	NC=O	265	MPD2	N	1	-0.547	14.0067
4070	HNCO	265	MPD2	H5	1	0.37	1.0079
4071	NC=O	265	MPD2	N1	1	-0.547	14.0067
4072	HNCO	265	MPD2	H7	1	0.37	1.0079
4073	CB	266	TMC3	C1	1	0.0862	12.011
4074	CB	266	TMC3	C2	1	-0.15	12.011
4075	CB	266	TMC3	C3	1	0.0862	12.011
4076	CB	266	TMC3	C4	1	-0.15	12.011
4077	CB	266	TMC3	C5	1	0.0862	12.011
4078	CB	266	TMC3	C6	1	-0.15	12.011
4079	C=O	266	TMC3	C	1	0.5438	12.011
4080	O=C	266	TMC3	O	1	-0.57	15.9994
4081	HCMM	266	TMC3	H	1	0.15	1.0079
4082	HCMM	266	TMC3	H1	1	0.15	1.0079
4083	HCMM	266	TMC3	H2	1	0.15	1.0079
4084	C=O	266	TMC3	C7	1	0.5438	12.011
4085	C=O	266	TMC3	C8	1	0.5438	12.011
4086	O=C	266	TMC3	O1	1	-0.57	15.9994
4087	O=C	266	TMC3	O2	1	-0.57	15.9994
4088	CB	267	MPD2	C	1	-0.15	12.011
4089	CB	267	MPD2	C1	1	0.117	12.011
4090	CB	267	MPD2	C2	1	-0.15	12.011
4091	CB	267	MPD2	C3	1	0.117	12.011
4092	CB	267	MPD2	C4	1	-0.15	12.011
4093	CB	267	MPD2	C5	1	-0.15	12.011
4094	HCMM	267	MPD2	H	1	0.15	1.0079
4095	HCMM	267	MPD2	H1	1	0.15	1.0079
4096	HCMM	267	MPD2	H2	1	0.15	1.0079
4097	HCMM	267	MPD2	H3	1	0.15	1.0079
4098	NC=O	267	MPD2	N	1	-0.547	14.0067
4099	HNCO	267	MPD2	H5	1	0.37	1.0079
4100	NC=O	267	MPD2	N1	1	-0.547	14.0067
4101	HNCO	267	MPD2	H7	1	0.37	1.0079
4102	CB	268	TMC3	C1	1	0.0862	12.011
4103	CB	268	TMC3	C2	1	-0.15	12.011
4104	CB	268	TMC3	C3	1	0.0862	12.011
4105	CB	268	TMC3	C4	1	-0.15	12.011
4106	CB	268	TMC3	C5	1	0.0862	12.011
4107	CB	268	TMC3	C6	1	-0.15	12.011
4108	C=O	268	TMC3	C	1	0.5438	12.011
4109	O=C	268	TMC3	O	1	-0.57	15.9994
4110	HCMM	268	TMC3	H	1	0.15	1.0079
4111	HCMM	268	TMC3	H1	1	0.15	1.0079
4112	HCMM	268	TMC3	H2	1	0.15	1.0079
4113	C=O	268	TMC3	C7	1	0.5438	12.011
4114	C=O	268	TMC3	C8	1	0.5438	12.011
4115	O=C	268	TMC3	O1	1	-0.57	15.9994
4116	O=C	268	TMC3	O2	1	-0.57	15.9994
4117	CB	269	MPD2	C	1	-0.15	12.011
4118	CB	269	MPD2	C1	1	0.117	12.011
4119	CB	269	MPD2	C2	1	-0.15	12.011
4120	CB	269	MPD2	C3	1	0.117	12.011
4121	CB	269	MPD2	C4	1	-0.15	12.011
4122	CB	269	MPD2	C5	1	-0.15	12.011
4123	HCMM	269	MPD2	H	1	0.15	1.0079
4124	HCMM	269	MPD2	H1	1	0.15	1.0079
4125	HCMM	269	MPD2	H2	1	0.15	1.0079
4126	HCMM	269	MPD2	H3	1	0.15	1.0079
4127	NC=O	269	MPD2	N	1	-0.547	14.0067
4128	HNCO	269	MPD2	H5	1	0.37	1.0079
4129	NC=O	269	MPD2	N1	1	-0.547	14.0067
4130	HNCO	269	MPD2	H7	1	0.37	1.0079
4131	CB	270	TMC3	C1	1	0.0862	12.011
4132	CB	270	TMC3	C2	1	-0.15	12.011
4133	CB	270	TMC3	C3	1	0.0862	12.011
4134	CB	270	TMC3	C4	1	-0.15	12.011
4135	CB	270	TMC3	C5	1	0.0862	12.011
4136	CB	270	TMC3	C6	1	-0.15	12.011
4137	C=O	270	TMC3	C	1	0.5438	12.011
4138	O=C	270	TMC3	O	1	-0.57	15.9994
4139	HCMM	270	TMC3	H	1	0.15	1.0079
4140	HCMM	270	TMC3	H1	1	0.15	1.0079
4141	HCMM	270	TMC3	H2	1	0.15	1.0079
4142	C=O	270	TMC3	C7	1	0.5438	12.011
4143	C=O	270	TMC3	C8	1	0.5438	12.011
4144	O=C	270	TMC3	O1	1	-0.57	15.9994
4145	O=C	270	TMC3	O2	1	-0.57	15.9994
4146	CB	271	MPD2	C	1	-0.15	12.011
4147	CB	271	MPD2	C1	1	0.117	12.011
4148	CB	271	MPD2	C2	1	-0.15	12.011
4149	CB	271	MPD2	C3	1	0.117	12.011
4150	CB	271	MPD2	C4	1	-0.15	12.011
4151	CB	271	MPD2	C5	1	-0.15	12.011
4152	HCMM	271	MPD2	H	1	0.15	1.0079
4153	HCMM	271	MPD2	H1	1	0.15	1.0079
4154	HCMM	271	MPD2	H2	1	0.15	1.0079
4155	HCMM	271	MPD2	H3	1	0.15	1.0079
4156	NC=O	271	MPD2	N	1	-0.547	14.0067
4157	HNCO	271	MPD2	H5	1	0.37	1.0079
4158	NC=O	271	MPD2	N1	1	-0.547	14.0067
4159	HNCO	271	MPD2	H7	1	0.37	1.0079
4160	CB	272	TMC3	C1	1	0.0862	12.011
4161	CB	272	TMC3	C2	1	-0.15	12.011
4162	CB	272	TMC3	C3	1	0.0862	12.011
4163	CB	272	TMC3	C4	1	-0.15	12.011
4164	CB	272	TMC3	C5	1	0.0862	12.011
4165	CB	272	TMC3	C6	1	-0.15	12.011
4166	C=O	272	TMC3	C	1	0.5438	12.011
4167	O=C	272	TMC3	O	1	-0.57	15.9994
4168	HCMM	272	TMC3	H	1	0.15	1.0079
4169	HCMM	272	TMC3	H1	1	0.15	1.0079
4170	HCMM	272	TMC3	H2	1	0.15	1.0079
4171	C=O	272	TMC3	C7	1	0.5438	12.011
4172	C=O	272	TMC3	C8	1	0.5438	12.011
4173	O=C	272	TMC3	O1	1	-0.57	15.9994
4174	O=C	272	TMC3	O2	1	-0.57	15.9994
4175	CB	273	MPD2	C	1	-0.15	12.011
4176	CB	273	MPD2	C1	1	0.117	12.011
4177	CB	273	MPD2	C2	1	-0.15	12.011
4178	CB	273	MPD2	C3	1	0.117	12.011
4179	CB	273	MPD2	C4	1	-0.15	12.011
4180	CB	273	MPD2	C5	1	-0.15	12.011
4181	HCMM	273	MPD2	H	1	0.15	1.0079
4182	HCMM	273	MPD2	H1	1	0.15	1.0079
4183	HCMM	273	MPD2	H2	1	0.15	1.0079
4184	HCMM	273	MPD2	H3	1	0.15	1.0079
4185	NC=O	273	MPD2	N	1	-0.547	14.0067
4186	HNCO	273	MPD2	H5	1	0.37	1.0079
4187	NC=O	273	MPD2	N1	1	-0.547	14.0067
4188	HNCO	273	MPD2	H7	1	0.37	1.0079
4189	CB	274	TMC3	C1	1	0.0862	12.011
4190	CB	274	TMC3	C2	1	-0.15	12.011
4191	CB	274	TMC3	C3	1	0.0862	12.011
4192	CB	274	TMC3	C4	1	-0.15	12.011
4193	CB	274	TMC3	C5	1	0.0862	12.011
4194	CB	274	TMC3	C6	1	-0.15	12.011
4195	C=O	274	TMC3	C	1	0.5438	12.011
4196	O=C	274	TMC3	O	1	-0.57	15.9994
4197	HCMM	274	TMC3	H	1	0.15	1.0079
4198	HCMM	274	TMC3	H1	1	0.15	1.0079
4199	HCMM	274	TMC3	H2	1	0.15	1.0079
4200	C=O	274	TMC3	C7	1	0.5438	12.011
4201	C=O	274	TMC3	C8	1	0.5438	12.011
4202	O=C	274	TMC3	O1	1	-0.57	15.9994
4203	O=C	274	TMC3	O2	1	-0.57	15.9994
4204	CB	275	MPD2	C	1	-0.15	12.011
4205	CB	275	MPD2	C1	1	0.117	12.011
4206	CB	275	MPD2	C2	1	-0.15	12.011
4207	CB	275	MPD2	C3	1	0.117	12.011
4208	CB	275	MPD2	C4	1	-0.15	12.011
4209	CB	275	MPD2	C5	1	-0.15	12.011
4210	HCMM	275	MPD2	H	1	0.15	1.0079
4211	HCMM	275	MPD2	H1	1	0.15	1.0079
4212	HCMM	275	MPD2	H2	1	0.15	1.0079
4213	HCMM	275	MPD2	H3	1	0.15	1.0079
4214	NC=O	275	MPD2	N	1	-0.547	14.0067
4215	HNCO	275	MPD2	H5	1	0.37	1.0079
4216	NC=O	275	MPD2	N1	1	-0.547	14.0067
4217	HNCO	275	MPD2	H7	1	0.37	1.0079
4218	CB	276	TMC3	C1	1	0.0862	12.011
4219	CB	276	TMC3	C2	1	-0.15	12.011
4220	CB	276	TMC3	C3	1	0.0862	12.011
4221	CB	276	TMC3	C4	1	-0.15	12.011
4222	CB	276	TMC3	C5	1	0.0862	12.011
4223	CB	276	TMC3	C6	1	-0.15	12.011
4224	C=O	276	TMC3	C	1	0.5438	12.011
4225	O=C	276	TMC3	O	1	-0.57	15.9994
4226	HCMM	276	TMC3	H	1	0.15	1.0079
4227	HCMM	276	TMC3	H1	1	0.15	1.0079
4228	HCMM	276	TMC3	H2	1	0.15	1.0079
4229	C=O	276	TMC3	C7	1	0.5438	12.011
4230	C=O	276	TMC3	C8	1	0.5438	12.011
4231	O=C	276	TMC3	O1	1	-0.57	15.9994
4232	O=C	276	TMC3	O2	1	-0.57	15.9994
4233	CB	277	MPD2	C	1	-0.15	12.011
4234	CB	277	MPD2	C1	1	0.117	12.011
4235	CB	277	MPD2	C2	1	-0.15	12.011
4236	CB	277	MPD2	C3	1	0.117	12.011
4237	CB	277	MPD2	C4	1	-0.15	12.011
4238	CB	277	MPD2	C5	1	-0.15	12.011
4239	HCMM	277	MPD2	H	1	0.15	1.0079
4240	HCMM	277	MPD2	H1	1	0.15	1.0079
4241	HCMM	277	MPD2	H2	1	0.15	1.0079
4242	HCMM	277	MPD2	H3	1	0.15	1.0079
4243	NC=O	277	MPD2	N	1	-0.547	14.0067
4244	HNCO	277	MPD2	H5	1	0.37	1.0079
4245	NC=O	277	MPD2	N1	1	-0.547	14.0067
4246	HNCO	277	MPD2	H7	1	0.37	1.0079
4247	CB	278	TMC3	C1	1	0.0862	12.011
4248	CB	278	TMC3	C2	1	-0.15	12.011
4249	CB	278	TMC3	C3	1	0.0862	12.011
4250	CB	278	TMC3	C4	1	-0.15	12.011
4251	CB	278	TMC3	C5	1	0.0862	12.011
4252	CB	278	TMC3	C6	1	-0.15	12.011
4253	C=O	278	TMC3	C	1	0.5438	12.011
4254	O=C	278	TMC3	O	1	-0.57	15.9994
4255	HCMM	278	TMC3	H	1	0.15	1.0079
4256	HCMM	278	TMC3	H1	1	0.15	1.0079
4257	HCMM	278	TMC3	H2	1	0.15	1.0079
4258	C=O	278	TMC3	C7	1	0.5438	12.011
4259	C=O	278	TMC3	C8	1	0.5438	12.011
4260	O=C	278	TMC3	O1	1	-0.57	15.9994
4261	O=C	278	TMC3	O2	1	-0.57	15.9994
4262	CB	279	MPD2	C	1	-0.15	12.011
4263	CB	279	MPD2	C1	1	0.117	12.011
4264	CB	279	MPD2	C2	1	-0.15	12.011
4265	CB	279	MPD2	C3	1	0.117	12.011
4266	CB	279	MPD2	C4	1	-0.15	12.011
4267	CB	279	MPD2	C5	1	-0.15	12.011
4268	HCMM	279	MPD2	H	1	0.15	1.0079
4269	HCMM	279	MPD2	H1	1	0.15	1.0079
4270	HCMM	279	MPD2	H2	1	0.15	1.0079
4271	HCMM	279	MPD2	H3	1	0.15	1.0079
4272	NC=O	279	MPD2	N	1	-0.547	14.0067
4273	HNCO	279	MPD2	H5	1	0.37	1.0079
4274	NC=O	279	MPD2	N1	1	-0.547	14.0067
4275	HNCO	279	MPD2	H7	1	0.37	1.0079
4276	CB	280	TMC3	C1	1	0.0862	12.011
4277	CB	280	TMC3	C2	1	-0.15	12.011
4278	CB	280	TMC3	C3	1	0.0862	12.011
4279	CB	280	TMC3	C4	1	-0.15	12.011
4280	CB	280	TMC3	C5	1	0.0862	12.011
4281	CB	280	TMC3	C6	1	-0.15	12.011
4282	C=O	280	TMC3	C	1	0.5438	12.011
4283	O=C	280	TMC3	O	1	-0.57	15.9994
4284	HCMM	280	TMC3	H	1	0.15	1.0079
4285	HCMM	280	TMC3	H1	1	0.15	1.0079
4286	HCMM	280	TMC3	H2	1	0.15	1.0079
4287	C=O	280	TMC3	C7	1	0.5438	12.011
4288	C=O	280	TMC3	C8	1	0.5438	12.011
4289	O=C	280	TMC3	O1	1	-0.57	15.9994
4290	O=C	280	TMC3	O2	1	-0.57	15.9994
4291	CB	281	TMC3	C1	1	0.0862	12.011
4292	CB	281	TMC3	C2	1	-0.15	12.011
4293	CB	281	TMC3	C3	1	0.0862	12.011
4294	CB	281	TMC3	C4	1	-0.15	12.011
4295	CB	281	TMC3	C5	1	0.0862	12.011
4296	CB	281	TMC3	C6	1	-0.15	12.011
4297	C=O	281	TMC3	C	1	0.5438	12.011
4298	O=C	281	TMC3	O	1	-0.57	15.9994
4299	HCMM	281	TMC3	H	1	0.15	1.0079
4300	HCMM	281	TMC3	H1	1	0.15	1.0079
4301	HCMM	281	TMC3	H2	1	0.15	1.0079
4302	C=O	281	TMC3	C7	1	0.5438	12.011
4303	C=O	281	TMC3	C8	1	0.5438	12.011
4304	O=C	281	TMC3	O1	1	-0.57	15.9994
4305	O=C	281	TMC3	O2	1	-0.57	15.9994
4306	CB	282	MPD2	C	1	-0.15	12.011
4307	CB	282	MPD2	C1	1	0.117	12.011
4308	CB	282	MPD2	C2	1	-0.15	12.011
4309	CB	282	MPD2	C3	1	0.117	12.011
4310	CB	282	MPD2	C4	1	-0.15	12.011
4311	CB	282	MPD2	C5	1	-0.15	12.011
4312	HCMM	282	MPD2	H	1	0.15	1.0079
4313	HCMM	282	MPD2	H1	1	0.15	1.0079
4314	HCMM	282	MPD2	H2	1	0.15	1.0079
4315	HCMM	282	MPD2	H3	1	0.15	1.0079
4316	NC=O	282	MPD2	N	1	-0.547	14.0067
4317	HNCO	282	MPD2	H5	1	0.37	1.0079
4318	NC=O	282	MPD2	N1	1	-0.547	14.0067
4319	HNCO	282	MPD2	H7	1	0.37	1.0079
4320	CB	283	TMC3	C1	1	0.0862	12.011
4321	CB	283	TMC3	C2	1	-0.15	12.011
4322	CB	283	TMC3	C3	1	0.0862	12.011
4323	CB	283	TMC3	C4	1	-0.15	12.011
4324	CB	283	TMC3	C5	1	0.0862	12.011
4325	CB	283	TMC3	C6	1	-0.15	12.011
4326	C=O	283	TMC3	C	1	0.5438	12.011
4327	O=C	283	TMC3	O	1	-0.57	15.9994
4328	HCMM	283	TMC3	H	1	0.15	1.0079
4329	HCMM	283	TMC3	H1	1	0.15	1.0079
4330	HCMM	283	TMC3	H2	1	0.15	1.0079
4331	C=O	283	TMC3	C7	1	0.5438	12.011
4332	C=O	283	TMC3	C8	1	0.5438	12.011
4333	O=C	283	TMC3	O1	1	-0.57	15.9994
4334	O=C	283	TMC3	O2	1	-0.57	15.9994
4335	CB	284	MPD2	C	1	-0.15	12.011
4336	CB	284	MPD2	C1	1	0.117	12.011
4337	CB	284	MPD2	C2	1	-0.15	12.011
4338	CB	284	MPD2	C3	1	0.117	12.011
4339	CB	284	MPD2	C4	1	-0.15	12.011
4340	CB	284	MPD2	C5	1	-0.15	12.011
4341	HCMM	284	MPD2	H	1	0.15	1.0079
4342	HCMM	284	MPD2	H1	1	0.15	1.0079
4343	HCMM	284	MPD2	H2	1	0.15	1.0079
4344	HCMM	284	MPD2	H3	1	0.15	1.0079
4345	NC=O	284	MPD2	N	1	-0.547	14.0067
4346	HNCO	284	MPD2	H5	1	0.37	1.0079
4347	NC=O	284	MPD2	N1	1	-0.547	14.0067
4348	HNCO	284	MPD2	H7	1	0.37	1.0079
4349	CB	285	TMC3	C1	1	0.0862	12.011
4350	CB	285	TMC3	C2	1	-0.15	12.011
4351	CB	285	TMC3	C3	1	0.0862	12.011
4352	CB	285	TMC3	C4	1	-0.15	12.011
4353	CB	285	TMC3	C5	1	0.0862	12.011
4354	CB	285	TMC3	C6	1	-0.15	12.011
4355	C=O	285	TMC3	C	1	0.5438	12.011
4356	O=C	285	TMC3	O	1	-0.57	15.9994
4357	HCMM	285	TMC3	H	1	0.15	1.0079
4358	HCMM	285	TMC3	H1	1	0.15	1.0079
4359	HCMM	285	TMC3	H2	1	0.15	1.0079
4360	C=O	285	TMC3	C7	1	0.5438	12.011
4361	C=O	285	TMC3	C8	1	0.5438	12.011
4362	O=C	285	TMC3	O1	1	-0.57	15.9994
4363	O=C	285	TMC3	O2	1	-0.57	15.9994
4364	CB	286	MPD2	C	1	-0.15	12.011
4365	CB	286	MPD2	C1	1	0.117	12.011
4366	CB	286	MPD2	C2	1	-0.15	12.011
4367	CB	286	MPD2	C3	1	0.117	12.011
4368	CB	286	MPD2	C4	1	-0.15	12.011
4369	CB	286	MPD2	C5	1	-0.15	12.011
4370	HCMM	286	MPD2	H	1	0.15	1.0079
4371	HCMM	286	MPD2	H1	1	0.15	1.0079
4372	HCMM	286	MPD2	H2	1	0.15	1.0079
4373	HCMM	286	MPD2	H3	1	0.15	1.0079
4374	NC=O	286	MPD2	N	1	-0.547	14.0067
4375	HNCO	286	MPD2	H5	1	0.37	1.0079
4376	NC=O	286	MPD2	N1	1	-0.547	14.0067
4377	HNCO	286	MPD2	H7	1	0.37	1.0079
4378	CB	287	TMC3	C1	1	0.0862	12.011
4379	CB	287	TMC3	C2	1	-0.15	12.011
4380	CB	287	TMC3	C3	1	0.0862	12.011
4381	CB	287	TMC3	C4	1	-0.15	12.011
4382	CB	287	TMC3	C5	1	0.0862	12.011
4383	CB	287	TMC3	C6	1	-0.15	12.011
4384	C=O	287	TMC3	C	1	0.5438	12.011
4385	O=C	287	TMC3	O	1	-0.57	15.9994
4386	HCMM	287	TMC3	H	1	0.15	1.0079
4387	HCMM	287	TMC3	H1	1	0.15	1.0079
4388	HCMM	287	TMC3	H2	1	0.15	1.0079
4389	C=O	287	TMC3	C7	1	0.5438	12.011
4390	C=O	287	TMC3	C8	1	0.5438	12.011
4391	O=C	287	TMC3	O1	1	-0.57	15.9994
4392	O=C	287	TMC3	O2	1	-0.57	15.9994
4393	CB	288	TMC3	C1	1	0.0862	12.011
4394	CB	288	TMC3	C2	1	-0.15	12.011
4395	CB	288	TMC3	C3	1	0.0862	12.011
4396	CB	288	TMC3	C4	1	-0.15	12.011
4397	CB	288	TMC3	C5	1	0.0862	12.011
4398	CB	288	TMC3	C6	1	-0.15	12.011
4399	C=O	288	TMC3	C	1	0.5438	12.011
4400	O=C	288	TMC3	O	1	-0.57	15.9994
4401	HCMM	288	TMC3	H	1	0.15	1.0079
4402	HCMM	288	TMC3	H1	1	0.15	1.0079
4403	HCMM	288	TMC3	H2	1	0.15	1.0079
4404	C=O	288	TMC3	C7	1	0.5438	12.011
4405	C=O	288	TMC3	C8	1	0.5438	12.011
4406	O=C	288	TMC3	O1	1	-0.57	15.9994
4407	O=C	288	TMC3	O2	1	-0.57	15.9994
4408	CB	289	MPD2	C	1	-0.15	12.011
4409	CB	289	MPD2	C1	1	0.117	12.011
4410	CB	289	MPD2	C2	1	-0.15	12.011
4411	CB	289	MPD2	C3	1	0.117	12.011
4412	CB	289	MPD2	C4	1	-0.15	12.011
4413	CB	289	MPD2	C5	1	-0.15	12.011
4414	HCMM	289	MPD2	H	1	0.15	1.0079
4415	HCMM	289	MPD2	H1	1	0.15	1.0079
4416	HCMM	289	MPD2	H2	1	0.15	1.0079
4417	HCMM	289	MPD2	H3	1	0.15	1.0079
4418	NC=O	289	MPD2	N	1	-0.547	14.0067
4419	HNCO	289	MPD2	H5	1	0.37	1.0079
4420	NC=O	289	MPD2	N1	1	-0.547	14.0067
4421	HNCO	289	MPD2	H7	1	0.37	1.0079
4422	CB	290	TMC3	C1	1	0.0862	12.011
4423	CB	290	TMC3	C2	1	-0.15	12.011
4424	CB	290	TMC3	C3	1	0.0862	12.011
4425	CB	290	TMC3	C4	1	-0.15	12.011
4426	CB	290	TMC3	C5	1	0.0862	12.011
4427	CB	290	TMC3	C6	1	-0.15	12.011
4428	C=O	290	TMC3	C	1	0.5438	12.011
4429	O=C	290	TMC3	O	1	-0.57	15.9994
4430	HCMM	290	TMC3	H	1	0.15	1.0079
4431	HCMM	290	TMC3	H1	1	0.15	1.0079
4432	HCMM	290	TMC3	H2	1	0.15	1.0079
4433	C=O	290	TMC3	C7	1	0.5438	12.011
4434	C=O	290	TMC3	C8	1	0.5438	12.011
4435	O=C	290	TMC3	O1	1	-0.57	15.9994
4436	O=C	290	TMC3	O2	1	-0.57	15.9994
4437	CB	291	MPD2	C	1	-0.15	12.011
4438	CB	291	MPD2	C1	1	0.117	12.011
4439	CB	291	MPD2	C2	1	-0.15	12.011
4440	CB	291	MPD2	C3	1	0.117	12.011
4441	CB	291	MPD2	C4	1	-0.15	12.011
4442	CB	291	MPD2	C5	1	-0.15	12.011
4443	HCMM	291	MPD2	H	1	0.15	1.0079
4444	HCMM	291	MPD2	H1	1	0.15	1.0079
4445	HCMM	291	MPD2	H2	1	0.15	1.0079
4446	HCMM	291	MPD2	H3	1	0.15	1.0079
4447	NC=O	291	MPD2	N	1	-0.547	14.0067
4448	HNCO	291	MPD2	H5	1	0.37	1.0079
4449	NC=O	291	MPD2	N1	1	-0.547	14.0067
4450	HNCO	291	MPD2	H7	1	0.37	1.0079
4451	CB	292	TMC3	C1	1	0.0862	12.011
4452	CB	292	TMC3	C2	1	-0.15	12.011
4453	CB	292	TMC3	C3	1	0.0862	12.011
4454	CB	292	TMC3	C4	1	-0.15	12.011
4455	CB	292	TMC3	C5	1	0.0862	12.011
4456	CB	292	TMC3	C6	1	-0.15	12.011
4457	C=O	292	TMC3	C	1	0.5438	12.011
4458	O=C	292	TMC3	O	1	-0.57	15.9994
4459	HCMM	292	TMC3	H	1	0.15	1.0079
4460	HCMM	292	TMC3	H1	1	0.15	1.0079
4461	HCMM	292	TMC3	H2	1	0.15	1.0079
4462	C=O	292	TMC3	C7	1	0.5438	12.011
4463	C=O	292	TMC3	C8	1	0.5438	12.011
4464	O=C	292	TMC3	O1	1	-0.57	15.9994
4465	O=C	292	TMC3	O2	1	-0.57	15.9994
4466	CB	293	MPD2	C	1	-0.15	12.011
4467	CB	293	MPD2	C1	1	0.117	12.011
4468	CB	293	MPD2	C2	1	-0.15	12.011
4469	CB	293	MPD2	C3	1	0.117	12.011
4470	CB	293	MPD2	C4	1	-0.15	12.011
4471	CB	293	MPD2	C5	1	-0.15	12.011
4472	HCMM	293	MPD2	H	1	0.15	1.0079
4473	HCMM	293	MPD2	H1	1	0.15	1.0079
4474	HCMM	293	MPD2	H2	1	0.15	1.0079
4475	HCMM	293	MPD2	H3	1	0.15	1.0079
4476	NC=O	293	MPD2	N	1	-0.547	14.0067
4477	HNCO	293	MPD2	H5	1	0.37	1.0079
4478	NC=O	293	MPD2	N1	1	-0.547	14.0067
4479	HNCO	293	MPD2	H7	1	0.37	1.0079
4480	CB	294	TMC3	C1	1	0.0862	12.011
4481	CB	294	TMC3	C2	1	-0.15	12.011
4482	CB	294	TMC3	C3	1	0.0862	12.011
4483	CB	294	TMC3	C4	1	-0.15	12.011
4484	CB	294	TMC3	C5	1	0.0862	12.011
4485	CB	294	TMC3	C6	1	-0.15	12.011
4486	C=O	294	TMC3	C	1	0.5438	12.011
4487	O=C	294	TMC3	O	1	-0.57	15.9994
4488	HCMM	294	TMC3	H	1	0.15	1.0079
4489	HCMM	294	TMC3	H1	1	0.15	1.0079
4490	HCMM	294	TMC3	H2	1	0.15	1.0079
4491	C=O	294	TMC3	C7	1	0.5438	12.011
4492	C=O	294	TMC3	C8	1	0.5438	12.011
4493	O=C	294	TMC3	O1	1	-0.57	15.9994
4494	O=C	294	TMC3	O2	1	-0.57	15.9994
4495	CB	295	MPD2	C	1	-0.15	12.011
4496	CB	295	MPD2	C1	1	0.117	12.011
4497	CB	295	MPD2	C2	1	-0.15	12.011
4498	CB	295	MPD2	C3	1	0.117	12.011
4499	CB	295	MPD2	C4	1	-0.15	12.011
4500	CB	295	MPD2	C5	1	-0.15	12.011
4501	HCMM	295	MPD2	H	1	0.15	1.0079
4502	HCMM	295	MPD2	H1	1	0.15	1.0079
4503	HCMM	295	MPD2	H2	1	0.15	1.0079
4504	HCMM	295	MPD2	H3	1	0.15	1.0079
4505	NC=O	295	MPD2	N	1	-0.547	14.0067
4506	HNCO	295	MPD2	H5	1	0.37	1.0079
4507	NC=O	295	MPD2	N1	1	-0.547	14.0067
4508	HNCO	295	MPD2	H7	1	0.37	1.0079
4509	CB	296	TMC3	C1	1	0.0862	12.011
4510	CB	296	TMC3	C2	1	-0.15	12.011
4511	CB	296	TMC3	C3	1	0.0862	12.011
4512	CB	296	TMC3	C4	1	-0.15	12.011
4513	CB	296	TMC3	C5	1	0.0862	12.011
4514	CB	296	TMC3	C6	1	-0.15	12.011
4515	C=O	296	TMC3	C	1	0.5438	12.011
4516	O=C	296	TMC3	O	1	-0.57	15.9994
4517	HCMM	296	TMC3	H	1	0.15	1.0079
4518	HCMM	296	TMC3	H1	1	0.15	1.0079
4519	HCMM	296	TMC3	H2	1	0.15	1.0079
4520	C=O	296	TMC3	C7	1	0.5438	12.011
4521	C=O	296	TMC3	C8	1	0.5438	12.011
4522	O=C	296	TMC3	O1	1	-0.57	15.9994
4523	O=C	296	TMC3	O2	1	-0.57	15.9994
4524	CB	297	MPD2	C	1	-0.15	12.011
4525	CB	297	MPD2	C1	1	0.117	12.011
4526	CB	297	MPD2	C2	1	-0.15	12.011
4527	CB	297	MPD2	C3	1	0.117	12.011
4528	CB	297	MPD2	C4	1	-0.15	12.011
4529	CB	297	MPD2	C5	1	-0.15	12.011
4530	HCMM	297	MPD2	H	1	0.15	1.0079
4531	HCMM	297	MPD2	H1	1	0.15	1.0079
4532	HCMM	297	MPD2	H2	1	0.15	1.0079
4533	HCMM	297	MPD2	H3	1	0.15	1.0079
4534	NC=O	297	MPD2	N	1	-0.547	14.0067
4535	HNCO	297	MPD2	H5	1	0.37	1.0079
4536	NC=O	297	MPD2	N1	1	-0.547	14.0067
4537	HNCO	297	MPD2	H7	1	0.37	1.0079
4538	CB	298	TMC3	C1	1	0.0862	12.011
4539	CB	298	TMC3	C2	1	-0.15	12.011
4540	CB	298	TMC3	C3	1	0.0862	12.011
4541	CB	298	TMC3	C4	1	-0.15	12.011
4542	CB	298	TMC3	C5	1	0.0862	12.011
4543	CB	298	TMC3	C6	1	-0.15	12.011
4544	C=O	298	TMC3	C	1	0.5438	12.011
4545	O=C	298	TMC3	O	1	-0.57	15.9994
4546	HCMM	298	TMC3	H	1	0.15	1.0079
4547	HCMM	298	TMC3	H1	1	0.15	1.0079
4548	HCMM	298	TMC3	H2	1	0.15	1.0079
4549	C=O	298	TMC3	C7	1	0.5438	12.011
4550	C=O	298	TMC3	C8	1	0.5438	12.011
4551	O=C	298	TMC3	O1	1	-0.57	15.9994
4552	O=C	298	TMC3	O2	1	-0.57	15.9994
4553	CB	299	MPD2	C	1	-0.15	12.011
4554	CB	299	MPD2	C1	1	0.117	12.011
4555	CB	299	MPD2	C2	1	-0.15	12.011
4556	CB	299	MPD2	C3	1	0.117	12.011
4557	CB	299	MPD2	C4	1	-0.15	12.011
4558	CB	299	MPD2	C5	1	-0.15	12.011
4559	HCMM	299	MPD2	H	1	0.15	1.0079
4560	HCMM	299	MPD2	H1	1	0.15	1.0079
4561	HCMM	299	MPD2	H2	1	0.15	1.0079
4562	HCMM	299	MPD2	H3	1	0.15	1.0079
4563	NC=O	299	MPD2	N	1	-0.547	14.0067
4564	HNCO	299	MPD2	H5	1	0.37	1.0079
4565	NC=O	299	MPD2	N1	1	-0.547	14.0067
4566	HNCO	299	MPD2	H7	1	0.37	1.0079
4567	CB	300	TMC3	C1	1	0.0862	12.011
4568	CB	300	TMC3	C2	1	-0.15	12.011
4569	CB	300	TMC3	C3	1	0.0862	12.011
4570	CB	300	TMC3	C4	1	-0.15	12.011
4571	CB	300	TMC3	C5	1	0.0862	12.011
4572	CB	300	TMC3	C6	1	-0.15	12.011
4573	C=O	300	TMC3	C	1	0.5438	12.011
4574	O=C	300	TMC3	O	1	-0.57	15.9994
4575	HCMM	300	TMC3	H	1	0.15	1.0079
4576	HCMM	300	TMC3	H1	1	0.15	1.0079
4577	HCMM	300	TMC3	H2	1	0.15	1.0079
4578	C=O	300	TMC3	C7	1	0.5438	12.011
4579	C=O	300	TMC3	C8	1	0.5438	12.011
4580	O=C	300	TMC3	O1	1	-0.57	15.9994
4581	O=C	300	TMC3	O2	1	-0.57	15.9994
4582	CB	301	MPD2	C	1	-0.15	12.011
4583	CB	301	MPD2	C1	1	0.117	12.011
4584	CB	301	MPD2	C2	1	-0.15	12.011
4585	CB	301	MPD2	C3	1	0.117	12.011
4586	CB	301	MPD2	C4	1	-0.15	12.011
4587	CB	301	MPD2	C5	1	-0.15	12.011
4588	HCMM	301	MPD2	H	1	0.15	1.0079
4589	HCMM	301	MPD2	H1	1	0.15	1.0079
4590	HCMM	301	MPD2	H2	1	0.15	1.0079
4591	HCMM	301	MPD2	H3	1	0.15	1.0079
4592	NC=O	301	MPD2	N	1	-0.547	14.0067
4593	HNCO	301	MPD2	H5	1	0.37	1.0079
4594	NC=O	301	MPD2	N1	1	-0.547	14.0067
4595	HNCO	301	MPD2	H7	1	0.37	1.0079
4596	CB	302	TMC3	C1	1	0.0862	12.011
4597	CB	302	TMC3	C2	1	-0.15	12.011
4598	CB	302	TMC3	C3	1	0.0862	12.011
4599	CB	302	TMC3	C4	1	-0.15	12.011
4600	CB	302	TMC3	C5	1	0.0862	12.011
4601	CB	302	TMC3	C6	1	-0.15	12.011
4602	C=O	302	TMC3	C	1	0.5438	12.011
4603	O=C	302	TMC3	O	1	-0.57	15.9994
4604	HCMM	302	TMC3	H	1	0.15	1.0079
4605	HCMM	302	TMC3	H1	1	0.15	1.0079
4606	HCMM	302	TMC3	H2	1	0.15	1.0079
4607	C=O	302	TMC3	C7	1	0.5438	12.011
4608	C=O	302	TMC3	C8	1	0.5438	12.011
4609	O=C	302	TMC3	O1	1	-0.57	15.9994
4610	O=C	302	TMC3	O2	1	-0.57	15.9994
4611	CB	303	MPD2	C	1	-0.15	12.011
4612	CB	303	MPD2	C1	1	0.117	12.011
4613	CB	303	MPD2	C2	1	-0.15	12.011
4614	CB	303	MPD2	C3	1	0.117	12.011
4615	CB	303	MPD2	C4	1	-0.15	12.011
4616	CB	303	MPD2	C5	1	-0.15	12.011
4617	HCMM	303	MPD2	H	1	0.15	1.0079
4618	HCMM	303	MPD2	H1	1	0.15	1.0079
4619	HCMM	303	MPD2	H2	1	0.15	1.0079
4620	HCMM	303	MPD2	H3	1	0.15	1.0079
4621	NC=O	303	MPD2	N	1	-0.547	14.0067
4622	HNCO	303	MPD2	H5	1	0.37	1.0079
4623	NC=O	303	MPD2	N1	1	-0.547	14.0067
4624	HNCO	303	MPD2	H7	1	0.37	1.0079
4625	CB	304	TMC3	C1	1	0.0862	12.011
4626	CB	304	TMC3	C2	1	-0.15	12.011
4627	CB	304	TMC3	C3	1	0.0862	12.011
4628	CB	304	TMC3	C4	1	-0.15	12.011
4629	CB	304	TMC3	C5	1	0.0862	12.011
4630	CB	304	TMC3	C6	1	-0.15	12.011
4631	C=O	304	TMC3	C	1	0.5438	12.011
4632	O=C	304	TMC3	O	1	-0.57	15.9994
4633	HCMM	304	TMC3	H	1	0.15	1.0079
4634	HCMM	304	TMC3	H1	1	0.15	1.0079
4635	HCMM	304	TMC3	H2	1	0.15	1.0079
4636	C=O	304	TMC3	C7	1	0.5438	12.011
4637	C=O	304	TMC3	C8	1	0.5438	12.011
4638	O=C	304	TMC3	O1	1	-0.57	15.9994
4639	O=C	304	TMC3	O2	1	-0.57	15.9994
4640	CB	305	MPD2	C	1	-0.15	12.011
4641	CB	305	MPD2	C1	1	0.117	12.011
4642	CB	305	MPD2	C2	1	-0.15	12.011
4643	CB	305	MPD2	C3	1	0.117	12.011
4644	CB	305	MPD2	C4	1	-0.15	12.011
4645	CB	305	MPD2	C5	1	-0.15	12.011
4646	HCMM	305	MPD2	H	1	0.15	1.0079
4647	HCMM	305	MPD2	H1	1	0.15	1.0079
4648	HCMM	305	MPD2	H2	1	0.15	1.0079
4649	HCMM	305	MPD2	H3	1	0.15	1.0079
4650	NC=O	305	MPD2	N	1	-0.547	14.0067
4651	HNCO	305	MPD2	H5	1	0.37	1.0079
4652	NC=O	305	MPD2	N1	1	-0.547	14.0067
4653	HNCO	305	MPD2	H7	1	0.37	1.0079
4654	CB	306	TMC3	C1	1	0.0862	12.011
4655	CB	306	TMC3	C2	1	-0.15	12.011
4656	CB	306	TMC3	C3	1	0.0862	12.011
4657	CB	306	TMC3	C4	1	-0.15	12.011
4658	CB	306	TMC3	C5	1	0.0862	12.011
4659	CB	306	TMC3	C6	1	-0.15	12.011
4660	C=O	306	TMC3	C	1	0.5438	12.011
4661	O=C	306	TMC3	O	1	-0.57	15.9994
4662	HCMM	306	TMC3	H	1	0.15	1.0079
4663	HCMM	306	TMC3	H1	1	0.15	1.0079
4664	HCMM	306	TMC3	H2	1	0.15	1.0079
4665	C=O	306	TMC3	C7	1	0.5438	12.011
4666	C=O	306	TMC3	C8	1	0.5438	12.011
4667	O=C	306	TMC3	O1	1	-0.57	15.9994
4668	O=C	306	TMC3	O2	1	-0.57	15.9994
4669	CB	307	MPD2	C	1	-0.15	12.011
4670	CB	307	MPD2	C1	1	0.117	12.011
4671	CB	307	MPD2	C2	1	-0.15	12.011
4672	CB	307	MPD2	C3	1	0.117	12.011
4673	CB	307	MPD2	C4	1	-0.15	12.011
4674	CB	307	MPD2	C5	1	-0.15	12.011
4675	HCMM	307	MPD2	H	1	0.15	1.0079
4676	HCMM	307	MPD2	H1	1	0.15	1.0079
4677	HCMM	307	MPD2	H2	1	0.15	1.0079
4678	HCMM	307	MPD2	H3	1	0.15	1.0079
4679	NC=O	307	MPD2	N	1	-0.547	14.0067
4680	HNCO	307	MPD2	H5	1	0.37	1.0079
4681	NC=O	307	MPD2	N1	1	-0.547	14.0067
4682	HNCO	307	MPD2	H7	1	0.37	1.0079
4683	CB	308	TMC3	C1	1	0.0862	12.011
4684	CB	308	TMC3	C2	1	-0.15	12.011
4685	CB	308	TMC3	C3	1	0.0862	12.011
4686	CB	308	TMC3	C4	1	-0.15	12.011
4687	CB	308	TMC3	C5	1	0.0862	12.011
4688	CB	308	TMC3	C6	1	-0.15	12.011
4689	C=O	308	TMC3	C	1	0.5438	12.011
4690	O=C	308	TMC3	O	1	-0.57	15.9994
4691	HCMM	308	TMC3	H	1	0.15	1.0079
4692	HCMM	308	TMC3	H1	1	0.15	1.0079
4693	HCMM	308	TMC3	H2	1	0.15	1.0079
4694	C=O	308	TMC3	C7	1	0.5438	12.011
4695	C=O	308	TMC3	C8	1	0.5438	12.011
4696	O=C	308	TMC3	O1	1	-0.57	15.9994
4697	O=C	308	TMC3	O2	1	-0.57	15.9994
4698	CB	309	MPD2	C	1	-0.15	12.011
4699	CB	309	MPD2	C1	1	0.117	12.011
4700	CB	309	MPD2	C2	1	-0.15	12.011
4701	CB	309	MPD2	C3	1	0.117	12.011
4702	CB	309	MPD2	C4	1	-0.15	12.011
4703	CB	309	MPD2	C5	1	-0.15	12.011
4704	HCMM	309	MPD2	H	1	0.15	1.0079
4705	HCMM	309	MPD2	H1	1	0.15	1.0079
4706	HCMM	309	MPD2	H2	1	0.15	1.0079
4707	HCMM	309	MPD2	H3	1	0.15	1.0079
4708	NC=O	309	MPD2	N	1	-0.547	14.0067
4709	HNCO	309	MPD2	H5	1	0.37	1.0079
4710	NC=O	309	MPD2	N1	1	-0.547	14.0067
4711	HNCO	309	MPD2	H7	1	0.37	1.0079
4712	CB	310	TMC3	C1	1	0.0862	12.011
4713	CB	310	TMC3	C2	1	-0.15	12.011
4714	CB	310	TMC3	C3	1	0.0862	12.011
4715	CB	310	TMC3	C4	1	-0.15	12.011
4716	CB	310	TMC3	C5	1	0.0862	12.011
4717	CB	310	TMC3	C6	1	-0.15	12.011
4718	C=O	310	TMC3	C	1	0.5438	12.011
4719	O=C	310	TMC3	O	1	-0.57	15.9994
4720	HCMM	310	TMC3	H	1	0.15	1.0079
4721	HCMM	310	TMC3	H1	1	0.15	1.0079
4722	HCMM	310	TMC3	H2	1	0.15	1.0079
4723	C=O	310	TMC3	C7	1	0.5438	12.011
4724	C=O	310	TMC3	C8	1	0.5438	12.011
4725	O=C	310	TMC3	O1	1	-0.57	15.9994
4726	O=C	310	TMC3	O2	1	-0.57	15.9994
4727	CB	311	MPD2	C	1	-0.15	12.011
4728	CB	311	MPD2	C1	1	0.117	12.011
4729	CB	311	MPD2	C2	1	-0.15	12.011
4730	CB	311	MPD2	C3	1	0.117	12.011
4731	CB	311	MPD2	C4	1	-0.15	12.011
4732	CB	311	MPD2	C5	1	-0.15	12.011
4733	HCMM	311	MPD2	H	1	0.15	1.0079
4734	HCMM	311	MPD2	H1	1	0.15	1.0079
4735	HCMM	311	MPD2	H2	1	0.15	1.0079
4736	HCMM	311	MPD2	H3	1	0.15	1.0079
4737	NC=O	311	MPD2	N	1	-0.547	14.0067
4738	HNCO	311	MPD2	H5	1	0.37	1.0079
4739	NC=O	311	MPD2	N1	1	-0.547	14.0067
4740	HNCO	311	MPD2	H7	1	0.37	1.0079
4741	CB	312	TMC3	C1	1	0.0862	12.011
4742	CB	312	TMC3	C2	1	-0.15	12.011
4743	CB	312	TMC3	C3	1	0.0862	12.011
4744	CB	312	TMC3	C4	1	-0.15	12.011
4745	CB	312	TMC3	C5	1	0.0862	12.011
4746	CB	312	TMC3	C6	1	-0.15	12.011
4747	C=O	312	TMC3	C	1	0.5438	12.011
4748	O=C	312	TMC3	O	1	-0.57	15.9994
4749	HCMM	312	TMC3	H	1	0.15	1.0079
4750	HCMM	312	TMC3	H1	1	0.15	1.0079
4751	HCMM	312	TMC3	H2	1	0.15	1.0079
4752	C=O	312	TMC3	C7	1	0.5438	12.011
4753	C=O	312	TMC3	C8	1	0.5438	12.011
4754	O=C	312	TMC3	O1	1	-0.57	15.9994
4755	O=C	312	TMC3	O2	1	-0.57	15.9994
4756	CB	313	MPD2	C	1	-0.15	12.011
4757	CB	313	MPD2	C1	1	0.117	12.011
4758	CB	313	MPD2	C2	1	-0.15	12.011
4759	CB	313	MPD2	C3	1	0.117	12.011
4760	CB	313	MPD2	C4	1	-0.15	12.011
4761	CB	313	MPD2	C5	1	-0.15	12.011
4762	HCMM	313	MPD2	H	1	0.15	1.0079
4763	HCMM	313	MPD2	H1	1	0.15	1.0079
4764	HCMM	313	MPD2	H2	1	0.15	1.0079
4765	HCMM	313	MPD2	H3	1	0.15	1.0079
4766	NC=O	313	MPD2	N	1	-0.547	14.0067
4767	HNCO	313	MPD2	H5	1	0.37	1.0079
4768	NC=O	313	MPD2	N1	1	-0.547	14.0067
4769	HNCO	313	MPD2	H7	1	0.37	1.0079
4770	CB	314	TMC3	C1	1	0.0862	12.011
4771	CB	314	TMC3	C2	1	-0.15	12.011
4772	CB	314	TMC3	C3	1	0.0862	12.011
4773	CB	314	TMC3	C4	1	-0.15	12.011
4774	CB	314	TMC3	C5	1	0.0862	12.011
4775	CB	314	TMC3	C6	1	-0.15	12.011
4776	C=O	314	TMC3	C	1	0.5438	12.011
4777	O=C	314	TMC3	O	1	-0.57	15.9994
4778	HCMM	314	TMC3	H	1	0.15	1.0079
4779	HCMM	314	TMC3	H1	1	0.15	1.0079
4780	HCMM	314	TMC3	H2	1	0.15	1.0079
4781	C=O	314	TMC3	C7	1	0.5438	12.011
4782	C=O	314	TMC3	C8	1	0.5438	12.011
4783	O=C	314	TMC3	O1	1	-0.57	15.9994
4784	O=C	314	TMC3	O2	1	-0.57	15.9994
4785	CB	315	MPD2	C	1	-0.15	12.011
4786	CB	315	MPD2	C1	1	0.117	12.011
4787	CB	315	MPD2	C2	1	-0.15	12.011
4788	CB	315	MPD2	C3	1	0.117	12.011
4789	CB	315	MPD2	C4	1	-0.15	12.011
4790	CB	315	MPD2	C5	1	-0.15	12.011
4791	HCMM	315	MPD2	H	1	0.15	1.0079
4792	HCMM	315	MPD2	H1	1	0.15	1.0079
4793	HCMM	315	MPD2	H2	1	0.15	1.0079
4794	HCMM	315	MPD2	H3	1	0.15	1.0079
4795	NC=O	315	MPD2	N	1	-0.547	14.0067
4796	HNCO	315	MPD2	H5	1	0.37	1.0079
4797	NC=O	315	MPD2	N1	1	-0.547	14.0067
4798	HNCO	315	MPD2	H7	1	0.37	1.0079
4799	CB	316	TMC3	C1	1	0.0862	12.011
4800	CB	316	TMC3	C2	1	-0.15	12.011
4801	CB	316	TMC3	C3	1	0.0862	12.011
4802	CB	316	TMC3	C4	1	-0.15	12.011
4803	CB	316	TMC3	C5	1	0.0862	12.011
4804	CB	316	TMC3	C6	1	-0.15	12.011
4805	C=O	316	TMC3	C	1	0.5438	12.011
4806	O=C	316	TMC3	O	1	-0.57	15.9994
4807	HCMM	316	TMC3	H	1	0.15	1.0079
4808	HCMM	316	TMC3	H1	1	0.15	1.0079
4809	HCMM	316	TMC3	H2	1	0.15	1.0079
4810	C=O	316	TMC3	C7	1	0.5438	12.011
4811	C=O	316	TMC3	C8	1	0.5438	12.011
4812	O=C	316	TMC3	O1	1	-0.57	15.9994
4813	O=C	316	TMC3	O2	1	-0.57	15.9994
4814	CB	317	MPD2	C	1	-0.15	12.011
4815	CB	317	MPD2	C1	1	0.117	12.011
4816	CB	317	MPD2	C2	1	-0.15	12.011
4817	CB	317	MPD2	C3	1	0.117	12.011
4818	CB	317	MPD2	C4	1	-0.15	12.011
4819	CB	317	MPD2	C5	1	-0.15	12.011
4820	HCMM	317	MPD2	H	1	0.15	1.0079
4821	HCMM	317	MPD2	H1	1	0.15	1.0079
4822	HCMM	317	MPD2	H2	1	0.15	1.0079
4823	HCMM	317	MPD2	H3	1	0.15	1.0079
4824	NC=O	317	MPD2	N	1	-0.547	14.0067
4825	HNCO	317	MPD2	H5	1	0.37	1.0079
4826	NC=O	317	MPD2	N1	1	-0.547	14.0067
4827	HNCO	317	MPD2	H7	1	0.37	1.0079
4828	CB	318	TMC3	C1	1	0.0862	12.011
4829	CB	318	TMC3	C2	1	-0.15	12.011
4830	CB	318	TMC3	C3	1	0.0862	12.011
4831	CB	318	TMC3	C4	1	-0.15	12.011
4832	CB	318	TMC3	C5	1	0.0862	12.011
4833	CB	318	TMC3	C6	1	-0.15	12.011
4834	C=O	318	TMC3	C	1	0.5438	12.011
4835	O=C	318	TMC3	O	1	-0.57	15.9994
4836	HCMM	318	TMC3	H	1	0.15	1.0079
4837	HCMM	318	TMC3	H1	1	0.15	1.0079
4838	HCMM	318	TMC3	H2	1	0.15	1.0079
4839	C=O	318	TMC3	C7	1	0.5438	12.011
4840	C=O	318	TMC3	C8	1	0.5438	12.011
4841	O=C	318	TMC3	O1	1	-0.57	15.9994
4842	O=C	318	TMC3	O2	1	-0.57	15.9994
4843	CB	319	MPD2	C	1	-0.15	12.011
4844	CB	319	MPD2	C1	1	0.117	12.011
4845	CB	319	MPD2	C2	1	-0.15	12.011
4846	CB	319	MPD2	C3	1	0.117	12.011
4847	CB	319	MPD2	C4	1	-0.15	12.011
4848	CB	319	MPD2	C5	1	-0.15	12.011
4849	HCMM	319	MPD2	H	1	0.15	1.0079
4850	HCMM	319	MPD2	H1	1	0.15	1.0079
4851	HCMM	319	MPD2	H2	1	0.15	1.0079
4852	HCMM	319	MPD2	H3	1	0.15	1.0079
4853	NC=O	319	MPD2	N	1	-0.547	14.0067
4854	HNCO	319	MPD2	H5	1	0.37	1.0079
4855	NC=O	319	MPD2	N1	1	-0.547	14.0067
4856	HNCO	319	MPD2	H7	1	0.37	1.0079
4857	CB	320	TMC3	C1	1	0.0862	12.011
4858	CB	320	TMC3	C2	1	-0.15	12.011
4859	CB	320	TMC3	C3	1	0.0862	12.011
4860	CB	320	TMC3	C4	1	-0.15	12.011
4861	CB	320	TMC3	C5	1	0.0862	12.011
4862	CB	320	TMC3	C6	1	-0.15	12.011
4863	C=O	320	TMC3	C	1	0.5438	12.011
4864	O=C	320	TMC3	O	1	-0.57	15.9994
4865	HCMM	320	TMC3	H	1	0.15	1.0079
4866	HCMM	320	TMC3	H1	1	0.15	1.0079
4867	HCMM	320	TMC3	H2	1	0.15	1.0079
4868	C=O	320	TMC3	C7	1	0.5438	12.011
4869	C=O	320	TMC3	C8	1	0.5438	12.011
4870	O=C	320	TMC3	O1	1	-0.57	15.9994
4871	O=C	320	TMC3	O2	1	-0.57	15.9994
4872	CB	321	TMC3	C1	1	0.0862	12.011
4873	CB	321	TMC3	C2	1	-0.15	12.011
4874	CB	321	TMC3	C3	1	0.0862	12.011
4875	CB	321	TMC3	C4	1	-0.15	12.011
4876	CB	321	TMC3	C5	1	0.0862	12.011
4877	CB	321	TMC3	C6	1	-0.15	12.011
4878	C=O	321	TMC3	C	1	0.5438	12.011
4879	O=C	321	TMC3	O	1	-0.57	15.9994
4880	HCMM	321	TMC3	H	1	0.15	1.0079
4881	HCMM	321	TMC3	H1	1	0.15	1.0079
4882	HCMM	321	TMC3	H2	1	0.15	1.0079
4883	C=O	321	TMC3	C7	1	0.5438	12.011
4884	C=O	321	TMC3	C8	1	0.5438	12.011
4885	O=C	321	TMC3	O1	1	-0.57	15.9994
4886	O=C	321	TMC3	O2	1	-0.57	15.9994
4887	CB	322	MPD2	C	1	-0.15	12.011
4888	CB	322	MPD2	C1	1	0.117	12.011
4889	CB	322	MPD2	C2	1	-0.15	12.011
4890	CB	322	MPD2	C3	1	0.117	12.011
4891	CB	322	MPD2	C4	1	-0.15	12.011
4892	CB	322	MPD2	C5	1	-0.15	12.011
4893	HCMM	322	MPD2	H	1	0.15	1.0079
4894	HCMM	322	MPD2	H1	1	0.15	1.0079
4895	HCMM	322	MPD2	H2	1	0.15	1.0079
4896	HCMM	322	MPD2	H3	1	0.15	1.0079
4897	NC=O	322	MPD2	N	1	-0.547	14.0067
4898	HNCO	322	MPD2	H5	1	0.37	1.0079
4899	NC=O	322	MPD2	N1	1	-0.547	14.0067
4900	HNCO	322	MPD2	H7	1	0.37	1.0079
4901	CB	323	TMC3	C1	1	0.0862	12.011
4902	CB	323	TMC3	C2	1	-0.15	12.011
4903	CB	323	TMC3	C3	1	0.0862	12.011
4904	CB	323	TMC3	C4	1	-0.15	12.011
4905	CB	323	TMC3	C5	1	0.0862	12.011
4906	CB	323	TMC3	C6	1	-0.15	12.011
4907	C=O	323	TMC3	C	1	0.5438	12.011
4908	O=C	323	TMC3	O	1	-0.57	15.9994
4909	HCMM	323	TMC3	H	1	0.15	1.0079
4910	HCMM	323	TMC3	H1	1	0.15	1.0079
4911	HCMM	323	TMC3	H2	1	0.15	1.0079
4912	C=O	323	TMC3	C7	1	0.5438	12.011
4913	C=O	323	TMC3	C8	1	0.5438	12.011
4914	O=C	323	TMC3	O1	1	-0.57	15.9994
4915	O=C	323	TMC3	O2	1	-0.57	15.9994
4916	CB	324	MPD2	C	1	-0.15	12.011
4917	CB	324	MPD2	C1	1	0.117	12.011
4918	CB	324	MPD2	C2	1	-0.15	12.011
4919	CB	324	MPD2	C3	1	0.117	12.011
4920	CB	324	MPD2	C4	1	-0.15	12.011
4921	CB	324	MPD2	C5	1	-0.15	12.011
4922	HCMM	324	MPD2	H	1	0.15	1.0079
4923	HCMM	324	MPD2	H1	1	0.15	1.0079
4924	HCMM	324	MPD2	H2	1	0.15	1.0079
4925	HCMM	324	MPD2	H3	1	0.15	1.0079
4926	NC=O	324	MPD2	N	1	-0.547	14.0067
4927	HNCO	324	MPD2	H5	1	0.37	1.0079
4928	NC=O	324	MPD2	N1	1	-0.547	14.0067
4929	HNCO	324	MPD2	H7	1	0.37	1.0079
4930	CB	325	TMC3	C1	1	0.0862	12.011
4931	CB	325	TMC3	C2	1	-0.15	12.011
4932	CB	325	TMC3	C3	1	0.0862	12.011
4933	CB	325	TMC3	C4	1	-0.15	12.011
4934	CB	325	TMC3	C5	1	0.0862	12.011
4935	CB	325	TMC3	C6	1	-0.15	12.011
4936	C=O	325	TMC3	C	1	0.5438	12.011
4937	O=C	325	TMC3	O	1	-0.57	15.9994
4938	HCMM	325	TMC3	H	1	0.15	1.0079
4939	HCMM	325	TMC3	H1	1	0.15	1.0079
4940	HCMM	325	TMC3	H2	1	0.15	1.0079
4941	C=O	325	TMC3	C7	1	0.5438	12.011
4942	C=O	325	TMC3	C8	1	0.5438	12.011
4943	O=C	325	TMC3	O1	1	-0.57	15.9994
4944	O=C	325	TMC3	O2	1	-0.57	15.9994
4945	CB	326	MPD2	C	1	-0.15	12.011
4946	CB	326	MPD2	C1	1	0.117	12.011
4947	CB	326	MPD2	C2	1	-0.15	12.011
4948	CB	326	MPD2	C3	1	0.117	12.011
4949	CB	326	MPD2	C4	1	-0.15	12.011
4950	CB	326	MPD2	C5	1	-0.15	12.011
4951	HCMM	326	MPD2	H	1	0.15	1.0079
4952	HCMM	326	MPD2	H1	1	0.15	1.0079
4953	HCMM	326	MPD2	H2	1	0.15	1.0079
4954	HCMM	326	MPD2	H3	1	0.15	1.0079
4955	NC=O	326	MPD2	N	1	-0.547	14.0067
4956	HNCO	326	MPD2	H5	1	0.37	1.0079
4957	NC=O	326	MPD2	N1	1	-0.547	14.0067
4958	HNCO	326	MPD2	H7	1	0.37	1.0079
4959	CB	327	TMC3	C1	1	0.0862	12.011
4960	CB	327	TMC3	C2	1	-0.15	12.011
4961	CB	327	TMC3	C3	1	0.0862	12.011
4962	CB	327	TMC3	C4	1	-0.15	12.011
4963	CB	327	TMC3	C5	1	0.0862	12.011
4964	CB	327	TMC3	C6	1	-0.15	12.011
4965	C=O	327	TMC3	C	1	0.5438	12.011
4966	O=C	327	TMC3	O	1	-0.57	15.9994
4967	HCMM	327	TMC3	H	1	0.15	1.0079
4968	HCMM	327	TMC3	H1	1	0.15	1.0079
4969	HCMM	327	TMC3	H2	1	0.15	1.0079
4970	C=O	327	TMC3	C7	1	0.5438	12.011
4971	C=O	327	TMC3	C8	1	0.5438	12.011
4972	O=C	327	TMC3	O1	1	-0.57	15.9994
4973	O=C	327	TMC3	O2	1	-0.57	15.9994
4974	CB	328	MPD2	C	1	-0.15	12.011
4975	CB	328	MPD2	C1	1	0.117	12.011
4976	CB	328	MPD2	C2	1	-0.15	12.011
4977	CB	328	MPD2	C3	1	0.117	12.011
4978	CB	328	MPD2	C4	1	-0.15	12.011
4979	CB	328	MPD2	C5	1	-0.15	12.011
4980	HCMM	328	MPD2	H	1	0.15	1.0079
4981	HCMM	328	MPD2	H1	1	0.15	1.0079
4982	HCMM	328	MPD2	H2	1	0.15	1.0079
4983	HCMM	328	MPD2	H3	1	0.15	1.0079
4984	NC=O	328	MPD2	N	1	-0.547	14.0067
4985	HNCO	328	MPD2	H5	1	0.37	1.0079
4986	NC=O	328	MPD2	N1	1	-0.547	14.0067
4987	HNCO	328	MPD2	H7	1	0.37	1.0079
4988	CB	329	TMC3	C1	1	0.0862	12.011
4989	CB	329	TMC3	C2	1	-0.15	12.011
4990	CB	329	TMC3	C3	1	0.0862	12.011
4991	CB	329	TMC3	C4	1	-0.15	12.011
4992	CB	329	TMC3	C5	1	0.0862	12.011
4993	CB	329	TMC3	C6	1	-0.15	12.011
4994	C=O	329	TMC3	C	1	0.5438	12.011
4995	O=C	329	TMC3	O	1	-0.57	15.9994
4996	HCMM	329	TMC3	H	1	0.15	1.0079
4997	HCMM	329	TMC3	H1	1	0.15	1.0079
4998	HCMM	329	TMC3	H2	1	0.15	1.0079
4999	C=O	329	TMC3	C7	1	0.5438	12.011
5000	C=O	329	TMC3	C8	1	0.5438	12.011
5001	O=C	329	TMC3	O1	1	-0.57	15.9994
5002	O=C	329	TMC3	O2	1	-0.57	15.9994
5003	CB	330	TMC3	C1	1	0.0862	12.011
5004	CB	330	TMC3	C2	1	-0.15	12.011
5005	CB	330	TMC3	C3	1	0.0862	12.011
5006	CB	330	TMC3	C4	1	-0.15	12.011
5007	CB	330	TMC3	C5	1	0.0862	12.011
5008	CB	330	TMC3	C6	1	-0.15	12.011
5009	C=O	330	TMC3	C	1	0.5438	12.011
5010	O=C	330	TMC3	O	1	-0.57	15.9994
5011	HCMM	330	TMC3	H	1	0.15	1.0079
5012	HCMM	330	TMC3	H1	1	0.15	1.0079
5013	HCMM	330	TMC3	H2	1	0.15	1.0079
5014	C=O	330	TMC3	C7	1	0.5438	12.011
5015	C=O	330	TMC3	C8	1	0.5438	12.011
5016	O=C	330	TMC3	O1	1	-0.57	15.9994
5017	O=C	330	TMC3	O2	1	-0.57	15.9994
5018	CB	331	MPD2	C	1	-0.15	12.011
5019	CB	331	MPD2	C1	1	0.117	12.011
5020	CB	331	MPD2	C2	1	-0.15	12.011
5021	CB	331	MPD2	C3	1	0.117	12.011
5022	CB	331	MPD2	C4	1	-0.15	12.011
5023	CB	331	MPD2	C5	1	-0.15	12.011
5024	HCMM	331	MPD2	H	1	0.15	1.0079
5025	HCMM	331	MPD2	H1	1	0.15	1.0079
5026	HCMM	331	MPD2	H2	1	0.15	1.0079
5027	HCMM	331	MPD2	H3	1	0.15	1.0079
5028	NC=O	331	MPD2	N	1	-0.547	14.0067
5029	HNCO	331	MPD2	H5	1	0.37	1.0079
5030	NC=O	331	MPD2	N1	1	-0.547	14.0067
5031	HNCO	331	MPD2	H7	1	0.37	1.0079
5032	CB	332	TMC3	C1	1	0.0862	12.011
5033	CB	332	TMC3	C2	1	-0.15	12.011
5034	CB	332	TMC3	C3	1	0.0862	12.011
5035	CB	332	TMC3	C4	1	-0.15	12.011
5036	CB	332	TMC3	C5	1	0.0862	12.011
5037	CB	332	TMC3	C6	1	-0.15	12.011
5038	C=O	332	TMC3	C	1	0.5438	12.011
5039	O=C	332	TMC3	O	1	-0.57	15.9994
5040	HCMM	332	TMC3	H	1	0.15	1.0079
5041	HCMM	332	TMC3	H1	1	0.15	1.0079
5042	HCMM	332	TMC3	H2	1	0.15	1.0079
5043	C=O	332	TMC3	C7	1	0.5438	12.011
5044	C=O	332	TMC3	C8	1	0.5438	12.011
5045	O=C	332	TMC3	O1	1	-0.57	15.9994
5046	O=C	332	TMC3	O2	1	-0.57	15.9994
5047	CB	333	MPD2	C	1	-0.15	12.011
5048	CB	333	MPD2	C1	1	0.117	12.011
5049	CB	333	MPD2	C2	1	-0.15	12.011
5050	CB	333	MPD2	C3	1	0.117	12.011
5051	CB	333	MPD2	C4	1	-0.15	12.011
5052	CB	333	MPD2	C5	1	-0.15	12.011
5053	HCMM	333	MPD2	H	1	0.15	1.0079
5054	HCMM	333	MPD2	H1	1	0.15	1.0079
5055	HCMM	333	MPD2	H2	1	0.15	1.0079
5056	HCMM	333	MPD2	H3	1	0.15	1.0079
5057	NC=O	333	MPD2	N	1	-0.547	14.0067
5058	HNCO	333	MPD2	H5	1	0.37	1.0079
5059	NC=O	333	MPD2	N1	1	-0.547	14.0067
5060	HNCO	333	MPD2	H7	1	0.37	1.0079
5061	CB	334	TMC3	C1	1	0.0862	12.011
5062	CB	334	TMC3	C2	1	-0.15	12.011
5063	CB	334	TMC3	C3	1	0.0862	12.011
5064	CB	334	TMC3	C4	1	-0.15	12.011
5065	CB	334	TMC3	C5	1	0.0862	12.011
5066	CB	334	TMC3	C6	1	-0.15	12.011
5067	C=O	334	TMC3	C	1	0.5438	12.011
5068	O=C	334	TMC3	O	1	-0.57	15.9994
5069	HCMM	334	TMC3	H	1	0.15	1.0079
5070	HCMM	334	TMC3	H1	1	0.15	1.0079
5071	HCMM	334	TMC3	H2	1	0.15	1.0079
5072	C=O	334	TMC3	C7	1	0.5438	12.011
5073	C=O	334	TMC3	C8	1	0.5438	12.011
5074	O=C	334	TMC3	O1	1	-0.57	15.9994
5075	O=C	334	TMC3	O2	1	-0.57	15.9994
5076	CB	335	TMC3	C1	1	0.0862	12.011
5077	CB	335	TMC3	C2	1	-0.15	12.011
5078	CB	335	TMC3	C3	1	0.0862	12.011
5079	CB	335	TMC3	C4	1	-0.15	12.011
5080	CB	335	TMC3	C5	1	0.0862	12.011
5081	CB	335	TMC3	C6	1	-0.15	12.011
5082	C=O	335	TMC3	C	1	0.5438	12.011
5083	O=C	335	TMC3	O	1	-0.57	15.9994
5084	HCMM	335	TMC3	H	1	0.15	1.0079
5085	HCMM	335	TMC3	H1	1	0.15	1.0079
5086	HCMM	335	TMC3	H2	1	0.15	1.0079
5087	C=O	335	TMC3	C7	1	0.5438	12.011
5088	C=O	335	TMC3	C8	1	0.5438	12.011
5089	O=C	335	TMC3	O1	1	-0.57	15.9994
5090	O=C	335	TMC3	O2	1	-0.57	15.9994
5091	CB	336	MPD2	C	1	-0.15	12.011
5092	CB	336	MPD2	C1	1	0.117	12.011
5093	CB	336	MPD2	C2	1	-0.15	12.011
5094	CB	336	MPD2	C3	1	0.117	12.011
5095	CB	336	MPD2	C4	1	-0.15	12.011
5096	CB	336	MPD2	C5	1	-0.15	12.011
5097	HCMM	336	MPD2	H	1	0.15	1.0079
5098	HCMM	336	MPD2	H1	1	0.15	1.0079
5099	HCMM	336	MPD2	H2	1	0.15	1.0079
5100	HCMM	336	MPD2	H3	1	0.15	1.0079
5101	NC=O	336	MPD2	N	1	-0.547	14.0067
5102	HNCO	336	MPD2	H5	1	0.37	1.0079
5103	NC=O	336	MPD2	N1	1	-0.547	14.0067
5104	HNCO	336	MPD2	H7	1	0.37	1.0079
5105	CB	337	TMC3	C1	1	0.0862	12.011
5106	CB	337	TMC3	C2	1	-0.15	12.011
5107	CB	337	TMC3	C3	1	0.0862	12.011
5108	CB	337	TMC3	C4	1	-0.15	12.011
5109	CB	337	TMC3	C5	1	0.0862	12.011
5110	CB	337	TMC3	C6	1	-0.15	12.011
5111	C=O	337	TMC3	C	1	0.5438	12.011
5112	O=C	337	TMC3	O	1	-0.57	15.9994
5113	HCMM	337	TMC3	H	1	0.15	1.0079
5114	HCMM	337	TMC3	H1	1	0.15	1.0079
5115	HCMM	337	TMC3	H2	1	0.15	1.0079
5116	C=O	337	TMC3	C7	1	0.5438	12.011
5117	C=O	337	TMC3	C8	1	0.5438	12.011
5118	O=C	337	TMC3	O1	1	-0.57	15.9994
5119	O=C	337	TMC3	O2	1	-0.57	15.9994
5120	CB	338	MPD2	C	1	-0.15	12.011
5121	CB	338	MPD2	C1	1	0.117	12.011
5122	CB	338	MPD2	C2	1	-0.15	12.011
5123	CB	338	MPD2	C3	1	0.117	12.011
5124	CB	338	MPD2	C4	1	-0.15	12.011
5125	CB	338	MPD2	C5	1	-0.15	12.011
5126	HCMM	338	MPD2	H	1	0.15	1.0079
5127	HCMM	338	MPD2	H1	1	0.15	1.0079
5128	HCMM	338	MPD2	H2	1	0.15	1.0079
5129	HCMM	338	MPD2	H3	1	0.15	1.0079
5130	NC=O	338	MPD2	N	1	-0.547	14.0067
5131	HNCO	338	MPD2	H5	1	0.37	1.0079
5132	NC=O	338	MPD2	N1	1	-0.547	14.0067
5133	HNCO	338	MPD2	H7	1	0.37	1.0079
5134	CB	339	TMC3	C1	1	0.0862	12.011
5135	CB	339	TMC3	C2	1	-0.15	12.011
5136	CB	339	TMC3	C3	1	0.0862	12.011
5137	CB	339	TMC3	C4	1	-0.15	12.011
5138	CB	339	TMC3	C5	1	0.0862	12.011
5139	CB	339	TMC3	C6	1	-0.15	12.011
5140	C=O	339	TMC3	C	1	0.5438	12.011
5141	O=C	339	TMC3	O	1	-0.57	15.9994
5142	HCMM	339	TMC3	H	1	0.15	1.0079
5143	HCMM	339	TMC3	H1	1	0.15	1.0079
5144	HCMM	339	TMC3	H2	1	0.15	1.0079
5145	C=O	339	TMC3	C7	1	0.5438	12.011
5146	C=O	339	TMC3	C8	1	0.5438	12.011
5147	O=C	339	TMC3	O1	1	-0.57	15.9994
5148	O=C	339	TMC3	O2	1	-0.57	15.9994
5149	CB	340	MPD2	C	1	-0.15	12.011
5150	CB	340	MPD2	C1	1	0.117	12.011
5151	CB	340	MPD2	C2	1	-0.15	12.011
5152	CB	340	MPD2	C3	1	0.117	12.011
5153	CB	340	MPD2	C4	1	-0.15	12.011
5154	CB	340	MPD2	C5	1	-0.15	12.011
5155	HCMM	340	MPD2	H	1	0.15	1.0079
5156	HCMM	340	MPD2	H1	1	0.15	1.0079
5157	HCMM	340	MPD2	H2	1	0.15	1.0079
5158	HCMM	340	MPD2	H3	1	0.15	1.0079
5159	NC=O	340	MPD2	N	1	-0.547	14.0067
5160	HNCO	340	MPD2	H5	1	0.37	1.0079
5161	NC=O	340	MPD2	N1	1	-0.547	14.0067
5162	HNCO	340	MPD2	H7	1	0.37	1.0079
5163	CB	341	TMC3	C1	1	0.0862	12.011
5164	CB	341	TMC3	C2	1	-0.15	12.011
5165	CB	341	TMC3	C3	1	0.0862	12.011
5166	CB	341	TMC3	C4	1	-0.15	12.011
5167	CB	341	TMC3	C5	1	0.0862	12.011
5168	CB	341	TMC3	C6	1	-0.15	12.011
5169	C=O	341	TMC3	C	1	0.5438	12.011
5170	O=C	341	TMC3	O	1	-0.57	15.9994
5171	HCMM	341	TMC3	H	1	0.15	1.0079
5172	HCMM	341	TMC3	H1	1	0.15	1.0079
5173	HCMM	341	TMC3	H2	1	0.15	1.0079
5174	C=O	341	TMC3	C7	1	0.5438	12.011
5175	C=O	341	TMC3	C8	1	0.5438	12.011
5176	O=C	341	TMC3	O1	1	-0.57	15.9994
5177	O=C	341	TMC3	O2	1	-0.57	15.9994
5178	CB	342	MPD2	C	1	-0.15	12.011
5179	CB	342	MPD2	C1	1	0.117	12.011
5180	CB	342	MPD2	C2	1	-0.15	12.011
5181	CB	342	MPD2	C3	1	0.117	12.011
5182	CB	342	MPD2	C4	1	-0.15	12.011
5183	CB	342	MPD2	C5	1	-0.15	12.011
5184	HCMM	342	MPD2	H	1	0.15	1.0079
5185	HCMM	342	MPD2	H1	1	0.15	1.0079
5186	HCMM	342	MPD2	H2	1	0.15	1.0079
5187	HCMM	342	MPD2	H3	1	0.15	1.0079
5188	NC=O	342	MPD2	N	1	-0.547	14.0067
5189	HNCO	342	MPD2	H5	1	0.37	1.0079
5190	NC=O	342	MPD2	N1	1	-0.547	14.0067
5191	HNCO	342	MPD2	H7	1	0.37	1.0079
5192	CB	343	TMC3	C1	1	0.0862	12.011
5193	CB	343	TMC3	C2	1	-0.15	12.011
5194	CB	343	TMC3	C3	1	0.0862	12.011
5195	CB	343	TMC3	C4	1	-0.15	12.011
5196	CB	343	TMC3	C5	1	0.0862	12.011
5197	CB	343	TMC3	C6	1	-0.15	12.011
5198	C=O	343	TMC3	C	1	0.5438	12.011
5199	O=C	343	TMC3	O	1	-0.57	15.9994
5200	HCMM	343	TMC3	H	1	0.15	1.0079
5201	HCMM	343	TMC3	H1	1	0.15	1.0079
5202	HCMM	343	TMC3	H2	1	0.15	1.0079
5203	C=O	343	TMC3	C7	1	0.5438	12.011
5204	C=O	343	TMC3	C8	1	0.5438	12.011
5205	O=C	343	TMC3	O1	1	-0.57	15.9994
5206	O=C	343	TMC3	O2	1	-0.57	15.9994
5207	CB	344	MPD2	C	1	-0.15	12.011
5208	CB	344	MPD2	C1	1	0.117	12.011
5209	CB	344	MPD2	C2	1	-0.15	12.011
5210	CB	344	MPD2	C3	1	0.117	12.011
5211	CB	344	MPD2	C4	1	-0.15	12.011
5212	CB	344	MPD2	C5	1	-0.15	12.011
5213	HCMM	344	MPD2	H	1	0.15	1.0079
5214	HCMM	344	MPD2	H1	1	0.15	1.0079
5215	HCMM	344	MPD2	H2	1	0.15	1.0079
5216	HCMM	344	MPD2	H3	1	0.15	1.0079
5217	NC=O	344	MPD2	N	1	-0.547	14.0067
5218	HNCO	344	MPD2	H5	1	0.37	1.0079
5219	NC=O	344	MPD2	N1	1	-0.547	14.0067
5220	HNCO	344	MPD2	H7	1	0.37	1.0079
5221	CB	345	TMC3	C1	1	0.0862	12.011
5222	CB	345	TMC3	C2	1	-0.15	12.011
5223	CB	345	TMC3	C3	1	0.0862	12.011
5224	CB	345	TMC3	C4	1	-0.15	12.011
5225	CB	345	TMC3	C5	1	0.0862	12.011
5226	CB	345	TMC3	C6	1	-0.15	12.011
5227	C=O	345	TMC3	C	1	0.5438	12.011
5228	O=C	345	TMC3	O	1	-0.57	15.9994
5229	HCMM	345	TMC3	H	1	0.15	1.0079
5230	HCMM	345	TMC3	H1	1	0.15	1.0079
5231	HCMM	345	TMC3	H2	1	0.15	1.0079
5232	C=O	345	TMC3	C7	1	0.5438	12.011
5233	C=O	345	TMC3	C8	1	0.5438	12.011
5234	O=C	345	TMC3	O1	1	-0.57	15.9994
5235	O=C	345	TMC3	O2	1	-0.57	15.9994
5236	CB	346	MPD2	C	1	-0.15	12.011
5237	CB	346	MPD2	C1	1	0.117	12.011
5238	CB	346	MPD2	C2	1	-0.15	12.011
5239	CB	346	MPD2	C3	1	0.117	12.011
5240	CB	346	MPD2	C4	1	-0.15	12.011
5241	CB	346	MPD2	C5	1	-0.15	12.011
5242	HCMM	346	MPD2	H	1	0.15	1.0079
5243	HCMM	346	MPD2	H1	1	0.15	1.0079
5244	HCMM	346	MPD2	H2	1	0.15	1.0079
5245	HCMM	346	MPD2	H3	1	0.15	1.0079
5246	NC=O	346	MPD2	N	1	-0.547	14.0067
5247	HNCO	346	MPD2	H5	1	0.37	1.0079
5248	NC=O	346	MPD2	N1	1	-0.547	14.0067
5249	HNCO	346	MPD2	H7	1	0.37	1.0079
5250	CB	347	TMC3	C1	1	0.0862	12.011
5251	CB	347	TMC3	C2	1	-0.15	12.011
5252	CB	347	TMC3	C3	1	0.0862	12.011
5253	CB	347	TMC3	C4	1	-0.15	12.011
5254	CB	347	TMC3	C5	1	0.0862	12.011
5255	CB	347	TMC3	C6	1	-0.15	12.011
5256	C=O	347	TMC3	C	1	0.5438	12.011
5257	O=C	347	TMC3	O	1	-0.57	15.9994
5258	HCMM	347	TMC3	H	1	0.15	1.0079
5259	HCMM	347	TMC3	H1	1	0.15	1.0079
5260	HCMM	347	TMC3	H2	1	0.15	1.0079
5261	C=O	347	TMC3	C7	1	0.5438	12.011
5262	C=O	347	TMC3	C8	1	0.5438	12.011
5263	O=C	347	TMC3	O1	1	-0.57	15.9994
5264	O=C	347	TMC3	O2	1	-0.57	15.9994
5265	CB	348	MPD2	C	1	-0.15	12.011
5266	CB	348	MPD2	C1	1	0.117	12.011
5267	CB	348	MPD2	C2	1	-0.15	12.011
5268	CB	348	MPD2	C3	1	0.117	12.011
5269	CB	348	MPD2	C4	1	-0.15	12.011
5270	CB	348	MPD2	C5	1	-0.15	12.011
5271	HCMM	348	MPD2	H	1	0.15	1.0079
5272	HCMM	348	MPD2	H1	1	0.15	1.0079
5273	HCMM	348	MPD2	H2	1	0.15	1.0079
5274	HCMM	348	MPD2	H3	1	0.15	1.0079
5275	NC=O	348	MPD2	N	1	-0.547	14.0067
5276	HNCO	348	MPD2	H5	1	0.37	1.0079
5277	NC=O	348	MPD2	N1	1	-0.547	14.0067
5278	HNCO	348	MPD2	H7	1	0.37	1.0079
5279	CB	349	TMC3	C1	1	0.0862	12.011
5280	CB	349	TMC3	C2	1	-0.15	12.011
5281	CB	349	TMC3	C3	1	0.0862	12.011
5282	CB	349	TMC3	C4	1	-0.15	12.011
5283	CB	349	TMC3	C5	1	0.0862	12.011
5284	CB	349	TMC3	C6	1	-0.15	12.011
5285	C=O	349	TMC3	C	1	0.5438	12.011
5286	O=C	349	TMC3	O	1	-0.57	15.9994
5287	HCMM	349	TMC3	H	1	0.15	1.0079
5288	HCMM	349	TMC3	H1	1	0.15	1.0079
5289	HCMM	349	TMC3	H2	1	0.15	1.0079
5290	C=O	349	TMC3	C7	1	0.5438	12.011
5291	C=O	349	TMC3	C8	1	0.5438	12.011
5292	O=C	349	TMC3	O1	1	-0.57	15.9994
5293	O=C	349	TMC3	O2	1	-0.57	15.9994
5294	CB	350	MPD2	C	1	-0.15	12.011
5295	CB	350	MPD2	C1	1	0.117	12.011
5296	CB	350	MPD2	C2	1	-0.15	12.011
5297	CB	350	MPD2	C3	1	0.117	12.011
5298	CB	350	MPD2	C4	1	-0.15	12.011
5299	CB	350	MPD2	C5	1	-0.15	12.011
5300	HCMM	350	MPD2	H	1	0.15	1.0079
5301	HCMM	350	MPD2	H1	1	0.15	1.0079
5302	HCMM	350	MPD2	H2	1	0.15	1.0079
5303	HCMM	350	MPD2	H3	1	0.15	1.0079
5304	NC=O	350	MPD2	N	1	-0.547	14.0067
5305	HNCO	350	MPD2	H5	1	0.37	1.0079
5306	NC=O	350	MPD2	N1	1	-0.547	14.0067
5307	HNCO	350	MPD2	H7	1	0.37	1.0079
5308	CB	351	TMC3	C1	1	0.0862	12.011
5309	CB	351	TMC3	C2	1	-0.15	12.011
5310	CB	351	TMC3	C3	1	0.0862	12.011
5311	CB	351	TMC3	C4	1	-0.15	12.011
5312	CB	351	TMC3	C5	1	0.0862	12.011
5313	CB	351	TMC3	C6	1	-0.15	12.011
5314	C=O	351	TMC3	C	1	0.5438	12.011
5315	O=C	351	TMC3	O	1	-0.57	15.9994
5316	HCMM	351	TMC3	H	1	0.15	1.0079
5317	HCMM	351	TMC3	H1	1	0.15	1.0079
5318	HCMM	351	TMC3	H2	1	0.15	1.0079
5319	C=O	351	TMC3	C7	1	0.5438	12.011
5320	C=O	351	TMC3	C8	1	0.5438	12.011
5321	O=C	351	TMC3	O1	1	-0.57	15.9994
5322	O=C	351	TMC3	O2	1	-0.57	15.9994
5323	CB	352	MPD2	C	1	-0.15	12.011
5324	CB	352	MPD2	C1	1	0.117	12.011
5325	CB	352	MPD2	C2	1	-0.15	12.011
5326	CB	352	MPD2	C3	1	0.117	12.011
5327	CB	352	MPD2	C4	1	-0.15	12.011
5328	CB	352	MPD2	C5	1	-0.15	12.011
5329	HCMM	352	MPD2	H	1	0.15	1.0079
5330	HCMM	352	MPD2	H1	1	0.15	1.0079
5331	HCMM	352	MPD2	H2	1	0.15	1.0079
5332	HCMM	352	MPD2	H3	1	0.15	1.0079
5333	NC=O	352	MPD2	N	1	-0.547	14.0067
5334	HNCO	352	MPD2	H5	1	0.37	1.0079
5335	NC=O	352	MPD2	N1	1	-0.547	14.0067
5336	HNCO	352	MPD2	H7	1	0.37	1.0079
5337	CB	353	TMC3	C1	1	0.0862	12.011
5338	CB	353	TMC3	C2	1	-0.15	12.011
5339	CB	353	TMC3	C3	1	0.0862	12.011
5340	CB	353	TMC3	C4	1	-0.15	12.011
5341	CB	353	TMC3	C5	1	0.0862	12.011
5342	CB	353	TMC3	C6	1	-0.15	12.011
5343	C=O	353	TMC3	C	1	0.5438	12.011
5344	O=C	353	TMC3	O	1	-0.57	15.9994
5345	HCMM	353	TMC3	H	1	0.15	1.0079
5346	HCMM	353	TMC3	H1	1	0.15	1.0079
5347	HCMM	353	TMC3	H2	1	0.15	1.0079
5348	C=O	353	TMC3	C7	1	0.5438	12.011
5349	C=O	353	TMC3	C8	1	0.5438	12.011
5350	O=C	353	TMC3	O1	1	-0.57	15.9994
5351	O=C	353	TMC3	O2	1	-0.57	15.9994
5352	CB	354	TMC3	C1	1	0.0862	12.011
5353	CB	354	TMC3	C2	1	-0.15	12.011
5354	CB	354	TMC3	C3	1	0.0862	12.011
5355	CB	354	TMC3	C4	1	-0.15	12.011
5356	CB	354	TMC3	C5	1	0.0862	12.011
5357	CB	354	TMC3	C6	1	-0.15	12.011
5358	C=O	354	TMC3	C	1	0.5438	12.011
5359	O=C	354	TMC3	O	1	-0.57	15.9994
5360	HCMM	354	TMC3	H	1	0.15	1.0079
5361	HCMM	354	TMC3	H1	1	0.15	1.0079
5362	HCMM	354	TMC3	H2	1	0.15	1.0079
5363	C=O	354	TMC3	C7	1	0.5438	12.011
5364	C=O	354	TMC3	C8	1	0.5438	12.011
5365	O=C	354	TMC3	O1	1	-0.57	15.9994
5366	O=C	354	TMC3	O2	1	-0.57	15.9994
5367	CB	355	MPD2	C	1	-0.15	12.011
5368	CB	355	MPD2	C1	1	0.117	12.011
5369	CB	355	MPD2	C2	1	-0.15	12.011
5370	CB	355	MPD2	C3	1	0.117	12.011
5371	CB	355	MPD2	C4	1	-0.15	12.011
5372	CB	355	MPD2	C5	1	-0.15	12.011
5373	HCMM	355	MPD2	H	1	0.15	1.0079
5374	HCMM	355	MPD2	H1	1	0.15	1.0079
5375	HCMM	355	MPD2	H2	1	0.15	1.0079
5376	HCMM	355	MPD2	H3	1	0.15	1.0079
5377	NC=O	355	MPD2	N	1	-0.547	14.0067
5378	HNCO	355	MPD2	H5	1	0.37	1.0079
5379	NC=O	355	MPD2	N1	1	-0.547	14.0067
5380	HNCO	355	MPD2	H7	1	0.37	1.0079
5381	CB	356	TMC3	C1	1	0.0862	12.011
5382	CB	356	TMC3	C2	1	-0.15	12.011
5383	CB	356	TMC3	C3	1	0.0862	12.011
5384	CB	356	TMC3	C4	1	-0.15	12.011
5385	CB	356	TMC3	C5	1	0.0862	12.011
5386	CB	356	TMC3	C6	1	-0.15	12.011
5387	C=O	356	TMC3	C	1	0.5438	12.011
5388	O=C	356	TMC3	O	1	-0.57	15.9994
5389	HCMM	356	TMC3	H	1	0.15	1.0079
5390	HCMM	356	TMC3	H1	1	0.15	1.0079
5391	HCMM	356	TMC3	H2	1	0.15	1.0079
5392	C=O	356	TMC3	C7	1	0.5438	12.011
5393	C=O	356	TMC3	C8	1	0.5438	12.011
5394	O=C	356	TMC3	O1	1	-0.57	15.9994
5395	O=C	356	TMC3	O2	1	-0.57	15.9994
5396	CB	357	MPD2	C	1	-0.15	12.011
5397	CB	357	MPD2	C1	1	0.117	12.011
5398	CB	357	MPD2	C2	1	-0.15	12.011
5399	CB	357	MPD2	C3	1	0.117	12.011
5400	CB	357	MPD2	C4	1	-0.15	12.011
5401	CB	357	MPD2	C5	1	-0.15	12.011
5402	HCMM	357	MPD2	H	1	0.15	1.0079
5403	HCMM	357	MPD2	H1	1	0.15	1.0079
5404	HCMM	357	MPD2	H2	1	0.15	1.0079
5405	HCMM	357	MPD2	H3	1	0.15	1.0079
5406	NC=O	357	MPD2	N	1	-0.547	14.0067
5407	HNCO	357	MPD2	H5	1	0.37	1.0079
5408	NC=O	357	MPD2	N1	1	-0.547	14.0067
5409	HNCO	357	MPD2	H7	1	0.37	1.0079
5410	CB	358	TMC3	C1	1	0.0862	12.011
5411	CB	358	TMC3	C2	1	-0.15	12.011
5412	CB	358	TMC3	C3	1	0.0862	12.011
5413	CB	358	TMC3	C4	1	-0.15	12.011
5414	CB	358	TMC3	C5	1	0.0862	12.011
5415	CB	358	TMC3	C6	1	-0.15	12.011
5416	C=O	358	TMC3	C	1	0.5438	12.011
5417	O=C	358	TMC3	O	1	-0.57	15.9994
5418	HCMM	358	TMC3	H	1	0.15	1.0079
5419	HCMM	358	TMC3	H1	1	0.15	1.0079
5420	HCMM	358	TMC3	H2	1	0.15	1.0079
5421	C=O	358	TMC3	C7	1	0.5438	12.011
5422	C=O	358	TMC3	C8	1	0.5438	12.011
5423	O=C	358	TMC3	O1	1	-0.57	15.9994
5424	O=C	358	TMC3	O2	1	-0.57	15.9994
5425	CB	359	MPD2	C	1	-0.15	12.011
5426	CB	359	MPD2	C1	1	0.117	12.011
5427	CB	359	MPD2	C2	1	-0.15	12.011
5428	CB	359	MPD2	C3	1	0.117	12.011
5429	CB	359	MPD2	C4	1	-0.15	12.011
5430	CB	359	MPD2	C5	1	-0.15	12.011
5431	HCMM	359	MPD2	H	1	0.15	1.0079
5432	HCMM	359	MPD2	H1	1	0.15	1.0079
5433	HCMM	359	MPD2	H2	1	0.15	1.0079
5434	HCMM	359	MPD2	H3	1	0.15	1.0079
5435	NC=O	359	MPD2	N	1	-0.547	14.0067
5436	HNCO	359	MPD2	H5	1	0.37	1.0079
5437	NC=O	359	MPD2	N1	1	-0.547	14.0067
5438	HNCO	359	MPD2	H7	1	0.37	1.0079
5439	CB	360	TMC3	C1	1	0.0862	12.011
5440	CB	360	TMC3	C2	1	-0.15	12.011
5441	CB	360	TMC3	C3	1	0.0862	12.011
5442	CB	360	TMC3	C4	1	-0.15	12.011
5443	CB	360	TMC3	C5	1	0.0862	12.011
5444	CB	360	TMC3	C6	1	-0.15	12.011
5445	C=O	360	TMC3	C	1	0.5438	12.011
5446	O=C	360	TMC3	O	1	-0.57	15.9994
5447	HCMM	360	TMC3	H	1	0.15	1.0079
5448	HCMM	360	TMC3	H1	1	0.15	1.0079
5449	HCMM	360	TMC3	H2	1	0.15	1.0079
5450	C=O	360	TMC3	C7	1	0.5438	12.011
5451	C=O	360	TMC3	C8	1	0.5438	12.011
5452	O=C	360	TMC3	O1	1	-0.57	15.9994
5453	O=C	360	TMC3	O2	1	-0.57	15.9994
5454	CB	361	MPD2	C	1	-0.15	12.011
5455	CB	361	MPD2	C1	1	0.117	12.011
5456	CB	361	MPD2	C2	1	-0.15	12.011
5457	CB	361	MPD2	C3	1	0.117	12.011
5458	CB	361	MPD2	C4	1	-0.15	12.011
5459	CB	361	MPD2	C5	1	-0.15	12.011
5460	HCMM	361	MPD2	H	1	0.15	1.0079
5461	HCMM	361	MPD2	H1	1	0.15	1.0079
5462	HCMM	361	MPD2	H2	1	0.15	1.0079
5463	HCMM	361	MPD2	H3	1	0.15	1.0079
5464	NC=O	361	MPD2	N	1	-0.547	14.0067
5465	HNCO	361	MPD2	H5	1	0.37	1.0079
5466	NC=O	361	MPD2	N1	1	-0.547	14.0067
5467	HNCO	361	MPD2	H7	1	0.37	1.0079
5468	CB	362	TMC3	C1	1	0.0862	12.011
5469	CB	362	TMC3	C2	1	-0.15	12.011
5470	CB	362	TMC3	C3	1	0.0862	12.011
5471	CB	362	TMC3	C4	1	-0.15	12.011
5472	CB	362	TMC3	C5	1	0.0862	12.011
5473	CB	362	TMC3	C6	1	-0.15	12.011
5474	C=O	362	TMC3	C	1	0.5438	12.011
5475	O=C	362	TMC3	O	1	-0.57	15.9994
5476	HCMM	362	TMC3	H	1	0.15	1.0079
5477	HCMM	362	TMC3	H1	1	0.15	1.0079
5478	HCMM	362	TMC3	H2	1	0.15	1.0079
5479	C=O	362	TMC3	C7	1	0.5438	12.011
5480	C=O	362	TMC3	C8	1	0.5438	12.011
5481	O=C	362	TMC3	O1	1	-0.57	15.9994
5482	O=C	362	TMC3	O2	1	-0.57	15.9994
5483	CB	363	TMC3	C1	1	0.0862	12.011
5484	CB	363	TMC3	C2	1	-0.15	12.011
5485	CB	363	TMC3	C3	1	0.0862	12.011
5486	CB	363	TMC3	C4	1	-0.15	12.011
5487	CB	363	TMC3	C5	1	0.0862	12.011
5488	CB	363	TMC3	C6	1	-0.15	12.011
5489	C=O	363	TMC3	C	1	0.5438	12.011
5490	O=C	363	TMC3	O	1	-0.57	15.9994
5491	HCMM	363	TMC3	H	1	0.15	1.0079
5492	HCMM	363	TMC3	H1	1	0.15	1.0079
5493	HCMM	363	TMC3	H2	1	0.15	1.0079
5494	C=O	363	TMC3	C7	1	0.5438	12.011
5495	C=O	363	TMC3	C8	1	0.5438	12.011
5496	O=C	363	TMC3	O1	1	-0.57	15.9994
5497	O=C	363	TMC3	O2	1	-0.57	15.9994
5498	CB	364	MPD2	C	1	-0.15	12.011
5499	CB	364	MPD2	C1	1	0.117	12.011
5500	CB	364	MPD2	C2	1	-0.15	12.011
5501	CB	364	MPD2	C3	1	0.117	12.011
5502	CB	364	MPD2	C4	1	-0.15	12.011
5503	CB	364	MPD2	C5	1	-0.15	12.011
5504	HCMM	364	MPD2	H	1	0.15	1.0079
5505	HCMM	364	MPD2	H1	1	0.15	1.0079
5506	HCMM	364	MPD2	H2	1	0.15	1.0079
5507	HCMM	364	MPD2	H3	1	0.15	1.0079
5508	NC=O	364	MPD2	N	1	-0.547	14.0067
5509	HNCO	364	MPD2	H5	1	0.37	1.0079
5510	NC=O	364	MPD2	N1	1	-0.547	14.0067
5511	HNCO	364	MPD2	H7	1	0.37	1.0079
5512	CB	365	TMC3	C1	1	0.0862	12.011
5513	CB	365	TMC3	C2	1	-0.15	12.011
5514	CB	365	TMC3	C3	1	0.0862	12.011
5515	CB	365	TMC3	C4	1	-0.15	12.011
5516	CB	365	TMC3	C5	1	0.0862	12.011
5517	CB	365	TMC3	C6	1	-0.15	12.011
5518	C=O	365	TMC3	C	1	0.5438	12.011
5519	O=C	365	TMC3	O	1	-0.57	15.9994
5520	HCMM	365	TMC3	H	1	0.15	1.0079
5521	HCMM	365	TMC3	H1	1	0.15	1.0079
5522	HCMM	365	TMC3	H2	1	0.15	1.0079
5523	C=O	365	TMC3	C7	1	0.5438	12.011
5524	C=O	365	TMC3	C8	1	0.5438	12.011
5525	O=C	365	TMC3	O1	1	-0.57	15.9994
5526	O=C	365	TMC3	O2	1	-0.57	15.9994
5527	CB	366	MPD2	C	1	-0.15	12.011
5528	CB	366	MPD2	C1	1	0.117	12.011
5529	CB	366	MPD2	C2	1	-0.15	12.011
5530	CB	366	MPD2	C3	1	0.117	12.011
5531	CB	366	MPD2	C4	1	-0.15	12.011
5532	CB	366	MPD2	C5	1	-0.15	12.011
5533	HCMM	366	MPD2	H	1	0.15	1.0079
5534	HCMM	366	MPD2	H1	1	0.15	1.0079
5535	HCMM	366	MPD2	H2	1	0.15	1.0079
5536	HCMM	366	MPD2	H3	1	0.15	1.0079
5537	NC=O	366	MPD2	N	1	-0.547	14.0067
5538	HNCO	366	MPD2	H5	1	0.37	1.0079
5539	NC=O	366	MPD2	N1	1	-0.547	14.0067
5540	HNCO	366	MPD2	H7	1	0.37	1.0079
5541	CB	367	TMC3	C1	1	0.0862	12.011
5542	CB	367	TMC3	C2	1	-0.15	12.011
5543	CB	367	TMC3	C3	1	0.0862	12.011
5544	CB	367	TMC3	C4	1	-0.15	12.011
5545	CB	367	TMC3	C5	1	0.0862	12.011
5546	CB	367	TMC3	C6	1	-0.15	12.011
5547	C=O	367	TMC3	C	1	0.5438	12.011
5548	O=C	367	TMC3	O	1	-0.57	15.9994
5549	HCMM	367	TMC3	H	1	0.15	1.0079
5550	HCMM	367	TMC3	H1	1	0.15	1.0079
5551	HCMM	367	TMC3	H2	1	0.15	1.0079
5552	C=O	367	TMC3	C7	1	0.5438	12.011
5553	C=O	367	TMC3	C8	1	0.5438	12.011
5554	O=C	367	TMC3	O1	1	-0.57	15.9994
5555	O=C	367	TMC3	O2	1	-0.57	15.9994
5556	CB	368	MPD2	C	1	-0.15	12.011
5557	CB	368	MPD2	C1	1	0.117	12.011
5558	CB	368	MPD2	C2	1	-0.15	12.011
5559	CB	368	MPD2	C3	1	0.117	12.011
5560	CB	368	MPD2	C4	1	-0.15	12.011
5561	CB	368	MPD2	C5	1	-0.15	12.011
5562	HCMM	368	MPD2	H	1	0.15	1.0079
5563	HCMM	368	MPD2	H1	1	0.15	1.0079
5564	HCMM	368	MPD2	H2	1	0.15	1.0079
5565	HCMM	368	MPD2	H3	1	0.15	1.0079
5566	NC=O	368	MPD2	N	1	-0.547	14.0067
5567	HNCO	368	MPD2	H5	1	0.37	1.0079
5568	NC=O	368	MPD2	N1	1	-0.547	14.0067
5569	HNCO	368	MPD2	H7	1	0.37	1.0079
5570	CB	369	TMC3	C1	1	0.0862	12.011
5571	CB	369	TMC3	C2	1	-0.15	12.011
5572	CB	369	TMC3	C3	1	0.0862	12.011
5573	CB	369	TMC3	C4	1	-0.15	12.011
5574	CB	369	TMC3	C5	1	0.0862	12.011
5575	CB	369	TMC3	C6	1	-0.15	12.011
5576	C=O	369	TMC3	C	1	0.5438	12.011
5577	O=C	369	TMC3	O	1	-0.57	15.9994
5578	HCMM	369	TMC3	H	1	0.15	1.0079
5579	HCMM	369	TMC3	H1	1	0.15	1.0079
5580	HCMM	369	TMC3	H2	1	0.15	1.0079
5581	C=O	369	TMC3	C7	1	0.5438	12.011
5582	C=O	369	TMC3	C8	1	0.5438	12.011
5583	O=C	369	TMC3	O1	1	-0.57	15.9994
5584	O=C	369	TMC3	O2	1	-0.57	15.9994
5585	CB	370	TMC3	C1	1	0.0862	12.011
5586	CB	370	TMC3	C2	1	-0.15	12.011
5587	CB	370	TMC3	C3	1	0.0862	12.011
5588	CB	370	TMC3	C4	1	-0.15	12.011
5589	CB	370	TMC3	C5	1	0.0862	12.011
5590	CB	370	TMC3	C6	1	-0.15	12.011
5591	C=O	370	TMC3	C	1	0.5438	12.011
5592	O=C	370	TMC3	O	1	-0.57	15.9994
5593	HCMM	370	TMC3	H	1	0.15	1.0079
5594	HCMM	370	TMC3	H1	1	0.15	1.0079
5595	HCMM	370	TMC3	H2	1	0.15	1.0079
5596	C=O	370	TMC3	C7	1	0.5438	12.011
5597	C=O	370	TMC3	C8	1	0.5438	12.011
5598	O=C	370	TMC3	O1	1	-0.57	15.9994
5599	O=C	370	TMC3	O2	1	-0.57	15.9994
5600	CB	371	TMC3	C1	1	0.0862	12.011
5601	CB	371	TMC3	C2	1	-0.15	12.011
5602	CB	371	TMC3	C3	1	0.0862	12.011
5603	CB	371	TMC3	C4	1	-0.15	12.011
5604	CB	371	TMC3	C5	1	0.0862	12.011
5605	CB	371	TMC3	C6	1	-0.15	12.011
5606	C=O	371	TMC3	C	1	0.5438	12.011
5607	O=C	371	TMC3	O	1	-0.57	15.9994
5608	HCMM	371	TMC3	H	1	0.15	1.0079
5609	HCMM	371	TMC3	H1	1	0.15	1.0079
5610	HCMM	371	TMC3	H2	1	0.15	1.0079
5611	C=O	371	TMC3	C7	1	0.5438	12.011
5612	C=O	371	TMC3	C8	1	0.5438	12.011
5613	O=C	371	TMC3	O1	1	-0.57	15.9994
5614	O=C	371	TMC3	O2	1	-0.57	15.9994
5615	CB	372	MPD2	C	1	-0.15	12.011
5616	CB	372	MPD2	C1	1	0.117	12.011
5617	CB	372	MPD2	C2	1	-0.15	12.011
5618	CB	372	MPD2	C3	1	0.117	12.011
5619	CB	372	MPD2	C4	1	-0.15	12.011
5620	CB	372	MPD2	C5	1	-0.15	12.011
5621	HCMM	372	MPD2	H	1	0.15	1.0079
5622	HCMM	372	MPD2	H1	1	0.15	1.0079
5623	HCMM	372	MPD2	H2	1	0.15	1.0079
5624	HCMM	372	MPD2	H3	1	0.15	1.0079
5625	NC=O	372	MPD2	N	1	-0.547	14.0067
5626	HNCO	372	MPD2	H5	1	0.37	1.0079
5627	NC=O	372	MPD2	N1	1	-0.547	14.0067
5628	HNCO	372	MPD2	H7	1	0.37	1.0079
5629	CB	373	TMC3	C1	1	0.0862	12.011
5630	CB	373	TMC3	C2	1	-0.15	12.011
5631	CB	373	TMC3	C3	1	0.0862	12.011
5632	CB	373	TMC3	C4	1	-0.15	12.011
5633	CB	373	TMC3	C5	1	0.0862	12.011
5634	CB	373	TMC3	C6	1	-0.15	12.011
5635	C=O	373	TMC3	C	1	0.5438	12.011
5636	O=C	373	TMC3	O	1	-0.57	15.9994
5637	HCMM	373	TMC3	H	1	0.15	1.0079
5638	HCMM	373	TMC3	H1	1	0.15	1.0079
5639	HCMM	373	TMC3	H2	1	0.15	1.0079
5640	C=O	373	TMC3	C7	1	0.5438	12.011
5641	C=O	373	TMC3	C8	1	0.5438	12.011
5642	O=C	373	TMC3	O1	1	-0.57	15.9994
5643	O=C	373	TMC3	O2	1	-0.57	15.9994
5644	CB	374	TMC3	C1	1	0.0862	12.011
5645	CB	374	TMC3	C2	1	-0.15	12.011
5646	CB	374	TMC3	C3	1	0.0862	12.011
5647	CB	374	TMC3	C4	1	-0.15	12.011
5648	CB	374	TMC3	C5	1	0.0862	12.011
5649	CB	374	TMC3	C6	1	-0.15	12.011
5650	C=O	374	TMC3	C	1	0.5438	12.011
5651	O=C	374	TMC3	O	1	-0.57	15.9994
5652	HCMM	374	TMC3	H	1	0.15	1.0079
5653	HCMM	374	TMC3	H1	1	0.15	1.0079
5654	HCMM	374	TMC3	H2	1	0.15	1.0079
5655	C=O	374	TMC3	C7	1	0.5438	12.011
5656	C=O	374	TMC3	C8	1	0.5438	12.011
5657	O=C	374	TMC3	O1	1	-0.57	15.9994
5658	O=C	374	TMC3	O2	1	-0.57	15.9994
5659	CB	375	MPD2	C	1	-0.15	12.011
5660	CB	375	MPD2	C1	1	0.117	12.011
5661	CB	375	MPD2	C2	1	-0.15	12.011
5662	CB	375	MPD2	C3	1	0.117	12.011
5663	CB	375	MPD2	C4	1	-0.15	12.011
5664	CB	375	MPD2	C5	1	-0.15	12.011
5665	HCMM	375	MPD2	H	1	0.15	1.0079
5666	HCMM	375	MPD2	H1	1	0.15	1.0079
5667	HCMM	375	MPD2	H2	1	0.15	1.0079
5668	HCMM	375	MPD2	H3	1	0.15	1.0079
5669	NC=O	375	MPD2	N	1	-0.547	14.0067
5670	HNCO	375	MPD2	H5	1	0.37	1.0079
5671	NC=O	375	MPD2	N1	1	-0.547	14.0067
5672	HNCO	375	MPD2	H7	1	0.37	1.0079
5673	CB	376	TMC3	C1	1	0.0862	12.011
5674	CB	376	TMC3	C2	1	-0.15	12.011
5675	CB	376	TMC3	C3	1	0.0862	12.011
5676	CB	376	TMC3	C4	1	-0.15	12.011
5677	CB	376	TMC3	C5	1	0.0862	12.011
5678	CB	376	TMC3	C6	1	-0.15	12.011
5679	C=O	376	TMC3	C	1	0.5438	12.011
5680	O=C	376	TMC3	O	1	-0.57	15.9994
5681	HCMM	376	TMC3	H	1	0.15	1.0079
5682	HCMM	376	TMC3	H1	1	0.15	1.0079
5683	HCMM	376	TMC3	H2	1	0.15	1.0079
5684	C=O	376	TMC3	C7	1	0.5438	12.011
5685	C=O	376	TMC3	C8	1	0.5438	12.011
5686	O=C	376	TMC3	O1	1	-0.57	15.9994
5687	O=C	376	TMC3	O2	1	-0.57	15.9994
5688	CB	377	MPD2	C	1	-0.15	12.011
5689	CB	377	MPD2	C1	1	0.117	12.011
5690	CB	377	MPD2	C2	1	-0.15	12.011
5691	CB	377	MPD2	C3	1	0.117	12.011
5692	CB	377	MPD2	C4	1	-0.15	12.011
5693	CB	377	MPD2	C5	1	-0.15	12.011
5694	HCMM	377	MPD2	H	1	0.15	1.0079
5695	HCMM	377	MPD2	H1	1	0.15	1.0079
5696	HCMM	377	MPD2	H2	1	0.15	1.0079
5697	HCMM	377	MPD2	H3	1	0.15	1.0079
5698	NC=O	377	MPD2	N	1	-0.547	14.0067
5699	HNCO	377	MPD2	H5	1	0.37	1.0079
5700	NC=O	377	MPD2	N1	1	-0.547	14.0067
5701	HNCO	377	MPD2	H7	1	0.37	1.0079
5702	CB	378	TMC3	C1	1	0.0862	12.011
5703	CB	378	TMC3	C2	1	-0.15	12.011
5704	CB	378	TMC3	C3	1	0.0862	12.011
5705	CB	378	TMC3	C4	1	-0.15	12.011
5706	CB	378	TMC3	C5	1	0.0862	12.011
5707	CB	378	TMC3	C6	1	-0.15	12.011
5708	C=O	378	TMC3	C	1	0.5438	12.011
5709	O=C	378	TMC3	O	1	-0.57	15.9994
5710	HCMM	378	TMC3	H	1	0.15	1.0079
5711	HCMM	378	TMC3	H1	1	0.15	1.0079
5712	HCMM	378	TMC3	H2	1	0.15	1.0079
5713	C=O	378	TMC3	C7	1	0.5438	12.011
5714	C=O	378	TMC3	C8	1	0.5438	12.011
5715	O=C	378	TMC3	O1	1	-0.57	15.9994
5716	O=C	378	TMC3	O2	1	-0.57	15.9994
5717	CB	379	MPD2	C	1	-0.15	12.011
5718	CB	379	MPD2	C1	1	0.117	12.011
5719	CB	379	MPD2	C2	1	-0.15	12.011
5720	CB	379	MPD2	C3	1	0.117	12.011
5721	CB	379	MPD2	C4	1	-0.15	12.011
5722	CB	379	MPD2	C5	1	-0.15	12.011
5723	HCMM	379	MPD2	H	1	0.15	1.0079
5724	HCMM	379	MPD2	H1	1	0.15	1.0079
5725	HCMM	379	MPD2	H2	1	0.15	1.0079
5726	HCMM	379	MPD2	H3	1	0.15	1.0079
5727	NC=O	379	MPD2	N	1	-0.547	14.0067
5728	HNCO	379	MPD2	H5	1	0.37	1.0079
5729	NC=O	379	MPD2	N1	1	-0.547	14.0067
5730	HNCO	379	MPD2	H7	1	0.37	1.0079
5731	CB	380	TMC3	C1	1	0.0862	12.011
5732	CB	380	TMC3	C2	1	-0.15	12.011
5733	CB	380	TMC3	C3	1	0.0862	12.011
5734	CB	380	TMC3	C4	1	-0.15	12.011
5735	CB	380	TMC3	C5	1	0.0862	12.011
5736	CB	380	TMC3	C6	1	-0.15	12.011
5737	C=O	380	TMC3	C	1	0.5438	12.011
5738	O=C	380	TMC3	O	1	-0.57	15.9994
5739	HCMM	380	TMC3	H	1	0.15	1.0079
5740	HCMM	380	TMC3	H1	1	0.15	1.0079
5741	HCMM	380	TMC3	H2	1	0.15	1.0079
5742	C=O	380	TMC3	C7	1	0.5438	12.011
5743	C=O	380	TMC3	C8	1	0.5438	12.011
5744	O=C	380	TMC3	O1	1	-0.57	15.9994
5745	O=C	380	TMC3	O2	1	-0.57	15.9994
5746	CB	381	TMC3	C1	1	0.0862	12.011
5747	CB	381	TMC3	C2	1	-0.15	12.011
5748	CB	381	TMC3	C3	1	0.0862	12.011
5749	CB	381	TMC3	C4	1	-0.15	12.011
5750	CB	381	TMC3	C5	1	0.0862	12.011
5751	CB	381	TMC3	C6	1	-0.15	12.011
5752	C=O	381	TMC3	C	1	0.5438	12.011
5753	O=C	381	TMC3	O	1	-0.57	15.9994
5754	HCMM	381	TMC3	H	1	0.15	1.0079
5755	HCMM	381	TMC3	H1	1	0.15	1.0079
5756	HCMM	381	TMC3	H2	1	0.15	1.0079
5757	C=O	381	TMC3	C7	1	0.5438	12.011
5758	C=O	381	TMC3	C8	1	0.5438	12.011
5759	O=C	381	TMC3	O1	1	-0.57	15.9994
5760	O=C	381	TMC3	O2	1	-0.57	15.9994
5761	CB	382	MPD2	C	1	-0.15	12.011
5762	CB	382	MPD2	C1	1	0.117	12.011
5763	CB	382	MPD2	C2	1	-0.15	12.011
5764	CB	382	MPD2	C3	1	0.117	12.011
5765	CB	382	MPD2	C4	1	-0.15	12.011
5766	CB	382	MPD2	C5	1	-0.15	12.011
5767	HCMM	382	MPD2	H	1	0.15	1.0079
5768	HCMM	382	MPD2	H1	1	0.15	1.0079
5769	HCMM	382	MPD2	H2	1	0.15	1.0079
5770	HCMM	382	MPD2	H3	1	0.15	1.0079
5771	NC=O	382	MPD2	N	1	-0.547	14.0067
5772	HNCO	382	MPD2	H5	1	0.37	1.0079
5773	NC=O	382	MPD2	N1	1	-0.547	14.0067
5774	HNCO	382	MPD2	H7	1	0.37	1.0079
5775	CB	383	TMC3	C1	1	0.0862	12.011
5776	CB	383	TMC3	C2	1	-0.15	12.011
5777	CB	383	TMC3	C3	1	0.0862	12.011
5778	CB	383	TMC3	C4	1	-0.15	12.011
5779	CB	383	TMC3	C5	1	0.0862	12.011
5780	CB	383	TMC3	C6	1	-0.15	12.011
5781	C=O	383	TMC3	C	1	0.5438	12.011
5782	O=C	383	TMC3	O	1	-0.57	15.9994
5783	HCMM	383	TMC3	H	1	0.15	1.0079
5784	HCMM	383	TMC3	H1	1	0.15	1.0079
5785	HCMM	383	TMC3	H2	1	0.15	1.0079
5786	C=O	383	TMC3	C7	1	0.5438	12.011
5787	C=O	383	TMC3	C8	1	0.5438	12.011
5788	O=C	383	TMC3	O1	1	-0.57	15.9994
5789	O=C	383	TMC3	O2	1	-0.57	15.9994
5790	CB	384	MPD2	C	1	-0.15	12.011
5791	CB	384	MPD2	C1	1	0.117	12.011
5792	CB	384	MPD2	C2	1	-0.15	12.011
5793	CB	384	MPD2	C3	1	0.117	12.011
5794	CB	384	MPD2	C4	1	-0.15	12.011
5795	CB	384	MPD2	C5	1	-0.15	12.011
5796	HCMM	384	MPD2	H	1	0.15	1.0079
5797	HCMM	384	MPD2	H1	1	0.15	1.0079
5798	HCMM	384	MPD2	H2	1	0.15	1.0079
5799	HCMM	384	MPD2	H3	1	0.15	1.0079
5800	NC=O	384	MPD2	N	1	-0.547	14.0067
5801	HNCO	384	MPD2	H5	1	0.37	1.0079
5802	NC=O	384	MPD2	N1	1	-0.547	14.0067
5803	HNCO	384	MPD2	H7	1	0.37	1.0079
5804	CB	385	TMC3	C1	1	0.0862	12.011
5805	CB	385	TMC3	C2	1	-0.15	12.011
5806	CB	385	TMC3	C3	1	0.0862	12.011
5807	CB	385	TMC3	C4	1	-0.15	12.011
5808	CB	385	TMC3	C5	1	0.0862	12.011
5809	CB	385	TMC3	C6	1	-0.15	12.011
5810	C=O	385	TMC3	C	1	0.5438	12.011
5811	O=C	385	TMC3	O	1	-0.57	15.9994
5812	HCMM	385	TMC3	H	1	0.15	1.0079
5813	HCMM	385	TMC3	H1	1	0.15	1.0079
5814	HCMM	385	TMC3	H2	1	0.15	1.0079
5815	C=O	385	TMC3	C7	1	0.5438	12.011
5816	C=O	385	TMC3	C8	1	0.5438	12.011
5817	O=C	385	TMC3	O1	1	-0.57	15.9994
5818	O=C	385	TMC3	O2	1	-0.57	15.9994
5819	CB	386	TMC3	C1	1	0.0862	12.011
5820	CB	386	TMC3	C2	1	-0.15	12.011
5821	CB	386	TMC3	C3	1	0.0862	12.011
5822	CB	386	TMC3	C4	1	-0.15	12.011
5823	CB	386	TMC3	C5	1	0.0862	12.011
5824	CB	386	TMC3	C6	1	-0.15	12.011
5825	C=O	386	TMC3	C	1	0.5438	12.011
5826	O=C	386	TMC3	O	1	-0.57	15.9994
5827	HCMM	386	TMC3	H	1	0.15	1.0079
5828	HCMM	386	TMC3	H1	1	0.15	1.0079
5829	HCMM	386	TMC3	H2	1	0.15	1.0079
5830	C=O	386	TMC3	C7	1	0.5438	12.011
5831	C=O	386	TMC3	C8	1	0.5438	12.011
5832	O=C	386	TMC3	O1	1	-0.57	15.9994
5833	O=C	386	TMC3	O2	1	-0.57	15.9994
5834	CB	387	MPD2	C	1	-0.15	12.011
5835	CB	387	MPD2	C1	1	0.117	12.011
5836	CB	387	MPD2	C2	1	-0.15	12.011
5837	CB	387	MPD2	C3	1	0.117	12.011
5838	CB	387	MPD2	C4	1	-0.15	12.011
5839	CB	387	MPD2	C5	1	-0.15	12.011
5840	HCMM	387	MPD2	H	1	0.15	1.0079
5841	HCMM	387	MPD2	H1	1	0.15	1.0079
5842	HCMM	387	MPD2	H2	1	0.15	1.0079
5843	HCMM	387	MPD2	H3	1	0.15	1.0079
5844	NC=O	387	MPD2	N	1	-0.547	14.0067
5845	HNCO	387	MPD2	H5	1	0.37	1.0079
5846	NC=O	387	MPD2	N1	1	-0.547	14.0067
5847	HNCO	387	MPD2	H7	1	0.37	1.0079
5848	CB	388	TMC3	C1	1	0.0862	12.011
5849	CB	388	TMC3	C2	1	-0.15	12.011
5850	CB	388	TMC3	C3	1	0.0862	12.011
5851	CB	388	TMC3	C4	1	-0.15	12.011
5852	CB	388	TMC3	C5	1	0.0862	12.011
5853	CB	388	TMC3	C6	1	-0.15	12.011
5854	C=O	388	TMC3	C	1	0.5438	12.011
5855	O=C	388	TMC3	O	1	-0.57	15.9994
5856	HCMM	388	TMC3	H	1	0.15	1.0079
5857	HCMM	388	TMC3	H1	1	0.15	1.0079
5858	HCMM	388	TMC3	H2	1	0.15	1.0079
5859	C=O	388	TMC3	C7	1	0.5438	12.011
5860	C=O	388	TMC3	C8	1	0.5438	12.011
5861	O=C	388	TMC3	O1	1	-0.57	15.9994
5862	O=C	388	TMC3	O2	1	-0.57	15.9994
5863	CB	389	MPD2	C	1	-0.15	12.011
5864	CB	389	MPD2	C1	1	0.117	12.011
5865	CB	389	MPD2	C2	1	-0.15	12.011
5866	CB	389	MPD2	C3	1	0.117	12.011
5867	CB	389	MPD2	C4	1	-0.15	12.011
5868	CB	389	MPD2	C5	1	-0.15	12.011
5869	HCMM	389	MPD2	H	1	0.15	1.0079
5870	HCMM	389	MPD2	H1	1	0.15	1.0079
5871	HCMM	389	MPD2	H2	1	0.15	1.0079
5872	HCMM	389	MPD2	H3	1	0.15	1.0079
5873	NC=O	389	MPD2	N	1	-0.547	14.0067
5874	HNCO	389	MPD2	H5	1	0.37	1.0079
5875	NC=O	389	MPD2	N1	1	-0.547	14.0067
5876	HNCO	389	MPD2	H7	1	0.37	1.0079
5877	CB	390	TMC3	C1	1	0.0862	12.011
5878	CB	390	TMC3	C2	1	-0.15	12.011
5879	CB	390	TMC3	C3	1	0.0862	12.011
5880	CB	390	TMC3	C4	1	-0.15	12.011
5881	CB	390	TMC3	C5	1	0.0862	12.011
5882	CB	390	TMC3	C6	1	-0.15	12.011
5883	C=O	390	TMC3	C	1	0.5438	12.011
5884	O=C	390	TMC3	O	1	-0.57	15.9994
5885	HCMM	390	TMC3	H	1	0.15	1.0079
5886	HCMM	390	TMC3	H1	1	0.15	1.0079
5887	HCMM	390	TMC3	H2	1	0.15	1.0079
5888	C=O	390	TMC3	C7	1	0.5438	12.011
5889	C=O	390	TMC3	C8	1	0.5438	12.011
5890	O=C	390	TMC3	O1	1	-0.57	15.9994
5891	O=C	390	TMC3	O2	1	-0.57	15.9994
5892	CB	391	MPD2	C	1	-0.15	12.011
5893	CB	391	MPD2	C1	1	0.117	12.011
5894	CB	391	MPD2	C2	1	-0.15	12.011
5895	CB	391	MPD2	C3	1	0.117	12.011
5896	CB	391	MPD2	C4	1	-0.15	12.011
5897	CB	391	MPD2	C5	1	-0.15	12.011
5898	HCMM	391	MPD2	H	1	0.15	1.0079
5899	HCMM	391	MPD2	H1	1	0.15	1.0079
5900	HCMM	391	MPD2	H2	1	0.15	1.0079
5901	HCMM	391	MPD2	H3	1	0.15	1.0079
5902	NC=O	391	MPD2	N	1	-0.547	14.0067
5903	HNCO	391	MPD2	H5	1	0.37	1.0079
5904	NC=O	391	MPD2	N1	1	-0.547	14.0067
5905	HNCO	391	MPD2	H7	1	0.37	1.0079
5906	CB	392	TMC3	C1	1	0.0862	12.011
5907	CB	392	TMC3	C2	1	-0.15	12.011
5908	CB	392	TMC3	C3	1	0.0862	12.011
5909	CB	392	TMC3	C4	1	-0.15	12.011
5910	CB	392	TMC3	C5	1	0.0862	12.011
5911	CB	392	TMC3	C6	1	-0.15	12.011
5912	C=O	392	TMC3	C	1	0.5438	12.011
5913	O=C	392	TMC3	O	1	-0.57	15.9994
5914	HCMM	392	TMC3	H	1	0.15	1.0079
5915	HCMM	392	TMC3	H1	1	0.15	1.0079
5916	HCMM	392	TMC3	H2	1	0.15	1.0079
5917	C=O	392	TMC3	C7	1	0.5438	12.011
5918	C=O	392	TMC3	C8	1	0.5438	12.011
5919	O=C	392	TMC3	O1	1	-0.57	15.9994
5920	O=C	392	TMC3	O2	1	-0.57	15.9994
5921	CB	393	TMC3	C1	1	0.0862	12.011
5922	CB	393	TMC3	C2	1	-0.15	12.011
5923	CB	393	TMC3	C3	1	0.0862	12.011
5924	CB	393	TMC3	C4	1	-0.15	12.011
5925	CB	393	TMC3	C5	1	0.0862	12.011
5926	CB	393	TMC3	C6	1	-0.15	12.011
5927	C=O	393	TMC3	C	1	0.5438	12.011
5928	O=C	393	TMC3	O	1	-0.57	15.9994
5929	HCMM	393	TMC3	H	1	0.15	1.0079
5930	HCMM	393	TMC3	H1	1	0.15	1.0079
5931	HCMM	393	TMC3	H2	1	0.15	1.0079
5932	C=O	393	TMC3	C7	1	0.5438	12.011
5933	C=O	393	TMC3	C8	1	0.5438	12.011
5934	O=C	393	TMC3	O1	1	-0.57	15.9994
5935	O=C	393	TMC3	O2	1	-0.57	15.9994
5936	CB	394	TMC3	C1	1	0.0862	12.011
5937	CB	394	TMC3	C2	1	-0.15	12.011
5938	CB	394	TMC3	C3	1	0.0862	12.011
5939	CB	394	TMC3	C4	1	-0.15	12.011
5940	CB	394	TMC3	C5	1	0.0862	12.011
5941	CB	394	TMC3	C6	1	-0.15	12.011
5942	C=O	394	TMC3	C	1	0.5438	12.011
5943	O=C	394	TMC3	O	1	-0.57	15.9994
5944	HCMM	394	TMC3	H	1	0.15	1.0079
5945	HCMM	394	TMC3	H1	1	0.15	1.0079
5946	HCMM	394	TMC3	H2	1	0.15	1.0079
5947	C=O	394	TMC3	C7	1	0.5438	12.011
5948	C=O	394	TMC3	C8	1	0.5438	12.011
5949	O=C	394	TMC3	O1	1	-0.57	15.9994
5950	O=C	394	TMC3	O2	1	-0.57	15.9994
5951	CB	395	TMC3	C1	1	0.0862	12.011
5952	CB	395	TMC3	C2	1	-0.15	12.011
5953	CB	395	TMC3	C3	1	0.0862	12.011
5954	CB	395	TMC3	C4	1	-0.15	12.011
5955	CB	395	TMC3	C5	1	0.0862	12.011
5956	CB	395	TMC3	C6	1	-0.15	12.011
5957	C=O	395	TMC3	C	1	0.5438	12.011
5958	O=C	395	TMC3	O	1	-0.57	15.9994
5959	HCMM	395	TMC3	H	1	0.15	1.0079
5960	HCMM	395	TMC3	H1	1	0.15	1.0079
5961	HCMM	395	TMC3	H2	1	0.15	1.0079
5962	C=O	395	TMC3	C7	1	0.5438	12.011
5963	C=O	395	TMC3	C8	1	0.5438	12.011
5964	O=C	395	TMC3	O1	1	-0.57	15.9994
5965	O=C	395	TMC3	O2	1	-0.57	15.9994
5966	CB	396	MPD2	C	1	-0.15	12.011
5967	CB	396	MPD2	C1	1	0.117	12.011
5968	CB	396	MPD2	C2	1	-0.15	12.011
5969	CB	396	MPD2	C3	1	0.117	12.011
5970	CB	396	MPD2	C4	1	-0.15	12.011
5971	CB	396	MPD2	C5	1	-0.15	12.011
5972	HCMM	396	MPD2	H	1	0.15	1.0079
5973	HCMM	396	MPD2	H1	1	0.15	1.0079
5974	HCMM	396	MPD2	H2	1	0.15	1.0079
5975	HCMM	396	MPD2	H3	1	0.15	1.0079
5976	NC=O	396	MPD2	N	1	-0.547	14.0067
5977	HNCO	396	MPD2	H5	1	0.37	1.0079
5978	NC=O	396	MPD2	N1	1	-0.547	14.0067
5979	HNCO	396	MPD2	H7	1	0.37	1.0079
5980	CB	397	TMC3	C1	1	0.0862	12.011
5981	CB	397	TMC3	C2	1	-0.15	12.011
5982	CB	397	TMC3	C3	1	0.0862	12.011
5983	CB	397	TMC3	C4	1	-0.15	12.011
5984	CB	397	TMC3	C5	1	0.0862	12.011
5985	CB	397	TMC3	C6	1	-0.15	12.011
5986	C=O	397	TMC3	C	1	0.5438	12.011
5987	O=C	397	TMC3	O	1	-0.57	15.9994
5988	HCMM	397	TMC3	H	1	0.15	1.0079
5989	HCMM	397	TMC3	H1	1	0.15	1.0079
5990	HCMM	397	TMC3	H2	1	0.15	1.0079
5991	C=O	397	TMC3	C7	1	0.5438	12.011
5992	C=O	397	TMC3	C8	1	0.5438	12.011
5993	O=C	397	TMC3	O1	1	-0.57	15.9994
5994	O=C	397	TMC3	O2	1	-0.57	15.9994
5995	CB	398	MPD2	C	1	-0.15	12.011
5996	CB	398	MPD2	C1	1	0.117	12.011
5997	CB	398	MPD2	C2	1	-0.15	12.011
5998	CB	398	MPD2	C3	1	0.117	12.011
5999	CB	398	MPD2	C4	1	-0.15	12.011
6000	CB	398	MPD2	C5	1	-0.15	12.011
6001	HCMM	398	MPD2	H	1	0.15	1.0079
6002	HCMM	398	MPD2	H1	1	0.15	1.0079
6003	HCMM	398	MPD2	H2	1	0.15	1.0079
6004	HCMM	398	MPD2	H3	1	0.15	1.0079
6005	NC=O	398	MPD2	N	1	-0.547	14.0067
6006	HNCO	398	MPD2	H5	1	0.37	1.0079
6007	NC=O	398	MPD2	N1	1	-0.547	14.0067
6008	HNCO	398	MPD2	H7	1	0.37	1.0079
6009	CB	399	TMC3	C1	1	0.0862	12.011
6010	CB	399	TMC3	C2	1	-0.15	12.011
6011	CB	399	TMC3	C3	1	0.0862	12.011
6012	CB	399	TMC3	C4	1	-0.15	12.011
6013	CB	399	TMC3	C5	1	0.0862	12.011
6014	CB	399	TMC3	C6	1	-0.15	12.011
6015	C=O	399	TMC3	C	1	0.5438	12.011
6016	O=C	399	TMC3	O	1	-0.57	15.9994
6017	HCMM	399	TMC3	H	1	0.15	1.0079
6018	HCMM	399	TMC3	H1	1	0.15	1.0079
6019	HCMM	399	TMC3	H2	1	0.15	1.0079
6020	C=O	399	TMC3	C7	1	0.5438	12.011
6021	C=O	399	TMC3	C8	1	0.5438	12.011
6022	O=C	399	TMC3	O1	1	-0.57	15.9994
6023	O=C	399	TMC3	O2	1	-0.57	15.9994
6024	CB	400	TMC3	C1	1	0.0862	12.011
6025	CB	400	TMC3	C2	1	-0.15	12.011
6026	CB	400	TMC3	C3	1	0.0862	12.011
6027	CB	400	TMC3	C4	1	-0.15	12.011
6028	CB	400	TMC3	C5	1	0.0862	12.011
6029	CB	400	TMC3	C6	1	-0.15	12.011
6030	C=O	400	TMC3	C	1	0.5438	12.011
6031	O=C	400	TMC3	O	1	-0.57	15.9994
6032	HCMM	400	TMC3	H	1	0.15	1.0079
6033	HCMM	400	TMC3	H1	1	0.15	1.0079
6034	HCMM	400	TMC3	H2	1	0.15	1.0079
6035	C=O	400	TMC3	C7	1	0.5438	12.011
6036	C=O	400	TMC3	C8	1	0.5438	12.011
6037	O=C	400	TMC3	O1	1	-0.57	15.9994
6038	O=C	400	TMC3	O2	1	-0.57	15.9994
6039	CB	401	MPD2	C	1	-0.15	12.011
6040	CB	401	MPD2	C1	1	0.117	12.011
6041	CB	401	MPD2	C2	1	-0.15	12.011
6042	CB	401	MPD2	C3	1	0.117	12.011
6043	CB	401	MPD2	C4	1	-0.15	12.011
6044	CB	401	MPD2	C5	1	-0.15	12.011
6045	HCMM	401	MPD2	H	1	0.15	1.0079
6046	HCMM	401	MPD2	H1	1	0.15	1.0079
6047	HCMM	401	MPD2	H2	1	0.15	1.0079
6048	HCMM	401	MPD2	H3	1	0.15	1.0079
6049	NC=O	401	MPD2	N	1	-0.547	14.0067
6050	HNCO	401	MPD2	H5	1	0.37	1.0079
6051	NC=O	401	MPD2	N1	1	-0.547	14.0067
6052	HNCO	401	MPD2	H7	1	0.37	1.0079
6053	CB	402	TMC3	C1	1	0.0862	12.011
6054	CB	402	TMC3	C2	1	-0.15	12.011
6055	CB	402	TMC3	C3	1	0.0862	12.011
6056	CB	402	TMC3	C4	1	-0.15	12.011
6057	CB	402	TMC3	C5	1	0.0862	12.011
6058	CB	402	TMC3	C6	1	-0.15	12.011
6059	C=O	402	TMC3	C	1	0.5438	12.011
6060	O=C	402	TMC3	O	1	-0.57	15.9994
6061	HCMM	402	TMC3	H	1	0.15	1.0079
6062	HCMM	402	TMC3	H1	1	0.15	1.0079
6063	HCMM	402	TMC3	H2	1	0.15	1.0079
6064	C=O	402	TMC3	C7	1	0.5438	12.011
6065	C=O	402	TMC3	C8	1	0.5438	12.011
6066	O=C	402	TMC3	O1	1	-0.57	15.9994
6067	O=C	402	TMC3	O2	1	-0.57	15.9994
6068	CB	403	MPD2	C	1	-0.15	12.011
6069	CB	403	MPD2	C1	1	0.117	12.011
6070	CB	403	MPD2	C2	1	-0.15	12.011
6071	CB	403	MPD2	C3	1	0.117	12.011
6072	CB	403	MPD2	C4	1	-0.15	12.011
6073	CB	403	MPD2	C5	1	-0.15	12.011
6074	HCMM	403	MPD2	H	1	0.15	1.0079
6075	HCMM	403	MPD2	H1	1	0.15	1.0079
6076	HCMM	403	MPD2	H2	1	0.15	1.0079
6077	HCMM	403	MPD2	H3	1	0.15	1.0079
6078	NC=O	403	MPD2	N	1	-0.547	14.0067
6079	HNCO	403	MPD2	H5	1	0.37	1.0079
6080	NC=O	403	MPD2	N1	1	-0.547	14.0067
6081	HNCO	403	MPD2	H7	1	0.37	1.0079
6082	CB	404	TMC3	C1	1	0.0862	12.011
6083	CB	404	TMC3	C2	1	-0.15	12.011
6084	CB	404	TMC3	C3	1	0.0862	12.011
6085	CB	404	TMC3	C4	1	-0.15	12.011
6086	CB	404	TMC3	C5	1	0.0862	12.011
6087	CB	404	TMC3	C6	1	-0.15	12.011
6088	C=O	404	TMC3	C	1	0.5438	12.011
6089	O=C	404	TMC3	O	1	-0.57	15.9994
6090	HCMM	404	TMC3	H	1	0.15	1.0079
6091	HCMM	404	TMC3	H1	1	0.15	1.0079
6092	HCMM	404	TMC3	H2	1	0.15	1.0079
6093	C=O	404	TMC3	C7	1	0.5438	12.011
6094	C=O	404	TMC3	C8	1	0.5438	12.011
6095	O=C	404	TMC3	O1	1	-0.57	15.9994
6096	O=C	404	TMC3	O2	1	-0.57	15.9994
6097	CB	405	MPD2	C	1	-0.15	12.011
6098	CB	405	MPD2	C1	1	0.117	12.011
6099	CB	405	MPD2	C2	1	-0.15	12.011
6100	CB	405	MPD2	C3	1	0.117	12.011
6101	CB	405	MPD2	C4	1	-0.15	12.011
6102	CB	405	MPD2	C5	1	-0.15	12.011
6103	HCMM	405	MPD2	H	1	0.15	1.0079
6104	HCMM	405	MPD2	H1	1	0.15	1.0079
6105	HCMM	405	MPD2	H2	1	0.15	1.0079
6106	HCMM	405	MPD2	H3	1	0.15	1.0079
6107	NC=O	405	MPD2	N	1	-0.547	14.0067
6108	HNCO	405	MPD2	H5	1	0.37	1.0079
6109	NC=O	405	MPD2	N1	1	-0.547	14.0067
6110	HNCO	405	MPD2	H7	1	0.37	1.0079
6111	CB	406	TMC3	C1	1	0.0862	12.011
6112	CB	406	TMC3	C2	1	-0.15	12.011
6113	CB	406	TMC3	C3	1	0.0862	12.011
6114	CB	406	TMC3	C4	1	-0.15	12.011
6115	CB	406	TMC3	C5	1	0.0862	12.011
6116	CB	406	TMC3	C6	1	-0.15	12.011
6117	C=O	406	TMC3	C	1	0.5438	12.011
6118	O=C	406	TMC3	O	1	-0.57	15.9994
6119	HCMM	406	TMC3	H	1	0.15	1.0079
6120	HCMM	406	TMC3	H1	1	0.15	1.0079
6121	HCMM	406	TMC3	H2	1	0.15	1.0079
6122	C=O	406	TMC3	C7	1	0.5438	12.011
6123	C=O	406	TMC3	C8	1	0.5438	12.011
6124	O=C	406	TMC3	O1	1	-0.57	15.9994
6125	O=C	406	TMC3	O2	1	-0.57	15.9994
6126	CB	407	MPD2	C	1	-0.15	12.011
6127	CB	407	MPD2	C1	1	0.117	12.011
6128	CB	407	MPD2	C2	1	-0.15	12.011
6129	CB	407	MPD2	C3	1	0.117	12.011
6130	CB	407	MPD2	C4	1	-0.15	12.011
6131	CB	407	MPD2	C5	1	-0.15	12.011
6132	HCMM	407	MPD2	H	1	0.15	1.0079
6133	HCMM	407	MPD2	H1	1	0.15	1.0079
6134	HCMM	407	MPD2	H2	1	0.15	1.0079
6135	HCMM	407	MPD2	H3	1	0.15	1.0079
6136	NC=O	407	MPD2	N	1	-0.547	14.0067
6137	HNCO	407	MPD2	H5	1	0.37	1.0079
6138	NC=O	407	MPD2	N1	1	-0.547	14.0067
6139	HNCO	407	MPD2	H7	1	0.37	1.0079
6140	CB	408	TMC3	C1	1	0.0862	12.011
6141	CB	408	TMC3	C2	1	-0.15	12.011
6142	CB	408	TMC3	C3	1	0.0862	12.011
6143	CB	408	TMC3	C4	1	-0.15	12.011
6144	CB	408	TMC3	C5	1	0.0862	12.011
6145	CB	408	TMC3	C6	1	-0.15	12.011
6146	C=O	408	TMC3	C	1	0.5438	12.011
6147	O=C	408	TMC3	O	1	-0.57	15.9994
6148	HCMM	408	TMC3	H	1	0.15	1.0079
6149	HCMM	408	TMC3	H1	1	0.15	1.0079
6150	HCMM	408	TMC3	H2	1	0.15	1.0079
6151	C=O	408	TMC3	C7	1	0.5438	12.011
6152	C=O	408	TMC3	C8	1	0.5438	12.011
6153	O=C	408	TMC3	O1	1	-0.57	15.9994
6154	O=C	408	TMC3	O2	1	-0.57	15.9994
6155	CB	409	MPD2	C	1	-0.15	12.011
6156	CB	409	MPD2	C1	1	0.117	12.011
6157	CB	409	MPD2	C2	1	-0.15	12.011
6158	CB	409	MPD2	C3	1	0.117	12.011
6159	CB	409	MPD2	C4	1	-0.15	12.011
6160	CB	409	MPD2	C5	1	-0.15	12.011
6161	HCMM	409	MPD2	H	1	0.15	1.0079
6162	HCMM	409	MPD2	H1	1	0.15	1.0079
6163	HCMM	409	MPD2	H2	1	0.15	1.0079
6164	HCMM	409	MPD2	H3	1	0.15	1.0079
6165	NC=O	409	MPD2	N	1	-0.547	14.0067
6166	HNCO	409	MPD2	H5	1	0.37	1.0079
6167	NC=O	409	MPD2	N1	1	-0.547	14.0067
6168	HNCO	409	MPD2	H7	1	0.37	1.0079
6169	CB	410	TMC3	C1	1	0.0862	12.011
6170	CB	410	TMC3	C2	1	-0.15	12.011
6171	CB	410	TMC3	C3	1	0.0862	12.011
6172	CB	410	TMC3	C4	1	-0.15	12.011
6173	CB	410	TMC3	C5	1	0.0862	12.011
6174	CB	410	TMC3	C6	1	-0.15	12.011
6175	C=O	410	TMC3	C	1	0.5438	12.011
6176	O=C	410	TMC3	O	1	-0.57	15.9994
6177	HCMM	410	TMC3	H	1	0.15	1.0079
6178	HCMM	410	TMC3	H1	1	0.15	1.0079
6179	HCMM	410	TMC3	H2	1	0.15	1.0079
6180	C=O	410	TMC3	C7	1	0.5438	12.011
6181	C=O	410	TMC3	C8	1	0.5438	12.011
6182	O=C	410	TMC3	O1	1	-0.57	15.9994
6183	O=C	410	TMC3	O2	1	-0.57	15.9994
6184	CB	411	MPD2	C	1	-0.15	12.011
6185	CB	411	MPD2	C1	1	0.117	12.011
6186	CB	411	MPD2	C2	1	-0.15	12.011
6187	CB	411	MPD2	C3	1	0.117	12.011
6188	CB	411	MPD2	C4	1	-0.15	12.011
6189	CB	411	MPD2	C5	1	-0.15	12.011
6190	HCMM	411	MPD2	H	1	0.15	1.0079
6191	HCMM	411	MPD2	H1	1	0.15	1.0079
6192	HCMM	411	MPD2	H2	1	0.15	1.0079
6193	HCMM	411	MPD2	H3	1	0.15	1.0079
6194	NC=O	411	MPD2	N	1	-0.547	14.0067
6195	HNCO	411	MPD2	H5	1	0.37	1.0079
6196	NC=O	411	MPD2	N1	1	-0.547	14.0067
6197	HNCO	411	MPD2	H7	1	0.37	1.0079
6198	CB	412	TMC3	C1	1	0.0862	12.011
6199	CB	412	TMC3	C2	1	-0.15	12.011
6200	CB	412	TMC3	C3	1	0.0862	12.011
6201	CB	412	TMC3	C4	1	-0.15	12.011
6202	CB	412	TMC3	C5	1	0.0862	12.011
6203	CB	412	TMC3	C6	1	-0.15	12.011
6204	C=O	412	TMC3	C	1	0.5438	12.011
6205	O=C	412	TMC3	O	1	-0.57	15.9994
6206	HCMM	412	TMC3	H	1	0.15	1.0079
6207	HCMM	412	TMC3	H1	1	0.15	1.0079
6208	HCMM	412	TMC3	H2	1	0.15	1.0079
6209	C=O	412	TMC3	C7	1	0.5438	12.011
6210	C=O	412	TMC3	C8	1	0.5438	12.011
6211	O=C	412	TMC3	O1	1	-0.57	15.9994
6212	O=C	412	TMC3	O2	1	-0.57	15.9994
6213	CB	413	MPD2	C	1	-0.15	12.011
6214	CB	413	MPD2	C1	1	0.117	12.011
6215	CB	413	MPD2	C2	1	-0.15	12.011
6216	CB	413	MPD2	C3	1	0.117	12.011
6217	CB	413	MPD2	C4	1	-0.15	12.011
6218	CB	413	MPD2	C5	1	-0.15	12.011
6219	HCMM	413	MPD2	H	1	0.15	1.0079
6220	HCMM	413	MPD2	H1	1	0.15	1.0079
6221	HCMM	413	MPD2	H2	1	0.15	1.0079
6222	HCMM	413	MPD2	H3	1	0.15	1.0079
6223	NC=O	413	MPD2	N	1	-0.547	14.0067
6224	HNCO	413	MPD2	H5	1	0.37	1.0079
6225	NC=O	413	MPD2	N1	1	-0.547	14.0067
6226	HNCO	413	MPD2	H7	1	0.37	1.0079
6227	CB	414	TMC3	C1	1	0.0862	12.011
6228	CB	414	TMC3	C2	1	-0.15	12.011
6229	CB	414	TMC3	C3	1	0.0862	12.011
6230	CB	414	TMC3	C4	1	-0.15	12.011
6231	CB	414	TMC3	C5	1	0.0862	12.011
6232	CB	414	TMC3	C6	1	-0.15	12.011
6233	C=O	414	TMC3	C	1	0.5438	12.011
6234	O=C	414	TMC3	O	1	-0.57	15.9994
6235	HCMM	414	TMC3	H	1	0.15	1.0079
6236	HCMM	414	TMC3	H1	1	0.15	1.0079
6237	HCMM	414	TMC3	H2	1	0.15	1.0079
6238	C=O	414	TMC3	C7	1	0.5438	12.011
6239	C=O	414	TMC3	C8	1	0.5438	12.011
6240	O=C	414	TMC3	O1	1	-0.57	15.9994
6241	O=C	414	TMC3	O2	1	-0.57	15.9994
6242	CB	415	TMC3	C1	1	0.0862	12.011
6243	CB	415	TMC3	C2	1	-0.15	12.011
6244	CB	415	TMC3	C3	1	0.0862	12.011
6245	CB	415	TMC3	C4	1	-0.15	12.011
6246	CB	415	TMC3	C5	1	0.0862	12.011
6247	CB	415	TMC3	C6	1	-0.15	12.011
6248	C=O	415	TMC3	C	1	0.5438	12.011
6249	O=C	415	TMC3	O	1	-0.57	15.9994
6250	HCMM	415	TMC3	H	1	0.15	1.0079
6251	HCMM	415	TMC3	H1	1	0.15	1.0079
6252	HCMM	415	TMC3	H2	1	0.15	1.0079
6253	C=O	415	TMC3	C7	1	0.5438	12.011
6254	C=O	415	TMC3	C8	1	0.5438	12.011
6255	O=C	415	TMC3	O1	1	-0.57	15.9994
6256	O=C	415	TMC3	O2	1	-0.57	15.9994
6257	CB	416	MPD2	C	1	-0.15	12.011
6258	CB	416	MPD2	C1	1	0.117	12.011
6259	CB	416	MPD2	C2	1	-0.15	12.011
6260	CB	416	MPD2	C3	1	0.117	12.011
6261	CB	416	MPD2	C4	1	-0.15	12.011
6262	CB	416	MPD2	C5	1	-0.15	12.011
6263	HCMM	416	MPD2	H	1	0.15	1.0079
6264	HCMM	416	MPD2	H1	1	0.15	1.0079
6265	HCMM	416	MPD2	H2	1	0.15	1.0079
6266	HCMM	416	MPD2	H3	1	0.15	1.0079
6267	NC=O	416	MPD2	N	1	-0.547	14.0067
6268	HNCO	416	MPD2	H5	1	0.37	1.0079
6269	NC=O	416	MPD2	N1	1	-0.547	14.0067
6270	HNCO	416	MPD2	H7	1	0.37	1.0079
6271	CB	417	TMC3	C1	1	0.0862	12.011
6272	CB	417	TMC3	C2	1	-0.15	12.011
6273	CB	417	TMC3	C3	1	0.0862	12.011
6274	CB	417	TMC3	C4	1	-0.15	12.011
6275	CB	417	TMC3	C5	1	0.0862	12.011
6276	CB	417	TMC3	C6	1	-0.15	12.011
6277	C=O	417	TMC3	C	1	0.5438	12.011
6278	O=C	417	TMC3	O	1	-0.57	15.9994
6279	HCMM	417	TMC3	H	1	0.15	1.0079
6280	HCMM	417	TMC3	H1	1	0.15	1.0079
6281	HCMM	417	TMC3	H2	1	0.15	1.0079
6282	C=O	417	TMC3	C7	1	0.5438	12.011
6283	C=O	417	TMC3	C8	1	0.5438	12.011
6284	O=C	417	TMC3	O1	1	-0.57	15.9994
6285	O=C	417	TMC3	O2	1	-0.57	15.9994
6286	CB	418	TMC3	C1	1	0.0862	12.011
6287	CB	418	TMC3	C2	1	-0.15	12.011
6288	CB	418	TMC3	C3	1	0.0862	12.011
6289	CB	418	TMC3	C4	1	-0.15	12.011
6290	CB	418	TMC3	C5	1	0.0862	12.011
6291	CB	418	TMC3	C6	1	-0.15	12.011
6292	C=O	418	TMC3	C	1	0.5438	12.011
6293	O=C	418	TMC3	O	1	-0.57	15.9994
6294	HCMM	418	TMC3	H	1	0.15	1.0079
6295	HCMM	418	TMC3	H1	1	0.15	1.0079
6296	HCMM	418	TMC3	H2	1	0.15	1.0079
6297	C=O	418	TMC3	C7	1	0.5438	12.011
6298	C=O	418	TMC3	C8	1	0.5438	12.011
6299	O=C	418	TMC3	O1	1	-0.57	15.9994
6300	O=C	418	TMC3	O2	1	-0.57	15.9994
6301	CB	419	MPD2	C	1	-0.15	12.011
6302	CB	419	MPD2	C1	1	0.117	12.011
6303	CB	419	MPD2	C2	1	-0.15	12.011
6304	CB	419	MPD2	C3	1	0.117	12.011
6305	CB	419	MPD2	C4	1	-0.15	12.011
6306	CB	419	MPD2	C5	1	-0.15	12.011
6307	HCMM	419	MPD2	H	1	0.15	1.0079
6308	HCMM	419	MPD2	H1	1	0.15	1.0079
6309	HCMM	419	MPD2	H2	1	0.15	1.0079
6310	HCMM	419	MPD2	H3	1	0.15	1.0079
6311	NC=O	419	MPD2	N	1	-0.547	14.0067
6312	HNCO	419	MPD2	H5	1	0.37	1.0079
6313	NC=O	419	MPD2	N1	1	-0.547	14.0067
6314	HNCO	419	MPD2	H7	1	0.37	1.0079
6315	CB	420	TMC3	C1	1	0.0862	12.011
6316	CB	420	TMC3	C2	1	-0.15	12.011
6317	CB	420	TMC3	C3	1	0.0862	12.011
6318	CB	420	TMC3	C4	1	-0.15	12.011
6319	CB	420	TMC3	C5	1	0.0862	12.011
6320	CB	420	TMC3	C6	1	-0.15	12.011
6321	C=O	420	TMC3	C	1	0.5438	12.011
6322	O=C	420	TMC3	O	1	-0.57	15.9994
6323	HCMM	420	TMC3	H	1	0.15	1.0079
6324	HCMM	420	TMC3	H1	1	0.15	1.0079
6325	HCMM	420	TMC3	H2	1	0.15	1.0079
6326	C=O	420	TMC3	C7	1	0.5438	12.011
6327	C=O	420	TMC3	C8	1	0.5438	12.011
6328	O=C	420	TMC3	O1	1	-0.57	15.9994
6329	O=C	420	TMC3	O2	1	-0.57	15.9994
6330	CB	421	TMC3	C1	1	0.0862	12.011
6331	CB	421	TMC3	C2	1	-0.15	12.011
6332	CB	421	TMC3	C3	1	0.0862	12.011
6333	CB	421	TMC3	C4	1	-0.15	12.011
6334	CB	421	TMC3	C5	1	0.0862	12.011
6335	CB	421	TMC3	C6	1	-0.15	12.011
6336	C=O	421	TMC3	C	1	0.5438	12.011
6337	O=C	421	TMC3	O	1	-0.57	15.9994
6338	HCMM	421	TMC3	H	1	0.15	1.0079
6339	HCMM	421	TMC3	H1	1	0.15	1.0079
6340	HCMM	421	TMC3	H2	1	0.15	1.0079
6341	C=O	421	TMC3	C7	1	0.5438	12.011
6342	C=O	421	TMC3	C8	1	0.5438	12.011
6343	O=C	421	TMC3	O1	1	-0.57	15.9994
6344	O=C	421	TMC3	O2	1	-0.57	15.9994
6345	CB	422	TMC3	C1	1	0.0862	12.011
6346	CB	422	TMC3	C2	1	-0.15	12.011
6347	CB	422	TMC3	C3	1	0.0862	12.011
6348	CB	422	TMC3	C4	1	-0.15	12.011
6349	CB	422	TMC3	C5	1	0.0862	12.011
6350	CB	422	TMC3	C6	1	-0.15	12.011
6351	C=O	422	TMC3	C	1	0.5438	12.011
6352	O=C	422	TMC3	O	1	-0.57	15.9994
6353	HCMM	422	TMC3	H	1	0.15	1.0079
6354	HCMM	422	TMC3	H1	1	0.15	1.0079
6355	HCMM	422	TMC3	H2	1	0.15	1.0079
6356	C=O	422	TMC3	C7	1	0.5438	12.011
6357	C=O	422	TMC3	C8	1	0.5438	12.011
6358	O=C	422	TMC3	O1	1	-0.57	15.9994
6359	O=C	422	TMC3	O2	1	-0.57	15.9994
6360	CB	423	MPD2	C	1	-0.15	12.011
6361	CB	423	MPD2	C1	1	0.117	12.011
6362	CB	423	MPD2	C2	1	-0.15	12.011
6363	CB	423	MPD2	C3	1	0.117	12.011
6364	CB	423	MPD2	C4	1	-0.15	12.011
6365	CB	423	MPD2	C5	1	-0.15	12.011
6366	HCMM	423	MPD2	H	1	0.15	1.0079
6367	HCMM	423	MPD2	H1	1	0.15	1.0079
6368	HCMM	423	MPD2	H2	1	0.15	1.0079
6369	HCMM	423	MPD2	H3	1	0.15	1.0079
6370	NC=O	423	MPD2	N	1	-0.547	14.0067
6371	HNCO	423	MPD2	H5	1	0.37	1.0079
6372	NC=O	423	MPD2	N1	1	-0.547	14.0067
6373	HNCO	423	MPD2	H7	1	0.37	1.0079
6374	CB	424	TMC3	C1	1	0.0862	12.011
6375	CB	424	TMC3	C2	1	-0.15	12.011
6376	CB	424	TMC3	C3	1	0.0862	12.011
6377	CB	424	TMC3	C4	1	-0.15	12.011
6378	CB	424	TMC3	C5	1	0.0862	12.011
6379	CB	424	TMC3	C6	1	-0.15	12.011
6380	C=O	424	TMC3	C	1	0.5438	12.011
6381	O=C	424	TMC3	O	1	-0.57	15.9994
6382	HCMM	424	TMC3	H	1	0.15	1.0079
6383	HCMM	424	TMC3	H1	1	0.15	1.0079
6384	HCMM	424	TMC3	H2	1	0.15	1.0079
6385	C=O	424	TMC3	C7	1	0.5438	12.011
6386	C=O	424	TMC3	C8	1	0.5438	12.011
6387	O=C	424	TMC3	O1	1	-0.57	15.9994
6388	O=C	424	TMC3	O2	1	-0.57	15.9994
6389	CB	425	MPD2	C	1	-0.15	12.011
6390	CB	425	MPD2	C1	1	0.117	12.011
6391	CB	425	MPD2	C2	1	-0.15	12.011
6392	CB	425	MPD2	C3	1	0.117	12.011
6393	CB	425	MPD2	C4	1	-0.15	12.011
6394	CB	425	MPD2	C5	1	-0.15	12.011
6395	HCMM	425	MPD2	H	1	0.15	1.0079
6396	HCMM	425	MPD2	H1	1	0.15	1.0079
6397	HCMM	425	MPD2	H2	1	0.15	1.0079
6398	HCMM	425	MPD2	H3	1	0.15	1.0079
6399	NC=O	425	MPD2	N	1	-0.547	14.0067
6400	HNCO	425	MPD2	H5	1	0.37	1.0079
6401	NC=O	425	MPD2	N1	1	-0.547	14.0067
6402	HNCO	425	MPD2	H7	1	0.37	1.0079
6403	CB	426	TMC3	C1	1	0.0862	12.011
6404	CB	426	TMC3	C2	1	-0.15	12.011
6405	CB	426	TMC3	C3	1	0.0862	12.011
6406	CB	426	TMC3	C4	1	-0.15	12.011
6407	CB	426	TMC3	C5	1	0.0862	12.011
6408	CB	426	TMC3	C6	1	-0.15	12.011
6409	C=O	426	TMC3	C	1	0.5438	12.011
6410	O=C	426	TMC3	O	1	-0.57	15.9994
6411	HCMM	426	TMC3	H	1	0.15	1.0079
6412	HCMM	426	TMC3	H1	1	0.15	1.0079
6413	HCMM	426	TMC3	H2	1	0.15	1.0079
6414	C=O	426	TMC3	C7	1	0.5438	12.011
6415	C=O	426	TMC3	C8	1	0.5438	12.011
6416	O=C	426	TMC3	O1	1	-0.57	15.9994
6417	O=C	426	TMC3	O2	1	-0.57	15.9994
6418	CB	427	MPD2	C	1	-0.15	12.011
6419	CB	427	MPD2	C1	1	0.117	12.011
6420	CB	427	MPD2	C2	1	-0.15	12.011
6421	CB	427	MPD2	C3	1	0.117	12.011
6422	CB	427	MPD2	C4	1	-0.15	12.011
6423	CB	427	MPD2	C5	1	-0.15	12.011
6424	HCMM	427	MPD2	H	1	0.15	1.0079
6425	HCMM	427	MPD2	H1	1	0.15	1.0079
6426	HCMM	427	MPD2	H2	1	0.15	1.0079
6427	HCMM	427	MPD2	H3	1	0.15	1.0079
6428	NC=O	427	MPD2	N	1	-0.547	14.0067
6429	HNCO	427	MPD2	H5	1	0.37	1.0079
6430	NC=O	427	MPD2	N1	1	-0.547	14.0067
6431	HNCO	427	MPD2	H7	1	0.37	1.0079
6432	CB	428	TMC3	C1	1	0.0862	12.011
6433	CB	428	TMC3	C2	1	-0.15	12.011
6434	CB	428	TMC3	C3	1	0.0862	12.011
6435	CB	428	TMC3	C4	1	-0.15	12.011
6436	CB	428	TMC3	C5	1	0.0862	12.011
6437	CB	428	TMC3	C6	1	-0.15	12.011
6438	C=O	428	TMC3	C	1	0.5438	12.011
6439	O=C	428	TMC3	O	1	-0.57	15.9994
6440	HCMM	428	TMC3	H	1	0.15	1.0079
6441	HCMM	428	TMC3	H1	1	0.15	1.0079
6442	HCMM	428	TMC3	H2	1	0.15	1.0079
6443	C=O	428	TMC3	C7	1	0.5438	12.011
6444	C=O	428	TMC3	C8	1	0.5438	12.011
6445	O=C	428	TMC3	O1	1	-0.57	15.9994
6446	O=C	428	TMC3	O2	1	-0.57	15.9994
6447	CB	429	MPD2	C	1	-0.15	12.011
6448	CB	429	MPD2	C1	1	0.117	12.011
6449	CB	429	MPD2	C2	1	-0.15	12.011
6450	CB	429	MPD2	C3	1	0.117	12.011
6451	CB	429	MPD2	C4	1	-0.15	12.011
6452	CB	429	MPD2	C5	1	-0.15	12.011
6453	HCMM	429	MPD2	H	1	0.15	1.0079
6454	HCMM	429	MPD2	H1	1	0.15	1.0079
6455	HCMM	429	MPD2	H2	1	0.15	1.0079
6456	HCMM	429	MPD2	H3	1	0.15	1.0079
6457	NC=O	429	MPD2	N	1	-0.547	14.0067
6458	HNCO	429	MPD2	H5	1	0.37	1.0079
6459	NC=O	429	MPD2	N1	1	-0.547	14.0067
6460	HNCO	429	MPD2	H7	1	0.37	1.0079
6461	CB	430	TMC3	C1	1	0.0862	12.011
6462	CB	430	TMC3	C2	1	-0.15	12.011
6463	CB	430	TMC3	C3	1	0.0862	12.011
6464	CB	430	TMC3	C4	1	-0.15	12.011
6465	CB	430	TMC3	C5	1	0.0862	12.011
6466	CB	430	TMC3	C6	1	-0.15	12.011
6467	C=O	430	TMC3	C	1	0.5438	12.011
6468	O=C	430	TMC3	O	1	-0.57	15.9994
6469	HCMM	430	TMC3	H	1	0.15	1.0079
6470	HCMM	430	TMC3	H1	1	0.15	1.0079
6471	HCMM	430	TMC3	H2	1	0.15	1.0079
6472	C=O	430	TMC3	C7	1	0.5438	12.011
6473	C=O	430	TMC3	C8	1	0.5438	12.011
6474	O=C	430	TMC3	O1	1	-0.57	15.9994
6475	O=C	430	TMC3	O2	1	-0.57	15.9994
6476	CB	431	MPD2	C	1	-0.15	12.011
6477	CB	431	MPD2	C1	1	0.117	12.011
6478	CB	431	MPD2	C2	1	-0.15	12.011
6479	CB	431	MPD2	C3	1	0.117	12.011
6480	CB	431	MPD2	C4	1	-0.15	12.011
6481	CB	431	MPD2	C5	1	-0.15	12.011
6482	HCMM	431	MPD2	H	1	0.15	1.0079
6483	HCMM	431	MPD2	H1	1	0.15	1.0079
6484	HCMM	431	MPD2	H2	1	0.15	1.0079
6485	HCMM	431	MPD2	H3	1	0.15	1.0079
6486	NC=O	431	MPD2	N	1	-0.547	14.0067
6487	HNCO	431	MPD2	H5	1	0.37	1.0079
6488	NC=O	431	MPD2	N1	1	-0.547	14.0067
6489	HNCO	431	MPD2	H7	1	0.37	1.0079
6490	CB	432	TMC3	C1	1	0.0862	12.011
6491	CB	432	TMC3	C2	1	-0.15	12.011
6492	CB	432	TMC3	C3	1	0.0862	12.011
6493	CB	432	TMC3	C4	1	-0.15	12.011
6494	CB	432	TMC3	C5	1	0.0862	12.011
6495	CB	432	TMC3	C6	1	-0.15	12.011
6496	C=O	432	TMC3	C	1	0.5438	12.011
6497	O=C	432	TMC3	O	1	-0.57	15.9994
6498	HCMM	432	TMC3	H	1	0.15	1.0079
6499	HCMM	432	TMC3	H1	1	0.15	1.0079
6500	HCMM	432	TMC3	H2	1	0.15	1.0079
6501	C=O	432	TMC3	C7	1	0.5438	12.011
6502	C=O	432	TMC3	C8	1	0.5438	12.011
6503	O=C	432	TMC3	O1	1	-0.57	15.9994
6504	O=C	432	TMC3	O2	1	-0.57	15.9994
6505	CB	433	MPD2	C	1	-0.15	12.011
6506	CB	433	MPD2	C1	1	0.117	12.011
6507	CB	433	MPD2	C2	1	-0.15	12.011
6508	CB	433	MPD2	C3	1	0.117	12.011
6509	CB	433	MPD2	C4	1	-0.15	12.011
6510	CB	433	MPD2	C5	1	-0.15	12.011
6511	HCMM	433	MPD2	H	1	0.15	1.0079
6512	HCMM	433	MPD2	H1	1	0.15	1.0079
6513	HCMM	433	MPD2	H2	1	0.15	1.0079
6514	HCMM	433	MPD2	H3	1	0.15	1.0079
6515	NC=O	433	MPD2	N	1	-0.547	14.0067
6516	HNCO	433	MPD2	H5	1	0.37	1.0079
6517	NC=O	433	MPD2	N1	1	-0.547	14.0067
6518	HNCO	433	MPD2	H7	1	0.37	1.0079
6519	CB	434	TMC3	C1	1	0.0862	12.011
6520	CB	434	TMC3	C2	1	-0.15	12.011
6521	CB	434	TMC3	C3	1	0.0862	12.011
6522	CB	434	TMC3	C4	1	-0.15	12.011
6523	CB	434	TMC3	C5	1	0.0862	12.011
6524	CB	434	TMC3	C6	1	-0.15	12.011
6525	C=O	434	TMC3	C	1	0.5438	12.011
6526	O=C	434	TMC3	O	1	-0.57	15.9994
6527	HCMM	434	TMC3	H	1	0.15	1.0079
6528	HCMM	434	TMC3	H1	1	0.15	1.0079
6529	HCMM	434	TMC3	H2	1	0.15	1.0079
6530	C=O	434	TMC3	C7	1	0.5438	12.011
6531	C=O	434	TMC3	C8	1	0.5438	12.011
6532	O=C	434	TMC3	O1	1	-0.57	15.9994
6533	O=C	434	TMC3	O2	1	-0.57	15.9994
6534	CB	435	MPD2	C	1	-0.15	12.011
6535	CB	435	MPD2	C1	1	0.117	12.011
6536	CB	435	MPD2	C2	1	-0.15	12.011
6537	CB	435	MPD2	C3	1	0.117	12.011
6538	CB	435	MPD2	C4	1	-0.15	12.011
6539	CB	435	MPD2	C5	1	-0.15	12.011
6540	HCMM	435	MPD2	H	1	0.15	1.0079
6541	HCMM	435	MPD2	H1	1	0.15	1.0079
6542	HCMM	435	MPD2	H2	1	0.15	1.0079
6543	HCMM	435	MPD2	H3	1	0.15	1.0079
6544	NC=O	435	MPD2	N	1	-0.547	14.0067
6545	HNCO	435	MPD2	H5	1	0.37	1.0079
6546	NC=O	435	MPD2	N1	1	-0.547	14.0067
6547	HNCO	435	MPD2	H7	1	0.37	1.0079
6548	CB	436	TMC3	C1	1	0.0862	12.011
6549	CB	436	TMC3	C2	1	-0.15	12.011
6550	CB	436	TMC3	C3	1	0.0862	12.011
6551	CB	436	TMC3	C4	1	-0.15	12.011
6552	CB	436	TMC3	C5	1	0.0862	12.011
6553	CB	436	TMC3	C6	1	-0.15	12.011
6554	C=O	436	TMC3	C	1	0.5438	12.011
6555	O=C	436	TMC3	O	1	-0.57	15.9994
6556	HCMM	436	TMC3	H	1	0.15	1.0079
6557	HCMM	436	TMC3	H1	1	0.15	1.0079
6558	HCMM	436	TMC3	H2	1	0.15	1.0079
6559	C=O	436	TMC3	C7	1	0.5438	12.011
6560	C=O	436	TMC3	C8	1	0.5438	12.011
6561	O=C	436	TMC3	O1	1	-0.57	15.9994
6562	O=C	436	TMC3	O2	1	-0.57	15.9994
6563	CB	437	TMC3	C1	1	0.0862	12.011
6564	CB	437	TMC3	C2	1	-0.15	12.011
6565	CB	437	TMC3	C3	1	0.0862	12.011
6566	CB	437	TMC3	C4	1	-0.15	12.011
6567	CB	437	TMC3	C5	1	0.0862	12.011
6568	CB	437	TMC3	C6	1	-0.15	12.011
6569	C=O	437	TMC3	C	1	0.5438	12.011
6570	O=C	437	TMC3	O	1	-0.57	15.9994
6571	HCMM	437	TMC3	H	1	0.15	1.0079
6572	HCMM	437	TMC3	H1	1	0.15	1.0079
6573	HCMM	437	TMC3	H2	1	0.15	1.0079
6574	C=O	437	TMC3	C7	1	0.5438	12.011
6575	C=O	437	TMC3	C8	1	0.5438	12.011
6576	O=C	437	TMC3	O1	1	-0.57	15.9994
6577	O=C	437	TMC3	O2	1	-0.57	15.9994
6578	CB	438	MPD2	C	1	-0.15	12.011
6579	CB	438	MPD2	C1	1	0.117	12.011
6580	CB	438	MPD2	C2	1	-0.15	12.011
6581	CB	438	MPD2	C3	1	0.117	12.011
6582	CB	438	MPD2	C4	1	-0.15	12.011
6583	CB	438	MPD2	C5	1	-0.15	12.011
6584	HCMM	438	MPD2	H	1	0.15	1.0079
6585	HCMM	438	MPD2	H1	1	0.15	1.0079
6586	HCMM	438	MPD2	H2	1	0.15	1.0079
6587	HCMM	438	MPD2	H3	1	0.15	1.0079
6588	NC=O	438	MPD2	N	1	-0.547	14.0067
6589	HNCO	438	MPD2	H5	1	0.37	1.0079
6590	NC=O	438	MPD2	N1	1	-0.547	14.0067
6591	HNCO	438	MPD2	H7	1	0.37	1.0079
6592	CB	439	TMC3	C1	1	0.0862	12.011
6593	CB	439	TMC3	C2	1	-0.15	12.011
6594	CB	439	TMC3	C3	1	0.0862	12.011
6595	CB	439	TMC3	C4	1	-0.15	12.011
6596	CB	439	TMC3	C5	1	0.0862	12.011
6597	CB	439	TMC3	C6	1	-0.15	12.011
6598	C=O	439	TMC3	C	1	0.5438	12.011
6599	O=C	439	TMC3	O	1	-0.57	15.9994
6600	HCMM	439	TMC3	H	1	0.15	1.0079
6601	HCMM	439	TMC3	H1	1	0.15	1.0079
6602	HCMM	439	TMC3	H2	1	0.15	1.0079
6603	C=O	439	TMC3	C7	1	0.5438	12.011
6604	C=O	439	TMC3	C8	1	0.5438	12.011
6605	O=C	439	TMC3	O1	1	-0.57	15.9994
6606	O=C	439	TMC3	O2	1	-0.57	15.9994
6607	CB	440	MPD2	C	1	-0.15	12.011
6608	CB	440	MPD2	C1	1	0.117	12.011
6609	CB	440	MPD2	C2	1	-0.15	12.011
6610	CB	440	MPD2	C3	1	0.117	12.011
6611	CB	440	MPD2	C4	1	-0.15	12.011
6612	CB	440	MPD2	C5	1	-0.15	12.011
6613	HCMM	440	MPD2	H	1	0.15	1.0079
6614	HCMM	440	MPD2	H1	1	0.15	1.0079
6615	HCMM	440	MPD2	H2	1	0.15	1.0079
6616	HCMM	440	MPD2	H3	1	0.15	1.0079
6617	NC=O	440	MPD2	N	1	-0.547	14.0067
6618	HNCO	440	MPD2	H5	1	0.37	1.0079
6619	NC=O	440	MPD2	N1	1	-0.547	14.0067
6620	HNCO	440	MPD2	H7	1	0.37	1.0079
6621	CB	441	TMC3	C1	1	0.0862	12.011
6622	CB	441	TMC3	C2	1	-0.15	12.011
6623	CB	441	TMC3	C3	1	0.0862	12.011
6624	CB	441	TMC3	C4	1	-0.15	12.011
6625	CB	441	TMC3	C5	1	0.0862	12.011
6626	CB	441	TMC3	C6	1	-0.15	12.011
6627	C=O	441	TMC3	C	1	0.5438	12.011
6628	O=C	441	TMC3	O	1	-0.57	15.9994
6629	HCMM	441	TMC3	H	1	0.15	1.0079
6630	HCMM	441	TMC3	H1	1	0.15	1.0079
6631	HCMM	441	TMC3	H2	1	0.15	1.0079
6632	C=O	441	TMC3	C7	1	0.5438	12.011
6633	C=O	441	TMC3	C8	1	0.5438	12.011
6634	O=C	441	TMC3	O1	1	-0.57	15.9994
6635	O=C	441	TMC3	O2	1	-0.57	15.9994
6636	CB	442	MPD2	C	1	-0.15	12.011
6637	CB	442	MPD2	C1	1	0.117	12.011
6638	CB	442	MPD2	C2	1	-0.15	12.011
6639	CB	442	MPD2	C3	1	0.117	12.011
6640	CB	442	MPD2	C4	1	-0.15	12.011
6641	CB	442	MPD2	C5	1	-0.15	12.011
6642	HCMM	442	MPD2	H	1	0.15	1.0079
6643	HCMM	442	MPD2	H1	1	0.15	1.0079
6644	HCMM	442	MPD2	H2	1	0.15	1.0079
6645	HCMM	442	MPD2	H3	1	0.15	1.0079
6646	NC=O	442	MPD2	N	1	-0.547	14.0067
6647	HNCO	442	MPD2	H5	1	0.37	1.0079
6648	NC=O	442	MPD2	N1	1	-0.547	14.0067
6649	HNCO	442	MPD2	H7	1	0.37	1.0079
6650	CB	443	TMC3	C1	1	0.0862	12.011
6651	CB	443	TMC3	C2	1	-0.15	12.011
6652	CB	443	TMC3	C3	1	0.0862	12.011
6653	CB	443	TMC3	C4	1	-0.15	12.011
6654	CB	443	TMC3	C5	1	0.0862	12.011
6655	CB	443	TMC3	C6	1	-0.15	12.011
6656	C=O	443	TMC3	C	1	0.5438	12.011
6657	O=C	443	TMC3	O	1	-0.57	15.9994
6658	HCMM	443	TMC3	H	1	0.15	1.0079
6659	HCMM	443	TMC3	H1	1	0.15	1.0079
6660	HCMM	443	TMC3	H2	1	0.15	1.0079
6661	C=O	443	TMC3	C7	1	0.5438	12.011
6662	C=O	443	TMC3	C8	1	0.5438	12.011
6663	O=C	443	TMC3	O1	1	-0.57	15.9994
6664	O=C	443	TMC3	O2	1	-0.57	15.9994
6665	CB	444	MPD2	C	1	-0.15	12.011
6666	CB	444	MPD2	C1	1	0.117	12.011
6667	CB	444	MPD2	C2	1	-0.15	12.011
6668	CB	444	MPD2	C3	1	0.117	12.011
6669	CB	444	MPD2	C4	1	-0.15	12.011
6670	CB	444	MPD2	C5	1	-0.15	12.011
6671	HCMM	444	MPD2	H	1	0.15	1.0079
6672	HCMM	444	MPD2	H1	1	0.15	1.0079
6673	HCMM	444	MPD2	H2	1	0.15	1.0079
6674	HCMM	444	MPD2	H3	1	0.15	1.0079
6675	NC=O	444	MPD2	N	1	-0.547	14.0067
6676	HNCO	444	MPD2	H5	1	0.37	1.0079
6677	NC=O	444	MPD2	N1	1	-0.547	14.0067
6678	HNCO	444	MPD2	H7	1	0.37	1.0079
6679	CB	445	TMC3	C1	1	0.0862	12.011
6680	CB	445	TMC3	C2	1	-0.15	12.011
6681	CB	445	TMC3	C3	1	0.0862	12.011
6682	CB	445	TMC3	C4	1	-0.15	12.011
6683	CB	445	TMC3	C5	1	0.0862	12.011
6684	CB	445	TMC3	C6	1	-0.15	12.011
6685	C=O	445	TMC3	C	1	0.5438	12.011
6686	O=C	445	TMC3	O	1	-0.57	15.9994
6687	HCMM	445	TMC3	H	1	0.15	1.0079
6688	HCMM	445	TMC3	H1	1	0.15	1.0079
6689	HCMM	445	TMC3	H2	1	0.15	1.0079
6690	C=O	445	TMC3	C7	1	0.5438	12.011
6691	C=O	445	TMC3	C8	1	0.5438	12.011
6692	O=C	445	TMC3	O1	1	-0.57	15.9994
6693	O=C	445	TMC3	O2	1	-0.57	15.9994
6694	CB	446	MPD2	C	1	-0.15	12.011
6695	CB	446	MPD2	C1	1	0.117	12.011
6696	CB	446	MPD2	C2	1	-0.15	12.011
6697	CB	446	MPD2	C3	1	0.117	12.011
6698	CB	446	MPD2	C4	1	-0.15	12.011
6699	CB	446	MPD2	C5	1	-0.15	12.011
6700	HCMM	446	MPD2	H	1	0.15	1.0079
6701	HCMM	446	MPD2	H1	1	0.15	1.0079
6702	HCMM	446	MPD2	H2	1	0.15	1.0079
6703	HCMM	446	MPD2	H3	1	0.15	1.0079
6704	NC=O	446	MPD2	N	1	-0.547	14.0067
6705	HNCO	446	MPD2	H5	1	0.37	1.0079
6706	NC=O	446	MPD2	N1	1	-0.547	14.0067
6707	HNCO	446	MPD2	H7	1	0.37	1.0079
6708	CB	447	TMC3	C1	1	0.0862	12.011
6709	CB	447	TMC3	C2	1	-0.15	12.011
6710	CB	447	TMC3	C3	1	0.0862	12.011
6711	CB	447	TMC3	C4	1	-0.15	12.011
6712	CB	447	TMC3	C5	1	0.0862	12.011
6713	CB	447	TMC3	C6	1	-0.15	12.011
6714	C=O	447	TMC3	C	1	0.5438	12.011
6715	O=C	447	TMC3	O	1	-0.57	15.9994
6716	HCMM	447	TMC3	H	1	0.15	1.0079
6717	HCMM	447	TMC3	H1	1	0.15	1.0079
6718	HCMM	447	TMC3	H2	1	0.15	1.0079
6719	C=O	447	TMC3	C7	1	0.5438	12.011
6720	C=O	447	TMC3	C8	1	0.5438	12.011
6721	O=C	447	TMC3	O1	1	-0.57	15.9994
6722	O=C	447	TMC3	O2	1	-0.57	15.9994
6723	CB	448	TMC3	C1	1	0.0862	12.011
6724	CB	448	TMC3	C2	1	-0.15	12.011
6725	CB	448	TMC3	C3	1	0.0862	12.011
6726	CB	448	TMC3	C4	1	-0.15	12.011
6727	CB	448	TMC3	C5	1	0.0862	12.011
6728	CB	448	TMC3	C6	1	-0.15	12.011
6729	C=O	448	TMC3	C	1	0.5438	12.011
6730	O=C	448	TMC3	O	1	-0.57	15.9994
6731	HCMM	448	TMC3	H	1	0.15	1.0079
6732	HCMM	448	TMC3	H1	1	0.15	1.0079
6733	HCMM	448	TMC3	H2	1	0.15	1.0079
6734	C=O	448	TMC3	C7	1	0.5438	12.011
6735	C=O	448	TMC3	C8	1	0.5438	12.011
6736	O=C	448	TMC3	O1	1	-0.57	15.9994
6737	O=C	448	TMC3	O2	1	-0.57	15.9994
6738	CB	449	MPD2	C	1	-0.15	12.011
6739	CB	449	MPD2	C1	1	0.117	12.011
6740	CB	449	MPD2	C2	1	-0.15	12.011
6741	CB	449	MPD2	C3	1	0.117	12.011
6742	CB	449	MPD2	C4	1	-0.15	12.011
6743	CB	449	MPD2	C5	1	-0.15	12.011
6744	HCMM	449	MPD2	H	1	0.15	1.0079
6745	HCMM	449	MPD2	H1	1	0.15	1.0079
6746	HCMM	449	MPD2	H2	1	0.15	1.0079
6747	HCMM	449	MPD2	H3	1	0.15	1.0079
6748	NC=O	449	MPD2	N	1	-0.547	14.0067
6749	HNCO	449	MPD2	H5	1	0.37	1.0079
6750	NC=O	449	MPD2	N1	1	-0.547	14.0067
6751	HNCO	449	MPD2	H7	1	0.37	1.0079
6752	CB	450	TMC3	C1	1	0.0862	12.011
6753	CB	450	TMC3	C2	1	-0.15	12.011
6754	CB	450	TMC3	C3	1	0.0862	12.011
6755	CB	450	TMC3	C4	1	-0.15	12.011
6756	CB	450	TMC3	C5	1	0.0862	12.011
6757	CB	450	TMC3	C6	1	-0.15	12.011
6758	C=O	450	TMC3	C	1	0.5438	12.011
6759	O=C	450	TMC3	O	1	-0.57	15.9994
6760	HCMM	450	TMC3	H	1	0.15	1.0079
6761	HCMM	450	TMC3	H1	1	0.15	1.0079
6762	HCMM	450	TMC3	H2	1	0.15	1.0079
6763	C=O	450	TMC3	C7	1	0.5438	12.011
6764	C=O	450	TMC3	C8	1	0.5438	12.011
6765	O=C	450	TMC3	O1	1	-0.57	15.9994
6766	O=C	450	TMC3	O2	1	-0.57	15.9994
6767	CB	451	MPD2	C	1	-0.15	12.011
6768	CB	451	MPD2	C1	1	0.117	12.011
6769	CB	451	MPD2	C2	1	-0.15	12.011
6770	CB	451	MPD2	C3	1	0.117	12.011
6771	CB	451	MPD2	C4	1	-0.15	12.011
6772	CB	451	MPD2	C5	1	-0.15	12.011
6773	HCMM	451	MPD2	H	1	0.15	1.0079
6774	HCMM	451	MPD2	H1	1	0.15	1.0079
6775	HCMM	451	MPD2	H2	1	0.15	1.0079
6776	HCMM	451	MPD2	H3	1	0.15	1.0079
6777	NC=O	451	MPD2	N	1	-0.547	14.0067
6778	HNCO	451	MPD2	H5	1	0.37	1.0079
6779	NC=O	451	MPD2	N1	1	-0.547	14.0067
6780	HNCO	451	MPD2	H7	1	0.37	1.0079
6781	CB	452	TMC3	C1	1	0.0862	12.011
6782	CB	452	TMC3	C2	1	-0.15	12.011
6783	CB	452	TMC3	C3	1	0.0862	12.011
6784	CB	452	TMC3	C4	1	-0.15	12.011
6785	CB	452	TMC3	C5	1	0.0862	12.011
6786	CB	452	TMC3	C6	1	-0.15	12.011
6787	C=O	452	TMC3	C	1	0.5438	12.011
6788	O=C	452	TMC3	O	1	-0.57	15.9994
6789	HCMM	452	TMC3	H	1	0.15	1.0079
6790	HCMM	452	TMC3	H1	1	0.15	1.0079
6791	HCMM	452	TMC3	H2	1	0.15	1.0079
6792	C=O	452	TMC3	C7	1	0.5438	12.011
6793	C=O	452	TMC3	C8	1	0.5438	12.011
6794	O=C	452	TMC3	O1	1	-0.57	15.9994
6795	O=C	452	TMC3	O2	1	-0.57	15.9994
6796	CB	453	TMC3	C1	1	0.0862	12.011
6797	CB	453	TMC3	C2	1	-0.15	12.011
6798	CB	453	TMC3	C3	1	0.0862	12.011
6799	CB	453	TMC3	C4	1	-0.15	12.011
6800	CB	453	TMC3	C5	1	0.0862	12.011
6801	CB	453	TMC3	C6	1	-0.15	12.011
6802	C=O	453	TMC3	C	1	0.5438	12.011
6803	O=C	453	TMC3	O	1	-0.57	15.9994
6804	HCMM	453	TMC3	H	1	0.15	1.0079
6805	HCMM	453	TMC3	H1	1	0.15	1.0079
6806	HCMM	453	TMC3	H2	1	0.15	1.0079
6807	C=O	453	TMC3	C7	1	0.5438	12.011
6808	C=O	453	TMC3	C8	1	0.5438	12.011
6809	O=C	453	TMC3	O1	1	-0.57	15.9994
6810	O=C	453	TMC3	O2	1	-0.57	15.9994
6811	CB	454	MPD2	C	1	-0.15	12.011
6812	CB	454	MPD2	C1	1	0.117	12.011
6813	CB	454	MPD2	C2	1	-0.15	12.011
6814	CB	454	MPD2	C3	1	0.117	12.011
6815	CB	454	MPD2	C4	1	-0.15	12.011
6816	CB	454	MPD2	C5	1	-0.15	12.011
6817	HCMM	454	MPD2	H	1	0.15	1.0079
6818	HCMM	454	MPD2	H1	1	0.15	1.0079
6819	HCMM	454	MPD2	H2	1	0.15	1.0079
6820	HCMM	454	MPD2	H3	1	0.15	1.0079
6821	NC=O	454	MPD2	N	1	-0.547	14.0067
6822	HNCO	454	MPD2	H5	1	0.37	1.0079
6823	NC=O	454	MPD2	N1	1	-0.547	14.0067
6824	HNCO	454	MPD2	H7	1	0.37	1.0079
6825	CB	455	TMC3	C1	1	0.0862	12.011
6826	CB	455	TMC3	C2	1	-0.15	12.011
6827	CB	455	TMC3	C3	1	0.0862	12.011
6828	CB	455	TMC3	C4	1	-0.15	12.011
6829	CB	455	TMC3	C5	1	0.0862	12.011
6830	CB	455	TMC3	C6	1	-0.15	12.011
6831	C=O	455	TMC3	C	1	0.5438	12.011
6832	O=C	455	TMC3	O	1	-0.57	15.9994
6833	HCMM	455	TMC3	H	1	0.15	1.0079
6834	HCMM	455	TMC3	H1	1	0.15	1.0079
6835	HCMM	455	TMC3	H2	1	0.15	1.0079
6836	C=O	455	TMC3	C7	1	0.5438	12.011
6837	C=O	455	TMC3	C8	1	0.5438	12.011
6838	O=C	455	TMC3	O1	1	-0.57	15.9994
6839	O=C	455	TMC3	O2	1	-0.57	15.9994
6840	CB	456	MPD2	C	1	-0.15	12.011
6841	CB	456	MPD2	C1	1	0.117	12.011
6842	CB	456	MPD2	C2	1	-0.15	12.011
6843	CB	456	MPD2	C3	1	0.117	12.011
6844	CB	456	MPD2	C4	1	-0.15	12.011
6845	CB	456	MPD2	C5	1	-0.15	12.011
6846	HCMM	456	MPD2	H	1	0.15	1.0079
6847	HCMM	456	MPD2	H1	1	0.15	1.0079
6848	HCMM	456	MPD2	H2	1	0.15	1.0079
6849	HCMM	456	MPD2	H3	1	0.15	1.0079
6850	NC=O	456	MPD2	N	1	-0.547	14.0067
6851	HNCO	456	MPD2	H5	1	0.37	1.0079
6852	NC=O	456	MPD2	N1	1	-0.547	14.0067
6853	HNCO	456	MPD2	H7	1	0.37	1.0079
6854	CB	457	TMC3	C1	1	0.0862	12.011
6855	CB	457	TMC3	C2	1	-0.15	12.011
6856	CB	457	TMC3	C3	1	0.0862	12.011
6857	CB	457	TMC3	C4	1	-0.15	12.011
6858	CB	457	TMC3	C5	1	0.0862	12.011
6859	CB	457	TMC3	C6	1	-0.15	12.011
6860	C=O	457	TMC3	C	1	0.5438	12.011
6861	O=C	457	TMC3	O	1	-0.57	15.9994
6862	HCMM	457	TMC3	H	1	0.15	1.0079
6863	HCMM	457	TMC3	H1	1	0.15	1.0079
6864	HCMM	457	TMC3	H2	1	0.15	1.0079
6865	C=O	457	TMC3	C7	1	0.5438	12.011
6866	C=O	457	TMC3	C8	1	0.5438	12.011
6867	O=C	457	TMC3	O1	1	-0.57	15.9994
6868	O=C	457	TMC3	O2	1	-0.57	15.9994
6869	CB	458	MPD2	C	1	-0.15	12.011
6870	CB	458	MPD2	C1	1	0.117	12.011
6871	CB	458	MPD2	C2	1	-0.15	12.011
6872	CB	458	MPD2	C3	1	0.117	12.011
6873	CB	458	MPD2	C4	1	-0.15	12.011
6874	CB	458	MPD2	C5	1	-0.15	12.011
6875	HCMM	458	MPD2	H	1	0.15	1.0079
6876	HCMM	458	MPD2	H1	1	0.15	1.0079
6877	HCMM	458	MPD2	H2	1	0.15	1.0079
6878	HCMM	458	MPD2	H3	1	0.15	1.0079
6879	NC=O	458	MPD2	N	1	-0.547	14.0067
6880	HNCO	458	MPD2	H5	1	0.37	1.0079
6881	NC=O	458	MPD2	N1	1	-0.547	14.0067
6882	HNCO	458	MPD2	H7	1	0.37	1.0079
6883	CB	459	TMC3	C1	1	0.0862	12.011
6884	CB	459	TMC3	C2	1	-0.15	12.011
6885	CB	459	TMC3	C3	1	0.0862	12.011
6886	CB	459	TMC3	C4	1	-0.15	12.011
6887	CB	459	TMC3	C5	1	0.0862	12.011
6888	CB	459	TMC3	C6	1	-0.15	12.011
6889	C=O	459	TMC3	C	1	0.5438	12.011
6890	O=C	459	TMC3	O	1	-0.57	15.9994
6891	HCMM	459	TMC3	H	1	0.15	1.0079
6892	HCMM	459	TMC3	H1	1	0.15	1.0079
6893	HCMM	459	TMC3	H2	1	0.15	1.0079
6894	C=O	459	TMC3	C7	1	0.5438	12.011
6895	C=O	459	TMC3	C8	1	0.5438	12.011
6896	O=C	459	TMC3	O1	1	-0.57	15.9994
6897	O=C	459	TMC3	O2	1	-0.57	15.9994
6898	CB	460	MPD2	C	1	-0.15	12.011
6899	CB	460	MPD2	C1	1	0.117	12.011
6900	CB	460	MPD2	C2	1	-0.15	12.011
6901	CB	460	MPD2	C3	1	0.117	12.011
6902	CB	460	MPD2	C4	1	-0.15	12.011
6903	CB	460	MPD2	C5	1	-0.15	12.011
6904	HCMM	460	MPD2	H	1	0.15	1.0079
6905	HCMM	460	MPD2	H1	1	0.15	1.0079
6906	HCMM	460	MPD2	H2	1	0.15	1.0079
6907	HCMM	460	MPD2	H3	1	0.15	1.0079
6908	NC=O	460	MPD2	N	1	-0.547	14.0067
6909	HNCO	460	MPD2	H5	1	0.37	1.0079
6910	NC=O	460	MPD2	N1	1	-0.547	14.0067
6911	HNCO	460	MPD2	H7	1	0.37	1.0079
6912	CB	461	TMC3	C1	1	0.0862	12.011
6913	CB	461	TMC3	C2	1	-0.15	12.011
6914	CB	461	TMC3	C3	1	0.0862	12.011
6915	CB	461	TMC3	C4	1	-0.15	12.011
6916	CB	461	TMC3	C5	1	0.0862	12.011
6917	CB	461	TMC3	C6	1	-0.15	12.011
6918	C=O	461	TMC3	C	1	0.5438	12.011
6919	O=C	461	TMC3	O	1	-0.57	15.9994
6920	HCMM	461	TMC3	H	1	0.15	1.0079
6921	HCMM	461	TMC3	H1	1	0.15	1.0079
6922	HCMM	461	TMC3	H2	1	0.15	1.0079
6923	C=O	461	TMC3	C7	1	0.5438	12.011
6924	C=O	461	TMC3	C8	1	0.5438	12.011
6925	O=C	461	TMC3	O1	1	-0.57	15.9994
6926	O=C	461	TMC3	O2	1	-0.57	15.9994
6927	CB	462	TMC3	C1	1	0.0862	12.011
6928	CB	462	TMC3	C2	1	-0.15	12.011
6929	CB	462	TMC3	C3	1	0.0862	12.011
6930	CB	462	TMC3	C4	1	-0.15	12.011
6931	CB	462	TMC3	C5	1	0.0862	12.011
6932	CB	462	TMC3	C6	1	-0.15	12.011
6933	C=O	462	TMC3	C	1	0.5438	12.011
6934	O=C	462	TMC3	O	1	-0.57	15.9994
6935	HCMM	462	TMC3	H	1	0.15	1.0079
6936	HCMM	462	TMC3	H1	1	0.15	1.0079
6937	HCMM	462	TMC3	H2	1	0.15	1.0079
6938	C=O	462	TMC3	C7	1	0.5438	12.011
6939	C=O	462	TMC3	C8	1	0.5438	12.011
6940	O=C	462	TMC3	O1	1	-0.57	15.9994
6941	O=C	462	TMC3	O2	1	-0.57	15.9994
6942	CB	463	MPD2	C	1	-0.15	12.011
6943	CB	463	MPD2	C1	1	0.117	12.011
6944	CB	463	MPD2	C2	1	-0.15	12.011
6945	CB	463	MPD2	C3	1	0.117	12.011
6946	CB	463	MPD2	C4	1	-0.15	12.011
6947	CB	463	MPD2	C5	1	-0.15	12.011
6948	HCMM	463	MPD2	H	1	0.15	1.0079
6949	HCMM	463	MPD2	H1	1	0.15	1.0079
6950	HCMM	463	MPD2	H2	1	0.15	1.0079
6951	HCMM	463	MPD2	H3	1	0.15	1.0079
6952	NC=O	463	MPD2	N	1	-0.547	14.0067
6953	HNCO	463	MPD2	H5	1	0.37	1.0079
6954	NC=O	463	MPD2	N1	1	-0.547	14.0067
6955	HNCO	463	MPD2	H7	1	0.37	1.0079
6956	CB	464	TMC3	C1	1	0.0862	12.011
6957	CB	464	TMC3	C2	1	-0.15	12.011
6958	CB	464	TMC3	C3	1	0.0862	12.011
6959	CB	464	TMC3	C4	1	-0.15	12.011
6960	CB	464	TMC3	C5	1	0.0862	12.011
6961	CB	464	TMC3	C6	1	-0.15	12.011
6962	C=O	464	TMC3	C	1	0.5438	12.011
6963	O=C	464	TMC3	O	1	-0.57	15.9994
6964	HCMM	464	TMC3	H	1	0.15	1.0079
6965	HCMM	464	TMC3	H1	1	0.15	1.0079
6966	HCMM	464	TMC3	H2	1	0.15	1.0079
6967	C=O	464	TMC3	C7	1	0.5438	12.011
6968	C=O	464	TMC3	C8	1	0.5438	12.011
6969	O=C	464	TMC3	O1	1	-0.57	15.9994
6970	O=C	464	TMC3	O2	1	-0.57	15.9994
6971	CB	465	MPD2	C	1	-0.15	12.011
6972	CB	465	MPD2	C1	1	0.117	12.011
6973	CB	465	MPD2	C2	1	-0.15	12.011
6974	CB	465	MPD2	C3	1	0.117	12.011
6975	CB	465	MPD2	C4	1	-0.15	12.011
6976	CB	465	MPD2	C5	1	-0.15	12.011
6977	HCMM	465	MPD2	H	1	0.15	1.0079
6978	HCMM	465	MPD2	H1	1	0.15	1.0079
6979	HCMM	465	MPD2	H2	1	0.15	1.0079
6980	HCMM	465	MPD2	H3	1	0.15	1.0079
6981	NC=O	465	MPD2	N	1	-0.547	14.0067
6982	HNCO	465	MPD2	H5	1	0.37	1.0079
6983	NC=O	465	MPD2	N1	1	-0.547	14.0067
6984	HNCO	465	MPD2	H7	1	0.37	1.0079
6985	CB	466	TMC3	C1	1	0.0862	12.011
6986	CB	466	TMC3	C2	1	-0.15	12.011
6987	CB	466	TMC3	C3	1	0.0862	12.011
6988	CB	466	TMC3	C4	1	-0.15	12.011
6989	CB	466	TMC3	C5	1	0.0862	12.011
6990	CB	466	TMC3	C6	1	-0.15	12.011
6991	C=O	466	TMC3	C	1	0.5438	12.011
6992	O=C	466	TMC3	O	1	-0.57	15.9994
6993	HCMM	466	TMC3	H	1	0.15	1.0079
6994	HCMM	466	TMC3	H1	1	0.15	1.0079
6995	HCMM	466	TMC3	H2	1	0.15	1.0079
6996	C=O	466	TMC3	C7	1	0.5438	12.011
6997	C=O	466	TMC3	C8	1	0.5438	12.011
6998	O=C	466	TMC3	O1	1	-0.57	15.9994
6999	O=C	466	TMC3	O2	1	-0.57	15.9994
7000	CB	467	TMC3	C1	1	0.0862	12.011
7001	CB	467	TMC3	C2	1	-0.15	12.011
7002	CB	467	TMC3	C3	1	0.0862	12.011
7003	CB	467	TMC3	C4	1	-0.15	12.011
7004	CB	467	TMC3	C5	1	0.0862	12.011
7005	CB	467	TMC3	C6	1	-0.15	12.011
7006	C=O	467	TMC3	C	1	0.5438	12.011
7007	O=C	467	TMC3	O	1	-0.57	15.9994
7008	HCMM	467	TMC3	H	1	0.15	1.0079
7009	HCMM	467	TMC3	H1	1	0.15	1.0079
7010	HCMM	467	TMC3	H2	1	0.15	1.0079
7011	C=O	467	TMC3	C7	1	0.5438	12.011
7012	C=O	467	TMC3	C8	1	0.5438	12.011
7013	O=C	467	TMC3	O1	1	-0.57	15.9994
7014	O=C	467	TMC3	O2	1	-0.57	15.9994
7015	CB	468	MPD2	C	1	-0.15	12.011
7016	CB	468	MPD2	C1	1	0.117	12.011
7017	CB	468	MPD2	C2	1	-0.15	12.011
7018	CB	468	MPD2	C3	1	0.117	12.011
7019	CB	468	MPD2	C4	1	-0.15	12.011
7020	CB	468	MPD2	C5	1	-0.15	12.011
7021	HCMM	468	MPD2	H	1	0.15	1.0079
7022	HCMM	468	MPD2	H1	1	0.15	1.0079
7023	HCMM	468	MPD2	H2	1	0.15	1.0079
7024	HCMM	468	MPD2	H3	1	0.15	1.0079
7025	NC=O	468	MPD2	N	1	-0.547	14.0067
7026	HNCO	468	MPD2	H5	1	0.37	1.0079
7027	NC=O	468	MPD2	N1	1	-0.547	14.0067
7028	HNCO	468	MPD2	H7	1	0.37	1.0079
7029	CB	469	TMC3	C1	1	0.0862	12.011
7030	CB	469	TMC3	C2	1	-0.15	12.011
7031	CB	469	TMC3	C3	1	0.0862	12.011
7032	CB	469	TMC3	C4	1	-0.15	12.011
7033	CB	469	TMC3	C5	1	0.0862	12.011
7034	CB	469	TMC3	C6	1	-0.15	12.011
7035	C=O	469	TMC3	C	1	0.5438	12.011
7036	O=C	469	TMC3	O	1	-0.57	15.9994
7037	HCMM	469	TMC3	H	1	0.15	1.0079
7038	HCMM	469	TMC3	H1	1	0.15	1.0079
7039	HCMM	469	TMC3	H2	1	0.15	1.0079
7040	C=O	469	TMC3	C7	1	0.5438	12.011
7041	C=O	469	TMC3	C8	1	0.5438	12.011
7042	O=C	469	TMC3	O1	1	-0.57	15.9994
7043	O=C	469	TMC3	O2	1	-0.57	15.9994
7044	CB	470	TMC3	C1	1	0.0862	12.011
7045	CB	470	TMC3	C2	1	-0.15	12.011
7046	CB	470	TMC3	C3	1	0.0862	12.011
7047	CB	470	TMC3	C4	1	-0.15	12.011
7048	CB	470	TMC3	C5	1	0.0862	12.011
7049	CB	470	TMC3	C6	1	-0.15	12.011
7050	C=O	470	TMC3	C	1	0.5438	12.011
7051	O=C	470	TMC3	O	1	-0.57	15.9994
7052	HCMM	470	TMC3	H	1	0.15	1.0079
7053	HCMM	470	TMC3	H1	1	0.15	1.0079
7054	HCMM	470	TMC3	H2	1	0.15	1.0079
7055	C=O	470	TMC3	C7	1	0.5438	12.011
7056	C=O	470	TMC3	C8	1	0.5438	12.011
7057	O=C	470	TMC3	O1	1	-0.57	15.9994
7058	O=C	470	TMC3	O2	1	-0.57	15.9994
7059	CB	471	MPD2	C	1	-0.15	12.011
7060	CB	471	MPD2	C1	1	0.117	12.011
7061	CB	471	MPD2	C2	1	-0.15	12.011
7062	CB	471	MPD2	C3	1	0.117	12.011
7063	CB	471	MPD2	C4	1	-0.15	12.011
7064	CB	471	MPD2	C5	1	-0.15	12.011
7065	HCMM	471	MPD2	H	1	0.15	1.0079
7066	HCMM	471	MPD2	H1	1	0.15	1.0079
7067	HCMM	471	MPD2	H2	1	0.15	1.0079
7068	HCMM	471	MPD2	H3	1	0.15	1.0079
7069	NC=O	471	MPD2	N	1	-0.547	14.0067
7070	HNCO	471	MPD2	H5	1	0.37	1.0079
7071	NC=O	471	MPD2	N1	1	-0.547	14.0067
7072	HNCO	471	MPD2	H7	1	0.37	1.0079
7073	CB	472	TMC3	C1	1	0.0862	12.011
7074	CB	472	TMC3	C2	1	-0.15	12.011
7075	CB	472	TMC3	C3	1	0.0862	12.011
7076	CB	472	TMC3	C4	1	-0.15	12.011
7077	CB	472	TMC3	C5	1	0.0862	12.011
7078	CB	472	TMC3	C6	1	-0.15	12.011
7079	C=O	472	TMC3	C	1	0.5438	12.011
7080	O=C	472	TMC3	O	1	-0.57	15.9994
7081	HCMM	472	TMC3	H	1	0.15	1.0079
7082	HCMM	472	TMC3	H1	1	0.15	1.0079
7083	HCMM	472	TMC3	H2	1	0.15	1.0079
7084	C=O	472	TMC3	C7	1	0.5438	12.011
7085	C=O	472	TMC3	C8	1	0.5438	12.011
7086	O=C	472	TMC3	O1	1	-0.57	15.9994
7087	O=C	472	TMC3	O2	1	-0.57	15.9994
7088	CB	473	MPD2	C	1	-0.15	12.011
7089	CB	473	MPD2	C1	1	0.117	12.011
7090	CB	473	MPD2	C2	1	-0.15	12.011
7091	CB	473	MPD2	C3	1	0.117	12.011
7092	CB	473	MPD2	C4	1	-0.15	12.011
7093	CB	473	MPD2	C5	1	-0.15	12.011
7094	HCMM	473	MPD2	H	1	0.15	1.0079
7095	HCMM	473	MPD2	H1	1	0.15	1.0079
7096	HCMM	473	MPD2	H2	1	0.15	1.0079
7097	HCMM	473	MPD2	H3	1	0.15	1.0079
7098	NC=O	473	MPD2	N	1	-0.547	14.0067
7099	HNCO	473	MPD2	H5	1	0.37	1.0079
7100	NC=O	473	MPD2	N1	1	-0.547	14.0067
7101	HNCO	473	MPD2	H7	1	0.37	1.0079
7102	CB	474	TMC3	C1	1	0.0862	12.011
7103	CB	474	TMC3	C2	1	-0.15	12.011
7104	CB	474	TMC3	C3	1	0.0862	12.011
7105	CB	474	TMC3	C4	1	-0.15	12.011
7106	CB	474	TMC3	C5	1	0.0862	12.011
7107	CB	474	TMC3	C6	1	-0.15	12.011
7108	C=O	474	TMC3	C	1	0.5438	12.011
7109	O=C	474	TMC3	O	1	-0.57	15.9994
7110	HCMM	474	TMC3	H	1	0.15	1.0079
7111	HCMM	474	TMC3	H1	1	0.15	1.0079
7112	HCMM	474	TMC3	H2	1	0.15	1.0079
7113	C=O	474	TMC3	C7	1	0.5438	12.011
7114	C=O	474	TMC3	C8	1	0.5438	12.011
7115	O=C	474	TMC3	O1	1	-0.57	15.9994
7116	O=C	474	TMC3	O2	1	-0.57	15.9994
7117	CB	475	MPD2	C	1	-0.15	12.011
7118	CB	475	MPD2	C1	1	0.117	12.011
7119	CB	475	MPD2	C2	1	-0.15	12.011
7120	CB	475	MPD2	C3	1	0.117	12.011
7121	CB	475	MPD2	C4	1	-0.15	12.011
7122	CB	475	MPD2	C5	1	-0.15	12.011
7123	HCMM	475	MPD2	H	1	0.15	1.0079
7124	HCMM	475	MPD2	H1	1	0.15	1.0079
7125	HCMM	475	MPD2	H2	1	0.15	1.0079
7126	HCMM	475	MPD2	H3	1	0.15	1.0079
7127	NC=O	475	MPD2	N	1	-0.547	14.0067
7128	HNCO	475	MPD2	H5	1	0.37	1.0079
7129	NC=O	475	MPD2	N1	1	-0.547	14.0067
7130	HNCO	475	MPD2	H7	1	0.37	1.0079
7131	CB	476	TMC3	C1	1	0.0862	12.011
7132	CB	476	TMC3	C2	1	-0.15	12.011
7133	CB	476	TMC3	C3	1	0.0862	12.011
7134	CB	476	TMC3	C4	1	-0.15	12.011
7135	CB	476	TMC3	C5	1	0.0862	12.011
7136	CB	476	TMC3	C6	1	-0.15	12.011
7137	C=O	476	TMC3	C	1	0.5438	12.011
7138	O=C	476	TMC3	O	1	-0.57	15.9994
7139	HCMM	476	TMC3	H	1	0.15	1.0079
7140	HCMM	476	TMC3	H1	1	0.15	1.0079
7141	HCMM	476	TMC3	H2	1	0.15	1.0079
7142	C=O	476	TMC3	C7	1	0.5438	12.011
7143	C=O	476	TMC3	C8	1	0.5438	12.011
7144	O=C	476	TMC3	O1	1	-0.57	15.9994
7145	O=C	476	TMC3	O2	1	-0.57	15.9994
7146	CB	477	MPD2	C	1	-0.15	12.011
7147	CB	477	MPD2	C1	1	0.117	12.011
7148	CB	477	MPD2	C2	1	-0.15	12.011
7149	CB	477	MPD2	C3	1	0.117	12.011
7150	CB	477	MPD2	C4	1	-0.15	12.011
7151	CB	477	MPD2	C5	1	-0.15	12.011
7152	HCMM	477	MPD2	H	1	0.15	1.0079
7153	HCMM	477	MPD2	H1	1	0.15	1.0079
7154	HCMM	477	MPD2	H2	1	0.15	1.0079
7155	HCMM	477	MPD2	H3	1	0.15	1.0079
7156	NC=O	477	MPD2	N	1	-0.547	14.0067
7157	HNCO	477	MPD2	H5	1	0.37	1.0079
7158	NC=O	477	MPD2	N1	1	-0.547	14.0067
7159	HNCO	477	MPD2	H7	1	0.37	1.0079
7160	CB	478	TMC3	C1	1	0.0862	12.011
7161	CB	478	TMC3	C2	1	-0.15	12.011
7162	CB	478	TMC3	C3	1	0.0862	12.011
7163	CB	478	TMC3	C4	1	-0.15	12.011
7164	CB	478	TMC3	C5	1	0.0862	12.011
7165	CB	478	TMC3	C6	1	-0.15	12.011
7166	C=O	478	TMC3	C	1	0.5438	12.011
7167	O=C	478	TMC3	O	1	-0.57	15.9994
7168	HCMM	478	TMC3	H	1	0.15	1.0079
7169	HCMM	478	TMC3	H1	1	0.15	1.0079
7170	HCMM	478	TMC3	H2	1	0.15	1.0079
7171	C=O	478	TMC3	C7	1	0.5438	12.011
7172	C=O	478	TMC3	C8	1	0.5438	12.011
7173	O=C	478	TMC3	O1	1	-0.57	15.9994
7174	O=C	478	TMC3	O2	1	-0.57	15.9994
7175	CB	479	MPD2	C	1	-0.15	12.011
7176	CB	479	MPD2	C1	1	0.117	12.011
7177	CB	479	MPD2	C2	1	-0.15	12.011
7178	CB	479	MPD2	C3	1	0.117	12.011
7179	CB	479	MPD2	C4	1	-0.15	12.011
7180	CB	479	MPD2	C5	1	-0.15	12.011
7181	HCMM	479	MPD2	H	1	0.15	1.0079
7182	HCMM	479	MPD2	H1	1	0.15	1.0079
7183	HCMM	479	MPD2	H2	1	0.15	1.0079
7184	HCMM	479	MPD2	H3	1	0.15	1.0079
7185	NC=O	479	MPD2	N	1	-0.547	14.0067
7186	HNCO	479	MPD2	H5	1	0.37	1.0079
7187	NC=O	479	MPD2	N1	1	-0.547	14.0067
7188	HNCO	479	MPD2	H7	1	0.37	1.0079
7189	CB	480	TMC3	C1	1	0.0862	12.011
7190	CB	480	TMC3	C2	1	-0.15	12.011
7191	CB	480	TMC3	C3	1	0.0862	12.011
7192	CB	480	TMC3	C4	1	-0.15	12.011
7193	CB	480	TMC3	C5	1	0.0862	12.011
7194	CB	480	TMC3	C6	1	-0.15	12.011
7195	C=O	480	TMC3	C	1	0.5438	12.011
7196	O=C	480	TMC3	O	1	-0.57	15.9994
7197	HCMM	480	TMC3	H	1	0.15	1.0079
7198	HCMM	480	TMC3	H1	1	0.15	1.0079
7199	HCMM	480	TMC3	H2	1	0.15	1.0079
7200	C=O	480	TMC3	C7	1	0.5438	12.011
7201	C=O	480	TMC3	C8	1	0.5438	12.011
7202	O=C	480	TMC3	O1	1	-0.57	15.9994
7203	O=C	480	TMC3	O2	1	-0.57	15.9994
7204	CB	481	MPD2	C	1	-0.15	12.011
7205	CB	481	MPD2	C1	1	0.117	12.011
7206	CB	481	MPD2	C2	1	-0.15	12.011
7207	CB	481	MPD2	C3	1	0.117	12.011
7208	CB	481	MPD2	C4	1	-0.15	12.011
7209	CB	481	MPD2	C5	1	-0.15	12.011
7210	HCMM	481	MPD2	H	1	0.15	1.0079
7211	HCMM	481	MPD2	H1	1	0.15	1.0079
7212	HCMM	481	MPD2	H2	1	0.15	1.0079
7213	HCMM	481	MPD2	H3	1	0.15	1.0079
7214	NC=O	481	MPD2	N	1	-0.547	14.0067
7215	HNCO	481	MPD2	H5	1	0.37	1.0079
7216	NC=O	481	MPD2	N1	1	-0.547	14.0067
7217	HNCO	481	MPD2	H7	1	0.37	1.0079
7218	CB	482	TMC3	C1	1	0.0862	12.011
7219	CB	482	TMC3	C2	1	-0.15	12.011
7220	CB	482	TMC3	C3	1	0.0862	12.011
7221	CB	482	TMC3	C4	1	-0.15	12.011
7222	CB	482	TMC3	C5	1	0.0862	12.011
7223	CB	482	TMC3	C6	1	-0.15	12.011
7224	C=O	482	TMC3	C	1	0.5438	12.011
7225	O=C	482	TMC3	O	1	-0.57	15.9994
7226	HCMM	482	TMC3	H	1	0.15	1.0079
7227	HCMM	482	TMC3	H1	1	0.15	1.0079
7228	HCMM	482	TMC3	H2	1	0.15	1.0079
7229	C=O	482	TMC3	C7	1	0.5438	12.011
7230	C=O	482	TMC3	C8	1	0.5438	12.011
7231	O=C	482	TMC3	O1	1	-0.57	15.9994
7232	O=C	482	TMC3	O2	1	-0.57	15.9994
7233	CB	483	TMC3	C1	1	0.0862	12.011
7234	CB	483	TMC3	C2	1	-0.15	12.011
7235	CB	483	TMC3	C3	1	0.0862	12.011
7236	CB	483	TMC3	C4	1	-0.15	12.011
7237	CB	483	TMC3	C5	1	0.0862	12.011
7238	CB	483	TMC3	C6	1	-0.15	12.011
7239	C=O	483	TMC3	C	1	0.5438	12.011
7240	O=C	483	TMC3	O	1	-0.57	15.9994
7241	HCMM	483	TMC3	H	1	0.15	1.0079
7242	HCMM	483	TMC3	H1	1	0.15	1.0079
7243	HCMM	483	TMC3	H2	1	0.15	1.0079
7244	C=O	483	TMC3	C7	1	0.5438	12.011
7245	C=O	483	TMC3	C8	1	0.5438	12.011
7246	O=C	483	TMC3	O1	1	-0.57	15.9994
7247	O=C	483	TMC3	O2	1	-0.57	15.9994
7248	CB	484	MPD2	C	1	-0.15	12.011
7249	CB	484	MPD2	C1	1	0.117	12.011
7250	CB	484	MPD2	C2	1	-0.15	12.011
7251	CB	484	MPD2	C3	1	0.117	12.011
7252	CB	484	MPD2	C4	1	-0.15	12.011
7253	CB	484	MPD2	C5	1	-0.15	12.011
7254	HCMM	484	MPD2	H	1	0.15	1.0079
7255	HCMM	484	MPD2	H1	1	0.15	1.0079
7256	HCMM	484	MPD2	H2	1	0.15	1.0079
7257	HCMM	484	MPD2	H3	1	0.15	1.0079
7258	NC=O	484	MPD2	N	1	-0.547	14.0067
7259	HNCO	484	MPD2	H5	1	0.37	1.0079
7260	NC=O	484	MPD2	N1	1	-0.547	14.0067
7261	HNCO	484	MPD2	H7	1	0.37	1.0079
7262	CB	485	TMC3	C1	1	0.0862	12.011
7263	CB	485	TMC3	C2	1	-0.15	12.011
7264	CB	485	TMC3	C3	1	0.0862	12.011
7265	CB	485	TMC3	C4	1	-0.15	12.011
7266	CB	485	TMC3	C5	1	0.0862	12.011
7267	CB	485	TMC3	C6	1	-0.15	12.011
7268	C=O	485	TMC3	C	1	0.5438	12.011
7269	O=C	485	TMC3	O	1	-0.57	15.9994
7270	HCMM	485	TMC3	H	1	0.15	1.0079
7271	HCMM	485	TMC3	H1	1	0.15	1.0079
7272	HCMM	485	TMC3	H2	1	0.15	1.0079
7273	C=O	485	TMC3	C7	1	0.5438	12.011
7274	C=O	485	TMC3	C8	1	0.5438	12.011
7275	O=C	485	TMC3	O1	1	-0.57	15.9994
7276	O=C	485	TMC3	O2	1	-0.57	15.9994
7277	CB	486	MPD2	C	1	-0.15	12.011
7278	CB	486	MPD2	C1	1	0.117	12.011
7279	CB	486	MPD2	C2	1	-0.15	12.011
7280	CB	486	MPD2	C3	1	0.117	12.011
7281	CB	486	MPD2	C4	1	-0.15	12.011
7282	CB	486	MPD2	C5	1	-0.15	12.011
7283	HCMM	486	MPD2	H	1	0.15	1.0079
7284	HCMM	486	MPD2	H1	1	0.15	1.0079
7285	HCMM	486	MPD2	H2	1	0.15	1.0079
7286	HCMM	486	MPD2	H3	1	0.15	1.0079
7287	NC=O	486	MPD2	N	1	-0.547	14.0067
7288	HNCO	486	MPD2	H5	1	0.37	1.0079
7289	NC=O	486	MPD2	N1	1	-0.547	14.0067
7290	HNCO	486	MPD2	H7	1	0.37	1.0079
7291	CB	487	TMC3	C1	1	0.0862	12.011
7292	CB	487	TMC3	C2	1	-0.15	12.011
7293	CB	487	TMC3	C3	1	0.0862	12.011
7294	CB	487	TMC3	C4	1	-0.15	12.011
7295	CB	487	TMC3	C5	1	0.0862	12.011
7296	CB	487	TMC3	C6	1	-0.15	12.011
7297	C=O	487	TMC3	C	1	0.5438	12.011
7298	O=C	487	TMC3	O	1	-0.57	15.9994
7299	HCMM	487	TMC3	H	1	0.15	1.0079
7300	HCMM	487	TMC3	H1	1	0.15	1.0079
7301	HCMM	487	TMC3	H2	1	0.15	1.0079
7302	C=O	487	TMC3	C7	1	0.5438	12.011
7303	C=O	487	TMC3	C8	1	0.5438	12.011
7304	O=C	487	TMC3	O1	1	-0.57	15.9994
7305	O=C	487	TMC3	O2	1	-0.57	15.9994
7306	CB	488	MPD2	C	1	-0.15	12.011
7307	CB	488	MPD2	C1	1	0.117	12.011
7308	CB	488	MPD2	C2	1	-0.15	12.011
7309	CB	488	MPD2	C3	1	0.117	12.011
7310	CB	488	MPD2	C4	1	-0.15	12.011
7311	CB	488	MPD2	C5	1	-0.15	12.011
7312	HCMM	488	MPD2	H	1	0.15	1.0079
7313	HCMM	488	MPD2	H1	1	0.15	1.0079
7314	HCMM	488	MPD2	H2	1	0.15	1.0079
7315	HCMM	488	MPD2	H3	1	0.15	1.0079
7316	NC=O	488	MPD2	N	1	-0.547	14.0067
7317	HNCO	488	MPD2	H5	1	0.37	1.0079
7318	NC=O	488	MPD2	N1	1	-0.547	14.0067
7319	HNCO	488	MPD2	H7	1	0.37	1.0079
7320	CB	489	TMC3	C1	1	0.0862	12.011
7321	CB	489	TMC3	C2	1	-0.15	12.011
7322	CB	489	TMC3	C3	1	0.0862	12.011
7323	CB	489	TMC3	C4	1	-0.15	12.011
7324	CB	489	TMC3	C5	1	0.0862	12.011
7325	CB	489	TMC3	C6	1	-0.15	12.011
7326	C=O	489	TMC3	C	1	0.5438	12.011
7327	O=C	489	TMC3	O	1	-0.57	15.9994
7328	HCMM	489	TMC3	H	1	0.15	1.0079
7329	HCMM	489	TMC3	H1	1	0.15	1.0079
7330	HCMM	489	TMC3	H2	1	0.15	1.0079
7331	C=O	489	TMC3	C7	1	0.5438	12.011
7332	C=O	489	TMC3	C8	1	0.5438	12.011
7333	O=C	489	TMC3	O1	1	-0.57	15.9994
7334	O=C	489	TMC3	O2	1	-0.57	15.9994
7335	CB	490	MPD2	C	1	-0.15	12.011
7336	CB	490	MPD2	C1	1	0.117	12.011
7337	CB	490	MPD2	C2	1	-0.15	12.011
7338	CB	490	MPD2	C3	1	0.117	12.011
7339	CB	490	MPD2	C4	1	-0.15	12.011
7340	CB	490	MPD2	C5	1	-0.15	12.011
7341	HCMM	490	MPD2	H	1	0.15	1.0079
7342	HCMM	490	MPD2	H1	1	0.15	1.0079
7343	HCMM	490	MPD2	H2	1	0.15	1.0079
7344	HCMM	490	MPD2	H3	1	0.15	1.0079
7345	NC=O	490	MPD2	N	1	-0.547	14.0067
7346	HNCO	490	MPD2	H5	1	0.37	1.0079
7347	NC=O	490	MPD2	N1	1	-0.547	14.0067
7348	HNCO	490	MPD2	H7	1	0.37	1.0079
7349	CB	491	TMC3	C1	1	0.0862	12.011
7350	CB	491	TMC3	C2	1	-0.15	12.011
7351	CB	491	TMC3	C3	1	0.0862	12.011
7352	CB	491	TMC3	C4	1	-0.15	12.011
7353	CB	491	TMC3	C5	1	0.0862	12.011
7354	CB	491	TMC3	C6	1	-0.15	12.011
7355	C=O	491	TMC3	C	1	0.5438	12.011
7356	O=C	491	TMC3	O	1	-0.57	15.9994
7357	HCMM	491	TMC3	H	1	0.15	1.0079
7358	HCMM	491	TMC3	H1	1	0.15	1.0079
7359	HCMM	491	TMC3	H2	1	0.15	1.0079
7360	C=O	491	TMC3	C7	1	0.5438	12.011
7361	C=O	491	TMC3	C8	1	0.5438	12.011
7362	O=C	491	TMC3	O1	1	-0.57	15.9994
7363	O=C	491	TMC3	O2	1	-0.57	15.9994
7364	CB	492	MPD2	C	1	-0.15	12.011
7365	CB	492	MPD2	C1	1	0.117	12.011
7366	CB	492	MPD2	C2	1	-0.15	12.011
7367	CB	492	MPD2	C3	1	0.117	12.011
7368	CB	492	MPD2	C4	1	-0.15	12.011
7369	CB	492	MPD2	C5	1	-0.15	12.011
7370	HCMM	492	MPD2	H	1	0.15	1.0079
7371	HCMM	492	MPD2	H1	1	0.15	1.0079
7372	HCMM	492	MPD2	H2	1	0.15	1.0079
7373	HCMM	492	MPD2	H3	1	0.15	1.0079
7374	NC=O	492	MPD2	N	1	-0.547	14.0067
7375	HNCO	492	MPD2	H5	1	0.37	1.0079
7376	NC=O	492	MPD2	N1	1	-0.547	14.0067
7377	HNCO	492	MPD2	H7	1	0.37	1.0079
7378	CB	493	TMC3	C1	1	0.0862	12.011
7379	CB	493	TMC3	C2	1	-0.15	12.011
7380	CB	493	TMC3	C3	1	0.0862	12.011
7381	CB	493	TMC3	C4	1	-0.15	12.011
7382	CB	493	TMC3	C5	1	0.0862	12.011
7383	CB	493	TMC3	C6	1	-0.15	12.011
7384	C=O	493	TMC3	C	1	0.5438	12.011
7385	O=C	493	TMC3	O	1	-0.57	15.9994
7386	HCMM	493	TMC3	H	1	0.15	1.0079
7387	HCMM	493	TMC3	H1	1	0.15	1.0079
7388	HCMM	493	TMC3	H2	1	0.15	1.0079
7389	C=O	493	TMC3	C7	1	0.5438	12.011
7390	C=O	493	TMC3	C8	1	0.5438	12.011
7391	O=C	493	TMC3	O1	1	-0.57	15.9994
7392	O=C	493	TMC3	O2	1	-0.57	15.9994
7393	CB	494	TMC3	C1	1	0.0862	12.011
7394	CB	494	TMC3	C2	1	-0.15	12.011
7395	CB	494	TMC3	C3	1	0.0862	12.011
7396	CB	494	TMC3	C4	1	-0.15	12.011
7397	CB	494	TMC3	C5	1	0.0862	12.011
7398	CB	494	TMC3	C6	1	-0.15	12.011
7399	C=O	494	TMC3	C	1	0.5438	12.011
7400	O=C	494	TMC3	O	1	-0.57	15.9994
7401	HCMM	494	TMC3	H	1	0.15	1.0079
7402	HCMM	494	TMC3	H1	1	0.15	1.0079
7403	HCMM	494	TMC3	H2	1	0.15	1.0079
7404	C=O	494	TMC3	C7	1	0.5438	12.011
7405	C=O	494	TMC3	C8	1	0.5438	12.011
7406	O=C	494	TMC3	O1	1	-0.57	15.9994
7407	O=C	494	TMC3	O2	1	-0.57	15.9994
7408	CB	495	TMC3	C1	1	0.0862	12.011
7409	CB	495	TMC3	C2	1	-0.15	12.011
7410	CB	495	TMC3	C3	1	0.0862	12.011
7411	CB	495	TMC3	C4	1	-0.15	12.011
7412	CB	495	TMC3	C5	1	0.0862	12.011
7413	CB	495	TMC3	C6	1	-0.15	12.011
7414	C=O	495	TMC3	C	1	0.5438	12.011
7415	O=C	495	TMC3	O	1	-0.57	15.9994
7416	HCMM	495	TMC3	H	1	0.15	1.0079
7417	HCMM	495	TMC3	H1	1	0.15	1.0079
7418	HCMM	495	TMC3	H2	1	0.15	1.0079
7419	C=O	495	TMC3	C7	1	0.5438	12.011
7420	C=O	495	TMC3	C8	1	0.5438	12.011
7421	O=C	495	TMC3	O1	1	-0.57	15.9994
7422	O=C	495	TMC3	O2	1	-0.57	15.9994
7423	CB	496	MPD2	C	1	-0.15	12.011
7424	CB	496	MPD2	C1	1	0.117	12.011
7425	CB	496	MPD2	C2	1	-0.15	12.011
7426	CB	496	MPD2	C3	1	0.117	12.011
7427	CB	496	MPD2	C4	1	-0.15	12.011
7428	CB	496	MPD2	C5	1	-0.15	12.011
7429	HCMM	496	MPD2	H	1	0.15	1.0079
7430	HCMM	496	MPD2	H1	1	0.15	1.0079
7431	HCMM	496	MPD2	H2	1	0.15	1.0079
7432	HCMM	496	MPD2	H3	1	0.15	1.0079
7433	NC=O	496	MPD2	N	1	-0.547	14.0067
7434	HNCO	496	MPD2	H5	1	0.37	1.0079
7435	NC=O	496	MPD2	N1	1	-0.547	14.0067
7436	HNCO	496	MPD2	H7	1	0.37	1.0079
7437	CB	497	TMC3	C1	1	0.0862	12.011
7438	CB	497	TMC3	C2	1	-0.15	12.011
7439	CB	497	TMC3	C3	1	0.0862	12.011
7440	CB	497	TMC3	C4	1	-0.15	12.011
7441	CB	497	TMC3	C5	1	0.0862	12.011
7442	CB	497	TMC3	C6	1	-0.15	12.011
7443	C=O	497	TMC3	C	1	0.5438	12.011
7444	O=C	497	TMC3	O	1	-0.57	15.9994
7445	HCMM	497	TMC3	H	1	0.15	1.0079
7446	HCMM	497	TMC3	H1	1	0.15	1.0079
7447	HCMM	497	TMC3	H2	1	0.15	1.0079
7448	C=O	497	TMC3	C7	1	0.5438	12.011
7449	C=O	497	TMC3	C8	1	0.5438	12.011
7450	O=C	497	TMC3	O1	1	-0.57	15.9994
7451	O=C	497	TMC3	O2	1	-0.57	15.9994
7452	CB	498	MPD2	C	1	-0.15	12.011
7453	CB	498	MPD2	C1	1	0.117	12.011
7454	CB	498	MPD2	C2	1	-0.15	12.011
7455	CB	498	MPD2	C3	1	0.117	12.011
7456	CB	498	MPD2	C4	1	-0.15	12.011
7457	CB	498	MPD2	C5	1	-0.15	12.011
7458	HCMM	498	MPD2	H	1	0.15	1.0079
7459	HCMM	498	MPD2	H1	1	0.15	1.0079
7460	HCMM	498	MPD2	H2	1	0.15	1.0079
7461	HCMM	498	MPD2	H3	1	0.15	1.0079
7462	NC=O	498	MPD2	N	1	-0.547	14.0067
7463	HNCO	498	MPD2	H5	1	0.37	1.0079
7464	NC=O	498	MPD2	N1	1	-0.547	14.0067
7465	HNCO	498	MPD2	H7	1	0.37	1.0079
7466	CB	499	TMC3	C1	1	0.0862	12.011
7467	CB	499	TMC3	C2	1	-0.15	12.011
7468	CB	499	TMC3	C3	1	0.0862	12.011
7469	CB	499	TMC3	C4	1	-0.15	12.011
7470	CB	499	TMC3	C5	1	0.0862	12.011
7471	CB	499	TMC3	C6	1	-0.15	12.011
7472	C=O	499	TMC3	C	1	0.5438	12.011
7473	O=C	499	TMC3	O	1	-0.57	15.9994
7474	HCMM	499	TMC3	H	1	0.15	1.0079
7475	HCMM	499	TMC3	H1	1	0.15	1.0079
7476	HCMM	499	TMC3	H2	1	0.15	1.0079
7477	C=O	499	TMC3	C7	1	0.5438	12.011
7478	C=O	499	TMC3	C8	1	0.5438	12.011
7479	O=C	499	TMC3	O1	1	-0.57	15.9994
7480	O=C	499	TMC3	O2	1	-0.57	15.9994
7481	CB	500	MPD2	C	1	-0.15	12.011
7482	CB	500	MPD2	C1	1	0.117	12.011
7483	CB	500	MPD2	C2	1	-0.15	12.011
7484	CB	500	MPD2	C3	1	0.117	12.011
7485	CB	500	MPD2	C4	1	-0.15	12.011
7486	CB	500	MPD2	C5	1	-0.15	12.011
7487	HCMM	500	MPD2	H	1	0.15	1.0079
7488	HCMM	500	MPD2	H1	1	0.15	1.0079
7489	HCMM	500	MPD2	H2	1	0.15	1.0079
7490	HCMM	500	MPD2	H3	1	0.15	1.0079
7491	NC=O	500	MPD2	N	1	-0.547	14.0067
7492	HNCO	500	MPD2	H5	1	0.37	1.0079
7493	NC=O	500	MPD2	N1	1	-0.547	14.0067
7494	HNCO	500	MPD2	H7	1	0.37	1.0079
7495	CB	501	TMC3	C1	1	0.0862	12.011
7496	CB	501	TMC3	C2	1	-0.15	12.011
7497	CB	501	TMC3	C3	1	0.0862	12.011
7498	CB	501	TMC3	C4	1	-0.15	12.011
7499	CB	501	TMC3	C5	1	0.0862	12.011
7500	CB	501	TMC3	C6	1	-0.15	12.011
7501	C=O	501	TMC3	C	1	0.5438	12.011
7502	O=C	501	TMC3	O	1	-0.57	15.9994
7503	HCMM	501	TMC3	H	1	0.15	1.0079
7504	HCMM	501	TMC3	H1	1	0.15	1.0079
7505	HCMM	501	TMC3	H2	1	0.15	1.0079
7506	C=O	501	TMC3	C7	1	0.5438	12.011
7507	C=O	501	TMC3	C8	1	0.5438	12.011
7508	O=C	501	TMC3	O1	1	-0.57	15.9994
7509	O=C	501	TMC3	O2	1	-0.57	15.9994
7510	CB	502	TMC3	C1	1	0.0862	12.011
7511	CB	502	TMC3	C2	1	-0.15	12.011
7512	CB	502	TMC3	C3	1	0.0862	12.011
7513	CB	502	TMC3	C4	1	-0.15	12.011
7514	CB	502	TMC3	C5	1	0.0862	12.011
7515	CB	502	TMC3	C6	1	-0.15	12.011
7516	C=O	502	TMC3	C	1	0.5438	12.011
7517	O=C	502	TMC3	O	1	-0.57	15.9994
7518	HCMM	502	TMC3	H	1	0.15	1.0079
7519	HCMM	502	TMC3	H1	1	0.15	1.0079
7520	HCMM	502	TMC3	H2	1	0.15	1.0079
7521	C=O	502	TMC3	C7	1	0.5438	12.011
7522	C=O	502	TMC3	C8	1	0.5438	12.011
7523	O=C	502	TMC3	O1	1	-0.57	15.9994
7524	O=C	502	TMC3	O2	1	-0.57	15.9994
7525	CB	503	MPD2	C	1	-0.15	12.011
7526	CB	503	MPD2	C1	1	0.117	12.011
7527	CB	503	MPD2	C2	1	-0.15	12.011
7528	CB	503	MPD2	C3	1	0.117	12.011
7529	CB	503	MPD2	C4	1	-0.15	12.011
7530	CB	503	MPD2	C5	1	-0.15	12.011
7531	HCMM	503	MPD2	H	1	0.15	1.0079
7532	HCMM	503	MPD2	H1	1	0.15	1.0079
7533	HCMM	503	MPD2	H2	1	0.15	1.0079
7534	HCMM	503	MPD2	H3	1	0.15	1.0079
7535	NC=O	503	MPD2	N	1	-0.547	14.0067
7536	HNCO	503	MPD2	H5	1	0.37	1.0079
7537	NC=O	503	MPD2	N1	1	-0.547	14.0067
7538	HNCO	503	MPD2	H7	1	0.37	1.0079
7539	CB	504	TMC3	C1	1	0.0862	12.011
7540	CB	504	TMC3	C2	1	-0.15	12.011
7541	CB	504	TMC3	C3	1	0.0862	12.011
7542	CB	504	TMC3	C4	1	-0.15	12.011
7543	CB	504	TMC3	C5	1	0.0862	12.011
7544	CB	504	TMC3	C6	1	-0.15	12.011
7545	C=O	504	TMC3	C	1	0.5438	12.011
7546	O=C	504	TMC3	O	1	-0.57	15.9994
7547	HCMM	504	TMC3	H	1	0.15	1.0079
7548	HCMM	504	TMC3	H1	1	0.15	1.0079
7549	HCMM	504	TMC3	H2	1	0.15	1.0079
7550	C=O	504	TMC3	C7	1	0.5438	12.011
7551	C=O	504	TMC3	C8	1	0.5438	12.011
7552	O=C	504	TMC3	O1	1	-0.57	15.9994
7553	O=C	504	TMC3	O2	1	-0.57	15.9994
7554	CB	505	MPD2	C	1	-0.15	12.011
7555	CB	505	MPD2	C1	1	0.117	12.011
7556	CB	505	MPD2	C2	1	-0.15	12.011
7557	CB	505	MPD2	C3	1	0.117	12.011
7558	CB	505	MPD2	C4	1	-0.15	12.011
7559	CB	505	MPD2	C5	1	-0.15	12.011
7560	HCMM	505	MPD2	H	1	0.15	1.0079
7561	HCMM	505	MPD2	H1	1	0.15	1.0079
7562	HCMM	505	MPD2	H2	1	0.15	1.0079
7563	HCMM	505	MPD2	H3	1	0.15	1.0079
7564	NC=O	505	MPD2	N	1	-0.547	14.0067
7565	HNCO	505	MPD2	H5	1	0.37	1.0079
7566	NC=O	505	MPD2	N1	1	-0.547	14.0067
7567	HNCO	505	MPD2	H7	1	0.37	1.0079
7568	CB	506	TMC3	C1	1	0.0862	12.011
7569	CB	506	TMC3	C2	1	-0.15	12.011
7570	CB	506	TMC3	C3	1	0.0862	12.011
7571	CB	506	TMC3	C4	1	-0.15	12.011
7572	CB	506	TMC3	C5	1	0.0862	12.011
7573	CB	506	TMC3	C6	1	-0.15	12.011
7574	C=O	506	TMC3	C	1	0.5438	12.011
7575	O=C	506	TMC3	O	1	-0.57	15.9994
7576	HCMM	506	TMC3	H	1	0.15	1.0079
7577	HCMM	506	TMC3	H1	1	0.15	1.0079
7578	HCMM	506	TMC3	H2	1	0.15	1.0079
7579	C=O	506	TMC3	C7	1	0.5438	12.011
7580	C=O	506	TMC3	C8	1	0.5438	12.011
7581	O=C	506	TMC3	O1	1	-0.57	15.9994
7582	O=C	506	TMC3	O2	1	-0.57	15.9994
7583	CB	507	TMC3	C1	1	0.0862	12.011
7584	CB	507	TMC3	C2	1	-0.15	12.011
7585	CB	507	TMC3	C3	1	0.0862	12.011
7586	CB	507	TMC3	C4	1	-0.15	12.011
7587	CB	507	TMC3	C5	1	0.0862	12.011
7588	CB	507	TMC3	C6	1	-0.15	12.011
7589	C=O	507	TMC3	C	1	0.5438	12.011
7590	O=C	507	TMC3	O	1	-0.57	15.9994
7591	HCMM	507	TMC3	H	1	0.15	1.0079
7592	HCMM	507	TMC3	H1	1	0.15	1.0079
7593	HCMM	507	TMC3	H2	1	0.15	1.0079
7594	C=O	507	TMC3	C7	1	0.5438	12.011
7595	C=O	507	TMC3	C8	1	0.5438	12.011
7596	O=C	507	TMC3	O1	1	-0.57	15.9994
7597	O=C	507	TMC3	O2	1	-0.57	15.9994
7598	CB	508	MPD2	C	1	-0.15	12.011
7599	CB	508	MPD2	C1	1	0.117	12.011
7600	CB	508	MPD2	C2	1	-0.15	12.011
7601	CB	508	MPD2	C3	1	0.117	12.011
7602	CB	508	MPD2	C4	1	-0.15	12.011
7603	CB	508	MPD2	C5	1	-0.15	12.011
7604	HCMM	508	MPD2	H	1	0.15	1.0079
7605	HCMM	508	MPD2	H1	1	0.15	1.0079
7606	HCMM	508	MPD2	H2	1	0.15	1.0079
7607	HCMM	508	MPD2	H3	1	0.15	1.0079
7608	NC=O	508	MPD2	N	1	-0.547	14.0067
7609	HNCO	508	MPD2	H5	1	0.37	1.0079
7610	NC=O	508	MPD2	N1	1	-0.547	14.0067
7611	HNCO	508	MPD2	H7	1	0.37	1.0079
7612	CB	509	TMC3	C1	1	0.0862	12.011
7613	CB	509	TMC3	C2	1	-0.15	12.011
7614	CB	509	TMC3	C3	1	0.0862	12.011
7615	CB	509	TMC3	C4	1	-0.15	12.011
7616	CB	509	TMC3	C5	1	0.0862	12.011
7617	CB	509	TMC3	C6	1	-0.15	12.011
7618	C=O	509	TMC3	C	1	0.5438	12.011
7619	O=C	509	TMC3	O	1	-0.57	15.9994
7620	HCMM	509	TMC3	H	1	0.15	1.0079
7621	HCMM	509	TMC3	H1	1	0.15	1.0079
7622	HCMM	509	TMC3	H2	1	0.15	1.0079
7623	C=O	509	TMC3	C7	1	0.5438	12.011
7624	C=O	509	TMC3	C8	1	0.5438	12.011
7625	O=C	509	TMC3	O1	1	-0.57	15.9994
7626	O=C	509	TMC3	O2	1	-0.57	15.9994
7627	CB	510	MPD2	C	1	-0.15	12.011
7628	CB	510	MPD2	C1	1	0.117	12.011
7629	CB	510	MPD2	C2	1	-0.15	12.011
7630	CB	510	MPD2	C3	1	0.117	12.011
7631	CB	510	MPD2	C4	1	-0.15	12.011
7632	CB	510	MPD2	C5	1	-0.15	12.011
7633	HCMM	510	MPD2	H	1	0.15	1.0079
7634	HCMM	510	MPD2	H1	1	0.15	1.0079
7635	HCMM	510	MPD2	H2	1	0.15	1.0079
7636	HCMM	510	MPD2	H3	1	0.15	1.0079
7637	NC=O	510	MPD2	N	1	-0.547	14.0067
7638	HNCO	510	MPD2	H5	1	0.37	1.0079
7639	NC=O	510	MPD2	N1	1	-0.547	14.0067
7640	HNCO	510	MPD2	H7	1	0.37	1.0079
7641	CB	511	TMC3	C1	1	0.0862	12.011
7642	CB	511	TMC3	C2	1	-0.15	12.011
7643	CB	511	TMC3	C3	1	0.0862	12.011
7644	CB	511	TMC3	C4	1	-0.15	12.011
7645	CB	511	TMC3	C5	1	0.0862	12.011
7646	CB	511	TMC3	C6	1	-0.15	12.011
7647	C=O	511	TMC3	C	1	0.5438	12.011
7648	O=C	511	TMC3	O	1	-0.57	15.9994
7649	HCMM	511	TMC3	H	1	0.15	1.0079
7650	HCMM	511	TMC3	H1	1	0.15	1.0079
7651	HCMM	511	TMC3	H2	1	0.15	1.0079
7652	C=O	511	TMC3	C7	1	0.5438	12.011
7653	C=O	511	TMC3	C8	1	0.5438	12.011
7654	O=C	511	TMC3	O1	1	-0.57	15.9994
7655	O=C	511	TMC3	O2	1	-0.57	15.9994
7656	CB	512	TMC3	C1	1	0.0862	12.011
7657	CB	512	TMC3	C2	1	-0.15	12.011
7658	CB	512	TMC3	C3	1	0.0862	12.011
7659	CB	512	TMC3	C4	1	-0.15	12.011
7660	CB	512	TMC3	C5	1	0.0862	12.011
7661	CB	512	TMC3	C6	1	-0.15	12.011
7662	C=O	512	TMC3	C	1	0.5438	12.011
7663	O=C	512	TMC3	O	1	-0.57	15.9994
7664	HCMM	512	TMC3	H	1	0.15	1.0079
7665	HCMM	512	TMC3	H1	1	0.15	1.0079
7666	HCMM	512	TMC3	H2	1	0.15	1.0079
7667	C=O	512	TMC3	C7	1	0.5438	12.011
7668	C=O	512	TMC3	C8	1	0.5438	12.011
7669	O=C	512	TMC3	O1	1	-0.57	15.9994
7670	O=C	512	TMC3	O2	1	-0.57	15.9994
7671	CB	513	MPD2	C	1	-0.15	12.011
7672	CB	513	MPD2	C1	1	0.117	12.011
7673	CB	513	MPD2	C2	1	-0.15	12.011
7674	CB	513	MPD2	C3	1	0.117	12.011
7675	CB	513	MPD2	C4	1	-0.15	12.011
7676	CB	513	MPD2	C5	1	-0.15	12.011
7677	HCMM	513	MPD2	H	1	0.15	1.0079
7678	HCMM	513	MPD2	H1	1	0.15	1.0079
7679	HCMM	513	MPD2	H2	1	0.15	1.0079
7680	HCMM	513	MPD2	H3	1	0.15	1.0079
7681	NC=O	513	MPD2	N	1	-0.547	14.0067
7682	HNCO	513	MPD2	H5	1	0.37	1.0079
7683	NC=O	513	MPD2	N1	1	-0.547	14.0067
7684	HNCO	513	MPD2	H7	1	0.37	1.0079
7685	CB	514	TMC3	C1	1	0.0862	12.011
7686	CB	514	TMC3	C2	1	-0.15	12.011
7687	CB	514	TMC3	C3	1	0.0862	12.011
7688	CB	514	TMC3	C4	1	-0.15	12.011
7689	CB	514	TMC3	C5	1	0.0862	12.011
7690	CB	514	TMC3	C6	1	-0.15	12.011
7691	C=O	514	TMC3	C	1	0.5438	12.011
7692	O=C	514	TMC3	O	1	-0.57	15.9994
7693	HCMM	514	TMC3	H	1	0.15	1.0079
7694	HCMM	514	TMC3	H1	1	0.15	1.0079
7695	HCMM	514	TMC3	H2	1	0.15	1.0079
7696	C=O	514	TMC3	C7	1	0.5438	12.011
7697	C=O	514	TMC3	C8	1	0.5438	12.011
7698	O=C	514	TMC3	O1	1	-0.57	15.9994
7699	O=C	514	TMC3	O2	1	-0.57	15.9994
7700	CB	515	MPD2	C	1	-0.15	12.011
7701	CB	515	MPD2	C1	1	0.117	12.011
7702	CB	515	MPD2	C2	1	-0.15	12.011
7703	CB	515	MPD2	C3	1	0.117	12.011
7704	CB	515	MPD2	C4	1	-0.15	12.011
7705	CB	515	MPD2	C5	1	-0.15	12.011
7706	HCMM	515	MPD2	H	1	0.15	1.0079
7707	HCMM	515	MPD2	H1	1	0.15	1.0079
7708	HCMM	515	MPD2	H2	1	0.15	1.0079
7709	HCMM	515	MPD2	H3	1	0.15	1.0079
7710	NC=O	515	MPD2	N	1	-0.547	14.0067
7711	HNCO	515	MPD2	H5	1	0.37	1.0079
7712	NC=O	515	MPD2	N1	1	-0.547	14.0067
7713	HNCO	515	MPD2	H7	1	0.37	1.0079
7714	CB	516	TMC3	C1	1	0.0862	12.011
7715	CB	516	TMC3	C2	1	-0.15	12.011
7716	CB	516	TMC3	C3	1	0.0862	12.011
7717	CB	516	TMC3	C4	1	-0.15	12.011
7718	CB	516	TMC3	C5	1	0.0862	12.011
7719	CB	516	TMC3	C6	1	-0.15	12.011
7720	C=O	516	TMC3	C	1	0.5438	12.011
7721	O=C	516	TMC3	O	1	-0.57	15.9994
7722	HCMM	516	TMC3	H	1	0.15	1.0079
7723	HCMM	516	TMC3	H1	1	0.15	1.0079
7724	HCMM	516	TMC3	H2	1	0.15	1.0079
7725	C=O	516	TMC3	C7	1	0.5438	12.011
7726	C=O	516	TMC3	C8	1	0.5438	12.011
7727	O=C	516	TMC3	O1	1	-0.57	15.9994
7728	O=C	516	TMC3	O2	1	-0.57	15.9994
7729	CB	517	MPD2	C	1	-0.15	12.011
7730	CB	517	MPD2	C1	1	0.117	12.011
7731	CB	517	MPD2	C2	1	-0.15	12.011
7732	CB	517	MPD2	C3	1	0.117	12.011
7733	CB	517	MPD2	C4	1	-0.15	12.011
7734	CB	517	MPD2	C5	1	-0.15	12.011
7735	HCMM	517	MPD2	H	1	0.15	1.0079
7736	HCMM	517	MPD2	H1	1	0.15	1.0079
7737	HCMM	517	MPD2	H2	1	0.15	1.0079
7738	HCMM	517	MPD2	H3	1	0.15	1.0079
7739	NC=O	517	MPD2	N	1	-0.547	14.0067
7740	HNCO	517	MPD2	H5	1	0.37	1.0079
7741	NC=O	517	MPD2	N1	1	-0.547	14.0067
7742	HNCO	517	MPD2	H7	1	0.37	1.0079
7743	CB	518	TMC3	C1	1	0.0862	12.011
7744	CB	518	TMC3	C2	1	-0.15	12.011
7745	CB	518	TMC3	C3	1	0.0862	12.011
7746	CB	518	TMC3	C4	1	-0.15	12.011
7747	CB	518	TMC3	C5	1	0.0862	12.011
7748	CB	518	TMC3	C6	1	-0.15	12.011
7749	C=O	518	TMC3	C	1	0.5438	12.011
7750	O=C	518	TMC3	O	1	-0.57	15.9994
7751	HCMM	518	TMC3	H	1	0.15	1.0079
7752	HCMM	518	TMC3	H1	1	0.15	1.0079
7753	HCMM	518	TMC3	H2	1	0.15	1.0079
7754	C=O	518	TMC3	C7	1	0.5438	12.011
7755	C=O	518	TMC3	C8	1	0.5438	12.011
7756	O=C	518	TMC3	O1	1	-0.57	15.9994
7757	O=C	518	TMC3	O2	1	-0.57	15.9994
7758	CB	519	MPD2	C	1	-0.15	12.011
7759	CB	519	MPD2	C1	1	0.117	12.011
7760	CB	519	MPD2	C2	1	-0.15	12.011
7761	CB	519	MPD2	C3	1	0.117	12.011
7762	CB	519	MPD2	C4	1	-0.15	12.011
7763	CB	519	MPD2	C5	1	-0.15	12.011
7764	HCMM	519	MPD2	H	1	0.15	1.0079
7765	HCMM	519	MPD2	H1	1	0.15	1.0079
7766	HCMM	519	MPD2	H2	1	0.15	1.0079
7767	HCMM	519	MPD2	H3	1	0.15	1.0079
7768	NC=O	519	MPD2	N	1	-0.547	14.0067
7769	HNCO	519	MPD2	H5	1	0.37	1.0079
7770	NC=O	519	MPD2	N1	1	-0.547	14.0067
7771	HNCO	519	MPD2	H7	1	0.37	1.0079
7772	CB	520	TMC3	C1	1	0.0862	12.011
7773	CB	520	TMC3	C2	1	-0.15	12.011
7774	CB	520	TMC3	C3	1	0.0862	12.011
7775	CB	520	TMC3	C4	1	-0.15	12.011
7776	CB	520	TMC3	C5	1	0.0862	12.011
7777	CB	520	TMC3	C6	1	-0.15	12.011
7778	C=O	520	TMC3	C	1	0.5438	12.011
7779	O=C	520	TMC3	O	1	-0.57	15.9994
7780	HCMM	520	TMC3	H	1	0.15	1.0079
7781	HCMM	520	TMC3	H1	1	0.15	1.0079
7782	HCMM	520	TMC3	H2	1	0.15	1.0079
7783	C=O	520	TMC3	C7	1	0.5438	12.011
7784	C=O	520	TMC3	C8	1	0.5438	12.011
7785	O=C	520	TMC3	O1	1	-0.57	15.9994
7786	O=C	520	TMC3	O2	1	-0.57	15.9994
7787	CB	521	MPD2	C	1	-0.15	12.011
7788	CB	521	MPD2	C1	1	0.117	12.011
7789	CB	521	MPD2	C2	1	-0.15	12.011
7790	CB	521	MPD2	C3	1	0.117	12.011
7791	CB	521	MPD2	C4	1	-0.15	12.011
7792	CB	521	MPD2	C5	1	-0.15	12.011
7793	HCMM	521	MPD2	H	1	0.15	1.0079
7794	HCMM	521	MPD2	H1	1	0.15	1.0079
7795	HCMM	521	MPD2	H2	1	0.15	1.0079
7796	HCMM	521	MPD2	H3	1	0.15	1.0079
7797	NC=O	521	MPD2	N	1	-0.547	14.0067
7798	HNCO	521	MPD2	H5	1	0.37	1.0079
7799	NC=O	521	MPD2	N1	1	-0.547	14.0067
7800	HNCO	521	MPD2	H7	1	0.37	1.0079
7801	CB	522	TMC3	C1	1	0.0862	12.011
7802	CB	522	TMC3	C2	1	-0.15	12.011
7803	CB	522	TMC3	C3	1	0.0862	12.011
7804	CB	522	TMC3	C4	1	-0.15	12.011
7805	CB	522	TMC3	C5	1	0.0862	12.011
7806	CB	522	TMC3	C6	1	-0.15	12.011
7807	C=O	522	TMC3	C	1	0.5438	12.011
7808	O=C	522	TMC3	O	1	-0.57	15.9994
7809	HCMM	522	TMC3	H	1	0.15	1.0079
7810	HCMM	522	TMC3	H1	1	0.15	1.0079
7811	HCMM	522	TMC3	H2	1	0.15	1.0079
7812	C=O	522	TMC3	C7	1	0.5438	12.011
7813	C=O	522	TMC3	C8	1	0.5438	12.011
7814	O=C	522	TMC3	O1	1	-0.57	15.9994
7815	O=C	522	TMC3	O2	1	-0.57	15.9994
7816	CB	523	MPD2	C	1	-0.15	12.011
7817	CB	523	MPD2	C1	1	0.117	12.011
7818	CB	523	MPD2	C2	1	-0.15	12.011
7819	CB	523	MPD2	C3	1	0.117	12.011
7820	CB	523	MPD2	C4	1	-0.15	12.011
7821	CB	523	MPD2	C5	1	-0.15	12.011
7822	HCMM	523	MPD2	H	1	0.15	1.0079
7823	HCMM	523	MPD2	H1	1	0.15	1.0079
7824	HCMM	523	MPD2	H2	1	0.15	1.0079
7825	HCMM	523	MPD2	H3	1	0.15	1.0079
7826	NC=O	523	MPD2	N	1	-0.547	14.0067
7827	HNCO	523	MPD2	H5	1	0.37	1.0079
7828	NC=O	523	MPD2	N1	1	-0.547	14.0067
7829	HNCO	523	MPD2	H7	1	0.37	1.0079
7830	CB	524	TMC3	C1	1	0.0862	12.011
7831	CB	524	TMC3	C2	1	-0.15	12.011
7832	CB	524	TMC3	C3	1	0.0862	12.011
7833	CB	524	TMC3	C4	1	-0.15	12.011
7834	CB	524	TMC3	C5	1	0.0862	12.011
7835	CB	524	TMC3	C6	1	-0.15	12.011
7836	C=O	524	TMC3	C	1	0.5438	12.011
7837	O=C	524	TMC3	O	1	-0.57	15.9994
7838	HCMM	524	TMC3	H	1	0.15	1.0079
7839	HCMM	524	TMC3	H1	1	0.15	1.0079
7840	HCMM	524	TMC3	H2	1	0.15	1.0079
7841	C=O	524	TMC3	C7	1	0.5438	12.011
7842	C=O	524	TMC3	C8	1	0.5438	12.011
7843	O=C	524	TMC3	O1	1	-0.57	15.9994
7844	O=C	524	TMC3	O2	1	-0.57	15.9994
7845	CB	525	MPD2	C	1	-0.15	12.011
7846	CB	525	MPD2	C1	1	0.117	12.011
7847	CB	525	MPD2	C2	1	-0.15	12.011
7848	CB	525	MPD2	C3	1	0.117	12.011
7849	CB	525	MPD2	C4	1	-0.15	12.011
7850	CB	525	MPD2	C5	1	-0.15	12.011
7851	HCMM	525	MPD2	H	1	0.15	1.0079
7852	HCMM	525	MPD2	H1	1	0.15	1.0079
7853	HCMM	525	MPD2	H2	1	0.15	1.0079
7854	HCMM	525	MPD2	H3	1	0.15	1.0079
7855	NC=O	525	MPD2	N	1	-0.547	14.0067
7856	HNCO	525	MPD2	H5	1	0.37	1.0079
7857	NC=O	525	MPD2	N1	1	-0.547	14.0067
7858	HNCO	525	MPD2	H7	1	0.37	1.0079
7859	CB	526	TMC3	C1	1	0.0862	12.011
7860	CB	526	TMC3	C2	1	-0.15	12.011
7861	CB	526	TMC3	C3	1	0.0862	12.011
7862	CB	526	TMC3	C4	1	-0.15	12.011
7863	CB	526	TMC3	C5	1	0.0862	12.011
7864	CB	526	TMC3	C6	1	-0.15	12.011
7865	C=O	526	TMC3	C	1	0.5438	12.011
7866	O=C	526	TMC3	O	1	-0.57	15.9994
7867	HCMM	526	TMC3	H	1	0.15	1.0079
7868	HCMM	526	TMC3	H1	1	0.15	1.0079
7869	HCMM	526	TMC3	H2	1	0.15	1.0079
7870	C=O	526	TMC3	C7	1	0.5438	12.011
7871	C=O	526	TMC3	C8	1	0.5438	12.011
7872	O=C	526	TMC3	O1	1	-0.57	15.9994
7873	O=C	526	TMC3	O2	1	-0.57	15.9994
7874	CB	527	MPD2	C	1	-0.15	12.011
7875	CB	527	MPD2	C1	1	0.117	12.011
7876	CB	527	MPD2	C2	1	-0.15	12.011
7877	CB	527	MPD2	C3	1	0.117	12.011
7878	CB	527	MPD2	C4	1	-0.15	12.011
7879	CB	527	MPD2	C5	1	-0.15	12.011
7880	HCMM	527	MPD2	H	1	0.15	1.0079
7881	HCMM	527	MPD2	H1	1	0.15	1.0079
7882	HCMM	527	MPD2	H2	1	0.15	1.0079
7883	HCMM	527	MPD2	H3	1	0.15	1.0079
7884	NC=O	527	MPD2	N	1	-0.547	14.0067
7885	HNCO	527	MPD2	H5	1	0.37	1.0079
7886	NC=O	527	MPD2	N1	1	-0.547	14.0067
7887	HNCO	527	MPD2	H7	1	0.37	1.0079
7888	CB	528	TMC3	C1	1	0.0862	12.011
7889	CB	528	TMC3	C2	1	-0.15	12.011
7890	CB	528	TMC3	C3	1	0.0862	12.011
7891	CB	528	TMC3	C4	1	-0.15	12.011
7892	CB	528	TMC3	C5	1	0.0862	12.011
7893	CB	528	TMC3	C6	1	-0.15	12.011
7894	C=O	528	TMC3	C	1	0.5438	12.011
7895	O=C	528	TMC3	O	1	-0.57	15.9994
7896	HCMM	528	TMC3	H	1	0.15	1.0079
7897	HCMM	528	TMC3	H1	1	0.15	1.0079
7898	HCMM	528	TMC3	H2	1	0.15	1.0079
7899	C=O	528	TMC3	C7	1	0.5438	12.011
7900	C=O	528	TMC3	C8	1	0.5438	12.011
7901	O=C	528	TMC3	O1	1	-0.57	15.9994
7902	O=C	528	TMC3	O2	1	-0.57	15.9994
7903	CB	529	MPD2	C	1	-0.15	12.011
7904	CB	529	MPD2	C1	1	0.117	12.011
7905	CB	529	MPD2	C2	1	-0.15	12.011
7906	CB	529	MPD2	C3	1	0.117	12.011
7907	CB	529	MPD2	C4	1	-0.15	12.011
7908	CB	529	MPD2	C5	1	-0.15	12.011
7909	HCMM	529	MPD2	H	1	0.15	1.0079
7910	HCMM	529	MPD2	H1	1	0.15	1.0079
7911	HCMM	529	MPD2	H2	1	0.15	1.0079
7912	HCMM	529	MPD2	H3	1	0.15	1.0079
7913	NC=O	529	MPD2	N	1	-0.547	14.0067
7914	HNCO	529	MPD2	H5	1	0.37	1.0079
7915	NC=O	529	MPD2	N1	1	-0.547	14.0067
7916	HNCO	529	MPD2	H7	1	0.37	1.0079
7917	CB	530	TMC3	C1	1	0.0862	12.011
7918	CB	530	TMC3	C2	1	-0.15	12.011
7919	CB	530	TMC3	C3	1	0.0862	12.011
7920	CB	530	TMC3	C4	1	-0.15	12.011
7921	CB	530	TMC3	C5	1	0.0862	12.011
7922	CB	530	TMC3	C6	1	-0.15	12.011
7923	C=O	530	TMC3	C	1	0.5438	12.011
7924	O=C	530	TMC3	O	1	-0.57	15.9994
7925	HCMM	530	TMC3	H	1	0.15	1.0079
7926	HCMM	530	TMC3	H1	1	0.15	1.0079
7927	HCMM	530	TMC3	H2	1	0.15	1.0079
7928	C=O	530	TMC3	C7	1	0.5438	12.011
7929	C=O	530	TMC3	C8	1	0.5438	12.011
7930	O=C	530	TMC3	O1	1	-0.57	15.9994
7931	O=C	530	TMC3	O2	1	-0.57	15.9994
7932	CB	531	MPD2	C	1	-0.15	12.011
7933	CB	531	MPD2	C1	1	0.117	12.011
7934	CB	531	MPD2	C2	1	-0.15	12.011
7935	CB	531	MPD2	C3	1	0.117	12.011
7936	CB	531	MPD2	C4	1	-0.15	12.011
7937	CB	531	MPD2	C5	1	-0.15	12.011
7938	HCMM	531	MPD2	H	1	0.15	1.0079
7939	HCMM	531	MPD2	H1	1	0.15	1.0079
7940	HCMM	531	MPD2	H2	1	0.15	1.0079
7941	HCMM	531	MPD2	H3	1	0.15	1.0079
7942	NC=O	531	MPD2	N	1	-0.547	14.0067
7943	HNCO	531	MPD2	H5	1	0.37	1.0079
7944	NC=O	531	MPD2	N1	1	-0.547	14.0067
7945	HNCO	531	MPD2	H7	1	0.37	1.0079
7946	CB	532	TMC3	C1	1	0.0862	12.011
7947	CB	532	TMC3	C2	1	-0.15	12.011
7948	CB	532	TMC3	C3	1	0.0862	12.011
7949	CB	532	TMC3	C4	1	-0.15	12.011
7950	CB	532	TMC3	C5	1	0.0862	12.011
7951	CB	532	TMC3	C6	1	-0.15	12.011
7952	C=O	532	TMC3	C	1	0.5438	12.011
7953	O=C	532	TMC3	O	1	-0.57	15.9994
7954	HCMM	532	TMC3	H	1	0.15	1.0079
7955	HCMM	532	TMC3	H1	1	0.15	1.0079
7956	HCMM	532	TMC3	H2	1	0.15	1.0079
7957	C=O	532	TMC3	C7	1	0.5438	12.011
7958	C=O	532	TMC3	C8	1	0.5438	12.011
7959	O=C	532	TMC3	O1	1	-0.57	15.9994
7960	O=C	532	TMC3	O2	1	-0.57	15.9994
7961	CB	533	TMC3	C1	1	0.0862	12.011
7962	CB	533	TMC3	C2	1	-0.15	12.011
7963	CB	533	TMC3	C3	1	0.0862	12.011
7964	CB	533	TMC3	C4	1	-0.15	12.011
7965	CB	533	TMC3	C5	1	0.0862	12.011
7966	CB	533	TMC3	C6	1	-0.15	12.011
7967	C=O	533	TMC3	C	1	0.5438	12.011
7968	O=C	533	TMC3	O	1	-0.57	15.9994
7969	HCMM	533	TMC3	H	1	0.15	1.0079
7970	HCMM	533	TMC3	H1	1	0.15	1.0079
7971	HCMM	533	TMC3	H2	1	0.15	1.0079
7972	C=O	533	TMC3	C7	1	0.5438	12.011
7973	C=O	533	TMC3	C8	1	0.5438	12.011
7974	O=C	533	TMC3	O1	1	-0.57	15.9994
7975	O=C	533	TMC3	O2	1	-0.57	15.9994
7976	CB	534	MPD2	C	1	-0.15	12.011
7977	CB	534	MPD2	C1	1	0.117	12.011
7978	CB	534	MPD2	C2	1	-0.15	12.011
7979	CB	534	MPD2	C3	1	0.117	12.011
7980	CB	534	MPD2	C4	1	-0.15	12.011
7981	CB	534	MPD2	C5	1	-0.15	12.011
7982	HCMM	534	MPD2	H	1	0.15	1.0079
7983	HCMM	534	MPD2	H1	1	0.15	1.0079
7984	HCMM	534	MPD2	H2	1	0.15	1.0079
7985	HCMM	534	MPD2	H3	1	0.15	1.0079
7986	NC=O	534	MPD2	N	1	-0.547	14.0067
7987	HNCO	534	MPD2	H5	1	0.37	1.0079
7988	NC=O	534	MPD2	N1	1	-0.547	14.0067
7989	HNCO	534	MPD2	H7	1	0.37	1.0079
7990	CB	535	TMC3	C1	1	0.0862	12.011
7991	CB	535	TMC3	C2	1	-0.15	12.011
7992	CB	535	TMC3	C3	1	0.0862	12.011
7993	CB	535	TMC3	C4	1	-0.15	12.011
7994	CB	535	TMC3	C5	1	0.0862	12.011
7995	CB	535	TMC3	C6	1	-0.15	12.011
7996	C=O	535	TMC3	C	1	0.5438	12.011
7997	O=C	535	TMC3	O	1	-0.57	15.9994
7998	HCMM	535	TMC3	H	1	0.15	1.0079
7999	HCMM	535	TMC3	H1	1	0.15	1.0079
8000	HCMM	535	TMC3	H2	1	0.15	1.0079
8001	C=O	535	TMC3	C7	1	0.5438	12.011
8002	C=O	535	TMC3	C8	1	0.5438	12.011
8003	O=C	535	TMC3	O1	1	-0.57	15.9994
8004	O=C	535	TMC3	O2	1	-0.57	15.9994
8005	CB	536	MPD2	C	1	-0.15	12.011
8006	CB	536	MPD2	C1	1	0.117	12.011
8007	CB	536	MPD2	C2	1	-0.15	12.011
8008	CB	536	MPD2	C3	1	0.117	12.011
8009	CB	536	MPD2	C4	1	-0.15	12.011
8010	CB	536	MPD2	C5	1	-0.15	12.011
8011	HCMM	536	MPD2	H	1	0.15	1.0079
8012	HCMM	536	MPD2	H1	1	0.15	1.0079
8013	HCMM	536	MPD2	H2	1	0.15	1.0079
8014	HCMM	536	MPD2	H3	1	0.15	1.0079
8015	NC=O	536	MPD2	N	1	-0.547	14.0067
8016	HNCO	536	MPD2	H5	1	0.37	1.0079
8017	NC=O	536	MPD2	N1	1	-0.547	14.0067
8018	HNCO	536	MPD2	H7	1	0.37	1.0079
8019	CB	537	TMC3	C1	1	0.0862	12.011
8020	CB	537	TMC3	C2	1	-0.15	12.011
8021	CB	537	TMC3	C3	1	0.0862	12.011
8022	CB	537	TMC3	C4	1	-0.15	12.011
8023	CB	537	TMC3	C5	1	0.0862	12.011
8024	CB	537	TMC3	C6	1	-0.15	12.011
8025	C=O	537	TMC3	C	1	0.5438	12.011
8026	O=C	537	TMC3	O	1	-0.57	15.9994
8027	HCMM	537	TMC3	H	1	0.15	1.0079
8028	HCMM	537	TMC3	H1	1	0.15	1.0079
8029	HCMM	537	TMC3	H2	1	0.15	1.0079
8030	C=O	537	TMC3	C7	1	0.5438	12.011
8031	C=O	537	TMC3	C8	1	0.5438	12.011
8032	O=C	537	TMC3	O1	1	-0.57	15.9994
8033	O=C	537	TMC3	O2	1	-0.57	15.9994
8034	CB	538	TMC3	C1	1	0.0862	12.011
8035	CB	538	TMC3	C2	1	-0.15	12.011
8036	CB	538	TMC3	C3	1	0.0862	12.011
8037	CB	538	TMC3	C4	1	-0.15	12.011
8038	CB	538	TMC3	C5	1	0.0862	12.011
8039	CB	538	TMC3	C6	1	-0.15	12.011
8040	C=O	538	TMC3	C	1	0.5438	12.011
8041	O=C	538	TMC3	O	1	-0.57	15.9994
8042	HCMM	538	TMC3	H	1	0.15	1.0079
8043	HCMM	538	TMC3	H1	1	0.15	1.0079
8044	HCMM	538	TMC3	H2	1	0.15	1.0079
8045	C=O	538	TMC3	C7	1	0.5438	12.011
8046	C=O	538	TMC3	C8	1	0.5438	12.011
8047	O=C	538	TMC3	O1	1	-0.57	15.9994
8048	O=C	538	TMC3	O2	1	-0.57	15.9994
8049	CB	539	MPD2	C	1	-0.15	12.011
8050	CB	539	MPD2	C1	1	0.117	12.011
8051	CB	539	MPD2	C2	1	-0.15	12.011
8052	CB	539	MPD2	C3	1	0.117	12.011
8053	CB	539	MPD2	C4	1	-0.15	12.011
8054	CB	539	MPD2	C5	1	-0.15	12.011
8055	HCMM	539	MPD2	H	1	0.15	1.0079
8056	HCMM	539	MPD2	H1	1	0.15	1.0079
8057	HCMM	539	MPD2	H2	1	0.15	1.0079
8058	HCMM	539	MPD2	H3	1	0.15	1.0079
8059	NC=O	539	MPD2	N	1	-0.547	14.0067
8060	HNCO	539	MPD2	H5	1	0.37	1.0079
8061	NC=O	539	MPD2	N1	1	-0.547	14.0067
8062	HNCO	539	MPD2	H7	1	0.37	1.0079
8063	CB	540	TMC3	C1	1	0.0862	12.011
8064	CB	540	TMC3	C2	1	-0.15	12.011
8065	CB	540	TMC3	C3	1	0.0862	12.011
8066	CB	540	TMC3	C4	1	-0.15	12.011
8067	CB	540	TMC3	C5	1	0.0862	12.011
8068	CB	540	TMC3	C6	1	-0.15	12.011
8069	C=O	540	TMC3	C	1	0.5438	12.011
8070	O=C	540	TMC3	O	1	-0.57	15.9994
8071	HCMM	540	TMC3	H	1	0.15	1.0079
8072	HCMM	540	TMC3	H1	1	0.15	1.0079
8073	HCMM	540	TMC3	H2	1	0.15	1.0079
8074	C=O	540	TMC3	C7	1	0.5438	12.011
8075	C=O	540	TMC3	C8	1	0.5438	12.011
8076	O=C	540	TMC3	O1	1	-0.57	15.9994
8077	O=C	540	TMC3	O2	1	-0.57	15.9994
8078	CB	541	MPD2	C	1	-0.15	12.011
8079	CB	541	MPD2	C1	1	0.117	12.011
8080	CB	541	MPD2	C2	1	-0.15	12.011
8081	CB	541	MPD2	C3	1	0.117	12.011
8082	CB	541	MPD2	C4	1	-0.15	12.011
8083	CB	541	MPD2	C5	1	-0.15	12.011
8084	HCMM	541	MPD2	H	1	0.15	1.0079
8085	HCMM	541	MPD2	H1	1	0.15	1.0079
8086	HCMM	541	MPD2	H2	1	0.15	1.0079
8087	HCMM	541	MPD2	H3	1	0.15	1.0079
8088	NC=O	541	MPD2	N	1	-0.547	14.0067
8089	HNCO	541	MPD2	H5	1	0.37	1.0079
8090	NC=O	541	MPD2	N1	1	-0.547	14.0067
8091	HNCO	541	MPD2	H7	1	0.37	1.0079
8092	CB	542	TMC3	C1	1	0.0862	12.011
8093	CB	542	TMC3	C2	1	-0.15	12.011
8094	CB	542	TMC3	C3	1	0.0862	12.011
8095	CB	542	TMC3	C4	1	-0.15	12.011
8096	CB	542	TMC3	C5	1	0.0862	12.011
8097	CB	542	TMC3	C6	1	-0.15	12.011
8098	C=O	542	TMC3	C	1	0.5438	12.011
8099	O=C	542	TMC3	O	1	-0.57	15.9994
8100	HCMM	542	TMC3	H	1	0.15	1.0079
8101	HCMM	542	TMC3	H1	1	0.15	1.0079
8102	HCMM	542	TMC3	H2	1	0.15	1.0079
8103	C=O	542	TMC3	C7	1	0.5438	12.011
8104	C=O	542	TMC3	C8	1	0.5438	12.011
8105	O=C	542	TMC3	O1	1	-0.57	15.9994
8106	O=C	542	TMC3	O2	1	-0.57	15.9994
8107	CB	543	TMC3	C1	1	0.0862	12.011
8108	CB	543	TMC3	C2	1	-0.15	12.011
8109	CB	543	TMC3	C3	1	0.0862	12.011
8110	CB	543	TMC3	C4	1	-0.15	12.011
8111	CB	543	TMC3	C5	1	0.0862	12.011
8112	CB	543	TMC3	C6	1	-0.15	12.011
8113	C=O	543	TMC3	C	1	0.5438	12.011
8114	O=C	543	TMC3	O	1	-0.57	15.9994
8115	HCMM	543	TMC3	H	1	0.15	1.0079
8116	HCMM	543	TMC3	H1	1	0.15	1.0079
8117	HCMM	543	TMC3	H2	1	0.15	1.0079
8118	C=O	543	TMC3	C7	1	0.5438	12.011
8119	C=O	543	TMC3	C8	1	0.5438	12.011
8120	O=C	543	TMC3	O1	1	-0.57	15.9994
8121	O=C	543	TMC3	O2	1	-0.57	15.9994
8122	CB	544	MPD2	C	1	-0.15	12.011
8123	CB	544	MPD2	C1	1	0.117	12.011
8124	CB	544	MPD2	C2	1	-0.15	12.011
8125	CB	544	MPD2	C3	1	0.117	12.011
8126	CB	544	MPD2	C4	1	-0.15	12.011
8127	CB	544	MPD2	C5	1	-0.15	12.011
8128	HCMM	544	MPD2	H	1	0.15	1.0079
8129	HCMM	544	MPD2	H1	1	0.15	1.0079
8130	HCMM	544	MPD2	H2	1	0.15	1.0079
8131	HCMM	544	MPD2	H3	1	0.15	1.0079
8132	NC=O	544	MPD2	N	1	-0.547	14.0067
8133	HNCO	544	MPD2	H5	1	0.37	1.0079
8134	NC=O	544	MPD2	N1	1	-0.547	14.0067
8135	HNCO	544	MPD2	H7	1	0.37	1.0079
8136	CB	545	TMC3	C1	1	0.0862	12.011
8137	CB	545	TMC3	C2	1	-0.15	12.011
8138	CB	545	TMC3	C3	1	0.0862	12.011
8139	CB	545	TMC3	C4	1	-0.15	12.011
8140	CB	545	TMC3	C5	1	0.0862	12.011
8141	CB	545	TMC3	C6	1	-0.15	12.011
8142	C=O	545	TMC3	C	1	0.5438	12.011
8143	O=C	545	TMC3	O	1	-0.57	15.9994
8144	HCMM	545	TMC3	H	1	0.15	1.0079
8145	HCMM	545	TMC3	H1	1	0.15	1.0079
8146	HCMM	545	TMC3	H2	1	0.15	1.0079
8147	C=O	545	TMC3	C7	1	0.5438	12.011
8148	C=O	545	TMC3	C8	1	0.5438	12.011
8149	O=C	545	TMC3	O1	1	-0.57	15.9994
8150	O=C	545	TMC3	O2	1	-0.57	15.9994
8151	CB	546	MPD2	C	1	-0.15	12.011
8152	CB	546	MPD2	C1	1	0.117	12.011
8153	CB	546	MPD2	C2	1	-0.15	12.011
8154	CB	546	MPD2	C3	1	0.117	12.011
8155	CB	546	MPD2	C4	1	-0.15	12.011
8156	CB	546	MPD2	C5	1	-0.15	12.011
8157	HCMM	546	MPD2	H	1	0.15	1.0079
8158	HCMM	546	MPD2	H1	1	0.15	1.0079
8159	HCMM	546	MPD2	H2	1	0.15	1.0079
8160	HCMM	546	MPD2	H3	1	0.15	1.0079
8161	NC=O	546	MPD2	N	1	-0.547	14.0067
8162	HNCO	546	MPD2	H5	1	0.37	1.0079
8163	NC=O	546	MPD2	N1	1	-0.547	14.0067
8164	HNCO	546	MPD2	H7	1	0.37	1.0079
8165	CB	547	TMC3	C1	1	0.0862	12.011
8166	CB	547	TMC3	C2	1	-0.15	12.011
8167	CB	547	TMC3	C3	1	0.0862	12.011
8168	CB	547	TMC3	C4	1	-0.15	12.011
8169	CB	547	TMC3	C5	1	0.0862	12.011
8170	CB	547	TMC3	C6	1	-0.15	12.011
8171	C=O	547	TMC3	C	1	0.5438	12.011
8172	O=C	547	TMC3	O	1	-0.57	15.9994
8173	HCMM	547	TMC3	H	1	0.15	1.0079
8174	HCMM	547	TMC3	H1	1	0.15	1.0079
8175	HCMM	547	TMC3	H2	1	0.15	1.0079
8176	C=O	547	TMC3	C7	1	0.5438	12.011
8177	C=O	547	TMC3	C8	1	0.5438	12.011
8178	O=C	547	TMC3	O1	1	-0.57	15.9994
8179	O=C	547	TMC3	O2	1	-0.57	15.9994
8180	CB	548	MPD2	C	1	-0.15	12.011
8181	CB	548	MPD2	C1	1	0.117	12.011
8182	CB	548	MPD2	C2	1	-0.15	12.011
8183	CB	548	MPD2	C3	1	0.117	12.011
8184	CB	548	MPD2	C4	1	-0.15	12.011
8185	CB	548	MPD2	C5	1	-0.15	12.011
8186	HCMM	548	MPD2	H	1	0.15	1.0079
8187	HCMM	548	MPD2	H1	1	0.15	1.0079
8188	HCMM	548	MPD2	H2	1	0.15	1.0079
8189	HCMM	548	MPD2	H3	1	0.15	1.0079
8190	NC=O	548	MPD2	N	1	-0.547	14.0067
8191	HNCO	548	MPD2	H5	1	0.37	1.0079
8192	NC=O	548	MPD2	N1	1	-0.547	14.0067
8193	HNCO	548	MPD2	H7	1	0.37	1.0079
8194	CB	549	TMC3	C1	1	0.0862	12.011
8195	CB	549	TMC3	C2	1	-0.15	12.011
8196	CB	549	TMC3	C3	1	0.0862	12.011
8197	CB	549	TMC3	C4	1	-0.15	12.011
8198	CB	549	TMC3	C5	1	0.0862	12.011
8199	CB	549	TMC3	C6	1	-0.15	12.011
8200	C=O	549	TMC3	C	1	0.5438	12.011
8201	O=C	549	TMC3	O	1	-0.57	15.9994
8202	HCMM	549	TMC3	H	1	0.15	1.0079
8203	HCMM	549	TMC3	H1	1	0.15	1.0079
8204	HCMM	549	TMC3	H2	1	0.15	1.0079
8205	C=O	549	TMC3	C7	1	0.5438	12.011
8206	C=O	549	TMC3	C8	1	0.5438	12.011
8207	O=C	549	TMC3	O1	1	-0.57	15.9994
8208	O=C	549	TMC3	O2	1	-0.57	15.9994
8209	CB	550	TMC3	C1	1	0.0862	12.011
8210	CB	550	TMC3	C2	1	-0.15	12.011
8211	CB	550	TMC3	C3	1	0.0862	12.011
8212	CB	550	TMC3	C4	1	-0.15	12.011
8213	CB	550	TMC3	C5	1	0.0862	12.011
8214	CB	550	TMC3	C6	1	-0.15	12.011
8215	C=O	550	TMC3	C	1	0.5438	12.011
8216	O=C	550	TMC3	O	1	-0.57	15.9994
8217	HCMM	550	TMC3	H	1	0.15	1.0079
8218	HCMM	550	TMC3	H1	1	0.15	1.0079
8219	HCMM	550	TMC3	H2	1	0.15	1.0079
8220	C=O	550	TMC3	C7	1	0.5438	12.011
8221	C=O	550	TMC3	C8	1	0.5438	12.011
8222	O=C	550	TMC3	O1	1	-0.57	15.9994
8223	O=C	550	TMC3	O2	1	-0.57	15.9994
8224	CB	551	TMC3	C1	1	0.0862	12.011
8225	CB	551	TMC3	C2	1	-0.15	12.011
8226	CB	551	TMC3	C3	1	0.0862	12.011
8227	CB	551	TMC3	C4	1	-0.15	12.011
8228	CB	551	TMC3	C5	1	0.0862	12.011
8229	CB	551	TMC3	C6	1	-0.15	12.011
8230	C=O	551	TMC3	C	1	0.5438	12.011
8231	O=C	551	TMC3	O	1	-0.57	15.9994
8232	HCMM	551	TMC3	H	1	0.15	1.0079
8233	HCMM	551	TMC3	H1	1	0.15	1.0079
8234	HCMM	551	TMC3	H2	1	0.15	1.0079
8235	C=O	551	TMC3	C7	1	0.5438	12.011
8236	C=O	551	TMC3	C8	1	0.5438	12.011
8237	O=C	551	TMC3	O1	1	-0.57	15.9994
8238	O=C	551	TMC3	O2	1	-0.57	15.9994
8239	CB	552	MPD2	C	1	-0.15	12.011
8240	CB	552	MPD2	C1	1	0.117	12.011
8241	CB	552	MPD2	C2	1	-0.15	12.011
8242	CB	552	MPD2	C3	1	0.117	12.011
8243	CB	552	MPD2	C4	1	-0.15	12.011
8244	CB	552	MPD2	C5	1	-0.15	12.011
8245	HCMM	552	MPD2	H	1	0.15	1.0079
8246	HCMM	552	MPD2	H1	1	0.15	1.0079
8247	HCMM	552	MPD2	H2	1	0.15	1.0079
8248	HCMM	552	MPD2	H3	1	0.15	1.0079
8249	NC=O	552	MPD2	N	1	-0.547	14.0067
8250	HNCO	552	MPD2	H5	1	0.37	1.0079
8251	NC=O	552	MPD2	N1	1	-0.547	14.0067
8252	HNCO	552	MPD2	H7	1	0.37	1.0079
8253	CB	553	TMC3	C1	1	0.0862	12.011
8254	CB	553	TMC3	C2	1	-0.15	12.011
8255	CB	553	TMC3	C3	1	0.0862	12.011
8256	CB	553	TMC3	C4	1	-0.15	12.011
8257	CB	553	TMC3	C5	1	0.0862	12.011
8258	CB	553	TMC3	C6	1	-0.15	12.011
8259	C=O	553	TMC3	C	1	0.5438	12.011
8260	O=C	553	TMC3	O	1	-0.57	15.9994
8261	HCMM	553	TMC3	H	1	0.15	1.0079
8262	HCMM	553	TMC3	H1	1	0.15	1.0079
8263	HCMM	553	TMC3	H2	1	0.15	1.0079
8264	C=O	553	TMC3	C7	1	0.5438	12.011
8265	C=O	553	TMC3	C8	1	0.5438	12.011
8266	O=C	553	TMC3	O1	1	-0.57	15.9994
8267	O=C	553	TMC3	O2	1	-0.57	15.9994
8268	CB	554	TMC3	C1	1	0.0862	12.011
8269	CB	554	TMC3	C2	1	-0.15	12.011
8270	CB	554	TMC3	C3	1	0.0862	12.011
8271	CB	554	TMC3	C4	1	-0.15	12.011
8272	CB	554	TMC3	C5	1	0.0862	12.011
8273	CB	554	TMC3	C6	1	-0.15	12.011
8274	C=O	554	TMC3	C	1	0.5438	12.011
8275	O=C	554	TMC3	O	1	-0.57	15.9994
8276	HCMM	554	TMC3	H	1	0.15	1.0079
8277	HCMM	554	TMC3	H1	1	0.15	1.0079
8278	HCMM	554	TMC3	H2	1	0.15	1.0079
8279	C=O	554	TMC3	C7	1	0.5438	12.011
8280	C=O	554	TMC3	C8	1	0.5438	12.011
8281	O=C	554	TMC3	O1	1	-0.57	15.9994
8282	O=C	554	TMC3	O2	1	-0.57	15.9994
8283	CB	555	TMC3	C1	1	0.0862	12.011
8284	CB	555	TMC3	C2	1	-0.15	12.011
8285	CB	555	TMC3	C3	1	0.0862	12.011
8286	CB	555	TMC3	C4	1	-0.15	12.011
8287	CB	555	TMC3	C5	1	0.0862	12.011
8288	CB	555	TMC3	C6	1	-0.15	12.011
8289	C=O	555	TMC3	C	1	0.5438	12.011
8290	O=C	555	TMC3	O	1	-0.57	15.9994
8291	HCMM	555	TMC3	H	1	0.15	1.0079
8292	HCMM	555	TMC3	H1	1	0.15	1.0079
8293	HCMM	555	TMC3	H2	1	0.15	1.0079
8294	C=O	555	TMC3	C7	1	0.5438	12.011
8295	C=O	555	TMC3	C8	1	0.5438	12.011
8296	O=C	555	TMC3	O1	1	-0.57	15.9994
8297	O=C	555	TMC3	O2	1	-0.57	15.9994
8298	CB	556	MPD2	C	1	-0.15	12.011
8299	CB	556	MPD2	C1	1	0.117	12.011
8300	CB	556	MPD2	C2	1	-0.15	12.011
8301	CB	556	MPD2	C3	1	0.117	12.011
8302	CB	556	MPD2	C4	1	-0.15	12.011
8303	CB	556	MPD2	C5	1	-0.15	12.011
8304	HCMM	556	MPD2	H	1	0.15	1.0079
8305	HCMM	556	MPD2	H1	1	0.15	1.0079
8306	HCMM	556	MPD2	H2	1	0.15	1.0079
8307	HCMM	556	MPD2	H3	1	0.15	1.0079
8308	NC=O	556	MPD2	N	1	-0.547	14.0067
8309	HNCO	556	MPD2	H5	1	0.37	1.0079
8310	NC=O	556	MPD2	N1	1	-0.547	14.0067
8311	HNCO	556	MPD2	H7	1	0.37	1.0079
8312	CB	557	TMC3	C1	1	0.0862	12.011
8313	CB	557	TMC3	C2	1	-0.15	12.011
8314	CB	557	TMC3	C3	1	0.0862	12.011
8315	CB	557	TMC3	C4	1	-0.15	12.011
8316	CB	557	TMC3	C5	1	0.0862	12.011
8317	CB	557	TMC3	C6	1	-0.15	12.011
8318	C=O	557	TMC3	C	1	0.5438	12.011
8319	O=C	557	TMC3	O	1	-0.57	15.9994
8320	HCMM	557	TMC3	H	1	0.15	1.0079
8321	HCMM	557	TMC3	H1	1	0.15	1.0079
8322	HCMM	557	TMC3	H2	1	0.15	1.0079
8323	C=O	557	TMC3	C7	1	0.5438	12.011
8324	C=O	557	TMC3	C8	1	0.5438	12.011
8325	O=C	557	TMC3	O1	1	-0.57	15.9994
8326	O=C	557	TMC3	O2	1	-0.57	15.9994
8327	CB	558	TMC3	C1	1	0.0862	12.011
8328	CB	558	TMC3	C2	1	-0.15	12.011
8329	CB	558	TMC3	C3	1	0.0862	12.011
8330	CB	558	TMC3	C4	1	-0.15	12.011
8331	CB	558	TMC3	C5	1	0.0862	12.011
8332	CB	558	TMC3	C6	1	-0.15	12.011
8333	C=O	558	TMC3	C	1	0.5438	12.011
8334	O=C	558	TMC3	O	1	-0.57	15.9994
8335	HCMM	558	TMC3	H	1	0.15	1.0079
8336	HCMM	558	TMC3	H1	1	0.15	1.0079
8337	HCMM	558	TMC3	H2	1	0.15	1.0079
8338	C=O	558	TMC3	C7	1	0.5438	12.011
8339	C=O	558	TMC3	C8	1	0.5438	12.011
8340	O=C	558	TMC3	O1	1	-0.57	15.9994
8341	O=C	558	TMC3	O2	1	-0.57	15.9994
8342	CB	559	MPD2	C	1	-0.15	12.011
8343	CB	559	MPD2	C1	1	0.117	12.011
8344	CB	559	MPD2	C2	1	-0.15	12.011
8345	CB	559	MPD2	C3	1	0.117	12.011
8346	CB	559	MPD2	C4	1	-0.15	12.011
8347	CB	559	MPD2	C5	1	-0.15	12.011
8348	HCMM	559	MPD2	H	1	0.15	1.0079
8349	HCMM	559	MPD2	H1	1	0.15	1.0079
8350	HCMM	559	MPD2	H2	1	0.15	1.0079
8351	HCMM	559	MPD2	H3	1	0.15	1.0079
8352	NC=O	559	MPD2	N	1	-0.547	14.0067
8353	HNCO	559	MPD2	H5	1	0.37	1.0079
8354	NC=O	559	MPD2	N1	1	-0.547	14.0067
8355	HNCO	559	MPD2	H7	1	0.37	1.0079
8356	CB	560	TMC3	C1	1	0.0862	12.011
8357	CB	560	TMC3	C2	1	-0.15	12.011
8358	CB	560	TMC3	C3	1	0.0862	12.011
8359	CB	560	TMC3	C4	1	-0.15	12.011
8360	CB	560	TMC3	C5	1	0.0862	12.011
8361	CB	560	TMC3	C6	1	-0.15	12.011
8362	C=O	560	TMC3	C	1	0.5438	12.011
8363	O=C	560	TMC3	O	1	-0.57	15.9994
8364	HCMM	560	TMC3	H	1	0.15	1.0079
8365	HCMM	560	TMC3	H1	1	0.15	1.0079
8366	HCMM	560	TMC3	H2	1	0.15	1.0079
8367	C=O	560	TMC3	C7	1	0.5438	12.011
8368	C=O	560	TMC3	C8	1	0.5438	12.011
8369	O=C	560	TMC3	O1	1	-0.57	15.9994
8370	O=C	560	TMC3	O2	1	-0.57	15.9994
8371	CB	561	TMC3	C1	1	0.0862	12.011
8372	CB	561	TMC3	C2	1	-0.15	12.011
8373	CB	561	TMC3	C3	1	0.0862	12.011
8374	CB	561	TMC3	C4	1	-0.15	12.011
8375	CB	561	TMC3	C5	1	0.0862	12.011
8376	CB	561	TMC3	C6	1	-0.15	12.011
8377	C=O	561	TMC3	C	1	0.5438	12.011
8378	O=C	561	TMC3	O	1	-0.57	15.9994
8379	HCMM	561	TMC3	H	1	0.15	1.0079
8380	HCMM	561	TMC3	H1	1	0.15	1.0079
8381	HCMM	561	TMC3	H2	1	0.15	1.0079
8382	C=O	561	TMC3	C7	1	0.5438	12.011
8383	C=O	561	TMC3	C8	1	0.5438	12.011
8384	O=C	561	TMC3	O1	1	-0.57	15.9994
8385	O=C	561	TMC3	O2	1	-0.57	15.9994
8386	CB	562	TMC3	C1	1	0.0862	12.011
8387	CB	562	TMC3	C2	1	-0.15	12.011
8388	CB	562	TMC3	C3	1	0.0862	12.011
8389	CB	562	TMC3	C4	1	-0.15	12.011
8390	CB	562	TMC3	C5	1	0.0862	12.011
8391	CB	562	TMC3	C6	1	-0.15	12.011
8392	C=O	562	TMC3	C	1	0.5438	12.011
8393	O=C	562	TMC3	O	1	-0.57	15.9994
8394	HCMM	562	TMC3	H	1	0.15	1.0079
8395	HCMM	562	TMC3	H1	1	0.15	1.0079
8396	HCMM	562	TMC3	H2	1	0.15	1.0079
8397	C=O	562	TMC3	C7	1	0.5438	12.011
8398	C=O	562	TMC3	C8	1	0.5438	12.011
8399	O=C	562	TMC3	O1	1	-0.57	15.9994
8400	O=C	562	TMC3	O2	1	-0.57	15.9994
8401	CB	563	MPD2	C	1	-0.15	12.011
8402	CB	563	MPD2	C1	1	0.117	12.011
8403	CB	563	MPD2	C2	1	-0.15	12.011
8404	CB	563	MPD2	C3	1	0.117	12.011
8405	CB	563	MPD2	C4	1	-0.15	12.011
8406	CB	563	MPD2	C5	1	-0.15	12.011
8407	HCMM	563	MPD2	H	1	0.15	1.0079
8408	HCMM	563	MPD2	H1	1	0.15	1.0079
8409	HCMM	563	MPD2	H2	1	0.15	1.0079
8410	HCMM	563	MPD2	H3	1	0.15	1.0079
8411	NC=O	563	MPD2	N	1	-0.547	14.0067
8412	HNCO	563	MPD2	H5	1	0.37	1.0079
8413	NC=O	563	MPD2	N1	1	-0.547	14.0067
8414	HNCO	563	MPD2	H7	1	0.37	1.0079
8415	CB	564	TMC3	C1	1	0.0862	12.011
8416	CB	564	TMC3	C2	1	-0.15	12.011
8417	CB	564	TMC3	C3	1	0.0862	12.011
8418	CB	564	TMC3	C4	1	-0.15	12.011
8419	CB	564	TMC3	C5	1	0.0862	12.011
8420	CB	564	TMC3	C6	1	-0.15	12.011
8421	C=O	564	TMC3	C	1	0.5438	12.011
8422	O=C	564	TMC3	O	1	-0.57	15.9994
8423	HCMM	564	TMC3	H	1	0.15	1.0079
8424	HCMM	564	TMC3	H1	1	0.15	1.0079
8425	HCMM	564	TMC3	H2	1	0.15	1.0079
8426	C=O	564	TMC3	C7	1	0.5438	12.011
8427	C=O	564	TMC3	C8	1	0.5438	12.011
8428	O=C	564	TMC3	O1	1	-0.57	15.9994
8429	O=C	564	TMC3	O2	1	-0.57	15.9994
8430	CB	565	TMC3	C1	1	0.0862	12.011
8431	CB	565	TMC3	C2	1	-0.15	12.011
8432	CB	565	TMC3	C3	1	0.0862	12.011
8433	CB	565	TMC3	C4	1	-0.15	12.011
8434	CB	565	TMC3	C5	1	0.0862	12.011
8435	CB	565	TMC3	C6	1	-0.15	12.011
8436	C=O	565	TMC3	C	1	0.5438	12.011
8437	O=C	565	TMC3	O	1	-0.57	15.9994
8438	HCMM	565	TMC3	H	1	0.15	1.0079
8439	HCMM	565	TMC3	H1	1	0.15	1.0079
8440	HCMM	565	TMC3	H2	1	0.15	1.0079
8441	C=O	565	TMC3	C7	1	0.5438	12.011
8442	C=O	565	TMC3	C8	1	0.5438	12.011
8443	O=C	565	TMC3	O1	1	-0.57	15.9994
8444	O=C	565	TMC3	O2	1	-0.57	15.9994
8445	CB	566	MPD2	C	1	-0.15	12.011
8446	CB	566	MPD2	C1	1	0.117	12.011
8447	CB	566	MPD2	C2	1	-0.15	12.011
8448	CB	566	MPD2	C3	1	0.117	12.011
8449	CB	566	MPD2	C4	1	-0.15	12.011
8450	CB	566	MPD2	C5	1	-0.15	12.011
8451	HCMM	566	MPD2	H	1	0.15	1.0079
8452	HCMM	566	MPD2	H1	1	0.15	1.0079
8453	HCMM	566	MPD2	H2	1	0.15	1.0079
8454	HCMM	566	MPD2	H3	1	0.15	1.0079
8455	NC=O	566	MPD2	N	1	-0.547	14.0067
8456	HNCO	566	MPD2	H5	1	0.37	1.0079
8457	NC=O	566	MPD2	N1	1	-0.547	14.0067
8458	HNCO	566	MPD2	H7	1	0.37	1.0079
8459	CB	567	TMC3	C1	1	0.0862	12.011
8460	CB	567	TMC3	C2	1	-0.15	12.011
8461	CB	567	TMC3	C3	1	0.0862	12.011
8462	CB	567	TMC3	C4	1	-0.15	12.011
8463	CB	567	TMC3	C5	1	0.0862	12.011
8464	CB	567	TMC3	C6	1	-0.15	12.011
8465	C=O	567	TMC3	C	1	0.5438	12.011
8466	O=C	567	TMC3	O	1	-0.57	15.9994
8467	HCMM	567	TMC3	H	1	0.15	1.0079
8468	HCMM	567	TMC3	H1	1	0.15	1.0079
8469	HCMM	567	TMC3	H2	1	0.15	1.0079
8470	C=O	567	TMC3	C7	1	0.5438	12.011
8471	C=O	567	TMC3	C8	1	0.5438	12.011
8472	O=C	567	TMC3	O1	1	-0.57	15.9994
8473	O=C	567	TMC3	O2	1	-0.57	15.9994
8474	CB	568	MPD2	C	1	-0.15	12.011
8475	CB	568	MPD2	C1	1	0.117	12.011
8476	CB	568	MPD2	C2	1	-0.15	12.011
8477	CB	568	MPD2	C3	1	0.117	12.011
8478	CB	568	MPD2	C4	1	-0.15	12.011
8479	CB	568	MPD2	C5	1	-0.15	12.011
8480	HCMM	568	MPD2	H	1	0.15	1.0079
8481	HCMM	568	MPD2	H1	1	0.15	1.0079
8482	HCMM	568	MPD2	H2	1	0.15	1.0079
8483	HCMM	568	MPD2	H3	1	0.15	1.0079
8484	NC=O	568	MPD2	N	1	-0.547	14.0067
8485	HNCO	568	MPD2	H5	1	0.37	1.0079
8486	NC=O	568	MPD2	N1	1	-0.547	14.0067
8487	HNCO	568	MPD2	H7	1	0.37	1.0079
8488	CB	569	TMC3	C1	1	0.0862	12.011
8489	CB	569	TMC3	C2	1	-0.15	12.011
8490	CB	569	TMC3	C3	1	0.0862	12.011
8491	CB	569	TMC3	C4	1	-0.15	12.011
8492	CB	569	TMC3	C5	1	0.0862	12.011
8493	CB	569	TMC3	C6	1	-0.15	12.011
8494	C=O	569	TMC3	C	1	0.5438	12.011
8495	O=C	569	TMC3	O	1	-0.57	15.9994
8496	HCMM	569	TMC3	H	1	0.15	1.0079
8497	HCMM	569	TMC3	H1	1	0.15	1.0079
8498	HCMM	569	TMC3	H2	1	0.15	1.0079
8499	C=O	569	TMC3	C7	1	0.5438	12.011
8500	C=O	569	TMC3	C8	1	0.5438	12.011
8501	O=C	569	TMC3	O1	1	-0.57	15.9994
8502	O=C	569	TMC3	O2	1	-0.57	15.9994
8503	CB	570	TMC3	C1	1	0.0862	12.011
8504	CB	570	TMC3	C2	1	-0.15	12.011
8505	CB	570	TMC3	C3	1	0.0862	12.011
8506	CB	570	TMC3	C4	1	-0.15	12.011
8507	CB	570	TMC3	C5	1	0.0862	12.011
8508	CB	570	TMC3	C6	1	-0.15	12.011
8509	C=O	570	TMC3	C	1	0.5438	12.011
8510	O=C	570	TMC3	O	1	-0.57	15.9994
8511	HCMM	570	TMC3	H	1	0.15	1.0079
8512	HCMM	570	TMC3	H1	1	0.15	1.0079
8513	HCMM	570	TMC3	H2	1	0.15	1.0079
8514	C=O	570	TMC3	C7	1	0.5438	12.011
8515	C=O	570	TMC3	C8	1	0.5438	12.011
8516	O=C	570	TMC3	O1	1	-0.57	15.9994
8517	O=C	570	TMC3	O2	1	-0.57	15.9994
8518	CB	571	MPD2	C	1	-0.15	12.011
8519	CB	571	MPD2	C1	1	0.117	12.011
8520	CB	571	MPD2	C2	1	-0.15	12.011
8521	CB	571	MPD2	C3	1	0.117	12.011
8522	CB	571	MPD2	C4	1	-0.15	12.011
8523	CB	571	MPD2	C5	1	-0.15	12.011
8524	HCMM	571	MPD2	H	1	0.15	1.0079
8525	HCMM	571	MPD2	H1	1	0.15	1.0079
8526	HCMM	571	MPD2	H2	1	0.15	1.0079
8527	HCMM	571	MPD2	H3	1	0.15	1.0079
8528	NC=O	571	MPD2	N	1	-0.547	14.0067
8529	HNCO	571	MPD2	H5	1	0.37	1.0079
8530	NC=O	571	MPD2	N1	1	-0.547	14.0067
8531	HNCO	571	MPD2	H7	1	0.37	1.0079
8532	CB	572	TMC3	C1	1	0.0862	12.011
8533	CB	572	TMC3	C2	1	-0.15	12.011
8534	CB	572	TMC3	C3	1	0.0862	12.011
8535	CB	572	TMC3	C4	1	-0.15	12.011
8536	CB	572	TMC3	C5	1	0.0862	12.011
8537	CB	572	TMC3	C6	1	-0.15	12.011
8538	C=O	572	TMC3	C	1	0.5438	12.011
8539	O=C	572	TMC3	O	1	-0.57	15.9994
8540	HCMM	572	TMC3	H	1	0.15	1.0079
8541	HCMM	572	TMC3	H1	1	0.15	1.0079
8542	HCMM	572	TMC3	H2	1	0.15	1.0079
8543	C=O	572	TMC3	C7	1	0.5438	12.011
8544	C=O	572	TMC3	C8	1	0.5438	12.011
8545	O=C	572	TMC3	O1	1	-0.57	15.9994
8546	O=C	572	TMC3	O2	1	-0.57	15.9994
8547	CB	573	MPD2	C	1	-0.15	12.011
8548	CB	573	MPD2	C1	1	0.117	12.011
8549	CB	573	MPD2	C2	1	-0.15	12.011
8550	CB	573	MPD2	C3	1	0.117	12.011
8551	CB	573	MPD2	C4	1	-0.15	12.011
8552	CB	573	MPD2	C5	1	-0.15	12.011
8553	HCMM	573	MPD2	H	1	0.15	1.0079
8554	HCMM	573	MPD2	H1	1	0.15	1.0079
8555	HCMM	573	MPD2	H2	1	0.15	1.0079
8556	HCMM	573	MPD2	H3	1	0.15	1.0079
8557	NC=O	573	MPD2	N	1	-0.547	14.0067
8558	HNCO	573	MPD2	H5	1	0.37	1.0079
8559	NC=O	573	MPD2	N1	1	-0.547	14.0067
8560	HNCO	573	MPD2	H7	1	0.37	1.0079
8561	CB	574	TMC3	C1	1	0.0862	12.011
8562	CB	574	TMC3	C2	1	-0.15	12.011
8563	CB	574	TMC3	C3	1	0.0862	12.011
8564	CB	574	TMC3	C4	1	-0.15	12.011
8565	CB	574	TMC3	C5	1	0.0862	12.011
8566	CB	574	TMC3	C6	1	-0.15	12.011
8567	C=O	574	TMC3	C	1	0.5438	12.011
8568	O=C	574	TMC3	O	1	-0.57	15.9994
8569	HCMM	574	TMC3	H	1	0.15	1.0079
8570	HCMM	574	TMC3	H1	1	0.15	1.0079
8571	HCMM	574	TMC3	H2	1	0.15	1.0079
8572	C=O	574	TMC3	C7	1	0.5438	12.011
8573	C=O	574	TMC3	C8	1	0.5438	12.011
8574	O=C	574	TMC3	O1	1	-0.57	15.9994
8575	O=C	574	TMC3	O2	1	-0.57	15.9994
8576	CB	575	TMC3	C1	1	0.0862	12.011
8577	CB	575	TMC3	C2	1	-0.15	12.011
8578	CB	575	TMC3	C3	1	0.0862	12.011
8579	CB	575	TMC3	C4	1	-0.15	12.011
8580	CB	575	TMC3	C5	1	0.0862	12.011
8581	CB	575	TMC3	C6	1	-0.15	12.011
8582	C=O	575	TMC3	C	1	0.5438	12.011
8583	O=C	575	TMC3	O	1	-0.57	15.9994
8584	HCMM	575	TMC3	H	1	0.15	1.0079
8585	HCMM	575	TMC3	H1	1	0.15	1.0079
8586	HCMM	575	TMC3	H2	1	0.15	1.0079
8587	C=O	575	TMC3	C7	1	0.5438	12.011
8588	C=O	575	TMC3	C8	1	0.5438	12.011
8589	O=C	575	TMC3	O1	1	-0.57	15.9994
8590	O=C	575	TMC3	O2	1	-0.57	15.9994
8591	CB	576	MPD2	C	1	-0.15	12.011
8592	CB	576	MPD2	C1	1	0.117	12.011
8593	CB	576	MPD2	C2	1	-0.15	12.011
8594	CB	576	MPD2	C3	1	0.117	12.011
8595	CB	576	MPD2	C4	1	-0.15	12.011
8596	CB	576	MPD2	C5	1	-0.15	12.011
8597	HCMM	576	MPD2	H	1	0.15	1.0079
8598	HCMM	576	MPD2	H1	1	0.15	1.0079
8599	HCMM	576	MPD2	H2	1	0.15	1.0079
8600	HCMM	576	MPD2	H3	1	0.15	1.0079
8601	NC=O	576	MPD2	N	1	-0.547	14.0067
8602	HNCO	576	MPD2	H5	1	0.37	1.0079
8603	NC=O	576	MPD2	N1	1	-0.547	14.0067
8604	HNCO	576	MPD2	H7	1	0.37	1.0079
8605	CB	577	TMC3	C1	1	0.0862	12.011
8606	CB	577	TMC3	C2	1	-0.15	12.011
8607	CB	577	TMC3	C3	1	0.0862	12.011
8608	CB	577	TMC3	C4	1	-0.15	12.011
8609	CB	577	TMC3	C5	1	0.0862	12.011
8610	CB	577	TMC3	C6	1	-0.15	12.011
8611	C=O	577	TMC3	C	1	0.5438	12.011
8612	O=C	577	TMC3	O	1	-0.57	15.9994
8613	HCMM	577	TMC3	H	1	0.15	1.0079
8614	HCMM	577	TMC3	H1	1	0.15	1.0079
8615	HCMM	577	TMC3	H2	1	0.15	1.0079
8616	C=O	577	TMC3	C7	1	0.5438	12.011
8617	C=O	577	TMC3	C8	1	0.5438	12.011
8618	O=C	577	TMC3	O1	1	-0.57	15.9994
8619	O=C	577	TMC3	O2	1	-0.57	15.9994
8620	CB	578	MPD2	C	1	-0.15	12.011
8621	CB	578	MPD2	C1	1	0.117	12.011
8622	CB	578	MPD2	C2	1	-0.15	12.011
8623	CB	578	MPD2	C3	1	0.117	12.011
8624	CB	578	MPD2	C4	1	-0.15	12.011
8625	CB	578	MPD2	C5	1	-0.15	12.011
8626	HCMM	578	MPD2	H	1	0.15	1.0079
8627	HCMM	578	MPD2	H1	1	0.15	1.0079
8628	HCMM	578	MPD2	H2	1	0.15	1.0079
8629	HCMM	578	MPD2	H3	1	0.15	1.0079
8630	NC=O	578	MPD2	N	1	-0.547	14.0067
8631	HNCO	578	MPD2	H5	1	0.37	1.0079
8632	NC=O	578	MPD2	N1	1	-0.547	14.0067
8633	HNCO	578	MPD2	H7	1	0.37	1.0079
8634	CB	579	TMC3	C1	1	0.0862	12.011
8635	CB	579	TMC3	C2	1	-0.15	12.011
8636	CB	579	TMC3	C3	1	0.0862	12.011
8637	CB	579	TMC3	C4	1	-0.15	12.011
8638	CB	579	TMC3	C5	1	0.0862	12.011
8639	CB	579	TMC3	C6	1	-0.15	12.011
8640	C=O	579	TMC3	C	1	0.5438	12.011
8641	O=C	579	TMC3	O	1	-0.57	15.9994
8642	HCMM	579	TMC3	H	1	0.15	1.0079
8643	HCMM	579	TMC3	H1	1	0.15	1.0079
8644	HCMM	579	TMC3	H2	1	0.15	1.0079
8645	C=O	579	TMC3	C7	1	0.5438	12.011
8646	C=O	579	TMC3	C8	1	0.5438	12.011
8647	O=C	579	TMC3	O1	1	-0.57	15.9994
8648	O=C	579	TMC3	O2	1	-0.57	15.9994
8649	CB	580	TMC3	C1	1	0.0862	12.011
8650	CB	580	TMC3	C2	1	-0.15	12.011
8651	CB	580	TMC3	C3	1	0.0862	12.011
8652	CB	580	TMC3	C4	1	-0.15	12.011
8653	CB	580	TMC3	C5	1	0.0862	12.011
8654	CB	580	TMC3	C6	1	-0.15	12.011
8655	C=O	580	TMC3	C	1	0.5438	12.011
8656	O=C	580	TMC3	O	1	-0.57	15.9994
8657	HCMM	580	TMC3	H	1	0.15	1.0079
8658	HCMM	580	TMC3	H1	1	0.15	1.0079
8659	HCMM	580	TMC3	H2	1	0.15	1.0079
8660	C=O	580	TMC3	C7	1	0.5438	12.011
8661	C=O	580	TMC3	C8	1	0.5438	12.011
8662	O=C	580	TMC3	O1	1	-0.57	15.9994
8663	O=C	580	TMC3	O2	1	-0.57	15.9994
8664	CB	581	MPD2	C	1	-0.15	12.011
8665	CB	581	MPD2	C1	1	0.117	12.011
8666	CB	581	MPD2	C2	1	-0.15	12.011
8667	CB	581	MPD2	C3	1	0.117	12.011
8668	CB	581	MPD2	C4	1	-0.15	12.011
8669	CB	581	MPD2	C5	1	-0.15	12.011
8670	HCMM	581	MPD2	H	1	0.15	1.0079
8671	HCMM	581	MPD2	H1	1	0.15	1.0079
8672	HCMM	581	MPD2	H2	1	0.15	1.0079
8673	HCMM	581	MPD2	H3	1	0.15	1.0079
8674	NC=O	581	MPD2	N	1	-0.547	14.0067
8675	HNCO	581	MPD2	H5	1	0.37	1.0079
8676	NC=O	581	MPD2	N1	1	-0.547	14.0067
8677	HNCO	581	MPD2	H7	1	0.37	1.0079
8678	CB	582	TMC3	C1	1	0.0862	12.011
8679	CB	582	TMC3	C2	1	-0.15	12.011
8680	CB	582	TMC3	C3	1	0.0862	12.011
8681	CB	582	TMC3	C4	1	-0.15	12.011
8682	CB	582	TMC3	C5	1	0.0862	12.011
8683	CB	582	TMC3	C6	1	-0.15	12.011
8684	C=O	582	TMC3	C	1	0.5438	12.011
8685	O=C	582	TMC3	O	1	-0.57	15.9994
8686	HCMM	582	TMC3	H	1	0.15	1.0079
8687	HCMM	582	TMC3	H1	1	0.15	1.0079
8688	HCMM	582	TMC3	H2	1	0.15	1.0079
8689	C=O	582	TMC3	C7	1	0.5438	12.011
8690	C=O	582	TMC3	C8	1	0.5438	12.011
8691	O=C	582	TMC3	O1	1	-0.57	15.9994
8692	O=C	582	TMC3	O2	1	-0.57	15.9994
8693	CB	583	MPD2	C	1	-0.15	12.011
8694	CB	583	MPD2	C1	1	0.117	12.011
8695	CB	583	MPD2	C2	1	-0.15	12.011
8696	CB	583	MPD2	C3	1	0.117	12.011
8697	CB	583	MPD2	C4	1	-0.15	12.011
8698	CB	583	MPD2	C5	1	-0.15	12.011
8699	HCMM	583	MPD2	H	1	0.15	1.0079
8700	HCMM	583	MPD2	H1	1	0.15	1.0079
8701	HCMM	583	MPD2	H2	1	0.15	1.0079
8702	HCMM	583	MPD2	H3	1	0.15	1.0079
8703	NC=O	583	MPD2	N	1	-0.547	14.0067
8704	HNCO	583	MPD2	H5	1	0.37	1.0079
8705	NC=O	583	MPD2	N1	1	-0.547	14.0067
8706	HNCO	583	MPD2	H7	1	0.37	1.0079
8707	CB	584	TMC3	C1	1	0.0862	12.011
8708	CB	584	TMC3	C2	1	-0.15	12.011
8709	CB	584	TMC3	C3	1	0.0862	12.011
8710	CB	584	TMC3	C4	1	-0.15	12.011
8711	CB	584	TMC3	C5	1	0.0862	12.011
8712	CB	584	TMC3	C6	1	-0.15	12.011
8713	C=O	584	TMC3	C	1	0.5438	12.011
8714	O=C	584	TMC3	O	1	-0.57	15.9994
8715	HCMM	584	TMC3	H	1	0.15	1.0079
8716	HCMM	584	TMC3	H1	1	0.15	1.0079
8717	HCMM	584	TMC3	H2	1	0.15	1.0079
8718	C=O	584	TMC3	C7	1	0.5438	12.011
8719	C=O	584	TMC3	C8	1	0.5438	12.011
8720	O=C	584	TMC3	O1	1	-0.57	15.9994
8721	O=C	584	TMC3	O2	1	-0.57	15.9994
8722	CB	585	MPD2	C	1	-0.15	12.011
8723	CB	585	MPD2	C1	1	0.117	12.011
8724	CB	585	MPD2	C2	1	-0.15	12.011
8725	CB	585	MPD2	C3	1	0.117	12.011
8726	CB	585	MPD2	C4	1	-0.15	12.011
8727	CB	585	MPD2	C5	1	-0.15	12.011
8728	HCMM	585	MPD2	H	1	0.15	1.0079
8729	HCMM	585	MPD2	H1	1	0.15	1.0079
8730	HCMM	585	MPD2	H2	1	0.15	1.0079
8731	HCMM	585	MPD2	H3	1	0.15	1.0079
8732	NC=O	585	MPD2	N	1	-0.547	14.0067
8733	HNCO	585	MPD2	H5	1	0.37	1.0079
8734	NC=O	585	MPD2	N1	1	-0.547	14.0067
8735	HNCO	585	MPD2	H7	1	0.37	1.0079
8736	CB	586	TMC3	C1	1	0.0862	12.011
8737	CB	586	TMC3	C2	1	-0.15	12.011
8738	CB	586	TMC3	C3	1	0.0862	12.011
8739	CB	586	TMC3	C4	1	-0.15	12.011
8740	CB	586	TMC3	C5	1	0.0862	12.011
8741	CB	586	TMC3	C6	1	-0.15	12.011
8742	C=O	586	TMC3	C	1	0.5438	12.011
8743	O=C	586	TMC3	O	1	-0.57	15.9994
8744	HCMM	586	TMC3	H	1	0.15	1.0079
8745	HCMM	586	TMC3	H1	1	0.15	1.0079
8746	HCMM	586	TMC3	H2	1	0.15	1.0079
8747	C=O	586	TMC3	C7	1	0.5438	12.011
8748	C=O	586	TMC3	C8	1	0.5438	12.011
8749	O=C	586	TMC3	O1	1	-0.57	15.9994
8750	O=C	586	TMC3	O2	1	-0.57	15.9994
8751	CB	587	TMC3	C1	1	0.0862	12.011
8752	CB	587	TMC3	C2	1	-0.15	12.011
8753	CB	587	TMC3	C3	1	0.0862	12.011
8754	CB	587	TMC3	C4	1	-0.15	12.011
8755	CB	587	TMC3	C5	1	0.0862	12.011
8756	CB	587	TMC3	C6	1	-0.15	12.011
8757	C=O	587	TMC3	C	1	0.5438	12.011
8758	O=C	587	TMC3	O	1	-0.57	15.9994
8759	HCMM	587	TMC3	H	1	0.15	1.0079
8760	HCMM	587	TMC3	H1	1	0.15	1.0079
8761	HCMM	587	TMC3	H2	1	0.15	1.0079
8762	C=O	587	TMC3	C7	1	0.5438	12.011
8763	C=O	587	TMC3	C8	1	0.5438	12.011
8764	O=C	587	TMC3	O1	1	-0.57	15.9994
8765	O=C	587	TMC3	O2	1	-0.57	15.9994
8766	CB	588	TMC3	C1	1	0.0862	12.011
8767	CB	588	TMC3	C2	1	-0.15	12.011
8768	CB	588	TMC3	C3	1	0.0862	12.011
8769	CB	588	TMC3	C4	1	-0.15	12.011
8770	CB	588	TMC3	C5	1	0.0862	12.011
8771	CB	588	TMC3	C6	1	-0.15	12.011
8772	C=O	588	TMC3	C	1	0.5438	12.011
8773	O=C	588	TMC3	O	1	-0.57	15.9994
8774	HCMM	588	TMC3	H	1	0.15	1.0079
8775	HCMM	588	TMC3	H1	1	0.15	1.0079
8776	HCMM	588	TMC3	H2	1	0.15	1.0079
8777	C=O	588	TMC3	C7	1	0.5438	12.011
8778	C=O	588	TMC3	C8	1	0.5438	12.011
8779	O=C	588	TMC3	O1	1	-0.57	15.9994
8780	O=C	588	TMC3	O2	1	-0.57	15.9994
8781	CB	589	TMC3	C1	1	0.0862	12.011
8782	CB	589	TMC3	C2	1	-0.15	12.011
8783	CB	589	TMC3	C3	1	0.0862	12.011
8784	CB	589	TMC3	C4	1	-0.15	12.011
8785	CB	589	TMC3	C5	1	0.0862	12.011
8786	CB	589	TMC3	C6	1	-0.15	12.011
8787	C=O	589	TMC3	C	1	0.5438	12.011
8788	O=C	589	TMC3	O	1	-0.57	15.9994
8789	HCMM	589	TMC3	H	1	0.15	1.0079
8790	HCMM	589	TMC3	H1	1	0.15	1.0079
8791	HCMM	589	TMC3	H2	1	0.15	1.0079
8792	C=O	589	TMC3	C7	1	0.5438	12.011
8793	C=O	589	TMC3	C8	1	0.5438	12.011
8794	O=C	589	TMC3	O1	1	-0.57	15.9994
8795	O=C	589	TMC3	O2	1	-0.57	15.9994
8796	CB	590	MPD2	C	1	-0.15	12.011
8797	CB	590	MPD2	C1	1	0.117	12.011
8798	CB	590	MPD2	C2	1	-0.15	12.011
8799	CB	590	MPD2	C3	1	0.117	12.011
8800	CB	590	MPD2	C4	1	-0.15	12.011
8801	CB	590	MPD2	C5	1	-0.15	12.011
8802	HCMM	590	MPD2	H	1	0.15	1.0079
8803	HCMM	590	MPD2	H1	1	0.15	1.0079
8804	HCMM	590	MPD2	H2	1	0.15	1.0079
8805	HCMM	590	MPD2	H3	1	0.15	1.0079
8806	NC=O	590	MPD2	N	1	-0.547	14.0067
8807	HNCO	590	MPD2	H5	1	0.37	1.0079
8808	NC=O	590	MPD2	N1	1	-0.547	14.0067
8809	HNCO	590	MPD2	H7	1	0.37	1.0079
8810	CB	591	TMC3	C1	1	0.0862	12.011
8811	CB	591	TMC3	C2	1	-0.15	12.011
8812	CB	591	TMC3	C3	1	0.0862	12.011
8813	CB	591	TMC3	C4	1	-0.15	12.011
8814	CB	591	TMC3	C5	1	0.0862	12.011
8815	CB	591	TMC3	C6	1	-0.15	12.011
8816	C=O	591	TMC3	C	1	0.5438	12.011
8817	O=C	591	TMC3	O	1	-0.57	15.9994
8818	HCMM	591	TMC3	H	1	0.15	1.0079
8819	HCMM	591	TMC3	H1	1	0.15	1.0079
8820	HCMM	591	TMC3	H2	1	0.15	1.0079
8821	C=O	591	TMC3	C7	1	0.5438	12.011
8822	C=O	591	TMC3	C8	1	0.5438	12.011
8823	O=C	591	TMC3	O1	1	-0.57	15.9994
8824	O=C	591	TMC3	O2	1	-0.57	15.9994
8825	CB	592	MPD2	C	1	-0.15	12.011
8826	CB	592	MPD2	C1	1	0.117	12.011
8827	CB	592	MPD2	C2	1	-0.15	12.011
8828	CB	592	MPD2	C3	1	0.117	12.011
8829	CB	592	MPD2	C4	1	-0.15	12.011
8830	CB	592	MPD2	C5	1	-0.15	12.011
8831	HCMM	592	MPD2	H	1	0.15	1.0079
8832	HCMM	592	MPD2	H1	1	0.15	1.0079
8833	HCMM	592	MPD2	H2	1	0.15	1.0079
8834	HCMM	592	MPD2	H3	1	0.15	1.0079
8835	NC=O	592	MPD2	N	1	-0.547	14.0067
8836	HNCO	592	MPD2	H5	1	0.37	1.0079
8837	NC=O	592	MPD2	N1	1	-0.547	14.0067
8838	HNCO	592	MPD2	H7	1	0.37	1.0079
8839	CB	593	TMC3	C1	1	0.0862	12.011
8840	CB	593	TMC3	C2	1	-0.15	12.011
8841	CB	593	TMC3	C3	1	0.0862	12.011
8842	CB	593	TMC3	C4	1	-0.15	12.011
8843	CB	593	TMC3	C5	1	0.0862	12.011
8844	CB	593	TMC3	C6	1	-0.15	12.011
8845	C=O	593	TMC3	C	1	0.5438	12.011
8846	O=C	593	TMC3	O	1	-0.57	15.9994
8847	HCMM	593	TMC3	H	1	0.15	1.0079
8848	HCMM	593	TMC3	H1	1	0.15	1.0079
8849	HCMM	593	TMC3	H2	1	0.15	1.0079
8850	C=O	593	TMC3	C7	1	0.5438	12.011
8851	C=O	593	TMC3	C8	1	0.5438	12.011
8852	O=C	593	TMC3	O1	1	-0.57	15.9994
8853	O=C	593	TMC3	O2	1	-0.57	15.9994
8854	CB	594	MPD2	C	1	-0.15	12.011
8855	CB	594	MPD2	C1	1	0.117	12.011
8856	CB	594	MPD2	C2	1	-0.15	12.011
8857	CB	594	MPD2	C3	1	0.117	12.011
8858	CB	594	MPD2	C4	1	-0.15	12.011
8859	CB	594	MPD2	C5	1	-0.15	12.011
8860	HCMM	594	MPD2	H	1	0.15	1.0079
8861	HCMM	594	MPD2	H1	1	0.15	1.0079
8862	HCMM	594	MPD2	H2	1	0.15	1.0079
8863	HCMM	594	MPD2	H3	1	0.15	1.0079
8864	NC=O	594	MPD2	N	1	-0.547	14.0067
8865	HNCO	594	MPD2	H5	1	0.37	1.0079
8866	NC=O	594	MPD2	N1	1	-0.547	14.0067
8867	HNCO	594	MPD2	H7	1	0.37	1.0079
8868	CB	595	TMC3	C1	1	0.0862	12.011
8869	CB	595	TMC3	C2	1	-0.15	12.011
8870	CB	595	TMC3	C3	1	0.0862	12.011
8871	CB	595	TMC3	C4	1	-0.15	12.011
8872	CB	595	TMC3	C5	1	0.0862	12.011
8873	CB	595	TMC3	C6	1	-0.15	12.011
8874	C=O	595	TMC3	C	1	0.5438	12.011
8875	O=C	595	TMC3	O	1	-0.57	15.9994
8876	HCMM	595	TMC3	H	1	0.15	1.0079
8877	HCMM	595	TMC3	H1	1	0.15	1.0079
8878	HCMM	595	TMC3	H2	1	0.15	1.0079
8879	C=O	595	TMC3	C7	1	0.5438	12.011
8880	C=O	595	TMC3	C8	1	0.5438	12.011
8881	O=C	595	TMC3	O1	1	-0.57	15.9994
8882	O=C	595	TMC3	O2	1	-0.57	15.9994
8883	CB	596	MPD2	C	1	-0.15	12.011
8884	CB	596	MPD2	C1	1	0.117	12.011
8885	CB	596	MPD2	C2	1	-0.15	12.011
8886	CB	596	MPD2	C3	1	0.117	12.011
8887	CB	596	MPD2	C4	1	-0.15	12.011
8888	CB	596	MPD2	C5	1	-0.15	12.011
8889	HCMM	596	MPD2	H	1	0.15	1.0079
8890	HCMM	596	MPD2	H1	1	0.15	1.0079
8891	HCMM	596	MPD2	H2	1	0.15	1.0079
8892	HCMM	596	MPD2	H3	1	0.15	1.0079
8893	NC=O	596	MPD2	N	1	-0.547	14.0067
8894	HNCO	596	MPD2	H5	1	0.37	1.0079
8895	NC=O	596	MPD2	N1	1	-0.547	14.0067
8896	HNCO	596	MPD2	H7	1	0.37	1.0079
8897	CB	597	TMC3	C1	1	0.0862	12.011
8898	CB	597	TMC3	C2	1	-0.15	12.011
8899	CB	597	TMC3	C3	1	0.0862	12.011
8900	CB	597	TMC3	C4	1	-0.15	12.011
8901	CB	597	TMC3	C5	1	0.0862	12.011
8902	CB	597	TMC3	C6	1	-0.15	12.011
8903	C=O	597	TMC3	C	1	0.5438	12.011
8904	O=C	597	TMC3	O	1	-0.57	15.9994
8905	HCMM	597	TMC3	H	1	0.15	1.0079
8906	HCMM	597	TMC3	H1	1	0.15	1.0079
8907	HCMM	597	TMC3	H2	1	0.15	1.0079
8908	C=O	597	TMC3	C7	1	0.5438	12.011
8909	C=O	597	TMC3	C8	1	0.5438	12.011
8910	O=C	597	TMC3	O1	1	-0.57	15.9994
8911	O=C	597	TMC3	O2	1	-0.57	15.9994
8912	CB	598	TMC3	C1	1	0.0862	12.011
8913	CB	598	TMC3	C2	1	-0.15	12.011
8914	CB	598	TMC3	C3	1	0.0862	12.011
8915	CB	598	TMC3	C4	1	-0.15	12.011
8916	CB	598	TMC3	C5	1	0.0862	12.011
8917	CB	598	TMC3	C6	1	-0.15	12.011
8918	C=O	598	TMC3	C	1	0.5438	12.011
8919	O=C	598	TMC3	O	1	-0.57	15.9994
8920	HCMM	598	TMC3	H	1	0.15	1.0079
8921	HCMM	598	TMC3	H1	1	0.15	1.0079
8922	HCMM	598	TMC3	H2	1	0.15	1.0079
8923	C=O	598	TMC3	C7	1	0.5438	12.011
8924	C=O	598	TMC3	C8	1	0.5438	12.011
8925	O=C	598	TMC3	O1	1	-0.57	15.9994
8926	O=C	598	TMC3	O2	1	-0.57	15.9994
8927	CB	599	MPD2	C	1	-0.15	12.011
8928	CB	599	MPD2	C1	1	0.117	12.011
8929	CB	599	MPD2	C2	1	-0.15	12.011
8930	CB	599	MPD2	C3	1	0.117	12.011
8931	CB	599	MPD2	C4	1	-0.15	12.011
8932	CB	599	MPD2	C5	1	-0.15	12.011
8933	HCMM	599	MPD2	H	1	0.15	1.0079
8934	HCMM	599	MPD2	H1	1	0.15	1.0079
8935	HCMM	599	MPD2	H2	1	0.15	1.0079
8936	HCMM	599	MPD2	H3	1	0.15	1.0079
8937	NC=O	599	MPD2	N	1	-0.547	14.0067
8938	HNCO	599	MPD2	H5	1	0.37	1.0079
8939	NC=O	599	MPD2	N1	1	-0.547	14.0067
8940	HNCO	599	MPD2	H7	1	0.37	1.0079
8941	CB	600	TMC3	C1	1	0.0862	12.011
8942	CB	600	TMC3	C2	1	-0.15	12.011
8943	CB	600	TMC3	C3	1	0.0862	12.011
8944	CB	600	TMC3	C4	1	-0.15	12.011
8945	CB	600	TMC3	C5	1	0.0862	12.011
8946	CB	600	TMC3	C6	1	-0.15	12.011
8947	C=O	600	TMC3	C	1	0.5438	12.011
8948	O=C	600	TMC3	O	1	-0.57	15.9994
8949	HCMM	600	TMC3	H	1	0.15	1.0079
8950	HCMM	600	TMC3	H1	1	0.15	1.0079
8951	HCMM	600	TMC3	H2	1	0.15	1.0079
8952	C=O	600	TMC3	C7	1	0.5438	12.011
8953	C=O	600	TMC3	C8	1	0.5438	12.011
8954	O=C	600	TMC3	O1	1	-0.57	15.9994
8955	O=C	600	TMC3	O2	1	-0.57	15.9994
8956	CB	601	MPD2	C	1	-0.15	12.011
8957	CB	601	MPD2	C1	1	0.117	12.011
8958	CB	601	MPD2	C2	1	-0.15	12.011
8959	CB	601	MPD2	C3	1	0.117	12.011
8960	CB	601	MPD2	C4	1	-0.15	12.011
8961	CB	601	MPD2	C5	1	-0.15	12.011
8962	HCMM	601	MPD2	H	1	0.15	1.0079
8963	HCMM	601	MPD2	H1	1	0.15	1.0079
8964	HCMM	601	MPD2	H2	1	0.15	1.0079
8965	HCMM	601	MPD2	H3	1	0.15	1.0079
8966	NC=O	601	MPD2	N	1	-0.547	14.0067
8967	HNCO	601	MPD2	H5	1	0.37	1.0079
8968	NC=O	601	MPD2	N1	1	-0.547	14.0067
8969	HNCO	601	MPD2	H7	1	0.37	1.0079
8970	CB	602	TMC3	C1	1	0.0862	12.011
8971	CB	602	TMC3	C2	1	-0.15	12.011
8972	CB	602	TMC3	C3	1	0.0862	12.011
8973	CB	602	TMC3	C4	1	-0.15	12.011
8974	CB	602	TMC3	C5	1	0.0862	12.011
8975	CB	602	TMC3	C6	1	-0.15	12.011
8976	C=O	602	TMC3	C	1	0.5438	12.011
8977	O=C	602	TMC3	O	1	-0.57	15.9994
8978	HCMM	602	TMC3	H	1	0.15	1.0079
8979	HCMM	602	TMC3	H1	1	0.15	1.0079
8980	HCMM	602	TMC3	H2	1	0.15	1.0079
8981	C=O	602	TMC3	C7	1	0.5438	12.011
8982	C=O	602	TMC3	C8	1	0.5438	12.011
8983	O=C	602	TMC3	O1	1	-0.57	15.9994
8984	O=C	602	TMC3	O2	1	-0.57	15.9994
8985	CB	603	TMC3	C1	1	0.0862	12.011
8986	CB	603	TMC3	C2	1	-0.15	12.011
8987	CB	603	TMC3	C3	1	0.0862	12.011
8988	CB	603	TMC3	C4	1	-0.15	12.011
8989	CB	603	TMC3	C5	1	0.0862	12.011
8990	CB	603	TMC3	C6	1	-0.15	12.011
8991	C=O	603	TMC3	C	1	0.5438	12.011
8992	O=C	603	TMC3	O	1	-0.57	15.9994
8993	HCMM	603	TMC3	H	1	0.15	1.0079
8994	HCMM	603	TMC3	H1	1	0.15	1.0079
8995	HCMM	603	TMC3	H2	1	0.15	1.0079
8996	C=O	603	TMC3	C7	1	0.5438	12.011
8997	C=O	603	TMC3	C8	1	0.5438	12.011
8998	O=C	603	TMC3	O1	1	-0.57	15.9994
8999	O=C	603	TMC3	O2	1	-0.57	15.9994
9000	CB	604	MPD2	C	1	-0.15	12.011
9001	CB	604	MPD2	C1	1	0.117	12.011
9002	CB	604	MPD2	C2	1	-0.15	12.011
9003	CB	604	MPD2	C3	1	0.117	12.011
9004	CB	604	MPD2	C4	1	-0.15	12.011
9005	CB	604	MPD2	C5	1	-0.15	12.011
9006	HCMM	604	MPD2	H	1	0.15	1.0079
9007	HCMM	604	MPD2	H1	1	0.15	1.0079
9008	HCMM	604	MPD2	H2	1	0.15	1.0079
9009	HCMM	604	MPD2	H3	1	0.15	1.0079
9010	NC=O	604	MPD2	N	1	-0.547	14.0067
9011	HNCO	604	MPD2	H5	1	0.37	1.0079
9012	NC=O	604	MPD2	N1	1	-0.547	14.0067
9013	HNCO	604	MPD2	H7	1	0.37	1.0079
9014	CB	605	TMC3	C1	1	0.0862	12.011
9015	CB	605	TMC3	C2	1	-0.15	12.011
9016	CB	605	TMC3	C3	1	0.0862	12.011
9017	CB	605	TMC3	C4	1	-0.15	12.011
9018	CB	605	TMC3	C5	1	0.0862	12.011
9019	CB	605	TMC3	C6	1	-0.15	12.011
9020	C=O	605	TMC3	C	1	0.5438	12.011
9021	O=C	605	TMC3	O	1	-0.57	15.9994
9022	HCMM	605	TMC3	H	1	0.15	1.0079
9023	HCMM	605	TMC3	H1	1	0.15	1.0079
9024	HCMM	605	TMC3	H2	1	0.15	1.0079
9025	C=O	605	TMC3	C7	1	0.5438	12.011
9026	C=O	605	TMC3	C8	1	0.5438	12.011
9027	O=C	605	TMC3	O1	1	-0.57	15.9994
9028	O=C	605	TMC3	O2	1	-0.57	15.9994
9029	CB	606	TMC3	C1	1	0.0862	12.011
9030	CB	606	TMC3	C2	1	-0.15	12.011
9031	CB	606	TMC3	C3	1	0.0862	12.011
9032	CB	606	TMC3	C4	1	-0.15	12.011
9033	CB	606	TMC3	C5	1	0.0862	12.011
9034	CB	606	TMC3	C6	1	-0.15	12.011
9035	C=O	606	TMC3	C	1	0.5438	12.011
9036	O=C	606	TMC3	O	1	-0.57	15.9994
9037	HCMM	606	TMC3	H	1	0.15	1.0079
9038	HCMM	606	TMC3	H1	1	0.15	1.0079
9039	HCMM	606	TMC3	H2	1	0.15	1.0079
9040	C=O	606	TMC3	C7	1	0.5438	12.011
9041	C=O	606	TMC3	C8	1	0.5438	12.011
9042	O=C	606	TMC3	O1	1	-0.57	15.9994
9043	O=C	606	TMC3	O2	1	-0.57	15.9994
9044	CB	607	MPD2	C	1	-0.15	12.011
9045	CB	607	MPD2	C1	1	0.117	12.011
9046	CB	607	MPD2	C2	1	-0.15	12.011
9047	CB	607	MPD2	C3	1	0.117	12.011
9048	CB	607	MPD2	C4	1	-0.15	12.011
9049	CB	607	MPD2	C5	1	-0.15	12.011
9050	HCMM	607	MPD2	H	1	0.15	1.0079
9051	HCMM	607	MPD2	H1	1	0.15	1.0079
9052	HCMM	607	MPD2	H2	1	0.15	1.0079
9053	HCMM	607	MPD2	H3	1	0.15	1.0079
9054	NC=O	607	MPD2	N	1	-0.547	14.0067
9055	HNCO	607	MPD2	H5	1	0.37	1.0079
9056	NC=O	607	MPD2	N1	1	-0.547	14.0067
9057	HNCO	607	MPD2	H7	1	0.37	1.0079
9058	CB	608	TMC3	C1	1	0.0862	12.011
9059	CB	608	TMC3	C2	1	-0.15	12.011
9060	CB	608	TMC3	C3	1	0.0862	12.011
9061	CB	608	TMC3	C4	1	-0.15	12.011
9062	CB	608	TMC3	C5	1	0.0862	12.011
9063	CB	608	TMC3	C6	1	-0.15	12.011
9064	C=O	608	TMC3	C	1	0.5438	12.011
9065	O=C	608	TMC3	O	1	-0.57	15.9994
9066	HCMM	608	TMC3	H	1	0.15	1.0079
9067	HCMM	608	TMC3	H1	1	0.15	1.0079
9068	HCMM	608	TMC3	H2	1	0.15	1.0079
9069	C=O	608	TMC3	C7	1	0.5438	12.011
9070	C=O	608	TMC3	C8	1	0.5438	12.011
9071	O=C	608	TMC3	O1	1	-0.57	15.9994
9072	O=C	608	TMC3	O2	1	-0.57	15.9994
9073	CB	609	TMC3	C1	1	0.0862	12.011
9074	CB	609	TMC3	C2	1	-0.15	12.011
9075	CB	609	TMC3	C3	1	0.0862	12.011
9076	CB	609	TMC3	C4	1	-0.15	12.011
9077	CB	609	TMC3	C5	1	0.0862	12.011
9078	CB	609	TMC3	C6	1	-0.15	12.011
9079	C=O	609	TMC3	C	1	0.5438	12.011
9080	O=C	609	TMC3	O	1	-0.57	15.9994
9081	HCMM	609	TMC3	H	1	0.15	1.0079
9082	HCMM	609	TMC3	H1	1	0.15	1.0079
9083	HCMM	609	TMC3	H2	1	0.15	1.0079
9084	C=O	609	TMC3	C7	1	0.5438	12.011
9085	C=O	609	TMC3	C8	1	0.5438	12.011
9086	O=C	609	TMC3	O1	1	-0.57	15.9994
9087	O=C	609	TMC3	O2	1	-0.57	15.9994
9088	CB	610	TMC3	C1	1	0.0862	12.011
9089	CB	610	TMC3	C2	1	-0.15	12.011
9090	CB	610	TMC3	C3	1	0.0862	12.011
9091	CB	610	TMC3	C4	1	-0.15	12.011
9092	CB	610	TMC3	C5	1	0.0862	12.011
9093	CB	610	TMC3	C6	1	-0.15	12.011
9094	C=O	610	TMC3	C	1	0.5438	12.011
9095	O=C	610	TMC3	O	1	-0.57	15.9994
9096	HCMM	610	TMC3	H	1	0.15	1.0079
9097	HCMM	610	TMC3	H1	1	0.15	1.0079
9098	HCMM	610	TMC3	H2	1	0.15	1.0079
9099	C=O	610	TMC3	C7	1	0.5438	12.011
9100	C=O	610	TMC3	C8	1	0.5438	12.011
9101	O=C	610	TMC3	O1	1	-0.57	15.9994
9102	O=C	610	TMC3	O2	1	-0.57	15.9994
9103	CB	611	MPD2	C	1	-0.15	12.011
9104	CB	611	MPD2	C1	1	0.117	12.011
9105	CB	611	MPD2	C2	1	-0.15	12.011
9106	CB	611	MPD2	C3	1	0.117	12.011
9107	CB	611	MPD2	C4	1	-0.15	12.011
9108	CB	611	MPD2	C5	1	-0.15	12.011
9109	HCMM	611	MPD2	H	1	0.15	1.0079
9110	HCMM	611	MPD2	H1	1	0.15	1.0079
9111	HCMM	611	MPD2	H2	1	0.15	1.0079
9112	HCMM	611	MPD2	H3	1	0.15	1.0079
9113	NC=O	611	MPD2	N	1	-0.547	14.0067
9114	HNCO	611	MPD2	H5	1	0.37	1.0079
9115	NC=O	611	MPD2	N1	1	-0.547	14.0067
9116	HNCO	611	MPD2	H7	1	0.37	1.0079
9117	CB	612	TMC3	C1	1	0.0862	12.011
9118	CB	612	TMC3	C2	1	-0.15	12.011
9119	CB	612	TMC3	C3	1	0.0862	12.011
9120	CB	612	TMC3	C4	1	-0.15	12.011
9121	CB	612	TMC3	C5	1	0.0862	12.011
9122	CB	612	TMC3	C6	1	-0.15	12.011
9123	C=O	612	TMC3	C	1	0.5438	12.011
9124	O=C	612	TMC3	O	1	-0.57	15.9994
9125	HCMM	612	TMC3	H	1	0.15	1.0079
9126	HCMM	612	TMC3	H1	1	0.15	1.0079
9127	HCMM	612	TMC3	H2	1	0.15	1.0079
9128	C=O	612	TMC3	C7	1	0.5438	12.011
9129	C=O	612	TMC3	C8	1	0.5438	12.011
9130	O=C	612	TMC3	O1	1	-0.57	15.9994
9131	O=C	612	TMC3	O2	1	-0.57	15.9994
9132	CB	613	MPD2	C	1	-0.15	12.011
9133	CB	613	MPD2	C1	1	0.117	12.011
9134	CB	613	MPD2	C2	1	-0.15	12.011
9135	CB	613	MPD2	C3	1	0.117	12.011
9136	CB	613	MPD2	C4	1	-0.15	12.011
9137	CB	613	MPD2	C5	1	-0.15	12.011
9138	HCMM	613	MPD2	H	1	0.15	1.0079
9139	HCMM	613	MPD2	H1	1	0.15	1.0079
9140	HCMM	613	MPD2	H2	1	0.15	1.0079
9141	HCMM	613	MPD2	H3	1	0.15	1.0079
9142	NC=O	613	MPD2	N	1	-0.547	14.0067
9143	HNCO	613	MPD2	H5	1	0.37	1.0079
9144	NC=O	613	MPD2	N1	1	-0.547	14.0067
9145	HNCO	613	MPD2	H7	1	0.37	1.0079
9146	CB	614	TMC3	C1	1	0.0862	12.011
9147	CB	614	TMC3	C2	1	-0.15	12.011
9148	CB	614	TMC3	C3	1	0.0862	12.011
9149	CB	614	TMC3	C4	1	-0.15	12.011
9150	CB	614	TMC3	C5	1	0.0862	12.011
9151	CB	614	TMC3	C6	1	-0.15	12.011
9152	C=O	614	TMC3	C	1	0.5438	12.011
9153	O=C	614	TMC3	O	1	-0.57	15.9994
9154	HCMM	614	TMC3	H	1	0.15	1.0079
9155	HCMM	614	TMC3	H1	1	0.15	1.0079
9156	HCMM	614	TMC3	H2	1	0.15	1.0079
9157	C=O	614	TMC3	C7	1	0.5438	12.011
9158	C=O	614	TMC3	C8	1	0.5438	12.011
9159	O=C	614	TMC3	O1	1	-0.57	15.9994
9160	O=C	614	TMC3	O2	1	-0.57	15.9994
9161	CB	615	MPD2	C	1	-0.15	12.011
9162	CB	615	MPD2	C1	1	0.117	12.011
9163	CB	615	MPD2	C2	1	-0.15	12.011
9164	CB	615	MPD2	C3	1	0.117	12.011
9165	CB	615	MPD2	C4	1	-0.15	12.011
9166	CB	615	MPD2	C5	1	-0.15	12.011
9167	HCMM	615	MPD2	H	1	0.15	1.0079
9168	HCMM	615	MPD2	H1	1	0.15	1.0079
9169	HCMM	615	MPD2	H2	1	0.15	1.0079
9170	HCMM	615	MPD2	H3	1	0.15	1.0079
9171	NC=O	615	MPD2	N	1	-0.547	14.0067
9172	HNCO	615	MPD2	H5	1	0.37	1.0079
9173	NC=O	615	MPD2	N1	1	-0.547	14.0067
9174	HNCO	615	MPD2	H7	1	0.37	1.0079
9175	CB	616	TMC3	C1	1	0.0862	12.011
9176	CB	616	TMC3	C2	1	-0.15	12.011
9177	CB	616	TMC3	C3	1	0.0862	12.011
9178	CB	616	TMC3	C4	1	-0.15	12.011
9179	CB	616	TMC3	C5	1	0.0862	12.011
9180	CB	616	TMC3	C6	1	-0.15	12.011
9181	C=O	616	TMC3	C	1	0.5438	12.011
9182	O=C	616	TMC3	O	1	-0.57	15.9994
9183	HCMM	616	TMC3	H	1	0.15	1.0079
9184	HCMM	616	TMC3	H1	1	0.15	1.0079
9185	HCMM	616	TMC3	H2	1	0.15	1.0079
9186	C=O	616	TMC3	C7	1	0.5438	12.011
9187	C=O	616	TMC3	C8	1	0.5438	12.011
9188	O=C	616	TMC3	O1	1	-0.57	15.9994
9189	O=C	616	TMC3	O2	1	-0.57	15.9994
9190	CB	617	MPD2	C	1	-0.15	12.011
9191	CB	617	MPD2	C1	1	0.117	12.011
9192	CB	617	MPD2	C2	1	-0.15	12.011
9193	CB	617	MPD2	C3	1	0.117	12.011
9194	CB	617	MPD2	C4	1	-0.15	12.011
9195	CB	617	MPD2	C5	1	-0.15	12.011
9196	HCMM	617	MPD2	H	1	0.15	1.0079
9197	HCMM	617	MPD2	H1	1	0.15	1.0079
9198	HCMM	617	MPD2	H2	1	0.15	1.0079
9199	HCMM	617	MPD2	H3	1	0.15	1.0079
9200	NC=O	617	MPD2	N	1	-0.547	14.0067
9201	HNCO	617	MPD2	H5	1	0.37	1.0079
9202	NC=O	617	MPD2	N1	1	-0.547	14.0067
9203	HNCO	617	MPD2	H7	1	0.37	1.0079
9204	CB	618	TMC3	C1	1	0.0862	12.011
9205	CB	618	TMC3	C2	1	-0.15	12.011
9206	CB	618	TMC3	C3	1	0.0862	12.011
9207	CB	618	TMC3	C4	1	-0.15	12.011
9208	CB	618	TMC3	C5	1	0.0862	12.011
9209	CB	618	TMC3	C6	1	-0.15	12.011
9210	C=O	618	TMC3	C	1	0.5438	12.011
9211	O=C	618	TMC3	O	1	-0.57	15.9994
9212	HCMM	618	TMC3	H	1	0.15	1.0079
9213	HCMM	618	TMC3	H1	1	0.15	1.0079
9214	HCMM	618	TMC3	H2	1	0.15	1.0079
9215	C=O	618	TMC3	C7	1	0.5438	12.011
9216	C=O	618	TMC3	C8	1	0.5438	12.011
9217	O=C	618	TMC3	O1	1	-0.57	15.9994
9218	O=C	618	TMC3	O2	1	-0.57	15.9994
9219	CB	619	MPD2	C	1	-0.15	12.011
9220	CB	619	MPD2	C1	1	0.117	12.011
9221	CB	619	MPD2	C2	1	-0.15	12.011
9222	CB	619	MPD2	C3	1	0.117	12.011
9223	CB	619	MPD2	C4	1	-0.15	12.011
9224	CB	619	MPD2	C5	1	-0.15	12.011
9225	HCMM	619	MPD2	H	1	0.15	1.0079
9226	HCMM	619	MPD2	H1	1	0.15	1.0079
9227	HCMM	619	MPD2	H2	1	0.15	1.0079
9228	HCMM	619	MPD2	H3	1	0.15	1.0079
9229	NC=O	619	MPD2	N	1	-0.547	14.0067
9230	HNCO	619	MPD2	H5	1	0.37	1.0079
9231	NC=O	619	MPD2	N1	1	-0.547	14.0067
9232	HNCO	619	MPD2	H7	1	0.37	1.0079
9233	CB	620	TMC3	C1	1	0.0862	12.011
9234	CB	620	TMC3	C2	1	-0.15	12.011
9235	CB	620	TMC3	C3	1	0.0862	12.011
9236	CB	620	TMC3	C4	1	-0.15	12.011
9237	CB	620	TMC3	C5	1	0.0862	12.011
9238	CB	620	TMC3	C6	1	-0.15	12.011
9239	C=O	620	TMC3	C	1	0.5438	12.011
9240	O=C	620	TMC3	O	1	-0.57	15.9994
9241	HCMM	620	TMC3	H	1	0.15	1.0079
9242	HCMM	620	TMC3	H1	1	0.15	1.0079
9243	HCMM	620	TMC3	H2	1	0.15	1.0079
9244	C=O	620	TMC3	C7	1	0.5438	12.011
9245	C=O	620	TMC3	C8	1	0.5438	12.011
9246	O=C	620	TMC3	O1	1	-0.57	15.9994
9247	O=C	620	TMC3	O2	1	-0.57	15.9994
9248	CB	621	MPD2	C	1	-0.15	12.011
9249	CB	621	MPD2	C1	1	0.117	12.011
9250	CB	621	MPD2	C2	1	-0.15	12.011
9251	CB	621	MPD2	C3	1	0.117	12.011
9252	CB	621	MPD2	C4	1	-0.15	12.011
9253	CB	621	MPD2	C5	1	-0.15	12.011
9254	HCMM	621	MPD2	H	1	0.15	1.0079
9255	HCMM	621	MPD2	H1	1	0.15	1.0079
9256	HCMM	621	MPD2	H2	1	0.15	1.0079
9257	HCMM	621	MPD2	H3	1	0.15	1.0079
9258	NC=O	621	MPD2	N	1	-0.547	14.0067
9259	HNCO	621	MPD2	H5	1	0.37	1.0079
9260	NC=O	621	MPD2	N1	1	-0.547	14.0067
9261	HNCO	621	MPD2	H7	1	0.37	1.0079
9262	CB	622	TMC3	C1	1	0.0862	12.011
9263	CB	622	TMC3	C2	1	-0.15	12.011
9264	CB	622	TMC3	C3	1	0.0862	12.011
9265	CB	622	TMC3	C4	1	-0.15	12.011
9266	CB	622	TMC3	C5	1	0.0862	12.011
9267	CB	622	TMC3	C6	1	-0.15	12.011
9268	C=O	622	TMC3	C	1	0.5438	12.011
9269	O=C	622	TMC3	O	1	-0.57	15.9994
9270	HCMM	622	TMC3	H	1	0.15	1.0079
9271	HCMM	622	TMC3	H1	1	0.15	1.0079
9272	HCMM	622	TMC3	H2	1	0.15	1.0079
9273	C=O	622	TMC3	C7	1	0.5438	12.011
9274	C=O	622	TMC3	C8	1	0.5438	12.011
9275	O=C	622	TMC3	O1	1	-0.57	15.9994
9276	O=C	622	TMC3	O2	1	-0.57	15.9994
9277	CB	623	MPD2	C	1	-0.15	12.011
9278	CB	623	MPD2	C1	1	0.117	12.011
9279	CB	623	MPD2	C2	1	-0.15	12.011
9280	CB	623	MPD2	C3	1	0.117	12.011
9281	CB	623	MPD2	C4	1	-0.15	12.011
9282	CB	623	MPD2	C5	1	-0.15	12.011
9283	HCMM	623	MPD2	H	1	0.15	1.0079
9284	HCMM	623	MPD2	H1	1	0.15	1.0079
9285	HCMM	623	MPD2	H2	1	0.15	1.0079
9286	HCMM	623	MPD2	H3	1	0.15	1.0079
9287	NC=O	623	MPD2	N	1	-0.547	14.0067
9288	HNCO	623	MPD2	H5	1	0.37	1.0079
9289	NC=O	623	MPD2	N1	1	-0.547	14.0067
9290	HNCO	623	MPD2	H7	1	0.37	1.0079
9291	CB	624	TMC3	C1	1	0.0862	12.011
9292	CB	624	TMC3	C2	1	-0.15	12.011
9293	CB	624	TMC3	C3	1	0.0862	12.011
9294	CB	624	TMC3	C4	1	-0.15	12.011
9295	CB	624	TMC3	C5	1	0.0862	12.011
9296	CB	624	TMC3	C6	1	-0.15	12.011
9297	C=O	624	TMC3	C	1	0.5438	12.011
9298	O=C	624	TMC3	O	1	-0.57	15.9994
9299	HCMM	624	TMC3	H	1	0.15	1.0079
9300	HCMM	624	TMC3	H1	1	0.15	1.0079
9301	HCMM	624	TMC3	H2	1	0.15	1.0079
9302	C=O	624	TMC3	C7	1	0.5438	12.011
9303	C=O	624	TMC3	C8	1	0.5438	12.011
9304	O=C	624	TMC3	O1	1	-0.57	15.9994
9305	O=C	624	TMC3	O2	1	-0.57	15.9994
9306	CB	625	MPD2	C	1	-0.15	12.011
9307	CB	625	MPD2	C1	1	0.117	12.011
9308	CB	625	MPD2	C2	1	-0.15	12.011
9309	CB	625	MPD2	C3	1	0.117	12.011
9310	CB	625	MPD2	C4	1	-0.15	12.011
9311	CB	625	MPD2	C5	1	-0.15	12.011
9312	HCMM	625	MPD2	H	1	0.15	1.0079
9313	HCMM	625	MPD2	H1	1	0.15	1.0079
9314	HCMM	625	MPD2	H2	1	0.15	1.0079
9315	HCMM	625	MPD2	H3	1	0.15	1.0079
9316	NC=O	625	MPD2	N	1	-0.547	14.0067
9317	HNCO	625	MPD2	H5	1	0.37	1.0079
9318	NC=O	625	MPD2	N1	1	-0.547	14.0067
9319	HNCO	625	MPD2	H7	1	0.37	1.0079
9320	CB	626	TMC3	C1	1	0.0862	12.011
9321	CB	626	TMC3	C2	1	-0.15	12.011
9322	CB	626	TMC3	C3	1	0.0862	12.011
9323	CB	626	TMC3	C4	1	-0.15	12.011
9324	CB	626	TMC3	C5	1	0.0862	12.011
9325	CB	626	TMC3	C6	1	-0.15	12.011
9326	C=O	626	TMC3	C	1	0.5438	12.011
9327	O=C	626	TMC3	O	1	-0.57	15.9994
9328	HCMM	626	TMC3	H	1	0.15	1.0079
9329	HCMM	626	TMC3	H1	1	0.15	1.0079
9330	HCMM	626	TMC3	H2	1	0.15	1.0079
9331	C=O	626	TMC3	C7	1	0.5438	12.011
9332	C=O	626	TMC3	C8	1	0.5438	12.011
9333	O=C	626	TMC3	O1	1	-0.57	15.9994
9334	O=C	626	TMC3	O2	1	-0.57	15.9994
9335	CB	627	MPD2	C	1	-0.15	12.011
9336	CB	627	MPD2	C1	1	0.117	12.011
9337	CB	627	MPD2	C2	1	-0.15	12.011
9338	CB	627	MPD2	C3	1	0.117	12.011
9339	CB	627	MPD2	C4	1	-0.15	12.011
9340	CB	627	MPD2	C5	1	-0.15	12.011
9341	HCMM	627	MPD2	H	1	0.15	1.0079
9342	HCMM	627	MPD2	H1	1	0.15	1.0079
9343	HCMM	627	MPD2	H2	1	0.15	1.0079
9344	HCMM	627	MPD2	H3	1	0.15	1.0079
9345	NC=O	627	MPD2	N	1	-0.547	14.0067
9346	HNCO	627	MPD2	H5	1	0.37	1.0079
9347	NC=O	627	MPD2	N1	1	-0.547	14.0067
9348	HNCO	627	MPD2	H7	1	0.37	1.0079
9349	CB	628	TMC3	C1	1	0.0862	12.011
9350	CB	628	TMC3	C2	1	-0.15	12.011
9351	CB	628	TMC3	C3	1	0.0862	12.011
9352	CB	628	TMC3	C4	1	-0.15	12.011
9353	CB	628	TMC3	C5	1	0.0862	12.011
9354	CB	628	TMC3	C6	1	-0.15	12.011
9355	C=O	628	TMC3	C	1	0.5438	12.011
9356	O=C	628	TMC3	O	1	-0.57	15.9994
9357	HCMM	628	TMC3	H	1	0.15	1.0079
9358	HCMM	628	TMC3	H1	1	0.15	1.0079
9359	HCMM	628	TMC3	H2	1	0.15	1.0079
9360	C=O	628	TMC3	C7	1	0.5438	12.011
9361	C=O	628	TMC3	C8	1	0.5438	12.011
9362	O=C	628	TMC3	O1	1	-0.57	15.9994
9363	O=C	628	TMC3	O2	1	-0.57	15.9994
9364	CB	629	MPD2	C	1	-0.15	12.011
9365	CB	629	MPD2	C1	1	0.117	12.011
9366	CB	629	MPD2	C2	1	-0.15	12.011
9367	CB	629	MPD2	C3	1	0.117	12.011
9368	CB	629	MPD2	C4	1	-0.15	12.011
9369	CB	629	MPD2	C5	1	-0.15	12.011
9370	HCMM	629	MPD2	H	1	0.15	1.0079
9371	HCMM	629	MPD2	H1	1	0.15	1.0079
9372	HCMM	629	MPD2	H2	1	0.15	1.0079
9373	HCMM	629	MPD2	H3	1	0.15	1.0079
9374	NC=O	629	MPD2	N	1	-0.547	14.0067
9375	HNCO	629	MPD2	H5	1	0.37	1.0079
9376	NC=O	629	MPD2	N1	1	-0.547	14.0067
9377	HNCO	629	MPD2	H7	1	0.37	1.0079
9378	CB	630	TMC3	C1	1	0.0862	12.011
9379	CB	630	TMC3	C2	1	-0.15	12.011
9380	CB	630	TMC3	C3	1	0.0862	12.011
9381	CB	630	TMC3	C4	1	-0.15	12.011
9382	CB	630	TMC3	C5	1	0.0862	12.011
9383	CB	630	TMC3	C6	1	-0.15	12.011
9384	C=O	630	TMC3	C	1	0.5438	12.011
9385	O=C	630	TMC3	O	1	-0.57	15.9994
9386	HCMM	630	TMC3	H	1	0.15	1.0079
9387	HCMM	630	TMC3	H1	1	0.15	1.0079
9388	HCMM	630	TMC3	H2	1	0.15	1.0079
9389	C=O	630	TMC3	C7	1	0.5438	12.011
9390	C=O	630	TMC3	C8	1	0.5438	12.011
9391	O=C	630	TMC3	O1	1	-0.57	15.9994
9392	O=C	630	TMC3	O2	1	-0.57	15.9994
9393	CB	631	MPD2	C	1	-0.15	12.011
9394	CB	631	MPD2	C1	1	0.117	12.011
9395	CB	631	MPD2	C2	1	-0.15	12.011
9396	CB	631	MPD2	C3	1	0.117	12.011
9397	CB	631	MPD2	C4	1	-0.15	12.011
9398	CB	631	MPD2	C5	1	-0.15	12.011
9399	HCMM	631	MPD2	H	1	0.15	1.0079
9400	HCMM	631	MPD2	H1	1	0.15	1.0079
9401	HCMM	631	MPD2	H2	1	0.15	1.0079
9402	HCMM	631	MPD2	H3	1	0.15	1.0079
9403	NC=O	631	MPD2	N	1	-0.547	14.0067
9404	HNCO	631	MPD2	H5	1	0.37	1.0079
9405	NC=O	631	MPD2	N1	1	-0.547	14.0067
9406	HNCO	631	MPD2	H7	1	0.37	1.0079
9407	CB	632	TMC3	C1	1	0.0862	12.011
9408	CB	632	TMC3	C2	1	-0.15	12.011
9409	CB	632	TMC3	C3	1	0.0862	12.011
9410	CB	632	TMC3	C4	1	-0.15	12.011
9411	CB	632	TMC3	C5	1	0.0862	12.011
9412	CB	632	TMC3	C6	1	-0.15	12.011
9413	C=O	632	TMC3	C	1	0.5438	12.011
9414	O=C	632	TMC3	O	1	-0.57	15.9994
9415	HCMM	632	TMC3	H	1	0.15	1.0079
9416	HCMM	632	TMC3	H1	1	0.15	1.0079
9417	HCMM	632	TMC3	H2	1	0.15	1.0079
9418	C=O	632	TMC3	C7	1	0.5438	12.011
9419	C=O	632	TMC3	C8	1	0.5438	12.011
9420	O=C	632	TMC3	O1	1	-0.57	15.9994
9421	O=C	632	TMC3	O2	1	-0.57	15.9994
9422	CB	633	MPD2	C	1	-0.15	12.011
9423	CB	633	MPD2	C1	1	0.117	12.011
9424	CB	633	MPD2	C2	1	-0.15	12.011
9425	CB	633	MPD2	C3	1	0.117	12.011
9426	CB	633	MPD2	C4	1	-0.15	12.011
9427	CB	633	MPD2	C5	1	-0.15	12.011
9428	HCMM	633	MPD2	H	1	0.15	1.0079
9429	HCMM	633	MPD2	H1	1	0.15	1.0079
9430	HCMM	633	MPD2	H2	1	0.15	1.0079
9431	HCMM	633	MPD2	H3	1	0.15	1.0079
9432	NC=O	633	MPD2	N	1	-0.547	14.0067
9433	HNCO	633	MPD2	H5	1	0.37	1.0079
9434	NC=O	633	MPD2	N1	1	-0.547	14.0067
9435	HNCO	633	MPD2	H7	1	0.37	1.0079
9436	CB	634	TMC3	C1	1	0.0862	12.011
9437	CB	634	TMC3	C2	1	-0.15	12.011
9438	CB	634	TMC3	C3	1	0.0862	12.011
9439	CB	634	TMC3	C4	1	-0.15	12.011
9440	CB	634	TMC3	C5	1	0.0862	12.011
9441	CB	634	TMC3	C6	1	-0.15	12.011
9442	C=O	634	TMC3	C	1	0.5438	12.011
9443	O=C	634	TMC3	O	1	-0.57	15.9994
9444	HCMM	634	TMC3	H	1	0.15	1.0079
9445	HCMM	634	TMC3	H1	1	0.15	1.0079
9446	HCMM	634	TMC3	H2	1	0.15	1.0079
9447	C=O	634	TMC3	C7	1	0.5438	12.011
9448	C=O	634	TMC3	C8	1	0.5438	12.011
9449	O=C	634	TMC3	O1	1	-0.57	15.9994
9450	O=C	634	TMC3	O2	1	-0.57	15.9994
9451	CB	635	TMC3	C1	1	0.0862	12.011
9452	CB	635	TMC3	C2	1	-0.15	12.011
9453	CB	635	TMC3	C3	1	0.0862	12.011
9454	CB	635	TMC3	C4	1	-0.15	12.011
9455	CB	635	TMC3	C5	1	0.0862	12.011
9456	CB	635	TMC3	C6	1	-0.15	12.011
9457	C=O	635	TMC3	C	1	0.5438	12.011
9458	O=C	635	TMC3	O	1	-0.57	15.9994
9459	HCMM	635	TMC3	H	1	0.15	1.0079
9460	HCMM	635	TMC3	H1	1	0.15	1.0079
9461	HCMM	635	TMC3	H2	1	0.15	1.0079
9462	C=O	635	TMC3	C7	1	0.5438	12.011
9463	C=O	635	TMC3	C8	1	0.5438	12.011
9464	O=C	635	TMC3	O1	1	-0.57	15.9994
9465	O=C	635	TMC3	O2	1	-0.57	15.9994
9466	CB	636	MPD2	C	1	-0.15	12.011
9467	CB	636	MPD2	C1	1	0.117	12.011
9468	CB	636	MPD2	C2	1	-0.15	12.011
9469	CB	636	MPD2	C3	1	0.117	12.011
9470	CB	636	MPD2	C4	1	-0.15	12.011
9471	CB	636	MPD2	C5	1	-0.15	12.011
9472	HCMM	636	MPD2	H	1	0.15	1.0079
9473	HCMM	636	MPD2	H1	1	0.15	1.0079
9474	HCMM	636	MPD2	H2	1	0.15	1.0079
9475	HCMM	636	MPD2	H3	1	0.15	1.0079
9476	NC=O	636	MPD2	N	1	-0.547	14.0067
9477	HNCO	636	MPD2	H5	1	0.37	1.0079
9478	NC=O	636	MPD2	N1	1	-0.547	14.0067
9479	HNCO	636	MPD2	H7	1	0.37	1.0079
9480	CB	637	TMC3	C1	1	0.0862	12.011
9481	CB	637	TMC3	C2	1	-0.15	12.011
9482	CB	637	TMC3	C3	1	0.0862	12.011
9483	CB	637	TMC3	C4	1	-0.15	12.011
9484	CB	637	TMC3	C5	1	0.0862	12.011
9485	CB	637	TMC3	C6	1	-0.15	12.011
9486	C=O	637	TMC3	C	1	0.5438	12.011
9487	O=C	637	TMC3	O	1	-0.57	15.9994
9488	HCMM	637	TMC3	H	1	0.15	1.0079
9489	HCMM	637	TMC3	H1	1	0.15	1.0079
9490	HCMM	637	TMC3	H2	1	0.15	1.0079
9491	C=O	637	TMC3	C7	1	0.5438	12.011
9492	C=O	637	TMC3	C8	1	0.5438	12.011
9493	O=C	637	TMC3	O1	1	-0.57	15.9994
9494	O=C	637	TMC3	O2	1	-0.57	15.9994
9495	CB	638	MPD2	C	1	-0.15	12.011
9496	CB	638	MPD2	C1	1	0.117	12.011
9497	CB	638	MPD2	C2	1	-0.15	12.011
9498	CB	638	MPD2	C3	1	0.117	12.011
9499	CB	638	MPD2	C4	1	-0.15	12.011
9500	CB	638	MPD2	C5	1	-0.15	12.011
9501	HCMM	638	MPD2	H	1	0.15	1.0079
9502	HCMM	638	MPD2	H1	1	0.15	1.0079
9503	HCMM	638	MPD2	H2	1	0.15	1.0079
9504	HCMM	638	MPD2	H3	1	0.15	1.0079
9505	NC=O	638	MPD2	N	1	-0.547	14.0067
9506	HNCO	638	MPD2	H5	1	0.37	1.0079
9507	NC=O	638	MPD2	N1	1	-0.547	14.0067
9508	HNCO	638	MPD2	H7	1	0.37	1.0079
9509	CB	639	TMC3	C1	1	0.0862	12.011
9510	CB	639	TMC3	C2	1	-0.15	12.011
9511	CB	639	TMC3	C3	1	0.0862	12.011
9512	CB	639	TMC3	C4	1	-0.15	12.011
9513	CB	639	TMC3	C5	1	0.0862	12.011
9514	CB	639	TMC3	C6	1	-0.15	12.011
9515	C=O	639	TMC3	C	1	0.5438	12.011
9516	O=C	639	TMC3	O	1	-0.57	15.9994
9517	HCMM	639	TMC3	H	1	0.15	1.0079
9518	HCMM	639	TMC3	H1	1	0.15	1.0079
9519	HCMM	639	TMC3	H2	1	0.15	1.0079
9520	C=O	639	TMC3	C7	1	0.5438	12.011
9521	C=O	639	TMC3	C8	1	0.5438	12.011
9522	O=C	639	TMC3	O1	1	-0.57	15.9994
9523	O=C	639	TMC3	O2	1	-0.57	15.9994
9524	CB	640	MPD2	C	1	-0.15	12.011
9525	CB	640	MPD2	C1	1	0.117	12.011
9526	CB	640	MPD2	C2	1	-0.15	12.011
9527	CB	640	MPD2	C3	1	0.117	12.011
9528	CB	640	MPD2	C4	1	-0.15	12.011
9529	CB	640	MPD2	C5	1	-0.15	12.011
9530	HCMM	640	MPD2	H	1	0.15	1.0079
9531	HCMM	640	MPD2	H1	1	0.15	1.0079
9532	HCMM	640	MPD2	H2	1	0.15	1.0079
9533	HCMM	640	MPD2	H3	1	0.15	1.0079
9534	NC=O	640	MPD2	N	1	-0.547	14.0067
9535	HNCO	640	MPD2	H5	1	0.37	1.0079
9536	NC=O	640	MPD2	N1	1	-0.547	14.0067
9537	HNCO	640	MPD2	H7	1	0.37	1.0079
9538	CB	641	TMC3	C1	1	0.0862	12.011
9539	CB	641	TMC3	C2	1	-0.15	12.011
9540	CB	641	TMC3	C3	1	0.0862	12.011
9541	CB	641	TMC3	C4	1	-0.15	12.011
9542	CB	641	TMC3	C5	1	0.0862	12.011
9543	CB	641	TMC3	C6	1	-0.15	12.011
9544	C=O	641	TMC3	C	1	0.5438	12.011
9545	O=C	641	TMC3	O	1	-0.57	15.9994
9546	HCMM	641	TMC3	H	1	0.15	1.0079
9547	HCMM	641	TMC3	H1	1	0.15	1.0079
9548	HCMM	641	TMC3	H2	1	0.15	1.0079
9549	C=O	641	TMC3	C7	1	0.5438	12.011
9550	C=O	641	TMC3	C8	1	0.5438	12.011
9551	O=C	641	TMC3	O1	1	-0.57	15.9994
9552	O=C	641	TMC3	O2	1	-0.57	15.9994
9553	CB	642	TMC3	C1	1	0.0862	12.011
9554	CB	642	TMC3	C2	1	-0.15	12.011
9555	CB	642	TMC3	C3	1	0.0862	12.011
9556	CB	642	TMC3	C4	1	-0.15	12.011
9557	CB	642	TMC3	C5	1	0.0862	12.011
9558	CB	642	TMC3	C6	1	-0.15	12.011
9559	C=O	642	TMC3	C	1	0.5438	12.011
9560	O=C	642	TMC3	O	1	-0.57	15.9994
9561	HCMM	642	TMC3	H	1	0.15	1.0079
9562	HCMM	642	TMC3	H1	1	0.15	1.0079
9563	HCMM	642	TMC3	H2	1	0.15	1.0079
9564	C=O	642	TMC3	C7	1	0.5438	12.011
9565	C=O	642	TMC3	C8	1	0.5438	12.011
9566	O=C	642	TMC3	O1	1	-0.57	15.9994
9567	O=C	642	TMC3	O2	1	-0.57	15.9994
9568	CB	643	TMC3	C1	1	0.0862	12.011
9569	CB	643	TMC3	C2	1	-0.15	12.011
9570	CB	643	TMC3	C3	1	0.0862	12.011
9571	CB	643	TMC3	C4	1	-0.15	12.011
9572	CB	643	TMC3	C5	1	0.0862	12.011
9573	CB	643	TMC3	C6	1	-0.15	12.011
9574	C=O	643	TMC3	C	1	0.5438	12.011
9575	O=C	643	TMC3	O	1	-0.57	15.9994
9576	HCMM	643	TMC3	H	1	0.15	1.0079
9577	HCMM	643	TMC3	H1	1	0.15	1.0079
9578	HCMM	643	TMC3	H2	1	0.15	1.0079
9579	C=O	643	TMC3	C7	1	0.5438	12.011
9580	C=O	643	TMC3	C8	1	0.5438	12.011
9581	O=C	643	TMC3	O1	1	-0.57	15.9994
9582	O=C	643	TMC3	O2	1	-0.57	15.9994
9583	CB	644	MPD2	C	1	-0.15	12.011
9584	CB	644	MPD2	C1	1	0.117	12.011
9585	CB	644	MPD2	C2	1	-0.15	12.011
9586	CB	644	MPD2	C3	1	0.117	12.011
9587	CB	644	MPD2	C4	1	-0.15	12.011
9588	CB	644	MPD2	C5	1	-0.15	12.011
9589	HCMM	644	MPD2	H	1	0.15	1.0079
9590	HCMM	644	MPD2	H1	1	0.15	1.0079
9591	HCMM	644	MPD2	H2	1	0.15	1.0079
9592	HCMM	644	MPD2	H3	1	0.15	1.0079
9593	NC=O	644	MPD2	N	1	-0.547	14.0067
9594	HNCO	644	MPD2	H5	1	0.37	1.0079
9595	NC=O	644	MPD2	N1	1	-0.547	14.0067
9596	HNCO	644	MPD2	H7	1	0.37	1.0079
9597	CB	645	TMC3	C1	1	0.0862	12.011
9598	CB	645	TMC3	C2	1	-0.15	12.011
9599	CB	645	TMC3	C3	1	0.0862	12.011
9600	CB	645	TMC3	C4	1	-0.15	12.011
9601	CB	645	TMC3	C5	1	0.0862	12.011
9602	CB	645	TMC3	C6	1	-0.15	12.011
9603	C=O	645	TMC3	C	1	0.5438	12.011
9604	O=C	645	TMC3	O	1	-0.57	15.9994
9605	HCMM	645	TMC3	H	1	0.15	1.0079
9606	HCMM	645	TMC3	H1	1	0.15	1.0079
9607	HCMM	645	TMC3	H2	1	0.15	1.0079
9608	C=O	645	TMC3	C7	1	0.5438	12.011
9609	C=O	645	TMC3	C8	1	0.5438	12.011
9610	O=C	645	TMC3	O1	1	-0.57	15.9994
9611	O=C	645	TMC3	O2	1	-0.57	15.9994
9612	CB	646	MPD2	C	1	-0.15	12.011
9613	CB	646	MPD2	C1	1	0.117	12.011
9614	CB	646	MPD2	C2	1	-0.15	12.011
9615	CB	646	MPD2	C3	1	0.117	12.011
9616	CB	646	MPD2	C4	1	-0.15	12.011
9617	CB	646	MPD2	C5	1	-0.15	12.011
9618	HCMM	646	MPD2	H	1	0.15	1.0079
9619	HCMM	646	MPD2	H1	1	0.15	1.0079
9620	HCMM	646	MPD2	H2	1	0.15	1.0079
9621	HCMM	646	MPD2	H3	1	0.15	1.0079
9622	NC=O	646	MPD2	N	1	-0.547	14.0067
9623	HNCO	646	MPD2	H5	1	0.37	1.0079
9624	NC=O	646	MPD2	N1	1	-0.547	14.0067
9625	HNCO	646	MPD2	H7	1	0.37	1.0079
9626	CB	647	TMC3	C1	1	0.0862	12.011
9627	CB	647	TMC3	C2	1	-0.15	12.011
9628	CB	647	TMC3	C3	1	0.0862	12.011
9629	CB	647	TMC3	C4	1	-0.15	12.011
9630	CB	647	TMC3	C5	1	0.0862	12.011
9631	CB	647	TMC3	C6	1	-0.15	12.011
9632	C=O	647	TMC3	C	1	0.5438	12.011
9633	O=C	647	TMC3	O	1	-0.57	15.9994
9634	HCMM	647	TMC3	H	1	0.15	1.0079
9635	HCMM	647	TMC3	H1	1	0.15	1.0079
9636	HCMM	647	TMC3	H2	1	0.15	1.0079
9637	C=O	647	TMC3	C7	1	0.5438	12.011
9638	C=O	647	TMC3	C8	1	0.5438	12.011
9639	O=C	647	TMC3	O1	1	-0.57	15.9994
9640	O=C	647	TMC3	O2	1	-0.57	15.9994
9641	CB	648	TMC3	C1	1	0.0862	12.011
9642	CB	648	TMC3	C2	1	-0.15	12.011
9643	CB	648	TMC3	C3	1	0.0862	12.011
9644	CB	648	TMC3	C4	1	-0.15	12.011
9645	CB	648	TMC3	C5	1	0.0862	12.011
9646	CB	648	TMC3	C6	1	-0.15	12.011
9647	C=O	648	TMC3	C	1	0.5438	12.011
9648	O=C	648	TMC3	O	1	-0.57	15.9994
9649	HCMM	648	TMC3	H	1	0.15	1.0079
9650	HCMM	648	TMC3	H1	1	0.15	1.0079
9651	HCMM	648	TMC3	H2	1	0.15	1.0079
9652	C=O	648	TMC3	C7	1	0.5438	12.011
9653	C=O	648	TMC3	C8	1	0.5438	12.011
9654	O=C	648	TMC3	O1	1	-0.57	15.9994
9655	O=C	648	TMC3	O2	1	-0.57	15.9994
9656	CB	649	TMC3	C1	1	0.0862	12.011
9657	CB	649	TMC3	C2	1	-0.15	12.011
9658	CB	649	TMC3	C3	1	0.0862	12.011
9659	CB	649	TMC3	C4	1	-0.15	12.011
9660	CB	649	TMC3	C5	1	0.0862	12.011
9661	CB	649	TMC3	C6	1	-0.15	12.011
9662	C=O	649	TMC3	C	1	0.5438	12.011
9663	O=C	649	TMC3	O	1	-0.57	15.9994
9664	HCMM	649	TMC3	H	1	0.15	1.0079
9665	HCMM	649	TMC3	H1	1	0.15	1.0079
9666	HCMM	649	TMC3	H2	1	0.15	1.0079
9667	C=O	649	TMC3	C7	1	0.5438	12.011
9668	C=O	649	TMC3	C8	1	0.5438	12.011
9669	O=C	649	TMC3	O1	1	-0.57	15.9994
9670	O=C	649	TMC3	O2	1	-0.57	15.9994
9671	CB	650	TMC3	C1	1	0.0862	12.011
9672	CB	650	TMC3	C2	1	-0.15	12.011
9673	CB	650	TMC3	C3	1	0.0862	12.011
9674	CB	650	TMC3	C4	1	-0.15	12.011
9675	CB	650	TMC3	C5	1	0.0862	12.011
9676	CB	650	TMC3	C6	1	-0.15	12.011
9677	C=O	650	TMC3	C	1	0.5438	12.011
9678	O=C	650	TMC3	O	1	-0.57	15.9994
9679	HCMM	650	TMC3	H	1	0.15	1.0079
9680	HCMM	650	TMC3	H1	1	0.15	1.0079
9681	HCMM	650	TMC3	H2	1	0.15	1.0079
9682	C=O	650	TMC3	C7	1	0.5438	12.011
9683	C=O	650	TMC3	C8	1	0.5438	12.011
9684	O=C	650	TMC3	O1	1	-0.57	15.9994
9685	O=C	650	TMC3	O2	1	-0.57	15.9994
9686	CB	651	MPD2	C	1	-0.15	12.011
9687	CB	651	MPD2	C1	1	0.117	12.011
9688	CB	651	MPD2	C2	1	-0.15	12.011
9689	CB	651	MPD2	C3	1	0.117	12.011
9690	CB	651	MPD2	C4	1	-0.15	12.011
9691	CB	651	MPD2	C5	1	-0.15	12.011
9692	HCMM	651	MPD2	H	1	0.15	1.0079
9693	HCMM	651	MPD2	H1	1	0.15	1.0079
9694	HCMM	651	MPD2	H2	1	0.15	1.0079
9695	HCMM	651	MPD2	H3	1	0.15	1.0079
9696	NC=O	651	MPD2	N	1	-0.547	14.0067
9697	HNCO	651	MPD2	H5	1	0.37	1.0079
9698	NC=O	651	MPD2	N1	1	-0.547	14.0067
9699	HNCO	651	MPD2	H7	1	0.37	1.0079
9700	CB	652	TMC3	C1	1	0.0862	12.011
9701	CB	652	TMC3	C2	1	-0.15	12.011
9702	CB	652	TMC3	C3	1	0.0862	12.011
9703	CB	652	TMC3	C4	1	-0.15	12.011
9704	CB	652	TMC3	C5	1	0.0862	12.011
9705	CB	652	TMC3	C6	1	-0.15	12.011
9706	C=O	652	TMC3	C	1	0.5438	12.011
9707	O=C	652	TMC3	O	1	-0.57	15.9994
9708	HCMM	652	TMC3	H	1	0.15	1.0079
9709	HCMM	652	TMC3	H1	1	0.15	1.0079
9710	HCMM	652	TMC3	H2	1	0.15	1.0079
9711	C=O	652	TMC3	C7	1	0.5438	12.011
9712	C=O	652	TMC3	C8	1	0.5438	12.011
9713	O=C	652	TMC3	O1	1	-0.57	15.9994
9714	O=C	652	TMC3	O2	1	-0.57	15.9994
9715	CB	653	MPD2	C	1	-0.15	12.011
9716	CB	653	MPD2	C1	1	0.117	12.011
9717	CB	653	MPD2	C2	1	-0.15	12.011
9718	CB	653	MPD2	C3	1	0.117	12.011
9719	CB	653	MPD2	C4	1	-0.15	12.011
9720	CB	653	MPD2	C5	1	-0.15	12.011
9721	HCMM	653	MPD2	H	1	0.15	1.0079
9722	HCMM	653	MPD2	H1	1	0.15	1.0079
9723	HCMM	653	MPD2	H2	1	0.15	1.0079
9724	HCMM	653	MPD2	H3	1	0.15	1.0079
9725	NC=O	653	MPD2	N	1	-0.547	14.0067
9726	HNCO	653	MPD2	H5	1	0.37	1.0079
9727	NC=O	653	MPD2	N1	1	-0.547	14.0067
9728	HNCO	653	MPD2	H7	1	0.37	1.0079
9729	CB	654	TMC3	C1	1	0.0862	12.011
9730	CB	654	TMC3	C2	1	-0.15	12.011
9731	CB	654	TMC3	C3	1	0.0862	12.011
9732	CB	654	TMC3	C4	1	-0.15	12.011
9733	CB	654	TMC3	C5	1	0.0862	12.011
9734	CB	654	TMC3	C6	1	-0.15	12.011
9735	C=O	654	TMC3	C	1	0.5438	12.011
9736	O=C	654	TMC3	O	1	-0.57	15.9994
9737	HCMM	654	TMC3	H	1	0.15	1.0079
9738	HCMM	654	TMC3	H1	1	0.15	1.0079
9739	HCMM	654	TMC3	H2	1	0.15	1.0079
9740	C=O	654	TMC3	C7	1	0.5438	12.011
9741	C=O	654	TMC3	C8	1	0.5438	12.011
9742	O=C	654	TMC3	O1	1	-0.57	15.9994
9743	O=C	654	TMC3	O2	1	-0.57	15.9994
9744	CB	655	MPD2	C	1	-0.15	12.011
9745	CB	655	MPD2	C1	1	0.117	12.011
9746	CB	655	MPD2	C2	1	-0.15	12.011
9747	CB	655	MPD2	C3	1	0.117	12.011
9748	CB	655	MPD2	C4	1	-0.15	12.011
9749	CB	655	MPD2	C5	1	-0.15	12.011
9750	HCMM	655	MPD2	H	1	0.15	1.0079
9751	HCMM	655	MPD2	H1	1	0.15	1.0079
9752	HCMM	655	MPD2	H2	1	0.15	1.0079
9753	HCMM	655	MPD2	H3	1	0.15	1.0079
9754	NC=O	655	MPD2	N	1	-0.547	14.0067
9755	HNCO	655	MPD2	H5	1	0.37	1.0079
9756	NC=O	655	MPD2	N1	1	-0.547	14.0067
9757	HNCO	655	MPD2	H7	1	0.37	1.0079
9758	CB	656	TMC3	C1	1	0.0862	12.011
9759	CB	656	TMC3	C2	1	-0.15	12.011
9760	CB	656	TMC3	C3	1	0.0862	12.011
9761	CB	656	TMC3	C4	1	-0.15	12.011
9762	CB	656	TMC3	C5	1	0.0862	12.011
9763	CB	656	TMC3	C6	1	-0.15	12.011
9764	C=O	656	TMC3	C	1	0.5438	12.011
9765	O=C	656	TMC3	O	1	-0.57	15.9994
9766	HCMM	656	TMC3	H	1	0.15	1.0079
9767	HCMM	656	TMC3	H1	1	0.15	1.0079
9768	HCMM	656	TMC3	H2	1	0.15	1.0079
9769	C=O	656	TMC3	C7	1	0.5438	12.011
9770	C=O	656	TMC3	C8	1	0.5438	12.011
9771	O=C	656	TMC3	O1	1	-0.57	15.9994
9772	O=C	656	TMC3	O2	1	-0.57	15.9994
9773	CB	657	TMC3	C1	1	0.0862	12.011
9774	CB	657	TMC3	C2	1	-0.15	12.011
9775	CB	657	TMC3	C3	1	0.0862	12.011
9776	CB	657	TMC3	C4	1	-0.15	12.011
9777	CB	657	TMC3	C5	1	0.0862	12.011
9778	CB	657	TMC3	C6	1	-0.15	12.011
9779	C=O	657	TMC3	C	1	0.5438	12.011
9780	O=C	657	TMC3	O	1	-0.57	15.9994
9781	HCMM	657	TMC3	H	1	0.15	1.0079
9782	HCMM	657	TMC3	H1	1	0.15	1.0079
9783	HCMM	657	TMC3	H2	1	0.15	1.0079
9784	C=O	657	TMC3	C7	1	0.5438	12.011
9785	C=O	657	TMC3	C8	1	0.5438	12.011
9786	O=C	657	TMC3	O1	1	-0.57	15.9994
9787	O=C	657	TMC3	O2	1	-0.57	15.9994
9788	CB	658	MPD2	C	1	-0.15	12.011
9789	CB	658	MPD2	C1	1	0.117	12.011
9790	CB	658	MPD2	C2	1	-0.15	12.011
9791	CB	658	MPD2	C3	1	0.117	12.011
9792	CB	658	MPD2	C4	1	-0.15	12.011
9793	CB	658	MPD2	C5	1	-0.15	12.011
9794	HCMM	658	MPD2	H	1	0.15	1.0079
9795	HCMM	658	MPD2	H1	1	0.15	1.0079
9796	HCMM	658	MPD2	H2	1	0.15	1.0079
9797	HCMM	658	MPD2	H3	1	0.15	1.0079
9798	NC=O	658	MPD2	N	1	-0.547	14.0067
9799	HNCO	658	MPD2	H5	1	0.37	1.0079
9800	NC=O	658	MPD2	N1	1	-0.547	14.0067
9801	HNCO	658	MPD2	H7	1	0.37	1.0079
9802	CB	659	TMC3	C1	1	0.0862	12.011
9803	CB	659	TMC3	C2	1	-0.15	12.011
9804	CB	659	TMC3	C3	1	0.0862	12.011
9805	CB	659	TMC3	C4	1	-0.15	12.011
9806	CB	659	TMC3	C5	1	0.0862	12.011
9807	CB	659	TMC3	C6	1	-0.15	12.011
9808	C=O	659	TMC3	C	1	0.5438	12.011
9809	O=C	659	TMC3	O	1	-0.57	15.9994
9810	HCMM	659	TMC3	H	1	0.15	1.0079
9811	HCMM	659	TMC3	H1	1	0.15	1.0079
9812	HCMM	659	TMC3	H2	1	0.15	1.0079
9813	C=O	659	TMC3	C7	1	0.5438	12.011
9814	C=O	659	TMC3	C8	1	0.5438	12.011
9815	O=C	659	TMC3	O1	1	-0.57	15.9994
9816	O=C	659	TMC3	O2	1	-0.57	15.9994
9817	CB	660	MPD2	C	1	-0.15	12.011
9818	CB	660	MPD2	C1	1	0.117	12.011
9819	CB	660	MPD2	C2	1	-0.15	12.011
9820	CB	660	MPD2	C3	1	0.117	12.011
9821	CB	660	MPD2	C4	1	-0.15	12.011
9822	CB	660	MPD2	C5	1	-0.15	12.011
9823	HCMM	660	MPD2	H	1	0.15	1.0079
9824	HCMM	660	MPD2	H1	1	0.15	1.0079
9825	HCMM	660	MPD2	H2	1	0.15	1.0079
9826	HCMM	660	MPD2	H3	1	0.15	1.0079
9827	NC=O	660	MPD2	N	1	-0.547	14.0067
9828	HNCO	660	MPD2	H5	1	0.37	1.0079
9829	NC=O	660	MPD2	N1	1	-0.547	14.0067
9830	HNCO	660	MPD2	H7	1	0.37	1.0079
9831	CB	661	TMC3	C1	1	0.0862	12.011
9832	CB	661	TMC3	C2	1	-0.15	12.011
9833	CB	661	TMC3	C3	1	0.0862	12.011
9834	CB	661	TMC3	C4	1	-0.15	12.011
9835	CB	661	TMC3	C5	1	0.0862	12.011
9836	CB	661	TMC3	C6	1	-0.15	12.011
9837	C=O	661	TMC3	C	1	0.5438	12.011
9838	O=C	661	TMC3	O	1	-0.57	15.9994
9839	HCMM	661	TMC3	H	1	0.15	1.0079
9840	HCMM	661	TMC3	H1	1	0.15	1.0079
9841	HCMM	661	TMC3	H2	1	0.15	1.0079
9842	C=O	661	TMC3	C7	1	0.5438	12.011
9843	C=O	661	TMC3	C8	1	0.5438	12.011
9844	O=C	661	TMC3	O1	1	-0.57	15.9994
9845	O=C	661	TMC3	O2	1	-0.57	15.9994
9846	CB	662	MPD2	C	1	-0.15	12.011
9847	CB	662	MPD2	C1	1	0.117	12.011
9848	CB	662	MPD2	C2	1	-0.15	12.011
9849	CB	662	MPD2	C3	1	0.117	12.011
9850	CB	662	MPD2	C4	1	-0.15	12.011
9851	CB	662	MPD2	C5	1	-0.15	12.011
9852	HCMM	662	MPD2	H	1	0.15	1.0079
9853	HCMM	662	MPD2	H1	1	0.15	1.0079
9854	HCMM	662	MPD2	H2	1	0.15	1.0079
9855	HCMM	662	MPD2	H3	1	0.15	1.0079
9856	NC=O	662	MPD2	N	1	-0.547	14.0067
9857	HNCO	662	MPD2	H5	1	0.37	1.0079
9858	NC=O	662	MPD2	N1	1	-0.547	14.0067
9859	HNCO	662	MPD2	H7	1	0.37	1.0079
9860	CB	663	TMC3	C1	1	0.0862	12.011
9861	CB	663	TMC3	C2	1	-0.15	12.011
9862	CB	663	TMC3	C3	1	0.0862	12.011
9863	CB	663	TMC3	C4	1	-0.15	12.011
9864	CB	663	TMC3	C5	1	0.0862	12.011
9865	CB	663	TMC3	C6	1	-0.15	12.011
9866	C=O	663	TMC3	C	1	0.5438	12.011
9867	O=C	663	TMC3	O	1	-0.57	15.9994
9868	HCMM	663	TMC3	H	1	0.15	1.0079
9869	HCMM	663	TMC3	H1	1	0.15	1.0079
9870	HCMM	663	TMC3	H2	1	0.15	1.0079
9871	C=O	663	TMC3	C7	1	0.5438	12.011
9872	C=O	663	TMC3	C8	1	0.5438	12.011
9873	O=C	663	TMC3	O1	1	-0.57	15.9994
9874	O=C	663	TMC3	O2	1	-0.57	15.9994
9875	CB	664	MPD2	C	1	-0.15	12.011
9876	CB	664	MPD2	C1	1	0.117	12.011
9877	CB	664	MPD2	C2	1	-0.15	12.011
9878	CB	664	MPD2	C3	1	0.117	12.011
9879	CB	664	MPD2	C4	1	-0.15	12.011
9880	CB	664	MPD2	C5	1	-0.15	12.011
9881	HCMM	664	MPD2	H	1	0.15	1.0079
9882	HCMM	664	MPD2	H1	1	0.15	1.0079
9883	HCMM	664	MPD2	H2	1	0.15	1.0079
9884	HCMM	664	MPD2	H3	1	0.15	1.0079
9885	NC=O	664	MPD2	N	1	-0.547	14.0067
9886	HNCO	664	MPD2	H5	1	0.37	1.0079
9887	NC=O	664	MPD2	N1	1	-0.547	14.0067
9888	HNCO	664	MPD2	H7	1	0.37	1.0079
9889	CB	665	TMC3	C1	1	0.0862	12.011
9890	CB	665	TMC3	C2	1	-0.15	12.011
9891	CB	665	TMC3	C3	1	0.0862	12.011
9892	CB	665	TMC3	C4	1	-0.15	12.011
9893	CB	665	TMC3	C5	1	0.0862	12.011
9894	CB	665	TMC3	C6	1	-0.15	12.011
9895	C=O	665	TMC3	C	1	0.5438	12.011
9896	O=C	665	TMC3	O	1	-0.57	15.9994
9897	HCMM	665	TMC3	H	1	0.15	1.0079
9898	HCMM	665	TMC3	H1	1	0.15	1.0079
9899	HCMM	665	TMC3	H2	1	0.15	1.0079
9900	C=O	665	TMC3	C7	1	0.5438	12.011
9901	C=O	665	TMC3	C8	1	0.5438	12.011
9902	O=C	665	TMC3	O1	1	-0.57	15.9994
9903	O=C	665	TMC3	O2	1	-0.57	15.9994
9904	CB	666	TMC3	C1	1	0.0862	12.011
9905	CB	666	TMC3	C2	1	-0.15	12.011
9906	CB	666	TMC3	C3	1	0.0862	12.011
9907	CB	666	TMC3	C4	1	-0.15	12.011
9908	CB	666	TMC3	C5	1	0.0862	12.011
9909	CB	666	TMC3	C6	1	-0.15	12.011
9910	C=O	666	TMC3	C	1	0.5438	12.011
9911	O=C	666	TMC3	O	1	-0.57	15.9994
9912	HCMM	666	TMC3	H	1	0.15	1.0079
9913	HCMM	666	TMC3	H1	1	0.15	1.0079
9914	HCMM	666	TMC3	H2	1	0.15	1.0079
9915	C=O	666	TMC3	C7	1	0.5438	12.011
9916	C=O	666	TMC3	C8	1	0.5438	12.011
9917	O=C	666	TMC3	O1	1	-0.57	15.9994
9918	O=C	666	TMC3	O2	1	-0.57	15.9994
9919	CB	667	MPD2	C	1	-0.15	12.011
9920	CB	667	MPD2	C1	1	0.117	12.011
9921	CB	667	MPD2	C2	1	-0.15	12.011
9922	CB	667	MPD2	C3	1	0.117	12.011
9923	CB	667	MPD2	C4	1	-0.15	12.011
9924	CB	667	MPD2	C5	1	-0.15	12.011
9925	HCMM	667	MPD2	H	1	0.15	1.0079
9926	HCMM	667	MPD2	H1	1	0.15	1.0079
9927	HCMM	667	MPD2	H2	1	0.15	1.0079
9928	HCMM	667	MPD2	H3	1	0.15	1.0079
9929	NC=O	667	MPD2	N	1	-0.547	14.0067
9930	HNCO	667	MPD2	H5	1	0.37	1.0079
9931	NC=O	667	MPD2	N1	1	-0.547	14.0067
9932	HNCO	667	MPD2	H7	1	0.37	1.0079
9933	CB	668	TMC3	C1	1	0.0862	12.011
9934	CB	668	TMC3	C2	1	-0.15	12.011
9935	CB	668	TMC3	C3	1	0.0862	12.011
9936	CB	668	TMC3	C4	1	-0.15	12.011
9937	CB	668	TMC3	C5	1	0.0862	12.011
9938	CB	668	TMC3	C6	1	-0.15	12.011
9939	C=O	668	TMC3	C	1	0.5438	12.011
9940	O=C	668	TMC3	O	1	-0.57	15.9994
9941	HCMM	668	TMC3	H	1	0.15	1.0079
9942	HCMM	668	TMC3	H1	1	0.15	1.0079
9943	HCMM	668	TMC3	H2	1	0.15	1.0079
9944	C=O	668	TMC3	C7	1	0.5438	12.011
9945	C=O	668	TMC3	C8	1	0.5438	12.011
9946	O=C	668	TMC3	O1	1	-0.57	15.9994
9947	O=C	668	TMC3	O2	1	-0.57	15.9994
9948	CB	669	TMC3	C1	1	0.0862	12.011
9949	CB	669	TMC3	C2	1	-0.15	12.011
9950	CB	669	TMC3	C3	1	0.0862	12.011
9951	CB	669	TMC3	C4	1	-0.15	12.011
9952	CB	669	TMC3	C5	1	0.0862	12.011
9953	CB	669	TMC3	C6	1	-0.15	12.011
9954	C=O	669	TMC3	C	1	0.5438	12.011
9955	O=C	669	TMC3	O	1	-0.57	15.9994
9956	HCMM	669	TMC3	H	1	0.15	1.0079
9957	HCMM	669	TMC3	H1	1	0.15	1.0079
9958	HCMM	669	TMC3	H2	1	0.15	1.0079
9959	C=O	669	TMC3	C7	1	0.5438	12.011
9960	C=O	669	TMC3	C8	1	0.5438	12.011
9961	O=C	669	TMC3	O1	1	-0.57	15.9994
9962	O=C	669	TMC3	O2	1	-0.57	15.9994
9963	CB	670	MPD2	C	1	-0.15	12.011
9964	CB	670	MPD2	C1	1	0.117	12.011
9965	CB	670	MPD2	C2	1	-0.15	12.011
9966	CB	670	MPD2	C3	1	0.117	12.011
9967	CB	670	MPD2	C4	1	-0.15	12.011
9968	CB	670	MPD2	C5	1	-0.15	12.011
9969	HCMM	670	MPD2	H	1	0.15	1.0079
9970	HCMM	670	MPD2	H1	1	0.15	1.0079
9971	HCMM	670	MPD2	H2	1	0.15	1.0079
9972	HCMM	670	MPD2	H3	1	0.15	1.0079
9973	NC=O	670	MPD2	N	1	-0.547	14.0067
9974	HNCO	670	MPD2	H5	1	0.37	1.0079
9975	NC=O	670	MPD2	N1	1	-0.547	14.0067
9976	HNCO	670	MPD2	H7	1	0.37	1.0079
9977	CB	671	TMC3	C1	1	0.0862	12.011
9978	CB	671	TMC3	C2	1	-0.15	12.011
9979	CB	671	TMC3	C3	1	0.0862	12.011
9980	CB	671	TMC3	C4	1	-0.15	12.011
9981	CB	671	TMC3	C5	1	0.0862	12.011
9982	CB	671	TMC3	C6	1	-0.15	12.011
9983	C=O	671	TMC3	C	1	0.5438	12.011
9984	O=C	671	TMC3	O	1	-0.57	15.9994
9985	HCMM	671	TMC3	H	1	0.15	1.0079
9986	HCMM	671	TMC3	H1	1	0.15	1.0079
9987	HCMM	671	TMC3	H2	1	0.15	1.0079
9988	C=O	671	TMC3	C7	1	0.5438	12.011
9989	C=O	671	TMC3	C8	1	0.5438	12.011
9990	O=C	671	TMC3	O1	1	-0.57	15.9994
9991	O=C	671	TMC3	O2	1	-0.57	15.9994
9992	CB	672	MPD2	C	1	-0.15	12.011
9993	CB	672	MPD2	C1	1	0.117	12.011
9994	CB	672	MPD2	C2	1	-0.15	12.011
9995	CB	672	MPD2	C3	1	0.117	12.011
9996	CB	672	MPD2	C4	1	-0.15	12.011
9997	CB	672	MPD2	C5	1	-0.15	12.011
9998	HCMM	672	MPD2	H	1	0.15	1.0079
9999	HCMM	672	MPD2	H1	1	0.15	1.0079
10000	HCMM	672	MPD2	H2	1	0.15	1.0079
10001	HCMM	672	MPD2	H3	1	0.15	1.0079
10002	NC=O	672	MPD2	N	1	-0.547	14.0067
10003	HNCO	672	MPD2	H5	1	0.37	1.0079
10004	NC=O	672	MPD2	N1	1	-0.547	14.0067
10005	HNCO	672	MPD2	H7	1	0.37	1.0079
10006	CB	673	TMC3	C1	1	0.0862	12.011
10007	CB	673	TMC3	C2	1	-0.15	12.011
10008	CB	673	TMC3	C3	1	0.0862	12.011
10009	CB	673	TMC3	C4	1	-0.15	12.011
10010	CB	673	TMC3	C5	1	0.0862	12.011
10011	CB	673	TMC3	C6	1	-0.15	12.011
10012	C=O	673	TMC3	C	1	0.5438	12.011
10013	O=C	673	TMC3	O	1	-0.57	15.9994
10014	HCMM	673	TMC3	H	1	0.15	1.0079
10015	HCMM	673	TMC3	H1	1	0.15	1.0079
10016	HCMM	673	TMC3	H2	1	0.15	1.0079
10017	C=O	673	TMC3	C7	1	0.5438	12.011
10018	C=O	673	TMC3	C8	1	0.5438	12.011
10019	O=C	673	TMC3	O1	1	-0.57	15.9994
10020	O=C	673	TMC3	O2	1	-0.57	15.9994
10021	CB	674	MPD2	C	1	-0.15	12.011
10022	CB	674	MPD2	C1	1	0.117	12.011
10023	CB	674	MPD2	C2	1	-0.15	12.011
10024	CB	674	MPD2	C3	1	0.117	12.011
10025	CB	674	MPD2	C4	1	-0.15	12.011
10026	CB	674	MPD2	C5	1	-0.15	12.011
10027	HCMM	674	MPD2	H	1	0.15	1.0079
10028	HCMM	674	MPD2	H1	1	0.15	1.0079
10029	HCMM	674	MPD2	H2	1	0.15	1.0079
10030	HCMM	674	MPD2	H3	1	0.15	1.0079
10031	NC=O	674	MPD2	N	1	-0.547	14.0067
10032	HNCO	674	MPD2	H5	1	0.37	1.0079
10033	NC=O	674	MPD2	N1	1	-0.547	14.0067
10034	HNCO	674	MPD2	H7	1	0.37	1.0079
10035	CB	675	TMC3	C1	1	0.0862	12.011
10036	CB	675	TMC3	C2	1	-0.15	12.011
10037	CB	675	TMC3	C3	1	0.0862	12.011
10038	CB	675	TMC3	C4	1	-0.15	12.011
10039	CB	675	TMC3	C5	1	0.0862	12.011
10040	CB	675	TMC3	C6	1	-0.15	12.011
10041	C=O	675	TMC3	C	1	0.5438	12.011
10042	O=C	675	TMC3	O	1	-0.57	15.9994
10043	HCMM	675	TMC3	H	1	0.15	1.0079
10044	HCMM	675	TMC3	H1	1	0.15	1.0079
10045	HCMM	675	TMC3	H2	1	0.15	1.0079
10046	C=O	675	TMC3	C7	1	0.5438	12.011
10047	C=O	675	TMC3	C8	1	0.5438	12.011
10048	O=C	675	TMC3	O1	1	-0.57	15.9994
10049	O=C	675	TMC3	O2	1	-0.57	15.9994
10050	CB	676	MPD2	C	1	-0.15	12.011
10051	CB	676	MPD2	C1	1	0.117	12.011
10052	CB	676	MPD2	C2	1	-0.15	12.011
10053	CB	676	MPD2	C3	1	0.117	12.011
10054	CB	676	MPD2	C4	1	-0.15	12.011
10055	CB	676	MPD2	C5	1	-0.15	12.011
10056	HCMM	676	MPD2	H	1	0.15	1.0079
10057	HCMM	676	MPD2	H1	1	0.15	1.0079
10058	HCMM	676	MPD2	H2	1	0.15	1.0079
10059	HCMM	676	MPD2	H3	1	0.15	1.0079
10060	NC=O	676	MPD2	N	1	-0.547	14.0067
10061	HNCO	676	MPD2	H5	1	0.37	1.0079
10062	NC=O	676	MPD2	N1	1	-0.547	14.0067
10063	HNCO	676	MPD2	H7	1	0.37	1.0079
10064	CB	677	TMC3	C1	1	0.0862	12.011
10065	CB	677	TMC3	C2	1	-0.15	12.011
10066	CB	677	TMC3	C3	1	0.0862	12.011
10067	CB	677	TMC3	C4	1	-0.15	12.011
10068	CB	677	TMC3	C5	1	0.0862	12.011
10069	CB	677	TMC3	C6	1	-0.15	12.011
10070	C=O	677	TMC3	C	1	0.5438	12.011
10071	O=C	677	TMC3	O	1	-0.57	15.9994
10072	HCMM	677	TMC3	H	1	0.15	1.0079
10073	HCMM	677	TMC3	H1	1	0.15	1.0079
10074	HCMM	677	TMC3	H2	1	0.15	1.0079
10075	C=O	677	TMC3	C7	1	0.5438	12.011
10076	C=O	677	TMC3	C8	1	0.5438	12.011
10077	O=C	677	TMC3	O1	1	-0.57	15.9994
10078	O=C	677	TMC3	O2	1	-0.57	15.9994
10079	CB	678	MPD2	C	1	-0.15	12.011
10080	CB	678	MPD2	C1	1	0.117	12.011
10081	CB	678	MPD2	C2	1	-0.15	12.011
10082	CB	678	MPD2	C3	1	0.117	12.011
10083	CB	678	MPD2	C4	1	-0.15	12.011
10084	CB	678	MPD2	C5	1	-0.15	12.011
10085	HCMM	678	MPD2	H	1	0.15	1.0079
10086	HCMM	678	MPD2	H1	1	0.15	1.0079
10087	HCMM	678	MPD2	H2	1	0.15	1.0079
10088	HCMM	678	MPD2	H3	1	0.15	1.0079
10089	NC=O	678	MPD2	N	1	-0.547	14.0067
10090	HNCO	678	MPD2	H5	1	0.37	1.0079
10091	NC=O	678	MPD2	N1	1	-0.547	14.0067
10092	HNCO	678	MPD2	H7	1	0.37	1.0079
10093	CB	679	TMC3	C1	1	0.0862	12.011
10094	CB	679	TMC3	C2	1	-0.15	12.011
10095	CB	679	TMC3	C3	1	0.0862	12.011
10096	CB	679	TMC3	C4	1	-0.15	12.011
10097	CB	679	TMC3	C5	1	0.0862	12.011
10098	CB	679	TMC3	C6	1	-0.15	12.011
10099	C=O	679	TMC3	C	1	0.5438	12.011
10100	O=C	679	TMC3	O	1	-0.57	15.9994
10101	HCMM	679	TMC3	H	1	0.15	1.0079
10102	HCMM	679	TMC3	H1	1	0.15	1.0079
10103	HCMM	679	TMC3	H2	1	0.15	1.0079
10104	C=O	679	TMC3	C7	1	0.5438	12.011
10105	C=O	679	TMC3	C8	1	0.5438	12.011
10106	O=C	679	TMC3	O1	1	-0.57	15.9994
10107	O=C	679	TMC3	O2	1	-0.57	15.9994
10108	CB	680	MPD2	C	1	-0.15	12.011
10109	CB	680	MPD2	C1	1	0.117	12.011
10110	CB	680	MPD2	C2	1	-0.15	12.011
10111	CB	680	MPD2	C3	1	0.117	12.011
10112	CB	680	MPD2	C4	1	-0.15	12.011
10113	CB	680	MPD2	C5	1	-0.15	12.011
10114	HCMM	680	MPD2	H	1	0.15	1.0079
10115	HCMM	680	MPD2	H1	1	0.15	1.0079
10116	HCMM	680	MPD2	H2	1	0.15	1.0079
10117	HCMM	680	MPD2	H3	1	0.15	1.0079
10118	NC=O	680	MPD2	N	1	-0.547	14.0067
10119	HNCO	680	MPD2	H5	1	0.37	1.0079
10120	NC=O	680	MPD2	N1	1	-0.547	14.0067
10121	HNCO	680	MPD2	H7	1	0.37	1.0079
10122	CB	681	TMC3	C1	1	0.0862	12.011
10123	CB	681	TMC3	C2	1	-0.15	12.011
10124	CB	681	TMC3	C3	1	0.0862	12.011
10125	CB	681	TMC3	C4	1	-0.15	12.011
10126	CB	681	TMC3	C5	1	0.0862	12.011
10127	CB	681	TMC3	C6	1	-0.15	12.011
10128	C=O	681	TMC3	C	1	0.5438	12.011
10129	O=C	681	TMC3	O	1	-0.57	15.9994
10130	HCMM	681	TMC3	H	1	0.15	1.0079
10131	HCMM	681	TMC3	H1	1	0.15	1.0079
10132	HCMM	681	TMC3	H2	1	0.15	1.0079
10133	C=O	681	TMC3	C7	1	0.5438	12.011
10134	C=O	681	TMC3	C8	1	0.5438	12.011
10135	O=C	681	TMC3	O1	1	-0.57	15.9994
10136	O=C	681	TMC3	O2	1	-0.57	15.9994
10137	CB	682	MPD2	C	1	-0.15	12.011
10138	CB	682	MPD2	C1	1	0.117	12.011
10139	CB	682	MPD2	C2	1	-0.15	12.011
10140	CB	682	MPD2	C3	1	0.117	12.011
10141	CB	682	MPD2	C4	1	-0.15	12.011
10142	CB	682	MPD2	C5	1	-0.15	12.011
10143	HCMM	682	MPD2	H	1	0.15	1.0079
10144	HCMM	682	MPD2	H1	1	0.15	1.0079
10145	HCMM	682	MPD2	H2	1	0.15	1.0079
10146	HCMM	682	MPD2	H3	1	0.15	1.0079
10147	NC=O	682	MPD2	N	1	-0.547	14.0067
10148	HNCO	682	MPD2	H5	1	0.37	1.0079
10149	NC=O	682	MPD2	N1	1	-0.547	14.0067
10150	HNCO	682	MPD2	H7	1	0.37	1.0079
10151	CB	683	TMC3	C1	1	0.0862	12.011
10152	CB	683	TMC3	C2	1	-0.15	12.011
10153	CB	683	TMC3	C3	1	0.0862	12.011
10154	CB	683	TMC3	C4	1	-0.15	12.011
10155	CB	683	TMC3	C5	1	0.0862	12.011
10156	CB	683	TMC3	C6	1	-0.15	12.011
10157	C=O	683	TMC3	C	1	0.5438	12.011
10158	O=C	683	TMC3	O	1	-0.57	15.9994
10159	HCMM	683	TMC3	H	1	0.15	1.0079
10160	HCMM	683	TMC3	H1	1	0.15	1.0079
10161	HCMM	683	TMC3	H2	1	0.15	1.0079
10162	C=O	683	TMC3	C7	1	0.5438	12.011
10163	C=O	683	TMC3	C8	1	0.5438	12.011
10164	O=C	683	TMC3	O1	1	-0.57	15.9994
10165	O=C	683	TMC3	O2	1	-0.57	15.9994
10166	CB	684	MPD2	C	1	-0.15	12.011
10167	CB	684	MPD2	C1	1	0.117	12.011
10168	CB	684	MPD2	C2	1	-0.15	12.011
10169	CB	684	MPD2	C3	1	0.117	12.011
10170	CB	684	MPD2	C4	1	-0.15	12.011
10171	CB	684	MPD2	C5	1	-0.15	12.011
10172	HCMM	684	MPD2	H	1	0.15	1.0079
10173	HCMM	684	MPD2	H1	1	0.15	1.0079
10174	HCMM	684	MPD2	H2	1	0.15	1.0079
10175	HCMM	684	MPD2	H3	1	0.15	1.0079
10176	NC=O	684	MPD2	N	1	-0.547	14.0067
10177	HNCO	684	MPD2	H5	1	0.37	1.0079
10178	NC=O	684	MPD2	N1	1	-0.547	14.0067
10179	HNCO	684	MPD2	H7	1	0.37	1.0079
10180	CB	685	TMC3	C1	1	0.0862	12.011
10181	CB	685	TMC3	C2	1	-0.15	12.011
10182	CB	685	TMC3	C3	1	0.0862	12.011
10183	CB	685	TMC3	C4	1	-0.15	12.011
10184	CB	685	TMC3	C5	1	0.0862	12.011
10185	CB	685	TMC3	C6	1	-0.15	12.011
10186	C=O	685	TMC3	C	1	0.5438	12.011
10187	O=C	685	TMC3	O	1	-0.57	15.9994
10188	HCMM	685	TMC3	H	1	0.15	1.0079
10189	HCMM	685	TMC3	H1	1	0.15	1.0079
10190	HCMM	685	TMC3	H2	1	0.15	1.0079
10191	C=O	685	TMC3	C7	1	0.5438	12.011
10192	C=O	685	TMC3	C8	1	0.5438	12.011
10193	O=C	685	TMC3	O1	1	-0.57	15.9994
10194	O=C	685	TMC3	O2	1	-0.57	15.9994
10195	CB	686	MPD2	C	1	-0.15	12.011
10196	CB	686	MPD2	C1	1	0.117	12.011
10197	CB	686	MPD2	C2	1	-0.15	12.011
10198	CB	686	MPD2	C3	1	0.117	12.011
10199	CB	686	MPD2	C4	1	-0.15	12.011
10200	CB	686	MPD2	C5	1	-0.15	12.011
10201	HCMM	686	MPD2	H	1	0.15	1.0079
10202	HCMM	686	MPD2	H1	1	0.15	1.0079
10203	HCMM	686	MPD2	H2	1	0.15	1.0079
10204	HCMM	686	MPD2	H3	1	0.15	1.0079
10205	NC=O	686	MPD2	N	1	-0.547	14.0067
10206	HNCO	686	MPD2	H5	1	0.37	1.0079
10207	NC=O	686	MPD2	N1	1	-0.547	14.0067
10208	HNCO	686	MPD2	H7	1	0.37	1.0079
10209	CB	687	TMC3	C1	1	0.0862	12.011
10210	CB	687	TMC3	C2	1	-0.15	12.011
10211	CB	687	TMC3	C3	1	0.0862	12.011
10212	CB	687	TMC3	C4	1	-0.15	12.011
10213	CB	687	TMC3	C5	1	0.0862	12.011
10214	CB	687	TMC3	C6	1	-0.15	12.011
10215	C=O	687	TMC3	C	1	0.5438	12.011
10216	O=C	687	TMC3	O	1	-0.57	15.9994
10217	HCMM	687	TMC3	H	1	0.15	1.0079
10218	HCMM	687	TMC3	H1	1	0.15	1.0079
10219	HCMM	687	TMC3	H2	1	0.15	1.0079
10220	C=O	687	TMC3	C7	1	0.5438	12.011
10221	C=O	687	TMC3	C8	1	0.5438	12.011
10222	O=C	687	TMC3	O1	1	-0.57	15.9994
10223	O=C	687	TMC3	O2	1	-0.57	15.9994
10224	CB	688	MPD2	C	1	-0.15	12.011
10225	CB	688	MPD2	C1	1	0.117	12.011
10226	CB	688	MPD2	C2	1	-0.15	12.011
10227	CB	688	MPD2	C3	1	0.117	12.011
10228	CB	688	MPD2	C4	1	-0.15	12.011
10229	CB	688	MPD2	C5	1	-0.15	12.011
10230	HCMM	688	MPD2	H	1	0.15	1.0079
10231	HCMM	688	MPD2	H1	1	0.15	1.0079
10232	HCMM	688	MPD2	H2	1	0.15	1.0079
10233	HCMM	688	MPD2	H3	1	0.15	1.0079
10234	NC=O	688	MPD2	N	1	-0.547	14.0067
10235	HNCO	688	MPD2	H5	1	0.37	1.0079
10236	NC=O	688	MPD2	N1	1	-0.547	14.0067
10237	HNCO	688	MPD2	H7	1	0.37	1.0079
10238	CB	689	TMC3	C1	1	0.0862	12.011
10239	CB	689	TMC3	C2	1	-0.15	12.011
10240	CB	689	TMC3	C3	1	0.0862	12.011
10241	CB	689	TMC3	C4	1	-0.15	12.011
10242	CB	689	TMC3	C5	1	0.0862	12.011
10243	CB	689	TMC3	C6	1	-0.15	12.011
10244	C=O	689	TMC3	C	1	0.5438	12.011
10245	O=C	689	TMC3	O	1	-0.57	15.9994
10246	HCMM	689	TMC3	H	1	0.15	1.0079
10247	HCMM	689	TMC3	H1	1	0.15	1.0079
10248	HCMM	689	TMC3	H2	1	0.15	1.0079
10249	C=O	689	TMC3	C7	1	0.5438	12.011
10250	C=O	689	TMC3	C8	1	0.5438	12.011
10251	O=C	689	TMC3	O1	1	-0.57	15.9994
10252	O=C	689	TMC3	O2	1	-0.57	15.9994
10253	CB	690	MPD2	C	1	-0.15	12.011
10254	CB	690	MPD2	C1	1	0.117	12.011
10255	CB	690	MPD2	C2	1	-0.15	12.011
10256	CB	690	MPD2	C3	1	0.117	12.011
10257	CB	690	MPD2	C4	1	-0.15	12.011
10258	CB	690	MPD2	C5	1	-0.15	12.011
10259	HCMM	690	MPD2	H	1	0.15	1.0079
10260	HCMM	690	MPD2	H1	1	0.15	1.0079
10261	HCMM	690	MPD2	H2	1	0.15	1.0079
10262	HCMM	690	MPD2	H3	1	0.15	1.0079
10263	NC=O	690	MPD2	N	1	-0.547	14.0067
10264	HNCO	690	MPD2	H5	1	0.37	1.0079
10265	NC=O	690	MPD2	N1	1	-0.547	14.0067
10266	HNCO	690	MPD2	H7	1	0.37	1.0079
10267	CB	691	TMC3	C1	1	0.0862	12.011
10268	CB	691	TMC3	C2	1	-0.15	12.011
10269	CB	691	TMC3	C3	1	0.0862	12.011
10270	CB	691	TMC3	C4	1	-0.15	12.011
10271	CB	691	TMC3	C5	1	0.0862	12.011
10272	CB	691	TMC3	C6	1	-0.15	12.011
10273	C=O	691	TMC3	C	1	0.5438	12.011
10274	O=C	691	TMC3	O	1	-0.57	15.9994
10275	HCMM	691	TMC3	H	1	0.15	1.0079
10276	HCMM	691	TMC3	H1	1	0.15	1.0079
10277	HCMM	691	TMC3	H2	1	0.15	1.0079
10278	C=O	691	TMC3	C7	1	0.5438	12.011
10279	C=O	691	TMC3	C8	1	0.5438	12.011
10280	O=C	691	TMC3	O1	1	-0.57	15.9994
10281	O=C	691	TMC3	O2	1	-0.57	15.9994
10282	CB	692	TMC3	C1	1	0.0862	12.011
10283	CB	692	TMC3	C2	1	-0.15	12.011
10284	CB	692	TMC3	C3	1	0.0862	12.011
10285	CB	692	TMC3	C4	1	-0.15	12.011
10286	CB	692	TMC3	C5	1	0.0862	12.011
10287	CB	692	TMC3	C6	1	-0.15	12.011
10288	C=O	692	TMC3	C	1	0.5438	12.011
10289	O=C	692	TMC3	O	1	-0.57	15.9994
10290	HCMM	692	TMC3	H	1	0.15	1.0079
10291	HCMM	692	TMC3	H1	1	0.15	1.0079
10292	HCMM	692	TMC3	H2	1	0.15	1.0079
10293	C=O	692	TMC3	C7	1	0.5438	12.011
10294	C=O	692	TMC3	C8	1	0.5438	12.011
10295	O=C	692	TMC3	O1	1	-0.57	15.9994
10296	O=C	692	TMC3	O2	1	-0.57	15.9994
10297	CB	693	MPD2	C	1	-0.15	12.011
10298	CB	693	MPD2	C1	1	0.117	12.011
10299	CB	693	MPD2	C2	1	-0.15	12.011
10300	CB	693	MPD2	C3	1	0.117	12.011
10301	CB	693	MPD2	C4	1	-0.15	12.011
10302	CB	693	MPD2	C5	1	-0.15	12.011
10303	HCMM	693	MPD2	H	1	0.15	1.0079
10304	HCMM	693	MPD2	H1	1	0.15	1.0079
10305	HCMM	693	MPD2	H2	1	0.15	1.0079
10306	HCMM	693	MPD2	H3	1	0.15	1.0079
10307	NC=O	693	MPD2	N	1	-0.547	14.0067
10308	HNCO	693	MPD2	H5	1	0.37	1.0079
10309	NC=O	693	MPD2	N1	1	-0.547	14.0067
10310	HNCO	693	MPD2	H7	1	0.37	1.0079
10311	CB	694	TMC3	C1	1	0.0862	12.011
10312	CB	694	TMC3	C2	1	-0.15	12.011
10313	CB	694	TMC3	C3	1	0.0862	12.011
10314	CB	694	TMC3	C4	1	-0.15	12.011
10315	CB	694	TMC3	C5	1	0.0862	12.011
10316	CB	694	TMC3	C6	1	-0.15	12.011
10317	C=O	694	TMC3	C	1	0.5438	12.011
10318	O=C	694	TMC3	O	1	-0.57	15.9994
10319	HCMM	694	TMC3	H	1	0.15	1.0079
10320	HCMM	694	TMC3	H1	1	0.15	1.0079
10321	HCMM	694	TMC3	H2	1	0.15	1.0079
10322	C=O	694	TMC3	C7	1	0.5438	12.011
10323	C=O	694	TMC3	C8	1	0.5438	12.011
10324	O=C	694	TMC3	O1	1	-0.57	15.9994
10325	O=C	694	TMC3	O2	1	-0.57	15.9994
10326	CB	695	MPD2	C	1	-0.15	12.011
10327	CB	695	MPD2	C1	1	0.117	12.011
10328	CB	695	MPD2	C2	1	-0.15	12.011
10329	CB	695	MPD2	C3	1	0.117	12.011
10330	CB	695	MPD2	C4	1	-0.15	12.011
10331	CB	695	MPD2	C5	1	-0.15	12.011
10332	HCMM	695	MPD2	H	1	0.15	1.0079
10333	HCMM	695	MPD2	H1	1	0.15	1.0079
10334	HCMM	695	MPD2	H2	1	0.15	1.0079
10335	HCMM	695	MPD2	H3	1	0.15	1.0079
10336	NC=O	695	MPD2	N	1	-0.547	14.0067
10337	HNCO	695	MPD2	H5	1	0.37	1.0079
10338	NC=O	695	MPD2	N1	1	-0.547	14.0067
10339	HNCO	695	MPD2	H7	1	0.37	1.0079
10340	CB	696	TMC3	C1	1	0.0862	12.011
10341	CB	696	TMC3	C2	1	-0.15	12.011
10342	CB	696	TMC3	C3	1	0.0862	12.011
10343	CB	696	TMC3	C4	1	-0.15	12.011
10344	CB	696	TMC3	C5	1	0.0862	12.011
10345	CB	696	TMC3	C6	1	-0.15	12.011
10346	C=O	696	TMC3	C	1	0.5438	12.011
10347	O=C	696	TMC3	O	1	-0.57	15.9994
10348	HCMM	696	TMC3	H	1	0.15	1.0079
10349	HCMM	696	TMC3	H1	1	0.15	1.0079
10350	HCMM	696	TMC3	H2	1	0.15	1.0079
10351	C=O	696	TMC3	C7	1	0.5438	12.011
10352	C=O	696	TMC3	C8	1	0.5438	12.011
10353	O=C	696	TMC3	O1	1	-0.57	15.9994
10354	O=C	696	TMC3	O2	1	-0.57	15.9994
10355	CB	697	MPD2	C	1	-0.15	12.011
10356	CB	697	MPD2	C1	1	0.117	12.011
10357	CB	697	MPD2	C2	1	-0.15	12.011
10358	CB	697	MPD2	C3	1	0.117	12.011
10359	CB	697	MPD2	C4	1	-0.15	12.011
10360	CB	697	MPD2	C5	1	-0.15	12.011
10361	HCMM	697	MPD2	H	1	0.15	1.0079
10362	HCMM	697	MPD2	H1	1	0.15	1.0079
10363	HCMM	697	MPD2	H2	1	0.15	1.0079
10364	HCMM	697	MPD2	H3	1	0.15	1.0079
10365	NC=O	697	MPD2	N	1	-0.547	14.0067
10366	HNCO	697	MPD2	H5	1	0.37	1.0079
10367	NC=O	697	MPD2	N1	1	-0.547	14.0067
10368	HNCO	697	MPD2	H7	1	0.37	1.0079
10369	CB	698	TMC3	C1	1	0.0862	12.011
10370	CB	698	TMC3	C2	1	-0.15	12.011
10371	CB	698	TMC3	C3	1	0.0862	12.011
10372	CB	698	TMC3	C4	1	-0.15	12.011
10373	CB	698	TMC3	C5	1	0.0862	12.011
10374	CB	698	TMC3	C6	1	-0.15	12.011
10375	C=O	698	TMC3	C	1	0.5438	12.011
10376	O=C	698	TMC3	O	1	-0.57	15.9994
10377	HCMM	698	TMC3	H	1	0.15	1.0079
10378	HCMM	698	TMC3	H1	1	0.15	1.0079
10379	HCMM	698	TMC3	H2	1	0.15	1.0079
10380	C=O	698	TMC3	C7	1	0.5438	12.011
10381	C=O	698	TMC3	C8	1	0.5438	12.011
10382	O=C	698	TMC3	O1	1	-0.57	15.9994
10383	O=C	698	TMC3	O2	1	-0.57	15.9994
10384	CB	699	TMC3	C1	1	0.0862	12.011
10385	CB	699	TMC3	C2	1	-0.15	12.011
10386	CB	699	TMC3	C3	1	0.0862	12.011
10387	CB	699	TMC3	C4	1	-0.15	12.011
10388	CB	699	TMC3	C5	1	0.0862	12.011
10389	CB	699	TMC3	C6	1	-0.15	12.011
10390	C=O	699	TMC3	C	1	0.5438	12.011
10391	O=C	699	TMC3	O	1	-0.57	15.9994
10392	HCMM	699	TMC3	H	1	0.15	1.0079
10393	HCMM	699	TMC3	H1	1	0.15	1.0079
10394	HCMM	699	TMC3	H2	1	0.15	1.0079
10395	C=O	699	TMC3	C7	1	0.5438	12.011
10396	C=O	699	TMC3	C8	1	0.5438	12.011
10397	O=C	699	TMC3	O1	1	-0.57	15.9994
10398	O=C	699	TMC3	O2	1	-0.57	15.9994
10399	CB	700	TMC3	C1	1	0.0862	12.011
10400	CB	700	TMC3	C2	1	-0.15	12.011
10401	CB	700	TMC3	C3	1	0.0862	12.011
10402	CB	700	TMC3	C4	1	-0.15	12.011
10403	CB	700	TMC3	C5	1	0.0862	12.011
10404	CB	700	TMC3	C6	1	-0.15	12.011
10405	C=O	700	TMC3	C	1	0.5438	12.011
10406	O=C	700	TMC3	O	1	-0.57	15.9994
10407	HCMM	700	TMC3	H	1	0.15	1.0079
10408	HCMM	700	TMC3	H1	1	0.15	1.0079
10409	HCMM	700	TMC3	H2	1	0.15	1.0079
10410	C=O	700	TMC3	C7	1	0.5438	12.011
10411	C=O	700	TMC3	C8	1	0.5438	12.011
10412	O=C	700	TMC3	O1	1	-0.57	15.9994
10413	O=C	700	TMC3	O2	1	-0.57	15.9994
10414	CB	701	TMC3	C1	1	0.0862	12.011
10415	CB	701	TMC3	C2	1	-0.15	12.011
10416	CB	701	TMC3	C3	1	0.0862	12.011
10417	CB	701	TMC3	C4	1	-0.15	12.011
10418	CB	701	TMC3	C5	1	0.0862	12.011
10419	CB	701	TMC3	C6	1	-0.15	12.011
10420	C=O	701	TMC3	C	1	0.5438	12.011
10421	O=C	701	TMC3	O	1	-0.57	15.9994
10422	HCMM	701	TMC3	H	1	0.15	1.0079
10423	HCMM	701	TMC3	H1	1	0.15	1.0079
10424	HCMM	701	TMC3	H2	1	0.15	1.0079
10425	C=O	701	TMC3	C7	1	0.5438	12.011
10426	C=O	701	TMC3	C8	1	0.5438	12.011
10427	O=C	701	TMC3	O1	1	-0.57	15.9994
10428	O=C	701	TMC3	O2	1	-0.57	15.9994
10429	CB	702	MPD2	C	1	-0.15	12.011
10430	CB	702	MPD2	C1	1	0.117	12.011
10431	CB	702	MPD2	C2	1	-0.15	12.011
10432	CB	702	MPD2	C3	1	0.117	12.011
10433	CB	702	MPD2	C4	1	-0.15	12.011
10434	CB	702	MPD2	C5	1	-0.15	12.011
10435	HCMM	702	MPD2	H	1	0.15	1.0079
10436	HCMM	702	MPD2	H1	1	0.15	1.0079
10437	HCMM	702	MPD2	H2	1	0.15	1.0079
10438	HCMM	702	MPD2	H3	1	0.15	1.0079
10439	NC=O	702	MPD2	N	1	-0.547	14.0067
10440	HNCO	702	MPD2	H5	1	0.37	1.0079
10441	NC=O	702	MPD2	N1	1	-0.547	14.0067
10442	HNCO	702	MPD2	H7	1	0.37	1.0079
10443	CB	703	TMC3	C1	1	0.0862	12.011
10444	CB	703	TMC3	C2	1	-0.15	12.011
10445	CB	703	TMC3	C3	1	0.0862	12.011
10446	CB	703	TMC3	C4	1	-0.15	12.011
10447	CB	703	TMC3	C5	1	0.0862	12.011
10448	CB	703	TMC3	C6	1	-0.15	12.011
10449	C=O	703	TMC3	C	1	0.5438	12.011
10450	O=C	703	TMC3	O	1	-0.57	15.9994
10451	HCMM	703	TMC3	H	1	0.15	1.0079
10452	HCMM	703	TMC3	H1	1	0.15	1.0079
10453	HCMM	703	TMC3	H2	1	0.15	1.0079
10454	C=O	703	TMC3	C7	1	0.5438	12.011
10455	C=O	703	TMC3	C8	1	0.5438	12.011
10456	O=C	703	TMC3	O1	1	-0.57	15.9994
10457	O=C	703	TMC3	O2	1	-0.57	15.9994
10458	CB	704	TMC3	C1	1	0.0862	12.011
10459	CB	704	TMC3	C2	1	-0.15	12.011
10460	CB	704	TMC3	C3	1	0.0862	12.011
10461	CB	704	TMC3	C4	1	-0.15	12.011
10462	CB	704	TMC3	C5	1	0.0862	12.011
10463	CB	704	TMC3	C6	1	-0.15	12.011
10464	C=O	704	TMC3	C	1	0.5438	12.011
10465	O=C	704	TMC3	O	1	-0.57	15.9994
10466	HCMM	704	TMC3	H	1	0.15	1.0079
10467	HCMM	704	TMC3	H1	1	0.15	1.0079
10468	HCMM	704	TMC3	H2	1	0.15	1.0079
10469	C=O	704	TMC3	C7	1	0.5438	12.011
10470	C=O	704	TMC3	C8	1	0.5438	12.011
10471	O=C	704	TMC3	O1	1	-0.57	15.9994
10472	O=C	704	TMC3	O2	1	-0.57	15.9994
10473	CB	705	MPD2	C	1	-0.15	12.011
10474	CB	705	MPD2	C1	1	0.117	12.011
10475	CB	705	MPD2	C2	1	-0.15	12.011
10476	CB	705	MPD2	C3	1	0.117	12.011
10477	CB	705	MPD2	C4	1	-0.15	12.011
10478	CB	705	MPD2	C5	1	-0.15	12.011
10479	HCMM	705	MPD2	H	1	0.15	1.0079
10480	HCMM	705	MPD2	H1	1	0.15	1.0079
10481	HCMM	705	MPD2	H2	1	0.15	1.0079
10482	HCMM	705	MPD2	H3	1	0.15	1.0079
10483	NC=O	705	MPD2	N	1	-0.547	14.0067
10484	HNCO	705	MPD2	H5	1	0.37	1.0079
10485	NC=O	705	MPD2	N1	1	-0.547	14.0067
10486	HNCO	705	MPD2	H7	1	0.37	1.0079
10487	CB	706	TMC3	C1	1	0.0862	12.011
10488	CB	706	TMC3	C2	1	-0.15	12.011
10489	CB	706	TMC3	C3	1	0.0862	12.011
10490	CB	706	TMC3	C4	1	-0.15	12.011
10491	CB	706	TMC3	C5	1	0.0862	12.011
10492	CB	706	TMC3	C6	1	-0.15	12.011
10493	C=O	706	TMC3	C	1	0.5438	12.011
10494	O=C	706	TMC3	O	1	-0.57	15.9994
10495	HCMM	706	TMC3	H	1	0.15	1.0079
10496	HCMM	706	TMC3	H1	1	0.15	1.0079
10497	HCMM	706	TMC3	H2	1	0.15	1.0079
10498	C=O	706	TMC3	C7	1	0.5438	12.011
10499	C=O	706	TMC3	C8	1	0.5438	12.011
10500	O=C	706	TMC3	O1	1	-0.57	15.9994
10501	O=C	706	TMC3	O2	1	-0.57	15.9994
10502	CB	707	TMC3	C1	1	0.0862	12.011
10503	CB	707	TMC3	C2	1	-0.15	12.011
10504	CB	707	TMC3	C3	1	0.0862	12.011
10505	CB	707	TMC3	C4	1	-0.15	12.011
10506	CB	707	TMC3	C5	1	0.0862	12.011
10507	CB	707	TMC3	C6	1	-0.15	12.011
10508	C=O	707	TMC3	C	1	0.5438	12.011
10509	O=C	707	TMC3	O	1	-0.57	15.9994
10510	HCMM	707	TMC3	H	1	0.15	1.0079
10511	HCMM	707	TMC3	H1	1	0.15	1.0079
10512	HCMM	707	TMC3	H2	1	0.15	1.0079
10513	C=O	707	TMC3	C7	1	0.5438	12.011
10514	C=O	707	TMC3	C8	1	0.5438	12.011
10515	O=C	707	TMC3	O1	1	-0.57	15.9994
10516	O=C	707	TMC3	O2	1	-0.57	15.9994
10517	CB	708	MPD2	C	1	-0.15	12.011
10518	CB	708	MPD2	C1	1	0.117	12.011
10519	CB	708	MPD2	C2	1	-0.15	12.011
10520	CB	708	MPD2	C3	1	0.117	12.011
10521	CB	708	MPD2	C4	1	-0.15	12.011
10522	CB	708	MPD2	C5	1	-0.15	12.011
10523	HCMM	708	MPD2	H	1	0.15	1.0079
10524	HCMM	708	MPD2	H1	1	0.15	1.0079
10525	HCMM	708	MPD2	H2	1	0.15	1.0079
10526	HCMM	708	MPD2	H3	1	0.15	1.0079
10527	NC=O	708	MPD2	N	1	-0.547	14.0067
10528	HNCO	708	MPD2	H5	1	0.37	1.0079
10529	NC=O	708	MPD2	N1	1	-0.547	14.0067
10530	HNCO	708	MPD2	H7	1	0.37	1.0079
10531	CB	709	TMC3	C1	1	0.0862	12.011
10532	CB	709	TMC3	C2	1	-0.15	12.011
10533	CB	709	TMC3	C3	1	0.0862	12.011
10534	CB	709	TMC3	C4	1	-0.15	12.011
10535	CB	709	TMC3	C5	1	0.0862	12.011
10536	CB	709	TMC3	C6	1	-0.15	12.011
10537	C=O	709	TMC3	C	1	0.5438	12.011
10538	O=C	709	TMC3	O	1	-0.57	15.9994
10539	HCMM	709	TMC3	H	1	0.15	1.0079
10540	HCMM	709	TMC3	H1	1	0.15	1.0079
10541	HCMM	709	TMC3	H2	1	0.15	1.0079
10542	C=O	709	TMC3	C7	1	0.5438	12.011
10543	C=O	709	TMC3	C8	1	0.5438	12.011
10544	O=C	709	TMC3	O1	1	-0.57	15.9994
10545	O=C	709	TMC3	O2	1	-0.57	15.9994
10546	CB	710	TMC3	C1	1	0.0862	12.011
10547	CB	710	TMC3	C2	1	-0.15	12.011
10548	CB	710	TMC3	C3	1	0.0862	12.011
10549	CB	710	TMC3	C4	1	-0.15	12.011
10550	CB	710	TMC3	C5	1	0.0862	12.011
10551	CB	710	TMC3	C6	1	-0.15	12.011
10552	C=O	710	TMC3	C	1	0.5438	12.011
10553	O=C	710	TMC3	O	1	-0.57	15.9994
10554	HCMM	710	TMC3	H	1	0.15	1.0079
10555	HCMM	710	TMC3	H1	1	0.15	1.0079
10556	HCMM	710	TMC3	H2	1	0.15	1.0079
10557	C=O	710	TMC3	C7	1	0.5438	12.011
10558	C=O	710	TMC3	C8	1	0.5438	12.011
10559	O=C	710	TMC3	O1	1	-0.57	15.9994
10560	O=C	710	TMC3	O2	1	-0.57	15.9994
10561	CB	711	TMC3	C1	1	0.0862	12.011
10562	CB	711	TMC3	C2	1	-0.15	12.011
10563	CB	711	TMC3	C3	1	0.0862	12.011
10564	CB	711	TMC3	C4	1	-0.15	12.011
10565	CB	711	TMC3	C5	1	0.0862	12.011
10566	CB	711	TMC3	C6	1	-0.15	12.011
10567	C=O	711	TMC3	C	1	0.5438	12.011
10568	O=C	711	TMC3	O	1	-0.57	15.9994
10569	HCMM	711	TMC3	H	1	0.15	1.0079
10570	HCMM	711	TMC3	H1	1	0.15	1.0079
10571	HCMM	711	TMC3	H2	1	0.15	1.0079
10572	C=O	711	TMC3	C7	1	0.5438	12.011
10573	C=O	711	TMC3	C8	1	0.5438	12.011
10574	O=C	711	TMC3	O1	1	-0.57	15.9994
10575	O=C	711	TMC3	O2	1	-0.57	15.9994
10576	CB	712	MPD2	C	1	-0.15	12.011
10577	CB	712	MPD2	C1	1	0.117	12.011
10578	CB	712	MPD2	C2	1	-0.15	12.011
10579	CB	712	MPD2	C3	1	0.117	12.011
10580	CB	712	MPD2	C4	1	-0.15	12.011
10581	CB	712	MPD2	C5	1	-0.15	12.011
10582	HCMM	712	MPD2	H	1	0.15	1.0079
10583	HCMM	712	MPD2	H1	1	0.15	1.0079
10584	HCMM	712	MPD2	H2	1	0.15	1.0079
10585	HCMM	712	MPD2	H3	1	0.15	1.0079
10586	NC=O	712	MPD2	N	1	-0.547	14.0067
10587	HNCO	712	MPD2	H5	1	0.37	1.0079
10588	NC=O	712	MPD2	N1	1	-0.547	14.0067
10589	HNCO	712	MPD2	H7	1	0.37	1.0079
10590	CB	713	TMC3	C1	1	0.0862	12.011
10591	CB	713	TMC3	C2	1	-0.15	12.011
10592	CB	713	TMC3	C3	1	0.0862	12.011
10593	CB	713	TMC3	C4	1	-0.15	12.011
10594	CB	713	TMC3	C5	1	0.0862	12.011
10595	CB	713	TMC3	C6	1	-0.15	12.011
10596	C=O	713	TMC3	C	1	0.5438	12.011
10597	O=C	713	TMC3	O	1	-0.57	15.9994
10598	HCMM	713	TMC3	H	1	0.15	1.0079
10599	HCMM	713	TMC3	H1	1	0.15	1.0079
10600	HCMM	713	TMC3	H2	1	0.15	1.0079
10601	C=O	713	TMC3	C7	1	0.5438	12.011
10602	C=O	713	TMC3	C8	1	0.5438	12.011
10603	O=C	713	TMC3	O1	1	-0.57	15.9994
10604	O=C	713	TMC3	O2	1	-0.57	15.9994
10605	CB	714	MPD2	C	1	-0.15	12.011
10606	CB	714	MPD2	C1	1	0.117	12.011
10607	CB	714	MPD2	C2	1	-0.15	12.011
10608	CB	714	MPD2	C3	1	0.117	12.011
10609	CB	714	MPD2	C4	1	-0.15	12.011
10610	CB	714	MPD2	C5	1	-0.15	12.011
10611	HCMM	714	MPD2	H	1	0.15	1.0079
10612	HCMM	714	MPD2	H1	1	0.15	1.0079
10613	HCMM	714	MPD2	H2	1	0.15	1.0079
10614	HCMM	714	MPD2	H3	1	0.15	1.0079
10615	NC=O	714	MPD2	N	1	-0.547	14.0067
10616	HNCO	714	MPD2	H5	1	0.37	1.0079
10617	NC=O	714	MPD2	N1	1	-0.547	14.0067
10618	HNCO	714	MPD2	H7	1	0.37	1.0079
10619	CB	715	TMC3	C1	1	0.0862	12.011
10620	CB	715	TMC3	C2	1	-0.15	12.011
10621	CB	715	TMC3	C3	1	0.0862	12.011
10622	CB	715	TMC3	C4	1	-0.15	12.011
10623	CB	715	TMC3	C5	1	0.0862	12.011
10624	CB	715	TMC3	C6	1	-0.15	12.011
10625	C=O	715	TMC3	C	1	0.5438	12.011
10626	O=C	715	TMC3	O	1	-0.57	15.9994
10627	HCMM	715	TMC3	H	1	0.15	1.0079
10628	HCMM	715	TMC3	H1	1	0.15	1.0079
10629	HCMM	715	TMC3	H2	1	0.15	1.0079
10630	C=O	715	TMC3	C7	1	0.5438	12.011
10631	C=O	715	TMC3	C8	1	0.5438	12.011
10632	O=C	715	TMC3	O1	1	-0.57	15.9994
10633	O=C	715	TMC3	O2	1	-0.57	15.9994
10634	CB	716	MPD2	C	1	-0.15	12.011
10635	CB	716	MPD2	C1	1	0.117	12.011
10636	CB	716	MPD2	C2	1	-0.15	12.011
10637	CB	716	MPD2	C3	1	0.117	12.011
10638	CB	716	MPD2	C4	1	-0.15	12.011
10639	CB	716	MPD2	C5	1	-0.15	12.011
10640	HCMM	716	MPD2	H	1	0.15	1.0079
10641	HCMM	716	MPD2	H1	1	0.15	1.0079
10642	HCMM	716	MPD2	H2	1	0.15	1.0079
10643	HCMM	716	MPD2	H3	1	0.15	1.0079
10644	NC=O	716	MPD2	N	1	-0.547	14.0067
10645	HNCO	716	MPD2	H5	1	0.37	1.0079
10646	NC=O	716	MPD2	N1	1	-0.547	14.0067
10647	HNCO	716	MPD2	H7	1	0.37	1.0079
10648	CB	717	TMC3	C1	1	0.0862	12.011
10649	CB	717	TMC3	C2	1	-0.15	12.011
10650	CB	717	TMC3	C3	1	0.0862	12.011
10651	CB	717	TMC3	C4	1	-0.15	12.011
10652	CB	717	TMC3	C5	1	0.0862	12.011
10653	CB	717	TMC3	C6	1	-0.15	12.011
10654	C=O	717	TMC3	C	1	0.5438	12.011
10655	O=C	717	TMC3	O	1	-0.57	15.9994
10656	HCMM	717	TMC3	H	1	0.15	1.0079
10657	HCMM	717	TMC3	H1	1	0.15	1.0079
10658	HCMM	717	TMC3	H2	1	0.15	1.0079
10659	C=O	717	TMC3	C7	1	0.5438	12.011
10660	C=O	717	TMC3	C8	1	0.5438	12.011
10661	O=C	717	TMC3	O1	1	-0.57	15.9994
10662	O=C	717	TMC3	O2	1	-0.57	15.9994
10663	CB	718	MPD2	C	1	-0.15	12.011
10664	CB	718	MPD2	C1	1	0.117	12.011
10665	CB	718	MPD2	C2	1	-0.15	12.011
10666	CB	718	MPD2	C3	1	0.117	12.011
10667	CB	718	MPD2	C4	1	-0.15	12.011
10668	CB	718	MPD2	C5	1	-0.15	12.011
10669	HCMM	718	MPD2	H	1	0.15	1.0079
10670	HCMM	718	MPD2	H1	1	0.15	1.0079
10671	HCMM	718	MPD2	H2	1	0.15	1.0079
10672	HCMM	718	MPD2	H3	1	0.15	1.0079
10673	NC=O	718	MPD2	N	1	-0.547	14.0067
10674	HNCO	718	MPD2	H5	1	0.37	1.0079
10675	NC=O	718	MPD2	N1	1	-0.547	14.0067
10676	HNCO	718	MPD2	H7	1	0.37	1.0079
10677	CB	719	TMC3	C1	1	0.0862	12.011
10678	CB	719	TMC3	C2	1	-0.15	12.011
10679	CB	719	TMC3	C3	1	0.0862	12.011
10680	CB	719	TMC3	C4	1	-0.15	12.011
10681	CB	719	TMC3	C5	1	0.0862	12.011
10682	CB	719	TMC3	C6	1	-0.15	12.011
10683	C=O	719	TMC3	C	1	0.5438	12.011
10684	O=C	719	TMC3	O	1	-0.57	15.9994
10685	HCMM	719	TMC3	H	1	0.15	1.0079
10686	HCMM	719	TMC3	H1	1	0.15	1.0079
10687	HCMM	719	TMC3	H2	1	0.15	1.0079
10688	C=O	719	TMC3	C7	1	0.5438	12.011
10689	C=O	719	TMC3	C8	1	0.5438	12.011
10690	O=C	719	TMC3	O1	1	-0.57	15.9994
10691	O=C	719	TMC3	O2	1	-0.57	15.9994
10692	CB	720	MPD2	C	1	-0.15	12.011
10693	CB	720	MPD2	C1	1	0.117	12.011
10694	CB	720	MPD2	C2	1	-0.15	12.011
10695	CB	720	MPD2	C3	1	0.117	12.011
10696	CB	720	MPD2	C4	1	-0.15	12.011
10697	CB	720	MPD2	C5	1	-0.15	12.011
10698	HCMM	720	MPD2	H	1	0.15	1.0079
10699	HCMM	720	MPD2	H1	1	0.15	1.0079
10700	HCMM	720	MPD2	H2	1	0.15	1.0079
10701	HCMM	720	MPD2	H3	1	0.15	1.0079
10702	NC=O	720	MPD2	N	1	-0.547	14.0067
10703	HNCO	720	MPD2	H5	1	0.37	1.0079
10704	NC=O	720	MPD2	N1	1	-0.547	14.0067
10705	HNCO	720	MPD2	H7	1	0.37	1.0079
10706	CB	721	TMC3	C1	1	0.0862	12.011
10707	CB	721	TMC3	C2	1	-0.15	12.011
10708	CB	721	TMC3	C3	1	0.0862	12.011
10709	CB	721	TMC3	C4	1	-0.15	12.011
10710	CB	721	TMC3	C5	1	0.0862	12.011
10711	CB	721	TMC3	C6	1	-0.15	12.011
10712	C=O	721	TMC3	C	1	0.5438	12.011
10713	O=C	721	TMC3	O	1	-0.57	15.9994
10714	HCMM	721	TMC3	H	1	0.15	1.0079
10715	HCMM	721	TMC3	H1	1	0.15	1.0079
10716	HCMM	721	TMC3	H2	1	0.15	1.0079
10717	C=O	721	TMC3	C7	1	0.5438	12.011
10718	C=O	721	TMC3	C8	1	0.5438	12.011
10719	O=C	721	TMC3	O1	1	-0.57	15.9994
10720	O=C	721	TMC3	O2	1	-0.57	15.9994
10721	CB	722	MPD2	C	1	-0.15	12.011
10722	CB	722	MPD2	C1	1	0.117	12.011
10723	CB	722	MPD2	C2	1	-0.15	12.011
10724	CB	722	MPD2	C3	1	0.117	12.011
10725	CB	722	MPD2	C4	1	-0.15	12.011
10726	CB	722	MPD2	C5	1	-0.15	12.011
10727	HCMM	722	MPD2	H	1	0.15	1.0079
10728	HCMM	722	MPD2	H1	1	0.15	1.0079
10729	HCMM	722	MPD2	H2	1	0.15	1.0079
10730	HCMM	722	MPD2	H3	1	0.15	1.0079
10731	NC=O	722	MPD2	N	1	-0.547	14.0067
10732	HNCO	722	MPD2	H5	1	0.37	1.0079
10733	NC=O	722	MPD2	N1	1	-0.547	14.0067
10734	HNCO	722	MPD2	H7	1	0.37	1.0079
10735	CB	723	TMC3	C1	1	0.0862	12.011
10736	CB	723	TMC3	C2	1	-0.15	12.011
10737	CB	723	TMC3	C3	1	0.0862	12.011
10738	CB	723	TMC3	C4	1	-0.15	12.011
10739	CB	723	TMC3	C5	1	0.0862	12.011
10740	CB	723	TMC3	C6	1	-0.15	12.011
10741	C=O	723	TMC3	C	1	0.5438	12.011
10742	O=C	723	TMC3	O	1	-0.57	15.9994
10743	HCMM	723	TMC3	H	1	0.15	1.0079
10744	HCMM	723	TMC3	H1	1	0.15	1.0079
10745	HCMM	723	TMC3	H2	1	0.15	1.0079
10746	C=O	723	TMC3	C7	1	0.5438	12.011
10747	C=O	723	TMC3	C8	1	0.5438	12.011
10748	O=C	723	TMC3	O1	1	-0.57	15.9994
10749	O=C	723	TMC3	O2	1	-0.57	15.9994
10750	CB	724	TMC3	C1	1	0.0862	12.011
10751	CB	724	TMC3	C2	1	-0.15	12.011
10752	CB	724	TMC3	C3	1	0.0862	12.011
10753	CB	724	TMC3	C4	1	-0.15	12.011
10754	CB	724	TMC3	C5	1	0.0862	12.011
10755	CB	724	TMC3	C6	1	-0.15	12.011
10756	C=O	724	TMC3	C	1	0.5438	12.011
10757	O=C	724	TMC3	O	1	-0.57	15.9994
10758	HCMM	724	TMC3	H	1	0.15	1.0079
10759	HCMM	724	TMC3	H1	1	0.15	1.0079
10760	HCMM	724	TMC3	H2	1	0.15	1.0079
10761	C=O	724	TMC3	C7	1	0.5438	12.011
10762	C=O	724	TMC3	C8	1	0.5438	12.011
10763	O=C	724	TMC3	O1	1	-0.57	15.9994
10764	O=C	724	TMC3	O2	1	-0.57	15.9994
10765	CB	725	TMC3	C1	1	0.0862	12.011
10766	CB	725	TMC3	C2	1	-0.15	12.011
10767	CB	725	TMC3	C3	1	0.0862	12.011
10768	CB	725	TMC3	C4	1	-0.15	12.011
10769	CB	725	TMC3	C5	1	0.0862	12.011
10770	CB	725	TMC3	C6	1	-0.15	12.011
10771	C=O	725	TMC3	C	1	0.5438	12.011
10772	O=C	725	TMC3	O	1	-0.57	15.9994
10773	HCMM	725	TMC3	H	1	0.15	1.0079
10774	HCMM	725	TMC3	H1	1	0.15	1.0079
10775	HCMM	725	TMC3	H2	1	0.15	1.0079
10776	C=O	725	TMC3	C7	1	0.5438	12.011
10777	C=O	725	TMC3	C8	1	0.5438	12.011
10778	O=C	725	TMC3	O1	1	-0.57	15.9994
10779	O=C	725	TMC3	O2	1	-0.57	15.9994
10780	CB	726	MPD2	C	1	-0.15	12.011
10781	CB	726	MPD2	C1	1	0.117	12.011
10782	CB	726	MPD2	C2	1	-0.15	12.011
10783	CB	726	MPD2	C3	1	0.117	12.011
10784	CB	726	MPD2	C4	1	-0.15	12.011
10785	CB	726	MPD2	C5	1	-0.15	12.011
10786	HCMM	726	MPD2	H	1	0.15	1.0079
10787	HCMM	726	MPD2	H1	1	0.15	1.0079
10788	HCMM	726	MPD2	H2	1	0.15	1.0079
10789	HCMM	726	MPD2	H3	1	0.15	1.0079
10790	NC=O	726	MPD2	N	1	-0.547	14.0067
10791	HNCO	726	MPD2	H5	1	0.37	1.0079
10792	NC=O	726	MPD2	N1	1	-0.547	14.0067
10793	HNCO	726	MPD2	H7	1	0.37	1.0079
10794	CB	727	TMC3	C1	1	0.0862	12.011
10795	CB	727	TMC3	C2	1	-0.15	12.011
10796	CB	727	TMC3	C3	1	0.0862	12.011
10797	CB	727	TMC3	C4	1	-0.15	12.011
10798	CB	727	TMC3	C5	1	0.0862	12.011
10799	CB	727	TMC3	C6	1	-0.15	12.011
10800	C=O	727	TMC3	C	1	0.5438	12.011
10801	O=C	727	TMC3	O	1	-0.57	15.9994
10802	HCMM	727	TMC3	H	1	0.15	1.0079
10803	HCMM	727	TMC3	H1	1	0.15	1.0079
10804	HCMM	727	TMC3	H2	1	0.15	1.0079
10805	C=O	727	TMC3	C7	1	0.5438	12.011
10806	C=O	727	TMC3	C8	1	0.5438	12.011
10807	O=C	727	TMC3	O1	1	-0.57	15.9994
10808	O=C	727	TMC3	O2	1	-0.57	15.9994
10809	CB	728	TMC3	C1	1	0.0862	12.011
10810	CB	728	TMC3	C2	1	-0.15	12.011
10811	CB	728	TMC3	C3	1	0.0862	12.011
10812	CB	728	TMC3	C4	1	-0.15	12.011
10813	CB	728	TMC3	C5	1	0.0862	12.011
10814	CB	728	TMC3	C6	1	-0.15	12.011
10815	C=O	728	TMC3	C	1	0.5438	12.011
10816	O=C	728	TMC3	O	1	-0.57	15.9994
10817	HCMM	728	TMC3	H	1	0.15	1.0079
10818	HCMM	728	TMC3	H1	1	0.15	1.0079
10819	HCMM	728	TMC3	H2	1	0.15	1.0079
10820	C=O	728	TMC3	C7	1	0.5438	12.011
10821	C=O	728	TMC3	C8	1	0.5438	12.011
10822	O=C	728	TMC3	O1	1	-0.57	15.9994
10823	O=C	728	TMC3	O2	1	-0.57	15.9994
10824	CB	729	MPD2	C	1	-0.15	12.011
10825	CB	729	MPD2	C1	1	0.117	12.011
10826	CB	729	MPD2	C2	1	-0.15	12.011
10827	CB	729	MPD2	C3	1	0.117	12.011
10828	CB	729	MPD2	C4	1	-0.15	12.011
10829	CB	729	MPD2	C5	1	-0.15	12.011
10830	HCMM	729	MPD2	H	1	0.15	1.0079
10831	HCMM	729	MPD2	H1	1	0.15	1.0079
10832	HCMM	729	MPD2	H2	1	0.15	1.0079
10833	HCMM	729	MPD2	H3	1	0.15	1.0079
10834	NC=O	729	MPD2	N	1	-0.547	14.0067
10835	HNCO	729	MPD2	H5	1	0.37	1.0079
10836	NC=O	729	MPD2	N1	1	-0.547	14.0067
10837	HNCO	729	MPD2	H7	1	0.37	1.0079
10838	CB	730	TMC3	C1	1	0.0862	12.011
10839	CB	730	TMC3	C2	1	-0.15	12.011
10840	CB	730	TMC3	C3	1	0.0862	12.011
10841	CB	730	TMC3	C4	1	-0.15	12.011
10842	CB	730	TMC3	C5	1	0.0862	12.011
10843	CB	730	TMC3	C6	1	-0.15	12.011
10844	C=O	730	TMC3	C	1	0.5438	12.011
10845	O=C	730	TMC3	O	1	-0.57	15.9994
10846	HCMM	730	TMC3	H	1	0.15	1.0079
10847	HCMM	730	TMC3	H1	1	0.15	1.0079
10848	HCMM	730	TMC3	H2	1	0.15	1.0079
10849	C=O	730	TMC3	C7	1	0.5438	12.011
10850	C=O	730	TMC3	C8	1	0.5438	12.011
10851	O=C	730	TMC3	O1	1	-0.57	15.9994
10852	O=C	730	TMC3	O2	1	-0.57	15.9994
10853	CB	731	MPD2	C	1	-0.15	12.011
10854	CB	731	MPD2	C1	1	0.117	12.011
10855	CB	731	MPD2	C2	1	-0.15	12.011
10856	CB	731	MPD2	C3	1	0.117	12.011
10857	CB	731	MPD2	C4	1	-0.15	12.011
10858	CB	731	MPD2	C5	1	-0.15	12.011
10859	HCMM	731	MPD2	H	1	0.15	1.0079
10860	HCMM	731	MPD2	H1	1	0.15	1.0079
10861	HCMM	731	MPD2	H2	1	0.15	1.0079
10862	HCMM	731	MPD2	H3	1	0.15	1.0079
10863	NC=O	731	MPD2	N	1	-0.547	14.0067
10864	HNCO	731	MPD2	H5	1	0.37	1.0079
10865	NC=O	731	MPD2	N1	1	-0.547	14.0067
10866	HNCO	731	MPD2	H7	1	0.37	1.0079
10867	CB	732	TMC3	C1	1	0.0862	12.011
10868	CB	732	TMC3	C2	1	-0.15	12.011
10869	CB	732	TMC3	C3	1	0.0862	12.011
10870	CB	732	TMC3	C4	1	-0.15	12.011
10871	CB	732	TMC3	C5	1	0.0862	12.011
10872	CB	732	TMC3	C6	1	-0.15	12.011
10873	C=O	732	TMC3	C	1	0.5438	12.011
10874	O=C	732	TMC3	O	1	-0.57	15.9994
10875	HCMM	732	TMC3	H	1	0.15	1.0079
10876	HCMM	732	TMC3	H1	1	0.15	1.0079
10877	HCMM	732	TMC3	H2	1	0.15	1.0079
10878	C=O	732	TMC3	C7	1	0.5438	12.011
10879	C=O	732	TMC3	C8	1	0.5438	12.011
10880	O=C	732	TMC3	O1	1	-0.57	15.9994
10881	O=C	732	TMC3	O2	1	-0.57	15.9994
10882	CB	733	TMC3	C1	1	0.0862	12.011
10883	CB	733	TMC3	C2	1	-0.15	12.011
10884	CB	733	TMC3	C3	1	0.0862	12.011
10885	CB	733	TMC3	C4	1	-0.15	12.011
10886	CB	733	TMC3	C5	1	0.0862	12.011
10887	CB	733	TMC3	C6	1	-0.15	12.011
10888	C=O	733	TMC3	C	1	0.5438	12.011
10889	O=C	733	TMC3	O	1	-0.57	15.9994
10890	HCMM	733	TMC3	H	1	0.15	1.0079
10891	HCMM	733	TMC3	H1	1	0.15	1.0079
10892	HCMM	733	TMC3	H2	1	0.15	1.0079
10893	C=O	733	TMC3	C7	1	0.5438	12.011
10894	C=O	733	TMC3	C8	1	0.5438	12.011
10895	O=C	733	TMC3	O1	1	-0.57	15.9994
10896	O=C	733	TMC3	O2	1	-0.57	15.9994
10897	CB	734	MPD2	C	1	-0.15	12.011
10898	CB	734	MPD2	C1	1	0.117	12.011
10899	CB	734	MPD2	C2	1	-0.15	12.011
10900	CB	734	MPD2	C3	1	0.117	12.011
10901	CB	734	MPD2	C4	1	-0.15	12.011
10902	CB	734	MPD2	C5	1	-0.15	12.011
10903	HCMM	734	MPD2	H	1	0.15	1.0079
10904	HCMM	734	MPD2	H1	1	0.15	1.0079
10905	HCMM	734	MPD2	H2	1	0.15	1.0079
10906	HCMM	734	MPD2	H3	1	0.15	1.0079
10907	NC=O	734	MPD2	N	1	-0.547	14.0067
10908	HNCO	734	MPD2	H5	1	0.37	1.0079
10909	NC=O	734	MPD2	N1	1	-0.547	14.0067
10910	HNCO	734	MPD2	H7	1	0.37	1.0079
10911	CB	735	TMC3	C1	1	0.0862	12.011
10912	CB	735	TMC3	C2	1	-0.15	12.011
10913	CB	735	TMC3	C3	1	0.0862	12.011
10914	CB	735	TMC3	C4	1	-0.15	12.011
10915	CB	735	TMC3	C5	1	0.0862	12.011
10916	CB	735	TMC3	C6	1	-0.15	12.011
10917	C=O	735	TMC3	C	1	0.5438	12.011
10918	O=C	735	TMC3	O	1	-0.57	15.9994
10919	HCMM	735	TMC3	H	1	0.15	1.0079
10920	HCMM	735	TMC3	H1	1	0.15	1.0079
10921	HCMM	735	TMC3	H2	1	0.15	1.0079
10922	C=O	735	TMC3	C7	1	0.5438	12.011
10923	C=O	735	TMC3	C8	1	0.5438	12.011
10924	O=C	735	TMC3	O1	1	-0.57	15.9994
10925	O=C	735	TMC3	O2	1	-0.57	15.9994
10926	CB	736	MPD2	C	1	-0.15	12.011
10927	CB	736	MPD2	C1	1	0.117	12.011
10928	CB	736	MPD2	C2	1	-0.15	12.011
10929	CB	736	MPD2	C3	1	0.117	12.011
10930	CB	736	MPD2	C4	1	-0.15	12.011
10931	CB	736	MPD2	C5	1	-0.15	12.011
10932	HCMM	736	MPD2	H	1	0.15	1.0079
10933	HCMM	736	MPD2	H1	1	0.15	1.0079
10934	HCMM	736	MPD2	H2	1	0.15	1.0079
10935	HCMM	736	MPD2	H3	1	0.15	1.0079
10936	NC=O	736	MPD2	N	1	-0.547	14.0067
10937	HNCO	736	MPD2	H5	1	0.37	1.0079
10938	NC=O	736	MPD2	N1	1	-0.547	14.0067
10939	HNCO	736	MPD2	H7	1	0.37	1.0079
10940	CB	737	TMC3	C1	1	0.0862	12.011
10941	CB	737	TMC3	C2	1	-0.15	12.011
10942	CB	737	TMC3	C3	1	0.0862	12.011
10943	CB	737	TMC3	C4	1	-0.15	12.011
10944	CB	737	TMC3	C5	1	0.0862	12.011
10945	CB	737	TMC3	C6	1	-0.15	12.011
10946	C=O	737	TMC3	C	1	0.5438	12.011
10947	O=C	737	TMC3	O	1	-0.57	15.9994
10948	HCMM	737	TMC3	H	1	0.15	1.0079
10949	HCMM	737	TMC3	H1	1	0.15	1.0079
10950	HCMM	737	TMC3	H2	1	0.15	1.0079
10951	C=O	737	TMC3	C7	1	0.5438	12.011
10952	C=O	737	TMC3	C8	1	0.5438	12.011
10953	O=C	737	TMC3	O1	1	-0.57	15.9994
10954	O=C	737	TMC3	O2	1	-0.57	15.9994
10955	CB	738	MPD2	C	1	-0.15	12.011
10956	CB	738	MPD2	C1	1	0.117	12.011
10957	CB	738	MPD2	C2	1	-0.15	12.011
10958	CB	738	MPD2	C3	1	0.117	12.011
10959	CB	738	MPD2	C4	1	-0.15	12.011
10960	CB	738	MPD2	C5	1	-0.15	12.011
10961	HCMM	738	MPD2	H	1	0.15	1.0079
10962	HCMM	738	MPD2	H1	1	0.15	1.0079
10963	HCMM	738	MPD2	H2	1	0.15	1.0079
10964	HCMM	738	MPD2	H3	1	0.15	1.0079
10965	NC=O	738	MPD2	N	1	-0.547	14.0067
10966	HNCO	738	MPD2	H5	1	0.37	1.0079
10967	NC=O	738	MPD2	N1	1	-0.547	14.0067
10968	HNCO	738	MPD2	H7	1	0.37	1.0079
10969	CB	739	TMC3	C1	1	0.0862	12.011
10970	CB	739	TMC3	C2	1	-0.15	12.011
10971	CB	739	TMC3	C3	1	0.0862	12.011
10972	CB	739	TMC3	C4	1	-0.15	12.011
10973	CB	739	TMC3	C5	1	0.0862	12.011
10974	CB	739	TMC3	C6	1	-0.15	12.011
10975	C=O	739	TMC3	C	1	0.5438	12.011
10976	O=C	739	TMC3	O	1	-0.57	15.9994
10977	HCMM	739	TMC3	H	1	0.15	1.0079
10978	HCMM	739	TMC3	H1	1	0.15	1.0079
10979	HCMM	739	TMC3	H2	1	0.15	1.0079
10980	C=O	739	TMC3	C7	1	0.5438	12.011
10981	C=O	739	TMC3	C8	1	0.5438	12.011
10982	O=C	739	TMC3	O1	1	-0.57	15.9994
10983	O=C	739	TMC3	O2	1	-0.57	15.9994
10984	CB	740	TMC3	C1	1	0.0862	12.011
10985	CB	740	TMC3	C2	1	-0.15	12.011
10986	CB	740	TMC3	C3	1	0.0862	12.011
10987	CB	740	TMC3	C4	1	-0.15	12.011
10988	CB	740	TMC3	C5	1	0.0862	12.011
10989	CB	740	TMC3	C6	1	-0.15	12.011
10990	C=O	740	TMC3	C	1	0.5438	12.011
10991	O=C	740	TMC3	O	1	-0.57	15.9994
10992	HCMM	740	TMC3	H	1	0.15	1.0079
10993	HCMM	740	TMC3	H1	1	0.15	1.0079
10994	HCMM	740	TMC3	H2	1	0.15	1.0079
10995	C=O	740	TMC3	C7	1	0.5438	12.011
10996	C=O	740	TMC3	C8	1	0.5438	12.011
10997	O=C	740	TMC3	O1	1	-0.57	15.9994
10998	O=C	740	TMC3	O2	1	-0.57	15.9994
10999	CB	741	TMC3	C1	1	0.0862	12.011
11000	CB	741	TMC3	C2	1	-0.15	12.011
11001	CB	741	TMC3	C3	1	0.0862	12.011
11002	CB	741	TMC3	C4	1	-0.15	12.011
11003	CB	741	TMC3	C5	1	0.0862	12.011
11004	CB	741	TMC3	C6	1	-0.15	12.011
11005	C=O	741	TMC3	C	1	0.5438	12.011
11006	O=C	741	TMC3	O	1	-0.57	15.9994
11007	HCMM	741	TMC3	H	1	0.15	1.0079
11008	HCMM	741	TMC3	H1	1	0.15	1.0079
11009	HCMM	741	TMC3	H2	1	0.15	1.0079
11010	C=O	741	TMC3	C7	1	0.5438	12.011
11011	C=O	741	TMC3	C8	1	0.5438	12.011
11012	O=C	741	TMC3	O1	1	-0.57	15.9994
11013	O=C	741	TMC3	O2	1	-0.57	15.9994
11014	CB	742	TMC3	C1	1	0.0862	12.011
11015	CB	742	TMC3	C2	1	-0.15	12.011
11016	CB	742	TMC3	C3	1	0.0862	12.011
11017	CB	742	TMC3	C4	1	-0.15	12.011
11018	CB	742	TMC3	C5	1	0.0862	12.011
11019	CB	742	TMC3	C6	1	-0.15	12.011
11020	C=O	742	TMC3	C	1	0.5438	12.011
11021	O=C	742	TMC3	O	1	-0.57	15.9994
11022	HCMM	742	TMC3	H	1	0.15	1.0079
11023	HCMM	742	TMC3	H1	1	0.15	1.0079
11024	HCMM	742	TMC3	H2	1	0.15	1.0079
11025	C=O	742	TMC3	C7	1	0.5438	12.011
11026	C=O	742	TMC3	C8	1	0.5438	12.011
11027	O=C	742	TMC3	O1	1	-0.57	15.9994
11028	O=C	742	TMC3	O2	1	-0.57	15.9994
11029	CB	743	MPD2	C	1	-0.15	12.011
11030	CB	743	MPD2	C1	1	0.117	12.011
11031	CB	743	MPD2	C2	1	-0.15	12.011
11032	CB	743	MPD2	C3	1	0.117	12.011
11033	CB	743	MPD2	C4	1	-0.15	12.011
11034	CB	743	MPD2	C5	1	-0.15	12.011
11035	HCMM	743	MPD2	H	1	0.15	1.0079
11036	HCMM	743	MPD2	H1	1	0.15	1.0079
11037	HCMM	743	MPD2	H2	1	0.15	1.0079
11038	HCMM	743	MPD2	H3	1	0.15	1.0079
11039	NC=O	743	MPD2	N	1	-0.547	14.0067
11040	HNCO	743	MPD2	H5	1	0.37	1.0079
11041	NC=O	743	MPD2	N1	1	-0.547	14.0067
11042	HNCO	743	MPD2	H7	1	0.37	1.0079
11043	CB	744	TMC3	C1	1	0.0862	12.011
11044	CB	744	TMC3	C2	1	-0.15	12.011
11045	CB	744	TMC3	C3	1	0.0862	12.011
11046	CB	744	TMC3	C4	1	-0.15	12.011
11047	CB	744	TMC3	C5	1	0.0862	12.011
11048	CB	744	TMC3	C6	1	-0.15	12.011
11049	C=O	744	TMC3	C	1	0.5438	12.011
11050	O=C	744	TMC3	O	1	-0.57	15.9994
11051	HCMM	744	TMC3	H	1	0.15	1.0079
11052	HCMM	744	TMC3	H1	1	0.15	1.0079
11053	HCMM	744	TMC3	H2	1	0.15	1.0079
11054	C=O	744	TMC3	C7	1	0.5438	12.011
11055	C=O	744	TMC3	C8	1	0.5438	12.011
11056	O=C	744	TMC3	O1	1	-0.57	15.9994
11057	O=C	744	TMC3	O2	1	-0.57	15.9994
11058	CB	745	TMC3	C1	1	0.0862	12.011
11059	CB	745	TMC3	C2	1	-0.15	12.011
11060	CB	745	TMC3	C3	1	0.0862	12.011
11061	CB	745	TMC3	C4	1	-0.15	12.011
11062	CB	745	TMC3	C5	1	0.0862	12.011
11063	CB	745	TMC3	C6	1	-0.15	12.011
11064	C=O	745	TMC3	C	1	0.5438	12.011
11065	O=C	745	TMC3	O	1	-0.57	15.9994
11066	HCMM	745	TMC3	H	1	0.15	1.0079
11067	HCMM	745	TMC3	H1	1	0.15	1.0079
11068	HCMM	745	TMC3	H2	1	0.15	1.0079
11069	C=O	745	TMC3	C7	1	0.5438	12.011
11070	C=O	745	TMC3	C8	1	0.5438	12.011
11071	O=C	745	TMC3	O1	1	-0.57	15.9994
11072	O=C	745	TMC3	O2	1	-0.57	15.9994
11073	CB	746	TMC3	C1	1	0.0862	12.011
11074	CB	746	TMC3	C2	1	-0.15	12.011
11075	CB	746	TMC3	C3	1	0.0862	12.011
11076	CB	746	TMC3	C4	1	-0.15	12.011
11077	CB	746	TMC3	C5	1	0.0862	12.011
11078	CB	746	TMC3	C6	1	-0.15	12.011
11079	C=O	746	TMC3	C	1	0.5438	12.011
11080	O=C	746	TMC3	O	1	-0.57	15.9994
11081	HCMM	746	TMC3	H	1	0.15	1.0079
11082	HCMM	746	TMC3	H1	1	0.15	1.0079
11083	HCMM	746	TMC3	H2	1	0.15	1.0079
11084	C=O	746	TMC3	C7	1	0.5438	12.011
11085	C=O	746	TMC3	C8	1	0.5438	12.011
11086	O=C	746	TMC3	O1	1	-0.57	15.9994
11087	O=C	746	TMC3	O2	1	-0.57	15.9994
11088	CB	747	TMC3	C1	1	0.0862	12.011
11089	CB	747	TMC3	C2	1	-0.15	12.011
11090	CB	747	TMC3	C3	1	0.0862	12.011
11091	CB	747	TMC3	C4	1	-0.15	12.011
11092	CB	747	TMC3	C5	1	0.0862	12.011
11093	CB	747	TMC3	C6	1	-0.15	12.011
11094	C=O	747	TMC3	C	1	0.5438	12.011
11095	O=C	747	TMC3	O	1	-0.57	15.9994
11096	HCMM	747	TMC3	H	1	0.15	1.0079
11097	HCMM	747	TMC3	H1	1	0.15	1.0079
11098	HCMM	747	TMC3	H2	1	0.15	1.0079
11099	C=O	747	TMC3	C7	1	0.5438	12.011
11100	C=O	747	TMC3	C8	1	0.5438	12.011
11101	O=C	747	TMC3	O1	1	-0.57	15.9994
11102	O=C	747	TMC3	O2	1	-0.57	15.9994
11103	CB	748	MPD2	C	1	-0.15	12.011
11104	CB	748	MPD2	C1	1	0.117	12.011
11105	CB	748	MPD2	C2	1	-0.15	12.011
11106	CB	748	MPD2	C3	1	0.117	12.011
11107	CB	748	MPD2	C4	1	-0.15	12.011
11108	CB	748	MPD2	C5	1	-0.15	12.011
11109	HCMM	748	MPD2	H	1	0.15	1.0079
11110	HCMM	748	MPD2	H1	1	0.15	1.0079
11111	HCMM	748	MPD2	H2	1	0.15	1.0079
11112	HCMM	748	MPD2	H3	1	0.15	1.0079
11113	NC=O	748	MPD2	N	1	-0.547	14.0067
11114	HNCO	748	MPD2	H5	1	0.37	1.0079
11115	NC=O	748	MPD2	N1	1	-0.547	14.0067
11116	HNCO	748	MPD2	H7	1	0.37	1.0079
11117	CB	749	TMC3	C1	1	0.0862	12.011
11118	CB	749	TMC3	C2	1	-0.15	12.011
11119	CB	749	TMC3	C3	1	0.0862	12.011
11120	CB	749	TMC3	C4	1	-0.15	12.011
11121	CB	749	TMC3	C5	1	0.0862	12.011
11122	CB	749	TMC3	C6	1	-0.15	12.011
11123	C=O	749	TMC3	C	1	0.5438	12.011
11124	O=C	749	TMC3	O	1	-0.57	15.9994
11125	HCMM	749	TMC3	H	1	0.15	1.0079
11126	HCMM	749	TMC3	H1	1	0.15	1.0079
11127	HCMM	749	TMC3	H2	1	0.15	1.0079
11128	C=O	749	TMC3	C7	1	0.5438	12.011
11129	C=O	749	TMC3	C8	1	0.5438	12.011
11130	O=C	749	TMC3	O1	1	-0.57	15.9994
11131	O=C	749	TMC3	O2	1	-0.57	15.9994
11132	CB	750	MPD2	C	1	-0.15	12.011
11133	CB	750	MPD2	C1	1	0.117	12.011
11134	CB	750	MPD2	C2	1	-0.15	12.011
11135	CB	750	MPD2	C3	1	0.117	12.011
11136	CB	750	MPD2	C4	1	-0.15	12.011
11137	CB	750	MPD2	C5	1	-0.15	12.011
11138	HCMM	750	MPD2	H	1	0.15	1.0079
11139	HCMM	750	MPD2	H1	1	0.15	1.0079
11140	HCMM	750	MPD2	H2	1	0.15	1.0079
11141	HCMM	750	MPD2	H3	1	0.15	1.0079
11142	NC=O	750	MPD2	N	1	-0.547	14.0067
11143	HNCO	750	MPD2	H5	1	0.37	1.0079
11144	NC=O	750	MPD2	N1	1	-0.547	14.0067
11145	HNCO	750	MPD2	H7	1	0.37	1.0079
11146	CB	751	TMC3	C1	1	0.0862	12.011
11147	CB	751	TMC3	C2	1	-0.15	12.011
11148	CB	751	TMC3	C3	1	0.0862	12.011
11149	CB	751	TMC3	C4	1	-0.15	12.011
11150	CB	751	TMC3	C5	1	0.0862	12.011
11151	CB	751	TMC3	C6	1	-0.15	12.011
11152	C=O	751	TMC3	C	1	0.5438	12.011
11153	O=C	751	TMC3	O	1	-0.57	15.9994
11154	HCMM	751	TMC3	H	1	0.15	1.0079
11155	HCMM	751	TMC3	H1	1	0.15	1.0079
11156	HCMM	751	TMC3	H2	1	0.15	1.0079
11157	C=O	751	TMC3	C7	1	0.5438	12.011
11158	C=O	751	TMC3	C8	1	0.5438	12.011
11159	O=C	751	TMC3	O1	1	-0.57	15.9994
11160	O=C	751	TMC3	O2	1	-0.57	15.9994
11161	CB	752	TMC3	C1	1	0.0862	12.011
11162	CB	752	TMC3	C2	1	-0.15	12.011
11163	CB	752	TMC3	C3	1	0.0862	12.011
11164	CB	752	TMC3	C4	1	-0.15	12.011
11165	CB	752	TMC3	C5	1	0.0862	12.011
11166	CB	752	TMC3	C6	1	-0.15	12.011
11167	C=O	752	TMC3	C	1	0.5438	12.011
11168	O=C	752	TMC3	O	1	-0.57	15.9994
11169	HCMM	752	TMC3	H	1	0.15	1.0079
11170	HCMM	752	TMC3	H1	1	0.15	1.0079
11171	HCMM	752	TMC3	H2	1	0.15	1.0079
11172	C=O	752	TMC3	C7	1	0.5438	12.011
11173	C=O	752	TMC3	C8	1	0.5438	12.011
11174	O=C	752	TMC3	O1	1	-0.57	15.9994
11175	O=C	752	TMC3	O2	1	-0.57	15.9994
11176	CB	753	TMC3	C1	1	0.0862	12.011
11177	CB	753	TMC3	C2	1	-0.15	12.011
11178	CB	753	TMC3	C3	1	0.0862	12.011
11179	CB	753	TMC3	C4	1	-0.15	12.011
11180	CB	753	TMC3	C5	1	0.0862	12.011
11181	CB	753	TMC3	C6	1	-0.15	12.011
11182	C=O	753	TMC3	C	1	0.5438	12.011
11183	O=C	753	TMC3	O	1	-0.57	15.9994
11184	HCMM	753	TMC3	H	1	0.15	1.0079
11185	HCMM	753	TMC3	H1	1	0.15	1.0079
11186	HCMM	753	TMC3	H2	1	0.15	1.0079
11187	C=O	753	TMC3	C7	1	0.5438	12.011
11188	C=O	753	TMC3	C8	1	0.5438	12.011
11189	O=C	753	TMC3	O1	1	-0.57	15.9994
11190	O=C	753	TMC3	O2	1	-0.57	15.9994
11191	CB	754	MPD2	C	1	-0.15	12.011
11192	CB	754	MPD2	C1	1	0.117	12.011
11193	CB	754	MPD2	C2	1	-0.15	12.011
11194	CB	754	MPD2	C3	1	0.117	12.011
11195	CB	754	MPD2	C4	1	-0.15	12.011
11196	CB	754	MPD2	C5	1	-0.15	12.011
11197	HCMM	754	MPD2	H	1	0.15	1.0079
11198	HCMM	754	MPD2	H1	1	0.15	1.0079
11199	HCMM	754	MPD2	H2	1	0.15	1.0079
11200	HCMM	754	MPD2	H3	1	0.15	1.0079
11201	NC=O	754	MPD2	N	1	-0.547	14.0067
11202	HNCO	754	MPD2	H5	1	0.37	1.0079
11203	NC=O	754	MPD2	N1	1	-0.547	14.0067
11204	HNCO	754	MPD2	H7	1	0.37	1.0079
11205	CB	755	MPD2	C	1	-0.15	12.011
11206	CB	755	MPD2	C1	1	0.117	12.011
11207	CB	755	MPD2	C2	1	-0.15	12.011
11208	CB	755	MPD2	C3	1	0.117	12.011
11209	CB	755	MPD2	C4	1	-0.15	12.011
11210	CB	755	MPD2	C5	1	-0.15	12.011
11211	HCMM	755	MPD2	H	1	0.15	1.0079
11212	HCMM	755	MPD2	H1	1	0.15	1.0079
11213	HCMM	755	MPD2	H2	1	0.15	1.0079
11214	HCMM	755	MPD2	H3	1	0.15	1.0079
11215	NC=O	755	MPD2	N	1	-0.547	14.0067
11216	HNCO	755	MPD2	H5	1	0.37	1.0079
11217	NC=O	755	MPD2	N1	1	-0.547	14.0067
11218	HNCO	755	MPD2	H7	1	0.37	1.0079
11219	CB	756	MPD2	C	1	-0.15	12.011
11220	CB	756	MPD2	C1	1	0.117	12.011
11221	CB	756	MPD2	C2	1	-0.15	12.011
11222	CB	756	MPD2	C3	1	0.117	12.011
11223	CB	756	MPD2	C4	1	-0.15	12.011
11224	CB	756	MPD2	C5	1	-0.15	12.011
11225	HCMM	756	MPD2	H	1	0.15	1.0079
11226	HCMM	756	MPD2	H1	1	0.15	1.0079
11227	HCMM	756	MPD2	H2	1	0.15	1.0079
11228	HCMM	756	MPD2	H3	1	0.15	1.0079
11229	NC=O	756	MPD2	N	1	-0.547	14.0067
11230	HNCO	756	MPD2	H5	1	0.37	1.0079
11231	NC=O	756	MPD2	N1	1	-0.547	14.0067
11232	HNCO	756	MPD2	H7	1	0.37	1.0079
11233	CB	757	MPD2	C	1	-0.15	12.011
11234	CB	757	MPD2	C1	1	0.117	12.011
11235	CB	757	MPD2	C2	1	-0.15	12.011
11236	CB	757	MPD2	C3	1	0.117	12.011
11237	CB	757	MPD2	C4	1	-0.15	12.011
11238	CB	757	MPD2	C5	1	-0.15	12.011
11239	HCMM	757	MPD2	H	1	0.15	1.0079
11240	HCMM	757	MPD2	H1	1	0.15	1.0079
11241	HCMM	757	MPD2	H2	1	0.15	1.0079
11242	HCMM	757	MPD2	H3	1	0.15	1.0079
11243	NC=O	757	MPD2	N	1	-0.547	14.0067
11244	HNCO	757	MPD2	H5	1	0.37	1.0079
11245	NC=O	757	MPD2	N1	1	-0.547	14.0067
11246	HNCO	757	MPD2	H7	1	0.37	1.0079
11247	CB	758	MPD2	C	1	-0.15	12.011
11248	CB	758	MPD2	C1	1	0.117	12.011
11249	CB	758	MPD2	C2	1	-0.15	12.011
11250	CB	758	MPD2	C3	1	0.117	12.011
11251	CB	758	MPD2	C4	1	-0.15	12.011
11252	CB	758	MPD2	C5	1	-0.15	12.011
11253	HCMM	758	MPD2	H	1	0.15	1.0079
11254	HCMM	758	MPD2	H1	1	0.15	1.0079
11255	HCMM	758	MPD2	H2	1	0.15	1.0079
11256	HCMM	758	MPD2	H3	1	0.15	1.0079
11257	NC=O	758	MPD2	N	1	-0.547	14.0067
11258	HNCO	758	MPD2	H5	1	0.37	1.0079
11259	NC=O	758	MPD2	N1	1	-0.547	14.0067
11260	HNCO	758	MPD2	H7	1	0.37	1.0079
11261	CB	759	MPD2	C	1	-0.15	12.011
11262	CB	759	MPD2	C1	1	0.117	12.011
11263	CB	759	MPD2	C2	1	-0.15	12.011
11264	CB	759	MPD2	C3	1	0.117	12.011
11265	CB	759	MPD2	C4	1	-0.15	12.011
11266	CB	759	MPD2	C5	1	-0.15	12.011
11267	HCMM	759	MPD2	H	1	0.15	1.0079
11268	HCMM	759	MPD2	H1	1	0.15	1.0079
11269	HCMM	759	MPD2	H2	1	0.15	1.0079
11270	HCMM	759	MPD2	H3	1	0.15	1.0079
11271	NC=O	759	MPD2	N	1	-0.547	14.0067
11272	HNCO	759	MPD2	H5	1	0.37	1.0079
11273	NC=O	759	MPD2	N1	1	-0.547	14.0067
11274	HNCO	759	MPD2	H7	1	0.37	1.0079
11275	CB	760	MPD2	C	1	-0.15	12.011
11276	CB	760	MPD2	C1	1	0.117	12.011
11277	CB	760	MPD2	C2	1	-0.15	12.011
11278	CB	760	MPD2	C3	1	0.117	12.011
11279	CB	760	MPD2	C4	1	-0.15	12.011
11280	CB	760	MPD2	C5	1	-0.15	12.011
11281	HCMM	760	MPD2	H	1	0.15	1.0079
11282	HCMM	760	MPD2	H1	1	0.15	1.0079
11283	HCMM	760	MPD2	H2	1	0.15	1.0079
11284	HCMM	760	MPD2	H3	1	0.15	1.0079
11285	NC=O	760	MPD2	N	1	-0.547	14.0067
11286	HNCO	760	MPD2	H5	1	0.37	1.0079
11287	NC=O	760	MPD2	N1	1	-0.547	14.0067
11288	HNCO	760	MPD2	H7	1	0.37	1.0079
11289	CB	761	MPD2	C	1	-0.15	12.011
11290	CB	761	MPD2	C1	1	0.117	12.011
11291	CB	761	MPD2	C2	1	-0.15	12.011
11292	CB	761	MPD2	C3	1	0.117	12.011
11293	CB	761	MPD2	C4	1	-0.15	12.011
11294	CB	761	MPD2	C5	1	-0.15	12.011
11295	HCMM	761	MPD2	H	1	0.15	1.0079
11296	HCMM	761	MPD2	H1	1	0.15	1.0079
11297	HCMM	761	MPD2	H2	1	0.15	1.0079
11298	HCMM	761	MPD2	H3	1	0.15	1.0079
11299	NC=O	761	MPD2	N	1	-0.547	14.0067
11300	HNCO	761	MPD2	H5	1	0.37	1.0079
11301	NC=O	761	MPD2	N1	1	-0.547	14.0067
11302	HNCO	761	MPD2	H7	1	0.37	1.0079
11303	CB	762	MPD2	C	1	-0.15	12.011
11304	CB	762	MPD2	C1	1	0.117	12.011
11305	CB	762	MPD2	C2	1	-0.15	12.011
11306	CB	762	MPD2	C3	1	0.117	12.011
11307	CB	762	MPD2	C4	1	-0.15	12.011
11308	CB	762	MPD2	C5	1	-0.15	12.011
11309	HCMM	762	MPD2	H	1	0.15	1.0079
11310	HCMM	762	MPD2	H1	1	0.15	1.0079
11311	HCMM	762	MPD2	H2	1	0.15	1.0079
11312	HCMM	762	MPD2	H3	1	0.15	1.0079
11313	NC=O	762	MPD2	N	1	-0.547	14.0067
11314	HNCO	762	MPD2	H5	1	0.37	1.0079
11315	NC=O	762	MPD2	N1	1	-0.547	14.0067
11316	HNCO	762	MPD2	H7	1	0.37	1.0079
11317	CB	763	MPD2	C	1	-0.15	12.011
11318	CB	763	MPD2	C1	1	0.117	12.011
11319	CB	763	MPD2	C2	1	-0.15	12.011
11320	CB	763	MPD2	C3	1	0.117	12.011
11321	CB	763	MPD2	C4	1	-0.15	12.011
11322	CB	763	MPD2	C5	1	-0.15	12.011
11323	HCMM	763	MPD2	H	1	0.15	1.0079
11324	HCMM	763	MPD2	H1	1	0.15	1.0079
11325	HCMM	763	MPD2	H2	1	0.15	1.0079
11326	HCMM	763	MPD2	H3	1	0.15	1.0079
11327	NC=O	763	MPD2	N	1	-0.547	14.0067
11328	HNCO	763	MPD2	H5	1	0.37	1.0079
11329	NC=O	763	MPD2	N1	1	-0.547	14.0067
11330	HNCO	763	MPD2	H7	1	0.37	1.0079
11331	CB	764	MPD2	C	1	-0.15	12.011
11332	CB	764	MPD2	C1	1	0.117	12.011
11333	CB	764	MPD2	C2	1	-0.15	12.011
11334	CB	764	MPD2	C3	1	0.117	12.011
11335	CB	764	MPD2	C4	1	-0.15	12.011
11336	CB	764	MPD2	C5	1	-0.15	12.011
11337	HCMM	764	MPD2	H	1	0.15	1.0079
11338	HCMM	764	MPD2	H1	1	0.15	1.0079
11339	HCMM	764	MPD2	H2	1	0.15	1.0079
11340	HCMM	764	MPD2	H3	1	0.15	1.0079
11341	NC=O	764	MPD2	N	1	-0.547	14.0067
11342	HNCO	764	MPD2	H5	1	0.37	1.0079
11343	NC=O	764	MPD2	N1	1	-0.547	14.0067
11344	HNCO	764	MPD2	H7	1	0.37	1.0079
11345	CB	765	MPD2	C	1	-0.15	12.011
11346	CB	765	MPD2	C1	1	0.117	12.011
11347	CB	765	MPD2	C2	1	-0.15	12.011
11348	CB	765	MPD2	C3	1	0.117	12.011
11349	CB	765	MPD2	C4	1	-0.15	12.011
11350	CB	765	MPD2	C5	1	-0.15	12.011
11351	HCMM	765	MPD2	H	1	0.15	1.0079
11352	HCMM	765	MPD2	H1	1	0.15	1.0079
11353	HCMM	765	MPD2	H2	1	0.15	1.0079
11354	HCMM	765	MPD2	H3	1	0.15	1.0079
11355	NC=O	765	MPD2	N	1	-0.547	14.0067
11356	HNCO	765	MPD2	H5	1	0.37	1.0079
11357	NC=O	765	MPD2	N1	1	-0.547	14.0067
11358	HNCO	765	MPD2	H7	1	0.37	1.0079
11359	CB	766	MPD2	C	1	-0.15	12.011
11360	CB	766	MPD2	C1	1	0.117	12.011
11361	CB	766	MPD2	C2	1	-0.15	12.011
11362	CB	766	MPD2	C3	1	0.117	12.011
11363	CB	766	MPD2	C4	1	-0.15	12.011
11364	CB	766	MPD2	C5	1	-0.15	12.011
11365	HCMM	766	MPD2	H	1	0.15	1.0079
11366	HCMM	766	MPD2	H1	1	0.15	1.0079
11367	HCMM	766	MPD2	H2	1	0.15	1.0079
11368	HCMM	766	MPD2	H3	1	0.15	1.0079
11369	NC=O	766	MPD2	N	1	-0.547	14.0067
11370	HNCO	766	MPD2	H5	1	0.37	1.0079
11371	NC=O	766	MPD2	N1	1	-0.547	14.0067
11372	HNCO	766	MPD2	H7	1	0.37	1.0079
11373	CB	767	MPD2	C	1	-0.15	12.011
11374	CB	767	MPD2	C1	1	0.117	12.011
11375	CB	767	MPD2	C2	1	-0.15	12.011
11376	CB	767	MPD2	C3	1	0.117	12.011
11377	CB	767	MPD2	C4	1	-0.15	12.011
11378	CB	767	MPD2	C5	1	-0.15	12.011
11379	HCMM	767	MPD2	H	1	0.15	1.0079
11380	HCMM	767	MPD2	H1	1	0.15	1.0079
11381	HCMM	767	MPD2	H2	1	0.15	1.0079
11382	HCMM	767	MPD2	H3	1	0.15	1.0079
11383	NC=O	767	MPD2	N	1	-0.547	14.0067
11384	HNCO	767	MPD2	H5	1	0.37	1.0079
11385	NC=O	767	MPD2	N1	1	-0.547	14.0067
11386	HNCO	767	MPD2	H7	1	0.37	1.0079
11387	CB	768	MPD2	C	1	-0.15	12.011
11388	CB	768	MPD2	C1	1	0.117	12.011
11389	CB	768	MPD2	C2	1	-0.15	12.011
11390	CB	768	MPD2	C3	1	0.117	12.011
11391	CB	768	MPD2	C4	1	-0.15	12.011
11392	CB	768	MPD2	C5	1	-0.15	12.011
11393	HCMM	768	MPD2	H	1	0.15	1.0079
11394	HCMM	768	MPD2	H1	1	0.15	1.0079
11395	HCMM	768	MPD2	H2	1	0.15	1.0079
11396	HCMM	768	MPD2	H3	1	0.15	1.0079
11397	NC=O	768	MPD2	N	1	-0.547	14.0067
11398	HNCO	768	MPD2	H5	1	0.37	1.0079
11399	NC=O	768	MPD2	N1	1	-0.547	14.0067
11400	HNCO	768	MPD2	H7	1	0.37	1.0079
11401	CB	769	MPD2	C	1	-0.15	12.011
11402	CB	769	MPD2	C1	1	0.117	12.011
11403	CB	769	MPD2	C2	1	-0.15	12.011
11404	CB	769	MPD2	C3	1	0.117	12.011
11405	CB	769	MPD2	C4	1	-0.15	12.011
11406	CB	769	MPD2	C5	1	-0.15	12.011
11407	HCMM	769	MPD2	H	1	0.15	1.0079
11408	HCMM	769	MPD2	H1	1	0.15	1.0079
11409	HCMM	769	MPD2	H2	1	0.15	1.0079
11410	HCMM	769	MPD2	H3	1	0.15	1.0079
11411	NC=O	769	MPD2	N	1	-0.547	14.0067
11412	HNCO	769	MPD2	H5	1	0.37	1.0079
11413	NC=O	769	MPD2	N1	1	-0.547	14.0067
11414	HNCO	769	MPD2	H7	1	0.37	1.0079
11415	CB	770	MPD2	C	1	-0.15	12.011
11416	CB	770	MPD2	C1	1	0.117	12.011
11417	CB	770	MPD2	C2	1	-0.15	12.011
11418	CB	770	MPD2	C3	1	0.117	12.011
11419	CB	770	MPD2	C4	1	-0.15	12.011
11420	CB	770	MPD2	C5	1	-0.15	12.011
11421	HCMM	770	MPD2	H	1	0.15	1.0079
11422	HCMM	770	MPD2	H1	1	0.15	1.0079
11423	HCMM	770	MPD2	H2	1	0.15	1.0079
11424	HCMM	770	MPD2	H3	1	0.15	1.0079
11425	NC=O	770	MPD2	N	1	-0.547	14.0067
11426	HNCO	770	MPD2	H5	1	0.37	1.0079
11427	NC=O	770	MPD2	N1	1	-0.547	14.0067
11428	HNCO	770	MPD2	H7	1	0.37	1.0079
11429	CB	771	MPD2	C	1	-0.15	12.011
11430	CB	771	MPD2	C1	1	0.117	12.011
11431	CB	771	MPD2	C2	1	-0.15	12.011
11432	CB	771	MPD2	C3	1	0.117	12.011
11433	CB	771	MPD2	C4	1	-0.15	12.011
11434	CB	771	MPD2	C5	1	-0.15	12.011
11435	HCMM	771	MPD2	H	1	0.15	1.0079
11436	HCMM	771	MPD2	H1	1	0.15	1.0079
11437	HCMM	771	MPD2	H2	1	0.15	1.0079
11438	HCMM	771	MPD2	H3	1	0.15	1.0079
11439	NC=O	771	MPD2	N	1	-0.547	14.0067
11440	HNCO	771	MPD2	H5	1	0.37	1.0079
11441	NC=O	771	MPD2	N1	1	-0.547	14.0067
11442	HNCO	771	MPD2	H7	1	0.37	1.0079
11443	CB	772	MPD2	C	1	-0.15	12.011
11444	CB	772	MPD2	C1	1	0.117	12.011
11445	CB	772	MPD2	C2	1	-0.15	12.011
11446	CB	772	MPD2	C3	1	0.117	12.011
11447	CB	772	MPD2	C4	1	-0.15	12.011
11448	CB	772	MPD2	C5	1	-0.15	12.011
11449	HCMM	772	MPD2	H	1	0.15	1.0079
11450	HCMM	772	MPD2	H1	1	0.15	1.0079
11451	HCMM	772	MPD2	H2	1	0.15	1.0079
11452	HCMM	772	MPD2	H3	1	0.15	1.0079
11453	NC=O	772	MPD2	N	1	-0.547	14.0067
11454	HNCO	772	MPD2	H5	1	0.37	1.0079
11455	NC=O	772	MPD2	N1	1	-0.547	14.0067
11456	HNCO	772	MPD2	H7	1	0.37	1.0079
11457	CB	773	MPD2	C	1	-0.15	12.011
11458	CB	773	MPD2	C1	1	0.117	12.011
11459	CB	773	MPD2	C2	1	-0.15	12.011
11460	CB	773	MPD2	C3	1	0.117	12.011
11461	CB	773	MPD2	C4	1	-0.15	12.011
11462	CB	773	MPD2	C5	1	-0.15	12.011
11463	HCMM	773	MPD2	H	1	0.15	1.0079
11464	HCMM	773	MPD2	H1	1	0.15	1.0079
11465	HCMM	773	MPD2	H2	1	0.15	1.0079
11466	HCMM	773	MPD2	H3	1	0.15	1.0079
11467	NC=O	773	MPD2	N	1	-0.547	14.0067
11468	HNCO	773	MPD2	H5	1	0.37	1.0079
11469	NC=O	773	MPD2	N1	1	-0.547	14.0067
11470	HNCO	773	MPD2	H7	1	0.37	1.0079
11471	CB	774	MPD2	C	1	-0.15	12.011
11472	CB	774	MPD2	C1	1	0.117	12.011
11473	CB	774	MPD2	C2	1	-0.15	12.011
11474	CB	774	MPD2	C3	1	0.117	12.011
11475	CB	774	MPD2	C4	1	-0.15	12.011
11476	CB	774	MPD2	C5	1	-0.15	12.011
11477	HCMM	774	MPD2	H	1	0.15	1.0079
11478	HCMM	774	MPD2	H1	1	0.15	1.0079
11479	HCMM	774	MPD2	H2	1	0.15	1.0079
11480	HCMM	774	MPD2	H3	1	0.15	1.0079
11481	NC=O	774	MPD2	N	1	-0.547	14.0067
11482	HNCO	774	MPD2	H5	1	0.37	1.0079
11483	NC=O	774	MPD2	N1	1	-0.547	14.0067
11484	HNCO	774	MPD2	H7	1	0.37	1.0079
11485	CB	775	MPD2	C	1	-0.15	12.011
11486	CB	775	MPD2	C1	1	0.117	12.011
11487	CB	775	MPD2	C2	1	-0.15	12.011
11488	CB	775	MPD2	C3	1	0.117	12.011
11489	CB	775	MPD2	C4	1	-0.15	12.011
11490	CB	775	MPD2	C5	1	-0.15	12.011
11491	HCMM	775	MPD2	H	1	0.15	1.0079
11492	HCMM	775	MPD2	H1	1	0.15	1.0079
11493	HCMM	775	MPD2	H2	1	0.15	1.0079
11494	HCMM	775	MPD2	H3	1	0.15	1.0079
11495	NC=O	775	MPD2	N	1	-0.547	14.0067
11496	HNCO	775	MPD2	H5	1	0.37	1.0079
11497	NC=O	775	MPD2	N1	1	-0.547	14.0067
11498	HNCO	775	MPD2	H7	1	0.37	1.0079
11499	CB	776	MPD2	C	1	-0.15	12.011
11500	CB	776	MPD2	C1	1	0.117	12.011
11501	CB	776	MPD2	C2	1	-0.15	12.011
11502	CB	776	MPD2	C3	1	0.117	12.011
11503	CB	776	MPD2	C4	1	-0.15	12.011
11504	CB	776	MPD2	C5	1	-0.15	12.011
11505	HCMM	776	MPD2	H	1	0.15	1.0079
11506	HCMM	776	MPD2	H1	1	0.15	1.0079
11507	HCMM	776	MPD2	H2	1	0.15	1.0079
11508	HCMM	776	MPD2	H3	1	0.15	1.0079
11509	NC=O	776	MPD2	N	1	-0.547	14.0067
11510	HNCO	776	MPD2	H5	1	0.37	1.0079
11511	NC=O	776	MPD2	N1	1	-0.547	14.0067
11512	HNCO	776	MPD2	H7	1	0.37	1.0079
11513	CB	777	MPD2	C	1	-0.15	12.011
11514	CB	777	MPD2	C1	1	0.117	12.011
11515	CB	777	MPD2	C2	1	-0.15	12.011
11516	CB	777	MPD2	C3	1	0.117	12.011
11517	CB	777	MPD2	C4	1	-0.15	12.011
11518	CB	777	MPD2	C5	1	-0.15	12.011
11519	HCMM	777	MPD2	H	1	0.15	1.0079
11520	HCMM	777	MPD2	H1	1	0.15	1.0079
11521	HCMM	777	MPD2	H2	1	0.15	1.0079
11522	HCMM	777	MPD2	H3	1	0.15	1.0079
11523	NC=O	777	MPD2	N	1	-0.547	14.0067
11524	HNCO	777	MPD2	H5	1	0.37	1.0079
11525	NC=O	777	MPD2	N1	1	-0.547	14.0067
11526	HNCO	777	MPD2	H7	1	0.37	1.0079
11527	CB	778	MPD2	C	1	-0.15	12.011
11528	CB	778	MPD2	C1	1	0.117	12.011
11529	CB	778	MPD2	C2	1	-0.15	12.011
11530	CB	778	MPD2	C3	1	0.117	12.011
11531	CB	778	MPD2	C4	1	-0.15	12.011
11532	CB	778	MPD2	C5	1	-0.15	12.011
11533	HCMM	778	MPD2	H	1	0.15	1.0079
11534	HCMM	778	MPD2	H1	1	0.15	1.0079
11535	HCMM	778	MPD2	H2	1	0.15	1.0079
11536	HCMM	778	MPD2	H3	1	0.15	1.0079
11537	NC=O	778	MPD2	N	1	-0.547	14.0067
11538	HNCO	778	MPD2	H5	1	0.37	1.0079
11539	NC=O	778	MPD2	N1	1	-0.547	14.0067
11540	HNCO	778	MPD2	H7	1	0.37	1.0079
11541	CB	779	MPD2	C	1	-0.15	12.011
11542	CB	779	MPD2	C1	1	0.117	12.011
11543	CB	779	MPD2	C2	1	-0.15	12.011
11544	CB	779	MPD2	C3	1	0.117	12.011
11545	CB	779	MPD2	C4	1	-0.15	12.011
11546	CB	779	MPD2	C5	1	-0.15	12.011
11547	HCMM	779	MPD2	H	1	0.15	1.0079
11548	HCMM	779	MPD2	H1	1	0.15	1.0079
11549	HCMM	779	MPD2	H2	1	0.15	1.0079
11550	HCMM	779	MPD2	H3	1	0.15	1.0079
11551	NC=O	779	MPD2	N	1	-0.547	14.0067
11552	HNCO	779	MPD2	H5	1	0.37	1.0079
11553	NC=O	779	MPD2	N1	1	-0.547	14.0067
11554	HNCO	779	MPD2	H7	1	0.37	1.0079
11555	CB	780	MPD2	C	1	-0.15	12.011
11556	CB	780	MPD2	C1	1	0.117	12.011
11557	CB	780	MPD2	C2	1	-0.15	12.011
11558	CB	780	MPD2	C3	1	0.117	12.011
11559	CB	780	MPD2	C4	1	-0.15	12.011
11560	CB	780	MPD2	C5	1	-0.15	12.011
11561	HCMM	780	MPD2	H	1	0.15	1.0079
11562	HCMM	780	MPD2	H1	1	0.15	1.0079
11563	HCMM	780	MPD2	H2	1	0.15	1.0079
11564	HCMM	780	MPD2	H3	1	0.15	1.0079
11565	NC=O	780	MPD2	N	1	-0.547	14.0067
11566	HNCO	780	MPD2	H5	1	0.37	1.0079
11567	NC=O	780	MPD2	N1	1	-0.547	14.0067
11568	HNCO	780	MPD2	H7	1	0.37	1.0079
11569	CB	781	MPD2	C	1	-0.15	12.011
11570	CB	781	MPD2	C1	1	0.117	12.011
11571	CB	781	MPD2	C2	1	-0.15	12.011
11572	CB	781	MPD2	C3	1	0.117	12.011
11573	CB	781	MPD2	C4	1	-0.15	12.011
11574	CB	781	MPD2	C5	1	-0.15	12.011
11575	HCMM	781	MPD2	H	1	0.15	1.0079
11576	HCMM	781	MPD2	H1	1	0.15	1.0079
11577	HCMM	781	MPD2	H2	1	0.15	1.0079
11578	HCMM	781	MPD2	H3	1	0.15	1.0079
11579	NC=O	781	MPD2	N	1	-0.547	14.0067
11580	HNCO	781	MPD2	H5	1	0.37	1.0079
11581	NC=O	781	MPD2	N1	1	-0.547	14.0067
11582	HNCO	781	MPD2	H7	1	0.37	1.0079
11583	CB	782	MPD2	C	1	-0.15	12.011
11584	CB	782	MPD2	C1	1	0.117	12.011
11585	CB	782	MPD2	C2	1	-0.15	12.011
11586	CB	782	MPD2	C3	1	0.117	12.011
11587	CB	782	MPD2	C4	1	-0.15	12.011
11588	CB	782	MPD2	C5	1	-0.15	12.011
11589	HCMM	782	MPD2	H	1	0.15	1.0079
11590	HCMM	782	MPD2	H1	1	0.15	1.0079
11591	HCMM	782	MPD2	H2	1	0.15	1.0079
11592	HCMM	782	MPD2	H3	1	0.15	1.0079
11593	NC=O	782	MPD2	N	1	-0.547	14.0067
11594	HNCO	782	MPD2	H5	1	0.37	1.0079
11595	NC=O	782	MPD2	N1	1	-0.547	14.0067
11596	HNCO	782	MPD2	H7	1	0.37	1.0079
11597	CB	783	MPD2	C	1	-0.15	12.011
11598	CB	783	MPD2	C1	1	0.117	12.011
11599	CB	783	MPD2	C2	1	-0.15	12.011
11600	CB	783	MPD2	C3	1	0.117	12.011
11601	CB	783	MPD2	C4	1	-0.15	12.011
11602	CB	783	MPD2	C5	1	-0.15	12.011
11603	HCMM	783	MPD2	H	1	0.15	1.0079
11604	HCMM	783	MPD2	H1	1	0.15	1.0079
11605	HCMM	783	MPD2	H2	1	0.15	1.0079
11606	HCMM	783	MPD2	H3	1	0.15	1.0079
11607	NC=O	783	MPD2	N	1	-0.547	14.0067
11608	HNCO	783	MPD2	H5	1	0.37	1.0079
11609	NC=O	783	MPD2	N1	1	-0.547	14.0067
11610	HNCO	783	MPD2	H7	1	0.37	1.0079
11611	CB	784	MPD2	C	1	-0.15	12.011
11612	CB	784	MPD2	C1	1	0.117	12.011
11613	CB	784	MPD2	C2	1	-0.15	12.011
11614	CB	784	MPD2	C3	1	0.117	12.011
11615	CB	784	MPD2	C4	1	-0.15	12.011
11616	CB	784	MPD2	C5	1	-0.15	12.011
11617	HCMM	784	MPD2	H	1	0.15	1.0079
11618	HCMM	784	MPD2	H1	1	0.15	1.0079
11619	HCMM	784	MPD2	H2	1	0.15	1.0079
11620	HCMM	784	MPD2	H3	1	0.15	1.0079
11621	NC=O	784	MPD2	N	1	-0.547	14.0067
11622	HNCO	784	MPD2	H5	1	0.37	1.0079
11623	NC=O	784	MPD2	N1	1	-0.547	14.0067
11624	HNCO	784	MPD2	H7	1	0.37	1.0079
11625	CB	785	MPD2	C	1	-0.15	12.011
11626	CB	785	MPD2	C1	1	0.117	12.011
11627	CB	785	MPD2	C2	1	-0.15	12.011
11628	CB	785	MPD2	C3	1	0.117	12.011
11629	CB	785	MPD2	C4	1	-0.15	12.011
11630	CB	785	MPD2	C5	1	-0.15	12.011
11631	HCMM	785	MPD2	H	1	0.15	1.0079
11632	HCMM	785	MPD2	H1	1	0.15	1.0079
11633	HCMM	785	MPD2	H2	1	0.15	1.0079
11634	HCMM	785	MPD2	H3	1	0.15	1.0079
11635	NC=O	785	MPD2	N	1	-0.547	14.0067
11636	HNCO	785	MPD2	H5	1	0.37	1.0079
11637	NC=O	785	MPD2	N1	1	-0.547	14.0067
11638	HNCO	785	MPD2	H7	1	0.37	1.0079
11639	CB	786	MPD2	C	1	-0.15	12.011
11640	CB	786	MPD2	C1	1	0.117	12.011
11641	CB	786	MPD2	C2	1	-0.15	12.011
11642	CB	786	MPD2	C3	1	0.117	12.011
11643	CB	786	MPD2	C4	1	-0.15	12.011
11644	CB	786	MPD2	C5	1	-0.15	12.011
11645	HCMM	786	MPD2	H	1	0.15	1.0079
11646	HCMM	786	MPD2	H1	1	0.15	1.0079
11647	HCMM	786	MPD2	H2	1	0.15	1.0079
11648	HCMM	786	MPD2	H3	1	0.15	1.0079
11649	NC=O	786	MPD2	N	1	-0.547	14.0067
11650	HNCO	786	MPD2	H5	1	0.37	1.0079
11651	NC=O	786	MPD2	N1	1	-0.547	14.0067
11652	HNCO	786	MPD2	H7	1	0.37	1.0079
11653	CB	787	MPD2	C	1	-0.15	12.011
11654	CB	787	MPD2	C1	1	0.117	12.011
11655	CB	787	MPD2	C2	1	-0.15	12.011
11656	CB	787	MPD2	C3	1	0.117	12.011
11657	CB	787	MPD2	C4	1	-0.15	12.011
11658	CB	787	MPD2	C5	1	-0.15	12.011
11659	HCMM	787	MPD2	H	1	0.15	1.0079
11660	HCMM	787	MPD2	H1	1	0.15	1.0079
11661	HCMM	787	MPD2	H2	1	0.15	1.0079
11662	HCMM	787	MPD2	H3	1	0.15	1.0079
11663	NC=O	787	MPD2	N	1	-0.547	14.0067
11664	HNCO	787	MPD2	H5	1	0.37	1.0079
11665	NC=O	787	MPD2	N1	1	-0.547	14.0067
11666	HNCO	787	MPD2	H7	1	0.37	1.0079
11667	CB	788	MPD2	C	1	-0.15	12.011
11668	CB	788	MPD2	C1	1	0.117	12.011
11669	CB	788	MPD2	C2	1	-0.15	12.011
11670	CB	788	MPD2	C3	1	0.117	12.011
11671	CB	788	MPD2	C4	1	-0.15	12.011
11672	CB	788	MPD2	C5	1	-0.15	12.011
11673	HCMM	788	MPD2	H	1	0.15	1.0079
11674	HCMM	788	MPD2	H1	1	0.15	1.0079
11675	HCMM	788	MPD2	H2	1	0.15	1.0079
11676	HCMM	788	MPD2	H3	1	0.15	1.0079
11677	NC=O	788	MPD2	N	1	-0.547	14.0067
11678	HNCO	788	MPD2	H5	1	0.37	1.0079
11679	NC=O	788	MPD2	N1	1	-0.547	14.0067
11680	HNCO	788	MPD2	H7	1	0.37	1.0079
11681	CB	789	MPD2	C	1	-0.15	12.011
11682	CB	789	MPD2	C1	1	0.117	12.011
11683	CB	789	MPD2	C2	1	-0.15	12.011
11684	CB	789	MPD2	C3	1	0.117	12.011
11685	CB	789	MPD2	C4	1	-0.15	12.011
11686	CB	789	MPD2	C5	1	-0.15	12.011
11687	HCMM	789	MPD2	H	1	0.15	1.0079
11688	HCMM	789	MPD2	H1	1	0.15	1.0079
11689	HCMM	789	MPD2	H2	1	0.15	1.0079
11690	HCMM	789	MPD2	H3	1	0.15	1.0079
11691	NC=O	789	MPD2	N	1	-0.547	14.0067
11692	HNCO	789	MPD2	H5	1	0.37	1.0079
11693	NC=O	789	MPD2	N1	1	-0.547	14.0067
11694	HNCO	789	MPD2	H7	1	0.37	1.0079
11695	CB	790	MPD2	C	1	-0.15	12.011
11696	CB	790	MPD2	C1	1	0.117	12.011
11697	CB	790	MPD2	C2	1	-0.15	12.011
11698	CB	790	MPD2	C3	1	0.117	12.011
11699	CB	790	MPD2	C4	1	-0.15	12.011
11700	CB	790	MPD2	C5	1	-0.15	12.011
11701	HCMM	790	MPD2	H	1	0.15	1.0079
11702	HCMM	790	MPD2	H1	1	0.15	1.0079
11703	HCMM	790	MPD2	H2	1	0.15	1.0079
11704	HCMM	790	MPD2	H3	1	0.15	1.0079
11705	NC=O	790	MPD2	N	1	-0.547	14.0067
11706	HNCO	790	MPD2	H5	1	0.37	1.0079
11707	NC=O	790	MPD2	N1	1	-0.547	14.0067
11708	HNCO	790	MPD2	H7	1	0.37	1.0079
11709	CB	791	MPD2	C	1	-0.15	12.011
11710	CB	791	MPD2	C1	1	0.117	12.011
11711	CB	791	MPD2	C2	1	-0.15	12.011
11712	CB	791	MPD2	C3	1	0.117	12.011
11713	CB	791	MPD2	C4	1	-0.15	12.011
11714	CB	791	MPD2	C5	1	-0.15	12.011
11715	HCMM	791	MPD2	H	1	0.15	1.0079
11716	HCMM	791	MPD2	H1	1	0.15	1.0079
11717	HCMM	791	MPD2	H2	1	0.15	1.0079
11718	HCMM	791	MPD2	H3	1	0.15	1.0079
11719	NC=O	791	MPD2	N	1	-0.547	14.0067
11720	HNCO	791	MPD2	H5	1	0.37	1.0079
11721	NC=O	791	MPD2	N1	1	-0.547	14.0067
11722	HNCO	791	MPD2	H7	1	0.37	1.0079
11723	CB	792	MPD2	C	1	-0.15	12.011
11724	CB	792	MPD2	C1	1	0.117	12.011
11725	CB	792	MPD2	C2	1	-0.15	12.011
11726	CB	792	MPD2	C3	1	0.117	12.011
11727	CB	792	MPD2	C4	1	-0.15	12.011
11728	CB	792	MPD2	C5	1	-0.15	12.011
11729	HCMM	792	MPD2	H	1	0.15	1.0079
11730	HCMM	792	MPD2	H1	1	0.15	1.0079
11731	HCMM	792	MPD2	H2	1	0.15	1.0079
11732	HCMM	792	MPD2	H3	1	0.15	1.0079
11733	NC=O	792	MPD2	N	1	-0.547	14.0067
11734	HNCO	792	MPD2	H5	1	0.37	1.0079
11735	NC=O	792	MPD2	N1	1	-0.547	14.0067
11736	HNCO	792	MPD2	H7	1	0.37	1.0079
11737	CB	793	MPD2	C	1	-0.15	12.011
11738	CB	793	MPD2	C1	1	0.117	12.011
11739	CB	793	MPD2	C2	1	-0.15	12.011
11740	CB	793	MPD2	C3	1	0.117	12.011
11741	CB	793	MPD2	C4	1	-0.15	12.011
11742	CB	793	MPD2	C5	1	-0.15	12.011
11743	HCMM	793	MPD2	H	1	0.15	1.0079
11744	HCMM	793	MPD2	H1	1	0.15	1.0079
11745	HCMM	793	MPD2	H2	1	0.15	1.0079
11746	HCMM	793	MPD2	H3	1	0.15	1.0079
11747	NC=O	793	MPD2	N	1	-0.547	14.0067
11748	HNCO	793	MPD2	H5	1	0.37	1.0079
11749	NC=O	793	MPD2	N1	1	-0.547	14.0067
11750	HNCO	793	MPD2	H7	1	0.37	1.0079
11751	CB	794	MPD2	C	1	-0.15	12.011
11752	CB	794	MPD2	C1	1	0.117	12.011
11753	CB	794	MPD2	C2	1	-0.15	12.011
11754	CB	794	MPD2	C3	1	0.117	12.011
11755	CB	794	MPD2	C4	1	-0.15	12.011
11756	CB	794	MPD2	C5	1	-0.15	12.011
11757	HCMM	794	MPD2	H	1	0.15	1.0079
11758	HCMM	794	MPD2	H1	1	0.15	1.0079
11759	HCMM	794	MPD2	H2	1	0.15	1.0079
11760	HCMM	794	MPD2	H3	1	0.15	1.0079
11761	NC=O	794	MPD2	N	1	-0.547	14.0067
11762	HNCO	794	MPD2	H5	1	0.37	1.0079
11763	NC=O	794	MPD2	N1	1	-0.547	14.0067
11764	HNCO	794	MPD2	H7	1	0.37	1.0079
11765	CB	795	MPD2	C	1	-0.15	12.011
11766	CB	795	MPD2	C1	1	0.117	12.011
11767	CB	795	MPD2	C2	1	-0.15	12.011
11768	CB	795	MPD2	C3	1	0.117	12.011
11769	CB	795	MPD2	C4	1	-0.15	12.011
11770	CB	795	MPD2	C5	1	-0.15	12.011
11771	HCMM	795	MPD2	H	1	0.15	1.0079
11772	HCMM	795	MPD2	H1	1	0.15	1.0079
11773	HCMM	795	MPD2	H2	1	0.15	1.0079
11774	HCMM	795	MPD2	H3	1	0.15	1.0079
11775	NC=O	795	MPD2	N	1	-0.547	14.0067
11776	HNCO	795	MPD2	H5	1	0.37	1.0079
11777	NC=O	795	MPD2	N1	1	-0.547	14.0067
11778	HNCO	795	MPD2	H7	1	0.37	1.0079
11779	CB	796	MPD2	C	1	-0.15	12.011
11780	CB	796	MPD2	C1	1	0.117	12.011
11781	CB	796	MPD2	C2	1	-0.15	12.011
11782	CB	796	MPD2	C3	1	0.117	12.011
11783	CB	796	MPD2	C4	1	-0.15	12.011
11784	CB	796	MPD2	C5	1	-0.15	12.011
11785	HCMM	796	MPD2	H	1	0.15	1.0079
11786	HCMM	796	MPD2	H1	1	0.15	1.0079
11787	HCMM	796	MPD2	H2	1	0.15	1.0079
11788	HCMM	796	MPD2	H3	1	0.15	1.0079
11789	NC=O	796	MPD2	N	1	-0.547	14.0067
11790	HNCO	796	MPD2	H5	1	0.37	1.0079
11791	NC=O	796	MPD2	N1	1	-0.547	14.0067
11792	HNCO	796	MPD2	H7	1	0.37	1.0079
11793	CB	797	MPD2	C	1	-0.15	12.011
11794	CB	797	MPD2	C1	1	0.117	12.011
11795	CB	797	MPD2	C2	1	-0.15	12.011
11796	CB	797	MPD2	C3	1	0.117	12.011
11797	CB	797	MPD2	C4	1	-0.15	12.011
11798	CB	797	MPD2	C5	1	-0.15	12.011
11799	HCMM	797	MPD2	H	1	0.15	1.0079
11800	HCMM	797	MPD2	H1	1	0.15	1.0079
11801	HCMM	797	MPD2	H2	1	0.15	1.0079
11802	HCMM	797	MPD2	H3	1	0.15	1.0079
11803	NC=O	797	MPD2	N	1	-0.547	14.0067
11804	HNCO	797	MPD2	H5	1	0.37	1.0079
11805	NC=O	797	MPD2	N1	1	-0.547	14.0067
11806	HNCO	797	MPD2	H7	1	0.37	1.0079
11807	CB	798	MPD2	C	1	-0.15	12.011
11808	CB	798	MPD2	C1	1	0.117	12.011
11809	CB	798	MPD2	C2	1	-0.15	12.011
11810	CB	798	MPD2	C3	1	0.117	12.011
11811	CB	798	MPD2	C4	1	-0.15	12.011
11812	CB	798	MPD2	C5	1	-0.15	12.011
11813	HCMM	798	MPD2	H	1	0.15	1.0079
11814	HCMM	798	MPD2	H1	1	0.15	1.0079
11815	HCMM	798	MPD2	H2	1	0.15	1.0079
11816	HCMM	798	MPD2	H3	1	0.15	1.0079
11817	NC=O	798	MPD2	N	1	-0.547	14.0067
11818	HNCO	798	MPD2	H5	1	0.37	1.0079
11819	NC=O	798	MPD2	N1	1	-0.547	14.0067
11820	HNCO	798	MPD2	H7	1	0.37	1.0079
11821	CB	799	MPD2	C	1	-0.15	12.011
11822	CB	799	MPD2	C1	1	0.117	12.011
11823	CB	799	MPD2	C2	1	-0.15	12.011
11824	CB	799	MPD2	C3	1	0.117	12.011
11825	CB	799	MPD2	C4	1	-0.15	12.011
11826	CB	799	MPD2	C5	1	-0.15	12.011
11827	HCMM	799	MPD2	H	1	0.15	1.0079
11828	HCMM	799	MPD2	H1	1	0.15	1.0079
11829	HCMM	799	MPD2	H2	1	0.15	1.0079
11830	HCMM	799	MPD2	H3	1	0.15	1.0079
11831	NC=O	799	MPD2	N	1	-0.547	14.0067
11832	HNCO	799	MPD2	H5	1	0.37	1.0079
11833	NC=O	799	MPD2	N1	1	-0.547	14.0067
11834	HNCO	799	MPD2	H7	1	0.37	1.0079
11835	CB	800	MPD2	C	1	-0.15	12.011
11836	CB	800	MPD2	C1	1	0.117	12.011
11837	CB	800	MPD2	C2	1	-0.15	12.011
11838	CB	800	MPD2	C3	1	0.117	12.011
11839	CB	800	MPD2	C4	1	-0.15	12.011
11840	CB	800	MPD2	C5	1	-0.15	12.011
11841	HCMM	800	MPD2	H	1	0.15	1.0079
11842	HCMM	800	MPD2	H1	1	0.15	1.0079
11843	HCMM	800	MPD2	H2	1	0.15	1.0079
11844	HCMM	800	MPD2	H3	1	0.15	1.0079
11845	NC=O	800	MPD2	N	1	-0.547	14.0067
11846	HNCO	800	MPD2	H5	1	0.37	1.0079
11847	NC=O	800	MPD2	N1	1	-0.547	14.0067
11848	HNCO	800	MPD2	H7	1	0.37	1.0079
11849	CB	801	MPD2	C	1	-0.15	12.011
11850	CB	801	MPD2	C1	1	0.117	12.011
11851	CB	801	MPD2	C2	1	-0.15	12.011
11852	CB	801	MPD2	C3	1	0.117	12.011
11853	CB	801	MPD2	C4	1	-0.15	12.011
11854	CB	801	MPD2	C5	1	-0.15	12.011
11855	HCMM	801	MPD2	H	1	0.15	1.0079
11856	HCMM	801	MPD2	H1	1	0.15	1.0079
11857	HCMM	801	MPD2	H2	1	0.15	1.0079
11858	HCMM	801	MPD2	H3	1	0.15	1.0079
11859	NC=O	801	MPD2	N	1	-0.547	14.0067
11860	HNCO	801	MPD2	H5	1	0.37	1.0079
11861	NC=O	801	MPD2	N1	1	-0.547	14.0067
11862	HNCO	801	MPD2	H7	1	0.37	1.0079
11863	CB	802	MPD2	C	1	-0.15	12.011
11864	CB	802	MPD2	C1	1	0.117	12.011
11865	CB	802	MPD2	C2	1	-0.15	12.011
11866	CB	802	MPD2	C3	1	0.117	12.011
11867	CB	802	MPD2	C4	1	-0.15	12.011
11868	CB	802	MPD2	C5	1	-0.15	12.011
11869	HCMM	802	MPD2	H	1	0.15	1.0079
11870	HCMM	802	MPD2	H1	1	0.15	1.0079
11871	HCMM	802	MPD2	H2	1	0.15	1.0079
11872	HCMM	802	MPD2	H3	1	0.15	1.0079
11873	NC=O	802	MPD2	N	1	-0.547	14.0067
11874	HNCO	802	MPD2	H5	1	0.37	1.0079
11875	NC=O	802	MPD2	N1	1	-0.547	14.0067
11876	HNCO	802	MPD2	H7	1	0.37	1.0079
11877	CB	803	MPD2	C	1	-0.15	12.011
11878	CB	803	MPD2	C1	1	0.117	12.011
11879	CB	803	MPD2	C2	1	-0.15	12.011
11880	CB	803	MPD2	C3	1	0.117	12.011
11881	CB	803	MPD2	C4	1	-0.15	12.011
11882	CB	803	MPD2	C5	1	-0.15	12.011
11883	HCMM	803	MPD2	H	1	0.15	1.0079
11884	HCMM	803	MPD2	H1	1	0.15	1.0079
11885	HCMM	803	MPD2	H2	1	0.15	1.0079
11886	HCMM	803	MPD2	H3	1	0.15	1.0079
11887	NC=O	803	MPD2	N	1	-0.547	14.0067
11888	HNCO	803	MPD2	H5	1	0.37	1.0079
11889	NC=O	803	MPD2	N1	1	-0.547	14.0067
11890	HNCO	803	MPD2	H7	1	0.37	1.0079
11891	CB	804	MPD2	C	1	-0.15	12.011
11892	CB	804	MPD2	C1	1	0.117	12.011
11893	CB	804	MPD2	C2	1	-0.15	12.011
11894	CB	804	MPD2	C3	1	0.117	12.011
11895	CB	804	MPD2	C4	1	-0.15	12.011
11896	CB	804	MPD2	C5	1	-0.15	12.011
11897	HCMM	804	MPD2	H	1	0.15	1.0079
11898	HCMM	804	MPD2	H1	1	0.15	1.0079
11899	HCMM	804	MPD2	H2	1	0.15	1.0079
11900	HCMM	804	MPD2	H3	1	0.15	1.0079
11901	NC=O	804	MPD2	N	1	-0.547	14.0067
11902	HNCO	804	MPD2	H5	1	0.37	1.0079
11903	NC=O	804	MPD2	N1	1	-0.547	14.0067
11904	HNCO	804	MPD2	H7	1	0.37	1.0079
11905	CB	805	MPD2	C	1	-0.15	12.011
11906	CB	805	MPD2	C1	1	0.117	12.011
11907	CB	805	MPD2	C2	1	-0.15	12.011
11908	CB	805	MPD2	C3	1	0.117	12.011
11909	CB	805	MPD2	C4	1	-0.15	12.011
11910	CB	805	MPD2	C5	1	-0.15	12.011
11911	HCMM	805	MPD2	H	1	0.15	1.0079
11912	HCMM	805	MPD2	H1	1	0.15	1.0079
11913	HCMM	805	MPD2	H2	1	0.15	1.0079
11914	HCMM	805	MPD2	H3	1	0.15	1.0079
11915	NC=O	805	MPD2	N	1	-0.547	14.0067
11916	HNCO	805	MPD2	H5	1	0.37	1.0079
11917	NC=O	805	MPD2	N1	1	-0.547	14.0067
11918	HNCO	805	MPD2	H7	1	0.37	1.0079
11919	CB	806	MPD2	C	1	-0.15	12.011
11920	CB	806	MPD2	C1	1	0.117	12.011
11921	CB	806	MPD2	C2	1	-0.15	12.011
11922	CB	806	MPD2	C3	1	0.117	12.011
11923	CB	806	MPD2	C4	1	-0.15	12.011
11924	CB	806	MPD2	C5	1	-0.15	12.011
11925	HCMM	806	MPD2	H	1	0.15	1.0079
11926	HCMM	806	MPD2	H1	1	0.15	1.0079
11927	HCMM	806	MPD2	H2	1	0.15	1.0079
11928	HCMM	806	MPD2	H3	1	0.15	1.0079
11929	NC=O	806	MPD2	N	1	-0.547	14.0067
11930	HNCO	806	MPD2	H5	1	0.37	1.0079
11931	NC=O	806	MPD2	N1	1	-0.547	14.0067
11932	HNCO	806	MPD2	H7	1	0.37	1.0079
11933	CB	807	MPD2	C	1	-0.15	12.011
11934	CB	807	MPD2	C1	1	0.117	12.011
11935	CB	807	MPD2	C2	1	-0.15	12.011
11936	CB	807	MPD2	C3	1	0.117	12.011
11937	CB	807	MPD2	C4	1	-0.15	12.011
11938	CB	807	MPD2	C5	1	-0.15	12.011
11939	HCMM	807	MPD2	H	1	0.15	1.0079
11940	HCMM	807	MPD2	H1	1	0.15	1.0079
11941	HCMM	807	MPD2	H2	1	0.15	1.0079
11942	HCMM	807	MPD2	H3	1	0.15	1.0079
11943	NC=O	807	MPD2	N	1	-0.547	14.0067
11944	HNCO	807	MPD2	H5	1	0.37	1.0079
11945	NC=O	807	MPD2	N1	1	-0.547	14.0067
11946	HNCO	807	MPD2	H7	1	0.37	1.0079
11947	CB	808	MPD2	C	1	-0.15	12.011
11948	CB	808	MPD2	C1	1	0.117	12.011
11949	CB	808	MPD2	C2	1	-0.15	12.011
11950	CB	808	MPD2	C3	1	0.117	12.011
11951	CB	808	MPD2	C4	1	-0.15	12.011
11952	CB	808	MPD2	C5	1	-0.15	12.011
11953	HCMM	808	MPD2	H	1	0.15	1.0079
11954	HCMM	808	MPD2	H1	1	0.15	1.0079
11955	HCMM	808	MPD2	H2	1	0.15	1.0079
11956	HCMM	808	MPD2	H3	1	0.15	1.0079
11957	NC=O	808	MPD2	N	1	-0.547	14.0067
11958	HNCO	808	MPD2	H5	1	0.37	1.0079
11959	NC=O	808	MPD2	N1	1	-0.547	14.0067
11960	HNCO	808	MPD2	H7	1	0.37	1.0079
11961	CB	809	MPD2	C	1	-0.15	12.011
11962	CB	809	MPD2	C1	1	0.117	12.011
11963	CB	809	MPD2	C2	1	-0.15	12.011
11964	CB	809	MPD2	C3	1	0.117	12.011
11965	CB	809	MPD2	C4	1	-0.15	12.011
11966	CB	809	MPD2	C5	1	-0.15	12.011
11967	HCMM	809	MPD2	H	1	0.15	1.0079
11968	HCMM	809	MPD2	H1	1	0.15	1.0079
11969	HCMM	809	MPD2	H2	1	0.15	1.0079
11970	HCMM	809	MPD2	H3	1	0.15	1.0079
11971	NC=O	809	MPD2	N	1	-0.547	14.0067
11972	HNCO	809	MPD2	H5	1	0.37	1.0079
11973	NC=O	809	MPD2	N1	1	-0.547	14.0067
11974	HNCO	809	MPD2	H7	1	0.37	1.0079
11975	CB	810	MPD2	C	1	-0.15	12.011
11976	CB	810	MPD2	C1	1	0.117	12.011
11977	CB	810	MPD2	C2	1	-0.15	12.011
11978	CB	810	MPD2	C3	1	0.117	12.011
11979	CB	810	MPD2	C4	1	-0.15	12.011
11980	CB	810	MPD2	C5	1	-0.15	12.011
11981	HCMM	810	MPD2	H	1	0.15	1.0079
11982	HCMM	810	MPD2	H1	1	0.15	1.0079
11983	HCMM	810	MPD2	H2	1	0.15	1.0079
11984	HCMM	810	MPD2	H3	1	0.15	1.0079
11985	NC=O	810	MPD2	N	1	-0.547	14.0067
11986	HNCO	810	MPD2	H5	1	0.37	1.0079
11987	NC=O	810	MPD2	N1	1	-0.547	14.0067
11988	HNCO	810	MPD2	H7	1	0.37	1.0079
11989	CB	811	MPD2	C	1	-0.15	12.011
11990	CB	811	MPD2	C1	1	0.117	12.011
11991	CB	811	MPD2	C2	1	-0.15	12.011
11992	CB	811	MPD2	C3	1	0.117	12.011
11993	CB	811	MPD2	C4	1	-0.15	12.011
11994	CB	811	MPD2	C5	1	-0.15	12.011
11995	HCMM	811	MPD2	H	1	0.15	1.0079
11996	HCMM	811	MPD2	H1	1	0.15	1.0079
11997	HCMM	811	MPD2	H2	1	0.15	1.0079
11998	HCMM	811	MPD2	H3	1	0.15	1.0079
11999	NC=O	811	MPD2	N	1	-0.547	14.0067
12000	HNCO	811	MPD2	H5	1	0.37	1.0079
12001	NC=O	811	MPD2	N1	1	-0.547	14.0067
12002	HNCO	811	MPD2	H7	1	0.37	1.0079
12003	CB	812	MPD2	C	1	-0.15	12.011
12004	CB	812	MPD2	C1	1	0.117	12.011
12005	CB	812	MPD2	C2	1	-0.15	12.011
12006	CB	812	MPD2	C3	1	0.117	12.011
12007	CB	812	MPD2	C4	1	-0.15	12.011
12008	CB	812	MPD2	C5	1	-0.15	12.011
12009	HCMM	812	MPD2	H	1	0.15	1.0079
12010	HCMM	812	MPD2	H1	1	0.15	1.0079
12011	HCMM	812	MPD2	H2	1	0.15	1.0079
12012	HCMM	812	MPD2	H3	1	0.15	1.0079
12013	NC=O	812	MPD2	N	1	-0.547	14.0067
12014	HNCO	812	MPD2	H5	1	0.37	1.0079
12015	NC=O	812	MPD2	N1	1	-0.547	14.0067
12016	HNCO	812	MPD2	H7	1	0.37	1.0079
12017	CB	813	MPD2	C	1	-0.15	12.011
12018	CB	813	MPD2	C1	1	0.117	12.011
12019	CB	813	MPD2	C2	1	-0.15	12.011
12020	CB	813	MPD2	C3	1	0.117	12.011
12021	CB	813	MPD2	C4	1	-0.15	12.011
12022	CB	813	MPD2	C5	1	-0.15	12.011
12023	HCMM	813	MPD2	H	1	0.15	1.0079
12024	HCMM	813	MPD2	H1	1	0.15	1.0079
12025	HCMM	813	MPD2	H2	1	0.15	1.0079
12026	HCMM	813	MPD2	H3	1	0.15	1.0079
12027	NC=O	813	MPD2	N	1	-0.547	14.0067
12028	HNCO	813	MPD2	H5	1	0.37	1.0079
12029	NC=O	813	MPD2	N1	1	-0.547	14.0067
12030	HNCO	813	MPD2	H7	1	0.37	1.0079
12031	CB	814	MPD2	C	1	-0.15	12.011
12032	CB	814	MPD2	C1	1	0.117	12.011
12033	CB	814	MPD2	C2	1	-0.15	12.011
12034	CB	814	MPD2	C3	1	0.117	12.011
12035	CB	814	MPD2	C4	1	-0.15	12.011
12036	CB	814	MPD2	C5	1	-0.15	12.011
12037	HCMM	814	MPD2	H	1	0.15	1.0079
12038	HCMM	814	MPD2	H1	1	0.15	1.0079
12039	HCMM	814	MPD2	H2	1	0.15	1.0079
12040	HCMM	814	MPD2	H3	1	0.15	1.0079
12041	NC=O	814	MPD2	N	1	-0.547	14.0067
12042	HNCO	814	MPD2	H5	1	0.37	1.0079
12043	NC=O	814	MPD2	N1	1	-0.547	14.0067
12044	HNCO	814	MPD2	H7	1	0.37	1.0079
12045	CB	815	MPD2	C	1	-0.15	12.011
12046	CB	815	MPD2	C1	1	0.117	12.011
12047	CB	815	MPD2	C2	1	-0.15	12.011
12048	CB	815	MPD2	C3	1	0.117	12.011
12049	CB	815	MPD2	C4	1	-0.15	12.011
12050	CB	815	MPD2	C5	1	-0.15	12.011
12051	HCMM	815	MPD2	H	1	0.15	1.0079
12052	HCMM	815	MPD2	H1	1	0.15	1.0079
12053	HCMM	815	MPD2	H2	1	0.15	1.0079
12054	HCMM	815	MPD2	H3	1	0.15	1.0079
12055	NC=O	815	MPD2	N	1	-0.547	14.0067
12056	HNCO	815	MPD2	H5	1	0.37	1.0079
12057	NC=O	815	MPD2	N1	1	-0.547	14.0067
12058	HNCO	815	MPD2	H7	1	0.37	1.0079
12059	CB	816	MPD2	C	1	-0.15	12.011
12060	CB	816	MPD2	C1	1	0.117	12.011
12061	CB	816	MPD2	C2	1	-0.15	12.011
12062	CB	816	MPD2	C3	1	0.117	12.011
12063	CB	816	MPD2	C4	1	-0.15	12.011
12064	CB	816	MPD2	C5	1	-0.15	12.011
12065	HCMM	816	MPD2	H	1	0.15	1.0079
12066	HCMM	816	MPD2	H1	1	0.15	1.0079
12067	HCMM	816	MPD2	H2	1	0.15	1.0079
12068	HCMM	816	MPD2	H3	1	0.15	1.0079
12069	NC=O	816	MPD2	N	1	-0.547	14.0067
12070	HNCO	816	MPD2	H5	1	0.37	1.0079
12071	NC=O	816	MPD2	N1	1	-0.547	14.0067
12072	HNCO	816	MPD2	H7	1	0.37	1.0079
12073	CB	817	MPD2	C	1	-0.15	12.011
12074	CB	817	MPD2	C1	1	0.117	12.011
12075	CB	817	MPD2	C2	1	-0.15	12.011
12076	CB	817	MPD2	C3	1	0.117	12.011
12077	CB	817	MPD2	C4	1	-0.15	12.011
12078	CB	817	MPD2	C5	1	-0.15	12.011
12079	HCMM	817	MPD2	H	1	0.15	1.0079
12080	HCMM	817	MPD2	H1	1	0.15	1.0079
12081	HCMM	817	MPD2	H2	1	0.15	1.0079
12082	HCMM	817	MPD2	H3	1	0.15	1.0079
12083	NC=O	817	MPD2	N	1	-0.547	14.0067
12084	HNCO	817	MPD2	H5	1	0.37	1.0079
12085	NC=O	817	MPD2	N1	1	-0.547	14.0067
12086	HNCO	817	MPD2	H7	1	0.37	1.0079
12087	CB	818	MPD2	C	1	-0.15	12.011
12088	CB	818	MPD2	C1	1	0.117	12.011
12089	CB	818	MPD2	C2	1	-0.15	12.011
12090	CB	818	MPD2	C3	1	0.117	12.011
12091	CB	818	MPD2	C4	1	-0.15	12.011
12092	CB	818	MPD2	C5	1	-0.15	12.011
12093	HCMM	818	MPD2	H	1	0.15	1.0079
12094	HCMM	818	MPD2	H1	1	0.15	1.0079
12095	HCMM	818	MPD2	H2	1	0.15	1.0079
12096	HCMM	818	MPD2	H3	1	0.15	1.0079
12097	NC=O	818	MPD2	N	1	-0.547	14.0067
12098	HNCO	818	MPD2	H5	1	0.37	1.0079
12099	NC=O	818	MPD2	N1	1	-0.547	14.0067
12100	HNCO	818	MPD2	H7	1	0.37	1.0079
12101	CB	819	MPD2	C	1	-0.15	12.011
12102	CB	819	MPD2	C1	1	0.117	12.011
12103	CB	819	MPD2	C2	1	-0.15	12.011
12104	CB	819	MPD2	C3	1	0.117	12.011
12105	CB	819	MPD2	C4	1	-0.15	12.011
12106	CB	819	MPD2	C5	1	-0.15	12.011
12107	HCMM	819	MPD2	H	1	0.15	1.0079
12108	HCMM	819	MPD2	H1	1	0.15	1.0079
12109	HCMM	819	MPD2	H2	1	0.15	1.0079
12110	HCMM	819	MPD2	H3	1	0.15	1.0079
12111	NC=O	819	MPD2	N	1	-0.547	14.0067
12112	HNCO	819	MPD2	H5	1	0.37	1.0079
12113	NC=O	819	MPD2	N1	1	-0.547	14.0067
12114	HNCO	819	MPD2	H7	1	0.37	1.0079
12115	CB	820	MPD2	C	1	-0.15	12.011
12116	CB	820	MPD2	C1	1	0.117	12.011
12117	CB	820	MPD2	C2	1	-0.15	12.011
12118	CB	820	MPD2	C3	1	0.117	12.011
12119	CB	820	MPD2	C4	1	-0.15	12.011
12120	CB	820	MPD2	C5	1	-0.15	12.011
12121	HCMM	820	MPD2	H	1	0.15	1.0079
12122	HCMM	820	MPD2	H1	1	0.15	1.0079
12123	HCMM	820	MPD2	H2	1	0.15	1.0079
12124	HCMM	820	MPD2	H3	1	0.15	1.0079
12125	NC=O	820	MPD2	N	1	-0.547	14.0067
12126	HNCO	820	MPD2	H5	1	0.37	1.0079
12127	NC=O	820	MPD2	N1	1	-0.547	14.0067
12128	HNCO	820	MPD2	H7	1	0.37	1.0079
12129	CB	821	MPD2	C	1	-0.15	12.011
12130	CB	821	MPD2	C1	1	0.117	12.011
12131	CB	821	MPD2	C2	1	-0.15	12.011
12132	CB	821	MPD2	C3	1	0.117	12.011
12133	CB	821	MPD2	C4	1	-0.15	12.011
12134	CB	821	MPD2	C5	1	-0.15	12.011
12135	HCMM	821	MPD2	H	1	0.15	1.0079
12136	HCMM	821	MPD2	H1	1	0.15	1.0079
12137	HCMM	821	MPD2	H2	1	0.15	1.0079
12138	HCMM	821	MPD2	H3	1	0.15	1.0079
12139	NC=O	821	MPD2	N	1	-0.547	14.0067
12140	HNCO	821	MPD2	H5	1	0.37	1.0079
12141	NC=O	821	MPD2	N1	1	-0.547	14.0067
12142	HNCO	821	MPD2	H7	1	0.37	1.0079
12143	CB	822	MPD2	C	1	-0.15	12.011
12144	CB	822	MPD2	C1	1	0.117	12.011
12145	CB	822	MPD2	C2	1	-0.15	12.011
12146	CB	822	MPD2	C3	1	0.117	12.011
12147	CB	822	MPD2	C4	1	-0.15	12.011
12148	CB	822	MPD2	C5	1	-0.15	12.011
12149	HCMM	822	MPD2	H	1	0.15	1.0079
12150	HCMM	822	MPD2	H1	1	0.15	1.0079
12151	HCMM	822	MPD2	H2	1	0.15	1.0079
12152	HCMM	822	MPD2	H3	1	0.15	1.0079
12153	NC=O	822	MPD2	N	1	-0.547	14.0067
12154	HNCO	822	MPD2	H5	1	0.37	1.0079
12155	NC=O	822	MPD2	N1	1	-0.547	14.0067
12156	HNCO	822	MPD2	H7	1	0.37	1.0079
12157	CB	823	MPD2	C	1	-0.15	12.011
12158	CB	823	MPD2	C1	1	0.117	12.011
12159	CB	823	MPD2	C2	1	-0.15	12.011
12160	CB	823	MPD2	C3	1	0.117	12.011
12161	CB	823	MPD2	C4	1	-0.15	12.011
12162	CB	823	MPD2	C5	1	-0.15	12.011
12163	HCMM	823	MPD2	H	1	0.15	1.0079
12164	HCMM	823	MPD2	H1	1	0.15	1.0079
12165	HCMM	823	MPD2	H2	1	0.15	1.0079
12166	HCMM	823	MPD2	H3	1	0.15	1.0079
12167	NC=O	823	MPD2	N	1	-0.547	14.0067
12168	HNCO	823	MPD2	H5	1	0.37	1.0079
12169	NC=O	823	MPD2	N1	1	-0.547	14.0067
12170	HNCO	823	MPD2	H7	1	0.37	1.0079
12171	CB	824	MPD2	C	1	-0.15	12.011
12172	CB	824	MPD2	C1	1	0.117	12.011
12173	CB	824	MPD2	C2	1	-0.15	12.011
12174	CB	824	MPD2	C3	1	0.117	12.011
12175	CB	824	MPD2	C4	1	-0.15	12.011
12176	CB	824	MPD2	C5	1	-0.15	12.011
12177	HCMM	824	MPD2	H	1	0.15	1.0079
12178	HCMM	824	MPD2	H1	1	0.15	1.0079
12179	HCMM	824	MPD2	H2	1	0.15	1.0079
12180	HCMM	824	MPD2	H3	1	0.15	1.0079
12181	NC=O	824	MPD2	N	1	-0.547	14.0067
12182	HNCO	824	MPD2	H5	1	0.37	1.0079
12183	NC=O	824	MPD2	N1	1	-0.547	14.0067
12184	HNCO	824	MPD2	H7	1	0.37	1.0079
12185	CB	825	MPD2	C	1	-0.15	12.011
12186	CB	825	MPD2	C1	1	0.117	12.011
12187	CB	825	MPD2	C2	1	-0.15	12.011
12188	CB	825	MPD2	C3	1	0.117	12.011
12189	CB	825	MPD2	C4	1	-0.15	12.011
12190	CB	825	MPD2	C5	1	-0.15	12.011
12191	HCMM	825	MPD2	H	1	0.15	1.0079
12192	HCMM	825	MPD2	H1	1	0.15	1.0079
12193	HCMM	825	MPD2	H2	1	0.15	1.0079
12194	HCMM	825	MPD2	H3	1	0.15	1.0079
12195	NC=O	825	MPD2	N	1	-0.547	14.0067
12196	HNCO	825	MPD2	H5	1	0.37	1.0079
12197	NC=O	825	MPD2	N1	1	-0.547	14.0067
12198	HNCO	825	MPD2	H7	1	0.37	1.0079
12199	CB	826	MPD2	C	1	-0.15	12.011
12200	CB	826	MPD2	C1	1	0.117	12.011
12201	CB	826	MPD2	C2	1	-0.15	12.011
12202	CB	826	MPD2	C3	1	0.117	12.011
12203	CB	826	MPD2	C4	1	-0.15	12.011
12204	CB	826	MPD2	C5	1	-0.15	12.011
12205	HCMM	826	MPD2	H	1	0.15	1.0079
12206	HCMM	826	MPD2	H1	1	0.15	1.0079
12207	HCMM	826	MPD2	H2	1	0.15	1.0079
12208	HCMM	826	MPD2	H3	1	0.15	1.0079
12209	NC=O	826	MPD2	N	1	-0.547	14.0067
12210	HNCO	826	MPD2	H5	1	0.37	1.0079
12211	NC=O	826	MPD2	N1	1	-0.547	14.0067
12212	HNCO	826	MPD2	H7	1	0.37	1.0079
12213	CB	827	MPD2	C	1	-0.15	12.011
12214	CB	827	MPD2	C1	1	0.117	12.011
12215	CB	827	MPD2	C2	1	-0.15	12.011
12216	CB	827	MPD2	C3	1	0.117	12.011
12217	CB	827	MPD2	C4	1	-0.15	12.011
12218	CB	827	MPD2	C5	1	-0.15	12.011
12219	HCMM	827	MPD2	H	1	0.15	1.0079
12220	HCMM	827	MPD2	H1	1	0.15	1.0079
12221	HCMM	827	MPD2	H2	1	0.15	1.0079
12222	HCMM	827	MPD2	H3	1	0.15	1.0079
12223	NC=O	827	MPD2	N	1	-0.547	14.0067
12224	HNCO	827	MPD2	H5	1	0.37	1.0079
12225	NC=O	827	MPD2	N1	1	-0.547	14.0067
12226	HNCO	827	MPD2	H7	1	0.37	1.0079
12227	CB	828	MPD2	C	1	-0.15	12.011
12228	CB	828	MPD2	C1	1	0.117	12.011
12229	CB	828	MPD2	C2	1	-0.15	12.011
12230	CB	828	MPD2	C3	1	0.117	12.011
12231	CB	828	MPD2	C4	1	-0.15	12.011
12232	CB	828	MPD2	C5	1	-0.15	12.011
12233	HCMM	828	MPD2	H	1	0.15	1.0079
12234	HCMM	828	MPD2	H1	1	0.15	1.0079
12235	HCMM	828	MPD2	H2	1	0.15	1.0079
12236	HCMM	828	MPD2	H3	1	0.15	1.0079
12237	NC=O	828	MPD2	N	1	-0.547	14.0067
12238	HNCO	828	MPD2	H5	1	0.37	1.0079
12239	NC=O	828	MPD2	N1	1	-0.547	14.0067
12240	HNCO	828	MPD2	H7	1	0.37	1.0079
12241	CB	829	MPD2	C	1	-0.15	12.011
12242	CB	829	MPD2	C1	1	0.117	12.011
12243	CB	829	MPD2	C2	1	-0.15	12.011
12244	CB	829	MPD2	C3	1	0.117	12.011
12245	CB	829	MPD2	C4	1	-0.15	12.011
12246	CB	829	MPD2	C5	1	-0.15	12.011
12247	HCMM	829	MPD2	H	1	0.15	1.0079
12248	HCMM	829	MPD2	H1	1	0.15	1.0079
12249	HCMM	829	MPD2	H2	1	0.15	1.0079
12250	HCMM	829	MPD2	H3	1	0.15	1.0079
12251	NC=O	829	MPD2	N	1	-0.547	14.0067
12252	HNCO	829	MPD2	H5	1	0.37	1.0079
12253	NC=O	829	MPD2	N1	1	-0.547	14.0067
12254	HNCO	829	MPD2	H7	1	0.37	1.0079
12255	CB	830	MPD2	C	1	-0.15	12.011
12256	CB	830	MPD2	C1	1	0.117	12.011
12257	CB	830	MPD2	C2	1	-0.15	12.011
12258	CB	830	MPD2	C3	1	0.117	12.011
12259	CB	830	MPD2	C4	1	-0.15	12.011
12260	CB	830	MPD2	C5	1	-0.15	12.011
12261	HCMM	830	MPD2	H	1	0.15	1.0079
12262	HCMM	830	MPD2	H1	1	0.15	1.0079
12263	HCMM	830	MPD2	H2	1	0.15	1.0079
12264	HCMM	830	MPD2	H3	1	0.15	1.0079
12265	NC=O	830	MPD2	N	1	-0.547	14.0067
12266	HNCO	830	MPD2	H5	1	0.37	1.0079
12267	NC=O	830	MPD2	N1	1	-0.547	14.0067
12268	HNCO	830	MPD2	H7	1	0.37	1.0079
12269	CB	831	MPD2	C	1	-0.15	12.011
12270	CB	831	MPD2	C1	1	0.117	12.011
12271	CB	831	MPD2	C2	1	-0.15	12.011
12272	CB	831	MPD2	C3	1	0.117	12.011
12273	CB	831	MPD2	C4	1	-0.15	12.011
12274	CB	831	MPD2	C5	1	-0.15	12.011
12275	HCMM	831	MPD2	H	1	0.15	1.0079
12276	HCMM	831	MPD2	H1	1	0.15	1.0079
12277	HCMM	831	MPD2	H2	1	0.15	1.0079
12278	HCMM	831	MPD2	H3	1	0.15	1.0079
12279	NC=O	831	MPD2	N	1	-0.547	14.0067
12280	HNCO	831	MPD2	H5	1	0.37	1.0079
12281	NC=O	831	MPD2	N1	1	-0.547	14.0067
12282	HNCO	831	MPD2	H7	1	0.37	1.0079
12283	CB	832	MPD2	C	1	-0.15	12.011
12284	CB	832	MPD2	C1	1	0.117	12.011
12285	CB	832	MPD2	C2	1	-0.15	12.011
12286	CB	832	MPD2	C3	1	0.117	12.011
12287	CB	832	MPD2	C4	1	-0.15	12.011
12288	CB	832	MPD2	C5	1	-0.15	12.011
12289	HCMM	832	MPD2	H	1	0.15	1.0079
12290	HCMM	832	MPD2	H1	1	0.15	1.0079
12291	HCMM	832	MPD2	H2	1	0.15	1.0079
12292	HCMM	832	MPD2	H3	1	0.15	1.0079
12293	NC=O	832	MPD2	N	1	-0.547	14.0067
12294	HNCO	832	MPD2	H5	1	0.37	1.0079
12295	NC=O	832	MPD2	N1	1	-0.547	14.0067
12296	HNCO	832	MPD2	H7	1	0.37	1.0079
12297	CB	833	MPD2	C	1	-0.15	12.011
12298	CB	833	MPD2	C1	1	0.117	12.011
12299	CB	833	MPD2	C2	1	-0.15	12.011
12300	CB	833	MPD2	C3	1	0.117	12.011
12301	CB	833	MPD2	C4	1	-0.15	12.011
12302	CB	833	MPD2	C5	1	-0.15	12.011
12303	HCMM	833	MPD2	H	1	0.15	1.0079
12304	HCMM	833	MPD2	H1	1	0.15	1.0079
12305	HCMM	833	MPD2	H2	1	0.15	1.0079
12306	HCMM	833	MPD2	H3	1	0.15	1.0079
12307	NC=O	833	MPD2	N	1	-0.547	14.0067
12308	HNCO	833	MPD2	H5	1	0.37	1.0079
12309	NC=O	833	MPD2	N1	1	-0.547	14.0067
12310	HNCO	833	MPD2	H7	1	0.37	1.0079
12311	CB	834	MPD2	C	1	-0.15	12.011
12312	CB	834	MPD2	C1	1	0.117	12.011
12313	CB	834	MPD2	C2	1	-0.15	12.011
12314	CB	834	MPD2	C3	1	0.117	12.011
12315	CB	834	MPD2	C4	1	-0.15	12.011
12316	CB	834	MPD2	C5	1	-0.15	12.011
12317	HCMM	834	MPD2	H	1	0.15	1.0079
12318	HCMM	834	MPD2	H1	1	0.15	1.0079
12319	HCMM	834	MPD2	H2	1	0.15	1.0079
12320	HCMM	834	MPD2	H3	1	0.15	1.0079
12321	NC=O	834	MPD2	N	1	-0.547	14.0067
12322	HNCO	834	MPD2	H5	1	0.37	1.0079
12323	NC=O	834	MPD2	N1	1	-0.547	14.0067
12324	HNCO	834	MPD2	H7	1	0.37	1.0079
12325	CB	835	MPD2	C	1	-0.15	12.011
12326	CB	835	MPD2	C1	1	0.117	12.011
12327	CB	835	MPD2	C2	1	-0.15	12.011
12328	CB	835	MPD2	C3	1	0.117	12.011
12329	CB	835	MPD2	C4	1	-0.15	12.011
12330	CB	835	MPD2	C5	1	-0.15	12.011
12331	HCMM	835	MPD2	H	1	0.15	1.0079
12332	HCMM	835	MPD2	H1	1	0.15	1.0079
12333	HCMM	835	MPD2	H2	1	0.15	1.0079
12334	HCMM	835	MPD2	H3	1	0.15	1.0079
12335	NC=O	835	MPD2	N	1	-0.547	14.0067
12336	HNCO	835	MPD2	H5	1	0.37	1.0079
12337	NC=O	835	MPD2	N1	1	-0.547	14.0067
12338	HNCO	835	MPD2	H7	1	0.37	1.0079
12339	CB	836	MPD2	C	1	-0.15	12.011
12340	CB	836	MPD2	C1	1	0.117	12.011
12341	CB	836	MPD2	C2	1	-0.15	12.011
12342	CB	836	MPD2	C3	1	0.117	12.011
12343	CB	836	MPD2	C4	1	-0.15	12.011
12344	CB	836	MPD2	C5	1	-0.15	12.011
12345	HCMM	836	MPD2	H	1	0.15	1.0079
12346	HCMM	836	MPD2	H1	1	0.15	1.0079
12347	HCMM	836	MPD2	H2	1	0.15	1.0079
12348	HCMM	836	MPD2	H3	1	0.15	1.0079
12349	NC=O	836	MPD2	N	1	-0.547	14.0067
12350	HNCO	836	MPD2	H5	1	0.37	1.0079
12351	NC=O	836	MPD2	N1	1	-0.547	14.0067
12352	HNCO	836	MPD2	H7	1	0.37	1.0079
12353	CB	837	MPD2	C	1	-0.15	12.011
12354	CB	837	MPD2	C1	1	0.117	12.011
12355	CB	837	MPD2	C2	1	-0.15	12.011
12356	CB	837	MPD2	C3	1	0.117	12.011
12357	CB	837	MPD2	C4	1	-0.15	12.011
12358	CB	837	MPD2	C5	1	-0.15	12.011
12359	HCMM	837	MPD2	H	1	0.15	1.0079
12360	HCMM	837	MPD2	H1	1	0.15	1.0079
12361	HCMM	837	MPD2	H2	1	0.15	1.0079
12362	HCMM	837	MPD2	H3	1	0.15	1.0079
12363	NC=O	837	MPD2	N	1	-0.547	14.0067
12364	HNCO	837	MPD2	H5	1	0.37	1.0079
12365	NC=O	837	MPD2	N1	1	-0.547	14.0067
12366	HNCO	837	MPD2	H7	1	0.37	1.0079
12367	CB	838	MPD2	C	1	-0.15	12.011
12368	CB	838	MPD2	C1	1	0.117	12.011
12369	CB	838	MPD2	C2	1	-0.15	12.011
12370	CB	838	MPD2	C3	1	0.117	12.011
12371	CB	838	MPD2	C4	1	-0.15	12.011
12372	CB	838	MPD2	C5	1	-0.15	12.011
12373	HCMM	838	MPD2	H	1	0.15	1.0079
12374	HCMM	838	MPD2	H1	1	0.15	1.0079
12375	HCMM	838	MPD2	H2	1	0.15	1.0079
12376	HCMM	838	MPD2	H3	1	0.15	1.0079
12377	NC=O	838	MPD2	N	1	-0.547	14.0067
12378	HNCO	838	MPD2	H5	1	0.37	1.0079
12379	NC=O	838	MPD2	N1	1	-0.547	14.0067
12380	HNCO	838	MPD2	H7	1	0.37	1.0079
12381	CB	839	MPD2	C	1	-0.15	12.011
12382	CB	839	MPD2	C1	1	0.117	12.011
12383	CB	839	MPD2	C2	1	-0.15	12.011
12384	CB	839	MPD2	C3	1	0.117	12.011
12385	CB	839	MPD2	C4	1	-0.15	12.011
12386	CB	839	MPD2	C5	1	-0.15	12.011
12387	HCMM	839	MPD2	H	1	0.15	1.0079
12388	HCMM	839	MPD2	H1	1	0.15	1.0079
12389	HCMM	839	MPD2	H2	1	0.15	1.0079
12390	HCMM	839	MPD2	H3	1	0.15	1.0079
12391	NC=O	839	MPD2	N	1	-0.547	14.0067
12392	HNCO	839	MPD2	H5	1	0.37	1.0079
12393	NC=O	839	MPD2	N1	1	-0.547	14.0067
12394	HNCO	839	MPD2	H7	1	0.37	1.0079
12395	CB	840	MPD2	C	1	-0.15	12.011
12396	CB	840	MPD2	C1	1	0.117	12.011
12397	CB	840	MPD2	C2	1	-0.15	12.011
12398	CB	840	MPD2	C3	1	0.117	12.011
12399	CB	840	MPD2	C4	1	-0.15	12.011
12400	CB	840	MPD2	C5	1	-0.15	12.011
12401	HCMM	840	MPD2	H	1	0.15	1.0079
12402	HCMM	840	MPD2	H1	1	0.15	1.0079
12403	HCMM	840	MPD2	H2	1	0.15	1.0079
12404	HCMM	840	MPD2	H3	1	0.15	1.0079
12405	NC=O	840	MPD2	N	1	-0.547	14.0067
12406	HNCO	840	MPD2	H5	1	0.37	1.0079
12407	NC=O	840	MPD2	N1	1	-0.547	14.0067
12408	HNCO	840	MPD2	H7	1	0.37	1.0079
12409	CB	841	MPD2	C	1	-0.15	12.011
12410	CB	841	MPD2	C1	1	0.117	12.011
12411	CB	841	MPD2	C2	1	-0.15	12.011
12412	CB	841	MPD2	C3	1	0.117	12.011
12413	CB	841	MPD2	C4	1	-0.15	12.011
12414	CB	841	MPD2	C5	1	-0.15	12.011
12415	HCMM	841	MPD2	H	1	0.15	1.0079
12416	HCMM	841	MPD2	H1	1	0.15	1.0079
12417	HCMM	841	MPD2	H2	1	0.15	1.0079
12418	HCMM	841	MPD2	H3	1	0.15	1.0079
12419	NC=O	841	MPD2	N	1	-0.547	14.0067
12420	HNCO	841	MPD2	H5	1	0.37	1.0079
12421	NC=O	841	MPD2	N1	1	-0.547	14.0067
12422	HNCO	841	MPD2	H7	1	0.37	1.0079
12423	CB	842	MPD2	C	1	-0.15	12.011
12424	CB	842	MPD2	C1	1	0.117	12.011
12425	CB	842	MPD2	C2	1	-0.15	12.011
12426	CB	842	MPD2	C3	1	0.117	12.011
12427	CB	842	MPD2	C4	1	-0.15	12.011
12428	CB	842	MPD2	C5	1	-0.15	12.011
12429	HCMM	842	MPD2	H	1	0.15	1.0079
12430	HCMM	842	MPD2	H1	1	0.15	1.0079
12431	HCMM	842	MPD2	H2	1	0.15	1.0079
12432	HCMM	842	MPD2	H3	1	0.15	1.0079
12433	NC=O	842	MPD2	N	1	-0.547	14.0067
12434	HNCO	842	MPD2	H5	1	0.37	1.0079
12435	NC=O	842	MPD2	N1	1	-0.547	14.0067
12436	HNCO	842	MPD2	H7	1	0.37	1.0079
12437	CB	843	MPD2	C	1	-0.15	12.011
12438	CB	843	MPD2	C1	1	0.117	12.011
12439	CB	843	MPD2	C2	1	-0.15	12.011
12440	CB	843	MPD2	C3	1	0.117	12.011
12441	CB	843	MPD2	C4	1	-0.15	12.011
12442	CB	843	MPD2	C5	1	-0.15	12.011
12443	HCMM	843	MPD2	H	1	0.15	1.0079
12444	HCMM	843	MPD2	H1	1	0.15	1.0079
12445	HCMM	843	MPD2	H2	1	0.15	1.0079
12446	HCMM	843	MPD2	H3	1	0.15	1.0079
12447	NC=O	843	MPD2	N	1	-0.547	14.0067
12448	HNCO	843	MPD2	H5	1	0.37	1.0079
12449	NC=O	843	MPD2	N1	1	-0.547	14.0067
12450	HNCO	843	MPD2	H7	1	0.37	1.0079
12451	CB	844	MPD2	C	1	-0.15	12.011
12452	CB	844	MPD2	C1	1	0.117	12.011
12453	CB	844	MPD2	C2	1	-0.15	12.011
12454	CB	844	MPD2	C3	1	0.117	12.011
12455	CB	844	MPD2	C4	1	-0.15	12.011
12456	CB	844	MPD2	C5	1	-0.15	12.011
12457	HCMM	844	MPD2	H	1	0.15	1.0079
12458	HCMM	844	MPD2	H1	1	0.15	1.0079
12459	HCMM	844	MPD2	H2	1	0.15	1.0079
12460	HCMM	844	MPD2	H3	1	0.15	1.0079
12461	NC=O	844	MPD2	N	1	-0.547	14.0067
12462	HNCO	844	MPD2	H5	1	0.37	1.0079
12463	NC=O	844	MPD2	N1	1	-0.547	14.0067
12464	HNCO	844	MPD2	H7	1	0.37	1.0079
12465	CB	845	MPD2	C	1	-0.15	12.011
12466	CB	845	MPD2	C1	1	0.117	12.011
12467	CB	845	MPD2	C2	1	-0.15	12.011
12468	CB	845	MPD2	C3	1	0.117	12.011
12469	CB	845	MPD2	C4	1	-0.15	12.011
12470	CB	845	MPD2	C5	1	-0.15	12.011
12471	HCMM	845	MPD2	H	1	0.15	1.0079
12472	HCMM	845	MPD2	H1	1	0.15	1.0079
12473	HCMM	845	MPD2	H2	1	0.15	1.0079
12474	HCMM	845	MPD2	H3	1	0.15	1.0079
12475	NC=O	845	MPD2	N	1	-0.547	14.0067
12476	HNCO	845	MPD2	H5	1	0.37	1.0079
12477	NC=O	845	MPD2	N1	1	-0.547	14.0067
12478	HNCO	845	MPD2	H7	1	0.37	1.0079
12479	CB	846	MPD2	C	1	-0.15	12.011
12480	CB	846	MPD2	C1	1	0.117	12.011
12481	CB	846	MPD2	C2	1	-0.15	12.011
12482	CB	846	MPD2	C3	1	0.117	12.011
12483	CB	846	MPD2	C4	1	-0.15	12.011
12484	CB	846	MPD2	C5	1	-0.15	12.011
12485	HCMM	846	MPD2	H	1	0.15	1.0079
12486	HCMM	846	MPD2	H1	1	0.15	1.0079
12487	HCMM	846	MPD2	H2	1	0.15	1.0079
12488	HCMM	846	MPD2	H3	1	0.15	1.0079
12489	NC=O	846	MPD2	N	1	-0.547	14.0067
12490	HNCO	846	MPD2	H5	1	0.37	1.0079
12491	NC=O	846	MPD2	N1	1	-0.547	14.0067
12492	HNCO	846	MPD2	H7	1	0.37	1.0079
12493	CB	847	MPD2	C	1	-0.15	12.011
12494	CB	847	MPD2	C1	1	0.117	12.011
12495	CB	847	MPD2	C2	1	-0.15	12.011
12496	CB	847	MPD2	C3	1	0.117	12.011
12497	CB	847	MPD2	C4	1	-0.15	12.011
12498	CB	847	MPD2	C5	1	-0.15	12.011
12499	HCMM	847	MPD2	H	1	0.15	1.0079
12500	HCMM	847	MPD2	H1	1	0.15	1.0079
12501	HCMM	847	MPD2	H2	1	0.15	1.0079
12502	HCMM	847	MPD2	H3	1	0.15	1.0079
12503	NC=O	847	MPD2	N	1	-0.547	14.0067
12504	HNCO	847	MPD2	H5	1	0.37	1.0079
12505	NC=O	847	MPD2	N1	1	-0.547	14.0067
12506	HNCO	847	MPD2	H7	1	0.37	1.0079
12507	CB	848	MPD2	C	1	-0.15	12.011
12508	CB	848	MPD2	C1	1	0.117	12.011
12509	CB	848	MPD2	C2	1	-0.15	12.011
12510	CB	848	MPD2	C3	1	0.117	12.011
12511	CB	848	MPD2	C4	1	-0.15	12.011
12512	CB	848	MPD2	C5	1	-0.15	12.011
12513	HCMM	848	MPD2	H	1	0.15	1.0079
12514	HCMM	848	MPD2	H1	1	0.15	1.0079
12515	HCMM	848	MPD2	H2	1	0.15	1.0079
12516	HCMM	848	MPD2	H3	1	0.15	1.0079
12517	NC=O	848	MPD2	N	1	-0.547	14.0067
12518	HNCO	848	MPD2	H5	1	0.37	1.0079
12519	NC=O	848	MPD2	N1	1	-0.547	14.0067
12520	HNCO	848	MPD2	H7	1	0.37	1.0079
12521	CB	849	MPD2	C	1	-0.15	12.011
12522	CB	849	MPD2	C1	1	0.117	12.011
12523	CB	849	MPD2	C2	1	-0.15	12.011
12524	CB	849	MPD2	C3	1	0.117	12.011
12525	CB	849	MPD2	C4	1	-0.15	12.011
12526	CB	849	MPD2	C5	1	-0.15	12.011
12527	HCMM	849	MPD2	H	1	0.15	1.0079
12528	HCMM	849	MPD2	H1	1	0.15	1.0079
12529	HCMM	849	MPD2	H2	1	0.15	1.0079
12530	HCMM	849	MPD2	H3	1	0.15	1.0079
12531	NC=O	849	MPD2	N	1	-0.547	14.0067
12532	HNCO	849	MPD2	H5	1	0.37	1.0079
12533	NC=O	849	MPD2	N1	1	-0.547	14.0067
12534	HNCO	849	MPD2	H7	1	0.37	1.0079
12535	CB	850	MPD2	C	1	-0.15	12.011
12536	CB	850	MPD2	C1	1	0.117	12.011
12537	CB	850	MPD2	C2	1	-0.15	12.011
12538	CB	850	MPD2	C3	1	0.117	12.011
12539	CB	850	MPD2	C4	1	-0.15	12.011
12540	CB	850	MPD2	C5	1	-0.15	12.011
12541	HCMM	850	MPD2	H	1	0.15	1.0079
12542	HCMM	850	MPD2	H1	1	0.15	1.0079
12543	HCMM	850	MPD2	H2	1	0.15	1.0079
12544	HCMM	850	MPD2	H3	1	0.15	1.0079
12545	NC=O	850	MPD2	N	1	-0.547	14.0067
12546	HNCO	850	MPD2	H5	1	0.37	1.0079
12547	NC=O	850	MPD2	N1	1	-0.547	14.0067
12548	HNCO	850	MPD2	H7	1	0.37	1.0079
12549	CB	851	MPD2	C	1	-0.15	12.011
12550	CB	851	MPD2	C1	1	0.117	12.011
12551	CB	851	MPD2	C2	1	-0.15	12.011
12552	CB	851	MPD2	C3	1	0.117	12.011
12553	CB	851	MPD2	C4	1	-0.15	12.011
12554	CB	851	MPD2	C5	1	-0.15	12.011
12555	HCMM	851	MPD2	H	1	0.15	1.0079
12556	HCMM	851	MPD2	H1	1	0.15	1.0079
12557	HCMM	851	MPD2	H2	1	0.15	1.0079
12558	HCMM	851	MPD2	H3	1	0.15	1.0079
12559	NC=O	851	MPD2	N	1	-0.547	14.0067
12560	HNCO	851	MPD2	H5	1	0.37	1.0079
12561	NC=O	851	MPD2	N1	1	-0.547	14.0067
12562	HNCO	851	MPD2	H7	1	0.37	1.0079
12563	CB	852	MPD2	C	1	-0.15	12.011
12564	CB	852	MPD2	C1	1	0.117	12.011
12565	CB	852	MPD2	C2	1	-0.15	12.011
12566	CB	852	MPD2	C3	1	0.117	12.011
12567	CB	852	MPD2	C4	1	-0.15	12.011
12568	CB	852	MPD2	C5	1	-0.15	12.011
12569	HCMM	852	MPD2	H	1	0.15	1.0079
12570	HCMM	852	MPD2	H1	1	0.15	1.0079
12571	HCMM	852	MPD2	H2	1	0.15	1.0079
12572	HCMM	852	MPD2	H3	1	0.15	1.0079
12573	NC=O	852	MPD2	N	1	-0.547	14.0067
12574	HNCO	852	MPD2	H5	1	0.37	1.0079
12575	NC=O	852	MPD2	N1	1	-0.547	14.0067
12576	HNCO	852	MPD2	H7	1	0.37	1.0079
12577	CB	853	MPD2	C	1	-0.15	12.011
12578	CB	853	MPD2	C1	1	0.117	12.011
12579	CB	853	MPD2	C2	1	-0.15	12.011
12580	CB	853	MPD2	C3	1	0.117	12.011
12581	CB	853	MPD2	C4	1	-0.15	12.011
12582	CB	853	MPD2	C5	1	-0.15	12.011
12583	HCMM	853	MPD2	H	1	0.15	1.0079
12584	HCMM	853	MPD2	H1	1	0.15	1.0079
12585	HCMM	853	MPD2	H2	1	0.15	1.0079
12586	HCMM	853	MPD2	H3	1	0.15	1.0079
12587	NC=O	853	MPD2	N	1	-0.547	14.0067
12588	HNCO	853	MPD2	H5	1	0.37	1.0079
12589	NC=O	853	MPD2	N1	1	-0.547	14.0067
12590	HNCO	853	MPD2	H7	1	0.37	1.0079
12591	CB	854	MPD2	C	1	-0.15	12.011
12592	CB	854	MPD2	C1	1	0.117	12.011
12593	CB	854	MPD2	C2	1	-0.15	12.011
12594	CB	854	MPD2	C3	1	0.117	12.011
12595	CB	854	MPD2	C4	1	-0.15	12.011
12596	CB	854	MPD2	C5	1	-0.15	12.011
12597	HCMM	854	MPD2	H	1	0.15	1.0079
12598	HCMM	854	MPD2	H1	1	0.15	1.0079
12599	HCMM	854	MPD2	H2	1	0.15	1.0079
12600	HCMM	854	MPD2	H3	1	0.15	1.0079
12601	NC=O	854	MPD2	N	1	-0.547	14.0067
12602	HNCO	854	MPD2	H5	1	0.37	1.0079
12603	NC=O	854	MPD2	N1	1	-0.547	14.0067
12604	HNCO	854	MPD2	H7	1	0.37	1.0079
12605	CB	855	MPD2	C	1	-0.15	12.011
12606	CB	855	MPD2	C1	1	0.117	12.011
12607	CB	855	MPD2	C2	1	-0.15	12.011
12608	CB	855	MPD2	C3	1	0.117	12.011
12609	CB	855	MPD2	C4	1	-0.15	12.011
12610	CB	855	MPD2	C5	1	-0.15	12.011
12611	HCMM	855	MPD2	H	1	0.15	1.0079
12612	HCMM	855	MPD2	H1	1	0.15	1.0079
12613	HCMM	855	MPD2	H2	1	0.15	1.0079
12614	HCMM	855	MPD2	H3	1	0.15	1.0079
12615	NC=O	855	MPD2	N	1	-0.547	14.0067
12616	HNCO	855	MPD2	H5	1	0.37	1.0079
12617	NC=O	855	MPD2	N1	1	-0.547	14.0067
12618	HNCO	855	MPD2	H7	1	0.37	1.0079
12619	CB	856	MPD2	C	1	-0.15	12.011
12620	CB	856	MPD2	C1	1	0.117	12.011
12621	CB	856	MPD2	C2	1	-0.15	12.011
12622	CB	856	MPD2	C3	1	0.117	12.011
12623	CB	856	MPD2	C4	1	-0.15	12.011
12624	CB	856	MPD2	C5	1	-0.15	12.011
12625	HCMM	856	MPD2	H	1	0.15	1.0079
12626	HCMM	856	MPD2	H1	1	0.15	1.0079
12627	HCMM	856	MPD2	H2	1	0.15	1.0079
12628	HCMM	856	MPD2	H3	1	0.15	1.0079
12629	NC=O	856	MPD2	N	1	-0.547	14.0067
12630	HNCO	856	MPD2	H5	1	0.37	1.0079
12631	NC=O	856	MPD2	N1	1	-0.547	14.0067
12632	HNCO	856	MPD2	H7	1	0.37	1.0079
12633	CB	857	MPD2	C	1	-0.15	12.011
12634	CB	857	MPD2	C1	1	0.117	12.011
12635	CB	857	MPD2	C2	1	-0.15	12.011
12636	CB	857	MPD2	C3	1	0.117	12.011
12637	CB	857	MPD2	C4	1	-0.15	12.011
12638	CB	857	MPD2	C5	1	-0.15	12.011
12639	HCMM	857	MPD2	H	1	0.15	1.0079
12640	HCMM	857	MPD2	H1	1	0.15	1.0079
12641	HCMM	857	MPD2	H2	1	0.15	1.0079
12642	HCMM	857	MPD2	H3	1	0.15	1.0079
12643	NC=O	857	MPD2	N	1	-0.547	14.0067
12644	HNCO	857	MPD2	H5	1	0.37	1.0079
12645	NC=O	857	MPD2	N1	1	-0.547	14.0067
12646	HNCO	857	MPD2	H7	1	0.37	1.0079
12647	CB	858	MPD2	C	1	-0.15	12.011
12648	CB	858	MPD2	C1	1	0.117	12.011
12649	CB	858	MPD2	C2	1	-0.15	12.011
12650	CB	858	MPD2	C3	1	0.117	12.011
12651	CB	858	MPD2	C4	1	-0.15	12.011
12652	CB	858	MPD2	C5	1	-0.15	12.011
12653	HCMM	858	MPD2	H	1	0.15	1.0079
12654	HCMM	858	MPD2	H1	1	0.15	1.0079
12655	HCMM	858	MPD2	H2	1	0.15	1.0079
12656	HCMM	858	MPD2	H3	1	0.15	1.0079
12657	NC=O	858	MPD2	N	1	-0.547	14.0067
12658	HNCO	858	MPD2	H5	1	0.37	1.0079
12659	NC=O	858	MPD2	N1	1	-0.547	14.0067
12660	HNCO	858	MPD2	H7	1	0.37	1.0079
12661	CB	859	MPD2	C	1	-0.15	12.011
12662	CB	859	MPD2	C1	1	0.117	12.011
12663	CB	859	MPD2	C2	1	-0.15	12.011
12664	CB	859	MPD2	C3	1	0.117	12.011
12665	CB	859	MPD2	C4	1	-0.15	12.011
12666	CB	859	MPD2	C5	1	-0.15	12.011
12667	HCMM	859	MPD2	H	1	0.15	1.0079
12668	HCMM	859	MPD2	H1	1	0.15	1.0079
12669	HCMM	859	MPD2	H2	1	0.15	1.0079
12670	HCMM	859	MPD2	H3	1	0.15	1.0079
12671	NC=O	859	MPD2	N	1	-0.547	14.0067
12672	HNCO	859	MPD2	H5	1	0.37	1.0079
12673	NC=O	859	MPD2	N1	1	-0.547	14.0067
12674	HNCO	859	MPD2	H7	1	0.37	1.0079
12675	CB	860	MPD2	C	1	-0.15	12.011
12676	CB	860	MPD2	C1	1	0.117	12.011
12677	CB	860	MPD2	C2	1	-0.15	12.011
12678	CB	860	MPD2	C3	1	0.117	12.011
12679	CB	860	MPD2	C4	1	-0.15	12.011
12680	CB	860	MPD2	C5	1	-0.15	12.011
12681	HCMM	860	MPD2	H	1	0.15	1.0079
12682	HCMM	860	MPD2	H1	1	0.15	1.0079
12683	HCMM	860	MPD2	H2	1	0.15	1.0079
12684	HCMM	860	MPD2	H3	1	0.15	1.0079
12685	NC=O	860	MPD2	N	1	-0.547	14.0067
12686	HNCO	860	MPD2	H5	1	0.37	1.0079
12687	NC=O	860	MPD2	N1	1	-0.547	14.0067
12688	HNCO	860	MPD2	H7	1	0.37	1.0079
12689	CB	861	MPD2	C	1	-0.15	12.011
12690	CB	861	MPD2	C1	1	0.117	12.011
12691	CB	861	MPD2	C2	1	-0.15	12.011
12692	CB	861	MPD2	C3	1	0.117	12.011
12693	CB	861	MPD2	C4	1	-0.15	12.011
12694	CB	861	MPD2	C5	1	-0.15	12.011
12695	HCMM	861	MPD2	H	1	0.15	1.0079
12696	HCMM	861	MPD2	H1	1	0.15	1.0079
12697	HCMM	861	MPD2	H2	1	0.15	1.0079
12698	HCMM	861	MPD2	H3	1	0.15	1.0079
12699	NC=O	861	MPD2	N	1	-0.547	14.0067
12700	HNCO	861	MPD2	H5	1	0.37	1.0079
12701	NC=O	861	MPD2	N1	1	-0.547	14.0067
12702	HNCO	861	MPD2	H7	1	0.37	1.0079
12703	CB	862	MPD2	C	1	-0.15	12.011
12704	CB	862	MPD2	C1	1	0.117	12.011
12705	CB	862	MPD2	C2	1	-0.15	12.011
12706	CB	862	MPD2	C3	1	0.117	12.011
12707	CB	862	MPD2	C4	1	-0.15	12.011
12708	CB	862	MPD2	C5	1	-0.15	12.011
12709	HCMM	862	MPD2	H	1	0.15	1.0079
12710	HCMM	862	MPD2	H1	1	0.15	1.0079
12711	HCMM	862	MPD2	H2	1	0.15	1.0079
12712	HCMM	862	MPD2	H3	1	0.15	1.0079
12713	NC=O	862	MPD2	N	1	-0.547	14.0067
12714	HNCO	862	MPD2	H5	1	0.37	1.0079
12715	NC=O	862	MPD2	N1	1	-0.547	14.0067
12716	HNCO	862	MPD2	H7	1	0.37	1.0079
12717	CB	863	MPD2	C	1	-0.15	12.011
12718	CB	863	MPD2	C1	1	0.117	12.011
12719	CB	863	MPD2	C2	1	-0.15	12.011
12720	CB	863	MPD2	C3	1	0.117	12.011
12721	CB	863	MPD2	C4	1	-0.15	12.011
12722	CB	863	MPD2	C5	1	-0.15	12.011
12723	HCMM	863	MPD2	H	1	0.15	1.0079
12724	HCMM	863	MPD2	H1	1	0.15	1.0079
12725	HCMM	863	MPD2	H2	1	0.15	1.0079
12726	HCMM	863	MPD2	H3	1	0.15	1.0079
12727	NC=O	863	MPD2	N	1	-0.547	14.0067
12728	HNCO	863	MPD2	H5	1	0.37	1.0079
12729	NC=O	863	MPD2	N1	1	-0.547	14.0067
12730	HNCO	863	MPD2	H7	1	0.37	1.0079
12731	CB	864	MPD2	C	1	-0.15	12.011
12732	CB	864	MPD2	C1	1	0.117	12.011
12733	CB	864	MPD2	C2	1	-0.15	12.011
12734	CB	864	MPD2	C3	1	0.117	12.011
12735	CB	864	MPD2	C4	1	-0.15	12.011
12736	CB	864	MPD2	C5	1	-0.15	12.011
12737	HCMM	864	MPD2	H	1	0.15	1.0079
12738	HCMM	864	MPD2	H1	1	0.15	1.0079
12739	HCMM	864	MPD2	H2	1	0.15	1.0079
12740	HCMM	864	MPD2	H3	1	0.15	1.0079
12741	NC=O	864	MPD2	N	1	-0.547	14.0067
12742	HNCO	864	MPD2	H5	1	0.37	1.0079
12743	NC=O	864	MPD2	N1	1	-0.547	14.0067
12744	HNCO	864	MPD2	H7	1	0.37	1.0079
12745	CB	865	MPD2	C	1	-0.15	12.011
12746	CB	865	MPD2	C1	1	0.117	12.011
12747	CB	865	MPD2	C2	1	-0.15	12.011
12748	CB	865	MPD2	C3	1	0.117	12.011
12749	CB	865	MPD2	C4	1	-0.15	12.011
12750	CB	865	MPD2	C5	1	-0.15	12.011
12751	HCMM	865	MPD2	H	1	0.15	1.0079
12752	HCMM	865	MPD2	H1	1	0.15	1.0079
12753	HCMM	865	MPD2	H2	1	0.15	1.0079
12754	HCMM	865	MPD2	H3	1	0.15	1.0079
12755	NC=O	865	MPD2	N	1	-0.547	14.0067
12756	HNCO	865	MPD2	H5	1	0.37	1.0079
12757	NC=O	865	MPD2	N1	1	-0.547	14.0067
12758	HNCO	865	MPD2	H7	1	0.37	1.0079
12759	CB	866	MPD2	C	1	-0.15	12.011
12760	CB	866	MPD2	C1	1	0.117	12.011
12761	CB	866	MPD2	C2	1	-0.15	12.011
12762	CB	866	MPD2	C3	1	0.117	12.011
12763	CB	866	MPD2	C4	1	-0.15	12.011
12764	CB	866	MPD2	C5	1	-0.15	12.011
12765	HCMM	866	MPD2	H	1	0.15	1.0079
12766	HCMM	866	MPD2	H1	1	0.15	1.0079
12767	HCMM	866	MPD2	H2	1	0.15	1.0079
12768	HCMM	866	MPD2	H3	1	0.15	1.0079
12769	NC=O	866	MPD2	N	1	-0.547	14.0067
12770	HNCO	866	MPD2	H5	1	0.37	1.0079
12771	NC=O	866	MPD2	N1	1	-0.547	14.0067
12772	HNCO	866	MPD2	H7	1	0.37	1.0079
12773	CB	867	MPD2	C	1	-0.15	12.011
12774	CB	867	MPD2	C1	1	0.117	12.011
12775	CB	867	MPD2	C2	1	-0.15	12.011
12776	CB	867	MPD2	C3	1	0.117	12.011
12777	CB	867	MPD2	C4	1	-0.15	12.011
12778	CB	867	MPD2	C5	1	-0.15	12.011
12779	HCMM	867	MPD2	H	1	0.15	1.0079
12780	HCMM	867	MPD2	H1	1	0.15	1.0079
12781	HCMM	867	MPD2	H2	1	0.15	1.0079
12782	HCMM	867	MPD2	H3	1	0.15	1.0079
12783	NC=O	867	MPD2	N	1	-0.547	14.0067
12784	HNCO	867	MPD2	H5	1	0.37	1.0079
12785	NC=O	867	MPD2	N1	1	-0.547	14.0067
12786	HNCO	867	MPD2	H7	1	0.37	1.0079
12787	CB	868	MPD2	C	1	-0.15	12.011
12788	CB	868	MPD2	C1	1	0.117	12.011
12789	CB	868	MPD2	C2	1	-0.15	12.011
12790	CB	868	MPD2	C3	1	0.117	12.011
12791	CB	868	MPD2	C4	1	-0.15	12.011
12792	CB	868	MPD2	C5	1	-0.15	12.011
12793	HCMM	868	MPD2	H	1	0.15	1.0079
12794	HCMM	868	MPD2	H1	1	0.15	1.0079
12795	HCMM	868	MPD2	H2	1	0.15	1.0079
12796	HCMM	868	MPD2	H3	1	0.15	1.0079
12797	NC=O	868	MPD2	N	1	-0.547	14.0067
12798	HNCO	868	MPD2	H5	1	0.37	1.0079
12799	NC=O	868	MPD2	N1	1	-0.547	14.0067
12800	HNCO	868	MPD2	H7	1	0.37	1.0079
12801	CB	869	MPD2	C	1	-0.15	12.011
12802	CB	869	MPD2	C1	1	0.117	12.011
12803	CB	869	MPD2	C2	1	-0.15	12.011
12804	CB	869	MPD2	C3	1	0.117	12.011
12805	CB	869	MPD2	C4	1	-0.15	12.011
12806	CB	869	MPD2	C5	1	-0.15	12.011
12807	HCMM	869	MPD2	H	1	0.15	1.0079
12808	HCMM	869	MPD2	H1	1	0.15	1.0079
12809	HCMM	869	MPD2	H2	1	0.15	1.0079
12810	HCMM	869	MPD2	H3	1	0.15	1.0079
12811	NC=O	869	MPD2	N	1	-0.547	14.0067
12812	HNCO	869	MPD2	H5	1	0.37	1.0079
12813	NC=O	869	MPD2	N1	1	-0.547	14.0067
12814	HNCO	869	MPD2	H7	1	0.37	1.0079
12815	CB	870	MPD2	C	1	-0.15	12.011
12816	CB	870	MPD2	C1	1	0.117	12.011
12817	CB	870	MPD2	C2	1	-0.15	12.011
12818	CB	870	MPD2	C3	1	0.117	12.011
12819	CB	870	MPD2	C4	1	-0.15	12.011
12820	CB	870	MPD2	C5	1	-0.15	12.011
12821	HCMM	870	MPD2	H	1	0.15	1.0079
12822	HCMM	870	MPD2	H1	1	0.15	1.0079
12823	HCMM	870	MPD2	H2	1	0.15	1.0079
12824	HCMM	870	MPD2	H3	1	0.15	1.0079
12825	NC=O	870	MPD2	N	1	-0.547	14.0067
12826	HNCO	870	MPD2	H5	1	0.37	1.0079
12827	NC=O	870	MPD2	N1	1	-0.547	14.0067
12828	HNCO	870	MPD2	H7	1	0.37	1.0079
12829	CB	871	MPD2	C	1	-0.15	12.011
12830	CB	871	MPD2	C1	1	0.117	12.011
12831	CB	871	MPD2	C2	1	-0.15	12.011
12832	CB	871	MPD2	C3	1	0.117	12.011
12833	CB	871	MPD2	C4	1	-0.15	12.011
12834	CB	871	MPD2	C5	1	-0.15	12.011
12835	HCMM	871	MPD2	H	1	0.15	1.0079
12836	HCMM	871	MPD2	H1	1	0.15	1.0079
12837	HCMM	871	MPD2	H2	1	0.15	1.0079
12838	HCMM	871	MPD2	H3	1	0.15	1.0079
12839	NC=O	871	MPD2	N	1	-0.547	14.0067
12840	HNCO	871	MPD2	H5	1	0.37	1.0079
12841	NC=O	871	MPD2	N1	1	-0.547	14.0067
12842	HNCO	871	MPD2	H7	1	0.37	1.0079
12843	CB	872	MPD2	C	1	-0.15	12.011
12844	CB	872	MPD2	C1	1	0.117	12.011
12845	CB	872	MPD2	C2	1	-0.15	12.011
12846	CB	872	MPD2	C3	1	0.117	12.011
12847	CB	872	MPD2	C4	1	-0.15	12.011
12848	CB	872	MPD2	C5	1	-0.15	12.011
12849	HCMM	872	MPD2	H	1	0.15	1.0079
12850	HCMM	872	MPD2	H1	1	0.15	1.0079
12851	HCMM	872	MPD2	H2	1	0.15	1.0079
12852	HCMM	872	MPD2	H3	1	0.15	1.0079
12853	NC=O	872	MPD2	N	1	-0.547	14.0067
12854	HNCO	872	MPD2	H5	1	0.37	1.0079
12855	NC=O	872	MPD2	N1	1	-0.547	14.0067
12856	HNCO	872	MPD2	H7	1	0.37	1.0079
12857	CB	873	MPD2	C	1	-0.15	12.011
12858	CB	873	MPD2	C1	1	0.117	12.011
12859	CB	873	MPD2	C2	1	-0.15	12.011
12860	CB	873	MPD2	C3	1	0.117	12.011
12861	CB	873	MPD2	C4	1	-0.15	12.011
12862	CB	873	MPD2	C5	1	-0.15	12.011
12863	HCMM	873	MPD2	H	1	0.15	1.0079
12864	HCMM	873	MPD2	H1	1	0.15	1.0079
12865	HCMM	873	MPD2	H2	1	0.15	1.0079
12866	HCMM	873	MPD2	H3	1	0.15	1.0079
12867	NC=O	873	MPD2	N	1	-0.547	14.0067
12868	HNCO	873	MPD2	H5	1	0.37	1.0079
12869	NC=O	873	MPD2	N1	1	-0.547	14.0067
12870	HNCO	873	MPD2	H7	1	0.37	1.0079
12871	CB	874	MPD2	C	1	-0.15	12.011
12872	CB	874	MPD2	C1	1	0.117	12.011
12873	CB	874	MPD2	C2	1	-0.15	12.011
12874	CB	874	MPD2	C3	1	0.117	12.011
12875	CB	874	MPD2	C4	1	-0.15	12.011
12876	CB	874	MPD2	C5	1	-0.15	12.011
12877	HCMM	874	MPD2	H	1	0.15	1.0079
12878	HCMM	874	MPD2	H1	1	0.15	1.0079
12879	HCMM	874	MPD2	H2	1	0.15	1.0079
12880	HCMM	874	MPD2	H3	1	0.15	1.0079
12881	NC=O	874	MPD2	N	1	-0.547	14.0067
12882	HNCO	874	MPD2	H5	1	0.37	1.0079
12883	NC=O	874	MPD2	N1	1	-0.547	14.0067
12884	HNCO	874	MPD2	H7	1	0.37	1.0079
12885	CB	875	MPD2	C	1	-0.15	12.011
12886	CB	875	MPD2	C1	1	0.117	12.011
12887	CB	875	MPD2	C2	1	-0.15	12.011
12888	CB	875	MPD2	C3	1	0.117	12.011
12889	CB	875	MPD2	C4	1	-0.15	12.011
12890	CB	875	MPD2	C5	1	-0.15	12.011
12891	HCMM	875	MPD2	H	1	0.15	1.0079
12892	HCMM	875	MPD2	H1	1	0.15	1.0079
12893	HCMM	875	MPD2	H2	1	0.15	1.0079
12894	HCMM	875	MPD2	H3	1	0.15	1.0079
12895	NC=O	875	MPD2	N	1	-0.547	14.0067
12896	HNCO	875	MPD2	H5	1	0.37	1.0079
12897	NC=O	875	MPD2	N1	1	-0.547	14.0067
12898	HNCO	875	MPD2	H7	1	0.37	1.0079
12899	CB	876	MPD2	C	1	-0.15	12.011
12900	CB	876	MPD2	C1	1	0.117	12.011
12901	CB	876	MPD2	C2	1	-0.15	12.011
12902	CB	876	MPD2	C3	1	0.117	12.011
12903	CB	876	MPD2	C4	1	-0.15	12.011
12904	CB	876	MPD2	C5	1	-0.15	12.011
12905	HCMM	876	MPD2	H	1	0.15	1.0079
12906	HCMM	876	MPD2	H1	1	0.15	1.0079
12907	HCMM	876	MPD2	H2	1	0.15	1.0079
12908	HCMM	876	MPD2	H3	1	0.15	1.0079
12909	NC=O	876	MPD2	N	1	-0.547	14.0067
12910	HNCO	876	MPD2	H5	1	0.37	1.0079
12911	NC=O	876	MPD2	N1	1	-0.547	14.0067
12912	HNCO	876	MPD2	H7	1	0.37	1.0079
12913	CB	877	MPD2	C	1	-0.15	12.011
12914	CB	877	MPD2	C1	1	0.117	12.011
12915	CB	877	MPD2	C2	1	-0.15	12.011
12916	CB	877	MPD2	C3	1	0.117	12.011
12917	CB	877	MPD2	C4	1	-0.15	12.011
12918	CB	877	MPD2	C5	1	-0.15	12.011
12919	HCMM	877	MPD2	H	1	0.15	1.0079
12920	HCMM	877	MPD2	H1	1	0.15	1.0079
12921	HCMM	877	MPD2	H2	1	0.15	1.0079
12922	HCMM	877	MPD2	H3	1	0.15	1.0079
12923	NC=O	877	MPD2	N	1	-0.547	14.0067
12924	HNCO	877	MPD2	H5	1	0.37	1.0079
12925	NC=O	877	MPD2	N1	1	-0.547	14.0067
12926	HNCO	877	MPD2	H7	1	0.37	1.0079
12927	CB	878	MPD2	C	1	-0.15	12.011
12928	CB	878	MPD2	C1	1	0.117	12.011
12929	CB	878	MPD2	C2	1	-0.15	12.011
12930	CB	878	MPD2	C3	1	0.117	12.011
12931	CB	878	MPD2	C4	1	-0.15	12.011
12932	CB	878	MPD2	C5	1	-0.15	12.011
12933	HCMM	878	MPD2	H	1	0.15	1.0079
12934	HCMM	878	MPD2	H1	1	0.15	1.0079
12935	HCMM	878	MPD2	H2	1	0.15	1.0079
12936	HCMM	878	MPD2	H3	1	0.15	1.0079
12937	NC=O	878	MPD2	N	1	-0.547	14.0067
12938	HNCO	878	MPD2	H5	1	0.37	1.0079
12939	NC=O	878	MPD2	N1	1	-0.547	14.0067
12940	HNCO	878	MPD2	H7	1	0.37	1.0079
12941	CB	879	MPD2	C	1	-0.15	12.011
12942	CB	879	MPD2	C1	1	0.117	12.011
12943	CB	879	MPD2	C2	1	-0.15	12.011
12944	CB	879	MPD2	C3	1	0.117	12.011
12945	CB	879	MPD2	C4	1	-0.15	12.011
12946	CB	879	MPD2	C5	1	-0.15	12.011
12947	HCMM	879	MPD2	H	1	0.15	1.0079
12948	HCMM	879	MPD2	H1	1	0.15	1.0079
12949	HCMM	879	MPD2	H2	1	0.15	1.0079
12950	HCMM	879	MPD2	H3	1	0.15	1.0079
12951	NC=O	879	MPD2	N	1	-0.547	14.0067
12952	HNCO	879	MPD2	H5	1	0.37	1.0079
12953	NC=O	879	MPD2	N1	1	-0.547	14.0067
12954	HNCO	879	MPD2	H7	1	0.37	1.0079
12955	CB	880	MPD2	C	1	-0.15	12.011
12956	CB	880	MPD2	C1	1	0.117	12.011
12957	CB	880	MPD2	C2	1	-0.15	12.011
12958	CB	880	MPD2	C3	1	0.117	12.011
12959	CB	880	MPD2	C4	1	-0.15	12.011
12960	CB	880	MPD2	C5	1	-0.15	12.011
12961	HCMM	880	MPD2	H	1	0.15	1.0079
12962	HCMM	880	MPD2	H1	1	0.15	1.0079
12963	HCMM	880	MPD2	H2	1	0.15	1.0079
12964	HCMM	880	MPD2	H3	1	0.15	1.0079
12965	NC=O	880	MPD2	N	1	-0.547	14.0067
12966	HNCO	880	MPD2	H5	1	0.37	1.0079
12967	NC=O	880	MPD2	N1	1	-0.547	14.0067
12968	HNCO	880	MPD2	H7	1	0.37	1.0079
12969	CB	881	MPD2	C	1	-0.15	12.011
12970	CB	881	MPD2	C1	1	0.117	12.011
12971	CB	881	MPD2	C2	1	-0.15	12.011
12972	CB	881	MPD2	C3	1	0.117	12.011
12973	CB	881	MPD2	C4	1	-0.15	12.011
12974	CB	881	MPD2	C5	1	-0.15	12.011
12975	HCMM	881	MPD2	H	1	0.15	1.0079
12976	HCMM	881	MPD2	H1	1	0.15	1.0079
12977	HCMM	881	MPD2	H2	1	0.15	1.0079
12978	HCMM	881	MPD2	H3	1	0.15	1.0079
12979	NC=O	881	MPD2	N	1	-0.547	14.0067
12980	HNCO	881	MPD2	H5	1	0.37	1.0079
12981	NC=O	881	MPD2	N1	1	-0.547	14.0067
12982	HNCO	881	MPD2	H7	1	0.37	1.0079
12983	CB	882	MPD2	C	1	-0.15	12.011
12984	CB	882	MPD2	C1	1	0.117	12.011
12985	CB	882	MPD2	C2	1	-0.15	12.011
12986	CB	882	MPD2	C3	1	0.117	12.011
12987	CB	882	MPD2	C4	1	-0.15	12.011
12988	CB	882	MPD2	C5	1	-0.15	12.011
12989	HCMM	882	MPD2	H	1	0.15	1.0079
12990	HCMM	882	MPD2	H1	1	0.15	1.0079
12991	HCMM	882	MPD2	H2	1	0.15	1.0079
12992	HCMM	882	MPD2	H3	1	0.15	1.0079
12993	NC=O	882	MPD2	N	1	-0.547	14.0067
12994	HNCO	882	MPD2	H5	1	0.37	1.0079
12995	NC=O	882	MPD2	N1	1	-0.547	14.0067
12996	HNCO	882	MPD2	H7	1	0.37	1.0079
12997	CB	883	MPD2	C	1	-0.15	12.011
12998	CB	883	MPD2	C1	1	0.117	12.011
12999	CB	883	MPD2	C2	1	-0.15	12.011
13000	CB	883	MPD2	C3	1	0.117	12.011
13001	CB	883	MPD2	C4	1	-0.15	12.011
13002	CB	883	MPD2	C5	1	-0.15	12.011
13003	HCMM	883	MPD2	H	1	0.15	1.0079
13004	HCMM	883	MPD2	H1	1	0.15	1.0079
13005	HCMM	883	MPD2	H2	1	0.15	1.0079
13006	HCMM	883	MPD2	H3	1	0.15	1.0079
13007	NC=O	883	MPD2	N	1	-0.547	14.0067
13008	HNCO	883	MPD2	H5	1	0.37	1.0079
13009	NC=O	883	MPD2	N1	1	-0.547	14.0067
13010	HNCO	883	MPD2	H7	1	0.37	1.0079
13011	CB	884	MPD2	C	1	-0.15	12.011
13012	CB	884	MPD2	C1	1	0.117	12.011
13013	CB	884	MPD2	C2	1	-0.15	12.011
13014	CB	884	MPD2	C3	1	0.117	12.011
13015	CB	884	MPD2	C4	1	-0.15	12.011
13016	CB	884	MPD2	C5	1	-0.15	12.011
13017	HCMM	884	MPD2	H	1	0.15	1.0079
13018	HCMM	884	MPD2	H1	1	0.15	1.0079
13019	HCMM	884	MPD2	H2	1	0.15	1.0079
13020	HCMM	884	MPD2	H3	1	0.15	1.0079
13021	NC=O	884	MPD2	N	1	-0.547	14.0067
13022	HNCO	884	MPD2	H5	1	0.37	1.0079
13023	NC=O	884	MPD2	N1	1	-0.547	14.0067
13024	HNCO	884	MPD2	H7	1	0.37	1.0079
13025	CB	885	MPD2	C	1	-0.15	12.011
13026	CB	885	MPD2	C1	1	0.117	12.011
13027	CB	885	MPD2	C2	1	-0.15	12.011
13028	CB	885	MPD2	C3	1	0.117	12.011
13029	CB	885	MPD2	C4	1	-0.15	12.011
13030	CB	885	MPD2	C5	1	-0.15	12.011
13031	HCMM	885	MPD2	H	1	0.15	1.0079
13032	HCMM	885	MPD2	H1	1	0.15	1.0079
13033	HCMM	885	MPD2	H2	1	0.15	1.0079
13034	HCMM	885	MPD2	H3	1	0.15	1.0079
13035	NC=O	885	MPD2	N	1	-0.547	14.0067
13036	HNCO	885	MPD2	H5	1	0.37	1.0079
13037	NC=O	885	MPD2	N1	1	-0.547	14.0067
13038	HNCO	885	MPD2	H7	1	0.37	1.0079
13039	CB	886	MPD2	C	1	-0.15	12.011
13040	CB	886	MPD2	C1	1	0.117	12.011
13041	CB	886	MPD2	C2	1	-0.15	12.011
13042	CB	886	MPD2	C3	1	0.117	12.011
13043	CB	886	MPD2	C4	1	-0.15	12.011
13044	CB	886	MPD2	C5	1	-0.15	12.011
13045	HCMM	886	MPD2	H	1	0.15	1.0079
13046	HCMM	886	MPD2	H1	1	0.15	1.0079
13047	HCMM	886	MPD2	H2	1	0.15	1.0079
13048	HCMM	886	MPD2	H3	1	0.15	1.0079
13049	NC=O	886	MPD2	N	1	-0.547	14.0067
13050	HNCO	886	MPD2	H5	1	0.37	1.0079
13051	NC=O	886	MPD2	N1	1	-0.547	14.0067
13052	HNCO	886	MPD2	H7	1	0.37	1.0079
13053	CB	887	MPD2	C	1	-0.15	12.011
13054	CB	887	MPD2	C1	1	0.117	12.011
13055	CB	887	MPD2	C2	1	-0.15	12.011
13056	CB	887	MPD2	C3	1	0.117	12.011
13057	CB	887	MPD2	C4	1	-0.15	12.011
13058	CB	887	MPD2	C5	1	-0.15	12.011
13059	HCMM	887	MPD2	H	1	0.15	1.0079
13060	HCMM	887	MPD2	H1	1	0.15	1.0079
13061	HCMM	887	MPD2	H2	1	0.15	1.0079
13062	HCMM	887	MPD2	H3	1	0.15	1.0079
13063	NC=O	887	MPD2	N	1	-0.547	14.0067
13064	HNCO	887	MPD2	H5	1	0.37	1.0079
13065	NC=O	887	MPD2	N1	1	-0.547	14.0067
13066	HNCO	887	MPD2	H7	1	0.37	1.0079
13067	CB	888	MPD2	C	1	-0.15	12.011
13068	CB	888	MPD2	C1	1	0.117	12.011
13069	CB	888	MPD2	C2	1	-0.15	12.011
13070	CB	888	MPD2	C3	1	0.117	12.011
13071	CB	888	MPD2	C4	1	-0.15	12.011
13072	CB	888	MPD2	C5	1	-0.15	12.011
13073	HCMM	888	MPD2	H	1	0.15	1.0079
13074	HCMM	888	MPD2	H1	1	0.15	1.0079
13075	HCMM	888	MPD2	H2	1	0.15	1.0079
13076	HCMM	888	MPD2	H3	1	0.15	1.0079
13077	NC=O	888	MPD2	N	1	-0.547	14.0067
13078	HNCO	888	MPD2	H5	1	0.37	1.0079
13079	NC=O	888	MPD2	N1	1	-0.547	14.0067
13080	HNCO	888	MPD2	H7	1	0.37	1.0079
13081	CB	889	MPD2	C	1	-0.15	12.011
13082	CB	889	MPD2	C1	1	0.117	12.011
13083	CB	889	MPD2	C2	1	-0.15	12.011
13084	CB	889	MPD2	C3	1	0.117	12.011
13085	CB	889	MPD2	C4	1	-0.15	12.011
13086	CB	889	MPD2	C5	1	-0.15	12.011
13087	HCMM	889	MPD2	H	1	0.15	1.0079
13088	HCMM	889	MPD2	H1	1	0.15	1.0079
13089	HCMM	889	MPD2	H2	1	0.15	1.0079
13090	HCMM	889	MPD2	H3	1	0.15	1.0079
13091	NC=O	889	MPD2	N	1	-0.547	14.0067
13092	HNCO	889	MPD2	H5	1	0.37	1.0079
13093	NC=O	889	MPD2	N1	1	-0.547	14.0067
13094	HNCO	889	MPD2	H7	1	0.37	1.0079
13095	CB	890	MPD2	C	1	-0.15	12.011
13096	CB	890	MPD2	C1	1	0.117	12.011
13097	CB	890	MPD2	C2	1	-0.15	12.011
13098	CB	890	MPD2	C3	1	0.117	12.011
13099	CB	890	MPD2	C4	1	-0.15	12.011
13100	CB	890	MPD2	C5	1	-0.15	12.011
13101	HCMM	890	MPD2	H	1	0.15	1.0079
13102	HCMM	890	MPD2	H1	1	0.15	1.0079
13103	HCMM	890	MPD2	H2	1	0.15	1.0079
13104	HCMM	890	MPD2	H3	1	0.15	1.0079
13105	NC=O	890	MPD2	N	1	-0.547	14.0067
13106	HNCO	890	MPD2	H5	1	0.37	1.0079
13107	NC=O	890	MPD2	N1	1	-0.547	14.0067
13108	HNCO	890	MPD2	H7	1	0.37	1.0079
13109	CB	891	MPD2	C	1	-0.15	12.011
13110	CB	891	MPD2	C1	1	0.117	12.011
13111	CB	891	MPD2	C2	1	-0.15	12.011
13112	CB	891	MPD2	C3	1	0.117	12.011
13113	CB	891	MPD2	C4	1	-0.15	12.011
13114	CB	891	MPD2	C5	1	-0.15	12.011
13115	HCMM	891	MPD2	H	1	0.15	1.0079
13116	HCMM	891	MPD2	H1	1	0.15	1.0079
13117	HCMM	891	MPD2	H2	1	0.15	1.0079
13118	HCMM	891	MPD2	H3	1	0.15	1.0079
13119	NC=O	891	MPD2	N	1	-0.547	14.0067
13120	HNCO	891	MPD2	H5	1	0.37	1.0079
13121	NC=O	891	MPD2	N1	1	-0.547	14.0067
13122	HNCO	891	MPD2	H7	1	0.37	1.0079
13123	CB	892	MPD2	C	1	-0.15	12.011
13124	CB	892	MPD2	C1	1	0.117	12.011
13125	CB	892	MPD2	C2	1	-0.15	12.011
13126	CB	892	MPD2	C3	1	0.117	12.011
13127	CB	892	MPD2	C4	1	-0.15	12.011
13128	CB	892	MPD2	C5	1	-0.15	12.011
13129	HCMM	892	MPD2	H	1	0.15	1.0079
13130	HCMM	892	MPD2	H1	1	0.15	1.0079
13131	HCMM	892	MPD2	H2	1	0.15	1.0079
13132	HCMM	892	MPD2	H3	1	0.15	1.0079
13133	NC=O	892	MPD2	N	1	-0.547	14.0067
13134	HNCO	892	MPD2	H5	1	0.37	1.0079
13135	NC=O	892	MPD2	N1	1	-0.547	14.0067
13136	HNCO	892	MPD2	H7	1	0.37	1.0079
13137	CB	893	MPD2	C	1	-0.15	12.011
13138	CB	893	MPD2	C1	1	0.117	12.011
13139	CB	893	MPD2	C2	1	-0.15	12.011
13140	CB	893	MPD2	C3	1	0.117	12.011
13141	CB	893	MPD2	C4	1	-0.15	12.011
13142	CB	893	MPD2	C5	1	-0.15	12.011
13143	HCMM	893	MPD2	H	1	0.15	1.0079
13144	HCMM	893	MPD2	H1	1	0.15	1.0079
13145	HCMM	893	MPD2	H2	1	0.15	1.0079
13146	HCMM	893	MPD2	H3	1	0.15	1.0079
13147	NC=O	893	MPD2	N	1	-0.547	14.0067
13148	HNCO	893	MPD2	H5	1	0.37	1.0079
13149	NC=O	893	MPD2	N1	1	-0.547	14.0067
13150	HNCO	893	MPD2	H7	1	0.37	1.0079
13151	CB	894	MPD2	C	1	-0.15	12.011
13152	CB	894	MPD2	C1	1	0.117	12.011
13153	CB	894	MPD2	C2	1	-0.15	12.011
13154	CB	894	MPD2	C3	1	0.117	12.011
13155	CB	894	MPD2	C4	1	-0.15	12.011
13156	CB	894	MPD2	C5	1	-0.15	12.011
13157	HCMM	894	MPD2	H	1	0.15	1.0079
13158	HCMM	894	MPD2	H1	1	0.15	1.0079
13159	HCMM	894	MPD2	H2	1	0.15	1.0079
13160	HCMM	894	MPD2	H3	1	0.15	1.0079
13161	NC=O	894	MPD2	N	1	-0.547	14.0067
13162	HNCO	894	MPD2	H5	1	0.37	1.0079
13163	NC=O	894	MPD2	N1	1	-0.547	14.0067
13164	HNCO	894	MPD2	H7	1	0.37	1.0079
13165	CB	895	MPD2	C	1	-0.15	12.011
13166	CB	895	MPD2	C1	1	0.117	12.011
13167	CB	895	MPD2	C2	1	-0.15	12.011
13168	CB	895	MPD2	C3	1	0.117	12.011
13169	CB	895	MPD2	C4	1	-0.15	12.011
13170	CB	895	MPD2	C5	1	-0.15	12.011
13171	HCMM	895	MPD2	H	1	0.15	1.0079
13172	HCMM	895	MPD2	H1	1	0.15	1.0079
13173	HCMM	895	MPD2	H2	1	0.15	1.0079
13174	HCMM	895	MPD2	H3	1	0.15	1.0079
13175	NC=O	895	MPD2	N	1	-0.547	14.0067
13176	HNCO	895	MPD2	H5	1	0.37	1.0079
13177	NC=O	895	MPD2	N1	1	-0.547	14.0067
13178	HNCO	895	MPD2	H7	1	0.37	1.0079
13179	CB	896	MPD2	C	1	-0.15	12.011
13180	CB	896	MPD2	C1	1	0.117	12.011
13181	CB	896	MPD2	C2	1	-0.15	12.011
13182	CB	896	MPD2	C3	1	0.117	12.011
13183	CB	896	MPD2	C4	1	-0.15	12.011
13184	CB	896	MPD2	C5	1	-0.15	12.011
13185	HCMM	896	MPD2	H	1	0.15	1.0079
13186	HCMM	896	MPD2	H1	1	0.15	1.0079
13187	HCMM	896	MPD2	H2	1	0.15	1.0079
13188	HCMM	896	MPD2	H3	1	0.15	1.0079
13189	NC=O	896	MPD2	N	1	-0.547	14.0067
13190	HNCO	896	MPD2	H5	1	0.37	1.0079
13191	NC=O	896	MPD2	N1	1	-0.547	14.0067
13192	HNCO	896	MPD2	H7	1	0.37	1.0079
13193	CB	897	MPD2	C	1	-0.15	12.011
13194	CB	897	MPD2	C1	1	0.117	12.011
13195	CB	897	MPD2	C2	1	-0.15	12.011
13196	CB	897	MPD2	C3	1	0.117	12.011
13197	CB	897	MPD2	C4	1	-0.15	12.011
13198	CB	897	MPD2	C5	1	-0.15	12.011
13199	HCMM	897	MPD2	H	1	0.15	1.0079
13200	HCMM	897	MPD2	H1	1	0.15	1.0079
13201	HCMM	897	MPD2	H2	1	0.15	1.0079
13202	HCMM	897	MPD2	H3	1	0.15	1.0079
13203	NC=O	897	MPD2	N	1	-0.547	14.0067
13204	HNCO	897	MPD2	H5	1	0.37	1.0079
13205	NC=O	897	MPD2	N1	1	-0.547	14.0067
13206	HNCO	897	MPD2	H7	1	0.37	1.0079
13207	CB	898	MPD2	C	1	-0.15	12.011
13208	CB	898	MPD2	C1	1	0.117	12.011
13209	CB	898	MPD2	C2	1	-0.15	12.011
13210	CB	898	MPD2	C3	1	0.117	12.011
13211	CB	898	MPD2	C4	1	-0.15	12.011
13212	CB	898	MPD2	C5	1	-0.15	12.011
13213	HCMM	898	MPD2	H	1	0.15	1.0079
13214	HCMM	898	MPD2	H1	1	0.15	1.0079
13215	HCMM	898	MPD2	H2	1	0.15	1.0079
13216	HCMM	898	MPD2	H3	1	0.15	1.0079
13217	NC=O	898	MPD2	N	1	-0.547	14.0067
13218	HNCO	898	MPD2	H5	1	0.37	1.0079
13219	NC=O	898	MPD2	N1	1	-0.547	14.0067
13220	HNCO	898	MPD2	H7	1	0.37	1.0079
13221	CB	899	MPD2	C	1	-0.15	12.011
13222	CB	899	MPD2	C1	1	0.117	12.011
13223	CB	899	MPD2	C2	1	-0.15	12.011
13224	CB	899	MPD2	C3	1	0.117	12.011
13225	CB	899	MPD2	C4	1	-0.15	12.011
13226	CB	899	MPD2	C5	1	-0.15	12.011
13227	HCMM	899	MPD2	H	1	0.15	1.0079
13228	HCMM	899	MPD2	H1	1	0.15	1.0079
13229	HCMM	899	MPD2	H2	1	0.15	1.0079
13230	HCMM	899	MPD2	H3	1	0.15	1.0079
13231	NC=O	899	MPD2	N	1	-0.547	14.0067
13232	HNCO	899	MPD2	H5	1	0.37	1.0079
13233	NC=O	899	MPD2	N1	1	-0.547	14.0067
13234	HNCO	899	MPD2	H7	1	0.37	1.0079
13235	CB	900	MPD2	C	1	-0.15	12.011
13236	CB	900	MPD2	C1	1	0.117	12.011
13237	CB	900	MPD2	C2	1	-0.15	12.011
13238	CB	900	MPD2	C3	1	0.117	12.011
13239	CB	900	MPD2	C4	1	-0.15	12.011
13240	CB	900	MPD2	C5	1	-0.15	12.011
13241	HCMM	900	MPD2	H	1	0.15	1.0079
13242	HCMM	900	MPD2	H1	1	0.15	1.0079
13243	HCMM	900	MPD2	H2	1	0.15	1.0079
13244	HCMM	900	MPD2	H3	1	0.15	1.0079
13245	NC=O	900	MPD2	N	1	-0.547	14.0067
13246	HNCO	900	MPD2	H5	1	0.37	1.0079
13247	NC=O	900	MPD2	N1	1	-0.547	14.0067
13248	HNCO	900	MPD2	H7	1	0.37	1.0079
13249	CB	901	MPD2	C	1	-0.15	12.011
13250	CB	901	MPD2	C1	1	0.117	12.011
13251	CB	901	MPD2	C2	1	-0.15	12.011
13252	CB	901	MPD2	C3	1	0.117	12.011
13253	CB	901	MPD2	C4	1	-0.15	12.011
13254	CB	901	MPD2	C5	1	-0.15	12.011
13255	HCMM	901	MPD2	H	1	0.15	1.0079
13256	HCMM	901	MPD2	H1	1	0.15	1.0079
13257	HCMM	901	MPD2	H2	1	0.15	1.0079
13258	HCMM	901	MPD2	H3	1	0.15	1.0079
13259	NC=O	901	MPD2	N	1	-0.547	14.0067
13260	HNCO	901	MPD2	H5	1	0.37	1.0079
13261	NC=O	901	MPD2	N1	1	-0.547	14.0067
13262	HNCO	901	MPD2	H7	1	0.37	1.0079
13263	CB	902	MPD2	C	1	-0.15	12.011
13264	CB	902	MPD2	C1	1	0.117	12.011
13265	CB	902	MPD2	C2	1	-0.15	12.011
13266	CB	902	MPD2	C3	1	0.117	12.011
13267	CB	902	MPD2	C4	1	-0.15	12.011
13268	CB	902	MPD2	C5	1	-0.15	12.011
13269	HCMM	902	MPD2	H	1	0.15	1.0079
13270	HCMM	902	MPD2	H1	1	0.15	1.0079
13271	HCMM	902	MPD2	H2	1	0.15	1.0079
13272	HCMM	902	MPD2	H3	1	0.15	1.0079
13273	NC=O	902	MPD2	N	1	-0.547	14.0067
13274	HNCO	902	MPD2	H5	1	0.37	1.0079
13275	NC=O	902	MPD2	N1	1	-0.547	14.0067
13276	HNCO	902	MPD2	H7	1	0.37	1.0079
13277	CB	903	MPD2	C	1	-0.15	12.011
13278	CB	903	MPD2	C1	1	0.117	12.011
13279	CB	903	MPD2	C2	1	-0.15	12.011
13280	CB	903	MPD2	C3	1	0.117	12.011
13281	CB	903	MPD2	C4	1	-0.15	12.011
13282	CB	903	MPD2	C5	1	-0.15	12.011
13283	HCMM	903	MPD2	H	1	0.15	1.0079
13284	HCMM	903	MPD2	H1	1	0.15	1.0079
13285	HCMM	903	MPD2	H2	1	0.15	1.0079
13286	HCMM	903	MPD2	H3	1	0.15	1.0079
13287	NC=O	903	MPD2	N	1	-0.547	14.0067
13288	HNCO	903	MPD2	H5	1	0.37	1.0079
13289	NC=O	903	MPD2	N1	1	-0.547	14.0067
13290	HNCO	903	MPD2	H7	1	0.37	1.0079
13291	CB	904	MPD2	C	1	-0.15	12.011
13292	CB	904	MPD2	C1	1	0.117	12.011
13293	CB	904	MPD2	C2	1	-0.15	12.011
13294	CB	904	MPD2	C3	1	0.117	12.011
13295	CB	904	MPD2	C4	1	-0.15	12.011
13296	CB	904	MPD2	C5	1	-0.15	12.011
13297	HCMM	904	MPD2	H	1	0.15	1.0079
13298	HCMM	904	MPD2	H1	1	0.15	1.0079
13299	HCMM	904	MPD2	H2	1	0.15	1.0079
13300	HCMM	904	MPD2	H3	1	0.15	1.0079
13301	NC=O	904	MPD2	N	1	-0.547	14.0067
13302	HNCO	904	MPD2	H5	1	0.37	1.0079
13303	NC=O	904	MPD2	N1	1	-0.547	14.0067
13304	HNCO	904	MPD2	H7	1	0.37	1.0079
13305	CB	905	MPD2	C	1	-0.15	12.011
13306	CB	905	MPD2	C1	1	0.117	12.011
13307	CB	905	MPD2	C2	1	-0.15	12.011
13308	CB	905	MPD2	C3	1	0.117	12.011
13309	CB	905	MPD2	C4	1	-0.15	12.011
13310	CB	905	MPD2	C5	1	-0.15	12.011
13311	HCMM	905	MPD2	H	1	0.15	1.0079
13312	HCMM	905	MPD2	H1	1	0.15	1.0079
13313	HCMM	905	MPD2	H2	1	0.15	1.0079
13314	HCMM	905	MPD2	H3	1	0.15	1.0079
13315	NC=O	905	MPD2	N	1	-0.547	14.0067
13316	HNCO	905	MPD2	H5	1	0.37	1.0079
13317	NC=O	905	MPD2	N1	1	-0.547	14.0067
13318	HNCO	905	MPD2	H7	1	0.37	1.0079
13319	CB	906	MPD2	C	1	-0.15	12.011
13320	CB	906	MPD2	C1	1	0.117	12.011
13321	CB	906	MPD2	C2	1	-0.15	12.011
13322	CB	906	MPD2	C3	1	0.117	12.011
13323	CB	906	MPD2	C4	1	-0.15	12.011
13324	CB	906	MPD2	C5	1	-0.15	12.011
13325	HCMM	906	MPD2	H	1	0.15	1.0079
13326	HCMM	906	MPD2	H1	1	0.15	1.0079
13327	HCMM	906	MPD2	H2	1	0.15	1.0079
13328	HCMM	906	MPD2	H3	1	0.15	1.0079
13329	NC=O	906	MPD2	N	1	-0.547	14.0067
13330	HNCO	906	MPD2	H5	1	0.37	1.0079
13331	NC=O	906	MPD2	N1	1	-0.547	14.0067
13332	HNCO	906	MPD2	H7	1	0.37	1.0079
13333	CB	907	MPD2	C	1	-0.15	12.011
13334	CB	907	MPD2	C1	1	0.117	12.011
13335	CB	907	MPD2	C2	1	-0.15	12.011
13336	CB	907	MPD2	C3	1	0.117	12.011
13337	CB	907	MPD2	C4	1	-0.15	12.011
13338	CB	907	MPD2	C5	1	-0.15	12.011
13339	HCMM	907	MPD2	H	1	0.15	1.0079
13340	HCMM	907	MPD2	H1	1	0.15	1.0079
13341	HCMM	907	MPD2	H2	1	0.15	1.0079
13342	HCMM	907	MPD2	H3	1	0.15	1.0079
13343	NC=O	907	MPD2	N	1	-0.547	14.0067
13344	HNCO	907	MPD2	H5	1	0.37	1.0079
13345	NC=O	907	MPD2	N1	1	-0.547	14.0067
13346	HNCO	907	MPD2	H7	1	0.37	1.0079
13347	CB	908	MPD2	C	1	-0.15	12.011
13348	CB	908	MPD2	C1	1	0.117	12.011
13349	CB	908	MPD2	C2	1	-0.15	12.011
13350	CB	908	MPD2	C3	1	0.117	12.011
13351	CB	908	MPD2	C4	1	-0.15	12.011
13352	CB	908	MPD2	C5	1	-0.15	12.011
13353	HCMM	908	MPD2	H	1	0.15	1.0079
13354	HCMM	908	MPD2	H1	1	0.15	1.0079
13355	HCMM	908	MPD2	H2	1	0.15	1.0079
13356	HCMM	908	MPD2	H3	1	0.15	1.0079
13357	NC=O	908	MPD2	N	1	-0.547	14.0067
13358	HNCO	908	MPD2	H5	1	0.37	1.0079
13359	NC=O	908	MPD2	N1	1	-0.547	14.0067
13360	HNCO	908	MPD2	H7	1	0.37	1.0079
13361	CB	909	MPD2	C	1	-0.15	12.011
13362	CB	909	MPD2	C1	1	0.117	12.011
13363	CB	909	MPD2	C2	1	-0.15	12.011
13364	CB	909	MPD2	C3	1	0.117	12.011
13365	CB	909	MPD2	C4	1	-0.15	12.011
13366	CB	909	MPD2	C5	1	-0.15	12.011
13367	HCMM	909	MPD2	H	1	0.15	1.0079
13368	HCMM	909	MPD2	H1	1	0.15	1.0079
13369	HCMM	909	MPD2	H2	1	0.15	1.0079
13370	HCMM	909	MPD2	H3	1	0.15	1.0079
13371	NC=O	909	MPD2	N	1	-0.547	14.0067
13372	HNCO	909	MPD2	H5	1	0.37	1.0079
13373	NC=O	909	MPD2	N1	1	-0.547	14.0067
13374	HNCO	909	MPD2	H7	1	0.37	1.0079
13375	CB	910	MPD2	C	1	-0.15	12.011
13376	CB	910	MPD2	C1	1	0.117	12.011
13377	CB	910	MPD2	C2	1	-0.15	12.011
13378	CB	910	MPD2	C3	1	0.117	12.011
13379	CB	910	MPD2	C4	1	-0.15	12.011
13380	CB	910	MPD2	C5	1	-0.15	12.011
13381	HCMM	910	MPD2	H	1	0.15	1.0079
13382	HCMM	910	MPD2	H1	1	0.15	1.0079
13383	HCMM	910	MPD2	H2	1	0.15	1.0079
13384	HCMM	910	MPD2	H3	1	0.15	1.0079
13385	NC=O	910	MPD2	N	1	-0.547	14.0067
13386	HNCO	910	MPD2	H5	1	0.37	1.0079
13387	NC=O	910	MPD2	N1	1	-0.547	14.0067
13388	HNCO	910	MPD2	H7	1	0.37	1.0079
13389	CB	911	MPD2	C	1	-0.15	12.011
13390	CB	911	MPD2	C1	1	0.117	12.011
13391	CB	911	MPD2	C2	1	-0.15	12.011
13392	CB	911	MPD2	C3	1	0.117	12.011
13393	CB	911	MPD2	C4	1	-0.15	12.011
13394	CB	911	MPD2	C5	1	-0.15	12.011
13395	HCMM	911	MPD2	H	1	0.15	1.0079
13396	HCMM	911	MPD2	H1	1	0.15	1.0079
13397	HCMM	911	MPD2	H2	1	0.15	1.0079
13398	HCMM	911	MPD2	H3	1	0.15	1.0079
13399	NC=O	911	MPD2	N	1	-0.547	14.0067
13400	HNCO	911	MPD2	H5	1	0.37	1.0079
13401	NC=O	911	MPD2	N1	1	-0.547	14.0067
13402	HNCO	911	MPD2	H7	1	0.37	1.0079
13403	CB	912	MPD2	C	1	-0.15	12.011
13404	CB	912	MPD2	C1	1	0.117	12.011
13405	CB	912	MPD2	C2	1	-0.15	12.011
13406	CB	912	MPD2	C3	1	0.117	12.011
13407	CB	912	MPD2	C4	1	-0.15	12.011
13408	CB	912	MPD2	C5	1	-0.15	12.011
13409	HCMM	912	MPD2	H	1	0.15	1.0079
13410	HCMM	912	MPD2	H1	1	0.15	1.0079
13411	HCMM	912	MPD2	H2	1	0.15	1.0079
13412	HCMM	912	MPD2	H3	1	0.15	1.0079
13413	NC=O	912	MPD2	N	1	-0.547	14.0067
13414	HNCO	912	MPD2	H5	1	0.37	1.0079
13415	NC=O	912	MPD2	N1	1	-0.547	14.0067
13416	HNCO	912	MPD2	H7	1	0.37	1.0079
13417	CB	913	MPD2	C	1	-0.15	12.011
13418	CB	913	MPD2	C1	1	0.117	12.011
13419	CB	913	MPD2	C2	1	-0.15	12.011
13420	CB	913	MPD2	C3	1	0.117	12.011
13421	CB	913	MPD2	C4	1	-0.15	12.011
13422	CB	913	MPD2	C5	1	-0.15	12.011
13423	HCMM	913	MPD2	H	1	0.15	1.0079
13424	HCMM	913	MPD2	H1	1	0.15	1.0079
13425	HCMM	913	MPD2	H2	1	0.15	1.0079
13426	HCMM	913	MPD2	H3	1	0.15	1.0079
13427	NC=O	913	MPD2	N	1	-0.547	14.0067
13428	HNCO	913	MPD2	H5	1	0.37	1.0079
13429	NC=O	913	MPD2	N1	1	-0.547	14.0067
13430	HNCO	913	MPD2	H7	1	0.37	1.0079
13431	CB	914	MPD2	C	1	-0.15	12.011
13432	CB	914	MPD2	C1	1	0.117	12.011
13433	CB	914	MPD2	C2	1	-0.15	12.011
13434	CB	914	MPD2	C3	1	0.117	12.011
13435	CB	914	MPD2	C4	1	-0.15	12.011
13436	CB	914	MPD2	C5	1	-0.15	12.011
13437	HCMM	914	MPD2	H	1	0.15	1.0079
13438	HCMM	914	MPD2	H1	1	0.15	1.0079
13439	HCMM	914	MPD2	H2	1	0.15	1.0079
13440	HCMM	914	MPD2	H3	1	0.15	1.0079
13441	NC=O	914	MPD2	N	1	-0.547	14.0067
13442	HNCO	914	MPD2	H5	1	0.37	1.0079
13443	NC=O	914	MPD2	N1	1	-0.547	14.0067
13444	HNCO	914	MPD2	H7	1	0.37	1.0079
13445	CB	915	MPD2	C	1	-0.15	12.011
13446	CB	915	MPD2	C1	1	0.117	12.011
13447	CB	915	MPD2	C2	1	-0.15	12.011
13448	CB	915	MPD2	C3	1	0.117	12.011
13449	CB	915	MPD2	C4	1	-0.15	12.011
13450	CB	915	MPD2	C5	1	-0.15	12.011
13451	HCMM	915	MPD2	H	1	0.15	1.0079
13452	HCMM	915	MPD2	H1	1	0.15	1.0079
13453	HCMM	915	MPD2	H2	1	0.15	1.0079
13454	HCMM	915	MPD2	H3	1	0.15	1.0079
13455	NC=O	915	MPD2	N	1	-0.547	14.0067
13456	HNCO	915	MPD2	H5	1	0.37	1.0079
13457	NC=O	915	MPD2	N1	1	-0.547	14.0067
13458	HNCO	915	MPD2	H7	1	0.37	1.0079
13459	CB	916	MPD2	C	1	-0.15	12.011
13460	CB	916	MPD2	C1	1	0.117	12.011
13461	CB	916	MPD2	C2	1	-0.15	12.011
13462	CB	916	MPD2	C3	1	0.117	12.011
13463	CB	916	MPD2	C4	1	-0.15	12.011
13464	CB	916	MPD2	C5	1	-0.15	12.011
13465	HCMM	916	MPD2	H	1	0.15	1.0079
13466	HCMM	916	MPD2	H1	1	0.15	1.0079
13467	HCMM	916	MPD2	H2	1	0.15	1.0079
13468	HCMM	916	MPD2	H3	1	0.15	1.0079
13469	NC=O	916	MPD2	N	1	-0.547	14.0067
13470	HNCO	916	MPD2	H5	1	0.37	1.0079
13471	NC=O	916	MPD2	N1	1	-0.547	14.0067
13472	HNCO	916	MPD2	H7	1	0.37	1.0079
13473	CB	917	MPD2	C	1	-0.15	12.011
13474	CB	917	MPD2	C1	1	0.117	12.011
13475	CB	917	MPD2	C2	1	-0.15	12.011
13476	CB	917	MPD2	C3	1	0.117	12.011
13477	CB	917	MPD2	C4	1	-0.15	12.011
13478	CB	917	MPD2	C5	1	-0.15	12.011
13479	HCMM	917	MPD2	H	1	0.15	1.0079
13480	HCMM	917	MPD2	H1	1	0.15	1.0079
13481	HCMM	917	MPD2	H2	1	0.15	1.0079
13482	HCMM	917	MPD2	H3	1	0.15	1.0079
13483	NC=O	917	MPD2	N	1	-0.547	14.0067
13484	HNCO	917	MPD2	H5	1	0.37	1.0079
13485	NC=O	917	MPD2	N1	1	-0.547	14.0067
13486	HNCO	917	MPD2	H7	1	0.37	1.0079
13487	CB	918	MPD2	C	1	-0.15	12.011
13488	CB	918	MPD2	C1	1	0.117	12.011
13489	CB	918	MPD2	C2	1	-0.15	12.011
13490	CB	918	MPD2	C3	1	0.117	12.011
13491	CB	918	MPD2	C4	1	-0.15	12.011
13492	CB	918	MPD2	C5	1	-0.15	12.011
13493	HCMM	918	MPD2	H	1	0.15	1.0079
13494	HCMM	918	MPD2	H1	1	0.15	1.0079
13495	HCMM	918	MPD2	H2	1	0.15	1.0079
13496	HCMM	918	MPD2	H3	1	0.15	1.0079
13497	NC=O	918	MPD2	N	1	-0.547	14.0067
13498	HNCO	918	MPD2	H5	1	0.37	1.0079
13499	NC=O	918	MPD2	N1	1	-0.547	14.0067
13500	HNCO	918	MPD2	H7	1	0.37	1.0079
13501	CB	919	MPD2	C	1	-0.15	12.011
13502	CB	919	MPD2	C1	1	0.117	12.011
13503	CB	919	MPD2	C2	1	-0.15	12.011
13504	CB	919	MPD2	C3	1	0.117	12.011
13505	CB	919	MPD2	C4	1	-0.15	12.011
13506	CB	919	MPD2	C5	1	-0.15	12.011
13507	HCMM	919	MPD2	H	1	0.15	1.0079
13508	HCMM	919	MPD2	H1	1	0.15	1.0079
13509	HCMM	919	MPD2	H2	1	0.15	1.0079
13510	HCMM	919	MPD2	H3	1	0.15	1.0079
13511	NC=O	919	MPD2	N	1	-0.547	14.0067
13512	HNCO	919	MPD2	H5	1	0.37	1.0079
13513	NC=O	919	MPD2	N1	1	-0.547	14.0067
13514	HNCO	919	MPD2	H7	1	0.37	1.0079
13515	CB	920	MPD2	C	1	-0.15	12.011
13516	CB	920	MPD2	C1	1	0.117	12.011
13517	CB	920	MPD2	C2	1	-0.15	12.011
13518	CB	920	MPD2	C3	1	0.117	12.011
13519	CB	920	MPD2	C4	1	-0.15	12.011
13520	CB	920	MPD2	C5	1	-0.15	12.011
13521	HCMM	920	MPD2	H	1	0.15	1.0079
13522	HCMM	920	MPD2	H1	1	0.15	1.0079
13523	HCMM	920	MPD2	H2	1	0.15	1.0079
13524	HCMM	920	MPD2	H3	1	0.15	1.0079
13525	NC=O	920	MPD2	N	1	-0.547	14.0067
13526	HNCO	920	MPD2	H5	1	0.37	1.0079
13527	NC=O	920	MPD2	N1	1	-0.547	14.0067
13528	HNCO	920	MPD2	H7	1	0.37	1.0079
13529	CB	921	MPD2	C	1	-0.15	12.011
13530	CB	921	MPD2	C1	1	0.117	12.011
13531	CB	921	MPD2	C2	1	-0.15	12.011
13532	CB	921	MPD2	C3	1	0.117	12.011
13533	CB	921	MPD2	C4	1	-0.15	12.011
13534	CB	921	MPD2	C5	1	-0.15	12.011
13535	HCMM	921	MPD2	H	1	0.15	1.0079
13536	HCMM	921	MPD2	H1	1	0.15	1.0079
13537	HCMM	921	MPD2	H2	1	0.15	1.0079
13538	HCMM	921	MPD2	H3	1	0.15	1.0079
13539	NC=O	921	MPD2	N	1	-0.547	14.0067
13540	HNCO	921	MPD2	H5	1	0.37	1.0079
13541	NC=O	921	MPD2	N1	1	-0.547	14.0067
13542	HNCO	921	MPD2	H7	1	0.37	1.0079
13543	CB	922	MPD2	C	1	-0.15	12.011
13544	CB	922	MPD2	C1	1	0.117	12.011
13545	CB	922	MPD2	C2	1	-0.15	12.011
13546	CB	922	MPD2	C3	1	0.117	12.011
13547	CB	922	MPD2	C4	1	-0.15	12.011
13548	CB	922	MPD2	C5	1	-0.15	12.011
13549	HCMM	922	MPD2	H	1	0.15	1.0079
13550	HCMM	922	MPD2	H1	1	0.15	1.0079
13551	HCMM	922	MPD2	H2	1	0.15	1.0079
13552	HCMM	922	MPD2	H3	1	0.15	1.0079
13553	NC=O	922	MPD2	N	1	-0.547	14.0067
13554	HNCO	922	MPD2	H5	1	0.37	1.0079
13555	NC=O	922	MPD2	N1	1	-0.547	14.0067
13556	HNCO	922	MPD2	H7	1	0.37	1.0079
13557	CB	923	MPD2	C	1	-0.15	12.011
13558	CB	923	MPD2	C1	1	0.117	12.011
13559	CB	923	MPD2	C2	1	-0.15	12.011
13560	CB	923	MPD2	C3	1	0.117	12.011
13561	CB	923	MPD2	C4	1	-0.15	12.011
13562	CB	923	MPD2	C5	1	-0.15	12.011
13563	HCMM	923	MPD2	H	1	0.15	1.0079
13564	HCMM	923	MPD2	H1	1	0.15	1.0079
13565	HCMM	923	MPD2	H2	1	0.15	1.0079
13566	HCMM	923	MPD2	H3	1	0.15	1.0079
13567	NC=O	923	MPD2	N	1	-0.547	14.0067
13568	HNCO	923	MPD2	H5	1	0.37	1.0079
13569	NC=O	923	MPD2	N1	1	-0.547	14.0067
13570	HNCO	923	MPD2	H7	1	0.37	1.0079
13571	CB	924	MPD2	C	1	-0.15	12.011
13572	CB	924	MPD2	C1	1	0.117	12.011
13573	CB	924	MPD2	C2	1	-0.15	12.011
13574	CB	924	MPD2	C3	1	0.117	12.011
13575	CB	924	MPD2	C4	1	-0.15	12.011
13576	CB	924	MPD2	C5	1	-0.15	12.011
13577	HCMM	924	MPD2	H	1	0.15	1.0079
13578	HCMM	924	MPD2	H1	1	0.15	1.0079
13579	HCMM	924	MPD2	H2	1	0.15	1.0079
13580	HCMM	924	MPD2	H3	1	0.15	1.0079
13581	NC=O	924	MPD2	N	1	-0.547	14.0067
13582	HNCO	924	MPD2	H5	1	0.37	1.0079
13583	NC=O	924	MPD2	N1	1	-0.547	14.0067
13584	HNCO	924	MPD2	H7	1	0.37	1.0079
13585	CB	925	MPD2	C	1	-0.15	12.011
13586	CB	925	MPD2	C1	1	0.117	12.011
13587	CB	925	MPD2	C2	1	-0.15	12.011
13588	CB	925	MPD2	C3	1	0.117	12.011
13589	CB	925	MPD2	C4	1	-0.15	12.011
13590	CB	925	MPD2	C5	1	-0.15	12.011
13591	HCMM	925	MPD2	H	1	0.15	1.0079
13592	HCMM	925	MPD2	H1	1	0.15	1.0079
13593	HCMM	925	MPD2	H2	1	0.15	1.0079
13594	HCMM	925	MPD2	H3	1	0.15	1.0079
13595	NC=O	925	MPD2	N	1	-0.547	14.0067
13596	HNCO	925	MPD2	H5	1	0.37	1.0079
13597	NC=O	925	MPD2	N1	1	-0.547	14.0067
13598	HNCO	925	MPD2	H7	1	0.37	1.0079
13599	CB	926	MPD2	C	1	-0.15	12.011
13600	CB	926	MPD2	C1	1	0.117	12.011
13601	CB	926	MPD2	C2	1	-0.15	12.011
13602	CB	926	MPD2	C3	1	0.117	12.011
13603	CB	926	MPD2	C4	1	-0.15	12.011
13604	CB	926	MPD2	C5	1	-0.15	12.011
13605	HCMM	926	MPD2	H	1	0.15	1.0079
13606	HCMM	926	MPD2	H1	1	0.15	1.0079
13607	HCMM	926	MPD2	H2	1	0.15	1.0079
13608	HCMM	926	MPD2	H3	1	0.15	1.0079
13609	NC=O	926	MPD2	N	1	-0.547	14.0067
13610	HNCO	926	MPD2	H5	1	0.37	1.0079
13611	NC=O	926	MPD2	N1	1	-0.547	14.0067
13612	HNCO	926	MPD2	H7	1	0.37	1.0079
13613	CB	927	MPD2	C	1	-0.15	12.011
13614	CB	927	MPD2	C1	1	0.117	12.011
13615	CB	927	MPD2	C2	1	-0.15	12.011
13616	CB	927	MPD2	C3	1	0.117	12.011
13617	CB	927	MPD2	C4	1	-0.15	12.011
13618	CB	927	MPD2	C5	1	-0.15	12.011
13619	HCMM	927	MPD2	H	1	0.15	1.0079
13620	HCMM	927	MPD2	H1	1	0.15	1.0079
13621	HCMM	927	MPD2	H2	1	0.15	1.0079
13622	HCMM	927	MPD2	H3	1	0.15	1.0079
13623	NC=O	927	MPD2	N	1	-0.547	14.0067
13624	HNCO	927	MPD2	H5	1	0.37	1.0079
13625	NC=O	927	MPD2	N1	1	-0.547	14.0067
13626	HNCO	927	MPD2	H7	1	0.37	1.0079
13627	CB	928	MPD2	C	1	-0.15	12.011
13628	CB	928	MPD2	C1	1	0.117	12.011
13629	CB	928	MPD2	C2	1	-0.15	12.011
13630	CB	928	MPD2	C3	1	0.117	12.011
13631	CB	928	MPD2	C4	1	-0.15	12.011
13632	CB	928	MPD2	C5	1	-0.15	12.011
13633	HCMM	928	MPD2	H	1	0.15	1.0079
13634	HCMM	928	MPD2	H1	1	0.15	1.0079
13635	HCMM	928	MPD2	H2	1	0.15	1.0079
13636	HCMM	928	MPD2	H3	1	0.15	1.0079
13637	NC=O	928	MPD2	N	1	-0.547	14.0067
13638	HNCO	928	MPD2	H5	1	0.37	1.0079
13639	NC=O	928	MPD2	N1	1	-0.547	14.0067
13640	HNCO	928	MPD2	H7	1	0.37	1.0079
13641	CB	929	MPD2	C	1	-0.15	12.011
13642	CB	929	MPD2	C1	1	0.117	12.011
13643	CB	929	MPD2	C2	1	-0.15	12.011
13644	CB	929	MPD2	C3	1	0.117	12.011
13645	CB	929	MPD2	C4	1	-0.15	12.011
13646	CB	929	MPD2	C5	1	-0.15	12.011
13647	HCMM	929	MPD2	H	1	0.15	1.0079
13648	HCMM	929	MPD2	H1	1	0.15	1.0079
13649	HCMM	929	MPD2	H2	1	0.15	1.0079
13650	HCMM	929	MPD2	H3	1	0.15	1.0079
13651	NC=O	929	MPD2	N	1	-0.547	14.0067
13652	HNCO	929	MPD2	H5	1	0.37	1.0079
13653	NC=O	929	MPD2	N1	1	-0.547	14.0067
13654	HNCO	929	MPD2	H7	1	0.37	1.0079
13655	CB	930	MPD2	C	1	-0.15	12.011
13656	CB	930	MPD2	C1	1	0.117	12.011
13657	CB	930	MPD2	C2	1	-0.15	12.011
13658	CB	930	MPD2	C3	1	0.117	12.011
13659	CB	930	MPD2	C4	1	-0.15	12.011
13660	CB	930	MPD2	C5	1	-0.15	12.011
13661	HCMM	930	MPD2	H	1	0.15	1.0079
13662	HCMM	930	MPD2	H1	1	0.15	1.0079
13663	HCMM	930	MPD2	H2	1	0.15	1.0079
13664	HCMM	930	MPD2	H3	1	0.15	1.0079
13665	NC=O	930	MPD2	N	1	-0.547	14.0067
13666	HNCO	930	MPD2	H5	1	0.37	1.0079
13667	NC=O	930	MPD2	N1	1	-0.547	14.0067
13668	HNCO	930	MPD2	H7	1	0.37	1.0079
13669	CB	931	MPD2	C	1	-0.15	12.011
13670	CB	931	MPD2	C1	1	0.117	12.011
13671	CB	931	MPD2	C2	1	-0.15	12.011
13672	CB	931	MPD2	C3	1	0.117	12.011
13673	CB	931	MPD2	C4	1	-0.15	12.011
13674	CB	931	MPD2	C5	1	-0.15	12.011
13675	HCMM	931	MPD2	H	1	0.15	1.0079
13676	HCMM	931	MPD2	H1	1	0.15	1.0079
13677	HCMM	931	MPD2	H2	1	0.15	1.0079
13678	HCMM	931	MPD2	H3	1	0.15	1.0079
13679	NC=O	931	MPD2	N	1	-0.547	14.0067
13680	HNCO	931	MPD2	H5	1	0.37	1.0079
13681	NC=O	931	MPD2	N1	1	-0.547	14.0067
13682	HNCO	931	MPD2	H7	1	0.37	1.0079
13683	CB	932	MPD2	C	1	-0.15	12.011
13684	CB	932	MPD2	C1	1	0.117	12.011
13685	CB	932	MPD2	C2	1	-0.15	12.011
13686	CB	932	MPD2	C3	1	0.117	12.011
13687	CB	932	MPD2	C4	1	-0.15	12.011
13688	CB	932	MPD2	C5	1	-0.15	12.011
13689	HCMM	932	MPD2	H	1	0.15	1.0079
13690	HCMM	932	MPD2	H1	1	0.15	1.0079
13691	HCMM	932	MPD2	H2	1	0.15	1.0079
13692	HCMM	932	MPD2	H3	1	0.15	1.0079
13693	NC=O	932	MPD2	N	1	-0.547	14.0067
13694	HNCO	932	MPD2	H5	1	0.37	1.0079
13695	NC=O	932	MPD2	N1	1	-0.547	14.0067
13696	HNCO	932	MPD2	H7	1	0.37	1.0079
13697	CB	933	MPD2	C	1	-0.15	12.011
13698	CB	933	MPD2	C1	1	0.117	12.011
13699	CB	933	MPD2	C2	1	-0.15	12.011
13700	CB	933	MPD2	C3	1	0.117	12.011
13701	CB	933	MPD2	C4	1	-0.15	12.011
13702	CB	933	MPD2	C5	1	-0.15	12.011
13703	HCMM	933	MPD2	H	1	0.15	1.0079
13704	HCMM	933	MPD2	H1	1	0.15	1.0079
13705	HCMM	933	MPD2	H2	1	0.15	1.0079
13706	HCMM	933	MPD2	H3	1	0.15	1.0079
13707	NC=O	933	MPD2	N	1	-0.547	14.0067
13708	HNCO	933	MPD2	H5	1	0.37	1.0079
13709	NC=O	933	MPD2	N1	1	-0.547	14.0067
13710	HNCO	933	MPD2	H7	1	0.37	1.0079
13711	CB	934	MPD2	C	1	-0.15	12.011
13712	CB	934	MPD2	C1	1	0.117	12.011
13713	CB	934	MPD2	C2	1	-0.15	12.011
13714	CB	934	MPD2	C3	1	0.117	12.011
13715	CB	934	MPD2	C4	1	-0.15	12.011
13716	CB	934	MPD2	C5	1	-0.15	12.011
13717	HCMM	934	MPD2	H	1	0.15	1.0079
13718	HCMM	934	MPD2	H1	1	0.15	1.0079
13719	HCMM	934	MPD2	H2	1	0.15	1.0079
13720	HCMM	934	MPD2	H3	1	0.15	1.0079
13721	NC=O	934	MPD2	N	1	-0.547	14.0067
13722	HNCO	934	MPD2	H5	1	0.37	1.0079
13723	NC=O	934	MPD2	N1	1	-0.547	14.0067
13724	HNCO	934	MPD2	H7	1	0.37	1.0079
13725	CB	935	MPD2	C	1	-0.15	12.011
13726	CB	935	MPD2	C1	1	0.117	12.011
13727	CB	935	MPD2	C2	1	-0.15	12.011
13728	CB	935	MPD2	C3	1	0.117	12.011
13729	CB	935	MPD2	C4	1	-0.15	12.011
13730	CB	935	MPD2	C5	1	-0.15	12.011
13731	HCMM	935	MPD2	H	1	0.15	1.0079
13732	HCMM	935	MPD2	H1	1	0.15	1.0079
13733	HCMM	935	MPD2	H2	1	0.15	1.0079
13734	HCMM	935	MPD2	H3	1	0.15	1.0079
13735	NC=O	935	MPD2	N	1	-0.547	14.0067
13736	HNCO	935	MPD2	H5	1	0.37	1.0079
13737	NC=O	935	MPD2	N1	1	-0.547	14.0067
13738	HNCO	935	MPD2	H7	1	0.37	1.0079
13739	CB	936	MPD2	C	1	-0.15	12.011
13740	CB	936	MPD2	C1	1	0.117	12.011
13741	CB	936	MPD2	C2	1	-0.15	12.011
13742	CB	936	MPD2	C3	1	0.117	12.011
13743	CB	936	MPD2	C4	1	-0.15	12.011
13744	CB	936	MPD2	C5	1	-0.15	12.011
13745	HCMM	936	MPD2	H	1	0.15	1.0079
13746	HCMM	936	MPD2	H1	1	0.15	1.0079
13747	HCMM	936	MPD2	H2	1	0.15	1.0079
13748	HCMM	936	MPD2	H3	1	0.15	1.0079
13749	NC=O	936	MPD2	N	1	-0.547	14.0067
13750	HNCO	936	MPD2	H5	1	0.37	1.0079
13751	NC=O	936	MPD2	N1	1	-0.547	14.0067
13752	HNCO	936	MPD2	H7	1	0.37	1.0079
13753	CB	937	MPD2	C	1	-0.15	12.011
13754	CB	937	MPD2	C1	1	0.117	12.011
13755	CB	937	MPD2	C2	1	-0.15	12.011
13756	CB	937	MPD2	C3	1	0.117	12.011
13757	CB	937	MPD2	C4	1	-0.15	12.011
13758	CB	937	MPD2	C5	1	-0.15	12.011
13759	HCMM	937	MPD2	H	1	0.15	1.0079
13760	HCMM	937	MPD2	H1	1	0.15	1.0079
13761	HCMM	937	MPD2	H2	1	0.15	1.0079
13762	HCMM	937	MPD2	H3	1	0.15	1.0079
13763	NC=O	937	MPD2	N	1	-0.547	14.0067
13764	HNCO	937	MPD2	H5	1	0.37	1.0079
13765	NC=O	937	MPD2	N1	1	-0.547	14.0067
13766	HNCO	937	MPD2	H7	1	0.37	1.0079
13767	CB	938	MPD2	C	1	-0.15	12.011
13768	CB	938	MPD2	C1	1	0.117	12.011
13769	CB	938	MPD2	C2	1	-0.15	12.011
13770	CB	938	MPD2	C3	1	0.117	12.011
13771	CB	938	MPD2	C4	1	-0.15	12.011
13772	CB	938	MPD2	C5	1	-0.15	12.011
13773	HCMM	938	MPD2	H	1	0.15	1.0079
13774	HCMM	938	MPD2	H1	1	0.15	1.0079
13775	HCMM	938	MPD2	H2	1	0.15	1.0079
13776	HCMM	938	MPD2	H3	1	0.15	1.0079
13777	NC=O	938	MPD2	N	1	-0.547	14.0067
13778	HNCO	938	MPD2	H5	1	0.37	1.0079
13779	NC=O	938	MPD2	N1	1	-0.547	14.0067
13780	HNCO	938	MPD2	H7	1	0.37	1.0079
13781	CB	939	MPD2	C	1	-0.15	12.011
13782	CB	939	MPD2	C1	1	0.117	12.011
13783	CB	939	MPD2	C2	1	-0.15	12.011
13784	CB	939	MPD2	C3	1	0.117	12.011
13785	CB	939	MPD2	C4	1	-0.15	12.011
13786	CB	939	MPD2	C5	1	-0.15	12.011
13787	HCMM	939	MPD2	H	1	0.15	1.0079
13788	HCMM	939	MPD2	H1	1	0.15	1.0079
13789	HCMM	939	MPD2	H2	1	0.15	1.0079
13790	HCMM	939	MPD2	H3	1	0.15	1.0079
13791	NC=O	939	MPD2	N	1	-0.547	14.0067
13792	HNCO	939	MPD2	H5	1	0.37	1.0079
13793	NC=O	939	MPD2	N1	1	-0.547	14.0067
13794	HNCO	939	MPD2	H7	1	0.37	1.0079
13795	CB	940	MPD2	C	1	-0.15	12.011
13796	CB	940	MPD2	C1	1	0.117	12.011
13797	CB	940	MPD2	C2	1	-0.15	12.011
13798	CB	940	MPD2	C3	1	0.117	12.011
13799	CB	940	MPD2	C4	1	-0.15	12.011
13800	CB	940	MPD2	C5	1	-0.15	12.011
13801	HCMM	940	MPD2	H	1	0.15	1.0079
13802	HCMM	940	MPD2	H1	1	0.15	1.0079
13803	HCMM	940	MPD2	H2	1	0.15	1.0079
13804	HCMM	940	MPD2	H3	1	0.15	1.0079
13805	NC=O	940	MPD2	N	1	-0.547	14.0067
13806	HNCO	940	MPD2	H5	1	0.37	1.0079
13807	NC=O	940	MPD2	N1	1	-0.547	14.0067
13808	HNCO	940	MPD2	H7	1	0.37	1.0079
13809	CB	941	MPD2	C	1	-0.15	12.011
13810	CB	941	MPD2	C1	1	0.117	12.011
13811	CB	941	MPD2	C2	1	-0.15	12.011
13812	CB	941	MPD2	C3	1	0.117	12.011
13813	CB	941	MPD2	C4	1	-0.15	12.011
13814	CB	941	MPD2	C5	1	-0.15	12.011
13815	HCMM	941	MPD2	H	1	0.15	1.0079
13816	HCMM	941	MPD2	H1	1	0.15	1.0079
13817	HCMM	941	MPD2	H2	1	0.15	1.0079
13818	HCMM	941	MPD2	H3	1	0.15	1.0079
13819	NC=O	941	MPD2	N	1	-0.547	14.0067
13820	HNCO	941	MPD2	H5	1	0.37	1.0079
13821	NC=O	941	MPD2	N1	1	-0.547	14.0067
13822	HNCO	941	MPD2	H7	1	0.37	1.0079
13823	CB	942	MPD2	C	1	-0.15	12.011
13824	CB	942	MPD2	C1	1	0.117	12.011
13825	CB	942	MPD2	C2	1	-0.15	12.011
13826	CB	942	MPD2	C3	1	0.117	12.011
13827	CB	942	MPD2	C4	1	-0.15	12.011
13828	CB	942	MPD2	C5	1	-0.15	12.011
13829	HCMM	942	MPD2	H	1	0.15	1.0079
13830	HCMM	942	MPD2	H1	1	0.15	1.0079
13831	HCMM	942	MPD2	H2	1	0.15	1.0079
13832	HCMM	942	MPD2	H3	1	0.15	1.0079
13833	NC=O	942	MPD2	N	1	-0.547	14.0067
13834	HNCO	942	MPD2	H5	1	0.37	1.0079
13835	NC=O	942	MPD2	N1	1	-0.547	14.0067
13836	HNCO	942	MPD2	H7	1	0.37	1.0079
13837	CB	943	MPD2	C	1	-0.15	12.011
13838	CB	943	MPD2	C1	1	0.117	12.011
13839	CB	943	MPD2	C2	1	-0.15	12.011
13840	CB	943	MPD2	C3	1	0.117	12.011
13841	CB	943	MPD2	C4	1	-0.15	12.011
13842	CB	943	MPD2	C5	1	-0.15	12.011
13843	HCMM	943	MPD2	H	1	0.15	1.0079
13844	HCMM	943	MPD2	H1	1	0.15	1.0079
13845	HCMM	943	MPD2	H2	1	0.15	1.0079
13846	HCMM	943	MPD2	H3	1	0.15	1.0079
13847	NC=O	943	MPD2	N	1	-0.547	14.0067
13848	HNCO	943	MPD2	H5	1	0.37	1.0079
13849	NC=O	943	MPD2	N1	1	-0.547	14.0067
13850	HNCO	943	MPD2	H7	1	0.37	1.0079
13851	CB	944	MPD2	C	1	-0.15	12.011
13852	CB	944	MPD2	C1	1	0.117	12.011
13853	CB	944	MPD2	C2	1	-0.15	12.011
13854	CB	944	MPD2	C3	1	0.117	12.011
13855	CB	944	MPD2	C4	1	-0.15	12.011
13856	CB	944	MPD2	C5	1	-0.15	12.011
13857	HCMM	944	MPD2	H	1	0.15	1.0079
13858	HCMM	944	MPD2	H1	1	0.15	1.0079
13859	HCMM	944	MPD2	H2	1	0.15	1.0079
13860	HCMM	944	MPD2	H3	1	0.15	1.0079
13861	NC=O	944	MPD2	N	1	-0.547	14.0067
13862	HNCO	944	MPD2	H5	1	0.37	1.0079
13863	NC=O	944	MPD2	N1	1	-0.547	14.0067
13864	HNCO	944	MPD2	H7	1	0.37	1.0079

[ bonds ]
5324	5335	1
5335	5336	1
5335	6386	1
5326	5333	1
5333	5334	1
5333	5343	1
5324	5325	1
5323	5324	1
5325	5326	1
5326	5327	1
5325	5329	1
5323	5328	1
5323	5331	1
5327	5328	1
5327	5330	1
5328	5332	1
4583	4594	1
4594	4595	1
4594	5349	1
4585	4592	1
4592	4593	1
4592	4602	1
4583	4584	1
4582	4583	1
4584	4585	1
4585	4586	1
4584	4588	1
4582	4587	1
4582	4590	1
4586	4587	1
4586	4589	1
4587	4591	1
9847	9858	1
9858	9859	1
9858	9866	1
9849	9856	1
9856	9857	1
9856	8748	1
9847	9848	1
9846	9847	1
9848	9849	1
9849	9850	1
9848	9852	1
9846	9851	1
9846	9854	1
9850	9851	1
9850	9853	1
9851	9855	1
5181	5188	1
5188	5189	1
5188	7755	1
5179	5190	1
5190	5191	1
5190	5198	1
5181	5180	1
5182	5181	1
5180	5179	1
5179	5178	1
5180	5184	1
5182	5183	1
5182	5185	1
5178	5183	1
5178	5186	1
5183	5187	1
1369	1380	1
1380	1381	1
1362	1380	1
1371	1378	1
1378	1379	1
1378	7244	1
1369	1370	1
1368	1369	1
1370	1371	1
1371	1372	1
1370	1374	1
1368	1373	1
1368	1376	1
1372	1373	1
1372	1375	1
1373	1377	1
11612	11623	1
11623	11624	1
11623	4607	1
11614	11621	1
11621	11622	1
11621	10018	1
11612	11613	1
11611	11612	1
11613	11614	1
11614	11615	1
11613	11617	1
11611	11616	1
11611	11619	1
11615	11616	1
11615	11618	1
11616	11620	1
2644	2651	1
2651	2652	1
2651	3969	1
2642	2653	1
2653	2654	1
2653	2655	1
2643	2644	1
2644	2645	1
2642	2643	1
2641	2642	1
2643	2647	1
2645	2646	1
2645	2648	1
2641	2646	1
2641	2649	1
2646	2650	1
807	818	1
818	819	1
818	4521	1
809	816	1
816	817	1
795	816	1
807	808	1
806	807	1
808	809	1
809	810	1
808	812	1
806	811	1
806	814	1
810	811	1
810	813	1
811	815	1
11133	11144	1
11144	11145	1
11144	4361	1
11135	11142	1
11142	11143	1
11142	11152	1
11133	11134	1
11132	11133	1
11134	11135	1
11135	11136	1
11134	11138	1
11132	11137	1
11132	11140	1
11136	11137	1
11136	11139	1
11137	11141	1
11558	11565	1
11565	11566	1
11565	4463	1
11556	11567	1
11567	11568	1
11567	7245	1
11558	11557	1
11559	11558	1
11557	11556	1
11556	11555	1
11557	11561	1
11559	11560	1
11559	11562	1
11555	11560	1
11555	11563	1
11560	11564	1
9876	9887	1
9887	9888	1
9887	5991	1
9878	9885	1
9885	9886	1
9885	9895	1
9876	9877	1
9875	9876	1
9877	9878	1
9878	9879	1
9877	9881	1
9875	9880	1
9875	9883	1
9879	9880	1
9879	9882	1
9880	9884	1
7207	7214	1
7214	7215	1
7214	10981	1
7205	7216	1
7216	7217	1
7216	7224	1
7206	7207	1
7207	7208	1
7205	7206	1
7204	7205	1
7206	7210	1
7208	7209	1
7208	7211	1
7204	7209	1
7204	7212	1
7209	7213	1
2854	2861	1
2861	2862	1
2861	5650	1
2852	2863	1
2863	2865	1
2863	2864	1
2853	2854	1
2854	2855	1
2852	2853	1
2851	2852	1
2853	2857	1
2855	2856	1
2855	2858	1
2851	2856	1
2851	2859	1
2856	2860	1
9525	9536	1
9536	9537	1
9536	9544	1
9527	9534	1
9534	9535	1
9534	5320	1
9525	9526	1
9524	9525	1
9526	9527	1
9527	9528	1
9526	9530	1
9524	9529	1
9524	9532	1
9528	9529	1
9528	9531	1
9529	9533	1
13712	13723	1
13723	13724	1
1548	13723	1
13714	13721	1
13721	13722	1
13721	10630	1
13712	13713	1
13711	13712	1
13713	13714	1
13714	13715	1
13713	13717	1
13711	13716	1
13711	13719	1
13715	13716	1
13715	13718	1
13716	13720	1
54	65	1
65	66	1
2553	65	1
56	63	1
63	64	1
40	63	1
54	55	1
53	54	1
55	56	1
56	57	1
55	59	1
53	58	1
53	61	1
57	58	1
57	60	1
58	62	1
9584	9595	1
9595	9596	1
9595	5494	1
9586	9593	1
9593	9594	1
9593	9603	1
9584	9585	1
9583	9584	1
9585	9586	1
9586	9587	1
9585	9589	1
9583	9588	1
9583	9591	1
9587	9588	1
9587	9590	1
9588	9592	1
4234	4245	1
4245	4246	1
4245	10396	1
4236	4243	1
4243	4244	1
4243	4253	1
4234	4235	1
4233	4234	1
4235	4236	1
4236	4237	1
4235	4239	1
4233	4238	1
4233	4241	1
4237	4238	1
4237	4240	1
4238	4242	1
11304	11315	1
11315	11316	1
11315	4055	1
11306	11313	1
11313	11314	1
11313	10455	1
11304	11305	1
11303	11304	1
11305	11306	1
11306	11307	1
11305	11309	1
11303	11308	1
11303	11311	1
11307	11308	1
11307	11310	1
11308	11312	1
12270	12281	1
12281	12282	1
12281	9770	1
12272	12279	1
12279	12280	1
12279	5758	1
12270	12271	1
12269	12270	1
12271	12272	1
12272	12273	1
12271	12275	1
12269	12274	1
12269	12277	1
12273	12274	1
12273	12276	1
12274	12278	1
11360	11371	1
11371	11372	1
11371	4143	1
11362	11369	1
11369	11370	1
11369	7871	1
11360	11361	1
11359	11360	1
11361	11362	1
11362	11363	1
11361	11365	1
11359	11364	1
11359	11367	1
11363	11364	1
11363	11366	1
11364	11368	1
8052	8059	1
8059	8060	1
8059	8069	1
8050	8061	1
8061	8062	1
8061	7172	1
8052	8051	1
8053	8052	1
8051	8050	1
8050	8049	1
8051	8055	1
8053	8054	1
8053	8056	1
8049	8054	1
8049	8057	1
8054	8058	1
9818	9829	1
9829	9830	1
9829	9837	1
9820	9827	1
9827	9828	1
9827	10390	1
9818	9819	1
9817	9818	1
9819	9820	1
9820	9821	1
9819	9823	1
9817	9822	1
9817	9825	1
9821	9822	1
9821	9824	1
9822	9826	1
13782	13793	1
13793	13794	1
1357	13793	1
13784	13791	1
13791	13792	1
1641	13791	1
13782	13783	1
13781	13782	1
13783	13784	1
13784	13785	1
13783	13787	1
13781	13786	1
13781	13789	1
13785	13786	1
13785	13788	1
13786	13790	1
8957	8968	1
8968	8969	1
8968	8976	1
8959	8966	1
8966	8967	1
8966	8543	1
8957	8958	1
8956	8957	1
8958	8959	1
8959	8960	1
8958	8962	1
8956	8961	1
8956	8964	1
8960	8961	1
8960	8963	1
8961	8965	1
10432	10439	1
10439	10440	1
10439	10449	1
10430	10441	1
10441	10442	1
10441	11085	1
10431	10432	1
10432	10433	1
10430	10431	1
10429	10430	1
10431	10435	1
10433	10434	1
10433	10436	1
10429	10434	1
10429	10437	1
10434	10438	1
4946	4957	1
4957	4958	1
4957	4965	1
4948	4955	1
4955	4956	1
4955	11084	1
4946	4947	1
4945	4946	1
4947	4948	1
4948	4949	1
4947	4951	1
4945	4950	1
4945	4953	1
4949	4950	1
4949	4952	1
4950	4954	1
3064	3071	1
3071	3072	1
3071	7449	1
3062	3073	1
3073	3074	1
3073	3075	1
3063	3064	1
3064	3065	1
3062	3063	1
3061	3062	1
3063	3067	1
3065	3066	1
3065	3068	1
3061	3066	1
3061	3069	1
3066	3070	1
10956	10967	1
10967	10968	1
10967	10381	1
10958	10965	1
10965	10966	1
10965	10975	1
10956	10957	1
10955	10956	1
10957	10958	1
10958	10959	1
10957	10961	1
10955	10960	1
10955	10963	1
10959	10960	1
10959	10962	1
10960	10964	1
11962	11973	1
11973	11974	1
2138	11973	1
11964	11971	1
11971	11972	1
11971	5174	1
11962	11963	1
11961	11962	1
11963	11964	1
11964	11965	1
11963	11967	1
11961	11966	1
11961	11969	1
11965	11966	1
11965	11968	1
11966	11970	1
8623	8630	1
8630	8631	1
8630	8640	1
8621	8632	1
8632	8633	1
8632	6065	1
8623	8622	1
8624	8623	1
8622	8621	1
8621	8620	1
8622	8626	1
8624	8625	1
8624	8627	1
8620	8625	1
8620	8628	1
8625	8629	1
3317	3328	1
3328	3330	1
3328	3329	1
3319	3326	1
3326	3327	1
3326	8991	1
3317	3318	1
3316	3317	1
3318	3319	1
3319	3320	1
3318	3322	1
3316	3321	1
3316	3324	1
3320	3321	1
3320	3323	1
3321	3325	1
3242	3253	1
3253	3255	1
3253	3254	1
3244	3251	1
3251	3252	1
3251	8582	1
3242	3243	1
3241	3242	1
3243	3244	1
3244	3245	1
3243	3247	1
3241	3246	1
3241	3249	1
3245	3246	1
3245	3248	1
3246	3250	1
2869	2876	1
2876	2877	1
2876	5655	1
2867	2878	1
2878	2879	1
2878	2880	1
2868	2869	1
2869	2870	1
2867	2868	1
2866	2867	1
2868	2872	1
2870	2871	1
2870	2873	1
2866	2871	1
2866	2874	1
2871	2875	1
13418	13429	1
13429	13430	1
13429	8587	1
13420	13427	1
13427	13428	1
13427	8442	1
13418	13419	1
13417	13418	1
13419	13420	1
13420	13421	1
13419	13423	1
13417	13422	1
13417	13425	1
13421	13422	1
13421	13424	1
13422	13426	1
3167	3178	1
3178	3179	1
3178	3180	1
3169	3176	1
3176	3177	1
3176	8148	1
3167	3168	1
3166	3167	1
3168	3169	1
3169	3170	1
3168	3172	1
3166	3171	1
3166	3174	1
3170	3171	1
3170	3173	1
3171	3175	1
2410	2421	1
2421	2422	1
2398	2421	1
2412	2419	1
2419	2420	1
2419	6064	1
2410	2411	1
2409	2410	1
2411	2412	1
2412	2413	1
2411	2415	1
2409	2414	1
2409	2417	1
2413	2414	1
2413	2416	1
2414	2418	1
10051	10062	1
10062	10063	1
10062	10070	1
10053	10060	1
10060	10061	1
10060	11079	1
10051	10052	1
10050	10051	1
10052	10053	1
10053	10054	1
10052	10056	1
10050	10055	1
10050	10058	1
10054	10055	1
10054	10057	1
10055	10059	1
5208	5219	1
5219	5220	1
5219	7390	1
5210	5217	1
5217	5218	1
5217	5227	1
5208	5209	1
5207	5208	1
5209	5210	1
5210	5211	1
5209	5213	1
5207	5212	1
5207	5215	1
5211	5212	1
5211	5214	1
5212	5216	1
11502	11509	1
11509	11510	1
552	11509	1
11500	11511	1
11511	11512	1
11511	4360	1
11501	11502	1
11502	11503	1
11500	11501	1
11499	11500	1
11501	11505	1
11503	11504	1
11503	11506	1
11499	11504	1
11499	11507	1
11504	11508	1
5048	5059	1
5059	5060	1
5059	5067	1
5050	5057	1
5057	5058	1
5057	8382	1
5048	5049	1
5047	5048	1
5049	5050	1
5050	5051	1
5049	5053	1
5047	5052	1
5047	5055	1
5051	5052	1
5051	5054	1
5052	5056	1
280	291	1
291	292	1
266	291	1
282	289	1
289	290	1
289	5933	1
280	281	1
279	280	1
281	282	1
282	283	1
281	285	1
279	284	1
279	287	1
283	284	1
283	286	1
284	288	1
12006	12013	1
12013	12014	1
924	12013	1
12004	12015	1
12015	12016	1
12015	5291	1
12005	12006	1
12006	12007	1
12004	12005	1
12003	12004	1
12005	12009	1
12007	12008	1
12007	12010	1
12003	12008	1
12003	12011	1
12008	12012	1
4205	4216	1
4216	4217	1
4216	4224	1
4207	4214	1
4214	4215	1
4214	7973	1
4205	4206	1
4204	4205	1
4206	4207	1
4207	4208	1
4206	4210	1
4204	4209	1
4204	4212	1
4208	4209	1
4208	4211	1
4209	4213	1
3692	3703	1
3703	3705	1
3703	3704	1
3694	3701	1
3701	3702	1
3701	11005	1
3692	3693	1
3691	3692	1
3693	3694	1
3694	3695	1
3693	3697	1
3691	3696	1
3691	3699	1
3695	3696	1
3695	3698	1
3696	3700	1
11290	11301	1
11301	11302	1
11301	4056	1
11292	11299	1
11299	11300	1
11299	11158	1
11290	11291	1
11289	11290	1
11291	11292	1
11292	11293	1
11291	11295	1
11289	11294	1
11289	11297	1
11293	11294	1
11293	11296	1
11294	11298	1
2732	2743	1
2743	2745	1
2743	2744	1
2734	2741	1
2741	2742	1
2741	4999	1
2732	2733	1
2731	2732	1
2733	2734	1
2734	2735	1
2733	2737	1
2731	2736	1
2731	2739	1
2735	2736	1
2735	2738	1
2736	2740	1
10254	10265	1
10265	10266	1
10265	10273	1
10256	10263	1
10263	10264	1
10263	10815	1
10254	10255	1
10253	10254	1
10255	10256	1
10256	10257	1
10255	10259	1
10253	10258	1
10253	10261	1
10257	10258	1
10257	10260	1
10258	10262	1
12382	12393	1
12393	12394	1
12393	10075	1
12384	12391	1
12391	12392	1
12391	5889	1
12382	12383	1
12381	12382	1
12383	12384	1
12384	12385	1
12383	12387	1
12381	12386	1
12381	12389	1
12385	12386	1
12385	12388	1
12386	12390	1
11696	11707	1
11707	11708	1
1172	11707	1
11698	11705	1
11705	11706	1
11705	4752	1
11696	11697	1
11695	11696	1
11697	11698	1
11698	11699	1
11697	11701	1
11695	11700	1
11695	11703	1
11699	11700	1
11699	11702	1
11700	11704	1
5121	5132	1
5132	5133	1
5132	9331	1
5123	5130	1
5130	5131	1
5130	5140	1
5121	5122	1
5120	5121	1
5122	5123	1
5123	5124	1
5122	5126	1
5120	5125	1
5120	5128	1
5124	5125	1
5124	5127	1
5125	5129	1
10327	10338	1
10338	10339	1
10338	7784	1
10329	10336	1
10336	10337	1
10336	10346	1
10327	10328	1
10326	10327	1
10328	10329	1
10329	10330	1
10328	10332	1
10326	10331	1
10326	10334	1
10330	10331	1
10330	10333	1
10331	10335	1
7628	7639	1
7639	7640	1
7639	7647	1
7630	7637	1
7637	7638	1
7637	10990	1
7628	7629	1
7627	7628	1
7629	7630	1
7630	7631	1
7629	7633	1
7627	7632	1
7627	7635	1
7631	7632	1
7631	7634	1
7632	7636	1
11206	11217	1
11217	11218	1
893	11217	1
11208	11215	1
11215	11216	1
11215	3867	1
11206	11207	1
11205	11206	1
11207	11208	1
11208	11209	1
11207	11211	1
11205	11210	1
11205	11213	1
11209	11210	1
11209	11212	1
11210	11214	1
9135	9142	1
9142	9143	1
9142	9492	1
9133	9144	1
9144	9145	1
9144	9152	1
9134	9135	1
9135	9136	1
9133	9134	1
9132	9133	1
9134	9138	1
9136	9137	1
9136	9139	1
9132	9137	1
9132	9140	1
9137	9141	1
561	568	1
568	569	1
547	568	1
559	570	1
570	571	1
570	5290	1
561	560	1
562	561	1
560	559	1
559	558	1
560	564	1
562	563	1
562	565	1
558	563	1
558	566	1
563	567	1
2989	2996	1
2996	2997	1
2996	6691	1
2987	2998	1
2998	2999	1
2998	3000	1
2988	2989	1
2989	2990	1
2987	2988	1
2986	2987	1
2988	2992	1
2990	2991	1
2990	2993	1
2986	2991	1
2986	2994	1
2991	2995	1
9104	9115	1
9115	9116	1
9115	10454	1
9106	9113	1
9113	9114	1
9113	9123	1
9104	9105	1
9103	9104	1
9105	9106	1
9106	9107	1
9105	9109	1
9103	9108	1
9103	9111	1
9107	9108	1
9107	9110	1
9108	9112	1
13516	13527	1
13527	13528	1
13527	9129	1
13518	13525	1
13525	13526	1
13525	8996	1
13516	13517	1
13515	13516	1
13517	13518	1
13518	13519	1
13517	13521	1
13515	13520	1
13515	13523	1
13519	13520	1
13519	13522	1
13520	13524	1
3424	3431	1
3431	3432	1
3431	9463	1
3422	3433	1
3433	3434	1
3433	3435	1
3423	3424	1
3424	3425	1
3422	3423	1
3421	3422	1
3423	3427	1
3425	3426	1
3425	3428	1
3421	3426	1
3421	3429	1
3426	3430	1
7977	7988	1
7988	7989	1
7988	6967	1
7979	7986	1
7986	7987	1
7986	7996	1
7977	7978	1
7976	7977	1
7978	7979	1
7979	7980	1
7978	7982	1
7976	7981	1
7976	7984	1
7980	7981	1
7980	7983	1
7981	7985	1
1086	1097	1
1097	1098	1
1074	1097	1
1088	1095	1
1095	1096	1
1095	5582	1
1086	1087	1
1085	1086	1
1087	1088	1
1088	1089	1
1087	1091	1
1085	1090	1
1085	1093	1
1089	1090	1
1089	1092	1
1090	1094	1
13502	13513	1
13513	13514	1
13513	10952	1
13504	13511	1
13511	13512	1
13511	8997	1
13502	13503	1
13501	13502	1
13503	13504	1
13504	13505	1
13503	13507	1
13501	13506	1
13501	13509	1
13505	13506	1
13505	13508	1
13506	13510	1
10693	10704	1
10704	10705	1
10704	3968	1
10695	10702	1
10702	10703	1
10702	10712	1
10693	10694	1
10692	10693	1
10694	10695	1
10695	10696	1
10694	10698	1
10692	10697	1
10692	10700	1
10696	10697	1
10696	10699	1
10697	10701	1
5616	5627	1
5627	5628	1
2465	5627	1
5618	5625	1
5625	5626	1
5625	5635	1
5616	5617	1
5615	5616	1
5617	5618	1
5618	5619	1
5617	5621	1
5615	5620	1
5615	5623	1
5619	5620	1
5619	5622	1
5620	5624	1
435	446	1
446	447	1
446	6351	1
437	444	1
444	445	1
423	444	1
435	436	1
434	435	1
436	437	1
437	438	1
436	440	1
434	439	1
434	442	1
438	439	1
438	441	1
439	443	1
7147	7158	1
7158	7159	1
7158	7166	1
7149	7156	1
7156	7157	1
7156	8616	1
7147	7148	1
7146	7147	1
7148	7149	1
7149	7150	1
7148	7152	1
7146	7151	1
7146	7154	1
7150	7151	1
7150	7153	1
7151	7155	1
683	694	1
694	695	1
694	10552	1
685	692	1
692	693	1
671	692	1
683	684	1
682	683	1
684	685	1
685	686	1
684	688	1
682	687	1
682	690	1
686	687	1
686	689	1
687	691	1
6695	6706	1
6706	6707	1
6706	8367	1
6697	6704	1
6704	6705	1
6704	6714	1
6695	6696	1
6694	6695	1
6696	6697	1
6697	6698	1
6696	6700	1
6694	6699	1
6694	6702	1
6698	6699	1
6698	6701	1
6699	6703	1
3484	3491	1
3491	3492	1
3491	9608	1
3482	3493	1
3493	3495	1
3493	3494	1
3483	3484	1
3484	3485	1
3482	3483	1
3481	3482	1
3483	3487	1
3485	3486	1
3485	3488	1
3481	3486	1
3481	3489	1
3486	3490	1
13054	13065	1
13065	13066	1
13065	7624	1
13056	13063	1
13063	13064	1
13063	10278	1
13054	13055	1
13053	13054	1
13055	13056	1
13056	13057	1
13055	13059	1
13053	13058	1
13053	13061	1
13057	13058	1
13057	13060	1
13058	13062	1
11416	11427	1
11427	11428	1
11427	7522	1
11418	11425	1
11425	11426	1
11425	4230	1
11416	11417	1
11415	11416	1
11417	11418	1
11418	11419	1
11417	11421	1
11415	11420	1
11415	11423	1
11419	11420	1
11419	11422	1
11420	11424	1
12760	12771	1
12771	12772	1
2558	12771	1
12762	12769	1
12769	12770	1
12769	6719	1
12760	12761	1
12759	12760	1
12761	12762	1
12762	12763	1
12761	12765	1
12759	12764	1
12759	12767	1
12763	12764	1
12763	12766	1
12764	12768	1
4031	4042	1
4042	4043	1
4042	6282	1
4033	4040	1
4040	4041	1
4040	4050	1
4031	4032	1
4030	4031	1
4032	4033	1
4033	4034	1
4032	4036	1
4030	4035	1
4030	4038	1
4034	4035	1
4034	4037	1
4035	4039	1
2317	2328	1
2328	2329	1
2305	2328	1
2319	2326	1
2326	2327	1
2326	10806	1
2317	2318	1
2316	2317	1
2318	2319	1
2319	2320	1
2318	2322	1
2316	2321	1
2316	2324	1
2320	2321	1
2320	2323	1
2321	2325	1
6637	6648	1
6648	6649	1
6648	6656	1
6639	6646	1
6646	6647	1
6646	8952	1
6637	6638	1
6636	6637	1
6638	6639	1
6639	6640	1
6638	6642	1
6636	6641	1
6636	6644	1
6640	6641	1
6640	6643	1
6641	6645	1
7555	7566	1
7566	7567	1
7566	7574	1
7557	7564	1
7564	7565	1
7564	4637	1
7555	7556	1
7554	7555	1
7556	7557	1
7557	7558	1
7556	7560	1
7554	7559	1
7554	7562	1
7558	7559	1
7558	7561	1
7559	7563	1
12816	12827	1
12827	12828	1
12827	6968	1
12818	12825	1
12825	12826	1
2527	12825	1
12816	12817	1
12815	12816	1
12817	12818	1
12818	12819	1
12817	12821	1
12815	12820	1
12815	12823	1
12819	12820	1
12819	12822	1
12820	12824	1
13026	13037	1
13037	13038	1
13037	9332	1
13028	13035	1
13035	13036	1
13035	7551	1
13026	13027	1
13025	13026	1
13027	13028	1
13028	13029	1
13027	13031	1
13025	13030	1
13025	13033	1
13029	13030	1
13029	13032	1
13030	13034	1
4438	4449	1
4449	4450	1
4449	4457	1
4440	4447	1
4447	4448	1
4447	6938	1
4438	4439	1
4437	4438	1
4439	4440	1
4440	4441	1
4439	4443	1
4437	4442	1
4437	4445	1
4441	4442	1
4441	4444	1
4442	4446	1
10781	10792	1
10792	10793	1
10792	10800	1
10783	10790	1
10790	10791	1
10790	5947	1
10781	10782	1
10780	10781	1
10782	10783	1
10783	10784	1
10782	10786	1
10780	10785	1
10780	10788	1
10784	10785	1
10784	10787	1
10785	10789	1
3707	3718	1
3718	3719	1
3718	3720	1
3709	3716	1
3716	3717	1
3716	11010	1
3707	3708	1
3706	3707	1
3708	3709	1
3709	3710	1
3708	3712	1
3706	3711	1
3706	3714	1
3710	3711	1
3710	3713	1
3711	3715	1
10927	10938	1
10938	10939	1
10938	10922	1
10929	10936	1
10936	10937	1
10936	10946	1
10927	10928	1
10926	10927	1
10928	10929	1
10929	10930	1
10928	10932	1
10926	10931	1
10926	10934	1
10930	10931	1
10930	10933	1
10931	10935	1
3544	3551	1
3551	3552	1
3551	9785	1
3542	3553	1
3553	3554	1
3553	3555	1
3543	3544	1
3544	3545	1
3542	3543	1
3541	3542	1
3543	3547	1
3545	3546	1
3545	3548	1
3541	3546	1
3541	3549	1
3546	3550	1
13012	13023	1
13023	13024	1
13023	7521	1
13014	13021	1
13021	13022	1
13021	9520	1
13012	13013	1
13011	13012	1
13013	13014	1
13014	13015	1
13013	13017	1
13011	13016	1
13011	13019	1
13015	13016	1
13015	13018	1
13016	13020	1
10022	10033	1
10033	10034	1
10033	10041	1
10024	10031	1
10031	10032	1
10031	3998	1
10022	10023	1
10021	10022	1
10023	10024	1
10024	10025	1
10023	10027	1
10021	10026	1
10021	10029	1
10025	10026	1
10025	10028	1
10026	10030	1
11346	11357	1
11357	11358	1
11357	4142	1
11348	11355	1
11355	11356	1
11355	10279	1
11346	11347	1
11345	11346	1
11347	11348	1
11348	11349	1
11347	11351	1
11345	11350	1
11345	11353	1
11349	11350	1
11349	11352	1
11350	11354	1
3454	3461	1
3461	3462	1
3461	9549	1
3452	3463	1
3463	3465	1
3463	3464	1
3453	3454	1
3454	3455	1
3452	3453	1
3451	3452	1
3453	3457	1
3455	3456	1
3455	3458	1
3451	3456	1
3451	3459	1
3456	3460	1
9993	10004	1
10004	10005	1
10004	10012	1
9995	10002	1
10002	10003	1
10002	5348	1
9993	9994	1
9992	9993	1
9994	9995	1
9995	9996	1
9994	9998	1
9992	9997	1
9992	10000	1
9996	9997	1
9996	9999	1
9997	10001	1
4975	4986	1
4986	4987	1
4986	4994	1
4977	4984	1
4984	4985	1
4984	6030	1
4975	4976	1
4974	4975	1
4976	4977	1
4977	4978	1
4976	4980	1
4974	4979	1
4974	4982	1
4978	4979	1
4978	4981	1
4979	4983	1
2627	2638	1
2638	2639	1
2638	2640	1
2629	2636	1
2636	2637	1
2636	3876	1
2627	2628	1
2626	2627	1
2628	2629	1
2629	2630	1
2628	2632	1
2626	2631	1
2626	2634	1
2630	2631	1
2630	2633	1
2631	2635	1
3079	3086	1
3086	3087	1
3086	7478	1
3077	3088	1
3088	3089	1
3088	3090	1
3078	3079	1
3079	3080	1
3077	3078	1
3076	3077	1
3078	3082	1
3080	3081	1
3080	3083	1
3076	3081	1
3076	3084	1
3081	3085	1
6899	6910	1
6910	6911	1
6910	6720	1
6901	6908	1
6908	6909	1
6908	6918	1
6899	6900	1
6898	6899	1
6900	6901	1
6901	6902	1
6900	6904	1
6898	6903	1
6898	6906	1
6902	6903	1
6902	6905	1
6903	6907	1
11990	12001	1
12001	12002	1
12001	5232	1
11992	11999	1
11999	12000	1
11999	8778	1
11990	11991	1
11989	11990	1
11991	11992	1
11992	11993	1
11991	11995	1
11989	11994	1
11989	11997	1
11993	11994	1
11993	11996	1
11994	11998	1
12046	12057	1
12057	12058	1
12057	8074	1
12048	12055	1
12055	12056	1
12055	5451	1
12046	12047	1
12045	12046	1
12047	12048	1
12048	12049	1
12047	12051	1
12045	12050	1
12045	12053	1
12049	12050	1
12049	12052	1
12050	12054	1
590	601	1
601	602	1
601	10464	1
592	599	1
599	600	1
578	599	1
590	591	1
589	590	1
591	592	1
592	593	1
591	595	1
589	594	1
589	597	1
593	594	1
593	596	1
594	598	1
13250	13261	1
13261	13262	1
13261	9683	1
13252	13259	1
13259	13260	1
13259	8205	1
13250	13251	1
13249	13250	1
13251	13252	1
13252	13253	1
13251	13255	1
13249	13254	1
13249	13257	1
13253	13254	1
13253	13256	1
13254	13258	1
12116	12127	1
12127	12128	1
12127	10572	1
12118	12125	1
12125	12126	1
12125	5552	1
12116	12117	1
12115	12116	1
12117	12118	1
12118	12119	1
12117	12121	1
12115	12120	1
12115	12123	1
12119	12120	1
12119	12122	1
12120	12124	1
6448	6459	1
6459	6460	1
1796	6459	1
6450	6457	1
6457	6458	1
6457	6467	1
6448	6449	1
6447	6448	1
6449	6450	1
6450	6451	1
6449	6453	1
6447	6452	1
6447	6455	1
6451	6452	1
6451	6454	1
6452	6456	1
3332	3343	1
3343	3345	1
3343	3344	1
3334	3341	1
3341	3342	1
3341	9035	1
3332	3333	1
3331	3332	1
3333	3334	1
3334	3335	1
3333	3337	1
3331	3336	1
3331	3339	1
3335	3336	1
3335	3338	1
3336	3340	1
3212	3223	1
3223	3225	1
3223	3224	1
3214	3221	1
3221	3222	1
3221	8572	1
3212	3213	1
3211	3212	1
3213	3214	1
3214	3215	1
3213	3217	1
3211	3216	1
3211	3219	1
3215	3216	1
3215	3218	1
3216	3220	1
11738	11749	1
11749	11750	1
11749	8339	1
11740	11747	1
11747	11748	1
11747	4781	1
11738	11739	1
11737	11738	1
11739	11740	1
11740	11741	1
11739	11743	1
11737	11742	1
11737	11745	1
11741	11742	1
11741	11744	1
11742	11746	1
12972	12979	1
12979	12980	1
12979	7404	1
12970	12981	1
12981	12982	1
12981	8718	1
12971	12972	1
12972	12973	1
12970	12971	1
12969	12970	1
12971	12975	1
12973	12974	1
12973	12976	1
12969	12974	1
12969	12977	1
12974	12978	1
12368	12379	1
12379	12380	1
12379	5888	1
12370	12377	1
12377	12378	1
12377	8661	1
12368	12369	1
12367	12368	1
12369	12370	1
12370	12371	1
12369	12373	1
12367	12372	1
12367	12375	1
12371	12372	1
12371	12374	1
12372	12376	1
12396	12407	1
12407	12408	1
12407	5917	1
12398	12405	1
12405	12406	1
12405	10323	1
12396	12397	1
12395	12396	1
12397	12398	1
12398	12399	1
12397	12401	1
12395	12400	1
12395	12403	1
12399	12400	1
12399	12402	1
12400	12404	1
3409	3416	1
3416	3417	1
3416	9186	1
3407	3418	1
3418	3419	1
3418	3420	1
3408	3409	1
3409	3410	1
3407	3408	1
3406	3407	1
3408	3412	1
3410	3411	1
3410	3413	1
3406	3411	1
3406	3414	1
3411	3415	1
9249	9260	1
9260	9261	1
9260	9268	1
9251	9258	1
9258	9259	1
9258	9910	1
9249	9250	1
9248	9249	1
9250	9251	1
9251	9252	1
9250	9254	1
9248	9253	1
9248	9256	1
9252	9253	1
9252	9255	1
9253	9257	1
9467	9478	1
9478	9479	1
9478	8397	1
9469	9476	1
9476	9477	1
9476	9486	1
9467	9468	1
9466	9467	1
9468	9469	1
9469	9470	1
9468	9472	1
9466	9471	1
9466	9474	1
9470	9471	1
9470	9473	1
9471	9475	1
12186	12197	1
12197	12198	1
12197	5611	1
12188	12195	1
12195	12196	1
12195	8294	1
12186	12187	1
12185	12186	1
12187	12188	1
12188	12189	1
12187	12191	1
12185	12190	1
12185	12193	1
12189	12190	1
12189	12192	1
12190	12194	1
5019	5030	1
5030	5031	1
5030	10469	1
5021	5028	1
5028	5029	1
5028	5038	1
5019	5020	1
5018	5019	1
5020	5021	1
5021	5022	1
5020	5024	1
5018	5023	1
5018	5026	1
5022	5023	1
5022	5025	1
5023	5027	1
2021	2032	1
2032	2033	1
2009	2032	1
2023	2030	1
2030	2031	1
2030	4520	1
2021	2022	1
2020	2021	1
2022	2023	1
2023	2024	1
2022	2026	1
2020	2025	1
2020	2028	1
2024	2025	1
2024	2027	1
2025	2029	1
7817	7828	1
7828	7829	1
7828	6923	1
7819	7826	1
7826	7827	1
7826	7836	1
7817	7818	1
7816	7817	1
7818	7819	1
7819	7820	1
7818	7822	1
7816	7821	1
7816	7824	1
7820	7821	1
7820	7823	1
7821	7825	1
6608	6619	1
6619	6620	1
6619	9779	1
6610	6617	1
6617	6618	1
6617	6627	1
6608	6609	1
6607	6608	1
6609	6610	1
6610	6611	1
6609	6613	1
6607	6612	1
6607	6615	1
6611	6612	1
6611	6614	1
6612	6616	1
5528	5539	1
5539	5540	1
5539	5547	1
5530	5537	1
5537	5538	1
5537	8689	1
5528	5529	1
5527	5528	1
5529	5530	1
5530	5531	1
5529	5533	1
5527	5532	1
5527	5535	1
5531	5532	1
5531	5534	1
5532	5536	1
8723	8734	1
8734	8735	1
8734	3997	1
8725	8732	1
8732	8733	1
8732	8742	1
8723	8724	1
8722	8723	1
8724	8725	1
8725	8726	1
8724	8728	1
8722	8727	1
8722	8730	1
8726	8727	1
8726	8729	1
8727	8731	1
12018	12029	1
12029	12030	1
12029	7303	1
12020	12027	1
12027	12028	1
12027	5363	1
12018	12019	1
12017	12018	1
12019	12020	1
12020	12021	1
12019	12023	1
12017	12022	1
12017	12025	1
12021	12022	1
12021	12024	1
12022	12026	1
13726	13737	1
13737	13738	1
2248	13737	1
13728	13735	1
13735	13736	1
13735	10631	1
13726	13727	1
13725	13726	1
13727	13728	1
13728	13729	1
13727	13731	1
13725	13730	1
13725	13733	1
13729	13730	1
13729	13732	1
13730	13734	1
11654	11665	1
11665	11666	1
11665	4666	1
11656	11663	1
11663	11664	1
335	11663	1
11654	11655	1
11653	11654	1
11655	11656	1
11656	11657	1
11655	11659	1
11653	11658	1
11653	11661	1
11657	11658	1
11657	11660	1
11658	11662	1
11458	11469	1
11469	11470	1
11469	4811	1
11460	11467	1
11467	11468	1
11467	4287	1
11458	11459	1
11457	11458	1
11459	11460	1
11460	11461	1
11459	11463	1
11457	11462	1
11457	11465	1
11461	11462	1
11461	11464	1
11462	11466	1
13614	13625	1
13625	13626	1
13625	10558	1
13616	13623	1
13623	13624	1
13623	9872	1
13614	13615	1
13613	13614	1
13615	13616	1
13616	13617	1
13615	13619	1
13613	13618	1
13613	13621	1
13617	13618	1
13617	13620	1
13618	13622	1
10635	10646	1
10646	10647	1
10646	9550	1
10637	10644	1
10644	10645	1
10644	10654	1
10635	10636	1
10634	10635	1
10636	10637	1
10637	10638	1
10636	10640	1
10634	10639	1
10634	10642	1
10638	10639	1
10638	10641	1
10639	10643	1
4365	4376	1
4376	4377	1
4376	11129	1
4367	4374	1
4374	4375	1
4374	4384	1
4365	4366	1
4364	4365	1
4366	4367	1
4367	4368	1
4366	4370	1
4364	4369	1
4364	4372	1
4368	4369	1
4368	4371	1
4369	4373	1
2503	2514	1
2514	2515	1
2491	2514	1
2505	2512	1
2512	2513	1
2512	4608	1
2503	2504	1
2502	2503	1
2504	2505	1
2505	2506	1
2504	2508	1
2502	2507	1
2502	2510	1
2506	2507	1
2506	2509	1
2507	2511	1
12704	12715	1
12715	12716	1
12715	6530	1
12706	12713	1
12713	12714	1
12713	7507	1
12704	12705	1
12703	12704	1
12705	12706	1
12706	12707	1
12705	12709	1
12703	12708	1
12703	12711	1
12707	12708	1
12707	12710	1
12708	12712	1
869	880	1
880	881	1
857	880	1
871	878	1
878	879	1
878	6292	1
869	870	1
868	869	1
870	871	1
871	872	1
870	874	1
868	873	1
868	876	1
872	873	1
872	875	1
873	877	1
5368	5379	1
5379	5380	1
5379	10076	1
5370	5377	1
5377	5378	1
5377	5387	1
5368	5369	1
5367	5368	1
5369	5370	1
5370	5371	1
5369	5373	1
5367	5372	1
5367	5375	1
5371	5372	1
5371	5374	1
5372	5376	1
5866	5873	1
5873	5874	1
5873	5883	1
5864	5875	1
5875	5876	1
5875	5942	1
5866	5865	1
5867	5866	1
5865	5864	1
5864	5863	1
5865	5869	1
5867	5868	1
5867	5870	1
5863	5868	1
5863	5871	1
5868	5872	1
11332	11343	1
11343	11344	1
11343	6734	1
11334	11341	1
11341	11342	1
11341	4114	1
11332	11333	1
11331	11332	1
11333	11334	1
11334	11335	1
11333	11337	1
11331	11336	1
11331	11339	1
11335	11336	1
11335	11338	1
11336	11340	1
3437	3448	1
3448	3449	1
3448	3450	1
3439	3446	1
3446	3447	1
3446	9462	1
3437	3438	1
3436	3437	1
3438	3439	1
3439	3440	1
3438	3442	1
3436	3441	1
3436	3444	1
3440	3441	1
3440	3443	1
3441	3445	1
2145	2156	1
2156	2157	1
2133	2156	1
2147	2154	1
2154	2155	1
2154	9273	1
2145	2146	1
2144	2145	1
2146	2147	1
2147	2148	1
2146	2150	1
2144	2149	1
2144	2152	1
2148	2149	1
2148	2151	1
2149	2153	1
3752	3763	1
3763	3765	1
3763	3764	1
3754	3761	1
3761	3762	1
3761	11173	1
3752	3753	1
3751	3752	1
3753	3754	1
3754	3755	1
3753	3757	1
3751	3756	1
3751	3759	1
3755	3756	1
3755	3758	1
3756	3760	1
9001	9012	1
9012	9013	1
9012	9020	1
9003	9010	1
9010	9011	1
9010	6554	1
9001	9002	1
9000	9001	1
9002	9003	1
9003	9004	1
9002	9006	1
9000	9005	1
9000	9008	1
9004	9005	1
9004	9007	1
9005	9009	1
1741	1752	1
1752	1753	1
1752	8040	1
1743	1750	1
1750	1751	1
1729	1750	1
1741	1742	1
1740	1741	1
1742	1743	1
1743	1744	1
1742	1746	1
1740	1745	1
1740	1748	1
1744	1745	1
1744	1747	1
1745	1749	1
8550	8557	1
8557	8558	1
8557	8567	1
8548	8559	1
8559	8560	1
8559	5422	1
8549	8550	1
8550	8551	1
8548	8549	1
8547	8548	1
8549	8553	1
8551	8552	1
8551	8554	1
8547	8552	1
8547	8555	1
8552	8556	1
12130	12141	1
12141	12142	1
12141	11069	1
12132	12139	1
12139	12140	1
12139	5581	1
12130	12131	1
12129	12130	1
12131	12132	1
12132	12133	1
12131	12135	1
12129	12134	1
12129	12137	1
12133	12134	1
12133	12136	1
12134	12138	1
11598	11609	1
11609	11610	1
11609	11157	1
11600	11607	1
11607	11608	1
11607	4578	1
11598	11599	1
11597	11598	1
11599	11600	1
11600	11601	1
11599	11603	1
11597	11602	1
11597	11605	1
11601	11602	1
11601	11604	1
11602	11606	1
13124	13135	1
13135	13136	1
13135	7870	1
13126	13133	1
13133	13134	1
13133	8879	1
13124	13125	1
13123	13124	1
13125	13126	1
13126	13127	1
13125	13129	1
13123	13128	1
13123	13131	1
13127	13128	1
13127	13130	1
13128	13132	1
2702	2713	1
2713	2714	1
2713	2715	1
2704	2711	1
2711	2712	1
2711	4399	1
2702	2703	1
2701	2702	1
2703	2704	1
2704	2705	1
2703	2707	1
2701	2706	1
2701	2709	1
2705	2706	1
2705	2708	1
2706	2710	1
6098	6109	1
6109	6110	1
6109	7594	1
6100	6107	1
6107	6108	1
6107	6122	1
6098	6099	1
6097	6098	1
6099	6100	1
6100	6101	1
6099	6103	1
6097	6102	1
6097	6105	1
6101	6102	1
6101	6104	1
6102	6106	1
13656	13667	1
13667	13668	1
13667	9988	1
13658	13665	1
13665	13666	1
13665	10352	1
13656	13657	1
13655	13656	1
13657	13658	1
13658	13659	1
13657	13661	1
13655	13660	1
13655	13663	1
13659	13660	1
13659	13662	1
13660	13664	1
3197	3208	1
3208	3209	1
3208	3210	1
3199	3206	1
3206	3207	1
3206	8441	1
3197	3198	1
3196	3197	1
3198	3199	1
3199	3200	1
3198	3202	1
3196	3201	1
3196	3204	1
3200	3201	1
3200	3203	1
3201	3205	1
3154	3161	1
3161	3162	1
3161	8118	1
3152	3163	1
3163	3165	1
3163	3164	1
3153	3154	1
3154	3155	1
3152	3153	1
3151	3152	1
3153	3157	1
3155	3156	1
3155	3158	1
3151	3156	1
3151	3159	1
3156	3160	1
13698	13709	1
13709	13710	1
13709	11055	1
13700	13707	1
13707	13708	1
13707	10514	1
13698	13699	1
13697	13698	1
13699	13700	1
13700	13701	1
13699	13703	1
13697	13702	1
13697	13705	1
13701	13702	1
13701	13704	1
13702	13706	1
3229	3236	1
3236	3237	1
3236	8588	1
3227	3238	1
3238	3240	1
3238	3239	1
3228	3229	1
3229	3230	1
3227	3228	1
3226	3227	1
3228	3232	1
3230	3231	1
3230	3233	1
3226	3231	1
3226	3234	1
3231	3235	1
11030	11041	1
11041	11042	1
11041	11049	1
11032	11039	1
11039	11040	1
1110	11039	1
11030	11031	1
11029	11030	1
11031	11032	1
11032	11033	1
11031	11035	1
11029	11034	1
11029	11037	1
11033	11034	1
11033	11036	1
11034	11038	1
12606	12617	1
12617	12618	1
12617	7229	1
12608	12615	1
12615	12616	1
12615	6326	1
12606	12607	1
12605	12606	1
12607	12608	1
12608	12609	1
12607	12611	1
12605	12610	1
12605	12613	1
12609	12610	1
12609	12612	1
12610	12614	1
12088	12099	1
12099	12100	1
12099	5524	1
12090	12097	1
12097	12098	1
12097	9915	1
12088	12089	1
12087	12088	1
12089	12090	1
12090	12091	1
12089	12093	1
12087	12092	1
12087	12095	1
12091	12092	1
12091	12094	1
12092	12096	1
3272	3283	1
3283	3284	1
3283	3285	1
3274	3281	1
3281	3282	1
3281	8909	1
3272	3273	1
3271	3272	1
3273	3274	1
3274	3275	1
3273	3277	1
3271	3276	1
3271	3279	1
3275	3276	1
3275	3278	1
3276	3280	1
12872	12883	1
12883	12884	1
12883	9390	1
12874	12881	1
12881	12882	1
12881	7085	1
12872	12873	1
12871	12872	1
12873	12874	1
12874	12875	1
12873	12877	1
12871	12876	1
12871	12879	1
12875	12876	1
12875	12878	1
12876	12880	1
8181	8192	1
8192	8193	1
8192	8200	1
8183	8190	1
8190	8191	1
8190	9559	1
8181	8182	1
8180	8181	1
8182	8183	1
8183	8184	1
8182	8186	1
8180	8185	1
8180	8188	1
8184	8185	1
8184	8187	1
8185	8189	1
11586	11593	1
11593	11594	1
11593	5948	1
11584	11595	1
11595	11596	1
11595	4579	1
11586	11585	1
11587	11586	1
11585	11584	1
11584	11583	1
11585	11589	1
11587	11588	1
11587	11590	1
11583	11588	1
11583	11591	1
11588	11592	1
12284	12295	1
12295	12296	1
12295	5787	1
12286	12293	1
12293	12294	1
12293	6181	1
12284	12285	1
12283	12284	1
12285	12286	1
12286	12287	1
12285	12289	1
12283	12288	1
12283	12291	1
12287	12288	1
12287	12290	1
12288	12292	1
13558	13569	1
13569	13570	1
13569	9084	1
13560	13567	1
13567	13568	1
13567	10660	1
13558	13559	1
13557	13558	1
13559	13560	1
13560	13561	1
13559	13563	1
13557	13562	1
13557	13565	1
13561	13562	1
13561	13564	1
13562	13566	1
3034	3041	1
3041	3042	1
3041	7050	1
3032	3043	1
3043	3044	1
3043	3045	1
3033	3034	1
3034	3035	1
3032	3033	1
3031	3032	1
3033	3037	1
3035	3036	1
3035	3038	1
3031	3036	1
3031	3039	1
3036	3040	1
8694	8705	1
8705	8706	1
8705	5757	1
8696	8703	1
8703	8704	1
8703	8713	1
8694	8695	1
8693	8694	1
8695	8696	1
8696	8697	1
8695	8699	1
8693	8698	1
8693	8701	1
8697	8698	1
8697	8700	1
8698	8702	1
5718	5729	1
5729	5730	1
5729	5737	1
5720	5727	1
5727	5728	1
5727	4724	1
5718	5719	1
5717	5718	1
5719	5720	1
5720	5721	1
5719	5723	1
5717	5722	1
5717	5725	1
5721	5722	1
5721	5724	1
5722	5726	1
1927	1938	1
1938	1939	1
1938	10761	1
1929	1936	1
1936	1937	1
1915	1936	1
1927	1928	1
1926	1927	1
1928	1929	1
1929	1930	1
1928	1932	1
1926	1931	1
1926	1934	1
1930	1931	1
1930	1933	1
1931	1935	1
6040	6051	1
6051	6052	1
6051	7239	1
6042	6049	1
6049	6050	1
6049	6059	1
6040	6041	1
6039	6040	1
6041	6042	1
6042	6043	1
6041	6045	1
6039	6044	1
6039	6047	1
6043	6044	1
6043	6046	1
6044	6048	1
13796	13807	1
13807	13808	1
645	13807	1
13798	13805	1
13805	13806	1
1610	13805	1
13796	13797	1
13795	13796	1
13797	13798	1
13798	13799	1
13797	13801	1
13795	13800	1
13795	13803	1
13799	13800	1
13799	13802	1
13800	13804	1
2944	2951	1
2951	2952	1
2951	6559	1
2942	2953	1
2953	2955	1
2953	2954	1
2943	2944	1
2944	2945	1
2942	2943	1
2941	2942	1
2943	2947	1
2945	2946	1
2945	2948	1
2941	2946	1
2941	2949	1
2946	2950	1
9307	9318	1
9318	9319	1
9318	9326	1
9309	9316	1
9316	9317	1
9316	4689	1
9307	9308	1
9306	9307	1
9308	9309	1
9309	9310	1
9308	9312	1
9306	9311	1
9306	9314	1
9310	9311	1
9310	9313	1
9311	9315	1
5501	5508	1
5508	5509	1
5508	4971	1
5499	5510	1
5510	5511	1
5510	5518	1
5500	5501	1
5501	5502	1
5499	5500	1
5498	5499	1
5500	5504	1
5502	5503	1
5502	5505	1
5498	5503	1
5498	5506	1
5503	5507	1
13096	13107	1
13107	13108	1
13107	7725	1
13098	13105	1
13105	13106	1
13105	10820	1
13096	13097	1
13095	13096	1
13097	13098	1
13098	13099	1
13097	13101	1
13095	13100	1
13095	13103	1
13099	13100	1
13099	13102	1
13100	13104	1
12424	12435	1
12435	12436	1
12435	9389	1
12426	12433	1
12433	12434	1
12433	5992	1
12424	12425	1
12423	12424	1
12425	12426	1
12426	12427	1
12425	12429	1
12423	12428	1
12423	12431	1
12427	12428	1
12427	12430	1
12428	12432	1
10825	10836	1
10836	10837	1
10836	6991	1
10827	10834	1
10834	10835	1
10834	10844	1
10825	10826	1
10824	10825	1
10826	10827	1
10827	10828	1
10826	10830	1
10824	10829	1
10824	10832	1
10828	10829	1
10828	10831	1
10829	10833	1
2822	2833	1
2833	2835	1
2833	2834	1
2824	2831	1
2831	2832	1
2831	5421	1
2822	2823	1
2821	2822	1
2823	2824	1
2824	2825	1
2823	2827	1
2821	2826	1
2821	2829	1
2825	2826	1
2825	2828	1
2826	2830	1
13488	13499	1
13499	13500	1
13499	9842	1
13490	13497	1
13497	13498	1
13497	8851	1
13488	13489	1
13487	13488	1
13489	13490	1
13490	13491	1
13489	13493	1
13487	13492	1
13487	13495	1
13491	13492	1
13491	13494	1
13492	13496	1
9747	9754	1
9754	9755	1
9754	9814	1
9745	9756	1
9756	9757	1
9756	9764	1
9746	9747	1
9747	9748	1
9745	9746	1
9744	9745	1
9746	9750	1
9748	9749	1
9748	9751	1
9744	9749	1
9744	9752	1
9749	9753	1
11248	11259	1
11259	11260	1
11259	3911	1
11250	11257	1
11257	11258	1
11257	6604	1
11248	11249	1
11247	11248	1
11249	11250	1
11250	11251	1
11249	11253	1
11247	11252	1
11247	11255	1
11251	11252	1
11251	11254	1
11252	11256	1
11516	11523	1
11523	11524	1
11523	9900	1
11514	11525	1
11525	11526	1
11525	4390	1
11516	11515	1
11517	11516	1
11515	11514	1
11514	11513	1
11515	11519	1
11517	11518	1
11517	11520	1
11513	11518	1
11513	11521	1
11518	11522	1
2672	2683	1
2683	2685	1
2683	2684	1
2674	2681	1
2681	2682	1
2681	4288	1
2672	2673	1
2671	2672	1
2673	2674	1
2674	2675	1
2673	2677	1
2671	2676	1
2671	2679	1
2675	2676	1
2675	2678	1
2676	2680	1
3137	3148	1
3148	3149	1
3148	3150	1
3139	3146	1
3146	3147	1
3146	8103	1
3137	3138	1
3136	3137	1
3138	3139	1
3139	3140	1
3138	3142	1
3136	3141	1
3136	3144	1
3140	3141	1
3140	3143	1
3141	3145	1
13334	13345	1
13345	13346	1
13345	8295	1
13336	13343	1
13343	13344	1
13343	9157	1
13334	13335	1
13333	13334	1
13335	13336	1
13336	13337	1
13335	13339	1
13333	13338	1
13333	13341	1
13337	13338	1
13337	13340	1
13338	13342	1
5791	5802	1
5802	5803	1
5802	7273	1
5793	5800	1
5800	5801	1
5800	5810	1
5791	5792	1
5790	5791	1
5792	5793	1
5793	5794	1
5792	5796	1
5790	5795	1
5790	5798	1
5794	5795	1
5794	5797	1
5795	5799	1
9789	9800	1
9800	9801	1
9800	9808	1
9791	9798	1
9798	9799	1
9798	8470	1
9789	9790	1
9788	9789	1
9790	9791	1
9791	9792	1
9790	9794	1
9788	9793	1
9788	9796	1
9792	9793	1
9792	9795	1
9793	9797	1
10298	10309	1
10309	10310	1
10309	10317	1
10300	10307	1
10307	10308	1
10307	8045	1
10298	10299	1
10297	10298	1
10299	10300	1
10300	10301	1
10299	10303	1
10297	10302	1
10297	10305	1
10301	10302	1
10301	10304	1
10302	10306	1
12956	12967	1
12967	12968	1
12967	7405	1
12958	12965	1
12965	12966	1
12965	10017	1
12956	12957	1
12955	12956	1
12957	12958	1
12958	12959	1
12957	12961	1
12955	12960	1
12955	12963	1
12959	12960	1
12959	12962	1
12960	12964	1
3049	3056	1
3056	3057	1
3056	7331	1
3047	3058	1
3058	3060	1
3058	3059	1
3048	3049	1
3049	3050	1
3047	3048	1
3046	3047	1
3048	3052	1
3050	3051	1
3050	3053	1
3046	3051	1
3046	3054	1
3051	3055	1
10227	10234	1
10234	10235	1
10234	8908	1
10225	10236	1
10236	10237	1
10236	10244	1
10226	10227	1
10227	10228	1
10225	10226	1
10224	10225	1
10226	10230	1
10228	10229	1
10228	10231	1
10224	10229	1
10224	10232	1
10229	10233	1
2882	2893	1
2893	2894	1
2893	2895	1
2884	2891	1
2891	2892	1
2891	5752	1
2882	2883	1
2881	2882	1
2883	2884	1
2884	2885	1
2883	2887	1
2881	2886	1
2881	2889	1
2885	2886	1
2885	2888	1
2886	2890	1
4844	4855	1
4855	4856	1
4855	4878	1
4846	4853	1
4853	4854	1
4853	4863	1
4844	4845	1
4843	4844	1
4845	4846	1
4846	4847	1
4845	4849	1
4843	4848	1
4843	4851	1
4847	4848	1
4847	4850	1
4848	4852	1
6302	6313	1
6313	6314	1
6313	6501	1
6304	6311	1
6311	6312	1
6311	6321	1
6302	6303	1
6301	6302	1
6303	6304	1
6304	6305	1
6303	6307	1
6301	6306	1
6301	6309	1
6305	6306	1
6305	6308	1
6306	6310	1
12620	12631	1
12631	12632	1
1822	12631	1
12622	12629	1
12629	12630	1
12629	6341	1
12620	12621	1
12619	12620	1
12621	12622	1
12622	12623	1
12621	12625	1
12619	12624	1
12619	12627	1
12623	12624	1
12623	12626	1
12624	12628	1
5762	5773	1
5773	5774	1
5773	9871	1
5764	5771	1
5771	5772	1
5771	5781	1
5762	5763	1
5761	5762	1
5763	5764	1
5764	5765	1
5763	5767	1
5761	5766	1
5761	5769	1
5765	5766	1
5765	5768	1
5766	5770	1
8475	8486	1
8486	8487	1
8486	5479	1
8477	8484	1
8484	8485	1
8484	8494	1
8475	8476	1
8474	8475	1
8476	8477	1
8477	8478	1
8476	8480	1
8474	8479	1
8474	8482	1
8478	8479	1
8478	8481	1
8479	8483	1
1958	1969	1
1969	1970	1
1969	1971	1
1960	1967	1
1967	1968	1
1946	1967	1
1958	1959	1
1957	1958	1
1959	1960	1
1960	1961	1
1959	1963	1
1957	1962	1
1957	1965	1
1961	1962	1
1961	1964	1
1962	1966	1
7176	7187	1
7187	7188	1
7187	6443	1
7178	7185	1
7185	7186	1
7185	7200	1
7176	7177	1
7175	7176	1
7177	7178	1
7178	7179	1
7177	7181	1
7175	7180	1
7175	7183	1
7179	7180	1
7179	7182	1
7180	7184	1
5426	5437	1
5437	5438	1
5437	5445	1
5428	5435	1
5435	5436	1
5435	10688	1
5426	5427	1
5425	5426	1
5427	5428	1
5428	5429	1
5427	5431	1
5425	5430	1
5425	5433	1
5429	5430	1
5429	5432	1
5430	5434	1
12690	12701	1
12701	12702	1
12701	7171	1
12692	12699	1
12699	12700	1
12699	6531	1
12690	12691	1
12689	12690	1
12691	12692	1
12692	12693	1
12691	12695	1
12689	12694	1
12689	12697	1
12693	12694	1
12693	12696	1
12694	12698	1
7424	7435	1
7435	7436	1
7435	9419	1
7426	7433	1
7433	7434	1
7433	7443	1
7424	7425	1
7423	7424	1
7425	7426	1
7426	7427	1
7425	7429	1
7423	7428	1
7423	7431	1
7427	7428	1
7427	7430	1
7428	7432	1
10196	10207	1
10207	10208	1
1331	10207	1
10198	10205	1
10205	10206	1
10205	10215	1
10196	10197	1
10195	10196	1
10197	10198	1
10198	10199	1
10197	10201	1
10195	10200	1
10195	10203	1
10199	10200	1
10199	10202	1
10200	10204	1
11976	11987	1
11987	11988	1
11987	5233	1
11978	11985	1
11985	11986	1
2310	11985	1
11976	11977	1
11975	11976	1
11977	11978	1
11978	11979	1
11977	11981	1
11975	11980	1
11975	11983	1
11979	11980	1
11979	11982	1
11980	11984	1
8665	8676	1
8676	8677	1
8676	8684	1
8667	8674	1
8674	8675	1
8674	9361	1
8665	8666	1
8664	8665	1
8666	8667	1
8667	8668	1
8666	8670	1
8664	8669	1
8664	8672	1
8668	8669	1
8668	8671	1
8669	8673	1
6185	6196	1
6196	6197	1
6196	7414	1
6187	6194	1
6194	6195	1
6194	6204	1
6185	6186	1
6184	6185	1
6186	6187	1
6187	6188	1
6186	6190	1
6184	6189	1
6184	6192	1
6188	6189	1
6188	6191	1
6189	6193	1
11908	11915	1
11915	11916	1
11915	5117	1
11906	11917	1
11917	11918	1
11917	10573	1
11908	11907	1
11909	11908	1
11907	11906	1
11906	11905	1
11907	11911	1
11909	11910	1
11909	11912	1
11905	11910	1
11905	11913	1
11910	11914	1
7016	7027	1
7027	7028	1
7027	7035	1
7018	7025	1
7025	7026	1
7025	5072	1
7016	7017	1
7015	7016	1
7017	7018	1
7018	7019	1
7017	7021	1
7015	7020	1
7015	7023	1
7019	7020	1
7019	7022	1
7020	7024	1
4263	4274	1
4274	4275	1
4274	4282	1
4265	4272	1
4272	4273	1
4272	7361	1
4263	4264	1
4262	4263	1
4264	4265	1
4265	4266	1
4264	4268	1
4262	4267	1
4262	4270	1
4266	4267	1
4266	4269	1
4267	4271	1
8884	8895	1
8895	8896	1
8895	8903	1
8886	8893	1
8893	8894	1
8893	9647	1
8884	8885	1
8883	8884	1
8885	8886	1
8886	8887	1
8885	8889	1
8883	8888	1
8883	8891	1
8887	8888	1
8887	8890	1
8888	8892	1
6535	6546	1
6546	6547	1
6546	6560	1
6537	6544	1
6544	6545	1
6544	9769	1
6535	6536	1
6534	6535	1
6536	6537	1
6537	6538	1
6536	6540	1
6534	6539	1
6534	6542	1
6538	6539	1
6538	6541	1
6539	6543	1
10138	10149	1
10149	10150	1
10149	5523	1
10140	10147	1
10147	10148	1
10147	10162	1
10138	10139	1
10137	10138	1
10139	10140	1
10140	10141	1
10139	10143	1
10137	10142	1
10137	10145	1
10141	10142	1
10141	10144	1
10142	10146	1
13000	13007	1
13007	13008	1
1424	13007	1
12998	13009	1
13009	13010	1
13009	7448	1
12999	13000	1
13000	13001	1
12998	12999	1
12997	12998	1
12999	13003	1
13001	13002	1
13001	13004	1
12997	13002	1
12997	13005	1
13002	13006	1
8928	8939	1
8939	8940	1
8939	10288	1
8930	8937	1
8937	8938	1
8937	8947	1
8928	8929	1
8927	8928	1
8929	8930	1
8930	8931	1
8929	8933	1
8927	8932	1
8927	8935	1
8931	8932	1
8931	8934	1
8932	8936	1
9164	9171	1
9171	9172	1
9171	10220	1
9162	9173	1
9173	9174	1
9173	9181	1
9163	9164	1
9164	9165	1
9162	9163	1
9161	9162	1
9163	9167	1
9165	9166	1
9165	9168	1
9161	9166	1
9161	9169	1
9166	9170	1
13460	13471	1
13471	13472	1
13471	8822	1
13462	13469	1
13469	13470	1
1017	13469	1
13460	13461	1
13459	13460	1
13461	13462	1
13462	13463	1
13461	13465	1
13459	13464	1
13459	13467	1
13463	13464	1
13463	13466	1
13464	13468	1
3529	3536	1
3536	3537	1
3536	9784	1
3527	3538	1
3538	3540	1
3538	3539	1
3528	3529	1
3529	3530	1
3527	3528	1
3526	3527	1
3528	3532	1
3530	3531	1
3530	3533	1
3526	3531	1
3526	3534	1
3531	3535	1
12592	12603	1
12603	12604	1
12603	9099	1
12594	12601	1
12601	12602	1
12601	6327	1
12592	12593	1
12591	12592	1
12593	12594	1
12594	12595	1
12593	12597	1
12591	12596	1
12591	12599	1
12595	12596	1
12595	12598	1
12596	12600	1
13320	13331	1
13331	13332	1
13331	10322	1
13322	13329	1
13329	13330	1
13329	8279	1
13320	13321	1
13319	13320	1
13321	13322	1
13322	13323	1
13321	13325	1
13319	13324	1
13319	13327	1
13323	13324	1
13323	13326	1
13324	13328	1
7875	7886	1
7886	7887	1
7886	7894	1
7877	7884	1
7884	7885	1
7884	6385	1
7875	7876	1
7874	7875	1
7876	7877	1
7877	7878	1
7876	7880	1
7874	7879	1
7874	7882	1
7878	7879	1
7878	7881	1
7879	7883	1
12214	12225	1
12225	12226	1
12225	5918	1
12216	12223	1
12223	12224	1
12223	5656	1
12214	12215	1
12213	12214	1
12215	12216	1
12216	12217	1
12215	12219	1
12213	12218	1
12213	12221	1
12217	12218	1
12217	12220	1
12218	12222	1
11472	11483	1
11483	11484	1
11483	7012	1
11474	11481	1
11481	11482	1
11481	4302	1
11472	11473	1
11471	11472	1
11473	11474	1
11474	11475	1
11473	11477	1
11471	11476	1
11471	11479	1
11475	11476	1
11475	11478	1
11476	11480	1
13376	13387	1
13387	13388	1
13387	8398	1
13378	13385	1
13385	13386	1
490	13385	1
13376	13377	1
13375	13376	1
13377	13378	1
13378	13379	1
13377	13381	1
13375	13380	1
13375	13383	1
13379	13380	1
13379	13382	1
13380	13384	1
4815	4826	1
4826	4827	1
2274	4826	1
4817	4824	1
4824	4825	1
4824	4834	1
4815	4816	1
4814	4815	1
4816	4817	1
4817	4818	1
4816	4820	1
4814	4819	1
4814	4822	1
4818	4819	1
4818	4821	1
4819	4823	1
183	194	1
194	195	1
173	194	1
185	192	1
192	193	1
192	6342	1
183	184	1
182	183	1
184	185	1
185	186	1
184	188	1
182	187	1
182	190	1
186	187	1
186	189	1
187	191	1
5455	5466	1
5466	5467	1
5466	5474	1
5457	5464	1
5464	5465	1
5464	9741	1
5455	5456	1
5454	5455	1
5456	5457	1
5457	5458	1
5456	5460	1
5454	5459	1
5454	5462	1
5458	5459	1
5458	5461	1
5459	5463	1
6214	6225	1
6225	6226	1
6225	11025	1
6216	6223	1
6223	6224	1
6223	6233	1
6214	6215	1
6213	6214	1
6215	6216	1
6216	6217	1
6215	6219	1
6213	6218	1
6213	6221	1
6217	6218	1
6217	6220	1
6218	6222	1
2717	2728	1
2728	2730	1
2728	2729	1
2719	2726	1
2726	2727	1
2726	4550	1
2717	2718	1
2716	2717	1
2718	2719	1
2719	2720	1
2718	2722	1
2716	2721	1
2716	2724	1
2720	2721	1
2720	2723	1
2721	2725	1
12718	12729	1
12729	12730	1
12729	6603	1
12720	12727	1
12727	12728	1
12727	8177	1
12718	12719	1
12717	12718	1
12719	12720	1
12720	12721	1
12719	12723	1
12717	12722	1
12717	12725	1
12721	12722	1
12721	12724	1
12722	12726	1
3782	3793	1
3793	3794	1
3793	3795	1
3784	3791	1
3791	3792	1
2076	3791	1
3782	3783	1
3781	3782	1
3783	3784	1
3784	3785	1
3783	3787	1
3781	3786	1
3781	3789	1
3785	3786	1
3785	3788	1
3786	3790	1
13292	13303	1
13303	13304	1
13303	8264	1
13294	13301	1
13301	13302	1
1889	13301	1
13292	13293	1
13291	13292	1
13293	13294	1
13294	13295	1
13293	13297	1
13291	13296	1
13291	13299	1
13295	13296	1
13295	13298	1
13296	13300	1
2779	2786	1
2786	2787	1
2786	5116	1
2777	2788	1
2788	2789	1
2788	2790	1
2778	2779	1
2779	2780	1
2777	2778	1
2776	2777	1
2778	2782	1
2780	2781	1
2780	2783	1
2776	2781	1
2776	2784	1
2781	2785	1
9716	9727	1
9727	9728	1
9727	10249	1
9718	9725	1
9725	9726	1
9725	9735	1
9716	9717	1
9715	9716	1
9717	9718	1
9718	9719	1
9717	9721	1
9715	9720	1
9715	9723	1
9719	9720	1
9719	9722	1
9720	9724	1
12300	12307	1
12307	12308	1
12307	5815	1
12298	12309	1
12309	12310	1
12309	7274	1
12300	12299	1
12301	12300	1
12299	12298	1
12298	12297	1
12299	12303	1
12301	12302	1
12301	12304	1
12297	12302	1
12297	12305	1
12302	12306	1
13110	13121	1
13121	13122	1
13121	9297	1
13112	13119	1
13119	13120	1
13119	7812	1
13110	13111	1
13109	13110	1
13111	13112	1
13112	13113	1
13111	13115	1
13109	13114	1
13109	13117	1
13113	13114	1
13113	13116	1
13114	13118	1
6477	6488	1
6488	6489	1
6488	4492	1
6479	6486	1
6486	6487	1
6486	6496	1
6477	6478	1
6476	6477	1
6478	6479	1
6479	6480	1
6478	6482	1
6476	6481	1
6476	6484	1
6480	6481	1
6480	6483	1
6481	6485	1
6812	6823	1
6823	6824	1
6823	10294	1
6814	6821	1
6821	6822	1
6821	6831	1
6812	6813	1
6811	6812	1
6813	6814	1
6814	6815	1
6813	6817	1
6811	6816	1
6811	6819	1
6815	6816	1
6815	6818	1
6816	6820	1
2839	2846	1
2846	2847	1
2846	5489	1
2837	2848	1
2848	2850	1
2848	2849	1
2838	2839	1
2839	2840	1
2837	2838	1
2836	2837	1
2838	2842	1
2840	2841	1
2840	2843	1
2836	2841	1
2836	2844	1
2841	2845	1
1648	1659	1
1659	1660	1
1659	6414	1
1650	1657	1
1657	1658	1
1636	1657	1
1648	1649	1
1647	1648	1
1649	1650	1
1650	1651	1
1649	1653	1
1647	1652	1
1647	1655	1
1651	1652	1
1651	1654	1
1652	1656	1
7336	7347	1
7347	7348	1
7347	7355	1
7338	7345	1
7345	7346	1
7345	8747	1
7336	7337	1
7335	7336	1
7337	7338	1
7338	7339	1
7337	7341	1
7335	7340	1
7335	7343	1
7339	7340	1
7339	7342	1
7340	7344	1
12522	12533	1
12533	12534	1
12533	10542	1
12524	12531	1
12531	12532	1
12531	6210	1
12522	12523	1
12521	12522	1
12523	12524	1
12524	12525	1
12523	12527	1
12521	12526	1
12521	12529	1
12525	12526	1
12525	12528	1
12526	12530	1
1150	1157	1
1157	1158	1
1136	1157	1
1148	1159	1
1159	1160	1
1159	6763	1
1149	1150	1
1150	1151	1
1148	1149	1
1147	1148	1
1149	1153	1
1151	1152	1
1151	1154	1
1147	1152	1
1147	1155	1
1152	1156	1
11318	11329	1
11329	11330	1
11329	4085	1
11320	11327	1
11327	11328	1
11327	6836	1
11318	11319	1
11317	11318	1
11319	11320	1
11320	11321	1
11319	11323	1
11317	11322	1
11317	11325	1
11321	11322	1
11321	11324	1
11322	11326	1
1055	1066	1
1066	1067	1
1043	1066	1
1057	1064	1
1064	1065	1
1167	1064	1
1055	1056	1
1054	1055	1
1056	1057	1
1057	1058	1
1056	1060	1
1054	1059	1
1054	1062	1
1058	1059	1
1058	1061	1
1059	1063	1
13208	13219	1
13219	13220	1
13219	8573	1
13210	13217	1
13217	13218	1
13217	8147	1
13208	13209	1
13207	13208	1
13209	13210	1
13210	13211	1
13209	13213	1
13207	13212	1
13207	13215	1
13211	13212	1
13211	13214	1
13212	13216	1
8301	8308	1
8308	8309	1
8308	8318	1
8299	8310	1
8310	8311	1
8310	11094	1
8301	8300	1
8302	8301	1
8300	8299	1
8299	8298	1
8300	8304	1
8302	8303	1
8302	8305	1
8298	8303	1
8298	8306	1
8303	8307	1
9365	9376	1
9376	9377	1
9376	9384	1
9367	9374	1
9374	9375	1
9374	9187	1
9365	9366	1
9364	9365	1
9366	9367	1
9367	9368	1
9366	9370	1
9364	9369	1
9364	9372	1
9368	9369	1
9368	9371	1
9369	9373	1
5893	5904	1
5904	5905	1
5904	8280	1
5895	5902	1
5902	5903	1
5902	5912	1
5893	5894	1
5892	5893	1
5894	5895	1
5895	5896	1
5894	5898	1
5892	5897	1
5892	5900	1
5896	5897	1
5896	5899	1
5897	5901	1
2897	2908	1
2908	2909	1
2908	2910	1
2899	2906	1
2906	2907	1
2906	5786	1
2897	2898	1
2896	2897	1
2898	2899	1
2899	2900	1
2898	2902	1
2896	2901	1
2896	2904	1
2900	2901	1
2900	2903	1
2901	2905	1
4888	4899	1
4899	4900	1
4899	4907	1
4890	4897	1
4897	4898	1
4897	10351	1
4888	4889	1
4887	4888	1
4889	4890	1
4890	4891	1
4889	4893	1
4887	4892	1
4887	4895	1
4891	4892	1
4891	4894	1
4892	4896	1
7062	7069	1
7069	7070	1
7069	6473	1
7060	7071	1
7071	7072	1
7071	7079	1
7062	7061	1
7063	7062	1
7061	7060	1
7060	7059	1
7061	7065	1
7063	7064	1
7063	7066	1
7059	7064	1
7059	7067	1
7064	7068	1
12536	12547	1
12547	12548	1
12547	6238	1
12538	12545	1
12545	12546	1
12545	9813	1
12536	12537	1
12535	12536	1
12537	12538	1
12538	12539	1
12537	12541	1
12535	12540	1
12535	12543	1
12539	12540	1
12539	12542	1
12540	12544	1
9220	9231	1
9231	9232	1
9231	9239	1
9222	9229	1
9229	9230	1
9229	10602	1
9220	9221	1
9219	9220	1
9221	9222	1
9222	9223	1
9221	9225	1
9219	9224	1
9219	9227	1
9223	9224	1
9223	9226	1
9224	9228	1
7701	7712	1
7712	7713	1
7712	7720	1
7703	7710	1
7710	7711	1
7710	10567	1
7701	7702	1
7700	7701	1
7702	7703	1
7703	7704	1
7702	7706	1
7700	7705	1
7700	7708	1
7704	7705	1
7704	7707	1
7705	7709	1
3469	3476	1
3476	3477	1
3476	9565	1
3467	3478	1
3478	3480	1
3478	3479	1
3468	3469	1
3469	3470	1
3467	3468	1
3466	3467	1
3468	3472	1
3470	3471	1
3470	3473	1
3466	3471	1
3466	3474	1
3471	3475	1
11864	11875	1
11875	11876	1
11875	6939	1
11866	11873	1
11873	11874	1
11873	5000	1
11864	11865	1
11863	11864	1
11865	11866	1
11866	11867	1
11865	11869	1
11863	11868	1
11863	11871	1
11867	11868	1
11867	11870	1
11868	11872	1
3769	3776	1
3776	3777	1
3776	11187	1
3767	3778	1
3778	3780	1
3778	3779	1
3768	3769	1
3769	3770	1
3767	3768	1
3766	3767	1
3768	3772	1
3770	3771	1
3770	3773	1
3766	3771	1
3766	3774	1
3771	3775	1
3497	3508	1
3508	3509	1
3508	3510	1
3499	3506	1
3506	3507	1
3506	9609	1
3497	3498	1
3496	3497	1
3498	3499	1
3499	3500	1
3498	3502	1
3496	3501	1
3496	3504	1
3500	3501	1
3500	3503	1
3501	3505	1
2257	2264	1
2264	2265	1
2243	2264	1
2255	2266	1
2266	2267	1
2266	9574	1
2256	2257	1
2257	2258	1
2255	2256	1
2254	2255	1
2256	2260	1
2258	2259	1
2258	2261	1
2254	2259	1
2254	2262	1
2259	2263	1
3886	3897	1
3897	3898	1
3897	7516	1
3888	3895	1
3895	3896	1
3895	3905	1
3886	3887	1
3885	3886	1
3887	3888	1
3888	3889	1
3887	3891	1
3885	3890	1
3885	3893	1
3889	3890	1
3889	3892	1
3890	3894	1
12466	12477	1
12477	12478	1
12477	6472	1
12468	12475	1
12475	12476	1
12475	6035	1
12466	12467	1
12465	12466	1
12467	12468	1
12468	12469	1
12467	12471	1
12465	12470	1
12465	12473	1
12469	12470	1
12469	12472	1
12470	12474	1
8519	8530	1
8530	8531	1
8530	9457	1
8521	8528	1
8528	8529	1
8528	8538	1
8519	8520	1
8518	8519	1
8520	8521	1
8521	8522	1
8520	8524	1
8518	8523	1
8518	8526	1
8522	8523	1
8522	8525	1
8523	8527	1
11766	11777	1
11777	11778	1
11777	4839	1
11768	11775	1
11775	11776	1
11775	10601	1
11766	11767	1
11765	11766	1
11767	11768	1
11768	11769	1
11767	11771	1
11765	11770	1
11765	11773	1
11769	11770	1
11769	11772	1
11770	11774	1
13446	13457	1
13457	13458	1
13457	8690	1
13448	13455	1
13455	13456	1
13455	10493	1
13446	13447	1
13445	13446	1
13447	13448	1
13448	13449	1
13447	13451	1
13445	13450	1
13445	13453	1
13449	13450	1
13449	13452	1
13450	13454	1
3124	3131	1
3131	3132	1
3131	7842	1
3122	3133	1
3133	3134	1
3133	3135	1
3123	3124	1
3124	3125	1
3122	3123	1
3121	3122	1
3123	3127	1
3125	3126	1
3125	3128	1
3121	3126	1
3121	3129	1
3126	3130	1
3632	3643	1
3643	3645	1
3643	3644	1
3634	3641	1
3641	3642	1
3641	10805	1
3632	3633	1
3631	3632	1
3633	3634	1
3634	3635	1
3633	3637	1
3631	3636	1
3631	3639	1
3635	3636	1
3635	3638	1
3636	3640	1
12074	12085	1
12085	12086	1
12085	7841	1
12076	12083	1
12083	12084	1
12083	5495	1
12074	12075	1
12073	12074	1
12075	12076	1
12076	12077	1
12075	12079	1
12073	12078	1
12073	12081	1
12077	12078	1
12077	12080	1
12078	12082	1
13182	13189	1
13189	13190	1
13189	8646	1
13180	13191	1
13191	13192	1
13191	8002	1
13181	13182	1
13182	13183	1
13180	13181	1
13179	13180	1
13181	13185	1
13183	13184	1
13183	13186	1
13179	13184	1
13179	13187	1
13184	13188	1
6069	6080	1
6080	6081	1
6080	6088	1
6071	6078	1
6078	6079	1
6078	6336	1
6069	6070	1
6068	6069	1
6070	6071	1
6071	6072	1
6070	6074	1
6068	6073	1
6068	6076	1
6072	6073	1
6072	6075	1
6073	6077	1
3559	3566	1
3566	3567	1
3566	9944	1
3557	3568	1
3568	3569	1
3568	3570	1
3558	3559	1
3559	3560	1
3557	3558	1
3556	3557	1
3558	3562	1
3560	3561	1
3560	3563	1
3556	3561	1
3556	3564	1
3561	3565	1
8446	8457	1
8457	8458	1
8457	8465	1
8448	8455	1
8455	8456	1
8455	5641	1
8446	8447	1
8445	8446	1
8447	8448	1
8448	8449	1
8447	8451	1
8445	8450	1
8445	8453	1
8449	8450	1
8449	8452	1
8450	8454	1
7484	7491	1
7491	7492	1
7491	8333	1
7482	7493	1
7493	7494	1
7493	7501	1
7484	7483	1
7485	7484	1
7483	7482	1
7482	7481	1
7483	7487	1
7485	7486	1
7485	7488	1
7481	7486	1
7481	7489	1
7486	7490	1
13280	13287	1
13287	13288	1
13287	10878	1
13278	13289	1
13289	13290	1
13289	8220	1
13279	13280	1
13280	13281	1
13278	13279	1
13277	13278	1
13279	13283	1
13281	13282	1
13281	13284	1
13277	13282	1
13277	13285	1
13282	13286	1
4612	4623	1
4623	4624	1
4623	4631	1
4614	4621	1
4621	4622	1
4621	6248	1
4612	4613	1
4611	4612	1
4613	4614	1
4614	4615	1
4613	4617	1
4611	4616	1
4611	4619	1
4615	4616	1
4615	4618	1
4616	4620	1
13756	13763	1
13763	13764	1
13763	11100	1
13754	13765	1
13765	13766	1
13765	10951	1
13755	13756	1
13756	13757	1
13754	13755	1
13753	13754	1
13755	13759	1
13757	13758	1
13757	13760	1
13753	13758	1
13753	13761	1
13758	13762	1
13264	13275	1
13275	13276	1
13275	10776	1
13266	13273	1
13273	13274	1
13273	8221	1
13264	13265	1
13263	13264	1
13265	13266	1
13266	13267	1
13265	13269	1
13263	13268	1
13263	13271	1
13267	13268	1
13267	13270	1
13268	13272	1
2052	2063	1
2063	2064	1
2040	2063	1
2054	2061	1
2061	2062	1
2061	10762	1
2052	2053	1
2051	2052	1
2053	2054	1
2054	2055	1
2053	2057	1
2051	2056	1
2051	2059	1
2055	2056	1
2055	2058	1
2056	2060	1
12062	12069	1
12069	12070	1
12069	5480	1
12060	12071	1
12071	12072	1
12071	10411	1
12062	12061	1
12063	12062	1
12061	12060	1
12060	12059	1
12061	12065	1
12063	12064	1
12063	12066	1
12059	12064	1
12059	12067	1
12064	12068	1
4496	4507	1
4507	4508	1
4507	8544	1
4498	4505	1
4505	4506	1
4505	4515	1
4496	4497	1
4495	4496	1
4497	4498	1
4498	4499	1
4497	4501	1
4495	4500	1
4495	4503	1
4499	4500	1
4499	4502	1
4500	4504	1
933	940	1
940	941	1
940	8230	1
931	942	1
942	943	1
919	942	1
932	933	1
933	934	1
931	932	1
930	931	1
932	936	1
934	935	1
934	937	1
930	935	1
930	938	1
935	939	1
2927	2938	1
2938	2939	1
2938	2940	1
2929	2936	1
2936	2937	1
2936	6021	1
2927	2928	1
2926	2927	1
2928	2929	1
2929	2930	1
2928	2932	1
2926	2931	1
2926	2934	1
2930	2931	1
2930	2933	1
2931	2935	1
5996	6007	1
6007	6008	1
6007	6015	1
5998	6005	1
6005	6006	1
6005	6298	1
5996	5997	1
5995	5996	1
5997	5998	1
5998	5999	1
5997	6001	1
5995	6000	1
5995	6003	1
5999	6000	1
5999	6002	1
6000	6004	1
12886	12897	1
12897	12898	1
12897	7113	1
12888	12895	1
12895	12896	1
12895	10380	1
12886	12887	1
12885	12886	1
12887	12888	1
12888	12889	1
12887	12891	1
12885	12890	1
12885	12893	1
12889	12890	1
12889	12892	1
12890	12894	1
3679	3686	1
3686	3687	1
3686	10996	1
3677	3688	1
3688	3689	1
3688	3690	1
3678	3679	1
3679	3680	1
3677	3678	1
3676	3677	1
3678	3682	1
3680	3681	1
3680	3683	1
3676	3681	1
3676	3684	1
3681	3685	1
3724	3731	1
3731	3732	1
3731	11020	1
3722	3733	1
3733	3734	1
3733	3735	1
3723	3724	1
3724	3725	1
3722	3723	1
3721	3722	1
3723	3727	1
3725	3726	1
3725	3728	1
3721	3726	1
3721	3729	1
3726	3730	1
4411	4418	1
4418	4419	1
4418	4428	1
4409	4420	1
4420	4421	1
4420	11011	1
4410	4411	1
4411	4412	1
4409	4410	1
4408	4409	1
4410	4414	1
4412	4413	1
4412	4415	1
4408	4413	1
4408	4416	1
4413	4417	1
5660	5671	1
5671	5672	1
5671	7813	1
5662	5669	1
5669	5670	1
5669	5679	1
5660	5661	1
5659	5660	1
5661	5662	1
5662	5663	1
5661	5665	1
5659	5664	1
5659	5667	1
5663	5664	1
5663	5666	1
5664	5668	1
1524	1535	1
1535	1536	1
1535	6792	1
1526	1533	1
1533	1534	1
1512	1533	1
1524	1525	1
1523	1524	1
1525	1526	1
1526	1527	1
1525	1529	1
1523	1528	1
1523	1531	1
1527	1528	1
1527	1530	1
1528	1532	1
1024	1035	1
1035	1036	1
1012	1035	1
1026	1033	1
1033	1034	1
1033	10425	1
1024	1025	1
1023	1024	1
1025	1026	1
1026	1027	1
1025	1029	1
1023	1028	1
1023	1031	1
1027	1028	1
1027	1030	1
1028	1032	1
652	663	1
663	664	1
640	663	1
654	661	1
661	662	1
2195	661	1
652	653	1
651	652	1
653	654	1
654	655	1
653	657	1
651	656	1
651	659	1
655	656	1
655	658	1
656	660	1
11486	11497	1
11497	11498	1
11497	8515	1
11488	11495	1
11495	11496	1
11495	4331	1
11486	11487	1
11485	11486	1
11487	11488	1
11488	11489	1
11487	11491	1
11485	11490	1
11485	11493	1
11489	11490	1
11489	11492	1
11490	11494	1
4554	4565	1
4565	4566	1
4565	7389	1
4556	4563	1
4563	4564	1
4563	4573	1
4554	4555	1
4553	4554	1
4555	4556	1
4556	4557	1
4555	4559	1
4553	4558	1
4553	4561	1
4557	4558	1
4557	4560	1
4558	4562	1
10724	10731	1
10731	10732	1
10731	10741	1
10722	10733	1
10733	10734	1
10733	4840	1
10724	10723	1
10725	10724	1
10723	10722	1
10722	10721	1
10723	10727	1
10725	10726	1
10725	10728	1
10721	10726	1
10721	10729	1
10726	10730	1
6156	6167	1
6167	6168	1
6167	10405	1
6158	6165	1
6165	6166	1
6165	6175	1
6156	6157	1
6155	6156	1
6157	6158	1
6158	6159	1
6157	6161	1
6155	6160	1
6155	6163	1
6159	6160	1
6159	6162	1
6160	6164	1
13672	13679	1
13679	13680	1
13679	10104	1
13670	13681	1
13681	13682	1
13681	10557	1
13672	13671	1
13673	13672	1
13671	13670	1
13670	13669	1
13671	13675	1
13673	13674	1
13673	13676	1
13669	13674	1
13669	13677	1
13674	13678	1
6843	6850	1
6850	6851	1
6850	6860	1
6841	6852	1
6852	6853	1
6852	4549	1
6842	6843	1
6843	6844	1
6841	6842	1
6840	6841	1
6842	6846	1
6844	6845	1
6844	6847	1
6840	6845	1
6840	6848	1
6845	6849	1
13586	13597	1
13597	13598	1
13597	10718	1
13588	13595	1
13595	13596	1
13595	9418	1
13586	13587	1
13585	13586	1
13587	13588	1
13588	13589	1
13587	13591	1
13585	13590	1
13585	13593	1
13589	13590	1
13589	13592	1
13590	13594	1
1774	1781	1
1781	1782	1
1760	1781	1
1772	1783	1
1783	1784	1
1783	8645	1
1773	1774	1
1774	1775	1
1772	1773	1
1771	1772	1
1773	1777	1
1775	1776	1
1775	1778	1
1771	1776	1
1771	1779	1
1776	1780	1
6768	6779	1
6779	6780	1
6779	10099	1
6770	6777	1
6777	6778	1
6777	6787	1
6768	6769	1
6767	6768	1
6769	6770	1
6770	6771	1
6769	6773	1
6767	6772	1
6767	6775	1
6771	6772	1
6771	6774	1
6772	6776	1
373	384	1
384	385	1
384	8289	1
375	382	1
382	383	1
361	382	1
373	374	1
372	373	1
374	375	1
375	376	1
374	378	1
372	377	1
372	380	1
376	377	1
376	379	1
377	381	1
3184	3191	1
3191	3192	1
3191	8392	1
3182	3193	1
3193	3194	1
3193	3195	1
3183	3184	1
3184	3185	1
3182	3183	1
3181	3182	1
3183	3187	1
3185	3186	1
3185	3188	1
3181	3186	1
3181	3189	1
3186	3190	1
2176	2187	1
2187	2188	1
2164	2187	1
2178	2185	1
2185	2186	1
2185	4297	1
2176	2177	1
2175	2176	1
2177	2178	1
2178	2179	1
2177	2181	1
2175	2180	1
2175	2183	1
2179	2180	1
2179	2182	1
2180	2184	1
11192	11203	1
11203	11204	1
11203	4303	1
11194	11201	1
11201	11202	1
11201	3866	1
11192	11193	1
11191	11192	1
11193	11194	1
11194	11195	1
11193	11197	1
11191	11196	1
11191	11199	1
11195	11196	1
11195	11198	1
11196	11200	1
2083	2094	1
2094	2095	1
2071	2094	1
2085	2092	1
2092	2093	1
2092	6151	1
2083	2084	1
2082	2083	1
2084	2085	1
2085	2086	1
2084	2088	1
2082	2087	1
2082	2090	1
2086	2087	1
2086	2089	1
2087	2091	1
12636	12643	1
12643	12644	1
12643	10747	1
12634	12645	1
12645	12646	1
12645	6357	1
12636	12635	1
12637	12636	1
12635	12634	1
12634	12633	1
12635	12639	1
12637	12638	1
12637	12640	1
12633	12638	1
12633	12641	1
12638	12642	1
6943	6954	1
6954	6955	1
6954	6962	1
6945	6952	1
6952	6953	1
2014	6952	1
6943	6944	1
6942	6943	1
6944	6945	1
6945	6946	1
6944	6948	1
6942	6947	1
6942	6950	1
6946	6947	1
6946	6949	1
6947	6951	1
11810	11817	1
11817	11818	1
11817	8982	1
11808	11819	1
11819	11820	1
11819	4883	1
11809	11810	1
11810	11811	1
11808	11809	1
11807	11808	1
11809	11813	1
11811	11812	1
11811	11814	1
11807	11812	1
11807	11815	1
11812	11816	1
1898	1905	1
1905	1906	1
1905	5358	1
1896	1907	1
1907	1908	1
1884	1907	1
1898	1897	1
1899	1898	1
1897	1896	1
1896	1895	1
1897	1901	1
1899	1900	1
1899	1902	1
1895	1900	1
1895	1903	1
1900	1904	1
12158	12169	1
12169	12170	1
12169	5597	1
12160	12167	1
12167	12168	1
12167	9447	1
12158	12159	1
12157	12158	1
12159	12160	1
12160	12161	1
12159	12163	1
12157	12162	1
12157	12165	1
12161	12162	1
12161	12164	1
12162	12166	1
3259	3266	1
3266	3267	1
3266	8762	1
3257	3268	1
3268	3269	1
3268	3270	1
3258	3259	1
3259	3260	1
3257	3258	1
3256	3257	1
3258	3262	1
3260	3261	1
3260	3263	1
3256	3261	1
3256	3264	1
3261	3265	1
1679	1690	1
1690	1691	1
1667	1690	1
1681	1688	1
1688	1689	1
1688	9843	1
1679	1680	1
1678	1679	1
1680	1681	1
1681	1682	1
1680	1684	1
1678	1683	1
1678	1686	1
1682	1683	1
1682	1685	1
1683	1687	1
9045	9056	1
9056	9057	1
9056	9064	1
9047	9054	1
9054	9055	1
9054	10923	1
9045	9046	1
9044	9045	1
9046	9047	1
9047	9048	1
9046	9050	1
9044	9049	1
9044	9052	1
9048	9049	1
9048	9051	1
9049	9053	1
12452	12463	1
12463	12464	1
12463	8500	1
12454	12461	1
12461	12462	1
12461	6036	1
12452	12453	1
12451	12452	1
12453	12454	1
12454	12455	1
12453	12457	1
12451	12456	1
12451	12459	1
12455	12456	1
12455	12458	1
12456	12460	1
3349	3356	1
3356	3357	1
3356	9085	1
3347	3358	1
3358	3360	1
3358	3359	1
3348	3349	1
3349	3350	1
3347	3348	1
3346	3347	1
3348	3352	1
3350	3351	1
3350	3353	1
3346	3351	1
3346	3354	1
3351	3355	1
2687	2698	1
2698	2700	1
2698	2699	1
2689	2696	1
2696	2697	1
2696	4404	1
2687	2688	1
2686	2687	1
2688	2689	1
2689	2690	1
2688	2692	1
2686	2691	1
2686	2694	1
2690	2691	1
2690	2693	1
2691	2695	1
2657	2668	1
2668	2669	1
2668	2670	1
2659	2666	1
2666	2667	1
2666	4084	1
2657	2658	1
2656	2657	1
2658	2659	1
2659	2660	1
2658	2662	1
2656	2661	1
2656	2664	1
2660	2661	1
2660	2663	1
2661	2665	1
13600	13611	1
13611	13612	1
13611	10133	1
13602	13609	1
13609	13610	1
13609	9667	1
13600	13601	1
13599	13600	1
13601	13602	1
13602	13603	1
13601	13605	1
13599	13604	1
13599	13607	1
13603	13604	1
13603	13606	1
13604	13608	1
7365	7376	1
7376	7377	1
7376	7384	1
7367	7374	1
7374	7375	1
7374	9069	1
7365	7366	1
7364	7365	1
7366	7367	1
7367	7368	1
7366	7370	1
7364	7369	1
7364	7372	1
7368	7369	1
7368	7371	1
7369	7373	1
13530	13541	1
13541	13542	1
13541	9303	1
13532	13539	1
13539	13540	1
13539	9026	1
13530	13531	1
13529	13530	1
13531	13532	1
13532	13533	1
13531	13535	1
13529	13534	1
13529	13537	1
13533	13534	1
13533	13536	1
13534	13538	1
11850	11861	1
11861	11862	1
11861	4941	1
11852	11859	1
11859	11860	1
11859	5262	1
11850	11851	1
11849	11850	1
11851	11852	1
11852	11853	1
11851	11855	1
11849	11854	1
11849	11857	1
11853	11854	1
11853	11856	1
11854	11858	1
12564	12575	1
12575	12576	1
12575	7580	1
12566	12573	1
12573	12574	1
12573	6253	1
12564	12565	1
12563	12564	1
12565	12566	1
12566	12567	1
12565	12569	1
12563	12568	1
12563	12571	1
12567	12568	1
12567	12570	1
12568	12572	1
7846	7857	1
7857	7858	1
7857	7865	1
7848	7855	1
7855	7856	1
7855	7967	1
7846	7847	1
7845	7846	1
7847	7848	1
7848	7849	1
7847	7851	1
7845	7850	1
7845	7853	1
7849	7850	1
7849	7852	1
7850	7854	1
8797	8808	1
8808	8809	1
8808	5685	1
8799	8806	1
8806	8807	1
8806	8816	1
8797	8798	1
8796	8797	1
8798	8799	1
8799	8800	1
8798	8802	1
8796	8801	1
8796	8804	1
8800	8801	1
8800	8803	1
8801	8805	1
11220	11231	1
11231	11232	1
11231	8338	1
11222	11229	1
11229	11230	1
11229	3882	1
11220	11221	1
11219	11220	1
11221	11222	1
11222	11223	1
11221	11225	1
11219	11224	1
11219	11227	1
11223	11224	1
11223	11226	1
11224	11228	1
4699	4710	1
4710	4711	1
4710	4718	1
4701	4708	1
4708	4709	1
4708	7550	1
4699	4700	1
4698	4699	1
4700	4701	1
4701	4702	1
4700	4704	1
4698	4703	1
4698	4706	1
4702	4703	1
4702	4705	1
4703	4707	1
2807	2818	1
2818	2820	1
2818	2819	1
2809	2816	1
2816	2817	1
2816	5319	1
2807	2808	1
2806	2807	1
2808	2809	1
2809	2810	1
2808	2812	1
2806	2811	1
2806	2814	1
2810	2811	1
2810	2813	1
2811	2815	1
1555	1566	1
1566	1567	1
1543	1566	1
1557	1564	1
1564	1565	1
676	1564	1
1555	1556	1
1554	1555	1
1556	1557	1
1557	1558	1
1556	1560	1
1554	1559	1
1554	1562	1
1558	1559	1
1558	1561	1
1559	1563	1
11374	11385	1
11385	11386	1
11385	9521	1
11376	11383	1
11383	11384	1
11383	4171	1
11374	11375	1
11373	11374	1
11375	11376	1
11376	11377	1
11375	11379	1
11373	11378	1
11373	11381	1
11377	11378	1
11377	11380	1
11378	11382	1
4467	4478	1
4478	4479	1
4478	4486	1
4469	4476	1
4476	4477	1
4476	6093	1
4467	4468	1
4466	4467	1
4468	4469	1
4469	4470	1
4468	4472	1
4466	4471	1
4466	4474	1
4470	4471	1
4470	4473	1
4471	4475	1
8152	8163	1
8163	8164	1
8163	8171	1
8154	8161	1
8161	8162	1
8161	5203	1
8152	8153	1
8151	8152	1
8153	8154	1
8154	8155	1
8153	8157	1
8151	8156	1
8151	8159	1
8155	8156	1
8155	8158	1
8156	8160	1
2972	2983	1
2983	2985	1
2983	2984	1
2974	2981	1
2981	2982	1
2981	6575	1
2972	2973	1
2971	2972	1
2973	2974	1
2974	2975	1
2973	2977	1
2971	2976	1
2971	2979	1
2975	2976	1
2975	2978	1
2976	2980	1
7904	7915	1
7915	7916	1
7915	7923	1
7906	7913	1
7913	7914	1
7913	4113	1
7904	7905	1
7903	7904	1
7905	7906	1
7906	7907	1
7905	7909	1
7903	7908	1
7903	7911	1
7907	7908	1
7907	7910	1
7908	7912	1
12032	12043	1
12043	12044	1
12043	5392	1
12034	12041	1
12041	12042	1
12041	9564	1
12032	12033	1
12031	12032	1
12033	12034	1
12034	12035	1
12033	12037	1
12031	12036	1
12031	12039	1
12035	12036	1
12035	12038	1
12036	12040	1
6870	6881	1
6881	6882	1
6881	6889	1
6872	6879	1
6879	6880	1
6879	6574	1
6870	6871	1
6869	6870	1
6871	6872	1
6872	6873	1
6871	6875	1
6869	6874	1
6869	6877	1
6873	6874	1
6873	6876	1
6874	6878	1
342	353	1
353	354	1
353	6117	1
344	351	1
351	352	1
330	351	1
342	343	1
341	342	1
343	344	1
344	345	1
343	347	1
341	346	1
341	349	1
345	346	1
345	348	1
346	350	1
11444	11455	1
11455	11456	1
11455	4258	1
11446	11453	1
11453	11454	1
1455	11453	1
11444	11445	1
11443	11444	1
11445	11446	1
11446	11447	1
11445	11449	1
11443	11448	1
11443	11451	1
11447	11448	1
11447	11450	1
11448	11452	1
7759	7770	1
7770	7771	1
7770	9989	1
7761	7768	1
7768	7769	1
7768	7778	1
7759	7760	1
7758	7759	1
7760	7761	1
7761	7762	1
7760	7764	1
7758	7763	1
7758	7766	1
7762	7763	1
7762	7765	1
7763	7767	1
4525	4536	1
4536	4537	1
4536	4544	1
4527	4534	1
4534	4535	1
4534	8953	1
4525	4526	1
4524	4525	1
4526	4527	1
4527	4528	1
4526	4530	1
4524	4529	1
4524	4532	1
4528	4529	1
4528	4531	1
4529	4533	1
13628	13639	1
13639	13640	1
13639	11054	1
13630	13637	1
13637	13638	1
13637	9901	1
13628	13629	1
13627	13628	1
13629	13630	1
13630	13631	1
13629	13633	1
13627	13632	1
13627	13635	1
13631	13632	1
13631	13634	1
13632	13636	1
6506	6517	1
6517	6518	1
6517	6525	1
6508	6515	1
6515	6516	1
6515	8075	1
6506	6507	1
6505	6506	1
6507	6508	1
6508	6509	1
6507	6511	1
6505	6510	1
6505	6513	1
6509	6510	1
6509	6512	1
6510	6514	1
6361	6372	1
6372	6373	1
6372	6380	1
6363	6370	1
6370	6371	1
6370	10250	1
6361	6362	1
6360	6361	1
6362	6363	1
6363	6364	1
6362	6366	1
6360	6365	1
6360	6368	1
6364	6365	1
6364	6367	1
6365	6369	1
3662	3673	1
3673	3675	1
3673	3674	1
3664	3671	1
3671	3672	1
3671	10980	1
3662	3663	1
3661	3662	1
3663	3664	1
3664	3665	1
3663	3667	1
3661	3666	1
3661	3669	1
3665	3666	1
3665	3668	1
3666	3670	1
12480	12491	1
12491	12492	1
12491	6094	1
12482	12489	1
12489	12490	1
12489	10995	1
12480	12481	1
12479	12480	1
12481	12482	1
12482	12483	1
12481	12485	1
12479	12484	1
12479	12487	1
12483	12484	1
12483	12486	1
12484	12488	1
2534	2545	1
2545	2546	1
2545	7399	1
2536	2543	1
2543	2544	1
2522	2543	1
2534	2535	1
2533	2534	1
2535	2536	1
2536	2537	1
2535	2539	1
2533	2538	1
2533	2541	1
2537	2538	1
2537	2540	1
2538	2542	1
3017	3028	1
3028	3030	1
3028	3029	1
3019	3026	1
3026	3027	1
3026	6933	1
3017	3018	1
3016	3017	1
3018	3019	1
3019	3020	1
3018	3022	1
3016	3021	1
3016	3024	1
3020	3021	1
3020	3023	1
3021	3025	1
6579	6590	1
6590	6591	1
6590	6598	1
6581	6588	1
6588	6589	1
6588	8113	1
6579	6580	1
6578	6579	1
6580	6581	1
6581	6582	1
6580	6584	1
6578	6583	1
6578	6586	1
6582	6583	1
6582	6585	1
6583	6587	1
993	1004	1
1004	1005	1
1004	9711	1
995	1002	1
1002	1003	1
981	1002	1
993	994	1
992	993	1
994	995	1
995	996	1
994	998	1
992	997	1
992	1000	1
996	997	1
996	999	1
997	1001	1
776	787	1
787	788	1
764	787	1
778	785	1
785	786	1
1314	785	1
776	777	1
775	776	1
777	778	1
778	779	1
777	781	1
775	780	1
775	783	1
779	780	1
779	782	1
780	784	1
1340	1347	1
1347	1348	1
1326	1347	1
1338	1349	1
1349	1350	1
1349	5591	1
1340	1339	1
1341	1340	1
1339	1338	1
1338	1337	1
1339	1343	1
1341	1342	1
1341	1344	1
1337	1342	1
1337	1345	1
1342	1346	1
3797	3808	1
3808	3810	1
3808	3809	1
3799	3806	1
3806	3807	1
1486	3806	1
3797	3798	1
3796	3797	1
3798	3799	1
3799	3800	1
3798	3802	1
3796	3801	1
3796	3804	1
3800	3801	1
3800	3803	1
3801	3805	1
12144	12155	1
12155	12156	1
12155	9652	1
12146	12153	1
12153	12154	1
12153	5596	1
12144	12145	1
12143	12144	1
12145	12146	1
12146	12147	1
12145	12149	1
12143	12148	1
12143	12151	1
12147	12148	1
12147	12150	1
12148	12152	1
13364	13371	1
13371	13372	1
13371	8617	1
13362	13373	1
13373	13374	1
13373	8383	1
13364	13363	1
13365	13364	1
13363	13362	1
13362	13361	1
13363	13367	1
13365	13366	1
13365	13368	1
13361	13366	1
13361	13369	1
13366	13370	1
12102	12113	1
12113	12114	1
12113	5553	1
12104	12111	1
12111	12112	1
12111	5742	1
12102	12103	1
12101	12102	1
12103	12104	1
12104	12105	1
12103	12107	1
12101	12106	1
12101	12109	1
12105	12106	1
12105	12108	1
12106	12110	1
9191	9202	1
9202	9203	1
9202	9210	1
9193	9200	1
9200	9201	1
9200	4913	1
9191	9192	1
9190	9191	1
9192	9193	1
9193	9194	1
9192	9196	1
9190	9195	1
9190	9198	1
9194	9195	1
9194	9197	1
9195	9199	1
1196	1207	1
1207	1208	1
1207	5825	1
1198	1205	1
1205	1206	1
1184	1205	1
1196	1197	1
1195	1196	1
1197	1198	1
1198	1199	1
1197	1201	1
1195	1200	1
1195	1203	1
1199	1200	1
1199	1202	1
1200	1204	1
12914	12925	1
12925	12926	1
12925	7201	1
12916	12923	1
12923	12924	1
12923	7419	1
12914	12915	1
12913	12914	1
12915	12916	1
12916	12917	1
12915	12919	1
12913	12918	1
12913	12921	1
12917	12918	1
12917	12920	1
12918	12922	1
3512	3523	1
3523	3524	1
3523	3525	1
3514	3521	1
3521	3522	1
3521	9668	1
3512	3513	1
3511	3512	1
3513	3514	1
3514	3515	1
3513	3517	1
3511	3516	1
3511	3519	1
3515	3516	1
3515	3518	1
3516	3520	1
3094	3101	1
3101	3102	1
3101	7589	1
3092	3103	1
3103	3105	1
3103	3104	1
3093	3094	1
3094	3095	1
3092	3093	1
3091	3092	1
3093	3097	1
3095	3096	1
3095	3098	1
3091	3096	1
3091	3099	1
3096	3100	1
12774	12785	1
12785	12786	1
12785	6866	1
12776	12783	1
12783	12784	1
12783	6735	1
12774	12775	1
12773	12774	1
12775	12776	1
12776	12777	1
12775	12779	1
12773	12778	1
12773	12781	1
12777	12778	1
12777	12780	1
12778	12782	1
3107	3118	1
3118	3120	1
3118	3119	1
3109	3116	1
3116	3117	1
3116	7662	1
3107	3108	1
3106	3107	1
3108	3109	1
3109	3110	1
3108	3112	1
3106	3111	1
3106	3114	1
3110	3111	1
3110	3113	1
3111	3115	1
8123	8134	1
8134	8135	1
8134	8142	1
8125	8132	1
8132	8133	1
8132	8119	1
8123	8124	1
8122	8123	1
8124	8125	1
8125	8126	1
8124	8128	1
8122	8127	1
8122	8130	1
8126	8127	1
8126	8129	1
8127	8131	1
12508	12519	1
12519	12520	1
12519	6180	1
12510	12517	1
12517	12518	1
12517	7084	1
12508	12509	1
12507	12508	1
12509	12510	1
12510	12511	1
12509	12513	1
12507	12512	1
12507	12515	1
12511	12512	1
12511	12514	1
12512	12516	1
4089	4100	1
4100	4101	1
4100	4108	1
4091	4098	1
4098	4099	1
4098	9041	1
4089	4090	1
4088	4089	1
4090	4091	1
4091	4092	1
4090	4094	1
4088	4093	1
4088	4096	1
4092	4093	1
4092	4095	1
4093	4097	1
11752	11763	1
11763	11764	1
11763	4810	1
11754	11761	1
11761	11762	1
11761	6865	1
11752	11753	1
11751	11752	1
11753	11754	1
11754	11755	1
11753	11757	1
11751	11756	1
11751	11759	1
11755	11756	1
11755	11758	1
11756	11760	1
9394	9405	1
9405	9406	1
9405	9413	1
9396	9403	1
9403	9404	1
9403	10221	1
9394	9395	1
9393	9394	1
9395	9396	1
9396	9397	1
9395	9399	1
9393	9398	1
9393	9401	1
9397	9398	1
9397	9400	1
9398	9402	1
12802	12813	1
12813	12814	1
1703	12813	1
12804	12811	1
12811	12812	1
12811	6793	1
12802	12803	1
12801	12802	1
12803	12804	1
12804	12805	1
12803	12807	1
12801	12806	1
12801	12809	1
12805	12806	1
12805	12808	1
12806	12810	1
13810	13821	1
13821	13822	1
1983	13821	1
13812	13819	1
13819	13820	1
521	13819	1
13810	13811	1
13809	13810	1
13811	13812	1
13812	13813	1
13811	13815	1
13809	13814	1
13809	13817	1
13813	13814	1
13813	13816	1
13814	13818	1
10518	10529	1
10529	10530	1
10529	10537	1
10520	10527	1
10527	10528	1
10527	6209	1
10518	10519	1
10517	10518	1
10519	10520	1
10520	10521	1
10519	10523	1
10517	10522	1
10517	10525	1
10521	10522	1
10521	10524	1
10522	10526	1
9613	9624	1
9624	9625	1
9624	9632	1
9615	9622	1
9622	9623	1
9622	4172	1
9613	9614	1
9612	9613	1
9614	9615	1
9615	9616	1
9614	9618	1
9612	9617	1
9612	9620	1
9616	9617	1
9616	9619	1
9617	9621	1
3814	3821	1
3821	3822	1
2403	3821	1
3812	3823	1
3823	3824	1
3823	3825	1
3813	3814	1
3814	3815	1
3812	3813	1
3811	3812	1
3813	3817	1
3815	3816	1
3815	3818	1
3811	3816	1
3811	3819	1
3816	3820	1
12494	12505	1
12505	12506	1
12505	6123	1
12496	12503	1
12503	12504	1
12503	7595	1
12494	12495	1
12493	12494	1
12495	12496	1
12496	12497	1
12495	12499	1
12493	12498	1
12493	12501	1
12497	12498	1
12497	12500	1
12498	12502	1
13432	13443	1
13443	13444	1
13443	8660	1
13434	13441	1
13441	13442	1
13441	9682	1
13432	13433	1
13431	13432	1
13433	13434	1
13434	13435	1
13433	13437	1
13431	13436	1
13431	13439	1
13435	13436	1
13435	13438	1
13436	13440	1
621	632	1
632	633	1
609	632	1
623	630	1
630	631	1
630	4389	1
621	622	1
620	621	1
622	623	1
623	624	1
622	626	1
620	625	1
620	628	1
624	625	1
624	627	1
625	629	1
13404	13415	1
13415	13416	1
13415	8427	1
13406	13413	1
13413	13414	1
13413	8499	1
13404	13405	1
13403	13404	1
13405	13406	1
13406	13407	1
13405	13409	1
13403	13408	1
13403	13411	1
13407	13408	1
13407	13410	1
13408	13412	1
12944	12951	1
12951	12952	1
12951	8031	1
12942	12953	1
12953	12954	1
12953	7360	1
12944	12943	1
12945	12944	1
12943	12942	1
12942	12941	1
12943	12947	1
12945	12946	1
12945	12948	1
12941	12946	1
12941	12949	1
12946	12950	1
2794	2801	1
2801	2802	1
2801	5261	1
2792	2803	1
2803	2804	1
2803	2805	1
2793	2794	1
2794	2795	1
2792	2793	1
2791	2792	1
2793	2797	1
2795	2796	1
2795	2798	1
2791	2796	1
2791	2799	1
2796	2800	1
1803	1814	1
1814	1815	1
1814	10410	1
1805	1812	1
1812	1813	1
1791	1812	1
1803	1804	1
1802	1803	1
1804	1805	1
1805	1806	1
1804	1808	1
1802	1807	1
1802	1810	1
1806	1807	1
1806	1809	1
1807	1811	1
11104	11115	1
11115	11116	1
2575	11115	1
11106	11113	1
11113	11114	1
11113	11123	1
11104	11105	1
11103	11104	1
11105	11106	1
11106	11107	1
11105	11109	1
11103	11108	1
11103	11111	1
11107	11108	1
11107	11110	1
11108	11112	1
900	911	1
911	912	1
911	9216	1
902	909	1
909	910	1
888	909	1
900	901	1
899	900	1
901	902	1
902	903	1
901	905	1
899	904	1
899	907	1
903	904	1
903	906	1
904	908	1
3572	3583	1
3583	3584	1
3583	3585	1
3574	3581	1
3581	3582	1
3581	10046	1
3572	3573	1
3571	3572	1
3573	3574	1
3574	3575	1
3573	3577	1
3571	3576	1
3571	3579	1
3575	3576	1
3575	3578	1
3576	3580	1
12984	12995	1
12995	12996	1
12995	7420	1
12986	12993	1
12993	12994	1
12993	8874	1
12984	12985	1
12983	12984	1
12985	12986	1
12986	12987	1
12985	12989	1
12983	12988	1
12983	12991	1
12987	12988	1
12987	12990	1
12988	12992	1
2472	2483	1
2483	2484	1
2483	8471	1
2474	2481	1
2481	2482	1
2460	2481	1
2472	2473	1
2471	2472	1
2473	2474	1
2474	2475	1
2473	2477	1
2471	2476	1
2471	2479	1
2475	2476	1
2475	2478	1
2476	2480	1
9423	9434	1
9434	9435	1
9434	9442	1
9425	9432	1
9432	9433	1
9432	10849	1
9423	9424	1
9422	9423	1
9424	9425	1
9425	9426	1
9424	9428	1
9422	9427	1
9422	9430	1
9426	9427	1
9426	9429	1
9427	9431	1
12356	12363	1
12363	12364	1
12363	5859	1
12354	12365	1
12365	12366	1
12365	8777	1
12356	12355	1
12357	12356	1
12355	12354	1
12354	12353	1
12355	12359	1
12357	12358	1
12357	12360	1
12353	12358	1
12353	12361	1
12358	12362	1
8240	8251	1
8251	8252	1
8251	8259	1
8242	8249	1
8249	8250	1
8249	9960	1
8240	8241	1
8239	8240	1
8241	8242	1
8242	8243	1
8241	8245	1
8239	8244	1
8239	8247	1
8243	8244	1
8243	8246	1
8244	8248	1
13572	13583	1
13583	13584	1
13583	9491	1
13574	13581	1
13581	13582	1
13581	9158	1
13572	13573	1
13571	13572	1
13573	13574	1
13574	13575	1
13573	13577	1
13571	13576	1
13571	13579	1
13575	13576	1
13575	13578	1
13576	13580	1
9687	9698	1
9698	9699	1
9698	5073	1
9689	9696	1
9696	9697	1
9696	9712	1
9687	9688	1
9686	9687	1
9688	9689	1
9689	9690	1
9688	9692	1
9686	9691	1
9686	9694	1
9690	9691	1
9690	9693	1
9691	9695	1
4060	4071	1
4071	4072	1
4071	4079	1
4062	4069	1
4069	4070	1
4069	7653	1
4060	4061	1
4059	4060	1
4061	4062	1
4062	4063	1
4061	4065	1
4059	4064	1
4059	4067	1
4063	4064	1
4063	4066	1
4064	4068	1
8594	8601	1
8601	8602	1
2606	8601	1
8592	8603	1
8603	8604	1
8603	8611	1
8594	8593	1
8595	8594	1
8593	8592	1
8592	8591	1
8593	8597	1
8595	8596	1
8595	8598	1
8591	8596	1
8591	8599	1
8596	8600	1
7672	7683	1
7683	7684	1
7683	7691	1
7674	7681	1
7681	7682	1
7681	7958	1
7672	7673	1
7671	7672	1
7673	7674	1
7674	7675	1
7673	7677	1
7671	7676	1
7671	7679	1
7675	7676	1
7675	7678	1
7676	7680	1
11794	11805	1
11805	11806	1
11805	8981	1
11796	11803	1
11803	11804	1
11803	4884	1
11794	11795	1
11793	11794	1
11795	11796	1
11796	11797	1
11795	11799	1
11793	11798	1
11793	11801	1
11797	11798	1
11797	11800	1
11798	11802	1
11822	11833	1
11833	11834	1
11833	9360	1
11824	11831	1
11831	11832	1
11831	4912	1
11822	11823	1
11821	11822	1
11823	11824	1
11824	11825	1
11823	11827	1
11821	11826	1
11821	11829	1
11825	11826	1
11825	11828	1
11826	11830	1
3915	3926	1
3926	3927	1
3926	3934	1
3917	3924	1
3924	3925	1
3924	9274	1
3915	3916	1
3914	3915	1
3916	3917	1
3917	3918	1
3916	3920	1
3914	3919	1
3914	3922	1
3918	3919	1
3918	3921	1
3919	3923	1
9496	9507	1
9507	9508	1
9507	7972	1
9498	9505	1
9505	9506	1
9505	9515	1
9496	9497	1
9495	9496	1
9497	9498	1
9498	9499	1
9497	9501	1
9495	9500	1
9495	9503	1
9499	9500	1
9499	9502	1
9500	9504	1
4641	4652	1
4652	4653	1
4652	4660	1
4643	4650	1
4650	4651	1
4650	8235	1
4641	4642	1
4640	4641	1
4642	4643	1
4643	4644	1
4642	4646	1
4640	4645	1
4640	4648	1
4644	4645	1
4644	4647	1
4645	4649	1
12676	12687	1
12687	12688	1
12687	10879	1
12678	12685	1
12685	12686	1
12685	6502	1
12676	12677	1
12675	12676	1
12677	12678	1
12678	12679	1
12677	12681	1
12675	12680	1
12675	12683	1
12679	12680	1
12679	12682	1
12680	12684	1
12928	12939	1
12939	12940	1
12939	7302	1
12930	12937	1
12937	12938	1
12937	10543	1
12928	12929	1
12927	12928	1
12929	12930	1
12930	12931	1
12929	12933	1
12927	12932	1
12927	12935	1
12931	12932	1
12931	12934	1
12932	12936	1
714	725	1
725	726	1
702	725	1
716	723	1
723	724	1
723	6152	1
714	715	1
713	714	1
715	716	1
716	717	1
715	719	1
713	718	1
713	721	1
717	718	1
717	720	1
718	722	1
12200	12211	1
12211	12212	1
2169	12211	1
12202	12209	1
12209	12210	1
12209	5640	1
12200	12201	1
12199	12200	1
12201	12202	1
12202	12203	1
12201	12205	1
12199	12204	1
12199	12207	1
12203	12204	1
12203	12206	1
12204	12208	1
13236	13247	1
13247	13248	1
13247	8206	1
13238	13245	1
13245	13246	1
2341	13245	1
13236	13237	1
13235	13236	1
13237	13238	1
13238	13239	1
13237	13241	1
13235	13240	1
13235	13243	1
13239	13240	1
13239	13242	1
13240	13244	1
7307	7318	1
7318	7319	1
7318	8509	1
7309	7316	1
7316	7317	1
7316	7326	1
7307	7308	1
7306	7307	1
7308	7309	1
7309	7310	1
7308	7312	1
7306	7311	1
7306	7314	1
7310	7311	1
7310	7313	1
7311	7315	1
13684	13695	1
13695	13696	1
13695	10163	1
13686	13693	1
13693	13694	1
2434	13693	1
13684	13685	1
13683	13684	1
13685	13686	1
13686	13687	1
13685	13689	1
13683	13688	1
13683	13691	1
13687	13688	1
13687	13690	1
13688	13692	1
1865	1876	1
1876	1877	1
1876	9215	1
1867	1874	1
1874	1875	1
1853	1874	1
1865	1866	1
1864	1865	1
1866	1867	1
1867	1868	1
1866	1870	1
1864	1869	1
1864	1872	1
1868	1869	1
1868	1871	1
1869	1873	1
12340	12351	1
12351	12352	1
12351	5830	1
12342	12349	1
12349	12350	1
1079	12349	1
12340	12341	1
12339	12340	1
12341	12342	1
12342	12343	1
12341	12345	1
12339	12344	1
12339	12347	1
12343	12344	1
12343	12346	1
12344	12348	1
1462	1473	1
1473	1474	1
1450	1473	1
1464	1471	1
1471	1472	1
1471	7006	1
1462	1463	1
1461	1462	1
1463	1464	1
1464	1465	1
1463	1467	1
1461	1466	1
1461	1469	1
1465	1466	1
1465	1468	1
1466	1470	1
5094	5101	1
5101	5102	1
5101	10499	1
5092	5103	1
5103	5104	1
5103	5111	1
5093	5094	1
5094	5095	1
5092	5093	1
5091	5092	1
5093	5097	1
5095	5096	1
5095	5098	1
5091	5096	1
5091	5099	1
5096	5100	1
86	97	1
97	98	1
76	97	1
88	95	1
95	96	1
95	7040	1
86	87	1
85	86	1
87	88	1
88	89	1
87	91	1
85	90	1
85	93	1
89	90	1
89	92	1
90	94	1
8826	8837	1
8837	8838	1
8837	8845	1
8828	8835	1
8835	8836	1
8835	5393	1
8826	8827	1
8825	8826	1
8827	8828	1
8828	8829	1
8827	8831	1
8825	8830	1
8825	8833	1
8829	8830	1
8829	8832	1
8830	8834	1
1229	1236	1
1236	1237	1
1215	1236	1
1227	1238	1
1238	1240	1
1238	1239	1
1228	1229	1
1229	1230	1
1227	1228	1
1226	1227	1
1228	1232	1
1230	1231	1
1230	1233	1
1226	1231	1
1226	1234	1
1231	1235	1
13824	13835	1
13835	13836	1
1951	13835	1
13826	13833	1
13833	13834	1
738	13833	1
13824	13825	1
13823	13824	1
13825	13826	1
13826	13827	1
13825	13829	1
13823	13828	1
13823	13831	1
13827	13828	1
13827	13830	1
13828	13832	1
1117	1128	1
1128	1129	1
1128	7055	1
1119	1126	1
1126	1127	1
1105	1126	1
1117	1118	1
1116	1117	1
1118	1119	1
1119	1120	1
1118	1122	1
1116	1121	1
1116	1124	1
1120	1121	1
1120	1123	1
1121	1125	1
11710	11721	1
11721	11722	1
11721	4753	1
11712	11719	1
11719	11720	1
2372	11719	1
11710	11711	1
11709	11710	1
11711	11712	1
11712	11713	1
11711	11715	1
11709	11714	1
11709	11717	1
11713	11714	1
11713	11716	1
11714	11718	1
9920	9931	1
9931	9932	1
9931	9939	1
9922	9929	1
9929	9930	1
9929	5962	1
9920	9921	1
9919	9920	1
9921	9922	1
9922	9923	1
9921	9925	1
9919	9924	1
9919	9927	1
9923	9924	1
9923	9926	1
9924	9928	1
11528	11539	1
11539	11540	1
11539	9945	1
11530	11537	1
11537	11538	1
11537	4405	1
11528	11529	1
11527	11528	1
11529	11530	1
11530	11531	1
11529	11533	1
11527	11532	1
11527	11535	1
11531	11532	1
11531	11534	1
11532	11536	1
404	415	1
415	416	1
415	11099	1
406	413	1
413	414	1
392	413	1
404	405	1
403	404	1
405	406	1
406	407	1
405	409	1
403	408	1
403	411	1
407	408	1
407	410	1
408	412	1
468	475	1
475	476	1
454	475	1
466	477	1
477	478	1
477	4434	1
467	468	1
468	469	1
466	467	1
465	466	1
467	471	1
469	470	1
469	472	1
465	470	1
465	473	1
470	474	1
1493	1504	1
1504	1505	1
1504	10420	1
1495	1502	1
1502	1503	1
1481	1502	1
1493	1494	1
1492	1493	1
1494	1495	1
1495	1496	1
1494	1498	1
1492	1497	1
1492	1500	1
1496	1497	1
1496	1499	1
1497	1501	1
838	849	1
849	850	1
826	849	1
840	847	1
847	848	1
583	847	1
838	839	1
837	838	1
839	840	1
840	841	1
839	843	1
837	842	1
837	845	1
841	842	1
841	844	1
842	846	1
2747	2758	1
2758	2759	1
2758	2760	1
2749	2756	1
2756	2757	1
2756	5014	1
2747	2748	1
2746	2747	1
2748	2749	1
2749	2750	1
2748	2752	1
2746	2751	1
2746	2754	1
2750	2751	1
2750	2753	1
2751	2755	1
118	129	1
129	130	1
129	11182	1
120	127	1
127	128	1
108	127	1
118	119	1
117	118	1
119	120	1
120	121	1
119	123	1
117	122	1
117	125	1
121	122	1
121	124	1
122	126	1
3973	3984	1
3984	3985	1
3984	8001	1
3975	3982	1
3982	3983	1
3982	3992	1
3973	3974	1
3972	3973	1
3974	3975	1
3975	3976	1
3974	3978	1
3972	3977	1
3972	3980	1
3976	3977	1
3976	3979	1
3977	3981	1
12410	12421	1
12421	12422	1
2200	12421	1
12412	12419	1
12419	12420	1
12419	5963	1
12410	12411	1
12409	12410	1
12411	12412	1
12412	12413	1
12411	12415	1
12409	12414	1
12409	12417	1
12413	12414	1
12413	12416	1
12414	12418	1
11934	11945	1
11945	11946	1
11945	5146	1
11936	11943	1
11943	11944	1
1393	11943	1
11934	11935	1
11933	11934	1
11935	11936	1
11936	11937	1
11935	11939	1
11933	11938	1
11933	11941	1
11937	11938	1
11937	11940	1
11938	11942	1
10898	10909	1
10909	10910	1
10909	10917	1
10900	10907	1
10907	10908	1
10907	9070	1
10898	10899	1
10897	10898	1
10899	10900	1
10900	10901	1
10899	10903	1
10897	10902	1
10897	10905	1
10901	10902	1
10901	10904	1
10902	10906	1
3944	3955	1
3955	3956	1
3955	6894	1
3946	3953	1
3953	3954	1
3953	3963	1
3944	3945	1
3943	3944	1
3945	3946	1
3946	3947	1
3945	3949	1
3943	3948	1
3943	3951	1
3947	3948	1
3947	3950	1
3948	3952	1
13138	13149	1
13149	13150	1
13149	7899	1
13140	13147	1
13147	13148	1
1220	13147	1
13138	13139	1
13137	13138	1
13139	13140	1
13140	13141	1
13139	13143	1
13137	13142	1
13137	13145	1
13141	13142	1
13141	13144	1
13142	13146	1
13166	13177	1
13177	13178	1
13177	7957	1
13168	13175	1
13175	13176	1
13175	9244	1
13166	13167	1
13165	13166	1
13167	13168	1
13168	13169	1
13167	13171	1
13165	13170	1
13165	13173	1
13169	13170	1
13169	13172	1
13170	13174	1
3377	3388	1
3388	3389	1
3388	3390	1
3379	3386	1
3386	3387	1
3386	9100	1
3377	3378	1
3376	3377	1
3378	3379	1
3379	3380	1
3378	3382	1
3376	3381	1
3376	3384	1
3380	3381	1
3380	3383	1
3381	3385	1
4786	4797	1
4797	4798	1
4797	9580	1
4788	4795	1
4795	4796	1
4795	4805	1
4786	4787	1
4785	4786	1
4787	4788	1
4788	4789	1
4787	4791	1
4785	4790	1
4785	4793	1
4789	4790	1
4789	4792	1
4790	4794	1
11668	11679	1
11679	11680	1
11679	4695	1
11670	11677	1
11677	11678	1
11677	6297	1
11668	11669	1
11667	11668	1
11669	11670	1
11670	11671	1
11669	11673	1
11667	11672	1
11667	11675	1
11671	11672	1
11671	11674	1
11672	11676	1
2286	2297	1
2297	2298	1
2297	9662	1
2288	2295	1
2295	2296	1
2279	2295	1
2286	2287	1
2285	2286	1
2287	2288	1
2288	2289	1
2287	2291	1
2285	2290	1
2285	2293	1
2289	2290	1
2289	2292	1
2290	2294	1
1990	2001	1
2001	2002	1
1978	2001	1
1992	1999	1
1999	2000	1
1999	5015	1
1990	1991	1
1989	1990	1
1991	1992	1
1992	1993	1
1991	1995	1
1989	1994	1
1989	1997	1
1993	1994	1
1993	1996	1
1994	1998	1
11682	11693	1
11693	11694	1
11693	8763	1
11684	11691	1
11691	11692	1
11691	4723	1
11682	11683	1
11681	11682	1
11683	11684	1
11684	11685	1
11683	11687	1
11681	11686	1
11681	11689	1
11685	11686	1
11685	11688	1
11686	11690	1
13222	13233	1
13233	13234	1
13233	8176	1
13224	13231	1
13231	13232	1
13231	9579	1
13222	13223	1
13221	13222	1
13223	13224	1
13224	13225	1
13223	13227	1
13221	13226	1
13221	13229	1
13225	13226	1
13225	13228	1
13226	13230	1
5237	5248	1
5248	5249	1
5248	10134	1
5239	5246	1
5246	5247	1
5246	5256	1
5237	5238	1
5236	5237	1
5238	5239	1
5239	5240	1
5238	5242	1
5236	5241	1
5236	5244	1
5240	5241	1
5240	5243	1
5241	5245	1
12746	12757	1
12757	12758	1
12757	8514	1
12748	12755	1
12755	12756	1
12755	6662	1
12746	12747	1
12745	12746	1
12747	12748	1
12748	12749	1
12747	12751	1
12745	12750	1
12745	12753	1
12749	12750	1
12749	12752	1
12750	12754	1
11542	11553	1
11553	11554	1
11553	7114	1
11544	11551	1
11551	11552	1
11551	4433	1
11542	11543	1
11541	11542	1
11543	11544	1
11544	11545	1
11543	11547	1
11541	11546	1
11541	11549	1
11545	11546	1
11545	11548	1
11546	11550	1
1586	1597	1
1597	1598	1
1574	1597	1
1588	1595	1
1595	1596	1
1595	8236	1
1586	1587	1
1585	1586	1
1587	1588	1
1588	1589	1
1587	1591	1
1585	1590	1
1585	1593	1
1589	1590	1
1589	1592	1
1590	1594	1
6419	6430	1
6430	6431	1
6430	6438	1
6421	6428	1
6428	6429	1
6428	9637	1
6419	6420	1
6418	6419	1
6420	6421	1
6421	6422	1
6420	6424	1
6418	6423	1
6418	6426	1
6422	6423	1
6422	6425	1
6423	6427	1
12830	12841	1
12841	12842	1
12841	9448	1
12832	12839	1
12839	12840	1
12839	6997	1
12830	12831	1
12829	12830	1
12831	12832	1
12832	12833	1
12831	12835	1
12829	12834	1
12829	12837	1
12833	12834	1
12833	12836	1
12834	12838	1
13194	13205	1
13205	13206	1
13205	8323	1
13196	13203	1
13203	13204	1
13203	8046	1
13194	13195	1
13193	13194	1
13195	13196	1
13196	13197	1
13195	13199	1
13193	13198	1
13193	13201	1
13197	13198	1
13197	13200	1
13198	13202	1
13392	13399	1
13399	13400	1
13399	8426	1
13390	13401	1
13401	13402	1
13401	9025	1
13392	13391	1
13393	13392	1
13391	13390	1
13390	13389	1
13391	13395	1
13393	13394	1
13393	13396	1
13389	13394	1
13389	13397	1
13394	13398	1
12732	12743	1
12743	12744	1
12743	7332	1
12734	12741	1
12741	12742	1
12741	6661	1
12732	12733	1
12731	12732	1
12733	12734	1
12734	12735	1
12733	12737	1
12731	12736	1
12731	12739	1
12735	12736	1
12735	12738	1
12736	12740	1
1261	1268	1
1268	1269	1
1268	10470	1
1259	1270	1
1270	1271	1
1247	1270	1
1261	1260	1
1262	1261	1
1260	1259	1
1259	1258	1
1260	1264	1
1262	1263	1
1262	1265	1
1258	1263	1
1258	1266	1
1263	1267	1
7278	7289	1
7289	7290	1
7289	7297	1
7280	7287	1
7287	7288	1
7287	9677	1
7278	7279	1
7277	7278	1
7279	7280	1
7280	7281	1
7279	7283	1
7277	7282	1
7277	7285	1
7281	7282	1
7281	7284	1
7282	7286	1
1617	1628	1
1628	1629	1
1605	1628	1
1619	1626	1
1626	1627	1
1189	1626	1
1617	1618	1
1616	1617	1
1618	1619	1
1619	1620	1
1618	1622	1
1616	1621	1
1616	1624	1
1620	1621	1
1620	1623	1
1621	1625	1
528	539	1
539	540	1
539	5927	1
530	537	1
537	538	1
516	537	1
528	529	1
527	528	1
529	530	1
530	531	1
529	533	1
527	532	1
527	535	1
531	532	1
531	534	1
532	536	1
13068	13079	1
13079	13080	1
13079	8923	1
13070	13077	1
13077	13078	1
13077	7652	1
13068	13069	1
13067	13068	1
13069	13070	1
13070	13071	1
13069	13073	1
13067	13072	1
13067	13075	1
13071	13072	1
13071	13074	1
13072	13076	1
8402	8413	1
8413	8414	1
8413	8421	1
8404	8411	1
8411	8412	1
8411	10192	1
8402	8403	1
8401	8402	1
8403	8404	1
8404	8405	1
8403	8407	1
8401	8406	1
8401	8409	1
8405	8406	1
8405	8408	1
8406	8410	1
4759	4766	1
4766	4767	1
4766	7142	1
4757	4768	1
4768	4769	1
4768	4776	1
4758	4759	1
4759	4760	1
4757	4758	1
4756	4757	1
4758	4762	1
4760	4761	1
4760	4763	1
4756	4761	1
4756	4764	1
4761	4765	1
3739	3746	1
3746	3747	1
3746	11172	1
3737	3748	1
3748	3749	1
3748	3750	1
3738	3739	1
3739	3740	1
3737	3738	1
3736	3737	1
3738	3742	1
3740	3741	1
3740	3743	1
3736	3741	1
3736	3744	1
3741	3745	1
12312	12323	1
12323	12324	1
12323	10157	1
12314	12321	1
12321	12322	1
12321	5816	1
12312	12313	1
12311	12312	1
12313	12314	1
12314	12315	1
12313	12317	1
12311	12316	1
12311	12319	1
12315	12316	1
12315	12318	1
12316	12320	1
5266	5277	1
5277	5278	1
5277	5285	1
5268	5275	1
5275	5276	1
5275	8274	1
5266	5267	1
5265	5266	1
5267	5268	1
5268	5269	1
5267	5271	1
5265	5270	1
5265	5273	1
5269	5270	1
5269	5272	1
5270	5274	1
7730	7741	1
7741	7742	1
7741	7749	1
7732	7739	1
7739	7740	1
7739	4462	1
7730	7731	1
7729	7730	1
7731	7732	1
7732	7733	1
7731	7735	1
7729	7734	1
7729	7737	1
7733	7734	1
7733	7736	1
7734	7738	1
9338	9345	1
9345	9346	1
459	9345	1
9336	9347	1
9347	9348	1
9347	9355	1
9337	9338	1
9338	9339	1
9336	9337	1
9335	9336	1
9337	9341	1
9339	9340	1
9339	9342	1
9335	9340	1
9335	9343	1
9340	9344	1
2114	2125	1
2125	2126	1
2102	2125	1
2116	2123	1
2123	2124	1
2123	9079	1
2114	2115	1
2113	2114	1
2115	2116	1
2116	2117	1
2115	2119	1
2113	2118	1
2113	2121	1
2117	2118	1
2117	2120	1
2118	2122	1
10854	10865	1
10865	10866	1
10865	10873	1
10856	10863	1
10863	10864	1
10863	7697	1
10854	10855	1
10853	10854	1
10855	10856	1
10856	10857	1
10855	10859	1
10853	10858	1
10853	10861	1
10857	10858	1
10857	10860	1
10858	10862	1
13152	13163	1
13163	13164	1
2496	13163	1
13154	13161	1
13161	13162	1
13161	7928	1
13152	13153	1
13151	13152	1
13153	13154	1
13154	13155	1
13153	13157	1
13151	13156	1
13151	13159	1
13155	13156	1
13155	13158	1
13156	13160	1
13644	13651	1
13651	13652	1
13651	9916	1
13642	13653	1
13653	13654	1
986	13653	1
13643	13644	1
13644	13645	1
13642	13643	1
13641	13642	1
13643	13647	1
13645	13646	1
13645	13648	1
13641	13646	1
13641	13649	1
13646	13650	1
11640	11651	1
11651	11652	1
11651	4665	1
11642	11649	1
11649	11650	1
11649	11026	1
11640	11641	1
11639	11640	1
11641	11642	1
11642	11643	1
11641	11645	1
11639	11644	1
11639	11647	1
11643	11644	1
11643	11646	1
11644	11648	1
2381	2388	1
2388	2389	1
2388	5043	1
2379	2390	1
2390	2391	1
2367	2390	1
2381	2380	1
2382	2381	1
2380	2379	1
2379	2378	1
2380	2384	1
2382	2383	1
2382	2385	1
2378	2383	1
2378	2386	1
2383	2387	1
3842	3853	1
3853	3854	1
3853	3861	1
3844	3851	1
3851	3852	1
3851	10771	1
3842	3843	1
3841	3842	1
3843	3844	1
3844	3845	1
3843	3847	1
3841	3846	1
3841	3849	1
3845	3846	1
3845	3848	1
3846	3850	1
13474	13485	1
13485	13486	1
13485	8850	1
13476	13483	1
13483	13484	1
1283	13483	1
13474	13475	1
13473	13474	1
13475	13476	1
13476	13477	1
13475	13479	1
13473	13478	1
13473	13481	1
13477	13478	1
13477	13480	1
13478	13482	1
11836	11847	1
11847	11848	1
11847	4942	1
11838	11845	1
11845	11846	1
11845	11070	1
11836	11837	1
11835	11836	1
11837	11838	1
11838	11839	1
11837	11841	1
11835	11840	1
11835	11843	1
11839	11840	1
11839	11842	1
11840	11844	1
11780	11791	1
11791	11792	1
11791	4869	1
11782	11789	1
11789	11790	1
11789	10293	1
11780	11781	1
11779	11780	1
11781	11782	1
11782	11783	1
11781	11785	1
11779	11784	1
11779	11787	1
11783	11784	1
11783	11786	1
11784	11788	1
962	973	1
973	974	1
950	973	1
964	971	1
971	972	1
971	5957	1
962	963	1
961	962	1
963	964	1
964	965	1
963	967	1
961	966	1
961	969	1
965	966	1
965	968	1
966	970	1
6739	6750	1
6750	6751	1
6750	6758	1
6741	6748	1
6748	6749	1
1141	6748	1
6739	6740	1
6738	6739	1
6740	6741	1
6741	6742	1
6740	6744	1
6738	6743	1
6738	6746	1
6742	6743	1
6742	6745	1
6743	6747	1
6666	6677	1
6677	6678	1
6677	5204	1
6668	6675	1
6675	6676	1
6675	6685	1
6666	6667	1
6665	6666	1
6667	6668	1
6668	6669	1
6667	6671	1
6665	6670	1
6665	6673	1
6669	6670	1
6669	6672	1
6670	6674	1
12438	12449	1
12449	12450	1
1517	12449	1
12440	12447	1
12447	12448	1
12447	6020	1
12438	12439	1
12437	12438	1
12439	12440	1
12440	12441	1
12439	12443	1
12437	12442	1
12437	12445	1
12441	12442	1
12441	12444	1
12442	12446	1
3287	3298	1
3298	3300	1
3298	3299	1
3289	3296	1
3296	3297	1
3296	8918	1
3287	3288	1
3286	3287	1
3288	3289	1
3289	3290	1
3288	3292	1
3286	3291	1
3286	3294	1
3290	3291	1
3290	3293	1
3291	3295	1
745	756	1
756	757	1
733	756	1
747	754	1
754	755	1
754	5009	1
745	746	1
744	745	1
746	747	1
747	748	1
746	750	1
744	749	1
744	752	1
748	749	1
748	751	1
749	753	1
8855	8866	1
8866	8867	1
8866	9959	1
8857	8864	1
8864	8865	1
8864	8880	1
8855	8856	1
8854	8855	1
8856	8857	1
8857	8858	1
8856	8860	1
8854	8859	1
8854	8862	1
8858	8859	1
8858	8861	1
8859	8863	1
12578	12589	1
12589	12590	1
12589	8104	1
12580	12587	1
12587	12588	1
12587	6283	1
12578	12579	1
12577	12578	1
12579	12580	1
12580	12581	1
12579	12583	1
12577	12582	1
12577	12585	1
12581	12582	1
12581	12584	1
12582	12586	1
7526	7537	1
7537	7538	1
7537	9740	1
7528	7535	1
7535	7536	1
7535	7545	1
7526	7527	1
7525	7526	1
7527	7528	1
7528	7529	1
7527	7531	1
7525	7530	1
7525	7533	1
7529	7530	1
7529	7532	1
7530	7534	1
7933	7944	1
7944	7945	1
7944	7952	1
7935	7942	1
7942	7943	1
7942	7696	1
7933	7934	1
7932	7933	1
7934	7935	1
7935	7936	1
7934	7938	1
7932	7937	1
7932	7940	1
7936	7937	1
7936	7939	1
7937	7941	1
12788	12799	1
12799	12800	1
12799	10395	1
12790	12797	1
12797	12798	1
12797	6764	1
12788	12789	1
12787	12788	1
12789	12790	1
12790	12791	1
12789	12793	1
12787	12792	1
12787	12795	1
12791	12792	1
12791	12794	1
12792	12796	1
151	162	1
162	163	1
137	162	1
153	160	1
160	161	1
160	6807	1
151	152	1
150	151	1
152	153	1
153	154	1
152	156	1
150	155	1
150	158	1
154	155	1
154	157	1
155	159	1
11570	11581	1
11581	11582	1
11581	4491	1
11572	11579	1
11579	11580	1
397	11579	1
11570	11571	1
11569	11570	1
11571	11572	1
11572	11573	1
11571	11575	1
11569	11574	1
11569	11577	1
11573	11574	1
11573	11576	1
11574	11578	1
1710	1721	1
1721	1722	1
1721	7900	1
1712	1719	1
1719	1720	1
1698	1719	1
1710	1711	1
1709	1710	1
1711	1712	1
1712	1713	1
1711	1715	1
1709	1714	1
1709	1717	1
1713	1714	1
1713	1716	1
1714	1718	1
2348	2359	1
2359	2360	1
2359	6802	1
2350	2357	1
2357	2358	1
2336	2357	1
2348	2349	1
2347	2348	1
2349	2350	1
2350	2351	1
2349	2353	1
2347	2352	1
2347	2355	1
2351	2352	1
2351	2354	1
2352	2356	1
12858	12869	1
12869	12870	1
12869	8792	1
12860	12867	1
12867	12868	1
12867	7056	1
12858	12859	1
12857	12858	1
12859	12860	1
12860	12861	1
12859	12863	1
12857	12862	1
12857	12865	1
12861	12862	1
12861	12864	1
12862	12866	1
3647	3658	1
3658	3659	1
3658	3660	1
3649	3656	1
3656	3657	1
3656	10821	1
3647	3648	1
3646	3647	1
3648	3649	1
3649	3650	1
3648	3652	1
3646	3651	1
3646	3654	1
3650	3651	1
3650	3653	1
3651	3655	1
5691	5698	1
5698	5699	1
1579	5698	1
5689	5700	1
5700	5701	1
5700	5714	1
5691	5690	1
5692	5691	1
5690	5689	1
5689	5688	1
5690	5694	1
5692	5693	1
5692	5695	1
5688	5693	1
5688	5696	1
5693	5697	1
13040	13051	1
13051	13052	1
13051	7618	1
13042	13049	1
13049	13050	1
13049	9638	1
13040	13041	1
13039	13040	1
13041	13042	1
13042	13043	1
13041	13045	1
13039	13044	1
13039	13047	1
13043	13044	1
13043	13046	1
13044	13048	1
5150	5161	1
5161	5162	1
5161	5169	1
5152	5159	1
5159	5160	1
5159	3939	1
5150	5151	1
5149	5150	1
5151	5152	1
5152	5153	1
5151	5155	1
5149	5154	1
5149	5157	1
5153	5154	1
5153	5156	1
5154	5158	1
4002	4013	1
4013	4014	1
4013	10777	1
4004	4011	1
4011	4012	1
4011	4021	1
4002	4003	1
4001	4002	1
4003	4004	1
4004	4005	1
4003	4007	1
4001	4006	1
4001	4009	1
4005	4006	1
4005	4008	1
4006	4010	1
12228	12239	1
12239	12240	1
12239	5713	1
12230	12237	1
12237	12238	1
831	12237	1
12228	12229	1
12227	12228	1
12229	12230	1
12230	12231	1
12229	12233	1
12227	12232	1
12227	12235	1
12231	12232	1
12231	12234	1
12232	12236	1
10109	10120	1
10120	10121	1
10120	10128	1
10111	10118	1
10118	10119	1
10118	7230	1
10109	10110	1
10108	10109	1
10110	10111	1
10111	10112	1
10110	10114	1
10108	10113	1
10108	10116	1
10112	10113	1
10112	10115	1
10113	10117	1
12662	12673	1
12673	12674	1
12673	6444	1
12664	12671	1
12671	12672	1
955	12671	1
12662	12663	1
12661	12662	1
12663	12664	1
12664	12665	1
12663	12667	1
12661	12666	1
12661	12669	1
12665	12666	1
12665	12668	1
12666	12670	1
9278	9289	1
9289	9290	1
9289	10191	1
9280	9287	1
9287	9288	1
9287	9302	1
9278	9279	1
9277	9278	1
9279	9280	1
9280	9281	1
9279	9283	1
9277	9282	1
9277	9285	1
9281	9282	1
9281	9284	1
9282	9286	1
8079	8090	1
8090	8091	1
8090	5364	1
8081	8088	1
8088	8089	1
8088	8098	1
8079	8080	1
8078	8079	1
8080	8081	1
8081	8082	1
8080	8084	1
8078	8083	1
8078	8086	1
8082	8083	1
8082	8085	1
8083	8087	1
10167	10178	1
10178	10179	1
10178	10186	1
10169	10176	1
10176	10177	1
10176	4868	1
10167	10168	1
10166	10167	1
10168	10169	1
10169	10170	1
10168	10172	1
10166	10171	1
10166	10174	1
10170	10171	1
10170	10173	1
10171	10175	1
9964	9975	1
9975	9976	1
1858	9975	1
9966	9973	1
9973	9974	1
9973	9983	1
9964	9965	1
9963	9964	1
9965	9966	1
9966	9967	1
9965	9969	1
9963	9968	1
9963	9971	1
9967	9968	1
9967	9970	1
9968	9972	1
11430	11441	1
11441	11442	1
11441	4259	1
11432	11439	1
11439	11440	1
11439	7668	1
11430	11431	1
11429	11430	1
11431	11432	1
11432	11433	1
11431	11435	1
11429	11434	1
11429	11437	1
11433	11434	1
11433	11436	1
11434	11438	1
13768	13779	1
13779	13780	1
1765	13779	1
13770	13777	1
13777	13778	1
13777	11128	1
13768	13769	1
13767	13768	1
13769	13770	1
13770	13771	1
13769	13773	1
13767	13772	1
13767	13775	1
13771	13772	1
13771	13774	1
13772	13776	1
2914	2921	1
2921	2922	1
2921	5860	1
2912	2923	1
2923	2924	1
2923	2925	1
2913	2914	1
2914	2915	1
2912	2913	1
2911	2912	1
2913	2917	1
2915	2916	1
2915	2918	1
2911	2916	1
2911	2919	1
2916	2920	1
247	258	1
258	259	1
237	258	1
249	256	1
256	257	1
256	8787	1
247	248	1
246	247	1
248	249	1
249	250	1
248	252	1
246	251	1
246	254	1
250	251	1
250	253	1
251	255	1
13082	13093	1
13093	13094	1
13093	10746	1
13084	13091	1
13091	13092	1
13091	7667	1
13082	13083	1
13081	13082	1
13083	13084	1
13084	13085	1
13083	13087	1
13081	13086	1
13081	13089	1
13085	13086	1
13085	13088	1
13086	13090	1
12900	12911	1
12911	12912	1
12911	7195	1
12902	12909	1
12909	12910	1
12909	8821	1
12900	12901	1
12899	12900	1
12901	12902	1
12902	12903	1
12901	12905	1
12899	12904	1
12899	12907	1
12903	12904	1
12903	12906	1
12904	12908	1
13348	13359	1
13359	13360	1
707	13359	1
13350	13357	1
13357	13358	1
13357	8324	1
13348	13349	1
13347	13348	1
13349	13350	1
13350	13351	1
13349	13353	1
13347	13352	1
13347	13355	1
13351	13352	1
13351	13354	1
13352	13356	1
2441	2452	1
2452	2453	1
2429	2452	1
2443	2450	1
2450	2451	1
2450	8215	1
2441	2442	1
2440	2441	1
2442	2443	1
2443	2444	1
2442	2446	1
2440	2445	1
2440	2448	1
2444	2445	1
2444	2447	1
2445	2449	1
11878	11889	1
11889	11890	1
1252	11889	1
11880	11887	1
11887	11888	1
11887	5044	1
11878	11879	1
11877	11878	1
11879	11880	1
11880	11881	1
11879	11883	1
11877	11882	1
11877	11885	1
11881	11882	1
11881	11884	1
11882	11886	1
2957	2968	1
2968	2969	1
2968	2970	1
2959	2966	1
2966	2967	1
2966	6569	1
2957	2958	1
2956	2957	1
2958	2959	1
2959	2960	1
2958	2962	1
2956	2961	1
2956	2964	1
2960	2961	1
2960	2963	1
2961	2965	1
13838	13849	1
13849	13850	1
2217	13849	1
13840	13847	1
13847	13848	1
1920	13847	1
13838	13839	1
13837	13838	1
13839	13840	1
13840	13841	1
13839	13843	1
13837	13842	1
13837	13845	1
13841	13842	1
13841	13844	1
13842	13846	1
8345	8352	1
8352	8353	1
8352	8362	1
8343	8354	1
8354	8355	1
8354	9706	1
8345	8344	1
8346	8345	1
8344	8343	1
8343	8342	1
8344	8348	1
8346	8347	1
8346	8349	1
8342	8347	1
8342	8350	1
8347	8351	1
1400	1411	1
1411	1412	1
614	1411	1
1402	1409	1
1409	1410	1
1388	1409	1
1400	1401	1
1399	1400	1
1401	1402	1
1402	1403	1
1401	1405	1
1399	1404	1
1399	1407	1
1403	1404	1
1403	1406	1
1404	1408	1
7453	7464	1
7464	7465	1
7464	7472	1
7455	7462	1
7462	7463	1
7462	6254	1
7453	7454	1
7452	7453	1
7454	7455	1
7455	7456	1
7454	7458	1
7452	7457	1
7452	7460	1
7456	7457	1
7456	7459	1
7457	7461	1
11628	11635	1
11635	11636	1
11635	7579	1
11626	11637	1
11637	11638	1
11637	4636	1
11627	11628	1
11628	11629	1
11626	11627	1
11625	11626	1
11627	11631	1
11629	11630	1
11629	11632	1
11625	11630	1
11625	11633	1
11630	11634	1
12258	12265	1
12265	12266	1
12265	6632	1
12256	12267	1
12267	12268	1
12267	5743	1
12257	12258	1
12258	12259	1
12256	12257	1
12255	12256	1
12257	12261	1
12259	12260	1
12259	12262	1
12255	12260	1
12255	12263	1
12260	12264	1
6258	6269	1
6269	6270	1
6269	6277	1
6260	6267	1
6267	6268	1
6267	4200	1
6258	6259	1
6257	6258	1
6259	6260	1
6260	6261	1
6259	6263	1
6257	6262	1
6257	6265	1
6261	6262	1
6261	6264	1
6262	6266	1
4147	4158	1
4158	4159	1
4158	4166	1
4149	4156	1
4156	4157	1
4156	7783	1
4147	4148	1
4146	4147	1
4148	4149	1
4149	4150	1
4148	4152	1
4146	4151	1
4146	4154	1
4150	4151	1
4150	4153	1
4151	4155	1
11724	11735	1
11735	11736	1
11735	8368	1
11726	11733	1
11733	11734	1
11733	4782	1
11724	11725	1
11723	11724	1
11725	11726	1
11726	11727	1
11725	11729	1
11723	11728	1
11723	11731	1
11727	11728	1
11727	11730	1
11728	11732	1
8006	8017	1
8017	8018	1
8017	8025	1
8008	8015	1
8015	8016	1
8015	3910	1
8006	8007	1
8005	8006	1
8007	8008	1
8008	8009	1
8007	8011	1
8005	8010	1
8005	8013	1
8009	8010	1
8009	8012	1
8010	8014	1
4728	4739	1
4739	4740	1
4739	6356	1
4730	4737	1
4737	4738	1
4737	4747	1
4728	4729	1
4727	4728	1
4729	4730	1
4730	4731	1
4729	4733	1
4727	4732	1
4727	4735	1
4731	4732	1
4731	4734	1
4732	4736	1
4670	4681	1
4681	4682	1
862	4681	1
4672	4679	1
4679	4680	1
4679	4694	1
4670	4671	1
4669	4670	1
4671	4672	1
4672	4673	1
4671	4675	1
4669	4674	1
4669	4677	1
4673	4674	1
4673	4676	1
4674	4678	1
10080	10091	1
10091	10092	1
10091	10105	1
10082	10089	1
10089	10090	1
10089	8793	1
10080	10081	1
10079	10080	1
10081	10082	1
10082	10083	1
10081	10085	1
10079	10084	1
10079	10087	1
10083	10084	1
10083	10086	1
10084	10088	1
5835	5846	1
5846	5847	1
5846	5854	1
5837	5844	1
5844	5845	1
5844	8772	1
5835	5836	1
5834	5835	1
5836	5837	1
5837	5838	1
5836	5840	1
5834	5839	1
5834	5842	1
5838	5839	1
5838	5841	1
5839	5843	1
3002	3013	1
3013	3014	1
3013	3015	1
3004	3011	1
3011	3012	1
3011	6729	1
3002	3003	1
3001	3002	1
3003	3004	1
3004	3005	1
3003	3007	1
3001	3006	1
3001	3009	1
3005	3006	1
3005	3008	1
3006	3010	1
6972	6983	1
6983	6984	1
6983	11167	1
6974	6981	1
6981	6982	1
6981	6996	1
6972	6973	1
6971	6972	1
6973	6974	1
6974	6975	1
6973	6977	1
6971	6976	1
6971	6979	1
6975	6976	1
6975	6978	1
6976	6980	1
1290	1301	1
1301	1302	1
1301	7506	1
1292	1299	1
1299	1300	1
1278	1299	1
1290	1291	1
1289	1290	1
1291	1292	1
1292	1293	1
1291	1295	1
1289	1294	1
1289	1297	1
1293	1294	1
1293	1296	1
1294	1298	1
2582	2593	1
2593	2594	1
800	2593	1
2584	2591	1
2591	2592	1
2570	2591	1
2582	2583	1
2581	2582	1
2583	2584	1
2584	2585	1
2583	2587	1
2581	2586	1
2581	2589	1
2585	2586	1
2585	2588	1
2586	2590	1
6392	6399	1
6399	6400	1
6399	7754	1
6390	6401	1
6401	6402	1
6401	6409	1
6392	6391	1
6393	6392	1
6391	6390	1
6390	6389	1
6391	6395	1
6393	6394	1
6393	6396	1
6389	6394	1
6389	6397	1
6394	6398	1
11234	11245	1
11245	11246	1
11245	7477	1
11236	11243	1
11243	11244	1
11243	3881	1
11234	11235	1
11233	11234	1
11235	11236	1
11236	11237	1
11235	11239	1
11233	11238	1
11233	11241	1
11237	11238	1
11237	11240	1
11238	11242	1
10356	10367	1
10367	10368	1
10367	4332	1
10358	10365	1
10365	10366	1
10365	10375	1
10356	10357	1
10355	10356	1
10357	10358	1
10358	10359	1
10357	10361	1
10355	10360	1
10355	10363	1
10359	10360	1
10359	10362	1
10360	10364	1
3829	3836	1
3836	3837	1
769	3836	1
3827	3838	1
3838	3840	1
3838	3839	1
3828	3829	1
3829	3830	1
3827	3828	1
3826	3827	1
3828	3832	1
3830	3831	1
3830	3833	1
3826	3831	1
3826	3834	1
3831	3835	1
11276	11287	1
11287	11288	1
11287	6808	1
11278	11285	1
11285	11286	1
11285	4027	1
11276	11277	1
11275	11276	1
11277	11278	1
11278	11279	1
11277	11281	1
11275	11280	1
11275	11283	1
11279	11280	1
11279	11282	1
11280	11284	1
10577	10588	1
10588	10589	1
10588	11064	1
10579	10586	1
10586	10587	1
10586	10596	1
10577	10578	1
10576	10577	1
10578	10579	1
10579	10580	1
10578	10582	1
10576	10581	1
10576	10584	1
10580	10581	1
10580	10583	1
10581	10585	1
7118	7129	1
7129	7130	1
7129	7137	1
7120	7127	1
7127	7128	1
7127	5932	1
7118	7119	1
7117	7118	1
7119	7120	1
7120	7121	1
7119	7123	1
7117	7122	1
7117	7125	1
7121	7122	1
7121	7124	1
7122	7126	1
1834	1845	1
1845	1846	1
1827	1845	1
1836	1843	1
1843	1844	1
304	1843	1
1834	1835	1
1833	1834	1
1835	1836	1
1836	1837	1
1835	1839	1
1833	1838	1
1833	1841	1
1837	1838	1
1837	1840	1
1838	1842	1
12844	12855	1
12855	12856	1
12855	7011	1
12846	12853	1
12853	12854	1
12853	10717	1
12844	12845	1
12843	12844	1
12845	12846	1
12846	12847	1
12845	12849	1
12843	12848	1
12843	12851	1
12847	12848	1
12847	12850	1
12848	12852	1
3392	3403	1
3403	3404	1
3403	3405	1
3394	3401	1
3401	3402	1
3401	9128	1
3392	3393	1
3391	3392	1
3393	3394	1
3394	3395	1
3393	3397	1
3391	3396	1
3391	3399	1
3395	3396	1
3395	3398	1
3396	3400	1
13544	13555	1
13555	13556	1
13555	9040	1
13546	13553	1
13553	13554	1
13553	10850	1
13544	13545	1
13543	13544	1
13545	13546	1
13546	13547	1
13545	13549	1
13543	13548	1
13543	13551	1
13547	13548	1
13547	13550	1
13548	13552	1
11948	11959	1
11959	11960	1
2045	11959	1
11950	11957	1
11957	11958	1
11957	5175	1
11948	11949	1
11947	11948	1
11949	11950	1
11950	11951	1
11949	11953	1
11947	11952	1
11947	11955	1
11951	11952	1
11951	11954	1
11952	11956	1
11262	11273	1
11273	11274	1
11273	3940	1
11264	11271	1
11271	11272	1
2107	11271	1
11262	11263	1
11261	11262	1
11263	11264	1
11264	11265	1
11263	11267	1
11261	11266	1
11261	11269	1
11265	11266	1
11265	11268	1
11266	11270	1
3617	3628	1
3628	3630	1
3628	3629	1
3619	3626	1
3626	3627	1
3626	10756	1
3617	3618	1
3616	3617	1
3618	3619	1
3619	3620	1
3618	3622	1
3616	3621	1
3616	3624	1
3620	3621	1
3620	3623	1
3621	3625	1
313	320	1
320	321	1
320	7726	1
311	322	1
322	323	1
299	322	1
313	312	1
314	313	1
312	311	1
311	310	1
312	316	1
314	315	1
314	317	1
310	315	1
310	318	1
315	319	1
2613	2624	1
2624	2625	1
2601	2624	1
2615	2622	1
2622	2623	1
428	2622	1
2613	2614	1
2612	2613	1
2614	2615	1
2615	2616	1
2614	2618	1
2612	2617	1
2612	2620	1
2616	2617	1
2616	2619	1
2617	2621	1
5557	5568	1
5568	5569	1
5568	5576	1
5559	5566	1
5566	5567	1
5566	10888	1
5557	5558	1
5556	5557	1
5558	5559	1
5559	5560	1
5558	5562	1
5556	5561	1
5556	5564	1
5560	5561	1
5560	5563	1
5561	5565	1
4336	4347	1
4347	4348	1
4347	4355	1
4338	4345	1
4345	4346	1
4345	8655	1
4336	4337	1
4335	4336	1
4337	4338	1
4338	4339	1
4337	4341	1
4335	4340	1
4335	4343	1
4339	4340	1
4339	4342	1
4340	4344	1
13852	13863	1
13863	13864	1
1309	13863	1
13854	13861	1
13861	13862	1
1672	13861	1
13852	13853	1
13851	13852	1
13853	13854	1
13854	13855	1
13853	13857	1
13851	13856	1
13851	13859	1
13855	13856	1
13855	13858	1
13856	13860	1
3302	3313	1
3313	3314	1
3313	3315	1
3304	3311	1
3311	3312	1
3311	8924	1
3302	3303	1
3301	3302	1
3303	3304	1
3304	3305	1
3303	3307	1
3301	3306	1
3301	3309	1
3305	3306	1
3305	3308	1
3306	3310	1
12550	12561	1
12561	12562	1
12561	6239	1
12552	12559	1
12559	12560	1
12559	6633	1
12550	12551	1
12549	12550	1
12551	12552	1
12552	12553	1
12551	12555	1
12549	12554	1
12549	12557	1
12553	12554	1
12553	12556	1
12554	12558	1
12326	12337	1
12337	12338	1
12337	7041	1
12328	12335	1
12335	12336	1
12335	5831	1
12326	12327	1
12325	12326	1
12327	12328	1
12328	12329	1
12327	12331	1
12325	12330	1
12325	12333	1
12329	12330	1
12329	12332	1
12330	12334	1
11402	11413	1
11413	11414	1
11413	4229	1
11404	11411	1
11411	11412	1
11411	10426	1
11402	11403	1
11401	11402	1
11403	11404	1
11404	11405	1
11403	11407	1
11401	11406	1
11401	11409	1
11405	11406	1
11405	11408	1
11406	11410	1
5295	5306	1
5306	5307	1
5306	5314	1
5297	5304	1
5304	5305	1
5304	7143	1
5295	5296	1
5294	5295	1
5296	5297	1
5297	5298	1
5296	5300	1
5294	5299	1
5294	5302	1
5298	5299	1
5298	5301	1
5299	5303	1
1431	1442	1
1442	1443	1
1419	1442	1
1433	1440	1
1440	1441	1
1440	8757	1
1431	1432	1
1430	1431	1
1432	1433	1
1433	1434	1
1432	1436	1
1430	1435	1
1430	1438	1
1434	1435	1
1434	1437	1
1435	1439	1
12648	12659	1
12659	12660	1
12659	6837	1
12650	12657	1
12657	12658	1
12657	6415	1
12648	12649	1
12647	12648	1
12649	12650	1
12650	12651	1
12649	12653	1
12647	12652	1
12647	12655	1
12651	12652	1
12651	12654	1
12652	12656	1
11892	11903	1
11903	11904	1
11903	8719	1
11894	11901	1
11901	11902	1
11901	5088	1
11892	11893	1
11891	11892	1
11893	11894	1
11894	11895	1
11893	11897	1
11891	11896	1
11891	11899	1
11895	11896	1
11895	11898	1
11896	11900	1
4917	4928	1
4928	4929	1
366	4928	1
4919	4926	1
4926	4927	1
4926	4936	1
4917	4918	1
4916	4917	1
4918	4919	1
4919	4920	1
4918	4922	1
4916	4921	1
4916	4924	1
4920	4921	1
4920	4923	1
4921	4925	1
5969	5976	1
5976	5977	1
5976	8030	1
5967	5978	1
5978	5979	1
5978	5986	1
5968	5969	1
5969	5970	1
5967	5968	1
5966	5967	1
5968	5972	1
5970	5971	1
5970	5973	1
5966	5971	1
5966	5974	1
5971	5975	1
11388	11399	1
11399	11400	1
11399	4970	1
11390	11397	1
11397	11398	1
11397	4201	1
11388	11389	1
11387	11388	1
11389	11390	1
11390	11391	1
11389	11393	1
11387	11392	1
11387	11395	1
11391	11392	1
11391	11394	1
11392	11396	1
12242	12253	1
12253	12254	1
1734	12253	1
12244	12251	1
12251	12252	1
12251	5708	1
12242	12243	1
12241	12242	1
12243	12244	1
12244	12245	1
12243	12247	1
12241	12246	1
12241	12249	1
12245	12246	1
12245	12248	1
12246	12250	1
10664	10675	1
10675	10676	1
10675	10683	1
10666	10673	1
10673	10674	1
10673	10894	1
10664	10665	1
10663	10664	1
10665	10666	1
10666	10667	1
10665	10669	1
10663	10668	1
10663	10671	1
10667	10668	1
10667	10670	1
10668	10672	1
3587	3598	1
3598	3599	1
3598	3600	1
3589	3596	1
3596	3597	1
3596	10513	1
3587	3588	1
3586	3587	1
3588	3589	1
3589	3590	1
3588	3592	1
3586	3591	1
3586	3594	1
3590	3591	1
3590	3593	1
3591	3595	1
497	508	1
508	509	1
508	9954	1
499	506	1
506	507	1
485	506	1
497	498	1
496	497	1
498	499	1
499	500	1
498	502	1
496	501	1
496	504	1
500	501	1
500	503	1
501	505	1
7788	7799	1
7799	7800	1
7799	5087	1
7790	7797	1
7797	7798	1
7797	7807	1
7788	7789	1
7787	7788	1
7789	7790	1
7790	7791	1
7789	7793	1
7787	7792	1
7787	7795	1
7791	7792	1
7791	7794	1
7792	7796	1
11920	11931	1
11931	11932	1
11931	5145	1
11922	11929	1
11929	11930	1
11929	10047	1
11920	11921	1
11919	11920	1
11921	11922	1
11922	11923	1
11921	11925	1
11919	11924	1
11919	11927	1
11923	11924	1
11923	11926	1
11924	11928	1
215	226	1
226	227	1
205	226	1
217	224	1
224	225	1
224	8377	1
215	216	1
214	215	1
216	217	1
217	218	1
216	220	1
214	219	1
214	222	1
218	219	1
218	221	1
219	223	1
10606	10617	1
10617	10618	1
10617	10625	1
10608	10615	1
10615	10616	1
10615	7929	1
10606	10607	1
10605	10606	1
10607	10608	1
10608	10609	1
10607	10611	1
10605	10610	1
10605	10613	1
10609	10610	1
10609	10612	1
10610	10614	1
21	32	1
32	33	1
32	4026	1
23	30	1
30	31	1
7	30	1
21	22	1
20	21	1
22	23	1
23	24	1
22	26	1
20	25	1
20	28	1
24	25	1
24	27	1
25	29	1
2764	2771	1
2771	2772	1
2771	5082	1
2762	2773	1
2773	2774	1
2773	2775	1
2763	2764	1
2764	2765	1
2762	2763	1
2761	2762	1
2763	2767	1
2765	2766	1
2765	2768	1
2761	2766	1
2761	2769	1
2766	2770	1
2226	2233	1
2233	2234	1
2212	2233	1
2224	2235	1
2235	2236	1
2235	8436	1
2225	2226	1
2226	2227	1
2224	2225	1
2223	2224	1
2225	2229	1
2227	2228	1
2227	2230	1
2223	2228	1
2223	2231	1
2228	2232	1
13740	13751	1
13751	13752	1
13751	10893	1
13742	13749	1
13749	13750	1
13749	10689	1
13740	13741	1
13739	13740	1
13741	13742	1
13742	13743	1
13741	13745	1
13739	13744	1
13739	13747	1
13743	13744	1
13743	13746	1
13744	13748	1
7249	7260	1
7260	7261	1
7260	6895	1
7251	7258	1
7258	7259	1
7258	7268	1
7249	7250	1
7248	7249	1
7250	7251	1
7251	7252	1
7250	7254	1
7248	7253	1
7248	7256	1
7252	7253	1
7252	7255	1
7253	7257	1
4118	4129	1
4129	4130	1
4129	4137	1
4120	4127	1
4127	4128	1
4127	5606	1
4118	4119	1
4117	4118	1
4119	4120	1
4120	4121	1
4119	4123	1
4117	4122	1
4117	4125	1
4121	4122	1
4121	4124	1
4122	4126	1
6127	6138	1
6138	6139	1
6138	6146	1
6129	6136	1
6136	6137	1
6136	6924	1
6127	6128	1
6126	6127	1
6128	6129	1
6129	6130	1
6128	6132	1
6126	6131	1
6126	6134	1
6130	6131	1
6130	6133	1
6131	6135	1
4309	4316	1
4316	4317	1
1048	4316	1
4307	4318	1
4318	4319	1
4318	4326	1
4308	4309	1
4309	4310	1
4307	4308	1
4306	4307	1
4308	4312	1
4310	4311	1
4310	4313	1
4306	4311	1
4306	4314	1
4311	4315	1
13308	13315	1
13315	13316	1
13315	9245	1
13306	13317	1
13317	13318	1
13317	8265	1
13307	13308	1
13308	13309	1
13306	13307	1
13305	13306	1
13307	13311	1
13309	13310	1
13309	13312	1
13305	13310	1
13305	13313	1
13310	13314	1
7089	7100	1
7100	7101	1
7100	11188	1
7091	7098	1
7098	7099	1
7098	7108	1
7089	7090	1
7088	7089	1
7090	7091	1
7091	7092	1
7090	7094	1
7088	7093	1
7088	7096	1
7092	7093	1
7092	7095	1
7093	7097	1
4176	4187	1
4187	4188	1
4187	5450	1
4178	4185	1
4185	4186	1
4185	4195	1
4176	4177	1
4175	4176	1
4177	4178	1
4178	4179	1
4177	4181	1
4175	4180	1
4175	4183	1
4179	4180	1
4179	4182	1
4180	4184	1
3604	3611	1
3611	3612	1
3611	10659	1
3602	3613	1
3613	3614	1
3613	3615	1
3603	3604	1
3604	3605	1
3602	3603	1
3601	3602	1
3603	3607	1
3605	3606	1
3605	3608	1
3601	3606	1
3601	3609	1
3606	3610	1
3364	3371	1
3371	3372	1
3371	9094	1
3362	3373	1
3373	3374	1
3373	3375	1
3363	3364	1
3364	3365	1
3362	3363	1
3361	3362	1
3363	3367	1
3365	3366	1
3365	3368	1
3361	3366	1
3361	3369	1
3366	3370	1
7601	7608	1
7608	7609	1
7608	7623	1
7599	7610	1
7610	7611	1
7610	5684	1
7601	7600	1
7602	7601	1
7600	7599	1
7599	7598	1
7600	7604	1
7602	7603	1
7602	7605	1
7598	7603	1
7598	7606	1
7603	7607	1
10474	10485	1
10485	10486	1
10485	10498	1
10476	10483	1
10483	10484	1
10483	6690	1
10474	10475	1
10473	10474	1
10475	10476	1
10476	10477	1
10475	10479	1
10473	10478	1
10473	10481	1
10477	10478	1
10477	10480	1
10478	10482	1
5397	5408	1
5408	5409	1
5408	5416	1
5399	5406	1
5406	5407	1
5406	10508	1
5397	5398	1
5396	5397	1
5398	5399	1
5399	5400	1
5398	5402	1
5396	5401	1
5396	5404	1
5400	5401	1
5400	5403	1
5401	5405	1
12172	12183	1
12183	12184	1
12183	9653	1
12174	12181	1
12181	12182	1
12181	5612	1
12172	12173	1
12171	12172	1
12173	12174	1
12174	12175	1
12173	12177	1
12171	12176	1
12171	12179	1
12175	12176	1
12175	12178	1
12176	12180	1
3855	3856	1
3855	3858	1
3855	3861	1
3856	3857	1
3856	3863	1
3857	3860	1
3857	3867	1
3859	3860	1
3860	3865	1
3858	3859	1
3859	3866	1
3858	3864	1
3866	3868	1
3861	3862	1
3867	3869	1
295	298	1
294	295	1
295	305	1
297	298	1
298	303	1
296	297	1
297	304	1
293	296	1
296	302	1
293	294	1
293	299	1
294	301	1
299	300	1
305	307	1
305	308	1
304	306	1
308	309	1
324	325	1
324	327	1
324	330	1
325	326	1
325	332	1
326	329	1
326	336	1
328	329	1
329	334	1
327	328	1
328	335	1
327	333	1
335	337	1
330	331	1
336	338	1
336	339	1
339	340	1
3870	3873	1
3870	3871	1
3870	3876	1
3873	3874	1
3873	3879	1
3874	3875	1
3874	3881	1
3872	3875	1
3875	3880	1
3871	3872	1
3872	3882	1
3871	3878	1
3882	3884	1
3876	3877	1
3881	3883	1
355	358	1
355	356	1
355	361	1
358	359	1
358	364	1
359	360	1
359	366	1
357	360	1
360	365	1
356	357	1
357	367	1
356	363	1
367	369	1
367	370	1
361	362	1
366	368	1
370	371	1
386	389	1
386	387	1
386	392	1
389	390	1
389	395	1
390	391	1
390	397	1
388	391	1
391	396	1
387	388	1
388	398	1
387	394	1
398	400	1
398	401	1
392	393	1
397	399	1
401	402	1
3899	3902	1
3899	3900	1
3899	3905	1
3902	3903	1
3902	3908	1
3903	3904	1
3903	3910	1
3901	3904	1
3904	3909	1
3900	3901	1
3901	3911	1
3900	3907	1
3911	3913	1
3905	3906	1
3910	3912	1
3928	3931	1
3928	3929	1
3928	3934	1
3931	3932	1
3931	3937	1
3932	3933	1
3932	3939	1
3930	3933	1
3933	3938	1
3929	3930	1
3930	3940	1
3929	3936	1
3940	3942	1
3934	3935	1
3939	3941	1
418	419	1
419	422	1
419	429	1
417	418	1
418	425	1
417	420	1
417	423	1
420	421	1
420	426	1
421	422	1
421	428	1
422	427	1
428	430	1
429	431	1
429	432	1
423	424	1
432	433	1
3957	3960	1
3957	3958	1
3957	3963	1
3960	3961	1
3960	3966	1
3961	3962	1
3961	3968	1
3959	3962	1
3962	3967	1
3958	3959	1
3959	3969	1
3958	3965	1
3969	3971	1
3963	3964	1
3968	3970	1
3986	3987	1
3986	3989	1
3986	3992	1
3987	3988	1
3987	3994	1
3988	3991	1
3988	3998	1
3990	3991	1
3991	3996	1
3989	3990	1
3990	3997	1
3989	3995	1
3997	3999	1
3992	3993	1
3998	4000	1
4015	4018	1
4015	4016	1
4015	4021	1
4018	4019	1
4018	4024	1
4019	4020	1
4019	4026	1
4017	4020	1
4020	4025	1
4016	4017	1
4017	4027	1
4016	4023	1
4027	4029	1
4021	4022	1
4026	4028	1
449	450	1
450	453	1
450	460	1
448	449	1
449	456	1
448	451	1
448	454	1
451	452	1
451	457	1
452	453	1
452	459	1
453	458	1
459	461	1
460	462	1
460	463	1
454	455	1
463	464	1
4044	4047	1
4044	4045	1
4044	4050	1
4047	4048	1
4047	4053	1
4048	4049	1
4048	4055	1
4046	4049	1
4049	4054	1
4045	4046	1
4046	4056	1
4045	4052	1
4056	4058	1
4050	4051	1
4055	4057	1
4073	4074	1
4073	4076	1
4073	4079	1
4074	4075	1
4074	4081	1
4075	4078	1
4075	4085	1
4077	4078	1
4078	4083	1
4076	4077	1
4077	4084	1
4076	4082	1
4084	4086	1
4079	4080	1
4085	4087	1
4102	4103	1
4102	4105	1
4102	4108	1
4103	4104	1
4103	4110	1
4104	4107	1
4104	4114	1
4106	4107	1
4107	4112	1
4105	4106	1
4106	4113	1
4105	4111	1
4113	4115	1
4108	4109	1
4114	4116	1
4	5	1
5	6	1
5	12	1
1	4	1
4	10	1
1	2	1
1	7	1
2	3	1
2	9	1
3	6	1
3	13	1
6	11	1
13	15	1
13	18	1
12	14	1
12	16	1
7	8	1
18	19	1
16	17	1
4131	4132	1
4131	4134	1
4131	4137	1
4132	4133	1
4132	4139	1
4133	4136	1
4133	4143	1
4135	4136	1
4136	4141	1
4134	4135	1
4135	4142	1
4134	4140	1
4142	4144	1
4137	4138	1
4143	4145	1
479	480	1
479	482	1
479	485	1
480	481	1
480	487	1
481	484	1
481	491	1
483	484	1
484	489	1
482	483	1
483	490	1
482	488	1
490	492	1
485	486	1
491	493	1
491	494	1
494	495	1
4160	4161	1
4160	4163	1
4160	4166	1
4161	4162	1
4161	4168	1
4162	4165	1
4162	4172	1
4164	4165	1
4165	4170	1
4163	4164	1
4164	4171	1
4163	4169	1
4171	4173	1
4166	4167	1
4172	4174	1
510	513	1
510	511	1
510	516	1
513	514	1
513	519	1
514	515	1
514	521	1
512	515	1
515	520	1
511	512	1
512	522	1
511	518	1
522	524	1
522	525	1
516	517	1
521	523	1
525	526	1
4189	4190	1
4189	4192	1
4189	4195	1
4190	4191	1
4190	4197	1
4191	4194	1
4191	4201	1
4193	4194	1
4194	4199	1
4192	4193	1
4193	4200	1
4192	4198	1
4200	4202	1
4195	4196	1
4201	4203	1
4218	4219	1
4218	4221	1
4218	4224	1
4219	4220	1
4219	4226	1
4220	4223	1
4220	4230	1
4222	4223	1
4223	4228	1
4221	4222	1
4222	4229	1
4221	4227	1
4229	4231	1
4224	4225	1
4230	4232	1
4247	4250	1
4247	4248	1
4247	4253	1
4250	4251	1
4250	4256	1
4251	4252	1
4251	4258	1
4249	4252	1
4252	4257	1
4248	4249	1
4249	4259	1
4248	4255	1
4259	4261	1
4253	4254	1
4258	4260	1
4276	4277	1
4276	4279	1
4276	4282	1
4277	4278	1
4277	4284	1
4278	4281	1
4278	4288	1
4280	4281	1
4281	4286	1
4279	4280	1
4280	4287	1
4279	4285	1
4287	4289	1
4282	4283	1
4288	4290	1
541	542	1
541	544	1
541	547	1
542	543	1
542	549	1
543	546	1
543	553	1
545	546	1
546	551	1
544	545	1
545	552	1
544	550	1
552	554	1
547	548	1
553	555	1
553	556	1
556	557	1
573	574	1
574	577	1
574	584	1
572	573	1
573	580	1
572	575	1
572	578	1
575	576	1
575	581	1
576	577	1
576	583	1
577	582	1
583	585	1
584	586	1
584	587	1
578	579	1
587	588	1
4291	4294	1
4291	4292	1
4291	4297	1
4294	4295	1
4294	4300	1
4295	4296	1
4295	4302	1
4293	4296	1
4296	4301	1
4292	4293	1
4293	4303	1
4292	4299	1
4303	4305	1
4297	4298	1
4302	4304	1
4322	4325	1
4321	4322	1
4322	4332	1
4324	4325	1
4325	4330	1
4323	4324	1
4324	4331	1
4320	4323	1
4323	4329	1
4320	4321	1
4320	4326	1
4321	4328	1
4326	4327	1
4332	4334	1
4331	4333	1
603	604	1
603	606	1
603	609	1
604	605	1
604	611	1
605	608	1
605	615	1
607	608	1
608	613	1
606	607	1
607	614	1
606	612	1
614	616	1
609	610	1
615	617	1
615	618	1
618	619	1
4349	4352	1
4349	4350	1
4349	4355	1
4352	4353	1
4352	4358	1
4353	4354	1
4353	4360	1
4351	4354	1
4354	4359	1
4350	4351	1
4351	4361	1
4350	4357	1
4361	4363	1
4355	4356	1
4360	4362	1
634	635	1
634	637	1
634	640	1
635	636	1
635	642	1
636	639	1
636	646	1
638	639	1
639	644	1
637	638	1
638	645	1
637	643	1
645	647	1
640	641	1
646	648	1
646	649	1
649	650	1
4378	4381	1
4378	4379	1
4378	4384	1
4381	4382	1
4381	4387	1
4382	4383	1
4382	4389	1
4380	4383	1
4383	4388	1
4379	4380	1
4380	4390	1
4379	4386	1
4390	4392	1
4384	4385	1
4389	4391	1
4393	4394	1
4393	4396	1
4393	4399	1
4394	4395	1
4394	4401	1
4395	4398	1
4395	4405	1
4397	4398	1
4398	4403	1
4396	4397	1
4397	4404	1
4396	4402	1
4404	4406	1
4399	4400	1
4405	4407	1
4422	4423	1
4422	4425	1
4422	4428	1
4423	4424	1
4423	4430	1
4424	4427	1
4424	4434	1
4426	4427	1
4427	4432	1
4425	4426	1
4426	4433	1
4425	4431	1
4433	4435	1
4428	4429	1
4434	4436	1
4451	4452	1
4451	4454	1
4451	4457	1
4452	4453	1
4452	4459	1
4453	4456	1
4453	4463	1
4455	4456	1
4456	4461	1
4454	4455	1
4455	4462	1
4454	4460	1
4462	4464	1
4457	4458	1
4463	4465	1
4480	4483	1
4480	4481	1
4480	4486	1
4483	4484	1
4483	4489	1
4484	4485	1
4484	4491	1
4482	4485	1
4485	4490	1
4481	4482	1
4482	4492	1
4481	4488	1
4492	4494	1
4486	4487	1
4491	4493	1
666	667	1
667	670	1
667	677	1
665	666	1
666	673	1
665	668	1
665	671	1
668	669	1
668	674	1
669	670	1
669	676	1
670	675	1
676	678	1
677	679	1
677	680	1
671	672	1
680	681	1
4509	4510	1
4509	4512	1
4509	4515	1
4510	4511	1
4510	4517	1
4511	4514	1
4511	4521	1
4513	4514	1
4514	4519	1
4512	4513	1
4513	4520	1
4512	4518	1
4520	4522	1
4515	4516	1
4521	4523	1
696	699	1
696	697	1
696	702	1
699	700	1
699	705	1
700	701	1
700	707	1
698	701	1
701	706	1
697	698	1
698	708	1
697	704	1
708	710	1
708	711	1
702	703	1
707	709	1
711	712	1
4538	4541	1
4538	4539	1
4538	4544	1
4541	4542	1
4541	4547	1
4542	4543	1
4542	4549	1
4540	4543	1
4543	4548	1
4539	4540	1
4540	4550	1
4539	4546	1
4550	4552	1
4544	4545	1
4549	4551	1
4567	4570	1
4567	4568	1
4567	4573	1
4570	4571	1
4570	4576	1
4571	4572	1
4571	4578	1
4569	4572	1
4572	4577	1
4568	4569	1
4569	4579	1
4568	4575	1
4579	4581	1
4573	4574	1
4578	4580	1
4596	4599	1
4596	4597	1
4596	4602	1
4599	4600	1
4599	4605	1
4600	4601	1
4600	4607	1
4598	4601	1
4601	4606	1
4597	4598	1
4598	4608	1
4597	4604	1
4608	4610	1
4602	4603	1
4607	4609	1
4625	4626	1
4625	4628	1
4625	4631	1
4626	4627	1
4626	4633	1
4627	4630	1
4627	4637	1
4629	4630	1
4630	4635	1
4628	4629	1
4629	4636	1
4628	4634	1
4636	4638	1
4631	4632	1
4637	4639	1
727	730	1
727	728	1
727	733	1
730	731	1
730	736	1
731	732	1
731	738	1
729	732	1
732	737	1
728	729	1
729	739	1
728	735	1
739	741	1
739	742	1
733	734	1
738	740	1
742	743	1
758	761	1
758	759	1
758	764	1
761	762	1
761	767	1
762	763	1
762	769	1
760	763	1
763	768	1
759	760	1
760	770	1
759	766	1
770	772	1
770	773	1
764	765	1
769	771	1
773	774	1
789	790	1
789	792	1
789	795	1
790	791	1
790	797	1
791	794	1
791	801	1
793	794	1
794	799	1
792	793	1
793	800	1
792	798	1
800	802	1
795	796	1
801	803	1
801	804	1
804	805	1
4655	4656	1
4656	4659	1
4656	4666	1
4654	4655	1
4655	4662	1
4654	4657	1
4654	4660	1
4657	4658	1
4657	4663	1
4658	4659	1
4658	4665	1
4659	4664	1
4665	4667	1
4666	4668	1
4660	4661	1
4687	4688	1
4687	4686	1
4687	4694	1
4688	4685	1
4688	4693	1
4685	4684	1
4685	4695	1
4683	4684	1
4684	4691	1
4686	4683	1
4683	4689	1
4686	4692	1
4689	4690	1
4694	4696	1
4695	4697	1
4712	4713	1
4712	4715	1
4712	4718	1
4713	4714	1
4713	4720	1
4714	4717	1
4714	4724	1
4716	4717	1
4717	4722	1
4715	4716	1
4716	4723	1
4715	4721	1
4723	4725	1
4718	4719	1
4724	4726	1
36	39	1
35	36	1
36	46	1
38	39	1
39	44	1
37	38	1
38	45	1
34	37	1
37	43	1
34	35	1
34	40	1
35	42	1
40	41	1
46	48	1
46	51	1
45	47	1
45	49	1
51	52	1
49	50	1
4741	4742	1
4741	4744	1
4741	4747	1
4742	4743	1
4742	4749	1
4743	4746	1
4743	4753	1
4745	4746	1
4746	4751	1
4744	4745	1
4745	4752	1
4744	4750	1
4752	4754	1
4747	4748	1
4753	4755	1
4770	4773	1
4770	4771	1
4770	4776	1
4773	4774	1
4773	4779	1
4774	4775	1
4774	4781	1
4772	4775	1
4775	4780	1
4771	4772	1
4772	4782	1
4771	4778	1
4782	4784	1
4776	4777	1
4781	4783	1
821	822	1
822	825	1
822	832	1
820	821	1
821	828	1
820	823	1
820	826	1
823	824	1
823	829	1
824	825	1
824	831	1
825	830	1
831	833	1
832	834	1
832	835	1
826	827	1
835	836	1
4799	4802	1
4799	4800	1
4799	4805	1
4802	4803	1
4802	4808	1
4803	4804	1
4803	4810	1
4801	4804	1
4804	4809	1
4800	4801	1
4801	4811	1
4800	4807	1
4811	4813	1
4805	4806	1
4810	4812	1
4828	4831	1
4828	4829	1
4828	4834	1
4831	4832	1
4831	4837	1
4832	4833	1
4832	4839	1
4830	4833	1
4833	4838	1
4829	4830	1
4830	4840	1
4829	4836	1
4840	4842	1
4834	4835	1
4839	4841	1
853	856	1
852	853	1
853	863	1
855	856	1
856	861	1
854	855	1
855	862	1
851	854	1
854	860	1
851	852	1
851	857	1
852	859	1
857	858	1
863	865	1
863	866	1
862	864	1
866	867	1
4857	4860	1
4857	4858	1
4857	4863	1
4860	4861	1
4860	4866	1
4861	4862	1
4861	4868	1
4859	4862	1
4862	4867	1
4858	4859	1
4859	4869	1
4858	4865	1
4869	4871	1
4863	4864	1
4868	4870	1
4872	4875	1
4872	4873	1
4872	4878	1
4875	4876	1
4875	4881	1
4876	4877	1
4876	4883	1
4874	4877	1
4877	4882	1
4873	4874	1
4874	4884	1
4873	4880	1
4884	4886	1
4878	4879	1
4883	4885	1
4901	4902	1
4901	4904	1
4901	4907	1
4902	4903	1
4902	4909	1
4903	4906	1
4903	4913	1
4905	4906	1
4906	4911	1
4904	4905	1
4905	4912	1
4904	4910	1
4912	4914	1
4907	4908	1
4913	4915	1
4930	4933	1
4930	4931	1
4930	4936	1
4933	4934	1
4933	4939	1
4934	4935	1
4934	4941	1
4932	4935	1
4935	4940	1
4931	4932	1
4932	4942	1
4931	4938	1
4942	4944	1
4936	4937	1
4941	4943	1
4959	4960	1
4959	4962	1
4959	4965	1
4960	4961	1
4960	4967	1
4961	4964	1
4961	4971	1
4963	4964	1
4964	4969	1
4962	4963	1
4963	4970	1
4962	4968	1
4970	4972	1
4965	4966	1
4971	4973	1
882	885	1
882	883	1
882	888	1
885	886	1
885	891	1
886	887	1
886	893	1
884	887	1
887	892	1
883	884	1
884	894	1
883	890	1
894	896	1
894	897	1
888	889	1
893	895	1
897	898	1
4988	4989	1
4988	4991	1
4988	4994	1
4989	4990	1
4989	4996	1
4990	4993	1
4990	5000	1
4992	4993	1
4993	4998	1
4991	4992	1
4992	4999	1
4991	4997	1
4999	5001	1
4994	4995	1
5000	5002	1
913	916	1
913	914	1
913	919	1
916	917	1
916	922	1
917	918	1
917	924	1
915	918	1
918	923	1
914	915	1
915	925	1
914	921	1
925	927	1
925	928	1
919	920	1
924	926	1
928	929	1
5003	5004	1
5003	5006	1
5003	5009	1
5004	5005	1
5004	5011	1
5005	5008	1
5005	5015	1
5007	5008	1
5008	5013	1
5006	5007	1
5007	5014	1
5006	5012	1
5014	5016	1
5009	5010	1
5015	5017	1
5032	5033	1
5032	5035	1
5032	5038	1
5033	5034	1
5033	5040	1
5034	5037	1
5034	5044	1
5036	5037	1
5037	5042	1
5035	5036	1
5036	5043	1
5035	5041	1
5043	5045	1
5038	5039	1
5044	5046	1
944	945	1
944	947	1
944	950	1
945	946	1
945	952	1
946	949	1
946	956	1
948	949	1
949	954	1
947	948	1
948	955	1
947	953	1
955	957	1
950	951	1
956	958	1
956	959	1
959	960	1
5061	5062	1
5061	5064	1
5061	5067	1
5062	5063	1
5062	5069	1
5063	5066	1
5063	5073	1
5065	5066	1
5066	5071	1
5064	5065	1
5065	5072	1
5064	5070	1
5072	5074	1
5067	5068	1
5073	5075	1
5076	5077	1
5076	5079	1
5076	5082	1
5077	5078	1
5077	5084	1
5078	5081	1
5078	5088	1
5080	5081	1
5081	5086	1
5079	5080	1
5080	5087	1
5079	5085	1
5087	5089	1
5082	5083	1
5088	5090	1
5105	5106	1
5105	5108	1
5105	5111	1
5106	5107	1
5106	5113	1
5107	5110	1
5107	5117	1
5109	5110	1
5110	5115	1
5108	5109	1
5109	5116	1
5108	5114	1
5116	5118	1
5111	5112	1
5117	5119	1
5134	5135	1
5134	5137	1
5134	5140	1
5135	5136	1
5135	5142	1
5136	5139	1
5136	5146	1
5138	5139	1
5139	5144	1
5137	5138	1
5138	5145	1
5137	5143	1
5145	5147	1
5140	5141	1
5146	5148	1
5163	5166	1
5163	5164	1
5163	5169	1
5166	5167	1
5166	5172	1
5167	5168	1
5167	5174	1
5165	5168	1
5168	5173	1
5164	5165	1
5165	5175	1
5164	5171	1
5175	5177	1
5169	5170	1
5174	5176	1
5192	5195	1
5192	5193	1
5192	5198	1
5195	5196	1
5195	5201	1
5196	5197	1
5196	5203	1
5194	5197	1
5197	5202	1
5193	5194	1
5194	5204	1
5193	5200	1
5204	5206	1
5198	5199	1
5203	5205	1
975	978	1
975	976	1
975	981	1
978	979	1
978	984	1
979	980	1
979	986	1
977	980	1
980	985	1
976	977	1
977	987	1
976	983	1
987	989	1
987	990	1
981	982	1
986	988	1
990	991	1
1006	1007	1
1006	1009	1
1006	1012	1
1007	1008	1
1007	1014	1
1008	1011	1
1008	1018	1
1010	1011	1
1011	1016	1
1009	1010	1
1010	1017	1
1009	1015	1
1017	1019	1
1012	1013	1
1018	1020	1
1018	1021	1
1021	1022	1
5221	5224	1
5221	5222	1
5221	5227	1
5224	5225	1
5224	5230	1
5225	5226	1
5225	5232	1
5223	5226	1
5226	5231	1
5222	5223	1
5223	5233	1
5222	5229	1
5233	5235	1
5227	5228	1
5232	5234	1
5250	5253	1
5250	5251	1
5250	5256	1
5253	5254	1
5253	5259	1
5254	5255	1
5254	5261	1
5252	5255	1
5255	5260	1
5251	5252	1
5252	5262	1
5251	5258	1
5262	5264	1
5256	5257	1
5261	5263	1
5279	5280	1
5279	5282	1
5279	5285	1
5280	5281	1
5280	5287	1
5281	5284	1
5281	5291	1
5283	5284	1
5284	5289	1
5282	5283	1
5283	5290	1
5282	5288	1
5290	5292	1
5285	5286	1
5291	5293	1
5308	5309	1
5308	5311	1
5308	5314	1
5309	5310	1
5309	5316	1
5310	5313	1
5310	5320	1
5312	5313	1
5313	5318	1
5311	5312	1
5312	5319	1
5311	5317	1
5319	5321	1
5314	5315	1
5320	5322	1
5337	5340	1
5337	5338	1
5337	5343	1
5340	5341	1
5340	5346	1
5341	5342	1
5341	5348	1
5339	5342	1
5342	5347	1
5338	5339	1
5339	5349	1
5338	5345	1
5349	5351	1
5343	5344	1
5348	5350	1
5352	5355	1
5352	5353	1
5352	5358	1
5355	5356	1
5355	5361	1
5356	5357	1
5356	5363	1
5354	5357	1
5357	5362	1
5353	5354	1
5354	5364	1
5353	5360	1
5364	5366	1
5358	5359	1
5363	5365	1
5381	5384	1
5381	5382	1
5381	5387	1
5384	5385	1
5384	5390	1
5385	5386	1
5385	5392	1
5383	5386	1
5386	5391	1
5382	5383	1
5383	5393	1
5382	5389	1
5393	5395	1
5387	5388	1
5392	5394	1
5410	5413	1
5410	5411	1
5410	5416	1
5413	5414	1
5413	5419	1
5414	5415	1
5414	5421	1
5412	5415	1
5415	5420	1
5411	5412	1
5412	5422	1
5411	5418	1
5422	5424	1
5416	5417	1
5421	5423	1
5439	5442	1
5439	5440	1
5439	5445	1
5442	5443	1
5442	5448	1
5443	5444	1
5443	5450	1
5441	5444	1
5444	5449	1
5440	5441	1
5441	5451	1
5440	5447	1
5451	5453	1
5445	5446	1
5450	5452	1
5468	5471	1
5468	5469	1
5468	5474	1
5471	5472	1
5471	5477	1
5472	5473	1
5472	5479	1
5470	5473	1
5473	5478	1
5469	5470	1
5470	5480	1
5469	5476	1
5480	5482	1
5474	5475	1
5479	5481	1
5483	5484	1
5483	5486	1
5483	5489	1
5484	5485	1
5484	5491	1
5485	5488	1
5485	5495	1
5487	5488	1
5488	5493	1
5486	5487	1
5487	5494	1
5486	5492	1
5494	5496	1
5489	5490	1
5495	5497	1
5512	5513	1
5512	5515	1
5512	5518	1
5513	5514	1
5513	5520	1
5514	5517	1
5514	5524	1
5516	5517	1
5517	5522	1
5515	5516	1
5516	5523	1
5515	5521	1
5523	5525	1
5518	5519	1
5524	5526	1
5541	5544	1
5541	5542	1
5541	5547	1
5544	5545	1
5544	5550	1
5545	5546	1
5545	5552	1
5543	5546	1
5546	5551	1
5542	5543	1
5543	5553	1
5542	5549	1
5553	5555	1
5547	5548	1
5552	5554	1
1037	1040	1
1037	1038	1
1037	1043	1
1040	1041	1
1040	1046	1
1041	1042	1
1041	1048	1
1039	1042	1
1042	1047	1
1038	1039	1
1039	1049	1
1038	1045	1
1049	1051	1
1049	1052	1
1043	1044	1
1048	1050	1
1052	1053	1
5570	5573	1
5570	5571	1
5570	5576	1
5573	5574	1
5573	5579	1
5574	5575	1
5574	5581	1
5572	5575	1
5575	5580	1
5571	5572	1
5572	5582	1
5571	5578	1
5582	5584	1
5576	5577	1
5581	5583	1
5586	5587	1
5587	5590	1
5587	5597	1
5585	5586	1
5586	5593	1
5585	5588	1
5585	5591	1
5588	5589	1
5588	5594	1
5589	5590	1
5589	5596	1
5590	5595	1
5596	5598	1
5597	5599	1
5591	5592	1
5600	5603	1
5600	5601	1
5600	5606	1
5603	5604	1
5603	5609	1
5604	5605	1
5604	5611	1
5602	5605	1
5605	5610	1
5601	5602	1
5602	5612	1
5601	5608	1
5612	5614	1
5606	5607	1
5611	5613	1
5629	5632	1
5629	5630	1
5629	5635	1
5632	5633	1
5632	5638	1
5633	5634	1
5633	5640	1
5631	5634	1
5634	5639	1
5630	5631	1
5631	5641	1
5630	5637	1
5641	5643	1
5635	5636	1
5640	5642	1
1068	1069	1
1068	1071	1
1068	1074	1
1069	1070	1
1069	1076	1
1070	1073	1
1070	1080	1
1072	1073	1
1073	1078	1
1071	1072	1
1072	1079	1
1071	1077	1
1079	1081	1
1074	1075	1
1080	1082	1
1080	1083	1
1083	1084	1
5644	5647	1
5644	5645	1
5644	5650	1
5647	5648	1
5647	5653	1
5648	5649	1
5648	5655	1
5646	5649	1
5649	5654	1
5645	5646	1
5646	5656	1
5645	5652	1
5656	5658	1
5650	5651	1
5655	5657	1
1099	1100	1
1099	1102	1
1099	1105	1
1100	1101	1
1100	1107	1
1101	1104	1
1101	1111	1
1103	1104	1
1104	1109	1
1102	1103	1
1103	1110	1
1102	1108	1
1110	1112	1
1105	1106	1
1111	1113	1
1111	1114	1
1114	1115	1
5673	5676	1
5673	5674	1
5673	5679	1
5676	5677	1
5676	5682	1
5677	5678	1
5677	5684	1
5675	5678	1
5678	5683	1
5674	5675	1
5675	5685	1
5674	5681	1
5685	5687	1
5679	5680	1
5684	5686	1
1131	1132	1
1132	1135	1
1132	1142	1
1130	1131	1
1131	1138	1
1130	1133	1
1130	1136	1
1133	1134	1
1133	1139	1
1134	1135	1
1134	1141	1
1135	1140	1
1141	1143	1
1142	1144	1
1142	1145	1
1136	1137	1
1145	1146	1
5706	5705	1
5707	5706	1
5706	5713	1
5702	5705	1
5705	5711	1
5703	5702	1
5702	5708	1
5704	5703	1
5703	5710	1
5704	5707	1
5704	5714	1
5707	5712	1
5714	5716	1
5713	5715	1
5708	5709	1
5731	5732	1
5731	5734	1
5731	5737	1
5732	5733	1
5732	5739	1
5733	5736	1
5733	5743	1
5735	5736	1
5736	5741	1
5734	5735	1
5735	5742	1
5734	5740	1
5742	5744	1
5737	5738	1
5743	5745	1
5746	5747	1
5746	5749	1
5746	5752	1
5747	5748	1
5747	5754	1
5748	5751	1
5748	5758	1
5750	5751	1
5751	5756	1
5749	5750	1
5750	5757	1
5749	5755	1
5757	5759	1
5752	5753	1
5758	5760	1
1161	1162	1
1161	1164	1
1161	1167	1
1162	1163	1
1162	1169	1
1163	1166	1
1163	1173	1
1165	1166	1
1166	1171	1
1164	1165	1
1165	1172	1
1164	1170	1
1172	1174	1
1167	1168	1
1173	1175	1
1173	1176	1
1176	1177	1
5775	5778	1
5775	5776	1
5775	5781	1
5778	5779	1
5778	5784	1
5779	5780	1
5779	5786	1
5777	5780	1
5780	5785	1
5776	5777	1
5777	5787	1
5776	5783	1
5787	5789	1
5781	5782	1
5786	5788	1
1178	1179	1
1178	1181	1
1178	1184	1
1179	1180	1
1179	1186	1
1180	1183	1
1180	1190	1
1182	1183	1
1183	1188	1
1181	1182	1
1182	1189	1
1181	1187	1
1189	1191	1
1184	1185	1
1190	1192	1
1190	1193	1
1193	1194	1
1210	1211	1
1211	1214	1
1211	1221	1
1209	1210	1
1210	1217	1
1209	1212	1
1209	1215	1
1212	1213	1
1212	1218	1
1213	1214	1
1213	1220	1
1214	1219	1
1220	1222	1
1221	1223	1
1221	1224	1
1215	1216	1
1224	1225	1
5808	5809	1
5807	5808	1
5808	5815	1
5806	5809	1
5809	5814	1
5805	5806	1
5806	5816	1
5804	5805	1
5805	5812	1
5804	5807	1
5804	5810	1
5807	5813	1
5810	5811	1
5815	5817	1
5816	5818	1
5819	5822	1
5819	5820	1
5819	5825	1
5822	5823	1
5822	5828	1
5823	5824	1
5823	5830	1
5821	5824	1
5824	5829	1
5820	5821	1
5821	5831	1
5820	5827	1
5831	5833	1
5825	5826	1
5830	5832	1
5848	5851	1
5848	5849	1
5848	5854	1
5851	5852	1
5851	5857	1
5852	5853	1
5852	5859	1
5850	5853	1
5853	5858	1
5849	5850	1
5850	5860	1
5849	5856	1
5860	5862	1
5854	5855	1
5859	5861	1
5877	5878	1
5877	5880	1
5877	5883	1
5878	5879	1
5878	5885	1
5879	5882	1
5879	5889	1
5881	5882	1
5882	5887	1
5880	5881	1
5881	5888	1
5880	5886	1
5888	5890	1
5883	5884	1
5889	5891	1
5906	5907	1
5906	5909	1
5906	5912	1
5907	5908	1
5907	5914	1
5908	5911	1
5908	5918	1
5910	5911	1
5911	5916	1
5909	5910	1
5910	5917	1
5909	5915	1
5917	5919	1
5912	5913	1
5918	5920	1
5921	5924	1
5921	5922	1
5921	5927	1
5924	5925	1
5924	5930	1
5925	5926	1
5925	5932	1
5923	5926	1
5926	5931	1
5922	5923	1
5923	5933	1
5922	5929	1
5933	5935	1
5927	5928	1
5932	5934	1
5936	5939	1
5936	5937	1
5936	5942	1
5939	5940	1
5939	5945	1
5940	5941	1
5940	5947	1
5938	5941	1
5941	5946	1
5937	5938	1
5938	5948	1
5937	5944	1
5948	5950	1
5942	5943	1
5947	5949	1
1242	1243	1
1243	1246	1
1243	1253	1
1241	1242	1
1242	1249	1
1241	1244	1
1241	1247	1
1244	1245	1
1244	1250	1
1245	1246	1
1245	1252	1
1246	1251	1
1252	1254	1
1253	1255	1
1253	1256	1
1247	1248	1
1256	1257	1
5951	5952	1
5951	5954	1
5951	5957	1
5952	5953	1
5952	5959	1
5953	5956	1
5953	5963	1
5955	5956	1
5956	5961	1
5954	5955	1
5955	5962	1
5954	5960	1
5962	5964	1
5957	5958	1
5963	5965	1
5980	5983	1
5980	5981	1
5980	5986	1
5983	5984	1
5983	5989	1
5984	5985	1
5984	5991	1
5982	5985	1
5985	5990	1
5981	5982	1
5982	5992	1
5981	5988	1
5992	5994	1
5986	5987	1
5991	5993	1
6009	6012	1
6009	6010	1
6009	6015	1
6012	6013	1
6012	6018	1
6013	6014	1
6013	6020	1
6011	6014	1
6014	6019	1
6010	6011	1
6011	6021	1
6010	6017	1
6021	6023	1
6015	6016	1
6020	6022	1
6024	6027	1
6024	6025	1
6024	6030	1
6027	6028	1
6027	6033	1
6028	6029	1
6028	6035	1
6026	6029	1
6029	6034	1
6025	6026	1
6026	6036	1
6025	6032	1
6036	6038	1
6030	6031	1
6035	6037	1
1272	1273	1
1272	1275	1
1272	1278	1
1273	1274	1
1273	1280	1
1274	1277	1
1274	1284	1
1276	1277	1
1277	1282	1
1275	1276	1
1276	1283	1
1275	1281	1
1283	1285	1
1278	1279	1
1284	1286	1
1284	1287	1
1287	1288	1
6053	6056	1
6053	6054	1
6053	6059	1
6056	6057	1
6056	6062	1
6057	6058	1
6057	6064	1
6055	6058	1
6058	6063	1
6054	6055	1
6055	6065	1
6054	6061	1
6065	6067	1
6059	6060	1
6064	6066	1
6082	6085	1
6082	6083	1
6082	6088	1
6085	6086	1
6085	6091	1
6086	6087	1
6086	6093	1
6084	6087	1
6087	6092	1
6083	6084	1
6084	6094	1
6083	6090	1
6094	6096	1
6088	6089	1
6093	6095	1
1307	1308	1
1307	1306	1
1307	1314	1
1308	1305	1
1308	1313	1
1305	1304	1
1305	1315	1
1303	1304	1
1304	1311	1
1306	1303	1
1303	1309	1
1306	1312	1
1309	1310	1
1314	1316	1
1315	1317	1
1315	1318	1
1318	1319	1
6115	6116	1
6115	6114	1
6115	6122	1
6116	6113	1
6116	6121	1
6113	6112	1
6113	6123	1
6111	6112	1
6112	6119	1
6114	6111	1
6111	6117	1
6114	6120	1
6117	6118	1
6122	6124	1
6123	6125	1
6140	6143	1
6140	6141	1
6140	6146	1
6143	6144	1
6143	6149	1
6144	6145	1
6144	6151	1
6142	6145	1
6145	6150	1
6141	6142	1
6142	6152	1
6141	6148	1
6152	6154	1
6146	6147	1
6151	6153	1
6169	6170	1
6169	6172	1
6169	6175	1
6170	6171	1
6170	6177	1
6171	6174	1
6171	6181	1
6173	6174	1
6174	6179	1
6172	6173	1
6173	6180	1
6172	6178	1
6180	6182	1
6175	6176	1
6181	6183	1
6198	6199	1
6198	6201	1
6198	6204	1
6199	6200	1
6199	6206	1
6200	6203	1
6200	6210	1
6202	6203	1
6203	6208	1
6201	6202	1
6202	6209	1
6201	6207	1
6209	6211	1
6204	6205	1
6210	6212	1
6227	6228	1
6227	6230	1
6227	6233	1
6228	6229	1
6228	6235	1
6229	6232	1
6229	6239	1
6231	6232	1
6232	6237	1
6230	6231	1
6231	6238	1
6230	6236	1
6238	6240	1
6233	6234	1
6239	6241	1
6242	6245	1
6242	6243	1
6242	6248	1
6245	6246	1
6245	6251	1
6246	6247	1
6246	6253	1
6244	6247	1
6247	6252	1
6243	6244	1
6244	6254	1
6243	6250	1
6254	6256	1
6248	6249	1
6253	6255	1
6271	6274	1
6271	6272	1
6271	6277	1
6274	6275	1
6274	6280	1
6275	6276	1
6275	6282	1
6273	6276	1
6276	6281	1
6272	6273	1
6273	6283	1
6272	6279	1
6283	6285	1
6277	6278	1
6282	6284	1
6286	6289	1
6286	6287	1
6286	6292	1
6289	6290	1
6289	6295	1
6290	6291	1
6290	6297	1
6288	6291	1
6291	6296	1
6287	6288	1
6288	6298	1
6287	6294	1
6298	6300	1
6292	6293	1
6297	6299	1
6315	6318	1
6315	6316	1
6315	6321	1
6318	6319	1
6318	6324	1
6319	6320	1
6319	6326	1
6317	6320	1
6320	6325	1
6316	6317	1
6317	6327	1
6316	6323	1
6327	6329	1
6321	6322	1
6326	6328	1
6330	6333	1
6330	6331	1
6330	6336	1
6333	6334	1
6333	6339	1
6334	6335	1
6334	6341	1
6332	6335	1
6335	6340	1
6331	6332	1
6332	6342	1
6331	6338	1
6342	6344	1
6336	6337	1
6341	6343	1
6345	6346	1
6345	6348	1
6345	6351	1
6346	6347	1
6346	6353	1
6347	6350	1
6347	6357	1
6349	6350	1
6350	6355	1
6348	6349	1
6349	6356	1
6348	6354	1
6356	6358	1
6351	6352	1
6357	6359	1
6374	6375	1
6374	6377	1
6374	6380	1
6375	6376	1
6375	6382	1
6376	6379	1
6376	6386	1
6378	6379	1
6379	6384	1
6377	6378	1
6378	6385	1
6377	6383	1
6385	6387	1
6380	6381	1
6386	6388	1
6403	6406	1
6403	6404	1
6403	6409	1
6406	6407	1
6406	6412	1
6407	6408	1
6407	6414	1
6405	6408	1
6408	6413	1
6404	6405	1
6405	6415	1
6404	6411	1
6415	6417	1
6409	6410	1
6414	6416	1
6432	6435	1
6432	6433	1
6432	6438	1
6435	6436	1
6435	6441	1
6436	6437	1
6436	6443	1
6434	6437	1
6437	6442	1
6433	6434	1
6434	6444	1
6433	6440	1
6444	6446	1
6438	6439	1
6443	6445	1
6461	6464	1
6461	6462	1
6461	6467	1
6464	6465	1
6464	6470	1
6465	6466	1
6465	6472	1
6463	6466	1
6466	6471	1
6462	6463	1
6463	6473	1
6462	6469	1
6473	6475	1
6467	6468	1
6472	6474	1
6491	6492	1
6492	6495	1
6492	6502	1
6490	6491	1
6491	6498	1
6490	6493	1
6490	6496	1
6493	6494	1
6493	6499	1
6494	6495	1
6494	6501	1
6495	6500	1
6501	6503	1
6502	6504	1
6496	6497	1
6519	6522	1
6519	6520	1
6519	6525	1
6522	6523	1
6522	6528	1
6523	6524	1
6523	6530	1
6521	6524	1
6524	6529	1
6520	6521	1
6521	6531	1
6520	6527	1
6531	6533	1
6525	6526	1
6530	6532	1
1321	1322	1
1322	1325	1
1322	1332	1
1320	1321	1
1321	1328	1
1320	1323	1
1320	1326	1
1323	1324	1
1323	1329	1
1324	1325	1
1324	1331	1
1325	1330	1
1331	1333	1
1332	1334	1
1332	1335	1
1326	1327	1
1335	1336	1
1355	1356	1
1355	1354	1
1355	1362	1
1356	1353	1
1356	1361	1
1353	1352	1
1353	1363	1
1351	1352	1
1352	1359	1
1354	1351	1
1351	1357	1
1354	1360	1
1357	1358	1
1362	1364	1
1363	1365	1
1363	1366	1
1366	1367	1
6550	6549	1
6550	6553	1
6550	6560	1
6549	6548	1
6549	6556	1
6548	6551	1
6548	6554	1
6552	6551	1
6551	6557	1
6553	6552	1
6552	6559	1
6553	6558	1
6559	6561	1
6560	6562	1
6554	6555	1
6563	6564	1
6563	6566	1
6563	6569	1
6564	6565	1
6564	6571	1
6565	6568	1
6565	6575	1
6567	6568	1
6568	6573	1
6566	6567	1
6567	6574	1
6566	6572	1
6574	6576	1
6569	6570	1
6575	6577	1
6592	6593	1
6592	6595	1
6592	6598	1
6593	6594	1
6593	6600	1
6594	6597	1
6594	6604	1
6596	6597	1
6597	6602	1
6595	6596	1
6596	6603	1
6595	6601	1
6603	6605	1
6598	6599	1
6604	6606	1
6621	6622	1
6621	6624	1
6621	6627	1
6622	6623	1
6622	6629	1
6623	6626	1
6623	6633	1
6625	6626	1
6626	6631	1
6624	6625	1
6625	6632	1
6624	6630	1
6632	6634	1
6627	6628	1
6633	6635	1
6650	6651	1
6650	6653	1
6650	6656	1
6651	6652	1
6651	6658	1
6652	6655	1
6652	6662	1
6654	6655	1
6655	6660	1
6653	6654	1
6654	6661	1
6653	6659	1
6661	6663	1
6656	6657	1
6662	6664	1
6679	6682	1
6679	6680	1
6679	6685	1
6682	6683	1
6682	6688	1
6683	6684	1
6683	6690	1
6681	6684	1
6684	6689	1
6680	6681	1
6681	6691	1
6680	6687	1
6691	6693	1
6685	6686	1
6690	6692	1
6712	6713	1
6711	6712	1
6712	6719	1
6710	6713	1
6713	6718	1
6709	6710	1
6710	6720	1
6708	6709	1
6709	6716	1
6708	6711	1
6708	6714	1
6711	6717	1
6714	6715	1
6719	6721	1
6720	6722	1
6723	6724	1
6723	6726	1
6723	6729	1
6724	6725	1
6724	6731	1
6725	6728	1
6725	6735	1
6727	6728	1
6728	6733	1
6726	6727	1
6727	6734	1
6726	6732	1
6734	6736	1
6729	6730	1
6735	6737	1
6752	6753	1
6752	6755	1
6752	6758	1
6753	6754	1
6753	6760	1
6754	6757	1
6754	6764	1
6756	6757	1
6757	6762	1
6755	6756	1
6756	6763	1
6755	6761	1
6763	6765	1
6758	6759	1
6764	6766	1
6781	6782	1
6781	6784	1
6781	6787	1
6782	6783	1
6782	6789	1
6783	6786	1
6783	6793	1
6785	6786	1
6786	6791	1
6784	6785	1
6785	6792	1
6784	6790	1
6792	6794	1
6787	6788	1
6793	6795	1
6796	6797	1
6796	6799	1
6796	6802	1
6797	6798	1
6797	6804	1
6798	6801	1
6798	6808	1
6800	6801	1
6801	6806	1
6799	6800	1
6800	6807	1
6799	6805	1
6807	6809	1
6802	6803	1
6808	6810	1
6825	6826	1
6825	6828	1
6825	6831	1
6826	6827	1
6826	6833	1
6827	6830	1
6827	6837	1
6829	6830	1
6830	6835	1
6828	6829	1
6829	6836	1
6828	6834	1
6836	6838	1
6831	6832	1
6837	6839	1
6854	6855	1
6854	6857	1
6854	6860	1
6855	6856	1
6855	6862	1
6856	6859	1
6856	6866	1
6858	6859	1
6859	6864	1
6857	6858	1
6858	6865	1
6857	6863	1
6865	6867	1
6860	6861	1
6866	6868	1
6883	6886	1
6883	6884	1
6883	6889	1
6886	6887	1
6886	6892	1
6887	6888	1
6887	6894	1
6885	6888	1
6888	6893	1
6884	6885	1
6885	6895	1
6884	6891	1
6895	6897	1
6889	6890	1
6894	6896	1
1382	1383	1
1382	1385	1
1382	1388	1
1383	1384	1
1383	1390	1
1384	1387	1
1384	1394	1
1386	1387	1
1387	1392	1
1385	1386	1
1386	1393	1
1385	1391	1
1393	1395	1
1388	1389	1
1394	1396	1
1394	1397	1
1397	1398	1
1413	1416	1
1413	1414	1
1413	1419	1
1416	1417	1
1416	1422	1
1417	1418	1
1417	1424	1
1415	1418	1
1418	1423	1
1414	1415	1
1415	1425	1
1414	1421	1
1425	1427	1
1425	1428	1
1419	1420	1
1424	1426	1
1428	1429	1
6912	6913	1
6912	6915	1
6912	6918	1
6913	6914	1
6913	6920	1
6914	6917	1
6914	6924	1
6916	6917	1
6917	6922	1
6915	6916	1
6916	6923	1
6915	6921	1
6923	6925	1
6918	6919	1
6924	6926	1
6927	6928	1
6927	6930	1
6927	6933	1
6928	6929	1
6928	6935	1
6929	6932	1
6929	6939	1
6931	6932	1
6932	6937	1
6930	6931	1
6931	6938	1
6930	6936	1
6938	6940	1
6933	6934	1
6939	6941	1
6956	6957	1
6956	6959	1
6956	6962	1
6957	6958	1
6957	6964	1
6958	6961	1
6958	6968	1
6960	6961	1
6961	6966	1
6959	6960	1
6960	6967	1
6959	6965	1
6967	6969	1
6962	6963	1
6968	6970	1
6989	6988	1
6989	6990	1
6989	6996	1
6988	6985	1
6988	6994	1
6985	6986	1
6985	6991	1
6987	6986	1
6986	6993	1
6990	6987	1
6987	6997	1
6990	6995	1
6997	6999	1
6996	6998	1
6991	6992	1
1444	1447	1
1444	1445	1
1444	1450	1
1447	1448	1
1447	1453	1
1448	1449	1
1448	1455	1
1446	1449	1
1449	1454	1
1445	1446	1
1446	1456	1
1445	1452	1
1456	1458	1
1456	1459	1
1450	1451	1
1455	1457	1
1459	1460	1
7000	7003	1
7000	7001	1
7000	7006	1
7003	7004	1
7003	7009	1
7004	7005	1
7004	7011	1
7002	7005	1
7005	7010	1
7001	7002	1
7002	7012	1
7001	7008	1
7012	7014	1
7006	7007	1
7011	7013	1
1476	1477	1
1477	1480	1
1477	1487	1
1475	1476	1
1476	1483	1
1475	1478	1
1475	1481	1
1478	1479	1
1478	1484	1
1479	1480	1
1479	1486	1
1480	1485	1
1486	1488	1
1487	1489	1
1487	1490	1
1481	1482	1
1490	1491	1
7029	7032	1
7029	7030	1
7029	7035	1
7032	7033	1
7032	7038	1
7033	7034	1
7033	7040	1
7031	7034	1
7034	7039	1
7030	7031	1
7031	7041	1
7030	7037	1
7041	7043	1
7035	7036	1
7040	7042	1
7045	7046	1
7046	7049	1
7046	7056	1
7044	7045	1
7045	7052	1
7044	7047	1
7044	7050	1
7047	7048	1
7047	7053	1
7048	7049	1
7048	7055	1
7049	7054	1
7055	7057	1
7056	7058	1
7050	7051	1
7073	7074	1
7073	7076	1
7073	7079	1
7074	7075	1
7074	7081	1
7075	7078	1
7075	7085	1
7077	7078	1
7078	7083	1
7076	7077	1
7077	7084	1
7076	7082	1
7084	7086	1
7079	7080	1
7085	7087	1
7102	7103	1
7102	7105	1
7102	7108	1
7103	7104	1
7103	7110	1
7104	7107	1
7104	7114	1
7106	7107	1
7107	7112	1
7105	7106	1
7106	7113	1
7105	7111	1
7113	7115	1
7108	7109	1
7114	7116	1
7131	7134	1
7131	7132	1
7131	7137	1
7134	7135	1
7134	7140	1
7135	7136	1
7135	7142	1
7133	7136	1
7136	7141	1
7132	7133	1
7133	7143	1
7132	7139	1
7143	7145	1
7137	7138	1
7142	7144	1
7160	7163	1
7160	7161	1
7160	7166	1
7163	7164	1
7163	7169	1
7164	7165	1
7164	7171	1
7162	7165	1
7165	7170	1
7161	7162	1
7162	7172	1
7161	7168	1
7172	7174	1
7166	7167	1
7171	7173	1
1506	1507	1
1506	1509	1
1506	1512	1
1507	1508	1
1507	1514	1
1508	1511	1
1508	1518	1
1510	1511	1
1511	1516	1
1509	1510	1
1510	1517	1
1509	1515	1
1517	1519	1
1512	1513	1
1518	1520	1
1518	1521	1
1521	1522	1
7193	7194	1
7193	7192	1
7193	7200	1
7194	7191	1
7194	7199	1
7191	7190	1
7191	7201	1
7189	7190	1
7190	7197	1
7192	7189	1
7189	7195	1
7192	7198	1
7195	7196	1
7200	7202	1
7201	7203	1
7221	7222	1
7222	7223	1
7222	7229	1
7218	7221	1
7221	7227	1
7218	7219	1
7218	7224	1
7219	7220	1
7219	7226	1
7220	7223	1
7220	7230	1
7223	7228	1
7230	7232	1
7229	7231	1
7224	7225	1
74	75	1
74	73	1
74	76	1
75	70	1
75	84	1
70	71	1
70	68	1
72	71	1
71	82	1
73	72	1
72	78	1
73	83	1
78	79	1
78	80	1
76	77	1
68	69	1
68	67	1
67	81	1
7233	7234	1
7233	7236	1
7233	7239	1
7234	7235	1
7234	7241	1
7235	7238	1
7235	7245	1
7237	7238	1
7238	7243	1
7236	7237	1
7237	7244	1
7236	7242	1
7244	7246	1
7239	7240	1
7245	7247	1
7262	7263	1
7262	7265	1
7262	7268	1
7263	7264	1
7263	7270	1
7264	7267	1
7264	7274	1
7266	7267	1
7267	7272	1
7265	7266	1
7266	7273	1
7265	7271	1
7273	7275	1
7268	7269	1
7274	7276	1
7291	7294	1
7291	7292	1
7291	7297	1
7294	7295	1
7294	7300	1
7295	7296	1
7295	7302	1
7293	7296	1
7296	7301	1
7292	7293	1
7293	7303	1
7292	7299	1
7303	7305	1
7297	7298	1
7302	7304	1
7320	7323	1
7320	7321	1
7320	7326	1
7323	7324	1
7323	7329	1
7324	7325	1
7324	7331	1
7322	7325	1
7325	7330	1
7321	7322	1
7322	7332	1
7321	7328	1
7332	7334	1
7326	7327	1
7331	7333	1
7349	7350	1
7349	7352	1
7349	7355	1
7350	7351	1
7350	7357	1
7351	7354	1
7351	7361	1
7353	7354	1
7354	7359	1
7352	7353	1
7353	7360	1
7352	7358	1
7360	7362	1
7355	7356	1
7361	7363	1
1538	1539	1
1539	1542	1
1539	1549	1
1537	1538	1
1538	1545	1
1537	1540	1
1537	1543	1
1540	1541	1
1540	1546	1
1541	1542	1
1541	1548	1
1542	1547	1
1548	1550	1
1549	1551	1
1549	1552	1
1543	1544	1
1552	1553	1
1568	1571	1
1568	1569	1
1568	1574	1
1571	1572	1
1571	1577	1
1572	1573	1
1572	1579	1
1570	1573	1
1573	1578	1
1569	1570	1
1570	1580	1
1569	1576	1
1580	1582	1
1580	1583	1
1574	1575	1
1579	1581	1
1583	1584	1
7378	7379	1
7378	7381	1
7378	7384	1
7379	7380	1
7379	7386	1
7380	7383	1
7380	7390	1
7382	7383	1
7383	7388	1
7381	7382	1
7382	7389	1
7381	7387	1
7389	7391	1
7384	7385	1
7390	7392	1
1599	1600	1
1599	1602	1
1599	1605	1
1600	1601	1
1600	1607	1
1601	1604	1
1601	1611	1
1603	1604	1
1604	1609	1
1602	1603	1
1603	1610	1
1602	1608	1
1610	1612	1
1605	1606	1
1611	1613	1
1611	1614	1
1614	1615	1
1631	1632	1
1632	1635	1
1632	1642	1
1630	1631	1
1631	1638	1
1630	1633	1
1630	1636	1
1633	1634	1
1633	1639	1
1634	1635	1
1634	1641	1
1635	1640	1
1641	1643	1
1642	1644	1
1642	1645	1
1636	1637	1
1645	1646	1
7393	7396	1
7393	7394	1
7393	7399	1
7396	7397	1
7396	7402	1
7397	7398	1
7397	7404	1
7395	7398	1
7398	7403	1
7394	7395	1
7395	7405	1
7394	7401	1
7405	7407	1
7399	7400	1
7404	7406	1
105	104	1
104	103	1
104	110	1
106	105	1
105	115	1
106	107	1
106	108	1
107	102	1
107	116	1
102	103	1
102	100	1
103	114	1
100	101	1
100	99	1
110	111	1
110	112	1
108	109	1
99	113	1
7408	7411	1
7408	7409	1
7408	7414	1
7411	7412	1
7411	7417	1
7412	7413	1
7412	7419	1
7410	7413	1
7413	7418	1
7409	7410	1
7410	7420	1
7409	7416	1
7420	7422	1
7414	7415	1
7419	7421	1
7437	7440	1
7437	7438	1
7437	7443	1
7440	7441	1
7440	7446	1
7441	7442	1
7441	7448	1
7439	7442	1
7442	7447	1
7438	7439	1
7439	7449	1
7438	7445	1
7449	7451	1
7443	7444	1
7448	7450	1
7466	7469	1
7466	7467	1
7466	7472	1
7469	7470	1
7469	7475	1
7470	7471	1
7470	7477	1
7468	7471	1
7471	7476	1
7467	7468	1
7468	7478	1
7467	7474	1
7478	7480	1
7472	7473	1
7477	7479	1
7495	7498	1
7495	7496	1
7495	7501	1
7498	7499	1
7498	7504	1
7499	7500	1
7499	7506	1
7497	7500	1
7500	7505	1
7496	7497	1
7497	7507	1
7496	7503	1
7507	7509	1
7501	7502	1
7506	7508	1
7510	7511	1
7510	7513	1
7510	7516	1
7511	7512	1
7511	7518	1
7512	7515	1
7512	7522	1
7514	7515	1
7515	7520	1
7513	7514	1
7514	7521	1
7513	7519	1
7521	7523	1
7516	7517	1
7522	7524	1
7539	7542	1
7539	7540	1
7539	7545	1
7542	7543	1
7542	7548	1
7543	7544	1
7543	7550	1
7541	7544	1
7544	7549	1
7540	7541	1
7541	7551	1
7540	7547	1
7551	7553	1
7545	7546	1
7550	7552	1
1661	1664	1
1661	1662	1
1661	1667	1
1664	1665	1
1664	1670	1
1665	1666	1
1665	1672	1
1663	1666	1
1666	1671	1
1662	1663	1
1663	1673	1
1662	1669	1
1673	1675	1
1673	1676	1
1667	1668	1
1672	1674	1
1676	1677	1
7568	7571	1
7568	7569	1
7568	7574	1
7571	7572	1
7571	7577	1
7572	7573	1
7572	7579	1
7570	7573	1
7573	7578	1
7569	7570	1
7570	7580	1
7569	7576	1
7580	7582	1
7574	7575	1
7579	7581	1
7583	7584	1
7583	7586	1
7583	7589	1
7584	7585	1
7584	7591	1
7585	7588	1
7585	7595	1
7587	7588	1
7588	7593	1
7586	7587	1
7587	7594	1
7586	7592	1
7594	7596	1
7589	7590	1
7595	7597	1
7616	7617	1
7616	7615	1
7616	7623	1
7617	7614	1
7617	7622	1
7614	7613	1
7614	7624	1
7612	7613	1
7613	7620	1
7615	7612	1
7612	7618	1
7615	7621	1
7618	7619	1
7623	7625	1
7624	7626	1
7641	7644	1
7641	7642	1
7641	7647	1
7644	7645	1
7644	7650	1
7645	7646	1
7645	7652	1
7643	7646	1
7646	7651	1
7642	7643	1
7643	7653	1
7642	7649	1
7653	7655	1
7647	7648	1
7652	7654	1
1692	1695	1
1692	1693	1
1692	1698	1
1695	1696	1
1695	1701	1
1696	1697	1
1696	1703	1
1694	1697	1
1697	1702	1
1693	1694	1
1694	1704	1
1693	1700	1
1704	1706	1
1704	1707	1
1698	1699	1
1703	1705	1
1707	1708	1
7656	7659	1
7656	7657	1
7656	7662	1
7659	7660	1
7659	7665	1
7660	7661	1
7660	7667	1
7658	7661	1
7661	7666	1
7657	7658	1
7658	7668	1
7657	7664	1
7668	7670	1
7662	7663	1
7667	7669	1
7685	7688	1
7685	7686	1
7685	7691	1
7688	7689	1
7688	7694	1
7689	7690	1
7689	7696	1
7687	7690	1
7690	7695	1
7686	7687	1
7687	7697	1
7686	7693	1
7697	7699	1
7691	7692	1
7696	7698	1
7714	7717	1
7714	7715	1
7714	7720	1
7717	7718	1
7717	7723	1
7718	7719	1
7718	7725	1
7716	7719	1
7719	7724	1
7715	7716	1
7716	7726	1
7715	7722	1
7726	7728	1
7720	7721	1
7725	7727	1
1723	1724	1
1723	1726	1
1723	1729	1
1724	1725	1
1724	1731	1
1725	1728	1
1725	1735	1
1727	1728	1
1728	1733	1
1726	1727	1
1727	1734	1
1726	1732	1
1734	1736	1
1729	1730	1
1735	1737	1
1735	1738	1
1738	1739	1
7747	7748	1
7746	7747	1
7747	7754	1
7745	7748	1
7748	7753	1
7744	7745	1
7745	7755	1
7743	7744	1
7744	7751	1
7743	7746	1
7743	7749	1
7746	7752	1
7749	7750	1
7754	7756	1
7755	7757	1
7772	7773	1
7772	7775	1
7772	7778	1
7773	7774	1
7773	7780	1
7774	7777	1
7774	7784	1
7776	7777	1
7777	7782	1
7775	7776	1
7776	7783	1
7775	7781	1
7783	7785	1
7778	7779	1
7784	7786	1
7801	7802	1
7801	7804	1
7801	7807	1
7802	7803	1
7802	7809	1
7803	7806	1
7803	7813	1
7805	7806	1
7806	7811	1
7804	7805	1
7805	7812	1
7804	7810	1
7812	7814	1
7807	7808	1
7813	7815	1
1754	1755	1
1754	1757	1
1754	1760	1
1755	1756	1
1755	1762	1
1756	1759	1
1756	1766	1
1758	1759	1
1759	1764	1
1757	1758	1
1758	1765	1
1757	1763	1
1765	1767	1
1760	1761	1
1766	1768	1
1766	1769	1
1769	1770	1
7830	7831	1
7830	7833	1
7830	7836	1
7831	7832	1
7831	7838	1
7832	7835	1
7832	7842	1
7834	7835	1
7835	7840	1
7833	7834	1
7834	7841	1
7833	7839	1
7841	7843	1
7836	7837	1
7842	7844	1
7859	7860	1
7859	7862	1
7859	7865	1
7860	7861	1
7860	7867	1
7861	7864	1
7861	7871	1
7863	7864	1
7864	7869	1
7862	7863	1
7863	7870	1
7862	7868	1
7870	7872	1
7865	7866	1
7871	7873	1
7888	7889	1
7888	7891	1
7888	7894	1
7889	7890	1
7889	7896	1
7890	7893	1
7890	7900	1
7892	7893	1
7893	7898	1
7891	7892	1
7892	7899	1
7891	7897	1
7899	7901	1
7894	7895	1
7900	7902	1
7917	7918	1
7917	7920	1
7917	7923	1
7918	7919	1
7918	7925	1
7919	7922	1
7919	7929	1
7921	7922	1
7922	7927	1
7920	7921	1
7921	7928	1
7920	7926	1
7928	7930	1
7923	7924	1
7929	7931	1
7946	7949	1
7946	7947	1
7946	7952	1
7949	7950	1
7949	7955	1
7950	7951	1
7950	7957	1
7948	7951	1
7951	7956	1
7947	7948	1
7948	7958	1
7947	7954	1
7958	7960	1
7952	7953	1
7957	7959	1
1785	1786	1
1785	1788	1
1785	1791	1
1786	1787	1
1786	1793	1
1787	1790	1
1787	1797	1
1789	1790	1
1790	1795	1
1788	1789	1
1789	1796	1
1788	1794	1
1796	1798	1
1791	1792	1
1797	1799	1
1797	1800	1
1800	1801	1
7961	7962	1
7961	7964	1
7961	7967	1
7962	7963	1
7962	7969	1
7963	7966	1
7963	7973	1
7965	7966	1
7966	7971	1
7964	7965	1
7965	7972	1
7964	7970	1
7972	7974	1
7967	7968	1
7973	7975	1
7990	7991	1
7990	7993	1
7990	7996	1
7991	7992	1
7991	7998	1
7992	7995	1
7992	8002	1
7994	7995	1
7995	8000	1
7993	7994	1
7994	8001	1
7993	7999	1
8001	8003	1
7996	7997	1
8002	8004	1
8019	8022	1
8019	8020	1
8019	8025	1
8022	8023	1
8022	8028	1
8023	8024	1
8023	8030	1
8021	8024	1
8024	8029	1
8020	8021	1
8021	8031	1
8020	8027	1
8031	8033	1
8025	8026	1
8030	8032	1
8034	8037	1
8034	8035	1
8034	8040	1
8037	8038	1
8037	8043	1
8038	8039	1
8038	8045	1
8036	8039	1
8039	8044	1
8035	8036	1
8036	8046	1
8035	8042	1
8046	8048	1
8040	8041	1
8045	8047	1
8063	8064	1
8063	8066	1
8063	8069	1
8064	8065	1
8064	8071	1
8065	8068	1
8065	8075	1
8067	8068	1
8068	8073	1
8066	8067	1
8067	8074	1
8066	8072	1
8074	8076	1
8069	8070	1
8075	8077	1
8092	8093	1
8092	8095	1
8092	8098	1
8093	8094	1
8093	8100	1
8094	8097	1
8094	8104	1
8096	8097	1
8097	8102	1
8095	8096	1
8096	8103	1
8095	8101	1
8103	8105	1
8098	8099	1
8104	8106	1
1820	1819	1
1820	1821	1
1820	1827	1
1819	1816	1
1819	1825	1
1816	1817	1
1816	1822	1
1818	1817	1
1817	1824	1
1821	1818	1
1818	1828	1
1821	1826	1
1828	1830	1
1828	1831	1
1827	1829	1
1822	1823	1
1831	1832	1
8107	8108	1
8107	8110	1
8107	8113	1
8108	8109	1
8108	8115	1
8109	8112	1
8109	8119	1
8111	8112	1
8112	8117	1
8110	8111	1
8111	8118	1
8110	8116	1
8118	8120	1
8113	8114	1
8119	8121	1
8136	8137	1
8136	8139	1
8136	8142	1
8137	8138	1
8137	8144	1
8138	8141	1
8138	8148	1
8140	8141	1
8141	8146	1
8139	8140	1
8140	8147	1
8139	8145	1
8147	8149	1
8142	8143	1
8148	8150	1
8165	8168	1
8165	8166	1
8165	8171	1
8168	8169	1
8168	8174	1
8169	8170	1
8169	8176	1
8167	8170	1
8170	8175	1
8166	8167	1
8167	8177	1
8166	8173	1
8177	8179	1
8171	8172	1
8176	8178	1
8194	8197	1
8194	8195	1
8194	8200	1
8197	8198	1
8197	8203	1
8198	8199	1
8198	8205	1
8196	8199	1
8199	8204	1
8195	8196	1
8196	8206	1
8195	8202	1
8206	8208	1
8200	8201	1
8205	8207	1
8209	8212	1
8209	8210	1
8209	8215	1
8212	8213	1
8212	8218	1
8213	8214	1
8213	8220	1
8211	8214	1
8214	8219	1
8210	8211	1
8211	8221	1
8210	8217	1
8221	8223	1
8215	8216	1
8220	8222	1
8224	8225	1
8224	8227	1
8224	8230	1
8225	8226	1
8225	8232	1
8226	8229	1
8226	8236	1
8228	8229	1
8229	8234	1
8227	8228	1
8228	8235	1
8227	8233	1
8235	8237	1
8230	8231	1
8236	8238	1
8254	8255	1
8255	8258	1
8255	8265	1
8253	8254	1
8254	8261	1
8253	8256	1
8253	8259	1
8256	8257	1
8256	8262	1
8257	8258	1
8257	8264	1
8258	8263	1
8264	8266	1
8265	8267	1
8259	8260	1
1847	1848	1
1847	1850	1
1847	1853	1
1848	1849	1
1848	1855	1
1849	1852	1
1849	1859	1
1851	1852	1
1852	1857	1
1850	1851	1
1851	1858	1
1850	1856	1
1858	1860	1
1853	1854	1
1859	1861	1
1859	1862	1
1862	1863	1
1878	1879	1
1878	1881	1
1878	1884	1
1879	1880	1
1879	1886	1
1880	1883	1
1880	1890	1
1882	1883	1
1883	1888	1
1881	1882	1
1882	1889	1
1881	1887	1
1889	1891	1
1884	1885	1
1890	1892	1
1890	1893	1
1893	1894	1
8268	8269	1
8268	8271	1
8268	8274	1
8269	8270	1
8269	8276	1
8270	8273	1
8270	8280	1
8272	8273	1
8273	8278	1
8271	8272	1
8272	8279	1
8271	8277	1
8279	8281	1
8274	8275	1
8280	8282	1
1910	1911	1
1911	1914	1
1911	1921	1
1909	1910	1
1910	1917	1
1909	1912	1
1909	1915	1
1912	1913	1
1912	1918	1
1913	1914	1
1913	1920	1
1914	1919	1
1920	1922	1
1921	1923	1
1921	1924	1
1915	1916	1
1924	1925	1
1940	1943	1
1940	1941	1
1940	1946	1
1943	1944	1
1943	1949	1
1944	1945	1
1944	1951	1
1942	1945	1
1945	1950	1
1941	1942	1
1942	1952	1
1941	1948	1
1952	1954	1
1952	1955	1
1946	1947	1
1951	1953	1
1955	1956	1
134	135	1
135	136	1
135	142	1
131	134	1
134	140	1
131	132	1
131	137	1
132	133	1
132	139	1
133	136	1
133	143	1
136	141	1
143	145	1
143	148	1
142	144	1
142	146	1
137	138	1
148	149	1
146	147	1
170	169	1
169	168	1
169	175	1
171	170	1
170	180	1
171	172	1
171	173	1
172	167	1
172	181	1
167	168	1
167	165	1
168	179	1
165	166	1
165	164	1
175	176	1
175	177	1
173	174	1
164	178	1
1972	1973	1
1972	1975	1
1972	1978	1
1973	1974	1
1973	1980	1
1974	1977	1
1974	1984	1
1976	1977	1
1977	1982	1
1975	1976	1
1976	1983	1
1975	1981	1
1983	1985	1
1978	1979	1
1984	1986	1
1984	1987	1
1987	1988	1
2004	2005	1
2005	2008	1
2005	2015	1
2003	2004	1
2004	2011	1
2003	2006	1
2003	2009	1
2006	2007	1
2006	2012	1
2007	2008	1
2007	2014	1
2008	2013	1
2014	2016	1
2015	2017	1
2015	2018	1
2009	2010	1
2018	2019	1
8283	8284	1
8283	8286	1
8283	8289	1
8284	8285	1
8284	8291	1
8285	8288	1
8285	8295	1
8287	8288	1
8288	8293	1
8286	8287	1
8287	8294	1
8286	8292	1
8294	8296	1
8289	8290	1
8295	8297	1
8312	8313	1
8312	8315	1
8312	8318	1
8313	8314	1
8313	8320	1
8314	8317	1
8314	8324	1
8316	8317	1
8317	8322	1
8315	8316	1
8316	8323	1
8315	8321	1
8323	8325	1
8318	8319	1
8324	8326	1
8327	8328	1
8327	8330	1
8327	8333	1
8328	8329	1
8328	8335	1
8329	8332	1
8329	8339	1
8331	8332	1
8332	8337	1
8330	8331	1
8331	8338	1
8330	8336	1
8338	8340	1
8333	8334	1
8339	8341	1
8356	8357	1
8356	8359	1
8356	8362	1
8357	8358	1
8357	8364	1
8358	8361	1
8358	8368	1
8360	8361	1
8361	8366	1
8359	8360	1
8360	8367	1
8359	8365	1
8367	8369	1
8362	8363	1
8368	8370	1
8371	8374	1
8371	8372	1
8371	8377	1
8374	8375	1
8374	8380	1
8375	8376	1
8375	8382	1
8373	8376	1
8376	8381	1
8372	8373	1
8373	8383	1
8372	8379	1
8383	8385	1
8377	8378	1
8382	8384	1
8386	8389	1
8386	8387	1
8386	8392	1
8389	8390	1
8389	8395	1
8390	8391	1
8390	8397	1
8388	8391	1
8391	8396	1
8387	8388	1
8388	8398	1
8387	8394	1
8398	8400	1
8392	8393	1
8397	8399	1
8415	8416	1
8415	8418	1
8415	8421	1
8416	8417	1
8416	8423	1
8417	8420	1
8417	8427	1
8419	8420	1
8420	8425	1
8418	8419	1
8419	8426	1
8418	8424	1
8426	8428	1
8421	8422	1
8427	8429	1
8430	8431	1
8430	8433	1
8430	8436	1
8431	8432	1
8431	8438	1
8432	8435	1
8432	8442	1
8434	8435	1
8435	8440	1
8433	8434	1
8434	8441	1
8433	8439	1
8441	8443	1
8436	8437	1
8442	8444	1
2035	2036	1
2036	2039	1
2036	2046	1
2034	2035	1
2035	2042	1
2034	2037	1
2034	2040	1
2037	2038	1
2037	2043	1
2038	2039	1
2038	2045	1
2039	2044	1
2045	2047	1
2046	2048	1
2046	2049	1
2040	2041	1
2049	2050	1
8459	8460	1
8459	8462	1
8459	8465	1
8460	8461	1
8460	8467	1
8461	8464	1
8461	8471	1
8463	8464	1
8464	8469	1
8462	8463	1
8463	8470	1
8462	8468	1
8470	8472	1
8465	8466	1
8471	8473	1
2066	2067	1
2067	2070	1
2067	2077	1
2065	2066	1
2066	2073	1
2065	2068	1
2065	2071	1
2068	2069	1
2068	2074	1
2069	2070	1
2069	2076	1
2070	2075	1
2076	2078	1
2077	2079	1
2077	2080	1
2071	2072	1
2080	2081	1
2097	2098	1
2098	2101	1
2098	2108	1
2096	2097	1
2097	2104	1
2096	2099	1
2096	2102	1
2099	2100	1
2099	2105	1
2100	2101	1
2100	2107	1
2101	2106	1
2107	2109	1
2108	2110	1
2108	2111	1
2102	2103	1
2111	2112	1
199	200	1
204	199	1
199	197	1
201	200	1
200	211	1
202	201	1
201	207	1
203	202	1
202	212	1
203	204	1
203	205	1
204	213	1
205	206	1
197	198	1
197	196	1
207	208	1
207	209	1
196	210	1
8488	8491	1
8488	8489	1
8488	8494	1
8491	8492	1
8491	8497	1
8492	8493	1
8492	8499	1
8490	8493	1
8493	8498	1
8489	8490	1
8490	8500	1
8489	8496	1
8500	8502	1
8494	8495	1
8499	8501	1
8503	8504	1
8503	8506	1
8503	8509	1
8504	8505	1
8504	8511	1
8505	8508	1
8505	8515	1
8507	8508	1
8508	8513	1
8506	8507	1
8507	8514	1
8506	8512	1
8514	8516	1
8509	8510	1
8515	8517	1
8532	8533	1
8532	8535	1
8532	8538	1
8533	8534	1
8533	8540	1
8534	8537	1
8534	8544	1
8536	8537	1
8537	8542	1
8535	8536	1
8536	8543	1
8535	8541	1
8543	8545	1
8538	8539	1
8544	8546	1
8561	8562	1
8561	8564	1
8561	8567	1
8562	8563	1
8562	8569	1
8563	8566	1
8563	8573	1
8565	8566	1
8566	8571	1
8564	8565	1
8565	8572	1
8564	8570	1
8572	8574	1
8567	8568	1
8573	8575	1
2127	2128	1
2127	2130	1
2127	2133	1
2128	2129	1
2128	2135	1
2129	2132	1
2129	2139	1
2131	2132	1
2132	2137	1
2130	2131	1
2131	2138	1
2130	2136	1
2138	2140	1
2133	2134	1
2139	2141	1
2139	2142	1
2142	2143	1
8577	8578	1
8578	8581	1
8578	8588	1
8576	8577	1
8577	8584	1
8576	8579	1
8576	8582	1
8579	8580	1
8579	8585	1
8580	8581	1
8580	8587	1
8581	8586	1
8587	8589	1
8588	8590	1
8582	8583	1
8605	8606	1
8605	8608	1
8605	8611	1
8606	8607	1
8606	8613	1
8607	8610	1
8607	8617	1
8609	8610	1
8610	8615	1
8608	8609	1
8609	8616	1
8608	8614	1
8616	8618	1
8611	8612	1
8617	8619	1
8634	8637	1
8634	8635	1
8634	8640	1
8637	8638	1
8637	8643	1
8638	8639	1
8638	8645	1
8636	8639	1
8639	8644	1
8635	8636	1
8636	8646	1
8635	8642	1
8646	8648	1
8640	8641	1
8645	8647	1
8649	8650	1
8649	8652	1
8649	8655	1
8650	8651	1
8650	8657	1
8651	8654	1
8651	8661	1
8653	8654	1
8654	8659	1
8652	8653	1
8653	8660	1
8652	8658	1
8660	8662	1
8655	8656	1
8661	8663	1
8678	8679	1
8678	8681	1
8678	8684	1
8679	8680	1
8679	8686	1
8680	8683	1
8680	8690	1
8682	8683	1
8683	8688	1
8681	8682	1
8682	8689	1
8681	8687	1
8689	8691	1
8684	8685	1
8690	8692	1
8707	8710	1
8707	8708	1
8707	8713	1
8710	8711	1
8710	8716	1
8711	8712	1
8711	8718	1
8709	8712	1
8712	8717	1
8708	8709	1
8709	8719	1
8708	8715	1
8719	8721	1
8713	8714	1
8718	8720	1
8736	8739	1
8736	8737	1
8736	8742	1
8739	8740	1
8739	8745	1
8740	8741	1
8740	8747	1
8738	8741	1
8741	8746	1
8737	8738	1
8738	8748	1
8737	8744	1
8748	8750	1
8742	8743	1
8747	8749	1
8751	8754	1
8751	8752	1
8751	8757	1
8754	8755	1
8754	8760	1
8755	8756	1
8755	8762	1
8753	8756	1
8756	8761	1
8752	8753	1
8753	8763	1
8752	8759	1
8763	8765	1
8757	8758	1
8762	8764	1
8766	8769	1
8766	8767	1
8766	8772	1
8769	8770	1
8769	8775	1
8770	8771	1
8770	8777	1
8768	8771	1
8771	8776	1
8767	8768	1
8768	8778	1
8767	8774	1
8778	8780	1
8772	8773	1
8777	8779	1
8781	8784	1
8781	8782	1
8781	8787	1
8784	8785	1
8784	8790	1
8785	8786	1
8785	8792	1
8783	8786	1
8786	8791	1
8782	8783	1
8783	8793	1
8782	8789	1
8793	8795	1
8787	8788	1
8792	8794	1
8810	8811	1
8810	8813	1
8810	8816	1
8811	8812	1
8811	8818	1
8812	8815	1
8812	8822	1
8814	8815	1
8815	8820	1
8813	8814	1
8814	8821	1
8813	8819	1
8821	8823	1
8816	8817	1
8822	8824	1
8839	8840	1
8839	8842	1
8839	8845	1
8840	8841	1
8840	8847	1
8841	8844	1
8841	8851	1
8843	8844	1
8844	8849	1
8842	8843	1
8843	8850	1
8842	8848	1
8850	8852	1
8845	8846	1
8851	8853	1
8870	8869	1
8870	8873	1
8870	8880	1
8869	8868	1
8869	8876	1
8868	8871	1
8868	8874	1
8872	8871	1
8871	8877	1
8873	8872	1
8872	8879	1
8873	8878	1
8879	8881	1
8880	8882	1
8874	8875	1
8897	8900	1
8897	8898	1
8897	8903	1
8900	8901	1
8900	8906	1
8901	8902	1
8901	8908	1
8899	8902	1
8902	8907	1
8898	8899	1
8899	8909	1
8898	8905	1
8909	8911	1
8903	8904	1
8908	8910	1
8912	8913	1
8912	8915	1
8912	8918	1
8913	8914	1
8913	8920	1
8914	8917	1
8914	8924	1
8916	8917	1
8917	8922	1
8915	8916	1
8916	8923	1
8915	8921	1
8923	8925	1
8918	8919	1
8924	8926	1
8941	8944	1
8941	8942	1
8941	8947	1
8944	8945	1
8944	8950	1
8945	8946	1
8945	8952	1
8943	8946	1
8946	8951	1
8942	8943	1
8943	8953	1
8942	8949	1
8953	8955	1
8947	8948	1
8952	8954	1
8970	8973	1
8970	8971	1
8970	8976	1
8973	8974	1
8973	8979	1
8974	8975	1
8974	8981	1
8972	8975	1
8975	8980	1
8971	8972	1
8972	8982	1
8971	8978	1
8982	8984	1
8976	8977	1
8981	8983	1
8985	8988	1
8985	8986	1
8985	8991	1
8988	8989	1
8988	8994	1
8989	8990	1
8989	8996	1
8987	8990	1
8990	8995	1
8986	8987	1
8987	8997	1
8986	8993	1
8997	8999	1
8991	8992	1
8996	8998	1
9014	9015	1
9014	9017	1
9014	9020	1
9015	9016	1
9015	9022	1
9016	9019	1
9016	9026	1
9018	9019	1
9019	9024	1
9017	9018	1
9018	9025	1
9017	9023	1
9025	9027	1
9020	9021	1
9026	9028	1
9029	9030	1
9029	9032	1
9029	9035	1
9030	9031	1
9030	9037	1
9031	9034	1
9031	9041	1
9033	9034	1
9034	9039	1
9032	9033	1
9033	9040	1
9032	9038	1
9040	9042	1
9035	9036	1
9041	9043	1
9058	9059	1
9058	9061	1
9058	9064	1
9059	9060	1
9059	9066	1
9060	9063	1
9060	9070	1
9062	9063	1
9063	9068	1
9061	9062	1
9062	9069	1
9061	9067	1
9069	9071	1
9064	9065	1
9070	9072	1
9073	9076	1
9073	9074	1
9073	9079	1
9076	9077	1
9076	9082	1
9077	9078	1
9077	9084	1
9075	9078	1
9078	9083	1
9074	9075	1
9075	9085	1
9074	9081	1
9085	9087	1
9079	9080	1
9084	9086	1
9088	9089	1
9088	9091	1
9088	9094	1
9089	9090	1
9089	9096	1
9090	9093	1
9090	9100	1
9092	9093	1
9093	9098	1
9091	9092	1
9092	9099	1
9091	9097	1
9099	9101	1
9094	9095	1
9100	9102	1
2158	2159	1
2158	2161	1
2158	2164	1
2159	2160	1
2159	2166	1
2160	2163	1
2160	2170	1
2162	2163	1
2163	2168	1
2161	2162	1
2162	2169	1
2161	2167	1
2169	2171	1
2164	2165	1
2170	2172	1
2170	2173	1
2173	2174	1
2189	2192	1
2189	2190	1
2189	2195	1
2192	2193	1
2192	2198	1
2193	2194	1
2193	2200	1
2191	2194	1
2194	2199	1
2190	2191	1
2191	2201	1
2190	2197	1
2201	2203	1
2201	2204	1
2195	2196	1
2200	2202	1
2204	2205	1
9117	9118	1
9117	9120	1
9117	9123	1
9118	9119	1
9118	9125	1
9119	9122	1
9119	9129	1
9121	9122	1
9122	9127	1
9120	9121	1
9121	9128	1
9120	9126	1
9128	9130	1
9123	9124	1
9129	9131	1
9149	9150	1
9150	9151	1
9150	9157	1
9146	9149	1
9149	9155	1
9146	9147	1
9146	9152	1
9147	9148	1
9147	9154	1
9148	9151	1
9148	9158	1
9151	9156	1
9158	9160	1
9157	9159	1
9152	9153	1
9175	9178	1
9175	9176	1
9175	9181	1
9178	9179	1
9178	9184	1
9179	9180	1
9179	9186	1
9177	9180	1
9180	9185	1
9176	9177	1
9177	9187	1
9176	9183	1
9187	9189	1
9181	9182	1
9186	9188	1
2206	2207	1
2206	2209	1
2206	2212	1
2207	2208	1
2207	2214	1
2208	2211	1
2208	2218	1
2210	2211	1
2211	2216	1
2209	2210	1
2210	2217	1
2209	2215	1
2217	2219	1
2212	2213	1
2218	2220	1
2218	2221	1
2221	2222	1
9204	9207	1
9204	9205	1
9204	9210	1
9207	9208	1
9207	9213	1
9208	9209	1
9208	9215	1
9206	9209	1
9209	9214	1
9205	9206	1
9206	9216	1
9205	9212	1
9216	9218	1
9210	9211	1
9215	9217	1
9233	9236	1
9233	9234	1
9233	9239	1
9236	9237	1
9236	9242	1
9237	9238	1
9237	9244	1
9235	9238	1
9238	9243	1
9234	9235	1
9235	9245	1
9234	9241	1
9245	9247	1
9239	9240	1
9244	9246	1
9262	9265	1
9262	9263	1
9262	9268	1
9265	9266	1
9265	9271	1
9266	9267	1
9266	9273	1
9264	9267	1
9267	9272	1
9263	9264	1
9264	9274	1
9263	9270	1
9274	9276	1
9268	9269	1
9273	9275	1
9295	9294	1
9295	9296	1
9295	9302	1
9294	9291	1
9294	9300	1
9291	9292	1
9291	9297	1
9293	9292	1
9292	9299	1
9296	9293	1
9293	9303	1
9296	9301	1
9303	9305	1
9302	9304	1
9297	9298	1
9320	9323	1
9320	9321	1
9320	9326	1
9323	9324	1
9323	9329	1
9324	9325	1
9324	9331	1
9322	9325	1
9325	9330	1
9321	9322	1
9322	9332	1
9321	9328	1
9332	9334	1
9326	9327	1
9331	9333	1
9349	9350	1
9349	9352	1
9349	9355	1
9350	9351	1
9350	9357	1
9351	9354	1
9351	9361	1
9353	9354	1
9354	9359	1
9352	9353	1
9353	9360	1
9352	9358	1
9360	9362	1
9355	9356	1
9361	9363	1
9378	9379	1
9378	9381	1
9378	9384	1
9379	9380	1
9379	9386	1
9380	9383	1
9380	9390	1
9382	9383	1
9383	9388	1
9381	9382	1
9382	9389	1
9381	9387	1
9389	9391	1
9384	9385	1
9390	9392	1
9407	9410	1
9407	9408	1
9407	9413	1
9410	9411	1
9410	9416	1
9411	9412	1
9411	9418	1
9409	9412	1
9412	9417	1
9408	9409	1
9409	9419	1
9408	9415	1
9419	9421	1
9413	9414	1
9418	9420	1
9436	9439	1
9436	9437	1
9436	9442	1
9439	9440	1
9439	9445	1
9440	9441	1
9440	9447	1
9438	9441	1
9441	9446	1
9437	9438	1
9438	9448	1
9437	9444	1
9448	9450	1
9442	9443	1
9447	9449	1
2237	2238	1
2237	2240	1
2237	2243	1
2238	2239	1
2238	2245	1
2239	2242	1
2239	2249	1
2241	2242	1
2242	2247	1
2240	2241	1
2241	2248	1
2240	2246	1
2248	2250	1
2243	2244	1
2249	2251	1
2249	2252	1
2252	2253	1
9451	9454	1
9451	9452	1
9451	9457	1
9454	9455	1
9454	9460	1
9455	9456	1
9455	9462	1
9453	9456	1
9456	9461	1
9452	9453	1
9453	9463	1
9452	9459	1
9463	9465	1
9457	9458	1
9462	9464	1
9480	9483	1
9480	9481	1
9480	9486	1
9483	9484	1
9483	9489	1
9484	9485	1
9484	9491	1
9482	9485	1
9485	9490	1
9481	9482	1
9482	9492	1
9481	9488	1
9492	9494	1
9486	9487	1
9491	9493	1
9509	9510	1
9509	9512	1
9509	9515	1
9510	9511	1
9510	9517	1
9511	9514	1
9511	9521	1
9513	9514	1
9514	9519	1
9512	9513	1
9513	9520	1
9512	9518	1
9520	9522	1
9515	9516	1
9521	9523	1
9538	9541	1
9538	9539	1
9538	9544	1
9541	9542	1
9541	9547	1
9542	9543	1
9542	9549	1
9540	9543	1
9543	9548	1
9539	9540	1
9540	9550	1
9539	9546	1
9550	9552	1
9544	9545	1
9549	9551	1
9553	9554	1
9553	9556	1
9553	9559	1
9554	9555	1
9554	9561	1
9555	9558	1
9555	9565	1
9557	9558	1
9558	9563	1
9556	9557	1
9557	9564	1
9556	9562	1
9564	9566	1
9559	9560	1
9565	9567	1
2272	2273	1
2272	2271	1
2272	2279	1
2273	2270	1
2273	2278	1
2270	2269	1
2270	2280	1
2268	2269	1
2269	2276	1
2271	2268	1
2268	2274	1
2271	2277	1
2274	2275	1
2279	2281	1
2280	2282	1
2280	2283	1
2283	2284	1
9568	9569	1
9568	9571	1
9568	9574	1
9569	9570	1
9569	9576	1
9570	9573	1
9570	9580	1
9572	9573	1
9573	9578	1
9571	9572	1
9572	9579	1
9571	9577	1
9579	9581	1
9574	9575	1
9580	9582	1
9597	9598	1
9597	9600	1
9597	9603	1
9598	9599	1
9598	9605	1
9599	9602	1
9599	9609	1
9601	9602	1
9602	9607	1
9600	9601	1
9601	9608	1
9600	9606	1
9608	9610	1
9603	9604	1
9609	9611	1
9626	9627	1
9626	9629	1
9626	9632	1
9627	9628	1
9627	9634	1
9628	9631	1
9628	9638	1
9630	9631	1
9631	9636	1
9629	9630	1
9630	9637	1
9629	9635	1
9637	9639	1
9632	9633	1
9638	9640	1
9641	9644	1
9641	9642	1
9641	9647	1
9644	9645	1
9644	9650	1
9645	9646	1
9645	9652	1
9643	9646	1
9646	9651	1
9642	9643	1
9643	9653	1
9642	9649	1
9653	9655	1
9647	9648	1
9652	9654	1
9656	9659	1
9656	9657	1
9656	9662	1
9659	9660	1
9659	9665	1
9660	9661	1
9660	9667	1
9658	9661	1
9661	9666	1
9657	9658	1
9658	9668	1
9657	9664	1
9668	9670	1
9662	9663	1
9667	9669	1
9671	9672	1
9671	9674	1
9671	9677	1
9672	9673	1
9672	9679	1
9673	9676	1
9673	9683	1
9675	9676	1
9676	9681	1
9674	9675	1
9675	9682	1
9674	9680	1
9682	9684	1
9677	9678	1
9683	9685	1
9702	9701	1
9702	9705	1
9702	9712	1
9701	9700	1
9701	9708	1
9700	9703	1
9700	9706	1
9704	9703	1
9703	9709	1
9705	9704	1
9704	9711	1
9705	9710	1
9711	9713	1
9712	9714	1
9706	9707	1
9729	9730	1
9729	9732	1
9729	9735	1
9730	9731	1
9730	9737	1
9731	9734	1
9731	9741	1
9733	9734	1
9734	9739	1
9732	9733	1
9733	9740	1
9732	9738	1
9740	9742	1
9735	9736	1
9741	9743	1
9758	9759	1
9758	9761	1
9758	9764	1
9759	9760	1
9759	9766	1
9760	9763	1
9760	9770	1
9762	9763	1
9763	9768	1
9761	9762	1
9762	9769	1
9761	9767	1
9769	9771	1
9764	9765	1
9770	9772	1
9773	9774	1
9773	9776	1
9773	9779	1
9774	9775	1
9774	9781	1
9775	9778	1
9775	9785	1
9777	9778	1
9778	9783	1
9776	9777	1
9777	9784	1
9776	9782	1
9784	9786	1
9779	9780	1
9785	9787	1
2299	2300	1
2299	2302	1
2299	2305	1
2300	2301	1
2300	2307	1
2301	2304	1
2301	2311	1
2303	2304	1
2304	2309	1
2302	2303	1
2303	2310	1
2302	2308	1
2310	2312	1
2305	2306	1
2311	2313	1
2311	2314	1
2314	2315	1
2331	2332	1
2332	2335	1
2332	2342	1
2330	2331	1
2331	2338	1
2330	2333	1
2330	2336	1
2333	2334	1
2333	2339	1
2334	2335	1
2334	2341	1
2335	2340	1
2341	2343	1
2342	2344	1
2342	2345	1
2336	2337	1
2345	2346	1
231	232	1
236	231	1
231	229	1
233	232	1
232	243	1
234	233	1
233	239	1
235	234	1
234	244	1
235	236	1
235	237	1
236	245	1
237	238	1
229	230	1
229	228	1
239	240	1
239	241	1
228	242	1
9802	9805	1
9802	9803	1
9802	9808	1
9805	9806	1
9805	9811	1
9806	9807	1
9806	9813	1
9804	9807	1
9807	9812	1
9803	9804	1
9804	9814	1
9803	9810	1
9814	9816	1
9808	9809	1
9813	9815	1
9831	9832	1
9831	9834	1
9831	9837	1
9832	9833	1
9832	9839	1
9833	9836	1
9833	9843	1
9835	9836	1
9836	9841	1
9834	9835	1
9835	9842	1
9834	9840	1
9842	9844	1
9837	9838	1
9843	9845	1
9860	9861	1
9860	9863	1
9860	9866	1
9861	9862	1
9861	9868	1
9862	9865	1
9862	9872	1
9864	9865	1
9865	9870	1
9863	9864	1
9864	9871	1
9863	9869	1
9871	9873	1
9866	9867	1
9872	9874	1
9889	9892	1
9889	9890	1
9889	9895	1
9892	9893	1
9892	9898	1
9893	9894	1
9893	9900	1
9891	9894	1
9894	9899	1
9890	9891	1
9891	9901	1
9890	9897	1
9901	9903	1
9895	9896	1
9900	9902	1
9904	9907	1
9904	9905	1
9904	9910	1
9907	9908	1
9907	9913	1
9908	9909	1
9908	9915	1
9906	9909	1
9909	9914	1
9905	9906	1
9906	9916	1
9905	9912	1
9916	9918	1
9910	9911	1
9915	9917	1
2361	2362	1
2361	2364	1
2361	2367	1
2362	2363	1
2362	2369	1
2363	2366	1
2363	2373	1
2365	2366	1
2366	2371	1
2364	2365	1
2365	2372	1
2364	2370	1
2372	2374	1
2367	2368	1
2373	2375	1
2373	2376	1
2376	2377	1
9933	9934	1
9933	9936	1
9933	9939	1
9934	9935	1
9934	9941	1
9935	9938	1
9935	9945	1
9937	9938	1
9938	9943	1
9936	9937	1
9937	9944	1
9936	9942	1
9944	9946	1
9939	9940	1
9945	9947	1
9948	9951	1
9948	9949	1
9948	9954	1
9951	9952	1
9951	9957	1
9952	9953	1
9952	9959	1
9950	9953	1
9953	9958	1
9949	9950	1
9950	9960	1
9949	9956	1
9960	9962	1
9954	9955	1
9959	9961	1
260	263	1
260	261	1
260	266	1
263	264	1
263	269	1
264	265	1
264	271	1
262	265	1
265	270	1
261	262	1
262	272	1
261	268	1
272	274	1
272	277	1
266	267	1
271	273	1
271	275	1
277	278	1
275	276	1
9977	9978	1
9977	9980	1
9977	9983	1
9978	9979	1
9978	9985	1
9979	9982	1
9979	9989	1
9981	9982	1
9982	9987	1
9980	9981	1
9981	9988	1
9980	9986	1
9988	9990	1
9983	9984	1
9989	9991	1
10006	10007	1
10006	10009	1
10006	10012	1
10007	10008	1
10007	10014	1
10008	10011	1
10008	10018	1
10010	10011	1
10011	10016	1
10009	10010	1
10010	10017	1
10009	10015	1
10017	10019	1
10012	10013	1
10018	10020	1
10035	10038	1
10035	10036	1
10035	10041	1
10038	10039	1
10038	10044	1
10039	10040	1
10039	10046	1
10037	10040	1
10040	10045	1
10036	10037	1
10037	10047	1
10036	10043	1
10047	10049	1
10041	10042	1
10046	10048	1
10064	10067	1
10064	10065	1
10064	10070	1
10067	10068	1
10067	10073	1
10068	10069	1
10068	10075	1
10066	10069	1
10069	10074	1
10065	10066	1
10066	10076	1
10065	10072	1
10076	10078	1
10070	10071	1
10075	10077	1
10095	10094	1
10095	10098	1
10095	10105	1
10094	10093	1
10094	10101	1
10093	10096	1
10093	10099	1
10097	10096	1
10096	10102	1
10098	10097	1
10097	10104	1
10098	10103	1
10104	10106	1
10105	10107	1
10099	10100	1
10122	10123	1
10122	10125	1
10122	10128	1
10123	10124	1
10123	10130	1
10124	10127	1
10124	10134	1
10126	10127	1
10127	10132	1
10125	10126	1
10126	10133	1
10125	10131	1
10133	10135	1
10128	10129	1
10134	10136	1
10155	10156	1
10155	10154	1
10155	10162	1
10156	10153	1
10156	10161	1
10153	10152	1
10153	10163	1
10151	10152	1
10152	10159	1
10154	10151	1
10151	10157	1
10154	10160	1
10157	10158	1
10162	10164	1
10163	10165	1
10180	10181	1
10180	10183	1
10180	10186	1
10181	10182	1
10181	10188	1
10182	10185	1
10182	10192	1
10184	10185	1
10185	10190	1
10183	10184	1
10184	10191	1
10183	10189	1
10191	10193	1
10186	10187	1
10192	10194	1
10209	10210	1
10209	10212	1
10209	10215	1
10210	10211	1
10210	10217	1
10211	10214	1
10211	10221	1
10213	10214	1
10214	10219	1
10212	10213	1
10213	10220	1
10212	10218	1
10220	10222	1
10215	10216	1
10221	10223	1
10238	10239	1
10238	10241	1
10238	10244	1
10239	10240	1
10239	10246	1
10240	10243	1
10240	10250	1
10242	10243	1
10243	10248	1
10241	10242	1
10242	10249	1
10241	10247	1
10249	10251	1
10244	10245	1
10250	10252	1
10267	10270	1
10267	10268	1
10267	10273	1
10270	10271	1
10270	10276	1
10271	10272	1
10271	10278	1
10269	10272	1
10272	10277	1
10268	10269	1
10269	10279	1
10268	10275	1
10279	10281	1
10273	10274	1
10278	10280	1
10282	10285	1
10282	10283	1
10282	10288	1
10285	10286	1
10285	10291	1
10286	10287	1
10286	10293	1
10284	10287	1
10287	10292	1
10283	10284	1
10284	10294	1
10283	10290	1
10294	10296	1
10288	10289	1
10293	10295	1
10311	10312	1
10311	10314	1
10311	10317	1
10312	10313	1
10312	10319	1
10313	10316	1
10313	10323	1
10315	10316	1
10316	10321	1
10314	10315	1
10315	10322	1
10314	10320	1
10322	10324	1
10317	10318	1
10323	10325	1
10340	10341	1
10340	10343	1
10340	10346	1
10341	10342	1
10341	10348	1
10342	10345	1
10342	10352	1
10344	10345	1
10345	10350	1
10343	10344	1
10344	10351	1
10343	10349	1
10351	10353	1
10346	10347	1
10352	10354	1
10369	10370	1
10369	10372	1
10369	10375	1
10370	10371	1
10370	10377	1
10371	10374	1
10371	10381	1
10373	10374	1
10374	10379	1
10372	10373	1
10373	10380	1
10372	10378	1
10380	10382	1
10375	10376	1
10381	10383	1
2392	2393	1
2392	2395	1
2392	2398	1
2393	2394	1
2393	2400	1
2394	2397	1
2394	2404	1
2396	2397	1
2397	2402	1
2395	2396	1
2396	2403	1
2395	2401	1
2403	2405	1
2398	2399	1
2404	2406	1
2404	2407	1
2407	2408	1
10384	10385	1
10384	10387	1
10384	10390	1
10385	10386	1
10385	10392	1
10386	10389	1
10386	10396	1
10388	10389	1
10389	10394	1
10387	10388	1
10388	10395	1
10387	10393	1
10395	10397	1
10390	10391	1
10396	10398	1
10399	10400	1
10399	10402	1
10399	10405	1
10400	10401	1
10400	10407	1
10401	10404	1
10401	10411	1
10403	10404	1
10404	10409	1
10402	10403	1
10403	10410	1
10402	10408	1
10410	10412	1
10405	10406	1
10411	10413	1
10414	10417	1
10414	10415	1
10414	10420	1
10417	10418	1
10417	10423	1
10418	10419	1
10418	10425	1
10416	10419	1
10419	10424	1
10415	10416	1
10416	10426	1
10415	10422	1
10426	10428	1
10420	10421	1
10425	10427	1
10443	10446	1
10443	10444	1
10443	10449	1
10446	10447	1
10446	10452	1
10447	10448	1
10447	10454	1
10445	10448	1
10448	10453	1
10444	10445	1
10445	10455	1
10444	10451	1
10455	10457	1
10449	10450	1
10454	10456	1
10458	10461	1
10458	10459	1
10458	10464	1
10461	10462	1
10461	10467	1
10462	10463	1
10462	10469	1
10460	10463	1
10463	10468	1
10459	10460	1
10460	10470	1
10459	10466	1
10470	10472	1
10464	10465	1
10469	10471	1
10491	10492	1
10491	10490	1
10491	10498	1
10492	10489	1
10492	10497	1
10489	10488	1
10489	10499	1
10487	10488	1
10488	10495	1
10490	10487	1
10487	10493	1
10490	10496	1
10493	10494	1
10498	10500	1
10499	10501	1
10502	10505	1
10502	10503	1
10502	10508	1
10505	10506	1
10505	10511	1
10506	10507	1
10506	10513	1
10504	10507	1
10507	10512	1
10503	10504	1
10504	10514	1
10503	10510	1
10514	10516	1
10508	10509	1
10513	10515	1
10531	10532	1
10531	10534	1
10531	10537	1
10532	10533	1
10532	10539	1
10533	10536	1
10533	10543	1
10535	10536	1
10536	10541	1
10534	10535	1
10535	10542	1
10534	10540	1
10542	10544	1
10537	10538	1
10543	10545	1
10546	10547	1
10546	10549	1
10546	10552	1
10547	10548	1
10547	10554	1
10548	10551	1
10548	10558	1
10550	10551	1
10551	10556	1
10549	10550	1
10550	10557	1
10549	10555	1
10557	10559	1
10552	10553	1
10558	10560	1
2423	2424	1
2423	2426	1
2423	2429	1
2424	2425	1
2424	2431	1
2425	2428	1
2425	2435	1
2427	2428	1
2428	2433	1
2426	2427	1
2427	2434	1
2426	2432	1
2434	2436	1
2429	2430	1
2435	2437	1
2435	2438	1
2438	2439	1
10561	10562	1
10561	10564	1
10561	10567	1
10562	10563	1
10562	10569	1
10563	10566	1
10563	10573	1
10565	10566	1
10566	10571	1
10564	10565	1
10565	10572	1
10564	10570	1
10572	10574	1
10567	10568	1
10573	10575	1
2454	2455	1
2454	2457	1
2454	2460	1
2455	2456	1
2455	2462	1
2456	2459	1
2456	2466	1
2458	2459	1
2459	2464	1
2457	2458	1
2458	2465	1
2457	2463	1
2465	2467	1
2460	2461	1
2466	2468	1
2466	2469	1
2469	2470	1
10590	10591	1
10590	10593	1
10590	10596	1
10591	10592	1
10591	10598	1
10592	10595	1
10592	10602	1
10594	10595	1
10595	10600	1
10593	10594	1
10594	10601	1
10593	10599	1
10601	10603	1
10596	10597	1
10602	10604	1
2485	2486	1
2485	2488	1
2485	2491	1
2486	2487	1
2486	2493	1
2487	2490	1
2487	2497	1
2489	2490	1
2490	2495	1
2488	2489	1
2489	2496	1
2488	2494	1
2496	2498	1
2491	2492	1
2497	2499	1
2497	2500	1
2500	2501	1
10620	10621	1
10621	10624	1
10621	10631	1
10619	10620	1
10620	10627	1
10619	10622	1
10619	10625	1
10622	10623	1
10622	10628	1
10623	10624	1
10623	10630	1
10624	10629	1
10630	10632	1
10631	10633	1
10625	10626	1
10648	10651	1
10648	10649	1
10648	10654	1
10651	10652	1
10651	10657	1
10652	10653	1
10652	10659	1
10650	10653	1
10653	10658	1
10649	10650	1
10650	10660	1
10649	10656	1
10660	10662	1
10654	10655	1
10659	10661	1
10677	10678	1
10677	10680	1
10677	10683	1
10678	10679	1
10678	10685	1
10679	10682	1
10679	10689	1
10681	10682	1
10682	10687	1
10680	10681	1
10681	10688	1
10680	10686	1
10688	10690	1
10683	10684	1
10689	10691	1
2517	2518	1
2518	2521	1
2518	2528	1
2516	2517	1
2517	2524	1
2516	2519	1
2516	2522	1
2519	2520	1
2519	2525	1
2520	2521	1
2520	2527	1
2521	2526	1
2527	2529	1
2528	2530	1
2528	2531	1
2522	2523	1
2531	2532	1
2547	2548	1
2547	2550	1
2547	2553	1
2548	2549	1
2548	2555	1
2549	2552	1
2549	2559	1
2551	2552	1
2552	2557	1
2550	2551	1
2551	2558	1
2550	2556	1
2558	2560	1
2553	2554	1
2559	2561	1
2559	2562	1
2562	2563	1
10706	10707	1
10706	10709	1
10706	10712	1
10707	10708	1
10707	10714	1
10708	10711	1
10708	10718	1
10710	10711	1
10711	10716	1
10709	10710	1
10710	10717	1
10709	10715	1
10717	10719	1
10712	10713	1
10718	10720	1
10735	10738	1
10735	10736	1
10735	10741	1
10738	10739	1
10738	10744	1
10739	10740	1
10739	10746	1
10737	10740	1
10740	10745	1
10736	10737	1
10737	10747	1
10736	10743	1
10747	10749	1
10741	10742	1
10746	10748	1
10754	10755	1
10753	10754	1
10754	10761	1
10752	10755	1
10755	10760	1
10751	10752	1
10752	10762	1
10750	10751	1
10751	10758	1
10750	10753	1
10750	10756	1
10753	10759	1
10756	10757	1
10761	10763	1
10762	10764	1
10765	10768	1
10765	10766	1
10765	10771	1
10768	10769	1
10768	10774	1
10769	10770	1
10769	10776	1
10767	10770	1
10770	10775	1
10766	10767	1
10767	10777	1
10766	10773	1
10777	10779	1
10771	10772	1
10776	10778	1
10794	10797	1
10794	10795	1
10794	10800	1
10797	10798	1
10797	10803	1
10798	10799	1
10798	10805	1
10796	10799	1
10799	10804	1
10795	10796	1
10796	10806	1
10795	10802	1
10806	10808	1
10800	10801	1
10805	10807	1
10809	10810	1
10809	10812	1
10809	10815	1
10810	10811	1
10810	10817	1
10811	10814	1
10811	10821	1
10813	10814	1
10814	10819	1
10812	10813	1
10813	10820	1
10812	10818	1
10820	10822	1
10815	10816	1
10821	10823	1
10838	10839	1
10838	10841	1
10838	10844	1
10839	10840	1
10839	10846	1
10840	10843	1
10840	10850	1
10842	10843	1
10843	10848	1
10841	10842	1
10842	10849	1
10841	10847	1
10849	10851	1
10844	10845	1
10850	10852	1
10867	10870	1
10867	10868	1
10867	10873	1
10870	10871	1
10870	10876	1
10871	10872	1
10871	10878	1
10869	10872	1
10872	10877	1
10868	10869	1
10869	10879	1
10868	10875	1
10879	10881	1
10873	10874	1
10878	10880	1
10882	10885	1
10882	10883	1
10882	10888	1
10885	10886	1
10885	10891	1
10886	10887	1
10886	10893	1
10884	10887	1
10887	10892	1
10883	10884	1
10884	10894	1
10883	10890	1
10894	10896	1
10888	10889	1
10893	10895	1
10911	10912	1
10911	10914	1
10911	10917	1
10912	10913	1
10912	10919	1
10913	10916	1
10913	10923	1
10915	10916	1
10916	10921	1
10914	10915	1
10915	10922	1
10914	10920	1
10922	10924	1
10917	10918	1
10923	10925	1
10940	10941	1
10940	10943	1
10940	10946	1
10941	10942	1
10941	10948	1
10942	10945	1
10942	10952	1
10944	10945	1
10945	10950	1
10943	10944	1
10944	10951	1
10943	10949	1
10951	10953	1
10946	10947	1
10952	10954	1
10969	10970	1
10969	10972	1
10969	10975	1
10970	10971	1
10970	10977	1
10971	10974	1
10971	10981	1
10973	10974	1
10974	10979	1
10972	10973	1
10973	10980	1
10972	10978	1
10980	10982	1
10975	10976	1
10981	10983	1
10984	10987	1
10984	10985	1
10984	10990	1
10987	10988	1
10987	10993	1
10988	10989	1
10988	10995	1
10986	10989	1
10989	10994	1
10985	10986	1
10986	10996	1
10985	10992	1
10996	10998	1
10990	10991	1
10995	10997	1
10999	11002	1
10999	11000	1
10999	11005	1
11002	11003	1
11002	11008	1
11003	11004	1
11003	11010	1
11001	11004	1
11004	11009	1
11000	11001	1
11001	11011	1
11000	11007	1
11011	11013	1
11005	11006	1
11010	11012	1
11014	11017	1
11014	11015	1
11014	11020	1
11017	11018	1
11017	11023	1
11018	11019	1
11018	11025	1
11016	11019	1
11019	11024	1
11015	11016	1
11016	11026	1
11015	11022	1
11026	11028	1
11020	11021	1
11025	11027	1
11043	11044	1
11043	11046	1
11043	11049	1
11044	11045	1
11044	11051	1
11045	11048	1
11045	11055	1
11047	11048	1
11048	11053	1
11046	11047	1
11047	11054	1
11046	11052	1
11054	11056	1
11049	11050	1
11055	11057	1
11058	11061	1
11058	11059	1
11058	11064	1
11061	11062	1
11061	11067	1
11062	11063	1
11062	11069	1
11060	11063	1
11063	11068	1
11059	11060	1
11060	11070	1
11059	11066	1
11070	11072	1
11064	11065	1
11069	11071	1
2564	2567	1
2564	2565	1
2564	2570	1
2567	2568	1
2567	2573	1
2568	2569	1
2568	2575	1
2566	2569	1
2569	2574	1
2565	2566	1
2566	2576	1
2565	2572	1
2576	2578	1
2576	2579	1
2570	2571	1
2575	2577	1
2579	2580	1
11073	11074	1
11073	11076	1
11073	11079	1
11074	11075	1
11074	11081	1
11075	11078	1
11075	11085	1
11077	11078	1
11078	11083	1
11076	11077	1
11077	11084	1
11076	11082	1
11084	11086	1
11079	11080	1
11085	11087	1
11088	11089	1
11088	11091	1
11088	11094	1
11089	11090	1
11089	11096	1
11090	11093	1
11090	11100	1
11092	11093	1
11093	11098	1
11091	11092	1
11092	11099	1
11091	11097	1
11099	11101	1
11094	11095	1
11100	11102	1
11117	11118	1
11117	11120	1
11117	11123	1
11118	11119	1
11118	11125	1
11119	11122	1
11119	11129	1
11121	11122	1
11122	11127	1
11120	11121	1
11121	11128	1
11120	11126	1
11128	11130	1
11123	11124	1
11129	11131	1
11146	11147	1
11146	11149	1
11146	11152	1
11147	11148	1
11147	11154	1
11148	11151	1
11148	11158	1
11150	11151	1
11151	11156	1
11149	11150	1
11150	11157	1
11149	11155	1
11157	11159	1
11152	11153	1
11158	11160	1
2595	2596	1
2595	2598	1
2595	2601	1
2596	2597	1
2596	2603	1
2597	2600	1
2597	2607	1
2599	2600	1
2600	2605	1
2598	2599	1
2599	2606	1
2598	2604	1
2606	2608	1
2601	2602	1
2607	2609	1
2607	2610	1
2610	2611	1
11161	11162	1
11161	11164	1
11161	11167	1
11162	11163	1
11162	11169	1
11163	11166	1
11163	11173	1
11165	11166	1
11166	11171	1
11164	11165	1
11165	11172	1
11164	11170	1
11172	11174	1
11167	11168	1
11173	11175	1
11176	11179	1
11176	11177	1
11176	11182	1
11179	11180	1
11179	11185	1
11180	11181	1
11180	11187	1
11178	11181	1
11181	11186	1
11177	11178	1
11178	11188	1
11177	11184	1
11188	11190	1
11182	11183	1
11187	11189	1

[ angles ]
5325	5324	5335	1
5323	5324	5335	1
5335	6386	6376	1
5335	6386	6388	1
5325	5326	5333	1
5327	5326	5333	1
5333	5343	5337	1
5333	5343	5344	1
5324	5335	5336	1
5324	5335	6386	1
5324	5325	5326	1
5324	5325	5329	1
5324	5323	5328	1
5324	5323	5331	1
5326	5333	5334	1
5326	5333	5343	1
5326	5325	5329	1
5326	5327	5328	1
5326	5327	5330	1
5323	5324	5325	1
5325	5326	5327	1
5323	5328	5327	1
5323	5328	5332	1
5327	5328	5332	1
5328	5323	5331	1
5328	5327	5330	1
5336	5335	6386	1
5334	5333	5343	1
4584	4583	4594	1
4582	4583	4594	1
4594	5349	5339	1
4594	5349	5351	1
4584	4585	4592	1
4586	4585	4592	1
4592	4602	4596	1
4592	4602	4603	1
4583	4594	4595	1
4583	4594	5349	1
4583	4584	4585	1
4583	4584	4588	1
4583	4582	4587	1
4583	4582	4590	1
4585	4592	4593	1
4585	4592	4602	1
4585	4584	4588	1
4585	4586	4587	1
4585	4586	4589	1
4582	4583	4584	1
4584	4585	4586	1
4582	4587	4586	1
4582	4587	4591	1
4586	4587	4591	1
4587	4582	4590	1
4587	4586	4589	1
4595	4594	5349	1
4593	4592	4602	1
9848	9847	9858	1
9846	9847	9858	1
9858	9866	9860	1
9858	9866	9867	1
9848	9849	9856	1
9850	9849	9856	1
9856	8748	8738	1
9856	8748	8750	1
9847	9858	9859	1
9847	9858	9866	1
9847	9848	9849	1
9847	9848	9852	1
9847	9846	9851	1
9847	9846	9854	1
9849	9856	9857	1
9849	9856	8748	1
9849	9848	9852	1
9849	9850	9851	1
9849	9850	9853	1
9846	9847	9848	1
9848	9849	9850	1
9846	9851	9850	1
9846	9851	9855	1
9850	9851	9855	1
9851	9846	9854	1
9851	9850	9853	1
9859	9858	9866	1
9857	9856	8748	1
5180	5181	5188	1
5182	5181	5188	1
5188	7755	7745	1
5188	7755	7757	1
5180	5179	5190	1
5178	5179	5190	1
5190	5198	5192	1
5190	5198	5199	1
5181	5188	5189	1
5181	5188	7755	1
5181	5180	5179	1
5181	5180	5184	1
5181	5182	5183	1
5181	5182	5185	1
5179	5190	5191	1
5179	5190	5198	1
5179	5180	5184	1
5179	5178	5183	1
5179	5178	5186	1
5182	5181	5180	1
5180	5179	5178	1
5182	5183	5178	1
5182	5183	5187	1
5178	5183	5187	1
5183	5182	5185	1
5183	5178	5186	1
5189	5188	7755	1
5191	5190	5198	1
1370	1369	1380	1
1368	1369	1380	1
1355	1362	1380	1
1364	1362	1380	1
1370	1371	1378	1
1372	1371	1378	1
1378	7244	7237	1
1378	7244	7246	1
1369	1380	1381	1
1362	1380	1369	1
1369	1370	1371	1
1369	1370	1374	1
1369	1368	1373	1
1369	1368	1376	1
1371	1378	1379	1
1371	1378	7244	1
1371	1370	1374	1
1371	1372	1373	1
1371	1372	1375	1
1368	1369	1370	1
1370	1371	1372	1
1368	1373	1372	1
1368	1373	1377	1
1372	1373	1377	1
1373	1368	1376	1
1373	1372	1375	1
1362	1380	1381	1
1379	1378	7244	1
11613	11612	11623	1
11611	11612	11623	1
11623	4607	4600	1
11623	4607	4609	1
11613	11614	11621	1
11615	11614	11621	1
11621	10018	10008	1
11621	10018	10020	1
11612	11623	11624	1
11612	11623	4607	1
11612	11613	11614	1
11612	11613	11617	1
11612	11611	11616	1
11612	11611	11619	1
11614	11621	11622	1
11614	11621	10018	1
11614	11613	11617	1
11614	11615	11616	1
11614	11615	11618	1
11611	11612	11613	1
11613	11614	11615	1
11611	11616	11615	1
11611	11616	11620	1
11615	11616	11620	1
11616	11611	11619	1
11616	11615	11618	1
11624	11623	4607	1
11622	11621	10018	1
2643	2644	2651	1
2645	2644	2651	1
2651	3969	3959	1
2651	3969	3971	1
2643	2642	2653	1
2641	2642	2653	1
2644	2651	2652	1
2644	2651	3969	1
2642	2643	2644	1
2644	2643	2647	1
2644	2645	2646	1
2644	2645	2648	1
2642	2653	2654	1
2642	2653	2655	1
2642	2643	2647	1
2642	2641	2646	1
2642	2641	2649	1
2643	2644	2645	1
2641	2642	2643	1
2641	2646	2645	1
2645	2646	2650	1
2641	2646	2650	1
2646	2645	2648	1
2646	2641	2649	1
2652	2651	3969	1
2654	2653	2655	1
808	807	818	1
806	807	818	1
818	4521	4511	1
818	4521	4523	1
808	809	816	1
810	809	816	1
789	795	816	1
796	795	816	1
807	818	819	1
807	818	4521	1
807	808	809	1
807	808	812	1
807	806	811	1
807	806	814	1
809	816	817	1
795	816	809	1
809	808	812	1
809	810	811	1
809	810	813	1
806	807	808	1
808	809	810	1
806	811	810	1
806	811	815	1
810	811	815	1
811	806	814	1
811	810	813	1
819	818	4521	1
795	816	817	1
11134	11133	11144	1
11132	11133	11144	1
11144	4361	4351	1
11144	4361	4363	1
11134	11135	11142	1
11136	11135	11142	1
11142	11152	11146	1
11142	11152	11153	1
11133	11144	11145	1
11133	11144	4361	1
11133	11134	11135	1
11133	11134	11138	1
11133	11132	11137	1
11133	11132	11140	1
11135	11142	11143	1
11135	11142	11152	1
11135	11134	11138	1
11135	11136	11137	1
11135	11136	11139	1
11132	11133	11134	1
11134	11135	11136	1
11132	11137	11136	1
11132	11137	11141	1
11136	11137	11141	1
11137	11132	11140	1
11137	11136	11139	1
11145	11144	4361	1
11143	11142	11152	1
11557	11558	11565	1
11559	11558	11565	1
11565	4463	4453	1
11565	4463	4465	1
11557	11556	11567	1
11555	11556	11567	1
11567	7245	7235	1
11567	7245	7247	1
11558	11565	11566	1
11558	11565	4463	1
11558	11557	11556	1
11558	11557	11561	1
11558	11559	11560	1
11558	11559	11562	1
11556	11567	11568	1
11556	11567	7245	1
11556	11557	11561	1
11556	11555	11560	1
11556	11555	11563	1
11559	11558	11557	1
11557	11556	11555	1
11559	11560	11555	1
11559	11560	11564	1
11555	11560	11564	1
11560	11559	11562	1
11560	11555	11563	1
11566	11565	4463	1
11568	11567	7245	1
9877	9876	9887	1
9875	9876	9887	1
9887	5991	5984	1
9887	5991	5993	1
9877	9878	9885	1
9879	9878	9885	1
9885	9895	9889	1
9885	9895	9896	1
9876	9887	9888	1
9876	9887	5991	1
9876	9877	9878	1
9876	9877	9881	1
9876	9875	9880	1
9876	9875	9883	1
9878	9885	9886	1
9878	9885	9895	1
9878	9877	9881	1
9878	9879	9880	1
9878	9879	9882	1
9875	9876	9877	1
9877	9878	9879	1
9875	9880	9879	1
9875	9880	9884	1
9879	9880	9884	1
9880	9875	9883	1
9880	9879	9882	1
9888	9887	5991	1
9886	9885	9895	1
7206	7207	7214	1
7208	7207	7214	1
7214	10981	10971	1
7214	10981	10983	1
7206	7205	7216	1
7204	7205	7216	1
7216	7224	7218	1
7216	7224	7225	1
7207	7214	7215	1
7207	7214	10981	1
7205	7206	7207	1
7207	7206	7210	1
7207	7208	7209	1
7207	7208	7211	1
7205	7216	7217	1
7205	7216	7224	1
7205	7206	7210	1
7205	7204	7209	1
7205	7204	7212	1
7206	7207	7208	1
7204	7205	7206	1
7204	7209	7208	1
7208	7209	7213	1
7204	7209	7213	1
7209	7208	7211	1
7209	7204	7212	1
7215	7214	10981	1
7217	7216	7224	1
2853	2854	2861	1
2855	2854	2861	1
2861	5650	5644	1
2861	5650	5651	1
2853	2852	2863	1
2851	2852	2863	1
2854	2861	2862	1
2854	2861	5650	1
2852	2853	2854	1
2854	2853	2857	1
2854	2855	2856	1
2854	2855	2858	1
2852	2863	2865	1
2852	2863	2864	1
2852	2853	2857	1
2852	2851	2856	1
2852	2851	2859	1
2853	2854	2855	1
2851	2852	2853	1
2851	2856	2855	1
2855	2856	2860	1
2851	2856	2860	1
2856	2855	2858	1
2856	2851	2859	1
2862	2861	5650	1
2865	2863	2864	1
9526	9525	9536	1
9524	9525	9536	1
9536	9544	9538	1
9536	9544	9545	1
9526	9527	9534	1
9528	9527	9534	1
9534	5320	5310	1
9534	5320	5322	1
9525	9536	9537	1
9525	9536	9544	1
9525	9526	9527	1
9525	9526	9530	1
9525	9524	9529	1
9525	9524	9532	1
9527	9534	9535	1
9527	9534	5320	1
9527	9526	9530	1
9527	9528	9529	1
9527	9528	9531	1
9524	9525	9526	1
9526	9527	9528	1
9524	9529	9528	1
9524	9529	9533	1
9528	9529	9533	1
9529	9524	9532	1
9529	9528	9531	1
9537	9536	9544	1
9535	9534	5320	1
13713	13712	13723	1
13711	13712	13723	1
1541	1548	13723	1
1550	1548	13723	1
13713	13714	13721	1
13715	13714	13721	1
13721	10630	10623	1
13721	10630	10632	1
13712	13723	13724	1
1548	13723	13712	1
13712	13713	13714	1
13712	13713	13717	1
13712	13711	13716	1
13712	13711	13719	1
13714	13721	13722	1
13714	13721	10630	1
13714	13713	13717	1
13714	13715	13716	1
13714	13715	13718	1
13711	13712	13713	1
13713	13714	13715	1
13711	13716	13715	1
13711	13716	13720	1
13715	13716	13720	1
13716	13711	13719	1
13716	13715	13718	1
1548	13723	13724	1
13722	13721	10630	1
55	54	65	1
53	54	65	1
2547	2553	65	1
2554	2553	65	1
55	56	63	1
57	56	63	1
34	40	63	1
41	40	63	1
54	65	66	1
2553	65	54	1
54	55	56	1
54	55	59	1
54	53	58	1
54	53	61	1
56	63	64	1
40	63	56	1
56	55	59	1
56	57	58	1
56	57	60	1
53	54	55	1
55	56	57	1
53	58	57	1
53	58	62	1
57	58	62	1
58	53	61	1
58	57	60	1
2553	65	66	1
40	63	64	1
9585	9584	9595	1
9583	9584	9595	1
9595	5494	5487	1
9595	5494	5496	1
9585	9586	9593	1
9587	9586	9593	1
9593	9603	9597	1
9593	9603	9604	1
9584	9595	9596	1
9584	9595	5494	1
9584	9585	9586	1
9584	9585	9589	1
9584	9583	9588	1
9584	9583	9591	1
9586	9593	9594	1
9586	9593	9603	1
9586	9585	9589	1
9586	9587	9588	1
9586	9587	9590	1
9583	9584	9585	1
9585	9586	9587	1
9583	9588	9587	1
9583	9588	9592	1
9587	9588	9592	1
9588	9583	9591	1
9588	9587	9590	1
9596	9595	5494	1
9594	9593	9603	1
4235	4234	4245	1
4233	4234	4245	1
4245	10396	10386	1
4245	10396	10398	1
4235	4236	4243	1
4237	4236	4243	1
4243	4253	4247	1
4243	4253	4254	1
4234	4245	4246	1
4234	4245	10396	1
4234	4235	4236	1
4234	4235	4239	1
4234	4233	4238	1
4234	4233	4241	1
4236	4243	4244	1
4236	4243	4253	1
4236	4235	4239	1
4236	4237	4238	1
4236	4237	4240	1
4233	4234	4235	1
4235	4236	4237	1
4233	4238	4237	1
4233	4238	4242	1
4237	4238	4242	1
4238	4233	4241	1
4238	4237	4240	1
4246	4245	10396	1
4244	4243	4253	1
11305	11304	11315	1
11303	11304	11315	1
11315	4055	4048	1
11315	4055	4057	1
11305	11306	11313	1
11307	11306	11313	1
11313	10455	10445	1
11313	10455	10457	1
11304	11315	11316	1
11304	11315	4055	1
11304	11305	11306	1
11304	11305	11309	1
11304	11303	11308	1
11304	11303	11311	1
11306	11313	11314	1
11306	11313	10455	1
11306	11305	11309	1
11306	11307	11308	1
11306	11307	11310	1
11303	11304	11305	1
11305	11306	11307	1
11303	11308	11307	1
11303	11308	11312	1
11307	11308	11312	1
11308	11303	11311	1
11308	11307	11310	1
11316	11315	4055	1
11314	11313	10455	1
12271	12270	12281	1
12269	12270	12281	1
12281	9770	9760	1
12281	9770	9772	1
12271	12272	12279	1
12273	12272	12279	1
12279	5758	5748	1
12279	5758	5760	1
12270	12281	12282	1
12270	12281	9770	1
12270	12271	12272	1
12270	12271	12275	1
12270	12269	12274	1
12270	12269	12277	1
12272	12279	12280	1
12272	12279	5758	1
12272	12271	12275	1
12272	12273	12274	1
12272	12273	12276	1
12269	12270	12271	1
12271	12272	12273	1
12269	12274	12273	1
12269	12274	12278	1
12273	12274	12278	1
12274	12269	12277	1
12274	12273	12276	1
12282	12281	9770	1
12280	12279	5758	1
11361	11360	11371	1
11359	11360	11371	1
11371	4143	4133	1
11371	4143	4145	1
11361	11362	11369	1
11363	11362	11369	1
11369	7871	7861	1
11369	7871	7873	1
11360	11371	11372	1
11360	11371	4143	1
11360	11361	11362	1
11360	11361	11365	1
11360	11359	11364	1
11360	11359	11367	1
11362	11369	11370	1
11362	11369	7871	1
11362	11361	11365	1
11362	11363	11364	1
11362	11363	11366	1
11359	11360	11361	1
11361	11362	11363	1
11359	11364	11363	1
11359	11364	11368	1
11363	11364	11368	1
11364	11359	11367	1
11364	11363	11366	1
11372	11371	4143	1
11370	11369	7871	1
8051	8052	8059	1
8053	8052	8059	1
8059	8069	8063	1
8059	8069	8070	1
8051	8050	8061	1
8049	8050	8061	1
8061	7172	7162	1
8061	7172	7174	1
8052	8059	8060	1
8052	8059	8069	1
8052	8051	8050	1
8052	8051	8055	1
8052	8053	8054	1
8052	8053	8056	1
8050	8061	8062	1
8050	8061	7172	1
8050	8051	8055	1
8050	8049	8054	1
8050	8049	8057	1
8053	8052	8051	1
8051	8050	8049	1
8053	8054	8049	1
8053	8054	8058	1
8049	8054	8058	1
8054	8053	8056	1
8054	8049	8057	1
8060	8059	8069	1
8062	8061	7172	1
9819	9818	9829	1
9817	9818	9829	1
9829	9837	9831	1
9829	9837	9838	1
9819	9820	9827	1
9821	9820	9827	1
9827	10390	10384	1
9827	10390	10391	1
9818	9829	9830	1
9818	9829	9837	1
9818	9819	9820	1
9818	9819	9823	1
9818	9817	9822	1
9818	9817	9825	1
9820	9827	9828	1
9820	9827	10390	1
9820	9819	9823	1
9820	9821	9822	1
9820	9821	9824	1
9817	9818	9819	1
9819	9820	9821	1
9817	9822	9821	1
9817	9822	9826	1
9821	9822	9826	1
9822	9817	9825	1
9822	9821	9824	1
9830	9829	9837	1
9828	9827	10390	1
13783	13782	13793	1
13781	13782	13793	1
1351	1357	13793	1
1358	1357	13793	1
13783	13784	13791	1
13785	13784	13791	1
1634	1641	13791	1
1643	1641	13791	1
13782	13793	13794	1
1357	13793	13782	1
13782	13783	13784	1
13782	13783	13787	1
13782	13781	13786	1
13782	13781	13789	1
13784	13791	13792	1
1641	13791	13784	1
13784	13783	13787	1
13784	13785	13786	1
13784	13785	13788	1
13781	13782	13783	1
13783	13784	13785	1
13781	13786	13785	1
13781	13786	13790	1
13785	13786	13790	1
13786	13781	13789	1
13786	13785	13788	1
1357	13793	13794	1
1641	13791	13792	1
8958	8957	8968	1
8956	8957	8968	1
8968	8976	8970	1
8968	8976	8977	1
8958	8959	8966	1
8960	8959	8966	1
8966	8543	8536	1
8966	8543	8545	1
8957	8968	8969	1
8957	8968	8976	1
8957	8958	8959	1
8957	8958	8962	1
8957	8956	8961	1
8957	8956	8964	1
8959	8966	8967	1
8959	8966	8543	1
8959	8958	8962	1
8959	8960	8961	1
8959	8960	8963	1
8956	8957	8958	1
8958	8959	8960	1
8956	8961	8960	1
8956	8961	8965	1
8960	8961	8965	1
8961	8956	8964	1
8961	8960	8963	1
8969	8968	8976	1
8967	8966	8543	1
10431	10432	10439	1
10433	10432	10439	1
10439	10449	10443	1
10439	10449	10450	1
10431	10430	10441	1
10429	10430	10441	1
10441	11085	11075	1
10441	11085	11087	1
10432	10439	10440	1
10432	10439	10449	1
10430	10431	10432	1
10432	10431	10435	1
10432	10433	10434	1
10432	10433	10436	1
10430	10441	10442	1
10430	10441	11085	1
10430	10431	10435	1
10430	10429	10434	1
10430	10429	10437	1
10431	10432	10433	1
10429	10430	10431	1
10429	10434	10433	1
10433	10434	10438	1
10429	10434	10438	1
10434	10433	10436	1
10434	10429	10437	1
10440	10439	10449	1
10442	10441	11085	1
4947	4946	4957	1
4945	4946	4957	1
4957	4965	4959	1
4957	4965	4966	1
4947	4948	4955	1
4949	4948	4955	1
4955	11084	11077	1
4955	11084	11086	1
4946	4957	4958	1
4946	4957	4965	1
4946	4947	4948	1
4946	4947	4951	1
4946	4945	4950	1
4946	4945	4953	1
4948	4955	4956	1
4948	4955	11084	1
4948	4947	4951	1
4948	4949	4950	1
4948	4949	4952	1
4945	4946	4947	1
4947	4948	4949	1
4945	4950	4949	1
4945	4950	4954	1
4949	4950	4954	1
4950	4945	4953	1
4950	4949	4952	1
4958	4957	4965	1
4956	4955	11084	1
3063	3064	3071	1
3065	3064	3071	1
3071	7449	7439	1
3071	7449	7451	1
3063	3062	3073	1
3061	3062	3073	1
3064	3071	3072	1
3064	3071	7449	1
3062	3063	3064	1
3064	3063	3067	1
3064	3065	3066	1
3064	3065	3068	1
3062	3073	3074	1
3062	3073	3075	1
3062	3063	3067	1
3062	3061	3066	1
3062	3061	3069	1
3063	3064	3065	1
3061	3062	3063	1
3061	3066	3065	1
3065	3066	3070	1
3061	3066	3070	1
3066	3065	3068	1
3066	3061	3069	1
3072	3071	7449	1
3074	3073	3075	1
10957	10956	10967	1
10955	10956	10967	1
10967	10381	10371	1
10967	10381	10383	1
10957	10958	10965	1
10959	10958	10965	1
10965	10975	10969	1
10965	10975	10976	1
10956	10967	10968	1
10956	10967	10381	1
10956	10957	10958	1
10956	10957	10961	1
10956	10955	10960	1
10956	10955	10963	1
10958	10965	10966	1
10958	10965	10975	1
10958	10957	10961	1
10958	10959	10960	1
10958	10959	10962	1
10955	10956	10957	1
10957	10958	10959	1
10955	10960	10959	1
10955	10960	10964	1
10959	10960	10964	1
10960	10955	10963	1
10960	10959	10962	1
10968	10967	10381	1
10966	10965	10975	1
11963	11962	11973	1
11961	11962	11973	1
2131	2138	11973	1
2140	2138	11973	1
11963	11964	11971	1
11965	11964	11971	1
11971	5174	5167	1
11971	5174	5176	1
11962	11973	11974	1
2138	11973	11962	1
11962	11963	11964	1
11962	11963	11967	1
11962	11961	11966	1
11962	11961	11969	1
11964	11971	11972	1
11964	11971	5174	1
11964	11963	11967	1
11964	11965	11966	1
11964	11965	11968	1
11961	11962	11963	1
11963	11964	11965	1
11961	11966	11965	1
11961	11966	11970	1
11965	11966	11970	1
11966	11961	11969	1
11966	11965	11968	1
2138	11973	11974	1
11972	11971	5174	1
8622	8623	8630	1
8624	8623	8630	1
8630	8640	8634	1
8630	8640	8641	1
8622	8621	8632	1
8620	8621	8632	1
8632	6065	6055	1
8632	6065	6067	1
8623	8630	8631	1
8623	8630	8640	1
8623	8622	8621	1
8623	8622	8626	1
8623	8624	8625	1
8623	8624	8627	1
8621	8632	8633	1
8621	8632	6065	1
8621	8622	8626	1
8621	8620	8625	1
8621	8620	8628	1
8624	8623	8622	1
8622	8621	8620	1
8624	8625	8620	1
8624	8625	8629	1
8620	8625	8629	1
8625	8624	8627	1
8625	8620	8628	1
8631	8630	8640	1
8633	8632	6065	1
3318	3317	3328	1
3316	3317	3328	1
3318	3319	3326	1
3320	3319	3326	1
3326	8991	8985	1
3326	8991	8992	1
3317	3328	3330	1
3317	3328	3329	1
3317	3318	3319	1
3317	3318	3322	1
3317	3316	3321	1
3317	3316	3324	1
3319	3326	3327	1
3319	3326	8991	1
3319	3318	3322	1
3319	3320	3321	1
3319	3320	3323	1
3316	3317	3318	1
3318	3319	3320	1
3316	3321	3320	1
3316	3321	3325	1
3320	3321	3325	1
3321	3316	3324	1
3321	3320	3323	1
3330	3328	3329	1
3327	3326	8991	1
3243	3242	3253	1
3241	3242	3253	1
3243	3244	3251	1
3245	3244	3251	1
3251	8582	8576	1
3251	8582	8583	1
3242	3253	3255	1
3242	3253	3254	1
3242	3243	3244	1
3242	3243	3247	1
3242	3241	3246	1
3242	3241	3249	1
3244	3251	3252	1
3244	3251	8582	1
3244	3243	3247	1
3244	3245	3246	1
3244	3245	3248	1
3241	3242	3243	1
3243	3244	3245	1
3241	3246	3245	1
3241	3246	3250	1
3245	3246	3250	1
3246	3241	3249	1
3246	3245	3248	1
3254	3253	3255	1
3252	3251	8582	1
2868	2869	2876	1
2870	2869	2876	1
2876	5655	5648	1
2876	5655	5657	1
2868	2867	2878	1
2866	2867	2878	1
2869	2876	2877	1
2869	2876	5655	1
2867	2868	2869	1
2869	2868	2872	1
2869	2870	2871	1
2869	2870	2873	1
2867	2878	2879	1
2867	2878	2880	1
2867	2868	2872	1
2867	2866	2871	1
2867	2866	2874	1
2868	2869	2870	1
2866	2867	2868	1
2866	2871	2870	1
2870	2871	2875	1
2866	2871	2875	1
2871	2870	2873	1
2871	2866	2874	1
2877	2876	5655	1
2879	2878	2880	1
13419	13418	13429	1
13417	13418	13429	1
13429	8587	8580	1
13429	8587	8589	1
13419	13420	13427	1
13421	13420	13427	1
13427	8442	8432	1
13427	8442	8444	1
13418	13429	13430	1
13418	13429	8587	1
13418	13419	13420	1
13418	13419	13423	1
13418	13417	13422	1
13418	13417	13425	1
13420	13427	13428	1
13420	13427	8442	1
13420	13419	13423	1
13420	13421	13422	1
13420	13421	13424	1
13417	13418	13419	1
13419	13420	13421	1
13417	13422	13421	1
13417	13422	13426	1
13421	13422	13426	1
13422	13417	13425	1
13422	13421	13424	1
13430	13429	8587	1
13428	13427	8442	1
3168	3167	3178	1
3166	3167	3178	1
3168	3169	3176	1
3170	3169	3176	1
3176	8148	8138	1
3176	8148	8150	1
3167	3178	3179	1
3167	3178	3180	1
3167	3168	3169	1
3167	3168	3172	1
3167	3166	3171	1
3167	3166	3174	1
3169	3176	3177	1
3169	3176	8148	1
3169	3168	3172	1
3169	3170	3171	1
3169	3170	3173	1
3166	3167	3168	1
3168	3169	3170	1
3166	3171	3170	1
3166	3171	3175	1
3170	3171	3175	1
3171	3166	3174	1
3171	3170	3173	1
3179	3178	3180	1
3177	3176	8148	1
2411	2410	2421	1
2409	2410	2421	1
2392	2398	2421	1
2399	2398	2421	1
2411	2412	2419	1
2413	2412	2419	1
2419	6064	6057	1
2419	6064	6066	1
2410	2421	2422	1
2398	2421	2410	1
2410	2411	2412	1
2410	2411	2415	1
2410	2409	2414	1
2410	2409	2417	1
2412	2419	2420	1
2412	2419	6064	1
2412	2411	2415	1
2412	2413	2414	1
2412	2413	2416	1
2409	2410	2411	1
2411	2412	2413	1
2409	2414	2413	1
2409	2414	2418	1
2413	2414	2418	1
2414	2409	2417	1
2414	2413	2416	1
2398	2421	2422	1
2420	2419	6064	1
10052	10051	10062	1
10050	10051	10062	1
10062	10070	10064	1
10062	10070	10071	1
10052	10053	10060	1
10054	10053	10060	1
10060	11079	11073	1
10060	11079	11080	1
10051	10062	10063	1
10051	10062	10070	1
10051	10052	10053	1
10051	10052	10056	1
10051	10050	10055	1
10051	10050	10058	1
10053	10060	10061	1
10053	10060	11079	1
10053	10052	10056	1
10053	10054	10055	1
10053	10054	10057	1
10050	10051	10052	1
10052	10053	10054	1
10050	10055	10054	1
10050	10055	10059	1
10054	10055	10059	1
10055	10050	10058	1
10055	10054	10057	1
10063	10062	10070	1
10061	10060	11079	1
5209	5208	5219	1
5207	5208	5219	1
5219	7390	7380	1
5219	7390	7392	1
5209	5210	5217	1
5211	5210	5217	1
5217	5227	5221	1
5217	5227	5228	1
5208	5219	5220	1
5208	5219	7390	1
5208	5209	5210	1
5208	5209	5213	1
5208	5207	5212	1
5208	5207	5215	1
5210	5217	5218	1
5210	5217	5227	1
5210	5209	5213	1
5210	5211	5212	1
5210	5211	5214	1
5207	5208	5209	1
5209	5210	5211	1
5207	5212	5211	1
5207	5212	5216	1
5211	5212	5216	1
5212	5207	5215	1
5212	5211	5214	1
5220	5219	7390	1
5218	5217	5227	1
11501	11502	11509	1
11503	11502	11509	1
545	552	11509	1
554	552	11509	1
11501	11500	11511	1
11499	11500	11511	1
11511	4360	4353	1
11511	4360	4362	1
11502	11509	11510	1
552	11509	11502	1
11500	11501	11502	1
11502	11501	11505	1
11502	11503	11504	1
11502	11503	11506	1
11500	11511	11512	1
11500	11511	4360	1
11500	11501	11505	1
11500	11499	11504	1
11500	11499	11507	1
11501	11502	11503	1
11499	11500	11501	1
11499	11504	11503	1
11503	11504	11508	1
11499	11504	11508	1
11504	11503	11506	1
11504	11499	11507	1
552	11509	11510	1
11512	11511	4360	1
5049	5048	5059	1
5047	5048	5059	1
5059	5067	5061	1
5059	5067	5068	1
5049	5050	5057	1
5051	5050	5057	1
5057	8382	8375	1
5057	8382	8384	1
5048	5059	5060	1
5048	5059	5067	1
5048	5049	5050	1
5048	5049	5053	1
5048	5047	5052	1
5048	5047	5055	1
5050	5057	5058	1
5050	5057	8382	1
5050	5049	5053	1
5050	5051	5052	1
5050	5051	5054	1
5047	5048	5049	1
5049	5050	5051	1
5047	5052	5051	1
5047	5052	5056	1
5051	5052	5056	1
5052	5047	5055	1
5052	5051	5054	1
5060	5059	5067	1
5058	5057	8382	1
281	280	291	1
279	280	291	1
260	266	291	1
267	266	291	1
281	282	289	1
283	282	289	1
289	5933	5923	1
289	5933	5935	1
280	291	292	1
266	291	280	1
280	281	282	1
280	281	285	1
280	279	284	1
280	279	287	1
282	289	290	1
282	289	5933	1
282	281	285	1
282	283	284	1
282	283	286	1
279	280	281	1
281	282	283	1
279	284	283	1
279	284	288	1
283	284	288	1
284	279	287	1
284	283	286	1
266	291	292	1
290	289	5933	1
12005	12006	12013	1
12007	12006	12013	1
917	924	12013	1
926	924	12013	1
12005	12004	12015	1
12003	12004	12015	1
12015	5291	5281	1
12015	5291	5293	1
12006	12013	12014	1
924	12013	12006	1
12004	12005	12006	1
12006	12005	12009	1
12006	12007	12008	1
12006	12007	12010	1
12004	12015	12016	1
12004	12015	5291	1
12004	12005	12009	1
12004	12003	12008	1
12004	12003	12011	1
12005	12006	12007	1
12003	12004	12005	1
12003	12008	12007	1
12007	12008	12012	1
12003	12008	12012	1
12008	12007	12010	1
12008	12003	12011	1
924	12013	12014	1
12016	12015	5291	1
4206	4205	4216	1
4204	4205	4216	1
4216	4224	4218	1
4216	4224	4225	1
4206	4207	4214	1
4208	4207	4214	1
4214	7973	7963	1
4214	7973	7975	1
4205	4216	4217	1
4205	4216	4224	1
4205	4206	4207	1
4205	4206	4210	1
4205	4204	4209	1
4205	4204	4212	1
4207	4214	4215	1
4207	4214	7973	1
4207	4206	4210	1
4207	4208	4209	1
4207	4208	4211	1
4204	4205	4206	1
4206	4207	4208	1
4204	4209	4208	1
4204	4209	4213	1
4208	4209	4213	1
4209	4204	4212	1
4209	4208	4211	1
4217	4216	4224	1
4215	4214	7973	1
3693	3692	3703	1
3691	3692	3703	1
3693	3694	3701	1
3695	3694	3701	1
3701	11005	10999	1
3701	11005	11006	1
3692	3703	3705	1
3692	3703	3704	1
3692	3693	3694	1
3692	3693	3697	1
3692	3691	3696	1
3692	3691	3699	1
3694	3701	3702	1
3694	3701	11005	1
3694	3693	3697	1
3694	3695	3696	1
3694	3695	3698	1
3691	3692	3693	1
3693	3694	3695	1
3691	3696	3695	1
3691	3696	3700	1
3695	3696	3700	1
3696	3691	3699	1
3696	3695	3698	1
3705	3703	3704	1
3702	3701	11005	1
11291	11290	11301	1
11289	11290	11301	1
11301	4056	4046	1
11301	4056	4058	1
11291	11292	11299	1
11293	11292	11299	1
11299	11158	11148	1
11299	11158	11160	1
11290	11301	11302	1
11290	11301	4056	1
11290	11291	11292	1
11290	11291	11295	1
11290	11289	11294	1
11290	11289	11297	1
11292	11299	11300	1
11292	11299	11158	1
11292	11291	11295	1
11292	11293	11294	1
11292	11293	11296	1
11289	11290	11291	1
11291	11292	11293	1
11289	11294	11293	1
11289	11294	11298	1
11293	11294	11298	1
11294	11289	11297	1
11294	11293	11296	1
11302	11301	4056	1
11300	11299	11158	1
2733	2732	2743	1
2731	2732	2743	1
2733	2734	2741	1
2735	2734	2741	1
2741	4999	4992	1
2741	4999	5001	1
2732	2743	2745	1
2732	2743	2744	1
2732	2733	2734	1
2732	2733	2737	1
2732	2731	2736	1
2732	2731	2739	1
2734	2741	2742	1
2734	2741	4999	1
2734	2733	2737	1
2734	2735	2736	1
2734	2735	2738	1
2731	2732	2733	1
2733	2734	2735	1
2731	2736	2735	1
2731	2736	2740	1
2735	2736	2740	1
2736	2731	2739	1
2736	2735	2738	1
2745	2743	2744	1
2742	2741	4999	1
10255	10254	10265	1
10253	10254	10265	1
10265	10273	10267	1
10265	10273	10274	1
10255	10256	10263	1
10257	10256	10263	1
10263	10815	10809	1
10263	10815	10816	1
10254	10265	10266	1
10254	10265	10273	1
10254	10255	10256	1
10254	10255	10259	1
10254	10253	10258	1
10254	10253	10261	1
10256	10263	10264	1
10256	10263	10815	1
10256	10255	10259	1
10256	10257	10258	1
10256	10257	10260	1
10253	10254	10255	1
10255	10256	10257	1
10253	10258	10257	1
10253	10258	10262	1
10257	10258	10262	1
10258	10253	10261	1
10258	10257	10260	1
10266	10265	10273	1
10264	10263	10815	1
12383	12382	12393	1
12381	12382	12393	1
12393	10075	10068	1
12393	10075	10077	1
12383	12384	12391	1
12385	12384	12391	1
12391	5889	5879	1
12391	5889	5891	1
12382	12393	12394	1
12382	12393	10075	1
12382	12383	12384	1
12382	12383	12387	1
12382	12381	12386	1
12382	12381	12389	1
12384	12391	12392	1
12384	12391	5889	1
12384	12383	12387	1
12384	12385	12386	1
12384	12385	12388	1
12381	12382	12383	1
12383	12384	12385	1
12381	12386	12385	1
12381	12386	12390	1
12385	12386	12390	1
12386	12381	12389	1
12386	12385	12388	1
12394	12393	10075	1
12392	12391	5889	1
11697	11696	11707	1
11695	11696	11707	1
1165	1172	11707	1
1174	1172	11707	1
11697	11698	11705	1
11699	11698	11705	1
11705	4752	4745	1
11705	4752	4754	1
11696	11707	11708	1
1172	11707	11696	1
11696	11697	11698	1
11696	11697	11701	1
11696	11695	11700	1
11696	11695	11703	1
11698	11705	11706	1
11698	11705	4752	1
11698	11697	11701	1
11698	11699	11700	1
11698	11699	11702	1
11695	11696	11697	1
11697	11698	11699	1
11695	11700	11699	1
11695	11700	11704	1
11699	11700	11704	1
11700	11695	11703	1
11700	11699	11702	1
1172	11707	11708	1
11706	11705	4752	1
5122	5121	5132	1
5120	5121	5132	1
5132	9331	9324	1
5132	9331	9333	1
5122	5123	5130	1
5124	5123	5130	1
5130	5140	5134	1
5130	5140	5141	1
5121	5132	5133	1
5121	5132	9331	1
5121	5122	5123	1
5121	5122	5126	1
5121	5120	5125	1
5121	5120	5128	1
5123	5130	5131	1
5123	5130	5140	1
5123	5122	5126	1
5123	5124	5125	1
5123	5124	5127	1
5120	5121	5122	1
5122	5123	5124	1
5120	5125	5124	1
5120	5125	5129	1
5124	5125	5129	1
5125	5120	5128	1
5125	5124	5127	1
5133	5132	9331	1
5131	5130	5140	1
10328	10327	10338	1
10326	10327	10338	1
10338	7784	7774	1
10338	7784	7786	1
10328	10329	10336	1
10330	10329	10336	1
10336	10346	10340	1
10336	10346	10347	1
10327	10338	10339	1
10327	10338	7784	1
10327	10328	10329	1
10327	10328	10332	1
10327	10326	10331	1
10327	10326	10334	1
10329	10336	10337	1
10329	10336	10346	1
10329	10328	10332	1
10329	10330	10331	1
10329	10330	10333	1
10326	10327	10328	1
10328	10329	10330	1
10326	10331	10330	1
10326	10331	10335	1
10330	10331	10335	1
10331	10326	10334	1
10331	10330	10333	1
10339	10338	7784	1
10337	10336	10346	1
7629	7628	7639	1
7627	7628	7639	1
7639	7647	7641	1
7639	7647	7648	1
7629	7630	7637	1
7631	7630	7637	1
7637	10990	10984	1
7637	10990	10991	1
7628	7639	7640	1
7628	7639	7647	1
7628	7629	7630	1
7628	7629	7633	1
7628	7627	7632	1
7628	7627	7635	1
7630	7637	7638	1
7630	7637	10990	1
7630	7629	7633	1
7630	7631	7632	1
7630	7631	7634	1
7627	7628	7629	1
7629	7630	7631	1
7627	7632	7631	1
7627	7632	7636	1
7631	7632	7636	1
7632	7627	7635	1
7632	7631	7634	1
7640	7639	7647	1
7638	7637	10990	1
11207	11206	11217	1
11205	11206	11217	1
886	893	11217	1
895	893	11217	1
11207	11208	11215	1
11209	11208	11215	1
11215	3867	3857	1
11215	3867	3869	1
11206	11217	11218	1
893	11217	11206	1
11206	11207	11208	1
11206	11207	11211	1
11206	11205	11210	1
11206	11205	11213	1
11208	11215	11216	1
11208	11215	3867	1
11208	11207	11211	1
11208	11209	11210	1
11208	11209	11212	1
11205	11206	11207	1
11207	11208	11209	1
11205	11210	11209	1
11205	11210	11214	1
11209	11210	11214	1
11210	11205	11213	1
11210	11209	11212	1
893	11217	11218	1
11216	11215	3867	1
9134	9135	9142	1
9136	9135	9142	1
9142	9492	9482	1
9142	9492	9494	1
9134	9133	9144	1
9132	9133	9144	1
9144	9152	9146	1
9144	9152	9153	1
9135	9142	9143	1
9135	9142	9492	1
9133	9134	9135	1
9135	9134	9138	1
9135	9136	9137	1
9135	9136	9139	1
9133	9144	9145	1
9133	9144	9152	1
9133	9134	9138	1
9133	9132	9137	1
9133	9132	9140	1
9134	9135	9136	1
9132	9133	9134	1
9132	9137	9136	1
9136	9137	9141	1
9132	9137	9141	1
9137	9136	9139	1
9137	9132	9140	1
9143	9142	9492	1
9145	9144	9152	1
560	561	568	1
562	561	568	1
541	547	568	1
548	547	568	1
560	559	570	1
558	559	570	1
570	5290	5283	1
570	5290	5292	1
561	568	569	1
547	568	561	1
561	560	559	1
561	560	564	1
561	562	563	1
561	562	565	1
559	570	571	1
559	570	5290	1
559	560	564	1
559	558	563	1
559	558	566	1
562	561	560	1
560	559	558	1
562	563	558	1
562	563	567	1
558	563	567	1
563	562	565	1
563	558	566	1
547	568	569	1
571	570	5290	1
2988	2989	2996	1
2990	2989	2996	1
2996	6691	6681	1
2996	6691	6693	1
2988	2987	2998	1
2986	2987	2998	1
2989	2996	2997	1
2989	2996	6691	1
2987	2988	2989	1
2989	2988	2992	1
2989	2990	2991	1
2989	2990	2993	1
2987	2998	2999	1
2987	2998	3000	1
2987	2988	2992	1
2987	2986	2991	1
2987	2986	2994	1
2988	2989	2990	1
2986	2987	2988	1
2986	2991	2990	1
2990	2991	2995	1
2986	2991	2995	1
2991	2990	2993	1
2991	2986	2994	1
2997	2996	6691	1
2999	2998	3000	1
9105	9104	9115	1
9103	9104	9115	1
9115	10454	10447	1
9115	10454	10456	1
9105	9106	9113	1
9107	9106	9113	1
9113	9123	9117	1
9113	9123	9124	1
9104	9115	9116	1
9104	9115	10454	1
9104	9105	9106	1
9104	9105	9109	1
9104	9103	9108	1
9104	9103	9111	1
9106	9113	9114	1
9106	9113	9123	1
9106	9105	9109	1
9106	9107	9108	1
9106	9107	9110	1
9103	9104	9105	1
9105	9106	9107	1
9103	9108	9107	1
9103	9108	9112	1
9107	9108	9112	1
9108	9103	9111	1
9108	9107	9110	1
9116	9115	10454	1
9114	9113	9123	1
13517	13516	13527	1
13515	13516	13527	1
13527	9129	9119	1
13527	9129	9131	1
13517	13518	13525	1
13519	13518	13525	1
13525	8996	8989	1
13525	8996	8998	1
13516	13527	13528	1
13516	13527	9129	1
13516	13517	13518	1
13516	13517	13521	1
13516	13515	13520	1
13516	13515	13523	1
13518	13525	13526	1
13518	13525	8996	1
13518	13517	13521	1
13518	13519	13520	1
13518	13519	13522	1
13515	13516	13517	1
13517	13518	13519	1
13515	13520	13519	1
13515	13520	13524	1
13519	13520	13524	1
13520	13515	13523	1
13520	13519	13522	1
13528	13527	9129	1
13526	13525	8996	1
3423	3424	3431	1
3425	3424	3431	1
3431	9463	9453	1
3431	9463	9465	1
3423	3422	3433	1
3421	3422	3433	1
3424	3431	3432	1
3424	3431	9463	1
3422	3423	3424	1
3424	3423	3427	1
3424	3425	3426	1
3424	3425	3428	1
3422	3433	3434	1
3422	3433	3435	1
3422	3423	3427	1
3422	3421	3426	1
3422	3421	3429	1
3423	3424	3425	1
3421	3422	3423	1
3421	3426	3425	1
3425	3426	3430	1
3421	3426	3430	1
3426	3425	3428	1
3426	3421	3429	1
3432	3431	9463	1
3434	3433	3435	1
7978	7977	7988	1
7976	7977	7988	1
7988	6967	6960	1
7988	6967	6969	1
7978	7979	7986	1
7980	7979	7986	1
7986	7996	7990	1
7986	7996	7997	1
7977	7988	7989	1
7977	7988	6967	1
7977	7978	7979	1
7977	7978	7982	1
7977	7976	7981	1
7977	7976	7984	1
7979	7986	7987	1
7979	7986	7996	1
7979	7978	7982	1
7979	7980	7981	1
7979	7980	7983	1
7976	7977	7978	1
7978	7979	7980	1
7976	7981	7980	1
7976	7981	7985	1
7980	7981	7985	1
7981	7976	7984	1
7981	7980	7983	1
7989	7988	6967	1
7987	7986	7996	1
1087	1086	1097	1
1085	1086	1097	1
1068	1074	1097	1
1075	1074	1097	1
1087	1088	1095	1
1089	1088	1095	1
1095	5582	5572	1
1095	5582	5584	1
1086	1097	1098	1
1074	1097	1086	1
1086	1087	1088	1
1086	1087	1091	1
1086	1085	1090	1
1086	1085	1093	1
1088	1095	1096	1
1088	1095	5582	1
1088	1087	1091	1
1088	1089	1090	1
1088	1089	1092	1
1085	1086	1087	1
1087	1088	1089	1
1085	1090	1089	1
1085	1090	1094	1
1089	1090	1094	1
1090	1085	1093	1
1090	1089	1092	1
1074	1097	1098	1
1096	1095	5582	1
13503	13502	13513	1
13501	13502	13513	1
13513	10952	10942	1
13513	10952	10954	1
13503	13504	13511	1
13505	13504	13511	1
13511	8997	8987	1
13511	8997	8999	1
13502	13513	13514	1
13502	13513	10952	1
13502	13503	13504	1
13502	13503	13507	1
13502	13501	13506	1
13502	13501	13509	1
13504	13511	13512	1
13504	13511	8997	1
13504	13503	13507	1
13504	13505	13506	1
13504	13505	13508	1
13501	13502	13503	1
13503	13504	13505	1
13501	13506	13505	1
13501	13506	13510	1
13505	13506	13510	1
13506	13501	13509	1
13506	13505	13508	1
13514	13513	10952	1
13512	13511	8997	1
10694	10693	10704	1
10692	10693	10704	1
10704	3968	3961	1
10704	3968	3970	1
10694	10695	10702	1
10696	10695	10702	1
10702	10712	10706	1
10702	10712	10713	1
10693	10704	10705	1
10693	10704	3968	1
10693	10694	10695	1
10693	10694	10698	1
10693	10692	10697	1
10693	10692	10700	1
10695	10702	10703	1
10695	10702	10712	1
10695	10694	10698	1
10695	10696	10697	1
10695	10696	10699	1
10692	10693	10694	1
10694	10695	10696	1
10692	10697	10696	1
10692	10697	10701	1
10696	10697	10701	1
10697	10692	10700	1
10697	10696	10699	1
10705	10704	3968	1
10703	10702	10712	1
5617	5616	5627	1
5615	5616	5627	1
2458	2465	5627	1
2467	2465	5627	1
5617	5618	5625	1
5619	5618	5625	1
5625	5635	5629	1
5625	5635	5636	1
5616	5627	5628	1
2465	5627	5616	1
5616	5617	5618	1
5616	5617	5621	1
5616	5615	5620	1
5616	5615	5623	1
5618	5625	5626	1
5618	5625	5635	1
5618	5617	5621	1
5618	5619	5620	1
5618	5619	5622	1
5615	5616	5617	1
5617	5618	5619	1
5615	5620	5619	1
5615	5620	5624	1
5619	5620	5624	1
5620	5615	5623	1
5620	5619	5622	1
2465	5627	5628	1
5626	5625	5635	1
436	435	446	1
434	435	446	1
446	6351	6345	1
446	6351	6352	1
436	437	444	1
438	437	444	1
417	423	444	1
424	423	444	1
435	446	447	1
435	446	6351	1
435	436	437	1
435	436	440	1
435	434	439	1
435	434	442	1
437	444	445	1
423	444	437	1
437	436	440	1
437	438	439	1
437	438	441	1
434	435	436	1
436	437	438	1
434	439	438	1
434	439	443	1
438	439	443	1
439	434	442	1
439	438	441	1
447	446	6351	1
423	444	445	1
7148	7147	7158	1
7146	7147	7158	1
7158	7166	7160	1
7158	7166	7167	1
7148	7149	7156	1
7150	7149	7156	1
7156	8616	8609	1
7156	8616	8618	1
7147	7158	7159	1
7147	7158	7166	1
7147	7148	7149	1
7147	7148	7152	1
7147	7146	7151	1
7147	7146	7154	1
7149	7156	7157	1
7149	7156	8616	1
7149	7148	7152	1
7149	7150	7151	1
7149	7150	7153	1
7146	7147	7148	1
7148	7149	7150	1
7146	7151	7150	1
7146	7151	7155	1
7150	7151	7155	1
7151	7146	7154	1
7151	7150	7153	1
7159	7158	7166	1
7157	7156	8616	1
684	683	694	1
682	683	694	1
694	10552	10546	1
694	10552	10553	1
684	685	692	1
686	685	692	1
665	671	692	1
672	671	692	1
683	694	695	1
683	694	10552	1
683	684	685	1
683	684	688	1
683	682	687	1
683	682	690	1
685	692	693	1
671	692	685	1
685	684	688	1
685	686	687	1
685	686	689	1
682	683	684	1
684	685	686	1
682	687	686	1
682	687	691	1
686	687	691	1
687	682	690	1
687	686	689	1
695	694	10552	1
671	692	693	1
6696	6695	6706	1
6694	6695	6706	1
6706	8367	8360	1
6706	8367	8369	1
6696	6697	6704	1
6698	6697	6704	1
6704	6714	6708	1
6704	6714	6715	1
6695	6706	6707	1
6695	6706	8367	1
6695	6696	6697	1
6695	6696	6700	1
6695	6694	6699	1
6695	6694	6702	1
6697	6704	6705	1
6697	6704	6714	1
6697	6696	6700	1
6697	6698	6699	1
6697	6698	6701	1
6694	6695	6696	1
6696	6697	6698	1
6694	6699	6698	1
6694	6699	6703	1
6698	6699	6703	1
6699	6694	6702	1
6699	6698	6701	1
6707	6706	8367	1
6705	6704	6714	1
3483	3484	3491	1
3485	3484	3491	1
3491	9608	9601	1
3491	9608	9610	1
3483	3482	3493	1
3481	3482	3493	1
3484	3491	3492	1
3484	3491	9608	1
3482	3483	3484	1
3484	3483	3487	1
3484	3485	3486	1
3484	3485	3488	1
3482	3493	3495	1
3482	3493	3494	1
3482	3483	3487	1
3482	3481	3486	1
3482	3481	3489	1
3483	3484	3485	1
3481	3482	3483	1
3481	3486	3485	1
3485	3486	3490	1
3481	3486	3490	1
3486	3485	3488	1
3486	3481	3489	1
3492	3491	9608	1
3494	3493	3495	1
13055	13054	13065	1
13053	13054	13065	1
13065	7624	7614	1
13065	7624	7626	1
13055	13056	13063	1
13057	13056	13063	1
13063	10278	10271	1
13063	10278	10280	1
13054	13065	13066	1
13054	13065	7624	1
13054	13055	13056	1
13054	13055	13059	1
13054	13053	13058	1
13054	13053	13061	1
13056	13063	13064	1
13056	13063	10278	1
13056	13055	13059	1
13056	13057	13058	1
13056	13057	13060	1
13053	13054	13055	1
13055	13056	13057	1
13053	13058	13057	1
13053	13058	13062	1
13057	13058	13062	1
13058	13053	13061	1
13058	13057	13060	1
13066	13065	7624	1
13064	13063	10278	1
11417	11416	11427	1
11415	11416	11427	1
11427	7522	7512	1
11427	7522	7524	1
11417	11418	11425	1
11419	11418	11425	1
11425	4230	4220	1
11425	4230	4232	1
11416	11427	11428	1
11416	11427	7522	1
11416	11417	11418	1
11416	11417	11421	1
11416	11415	11420	1
11416	11415	11423	1
11418	11425	11426	1
11418	11425	4230	1
11418	11417	11421	1
11418	11419	11420	1
11418	11419	11422	1
11415	11416	11417	1
11417	11418	11419	1
11415	11420	11419	1
11415	11420	11424	1
11419	11420	11424	1
11420	11415	11423	1
11420	11419	11422	1
11428	11427	7522	1
11426	11425	4230	1
12761	12760	12771	1
12759	12760	12771	1
2551	2558	12771	1
2560	2558	12771	1
12761	12762	12769	1
12763	12762	12769	1
12769	6719	6712	1
12769	6719	6721	1
12760	12771	12772	1
2558	12771	12760	1
12760	12761	12762	1
12760	12761	12765	1
12760	12759	12764	1
12760	12759	12767	1
12762	12769	12770	1
12762	12769	6719	1
12762	12761	12765	1
12762	12763	12764	1
12762	12763	12766	1
12759	12760	12761	1
12761	12762	12763	1
12759	12764	12763	1
12759	12764	12768	1
12763	12764	12768	1
12764	12759	12767	1
12764	12763	12766	1
2558	12771	12772	1
12770	12769	6719	1
4032	4031	4042	1
4030	4031	4042	1
4042	6282	6275	1
4042	6282	6284	1
4032	4033	4040	1
4034	4033	4040	1
4040	4050	4044	1
4040	4050	4051	1
4031	4042	4043	1
4031	4042	6282	1
4031	4032	4033	1
4031	4032	4036	1
4031	4030	4035	1
4031	4030	4038	1
4033	4040	4041	1
4033	4040	4050	1
4033	4032	4036	1
4033	4034	4035	1
4033	4034	4037	1
4030	4031	4032	1
4032	4033	4034	1
4030	4035	4034	1
4030	4035	4039	1
4034	4035	4039	1
4035	4030	4038	1
4035	4034	4037	1
4043	4042	6282	1
4041	4040	4050	1
2318	2317	2328	1
2316	2317	2328	1
2299	2305	2328	1
2306	2305	2328	1
2318	2319	2326	1
2320	2319	2326	1
2326	10806	10796	1
2326	10806	10808	1
2317	2328	2329	1
2305	2328	2317	1
2317	2318	2319	1
2317	2318	2322	1
2317	2316	2321	1
2317	2316	2324	1
2319	2326	2327	1
2319	2326	10806	1
2319	2318	2322	1
2319	2320	2321	1
2319	2320	2323	1
2316	2317	2318	1
2318	2319	2320	1
2316	2321	2320	1
2316	2321	2325	1
2320	2321	2325	1
2321	2316	2324	1
2321	2320	2323	1
2305	2328	2329	1
2327	2326	10806	1
6638	6637	6648	1
6636	6637	6648	1
6648	6656	6650	1
6648	6656	6657	1
6638	6639	6646	1
6640	6639	6646	1
6646	8952	8945	1
6646	8952	8954	1
6637	6648	6649	1
6637	6648	6656	1
6637	6638	6639	1
6637	6638	6642	1
6637	6636	6641	1
6637	6636	6644	1
6639	6646	6647	1
6639	6646	8952	1
6639	6638	6642	1
6639	6640	6641	1
6639	6640	6643	1
6636	6637	6638	1
6638	6639	6640	1
6636	6641	6640	1
6636	6641	6645	1
6640	6641	6645	1
6641	6636	6644	1
6641	6640	6643	1
6649	6648	6656	1
6647	6646	8952	1
7556	7555	7566	1
7554	7555	7566	1
7566	7574	7568	1
7566	7574	7575	1
7556	7557	7564	1
7558	7557	7564	1
7564	4637	4627	1
7564	4637	4639	1
7555	7566	7567	1
7555	7566	7574	1
7555	7556	7557	1
7555	7556	7560	1
7555	7554	7559	1
7555	7554	7562	1
7557	7564	7565	1
7557	7564	4637	1
7557	7556	7560	1
7557	7558	7559	1
7557	7558	7561	1
7554	7555	7556	1
7556	7557	7558	1
7554	7559	7558	1
7554	7559	7563	1
7558	7559	7563	1
7559	7554	7562	1
7559	7558	7561	1
7567	7566	7574	1
7565	7564	4637	1
12817	12816	12827	1
12815	12816	12827	1
12827	6968	6958	1
12827	6968	6970	1
12817	12818	12825	1
12819	12818	12825	1
2520	2527	12825	1
2529	2527	12825	1
12816	12827	12828	1
12816	12827	6968	1
12816	12817	12818	1
12816	12817	12821	1
12816	12815	12820	1
12816	12815	12823	1
12818	12825	12826	1
2527	12825	12818	1
12818	12817	12821	1
12818	12819	12820	1
12818	12819	12822	1
12815	12816	12817	1
12817	12818	12819	1
12815	12820	12819	1
12815	12820	12824	1
12819	12820	12824	1
12820	12815	12823	1
12820	12819	12822	1
12828	12827	6968	1
2527	12825	12826	1
13027	13026	13037	1
13025	13026	13037	1
13037	9332	9322	1
13037	9332	9334	1
13027	13028	13035	1
13029	13028	13035	1
13035	7551	7541	1
13035	7551	7553	1
13026	13037	13038	1
13026	13037	9332	1
13026	13027	13028	1
13026	13027	13031	1
13026	13025	13030	1
13026	13025	13033	1
13028	13035	13036	1
13028	13035	7551	1
13028	13027	13031	1
13028	13029	13030	1
13028	13029	13032	1
13025	13026	13027	1
13027	13028	13029	1
13025	13030	13029	1
13025	13030	13034	1
13029	13030	13034	1
13030	13025	13033	1
13030	13029	13032	1
13038	13037	9332	1
13036	13035	7551	1
4439	4438	4449	1
4437	4438	4449	1
4449	4457	4451	1
4449	4457	4458	1
4439	4440	4447	1
4441	4440	4447	1
4447	6938	6931	1
4447	6938	6940	1
4438	4449	4450	1
4438	4449	4457	1
4438	4439	4440	1
4438	4439	4443	1
4438	4437	4442	1
4438	4437	4445	1
4440	4447	4448	1
4440	4447	6938	1
4440	4439	4443	1
4440	4441	4442	1
4440	4441	4444	1
4437	4438	4439	1
4439	4440	4441	1
4437	4442	4441	1
4437	4442	4446	1
4441	4442	4446	1
4442	4437	4445	1
4442	4441	4444	1
4450	4449	4457	1
4448	4447	6938	1
10782	10781	10792	1
10780	10781	10792	1
10792	10800	10794	1
10792	10800	10801	1
10782	10783	10790	1
10784	10783	10790	1
10790	5947	5940	1
10790	5947	5949	1
10781	10792	10793	1
10781	10792	10800	1
10781	10782	10783	1
10781	10782	10786	1
10781	10780	10785	1
10781	10780	10788	1
10783	10790	10791	1
10783	10790	5947	1
10783	10782	10786	1
10783	10784	10785	1
10783	10784	10787	1
10780	10781	10782	1
10782	10783	10784	1
10780	10785	10784	1
10780	10785	10789	1
10784	10785	10789	1
10785	10780	10788	1
10785	10784	10787	1
10793	10792	10800	1
10791	10790	5947	1
3708	3707	3718	1
3706	3707	3718	1
3708	3709	3716	1
3710	3709	3716	1
3716	11010	11003	1
3716	11010	11012	1
3707	3718	3719	1
3707	3718	3720	1
3707	3708	3709	1
3707	3708	3712	1
3707	3706	3711	1
3707	3706	3714	1
3709	3716	3717	1
3709	3716	11010	1
3709	3708	3712	1
3709	3710	3711	1
3709	3710	3713	1
3706	3707	3708	1
3708	3709	3710	1
3706	3711	3710	1
3706	3711	3715	1
3710	3711	3715	1
3711	3706	3714	1
3711	3710	3713	1
3719	3718	3720	1
3717	3716	11010	1
10928	10927	10938	1
10926	10927	10938	1
10938	10922	10915	1
10938	10922	10924	1
10928	10929	10936	1
10930	10929	10936	1
10936	10946	10940	1
10936	10946	10947	1
10927	10938	10939	1
10927	10938	10922	1
10927	10928	10929	1
10927	10928	10932	1
10927	10926	10931	1
10927	10926	10934	1
10929	10936	10937	1
10929	10936	10946	1
10929	10928	10932	1
10929	10930	10931	1
10929	10930	10933	1
10926	10927	10928	1
10928	10929	10930	1
10926	10931	10930	1
10926	10931	10935	1
10930	10931	10935	1
10931	10926	10934	1
10931	10930	10933	1
10939	10938	10922	1
10937	10936	10946	1
3543	3544	3551	1
3545	3544	3551	1
3551	9785	9775	1
3551	9785	9787	1
3543	3542	3553	1
3541	3542	3553	1
3544	3551	3552	1
3544	3551	9785	1
3542	3543	3544	1
3544	3543	3547	1
3544	3545	3546	1
3544	3545	3548	1
3542	3553	3554	1
3542	3553	3555	1
3542	3543	3547	1
3542	3541	3546	1
3542	3541	3549	1
3543	3544	3545	1
3541	3542	3543	1
3541	3546	3545	1
3545	3546	3550	1
3541	3546	3550	1
3546	3545	3548	1
3546	3541	3549	1
3552	3551	9785	1
3554	3553	3555	1
13013	13012	13023	1
13011	13012	13023	1
13023	7521	7514	1
13023	7521	7523	1
13013	13014	13021	1
13015	13014	13021	1
13021	9520	9513	1
13021	9520	9522	1
13012	13023	13024	1
13012	13023	7521	1
13012	13013	13014	1
13012	13013	13017	1
13012	13011	13016	1
13012	13011	13019	1
13014	13021	13022	1
13014	13021	9520	1
13014	13013	13017	1
13014	13015	13016	1
13014	13015	13018	1
13011	13012	13013	1
13013	13014	13015	1
13011	13016	13015	1
13011	13016	13020	1
13015	13016	13020	1
13016	13011	13019	1
13016	13015	13018	1
13024	13023	7521	1
13022	13021	9520	1
10023	10022	10033	1
10021	10022	10033	1
10033	10041	10035	1
10033	10041	10042	1
10023	10024	10031	1
10025	10024	10031	1
10031	3998	3988	1
10031	3998	4000	1
10022	10033	10034	1
10022	10033	10041	1
10022	10023	10024	1
10022	10023	10027	1
10022	10021	10026	1
10022	10021	10029	1
10024	10031	10032	1
10024	10031	3998	1
10024	10023	10027	1
10024	10025	10026	1
10024	10025	10028	1
10021	10022	10023	1
10023	10024	10025	1
10021	10026	10025	1
10021	10026	10030	1
10025	10026	10030	1
10026	10021	10029	1
10026	10025	10028	1
10034	10033	10041	1
10032	10031	3998	1
11347	11346	11357	1
11345	11346	11357	1
11357	4142	4135	1
11357	4142	4144	1
11347	11348	11355	1
11349	11348	11355	1
11355	10279	10269	1
11355	10279	10281	1
11346	11357	11358	1
11346	11357	4142	1
11346	11347	11348	1
11346	11347	11351	1
11346	11345	11350	1
11346	11345	11353	1
11348	11355	11356	1
11348	11355	10279	1
11348	11347	11351	1
11348	11349	11350	1
11348	11349	11352	1
11345	11346	11347	1
11347	11348	11349	1
11345	11350	11349	1
11345	11350	11354	1
11349	11350	11354	1
11350	11345	11353	1
11350	11349	11352	1
11358	11357	4142	1
11356	11355	10279	1
3453	3454	3461	1
3455	3454	3461	1
3461	9549	9542	1
3461	9549	9551	1
3453	3452	3463	1
3451	3452	3463	1
3454	3461	3462	1
3454	3461	9549	1
3452	3453	3454	1
3454	3453	3457	1
3454	3455	3456	1
3454	3455	3458	1
3452	3463	3465	1
3452	3463	3464	1
3452	3453	3457	1
3452	3451	3456	1
3452	3451	3459	1
3453	3454	3455	1
3451	3452	3453	1
3451	3456	3455	1
3455	3456	3460	1
3451	3456	3460	1
3456	3455	3458	1
3456	3451	3459	1
3462	3461	9549	1
3465	3463	3464	1
9994	9993	10004	1
9992	9993	10004	1
10004	10012	10006	1
10004	10012	10013	1
9994	9995	10002	1
9996	9995	10002	1
10002	5348	5341	1
10002	5348	5350	1
9993	10004	10005	1
9993	10004	10012	1
9993	9994	9995	1
9993	9994	9998	1
9993	9992	9997	1
9993	9992	10000	1
9995	10002	10003	1
9995	10002	5348	1
9995	9994	9998	1
9995	9996	9997	1
9995	9996	9999	1
9992	9993	9994	1
9994	9995	9996	1
9992	9997	9996	1
9992	9997	10001	1
9996	9997	10001	1
9997	9992	10000	1
9997	9996	9999	1
10005	10004	10012	1
10003	10002	5348	1
4976	4975	4986	1
4974	4975	4986	1
4986	4994	4988	1
4986	4994	4995	1
4976	4977	4984	1
4978	4977	4984	1
4984	6030	6024	1
4984	6030	6031	1
4975	4986	4987	1
4975	4986	4994	1
4975	4976	4977	1
4975	4976	4980	1
4975	4974	4979	1
4975	4974	4982	1
4977	4984	4985	1
4977	4984	6030	1
4977	4976	4980	1
4977	4978	4979	1
4977	4978	4981	1
4974	4975	4976	1
4976	4977	4978	1
4974	4979	4978	1
4974	4979	4983	1
4978	4979	4983	1
4979	4974	4982	1
4979	4978	4981	1
4987	4986	4994	1
4985	4984	6030	1
2628	2627	2638	1
2626	2627	2638	1
2628	2629	2636	1
2630	2629	2636	1
2636	3876	3870	1
2636	3876	3877	1
2627	2638	2639	1
2627	2638	2640	1
2627	2628	2629	1
2627	2628	2632	1
2627	2626	2631	1
2627	2626	2634	1
2629	2636	2637	1
2629	2636	3876	1
2629	2628	2632	1
2629	2630	2631	1
2629	2630	2633	1
2626	2627	2628	1
2628	2629	2630	1
2626	2631	2630	1
2626	2631	2635	1
2630	2631	2635	1
2631	2626	2634	1
2631	2630	2633	1
2639	2638	2640	1
2637	2636	3876	1
3078	3079	3086	1
3080	3079	3086	1
3086	7478	7468	1
3086	7478	7480	1
3078	3077	3088	1
3076	3077	3088	1
3079	3086	3087	1
3079	3086	7478	1
3077	3078	3079	1
3079	3078	3082	1
3079	3080	3081	1
3079	3080	3083	1
3077	3088	3089	1
3077	3088	3090	1
3077	3078	3082	1
3077	3076	3081	1
3077	3076	3084	1
3078	3079	3080	1
3076	3077	3078	1
3076	3081	3080	1
3080	3081	3085	1
3076	3081	3085	1
3081	3080	3083	1
3081	3076	3084	1
3087	3086	7478	1
3089	3088	3090	1
6900	6899	6910	1
6898	6899	6910	1
6910	6720	6710	1
6910	6720	6722	1
6900	6901	6908	1
6902	6901	6908	1
6908	6918	6912	1
6908	6918	6919	1
6899	6910	6911	1
6899	6910	6720	1
6899	6900	6901	1
6899	6900	6904	1
6899	6898	6903	1
6899	6898	6906	1
6901	6908	6909	1
6901	6908	6918	1
6901	6900	6904	1
6901	6902	6903	1
6901	6902	6905	1
6898	6899	6900	1
6900	6901	6902	1
6898	6903	6902	1
6898	6903	6907	1
6902	6903	6907	1
6903	6898	6906	1
6903	6902	6905	1
6911	6910	6720	1
6909	6908	6918	1
11991	11990	12001	1
11989	11990	12001	1
12001	5232	5225	1
12001	5232	5234	1
11991	11992	11999	1
11993	11992	11999	1
11999	8778	8768	1
11999	8778	8780	1
11990	12001	12002	1
11990	12001	5232	1
11990	11991	11992	1
11990	11991	11995	1
11990	11989	11994	1
11990	11989	11997	1
11992	11999	12000	1
11992	11999	8778	1
11992	11991	11995	1
11992	11993	11994	1
11992	11993	11996	1
11989	11990	11991	1
11991	11992	11993	1
11989	11994	11993	1
11989	11994	11998	1
11993	11994	11998	1
11994	11989	11997	1
11994	11993	11996	1
12002	12001	5232	1
12000	11999	8778	1
12047	12046	12057	1
12045	12046	12057	1
12057	8074	8067	1
12057	8074	8076	1
12047	12048	12055	1
12049	12048	12055	1
12055	5451	5441	1
12055	5451	5453	1
12046	12057	12058	1
12046	12057	8074	1
12046	12047	12048	1
12046	12047	12051	1
12046	12045	12050	1
12046	12045	12053	1
12048	12055	12056	1
12048	12055	5451	1
12048	12047	12051	1
12048	12049	12050	1
12048	12049	12052	1
12045	12046	12047	1
12047	12048	12049	1
12045	12050	12049	1
12045	12050	12054	1
12049	12050	12054	1
12050	12045	12053	1
12050	12049	12052	1
12058	12057	8074	1
12056	12055	5451	1
591	590	601	1
589	590	601	1
601	10464	10458	1
601	10464	10465	1
591	592	599	1
593	592	599	1
572	578	599	1
579	578	599	1
590	601	602	1
590	601	10464	1
590	591	592	1
590	591	595	1
590	589	594	1
590	589	597	1
592	599	600	1
578	599	592	1
592	591	595	1
592	593	594	1
592	593	596	1
589	590	591	1
591	592	593	1
589	594	593	1
589	594	598	1
593	594	598	1
594	589	597	1
594	593	596	1
602	601	10464	1
578	599	600	1
13251	13250	13261	1
13249	13250	13261	1
13261	9683	9673	1
13261	9683	9685	1
13251	13252	13259	1
13253	13252	13259	1
13259	8205	8198	1
13259	8205	8207	1
13250	13261	13262	1
13250	13261	9683	1
13250	13251	13252	1
13250	13251	13255	1
13250	13249	13254	1
13250	13249	13257	1
13252	13259	13260	1
13252	13259	8205	1
13252	13251	13255	1
13252	13253	13254	1
13252	13253	13256	1
13249	13250	13251	1
13251	13252	13253	1
13249	13254	13253	1
13249	13254	13258	1
13253	13254	13258	1
13254	13249	13257	1
13254	13253	13256	1
13262	13261	9683	1
13260	13259	8205	1
12117	12116	12127	1
12115	12116	12127	1
12127	10572	10565	1
12127	10572	10574	1
12117	12118	12125	1
12119	12118	12125	1
12125	5552	5545	1
12125	5552	5554	1
12116	12127	12128	1
12116	12127	10572	1
12116	12117	12118	1
12116	12117	12121	1
12116	12115	12120	1
12116	12115	12123	1
12118	12125	12126	1
12118	12125	5552	1
12118	12117	12121	1
12118	12119	12120	1
12118	12119	12122	1
12115	12116	12117	1
12117	12118	12119	1
12115	12120	12119	1
12115	12120	12124	1
12119	12120	12124	1
12120	12115	12123	1
12120	12119	12122	1
12128	12127	10572	1
12126	12125	5552	1
6449	6448	6459	1
6447	6448	6459	1
1789	1796	6459	1
1798	1796	6459	1
6449	6450	6457	1
6451	6450	6457	1
6457	6467	6461	1
6457	6467	6468	1
6448	6459	6460	1
1796	6459	6448	1
6448	6449	6450	1
6448	6449	6453	1
6448	6447	6452	1
6448	6447	6455	1
6450	6457	6458	1
6450	6457	6467	1
6450	6449	6453	1
6450	6451	6452	1
6450	6451	6454	1
6447	6448	6449	1
6449	6450	6451	1
6447	6452	6451	1
6447	6452	6456	1
6451	6452	6456	1
6452	6447	6455	1
6452	6451	6454	1
1796	6459	6460	1
6458	6457	6467	1
3333	3332	3343	1
3331	3332	3343	1
3333	3334	3341	1
3335	3334	3341	1
3341	9035	9029	1
3341	9035	9036	1
3332	3343	3345	1
3332	3343	3344	1
3332	3333	3334	1
3332	3333	3337	1
3332	3331	3336	1
3332	3331	3339	1
3334	3341	3342	1
3334	3341	9035	1
3334	3333	3337	1
3334	3335	3336	1
3334	3335	3338	1
3331	3332	3333	1
3333	3334	3335	1
3331	3336	3335	1
3331	3336	3340	1
3335	3336	3340	1
3336	3331	3339	1
3336	3335	3338	1
3345	3343	3344	1
3342	3341	9035	1
3213	3212	3223	1
3211	3212	3223	1
3213	3214	3221	1
3215	3214	3221	1
3221	8572	8565	1
3221	8572	8574	1
3212	3223	3225	1
3212	3223	3224	1
3212	3213	3214	1
3212	3213	3217	1
3212	3211	3216	1
3212	3211	3219	1
3214	3221	3222	1
3214	3221	8572	1
3214	3213	3217	1
3214	3215	3216	1
3214	3215	3218	1
3211	3212	3213	1
3213	3214	3215	1
3211	3216	3215	1
3211	3216	3220	1
3215	3216	3220	1
3216	3211	3219	1
3216	3215	3218	1
3225	3223	3224	1
3222	3221	8572	1
11739	11738	11749	1
11737	11738	11749	1
11749	8339	8329	1
11749	8339	8341	1
11739	11740	11747	1
11741	11740	11747	1
11747	4781	4774	1
11747	4781	4783	1
11738	11749	11750	1
11738	11749	8339	1
11738	11739	11740	1
11738	11739	11743	1
11738	11737	11742	1
11738	11737	11745	1
11740	11747	11748	1
11740	11747	4781	1
11740	11739	11743	1
11740	11741	11742	1
11740	11741	11744	1
11737	11738	11739	1
11739	11740	11741	1
11737	11742	11741	1
11737	11742	11746	1
11741	11742	11746	1
11742	11737	11745	1
11742	11741	11744	1
11750	11749	8339	1
11748	11747	4781	1
12971	12972	12979	1
12973	12972	12979	1
12979	7404	7397	1
12979	7404	7406	1
12971	12970	12981	1
12969	12970	12981	1
12981	8718	8711	1
12981	8718	8720	1
12972	12979	12980	1
12972	12979	7404	1
12970	12971	12972	1
12972	12971	12975	1
12972	12973	12974	1
12972	12973	12976	1
12970	12981	12982	1
12970	12981	8718	1
12970	12971	12975	1
12970	12969	12974	1
12970	12969	12977	1
12971	12972	12973	1
12969	12970	12971	1
12969	12974	12973	1
12973	12974	12978	1
12969	12974	12978	1
12974	12973	12976	1
12974	12969	12977	1
12980	12979	7404	1
12982	12981	8718	1
12369	12368	12379	1
12367	12368	12379	1
12379	5888	5881	1
12379	5888	5890	1
12369	12370	12377	1
12371	12370	12377	1
12377	8661	8651	1
12377	8661	8663	1
12368	12379	12380	1
12368	12379	5888	1
12368	12369	12370	1
12368	12369	12373	1
12368	12367	12372	1
12368	12367	12375	1
12370	12377	12378	1
12370	12377	8661	1
12370	12369	12373	1
12370	12371	12372	1
12370	12371	12374	1
12367	12368	12369	1
12369	12370	12371	1
12367	12372	12371	1
12367	12372	12376	1
12371	12372	12376	1
12372	12367	12375	1
12372	12371	12374	1
12380	12379	5888	1
12378	12377	8661	1
12397	12396	12407	1
12395	12396	12407	1
12407	5917	5910	1
12407	5917	5919	1
12397	12398	12405	1
12399	12398	12405	1
12405	10323	10313	1
12405	10323	10325	1
12396	12407	12408	1
12396	12407	5917	1
12396	12397	12398	1
12396	12397	12401	1
12396	12395	12400	1
12396	12395	12403	1
12398	12405	12406	1
12398	12405	10323	1
12398	12397	12401	1
12398	12399	12400	1
12398	12399	12402	1
12395	12396	12397	1
12397	12398	12399	1
12395	12400	12399	1
12395	12400	12404	1
12399	12400	12404	1
12400	12395	12403	1
12400	12399	12402	1
12408	12407	5917	1
12406	12405	10323	1
3408	3409	3416	1
3410	3409	3416	1
3416	9186	9179	1
3416	9186	9188	1
3408	3407	3418	1
3406	3407	3418	1
3409	3416	3417	1
3409	3416	9186	1
3407	3408	3409	1
3409	3408	3412	1
3409	3410	3411	1
3409	3410	3413	1
3407	3418	3419	1
3407	3418	3420	1
3407	3408	3412	1
3407	3406	3411	1
3407	3406	3414	1
3408	3409	3410	1
3406	3407	3408	1
3406	3411	3410	1
3410	3411	3415	1
3406	3411	3415	1
3411	3410	3413	1
3411	3406	3414	1
3417	3416	9186	1
3419	3418	3420	1
9250	9249	9260	1
9248	9249	9260	1
9260	9268	9262	1
9260	9268	9269	1
9250	9251	9258	1
9252	9251	9258	1
9258	9910	9904	1
9258	9910	9911	1
9249	9260	9261	1
9249	9260	9268	1
9249	9250	9251	1
9249	9250	9254	1
9249	9248	9253	1
9249	9248	9256	1
9251	9258	9259	1
9251	9258	9910	1
9251	9250	9254	1
9251	9252	9253	1
9251	9252	9255	1
9248	9249	9250	1
9250	9251	9252	1
9248	9253	9252	1
9248	9253	9257	1
9252	9253	9257	1
9253	9248	9256	1
9253	9252	9255	1
9261	9260	9268	1
9259	9258	9910	1
9468	9467	9478	1
9466	9467	9478	1
9478	8397	8390	1
9478	8397	8399	1
9468	9469	9476	1
9470	9469	9476	1
9476	9486	9480	1
9476	9486	9487	1
9467	9478	9479	1
9467	9478	8397	1
9467	9468	9469	1
9467	9468	9472	1
9467	9466	9471	1
9467	9466	9474	1
9469	9476	9477	1
9469	9476	9486	1
9469	9468	9472	1
9469	9470	9471	1
9469	9470	9473	1
9466	9467	9468	1
9468	9469	9470	1
9466	9471	9470	1
9466	9471	9475	1
9470	9471	9475	1
9471	9466	9474	1
9471	9470	9473	1
9479	9478	8397	1
9477	9476	9486	1
12187	12186	12197	1
12185	12186	12197	1
12197	5611	5604	1
12197	5611	5613	1
12187	12188	12195	1
12189	12188	12195	1
12195	8294	8287	1
12195	8294	8296	1
12186	12197	12198	1
12186	12197	5611	1
12186	12187	12188	1
12186	12187	12191	1
12186	12185	12190	1
12186	12185	12193	1
12188	12195	12196	1
12188	12195	8294	1
12188	12187	12191	1
12188	12189	12190	1
12188	12189	12192	1
12185	12186	12187	1
12187	12188	12189	1
12185	12190	12189	1
12185	12190	12194	1
12189	12190	12194	1
12190	12185	12193	1
12190	12189	12192	1
12198	12197	5611	1
12196	12195	8294	1
5020	5019	5030	1
5018	5019	5030	1
5030	10469	10462	1
5030	10469	10471	1
5020	5021	5028	1
5022	5021	5028	1
5028	5038	5032	1
5028	5038	5039	1
5019	5030	5031	1
5019	5030	10469	1
5019	5020	5021	1
5019	5020	5024	1
5019	5018	5023	1
5019	5018	5026	1
5021	5028	5029	1
5021	5028	5038	1
5021	5020	5024	1
5021	5022	5023	1
5021	5022	5025	1
5018	5019	5020	1
5020	5021	5022	1
5018	5023	5022	1
5018	5023	5027	1
5022	5023	5027	1
5023	5018	5026	1
5023	5022	5025	1
5031	5030	10469	1
5029	5028	5038	1
2022	2021	2032	1
2020	2021	2032	1
2003	2009	2032	1
2010	2009	2032	1
2022	2023	2030	1
2024	2023	2030	1
2030	4520	4513	1
2030	4520	4522	1
2021	2032	2033	1
2009	2032	2021	1
2021	2022	2023	1
2021	2022	2026	1
2021	2020	2025	1
2021	2020	2028	1
2023	2030	2031	1
2023	2030	4520	1
2023	2022	2026	1
2023	2024	2025	1
2023	2024	2027	1
2020	2021	2022	1
2022	2023	2024	1
2020	2025	2024	1
2020	2025	2029	1
2024	2025	2029	1
2025	2020	2028	1
2025	2024	2027	1
2009	2032	2033	1
2031	2030	4520	1
7818	7817	7828	1
7816	7817	7828	1
7828	6923	6916	1
7828	6923	6925	1
7818	7819	7826	1
7820	7819	7826	1
7826	7836	7830	1
7826	7836	7837	1
7817	7828	7829	1
7817	7828	6923	1
7817	7818	7819	1
7817	7818	7822	1
7817	7816	7821	1
7817	7816	7824	1
7819	7826	7827	1
7819	7826	7836	1
7819	7818	7822	1
7819	7820	7821	1
7819	7820	7823	1
7816	7817	7818	1
7818	7819	7820	1
7816	7821	7820	1
7816	7821	7825	1
7820	7821	7825	1
7821	7816	7824	1
7821	7820	7823	1
7829	7828	6923	1
7827	7826	7836	1
6609	6608	6619	1
6607	6608	6619	1
6619	9779	9773	1
6619	9779	9780	1
6609	6610	6617	1
6611	6610	6617	1
6617	6627	6621	1
6617	6627	6628	1
6608	6619	6620	1
6608	6619	9779	1
6608	6609	6610	1
6608	6609	6613	1
6608	6607	6612	1
6608	6607	6615	1
6610	6617	6618	1
6610	6617	6627	1
6610	6609	6613	1
6610	6611	6612	1
6610	6611	6614	1
6607	6608	6609	1
6609	6610	6611	1
6607	6612	6611	1
6607	6612	6616	1
6611	6612	6616	1
6612	6607	6615	1
6612	6611	6614	1
6620	6619	9779	1
6618	6617	6627	1
5529	5528	5539	1
5527	5528	5539	1
5539	5547	5541	1
5539	5547	5548	1
5529	5530	5537	1
5531	5530	5537	1
5537	8689	8682	1
5537	8689	8691	1
5528	5539	5540	1
5528	5539	5547	1
5528	5529	5530	1
5528	5529	5533	1
5528	5527	5532	1
5528	5527	5535	1
5530	5537	5538	1
5530	5537	8689	1
5530	5529	5533	1
5530	5531	5532	1
5530	5531	5534	1
5527	5528	5529	1
5529	5530	5531	1
5527	5532	5531	1
5527	5532	5536	1
5531	5532	5536	1
5532	5527	5535	1
5532	5531	5534	1
5540	5539	5547	1
5538	5537	8689	1
8724	8723	8734	1
8722	8723	8734	1
8734	3997	3990	1
8734	3997	3999	1
8724	8725	8732	1
8726	8725	8732	1
8732	8742	8736	1
8732	8742	8743	1
8723	8734	8735	1
8723	8734	3997	1
8723	8724	8725	1
8723	8724	8728	1
8723	8722	8727	1
8723	8722	8730	1
8725	8732	8733	1
8725	8732	8742	1
8725	8724	8728	1
8725	8726	8727	1
8725	8726	8729	1
8722	8723	8724	1
8724	8725	8726	1
8722	8727	8726	1
8722	8727	8731	1
8726	8727	8731	1
8727	8722	8730	1
8727	8726	8729	1
8735	8734	3997	1
8733	8732	8742	1
12019	12018	12029	1
12017	12018	12029	1
12029	7303	7293	1
12029	7303	7305	1
12019	12020	12027	1
12021	12020	12027	1
12027	5363	5356	1
12027	5363	5365	1
12018	12029	12030	1
12018	12029	7303	1
12018	12019	12020	1
12018	12019	12023	1
12018	12017	12022	1
12018	12017	12025	1
12020	12027	12028	1
12020	12027	5363	1
12020	12019	12023	1
12020	12021	12022	1
12020	12021	12024	1
12017	12018	12019	1
12019	12020	12021	1
12017	12022	12021	1
12017	12022	12026	1
12021	12022	12026	1
12022	12017	12025	1
12022	12021	12024	1
12030	12029	7303	1
12028	12027	5363	1
13727	13726	13737	1
13725	13726	13737	1
2241	2248	13737	1
2250	2248	13737	1
13727	13728	13735	1
13729	13728	13735	1
13735	10631	10621	1
13735	10631	10633	1
13726	13737	13738	1
2248	13737	13726	1
13726	13727	13728	1
13726	13727	13731	1
13726	13725	13730	1
13726	13725	13733	1
13728	13735	13736	1
13728	13735	10631	1
13728	13727	13731	1
13728	13729	13730	1
13728	13729	13732	1
13725	13726	13727	1
13727	13728	13729	1
13725	13730	13729	1
13725	13730	13734	1
13729	13730	13734	1
13730	13725	13733	1
13730	13729	13732	1
2248	13737	13738	1
13736	13735	10631	1
11655	11654	11665	1
11653	11654	11665	1
11665	4666	4656	1
11665	4666	4668	1
11655	11656	11663	1
11657	11656	11663	1
328	335	11663	1
337	335	11663	1
11654	11665	11666	1
11654	11665	4666	1
11654	11655	11656	1
11654	11655	11659	1
11654	11653	11658	1
11654	11653	11661	1
11656	11663	11664	1
335	11663	11656	1
11656	11655	11659	1
11656	11657	11658	1
11656	11657	11660	1
11653	11654	11655	1
11655	11656	11657	1
11653	11658	11657	1
11653	11658	11662	1
11657	11658	11662	1
11658	11653	11661	1
11658	11657	11660	1
11666	11665	4666	1
335	11663	11664	1
11459	11458	11469	1
11457	11458	11469	1
11469	4811	4801	1
11469	4811	4813	1
11459	11460	11467	1
11461	11460	11467	1
11467	4287	4280	1
11467	4287	4289	1
11458	11469	11470	1
11458	11469	4811	1
11458	11459	11460	1
11458	11459	11463	1
11458	11457	11462	1
11458	11457	11465	1
11460	11467	11468	1
11460	11467	4287	1
11460	11459	11463	1
11460	11461	11462	1
11460	11461	11464	1
11457	11458	11459	1
11459	11460	11461	1
11457	11462	11461	1
11457	11462	11466	1
11461	11462	11466	1
11462	11457	11465	1
11462	11461	11464	1
11470	11469	4811	1
11468	11467	4287	1
13615	13614	13625	1
13613	13614	13625	1
13625	10558	10548	1
13625	10558	10560	1
13615	13616	13623	1
13617	13616	13623	1
13623	9872	9862	1
13623	9872	9874	1
13614	13625	13626	1
13614	13625	10558	1
13614	13615	13616	1
13614	13615	13619	1
13614	13613	13618	1
13614	13613	13621	1
13616	13623	13624	1
13616	13623	9872	1
13616	13615	13619	1
13616	13617	13618	1
13616	13617	13620	1
13613	13614	13615	1
13615	13616	13617	1
13613	13618	13617	1
13613	13618	13622	1
13617	13618	13622	1
13618	13613	13621	1
13618	13617	13620	1
13626	13625	10558	1
13624	13623	9872	1
10636	10635	10646	1
10634	10635	10646	1
10646	9550	9540	1
10646	9550	9552	1
10636	10637	10644	1
10638	10637	10644	1
10644	10654	10648	1
10644	10654	10655	1
10635	10646	10647	1
10635	10646	9550	1
10635	10636	10637	1
10635	10636	10640	1
10635	10634	10639	1
10635	10634	10642	1
10637	10644	10645	1
10637	10644	10654	1
10637	10636	10640	1
10637	10638	10639	1
10637	10638	10641	1
10634	10635	10636	1
10636	10637	10638	1
10634	10639	10638	1
10634	10639	10643	1
10638	10639	10643	1
10639	10634	10642	1
10639	10638	10641	1
10647	10646	9550	1
10645	10644	10654	1
4366	4365	4376	1
4364	4365	4376	1
4376	11129	11119	1
4376	11129	11131	1
4366	4367	4374	1
4368	4367	4374	1
4374	4384	4378	1
4374	4384	4385	1
4365	4376	4377	1
4365	4376	11129	1
4365	4366	4367	1
4365	4366	4370	1
4365	4364	4369	1
4365	4364	4372	1
4367	4374	4375	1
4367	4374	4384	1
4367	4366	4370	1
4367	4368	4369	1
4367	4368	4371	1
4364	4365	4366	1
4366	4367	4368	1
4364	4369	4368	1
4364	4369	4373	1
4368	4369	4373	1
4369	4364	4372	1
4369	4368	4371	1
4377	4376	11129	1
4375	4374	4384	1
2504	2503	2514	1
2502	2503	2514	1
2485	2491	2514	1
2492	2491	2514	1
2504	2505	2512	1
2506	2505	2512	1
2512	4608	4598	1
2512	4608	4610	1
2503	2514	2515	1
2491	2514	2503	1
2503	2504	2505	1
2503	2504	2508	1
2503	2502	2507	1
2503	2502	2510	1
2505	2512	2513	1
2505	2512	4608	1
2505	2504	2508	1
2505	2506	2507	1
2505	2506	2509	1
2502	2503	2504	1
2504	2505	2506	1
2502	2507	2506	1
2502	2507	2511	1
2506	2507	2511	1
2507	2502	2510	1
2507	2506	2509	1
2491	2514	2515	1
2513	2512	4608	1
12705	12704	12715	1
12703	12704	12715	1
12715	6530	6523	1
12715	6530	6532	1
12705	12706	12713	1
12707	12706	12713	1
12713	7507	7497	1
12713	7507	7509	1
12704	12715	12716	1
12704	12715	6530	1
12704	12705	12706	1
12704	12705	12709	1
12704	12703	12708	1
12704	12703	12711	1
12706	12713	12714	1
12706	12713	7507	1
12706	12705	12709	1
12706	12707	12708	1
12706	12707	12710	1
12703	12704	12705	1
12705	12706	12707	1
12703	12708	12707	1
12703	12708	12712	1
12707	12708	12712	1
12708	12703	12711	1
12708	12707	12710	1
12716	12715	6530	1
12714	12713	7507	1
870	869	880	1
868	869	880	1
851	857	880	1
858	857	880	1
870	871	878	1
872	871	878	1
878	6292	6286	1
878	6292	6293	1
869	880	881	1
857	880	869	1
869	870	871	1
869	870	874	1
869	868	873	1
869	868	876	1
871	878	879	1
871	878	6292	1
871	870	874	1
871	872	873	1
871	872	875	1
868	869	870	1
870	871	872	1
868	873	872	1
868	873	877	1
872	873	877	1
873	868	876	1
873	872	875	1
857	880	881	1
879	878	6292	1
5369	5368	5379	1
5367	5368	5379	1
5379	10076	10066	1
5379	10076	10078	1
5369	5370	5377	1
5371	5370	5377	1
5377	5387	5381	1
5377	5387	5388	1
5368	5379	5380	1
5368	5379	10076	1
5368	5369	5370	1
5368	5369	5373	1
5368	5367	5372	1
5368	5367	5375	1
5370	5377	5378	1
5370	5377	5387	1
5370	5369	5373	1
5370	5371	5372	1
5370	5371	5374	1
5367	5368	5369	1
5369	5370	5371	1
5367	5372	5371	1
5367	5372	5376	1
5371	5372	5376	1
5372	5367	5375	1
5372	5371	5374	1
5380	5379	10076	1
5378	5377	5387	1
5865	5866	5873	1
5867	5866	5873	1
5873	5883	5877	1
5873	5883	5884	1
5865	5864	5875	1
5863	5864	5875	1
5875	5942	5936	1
5875	5942	5943	1
5866	5873	5874	1
5866	5873	5883	1
5866	5865	5864	1
5866	5865	5869	1
5866	5867	5868	1
5866	5867	5870	1
5864	5875	5876	1
5864	5875	5942	1
5864	5865	5869	1
5864	5863	5868	1
5864	5863	5871	1
5867	5866	5865	1
5865	5864	5863	1
5867	5868	5863	1
5867	5868	5872	1
5863	5868	5872	1
5868	5867	5870	1
5868	5863	5871	1
5874	5873	5883	1
5876	5875	5942	1
11333	11332	11343	1
11331	11332	11343	1
11343	6734	6727	1
11343	6734	6736	1
11333	11334	11341	1
11335	11334	11341	1
11341	4114	4104	1
11341	4114	4116	1
11332	11343	11344	1
11332	11343	6734	1
11332	11333	11334	1
11332	11333	11337	1
11332	11331	11336	1
11332	11331	11339	1
11334	11341	11342	1
11334	11341	4114	1
11334	11333	11337	1
11334	11335	11336	1
11334	11335	11338	1
11331	11332	11333	1
11333	11334	11335	1
11331	11336	11335	1
11331	11336	11340	1
11335	11336	11340	1
11336	11331	11339	1
11336	11335	11338	1
11344	11343	6734	1
11342	11341	4114	1
3438	3437	3448	1
3436	3437	3448	1
3438	3439	3446	1
3440	3439	3446	1
3446	9462	9455	1
3446	9462	9464	1
3437	3448	3449	1
3437	3448	3450	1
3437	3438	3439	1
3437	3438	3442	1
3437	3436	3441	1
3437	3436	3444	1
3439	3446	3447	1
3439	3446	9462	1
3439	3438	3442	1
3439	3440	3441	1
3439	3440	3443	1
3436	3437	3438	1
3438	3439	3440	1
3436	3441	3440	1
3436	3441	3445	1
3440	3441	3445	1
3441	3436	3444	1
3441	3440	3443	1
3449	3448	3450	1
3447	3446	9462	1
2146	2145	2156	1
2144	2145	2156	1
2127	2133	2156	1
2134	2133	2156	1
2146	2147	2154	1
2148	2147	2154	1
2154	9273	9266	1
2154	9273	9275	1
2145	2156	2157	1
2133	2156	2145	1
2145	2146	2147	1
2145	2146	2150	1
2145	2144	2149	1
2145	2144	2152	1
2147	2154	2155	1
2147	2154	9273	1
2147	2146	2150	1
2147	2148	2149	1
2147	2148	2151	1
2144	2145	2146	1
2146	2147	2148	1
2144	2149	2148	1
2144	2149	2153	1
2148	2149	2153	1
2149	2144	2152	1
2149	2148	2151	1
2133	2156	2157	1
2155	2154	9273	1
3753	3752	3763	1
3751	3752	3763	1
3753	3754	3761	1
3755	3754	3761	1
3761	11173	11163	1
3761	11173	11175	1
3752	3763	3765	1
3752	3763	3764	1
3752	3753	3754	1
3752	3753	3757	1
3752	3751	3756	1
3752	3751	3759	1
3754	3761	3762	1
3754	3761	11173	1
3754	3753	3757	1
3754	3755	3756	1
3754	3755	3758	1
3751	3752	3753	1
3753	3754	3755	1
3751	3756	3755	1
3751	3756	3760	1
3755	3756	3760	1
3756	3751	3759	1
3756	3755	3758	1
3764	3763	3765	1
3762	3761	11173	1
9002	9001	9012	1
9000	9001	9012	1
9012	9020	9014	1
9012	9020	9021	1
9002	9003	9010	1
9004	9003	9010	1
9010	6554	6548	1
9010	6554	6555	1
9001	9012	9013	1
9001	9012	9020	1
9001	9002	9003	1
9001	9002	9006	1
9001	9000	9005	1
9001	9000	9008	1
9003	9010	9011	1
9003	9010	6554	1
9003	9002	9006	1
9003	9004	9005	1
9003	9004	9007	1
9000	9001	9002	1
9002	9003	9004	1
9000	9005	9004	1
9000	9005	9009	1
9004	9005	9009	1
9005	9000	9008	1
9005	9004	9007	1
9013	9012	9020	1
9011	9010	6554	1
1742	1741	1752	1
1740	1741	1752	1
1752	8040	8034	1
1752	8040	8041	1
1742	1743	1750	1
1744	1743	1750	1
1723	1729	1750	1
1730	1729	1750	1
1741	1752	1753	1
1741	1752	8040	1
1741	1742	1743	1
1741	1742	1746	1
1741	1740	1745	1
1741	1740	1748	1
1743	1750	1751	1
1729	1750	1743	1
1743	1742	1746	1
1743	1744	1745	1
1743	1744	1747	1
1740	1741	1742	1
1742	1743	1744	1
1740	1745	1744	1
1740	1745	1749	1
1744	1745	1749	1
1745	1740	1748	1
1745	1744	1747	1
1753	1752	8040	1
1729	1750	1751	1
8549	8550	8557	1
8551	8550	8557	1
8557	8567	8561	1
8557	8567	8568	1
8549	8548	8559	1
8547	8548	8559	1
8559	5422	5412	1
8559	5422	5424	1
8550	8557	8558	1
8550	8557	8567	1
8548	8549	8550	1
8550	8549	8553	1
8550	8551	8552	1
8550	8551	8554	1
8548	8559	8560	1
8548	8559	5422	1
8548	8549	8553	1
8548	8547	8552	1
8548	8547	8555	1
8549	8550	8551	1
8547	8548	8549	1
8547	8552	8551	1
8551	8552	8556	1
8547	8552	8556	1
8552	8551	8554	1
8552	8547	8555	1
8558	8557	8567	1
8560	8559	5422	1
12131	12130	12141	1
12129	12130	12141	1
12141	11069	11062	1
12141	11069	11071	1
12131	12132	12139	1
12133	12132	12139	1
12139	5581	5574	1
12139	5581	5583	1
12130	12141	12142	1
12130	12141	11069	1
12130	12131	12132	1
12130	12131	12135	1
12130	12129	12134	1
12130	12129	12137	1
12132	12139	12140	1
12132	12139	5581	1
12132	12131	12135	1
12132	12133	12134	1
12132	12133	12136	1
12129	12130	12131	1
12131	12132	12133	1
12129	12134	12133	1
12129	12134	12138	1
12133	12134	12138	1
12134	12129	12137	1
12134	12133	12136	1
12142	12141	11069	1
12140	12139	5581	1
11599	11598	11609	1
11597	11598	11609	1
11609	11157	11150	1
11609	11157	11159	1
11599	11600	11607	1
11601	11600	11607	1
11607	4578	4571	1
11607	4578	4580	1
11598	11609	11610	1
11598	11609	11157	1
11598	11599	11600	1
11598	11599	11603	1
11598	11597	11602	1
11598	11597	11605	1
11600	11607	11608	1
11600	11607	4578	1
11600	11599	11603	1
11600	11601	11602	1
11600	11601	11604	1
11597	11598	11599	1
11599	11600	11601	1
11597	11602	11601	1
11597	11602	11606	1
11601	11602	11606	1
11602	11597	11605	1
11602	11601	11604	1
11610	11609	11157	1
11608	11607	4578	1
13125	13124	13135	1
13123	13124	13135	1
13135	7870	7863	1
13135	7870	7872	1
13125	13126	13133	1
13127	13126	13133	1
13133	8879	8872	1
13133	8879	8881	1
13124	13135	13136	1
13124	13135	7870	1
13124	13125	13126	1
13124	13125	13129	1
13124	13123	13128	1
13124	13123	13131	1
13126	13133	13134	1
13126	13133	8879	1
13126	13125	13129	1
13126	13127	13128	1
13126	13127	13130	1
13123	13124	13125	1
13125	13126	13127	1
13123	13128	13127	1
13123	13128	13132	1
13127	13128	13132	1
13128	13123	13131	1
13128	13127	13130	1
13136	13135	7870	1
13134	13133	8879	1
2703	2702	2713	1
2701	2702	2713	1
2703	2704	2711	1
2705	2704	2711	1
2711	4399	4393	1
2711	4399	4400	1
2702	2713	2714	1
2702	2713	2715	1
2702	2703	2704	1
2702	2703	2707	1
2702	2701	2706	1
2702	2701	2709	1
2704	2711	2712	1
2704	2711	4399	1
2704	2703	2707	1
2704	2705	2706	1
2704	2705	2708	1
2701	2702	2703	1
2703	2704	2705	1
2701	2706	2705	1
2701	2706	2710	1
2705	2706	2710	1
2706	2701	2709	1
2706	2705	2708	1
2714	2713	2715	1
2712	2711	4399	1
6099	6098	6109	1
6097	6098	6109	1
6109	7594	7587	1
6109	7594	7596	1
6099	6100	6107	1
6101	6100	6107	1
6107	6122	6115	1
6107	6122	6124	1
6098	6109	6110	1
6098	6109	7594	1
6098	6099	6100	1
6098	6099	6103	1
6098	6097	6102	1
6098	6097	6105	1
6100	6107	6108	1
6100	6107	6122	1
6100	6099	6103	1
6100	6101	6102	1
6100	6101	6104	1
6097	6098	6099	1
6099	6100	6101	1
6097	6102	6101	1
6097	6102	6106	1
6101	6102	6106	1
6102	6097	6105	1
6102	6101	6104	1
6110	6109	7594	1
6108	6107	6122	1
13657	13656	13667	1
13655	13656	13667	1
13667	9988	9981	1
13667	9988	9990	1
13657	13658	13665	1
13659	13658	13665	1
13665	10352	10342	1
13665	10352	10354	1
13656	13667	13668	1
13656	13667	9988	1
13656	13657	13658	1
13656	13657	13661	1
13656	13655	13660	1
13656	13655	13663	1
13658	13665	13666	1
13658	13665	10352	1
13658	13657	13661	1
13658	13659	13660	1
13658	13659	13662	1
13655	13656	13657	1
13657	13658	13659	1
13655	13660	13659	1
13655	13660	13664	1
13659	13660	13664	1
13660	13655	13663	1
13660	13659	13662	1
13668	13667	9988	1
13666	13665	10352	1
3198	3197	3208	1
3196	3197	3208	1
3198	3199	3206	1
3200	3199	3206	1
3206	8441	8434	1
3206	8441	8443	1
3197	3208	3209	1
3197	3208	3210	1
3197	3198	3199	1
3197	3198	3202	1
3197	3196	3201	1
3197	3196	3204	1
3199	3206	3207	1
3199	3206	8441	1
3199	3198	3202	1
3199	3200	3201	1
3199	3200	3203	1
3196	3197	3198	1
3198	3199	3200	1
3196	3201	3200	1
3196	3201	3205	1
3200	3201	3205	1
3201	3196	3204	1
3201	3200	3203	1
3209	3208	3210	1
3207	3206	8441	1
3153	3154	3161	1
3155	3154	3161	1
3161	8118	8111	1
3161	8118	8120	1
3153	3152	3163	1
3151	3152	3163	1
3154	3161	3162	1
3154	3161	8118	1
3152	3153	3154	1
3154	3153	3157	1
3154	3155	3156	1
3154	3155	3158	1
3152	3163	3165	1
3152	3163	3164	1
3152	3153	3157	1
3152	3151	3156	1
3152	3151	3159	1
3153	3154	3155	1
3151	3152	3153	1
3151	3156	3155	1
3155	3156	3160	1
3151	3156	3160	1
3156	3155	3158	1
3156	3151	3159	1
3162	3161	8118	1
3165	3163	3164	1
13699	13698	13709	1
13697	13698	13709	1
13709	11055	11045	1
13709	11055	11057	1
13699	13700	13707	1
13701	13700	13707	1
13707	10514	10504	1
13707	10514	10516	1
13698	13709	13710	1
13698	13709	11055	1
13698	13699	13700	1
13698	13699	13703	1
13698	13697	13702	1
13698	13697	13705	1
13700	13707	13708	1
13700	13707	10514	1
13700	13699	13703	1
13700	13701	13702	1
13700	13701	13704	1
13697	13698	13699	1
13699	13700	13701	1
13697	13702	13701	1
13697	13702	13706	1
13701	13702	13706	1
13702	13697	13705	1
13702	13701	13704	1
13710	13709	11055	1
13708	13707	10514	1
3228	3229	3236	1
3230	3229	3236	1
3236	8588	8578	1
3236	8588	8590	1
3228	3227	3238	1
3226	3227	3238	1
3229	3236	3237	1
3229	3236	8588	1
3227	3228	3229	1
3229	3228	3232	1
3229	3230	3231	1
3229	3230	3233	1
3227	3238	3240	1
3227	3238	3239	1
3227	3228	3232	1
3227	3226	3231	1
3227	3226	3234	1
3228	3229	3230	1
3226	3227	3228	1
3226	3231	3230	1
3230	3231	3235	1
3226	3231	3235	1
3231	3230	3233	1
3231	3226	3234	1
3237	3236	8588	1
3240	3238	3239	1
11031	11030	11041	1
11029	11030	11041	1
11041	11049	11043	1
11041	11049	11050	1
11031	11032	11039	1
11033	11032	11039	1
1103	1110	11039	1
1112	1110	11039	1
11030	11041	11042	1
11030	11041	11049	1
11030	11031	11032	1
11030	11031	11035	1
11030	11029	11034	1
11030	11029	11037	1
11032	11039	11040	1
1110	11039	11032	1
11032	11031	11035	1
11032	11033	11034	1
11032	11033	11036	1
11029	11030	11031	1
11031	11032	11033	1
11029	11034	11033	1
11029	11034	11038	1
11033	11034	11038	1
11034	11029	11037	1
11034	11033	11036	1
11042	11041	11049	1
1110	11039	11040	1
12607	12606	12617	1
12605	12606	12617	1
12617	7229	7222	1
12617	7229	7231	1
12607	12608	12615	1
12609	12608	12615	1
12615	6326	6319	1
12615	6326	6328	1
12606	12617	12618	1
12606	12617	7229	1
12606	12607	12608	1
12606	12607	12611	1
12606	12605	12610	1
12606	12605	12613	1
12608	12615	12616	1
12608	12615	6326	1
12608	12607	12611	1
12608	12609	12610	1
12608	12609	12612	1
12605	12606	12607	1
12607	12608	12609	1
12605	12610	12609	1
12605	12610	12614	1
12609	12610	12614	1
12610	12605	12613	1
12610	12609	12612	1
12618	12617	7229	1
12616	12615	6326	1
12089	12088	12099	1
12087	12088	12099	1
12099	5524	5514	1
12099	5524	5526	1
12089	12090	12097	1
12091	12090	12097	1
12097	9915	9908	1
12097	9915	9917	1
12088	12099	12100	1
12088	12099	5524	1
12088	12089	12090	1
12088	12089	12093	1
12088	12087	12092	1
12088	12087	12095	1
12090	12097	12098	1
12090	12097	9915	1
12090	12089	12093	1
12090	12091	12092	1
12090	12091	12094	1
12087	12088	12089	1
12089	12090	12091	1
12087	12092	12091	1
12087	12092	12096	1
12091	12092	12096	1
12092	12087	12095	1
12092	12091	12094	1
12100	12099	5524	1
12098	12097	9915	1
3273	3272	3283	1
3271	3272	3283	1
3273	3274	3281	1
3275	3274	3281	1
3281	8909	8899	1
3281	8909	8911	1
3272	3283	3284	1
3272	3283	3285	1
3272	3273	3274	1
3272	3273	3277	1
3272	3271	3276	1
3272	3271	3279	1
3274	3281	3282	1
3274	3281	8909	1
3274	3273	3277	1
3274	3275	3276	1
3274	3275	3278	1
3271	3272	3273	1
3273	3274	3275	1
3271	3276	3275	1
3271	3276	3280	1
3275	3276	3280	1
3276	3271	3279	1
3276	3275	3278	1
3284	3283	3285	1
3282	3281	8909	1
12873	12872	12883	1
12871	12872	12883	1
12883	9390	9380	1
12883	9390	9392	1
12873	12874	12881	1
12875	12874	12881	1
12881	7085	7075	1
12881	7085	7087	1
12872	12883	12884	1
12872	12883	9390	1
12872	12873	12874	1
12872	12873	12877	1
12872	12871	12876	1
12872	12871	12879	1
12874	12881	12882	1
12874	12881	7085	1
12874	12873	12877	1
12874	12875	12876	1
12874	12875	12878	1
12871	12872	12873	1
12873	12874	12875	1
12871	12876	12875	1
12871	12876	12880	1
12875	12876	12880	1
12876	12871	12879	1
12876	12875	12878	1
12884	12883	9390	1
12882	12881	7085	1
8182	8181	8192	1
8180	8181	8192	1
8192	8200	8194	1
8192	8200	8201	1
8182	8183	8190	1
8184	8183	8190	1
8190	9559	9553	1
8190	9559	9560	1
8181	8192	8193	1
8181	8192	8200	1
8181	8182	8183	1
8181	8182	8186	1
8181	8180	8185	1
8181	8180	8188	1
8183	8190	8191	1
8183	8190	9559	1
8183	8182	8186	1
8183	8184	8185	1
8183	8184	8187	1
8180	8181	8182	1
8182	8183	8184	1
8180	8185	8184	1
8180	8185	8189	1
8184	8185	8189	1
8185	8180	8188	1
8185	8184	8187	1
8193	8192	8200	1
8191	8190	9559	1
11585	11586	11593	1
11587	11586	11593	1
11593	5948	5938	1
11593	5948	5950	1
11585	11584	11595	1
11583	11584	11595	1
11595	4579	4569	1
11595	4579	4581	1
11586	11593	11594	1
11586	11593	5948	1
11586	11585	11584	1
11586	11585	11589	1
11586	11587	11588	1
11586	11587	11590	1
11584	11595	11596	1
11584	11595	4579	1
11584	11585	11589	1
11584	11583	11588	1
11584	11583	11591	1
11587	11586	11585	1
11585	11584	11583	1
11587	11588	11583	1
11587	11588	11592	1
11583	11588	11592	1
11588	11587	11590	1
11588	11583	11591	1
11594	11593	5948	1
11596	11595	4579	1
12285	12284	12295	1
12283	12284	12295	1
12295	5787	5777	1
12295	5787	5789	1
12285	12286	12293	1
12287	12286	12293	1
12293	6181	6171	1
12293	6181	6183	1
12284	12295	12296	1
12284	12295	5787	1
12284	12285	12286	1
12284	12285	12289	1
12284	12283	12288	1
12284	12283	12291	1
12286	12293	12294	1
12286	12293	6181	1
12286	12285	12289	1
12286	12287	12288	1
12286	12287	12290	1
12283	12284	12285	1
12285	12286	12287	1
12283	12288	12287	1
12283	12288	12292	1
12287	12288	12292	1
12288	12283	12291	1
12288	12287	12290	1
12296	12295	5787	1
12294	12293	6181	1
13559	13558	13569	1
13557	13558	13569	1
13569	9084	9077	1
13569	9084	9086	1
13559	13560	13567	1
13561	13560	13567	1
13567	10660	10650	1
13567	10660	10662	1
13558	13569	13570	1
13558	13569	9084	1
13558	13559	13560	1
13558	13559	13563	1
13558	13557	13562	1
13558	13557	13565	1
13560	13567	13568	1
13560	13567	10660	1
13560	13559	13563	1
13560	13561	13562	1
13560	13561	13564	1
13557	13558	13559	1
13559	13560	13561	1
13557	13562	13561	1
13557	13562	13566	1
13561	13562	13566	1
13562	13557	13565	1
13562	13561	13564	1
13570	13569	9084	1
13568	13567	10660	1
3033	3034	3041	1
3035	3034	3041	1
3041	7050	7044	1
3041	7050	7051	1
3033	3032	3043	1
3031	3032	3043	1
3034	3041	3042	1
3034	3041	7050	1
3032	3033	3034	1
3034	3033	3037	1
3034	3035	3036	1
3034	3035	3038	1
3032	3043	3044	1
3032	3043	3045	1
3032	3033	3037	1
3032	3031	3036	1
3032	3031	3039	1
3033	3034	3035	1
3031	3032	3033	1
3031	3036	3035	1
3035	3036	3040	1
3031	3036	3040	1
3036	3035	3038	1
3036	3031	3039	1
3042	3041	7050	1
3044	3043	3045	1
8695	8694	8705	1
8693	8694	8705	1
8705	5757	5750	1
8705	5757	5759	1
8695	8696	8703	1
8697	8696	8703	1
8703	8713	8707	1
8703	8713	8714	1
8694	8705	8706	1
8694	8705	5757	1
8694	8695	8696	1
8694	8695	8699	1
8694	8693	8698	1
8694	8693	8701	1
8696	8703	8704	1
8696	8703	8713	1
8696	8695	8699	1
8696	8697	8698	1
8696	8697	8700	1
8693	8694	8695	1
8695	8696	8697	1
8693	8698	8697	1
8693	8698	8702	1
8697	8698	8702	1
8698	8693	8701	1
8698	8697	8700	1
8706	8705	5757	1
8704	8703	8713	1
5719	5718	5729	1
5717	5718	5729	1
5729	5737	5731	1
5729	5737	5738	1
5719	5720	5727	1
5721	5720	5727	1
5727	4724	4714	1
5727	4724	4726	1
5718	5729	5730	1
5718	5729	5737	1
5718	5719	5720	1
5718	5719	5723	1
5718	5717	5722	1
5718	5717	5725	1
5720	5727	5728	1
5720	5727	4724	1
5720	5719	5723	1
5720	5721	5722	1
5720	5721	5724	1
5717	5718	5719	1
5719	5720	5721	1
5717	5722	5721	1
5717	5722	5726	1
5721	5722	5726	1
5722	5717	5725	1
5722	5721	5724	1
5730	5729	5737	1
5728	5727	4724	1
1928	1927	1938	1
1926	1927	1938	1
1938	10761	10754	1
1938	10761	10763	1
1928	1929	1936	1
1930	1929	1936	1
1909	1915	1936	1
1916	1915	1936	1
1927	1938	1939	1
1927	1938	10761	1
1927	1928	1929	1
1927	1928	1932	1
1927	1926	1931	1
1927	1926	1934	1
1929	1936	1937	1
1915	1936	1929	1
1929	1928	1932	1
1929	1930	1931	1
1929	1930	1933	1
1926	1927	1928	1
1928	1929	1930	1
1926	1931	1930	1
1926	1931	1935	1
1930	1931	1935	1
1931	1926	1934	1
1931	1930	1933	1
1939	1938	10761	1
1915	1936	1937	1
6041	6040	6051	1
6039	6040	6051	1
6051	7239	7233	1
6051	7239	7240	1
6041	6042	6049	1
6043	6042	6049	1
6049	6059	6053	1
6049	6059	6060	1
6040	6051	6052	1
6040	6051	7239	1
6040	6041	6042	1
6040	6041	6045	1
6040	6039	6044	1
6040	6039	6047	1
6042	6049	6050	1
6042	6049	6059	1
6042	6041	6045	1
6042	6043	6044	1
6042	6043	6046	1
6039	6040	6041	1
6041	6042	6043	1
6039	6044	6043	1
6039	6044	6048	1
6043	6044	6048	1
6044	6039	6047	1
6044	6043	6046	1
6052	6051	7239	1
6050	6049	6059	1
13797	13796	13807	1
13795	13796	13807	1
638	645	13807	1
647	645	13807	1
13797	13798	13805	1
13799	13798	13805	1
1603	1610	13805	1
1612	1610	13805	1
13796	13807	13808	1
645	13807	13796	1
13796	13797	13798	1
13796	13797	13801	1
13796	13795	13800	1
13796	13795	13803	1
13798	13805	13806	1
1610	13805	13798	1
13798	13797	13801	1
13798	13799	13800	1
13798	13799	13802	1
13795	13796	13797	1
13797	13798	13799	1
13795	13800	13799	1
13795	13800	13804	1
13799	13800	13804	1
13800	13795	13803	1
13800	13799	13802	1
645	13807	13808	1
1610	13805	13806	1
2943	2944	2951	1
2945	2944	2951	1
2951	6559	6552	1
2951	6559	6561	1
2943	2942	2953	1
2941	2942	2953	1
2944	2951	2952	1
2944	2951	6559	1
2942	2943	2944	1
2944	2943	2947	1
2944	2945	2946	1
2944	2945	2948	1
2942	2953	2955	1
2942	2953	2954	1
2942	2943	2947	1
2942	2941	2946	1
2942	2941	2949	1
2943	2944	2945	1
2941	2942	2943	1
2941	2946	2945	1
2945	2946	2950	1
2941	2946	2950	1
2946	2945	2948	1
2946	2941	2949	1
2952	2951	6559	1
2955	2953	2954	1
9308	9307	9318	1
9306	9307	9318	1
9318	9326	9320	1
9318	9326	9327	1
9308	9309	9316	1
9310	9309	9316	1
9316	4689	4683	1
9316	4689	4690	1
9307	9318	9319	1
9307	9318	9326	1
9307	9308	9309	1
9307	9308	9312	1
9307	9306	9311	1
9307	9306	9314	1
9309	9316	9317	1
9309	9316	4689	1
9309	9308	9312	1
9309	9310	9311	1
9309	9310	9313	1
9306	9307	9308	1
9308	9309	9310	1
9306	9311	9310	1
9306	9311	9315	1
9310	9311	9315	1
9311	9306	9314	1
9311	9310	9313	1
9319	9318	9326	1
9317	9316	4689	1
5500	5501	5508	1
5502	5501	5508	1
5508	4971	4961	1
5508	4971	4973	1
5500	5499	5510	1
5498	5499	5510	1
5510	5518	5512	1
5510	5518	5519	1
5501	5508	5509	1
5501	5508	4971	1
5499	5500	5501	1
5501	5500	5504	1
5501	5502	5503	1
5501	5502	5505	1
5499	5510	5511	1
5499	5510	5518	1
5499	5500	5504	1
5499	5498	5503	1
5499	5498	5506	1
5500	5501	5502	1
5498	5499	5500	1
5498	5503	5502	1
5502	5503	5507	1
5498	5503	5507	1
5503	5502	5505	1
5503	5498	5506	1
5509	5508	4971	1
5511	5510	5518	1
13097	13096	13107	1
13095	13096	13107	1
13107	7725	7718	1
13107	7725	7727	1
13097	13098	13105	1
13099	13098	13105	1
13105	10820	10813	1
13105	10820	10822	1
13096	13107	13108	1
13096	13107	7725	1
13096	13097	13098	1
13096	13097	13101	1
13096	13095	13100	1
13096	13095	13103	1
13098	13105	13106	1
13098	13105	10820	1
13098	13097	13101	1
13098	13099	13100	1
13098	13099	13102	1
13095	13096	13097	1
13097	13098	13099	1
13095	13100	13099	1
13095	13100	13104	1
13099	13100	13104	1
13100	13095	13103	1
13100	13099	13102	1
13108	13107	7725	1
13106	13105	10820	1
12425	12424	12435	1
12423	12424	12435	1
12435	9389	9382	1
12435	9389	9391	1
12425	12426	12433	1
12427	12426	12433	1
12433	5992	5982	1
12433	5992	5994	1
12424	12435	12436	1
12424	12435	9389	1
12424	12425	12426	1
12424	12425	12429	1
12424	12423	12428	1
12424	12423	12431	1
12426	12433	12434	1
12426	12433	5992	1
12426	12425	12429	1
12426	12427	12428	1
12426	12427	12430	1
12423	12424	12425	1
12425	12426	12427	1
12423	12428	12427	1
12423	12428	12432	1
12427	12428	12432	1
12428	12423	12431	1
12428	12427	12430	1
12436	12435	9389	1
12434	12433	5992	1
10826	10825	10836	1
10824	10825	10836	1
10836	6991	6985	1
10836	6991	6992	1
10826	10827	10834	1
10828	10827	10834	1
10834	10844	10838	1
10834	10844	10845	1
10825	10836	10837	1
10825	10836	6991	1
10825	10826	10827	1
10825	10826	10830	1
10825	10824	10829	1
10825	10824	10832	1
10827	10834	10835	1
10827	10834	10844	1
10827	10826	10830	1
10827	10828	10829	1
10827	10828	10831	1
10824	10825	10826	1
10826	10827	10828	1
10824	10829	10828	1
10824	10829	10833	1
10828	10829	10833	1
10829	10824	10832	1
10829	10828	10831	1
10837	10836	6991	1
10835	10834	10844	1
2823	2822	2833	1
2821	2822	2833	1
2823	2824	2831	1
2825	2824	2831	1
2831	5421	5414	1
2831	5421	5423	1
2822	2833	2835	1
2822	2833	2834	1
2822	2823	2824	1
2822	2823	2827	1
2822	2821	2826	1
2822	2821	2829	1
2824	2831	2832	1
2824	2831	5421	1
2824	2823	2827	1
2824	2825	2826	1
2824	2825	2828	1
2821	2822	2823	1
2823	2824	2825	1
2821	2826	2825	1
2821	2826	2830	1
2825	2826	2830	1
2826	2821	2829	1
2826	2825	2828	1
2834	2833	2835	1
2832	2831	5421	1
13489	13488	13499	1
13487	13488	13499	1
13499	9842	9835	1
13499	9842	9844	1
13489	13490	13497	1
13491	13490	13497	1
13497	8851	8841	1
13497	8851	8853	1
13488	13499	13500	1
13488	13499	9842	1
13488	13489	13490	1
13488	13489	13493	1
13488	13487	13492	1
13488	13487	13495	1
13490	13497	13498	1
13490	13497	8851	1
13490	13489	13493	1
13490	13491	13492	1
13490	13491	13494	1
13487	13488	13489	1
13489	13490	13491	1
13487	13492	13491	1
13487	13492	13496	1
13491	13492	13496	1
13492	13487	13495	1
13492	13491	13494	1
13500	13499	9842	1
13498	13497	8851	1
9746	9747	9754	1
9748	9747	9754	1
9754	9814	9804	1
9754	9814	9816	1
9746	9745	9756	1
9744	9745	9756	1
9756	9764	9758	1
9756	9764	9765	1
9747	9754	9755	1
9747	9754	9814	1
9745	9746	9747	1
9747	9746	9750	1
9747	9748	9749	1
9747	9748	9751	1
9745	9756	9757	1
9745	9756	9764	1
9745	9746	9750	1
9745	9744	9749	1
9745	9744	9752	1
9746	9747	9748	1
9744	9745	9746	1
9744	9749	9748	1
9748	9749	9753	1
9744	9749	9753	1
9749	9748	9751	1
9749	9744	9752	1
9755	9754	9814	1
9757	9756	9764	1
11249	11248	11259	1
11247	11248	11259	1
11259	3911	3901	1
11259	3911	3913	1
11249	11250	11257	1
11251	11250	11257	1
11257	6604	6594	1
11257	6604	6606	1
11248	11259	11260	1
11248	11259	3911	1
11248	11249	11250	1
11248	11249	11253	1
11248	11247	11252	1
11248	11247	11255	1
11250	11257	11258	1
11250	11257	6604	1
11250	11249	11253	1
11250	11251	11252	1
11250	11251	11254	1
11247	11248	11249	1
11249	11250	11251	1
11247	11252	11251	1
11247	11252	11256	1
11251	11252	11256	1
11252	11247	11255	1
11252	11251	11254	1
11260	11259	3911	1
11258	11257	6604	1
11515	11516	11523	1
11517	11516	11523	1
11523	9900	9893	1
11523	9900	9902	1
11515	11514	11525	1
11513	11514	11525	1
11525	4390	4380	1
11525	4390	4392	1
11516	11523	11524	1
11516	11523	9900	1
11516	11515	11514	1
11516	11515	11519	1
11516	11517	11518	1
11516	11517	11520	1
11514	11525	11526	1
11514	11525	4390	1
11514	11515	11519	1
11514	11513	11518	1
11514	11513	11521	1
11517	11516	11515	1
11515	11514	11513	1
11517	11518	11513	1
11517	11518	11522	1
11513	11518	11522	1
11518	11517	11520	1
11518	11513	11521	1
11524	11523	9900	1
11526	11525	4390	1
2673	2672	2683	1
2671	2672	2683	1
2673	2674	2681	1
2675	2674	2681	1
2681	4288	4278	1
2681	4288	4290	1
2672	2683	2685	1
2672	2683	2684	1
2672	2673	2674	1
2672	2673	2677	1
2672	2671	2676	1
2672	2671	2679	1
2674	2681	2682	1
2674	2681	4288	1
2674	2673	2677	1
2674	2675	2676	1
2674	2675	2678	1
2671	2672	2673	1
2673	2674	2675	1
2671	2676	2675	1
2671	2676	2680	1
2675	2676	2680	1
2676	2671	2679	1
2676	2675	2678	1
2684	2683	2685	1
2682	2681	4288	1
3138	3137	3148	1
3136	3137	3148	1
3138	3139	3146	1
3140	3139	3146	1
3146	8103	8096	1
3146	8103	8105	1
3137	3148	3149	1
3137	3148	3150	1
3137	3138	3139	1
3137	3138	3142	1
3137	3136	3141	1
3137	3136	3144	1
3139	3146	3147	1
3139	3146	8103	1
3139	3138	3142	1
3139	3140	3141	1
3139	3140	3143	1
3136	3137	3138	1
3138	3139	3140	1
3136	3141	3140	1
3136	3141	3145	1
3140	3141	3145	1
3141	3136	3144	1
3141	3140	3143	1
3149	3148	3150	1
3147	3146	8103	1
13335	13334	13345	1
13333	13334	13345	1
13345	8295	8285	1
13345	8295	8297	1
13335	13336	13343	1
13337	13336	13343	1
13343	9157	9150	1
13343	9157	9159	1
13334	13345	13346	1
13334	13345	8295	1
13334	13335	13336	1
13334	13335	13339	1
13334	13333	13338	1
13334	13333	13341	1
13336	13343	13344	1
13336	13343	9157	1
13336	13335	13339	1
13336	13337	13338	1
13336	13337	13340	1
13333	13334	13335	1
13335	13336	13337	1
13333	13338	13337	1
13333	13338	13342	1
13337	13338	13342	1
13338	13333	13341	1
13338	13337	13340	1
13346	13345	8295	1
13344	13343	9157	1
5792	5791	5802	1
5790	5791	5802	1
5802	7273	7266	1
5802	7273	7275	1
5792	5793	5800	1
5794	5793	5800	1
5800	5810	5804	1
5800	5810	5811	1
5791	5802	5803	1
5791	5802	7273	1
5791	5792	5793	1
5791	5792	5796	1
5791	5790	5795	1
5791	5790	5798	1
5793	5800	5801	1
5793	5800	5810	1
5793	5792	5796	1
5793	5794	5795	1
5793	5794	5797	1
5790	5791	5792	1
5792	5793	5794	1
5790	5795	5794	1
5790	5795	5799	1
5794	5795	5799	1
5795	5790	5798	1
5795	5794	5797	1
5803	5802	7273	1
5801	5800	5810	1
9790	9789	9800	1
9788	9789	9800	1
9800	9808	9802	1
9800	9808	9809	1
9790	9791	9798	1
9792	9791	9798	1
9798	8470	8463	1
9798	8470	8472	1
9789	9800	9801	1
9789	9800	9808	1
9789	9790	9791	1
9789	9790	9794	1
9789	9788	9793	1
9789	9788	9796	1
9791	9798	9799	1
9791	9798	8470	1
9791	9790	9794	1
9791	9792	9793	1
9791	9792	9795	1
9788	9789	9790	1
9790	9791	9792	1
9788	9793	9792	1
9788	9793	9797	1
9792	9793	9797	1
9793	9788	9796	1
9793	9792	9795	1
9801	9800	9808	1
9799	9798	8470	1
10299	10298	10309	1
10297	10298	10309	1
10309	10317	10311	1
10309	10317	10318	1
10299	10300	10307	1
10301	10300	10307	1
10307	8045	8038	1
10307	8045	8047	1
10298	10309	10310	1
10298	10309	10317	1
10298	10299	10300	1
10298	10299	10303	1
10298	10297	10302	1
10298	10297	10305	1
10300	10307	10308	1
10300	10307	8045	1
10300	10299	10303	1
10300	10301	10302	1
10300	10301	10304	1
10297	10298	10299	1
10299	10300	10301	1
10297	10302	10301	1
10297	10302	10306	1
10301	10302	10306	1
10302	10297	10305	1
10302	10301	10304	1
10310	10309	10317	1
10308	10307	8045	1
12957	12956	12967	1
12955	12956	12967	1
12967	7405	7395	1
12967	7405	7407	1
12957	12958	12965	1
12959	12958	12965	1
12965	10017	10010	1
12965	10017	10019	1
12956	12967	12968	1
12956	12967	7405	1
12956	12957	12958	1
12956	12957	12961	1
12956	12955	12960	1
12956	12955	12963	1
12958	12965	12966	1
12958	12965	10017	1
12958	12957	12961	1
12958	12959	12960	1
12958	12959	12962	1
12955	12956	12957	1
12957	12958	12959	1
12955	12960	12959	1
12955	12960	12964	1
12959	12960	12964	1
12960	12955	12963	1
12960	12959	12962	1
12968	12967	7405	1
12966	12965	10017	1
3048	3049	3056	1
3050	3049	3056	1
3056	7331	7324	1
3056	7331	7333	1
3048	3047	3058	1
3046	3047	3058	1
3049	3056	3057	1
3049	3056	7331	1
3047	3048	3049	1
3049	3048	3052	1
3049	3050	3051	1
3049	3050	3053	1
3047	3058	3060	1
3047	3058	3059	1
3047	3048	3052	1
3047	3046	3051	1
3047	3046	3054	1
3048	3049	3050	1
3046	3047	3048	1
3046	3051	3050	1
3050	3051	3055	1
3046	3051	3055	1
3051	3050	3053	1
3051	3046	3054	1
3057	3056	7331	1
3060	3058	3059	1
10226	10227	10234	1
10228	10227	10234	1
10234	8908	8901	1
10234	8908	8910	1
10226	10225	10236	1
10224	10225	10236	1
10236	10244	10238	1
10236	10244	10245	1
10227	10234	10235	1
10227	10234	8908	1
10225	10226	10227	1
10227	10226	10230	1
10227	10228	10229	1
10227	10228	10231	1
10225	10236	10237	1
10225	10236	10244	1
10225	10226	10230	1
10225	10224	10229	1
10225	10224	10232	1
10226	10227	10228	1
10224	10225	10226	1
10224	10229	10228	1
10228	10229	10233	1
10224	10229	10233	1
10229	10228	10231	1
10229	10224	10232	1
10235	10234	8908	1
10237	10236	10244	1
2883	2882	2893	1
2881	2882	2893	1
2883	2884	2891	1
2885	2884	2891	1
2891	5752	5746	1
2891	5752	5753	1
2882	2893	2894	1
2882	2893	2895	1
2882	2883	2884	1
2882	2883	2887	1
2882	2881	2886	1
2882	2881	2889	1
2884	2891	2892	1
2884	2891	5752	1
2884	2883	2887	1
2884	2885	2886	1
2884	2885	2888	1
2881	2882	2883	1
2883	2884	2885	1
2881	2886	2885	1
2881	2886	2890	1
2885	2886	2890	1
2886	2881	2889	1
2886	2885	2888	1
2894	2893	2895	1
2892	2891	5752	1
4845	4844	4855	1
4843	4844	4855	1
4855	4878	4872	1
4855	4878	4879	1
4845	4846	4853	1
4847	4846	4853	1
4853	4863	4857	1
4853	4863	4864	1
4844	4855	4856	1
4844	4855	4878	1
4844	4845	4846	1
4844	4845	4849	1
4844	4843	4848	1
4844	4843	4851	1
4846	4853	4854	1
4846	4853	4863	1
4846	4845	4849	1
4846	4847	4848	1
4846	4847	4850	1
4843	4844	4845	1
4845	4846	4847	1
4843	4848	4847	1
4843	4848	4852	1
4847	4848	4852	1
4848	4843	4851	1
4848	4847	4850	1
4856	4855	4878	1
4854	4853	4863	1
6303	6302	6313	1
6301	6302	6313	1
6313	6501	6494	1
6313	6501	6503	1
6303	6304	6311	1
6305	6304	6311	1
6311	6321	6315	1
6311	6321	6322	1
6302	6313	6314	1
6302	6313	6501	1
6302	6303	6304	1
6302	6303	6307	1
6302	6301	6306	1
6302	6301	6309	1
6304	6311	6312	1
6304	6311	6321	1
6304	6303	6307	1
6304	6305	6306	1
6304	6305	6308	1
6301	6302	6303	1
6303	6304	6305	1
6301	6306	6305	1
6301	6306	6310	1
6305	6306	6310	1
6306	6301	6309	1
6306	6305	6308	1
6314	6313	6501	1
6312	6311	6321	1
12621	12620	12631	1
12619	12620	12631	1
1816	1822	12631	1
1823	1822	12631	1
12621	12622	12629	1
12623	12622	12629	1
12629	6341	6334	1
12629	6341	6343	1
12620	12631	12632	1
1822	12631	12620	1
12620	12621	12622	1
12620	12621	12625	1
12620	12619	12624	1
12620	12619	12627	1
12622	12629	12630	1
12622	12629	6341	1
12622	12621	12625	1
12622	12623	12624	1
12622	12623	12626	1
12619	12620	12621	1
12621	12622	12623	1
12619	12624	12623	1
12619	12624	12628	1
12623	12624	12628	1
12624	12619	12627	1
12624	12623	12626	1
1822	12631	12632	1
12630	12629	6341	1
5763	5762	5773	1
5761	5762	5773	1
5773	9871	9864	1
5773	9871	9873	1
5763	5764	5771	1
5765	5764	5771	1
5771	5781	5775	1
5771	5781	5782	1
5762	5773	5774	1
5762	5773	9871	1
5762	5763	5764	1
5762	5763	5767	1
5762	5761	5766	1
5762	5761	5769	1
5764	5771	5772	1
5764	5771	5781	1
5764	5763	5767	1
5764	5765	5766	1
5764	5765	5768	1
5761	5762	5763	1
5763	5764	5765	1
5761	5766	5765	1
5761	5766	5770	1
5765	5766	5770	1
5766	5761	5769	1
5766	5765	5768	1
5774	5773	9871	1
5772	5771	5781	1
8476	8475	8486	1
8474	8475	8486	1
8486	5479	5472	1
8486	5479	5481	1
8476	8477	8484	1
8478	8477	8484	1
8484	8494	8488	1
8484	8494	8495	1
8475	8486	8487	1
8475	8486	5479	1
8475	8476	8477	1
8475	8476	8480	1
8475	8474	8479	1
8475	8474	8482	1
8477	8484	8485	1
8477	8484	8494	1
8477	8476	8480	1
8477	8478	8479	1
8477	8478	8481	1
8474	8475	8476	1
8476	8477	8478	1
8474	8479	8478	1
8474	8479	8483	1
8478	8479	8483	1
8479	8474	8482	1
8479	8478	8481	1
8487	8486	5479	1
8485	8484	8494	1
1959	1958	1969	1
1957	1958	1969	1
1959	1960	1967	1
1961	1960	1967	1
1940	1946	1967	1
1947	1946	1967	1
1958	1969	1970	1
1958	1969	1971	1
1958	1959	1960	1
1958	1959	1963	1
1958	1957	1962	1
1958	1957	1965	1
1960	1967	1968	1
1946	1967	1960	1
1960	1959	1963	1
1960	1961	1962	1
1960	1961	1964	1
1957	1958	1959	1
1959	1960	1961	1
1957	1962	1961	1
1957	1962	1966	1
1961	1962	1966	1
1962	1957	1965	1
1962	1961	1964	1
1970	1969	1971	1
1946	1967	1968	1
7177	7176	7187	1
7175	7176	7187	1
7187	6443	6436	1
7187	6443	6445	1
7177	7178	7185	1
7179	7178	7185	1
7185	7200	7193	1
7185	7200	7202	1
7176	7187	7188	1
7176	7187	6443	1
7176	7177	7178	1
7176	7177	7181	1
7176	7175	7180	1
7176	7175	7183	1
7178	7185	7186	1
7178	7185	7200	1
7178	7177	7181	1
7178	7179	7180	1
7178	7179	7182	1
7175	7176	7177	1
7177	7178	7179	1
7175	7180	7179	1
7175	7180	7184	1
7179	7180	7184	1
7180	7175	7183	1
7180	7179	7182	1
7188	7187	6443	1
7186	7185	7200	1
5427	5426	5437	1
5425	5426	5437	1
5437	5445	5439	1
5437	5445	5446	1
5427	5428	5435	1
5429	5428	5435	1
5435	10688	10681	1
5435	10688	10690	1
5426	5437	5438	1
5426	5437	5445	1
5426	5427	5428	1
5426	5427	5431	1
5426	5425	5430	1
5426	5425	5433	1
5428	5435	5436	1
5428	5435	10688	1
5428	5427	5431	1
5428	5429	5430	1
5428	5429	5432	1
5425	5426	5427	1
5427	5428	5429	1
5425	5430	5429	1
5425	5430	5434	1
5429	5430	5434	1
5430	5425	5433	1
5430	5429	5432	1
5438	5437	5445	1
5436	5435	10688	1
12691	12690	12701	1
12689	12690	12701	1
12701	7171	7164	1
12701	7171	7173	1
12691	12692	12699	1
12693	12692	12699	1
12699	6531	6521	1
12699	6531	6533	1
12690	12701	12702	1
12690	12701	7171	1
12690	12691	12692	1
12690	12691	12695	1
12690	12689	12694	1
12690	12689	12697	1
12692	12699	12700	1
12692	12699	6531	1
12692	12691	12695	1
12692	12693	12694	1
12692	12693	12696	1
12689	12690	12691	1
12691	12692	12693	1
12689	12694	12693	1
12689	12694	12698	1
12693	12694	12698	1
12694	12689	12697	1
12694	12693	12696	1
12702	12701	7171	1
12700	12699	6531	1
7425	7424	7435	1
7423	7424	7435	1
7435	9419	9409	1
7435	9419	9421	1
7425	7426	7433	1
7427	7426	7433	1
7433	7443	7437	1
7433	7443	7444	1
7424	7435	7436	1
7424	7435	9419	1
7424	7425	7426	1
7424	7425	7429	1
7424	7423	7428	1
7424	7423	7431	1
7426	7433	7434	1
7426	7433	7443	1
7426	7425	7429	1
7426	7427	7428	1
7426	7427	7430	1
7423	7424	7425	1
7425	7426	7427	1
7423	7428	7427	1
7423	7428	7432	1
7427	7428	7432	1
7428	7423	7431	1
7428	7427	7430	1
7436	7435	9419	1
7434	7433	7443	1
10197	10196	10207	1
10195	10196	10207	1
1324	1331	10207	1
1333	1331	10207	1
10197	10198	10205	1
10199	10198	10205	1
10205	10215	10209	1
10205	10215	10216	1
10196	10207	10208	1
1331	10207	10196	1
10196	10197	10198	1
10196	10197	10201	1
10196	10195	10200	1
10196	10195	10203	1
10198	10205	10206	1
10198	10205	10215	1
10198	10197	10201	1
10198	10199	10200	1
10198	10199	10202	1
10195	10196	10197	1
10197	10198	10199	1
10195	10200	10199	1
10195	10200	10204	1
10199	10200	10204	1
10200	10195	10203	1
10200	10199	10202	1
1331	10207	10208	1
10206	10205	10215	1
11977	11976	11987	1
11975	11976	11987	1
11987	5233	5223	1
11987	5233	5235	1
11977	11978	11985	1
11979	11978	11985	1
2303	2310	11985	1
2312	2310	11985	1
11976	11987	11988	1
11976	11987	5233	1
11976	11977	11978	1
11976	11977	11981	1
11976	11975	11980	1
11976	11975	11983	1
11978	11985	11986	1
2310	11985	11978	1
11978	11977	11981	1
11978	11979	11980	1
11978	11979	11982	1
11975	11976	11977	1
11977	11978	11979	1
11975	11980	11979	1
11975	11980	11984	1
11979	11980	11984	1
11980	11975	11983	1
11980	11979	11982	1
11988	11987	5233	1
2310	11985	11986	1
8666	8665	8676	1
8664	8665	8676	1
8676	8684	8678	1
8676	8684	8685	1
8666	8667	8674	1
8668	8667	8674	1
8674	9361	9351	1
8674	9361	9363	1
8665	8676	8677	1
8665	8676	8684	1
8665	8666	8667	1
8665	8666	8670	1
8665	8664	8669	1
8665	8664	8672	1
8667	8674	8675	1
8667	8674	9361	1
8667	8666	8670	1
8667	8668	8669	1
8667	8668	8671	1
8664	8665	8666	1
8666	8667	8668	1
8664	8669	8668	1
8664	8669	8673	1
8668	8669	8673	1
8669	8664	8672	1
8669	8668	8671	1
8677	8676	8684	1
8675	8674	9361	1
6186	6185	6196	1
6184	6185	6196	1
6196	7414	7408	1
6196	7414	7415	1
6186	6187	6194	1
6188	6187	6194	1
6194	6204	6198	1
6194	6204	6205	1
6185	6196	6197	1
6185	6196	7414	1
6185	6186	6187	1
6185	6186	6190	1
6185	6184	6189	1
6185	6184	6192	1
6187	6194	6195	1
6187	6194	6204	1
6187	6186	6190	1
6187	6188	6189	1
6187	6188	6191	1
6184	6185	6186	1
6186	6187	6188	1
6184	6189	6188	1
6184	6189	6193	1
6188	6189	6193	1
6189	6184	6192	1
6189	6188	6191	1
6197	6196	7414	1
6195	6194	6204	1
11907	11908	11915	1
11909	11908	11915	1
11915	5117	5107	1
11915	5117	5119	1
11907	11906	11917	1
11905	11906	11917	1
11917	10573	10563	1
11917	10573	10575	1
11908	11915	11916	1
11908	11915	5117	1
11908	11907	11906	1
11908	11907	11911	1
11908	11909	11910	1
11908	11909	11912	1
11906	11917	11918	1
11906	11917	10573	1
11906	11907	11911	1
11906	11905	11910	1
11906	11905	11913	1
11909	11908	11907	1
11907	11906	11905	1
11909	11910	11905	1
11909	11910	11914	1
11905	11910	11914	1
11910	11909	11912	1
11910	11905	11913	1
11916	11915	5117	1
11918	11917	10573	1
7017	7016	7027	1
7015	7016	7027	1
7027	7035	7029	1
7027	7035	7036	1
7017	7018	7025	1
7019	7018	7025	1
7025	5072	5065	1
7025	5072	5074	1
7016	7027	7028	1
7016	7027	7035	1
7016	7017	7018	1
7016	7017	7021	1
7016	7015	7020	1
7016	7015	7023	1
7018	7025	7026	1
7018	7025	5072	1
7018	7017	7021	1
7018	7019	7020	1
7018	7019	7022	1
7015	7016	7017	1
7017	7018	7019	1
7015	7020	7019	1
7015	7020	7024	1
7019	7020	7024	1
7020	7015	7023	1
7020	7019	7022	1
7028	7027	7035	1
7026	7025	5072	1
4264	4263	4274	1
4262	4263	4274	1
4274	4282	4276	1
4274	4282	4283	1
4264	4265	4272	1
4266	4265	4272	1
4272	7361	7351	1
4272	7361	7363	1
4263	4274	4275	1
4263	4274	4282	1
4263	4264	4265	1
4263	4264	4268	1
4263	4262	4267	1
4263	4262	4270	1
4265	4272	4273	1
4265	4272	7361	1
4265	4264	4268	1
4265	4266	4267	1
4265	4266	4269	1
4262	4263	4264	1
4264	4265	4266	1
4262	4267	4266	1
4262	4267	4271	1
4266	4267	4271	1
4267	4262	4270	1
4267	4266	4269	1
4275	4274	4282	1
4273	4272	7361	1
8885	8884	8895	1
8883	8884	8895	1
8895	8903	8897	1
8895	8903	8904	1
8885	8886	8893	1
8887	8886	8893	1
8893	9647	9641	1
8893	9647	9648	1
8884	8895	8896	1
8884	8895	8903	1
8884	8885	8886	1
8884	8885	8889	1
8884	8883	8888	1
8884	8883	8891	1
8886	8893	8894	1
8886	8893	9647	1
8886	8885	8889	1
8886	8887	8888	1
8886	8887	8890	1
8883	8884	8885	1
8885	8886	8887	1
8883	8888	8887	1
8883	8888	8892	1
8887	8888	8892	1
8888	8883	8891	1
8888	8887	8890	1
8896	8895	8903	1
8894	8893	9647	1
6536	6535	6546	1
6534	6535	6546	1
6546	6560	6550	1
6546	6560	6562	1
6536	6537	6544	1
6538	6537	6544	1
6544	9769	9762	1
6544	9769	9771	1
6535	6546	6547	1
6535	6546	6560	1
6535	6536	6537	1
6535	6536	6540	1
6535	6534	6539	1
6535	6534	6542	1
6537	6544	6545	1
6537	6544	9769	1
6537	6536	6540	1
6537	6538	6539	1
6537	6538	6541	1
6534	6535	6536	1
6536	6537	6538	1
6534	6539	6538	1
6534	6539	6543	1
6538	6539	6543	1
6539	6534	6542	1
6539	6538	6541	1
6547	6546	6560	1
6545	6544	9769	1
10139	10138	10149	1
10137	10138	10149	1
10149	5523	5516	1
10149	5523	5525	1
10139	10140	10147	1
10141	10140	10147	1
10147	10162	10155	1
10147	10162	10164	1
10138	10149	10150	1
10138	10149	5523	1
10138	10139	10140	1
10138	10139	10143	1
10138	10137	10142	1
10138	10137	10145	1
10140	10147	10148	1
10140	10147	10162	1
10140	10139	10143	1
10140	10141	10142	1
10140	10141	10144	1
10137	10138	10139	1
10139	10140	10141	1
10137	10142	10141	1
10137	10142	10146	1
10141	10142	10146	1
10142	10137	10145	1
10142	10141	10144	1
10150	10149	5523	1
10148	10147	10162	1
12999	13000	13007	1
13001	13000	13007	1
1417	1424	13007	1
1426	1424	13007	1
12999	12998	13009	1
12997	12998	13009	1
13009	7448	7441	1
13009	7448	7450	1
13000	13007	13008	1
1424	13007	13000	1
12998	12999	13000	1
13000	12999	13003	1
13000	13001	13002	1
13000	13001	13004	1
12998	13009	13010	1
12998	13009	7448	1
12998	12999	13003	1
12998	12997	13002	1
12998	12997	13005	1
12999	13000	13001	1
12997	12998	12999	1
12997	13002	13001	1
13001	13002	13006	1
12997	13002	13006	1
13002	13001	13004	1
13002	12997	13005	1
1424	13007	13008	1
13010	13009	7448	1
8929	8928	8939	1
8927	8928	8939	1
8939	10288	10282	1
8939	10288	10289	1
8929	8930	8937	1
8931	8930	8937	1
8937	8947	8941	1
8937	8947	8948	1
8928	8939	8940	1
8928	8939	10288	1
8928	8929	8930	1
8928	8929	8933	1
8928	8927	8932	1
8928	8927	8935	1
8930	8937	8938	1
8930	8937	8947	1
8930	8929	8933	1
8930	8931	8932	1
8930	8931	8934	1
8927	8928	8929	1
8929	8930	8931	1
8927	8932	8931	1
8927	8932	8936	1
8931	8932	8936	1
8932	8927	8935	1
8932	8931	8934	1
8940	8939	10288	1
8938	8937	8947	1
9163	9164	9171	1
9165	9164	9171	1
9171	10220	10213	1
9171	10220	10222	1
9163	9162	9173	1
9161	9162	9173	1
9173	9181	9175	1
9173	9181	9182	1
9164	9171	9172	1
9164	9171	10220	1
9162	9163	9164	1
9164	9163	9167	1
9164	9165	9166	1
9164	9165	9168	1
9162	9173	9174	1
9162	9173	9181	1
9162	9163	9167	1
9162	9161	9166	1
9162	9161	9169	1
9163	9164	9165	1
9161	9162	9163	1
9161	9166	9165	1
9165	9166	9170	1
9161	9166	9170	1
9166	9165	9168	1
9166	9161	9169	1
9172	9171	10220	1
9174	9173	9181	1
13461	13460	13471	1
13459	13460	13471	1
13471	8822	8812	1
13471	8822	8824	1
13461	13462	13469	1
13463	13462	13469	1
1010	1017	13469	1
1019	1017	13469	1
13460	13471	13472	1
13460	13471	8822	1
13460	13461	13462	1
13460	13461	13465	1
13460	13459	13464	1
13460	13459	13467	1
13462	13469	13470	1
1017	13469	13462	1
13462	13461	13465	1
13462	13463	13464	1
13462	13463	13466	1
13459	13460	13461	1
13461	13462	13463	1
13459	13464	13463	1
13459	13464	13468	1
13463	13464	13468	1
13464	13459	13467	1
13464	13463	13466	1
13472	13471	8822	1
1017	13469	13470	1
3528	3529	3536	1
3530	3529	3536	1
3536	9784	9777	1
3536	9784	9786	1
3528	3527	3538	1
3526	3527	3538	1
3529	3536	3537	1
3529	3536	9784	1
3527	3528	3529	1
3529	3528	3532	1
3529	3530	3531	1
3529	3530	3533	1
3527	3538	3540	1
3527	3538	3539	1
3527	3528	3532	1
3527	3526	3531	1
3527	3526	3534	1
3528	3529	3530	1
3526	3527	3528	1
3526	3531	3530	1
3530	3531	3535	1
3526	3531	3535	1
3531	3530	3533	1
3531	3526	3534	1
3537	3536	9784	1
3539	3538	3540	1
12593	12592	12603	1
12591	12592	12603	1
12603	9099	9092	1
12603	9099	9101	1
12593	12594	12601	1
12595	12594	12601	1
12601	6327	6317	1
12601	6327	6329	1
12592	12603	12604	1
12592	12603	9099	1
12592	12593	12594	1
12592	12593	12597	1
12592	12591	12596	1
12592	12591	12599	1
12594	12601	12602	1
12594	12601	6327	1
12594	12593	12597	1
12594	12595	12596	1
12594	12595	12598	1
12591	12592	12593	1
12593	12594	12595	1
12591	12596	12595	1
12591	12596	12600	1
12595	12596	12600	1
12596	12591	12599	1
12596	12595	12598	1
12604	12603	9099	1
12602	12601	6327	1
13321	13320	13331	1
13319	13320	13331	1
13331	10322	10315	1
13331	10322	10324	1
13321	13322	13329	1
13323	13322	13329	1
13329	8279	8272	1
13329	8279	8281	1
13320	13331	13332	1
13320	13331	10322	1
13320	13321	13322	1
13320	13321	13325	1
13320	13319	13324	1
13320	13319	13327	1
13322	13329	13330	1
13322	13329	8279	1
13322	13321	13325	1
13322	13323	13324	1
13322	13323	13326	1
13319	13320	13321	1
13321	13322	13323	1
13319	13324	13323	1
13319	13324	13328	1
13323	13324	13328	1
13324	13319	13327	1
13324	13323	13326	1
13332	13331	10322	1
13330	13329	8279	1
7876	7875	7886	1
7874	7875	7886	1
7886	7894	7888	1
7886	7894	7895	1
7876	7877	7884	1
7878	7877	7884	1
7884	6385	6378	1
7884	6385	6387	1
7875	7886	7887	1
7875	7886	7894	1
7875	7876	7877	1
7875	7876	7880	1
7875	7874	7879	1
7875	7874	7882	1
7877	7884	7885	1
7877	7884	6385	1
7877	7876	7880	1
7877	7878	7879	1
7877	7878	7881	1
7874	7875	7876	1
7876	7877	7878	1
7874	7879	7878	1
7874	7879	7883	1
7878	7879	7883	1
7879	7874	7882	1
7879	7878	7881	1
7887	7886	7894	1
7885	7884	6385	1
12215	12214	12225	1
12213	12214	12225	1
12225	5918	5908	1
12225	5918	5920	1
12215	12216	12223	1
12217	12216	12223	1
12223	5656	5646	1
12223	5656	5658	1
12214	12225	12226	1
12214	12225	5918	1
12214	12215	12216	1
12214	12215	12219	1
12214	12213	12218	1
12214	12213	12221	1
12216	12223	12224	1
12216	12223	5656	1
12216	12215	12219	1
12216	12217	12218	1
12216	12217	12220	1
12213	12214	12215	1
12215	12216	12217	1
12213	12218	12217	1
12213	12218	12222	1
12217	12218	12222	1
12218	12213	12221	1
12218	12217	12220	1
12226	12225	5918	1
12224	12223	5656	1
11473	11472	11483	1
11471	11472	11483	1
11483	7012	7002	1
11483	7012	7014	1
11473	11474	11481	1
11475	11474	11481	1
11481	4302	4295	1
11481	4302	4304	1
11472	11483	11484	1
11472	11483	7012	1
11472	11473	11474	1
11472	11473	11477	1
11472	11471	11476	1
11472	11471	11479	1
11474	11481	11482	1
11474	11481	4302	1
11474	11473	11477	1
11474	11475	11476	1
11474	11475	11478	1
11471	11472	11473	1
11473	11474	11475	1
11471	11476	11475	1
11471	11476	11480	1
11475	11476	11480	1
11476	11471	11479	1
11476	11475	11478	1
11484	11483	7012	1
11482	11481	4302	1
13377	13376	13387	1
13375	13376	13387	1
13387	8398	8388	1
13387	8398	8400	1
13377	13378	13385	1
13379	13378	13385	1
483	490	13385	1
492	490	13385	1
13376	13387	13388	1
13376	13387	8398	1
13376	13377	13378	1
13376	13377	13381	1
13376	13375	13380	1
13376	13375	13383	1
13378	13385	13386	1
490	13385	13378	1
13378	13377	13381	1
13378	13379	13380	1
13378	13379	13382	1
13375	13376	13377	1
13377	13378	13379	1
13375	13380	13379	1
13375	13380	13384	1
13379	13380	13384	1
13380	13375	13383	1
13380	13379	13382	1
13388	13387	8398	1
490	13385	13386	1
4816	4815	4826	1
4814	4815	4826	1
2268	2274	4826	1
2275	2274	4826	1
4816	4817	4824	1
4818	4817	4824	1
4824	4834	4828	1
4824	4834	4835	1
4815	4826	4827	1
2274	4826	4815	1
4815	4816	4817	1
4815	4816	4820	1
4815	4814	4819	1
4815	4814	4822	1
4817	4824	4825	1
4817	4824	4834	1
4817	4816	4820	1
4817	4818	4819	1
4817	4818	4821	1
4814	4815	4816	1
4816	4817	4818	1
4814	4819	4818	1
4814	4819	4823	1
4818	4819	4823	1
4819	4814	4822	1
4819	4818	4821	1
2274	4826	4827	1
4825	4824	4834	1
184	183	194	1
182	183	194	1
171	173	194	1
174	173	194	1
184	185	192	1
186	185	192	1
192	6342	6332	1
192	6342	6344	1
183	194	195	1
173	194	183	1
183	184	185	1
183	184	188	1
183	182	187	1
183	182	190	1
185	192	193	1
185	192	6342	1
185	184	188	1
185	186	187	1
185	186	189	1
182	183	184	1
184	185	186	1
182	187	186	1
182	187	191	1
186	187	191	1
187	182	190	1
187	186	189	1
173	194	195	1
193	192	6342	1
5456	5455	5466	1
5454	5455	5466	1
5466	5474	5468	1
5466	5474	5475	1
5456	5457	5464	1
5458	5457	5464	1
5464	9741	9731	1
5464	9741	9743	1
5455	5466	5467	1
5455	5466	5474	1
5455	5456	5457	1
5455	5456	5460	1
5455	5454	5459	1
5455	5454	5462	1
5457	5464	5465	1
5457	5464	9741	1
5457	5456	5460	1
5457	5458	5459	1
5457	5458	5461	1
5454	5455	5456	1
5456	5457	5458	1
5454	5459	5458	1
5454	5459	5463	1
5458	5459	5463	1
5459	5454	5462	1
5459	5458	5461	1
5467	5466	5474	1
5465	5464	9741	1
6215	6214	6225	1
6213	6214	6225	1
6225	11025	11018	1
6225	11025	11027	1
6215	6216	6223	1
6217	6216	6223	1
6223	6233	6227	1
6223	6233	6234	1
6214	6225	6226	1
6214	6225	11025	1
6214	6215	6216	1
6214	6215	6219	1
6214	6213	6218	1
6214	6213	6221	1
6216	6223	6224	1
6216	6223	6233	1
6216	6215	6219	1
6216	6217	6218	1
6216	6217	6220	1
6213	6214	6215	1
6215	6216	6217	1
6213	6218	6217	1
6213	6218	6222	1
6217	6218	6222	1
6218	6213	6221	1
6218	6217	6220	1
6226	6225	11025	1
6224	6223	6233	1
2718	2717	2728	1
2716	2717	2728	1
2718	2719	2726	1
2720	2719	2726	1
2726	4550	4540	1
2726	4550	4552	1
2717	2728	2730	1
2717	2728	2729	1
2717	2718	2719	1
2717	2718	2722	1
2717	2716	2721	1
2717	2716	2724	1
2719	2726	2727	1
2719	2726	4550	1
2719	2718	2722	1
2719	2720	2721	1
2719	2720	2723	1
2716	2717	2718	1
2718	2719	2720	1
2716	2721	2720	1
2716	2721	2725	1
2720	2721	2725	1
2721	2716	2724	1
2721	2720	2723	1
2729	2728	2730	1
2727	2726	4550	1
12719	12718	12729	1
12717	12718	12729	1
12729	6603	6596	1
12729	6603	6605	1
12719	12720	12727	1
12721	12720	12727	1
12727	8177	8167	1
12727	8177	8179	1
12718	12729	12730	1
12718	12729	6603	1
12718	12719	12720	1
12718	12719	12723	1
12718	12717	12722	1
12718	12717	12725	1
12720	12727	12728	1
12720	12727	8177	1
12720	12719	12723	1
12720	12721	12722	1
12720	12721	12724	1
12717	12718	12719	1
12719	12720	12721	1
12717	12722	12721	1
12717	12722	12726	1
12721	12722	12726	1
12722	12717	12725	1
12722	12721	12724	1
12730	12729	6603	1
12728	12727	8177	1
3783	3782	3793	1
3781	3782	3793	1
3783	3784	3791	1
3785	3784	3791	1
2069	2076	3791	1
2078	2076	3791	1
3782	3793	3794	1
3782	3793	3795	1
3782	3783	3784	1
3782	3783	3787	1
3782	3781	3786	1
3782	3781	3789	1
3784	3791	3792	1
2076	3791	3784	1
3784	3783	3787	1
3784	3785	3786	1
3784	3785	3788	1
3781	3782	3783	1
3783	3784	3785	1
3781	3786	3785	1
3781	3786	3790	1
3785	3786	3790	1
3786	3781	3789	1
3786	3785	3788	1
3794	3793	3795	1
2076	3791	3792	1
13293	13292	13303	1
13291	13292	13303	1
13303	8264	8257	1
13303	8264	8266	1
13293	13294	13301	1
13295	13294	13301	1
1882	1889	13301	1
1891	1889	13301	1
13292	13303	13304	1
13292	13303	8264	1
13292	13293	13294	1
13292	13293	13297	1
13292	13291	13296	1
13292	13291	13299	1
13294	13301	13302	1
1889	13301	13294	1
13294	13293	13297	1
13294	13295	13296	1
13294	13295	13298	1
13291	13292	13293	1
13293	13294	13295	1
13291	13296	13295	1
13291	13296	13300	1
13295	13296	13300	1
13296	13291	13299	1
13296	13295	13298	1
13304	13303	8264	1
1889	13301	13302	1
2778	2779	2786	1
2780	2779	2786	1
2786	5116	5109	1
2786	5116	5118	1
2778	2777	2788	1
2776	2777	2788	1
2779	2786	2787	1
2779	2786	5116	1
2777	2778	2779	1
2779	2778	2782	1
2779	2780	2781	1
2779	2780	2783	1
2777	2788	2789	1
2777	2788	2790	1
2777	2778	2782	1
2777	2776	2781	1
2777	2776	2784	1
2778	2779	2780	1
2776	2777	2778	1
2776	2781	2780	1
2780	2781	2785	1
2776	2781	2785	1
2781	2780	2783	1
2781	2776	2784	1
2787	2786	5116	1
2789	2788	2790	1
9717	9716	9727	1
9715	9716	9727	1
9727	10249	10242	1
9727	10249	10251	1
9717	9718	9725	1
9719	9718	9725	1
9725	9735	9729	1
9725	9735	9736	1
9716	9727	9728	1
9716	9727	10249	1
9716	9717	9718	1
9716	9717	9721	1
9716	9715	9720	1
9716	9715	9723	1
9718	9725	9726	1
9718	9725	9735	1
9718	9717	9721	1
9718	9719	9720	1
9718	9719	9722	1
9715	9716	9717	1
9717	9718	9719	1
9715	9720	9719	1
9715	9720	9724	1
9719	9720	9724	1
9720	9715	9723	1
9720	9719	9722	1
9728	9727	10249	1
9726	9725	9735	1
12299	12300	12307	1
12301	12300	12307	1
12307	5815	5808	1
12307	5815	5817	1
12299	12298	12309	1
12297	12298	12309	1
12309	7274	7264	1
12309	7274	7276	1
12300	12307	12308	1
12300	12307	5815	1
12300	12299	12298	1
12300	12299	12303	1
12300	12301	12302	1
12300	12301	12304	1
12298	12309	12310	1
12298	12309	7274	1
12298	12299	12303	1
12298	12297	12302	1
12298	12297	12305	1
12301	12300	12299	1
12299	12298	12297	1
12301	12302	12297	1
12301	12302	12306	1
12297	12302	12306	1
12302	12301	12304	1
12302	12297	12305	1
12308	12307	5815	1
12310	12309	7274	1
13111	13110	13121	1
13109	13110	13121	1
13121	9297	9291	1
13121	9297	9298	1
13111	13112	13119	1
13113	13112	13119	1
13119	7812	7805	1
13119	7812	7814	1
13110	13121	13122	1
13110	13121	9297	1
13110	13111	13112	1
13110	13111	13115	1
13110	13109	13114	1
13110	13109	13117	1
13112	13119	13120	1
13112	13119	7812	1
13112	13111	13115	1
13112	13113	13114	1
13112	13113	13116	1
13109	13110	13111	1
13111	13112	13113	1
13109	13114	13113	1
13109	13114	13118	1
13113	13114	13118	1
13114	13109	13117	1
13114	13113	13116	1
13122	13121	9297	1
13120	13119	7812	1
6478	6477	6488	1
6476	6477	6488	1
6488	4492	4482	1
6488	4492	4494	1
6478	6479	6486	1
6480	6479	6486	1
6486	6496	6490	1
6486	6496	6497	1
6477	6488	6489	1
6477	6488	4492	1
6477	6478	6479	1
6477	6478	6482	1
6477	6476	6481	1
6477	6476	6484	1
6479	6486	6487	1
6479	6486	6496	1
6479	6478	6482	1
6479	6480	6481	1
6479	6480	6483	1
6476	6477	6478	1
6478	6479	6480	1
6476	6481	6480	1
6476	6481	6485	1
6480	6481	6485	1
6481	6476	6484	1
6481	6480	6483	1
6489	6488	4492	1
6487	6486	6496	1
6813	6812	6823	1
6811	6812	6823	1
6823	10294	10284	1
6823	10294	10296	1
6813	6814	6821	1
6815	6814	6821	1
6821	6831	6825	1
6821	6831	6832	1
6812	6823	6824	1
6812	6823	10294	1
6812	6813	6814	1
6812	6813	6817	1
6812	6811	6816	1
6812	6811	6819	1
6814	6821	6822	1
6814	6821	6831	1
6814	6813	6817	1
6814	6815	6816	1
6814	6815	6818	1
6811	6812	6813	1
6813	6814	6815	1
6811	6816	6815	1
6811	6816	6820	1
6815	6816	6820	1
6816	6811	6819	1
6816	6815	6818	1
6824	6823	10294	1
6822	6821	6831	1
2838	2839	2846	1
2840	2839	2846	1
2846	5489	5483	1
2846	5489	5490	1
2838	2837	2848	1
2836	2837	2848	1
2839	2846	2847	1
2839	2846	5489	1
2837	2838	2839	1
2839	2838	2842	1
2839	2840	2841	1
2839	2840	2843	1
2837	2848	2850	1
2837	2848	2849	1
2837	2838	2842	1
2837	2836	2841	1
2837	2836	2844	1
2838	2839	2840	1
2836	2837	2838	1
2836	2841	2840	1
2840	2841	2845	1
2836	2841	2845	1
2841	2840	2843	1
2841	2836	2844	1
2847	2846	5489	1
2849	2848	2850	1
1649	1648	1659	1
1647	1648	1659	1
1659	6414	6407	1
1659	6414	6416	1
1649	1650	1657	1
1651	1650	1657	1
1630	1636	1657	1
1637	1636	1657	1
1648	1659	1660	1
1648	1659	6414	1
1648	1649	1650	1
1648	1649	1653	1
1648	1647	1652	1
1648	1647	1655	1
1650	1657	1658	1
1636	1657	1650	1
1650	1649	1653	1
1650	1651	1652	1
1650	1651	1654	1
1647	1648	1649	1
1649	1650	1651	1
1647	1652	1651	1
1647	1652	1656	1
1651	1652	1656	1
1652	1647	1655	1
1652	1651	1654	1
1660	1659	6414	1
1636	1657	1658	1
7337	7336	7347	1
7335	7336	7347	1
7347	7355	7349	1
7347	7355	7356	1
7337	7338	7345	1
7339	7338	7345	1
7345	8747	8740	1
7345	8747	8749	1
7336	7347	7348	1
7336	7347	7355	1
7336	7337	7338	1
7336	7337	7341	1
7336	7335	7340	1
7336	7335	7343	1
7338	7345	7346	1
7338	7345	8747	1
7338	7337	7341	1
7338	7339	7340	1
7338	7339	7342	1
7335	7336	7337	1
7337	7338	7339	1
7335	7340	7339	1
7335	7340	7344	1
7339	7340	7344	1
7340	7335	7343	1
7340	7339	7342	1
7348	7347	7355	1
7346	7345	8747	1
12523	12522	12533	1
12521	12522	12533	1
12533	10542	10535	1
12533	10542	10544	1
12523	12524	12531	1
12525	12524	12531	1
12531	6210	6200	1
12531	6210	6212	1
12522	12533	12534	1
12522	12533	10542	1
12522	12523	12524	1
12522	12523	12527	1
12522	12521	12526	1
12522	12521	12529	1
12524	12531	12532	1
12524	12531	6210	1
12524	12523	12527	1
12524	12525	12526	1
12524	12525	12528	1
12521	12522	12523	1
12523	12524	12525	1
12521	12526	12525	1
12521	12526	12530	1
12525	12526	12530	1
12526	12521	12529	1
12526	12525	12528	1
12534	12533	10542	1
12532	12531	6210	1
1149	1150	1157	1
1151	1150	1157	1
1130	1136	1157	1
1137	1136	1157	1
1149	1148	1159	1
1147	1148	1159	1
1159	6763	6756	1
1159	6763	6765	1
1150	1157	1158	1
1136	1157	1150	1
1148	1149	1150	1
1150	1149	1153	1
1150	1151	1152	1
1150	1151	1154	1
1148	1159	1160	1
1148	1159	6763	1
1148	1149	1153	1
1148	1147	1152	1
1148	1147	1155	1
1149	1150	1151	1
1147	1148	1149	1
1147	1152	1151	1
1151	1152	1156	1
1147	1152	1156	1
1152	1151	1154	1
1152	1147	1155	1
1136	1157	1158	1
1160	1159	6763	1
11319	11318	11329	1
11317	11318	11329	1
11329	4085	4075	1
11329	4085	4087	1
11319	11320	11327	1
11321	11320	11327	1
11327	6836	6829	1
11327	6836	6838	1
11318	11329	11330	1
11318	11329	4085	1
11318	11319	11320	1
11318	11319	11323	1
11318	11317	11322	1
11318	11317	11325	1
11320	11327	11328	1
11320	11327	6836	1
11320	11319	11323	1
11320	11321	11322	1
11320	11321	11324	1
11317	11318	11319	1
11319	11320	11321	1
11317	11322	11321	1
11317	11322	11326	1
11321	11322	11326	1
11322	11317	11325	1
11322	11321	11324	1
11330	11329	4085	1
11328	11327	6836	1
1056	1055	1066	1
1054	1055	1066	1
1037	1043	1066	1
1044	1043	1066	1
1056	1057	1064	1
1058	1057	1064	1
1161	1167	1064	1
1168	1167	1064	1
1055	1066	1067	1
1043	1066	1055	1
1055	1056	1057	1
1055	1056	1060	1
1055	1054	1059	1
1055	1054	1062	1
1057	1064	1065	1
1167	1064	1057	1
1057	1056	1060	1
1057	1058	1059	1
1057	1058	1061	1
1054	1055	1056	1
1056	1057	1058	1
1054	1059	1058	1
1054	1059	1063	1
1058	1059	1063	1
1059	1054	1062	1
1059	1058	1061	1
1043	1066	1067	1
1167	1064	1065	1
13209	13208	13219	1
13207	13208	13219	1
13219	8573	8563	1
13219	8573	8575	1
13209	13210	13217	1
13211	13210	13217	1
13217	8147	8140	1
13217	8147	8149	1
13208	13219	13220	1
13208	13219	8573	1
13208	13209	13210	1
13208	13209	13213	1
13208	13207	13212	1
13208	13207	13215	1
13210	13217	13218	1
13210	13217	8147	1
13210	13209	13213	1
13210	13211	13212	1
13210	13211	13214	1
13207	13208	13209	1
13209	13210	13211	1
13207	13212	13211	1
13207	13212	13216	1
13211	13212	13216	1
13212	13207	13215	1
13212	13211	13214	1
13220	13219	8573	1
13218	13217	8147	1
8300	8301	8308	1
8302	8301	8308	1
8308	8318	8312	1
8308	8318	8319	1
8300	8299	8310	1
8298	8299	8310	1
8310	11094	11088	1
8310	11094	11095	1
8301	8308	8309	1
8301	8308	8318	1
8301	8300	8299	1
8301	8300	8304	1
8301	8302	8303	1
8301	8302	8305	1
8299	8310	8311	1
8299	8310	11094	1
8299	8300	8304	1
8299	8298	8303	1
8299	8298	8306	1
8302	8301	8300	1
8300	8299	8298	1
8302	8303	8298	1
8302	8303	8307	1
8298	8303	8307	1
8303	8302	8305	1
8303	8298	8306	1
8309	8308	8318	1
8311	8310	11094	1
9366	9365	9376	1
9364	9365	9376	1
9376	9384	9378	1
9376	9384	9385	1
9366	9367	9374	1
9368	9367	9374	1
9374	9187	9177	1
9374	9187	9189	1
9365	9376	9377	1
9365	9376	9384	1
9365	9366	9367	1
9365	9366	9370	1
9365	9364	9369	1
9365	9364	9372	1
9367	9374	9375	1
9367	9374	9187	1
9367	9366	9370	1
9367	9368	9369	1
9367	9368	9371	1
9364	9365	9366	1
9366	9367	9368	1
9364	9369	9368	1
9364	9369	9373	1
9368	9369	9373	1
9369	9364	9372	1
9369	9368	9371	1
9377	9376	9384	1
9375	9374	9187	1
5894	5893	5904	1
5892	5893	5904	1
5904	8280	8270	1
5904	8280	8282	1
5894	5895	5902	1
5896	5895	5902	1
5902	5912	5906	1
5902	5912	5913	1
5893	5904	5905	1
5893	5904	8280	1
5893	5894	5895	1
5893	5894	5898	1
5893	5892	5897	1
5893	5892	5900	1
5895	5902	5903	1
5895	5902	5912	1
5895	5894	5898	1
5895	5896	5897	1
5895	5896	5899	1
5892	5893	5894	1
5894	5895	5896	1
5892	5897	5896	1
5892	5897	5901	1
5896	5897	5901	1
5897	5892	5900	1
5897	5896	5899	1
5905	5904	8280	1
5903	5902	5912	1
2898	2897	2908	1
2896	2897	2908	1
2898	2899	2906	1
2900	2899	2906	1
2906	5786	5779	1
2906	5786	5788	1
2897	2908	2909	1
2897	2908	2910	1
2897	2898	2899	1
2897	2898	2902	1
2897	2896	2901	1
2897	2896	2904	1
2899	2906	2907	1
2899	2906	5786	1
2899	2898	2902	1
2899	2900	2901	1
2899	2900	2903	1
2896	2897	2898	1
2898	2899	2900	1
2896	2901	2900	1
2896	2901	2905	1
2900	2901	2905	1
2901	2896	2904	1
2901	2900	2903	1
2909	2908	2910	1
2907	2906	5786	1
4889	4888	4899	1
4887	4888	4899	1
4899	4907	4901	1
4899	4907	4908	1
4889	4890	4897	1
4891	4890	4897	1
4897	10351	10344	1
4897	10351	10353	1
4888	4899	4900	1
4888	4899	4907	1
4888	4889	4890	1
4888	4889	4893	1
4888	4887	4892	1
4888	4887	4895	1
4890	4897	4898	1
4890	4897	10351	1
4890	4889	4893	1
4890	4891	4892	1
4890	4891	4894	1
4887	4888	4889	1
4889	4890	4891	1
4887	4892	4891	1
4887	4892	4896	1
4891	4892	4896	1
4892	4887	4895	1
4892	4891	4894	1
4900	4899	4907	1
4898	4897	10351	1
7061	7062	7069	1
7063	7062	7069	1
7069	6473	6463	1
7069	6473	6475	1
7061	7060	7071	1
7059	7060	7071	1
7071	7079	7073	1
7071	7079	7080	1
7062	7069	7070	1
7062	7069	6473	1
7062	7061	7060	1
7062	7061	7065	1
7062	7063	7064	1
7062	7063	7066	1
7060	7071	7072	1
7060	7071	7079	1
7060	7061	7065	1
7060	7059	7064	1
7060	7059	7067	1
7063	7062	7061	1
7061	7060	7059	1
7063	7064	7059	1
7063	7064	7068	1
7059	7064	7068	1
7064	7063	7066	1
7064	7059	7067	1
7070	7069	6473	1
7072	7071	7079	1
12537	12536	12547	1
12535	12536	12547	1
12547	6238	6231	1
12547	6238	6240	1
12537	12538	12545	1
12539	12538	12545	1
12545	9813	9806	1
12545	9813	9815	1
12536	12547	12548	1
12536	12547	6238	1
12536	12537	12538	1
12536	12537	12541	1
12536	12535	12540	1
12536	12535	12543	1
12538	12545	12546	1
12538	12545	9813	1
12538	12537	12541	1
12538	12539	12540	1
12538	12539	12542	1
12535	12536	12537	1
12537	12538	12539	1
12535	12540	12539	1
12535	12540	12544	1
12539	12540	12544	1
12540	12535	12543	1
12540	12539	12542	1
12548	12547	6238	1
12546	12545	9813	1
9221	9220	9231	1
9219	9220	9231	1
9231	9239	9233	1
9231	9239	9240	1
9221	9222	9229	1
9223	9222	9229	1
9229	10602	10592	1
9229	10602	10604	1
9220	9231	9232	1
9220	9231	9239	1
9220	9221	9222	1
9220	9221	9225	1
9220	9219	9224	1
9220	9219	9227	1
9222	9229	9230	1
9222	9229	10602	1
9222	9221	9225	1
9222	9223	9224	1
9222	9223	9226	1
9219	9220	9221	1
9221	9222	9223	1
9219	9224	9223	1
9219	9224	9228	1
9223	9224	9228	1
9224	9219	9227	1
9224	9223	9226	1
9232	9231	9239	1
9230	9229	10602	1
7702	7701	7712	1
7700	7701	7712	1
7712	7720	7714	1
7712	7720	7721	1
7702	7703	7710	1
7704	7703	7710	1
7710	10567	10561	1
7710	10567	10568	1
7701	7712	7713	1
7701	7712	7720	1
7701	7702	7703	1
7701	7702	7706	1
7701	7700	7705	1
7701	7700	7708	1
7703	7710	7711	1
7703	7710	10567	1
7703	7702	7706	1
7703	7704	7705	1
7703	7704	7707	1
7700	7701	7702	1
7702	7703	7704	1
7700	7705	7704	1
7700	7705	7709	1
7704	7705	7709	1
7705	7700	7708	1
7705	7704	7707	1
7713	7712	7720	1
7711	7710	10567	1
3468	3469	3476	1
3470	3469	3476	1
3476	9565	9555	1
3476	9565	9567	1
3468	3467	3478	1
3466	3467	3478	1
3469	3476	3477	1
3469	3476	9565	1
3467	3468	3469	1
3469	3468	3472	1
3469	3470	3471	1
3469	3470	3473	1
3467	3478	3480	1
3467	3478	3479	1
3467	3468	3472	1
3467	3466	3471	1
3467	3466	3474	1
3468	3469	3470	1
3466	3467	3468	1
3466	3471	3470	1
3470	3471	3475	1
3466	3471	3475	1
3471	3470	3473	1
3471	3466	3474	1
3477	3476	9565	1
3479	3478	3480	1
11865	11864	11875	1
11863	11864	11875	1
11875	6939	6929	1
11875	6939	6941	1
11865	11866	11873	1
11867	11866	11873	1
11873	5000	4990	1
11873	5000	5002	1
11864	11875	11876	1
11864	11875	6939	1
11864	11865	11866	1
11864	11865	11869	1
11864	11863	11868	1
11864	11863	11871	1
11866	11873	11874	1
11866	11873	5000	1
11866	11865	11869	1
11866	11867	11868	1
11866	11867	11870	1
11863	11864	11865	1
11865	11866	11867	1
11863	11868	11867	1
11863	11868	11872	1
11867	11868	11872	1
11868	11863	11871	1
11868	11867	11870	1
11876	11875	6939	1
11874	11873	5000	1
3768	3769	3776	1
3770	3769	3776	1
3776	11187	11180	1
3776	11187	11189	1
3768	3767	3778	1
3766	3767	3778	1
3769	3776	3777	1
3769	3776	11187	1
3767	3768	3769	1
3769	3768	3772	1
3769	3770	3771	1
3769	3770	3773	1
3767	3778	3780	1
3767	3778	3779	1
3767	3768	3772	1
3767	3766	3771	1
3767	3766	3774	1
3768	3769	3770	1
3766	3767	3768	1
3766	3771	3770	1
3770	3771	3775	1
3766	3771	3775	1
3771	3770	3773	1
3771	3766	3774	1
3777	3776	11187	1
3780	3778	3779	1
3498	3497	3508	1
3496	3497	3508	1
3498	3499	3506	1
3500	3499	3506	1
3506	9609	9599	1
3506	9609	9611	1
3497	3508	3509	1
3497	3508	3510	1
3497	3498	3499	1
3497	3498	3502	1
3497	3496	3501	1
3497	3496	3504	1
3499	3506	3507	1
3499	3506	9609	1
3499	3498	3502	1
3499	3500	3501	1
3499	3500	3503	1
3496	3497	3498	1
3498	3499	3500	1
3496	3501	3500	1
3496	3501	3505	1
3500	3501	3505	1
3501	3496	3504	1
3501	3500	3503	1
3509	3508	3510	1
3507	3506	9609	1
2256	2257	2264	1
2258	2257	2264	1
2237	2243	2264	1
2244	2243	2264	1
2256	2255	2266	1
2254	2255	2266	1
2266	9574	9568	1
2266	9574	9575	1
2257	2264	2265	1
2243	2264	2257	1
2255	2256	2257	1
2257	2256	2260	1
2257	2258	2259	1
2257	2258	2261	1
2255	2266	2267	1
2255	2266	9574	1
2255	2256	2260	1
2255	2254	2259	1
2255	2254	2262	1
2256	2257	2258	1
2254	2255	2256	1
2254	2259	2258	1
2258	2259	2263	1
2254	2259	2263	1
2259	2258	2261	1
2259	2254	2262	1
2243	2264	2265	1
2267	2266	9574	1
3887	3886	3897	1
3885	3886	3897	1
3897	7516	7510	1
3897	7516	7517	1
3887	3888	3895	1
3889	3888	3895	1
3895	3905	3899	1
3895	3905	3906	1
3886	3897	3898	1
3886	3897	7516	1
3886	3887	3888	1
3886	3887	3891	1
3886	3885	3890	1
3886	3885	3893	1
3888	3895	3896	1
3888	3895	3905	1
3888	3887	3891	1
3888	3889	3890	1
3888	3889	3892	1
3885	3886	3887	1
3887	3888	3889	1
3885	3890	3889	1
3885	3890	3894	1
3889	3890	3894	1
3890	3885	3893	1
3890	3889	3892	1
3898	3897	7516	1
3896	3895	3905	1
12467	12466	12477	1
12465	12466	12477	1
12477	6472	6465	1
12477	6472	6474	1
12467	12468	12475	1
12469	12468	12475	1
12475	6035	6028	1
12475	6035	6037	1
12466	12477	12478	1
12466	12477	6472	1
12466	12467	12468	1
12466	12467	12471	1
12466	12465	12470	1
12466	12465	12473	1
12468	12475	12476	1
12468	12475	6035	1
12468	12467	12471	1
12468	12469	12470	1
12468	12469	12472	1
12465	12466	12467	1
12467	12468	12469	1
12465	12470	12469	1
12465	12470	12474	1
12469	12470	12474	1
12470	12465	12473	1
12470	12469	12472	1
12478	12477	6472	1
12476	12475	6035	1
8520	8519	8530	1
8518	8519	8530	1
8530	9457	9451	1
8530	9457	9458	1
8520	8521	8528	1
8522	8521	8528	1
8528	8538	8532	1
8528	8538	8539	1
8519	8530	8531	1
8519	8530	9457	1
8519	8520	8521	1
8519	8520	8524	1
8519	8518	8523	1
8519	8518	8526	1
8521	8528	8529	1
8521	8528	8538	1
8521	8520	8524	1
8521	8522	8523	1
8521	8522	8525	1
8518	8519	8520	1
8520	8521	8522	1
8518	8523	8522	1
8518	8523	8527	1
8522	8523	8527	1
8523	8518	8526	1
8523	8522	8525	1
8531	8530	9457	1
8529	8528	8538	1
11767	11766	11777	1
11765	11766	11777	1
11777	4839	4832	1
11777	4839	4841	1
11767	11768	11775	1
11769	11768	11775	1
11775	10601	10594	1
11775	10601	10603	1
11766	11777	11778	1
11766	11777	4839	1
11766	11767	11768	1
11766	11767	11771	1
11766	11765	11770	1
11766	11765	11773	1
11768	11775	11776	1
11768	11775	10601	1
11768	11767	11771	1
11768	11769	11770	1
11768	11769	11772	1
11765	11766	11767	1
11767	11768	11769	1
11765	11770	11769	1
11765	11770	11774	1
11769	11770	11774	1
11770	11765	11773	1
11770	11769	11772	1
11778	11777	4839	1
11776	11775	10601	1
13447	13446	13457	1
13445	13446	13457	1
13457	8690	8680	1
13457	8690	8692	1
13447	13448	13455	1
13449	13448	13455	1
13455	10493	10487	1
13455	10493	10494	1
13446	13457	13458	1
13446	13457	8690	1
13446	13447	13448	1
13446	13447	13451	1
13446	13445	13450	1
13446	13445	13453	1
13448	13455	13456	1
13448	13455	10493	1
13448	13447	13451	1
13448	13449	13450	1
13448	13449	13452	1
13445	13446	13447	1
13447	13448	13449	1
13445	13450	13449	1
13445	13450	13454	1
13449	13450	13454	1
13450	13445	13453	1
13450	13449	13452	1
13458	13457	8690	1
13456	13455	10493	1
3123	3124	3131	1
3125	3124	3131	1
3131	7842	7832	1
3131	7842	7844	1
3123	3122	3133	1
3121	3122	3133	1
3124	3131	3132	1
3124	3131	7842	1
3122	3123	3124	1
3124	3123	3127	1
3124	3125	3126	1
3124	3125	3128	1
3122	3133	3134	1
3122	3133	3135	1
3122	3123	3127	1
3122	3121	3126	1
3122	3121	3129	1
3123	3124	3125	1
3121	3122	3123	1
3121	3126	3125	1
3125	3126	3130	1
3121	3126	3130	1
3126	3125	3128	1
3126	3121	3129	1
3132	3131	7842	1
3134	3133	3135	1
3633	3632	3643	1
3631	3632	3643	1
3633	3634	3641	1
3635	3634	3641	1
3641	10805	10798	1
3641	10805	10807	1
3632	3643	3645	1
3632	3643	3644	1
3632	3633	3634	1
3632	3633	3637	1
3632	3631	3636	1
3632	3631	3639	1
3634	3641	3642	1
3634	3641	10805	1
3634	3633	3637	1
3634	3635	3636	1
3634	3635	3638	1
3631	3632	3633	1
3633	3634	3635	1
3631	3636	3635	1
3631	3636	3640	1
3635	3636	3640	1
3636	3631	3639	1
3636	3635	3638	1
3645	3643	3644	1
3642	3641	10805	1
12075	12074	12085	1
12073	12074	12085	1
12085	7841	7834	1
12085	7841	7843	1
12075	12076	12083	1
12077	12076	12083	1
12083	5495	5485	1
12083	5495	5497	1
12074	12085	12086	1
12074	12085	7841	1
12074	12075	12076	1
12074	12075	12079	1
12074	12073	12078	1
12074	12073	12081	1
12076	12083	12084	1
12076	12083	5495	1
12076	12075	12079	1
12076	12077	12078	1
12076	12077	12080	1
12073	12074	12075	1
12075	12076	12077	1
12073	12078	12077	1
12073	12078	12082	1
12077	12078	12082	1
12078	12073	12081	1
12078	12077	12080	1
12086	12085	7841	1
12084	12083	5495	1
13181	13182	13189	1
13183	13182	13189	1
13189	8646	8636	1
13189	8646	8648	1
13181	13180	13191	1
13179	13180	13191	1
13191	8002	7992	1
13191	8002	8004	1
13182	13189	13190	1
13182	13189	8646	1
13180	13181	13182	1
13182	13181	13185	1
13182	13183	13184	1
13182	13183	13186	1
13180	13191	13192	1
13180	13191	8002	1
13180	13181	13185	1
13180	13179	13184	1
13180	13179	13187	1
13181	13182	13183	1
13179	13180	13181	1
13179	13184	13183	1
13183	13184	13188	1
13179	13184	13188	1
13184	13183	13186	1
13184	13179	13187	1
13190	13189	8646	1
13192	13191	8002	1
6070	6069	6080	1
6068	6069	6080	1
6080	6088	6082	1
6080	6088	6089	1
6070	6071	6078	1
6072	6071	6078	1
6078	6336	6330	1
6078	6336	6337	1
6069	6080	6081	1
6069	6080	6088	1
6069	6070	6071	1
6069	6070	6074	1
6069	6068	6073	1
6069	6068	6076	1
6071	6078	6079	1
6071	6078	6336	1
6071	6070	6074	1
6071	6072	6073	1
6071	6072	6075	1
6068	6069	6070	1
6070	6071	6072	1
6068	6073	6072	1
6068	6073	6077	1
6072	6073	6077	1
6073	6068	6076	1
6073	6072	6075	1
6081	6080	6088	1
6079	6078	6336	1
3558	3559	3566	1
3560	3559	3566	1
3566	9944	9937	1
3566	9944	9946	1
3558	3557	3568	1
3556	3557	3568	1
3559	3566	3567	1
3559	3566	9944	1
3557	3558	3559	1
3559	3558	3562	1
3559	3560	3561	1
3559	3560	3563	1
3557	3568	3569	1
3557	3568	3570	1
3557	3558	3562	1
3557	3556	3561	1
3557	3556	3564	1
3558	3559	3560	1
3556	3557	3558	1
3556	3561	3560	1
3560	3561	3565	1
3556	3561	3565	1
3561	3560	3563	1
3561	3556	3564	1
3567	3566	9944	1
3569	3568	3570	1
8447	8446	8457	1
8445	8446	8457	1
8457	8465	8459	1
8457	8465	8466	1
8447	8448	8455	1
8449	8448	8455	1
8455	5641	5631	1
8455	5641	5643	1
8446	8457	8458	1
8446	8457	8465	1
8446	8447	8448	1
8446	8447	8451	1
8446	8445	8450	1
8446	8445	8453	1
8448	8455	8456	1
8448	8455	5641	1
8448	8447	8451	1
8448	8449	8450	1
8448	8449	8452	1
8445	8446	8447	1
8447	8448	8449	1
8445	8450	8449	1
8445	8450	8454	1
8449	8450	8454	1
8450	8445	8453	1
8450	8449	8452	1
8458	8457	8465	1
8456	8455	5641	1
7483	7484	7491	1
7485	7484	7491	1
7491	8333	8327	1
7491	8333	8334	1
7483	7482	7493	1
7481	7482	7493	1
7493	7501	7495	1
7493	7501	7502	1
7484	7491	7492	1
7484	7491	8333	1
7484	7483	7482	1
7484	7483	7487	1
7484	7485	7486	1
7484	7485	7488	1
7482	7493	7494	1
7482	7493	7501	1
7482	7483	7487	1
7482	7481	7486	1
7482	7481	7489	1
7485	7484	7483	1
7483	7482	7481	1
7485	7486	7481	1
7485	7486	7490	1
7481	7486	7490	1
7486	7485	7488	1
7486	7481	7489	1
7492	7491	8333	1
7494	7493	7501	1
13279	13280	13287	1
13281	13280	13287	1
13287	10878	10871	1
13287	10878	10880	1
13279	13278	13289	1
13277	13278	13289	1
13289	8220	8213	1
13289	8220	8222	1
13280	13287	13288	1
13280	13287	10878	1
13278	13279	13280	1
13280	13279	13283	1
13280	13281	13282	1
13280	13281	13284	1
13278	13289	13290	1
13278	13289	8220	1
13278	13279	13283	1
13278	13277	13282	1
13278	13277	13285	1
13279	13280	13281	1
13277	13278	13279	1
13277	13282	13281	1
13281	13282	13286	1
13277	13282	13286	1
13282	13281	13284	1
13282	13277	13285	1
13288	13287	10878	1
13290	13289	8220	1
4613	4612	4623	1
4611	4612	4623	1
4623	4631	4625	1
4623	4631	4632	1
4613	4614	4621	1
4615	4614	4621	1
4621	6248	6242	1
4621	6248	6249	1
4612	4623	4624	1
4612	4623	4631	1
4612	4613	4614	1
4612	4613	4617	1
4612	4611	4616	1
4612	4611	4619	1
4614	4621	4622	1
4614	4621	6248	1
4614	4613	4617	1
4614	4615	4616	1
4614	4615	4618	1
4611	4612	4613	1
4613	4614	4615	1
4611	4616	4615	1
4611	4616	4620	1
4615	4616	4620	1
4616	4611	4619	1
4616	4615	4618	1
4624	4623	4631	1
4622	4621	6248	1
13755	13756	13763	1
13757	13756	13763	1
13763	11100	11090	1
13763	11100	11102	1
13755	13754	13765	1
13753	13754	13765	1
13765	10951	10944	1
13765	10951	10953	1
13756	13763	13764	1
13756	13763	11100	1
13754	13755	13756	1
13756	13755	13759	1
13756	13757	13758	1
13756	13757	13760	1
13754	13765	13766	1
13754	13765	10951	1
13754	13755	13759	1
13754	13753	13758	1
13754	13753	13761	1
13755	13756	13757	1
13753	13754	13755	1
13753	13758	13757	1
13757	13758	13762	1
13753	13758	13762	1
13758	13757	13760	1
13758	13753	13761	1
13764	13763	11100	1
13766	13765	10951	1
13265	13264	13275	1
13263	13264	13275	1
13275	10776	10769	1
13275	10776	10778	1
13265	13266	13273	1
13267	13266	13273	1
13273	8221	8211	1
13273	8221	8223	1
13264	13275	13276	1
13264	13275	10776	1
13264	13265	13266	1
13264	13265	13269	1
13264	13263	13268	1
13264	13263	13271	1
13266	13273	13274	1
13266	13273	8221	1
13266	13265	13269	1
13266	13267	13268	1
13266	13267	13270	1
13263	13264	13265	1
13265	13266	13267	1
13263	13268	13267	1
13263	13268	13272	1
13267	13268	13272	1
13268	13263	13271	1
13268	13267	13270	1
13276	13275	10776	1
13274	13273	8221	1
2053	2052	2063	1
2051	2052	2063	1
2034	2040	2063	1
2041	2040	2063	1
2053	2054	2061	1
2055	2054	2061	1
2061	10762	10752	1
2061	10762	10764	1
2052	2063	2064	1
2040	2063	2052	1
2052	2053	2054	1
2052	2053	2057	1
2052	2051	2056	1
2052	2051	2059	1
2054	2061	2062	1
2054	2061	10762	1
2054	2053	2057	1
2054	2055	2056	1
2054	2055	2058	1
2051	2052	2053	1
2053	2054	2055	1
2051	2056	2055	1
2051	2056	2060	1
2055	2056	2060	1
2056	2051	2059	1
2056	2055	2058	1
2040	2063	2064	1
2062	2061	10762	1
12061	12062	12069	1
12063	12062	12069	1
12069	5480	5470	1
12069	5480	5482	1
12061	12060	12071	1
12059	12060	12071	1
12071	10411	10401	1
12071	10411	10413	1
12062	12069	12070	1
12062	12069	5480	1
12062	12061	12060	1
12062	12061	12065	1
12062	12063	12064	1
12062	12063	12066	1
12060	12071	12072	1
12060	12071	10411	1
12060	12061	12065	1
12060	12059	12064	1
12060	12059	12067	1
12063	12062	12061	1
12061	12060	12059	1
12063	12064	12059	1
12063	12064	12068	1
12059	12064	12068	1
12064	12063	12066	1
12064	12059	12067	1
12070	12069	5480	1
12072	12071	10411	1
4497	4496	4507	1
4495	4496	4507	1
4507	8544	8534	1
4507	8544	8546	1
4497	4498	4505	1
4499	4498	4505	1
4505	4515	4509	1
4505	4515	4516	1
4496	4507	4508	1
4496	4507	8544	1
4496	4497	4498	1
4496	4497	4501	1
4496	4495	4500	1
4496	4495	4503	1
4498	4505	4506	1
4498	4505	4515	1
4498	4497	4501	1
4498	4499	4500	1
4498	4499	4502	1
4495	4496	4497	1
4497	4498	4499	1
4495	4500	4499	1
4495	4500	4504	1
4499	4500	4504	1
4500	4495	4503	1
4500	4499	4502	1
4508	4507	8544	1
4506	4505	4515	1
932	933	940	1
934	933	940	1
940	8230	8224	1
940	8230	8231	1
932	931	942	1
930	931	942	1
913	919	942	1
920	919	942	1
933	940	941	1
933	940	8230	1
931	932	933	1
933	932	936	1
933	934	935	1
933	934	937	1
931	942	943	1
919	942	931	1
931	932	936	1
931	930	935	1
931	930	938	1
932	933	934	1
930	931	932	1
930	935	934	1
934	935	939	1
930	935	939	1
935	934	937	1
935	930	938	1
941	940	8230	1
919	942	943	1
2928	2927	2938	1
2926	2927	2938	1
2928	2929	2936	1
2930	2929	2936	1
2936	6021	6011	1
2936	6021	6023	1
2927	2938	2939	1
2927	2938	2940	1
2927	2928	2929	1
2927	2928	2932	1
2927	2926	2931	1
2927	2926	2934	1
2929	2936	2937	1
2929	2936	6021	1
2929	2928	2932	1
2929	2930	2931	1
2929	2930	2933	1
2926	2927	2928	1
2928	2929	2930	1
2926	2931	2930	1
2926	2931	2935	1
2930	2931	2935	1
2931	2926	2934	1
2931	2930	2933	1
2939	2938	2940	1
2937	2936	6021	1
5997	5996	6007	1
5995	5996	6007	1
6007	6015	6009	1
6007	6015	6016	1
5997	5998	6005	1
5999	5998	6005	1
6005	6298	6288	1
6005	6298	6300	1
5996	6007	6008	1
5996	6007	6015	1
5996	5997	5998	1
5996	5997	6001	1
5996	5995	6000	1
5996	5995	6003	1
5998	6005	6006	1
5998	6005	6298	1
5998	5997	6001	1
5998	5999	6000	1
5998	5999	6002	1
5995	5996	5997	1
5997	5998	5999	1
5995	6000	5999	1
5995	6000	6004	1
5999	6000	6004	1
6000	5995	6003	1
6000	5999	6002	1
6008	6007	6015	1
6006	6005	6298	1
12887	12886	12897	1
12885	12886	12897	1
12897	7113	7106	1
12897	7113	7115	1
12887	12888	12895	1
12889	12888	12895	1
12895	10380	10373	1
12895	10380	10382	1
12886	12897	12898	1
12886	12897	7113	1
12886	12887	12888	1
12886	12887	12891	1
12886	12885	12890	1
12886	12885	12893	1
12888	12895	12896	1
12888	12895	10380	1
12888	12887	12891	1
12888	12889	12890	1
12888	12889	12892	1
12885	12886	12887	1
12887	12888	12889	1
12885	12890	12889	1
12885	12890	12894	1
12889	12890	12894	1
12890	12885	12893	1
12890	12889	12892	1
12898	12897	7113	1
12896	12895	10380	1
3678	3679	3686	1
3680	3679	3686	1
3686	10996	10986	1
3686	10996	10998	1
3678	3677	3688	1
3676	3677	3688	1
3679	3686	3687	1
3679	3686	10996	1
3677	3678	3679	1
3679	3678	3682	1
3679	3680	3681	1
3679	3680	3683	1
3677	3688	3689	1
3677	3688	3690	1
3677	3678	3682	1
3677	3676	3681	1
3677	3676	3684	1
3678	3679	3680	1
3676	3677	3678	1
3676	3681	3680	1
3680	3681	3685	1
3676	3681	3685	1
3681	3680	3683	1
3681	3676	3684	1
3687	3686	10996	1
3689	3688	3690	1
3723	3724	3731	1
3725	3724	3731	1
3731	11020	11014	1
3731	11020	11021	1
3723	3722	3733	1
3721	3722	3733	1
3724	3731	3732	1
3724	3731	11020	1
3722	3723	3724	1
3724	3723	3727	1
3724	3725	3726	1
3724	3725	3728	1
3722	3733	3734	1
3722	3733	3735	1
3722	3723	3727	1
3722	3721	3726	1
3722	3721	3729	1
3723	3724	3725	1
3721	3722	3723	1
3721	3726	3725	1
3725	3726	3730	1
3721	3726	3730	1
3726	3725	3728	1
3726	3721	3729	1
3732	3731	11020	1
3734	3733	3735	1
4410	4411	4418	1
4412	4411	4418	1
4418	4428	4422	1
4418	4428	4429	1
4410	4409	4420	1
4408	4409	4420	1
4420	11011	11001	1
4420	11011	11013	1
4411	4418	4419	1
4411	4418	4428	1
4409	4410	4411	1
4411	4410	4414	1
4411	4412	4413	1
4411	4412	4415	1
4409	4420	4421	1
4409	4420	11011	1
4409	4410	4414	1
4409	4408	4413	1
4409	4408	4416	1
4410	4411	4412	1
4408	4409	4410	1
4408	4413	4412	1
4412	4413	4417	1
4408	4413	4417	1
4413	4412	4415	1
4413	4408	4416	1
4419	4418	4428	1
4421	4420	11011	1
5661	5660	5671	1
5659	5660	5671	1
5671	7813	7803	1
5671	7813	7815	1
5661	5662	5669	1
5663	5662	5669	1
5669	5679	5673	1
5669	5679	5680	1
5660	5671	5672	1
5660	5671	7813	1
5660	5661	5662	1
5660	5661	5665	1
5660	5659	5664	1
5660	5659	5667	1
5662	5669	5670	1
5662	5669	5679	1
5662	5661	5665	1
5662	5663	5664	1
5662	5663	5666	1
5659	5660	5661	1
5661	5662	5663	1
5659	5664	5663	1
5659	5664	5668	1
5663	5664	5668	1
5664	5659	5667	1
5664	5663	5666	1
5672	5671	7813	1
5670	5669	5679	1
1525	1524	1535	1
1523	1524	1535	1
1535	6792	6785	1
1535	6792	6794	1
1525	1526	1533	1
1527	1526	1533	1
1506	1512	1533	1
1513	1512	1533	1
1524	1535	1536	1
1524	1535	6792	1
1524	1525	1526	1
1524	1525	1529	1
1524	1523	1528	1
1524	1523	1531	1
1526	1533	1534	1
1512	1533	1526	1
1526	1525	1529	1
1526	1527	1528	1
1526	1527	1530	1
1523	1524	1525	1
1525	1526	1527	1
1523	1528	1527	1
1523	1528	1532	1
1527	1528	1532	1
1528	1523	1531	1
1528	1527	1530	1
1536	1535	6792	1
1512	1533	1534	1
1025	1024	1035	1
1023	1024	1035	1
1006	1012	1035	1
1013	1012	1035	1
1025	1026	1033	1
1027	1026	1033	1
1033	10425	10418	1
1033	10425	10427	1
1024	1035	1036	1
1012	1035	1024	1
1024	1025	1026	1
1024	1025	1029	1
1024	1023	1028	1
1024	1023	1031	1
1026	1033	1034	1
1026	1033	10425	1
1026	1025	1029	1
1026	1027	1028	1
1026	1027	1030	1
1023	1024	1025	1
1025	1026	1027	1
1023	1028	1027	1
1023	1028	1032	1
1027	1028	1032	1
1028	1023	1031	1
1028	1027	1030	1
1012	1035	1036	1
1034	1033	10425	1
653	652	663	1
651	652	663	1
634	640	663	1
641	640	663	1
653	654	661	1
655	654	661	1
2189	2195	661	1
2196	2195	661	1
652	663	664	1
640	663	652	1
652	653	654	1
652	653	657	1
652	651	656	1
652	651	659	1
654	661	662	1
2195	661	654	1
654	653	657	1
654	655	656	1
654	655	658	1
651	652	653	1
653	654	655	1
651	656	655	1
651	656	660	1
655	656	660	1
656	651	659	1
656	655	658	1
640	663	664	1
2195	661	662	1
11487	11486	11497	1
11485	11486	11497	1
11497	8515	8505	1
11497	8515	8517	1
11487	11488	11495	1
11489	11488	11495	1
11495	4331	4324	1
11495	4331	4333	1
11486	11497	11498	1
11486	11497	8515	1
11486	11487	11488	1
11486	11487	11491	1
11486	11485	11490	1
11486	11485	11493	1
11488	11495	11496	1
11488	11495	4331	1
11488	11487	11491	1
11488	11489	11490	1
11488	11489	11492	1
11485	11486	11487	1
11487	11488	11489	1
11485	11490	11489	1
11485	11490	11494	1
11489	11490	11494	1
11490	11485	11493	1
11490	11489	11492	1
11498	11497	8515	1
11496	11495	4331	1
4555	4554	4565	1
4553	4554	4565	1
4565	7389	7382	1
4565	7389	7391	1
4555	4556	4563	1
4557	4556	4563	1
4563	4573	4567	1
4563	4573	4574	1
4554	4565	4566	1
4554	4565	7389	1
4554	4555	4556	1
4554	4555	4559	1
4554	4553	4558	1
4554	4553	4561	1
4556	4563	4564	1
4556	4563	4573	1
4556	4555	4559	1
4556	4557	4558	1
4556	4557	4560	1
4553	4554	4555	1
4555	4556	4557	1
4553	4558	4557	1
4553	4558	4562	1
4557	4558	4562	1
4558	4553	4561	1
4558	4557	4560	1
4566	4565	7389	1
4564	4563	4573	1
10723	10724	10731	1
10725	10724	10731	1
10731	10741	10735	1
10731	10741	10742	1
10723	10722	10733	1
10721	10722	10733	1
10733	4840	4830	1
10733	4840	4842	1
10724	10731	10732	1
10724	10731	10741	1
10724	10723	10722	1
10724	10723	10727	1
10724	10725	10726	1
10724	10725	10728	1
10722	10733	10734	1
10722	10733	4840	1
10722	10723	10727	1
10722	10721	10726	1
10722	10721	10729	1
10725	10724	10723	1
10723	10722	10721	1
10725	10726	10721	1
10725	10726	10730	1
10721	10726	10730	1
10726	10725	10728	1
10726	10721	10729	1
10732	10731	10741	1
10734	10733	4840	1
6157	6156	6167	1
6155	6156	6167	1
6167	10405	10399	1
6167	10405	10406	1
6157	6158	6165	1
6159	6158	6165	1
6165	6175	6169	1
6165	6175	6176	1
6156	6167	6168	1
6156	6167	10405	1
6156	6157	6158	1
6156	6157	6161	1
6156	6155	6160	1
6156	6155	6163	1
6158	6165	6166	1
6158	6165	6175	1
6158	6157	6161	1
6158	6159	6160	1
6158	6159	6162	1
6155	6156	6157	1
6157	6158	6159	1
6155	6160	6159	1
6155	6160	6164	1
6159	6160	6164	1
6160	6155	6163	1
6160	6159	6162	1
6168	6167	10405	1
6166	6165	6175	1
13671	13672	13679	1
13673	13672	13679	1
13679	10104	10097	1
13679	10104	10106	1
13671	13670	13681	1
13669	13670	13681	1
13681	10557	10550	1
13681	10557	10559	1
13672	13679	13680	1
13672	13679	10104	1
13672	13671	13670	1
13672	13671	13675	1
13672	13673	13674	1
13672	13673	13676	1
13670	13681	13682	1
13670	13681	10557	1
13670	13671	13675	1
13670	13669	13674	1
13670	13669	13677	1
13673	13672	13671	1
13671	13670	13669	1
13673	13674	13669	1
13673	13674	13678	1
13669	13674	13678	1
13674	13673	13676	1
13674	13669	13677	1
13680	13679	10104	1
13682	13681	10557	1
6842	6843	6850	1
6844	6843	6850	1
6850	6860	6854	1
6850	6860	6861	1
6842	6841	6852	1
6840	6841	6852	1
6852	4549	4542	1
6852	4549	4551	1
6843	6850	6851	1
6843	6850	6860	1
6841	6842	6843	1
6843	6842	6846	1
6843	6844	6845	1
6843	6844	6847	1
6841	6852	6853	1
6841	6852	4549	1
6841	6842	6846	1
6841	6840	6845	1
6841	6840	6848	1
6842	6843	6844	1
6840	6841	6842	1
6840	6845	6844	1
6844	6845	6849	1
6840	6845	6849	1
6845	6844	6847	1
6845	6840	6848	1
6851	6850	6860	1
6853	6852	4549	1
13587	13586	13597	1
13585	13586	13597	1
13597	10718	10708	1
13597	10718	10720	1
13587	13588	13595	1
13589	13588	13595	1
13595	9418	9411	1
13595	9418	9420	1
13586	13597	13598	1
13586	13597	10718	1
13586	13587	13588	1
13586	13587	13591	1
13586	13585	13590	1
13586	13585	13593	1
13588	13595	13596	1
13588	13595	9418	1
13588	13587	13591	1
13588	13589	13590	1
13588	13589	13592	1
13585	13586	13587	1
13587	13588	13589	1
13585	13590	13589	1
13585	13590	13594	1
13589	13590	13594	1
13590	13585	13593	1
13590	13589	13592	1
13598	13597	10718	1
13596	13595	9418	1
1773	1774	1781	1
1775	1774	1781	1
1754	1760	1781	1
1761	1760	1781	1
1773	1772	1783	1
1771	1772	1783	1
1783	8645	8638	1
1783	8645	8647	1
1774	1781	1782	1
1760	1781	1774	1
1772	1773	1774	1
1774	1773	1777	1
1774	1775	1776	1
1774	1775	1778	1
1772	1783	1784	1
1772	1783	8645	1
1772	1773	1777	1
1772	1771	1776	1
1772	1771	1779	1
1773	1774	1775	1
1771	1772	1773	1
1771	1776	1775	1
1775	1776	1780	1
1771	1776	1780	1
1776	1775	1778	1
1776	1771	1779	1
1760	1781	1782	1
1784	1783	8645	1
6769	6768	6779	1
6767	6768	6779	1
6779	10099	10093	1
6779	10099	10100	1
6769	6770	6777	1
6771	6770	6777	1
6777	6787	6781	1
6777	6787	6788	1
6768	6779	6780	1
6768	6779	10099	1
6768	6769	6770	1
6768	6769	6773	1
6768	6767	6772	1
6768	6767	6775	1
6770	6777	6778	1
6770	6777	6787	1
6770	6769	6773	1
6770	6771	6772	1
6770	6771	6774	1
6767	6768	6769	1
6769	6770	6771	1
6767	6772	6771	1
6767	6772	6776	1
6771	6772	6776	1
6772	6767	6775	1
6772	6771	6774	1
6780	6779	10099	1
6778	6777	6787	1
374	373	384	1
372	373	384	1
384	8289	8283	1
384	8289	8290	1
374	375	382	1
376	375	382	1
355	361	382	1
362	361	382	1
373	384	385	1
373	384	8289	1
373	374	375	1
373	374	378	1
373	372	377	1
373	372	380	1
375	382	383	1
361	382	375	1
375	374	378	1
375	376	377	1
375	376	379	1
372	373	374	1
374	375	376	1
372	377	376	1
372	377	381	1
376	377	381	1
377	372	380	1
377	376	379	1
385	384	8289	1
361	382	383	1
3183	3184	3191	1
3185	3184	3191	1
3191	8392	8386	1
3191	8392	8393	1
3183	3182	3193	1
3181	3182	3193	1
3184	3191	3192	1
3184	3191	8392	1
3182	3183	3184	1
3184	3183	3187	1
3184	3185	3186	1
3184	3185	3188	1
3182	3193	3194	1
3182	3193	3195	1
3182	3183	3187	1
3182	3181	3186	1
3182	3181	3189	1
3183	3184	3185	1
3181	3182	3183	1
3181	3186	3185	1
3185	3186	3190	1
3181	3186	3190	1
3186	3185	3188	1
3186	3181	3189	1
3192	3191	8392	1
3195	3193	3194	1
2177	2176	2187	1
2175	2176	2187	1
2158	2164	2187	1
2165	2164	2187	1
2177	2178	2185	1
2179	2178	2185	1
2185	4297	4291	1
2185	4297	4298	1
2176	2187	2188	1
2164	2187	2176	1
2176	2177	2178	1
2176	2177	2181	1
2176	2175	2180	1
2176	2175	2183	1
2178	2185	2186	1
2178	2185	4297	1
2178	2177	2181	1
2178	2179	2180	1
2178	2179	2182	1
2175	2176	2177	1
2177	2178	2179	1
2175	2180	2179	1
2175	2180	2184	1
2179	2180	2184	1
2180	2175	2183	1
2180	2179	2182	1
2164	2187	2188	1
2186	2185	4297	1
11193	11192	11203	1
11191	11192	11203	1
11203	4303	4293	1
11203	4303	4305	1
11193	11194	11201	1
11195	11194	11201	1
11201	3866	3859	1
11201	3866	3868	1
11192	11203	11204	1
11192	11203	4303	1
11192	11193	11194	1
11192	11193	11197	1
11192	11191	11196	1
11192	11191	11199	1
11194	11201	11202	1
11194	11201	3866	1
11194	11193	11197	1
11194	11195	11196	1
11194	11195	11198	1
11191	11192	11193	1
11193	11194	11195	1
11191	11196	11195	1
11191	11196	11200	1
11195	11196	11200	1
11196	11191	11199	1
11196	11195	11198	1
11204	11203	4303	1
11202	11201	3866	1
2084	2083	2094	1
2082	2083	2094	1
2065	2071	2094	1
2072	2071	2094	1
2084	2085	2092	1
2086	2085	2092	1
2092	6151	6144	1
2092	6151	6153	1
2083	2094	2095	1
2071	2094	2083	1
2083	2084	2085	1
2083	2084	2088	1
2083	2082	2087	1
2083	2082	2090	1
2085	2092	2093	1
2085	2092	6151	1
2085	2084	2088	1
2085	2086	2087	1
2085	2086	2089	1
2082	2083	2084	1
2084	2085	2086	1
2082	2087	2086	1
2082	2087	2091	1
2086	2087	2091	1
2087	2082	2090	1
2087	2086	2089	1
2071	2094	2095	1
2093	2092	6151	1
12635	12636	12643	1
12637	12636	12643	1
12643	10747	10737	1
12643	10747	10749	1
12635	12634	12645	1
12633	12634	12645	1
12645	6357	6347	1
12645	6357	6359	1
12636	12643	12644	1
12636	12643	10747	1
12636	12635	12634	1
12636	12635	12639	1
12636	12637	12638	1
12636	12637	12640	1
12634	12645	12646	1
12634	12645	6357	1
12634	12635	12639	1
12634	12633	12638	1
12634	12633	12641	1
12637	12636	12635	1
12635	12634	12633	1
12637	12638	12633	1
12637	12638	12642	1
12633	12638	12642	1
12638	12637	12640	1
12638	12633	12641	1
12644	12643	10747	1
12646	12645	6357	1
6944	6943	6954	1
6942	6943	6954	1
6954	6962	6956	1
6954	6962	6963	1
6944	6945	6952	1
6946	6945	6952	1
2007	2014	6952	1
2016	2014	6952	1
6943	6954	6955	1
6943	6954	6962	1
6943	6944	6945	1
6943	6944	6948	1
6943	6942	6947	1
6943	6942	6950	1
6945	6952	6953	1
2014	6952	6945	1
6945	6944	6948	1
6945	6946	6947	1
6945	6946	6949	1
6942	6943	6944	1
6944	6945	6946	1
6942	6947	6946	1
6942	6947	6951	1
6946	6947	6951	1
6947	6942	6950	1
6947	6946	6949	1
6955	6954	6962	1
2014	6952	6953	1
11809	11810	11817	1
11811	11810	11817	1
11817	8982	8972	1
11817	8982	8984	1
11809	11808	11819	1
11807	11808	11819	1
11819	4883	4876	1
11819	4883	4885	1
11810	11817	11818	1
11810	11817	8982	1
11808	11809	11810	1
11810	11809	11813	1
11810	11811	11812	1
11810	11811	11814	1
11808	11819	11820	1
11808	11819	4883	1
11808	11809	11813	1
11808	11807	11812	1
11808	11807	11815	1
11809	11810	11811	1
11807	11808	11809	1
11807	11812	11811	1
11811	11812	11816	1
11807	11812	11816	1
11812	11811	11814	1
11812	11807	11815	1
11818	11817	8982	1
11820	11819	4883	1
1897	1898	1905	1
1899	1898	1905	1
1905	5358	5352	1
1905	5358	5359	1
1897	1896	1907	1
1895	1896	1907	1
1878	1884	1907	1
1885	1884	1907	1
1898	1905	1906	1
1898	1905	5358	1
1898	1897	1896	1
1898	1897	1901	1
1898	1899	1900	1
1898	1899	1902	1
1896	1907	1908	1
1884	1907	1896	1
1896	1897	1901	1
1896	1895	1900	1
1896	1895	1903	1
1899	1898	1897	1
1897	1896	1895	1
1899	1900	1895	1
1899	1900	1904	1
1895	1900	1904	1
1900	1899	1902	1
1900	1895	1903	1
1906	1905	5358	1
1884	1907	1908	1
12159	12158	12169	1
12157	12158	12169	1
12169	5597	5587	1
12169	5597	5599	1
12159	12160	12167	1
12161	12160	12167	1
12167	9447	9440	1
12167	9447	9449	1
12158	12169	12170	1
12158	12169	5597	1
12158	12159	12160	1
12158	12159	12163	1
12158	12157	12162	1
12158	12157	12165	1
12160	12167	12168	1
12160	12167	9447	1
12160	12159	12163	1
12160	12161	12162	1
12160	12161	12164	1
12157	12158	12159	1
12159	12160	12161	1
12157	12162	12161	1
12157	12162	12166	1
12161	12162	12166	1
12162	12157	12165	1
12162	12161	12164	1
12170	12169	5597	1
12168	12167	9447	1
3258	3259	3266	1
3260	3259	3266	1
3266	8762	8755	1
3266	8762	8764	1
3258	3257	3268	1
3256	3257	3268	1
3259	3266	3267	1
3259	3266	8762	1
3257	3258	3259	1
3259	3258	3262	1
3259	3260	3261	1
3259	3260	3263	1
3257	3268	3269	1
3257	3268	3270	1
3257	3258	3262	1
3257	3256	3261	1
3257	3256	3264	1
3258	3259	3260	1
3256	3257	3258	1
3256	3261	3260	1
3260	3261	3265	1
3256	3261	3265	1
3261	3260	3263	1
3261	3256	3264	1
3267	3266	8762	1
3269	3268	3270	1
1680	1679	1690	1
1678	1679	1690	1
1661	1667	1690	1
1668	1667	1690	1
1680	1681	1688	1
1682	1681	1688	1
1688	9843	9833	1
1688	9843	9845	1
1679	1690	1691	1
1667	1690	1679	1
1679	1680	1681	1
1679	1680	1684	1
1679	1678	1683	1
1679	1678	1686	1
1681	1688	1689	1
1681	1688	9843	1
1681	1680	1684	1
1681	1682	1683	1
1681	1682	1685	1
1678	1679	1680	1
1680	1681	1682	1
1678	1683	1682	1
1678	1683	1687	1
1682	1683	1687	1
1683	1678	1686	1
1683	1682	1685	1
1667	1690	1691	1
1689	1688	9843	1
9046	9045	9056	1
9044	9045	9056	1
9056	9064	9058	1
9056	9064	9065	1
9046	9047	9054	1
9048	9047	9054	1
9054	10923	10913	1
9054	10923	10925	1
9045	9056	9057	1
9045	9056	9064	1
9045	9046	9047	1
9045	9046	9050	1
9045	9044	9049	1
9045	9044	9052	1
9047	9054	9055	1
9047	9054	10923	1
9047	9046	9050	1
9047	9048	9049	1
9047	9048	9051	1
9044	9045	9046	1
9046	9047	9048	1
9044	9049	9048	1
9044	9049	9053	1
9048	9049	9053	1
9049	9044	9052	1
9049	9048	9051	1
9057	9056	9064	1
9055	9054	10923	1
12453	12452	12463	1
12451	12452	12463	1
12463	8500	8490	1
12463	8500	8502	1
12453	12454	12461	1
12455	12454	12461	1
12461	6036	6026	1
12461	6036	6038	1
12452	12463	12464	1
12452	12463	8500	1
12452	12453	12454	1
12452	12453	12457	1
12452	12451	12456	1
12452	12451	12459	1
12454	12461	12462	1
12454	12461	6036	1
12454	12453	12457	1
12454	12455	12456	1
12454	12455	12458	1
12451	12452	12453	1
12453	12454	12455	1
12451	12456	12455	1
12451	12456	12460	1
12455	12456	12460	1
12456	12451	12459	1
12456	12455	12458	1
12464	12463	8500	1
12462	12461	6036	1
3348	3349	3356	1
3350	3349	3356	1
3356	9085	9075	1
3356	9085	9087	1
3348	3347	3358	1
3346	3347	3358	1
3349	3356	3357	1
3349	3356	9085	1
3347	3348	3349	1
3349	3348	3352	1
3349	3350	3351	1
3349	3350	3353	1
3347	3358	3360	1
3347	3358	3359	1
3347	3348	3352	1
3347	3346	3351	1
3347	3346	3354	1
3348	3349	3350	1
3346	3347	3348	1
3346	3351	3350	1
3350	3351	3355	1
3346	3351	3355	1
3351	3350	3353	1
3351	3346	3354	1
3357	3356	9085	1
3359	3358	3360	1
2688	2687	2698	1
2686	2687	2698	1
2688	2689	2696	1
2690	2689	2696	1
2696	4404	4397	1
2696	4404	4406	1
2687	2698	2700	1
2687	2698	2699	1
2687	2688	2689	1
2687	2688	2692	1
2687	2686	2691	1
2687	2686	2694	1
2689	2696	2697	1
2689	2696	4404	1
2689	2688	2692	1
2689	2690	2691	1
2689	2690	2693	1
2686	2687	2688	1
2688	2689	2690	1
2686	2691	2690	1
2686	2691	2695	1
2690	2691	2695	1
2691	2686	2694	1
2691	2690	2693	1
2700	2698	2699	1
2697	2696	4404	1
2658	2657	2668	1
2656	2657	2668	1
2658	2659	2666	1
2660	2659	2666	1
2666	4084	4077	1
2666	4084	4086	1
2657	2668	2669	1
2657	2668	2670	1
2657	2658	2659	1
2657	2658	2662	1
2657	2656	2661	1
2657	2656	2664	1
2659	2666	2667	1
2659	2666	4084	1
2659	2658	2662	1
2659	2660	2661	1
2659	2660	2663	1
2656	2657	2658	1
2658	2659	2660	1
2656	2661	2660	1
2656	2661	2665	1
2660	2661	2665	1
2661	2656	2664	1
2661	2660	2663	1
2669	2668	2670	1
2667	2666	4084	1
13601	13600	13611	1
13599	13600	13611	1
13611	10133	10126	1
13611	10133	10135	1
13601	13602	13609	1
13603	13602	13609	1
13609	9667	9660	1
13609	9667	9669	1
13600	13611	13612	1
13600	13611	10133	1
13600	13601	13602	1
13600	13601	13605	1
13600	13599	13604	1
13600	13599	13607	1
13602	13609	13610	1
13602	13609	9667	1
13602	13601	13605	1
13602	13603	13604	1
13602	13603	13606	1
13599	13600	13601	1
13601	13602	13603	1
13599	13604	13603	1
13599	13604	13608	1
13603	13604	13608	1
13604	13599	13607	1
13604	13603	13606	1
13612	13611	10133	1
13610	13609	9667	1
7366	7365	7376	1
7364	7365	7376	1
7376	7384	7378	1
7376	7384	7385	1
7366	7367	7374	1
7368	7367	7374	1
7374	9069	9062	1
7374	9069	9071	1
7365	7376	7377	1
7365	7376	7384	1
7365	7366	7367	1
7365	7366	7370	1
7365	7364	7369	1
7365	7364	7372	1
7367	7374	7375	1
7367	7374	9069	1
7367	7366	7370	1
7367	7368	7369	1
7367	7368	7371	1
7364	7365	7366	1
7366	7367	7368	1
7364	7369	7368	1
7364	7369	7373	1
7368	7369	7373	1
7369	7364	7372	1
7369	7368	7371	1
7377	7376	7384	1
7375	7374	9069	1
13531	13530	13541	1
13529	13530	13541	1
13541	9303	9293	1
13541	9303	9305	1
13531	13532	13539	1
13533	13532	13539	1
13539	9026	9016	1
13539	9026	9028	1
13530	13541	13542	1
13530	13541	9303	1
13530	13531	13532	1
13530	13531	13535	1
13530	13529	13534	1
13530	13529	13537	1
13532	13539	13540	1
13532	13539	9026	1
13532	13531	13535	1
13532	13533	13534	1
13532	13533	13536	1
13529	13530	13531	1
13531	13532	13533	1
13529	13534	13533	1
13529	13534	13538	1
13533	13534	13538	1
13534	13529	13537	1
13534	13533	13536	1
13542	13541	9303	1
13540	13539	9026	1
11851	11850	11861	1
11849	11850	11861	1
11861	4941	4934	1
11861	4941	4943	1
11851	11852	11859	1
11853	11852	11859	1
11859	5262	5252	1
11859	5262	5264	1
11850	11861	11862	1
11850	11861	4941	1
11850	11851	11852	1
11850	11851	11855	1
11850	11849	11854	1
11850	11849	11857	1
11852	11859	11860	1
11852	11859	5262	1
11852	11851	11855	1
11852	11853	11854	1
11852	11853	11856	1
11849	11850	11851	1
11851	11852	11853	1
11849	11854	11853	1
11849	11854	11858	1
11853	11854	11858	1
11854	11849	11857	1
11854	11853	11856	1
11862	11861	4941	1
11860	11859	5262	1
12565	12564	12575	1
12563	12564	12575	1
12575	7580	7570	1
12575	7580	7582	1
12565	12566	12573	1
12567	12566	12573	1
12573	6253	6246	1
12573	6253	6255	1
12564	12575	12576	1
12564	12575	7580	1
12564	12565	12566	1
12564	12565	12569	1
12564	12563	12568	1
12564	12563	12571	1
12566	12573	12574	1
12566	12573	6253	1
12566	12565	12569	1
12566	12567	12568	1
12566	12567	12570	1
12563	12564	12565	1
12565	12566	12567	1
12563	12568	12567	1
12563	12568	12572	1
12567	12568	12572	1
12568	12563	12571	1
12568	12567	12570	1
12576	12575	7580	1
12574	12573	6253	1
7847	7846	7857	1
7845	7846	7857	1
7857	7865	7859	1
7857	7865	7866	1
7847	7848	7855	1
7849	7848	7855	1
7855	7967	7961	1
7855	7967	7968	1
7846	7857	7858	1
7846	7857	7865	1
7846	7847	7848	1
7846	7847	7851	1
7846	7845	7850	1
7846	7845	7853	1
7848	7855	7856	1
7848	7855	7967	1
7848	7847	7851	1
7848	7849	7850	1
7848	7849	7852	1
7845	7846	7847	1
7847	7848	7849	1
7845	7850	7849	1
7845	7850	7854	1
7849	7850	7854	1
7850	7845	7853	1
7850	7849	7852	1
7858	7857	7865	1
7856	7855	7967	1
8798	8797	8808	1
8796	8797	8808	1
8808	5685	5675	1
8808	5685	5687	1
8798	8799	8806	1
8800	8799	8806	1
8806	8816	8810	1
8806	8816	8817	1
8797	8808	8809	1
8797	8808	5685	1
8797	8798	8799	1
8797	8798	8802	1
8797	8796	8801	1
8797	8796	8804	1
8799	8806	8807	1
8799	8806	8816	1
8799	8798	8802	1
8799	8800	8801	1
8799	8800	8803	1
8796	8797	8798	1
8798	8799	8800	1
8796	8801	8800	1
8796	8801	8805	1
8800	8801	8805	1
8801	8796	8804	1
8801	8800	8803	1
8809	8808	5685	1
8807	8806	8816	1
11221	11220	11231	1
11219	11220	11231	1
11231	8338	8331	1
11231	8338	8340	1
11221	11222	11229	1
11223	11222	11229	1
11229	3882	3872	1
11229	3882	3884	1
11220	11231	11232	1
11220	11231	8338	1
11220	11221	11222	1
11220	11221	11225	1
11220	11219	11224	1
11220	11219	11227	1
11222	11229	11230	1
11222	11229	3882	1
11222	11221	11225	1
11222	11223	11224	1
11222	11223	11226	1
11219	11220	11221	1
11221	11222	11223	1
11219	11224	11223	1
11219	11224	11228	1
11223	11224	11228	1
11224	11219	11227	1
11224	11223	11226	1
11232	11231	8338	1
11230	11229	3882	1
4700	4699	4710	1
4698	4699	4710	1
4710	4718	4712	1
4710	4718	4719	1
4700	4701	4708	1
4702	4701	4708	1
4708	7550	7543	1
4708	7550	7552	1
4699	4710	4711	1
4699	4710	4718	1
4699	4700	4701	1
4699	4700	4704	1
4699	4698	4703	1
4699	4698	4706	1
4701	4708	4709	1
4701	4708	7550	1
4701	4700	4704	1
4701	4702	4703	1
4701	4702	4705	1
4698	4699	4700	1
4700	4701	4702	1
4698	4703	4702	1
4698	4703	4707	1
4702	4703	4707	1
4703	4698	4706	1
4703	4702	4705	1
4711	4710	4718	1
4709	4708	7550	1
2808	2807	2818	1
2806	2807	2818	1
2808	2809	2816	1
2810	2809	2816	1
2816	5319	5312	1
2816	5319	5321	1
2807	2818	2820	1
2807	2818	2819	1
2807	2808	2809	1
2807	2808	2812	1
2807	2806	2811	1
2807	2806	2814	1
2809	2816	2817	1
2809	2816	5319	1
2809	2808	2812	1
2809	2810	2811	1
2809	2810	2813	1
2806	2807	2808	1
2808	2809	2810	1
2806	2811	2810	1
2806	2811	2815	1
2810	2811	2815	1
2811	2806	2814	1
2811	2810	2813	1
2820	2818	2819	1
2817	2816	5319	1
1556	1555	1566	1
1554	1555	1566	1
1537	1543	1566	1
1544	1543	1566	1
1556	1557	1564	1
1558	1557	1564	1
669	676	1564	1
678	676	1564	1
1555	1566	1567	1
1543	1566	1555	1
1555	1556	1557	1
1555	1556	1560	1
1555	1554	1559	1
1555	1554	1562	1
1557	1564	1565	1
676	1564	1557	1
1557	1556	1560	1
1557	1558	1559	1
1557	1558	1561	1
1554	1555	1556	1
1556	1557	1558	1
1554	1559	1558	1
1554	1559	1563	1
1558	1559	1563	1
1559	1554	1562	1
1559	1558	1561	1
1543	1566	1567	1
676	1564	1565	1
11375	11374	11385	1
11373	11374	11385	1
11385	9521	9511	1
11385	9521	9523	1
11375	11376	11383	1
11377	11376	11383	1
11383	4171	4164	1
11383	4171	4173	1
11374	11385	11386	1
11374	11385	9521	1
11374	11375	11376	1
11374	11375	11379	1
11374	11373	11378	1
11374	11373	11381	1
11376	11383	11384	1
11376	11383	4171	1
11376	11375	11379	1
11376	11377	11378	1
11376	11377	11380	1
11373	11374	11375	1
11375	11376	11377	1
11373	11378	11377	1
11373	11378	11382	1
11377	11378	11382	1
11378	11373	11381	1
11378	11377	11380	1
11386	11385	9521	1
11384	11383	4171	1
4468	4467	4478	1
4466	4467	4478	1
4478	4486	4480	1
4478	4486	4487	1
4468	4469	4476	1
4470	4469	4476	1
4476	6093	6086	1
4476	6093	6095	1
4467	4478	4479	1
4467	4478	4486	1
4467	4468	4469	1
4467	4468	4472	1
4467	4466	4471	1
4467	4466	4474	1
4469	4476	4477	1
4469	4476	6093	1
4469	4468	4472	1
4469	4470	4471	1
4469	4470	4473	1
4466	4467	4468	1
4468	4469	4470	1
4466	4471	4470	1
4466	4471	4475	1
4470	4471	4475	1
4471	4466	4474	1
4471	4470	4473	1
4479	4478	4486	1
4477	4476	6093	1
8153	8152	8163	1
8151	8152	8163	1
8163	8171	8165	1
8163	8171	8172	1
8153	8154	8161	1
8155	8154	8161	1
8161	5203	5196	1
8161	5203	5205	1
8152	8163	8164	1
8152	8163	8171	1
8152	8153	8154	1
8152	8153	8157	1
8152	8151	8156	1
8152	8151	8159	1
8154	8161	8162	1
8154	8161	5203	1
8154	8153	8157	1
8154	8155	8156	1
8154	8155	8158	1
8151	8152	8153	1
8153	8154	8155	1
8151	8156	8155	1
8151	8156	8160	1
8155	8156	8160	1
8156	8151	8159	1
8156	8155	8158	1
8164	8163	8171	1
8162	8161	5203	1
2973	2972	2983	1
2971	2972	2983	1
2973	2974	2981	1
2975	2974	2981	1
2981	6575	6565	1
2981	6575	6577	1
2972	2983	2985	1
2972	2983	2984	1
2972	2973	2974	1
2972	2973	2977	1
2972	2971	2976	1
2972	2971	2979	1
2974	2981	2982	1
2974	2981	6575	1
2974	2973	2977	1
2974	2975	2976	1
2974	2975	2978	1
2971	2972	2973	1
2973	2974	2975	1
2971	2976	2975	1
2971	2976	2980	1
2975	2976	2980	1
2976	2971	2979	1
2976	2975	2978	1
2985	2983	2984	1
2982	2981	6575	1
7905	7904	7915	1
7903	7904	7915	1
7915	7923	7917	1
7915	7923	7924	1
7905	7906	7913	1
7907	7906	7913	1
7913	4113	4106	1
7913	4113	4115	1
7904	7915	7916	1
7904	7915	7923	1
7904	7905	7906	1
7904	7905	7909	1
7904	7903	7908	1
7904	7903	7911	1
7906	7913	7914	1
7906	7913	4113	1
7906	7905	7909	1
7906	7907	7908	1
7906	7907	7910	1
7903	7904	7905	1
7905	7906	7907	1
7903	7908	7907	1
7903	7908	7912	1
7907	7908	7912	1
7908	7903	7911	1
7908	7907	7910	1
7916	7915	7923	1
7914	7913	4113	1
12033	12032	12043	1
12031	12032	12043	1
12043	5392	5385	1
12043	5392	5394	1
12033	12034	12041	1
12035	12034	12041	1
12041	9564	9557	1
12041	9564	9566	1
12032	12043	12044	1
12032	12043	5392	1
12032	12033	12034	1
12032	12033	12037	1
12032	12031	12036	1
12032	12031	12039	1
12034	12041	12042	1
12034	12041	9564	1
12034	12033	12037	1
12034	12035	12036	1
12034	12035	12038	1
12031	12032	12033	1
12033	12034	12035	1
12031	12036	12035	1
12031	12036	12040	1
12035	12036	12040	1
12036	12031	12039	1
12036	12035	12038	1
12044	12043	5392	1
12042	12041	9564	1
6871	6870	6881	1
6869	6870	6881	1
6881	6889	6883	1
6881	6889	6890	1
6871	6872	6879	1
6873	6872	6879	1
6879	6574	6567	1
6879	6574	6576	1
6870	6881	6882	1
6870	6881	6889	1
6870	6871	6872	1
6870	6871	6875	1
6870	6869	6874	1
6870	6869	6877	1
6872	6879	6880	1
6872	6879	6574	1
6872	6871	6875	1
6872	6873	6874	1
6872	6873	6876	1
6869	6870	6871	1
6871	6872	6873	1
6869	6874	6873	1
6869	6874	6878	1
6873	6874	6878	1
6874	6869	6877	1
6874	6873	6876	1
6882	6881	6889	1
6880	6879	6574	1
343	342	353	1
341	342	353	1
353	6117	6111	1
353	6117	6118	1
343	344	351	1
345	344	351	1
324	330	351	1
331	330	351	1
342	353	354	1
342	353	6117	1
342	343	344	1
342	343	347	1
342	341	346	1
342	341	349	1
344	351	352	1
330	351	344	1
344	343	347	1
344	345	346	1
344	345	348	1
341	342	343	1
343	344	345	1
341	346	345	1
341	346	350	1
345	346	350	1
346	341	349	1
346	345	348	1
354	353	6117	1
330	351	352	1
11445	11444	11455	1
11443	11444	11455	1
11455	4258	4251	1
11455	4258	4260	1
11445	11446	11453	1
11447	11446	11453	1
1448	1455	11453	1
1457	1455	11453	1
11444	11455	11456	1
11444	11455	4258	1
11444	11445	11446	1
11444	11445	11449	1
11444	11443	11448	1
11444	11443	11451	1
11446	11453	11454	1
1455	11453	11446	1
11446	11445	11449	1
11446	11447	11448	1
11446	11447	11450	1
11443	11444	11445	1
11445	11446	11447	1
11443	11448	11447	1
11443	11448	11452	1
11447	11448	11452	1
11448	11443	11451	1
11448	11447	11450	1
11456	11455	4258	1
1455	11453	11454	1
7760	7759	7770	1
7758	7759	7770	1
7770	9989	9979	1
7770	9989	9991	1
7760	7761	7768	1
7762	7761	7768	1
7768	7778	7772	1
7768	7778	7779	1
7759	7770	7771	1
7759	7770	9989	1
7759	7760	7761	1
7759	7760	7764	1
7759	7758	7763	1
7759	7758	7766	1
7761	7768	7769	1
7761	7768	7778	1
7761	7760	7764	1
7761	7762	7763	1
7761	7762	7765	1
7758	7759	7760	1
7760	7761	7762	1
7758	7763	7762	1
7758	7763	7767	1
7762	7763	7767	1
7763	7758	7766	1
7763	7762	7765	1
7771	7770	9989	1
7769	7768	7778	1
4526	4525	4536	1
4524	4525	4536	1
4536	4544	4538	1
4536	4544	4545	1
4526	4527	4534	1
4528	4527	4534	1
4534	8953	8943	1
4534	8953	8955	1
4525	4536	4537	1
4525	4536	4544	1
4525	4526	4527	1
4525	4526	4530	1
4525	4524	4529	1
4525	4524	4532	1
4527	4534	4535	1
4527	4534	8953	1
4527	4526	4530	1
4527	4528	4529	1
4527	4528	4531	1
4524	4525	4526	1
4526	4527	4528	1
4524	4529	4528	1
4524	4529	4533	1
4528	4529	4533	1
4529	4524	4532	1
4529	4528	4531	1
4537	4536	4544	1
4535	4534	8953	1
13629	13628	13639	1
13627	13628	13639	1
13639	11054	11047	1
13639	11054	11056	1
13629	13630	13637	1
13631	13630	13637	1
13637	9901	9891	1
13637	9901	9903	1
13628	13639	13640	1
13628	13639	11054	1
13628	13629	13630	1
13628	13629	13633	1
13628	13627	13632	1
13628	13627	13635	1
13630	13637	13638	1
13630	13637	9901	1
13630	13629	13633	1
13630	13631	13632	1
13630	13631	13634	1
13627	13628	13629	1
13629	13630	13631	1
13627	13632	13631	1
13627	13632	13636	1
13631	13632	13636	1
13632	13627	13635	1
13632	13631	13634	1
13640	13639	11054	1
13638	13637	9901	1
6507	6506	6517	1
6505	6506	6517	1
6517	6525	6519	1
6517	6525	6526	1
6507	6508	6515	1
6509	6508	6515	1
6515	8075	8065	1
6515	8075	8077	1
6506	6517	6518	1
6506	6517	6525	1
6506	6507	6508	1
6506	6507	6511	1
6506	6505	6510	1
6506	6505	6513	1
6508	6515	6516	1
6508	6515	8075	1
6508	6507	6511	1
6508	6509	6510	1
6508	6509	6512	1
6505	6506	6507	1
6507	6508	6509	1
6505	6510	6509	1
6505	6510	6514	1
6509	6510	6514	1
6510	6505	6513	1
6510	6509	6512	1
6518	6517	6525	1
6516	6515	8075	1
6362	6361	6372	1
6360	6361	6372	1
6372	6380	6374	1
6372	6380	6381	1
6362	6363	6370	1
6364	6363	6370	1
6370	10250	10240	1
6370	10250	10252	1
6361	6372	6373	1
6361	6372	6380	1
6361	6362	6363	1
6361	6362	6366	1
6361	6360	6365	1
6361	6360	6368	1
6363	6370	6371	1
6363	6370	10250	1
6363	6362	6366	1
6363	6364	6365	1
6363	6364	6367	1
6360	6361	6362	1
6362	6363	6364	1
6360	6365	6364	1
6360	6365	6369	1
6364	6365	6369	1
6365	6360	6368	1
6365	6364	6367	1
6373	6372	6380	1
6371	6370	10250	1
3663	3662	3673	1
3661	3662	3673	1
3663	3664	3671	1
3665	3664	3671	1
3671	10980	10973	1
3671	10980	10982	1
3662	3673	3675	1
3662	3673	3674	1
3662	3663	3664	1
3662	3663	3667	1
3662	3661	3666	1
3662	3661	3669	1
3664	3671	3672	1
3664	3671	10980	1
3664	3663	3667	1
3664	3665	3666	1
3664	3665	3668	1
3661	3662	3663	1
3663	3664	3665	1
3661	3666	3665	1
3661	3666	3670	1
3665	3666	3670	1
3666	3661	3669	1
3666	3665	3668	1
3674	3673	3675	1
3672	3671	10980	1
12481	12480	12491	1
12479	12480	12491	1
12491	6094	6084	1
12491	6094	6096	1
12481	12482	12489	1
12483	12482	12489	1
12489	10995	10988	1
12489	10995	10997	1
12480	12491	12492	1
12480	12491	6094	1
12480	12481	12482	1
12480	12481	12485	1
12480	12479	12484	1
12480	12479	12487	1
12482	12489	12490	1
12482	12489	10995	1
12482	12481	12485	1
12482	12483	12484	1
12482	12483	12486	1
12479	12480	12481	1
12481	12482	12483	1
12479	12484	12483	1
12479	12484	12488	1
12483	12484	12488	1
12484	12479	12487	1
12484	12483	12486	1
12492	12491	6094	1
12490	12489	10995	1
2535	2534	2545	1
2533	2534	2545	1
2545	7399	7393	1
2545	7399	7400	1
2535	2536	2543	1
2537	2536	2543	1
2516	2522	2543	1
2523	2522	2543	1
2534	2545	2546	1
2534	2545	7399	1
2534	2535	2536	1
2534	2535	2539	1
2534	2533	2538	1
2534	2533	2541	1
2536	2543	2544	1
2522	2543	2536	1
2536	2535	2539	1
2536	2537	2538	1
2536	2537	2540	1
2533	2534	2535	1
2535	2536	2537	1
2533	2538	2537	1
2533	2538	2542	1
2537	2538	2542	1
2538	2533	2541	1
2538	2537	2540	1
2546	2545	7399	1
2522	2543	2544	1
3018	3017	3028	1
3016	3017	3028	1
3018	3019	3026	1
3020	3019	3026	1
3026	6933	6927	1
3026	6933	6934	1
3017	3028	3030	1
3017	3028	3029	1
3017	3018	3019	1
3017	3018	3022	1
3017	3016	3021	1
3017	3016	3024	1
3019	3026	3027	1
3019	3026	6933	1
3019	3018	3022	1
3019	3020	3021	1
3019	3020	3023	1
3016	3017	3018	1
3018	3019	3020	1
3016	3021	3020	1
3016	3021	3025	1
3020	3021	3025	1
3021	3016	3024	1
3021	3020	3023	1
3030	3028	3029	1
3027	3026	6933	1
6580	6579	6590	1
6578	6579	6590	1
6590	6598	6592	1
6590	6598	6599	1
6580	6581	6588	1
6582	6581	6588	1
6588	8113	8107	1
6588	8113	8114	1
6579	6590	6591	1
6579	6590	6598	1
6579	6580	6581	1
6579	6580	6584	1
6579	6578	6583	1
6579	6578	6586	1
6581	6588	6589	1
6581	6588	8113	1
6581	6580	6584	1
6581	6582	6583	1
6581	6582	6585	1
6578	6579	6580	1
6580	6581	6582	1
6578	6583	6582	1
6578	6583	6587	1
6582	6583	6587	1
6583	6578	6586	1
6583	6582	6585	1
6591	6590	6598	1
6589	6588	8113	1
994	993	1004	1
992	993	1004	1
1004	9711	9704	1
1004	9711	9713	1
994	995	1002	1
996	995	1002	1
975	981	1002	1
982	981	1002	1
993	1004	1005	1
993	1004	9711	1
993	994	995	1
993	994	998	1
993	992	997	1
993	992	1000	1
995	1002	1003	1
981	1002	995	1
995	994	998	1
995	996	997	1
995	996	999	1
992	993	994	1
994	995	996	1
992	997	996	1
992	997	1001	1
996	997	1001	1
997	992	1000	1
997	996	999	1
1005	1004	9711	1
981	1002	1003	1
777	776	787	1
775	776	787	1
758	764	787	1
765	764	787	1
777	778	785	1
779	778	785	1
1307	1314	785	1
1316	1314	785	1
776	787	788	1
764	787	776	1
776	777	778	1
776	777	781	1
776	775	780	1
776	775	783	1
778	785	786	1
1314	785	778	1
778	777	781	1
778	779	780	1
778	779	782	1
775	776	777	1
777	778	779	1
775	780	779	1
775	780	784	1
779	780	784	1
780	775	783	1
780	779	782	1
764	787	788	1
1314	785	786	1
1339	1340	1347	1
1341	1340	1347	1
1320	1326	1347	1
1327	1326	1347	1
1339	1338	1349	1
1337	1338	1349	1
1349	5591	5585	1
1349	5591	5592	1
1340	1347	1348	1
1326	1347	1340	1
1340	1339	1338	1
1340	1339	1343	1
1340	1341	1342	1
1340	1341	1344	1
1338	1349	1350	1
1338	1349	5591	1
1338	1339	1343	1
1338	1337	1342	1
1338	1337	1345	1
1341	1340	1339	1
1339	1338	1337	1
1341	1342	1337	1
1341	1342	1346	1
1337	1342	1346	1
1342	1341	1344	1
1342	1337	1345	1
1326	1347	1348	1
1350	1349	5591	1
3798	3797	3808	1
3796	3797	3808	1
3798	3799	3806	1
3800	3799	3806	1
1479	1486	3806	1
1488	1486	3806	1
3797	3808	3810	1
3797	3808	3809	1
3797	3798	3799	1
3797	3798	3802	1
3797	3796	3801	1
3797	3796	3804	1
3799	3806	3807	1
1486	3806	3799	1
3799	3798	3802	1
3799	3800	3801	1
3799	3800	3803	1
3796	3797	3798	1
3798	3799	3800	1
3796	3801	3800	1
3796	3801	3805	1
3800	3801	3805	1
3801	3796	3804	1
3801	3800	3803	1
3810	3808	3809	1
1486	3806	3807	1
12145	12144	12155	1
12143	12144	12155	1
12155	9652	9645	1
12155	9652	9654	1
12145	12146	12153	1
12147	12146	12153	1
12153	5596	5589	1
12153	5596	5598	1
12144	12155	12156	1
12144	12155	9652	1
12144	12145	12146	1
12144	12145	12149	1
12144	12143	12148	1
12144	12143	12151	1
12146	12153	12154	1
12146	12153	5596	1
12146	12145	12149	1
12146	12147	12148	1
12146	12147	12150	1
12143	12144	12145	1
12145	12146	12147	1
12143	12148	12147	1
12143	12148	12152	1
12147	12148	12152	1
12148	12143	12151	1
12148	12147	12150	1
12156	12155	9652	1
12154	12153	5596	1
13363	13364	13371	1
13365	13364	13371	1
13371	8617	8607	1
13371	8617	8619	1
13363	13362	13373	1
13361	13362	13373	1
13373	8383	8373	1
13373	8383	8385	1
13364	13371	13372	1
13364	13371	8617	1
13364	13363	13362	1
13364	13363	13367	1
13364	13365	13366	1
13364	13365	13368	1
13362	13373	13374	1
13362	13373	8383	1
13362	13363	13367	1
13362	13361	13366	1
13362	13361	13369	1
13365	13364	13363	1
13363	13362	13361	1
13365	13366	13361	1
13365	13366	13370	1
13361	13366	13370	1
13366	13365	13368	1
13366	13361	13369	1
13372	13371	8617	1
13374	13373	8383	1
12103	12102	12113	1
12101	12102	12113	1
12113	5553	5543	1
12113	5553	5555	1
12103	12104	12111	1
12105	12104	12111	1
12111	5742	5735	1
12111	5742	5744	1
12102	12113	12114	1
12102	12113	5553	1
12102	12103	12104	1
12102	12103	12107	1
12102	12101	12106	1
12102	12101	12109	1
12104	12111	12112	1
12104	12111	5742	1
12104	12103	12107	1
12104	12105	12106	1
12104	12105	12108	1
12101	12102	12103	1
12103	12104	12105	1
12101	12106	12105	1
12101	12106	12110	1
12105	12106	12110	1
12106	12101	12109	1
12106	12105	12108	1
12114	12113	5553	1
12112	12111	5742	1
9192	9191	9202	1
9190	9191	9202	1
9202	9210	9204	1
9202	9210	9211	1
9192	9193	9200	1
9194	9193	9200	1
9200	4913	4903	1
9200	4913	4915	1
9191	9202	9203	1
9191	9202	9210	1
9191	9192	9193	1
9191	9192	9196	1
9191	9190	9195	1
9191	9190	9198	1
9193	9200	9201	1
9193	9200	4913	1
9193	9192	9196	1
9193	9194	9195	1
9193	9194	9197	1
9190	9191	9192	1
9192	9193	9194	1
9190	9195	9194	1
9190	9195	9199	1
9194	9195	9199	1
9195	9190	9198	1
9195	9194	9197	1
9203	9202	9210	1
9201	9200	4913	1
1197	1196	1207	1
1195	1196	1207	1
1207	5825	5819	1
1207	5825	5826	1
1197	1198	1205	1
1199	1198	1205	1
1178	1184	1205	1
1185	1184	1205	1
1196	1207	1208	1
1196	1207	5825	1
1196	1197	1198	1
1196	1197	1201	1
1196	1195	1200	1
1196	1195	1203	1
1198	1205	1206	1
1184	1205	1198	1
1198	1197	1201	1
1198	1199	1200	1
1198	1199	1202	1
1195	1196	1197	1
1197	1198	1199	1
1195	1200	1199	1
1195	1200	1204	1
1199	1200	1204	1
1200	1195	1203	1
1200	1199	1202	1
1208	1207	5825	1
1184	1205	1206	1
12915	12914	12925	1
12913	12914	12925	1
12925	7201	7191	1
12925	7201	7203	1
12915	12916	12923	1
12917	12916	12923	1
12923	7419	7412	1
12923	7419	7421	1
12914	12925	12926	1
12914	12925	7201	1
12914	12915	12916	1
12914	12915	12919	1
12914	12913	12918	1
12914	12913	12921	1
12916	12923	12924	1
12916	12923	7419	1
12916	12915	12919	1
12916	12917	12918	1
12916	12917	12920	1
12913	12914	12915	1
12915	12916	12917	1
12913	12918	12917	1
12913	12918	12922	1
12917	12918	12922	1
12918	12913	12921	1
12918	12917	12920	1
12926	12925	7201	1
12924	12923	7419	1
3513	3512	3523	1
3511	3512	3523	1
3513	3514	3521	1
3515	3514	3521	1
3521	9668	9658	1
3521	9668	9670	1
3512	3523	3524	1
3512	3523	3525	1
3512	3513	3514	1
3512	3513	3517	1
3512	3511	3516	1
3512	3511	3519	1
3514	3521	3522	1
3514	3521	9668	1
3514	3513	3517	1
3514	3515	3516	1
3514	3515	3518	1
3511	3512	3513	1
3513	3514	3515	1
3511	3516	3515	1
3511	3516	3520	1
3515	3516	3520	1
3516	3511	3519	1
3516	3515	3518	1
3524	3523	3525	1
3522	3521	9668	1
3093	3094	3101	1
3095	3094	3101	1
3101	7589	7583	1
3101	7589	7590	1
3093	3092	3103	1
3091	3092	3103	1
3094	3101	3102	1
3094	3101	7589	1
3092	3093	3094	1
3094	3093	3097	1
3094	3095	3096	1
3094	3095	3098	1
3092	3103	3105	1
3092	3103	3104	1
3092	3093	3097	1
3092	3091	3096	1
3092	3091	3099	1
3093	3094	3095	1
3091	3092	3093	1
3091	3096	3095	1
3095	3096	3100	1
3091	3096	3100	1
3096	3095	3098	1
3096	3091	3099	1
3102	3101	7589	1
3105	3103	3104	1
12775	12774	12785	1
12773	12774	12785	1
12785	6866	6856	1
12785	6866	6868	1
12775	12776	12783	1
12777	12776	12783	1
12783	6735	6725	1
12783	6735	6737	1
12774	12785	12786	1
12774	12785	6866	1
12774	12775	12776	1
12774	12775	12779	1
12774	12773	12778	1
12774	12773	12781	1
12776	12783	12784	1
12776	12783	6735	1
12776	12775	12779	1
12776	12777	12778	1
12776	12777	12780	1
12773	12774	12775	1
12775	12776	12777	1
12773	12778	12777	1
12773	12778	12782	1
12777	12778	12782	1
12778	12773	12781	1
12778	12777	12780	1
12786	12785	6866	1
12784	12783	6735	1
3108	3107	3118	1
3106	3107	3118	1
3108	3109	3116	1
3110	3109	3116	1
3116	7662	7656	1
3116	7662	7663	1
3107	3118	3120	1
3107	3118	3119	1
3107	3108	3109	1
3107	3108	3112	1
3107	3106	3111	1
3107	3106	3114	1
3109	3116	3117	1
3109	3116	7662	1
3109	3108	3112	1
3109	3110	3111	1
3109	3110	3113	1
3106	3107	3108	1
3108	3109	3110	1
3106	3111	3110	1
3106	3111	3115	1
3110	3111	3115	1
3111	3106	3114	1
3111	3110	3113	1
3120	3118	3119	1
3117	3116	7662	1
8124	8123	8134	1
8122	8123	8134	1
8134	8142	8136	1
8134	8142	8143	1
8124	8125	8132	1
8126	8125	8132	1
8132	8119	8109	1
8132	8119	8121	1
8123	8134	8135	1
8123	8134	8142	1
8123	8124	8125	1
8123	8124	8128	1
8123	8122	8127	1
8123	8122	8130	1
8125	8132	8133	1
8125	8132	8119	1
8125	8124	8128	1
8125	8126	8127	1
8125	8126	8129	1
8122	8123	8124	1
8124	8125	8126	1
8122	8127	8126	1
8122	8127	8131	1
8126	8127	8131	1
8127	8122	8130	1
8127	8126	8129	1
8135	8134	8142	1
8133	8132	8119	1
12509	12508	12519	1
12507	12508	12519	1
12519	6180	6173	1
12519	6180	6182	1
12509	12510	12517	1
12511	12510	12517	1
12517	7084	7077	1
12517	7084	7086	1
12508	12519	12520	1
12508	12519	6180	1
12508	12509	12510	1
12508	12509	12513	1
12508	12507	12512	1
12508	12507	12515	1
12510	12517	12518	1
12510	12517	7084	1
12510	12509	12513	1
12510	12511	12512	1
12510	12511	12514	1
12507	12508	12509	1
12509	12510	12511	1
12507	12512	12511	1
12507	12512	12516	1
12511	12512	12516	1
12512	12507	12515	1
12512	12511	12514	1
12520	12519	6180	1
12518	12517	7084	1
4090	4089	4100	1
4088	4089	4100	1
4100	4108	4102	1
4100	4108	4109	1
4090	4091	4098	1
4092	4091	4098	1
4098	9041	9031	1
4098	9041	9043	1
4089	4100	4101	1
4089	4100	4108	1
4089	4090	4091	1
4089	4090	4094	1
4089	4088	4093	1
4089	4088	4096	1
4091	4098	4099	1
4091	4098	9041	1
4091	4090	4094	1
4091	4092	4093	1
4091	4092	4095	1
4088	4089	4090	1
4090	4091	4092	1
4088	4093	4092	1
4088	4093	4097	1
4092	4093	4097	1
4093	4088	4096	1
4093	4092	4095	1
4101	4100	4108	1
4099	4098	9041	1
11753	11752	11763	1
11751	11752	11763	1
11763	4810	4803	1
11763	4810	4812	1
11753	11754	11761	1
11755	11754	11761	1
11761	6865	6858	1
11761	6865	6867	1
11752	11763	11764	1
11752	11763	4810	1
11752	11753	11754	1
11752	11753	11757	1
11752	11751	11756	1
11752	11751	11759	1
11754	11761	11762	1
11754	11761	6865	1
11754	11753	11757	1
11754	11755	11756	1
11754	11755	11758	1
11751	11752	11753	1
11753	11754	11755	1
11751	11756	11755	1
11751	11756	11760	1
11755	11756	11760	1
11756	11751	11759	1
11756	11755	11758	1
11764	11763	4810	1
11762	11761	6865	1
9395	9394	9405	1
9393	9394	9405	1
9405	9413	9407	1
9405	9413	9414	1
9395	9396	9403	1
9397	9396	9403	1
9403	10221	10211	1
9403	10221	10223	1
9394	9405	9406	1
9394	9405	9413	1
9394	9395	9396	1
9394	9395	9399	1
9394	9393	9398	1
9394	9393	9401	1
9396	9403	9404	1
9396	9403	10221	1
9396	9395	9399	1
9396	9397	9398	1
9396	9397	9400	1
9393	9394	9395	1
9395	9396	9397	1
9393	9398	9397	1
9393	9398	9402	1
9397	9398	9402	1
9398	9393	9401	1
9398	9397	9400	1
9406	9405	9413	1
9404	9403	10221	1
12803	12802	12813	1
12801	12802	12813	1
1696	1703	12813	1
1705	1703	12813	1
12803	12804	12811	1
12805	12804	12811	1
12811	6793	6783	1
12811	6793	6795	1
12802	12813	12814	1
1703	12813	12802	1
12802	12803	12804	1
12802	12803	12807	1
12802	12801	12806	1
12802	12801	12809	1
12804	12811	12812	1
12804	12811	6793	1
12804	12803	12807	1
12804	12805	12806	1
12804	12805	12808	1
12801	12802	12803	1
12803	12804	12805	1
12801	12806	12805	1
12801	12806	12810	1
12805	12806	12810	1
12806	12801	12809	1
12806	12805	12808	1
1703	12813	12814	1
12812	12811	6793	1
13811	13810	13821	1
13809	13810	13821	1
1976	1983	13821	1
1985	1983	13821	1
13811	13812	13819	1
13813	13812	13819	1
514	521	13819	1
523	521	13819	1
13810	13821	13822	1
1983	13821	13810	1
13810	13811	13812	1
13810	13811	13815	1
13810	13809	13814	1
13810	13809	13817	1
13812	13819	13820	1
521	13819	13812	1
13812	13811	13815	1
13812	13813	13814	1
13812	13813	13816	1
13809	13810	13811	1
13811	13812	13813	1
13809	13814	13813	1
13809	13814	13818	1
13813	13814	13818	1
13814	13809	13817	1
13814	13813	13816	1
1983	13821	13822	1
521	13819	13820	1
10519	10518	10529	1
10517	10518	10529	1
10529	10537	10531	1
10529	10537	10538	1
10519	10520	10527	1
10521	10520	10527	1
10527	6209	6202	1
10527	6209	6211	1
10518	10529	10530	1
10518	10529	10537	1
10518	10519	10520	1
10518	10519	10523	1
10518	10517	10522	1
10518	10517	10525	1
10520	10527	10528	1
10520	10527	6209	1
10520	10519	10523	1
10520	10521	10522	1
10520	10521	10524	1
10517	10518	10519	1
10519	10520	10521	1
10517	10522	10521	1
10517	10522	10526	1
10521	10522	10526	1
10522	10517	10525	1
10522	10521	10524	1
10530	10529	10537	1
10528	10527	6209	1
9614	9613	9624	1
9612	9613	9624	1
9624	9632	9626	1
9624	9632	9633	1
9614	9615	9622	1
9616	9615	9622	1
9622	4172	4162	1
9622	4172	4174	1
9613	9624	9625	1
9613	9624	9632	1
9613	9614	9615	1
9613	9614	9618	1
9613	9612	9617	1
9613	9612	9620	1
9615	9622	9623	1
9615	9622	4172	1
9615	9614	9618	1
9615	9616	9617	1
9615	9616	9619	1
9612	9613	9614	1
9614	9615	9616	1
9612	9617	9616	1
9612	9617	9621	1
9616	9617	9621	1
9617	9612	9620	1
9617	9616	9619	1
9625	9624	9632	1
9623	9622	4172	1
3813	3814	3821	1
3815	3814	3821	1
2396	2403	3821	1
2405	2403	3821	1
3813	3812	3823	1
3811	3812	3823	1
3814	3821	3822	1
2403	3821	3814	1
3812	3813	3814	1
3814	3813	3817	1
3814	3815	3816	1
3814	3815	3818	1
3812	3823	3824	1
3812	3823	3825	1
3812	3813	3817	1
3812	3811	3816	1
3812	3811	3819	1
3813	3814	3815	1
3811	3812	3813	1
3811	3816	3815	1
3815	3816	3820	1
3811	3816	3820	1
3816	3815	3818	1
3816	3811	3819	1
2403	3821	3822	1
3824	3823	3825	1
12495	12494	12505	1
12493	12494	12505	1
12505	6123	6113	1
12505	6123	6125	1
12495	12496	12503	1
12497	12496	12503	1
12503	7595	7585	1
12503	7595	7597	1
12494	12505	12506	1
12494	12505	6123	1
12494	12495	12496	1
12494	12495	12499	1
12494	12493	12498	1
12494	12493	12501	1
12496	12503	12504	1
12496	12503	7595	1
12496	12495	12499	1
12496	12497	12498	1
12496	12497	12500	1
12493	12494	12495	1
12495	12496	12497	1
12493	12498	12497	1
12493	12498	12502	1
12497	12498	12502	1
12498	12493	12501	1
12498	12497	12500	1
12506	12505	6123	1
12504	12503	7595	1
13433	13432	13443	1
13431	13432	13443	1
13443	8660	8653	1
13443	8660	8662	1
13433	13434	13441	1
13435	13434	13441	1
13441	9682	9675	1
13441	9682	9684	1
13432	13443	13444	1
13432	13443	8660	1
13432	13433	13434	1
13432	13433	13437	1
13432	13431	13436	1
13432	13431	13439	1
13434	13441	13442	1
13434	13441	9682	1
13434	13433	13437	1
13434	13435	13436	1
13434	13435	13438	1
13431	13432	13433	1
13433	13434	13435	1
13431	13436	13435	1
13431	13436	13440	1
13435	13436	13440	1
13436	13431	13439	1
13436	13435	13438	1
13444	13443	8660	1
13442	13441	9682	1
622	621	632	1
620	621	632	1
603	609	632	1
610	609	632	1
622	623	630	1
624	623	630	1
630	4389	4382	1
630	4389	4391	1
621	632	633	1
609	632	621	1
621	622	623	1
621	622	626	1
621	620	625	1
621	620	628	1
623	630	631	1
623	630	4389	1
623	622	626	1
623	624	625	1
623	624	627	1
620	621	622	1
622	623	624	1
620	625	624	1
620	625	629	1
624	625	629	1
625	620	628	1
625	624	627	1
609	632	633	1
631	630	4389	1
13405	13404	13415	1
13403	13404	13415	1
13415	8427	8417	1
13415	8427	8429	1
13405	13406	13413	1
13407	13406	13413	1
13413	8499	8492	1
13413	8499	8501	1
13404	13415	13416	1
13404	13415	8427	1
13404	13405	13406	1
13404	13405	13409	1
13404	13403	13408	1
13404	13403	13411	1
13406	13413	13414	1
13406	13413	8499	1
13406	13405	13409	1
13406	13407	13408	1
13406	13407	13410	1
13403	13404	13405	1
13405	13406	13407	1
13403	13408	13407	1
13403	13408	13412	1
13407	13408	13412	1
13408	13403	13411	1
13408	13407	13410	1
13416	13415	8427	1
13414	13413	8499	1
12943	12944	12951	1
12945	12944	12951	1
12951	8031	8021	1
12951	8031	8033	1
12943	12942	12953	1
12941	12942	12953	1
12953	7360	7353	1
12953	7360	7362	1
12944	12951	12952	1
12944	12951	8031	1
12944	12943	12942	1
12944	12943	12947	1
12944	12945	12946	1
12944	12945	12948	1
12942	12953	12954	1
12942	12953	7360	1
12942	12943	12947	1
12942	12941	12946	1
12942	12941	12949	1
12945	12944	12943	1
12943	12942	12941	1
12945	12946	12941	1
12945	12946	12950	1
12941	12946	12950	1
12946	12945	12948	1
12946	12941	12949	1
12952	12951	8031	1
12954	12953	7360	1
2793	2794	2801	1
2795	2794	2801	1
2801	5261	5254	1
2801	5261	5263	1
2793	2792	2803	1
2791	2792	2803	1
2794	2801	2802	1
2794	2801	5261	1
2792	2793	2794	1
2794	2793	2797	1
2794	2795	2796	1
2794	2795	2798	1
2792	2803	2804	1
2792	2803	2805	1
2792	2793	2797	1
2792	2791	2796	1
2792	2791	2799	1
2793	2794	2795	1
2791	2792	2793	1
2791	2796	2795	1
2795	2796	2800	1
2791	2796	2800	1
2796	2795	2798	1
2796	2791	2799	1
2802	2801	5261	1
2805	2803	2804	1
1804	1803	1814	1
1802	1803	1814	1
1814	10410	10403	1
1814	10410	10412	1
1804	1805	1812	1
1806	1805	1812	1
1785	1791	1812	1
1792	1791	1812	1
1803	1814	1815	1
1803	1814	10410	1
1803	1804	1805	1
1803	1804	1808	1
1803	1802	1807	1
1803	1802	1810	1
1805	1812	1813	1
1791	1812	1805	1
1805	1804	1808	1
1805	1806	1807	1
1805	1806	1809	1
1802	1803	1804	1
1804	1805	1806	1
1802	1807	1806	1
1802	1807	1811	1
1806	1807	1811	1
1807	1802	1810	1
1807	1806	1809	1
1815	1814	10410	1
1791	1812	1813	1
11105	11104	11115	1
11103	11104	11115	1
2568	2575	11115	1
2577	2575	11115	1
11105	11106	11113	1
11107	11106	11113	1
11113	11123	11117	1
11113	11123	11124	1
11104	11115	11116	1
2575	11115	11104	1
11104	11105	11106	1
11104	11105	11109	1
11104	11103	11108	1
11104	11103	11111	1
11106	11113	11114	1
11106	11113	11123	1
11106	11105	11109	1
11106	11107	11108	1
11106	11107	11110	1
11103	11104	11105	1
11105	11106	11107	1
11103	11108	11107	1
11103	11108	11112	1
11107	11108	11112	1
11108	11103	11111	1
11108	11107	11110	1
2575	11115	11116	1
11114	11113	11123	1
901	900	911	1
899	900	911	1
911	9216	9206	1
911	9216	9218	1
901	902	909	1
903	902	909	1
882	888	909	1
889	888	909	1
900	911	912	1
900	911	9216	1
900	901	902	1
900	901	905	1
900	899	904	1
900	899	907	1
902	909	910	1
888	909	902	1
902	901	905	1
902	903	904	1
902	903	906	1
899	900	901	1
901	902	903	1
899	904	903	1
899	904	908	1
903	904	908	1
904	899	907	1
904	903	906	1
912	911	9216	1
888	909	910	1
3573	3572	3583	1
3571	3572	3583	1
3573	3574	3581	1
3575	3574	3581	1
3581	10046	10039	1
3581	10046	10048	1
3572	3583	3584	1
3572	3583	3585	1
3572	3573	3574	1
3572	3573	3577	1
3572	3571	3576	1
3572	3571	3579	1
3574	3581	3582	1
3574	3581	10046	1
3574	3573	3577	1
3574	3575	3576	1
3574	3575	3578	1
3571	3572	3573	1
3573	3574	3575	1
3571	3576	3575	1
3571	3576	3580	1
3575	3576	3580	1
3576	3571	3579	1
3576	3575	3578	1
3585	3583	3584	1
3582	3581	10046	1
12985	12984	12995	1
12983	12984	12995	1
12995	7420	7410	1
12995	7420	7422	1
12985	12986	12993	1
12987	12986	12993	1
12993	8874	8868	1
12993	8874	8875	1
12984	12995	12996	1
12984	12995	7420	1
12984	12985	12986	1
12984	12985	12989	1
12984	12983	12988	1
12984	12983	12991	1
12986	12993	12994	1
12986	12993	8874	1
12986	12985	12989	1
12986	12987	12988	1
12986	12987	12990	1
12983	12984	12985	1
12985	12986	12987	1
12983	12988	12987	1
12983	12988	12992	1
12987	12988	12992	1
12988	12983	12991	1
12988	12987	12990	1
12996	12995	7420	1
12994	12993	8874	1
2473	2472	2483	1
2471	2472	2483	1
2483	8471	8461	1
2483	8471	8473	1
2473	2474	2481	1
2475	2474	2481	1
2454	2460	2481	1
2461	2460	2481	1
2472	2483	2484	1
2472	2483	8471	1
2472	2473	2474	1
2472	2473	2477	1
2472	2471	2476	1
2472	2471	2479	1
2474	2481	2482	1
2460	2481	2474	1
2474	2473	2477	1
2474	2475	2476	1
2474	2475	2478	1
2471	2472	2473	1
2473	2474	2475	1
2471	2476	2475	1
2471	2476	2480	1
2475	2476	2480	1
2476	2471	2479	1
2476	2475	2478	1
2484	2483	8471	1
2460	2481	2482	1
9424	9423	9434	1
9422	9423	9434	1
9434	9442	9436	1
9434	9442	9443	1
9424	9425	9432	1
9426	9425	9432	1
9432	10849	10842	1
9432	10849	10851	1
9423	9434	9435	1
9423	9434	9442	1
9423	9424	9425	1
9423	9424	9428	1
9423	9422	9427	1
9423	9422	9430	1
9425	9432	9433	1
9425	9432	10849	1
9425	9424	9428	1
9425	9426	9427	1
9425	9426	9429	1
9422	9423	9424	1
9424	9425	9426	1
9422	9427	9426	1
9422	9427	9431	1
9426	9427	9431	1
9427	9422	9430	1
9427	9426	9429	1
9435	9434	9442	1
9433	9432	10849	1
12355	12356	12363	1
12357	12356	12363	1
12363	5859	5852	1
12363	5859	5861	1
12355	12354	12365	1
12353	12354	12365	1
12365	8777	8770	1
12365	8777	8779	1
12356	12363	12364	1
12356	12363	5859	1
12356	12355	12354	1
12356	12355	12359	1
12356	12357	12358	1
12356	12357	12360	1
12354	12365	12366	1
12354	12365	8777	1
12354	12355	12359	1
12354	12353	12358	1
12354	12353	12361	1
12357	12356	12355	1
12355	12354	12353	1
12357	12358	12353	1
12357	12358	12362	1
12353	12358	12362	1
12358	12357	12360	1
12358	12353	12361	1
12364	12363	5859	1
12366	12365	8777	1
8241	8240	8251	1
8239	8240	8251	1
8251	8259	8253	1
8251	8259	8260	1
8241	8242	8249	1
8243	8242	8249	1
8249	9960	9950	1
8249	9960	9962	1
8240	8251	8252	1
8240	8251	8259	1
8240	8241	8242	1
8240	8241	8245	1
8240	8239	8244	1
8240	8239	8247	1
8242	8249	8250	1
8242	8249	9960	1
8242	8241	8245	1
8242	8243	8244	1
8242	8243	8246	1
8239	8240	8241	1
8241	8242	8243	1
8239	8244	8243	1
8239	8244	8248	1
8243	8244	8248	1
8244	8239	8247	1
8244	8243	8246	1
8252	8251	8259	1
8250	8249	9960	1
13573	13572	13583	1
13571	13572	13583	1
13583	9491	9484	1
13583	9491	9493	1
13573	13574	13581	1
13575	13574	13581	1
13581	9158	9148	1
13581	9158	9160	1
13572	13583	13584	1
13572	13583	9491	1
13572	13573	13574	1
13572	13573	13577	1
13572	13571	13576	1
13572	13571	13579	1
13574	13581	13582	1
13574	13581	9158	1
13574	13573	13577	1
13574	13575	13576	1
13574	13575	13578	1
13571	13572	13573	1
13573	13574	13575	1
13571	13576	13575	1
13571	13576	13580	1
13575	13576	13580	1
13576	13571	13579	1
13576	13575	13578	1
13584	13583	9491	1
13582	13581	9158	1
9688	9687	9698	1
9686	9687	9698	1
9698	5073	5063	1
9698	5073	5075	1
9688	9689	9696	1
9690	9689	9696	1
9696	9712	9702	1
9696	9712	9714	1
9687	9698	9699	1
9687	9698	5073	1
9687	9688	9689	1
9687	9688	9692	1
9687	9686	9691	1
9687	9686	9694	1
9689	9696	9697	1
9689	9696	9712	1
9689	9688	9692	1
9689	9690	9691	1
9689	9690	9693	1
9686	9687	9688	1
9688	9689	9690	1
9686	9691	9690	1
9686	9691	9695	1
9690	9691	9695	1
9691	9686	9694	1
9691	9690	9693	1
9699	9698	5073	1
9697	9696	9712	1
4061	4060	4071	1
4059	4060	4071	1
4071	4079	4073	1
4071	4079	4080	1
4061	4062	4069	1
4063	4062	4069	1
4069	7653	7643	1
4069	7653	7655	1
4060	4071	4072	1
4060	4071	4079	1
4060	4061	4062	1
4060	4061	4065	1
4060	4059	4064	1
4060	4059	4067	1
4062	4069	4070	1
4062	4069	7653	1
4062	4061	4065	1
4062	4063	4064	1
4062	4063	4066	1
4059	4060	4061	1
4061	4062	4063	1
4059	4064	4063	1
4059	4064	4068	1
4063	4064	4068	1
4064	4059	4067	1
4064	4063	4066	1
4072	4071	4079	1
4070	4069	7653	1
8593	8594	8601	1
8595	8594	8601	1
2599	2606	8601	1
2608	2606	8601	1
8593	8592	8603	1
8591	8592	8603	1
8603	8611	8605	1
8603	8611	8612	1
8594	8601	8602	1
2606	8601	8594	1
8594	8593	8592	1
8594	8593	8597	1
8594	8595	8596	1
8594	8595	8598	1
8592	8603	8604	1
8592	8603	8611	1
8592	8593	8597	1
8592	8591	8596	1
8592	8591	8599	1
8595	8594	8593	1
8593	8592	8591	1
8595	8596	8591	1
8595	8596	8600	1
8591	8596	8600	1
8596	8595	8598	1
8596	8591	8599	1
2606	8601	8602	1
8604	8603	8611	1
7673	7672	7683	1
7671	7672	7683	1
7683	7691	7685	1
7683	7691	7692	1
7673	7674	7681	1
7675	7674	7681	1
7681	7958	7948	1
7681	7958	7960	1
7672	7683	7684	1
7672	7683	7691	1
7672	7673	7674	1
7672	7673	7677	1
7672	7671	7676	1
7672	7671	7679	1
7674	7681	7682	1
7674	7681	7958	1
7674	7673	7677	1
7674	7675	7676	1
7674	7675	7678	1
7671	7672	7673	1
7673	7674	7675	1
7671	7676	7675	1
7671	7676	7680	1
7675	7676	7680	1
7676	7671	7679	1
7676	7675	7678	1
7684	7683	7691	1
7682	7681	7958	1
11795	11794	11805	1
11793	11794	11805	1
11805	8981	8974	1
11805	8981	8983	1
11795	11796	11803	1
11797	11796	11803	1
11803	4884	4874	1
11803	4884	4886	1
11794	11805	11806	1
11794	11805	8981	1
11794	11795	11796	1
11794	11795	11799	1
11794	11793	11798	1
11794	11793	11801	1
11796	11803	11804	1
11796	11803	4884	1
11796	11795	11799	1
11796	11797	11798	1
11796	11797	11800	1
11793	11794	11795	1
11795	11796	11797	1
11793	11798	11797	1
11793	11798	11802	1
11797	11798	11802	1
11798	11793	11801	1
11798	11797	11800	1
11806	11805	8981	1
11804	11803	4884	1
11823	11822	11833	1
11821	11822	11833	1
11833	9360	9353	1
11833	9360	9362	1
11823	11824	11831	1
11825	11824	11831	1
11831	4912	4905	1
11831	4912	4914	1
11822	11833	11834	1
11822	11833	9360	1
11822	11823	11824	1
11822	11823	11827	1
11822	11821	11826	1
11822	11821	11829	1
11824	11831	11832	1
11824	11831	4912	1
11824	11823	11827	1
11824	11825	11826	1
11824	11825	11828	1
11821	11822	11823	1
11823	11824	11825	1
11821	11826	11825	1
11821	11826	11830	1
11825	11826	11830	1
11826	11821	11829	1
11826	11825	11828	1
11834	11833	9360	1
11832	11831	4912	1
3916	3915	3926	1
3914	3915	3926	1
3926	3934	3928	1
3926	3934	3935	1
3916	3917	3924	1
3918	3917	3924	1
3924	9274	9264	1
3924	9274	9276	1
3915	3926	3927	1
3915	3926	3934	1
3915	3916	3917	1
3915	3916	3920	1
3915	3914	3919	1
3915	3914	3922	1
3917	3924	3925	1
3917	3924	9274	1
3917	3916	3920	1
3917	3918	3919	1
3917	3918	3921	1
3914	3915	3916	1
3916	3917	3918	1
3914	3919	3918	1
3914	3919	3923	1
3918	3919	3923	1
3919	3914	3922	1
3919	3918	3921	1
3927	3926	3934	1
3925	3924	9274	1
9497	9496	9507	1
9495	9496	9507	1
9507	7972	7965	1
9507	7972	7974	1
9497	9498	9505	1
9499	9498	9505	1
9505	9515	9509	1
9505	9515	9516	1
9496	9507	9508	1
9496	9507	7972	1
9496	9497	9498	1
9496	9497	9501	1
9496	9495	9500	1
9496	9495	9503	1
9498	9505	9506	1
9498	9505	9515	1
9498	9497	9501	1
9498	9499	9500	1
9498	9499	9502	1
9495	9496	9497	1
9497	9498	9499	1
9495	9500	9499	1
9495	9500	9504	1
9499	9500	9504	1
9500	9495	9503	1
9500	9499	9502	1
9508	9507	7972	1
9506	9505	9515	1
4642	4641	4652	1
4640	4641	4652	1
4652	4660	4654	1
4652	4660	4661	1
4642	4643	4650	1
4644	4643	4650	1
4650	8235	8228	1
4650	8235	8237	1
4641	4652	4653	1
4641	4652	4660	1
4641	4642	4643	1
4641	4642	4646	1
4641	4640	4645	1
4641	4640	4648	1
4643	4650	4651	1
4643	4650	8235	1
4643	4642	4646	1
4643	4644	4645	1
4643	4644	4647	1
4640	4641	4642	1
4642	4643	4644	1
4640	4645	4644	1
4640	4645	4649	1
4644	4645	4649	1
4645	4640	4648	1
4645	4644	4647	1
4653	4652	4660	1
4651	4650	8235	1
12677	12676	12687	1
12675	12676	12687	1
12687	10879	10869	1
12687	10879	10881	1
12677	12678	12685	1
12679	12678	12685	1
12685	6502	6492	1
12685	6502	6504	1
12676	12687	12688	1
12676	12687	10879	1
12676	12677	12678	1
12676	12677	12681	1
12676	12675	12680	1
12676	12675	12683	1
12678	12685	12686	1
12678	12685	6502	1
12678	12677	12681	1
12678	12679	12680	1
12678	12679	12682	1
12675	12676	12677	1
12677	12678	12679	1
12675	12680	12679	1
12675	12680	12684	1
12679	12680	12684	1
12680	12675	12683	1
12680	12679	12682	1
12688	12687	10879	1
12686	12685	6502	1
12929	12928	12939	1
12927	12928	12939	1
12939	7302	7295	1
12939	7302	7304	1
12929	12930	12937	1
12931	12930	12937	1
12937	10543	10533	1
12937	10543	10545	1
12928	12939	12940	1
12928	12939	7302	1
12928	12929	12930	1
12928	12929	12933	1
12928	12927	12932	1
12928	12927	12935	1
12930	12937	12938	1
12930	12937	10543	1
12930	12929	12933	1
12930	12931	12932	1
12930	12931	12934	1
12927	12928	12929	1
12929	12930	12931	1
12927	12932	12931	1
12927	12932	12936	1
12931	12932	12936	1
12932	12927	12935	1
12932	12931	12934	1
12940	12939	7302	1
12938	12937	10543	1
715	714	725	1
713	714	725	1
696	702	725	1
703	702	725	1
715	716	723	1
717	716	723	1
723	6152	6142	1
723	6152	6154	1
714	725	726	1
702	725	714	1
714	715	716	1
714	715	719	1
714	713	718	1
714	713	721	1
716	723	724	1
716	723	6152	1
716	715	719	1
716	717	718	1
716	717	720	1
713	714	715	1
715	716	717	1
713	718	717	1
713	718	722	1
717	718	722	1
718	713	721	1
718	717	720	1
702	725	726	1
724	723	6152	1
12201	12200	12211	1
12199	12200	12211	1
2162	2169	12211	1
2171	2169	12211	1
12201	12202	12209	1
12203	12202	12209	1
12209	5640	5633	1
12209	5640	5642	1
12200	12211	12212	1
2169	12211	12200	1
12200	12201	12202	1
12200	12201	12205	1
12200	12199	12204	1
12200	12199	12207	1
12202	12209	12210	1
12202	12209	5640	1
12202	12201	12205	1
12202	12203	12204	1
12202	12203	12206	1
12199	12200	12201	1
12201	12202	12203	1
12199	12204	12203	1
12199	12204	12208	1
12203	12204	12208	1
12204	12199	12207	1
12204	12203	12206	1
2169	12211	12212	1
12210	12209	5640	1
13237	13236	13247	1
13235	13236	13247	1
13247	8206	8196	1
13247	8206	8208	1
13237	13238	13245	1
13239	13238	13245	1
2334	2341	13245	1
2343	2341	13245	1
13236	13247	13248	1
13236	13247	8206	1
13236	13237	13238	1
13236	13237	13241	1
13236	13235	13240	1
13236	13235	13243	1
13238	13245	13246	1
2341	13245	13238	1
13238	13237	13241	1
13238	13239	13240	1
13238	13239	13242	1
13235	13236	13237	1
13237	13238	13239	1
13235	13240	13239	1
13235	13240	13244	1
13239	13240	13244	1
13240	13235	13243	1
13240	13239	13242	1
13248	13247	8206	1
2341	13245	13246	1
7308	7307	7318	1
7306	7307	7318	1
7318	8509	8503	1
7318	8509	8510	1
7308	7309	7316	1
7310	7309	7316	1
7316	7326	7320	1
7316	7326	7327	1
7307	7318	7319	1
7307	7318	8509	1
7307	7308	7309	1
7307	7308	7312	1
7307	7306	7311	1
7307	7306	7314	1
7309	7316	7317	1
7309	7316	7326	1
7309	7308	7312	1
7309	7310	7311	1
7309	7310	7313	1
7306	7307	7308	1
7308	7309	7310	1
7306	7311	7310	1
7306	7311	7315	1
7310	7311	7315	1
7311	7306	7314	1
7311	7310	7313	1
7319	7318	8509	1
7317	7316	7326	1
13685	13684	13695	1
13683	13684	13695	1
13695	10163	10153	1
13695	10163	10165	1
13685	13686	13693	1
13687	13686	13693	1
2427	2434	13693	1
2436	2434	13693	1
13684	13695	13696	1
13684	13695	10163	1
13684	13685	13686	1
13684	13685	13689	1
13684	13683	13688	1
13684	13683	13691	1
13686	13693	13694	1
2434	13693	13686	1
13686	13685	13689	1
13686	13687	13688	1
13686	13687	13690	1
13683	13684	13685	1
13685	13686	13687	1
13683	13688	13687	1
13683	13688	13692	1
13687	13688	13692	1
13688	13683	13691	1
13688	13687	13690	1
13696	13695	10163	1
2434	13693	13694	1
1866	1865	1876	1
1864	1865	1876	1
1876	9215	9208	1
1876	9215	9217	1
1866	1867	1874	1
1868	1867	1874	1
1847	1853	1874	1
1854	1853	1874	1
1865	1876	1877	1
1865	1876	9215	1
1865	1866	1867	1
1865	1866	1870	1
1865	1864	1869	1
1865	1864	1872	1
1867	1874	1875	1
1853	1874	1867	1
1867	1866	1870	1
1867	1868	1869	1
1867	1868	1871	1
1864	1865	1866	1
1866	1867	1868	1
1864	1869	1868	1
1864	1869	1873	1
1868	1869	1873	1
1869	1864	1872	1
1869	1868	1871	1
1877	1876	9215	1
1853	1874	1875	1
12341	12340	12351	1
12339	12340	12351	1
12351	5830	5823	1
12351	5830	5832	1
12341	12342	12349	1
12343	12342	12349	1
1072	1079	12349	1
1081	1079	12349	1
12340	12351	12352	1
12340	12351	5830	1
12340	12341	12342	1
12340	12341	12345	1
12340	12339	12344	1
12340	12339	12347	1
12342	12349	12350	1
1079	12349	12342	1
12342	12341	12345	1
12342	12343	12344	1
12342	12343	12346	1
12339	12340	12341	1
12341	12342	12343	1
12339	12344	12343	1
12339	12344	12348	1
12343	12344	12348	1
12344	12339	12347	1
12344	12343	12346	1
12352	12351	5830	1
1079	12349	12350	1
1463	1462	1473	1
1461	1462	1473	1
1444	1450	1473	1
1451	1450	1473	1
1463	1464	1471	1
1465	1464	1471	1
1471	7006	7000	1
1471	7006	7007	1
1462	1473	1474	1
1450	1473	1462	1
1462	1463	1464	1
1462	1463	1467	1
1462	1461	1466	1
1462	1461	1469	1
1464	1471	1472	1
1464	1471	7006	1
1464	1463	1467	1
1464	1465	1466	1
1464	1465	1468	1
1461	1462	1463	1
1463	1464	1465	1
1461	1466	1465	1
1461	1466	1470	1
1465	1466	1470	1
1466	1461	1469	1
1466	1465	1468	1
1450	1473	1474	1
1472	1471	7006	1
5093	5094	5101	1
5095	5094	5101	1
5101	10499	10489	1
5101	10499	10501	1
5093	5092	5103	1
5091	5092	5103	1
5103	5111	5105	1
5103	5111	5112	1
5094	5101	5102	1
5094	5101	10499	1
5092	5093	5094	1
5094	5093	5097	1
5094	5095	5096	1
5094	5095	5098	1
5092	5103	5104	1
5092	5103	5111	1
5092	5093	5097	1
5092	5091	5096	1
5092	5091	5099	1
5093	5094	5095	1
5091	5092	5093	1
5091	5096	5095	1
5095	5096	5100	1
5091	5096	5100	1
5096	5095	5098	1
5096	5091	5099	1
5102	5101	10499	1
5104	5103	5111	1
87	86	97	1
85	86	97	1
74	76	97	1
77	76	97	1
87	88	95	1
89	88	95	1
95	7040	7033	1
95	7040	7042	1
86	97	98	1
76	97	86	1
86	87	88	1
86	87	91	1
86	85	90	1
86	85	93	1
88	95	96	1
88	95	7040	1
88	87	91	1
88	89	90	1
88	89	92	1
85	86	87	1
87	88	89	1
85	90	89	1
85	90	94	1
89	90	94	1
90	85	93	1
90	89	92	1
76	97	98	1
96	95	7040	1
8827	8826	8837	1
8825	8826	8837	1
8837	8845	8839	1
8837	8845	8846	1
8827	8828	8835	1
8829	8828	8835	1
8835	5393	5383	1
8835	5393	5395	1
8826	8837	8838	1
8826	8837	8845	1
8826	8827	8828	1
8826	8827	8831	1
8826	8825	8830	1
8826	8825	8833	1
8828	8835	8836	1
8828	8835	5393	1
8828	8827	8831	1
8828	8829	8830	1
8828	8829	8832	1
8825	8826	8827	1
8827	8828	8829	1
8825	8830	8829	1
8825	8830	8834	1
8829	8830	8834	1
8830	8825	8833	1
8830	8829	8832	1
8838	8837	8845	1
8836	8835	5393	1
1228	1229	1236	1
1230	1229	1236	1
1209	1215	1236	1
1216	1215	1236	1
1228	1227	1238	1
1226	1227	1238	1
1229	1236	1237	1
1215	1236	1229	1
1227	1228	1229	1
1229	1228	1232	1
1229	1230	1231	1
1229	1230	1233	1
1227	1238	1240	1
1227	1238	1239	1
1227	1228	1232	1
1227	1226	1231	1
1227	1226	1234	1
1228	1229	1230	1
1226	1227	1228	1
1226	1231	1230	1
1230	1231	1235	1
1226	1231	1235	1
1231	1230	1233	1
1231	1226	1234	1
1215	1236	1237	1
1239	1238	1240	1
13825	13824	13835	1
13823	13824	13835	1
1944	1951	13835	1
1953	1951	13835	1
13825	13826	13833	1
13827	13826	13833	1
731	738	13833	1
740	738	13833	1
13824	13835	13836	1
1951	13835	13824	1
13824	13825	13826	1
13824	13825	13829	1
13824	13823	13828	1
13824	13823	13831	1
13826	13833	13834	1
738	13833	13826	1
13826	13825	13829	1
13826	13827	13828	1
13826	13827	13830	1
13823	13824	13825	1
13825	13826	13827	1
13823	13828	13827	1
13823	13828	13832	1
13827	13828	13832	1
13828	13823	13831	1
13828	13827	13830	1
1951	13835	13836	1
738	13833	13834	1
1118	1117	1128	1
1116	1117	1128	1
1128	7055	7048	1
1128	7055	7057	1
1118	1119	1126	1
1120	1119	1126	1
1099	1105	1126	1
1106	1105	1126	1
1117	1128	1129	1
1117	1128	7055	1
1117	1118	1119	1
1117	1118	1122	1
1117	1116	1121	1
1117	1116	1124	1
1119	1126	1127	1
1105	1126	1119	1
1119	1118	1122	1
1119	1120	1121	1
1119	1120	1123	1
1116	1117	1118	1
1118	1119	1120	1
1116	1121	1120	1
1116	1121	1125	1
1120	1121	1125	1
1121	1116	1124	1
1121	1120	1123	1
1129	1128	7055	1
1105	1126	1127	1
11711	11710	11721	1
11709	11710	11721	1
11721	4753	4743	1
11721	4753	4755	1
11711	11712	11719	1
11713	11712	11719	1
2365	2372	11719	1
2374	2372	11719	1
11710	11721	11722	1
11710	11721	4753	1
11710	11711	11712	1
11710	11711	11715	1
11710	11709	11714	1
11710	11709	11717	1
11712	11719	11720	1
2372	11719	11712	1
11712	11711	11715	1
11712	11713	11714	1
11712	11713	11716	1
11709	11710	11711	1
11711	11712	11713	1
11709	11714	11713	1
11709	11714	11718	1
11713	11714	11718	1
11714	11709	11717	1
11714	11713	11716	1
11722	11721	4753	1
2372	11719	11720	1
9921	9920	9931	1
9919	9920	9931	1
9931	9939	9933	1
9931	9939	9940	1
9921	9922	9929	1
9923	9922	9929	1
9929	5962	5955	1
9929	5962	5964	1
9920	9931	9932	1
9920	9931	9939	1
9920	9921	9922	1
9920	9921	9925	1
9920	9919	9924	1
9920	9919	9927	1
9922	9929	9930	1
9922	9929	5962	1
9922	9921	9925	1
9922	9923	9924	1
9922	9923	9926	1
9919	9920	9921	1
9921	9922	9923	1
9919	9924	9923	1
9919	9924	9928	1
9923	9924	9928	1
9924	9919	9927	1
9924	9923	9926	1
9932	9931	9939	1
9930	9929	5962	1
11529	11528	11539	1
11527	11528	11539	1
11539	9945	9935	1
11539	9945	9947	1
11529	11530	11537	1
11531	11530	11537	1
11537	4405	4395	1
11537	4405	4407	1
11528	11539	11540	1
11528	11539	9945	1
11528	11529	11530	1
11528	11529	11533	1
11528	11527	11532	1
11528	11527	11535	1
11530	11537	11538	1
11530	11537	4405	1
11530	11529	11533	1
11530	11531	11532	1
11530	11531	11534	1
11527	11528	11529	1
11529	11530	11531	1
11527	11532	11531	1
11527	11532	11536	1
11531	11532	11536	1
11532	11527	11535	1
11532	11531	11534	1
11540	11539	9945	1
11538	11537	4405	1
405	404	415	1
403	404	415	1
415	11099	11092	1
415	11099	11101	1
405	406	413	1
407	406	413	1
386	392	413	1
393	392	413	1
404	415	416	1
404	415	11099	1
404	405	406	1
404	405	409	1
404	403	408	1
404	403	411	1
406	413	414	1
392	413	406	1
406	405	409	1
406	407	408	1
406	407	410	1
403	404	405	1
405	406	407	1
403	408	407	1
403	408	412	1
407	408	412	1
408	403	411	1
408	407	410	1
416	415	11099	1
392	413	414	1
467	468	475	1
469	468	475	1
448	454	475	1
455	454	475	1
467	466	477	1
465	466	477	1
477	4434	4424	1
477	4434	4436	1
468	475	476	1
454	475	468	1
466	467	468	1
468	467	471	1
468	469	470	1
468	469	472	1
466	477	478	1
466	477	4434	1
466	467	471	1
466	465	470	1
466	465	473	1
467	468	469	1
465	466	467	1
465	470	469	1
469	470	474	1
465	470	474	1
470	469	472	1
470	465	473	1
454	475	476	1
478	477	4434	1
1494	1493	1504	1
1492	1493	1504	1
1504	10420	10414	1
1504	10420	10421	1
1494	1495	1502	1
1496	1495	1502	1
1475	1481	1502	1
1482	1481	1502	1
1493	1504	1505	1
1493	1504	10420	1
1493	1494	1495	1
1493	1494	1498	1
1493	1492	1497	1
1493	1492	1500	1
1495	1502	1503	1
1481	1502	1495	1
1495	1494	1498	1
1495	1496	1497	1
1495	1496	1499	1
1492	1493	1494	1
1494	1495	1496	1
1492	1497	1496	1
1492	1497	1501	1
1496	1497	1501	1
1497	1492	1500	1
1497	1496	1499	1
1505	1504	10420	1
1481	1502	1503	1
839	838	849	1
837	838	849	1
820	826	849	1
827	826	849	1
839	840	847	1
841	840	847	1
576	583	847	1
585	583	847	1
838	849	850	1
826	849	838	1
838	839	840	1
838	839	843	1
838	837	842	1
838	837	845	1
840	847	848	1
583	847	840	1
840	839	843	1
840	841	842	1
840	841	844	1
837	838	839	1
839	840	841	1
837	842	841	1
837	842	846	1
841	842	846	1
842	837	845	1
842	841	844	1
826	849	850	1
583	847	848	1
2748	2747	2758	1
2746	2747	2758	1
2748	2749	2756	1
2750	2749	2756	1
2756	5014	5007	1
2756	5014	5016	1
2747	2758	2759	1
2747	2758	2760	1
2747	2748	2749	1
2747	2748	2752	1
2747	2746	2751	1
2747	2746	2754	1
2749	2756	2757	1
2749	2756	5014	1
2749	2748	2752	1
2749	2750	2751	1
2749	2750	2753	1
2746	2747	2748	1
2748	2749	2750	1
2746	2751	2750	1
2746	2751	2755	1
2750	2751	2755	1
2751	2746	2754	1
2751	2750	2753	1
2759	2758	2760	1
2757	2756	5014	1
119	118	129	1
117	118	129	1
129	11182	11176	1
129	11182	11183	1
119	120	127	1
121	120	127	1
106	108	127	1
109	108	127	1
118	129	130	1
118	129	11182	1
118	119	120	1
118	119	123	1
118	117	122	1
118	117	125	1
120	127	128	1
108	127	120	1
120	119	123	1
120	121	122	1
120	121	124	1
117	118	119	1
119	120	121	1
117	122	121	1
117	122	126	1
121	122	126	1
122	117	125	1
122	121	124	1
130	129	11182	1
108	127	128	1
3974	3973	3984	1
3972	3973	3984	1
3984	8001	7994	1
3984	8001	8003	1
3974	3975	3982	1
3976	3975	3982	1
3982	3992	3986	1
3982	3992	3993	1
3973	3984	3985	1
3973	3984	8001	1
3973	3974	3975	1
3973	3974	3978	1
3973	3972	3977	1
3973	3972	3980	1
3975	3982	3983	1
3975	3982	3992	1
3975	3974	3978	1
3975	3976	3977	1
3975	3976	3979	1
3972	3973	3974	1
3974	3975	3976	1
3972	3977	3976	1
3972	3977	3981	1
3976	3977	3981	1
3977	3972	3980	1
3977	3976	3979	1
3985	3984	8001	1
3983	3982	3992	1
12411	12410	12421	1
12409	12410	12421	1
2193	2200	12421	1
2202	2200	12421	1
12411	12412	12419	1
12413	12412	12419	1
12419	5963	5953	1
12419	5963	5965	1
12410	12421	12422	1
2200	12421	12410	1
12410	12411	12412	1
12410	12411	12415	1
12410	12409	12414	1
12410	12409	12417	1
12412	12419	12420	1
12412	12419	5963	1
12412	12411	12415	1
12412	12413	12414	1
12412	12413	12416	1
12409	12410	12411	1
12411	12412	12413	1
12409	12414	12413	1
12409	12414	12418	1
12413	12414	12418	1
12414	12409	12417	1
12414	12413	12416	1
2200	12421	12422	1
12420	12419	5963	1
11935	11934	11945	1
11933	11934	11945	1
11945	5146	5136	1
11945	5146	5148	1
11935	11936	11943	1
11937	11936	11943	1
1386	1393	11943	1
1395	1393	11943	1
11934	11945	11946	1
11934	11945	5146	1
11934	11935	11936	1
11934	11935	11939	1
11934	11933	11938	1
11934	11933	11941	1
11936	11943	11944	1
1393	11943	11936	1
11936	11935	11939	1
11936	11937	11938	1
11936	11937	11940	1
11933	11934	11935	1
11935	11936	11937	1
11933	11938	11937	1
11933	11938	11942	1
11937	11938	11942	1
11938	11933	11941	1
11938	11937	11940	1
11946	11945	5146	1
1393	11943	11944	1
10899	10898	10909	1
10897	10898	10909	1
10909	10917	10911	1
10909	10917	10918	1
10899	10900	10907	1
10901	10900	10907	1
10907	9070	9060	1
10907	9070	9072	1
10898	10909	10910	1
10898	10909	10917	1
10898	10899	10900	1
10898	10899	10903	1
10898	10897	10902	1
10898	10897	10905	1
10900	10907	10908	1
10900	10907	9070	1
10900	10899	10903	1
10900	10901	10902	1
10900	10901	10904	1
10897	10898	10899	1
10899	10900	10901	1
10897	10902	10901	1
10897	10902	10906	1
10901	10902	10906	1
10902	10897	10905	1
10902	10901	10904	1
10910	10909	10917	1
10908	10907	9070	1
3945	3944	3955	1
3943	3944	3955	1
3955	6894	6887	1
3955	6894	6896	1
3945	3946	3953	1
3947	3946	3953	1
3953	3963	3957	1
3953	3963	3964	1
3944	3955	3956	1
3944	3955	6894	1
3944	3945	3946	1
3944	3945	3949	1
3944	3943	3948	1
3944	3943	3951	1
3946	3953	3954	1
3946	3953	3963	1
3946	3945	3949	1
3946	3947	3948	1
3946	3947	3950	1
3943	3944	3945	1
3945	3946	3947	1
3943	3948	3947	1
3943	3948	3952	1
3947	3948	3952	1
3948	3943	3951	1
3948	3947	3950	1
3956	3955	6894	1
3954	3953	3963	1
13139	13138	13149	1
13137	13138	13149	1
13149	7899	7892	1
13149	7899	7901	1
13139	13140	13147	1
13141	13140	13147	1
1213	1220	13147	1
1222	1220	13147	1
13138	13149	13150	1
13138	13149	7899	1
13138	13139	13140	1
13138	13139	13143	1
13138	13137	13142	1
13138	13137	13145	1
13140	13147	13148	1
1220	13147	13140	1
13140	13139	13143	1
13140	13141	13142	1
13140	13141	13144	1
13137	13138	13139	1
13139	13140	13141	1
13137	13142	13141	1
13137	13142	13146	1
13141	13142	13146	1
13142	13137	13145	1
13142	13141	13144	1
13150	13149	7899	1
1220	13147	13148	1
13167	13166	13177	1
13165	13166	13177	1
13177	7957	7950	1
13177	7957	7959	1
13167	13168	13175	1
13169	13168	13175	1
13175	9244	9237	1
13175	9244	9246	1
13166	13177	13178	1
13166	13177	7957	1
13166	13167	13168	1
13166	13167	13171	1
13166	13165	13170	1
13166	13165	13173	1
13168	13175	13176	1
13168	13175	9244	1
13168	13167	13171	1
13168	13169	13170	1
13168	13169	13172	1
13165	13166	13167	1
13167	13168	13169	1
13165	13170	13169	1
13165	13170	13174	1
13169	13170	13174	1
13170	13165	13173	1
13170	13169	13172	1
13178	13177	7957	1
13176	13175	9244	1
3378	3377	3388	1
3376	3377	3388	1
3378	3379	3386	1
3380	3379	3386	1
3386	9100	9090	1
3386	9100	9102	1
3377	3388	3389	1
3377	3388	3390	1
3377	3378	3379	1
3377	3378	3382	1
3377	3376	3381	1
3377	3376	3384	1
3379	3386	3387	1
3379	3386	9100	1
3379	3378	3382	1
3379	3380	3381	1
3379	3380	3383	1
3376	3377	3378	1
3378	3379	3380	1
3376	3381	3380	1
3376	3381	3385	1
3380	3381	3385	1
3381	3376	3384	1
3381	3380	3383	1
3389	3388	3390	1
3387	3386	9100	1
4787	4786	4797	1
4785	4786	4797	1
4797	9580	9570	1
4797	9580	9582	1
4787	4788	4795	1
4789	4788	4795	1
4795	4805	4799	1
4795	4805	4806	1
4786	4797	4798	1
4786	4797	9580	1
4786	4787	4788	1
4786	4787	4791	1
4786	4785	4790	1
4786	4785	4793	1
4788	4795	4796	1
4788	4795	4805	1
4788	4787	4791	1
4788	4789	4790	1
4788	4789	4792	1
4785	4786	4787	1
4787	4788	4789	1
4785	4790	4789	1
4785	4790	4794	1
4789	4790	4794	1
4790	4785	4793	1
4790	4789	4792	1
4798	4797	9580	1
4796	4795	4805	1
11669	11668	11679	1
11667	11668	11679	1
11679	4695	4685	1
11679	4695	4697	1
11669	11670	11677	1
11671	11670	11677	1
11677	6297	6290	1
11677	6297	6299	1
11668	11679	11680	1
11668	11679	4695	1
11668	11669	11670	1
11668	11669	11673	1
11668	11667	11672	1
11668	11667	11675	1
11670	11677	11678	1
11670	11677	6297	1
11670	11669	11673	1
11670	11671	11672	1
11670	11671	11674	1
11667	11668	11669	1
11669	11670	11671	1
11667	11672	11671	1
11667	11672	11676	1
11671	11672	11676	1
11672	11667	11675	1
11672	11671	11674	1
11680	11679	4695	1
11678	11677	6297	1
2287	2286	2297	1
2285	2286	2297	1
2297	9662	9656	1
2297	9662	9663	1
2287	2288	2295	1
2289	2288	2295	1
2272	2279	2295	1
2281	2279	2295	1
2286	2297	2298	1
2286	2297	9662	1
2286	2287	2288	1
2286	2287	2291	1
2286	2285	2290	1
2286	2285	2293	1
2288	2295	2296	1
2279	2295	2288	1
2288	2287	2291	1
2288	2289	2290	1
2288	2289	2292	1
2285	2286	2287	1
2287	2288	2289	1
2285	2290	2289	1
2285	2290	2294	1
2289	2290	2294	1
2290	2285	2293	1
2290	2289	2292	1
2298	2297	9662	1
2279	2295	2296	1
1991	1990	2001	1
1989	1990	2001	1
1972	1978	2001	1
1979	1978	2001	1
1991	1992	1999	1
1993	1992	1999	1
1999	5015	5005	1
1999	5015	5017	1
1990	2001	2002	1
1978	2001	1990	1
1990	1991	1992	1
1990	1991	1995	1
1990	1989	1994	1
1990	1989	1997	1
1992	1999	2000	1
1992	1999	5015	1
1992	1991	1995	1
1992	1993	1994	1
1992	1993	1996	1
1989	1990	1991	1
1991	1992	1993	1
1989	1994	1993	1
1989	1994	1998	1
1993	1994	1998	1
1994	1989	1997	1
1994	1993	1996	1
1978	2001	2002	1
2000	1999	5015	1
11683	11682	11693	1
11681	11682	11693	1
11693	8763	8753	1
11693	8763	8765	1
11683	11684	11691	1
11685	11684	11691	1
11691	4723	4716	1
11691	4723	4725	1
11682	11693	11694	1
11682	11693	8763	1
11682	11683	11684	1
11682	11683	11687	1
11682	11681	11686	1
11682	11681	11689	1
11684	11691	11692	1
11684	11691	4723	1
11684	11683	11687	1
11684	11685	11686	1
11684	11685	11688	1
11681	11682	11683	1
11683	11684	11685	1
11681	11686	11685	1
11681	11686	11690	1
11685	11686	11690	1
11686	11681	11689	1
11686	11685	11688	1
11694	11693	8763	1
11692	11691	4723	1
13223	13222	13233	1
13221	13222	13233	1
13233	8176	8169	1
13233	8176	8178	1
13223	13224	13231	1
13225	13224	13231	1
13231	9579	9572	1
13231	9579	9581	1
13222	13233	13234	1
13222	13233	8176	1
13222	13223	13224	1
13222	13223	13227	1
13222	13221	13226	1
13222	13221	13229	1
13224	13231	13232	1
13224	13231	9579	1
13224	13223	13227	1
13224	13225	13226	1
13224	13225	13228	1
13221	13222	13223	1
13223	13224	13225	1
13221	13226	13225	1
13221	13226	13230	1
13225	13226	13230	1
13226	13221	13229	1
13226	13225	13228	1
13234	13233	8176	1
13232	13231	9579	1
5238	5237	5248	1
5236	5237	5248	1
5248	10134	10124	1
5248	10134	10136	1
5238	5239	5246	1
5240	5239	5246	1
5246	5256	5250	1
5246	5256	5257	1
5237	5248	5249	1
5237	5248	10134	1
5237	5238	5239	1
5237	5238	5242	1
5237	5236	5241	1
5237	5236	5244	1
5239	5246	5247	1
5239	5246	5256	1
5239	5238	5242	1
5239	5240	5241	1
5239	5240	5243	1
5236	5237	5238	1
5238	5239	5240	1
5236	5241	5240	1
5236	5241	5245	1
5240	5241	5245	1
5241	5236	5244	1
5241	5240	5243	1
5249	5248	10134	1
5247	5246	5256	1
12747	12746	12757	1
12745	12746	12757	1
12757	8514	8507	1
12757	8514	8516	1
12747	12748	12755	1
12749	12748	12755	1
12755	6662	6652	1
12755	6662	6664	1
12746	12757	12758	1
12746	12757	8514	1
12746	12747	12748	1
12746	12747	12751	1
12746	12745	12750	1
12746	12745	12753	1
12748	12755	12756	1
12748	12755	6662	1
12748	12747	12751	1
12748	12749	12750	1
12748	12749	12752	1
12745	12746	12747	1
12747	12748	12749	1
12745	12750	12749	1
12745	12750	12754	1
12749	12750	12754	1
12750	12745	12753	1
12750	12749	12752	1
12758	12757	8514	1
12756	12755	6662	1
11543	11542	11553	1
11541	11542	11553	1
11553	7114	7104	1
11553	7114	7116	1
11543	11544	11551	1
11545	11544	11551	1
11551	4433	4426	1
11551	4433	4435	1
11542	11553	11554	1
11542	11553	7114	1
11542	11543	11544	1
11542	11543	11547	1
11542	11541	11546	1
11542	11541	11549	1
11544	11551	11552	1
11544	11551	4433	1
11544	11543	11547	1
11544	11545	11546	1
11544	11545	11548	1
11541	11542	11543	1
11543	11544	11545	1
11541	11546	11545	1
11541	11546	11550	1
11545	11546	11550	1
11546	11541	11549	1
11546	11545	11548	1
11554	11553	7114	1
11552	11551	4433	1
1587	1586	1597	1
1585	1586	1597	1
1568	1574	1597	1
1575	1574	1597	1
1587	1588	1595	1
1589	1588	1595	1
1595	8236	8226	1
1595	8236	8238	1
1586	1597	1598	1
1574	1597	1586	1
1586	1587	1588	1
1586	1587	1591	1
1586	1585	1590	1
1586	1585	1593	1
1588	1595	1596	1
1588	1595	8236	1
1588	1587	1591	1
1588	1589	1590	1
1588	1589	1592	1
1585	1586	1587	1
1587	1588	1589	1
1585	1590	1589	1
1585	1590	1594	1
1589	1590	1594	1
1590	1585	1593	1
1590	1589	1592	1
1574	1597	1598	1
1596	1595	8236	1
6420	6419	6430	1
6418	6419	6430	1
6430	6438	6432	1
6430	6438	6439	1
6420	6421	6428	1
6422	6421	6428	1
6428	9637	9630	1
6428	9637	9639	1
6419	6430	6431	1
6419	6430	6438	1
6419	6420	6421	1
6419	6420	6424	1
6419	6418	6423	1
6419	6418	6426	1
6421	6428	6429	1
6421	6428	9637	1
6421	6420	6424	1
6421	6422	6423	1
6421	6422	6425	1
6418	6419	6420	1
6420	6421	6422	1
6418	6423	6422	1
6418	6423	6427	1
6422	6423	6427	1
6423	6418	6426	1
6423	6422	6425	1
6431	6430	6438	1
6429	6428	9637	1
12831	12830	12841	1
12829	12830	12841	1
12841	9448	9438	1
12841	9448	9450	1
12831	12832	12839	1
12833	12832	12839	1
12839	6997	6987	1
12839	6997	6999	1
12830	12841	12842	1
12830	12841	9448	1
12830	12831	12832	1
12830	12831	12835	1
12830	12829	12834	1
12830	12829	12837	1
12832	12839	12840	1
12832	12839	6997	1
12832	12831	12835	1
12832	12833	12834	1
12832	12833	12836	1
12829	12830	12831	1
12831	12832	12833	1
12829	12834	12833	1
12829	12834	12838	1
12833	12834	12838	1
12834	12829	12837	1
12834	12833	12836	1
12842	12841	9448	1
12840	12839	6997	1
13195	13194	13205	1
13193	13194	13205	1
13205	8323	8316	1
13205	8323	8325	1
13195	13196	13203	1
13197	13196	13203	1
13203	8046	8036	1
13203	8046	8048	1
13194	13205	13206	1
13194	13205	8323	1
13194	13195	13196	1
13194	13195	13199	1
13194	13193	13198	1
13194	13193	13201	1
13196	13203	13204	1
13196	13203	8046	1
13196	13195	13199	1
13196	13197	13198	1
13196	13197	13200	1
13193	13194	13195	1
13195	13196	13197	1
13193	13198	13197	1
13193	13198	13202	1
13197	13198	13202	1
13198	13193	13201	1
13198	13197	13200	1
13206	13205	8323	1
13204	13203	8046	1
13391	13392	13399	1
13393	13392	13399	1
13399	8426	8419	1
13399	8426	8428	1
13391	13390	13401	1
13389	13390	13401	1
13401	9025	9018	1
13401	9025	9027	1
13392	13399	13400	1
13392	13399	8426	1
13392	13391	13390	1
13392	13391	13395	1
13392	13393	13394	1
13392	13393	13396	1
13390	13401	13402	1
13390	13401	9025	1
13390	13391	13395	1
13390	13389	13394	1
13390	13389	13397	1
13393	13392	13391	1
13391	13390	13389	1
13393	13394	13389	1
13393	13394	13398	1
13389	13394	13398	1
13394	13393	13396	1
13394	13389	13397	1
13400	13399	8426	1
13402	13401	9025	1
12733	12732	12743	1
12731	12732	12743	1
12743	7332	7322	1
12743	7332	7334	1
12733	12734	12741	1
12735	12734	12741	1
12741	6661	6654	1
12741	6661	6663	1
12732	12743	12744	1
12732	12743	7332	1
12732	12733	12734	1
12732	12733	12737	1
12732	12731	12736	1
12732	12731	12739	1
12734	12741	12742	1
12734	12741	6661	1
12734	12733	12737	1
12734	12735	12736	1
12734	12735	12738	1
12731	12732	12733	1
12733	12734	12735	1
12731	12736	12735	1
12731	12736	12740	1
12735	12736	12740	1
12736	12731	12739	1
12736	12735	12738	1
12744	12743	7332	1
12742	12741	6661	1
1260	1261	1268	1
1262	1261	1268	1
1268	10470	10460	1
1268	10470	10472	1
1260	1259	1270	1
1258	1259	1270	1
1241	1247	1270	1
1248	1247	1270	1
1261	1268	1269	1
1261	1268	10470	1
1261	1260	1259	1
1261	1260	1264	1
1261	1262	1263	1
1261	1262	1265	1
1259	1270	1271	1
1247	1270	1259	1
1259	1260	1264	1
1259	1258	1263	1
1259	1258	1266	1
1262	1261	1260	1
1260	1259	1258	1
1262	1263	1258	1
1262	1263	1267	1
1258	1263	1267	1
1263	1262	1265	1
1263	1258	1266	1
1269	1268	10470	1
1247	1270	1271	1
7279	7278	7289	1
7277	7278	7289	1
7289	7297	7291	1
7289	7297	7298	1
7279	7280	7287	1
7281	7280	7287	1
7287	9677	9671	1
7287	9677	9678	1
7278	7289	7290	1
7278	7289	7297	1
7278	7279	7280	1
7278	7279	7283	1
7278	7277	7282	1
7278	7277	7285	1
7280	7287	7288	1
7280	7287	9677	1
7280	7279	7283	1
7280	7281	7282	1
7280	7281	7284	1
7277	7278	7279	1
7279	7280	7281	1
7277	7282	7281	1
7277	7282	7286	1
7281	7282	7286	1
7282	7277	7285	1
7282	7281	7284	1
7290	7289	7297	1
7288	7287	9677	1
1618	1617	1628	1
1616	1617	1628	1
1599	1605	1628	1
1606	1605	1628	1
1618	1619	1626	1
1620	1619	1626	1
1182	1189	1626	1
1191	1189	1626	1
1617	1628	1629	1
1605	1628	1617	1
1617	1618	1619	1
1617	1618	1622	1
1617	1616	1621	1
1617	1616	1624	1
1619	1626	1627	1
1189	1626	1619	1
1619	1618	1622	1
1619	1620	1621	1
1619	1620	1623	1
1616	1617	1618	1
1618	1619	1620	1
1616	1621	1620	1
1616	1621	1625	1
1620	1621	1625	1
1621	1616	1624	1
1621	1620	1623	1
1605	1628	1629	1
1189	1626	1627	1
529	528	539	1
527	528	539	1
539	5927	5921	1
539	5927	5928	1
529	530	537	1
531	530	537	1
510	516	537	1
517	516	537	1
528	539	540	1
528	539	5927	1
528	529	530	1
528	529	533	1
528	527	532	1
528	527	535	1
530	537	538	1
516	537	530	1
530	529	533	1
530	531	532	1
530	531	534	1
527	528	529	1
529	530	531	1
527	532	531	1
527	532	536	1
531	532	536	1
532	527	535	1
532	531	534	1
540	539	5927	1
516	537	538	1
13069	13068	13079	1
13067	13068	13079	1
13079	8923	8916	1
13079	8923	8925	1
13069	13070	13077	1
13071	13070	13077	1
13077	7652	7645	1
13077	7652	7654	1
13068	13079	13080	1
13068	13079	8923	1
13068	13069	13070	1
13068	13069	13073	1
13068	13067	13072	1
13068	13067	13075	1
13070	13077	13078	1
13070	13077	7652	1
13070	13069	13073	1
13070	13071	13072	1
13070	13071	13074	1
13067	13068	13069	1
13069	13070	13071	1
13067	13072	13071	1
13067	13072	13076	1
13071	13072	13076	1
13072	13067	13075	1
13072	13071	13074	1
13080	13079	8923	1
13078	13077	7652	1
8403	8402	8413	1
8401	8402	8413	1
8413	8421	8415	1
8413	8421	8422	1
8403	8404	8411	1
8405	8404	8411	1
8411	10192	10182	1
8411	10192	10194	1
8402	8413	8414	1
8402	8413	8421	1
8402	8403	8404	1
8402	8403	8407	1
8402	8401	8406	1
8402	8401	8409	1
8404	8411	8412	1
8404	8411	10192	1
8404	8403	8407	1
8404	8405	8406	1
8404	8405	8408	1
8401	8402	8403	1
8403	8404	8405	1
8401	8406	8405	1
8401	8406	8410	1
8405	8406	8410	1
8406	8401	8409	1
8406	8405	8408	1
8414	8413	8421	1
8412	8411	10192	1
4758	4759	4766	1
4760	4759	4766	1
4766	7142	7135	1
4766	7142	7144	1
4758	4757	4768	1
4756	4757	4768	1
4768	4776	4770	1
4768	4776	4777	1
4759	4766	4767	1
4759	4766	7142	1
4757	4758	4759	1
4759	4758	4762	1
4759	4760	4761	1
4759	4760	4763	1
4757	4768	4769	1
4757	4768	4776	1
4757	4758	4762	1
4757	4756	4761	1
4757	4756	4764	1
4758	4759	4760	1
4756	4757	4758	1
4756	4761	4760	1
4760	4761	4765	1
4756	4761	4765	1
4761	4760	4763	1
4761	4756	4764	1
4767	4766	7142	1
4769	4768	4776	1
3738	3739	3746	1
3740	3739	3746	1
3746	11172	11165	1
3746	11172	11174	1
3738	3737	3748	1
3736	3737	3748	1
3739	3746	3747	1
3739	3746	11172	1
3737	3738	3739	1
3739	3738	3742	1
3739	3740	3741	1
3739	3740	3743	1
3737	3748	3749	1
3737	3748	3750	1
3737	3738	3742	1
3737	3736	3741	1
3737	3736	3744	1
3738	3739	3740	1
3736	3737	3738	1
3736	3741	3740	1
3740	3741	3745	1
3736	3741	3745	1
3741	3740	3743	1
3741	3736	3744	1
3747	3746	11172	1
3749	3748	3750	1
12313	12312	12323	1
12311	12312	12323	1
12323	10157	10151	1
12323	10157	10158	1
12313	12314	12321	1
12315	12314	12321	1
12321	5816	5806	1
12321	5816	5818	1
12312	12323	12324	1
12312	12323	10157	1
12312	12313	12314	1
12312	12313	12317	1
12312	12311	12316	1
12312	12311	12319	1
12314	12321	12322	1
12314	12321	5816	1
12314	12313	12317	1
12314	12315	12316	1
12314	12315	12318	1
12311	12312	12313	1
12313	12314	12315	1
12311	12316	12315	1
12311	12316	12320	1
12315	12316	12320	1
12316	12311	12319	1
12316	12315	12318	1
12324	12323	10157	1
12322	12321	5816	1
5267	5266	5277	1
5265	5266	5277	1
5277	5285	5279	1
5277	5285	5286	1
5267	5268	5275	1
5269	5268	5275	1
5275	8274	8268	1
5275	8274	8275	1
5266	5277	5278	1
5266	5277	5285	1
5266	5267	5268	1
5266	5267	5271	1
5266	5265	5270	1
5266	5265	5273	1
5268	5275	5276	1
5268	5275	8274	1
5268	5267	5271	1
5268	5269	5270	1
5268	5269	5272	1
5265	5266	5267	1
5267	5268	5269	1
5265	5270	5269	1
5265	5270	5274	1
5269	5270	5274	1
5270	5265	5273	1
5270	5269	5272	1
5278	5277	5285	1
5276	5275	8274	1
7731	7730	7741	1
7729	7730	7741	1
7741	7749	7743	1
7741	7749	7750	1
7731	7732	7739	1
7733	7732	7739	1
7739	4462	4455	1
7739	4462	4464	1
7730	7741	7742	1
7730	7741	7749	1
7730	7731	7732	1
7730	7731	7735	1
7730	7729	7734	1
7730	7729	7737	1
7732	7739	7740	1
7732	7739	4462	1
7732	7731	7735	1
7732	7733	7734	1
7732	7733	7736	1
7729	7730	7731	1
7731	7732	7733	1
7729	7734	7733	1
7729	7734	7738	1
7733	7734	7738	1
7734	7729	7737	1
7734	7733	7736	1
7742	7741	7749	1
7740	7739	4462	1
9337	9338	9345	1
9339	9338	9345	1
452	459	9345	1
461	459	9345	1
9337	9336	9347	1
9335	9336	9347	1
9347	9355	9349	1
9347	9355	9356	1
9338	9345	9346	1
459	9345	9338	1
9336	9337	9338	1
9338	9337	9341	1
9338	9339	9340	1
9338	9339	9342	1
9336	9347	9348	1
9336	9347	9355	1
9336	9337	9341	1
9336	9335	9340	1
9336	9335	9343	1
9337	9338	9339	1
9335	9336	9337	1
9335	9340	9339	1
9339	9340	9344	1
9335	9340	9344	1
9340	9339	9342	1
9340	9335	9343	1
459	9345	9346	1
9348	9347	9355	1
2115	2114	2125	1
2113	2114	2125	1
2096	2102	2125	1
2103	2102	2125	1
2115	2116	2123	1
2117	2116	2123	1
2123	9079	9073	1
2123	9079	9080	1
2114	2125	2126	1
2102	2125	2114	1
2114	2115	2116	1
2114	2115	2119	1
2114	2113	2118	1
2114	2113	2121	1
2116	2123	2124	1
2116	2123	9079	1
2116	2115	2119	1
2116	2117	2118	1
2116	2117	2120	1
2113	2114	2115	1
2115	2116	2117	1
2113	2118	2117	1
2113	2118	2122	1
2117	2118	2122	1
2118	2113	2121	1
2118	2117	2120	1
2102	2125	2126	1
2124	2123	9079	1
10855	10854	10865	1
10853	10854	10865	1
10865	10873	10867	1
10865	10873	10874	1
10855	10856	10863	1
10857	10856	10863	1
10863	7697	7687	1
10863	7697	7699	1
10854	10865	10866	1
10854	10865	10873	1
10854	10855	10856	1
10854	10855	10859	1
10854	10853	10858	1
10854	10853	10861	1
10856	10863	10864	1
10856	10863	7697	1
10856	10855	10859	1
10856	10857	10858	1
10856	10857	10860	1
10853	10854	10855	1
10855	10856	10857	1
10853	10858	10857	1
10853	10858	10862	1
10857	10858	10862	1
10858	10853	10861	1
10858	10857	10860	1
10866	10865	10873	1
10864	10863	7697	1
13153	13152	13163	1
13151	13152	13163	1
2489	2496	13163	1
2498	2496	13163	1
13153	13154	13161	1
13155	13154	13161	1
13161	7928	7921	1
13161	7928	7930	1
13152	13163	13164	1
2496	13163	13152	1
13152	13153	13154	1
13152	13153	13157	1
13152	13151	13156	1
13152	13151	13159	1
13154	13161	13162	1
13154	13161	7928	1
13154	13153	13157	1
13154	13155	13156	1
13154	13155	13158	1
13151	13152	13153	1
13153	13154	13155	1
13151	13156	13155	1
13151	13156	13160	1
13155	13156	13160	1
13156	13151	13159	1
13156	13155	13158	1
2496	13163	13164	1
13162	13161	7928	1
13643	13644	13651	1
13645	13644	13651	1
13651	9916	9906	1
13651	9916	9918	1
13643	13642	13653	1
13641	13642	13653	1
979	986	13653	1
988	986	13653	1
13644	13651	13652	1
13644	13651	9916	1
13642	13643	13644	1
13644	13643	13647	1
13644	13645	13646	1
13644	13645	13648	1
13642	13653	13654	1
986	13653	13642	1
13642	13643	13647	1
13642	13641	13646	1
13642	13641	13649	1
13643	13644	13645	1
13641	13642	13643	1
13641	13646	13645	1
13645	13646	13650	1
13641	13646	13650	1
13646	13645	13648	1
13646	13641	13649	1
13652	13651	9916	1
986	13653	13654	1
11641	11640	11651	1
11639	11640	11651	1
11651	4665	4658	1
11651	4665	4667	1
11641	11642	11649	1
11643	11642	11649	1
11649	11026	11016	1
11649	11026	11028	1
11640	11651	11652	1
11640	11651	4665	1
11640	11641	11642	1
11640	11641	11645	1
11640	11639	11644	1
11640	11639	11647	1
11642	11649	11650	1
11642	11649	11026	1
11642	11641	11645	1
11642	11643	11644	1
11642	11643	11646	1
11639	11640	11641	1
11641	11642	11643	1
11639	11644	11643	1
11639	11644	11648	1
11643	11644	11648	1
11644	11639	11647	1
11644	11643	11646	1
11652	11651	4665	1
11650	11649	11026	1
2380	2381	2388	1
2382	2381	2388	1
2388	5043	5036	1
2388	5043	5045	1
2380	2379	2390	1
2378	2379	2390	1
2361	2367	2390	1
2368	2367	2390	1
2381	2388	2389	1
2381	2388	5043	1
2381	2380	2379	1
2381	2380	2384	1
2381	2382	2383	1
2381	2382	2385	1
2379	2390	2391	1
2367	2390	2379	1
2379	2380	2384	1
2379	2378	2383	1
2379	2378	2386	1
2382	2381	2380	1
2380	2379	2378	1
2382	2383	2378	1
2382	2383	2387	1
2378	2383	2387	1
2383	2382	2385	1
2383	2378	2386	1
2389	2388	5043	1
2367	2390	2391	1
3843	3842	3853	1
3841	3842	3853	1
3853	3861	3855	1
3853	3861	3862	1
3843	3844	3851	1
3845	3844	3851	1
3851	10771	10765	1
3851	10771	10772	1
3842	3853	3854	1
3842	3853	3861	1
3842	3843	3844	1
3842	3843	3847	1
3842	3841	3846	1
3842	3841	3849	1
3844	3851	3852	1
3844	3851	10771	1
3844	3843	3847	1
3844	3845	3846	1
3844	3845	3848	1
3841	3842	3843	1
3843	3844	3845	1
3841	3846	3845	1
3841	3846	3850	1
3845	3846	3850	1
3846	3841	3849	1
3846	3845	3848	1
3854	3853	3861	1
3852	3851	10771	1
13475	13474	13485	1
13473	13474	13485	1
13485	8850	8843	1
13485	8850	8852	1
13475	13476	13483	1
13477	13476	13483	1
1276	1283	13483	1
1285	1283	13483	1
13474	13485	13486	1
13474	13485	8850	1
13474	13475	13476	1
13474	13475	13479	1
13474	13473	13478	1
13474	13473	13481	1
13476	13483	13484	1
1283	13483	13476	1
13476	13475	13479	1
13476	13477	13478	1
13476	13477	13480	1
13473	13474	13475	1
13475	13476	13477	1
13473	13478	13477	1
13473	13478	13482	1
13477	13478	13482	1
13478	13473	13481	1
13478	13477	13480	1
13486	13485	8850	1
1283	13483	13484	1
11837	11836	11847	1
11835	11836	11847	1
11847	4942	4932	1
11847	4942	4944	1
11837	11838	11845	1
11839	11838	11845	1
11845	11070	11060	1
11845	11070	11072	1
11836	11847	11848	1
11836	11847	4942	1
11836	11837	11838	1
11836	11837	11841	1
11836	11835	11840	1
11836	11835	11843	1
11838	11845	11846	1
11838	11845	11070	1
11838	11837	11841	1
11838	11839	11840	1
11838	11839	11842	1
11835	11836	11837	1
11837	11838	11839	1
11835	11840	11839	1
11835	11840	11844	1
11839	11840	11844	1
11840	11835	11843	1
11840	11839	11842	1
11848	11847	4942	1
11846	11845	11070	1
11781	11780	11791	1
11779	11780	11791	1
11791	4869	4859	1
11791	4869	4871	1
11781	11782	11789	1
11783	11782	11789	1
11789	10293	10286	1
11789	10293	10295	1
11780	11791	11792	1
11780	11791	4869	1
11780	11781	11782	1
11780	11781	11785	1
11780	11779	11784	1
11780	11779	11787	1
11782	11789	11790	1
11782	11789	10293	1
11782	11781	11785	1
11782	11783	11784	1
11782	11783	11786	1
11779	11780	11781	1
11781	11782	11783	1
11779	11784	11783	1
11779	11784	11788	1
11783	11784	11788	1
11784	11779	11787	1
11784	11783	11786	1
11792	11791	4869	1
11790	11789	10293	1
963	962	973	1
961	962	973	1
944	950	973	1
951	950	973	1
963	964	971	1
965	964	971	1
971	5957	5951	1
971	5957	5958	1
962	973	974	1
950	973	962	1
962	963	964	1
962	963	967	1
962	961	966	1
962	961	969	1
964	971	972	1
964	971	5957	1
964	963	967	1
964	965	966	1
964	965	968	1
961	962	963	1
963	964	965	1
961	966	965	1
961	966	970	1
965	966	970	1
966	961	969	1
966	965	968	1
950	973	974	1
972	971	5957	1
6740	6739	6750	1
6738	6739	6750	1
6750	6758	6752	1
6750	6758	6759	1
6740	6741	6748	1
6742	6741	6748	1
1134	1141	6748	1
1143	1141	6748	1
6739	6750	6751	1
6739	6750	6758	1
6739	6740	6741	1
6739	6740	6744	1
6739	6738	6743	1
6739	6738	6746	1
6741	6748	6749	1
1141	6748	6741	1
6741	6740	6744	1
6741	6742	6743	1
6741	6742	6745	1
6738	6739	6740	1
6740	6741	6742	1
6738	6743	6742	1
6738	6743	6747	1
6742	6743	6747	1
6743	6738	6746	1
6743	6742	6745	1
6751	6750	6758	1
1141	6748	6749	1
6667	6666	6677	1
6665	6666	6677	1
6677	5204	5194	1
6677	5204	5206	1
6667	6668	6675	1
6669	6668	6675	1
6675	6685	6679	1
6675	6685	6686	1
6666	6677	6678	1
6666	6677	5204	1
6666	6667	6668	1
6666	6667	6671	1
6666	6665	6670	1
6666	6665	6673	1
6668	6675	6676	1
6668	6675	6685	1
6668	6667	6671	1
6668	6669	6670	1
6668	6669	6672	1
6665	6666	6667	1
6667	6668	6669	1
6665	6670	6669	1
6665	6670	6674	1
6669	6670	6674	1
6670	6665	6673	1
6670	6669	6672	1
6678	6677	5204	1
6676	6675	6685	1
12439	12438	12449	1
12437	12438	12449	1
1510	1517	12449	1
1519	1517	12449	1
12439	12440	12447	1
12441	12440	12447	1
12447	6020	6013	1
12447	6020	6022	1
12438	12449	12450	1
1517	12449	12438	1
12438	12439	12440	1
12438	12439	12443	1
12438	12437	12442	1
12438	12437	12445	1
12440	12447	12448	1
12440	12447	6020	1
12440	12439	12443	1
12440	12441	12442	1
12440	12441	12444	1
12437	12438	12439	1
12439	12440	12441	1
12437	12442	12441	1
12437	12442	12446	1
12441	12442	12446	1
12442	12437	12445	1
12442	12441	12444	1
1517	12449	12450	1
12448	12447	6020	1
3288	3287	3298	1
3286	3287	3298	1
3288	3289	3296	1
3290	3289	3296	1
3296	8918	8912	1
3296	8918	8919	1
3287	3298	3300	1
3287	3298	3299	1
3287	3288	3289	1
3287	3288	3292	1
3287	3286	3291	1
3287	3286	3294	1
3289	3296	3297	1
3289	3296	8918	1
3289	3288	3292	1
3289	3290	3291	1
3289	3290	3293	1
3286	3287	3288	1
3288	3289	3290	1
3286	3291	3290	1
3286	3291	3295	1
3290	3291	3295	1
3291	3286	3294	1
3291	3290	3293	1
3300	3298	3299	1
3297	3296	8918	1
746	745	756	1
744	745	756	1
727	733	756	1
734	733	756	1
746	747	754	1
748	747	754	1
754	5009	5003	1
754	5009	5010	1
745	756	757	1
733	756	745	1
745	746	747	1
745	746	750	1
745	744	749	1
745	744	752	1
747	754	755	1
747	754	5009	1
747	746	750	1
747	748	749	1
747	748	751	1
744	745	746	1
746	747	748	1
744	749	748	1
744	749	753	1
748	749	753	1
749	744	752	1
749	748	751	1
733	756	757	1
755	754	5009	1
8856	8855	8866	1
8854	8855	8866	1
8866	9959	9952	1
8866	9959	9961	1
8856	8857	8864	1
8858	8857	8864	1
8864	8880	8870	1
8864	8880	8882	1
8855	8866	8867	1
8855	8866	9959	1
8855	8856	8857	1
8855	8856	8860	1
8855	8854	8859	1
8855	8854	8862	1
8857	8864	8865	1
8857	8864	8880	1
8857	8856	8860	1
8857	8858	8859	1
8857	8858	8861	1
8854	8855	8856	1
8856	8857	8858	1
8854	8859	8858	1
8854	8859	8863	1
8858	8859	8863	1
8859	8854	8862	1
8859	8858	8861	1
8867	8866	9959	1
8865	8864	8880	1
12579	12578	12589	1
12577	12578	12589	1
12589	8104	8094	1
12589	8104	8106	1
12579	12580	12587	1
12581	12580	12587	1
12587	6283	6273	1
12587	6283	6285	1
12578	12589	12590	1
12578	12589	8104	1
12578	12579	12580	1
12578	12579	12583	1
12578	12577	12582	1
12578	12577	12585	1
12580	12587	12588	1
12580	12587	6283	1
12580	12579	12583	1
12580	12581	12582	1
12580	12581	12584	1
12577	12578	12579	1
12579	12580	12581	1
12577	12582	12581	1
12577	12582	12586	1
12581	12582	12586	1
12582	12577	12585	1
12582	12581	12584	1
12590	12589	8104	1
12588	12587	6283	1
7527	7526	7537	1
7525	7526	7537	1
7537	9740	9733	1
7537	9740	9742	1
7527	7528	7535	1
7529	7528	7535	1
7535	7545	7539	1
7535	7545	7546	1
7526	7537	7538	1
7526	7537	9740	1
7526	7527	7528	1
7526	7527	7531	1
7526	7525	7530	1
7526	7525	7533	1
7528	7535	7536	1
7528	7535	7545	1
7528	7527	7531	1
7528	7529	7530	1
7528	7529	7532	1
7525	7526	7527	1
7527	7528	7529	1
7525	7530	7529	1
7525	7530	7534	1
7529	7530	7534	1
7530	7525	7533	1
7530	7529	7532	1
7538	7537	9740	1
7536	7535	7545	1
7934	7933	7944	1
7932	7933	7944	1
7944	7952	7946	1
7944	7952	7953	1
7934	7935	7942	1
7936	7935	7942	1
7942	7696	7689	1
7942	7696	7698	1
7933	7944	7945	1
7933	7944	7952	1
7933	7934	7935	1
7933	7934	7938	1
7933	7932	7937	1
7933	7932	7940	1
7935	7942	7943	1
7935	7942	7696	1
7935	7934	7938	1
7935	7936	7937	1
7935	7936	7939	1
7932	7933	7934	1
7934	7935	7936	1
7932	7937	7936	1
7932	7937	7941	1
7936	7937	7941	1
7937	7932	7940	1
7937	7936	7939	1
7945	7944	7952	1
7943	7942	7696	1
12789	12788	12799	1
12787	12788	12799	1
12799	10395	10388	1
12799	10395	10397	1
12789	12790	12797	1
12791	12790	12797	1
12797	6764	6754	1
12797	6764	6766	1
12788	12799	12800	1
12788	12799	10395	1
12788	12789	12790	1
12788	12789	12793	1
12788	12787	12792	1
12788	12787	12795	1
12790	12797	12798	1
12790	12797	6764	1
12790	12789	12793	1
12790	12791	12792	1
12790	12791	12794	1
12787	12788	12789	1
12789	12790	12791	1
12787	12792	12791	1
12787	12792	12796	1
12791	12792	12796	1
12792	12787	12795	1
12792	12791	12794	1
12800	12799	10395	1
12798	12797	6764	1
152	151	162	1
150	151	162	1
131	137	162	1
138	137	162	1
152	153	160	1
154	153	160	1
160	6807	6800	1
160	6807	6809	1
151	162	163	1
137	162	151	1
151	152	153	1
151	152	156	1
151	150	155	1
151	150	158	1
153	160	161	1
153	160	6807	1
153	152	156	1
153	154	155	1
153	154	157	1
150	151	152	1
152	153	154	1
150	155	154	1
150	155	159	1
154	155	159	1
155	150	158	1
155	154	157	1
137	162	163	1
161	160	6807	1
11571	11570	11581	1
11569	11570	11581	1
11581	4491	4484	1
11581	4491	4493	1
11571	11572	11579	1
11573	11572	11579	1
390	397	11579	1
399	397	11579	1
11570	11581	11582	1
11570	11581	4491	1
11570	11571	11572	1
11570	11571	11575	1
11570	11569	11574	1
11570	11569	11577	1
11572	11579	11580	1
397	11579	11572	1
11572	11571	11575	1
11572	11573	11574	1
11572	11573	11576	1
11569	11570	11571	1
11571	11572	11573	1
11569	11574	11573	1
11569	11574	11578	1
11573	11574	11578	1
11574	11569	11577	1
11574	11573	11576	1
11582	11581	4491	1
397	11579	11580	1
1711	1710	1721	1
1709	1710	1721	1
1721	7900	7890	1
1721	7900	7902	1
1711	1712	1719	1
1713	1712	1719	1
1692	1698	1719	1
1699	1698	1719	1
1710	1721	1722	1
1710	1721	7900	1
1710	1711	1712	1
1710	1711	1715	1
1710	1709	1714	1
1710	1709	1717	1
1712	1719	1720	1
1698	1719	1712	1
1712	1711	1715	1
1712	1713	1714	1
1712	1713	1716	1
1709	1710	1711	1
1711	1712	1713	1
1709	1714	1713	1
1709	1714	1718	1
1713	1714	1718	1
1714	1709	1717	1
1714	1713	1716	1
1722	1721	7900	1
1698	1719	1720	1
2349	2348	2359	1
2347	2348	2359	1
2359	6802	6796	1
2359	6802	6803	1
2349	2350	2357	1
2351	2350	2357	1
2330	2336	2357	1
2337	2336	2357	1
2348	2359	2360	1
2348	2359	6802	1
2348	2349	2350	1
2348	2349	2353	1
2348	2347	2352	1
2348	2347	2355	1
2350	2357	2358	1
2336	2357	2350	1
2350	2349	2353	1
2350	2351	2352	1
2350	2351	2354	1
2347	2348	2349	1
2349	2350	2351	1
2347	2352	2351	1
2347	2352	2356	1
2351	2352	2356	1
2352	2347	2355	1
2352	2351	2354	1
2360	2359	6802	1
2336	2357	2358	1
12859	12858	12869	1
12857	12858	12869	1
12869	8792	8785	1
12869	8792	8794	1
12859	12860	12867	1
12861	12860	12867	1
12867	7056	7046	1
12867	7056	7058	1
12858	12869	12870	1
12858	12869	8792	1
12858	12859	12860	1
12858	12859	12863	1
12858	12857	12862	1
12858	12857	12865	1
12860	12867	12868	1
12860	12867	7056	1
12860	12859	12863	1
12860	12861	12862	1
12860	12861	12864	1
12857	12858	12859	1
12859	12860	12861	1
12857	12862	12861	1
12857	12862	12866	1
12861	12862	12866	1
12862	12857	12865	1
12862	12861	12864	1
12870	12869	8792	1
12868	12867	7056	1
3648	3647	3658	1
3646	3647	3658	1
3648	3649	3656	1
3650	3649	3656	1
3656	10821	10811	1
3656	10821	10823	1
3647	3658	3659	1
3647	3658	3660	1
3647	3648	3649	1
3647	3648	3652	1
3647	3646	3651	1
3647	3646	3654	1
3649	3656	3657	1
3649	3656	10821	1
3649	3648	3652	1
3649	3650	3651	1
3649	3650	3653	1
3646	3647	3648	1
3648	3649	3650	1
3646	3651	3650	1
3646	3651	3655	1
3650	3651	3655	1
3651	3646	3654	1
3651	3650	3653	1
3659	3658	3660	1
3657	3656	10821	1
5690	5691	5698	1
5692	5691	5698	1
1572	1579	5698	1
1581	1579	5698	1
5690	5689	5700	1
5688	5689	5700	1
5700	5714	5704	1
5700	5714	5716	1
5691	5698	5699	1
1579	5698	5691	1
5691	5690	5689	1
5691	5690	5694	1
5691	5692	5693	1
5691	5692	5695	1
5689	5700	5701	1
5689	5700	5714	1
5689	5690	5694	1
5689	5688	5693	1
5689	5688	5696	1
5692	5691	5690	1
5690	5689	5688	1
5692	5693	5688	1
5692	5693	5697	1
5688	5693	5697	1
5693	5692	5695	1
5693	5688	5696	1
1579	5698	5699	1
5701	5700	5714	1
13041	13040	13051	1
13039	13040	13051	1
13051	7618	7612	1
13051	7618	7619	1
13041	13042	13049	1
13043	13042	13049	1
13049	9638	9628	1
13049	9638	9640	1
13040	13051	13052	1
13040	13051	7618	1
13040	13041	13042	1
13040	13041	13045	1
13040	13039	13044	1
13040	13039	13047	1
13042	13049	13050	1
13042	13049	9638	1
13042	13041	13045	1
13042	13043	13044	1
13042	13043	13046	1
13039	13040	13041	1
13041	13042	13043	1
13039	13044	13043	1
13039	13044	13048	1
13043	13044	13048	1
13044	13039	13047	1
13044	13043	13046	1
13052	13051	7618	1
13050	13049	9638	1
5151	5150	5161	1
5149	5150	5161	1
5161	5169	5163	1
5161	5169	5170	1
5151	5152	5159	1
5153	5152	5159	1
5159	3939	3932	1
5159	3939	3941	1
5150	5161	5162	1
5150	5161	5169	1
5150	5151	5152	1
5150	5151	5155	1
5150	5149	5154	1
5150	5149	5157	1
5152	5159	5160	1
5152	5159	3939	1
5152	5151	5155	1
5152	5153	5154	1
5152	5153	5156	1
5149	5150	5151	1
5151	5152	5153	1
5149	5154	5153	1
5149	5154	5158	1
5153	5154	5158	1
5154	5149	5157	1
5154	5153	5156	1
5162	5161	5169	1
5160	5159	3939	1
4003	4002	4013	1
4001	4002	4013	1
4013	10777	10767	1
4013	10777	10779	1
4003	4004	4011	1
4005	4004	4011	1
4011	4021	4015	1
4011	4021	4022	1
4002	4013	4014	1
4002	4013	10777	1
4002	4003	4004	1
4002	4003	4007	1
4002	4001	4006	1
4002	4001	4009	1
4004	4011	4012	1
4004	4011	4021	1
4004	4003	4007	1
4004	4005	4006	1
4004	4005	4008	1
4001	4002	4003	1
4003	4004	4005	1
4001	4006	4005	1
4001	4006	4010	1
4005	4006	4010	1
4006	4001	4009	1
4006	4005	4008	1
4014	4013	10777	1
4012	4011	4021	1
12229	12228	12239	1
12227	12228	12239	1
12239	5713	5706	1
12239	5713	5715	1
12229	12230	12237	1
12231	12230	12237	1
824	831	12237	1
833	831	12237	1
12228	12239	12240	1
12228	12239	5713	1
12228	12229	12230	1
12228	12229	12233	1
12228	12227	12232	1
12228	12227	12235	1
12230	12237	12238	1
831	12237	12230	1
12230	12229	12233	1
12230	12231	12232	1
12230	12231	12234	1
12227	12228	12229	1
12229	12230	12231	1
12227	12232	12231	1
12227	12232	12236	1
12231	12232	12236	1
12232	12227	12235	1
12232	12231	12234	1
12240	12239	5713	1
831	12237	12238	1
10110	10109	10120	1
10108	10109	10120	1
10120	10128	10122	1
10120	10128	10129	1
10110	10111	10118	1
10112	10111	10118	1
10118	7230	7220	1
10118	7230	7232	1
10109	10120	10121	1
10109	10120	10128	1
10109	10110	10111	1
10109	10110	10114	1
10109	10108	10113	1
10109	10108	10116	1
10111	10118	10119	1
10111	10118	7230	1
10111	10110	10114	1
10111	10112	10113	1
10111	10112	10115	1
10108	10109	10110	1
10110	10111	10112	1
10108	10113	10112	1
10108	10113	10117	1
10112	10113	10117	1
10113	10108	10116	1
10113	10112	10115	1
10121	10120	10128	1
10119	10118	7230	1
12663	12662	12673	1
12661	12662	12673	1
12673	6444	6434	1
12673	6444	6446	1
12663	12664	12671	1
12665	12664	12671	1
948	955	12671	1
957	955	12671	1
12662	12673	12674	1
12662	12673	6444	1
12662	12663	12664	1
12662	12663	12667	1
12662	12661	12666	1
12662	12661	12669	1
12664	12671	12672	1
955	12671	12664	1
12664	12663	12667	1
12664	12665	12666	1
12664	12665	12668	1
12661	12662	12663	1
12663	12664	12665	1
12661	12666	12665	1
12661	12666	12670	1
12665	12666	12670	1
12666	12661	12669	1
12666	12665	12668	1
12674	12673	6444	1
955	12671	12672	1
9279	9278	9289	1
9277	9278	9289	1
9289	10191	10184	1
9289	10191	10193	1
9279	9280	9287	1
9281	9280	9287	1
9287	9302	9295	1
9287	9302	9304	1
9278	9289	9290	1
9278	9289	10191	1
9278	9279	9280	1
9278	9279	9283	1
9278	9277	9282	1
9278	9277	9285	1
9280	9287	9288	1
9280	9287	9302	1
9280	9279	9283	1
9280	9281	9282	1
9280	9281	9284	1
9277	9278	9279	1
9279	9280	9281	1
9277	9282	9281	1
9277	9282	9286	1
9281	9282	9286	1
9282	9277	9285	1
9282	9281	9284	1
9290	9289	10191	1
9288	9287	9302	1
8080	8079	8090	1
8078	8079	8090	1
8090	5364	5354	1
8090	5364	5366	1
8080	8081	8088	1
8082	8081	8088	1
8088	8098	8092	1
8088	8098	8099	1
8079	8090	8091	1
8079	8090	5364	1
8079	8080	8081	1
8079	8080	8084	1
8079	8078	8083	1
8079	8078	8086	1
8081	8088	8089	1
8081	8088	8098	1
8081	8080	8084	1
8081	8082	8083	1
8081	8082	8085	1
8078	8079	8080	1
8080	8081	8082	1
8078	8083	8082	1
8078	8083	8087	1
8082	8083	8087	1
8083	8078	8086	1
8083	8082	8085	1
8091	8090	5364	1
8089	8088	8098	1
10168	10167	10178	1
10166	10167	10178	1
10178	10186	10180	1
10178	10186	10187	1
10168	10169	10176	1
10170	10169	10176	1
10176	4868	4861	1
10176	4868	4870	1
10167	10178	10179	1
10167	10178	10186	1
10167	10168	10169	1
10167	10168	10172	1
10167	10166	10171	1
10167	10166	10174	1
10169	10176	10177	1
10169	10176	4868	1
10169	10168	10172	1
10169	10170	10171	1
10169	10170	10173	1
10166	10167	10168	1
10168	10169	10170	1
10166	10171	10170	1
10166	10171	10175	1
10170	10171	10175	1
10171	10166	10174	1
10171	10170	10173	1
10179	10178	10186	1
10177	10176	4868	1
9965	9964	9975	1
9963	9964	9975	1
1851	1858	9975	1
1860	1858	9975	1
9965	9966	9973	1
9967	9966	9973	1
9973	9983	9977	1
9973	9983	9984	1
9964	9975	9976	1
1858	9975	9964	1
9964	9965	9966	1
9964	9965	9969	1
9964	9963	9968	1
9964	9963	9971	1
9966	9973	9974	1
9966	9973	9983	1
9966	9965	9969	1
9966	9967	9968	1
9966	9967	9970	1
9963	9964	9965	1
9965	9966	9967	1
9963	9968	9967	1
9963	9968	9972	1
9967	9968	9972	1
9968	9963	9971	1
9968	9967	9970	1
1858	9975	9976	1
9974	9973	9983	1
11431	11430	11441	1
11429	11430	11441	1
11441	4259	4249	1
11441	4259	4261	1
11431	11432	11439	1
11433	11432	11439	1
11439	7668	7658	1
11439	7668	7670	1
11430	11441	11442	1
11430	11441	4259	1
11430	11431	11432	1
11430	11431	11435	1
11430	11429	11434	1
11430	11429	11437	1
11432	11439	11440	1
11432	11439	7668	1
11432	11431	11435	1
11432	11433	11434	1
11432	11433	11436	1
11429	11430	11431	1
11431	11432	11433	1
11429	11434	11433	1
11429	11434	11438	1
11433	11434	11438	1
11434	11429	11437	1
11434	11433	11436	1
11442	11441	4259	1
11440	11439	7668	1
13769	13768	13779	1
13767	13768	13779	1
1758	1765	13779	1
1767	1765	13779	1
13769	13770	13777	1
13771	13770	13777	1
13777	11128	11121	1
13777	11128	11130	1
13768	13779	13780	1
1765	13779	13768	1
13768	13769	13770	1
13768	13769	13773	1
13768	13767	13772	1
13768	13767	13775	1
13770	13777	13778	1
13770	13777	11128	1
13770	13769	13773	1
13770	13771	13772	1
13770	13771	13774	1
13767	13768	13769	1
13769	13770	13771	1
13767	13772	13771	1
13767	13772	13776	1
13771	13772	13776	1
13772	13767	13775	1
13772	13771	13774	1
1765	13779	13780	1
13778	13777	11128	1
2913	2914	2921	1
2915	2914	2921	1
2921	5860	5850	1
2921	5860	5862	1
2913	2912	2923	1
2911	2912	2923	1
2914	2921	2922	1
2914	2921	5860	1
2912	2913	2914	1
2914	2913	2917	1
2914	2915	2916	1
2914	2915	2918	1
2912	2923	2924	1
2912	2923	2925	1
2912	2913	2917	1
2912	2911	2916	1
2912	2911	2919	1
2913	2914	2915	1
2911	2912	2913	1
2911	2916	2915	1
2915	2916	2920	1
2911	2916	2920	1
2916	2915	2918	1
2916	2911	2919	1
2922	2921	5860	1
2924	2923	2925	1
248	247	258	1
246	247	258	1
235	237	258	1
238	237	258	1
248	249	256	1
250	249	256	1
256	8787	8781	1
256	8787	8788	1
247	258	259	1
237	258	247	1
247	248	249	1
247	248	252	1
247	246	251	1
247	246	254	1
249	256	257	1
249	256	8787	1
249	248	252	1
249	250	251	1
249	250	253	1
246	247	248	1
248	249	250	1
246	251	250	1
246	251	255	1
250	251	255	1
251	246	254	1
251	250	253	1
237	258	259	1
257	256	8787	1
13083	13082	13093	1
13081	13082	13093	1
13093	10746	10739	1
13093	10746	10748	1
13083	13084	13091	1
13085	13084	13091	1
13091	7667	7660	1
13091	7667	7669	1
13082	13093	13094	1
13082	13093	10746	1
13082	13083	13084	1
13082	13083	13087	1
13082	13081	13086	1
13082	13081	13089	1
13084	13091	13092	1
13084	13091	7667	1
13084	13083	13087	1
13084	13085	13086	1
13084	13085	13088	1
13081	13082	13083	1
13083	13084	13085	1
13081	13086	13085	1
13081	13086	13090	1
13085	13086	13090	1
13086	13081	13089	1
13086	13085	13088	1
13094	13093	10746	1
13092	13091	7667	1
12901	12900	12911	1
12899	12900	12911	1
12911	7195	7189	1
12911	7195	7196	1
12901	12902	12909	1
12903	12902	12909	1
12909	8821	8814	1
12909	8821	8823	1
12900	12911	12912	1
12900	12911	7195	1
12900	12901	12902	1
12900	12901	12905	1
12900	12899	12904	1
12900	12899	12907	1
12902	12909	12910	1
12902	12909	8821	1
12902	12901	12905	1
12902	12903	12904	1
12902	12903	12906	1
12899	12900	12901	1
12901	12902	12903	1
12899	12904	12903	1
12899	12904	12908	1
12903	12904	12908	1
12904	12899	12907	1
12904	12903	12906	1
12912	12911	7195	1
12910	12909	8821	1
13349	13348	13359	1
13347	13348	13359	1
700	707	13359	1
709	707	13359	1
13349	13350	13357	1
13351	13350	13357	1
13357	8324	8314	1
13357	8324	8326	1
13348	13359	13360	1
707	13359	13348	1
13348	13349	13350	1
13348	13349	13353	1
13348	13347	13352	1
13348	13347	13355	1
13350	13357	13358	1
13350	13357	8324	1
13350	13349	13353	1
13350	13351	13352	1
13350	13351	13354	1
13347	13348	13349	1
13349	13350	13351	1
13347	13352	13351	1
13347	13352	13356	1
13351	13352	13356	1
13352	13347	13355	1
13352	13351	13354	1
707	13359	13360	1
13358	13357	8324	1
2442	2441	2452	1
2440	2441	2452	1
2423	2429	2452	1
2430	2429	2452	1
2442	2443	2450	1
2444	2443	2450	1
2450	8215	8209	1
2450	8215	8216	1
2441	2452	2453	1
2429	2452	2441	1
2441	2442	2443	1
2441	2442	2446	1
2441	2440	2445	1
2441	2440	2448	1
2443	2450	2451	1
2443	2450	8215	1
2443	2442	2446	1
2443	2444	2445	1
2443	2444	2447	1
2440	2441	2442	1
2442	2443	2444	1
2440	2445	2444	1
2440	2445	2449	1
2444	2445	2449	1
2445	2440	2448	1
2445	2444	2447	1
2429	2452	2453	1
2451	2450	8215	1
11879	11878	11889	1
11877	11878	11889	1
1245	1252	11889	1
1254	1252	11889	1
11879	11880	11887	1
11881	11880	11887	1
11887	5044	5034	1
11887	5044	5046	1
11878	11889	11890	1
1252	11889	11878	1
11878	11879	11880	1
11878	11879	11883	1
11878	11877	11882	1
11878	11877	11885	1
11880	11887	11888	1
11880	11887	5044	1
11880	11879	11883	1
11880	11881	11882	1
11880	11881	11884	1
11877	11878	11879	1
11879	11880	11881	1
11877	11882	11881	1
11877	11882	11886	1
11881	11882	11886	1
11882	11877	11885	1
11882	11881	11884	1
1252	11889	11890	1
11888	11887	5044	1
2958	2957	2968	1
2956	2957	2968	1
2958	2959	2966	1
2960	2959	2966	1
2966	6569	6563	1
2966	6569	6570	1
2957	2968	2969	1
2957	2968	2970	1
2957	2958	2959	1
2957	2958	2962	1
2957	2956	2961	1
2957	2956	2964	1
2959	2966	2967	1
2959	2966	6569	1
2959	2958	2962	1
2959	2960	2961	1
2959	2960	2963	1
2956	2957	2958	1
2958	2959	2960	1
2956	2961	2960	1
2956	2961	2965	1
2960	2961	2965	1
2961	2956	2964	1
2961	2960	2963	1
2969	2968	2970	1
2967	2966	6569	1
13839	13838	13849	1
13837	13838	13849	1
2210	2217	13849	1
2219	2217	13849	1
13839	13840	13847	1
13841	13840	13847	1
1913	1920	13847	1
1922	1920	13847	1
13838	13849	13850	1
2217	13849	13838	1
13838	13839	13840	1
13838	13839	13843	1
13838	13837	13842	1
13838	13837	13845	1
13840	13847	13848	1
1920	13847	13840	1
13840	13839	13843	1
13840	13841	13842	1
13840	13841	13844	1
13837	13838	13839	1
13839	13840	13841	1
13837	13842	13841	1
13837	13842	13846	1
13841	13842	13846	1
13842	13837	13845	1
13842	13841	13844	1
2217	13849	13850	1
1920	13847	13848	1
8344	8345	8352	1
8346	8345	8352	1
8352	8362	8356	1
8352	8362	8363	1
8344	8343	8354	1
8342	8343	8354	1
8354	9706	9700	1
8354	9706	9707	1
8345	8352	8353	1
8345	8352	8362	1
8345	8344	8343	1
8345	8344	8348	1
8345	8346	8347	1
8345	8346	8349	1
8343	8354	8355	1
8343	8354	9706	1
8343	8344	8348	1
8343	8342	8347	1
8343	8342	8350	1
8346	8345	8344	1
8344	8343	8342	1
8346	8347	8342	1
8346	8347	8351	1
8342	8347	8351	1
8347	8346	8349	1
8347	8342	8350	1
8353	8352	8362	1
8355	8354	9706	1
1401	1400	1411	1
1399	1400	1411	1
607	614	1411	1
616	614	1411	1
1401	1402	1409	1
1403	1402	1409	1
1382	1388	1409	1
1389	1388	1409	1
1400	1411	1412	1
614	1411	1400	1
1400	1401	1402	1
1400	1401	1405	1
1400	1399	1404	1
1400	1399	1407	1
1402	1409	1410	1
1388	1409	1402	1
1402	1401	1405	1
1402	1403	1404	1
1402	1403	1406	1
1399	1400	1401	1
1401	1402	1403	1
1399	1404	1403	1
1399	1404	1408	1
1403	1404	1408	1
1404	1399	1407	1
1404	1403	1406	1
614	1411	1412	1
1388	1409	1410	1
7454	7453	7464	1
7452	7453	7464	1
7464	7472	7466	1
7464	7472	7473	1
7454	7455	7462	1
7456	7455	7462	1
7462	6254	6244	1
7462	6254	6256	1
7453	7464	7465	1
7453	7464	7472	1
7453	7454	7455	1
7453	7454	7458	1
7453	7452	7457	1
7453	7452	7460	1
7455	7462	7463	1
7455	7462	6254	1
7455	7454	7458	1
7455	7456	7457	1
7455	7456	7459	1
7452	7453	7454	1
7454	7455	7456	1
7452	7457	7456	1
7452	7457	7461	1
7456	7457	7461	1
7457	7452	7460	1
7457	7456	7459	1
7465	7464	7472	1
7463	7462	6254	1
11627	11628	11635	1
11629	11628	11635	1
11635	7579	7572	1
11635	7579	7581	1
11627	11626	11637	1
11625	11626	11637	1
11637	4636	4629	1
11637	4636	4638	1
11628	11635	11636	1
11628	11635	7579	1
11626	11627	11628	1
11628	11627	11631	1
11628	11629	11630	1
11628	11629	11632	1
11626	11637	11638	1
11626	11637	4636	1
11626	11627	11631	1
11626	11625	11630	1
11626	11625	11633	1
11627	11628	11629	1
11625	11626	11627	1
11625	11630	11629	1
11629	11630	11634	1
11625	11630	11634	1
11630	11629	11632	1
11630	11625	11633	1
11636	11635	7579	1
11638	11637	4636	1
12257	12258	12265	1
12259	12258	12265	1
12265	6632	6625	1
12265	6632	6634	1
12257	12256	12267	1
12255	12256	12267	1
12267	5743	5733	1
12267	5743	5745	1
12258	12265	12266	1
12258	12265	6632	1
12256	12257	12258	1
12258	12257	12261	1
12258	12259	12260	1
12258	12259	12262	1
12256	12267	12268	1
12256	12267	5743	1
12256	12257	12261	1
12256	12255	12260	1
12256	12255	12263	1
12257	12258	12259	1
12255	12256	12257	1
12255	12260	12259	1
12259	12260	12264	1
12255	12260	12264	1
12260	12259	12262	1
12260	12255	12263	1
12266	12265	6632	1
12268	12267	5743	1
6259	6258	6269	1
6257	6258	6269	1
6269	6277	6271	1
6269	6277	6278	1
6259	6260	6267	1
6261	6260	6267	1
6267	4200	4193	1
6267	4200	4202	1
6258	6269	6270	1
6258	6269	6277	1
6258	6259	6260	1
6258	6259	6263	1
6258	6257	6262	1
6258	6257	6265	1
6260	6267	6268	1
6260	6267	4200	1
6260	6259	6263	1
6260	6261	6262	1
6260	6261	6264	1
6257	6258	6259	1
6259	6260	6261	1
6257	6262	6261	1
6257	6262	6266	1
6261	6262	6266	1
6262	6257	6265	1
6262	6261	6264	1
6270	6269	6277	1
6268	6267	4200	1
4148	4147	4158	1
4146	4147	4158	1
4158	4166	4160	1
4158	4166	4167	1
4148	4149	4156	1
4150	4149	4156	1
4156	7783	7776	1
4156	7783	7785	1
4147	4158	4159	1
4147	4158	4166	1
4147	4148	4149	1
4147	4148	4152	1
4147	4146	4151	1
4147	4146	4154	1
4149	4156	4157	1
4149	4156	7783	1
4149	4148	4152	1
4149	4150	4151	1
4149	4150	4153	1
4146	4147	4148	1
4148	4149	4150	1
4146	4151	4150	1
4146	4151	4155	1
4150	4151	4155	1
4151	4146	4154	1
4151	4150	4153	1
4159	4158	4166	1
4157	4156	7783	1
11725	11724	11735	1
11723	11724	11735	1
11735	8368	8358	1
11735	8368	8370	1
11725	11726	11733	1
11727	11726	11733	1
11733	4782	4772	1
11733	4782	4784	1
11724	11735	11736	1
11724	11735	8368	1
11724	11725	11726	1
11724	11725	11729	1
11724	11723	11728	1
11724	11723	11731	1
11726	11733	11734	1
11726	11733	4782	1
11726	11725	11729	1
11726	11727	11728	1
11726	11727	11730	1
11723	11724	11725	1
11725	11726	11727	1
11723	11728	11727	1
11723	11728	11732	1
11727	11728	11732	1
11728	11723	11731	1
11728	11727	11730	1
11736	11735	8368	1
11734	11733	4782	1
8007	8006	8017	1
8005	8006	8017	1
8017	8025	8019	1
8017	8025	8026	1
8007	8008	8015	1
8009	8008	8015	1
8015	3910	3903	1
8015	3910	3912	1
8006	8017	8018	1
8006	8017	8025	1
8006	8007	8008	1
8006	8007	8011	1
8006	8005	8010	1
8006	8005	8013	1
8008	8015	8016	1
8008	8015	3910	1
8008	8007	8011	1
8008	8009	8010	1
8008	8009	8012	1
8005	8006	8007	1
8007	8008	8009	1
8005	8010	8009	1
8005	8010	8014	1
8009	8010	8014	1
8010	8005	8013	1
8010	8009	8012	1
8018	8017	8025	1
8016	8015	3910	1
4729	4728	4739	1
4727	4728	4739	1
4739	6356	6349	1
4739	6356	6358	1
4729	4730	4737	1
4731	4730	4737	1
4737	4747	4741	1
4737	4747	4748	1
4728	4739	4740	1
4728	4739	6356	1
4728	4729	4730	1
4728	4729	4733	1
4728	4727	4732	1
4728	4727	4735	1
4730	4737	4738	1
4730	4737	4747	1
4730	4729	4733	1
4730	4731	4732	1
4730	4731	4734	1
4727	4728	4729	1
4729	4730	4731	1
4727	4732	4731	1
4727	4732	4736	1
4731	4732	4736	1
4732	4727	4735	1
4732	4731	4734	1
4740	4739	6356	1
4738	4737	4747	1
4671	4670	4681	1
4669	4670	4681	1
855	862	4681	1
864	862	4681	1
4671	4672	4679	1
4673	4672	4679	1
4679	4694	4687	1
4679	4694	4696	1
4670	4681	4682	1
862	4681	4670	1
4670	4671	4672	1
4670	4671	4675	1
4670	4669	4674	1
4670	4669	4677	1
4672	4679	4680	1
4672	4679	4694	1
4672	4671	4675	1
4672	4673	4674	1
4672	4673	4676	1
4669	4670	4671	1
4671	4672	4673	1
4669	4674	4673	1
4669	4674	4678	1
4673	4674	4678	1
4674	4669	4677	1
4674	4673	4676	1
862	4681	4682	1
4680	4679	4694	1
10081	10080	10091	1
10079	10080	10091	1
10091	10105	10095	1
10091	10105	10107	1
10081	10082	10089	1
10083	10082	10089	1
10089	8793	8783	1
10089	8793	8795	1
10080	10091	10092	1
10080	10091	10105	1
10080	10081	10082	1
10080	10081	10085	1
10080	10079	10084	1
10080	10079	10087	1
10082	10089	10090	1
10082	10089	8793	1
10082	10081	10085	1
10082	10083	10084	1
10082	10083	10086	1
10079	10080	10081	1
10081	10082	10083	1
10079	10084	10083	1
10079	10084	10088	1
10083	10084	10088	1
10084	10079	10087	1
10084	10083	10086	1
10092	10091	10105	1
10090	10089	8793	1
5836	5835	5846	1
5834	5835	5846	1
5846	5854	5848	1
5846	5854	5855	1
5836	5837	5844	1
5838	5837	5844	1
5844	8772	8766	1
5844	8772	8773	1
5835	5846	5847	1
5835	5846	5854	1
5835	5836	5837	1
5835	5836	5840	1
5835	5834	5839	1
5835	5834	5842	1
5837	5844	5845	1
5837	5844	8772	1
5837	5836	5840	1
5837	5838	5839	1
5837	5838	5841	1
5834	5835	5836	1
5836	5837	5838	1
5834	5839	5838	1
5834	5839	5843	1
5838	5839	5843	1
5839	5834	5842	1
5839	5838	5841	1
5847	5846	5854	1
5845	5844	8772	1
3003	3002	3013	1
3001	3002	3013	1
3003	3004	3011	1
3005	3004	3011	1
3011	6729	6723	1
3011	6729	6730	1
3002	3013	3014	1
3002	3013	3015	1
3002	3003	3004	1
3002	3003	3007	1
3002	3001	3006	1
3002	3001	3009	1
3004	3011	3012	1
3004	3011	6729	1
3004	3003	3007	1
3004	3005	3006	1
3004	3005	3008	1
3001	3002	3003	1
3003	3004	3005	1
3001	3006	3005	1
3001	3006	3010	1
3005	3006	3010	1
3006	3001	3009	1
3006	3005	3008	1
3014	3013	3015	1
3012	3011	6729	1
6973	6972	6983	1
6971	6972	6983	1
6983	11167	11161	1
6983	11167	11168	1
6973	6974	6981	1
6975	6974	6981	1
6981	6996	6989	1
6981	6996	6998	1
6972	6983	6984	1
6972	6983	11167	1
6972	6973	6974	1
6972	6973	6977	1
6972	6971	6976	1
6972	6971	6979	1
6974	6981	6982	1
6974	6981	6996	1
6974	6973	6977	1
6974	6975	6976	1
6974	6975	6978	1
6971	6972	6973	1
6973	6974	6975	1
6971	6976	6975	1
6971	6976	6980	1
6975	6976	6980	1
6976	6971	6979	1
6976	6975	6978	1
6984	6983	11167	1
6982	6981	6996	1
1291	1290	1301	1
1289	1290	1301	1
1301	7506	7499	1
1301	7506	7508	1
1291	1292	1299	1
1293	1292	1299	1
1272	1278	1299	1
1279	1278	1299	1
1290	1301	1302	1
1290	1301	7506	1
1290	1291	1292	1
1290	1291	1295	1
1290	1289	1294	1
1290	1289	1297	1
1292	1299	1300	1
1278	1299	1292	1
1292	1291	1295	1
1292	1293	1294	1
1292	1293	1296	1
1289	1290	1291	1
1291	1292	1293	1
1289	1294	1293	1
1289	1294	1298	1
1293	1294	1298	1
1294	1289	1297	1
1294	1293	1296	1
1302	1301	7506	1
1278	1299	1300	1
2583	2582	2593	1
2581	2582	2593	1
793	800	2593	1
802	800	2593	1
2583	2584	2591	1
2585	2584	2591	1
2564	2570	2591	1
2571	2570	2591	1
2582	2593	2594	1
800	2593	2582	1
2582	2583	2584	1
2582	2583	2587	1
2582	2581	2586	1
2582	2581	2589	1
2584	2591	2592	1
2570	2591	2584	1
2584	2583	2587	1
2584	2585	2586	1
2584	2585	2588	1
2581	2582	2583	1
2583	2584	2585	1
2581	2586	2585	1
2581	2586	2590	1
2585	2586	2590	1
2586	2581	2589	1
2586	2585	2588	1
800	2593	2594	1
2570	2591	2592	1
6391	6392	6399	1
6393	6392	6399	1
6399	7754	7747	1
6399	7754	7756	1
6391	6390	6401	1
6389	6390	6401	1
6401	6409	6403	1
6401	6409	6410	1
6392	6399	6400	1
6392	6399	7754	1
6392	6391	6390	1
6392	6391	6395	1
6392	6393	6394	1
6392	6393	6396	1
6390	6401	6402	1
6390	6401	6409	1
6390	6391	6395	1
6390	6389	6394	1
6390	6389	6397	1
6393	6392	6391	1
6391	6390	6389	1
6393	6394	6389	1
6393	6394	6398	1
6389	6394	6398	1
6394	6393	6396	1
6394	6389	6397	1
6400	6399	7754	1
6402	6401	6409	1
11235	11234	11245	1
11233	11234	11245	1
11245	7477	7470	1
11245	7477	7479	1
11235	11236	11243	1
11237	11236	11243	1
11243	3881	3874	1
11243	3881	3883	1
11234	11245	11246	1
11234	11245	7477	1
11234	11235	11236	1
11234	11235	11239	1
11234	11233	11238	1
11234	11233	11241	1
11236	11243	11244	1
11236	11243	3881	1
11236	11235	11239	1
11236	11237	11238	1
11236	11237	11240	1
11233	11234	11235	1
11235	11236	11237	1
11233	11238	11237	1
11233	11238	11242	1
11237	11238	11242	1
11238	11233	11241	1
11238	11237	11240	1
11246	11245	7477	1
11244	11243	3881	1
10357	10356	10367	1
10355	10356	10367	1
10367	4332	4322	1
10367	4332	4334	1
10357	10358	10365	1
10359	10358	10365	1
10365	10375	10369	1
10365	10375	10376	1
10356	10367	10368	1
10356	10367	4332	1
10356	10357	10358	1
10356	10357	10361	1
10356	10355	10360	1
10356	10355	10363	1
10358	10365	10366	1
10358	10365	10375	1
10358	10357	10361	1
10358	10359	10360	1
10358	10359	10362	1
10355	10356	10357	1
10357	10358	10359	1
10355	10360	10359	1
10355	10360	10364	1
10359	10360	10364	1
10360	10355	10363	1
10360	10359	10362	1
10368	10367	4332	1
10366	10365	10375	1
3828	3829	3836	1
3830	3829	3836	1
762	769	3836	1
771	769	3836	1
3828	3827	3838	1
3826	3827	3838	1
3829	3836	3837	1
769	3836	3829	1
3827	3828	3829	1
3829	3828	3832	1
3829	3830	3831	1
3829	3830	3833	1
3827	3838	3840	1
3827	3838	3839	1
3827	3828	3832	1
3827	3826	3831	1
3827	3826	3834	1
3828	3829	3830	1
3826	3827	3828	1
3826	3831	3830	1
3830	3831	3835	1
3826	3831	3835	1
3831	3830	3833	1
3831	3826	3834	1
769	3836	3837	1
3839	3838	3840	1
11277	11276	11287	1
11275	11276	11287	1
11287	6808	6798	1
11287	6808	6810	1
11277	11278	11285	1
11279	11278	11285	1
11285	4027	4017	1
11285	4027	4029	1
11276	11287	11288	1
11276	11287	6808	1
11276	11277	11278	1
11276	11277	11281	1
11276	11275	11280	1
11276	11275	11283	1
11278	11285	11286	1
11278	11285	4027	1
11278	11277	11281	1
11278	11279	11280	1
11278	11279	11282	1
11275	11276	11277	1
11277	11278	11279	1
11275	11280	11279	1
11275	11280	11284	1
11279	11280	11284	1
11280	11275	11283	1
11280	11279	11282	1
11288	11287	6808	1
11286	11285	4027	1
10578	10577	10588	1
10576	10577	10588	1
10588	11064	11058	1
10588	11064	11065	1
10578	10579	10586	1
10580	10579	10586	1
10586	10596	10590	1
10586	10596	10597	1
10577	10588	10589	1
10577	10588	11064	1
10577	10578	10579	1
10577	10578	10582	1
10577	10576	10581	1
10577	10576	10584	1
10579	10586	10587	1
10579	10586	10596	1
10579	10578	10582	1
10579	10580	10581	1
10579	10580	10583	1
10576	10577	10578	1
10578	10579	10580	1
10576	10581	10580	1
10576	10581	10585	1
10580	10581	10585	1
10581	10576	10584	1
10581	10580	10583	1
10589	10588	11064	1
10587	10586	10596	1
7119	7118	7129	1
7117	7118	7129	1
7129	7137	7131	1
7129	7137	7138	1
7119	7120	7127	1
7121	7120	7127	1
7127	5932	5925	1
7127	5932	5934	1
7118	7129	7130	1
7118	7129	7137	1
7118	7119	7120	1
7118	7119	7123	1
7118	7117	7122	1
7118	7117	7125	1
7120	7127	7128	1
7120	7127	5932	1
7120	7119	7123	1
7120	7121	7122	1
7120	7121	7124	1
7117	7118	7119	1
7119	7120	7121	1
7117	7122	7121	1
7117	7122	7126	1
7121	7122	7126	1
7122	7117	7125	1
7122	7121	7124	1
7130	7129	7137	1
7128	7127	5932	1
1835	1834	1845	1
1833	1834	1845	1
1820	1827	1845	1
1829	1827	1845	1
1835	1836	1843	1
1837	1836	1843	1
297	304	1843	1
306	304	1843	1
1834	1845	1846	1
1827	1845	1834	1
1834	1835	1836	1
1834	1835	1839	1
1834	1833	1838	1
1834	1833	1841	1
1836	1843	1844	1
304	1843	1836	1
1836	1835	1839	1
1836	1837	1838	1
1836	1837	1840	1
1833	1834	1835	1
1835	1836	1837	1
1833	1838	1837	1
1833	1838	1842	1
1837	1838	1842	1
1838	1833	1841	1
1838	1837	1840	1
1827	1845	1846	1
304	1843	1844	1
12845	12844	12855	1
12843	12844	12855	1
12855	7011	7004	1
12855	7011	7013	1
12845	12846	12853	1
12847	12846	12853	1
12853	10717	10710	1
12853	10717	10719	1
12844	12855	12856	1
12844	12855	7011	1
12844	12845	12846	1
12844	12845	12849	1
12844	12843	12848	1
12844	12843	12851	1
12846	12853	12854	1
12846	12853	10717	1
12846	12845	12849	1
12846	12847	12848	1
12846	12847	12850	1
12843	12844	12845	1
12845	12846	12847	1
12843	12848	12847	1
12843	12848	12852	1
12847	12848	12852	1
12848	12843	12851	1
12848	12847	12850	1
12856	12855	7011	1
12854	12853	10717	1
3393	3392	3403	1
3391	3392	3403	1
3393	3394	3401	1
3395	3394	3401	1
3401	9128	9121	1
3401	9128	9130	1
3392	3403	3404	1
3392	3403	3405	1
3392	3393	3394	1
3392	3393	3397	1
3392	3391	3396	1
3392	3391	3399	1
3394	3401	3402	1
3394	3401	9128	1
3394	3393	3397	1
3394	3395	3396	1
3394	3395	3398	1
3391	3392	3393	1
3393	3394	3395	1
3391	3396	3395	1
3391	3396	3400	1
3395	3396	3400	1
3396	3391	3399	1
3396	3395	3398	1
3404	3403	3405	1
3402	3401	9128	1
13545	13544	13555	1
13543	13544	13555	1
13555	9040	9033	1
13555	9040	9042	1
13545	13546	13553	1
13547	13546	13553	1
13553	10850	10840	1
13553	10850	10852	1
13544	13555	13556	1
13544	13555	9040	1
13544	13545	13546	1
13544	13545	13549	1
13544	13543	13548	1
13544	13543	13551	1
13546	13553	13554	1
13546	13553	10850	1
13546	13545	13549	1
13546	13547	13548	1
13546	13547	13550	1
13543	13544	13545	1
13545	13546	13547	1
13543	13548	13547	1
13543	13548	13552	1
13547	13548	13552	1
13548	13543	13551	1
13548	13547	13550	1
13556	13555	9040	1
13554	13553	10850	1
11949	11948	11959	1
11947	11948	11959	1
2038	2045	11959	1
2047	2045	11959	1
11949	11950	11957	1
11951	11950	11957	1
11957	5175	5165	1
11957	5175	5177	1
11948	11959	11960	1
2045	11959	11948	1
11948	11949	11950	1
11948	11949	11953	1
11948	11947	11952	1
11948	11947	11955	1
11950	11957	11958	1
11950	11957	5175	1
11950	11949	11953	1
11950	11951	11952	1
11950	11951	11954	1
11947	11948	11949	1
11949	11950	11951	1
11947	11952	11951	1
11947	11952	11956	1
11951	11952	11956	1
11952	11947	11955	1
11952	11951	11954	1
2045	11959	11960	1
11958	11957	5175	1
11263	11262	11273	1
11261	11262	11273	1
11273	3940	3930	1
11273	3940	3942	1
11263	11264	11271	1
11265	11264	11271	1
2100	2107	11271	1
2109	2107	11271	1
11262	11273	11274	1
11262	11273	3940	1
11262	11263	11264	1
11262	11263	11267	1
11262	11261	11266	1
11262	11261	11269	1
11264	11271	11272	1
2107	11271	11264	1
11264	11263	11267	1
11264	11265	11266	1
11264	11265	11268	1
11261	11262	11263	1
11263	11264	11265	1
11261	11266	11265	1
11261	11266	11270	1
11265	11266	11270	1
11266	11261	11269	1
11266	11265	11268	1
11274	11273	3940	1
2107	11271	11272	1
3618	3617	3628	1
3616	3617	3628	1
3618	3619	3626	1
3620	3619	3626	1
3626	10756	10750	1
3626	10756	10757	1
3617	3628	3630	1
3617	3628	3629	1
3617	3618	3619	1
3617	3618	3622	1
3617	3616	3621	1
3617	3616	3624	1
3619	3626	3627	1
3619	3626	10756	1
3619	3618	3622	1
3619	3620	3621	1
3619	3620	3623	1
3616	3617	3618	1
3618	3619	3620	1
3616	3621	3620	1
3616	3621	3625	1
3620	3621	3625	1
3621	3616	3624	1
3621	3620	3623	1
3629	3628	3630	1
3627	3626	10756	1
312	313	320	1
314	313	320	1
320	7726	7716	1
320	7726	7728	1
312	311	322	1
310	311	322	1
293	299	322	1
300	299	322	1
313	320	321	1
313	320	7726	1
313	312	311	1
313	312	316	1
313	314	315	1
313	314	317	1
311	322	323	1
299	322	311	1
311	312	316	1
311	310	315	1
311	310	318	1
314	313	312	1
312	311	310	1
314	315	310	1
314	315	319	1
310	315	319	1
315	314	317	1
315	310	318	1
321	320	7726	1
299	322	323	1
2614	2613	2624	1
2612	2613	2624	1
2595	2601	2624	1
2602	2601	2624	1
2614	2615	2622	1
2616	2615	2622	1
421	428	2622	1
430	428	2622	1
2613	2624	2625	1
2601	2624	2613	1
2613	2614	2615	1
2613	2614	2618	1
2613	2612	2617	1
2613	2612	2620	1
2615	2622	2623	1
428	2622	2615	1
2615	2614	2618	1
2615	2616	2617	1
2615	2616	2619	1
2612	2613	2614	1
2614	2615	2616	1
2612	2617	2616	1
2612	2617	2621	1
2616	2617	2621	1
2617	2612	2620	1
2617	2616	2619	1
2601	2624	2625	1
428	2622	2623	1
5558	5557	5568	1
5556	5557	5568	1
5568	5576	5570	1
5568	5576	5577	1
5558	5559	5566	1
5560	5559	5566	1
5566	10888	10882	1
5566	10888	10889	1
5557	5568	5569	1
5557	5568	5576	1
5557	5558	5559	1
5557	5558	5562	1
5557	5556	5561	1
5557	5556	5564	1
5559	5566	5567	1
5559	5566	10888	1
5559	5558	5562	1
5559	5560	5561	1
5559	5560	5563	1
5556	5557	5558	1
5558	5559	5560	1
5556	5561	5560	1
5556	5561	5565	1
5560	5561	5565	1
5561	5556	5564	1
5561	5560	5563	1
5569	5568	5576	1
5567	5566	10888	1
4337	4336	4347	1
4335	4336	4347	1
4347	4355	4349	1
4347	4355	4356	1
4337	4338	4345	1
4339	4338	4345	1
4345	8655	8649	1
4345	8655	8656	1
4336	4347	4348	1
4336	4347	4355	1
4336	4337	4338	1
4336	4337	4341	1
4336	4335	4340	1
4336	4335	4343	1
4338	4345	4346	1
4338	4345	8655	1
4338	4337	4341	1
4338	4339	4340	1
4338	4339	4342	1
4335	4336	4337	1
4337	4338	4339	1
4335	4340	4339	1
4335	4340	4344	1
4339	4340	4344	1
4340	4335	4343	1
4340	4339	4342	1
4348	4347	4355	1
4346	4345	8655	1
13853	13852	13863	1
13851	13852	13863	1
1303	1309	13863	1
1310	1309	13863	1
13853	13854	13861	1
13855	13854	13861	1
1665	1672	13861	1
1674	1672	13861	1
13852	13863	13864	1
1309	13863	13852	1
13852	13853	13854	1
13852	13853	13857	1
13852	13851	13856	1
13852	13851	13859	1
13854	13861	13862	1
1672	13861	13854	1
13854	13853	13857	1
13854	13855	13856	1
13854	13855	13858	1
13851	13852	13853	1
13853	13854	13855	1
13851	13856	13855	1
13851	13856	13860	1
13855	13856	13860	1
13856	13851	13859	1
13856	13855	13858	1
1309	13863	13864	1
1672	13861	13862	1
3303	3302	3313	1
3301	3302	3313	1
3303	3304	3311	1
3305	3304	3311	1
3311	8924	8914	1
3311	8924	8926	1
3302	3313	3314	1
3302	3313	3315	1
3302	3303	3304	1
3302	3303	3307	1
3302	3301	3306	1
3302	3301	3309	1
3304	3311	3312	1
3304	3311	8924	1
3304	3303	3307	1
3304	3305	3306	1
3304	3305	3308	1
3301	3302	3303	1
3303	3304	3305	1
3301	3306	3305	1
3301	3306	3310	1
3305	3306	3310	1
3306	3301	3309	1
3306	3305	3308	1
3314	3313	3315	1
3312	3311	8924	1
12551	12550	12561	1
12549	12550	12561	1
12561	6239	6229	1
12561	6239	6241	1
12551	12552	12559	1
12553	12552	12559	1
12559	6633	6623	1
12559	6633	6635	1
12550	12561	12562	1
12550	12561	6239	1
12550	12551	12552	1
12550	12551	12555	1
12550	12549	12554	1
12550	12549	12557	1
12552	12559	12560	1
12552	12559	6633	1
12552	12551	12555	1
12552	12553	12554	1
12552	12553	12556	1
12549	12550	12551	1
12551	12552	12553	1
12549	12554	12553	1
12549	12554	12558	1
12553	12554	12558	1
12554	12549	12557	1
12554	12553	12556	1
12562	12561	6239	1
12560	12559	6633	1
12327	12326	12337	1
12325	12326	12337	1
12337	7041	7031	1
12337	7041	7043	1
12327	12328	12335	1
12329	12328	12335	1
12335	5831	5821	1
12335	5831	5833	1
12326	12337	12338	1
12326	12337	7041	1
12326	12327	12328	1
12326	12327	12331	1
12326	12325	12330	1
12326	12325	12333	1
12328	12335	12336	1
12328	12335	5831	1
12328	12327	12331	1
12328	12329	12330	1
12328	12329	12332	1
12325	12326	12327	1
12327	12328	12329	1
12325	12330	12329	1
12325	12330	12334	1
12329	12330	12334	1
12330	12325	12333	1
12330	12329	12332	1
12338	12337	7041	1
12336	12335	5831	1
11403	11402	11413	1
11401	11402	11413	1
11413	4229	4222	1
11413	4229	4231	1
11403	11404	11411	1
11405	11404	11411	1
11411	10426	10416	1
11411	10426	10428	1
11402	11413	11414	1
11402	11413	4229	1
11402	11403	11404	1
11402	11403	11407	1
11402	11401	11406	1
11402	11401	11409	1
11404	11411	11412	1
11404	11411	10426	1
11404	11403	11407	1
11404	11405	11406	1
11404	11405	11408	1
11401	11402	11403	1
11403	11404	11405	1
11401	11406	11405	1
11401	11406	11410	1
11405	11406	11410	1
11406	11401	11409	1
11406	11405	11408	1
11414	11413	4229	1
11412	11411	10426	1
5296	5295	5306	1
5294	5295	5306	1
5306	5314	5308	1
5306	5314	5315	1
5296	5297	5304	1
5298	5297	5304	1
5304	7143	7133	1
5304	7143	7145	1
5295	5306	5307	1
5295	5306	5314	1
5295	5296	5297	1
5295	5296	5300	1
5295	5294	5299	1
5295	5294	5302	1
5297	5304	5305	1
5297	5304	7143	1
5297	5296	5300	1
5297	5298	5299	1
5297	5298	5301	1
5294	5295	5296	1
5296	5297	5298	1
5294	5299	5298	1
5294	5299	5303	1
5298	5299	5303	1
5299	5294	5302	1
5299	5298	5301	1
5307	5306	5314	1
5305	5304	7143	1
1432	1431	1442	1
1430	1431	1442	1
1413	1419	1442	1
1420	1419	1442	1
1432	1433	1440	1
1434	1433	1440	1
1440	8757	8751	1
1440	8757	8758	1
1431	1442	1443	1
1419	1442	1431	1
1431	1432	1433	1
1431	1432	1436	1
1431	1430	1435	1
1431	1430	1438	1
1433	1440	1441	1
1433	1440	8757	1
1433	1432	1436	1
1433	1434	1435	1
1433	1434	1437	1
1430	1431	1432	1
1432	1433	1434	1
1430	1435	1434	1
1430	1435	1439	1
1434	1435	1439	1
1435	1430	1438	1
1435	1434	1437	1
1419	1442	1443	1
1441	1440	8757	1
12649	12648	12659	1
12647	12648	12659	1
12659	6837	6827	1
12659	6837	6839	1
12649	12650	12657	1
12651	12650	12657	1
12657	6415	6405	1
12657	6415	6417	1
12648	12659	12660	1
12648	12659	6837	1
12648	12649	12650	1
12648	12649	12653	1
12648	12647	12652	1
12648	12647	12655	1
12650	12657	12658	1
12650	12657	6415	1
12650	12649	12653	1
12650	12651	12652	1
12650	12651	12654	1
12647	12648	12649	1
12649	12650	12651	1
12647	12652	12651	1
12647	12652	12656	1
12651	12652	12656	1
12652	12647	12655	1
12652	12651	12654	1
12660	12659	6837	1
12658	12657	6415	1
11893	11892	11903	1
11891	11892	11903	1
11903	8719	8709	1
11903	8719	8721	1
11893	11894	11901	1
11895	11894	11901	1
11901	5088	5078	1
11901	5088	5090	1
11892	11903	11904	1
11892	11903	8719	1
11892	11893	11894	1
11892	11893	11897	1
11892	11891	11896	1
11892	11891	11899	1
11894	11901	11902	1
11894	11901	5088	1
11894	11893	11897	1
11894	11895	11896	1
11894	11895	11898	1
11891	11892	11893	1
11893	11894	11895	1
11891	11896	11895	1
11891	11896	11900	1
11895	11896	11900	1
11896	11891	11899	1
11896	11895	11898	1
11904	11903	8719	1
11902	11901	5088	1
4918	4917	4928	1
4916	4917	4928	1
359	366	4928	1
368	366	4928	1
4918	4919	4926	1
4920	4919	4926	1
4926	4936	4930	1
4926	4936	4937	1
4917	4928	4929	1
366	4928	4917	1
4917	4918	4919	1
4917	4918	4922	1
4917	4916	4921	1
4917	4916	4924	1
4919	4926	4927	1
4919	4926	4936	1
4919	4918	4922	1
4919	4920	4921	1
4919	4920	4923	1
4916	4917	4918	1
4918	4919	4920	1
4916	4921	4920	1
4916	4921	4925	1
4920	4921	4925	1
4921	4916	4924	1
4921	4920	4923	1
366	4928	4929	1
4927	4926	4936	1
5968	5969	5976	1
5970	5969	5976	1
5976	8030	8023	1
5976	8030	8032	1
5968	5967	5978	1
5966	5967	5978	1
5978	5986	5980	1
5978	5986	5987	1
5969	5976	5977	1
5969	5976	8030	1
5967	5968	5969	1
5969	5968	5972	1
5969	5970	5971	1
5969	5970	5973	1
5967	5978	5979	1
5967	5978	5986	1
5967	5968	5972	1
5967	5966	5971	1
5967	5966	5974	1
5968	5969	5970	1
5966	5967	5968	1
5966	5971	5970	1
5970	5971	5975	1
5966	5971	5975	1
5971	5970	5973	1
5971	5966	5974	1
5977	5976	8030	1
5979	5978	5986	1
11389	11388	11399	1
11387	11388	11399	1
11399	4970	4963	1
11399	4970	4972	1
11389	11390	11397	1
11391	11390	11397	1
11397	4201	4191	1
11397	4201	4203	1
11388	11399	11400	1
11388	11399	4970	1
11388	11389	11390	1
11388	11389	11393	1
11388	11387	11392	1
11388	11387	11395	1
11390	11397	11398	1
11390	11397	4201	1
11390	11389	11393	1
11390	11391	11392	1
11390	11391	11394	1
11387	11388	11389	1
11389	11390	11391	1
11387	11392	11391	1
11387	11392	11396	1
11391	11392	11396	1
11392	11387	11395	1
11392	11391	11394	1
11400	11399	4970	1
11398	11397	4201	1
12243	12242	12253	1
12241	12242	12253	1
1727	1734	12253	1
1736	1734	12253	1
12243	12244	12251	1
12245	12244	12251	1
12251	5708	5702	1
12251	5708	5709	1
12242	12253	12254	1
1734	12253	12242	1
12242	12243	12244	1
12242	12243	12247	1
12242	12241	12246	1
12242	12241	12249	1
12244	12251	12252	1
12244	12251	5708	1
12244	12243	12247	1
12244	12245	12246	1
12244	12245	12248	1
12241	12242	12243	1
12243	12244	12245	1
12241	12246	12245	1
12241	12246	12250	1
12245	12246	12250	1
12246	12241	12249	1
12246	12245	12248	1
1734	12253	12254	1
12252	12251	5708	1
10665	10664	10675	1
10663	10664	10675	1
10675	10683	10677	1
10675	10683	10684	1
10665	10666	10673	1
10667	10666	10673	1
10673	10894	10884	1
10673	10894	10896	1
10664	10675	10676	1
10664	10675	10683	1
10664	10665	10666	1
10664	10665	10669	1
10664	10663	10668	1
10664	10663	10671	1
10666	10673	10674	1
10666	10673	10894	1
10666	10665	10669	1
10666	10667	10668	1
10666	10667	10670	1
10663	10664	10665	1
10665	10666	10667	1
10663	10668	10667	1
10663	10668	10672	1
10667	10668	10672	1
10668	10663	10671	1
10668	10667	10670	1
10676	10675	10683	1
10674	10673	10894	1
3588	3587	3598	1
3586	3587	3598	1
3588	3589	3596	1
3590	3589	3596	1
3596	10513	10506	1
3596	10513	10515	1
3587	3598	3599	1
3587	3598	3600	1
3587	3588	3589	1
3587	3588	3592	1
3587	3586	3591	1
3587	3586	3594	1
3589	3596	3597	1
3589	3596	10513	1
3589	3588	3592	1
3589	3590	3591	1
3589	3590	3593	1
3586	3587	3588	1
3588	3589	3590	1
3586	3591	3590	1
3586	3591	3595	1
3590	3591	3595	1
3591	3586	3594	1
3591	3590	3593	1
3599	3598	3600	1
3597	3596	10513	1
498	497	508	1
496	497	508	1
508	9954	9948	1
508	9954	9955	1
498	499	506	1
500	499	506	1
479	485	506	1
486	485	506	1
497	508	509	1
497	508	9954	1
497	498	499	1
497	498	502	1
497	496	501	1
497	496	504	1
499	506	507	1
485	506	499	1
499	498	502	1
499	500	501	1
499	500	503	1
496	497	498	1
498	499	500	1
496	501	500	1
496	501	505	1
500	501	505	1
501	496	504	1
501	500	503	1
509	508	9954	1
485	506	507	1
7789	7788	7799	1
7787	7788	7799	1
7799	5087	5080	1
7799	5087	5089	1
7789	7790	7797	1
7791	7790	7797	1
7797	7807	7801	1
7797	7807	7808	1
7788	7799	7800	1
7788	7799	5087	1
7788	7789	7790	1
7788	7789	7793	1
7788	7787	7792	1
7788	7787	7795	1
7790	7797	7798	1
7790	7797	7807	1
7790	7789	7793	1
7790	7791	7792	1
7790	7791	7794	1
7787	7788	7789	1
7789	7790	7791	1
7787	7792	7791	1
7787	7792	7796	1
7791	7792	7796	1
7792	7787	7795	1
7792	7791	7794	1
7800	7799	5087	1
7798	7797	7807	1
11921	11920	11931	1
11919	11920	11931	1
11931	5145	5138	1
11931	5145	5147	1
11921	11922	11929	1
11923	11922	11929	1
11929	10047	10037	1
11929	10047	10049	1
11920	11931	11932	1
11920	11931	5145	1
11920	11921	11922	1
11920	11921	11925	1
11920	11919	11924	1
11920	11919	11927	1
11922	11929	11930	1
11922	11929	10047	1
11922	11921	11925	1
11922	11923	11924	1
11922	11923	11926	1
11919	11920	11921	1
11921	11922	11923	1
11919	11924	11923	1
11919	11924	11928	1
11923	11924	11928	1
11924	11919	11927	1
11924	11923	11926	1
11932	11931	5145	1
11930	11929	10047	1
216	215	226	1
214	215	226	1
203	205	226	1
206	205	226	1
216	217	224	1
218	217	224	1
224	8377	8371	1
224	8377	8378	1
215	226	227	1
205	226	215	1
215	216	217	1
215	216	220	1
215	214	219	1
215	214	222	1
217	224	225	1
217	224	8377	1
217	216	220	1
217	218	219	1
217	218	221	1
214	215	216	1
216	217	218	1
214	219	218	1
214	219	223	1
218	219	223	1
219	214	222	1
219	218	221	1
205	226	227	1
225	224	8377	1
10607	10606	10617	1
10605	10606	10617	1
10617	10625	10619	1
10617	10625	10626	1
10607	10608	10615	1
10609	10608	10615	1
10615	7929	7919	1
10615	7929	7931	1
10606	10617	10618	1
10606	10617	10625	1
10606	10607	10608	1
10606	10607	10611	1
10606	10605	10610	1
10606	10605	10613	1
10608	10615	10616	1
10608	10615	7929	1
10608	10607	10611	1
10608	10609	10610	1
10608	10609	10612	1
10605	10606	10607	1
10607	10608	10609	1
10605	10610	10609	1
10605	10610	10614	1
10609	10610	10614	1
10610	10605	10613	1
10610	10609	10612	1
10618	10617	10625	1
10616	10615	7929	1
22	21	32	1
20	21	32	1
32	4026	4019	1
32	4026	4028	1
22	23	30	1
24	23	30	1
1	7	30	1
8	7	30	1
21	32	33	1
21	32	4026	1
21	22	23	1
21	22	26	1
21	20	25	1
21	20	28	1
23	30	31	1
7	30	23	1
23	22	26	1
23	24	25	1
23	24	27	1
20	21	22	1
22	23	24	1
20	25	24	1
20	25	29	1
24	25	29	1
25	20	28	1
25	24	27	1
33	32	4026	1
7	30	31	1
2763	2764	2771	1
2765	2764	2771	1
2771	5082	5076	1
2771	5082	5083	1
2763	2762	2773	1
2761	2762	2773	1
2764	2771	2772	1
2764	2771	5082	1
2762	2763	2764	1
2764	2763	2767	1
2764	2765	2766	1
2764	2765	2768	1
2762	2773	2774	1
2762	2773	2775	1
2762	2763	2767	1
2762	2761	2766	1
2762	2761	2769	1
2763	2764	2765	1
2761	2762	2763	1
2761	2766	2765	1
2765	2766	2770	1
2761	2766	2770	1
2766	2765	2768	1
2766	2761	2769	1
2772	2771	5082	1
2774	2773	2775	1
2225	2226	2233	1
2227	2226	2233	1
2206	2212	2233	1
2213	2212	2233	1
2225	2224	2235	1
2223	2224	2235	1
2235	8436	8430	1
2235	8436	8437	1
2226	2233	2234	1
2212	2233	2226	1
2224	2225	2226	1
2226	2225	2229	1
2226	2227	2228	1
2226	2227	2230	1
2224	2235	2236	1
2224	2235	8436	1
2224	2225	2229	1
2224	2223	2228	1
2224	2223	2231	1
2225	2226	2227	1
2223	2224	2225	1
2223	2228	2227	1
2227	2228	2232	1
2223	2228	2232	1
2228	2227	2230	1
2228	2223	2231	1
2212	2233	2234	1
2236	2235	8436	1
13741	13740	13751	1
13739	13740	13751	1
13751	10893	10886	1
13751	10893	10895	1
13741	13742	13749	1
13743	13742	13749	1
13749	10689	10679	1
13749	10689	10691	1
13740	13751	13752	1
13740	13751	10893	1
13740	13741	13742	1
13740	13741	13745	1
13740	13739	13744	1
13740	13739	13747	1
13742	13749	13750	1
13742	13749	10689	1
13742	13741	13745	1
13742	13743	13744	1
13742	13743	13746	1
13739	13740	13741	1
13741	13742	13743	1
13739	13744	13743	1
13739	13744	13748	1
13743	13744	13748	1
13744	13739	13747	1
13744	13743	13746	1
13752	13751	10893	1
13750	13749	10689	1
7250	7249	7260	1
7248	7249	7260	1
7260	6895	6885	1
7260	6895	6897	1
7250	7251	7258	1
7252	7251	7258	1
7258	7268	7262	1
7258	7268	7269	1
7249	7260	7261	1
7249	7260	6895	1
7249	7250	7251	1
7249	7250	7254	1
7249	7248	7253	1
7249	7248	7256	1
7251	7258	7259	1
7251	7258	7268	1
7251	7250	7254	1
7251	7252	7253	1
7251	7252	7255	1
7248	7249	7250	1
7250	7251	7252	1
7248	7253	7252	1
7248	7253	7257	1
7252	7253	7257	1
7253	7248	7256	1
7253	7252	7255	1
7261	7260	6895	1
7259	7258	7268	1
4119	4118	4129	1
4117	4118	4129	1
4129	4137	4131	1
4129	4137	4138	1
4119	4120	4127	1
4121	4120	4127	1
4127	5606	5600	1
4127	5606	5607	1
4118	4129	4130	1
4118	4129	4137	1
4118	4119	4120	1
4118	4119	4123	1
4118	4117	4122	1
4118	4117	4125	1
4120	4127	4128	1
4120	4127	5606	1
4120	4119	4123	1
4120	4121	4122	1
4120	4121	4124	1
4117	4118	4119	1
4119	4120	4121	1
4117	4122	4121	1
4117	4122	4126	1
4121	4122	4126	1
4122	4117	4125	1
4122	4121	4124	1
4130	4129	4137	1
4128	4127	5606	1
6128	6127	6138	1
6126	6127	6138	1
6138	6146	6140	1
6138	6146	6147	1
6128	6129	6136	1
6130	6129	6136	1
6136	6924	6914	1
6136	6924	6926	1
6127	6138	6139	1
6127	6138	6146	1
6127	6128	6129	1
6127	6128	6132	1
6127	6126	6131	1
6127	6126	6134	1
6129	6136	6137	1
6129	6136	6924	1
6129	6128	6132	1
6129	6130	6131	1
6129	6130	6133	1
6126	6127	6128	1
6128	6129	6130	1
6126	6131	6130	1
6126	6131	6135	1
6130	6131	6135	1
6131	6126	6134	1
6131	6130	6133	1
6139	6138	6146	1
6137	6136	6924	1
4308	4309	4316	1
4310	4309	4316	1
1041	1048	4316	1
1050	1048	4316	1
4308	4307	4318	1
4306	4307	4318	1
4318	4326	4320	1
4318	4326	4327	1
4309	4316	4317	1
1048	4316	4309	1
4307	4308	4309	1
4309	4308	4312	1
4309	4310	4311	1
4309	4310	4313	1
4307	4318	4319	1
4307	4318	4326	1
4307	4308	4312	1
4307	4306	4311	1
4307	4306	4314	1
4308	4309	4310	1
4306	4307	4308	1
4306	4311	4310	1
4310	4311	4315	1
4306	4311	4315	1
4311	4310	4313	1
4311	4306	4314	1
1048	4316	4317	1
4319	4318	4326	1
13307	13308	13315	1
13309	13308	13315	1
13315	9245	9235	1
13315	9245	9247	1
13307	13306	13317	1
13305	13306	13317	1
13317	8265	8255	1
13317	8265	8267	1
13308	13315	13316	1
13308	13315	9245	1
13306	13307	13308	1
13308	13307	13311	1
13308	13309	13310	1
13308	13309	13312	1
13306	13317	13318	1
13306	13317	8265	1
13306	13307	13311	1
13306	13305	13310	1
13306	13305	13313	1
13307	13308	13309	1
13305	13306	13307	1
13305	13310	13309	1
13309	13310	13314	1
13305	13310	13314	1
13310	13309	13312	1
13310	13305	13313	1
13316	13315	9245	1
13318	13317	8265	1
7090	7089	7100	1
7088	7089	7100	1
7100	11188	11178	1
7100	11188	11190	1
7090	7091	7098	1
7092	7091	7098	1
7098	7108	7102	1
7098	7108	7109	1
7089	7100	7101	1
7089	7100	11188	1
7089	7090	7091	1
7089	7090	7094	1
7089	7088	7093	1
7089	7088	7096	1
7091	7098	7099	1
7091	7098	7108	1
7091	7090	7094	1
7091	7092	7093	1
7091	7092	7095	1
7088	7089	7090	1
7090	7091	7092	1
7088	7093	7092	1
7088	7093	7097	1
7092	7093	7097	1
7093	7088	7096	1
7093	7092	7095	1
7101	7100	11188	1
7099	7098	7108	1
4177	4176	4187	1
4175	4176	4187	1
4187	5450	5443	1
4187	5450	5452	1
4177	4178	4185	1
4179	4178	4185	1
4185	4195	4189	1
4185	4195	4196	1
4176	4187	4188	1
4176	4187	5450	1
4176	4177	4178	1
4176	4177	4181	1
4176	4175	4180	1
4176	4175	4183	1
4178	4185	4186	1
4178	4185	4195	1
4178	4177	4181	1
4178	4179	4180	1
4178	4179	4182	1
4175	4176	4177	1
4177	4178	4179	1
4175	4180	4179	1
4175	4180	4184	1
4179	4180	4184	1
4180	4175	4183	1
4180	4179	4182	1
4188	4187	5450	1
4186	4185	4195	1
3603	3604	3611	1
3605	3604	3611	1
3611	10659	10652	1
3611	10659	10661	1
3603	3602	3613	1
3601	3602	3613	1
3604	3611	3612	1
3604	3611	10659	1
3602	3603	3604	1
3604	3603	3607	1
3604	3605	3606	1
3604	3605	3608	1
3602	3613	3614	1
3602	3613	3615	1
3602	3603	3607	1
3602	3601	3606	1
3602	3601	3609	1
3603	3604	3605	1
3601	3602	3603	1
3601	3606	3605	1
3605	3606	3610	1
3601	3606	3610	1
3606	3605	3608	1
3606	3601	3609	1
3612	3611	10659	1
3614	3613	3615	1
3363	3364	3371	1
3365	3364	3371	1
3371	9094	9088	1
3371	9094	9095	1
3363	3362	3373	1
3361	3362	3373	1
3364	3371	3372	1
3364	3371	9094	1
3362	3363	3364	1
3364	3363	3367	1
3364	3365	3366	1
3364	3365	3368	1
3362	3373	3374	1
3362	3373	3375	1
3362	3363	3367	1
3362	3361	3366	1
3362	3361	3369	1
3363	3364	3365	1
3361	3362	3363	1
3361	3366	3365	1
3365	3366	3370	1
3361	3366	3370	1
3366	3365	3368	1
3366	3361	3369	1
3372	3371	9094	1
3374	3373	3375	1
7600	7601	7608	1
7602	7601	7608	1
7608	7623	7616	1
7608	7623	7625	1
7600	7599	7610	1
7598	7599	7610	1
7610	5684	5677	1
7610	5684	5686	1
7601	7608	7609	1
7601	7608	7623	1
7601	7600	7599	1
7601	7600	7604	1
7601	7602	7603	1
7601	7602	7605	1
7599	7610	7611	1
7599	7610	5684	1
7599	7600	7604	1
7599	7598	7603	1
7599	7598	7606	1
7602	7601	7600	1
7600	7599	7598	1
7602	7603	7598	1
7602	7603	7607	1
7598	7603	7607	1
7603	7602	7605	1
7603	7598	7606	1
7609	7608	7623	1
7611	7610	5684	1
10475	10474	10485	1
10473	10474	10485	1
10485	10498	10491	1
10485	10498	10500	1
10475	10476	10483	1
10477	10476	10483	1
10483	6690	6683	1
10483	6690	6692	1
10474	10485	10486	1
10474	10485	10498	1
10474	10475	10476	1
10474	10475	10479	1
10474	10473	10478	1
10474	10473	10481	1
10476	10483	10484	1
10476	10483	6690	1
10476	10475	10479	1
10476	10477	10478	1
10476	10477	10480	1
10473	10474	10475	1
10475	10476	10477	1
10473	10478	10477	1
10473	10478	10482	1
10477	10478	10482	1
10478	10473	10481	1
10478	10477	10480	1
10486	10485	10498	1
10484	10483	6690	1
5398	5397	5408	1
5396	5397	5408	1
5408	5416	5410	1
5408	5416	5417	1
5398	5399	5406	1
5400	5399	5406	1
5406	10508	10502	1
5406	10508	10509	1
5397	5408	5409	1
5397	5408	5416	1
5397	5398	5399	1
5397	5398	5402	1
5397	5396	5401	1
5397	5396	5404	1
5399	5406	5407	1
5399	5406	10508	1
5399	5398	5402	1
5399	5400	5401	1
5399	5400	5403	1
5396	5397	5398	1
5398	5399	5400	1
5396	5401	5400	1
5396	5401	5405	1
5400	5401	5405	1
5401	5396	5404	1
5401	5400	5403	1
5409	5408	5416	1
5407	5406	10508	1
12173	12172	12183	1
12171	12172	12183	1
12183	9653	9643	1
12183	9653	9655	1
12173	12174	12181	1
12175	12174	12181	1
12181	5612	5602	1
12181	5612	5614	1
12172	12183	12184	1
12172	12183	9653	1
12172	12173	12174	1
12172	12173	12177	1
12172	12171	12176	1
12172	12171	12179	1
12174	12181	12182	1
12174	12181	5612	1
12174	12173	12177	1
12174	12175	12176	1
12174	12175	12178	1
12171	12172	12173	1
12173	12174	12175	1
12171	12176	12175	1
12171	12176	12180	1
12175	12176	12180	1
12176	12171	12179	1
12176	12175	12178	1
12184	12183	9653	1
12182	12181	5612	1
3855	3856	3857	1
3855	3856	3863	1
3855	3858	3859	1
3855	3858	3864	1
3855	3861	3862	1
3856	3857	3860	1
3856	3857	3867	1
3856	3855	3858	1
3856	3855	3861	1
3857	3856	3863	1
3857	3860	3859	1
3857	3860	3865	1
3857	3867	3869	1
3860	3857	3867	1
3858	3859	3860	1
3860	3859	3866	1
3859	3860	3865	1
3859	3858	3864	1
3859	3866	3868	1
3858	3859	3866	1
3858	3855	3861	1
295	298	297	1
295	298	303	1
293	294	295	1
295	294	301	1
295	305	307	1
295	305	308	1
296	297	298	1
298	297	304	1
294	295	298	1
298	295	305	1
297	298	303	1
293	296	297	1
297	296	302	1
297	304	306	1
296	297	304	1
294	293	296	1
296	293	299	1
293	296	302	1
293	294	301	1
293	299	300	1
294	293	299	1
294	295	305	1
305	308	309	1
307	305	308	1
324	325	326	1
324	325	332	1
324	327	328	1
324	327	333	1
324	330	331	1
325	326	329	1
325	326	336	1
325	324	327	1
325	324	330	1
326	325	332	1
326	329	328	1
326	329	334	1
326	336	338	1
326	336	339	1
329	326	336	1
327	328	329	1
329	328	335	1
328	329	334	1
328	327	333	1
328	335	337	1
327	328	335	1
327	324	330	1
336	339	340	1
338	336	339	1
3870	3873	3874	1
3870	3873	3879	1
3870	3871	3872	1
3870	3871	3878	1
3870	3876	3877	1
3873	3874	3875	1
3873	3874	3881	1
3871	3870	3873	1
3873	3870	3876	1
3874	3873	3879	1
3872	3875	3874	1
3874	3875	3880	1
3874	3881	3883	1
3875	3874	3881	1
3871	3872	3875	1
3875	3872	3882	1
3872	3875	3880	1
3872	3871	3878	1
3872	3882	3884	1
3871	3872	3882	1
3871	3870	3876	1
355	358	359	1
355	358	364	1
355	356	357	1
355	356	363	1
355	361	362	1
358	359	360	1
358	359	366	1
356	355	358	1
358	355	361	1
359	358	364	1
357	360	359	1
359	360	365	1
359	366	368	1
360	359	366	1
356	357	360	1
360	357	367	1
357	360	365	1
357	356	363	1
357	367	369	1
357	367	370	1
356	357	367	1
356	355	361	1
367	370	371	1
369	367	370	1
386	389	390	1
386	389	395	1
386	387	388	1
386	387	394	1
386	392	393	1
389	390	391	1
389	390	397	1
387	386	389	1
389	386	392	1
390	389	395	1
388	391	390	1
390	391	396	1
390	397	399	1
391	390	397	1
387	388	391	1
391	388	398	1
388	391	396	1
388	387	394	1
388	398	400	1
388	398	401	1
387	388	398	1
387	386	392	1
398	401	402	1
400	398	401	1
3899	3902	3903	1
3899	3902	3908	1
3899	3900	3901	1
3899	3900	3907	1
3899	3905	3906	1
3902	3903	3904	1
3902	3903	3910	1
3900	3899	3902	1
3902	3899	3905	1
3903	3902	3908	1
3901	3904	3903	1
3903	3904	3909	1
3903	3910	3912	1
3904	3903	3910	1
3900	3901	3904	1
3904	3901	3911	1
3901	3904	3909	1
3901	3900	3907	1
3901	3911	3913	1
3900	3901	3911	1
3900	3899	3905	1
3928	3931	3932	1
3928	3931	3937	1
3928	3929	3930	1
3928	3929	3936	1
3928	3934	3935	1
3931	3932	3933	1
3931	3932	3939	1
3929	3928	3931	1
3931	3928	3934	1
3932	3931	3937	1
3930	3933	3932	1
3932	3933	3938	1
3932	3939	3941	1
3933	3932	3939	1
3929	3930	3933	1
3933	3930	3940	1
3930	3933	3938	1
3930	3929	3936	1
3930	3940	3942	1
3929	3930	3940	1
3929	3928	3934	1
417	418	419	1
419	418	425	1
419	422	421	1
419	422	427	1
419	429	431	1
419	429	432	1
418	417	420	1
418	417	423	1
418	419	422	1
418	419	429	1
417	418	425	1
417	420	421	1
417	420	426	1
417	423	424	1
420	417	423	1
420	421	422	1
420	421	428	1
421	420	426	1
421	422	427	1
421	428	430	1
422	421	428	1
422	419	429	1
429	432	433	1
431	429	432	1
3957	3960	3961	1
3957	3960	3966	1
3957	3958	3959	1
3957	3958	3965	1
3957	3963	3964	1
3960	3961	3962	1
3960	3961	3968	1
3958	3957	3960	1
3960	3957	3963	1
3961	3960	3966	1
3959	3962	3961	1
3961	3962	3967	1
3961	3968	3970	1
3962	3961	3968	1
3958	3959	3962	1
3962	3959	3969	1
3959	3962	3967	1
3959	3958	3965	1
3959	3969	3971	1
3958	3959	3969	1
3958	3957	3963	1
3986	3987	3988	1
3986	3987	3994	1
3986	3989	3990	1
3986	3989	3995	1
3986	3992	3993	1
3987	3988	3991	1
3987	3988	3998	1
3987	3986	3989	1
3987	3986	3992	1
3988	3987	3994	1
3988	3991	3990	1
3988	3991	3996	1
3988	3998	4000	1
3991	3988	3998	1
3989	3990	3991	1
3991	3990	3997	1
3990	3991	3996	1
3990	3989	3995	1
3990	3997	3999	1
3989	3990	3997	1
3989	3986	3992	1
4015	4018	4019	1
4015	4018	4024	1
4015	4016	4017	1
4015	4016	4023	1
4015	4021	4022	1
4018	4019	4020	1
4018	4019	4026	1
4018	4015	4016	1
4018	4015	4021	1
4019	4018	4024	1
4019	4020	4017	1
4019	4020	4025	1
4019	4026	4028	1
4020	4019	4026	1
4016	4017	4020	1
4020	4017	4027	1
4017	4020	4025	1
4017	4016	4023	1
4017	4027	4029	1
4016	4017	4027	1
4016	4015	4021	1
448	449	450	1
450	449	456	1
450	453	452	1
450	453	458	1
450	460	462	1
450	460	463	1
449	448	451	1
449	448	454	1
449	450	453	1
449	450	460	1
448	449	456	1
448	451	452	1
448	451	457	1
448	454	455	1
451	448	454	1
451	452	453	1
451	452	459	1
452	451	457	1
452	453	458	1
452	459	461	1
453	452	459	1
453	450	460	1
460	463	464	1
462	460	463	1
4044	4047	4048	1
4044	4047	4053	1
4044	4045	4046	1
4044	4045	4052	1
4044	4050	4051	1
4047	4048	4049	1
4047	4048	4055	1
4047	4044	4045	1
4047	4044	4050	1
4048	4047	4053	1
4048	4049	4046	1
4048	4049	4054	1
4048	4055	4057	1
4049	4048	4055	1
4045	4046	4049	1
4049	4046	4056	1
4046	4049	4054	1
4046	4045	4052	1
4046	4056	4058	1
4045	4046	4056	1
4045	4044	4050	1
4073	4074	4075	1
4073	4074	4081	1
4073	4076	4077	1
4073	4076	4082	1
4073	4079	4080	1
4074	4075	4078	1
4074	4075	4085	1
4074	4073	4076	1
4074	4073	4079	1
4075	4074	4081	1
4075	4078	4077	1
4075	4078	4083	1
4075	4085	4087	1
4078	4075	4085	1
4076	4077	4078	1
4078	4077	4084	1
4077	4078	4083	1
4077	4076	4082	1
4077	4084	4086	1
4076	4077	4084	1
4076	4073	4079	1
4102	4103	4104	1
4102	4103	4110	1
4102	4105	4106	1
4102	4105	4111	1
4102	4108	4109	1
4103	4104	4107	1
4103	4104	4114	1
4103	4102	4105	1
4103	4102	4108	1
4104	4103	4110	1
4104	4107	4106	1
4104	4107	4112	1
4104	4114	4116	1
4107	4104	4114	1
4105	4106	4107	1
4107	4106	4113	1
4106	4107	4112	1
4106	4105	4111	1
4106	4113	4115	1
4105	4106	4113	1
4105	4102	4108	1
1	4	5	1
5	4	10	1
3	6	5	1
5	6	11	1
5	12	14	1
5	12	16	1
2	1	4	1
4	1	7	1
4	5	6	1
4	5	12	1
1	4	10	1
1	2	3	1
1	2	9	1
1	7	8	1
2	1	7	1
2	3	6	1
2	3	13	1
3	2	9	1
3	6	11	1
3	13	15	1
3	13	18	1
6	3	13	1
6	5	12	1
13	18	19	1
12	16	17	1
15	13	18	1
14	12	16	1
4131	4132	4133	1
4131	4132	4139	1
4131	4134	4135	1
4131	4134	4140	1
4131	4137	4138	1
4132	4133	4136	1
4132	4133	4143	1
4132	4131	4134	1
4132	4131	4137	1
4133	4132	4139	1
4133	4136	4135	1
4133	4136	4141	1
4133	4143	4145	1
4136	4133	4143	1
4134	4135	4136	1
4136	4135	4142	1
4135	4136	4141	1
4135	4134	4140	1
4135	4142	4144	1
4134	4135	4142	1
4134	4131	4137	1
479	480	481	1
479	480	487	1
479	482	483	1
479	482	488	1
479	485	486	1
480	481	484	1
480	481	491	1
480	479	482	1
480	479	485	1
481	480	487	1
481	484	483	1
481	484	489	1
481	491	493	1
481	491	494	1
484	481	491	1
482	483	484	1
484	483	490	1
483	484	489	1
483	482	488	1
483	490	492	1
482	483	490	1
482	479	485	1
491	494	495	1
493	491	494	1
4160	4161	4162	1
4160	4161	4168	1
4160	4163	4164	1
4160	4163	4169	1
4160	4166	4167	1
4161	4162	4165	1
4161	4162	4172	1
4161	4160	4163	1
4161	4160	4166	1
4162	4161	4168	1
4162	4165	4164	1
4162	4165	4170	1
4162	4172	4174	1
4165	4162	4172	1
4163	4164	4165	1
4165	4164	4171	1
4164	4165	4170	1
4164	4163	4169	1
4164	4171	4173	1
4163	4164	4171	1
4163	4160	4166	1
510	513	514	1
510	513	519	1
510	511	512	1
510	511	518	1
510	516	517	1
513	514	515	1
513	514	521	1
511	510	513	1
513	510	516	1
514	513	519	1
512	515	514	1
514	515	520	1
514	521	523	1
515	514	521	1
511	512	515	1
515	512	522	1
512	515	520	1
512	511	518	1
512	522	524	1
512	522	525	1
511	512	522	1
511	510	516	1
522	525	526	1
524	522	525	1
4189	4190	4191	1
4189	4190	4197	1
4189	4192	4193	1
4189	4192	4198	1
4189	4195	4196	1
4190	4191	4194	1
4190	4191	4201	1
4190	4189	4192	1
4190	4189	4195	1
4191	4190	4197	1
4191	4194	4193	1
4191	4194	4199	1
4191	4201	4203	1
4194	4191	4201	1
4192	4193	4194	1
4194	4193	4200	1
4193	4194	4199	1
4193	4192	4198	1
4193	4200	4202	1
4192	4193	4200	1
4192	4189	4195	1
4218	4219	4220	1
4218	4219	4226	1
4218	4221	4222	1
4218	4221	4227	1
4218	4224	4225	1
4219	4220	4223	1
4219	4220	4230	1
4219	4218	4221	1
4219	4218	4224	1
4220	4219	4226	1
4220	4223	4222	1
4220	4223	4228	1
4220	4230	4232	1
4223	4220	4230	1
4221	4222	4223	1
4223	4222	4229	1
4222	4223	4228	1
4222	4221	4227	1
4222	4229	4231	1
4221	4222	4229	1
4221	4218	4224	1
4247	4250	4251	1
4247	4250	4256	1
4247	4248	4249	1
4247	4248	4255	1
4247	4253	4254	1
4250	4251	4252	1
4250	4251	4258	1
4250	4247	4248	1
4250	4247	4253	1
4251	4250	4256	1
4251	4252	4249	1
4251	4252	4257	1
4251	4258	4260	1
4252	4251	4258	1
4248	4249	4252	1
4252	4249	4259	1
4249	4252	4257	1
4249	4248	4255	1
4249	4259	4261	1
4248	4249	4259	1
4248	4247	4253	1
4276	4277	4278	1
4276	4277	4284	1
4276	4279	4280	1
4276	4279	4285	1
4276	4282	4283	1
4277	4278	4281	1
4277	4278	4288	1
4279	4276	4277	1
4277	4276	4282	1
4278	4277	4284	1
4280	4281	4278	1
4278	4281	4286	1
4278	4288	4290	1
4281	4278	4288	1
4279	4280	4281	1
4281	4280	4287	1
4280	4281	4286	1
4280	4279	4285	1
4280	4287	4289	1
4279	4280	4287	1
4279	4276	4282	1
541	542	543	1
541	542	549	1
541	544	545	1
541	544	550	1
541	547	548	1
542	543	546	1
542	543	553	1
542	541	544	1
542	541	547	1
543	542	549	1
543	546	545	1
543	546	551	1
543	553	555	1
543	553	556	1
546	543	553	1
544	545	546	1
546	545	552	1
545	546	551	1
545	544	550	1
545	552	554	1
544	545	552	1
544	541	547	1
553	556	557	1
555	553	556	1
572	573	574	1
574	573	580	1
574	577	576	1
574	577	582	1
574	584	586	1
574	584	587	1
573	572	575	1
573	572	578	1
573	574	577	1
573	574	584	1
572	573	580	1
572	575	576	1
572	575	581	1
572	578	579	1
575	572	578	1
575	576	577	1
575	576	583	1
576	575	581	1
576	577	582	1
576	583	585	1
577	576	583	1
577	574	584	1
584	587	588	1
586	584	587	1
4291	4294	4295	1
4291	4294	4300	1
4291	4292	4293	1
4291	4292	4299	1
4291	4297	4298	1
4294	4295	4296	1
4294	4295	4302	1
4292	4291	4294	1
4294	4291	4297	1
4295	4294	4300	1
4293	4296	4295	1
4295	4296	4301	1
4295	4302	4304	1
4296	4295	4302	1
4292	4293	4296	1
4296	4293	4303	1
4293	4296	4301	1
4293	4292	4299	1
4293	4303	4305	1
4292	4293	4303	1
4292	4291	4297	1
4322	4325	4324	1
4322	4325	4330	1
4320	4321	4322	1
4322	4321	4328	1
4322	4332	4334	1
4323	4324	4325	1
4325	4324	4331	1
4321	4322	4325	1
4325	4322	4332	1
4324	4325	4330	1
4320	4323	4324	1
4324	4323	4329	1
4324	4331	4333	1
4323	4324	4331	1
4321	4320	4323	1
4323	4320	4326	1
4320	4323	4329	1
4320	4321	4328	1
4320	4326	4327	1
4321	4320	4326	1
4321	4322	4332	1
603	604	605	1
603	604	611	1
603	606	607	1
603	606	612	1
603	609	610	1
604	605	608	1
604	605	615	1
604	603	606	1
604	603	609	1
605	604	611	1
605	608	607	1
605	608	613	1
605	615	617	1
605	615	618	1
608	605	615	1
606	607	608	1
608	607	614	1
607	608	613	1
607	606	612	1
607	614	616	1
606	607	614	1
606	603	609	1
615	618	619	1
617	615	618	1
4349	4352	4353	1
4349	4352	4358	1
4349	4350	4351	1
4349	4350	4357	1
4349	4355	4356	1
4352	4353	4354	1
4352	4353	4360	1
4350	4349	4352	1
4352	4349	4355	1
4353	4352	4358	1
4351	4354	4353	1
4353	4354	4359	1
4353	4360	4362	1
4354	4353	4360	1
4350	4351	4354	1
4354	4351	4361	1
4351	4354	4359	1
4351	4350	4357	1
4351	4361	4363	1
4350	4351	4361	1
4350	4349	4355	1
634	635	636	1
634	635	642	1
634	637	638	1
634	637	643	1
634	640	641	1
635	636	639	1
635	636	646	1
635	634	637	1
635	634	640	1
636	635	642	1
636	639	638	1
636	639	644	1
636	646	648	1
636	646	649	1
639	636	646	1
637	638	639	1
639	638	645	1
638	639	644	1
638	637	643	1
638	645	647	1
637	638	645	1
637	634	640	1
646	649	650	1
648	646	649	1
4378	4381	4382	1
4378	4381	4387	1
4378	4379	4380	1
4378	4379	4386	1
4378	4384	4385	1
4381	4382	4383	1
4381	4382	4389	1
4379	4378	4381	1
4381	4378	4384	1
4382	4381	4387	1
4380	4383	4382	1
4382	4383	4388	1
4382	4389	4391	1
4383	4382	4389	1
4379	4380	4383	1
4383	4380	4390	1
4380	4383	4388	1
4380	4379	4386	1
4380	4390	4392	1
4379	4380	4390	1
4379	4378	4384	1
4393	4394	4395	1
4393	4394	4401	1
4393	4396	4397	1
4393	4396	4402	1
4393	4399	4400	1
4394	4395	4398	1
4394	4395	4405	1
4394	4393	4396	1
4394	4393	4399	1
4395	4394	4401	1
4395	4398	4397	1
4395	4398	4403	1
4395	4405	4407	1
4398	4395	4405	1
4396	4397	4398	1
4398	4397	4404	1
4397	4398	4403	1
4397	4396	4402	1
4397	4404	4406	1
4396	4397	4404	1
4396	4393	4399	1
4422	4423	4424	1
4422	4423	4430	1
4422	4425	4426	1
4422	4425	4431	1
4422	4428	4429	1
4423	4424	4427	1
4423	4424	4434	1
4423	4422	4425	1
4423	4422	4428	1
4424	4423	4430	1
4424	4427	4426	1
4424	4427	4432	1
4424	4434	4436	1
4427	4424	4434	1
4425	4426	4427	1
4427	4426	4433	1
4426	4427	4432	1
4426	4425	4431	1
4426	4433	4435	1
4425	4426	4433	1
4425	4422	4428	1
4451	4452	4453	1
4451	4452	4459	1
4451	4454	4455	1
4451	4454	4460	1
4451	4457	4458	1
4452	4453	4456	1
4452	4453	4463	1
4454	4451	4452	1
4452	4451	4457	1
4453	4452	4459	1
4455	4456	4453	1
4453	4456	4461	1
4453	4463	4465	1
4456	4453	4463	1
4454	4455	4456	1
4456	4455	4462	1
4455	4456	4461	1
4455	4454	4460	1
4455	4462	4464	1
4454	4455	4462	1
4454	4451	4457	1
4480	4483	4484	1
4480	4483	4489	1
4480	4481	4482	1
4480	4481	4488	1
4480	4486	4487	1
4483	4484	4485	1
4483	4484	4491	1
4483	4480	4481	1
4483	4480	4486	1
4484	4483	4489	1
4484	4485	4482	1
4484	4485	4490	1
4484	4491	4493	1
4485	4484	4491	1
4481	4482	4485	1
4485	4482	4492	1
4482	4485	4490	1
4482	4481	4488	1
4482	4492	4494	1
4481	4482	4492	1
4481	4480	4486	1
665	666	667	1
667	666	673	1
667	670	669	1
667	670	675	1
667	677	679	1
667	677	680	1
666	665	668	1
666	665	671	1
666	667	670	1
666	667	677	1
665	666	673	1
665	668	669	1
665	668	674	1
665	671	672	1
668	665	671	1
668	669	670	1
668	669	676	1
669	668	674	1
669	670	675	1
669	676	678	1
670	669	676	1
670	667	677	1
677	680	681	1
679	677	680	1
4509	4510	4511	1
4509	4510	4517	1
4509	4512	4513	1
4509	4512	4518	1
4509	4515	4516	1
4510	4511	4514	1
4510	4511	4521	1
4510	4509	4512	1
4510	4509	4515	1
4511	4510	4517	1
4511	4514	4513	1
4511	4514	4519	1
4511	4521	4523	1
4514	4511	4521	1
4512	4513	4514	1
4514	4513	4520	1
4513	4514	4519	1
4513	4512	4518	1
4513	4520	4522	1
4512	4513	4520	1
4512	4509	4515	1
696	699	700	1
696	699	705	1
696	697	698	1
696	697	704	1
696	702	703	1
699	700	701	1
699	700	707	1
697	696	699	1
699	696	702	1
700	699	705	1
698	701	700	1
700	701	706	1
700	707	709	1
701	700	707	1
697	698	701	1
701	698	708	1
698	701	706	1
698	697	704	1
698	708	710	1
698	708	711	1
697	698	708	1
697	696	702	1
708	711	712	1
710	708	711	1
4538	4541	4542	1
4538	4541	4547	1
4538	4539	4540	1
4538	4539	4546	1
4538	4544	4545	1
4541	4542	4543	1
4541	4542	4549	1
4539	4538	4541	1
4541	4538	4544	1
4542	4541	4547	1
4540	4543	4542	1
4542	4543	4548	1
4542	4549	4551	1
4543	4542	4549	1
4539	4540	4543	1
4543	4540	4550	1
4540	4543	4548	1
4540	4539	4546	1
4540	4550	4552	1
4539	4540	4550	1
4539	4538	4544	1
4567	4570	4571	1
4567	4570	4576	1
4567	4568	4569	1
4567	4568	4575	1
4567	4573	4574	1
4570	4571	4572	1
4570	4571	4578	1
4568	4567	4570	1
4570	4567	4573	1
4571	4570	4576	1
4569	4572	4571	1
4571	4572	4577	1
4571	4578	4580	1
4572	4571	4578	1
4568	4569	4572	1
4572	4569	4579	1
4569	4572	4577	1
4569	4568	4575	1
4569	4579	4581	1
4568	4569	4579	1
4568	4567	4573	1
4596	4599	4600	1
4596	4599	4605	1
4596	4597	4598	1
4596	4597	4604	1
4596	4602	4603	1
4599	4600	4601	1
4599	4600	4607	1
4597	4596	4599	1
4599	4596	4602	1
4600	4599	4605	1
4598	4601	4600	1
4600	4601	4606	1
4600	4607	4609	1
4601	4600	4607	1
4597	4598	4601	1
4601	4598	4608	1
4598	4601	4606	1
4598	4597	4604	1
4598	4608	4610	1
4597	4598	4608	1
4597	4596	4602	1
4625	4626	4627	1
4625	4626	4633	1
4625	4628	4629	1
4625	4628	4634	1
4625	4631	4632	1
4626	4627	4630	1
4626	4627	4637	1
4626	4625	4628	1
4626	4625	4631	1
4627	4626	4633	1
4627	4630	4629	1
4627	4630	4635	1
4627	4637	4639	1
4630	4627	4637	1
4628	4629	4630	1
4630	4629	4636	1
4629	4630	4635	1
4629	4628	4634	1
4629	4636	4638	1
4628	4629	4636	1
4628	4625	4631	1
727	730	731	1
727	730	736	1
727	728	729	1
727	728	735	1
727	733	734	1
730	731	732	1
730	731	738	1
728	727	730	1
730	727	733	1
731	730	736	1
729	732	731	1
731	732	737	1
731	738	740	1
732	731	738	1
728	729	732	1
732	729	739	1
729	732	737	1
729	728	735	1
729	739	741	1
729	739	742	1
728	729	739	1
728	727	733	1
739	742	743	1
741	739	742	1
758	761	762	1
758	761	767	1
758	759	760	1
758	759	766	1
758	764	765	1
761	762	763	1
761	762	769	1
759	758	761	1
761	758	764	1
762	761	767	1
760	763	762	1
762	763	768	1
762	769	771	1
763	762	769	1
759	760	763	1
763	760	770	1
760	763	768	1
760	759	766	1
760	770	772	1
760	770	773	1
759	760	770	1
759	758	764	1
770	773	774	1
772	770	773	1
789	790	791	1
789	790	797	1
789	792	793	1
789	792	798	1
789	795	796	1
790	791	794	1
790	791	801	1
790	789	792	1
790	789	795	1
791	790	797	1
791	794	793	1
791	794	799	1
791	801	803	1
791	801	804	1
794	791	801	1
792	793	794	1
794	793	800	1
793	794	799	1
793	792	798	1
793	800	802	1
792	793	800	1
792	789	795	1
801	804	805	1
803	801	804	1
4654	4655	4656	1
4656	4655	4662	1
4656	4659	4658	1
4656	4659	4664	1
4656	4666	4668	1
4655	4654	4657	1
4655	4654	4660	1
4655	4656	4659	1
4655	4656	4666	1
4654	4655	4662	1
4654	4657	4658	1
4654	4657	4663	1
4654	4660	4661	1
4657	4654	4660	1
4657	4658	4659	1
4657	4658	4665	1
4658	4657	4663	1
4658	4659	4664	1
4658	4665	4667	1
4659	4658	4665	1
4659	4656	4666	1
4687	4688	4685	1
4687	4688	4693	1
4687	4686	4683	1
4687	4686	4692	1
4687	4694	4696	1
4688	4685	4684	1
4688	4685	4695	1
4686	4687	4688	1
4688	4687	4694	1
4685	4688	4693	1
4683	4684	4685	1
4685	4684	4691	1
4685	4695	4697	1
4684	4685	4695	1
4686	4683	4684	1
4684	4683	4689	1
4683	4684	4691	1
4683	4686	4692	1
4683	4689	4690	1
4686	4683	4689	1
4686	4687	4694	1
4712	4713	4714	1
4712	4713	4720	1
4712	4715	4716	1
4712	4715	4721	1
4712	4718	4719	1
4713	4714	4717	1
4713	4714	4724	1
4715	4712	4713	1
4713	4712	4718	1
4714	4713	4720	1
4716	4717	4714	1
4714	4717	4722	1
4714	4724	4726	1
4717	4714	4724	1
4715	4716	4717	1
4717	4716	4723	1
4716	4717	4722	1
4716	4715	4721	1
4716	4723	4725	1
4715	4716	4723	1
4715	4712	4718	1
36	39	38	1
36	39	44	1
34	35	36	1
36	35	42	1
36	46	48	1
36	46	51	1
37	38	39	1
39	38	45	1
35	36	39	1
39	36	46	1
38	39	44	1
34	37	38	1
38	37	43	1
38	45	47	1
38	45	49	1
37	38	45	1
35	34	37	1
37	34	40	1
34	37	43	1
34	35	42	1
34	40	41	1
35	34	40	1
35	36	46	1
46	51	52	1
45	49	50	1
48	46	51	1
47	45	49	1
4741	4742	4743	1
4741	4742	4749	1
4741	4744	4745	1
4741	4744	4750	1
4741	4747	4748	1
4742	4743	4746	1
4742	4743	4753	1
4742	4741	4744	1
4742	4741	4747	1
4743	4742	4749	1
4743	4746	4745	1
4743	4746	4751	1
4743	4753	4755	1
4746	4743	4753	1
4744	4745	4746	1
4746	4745	4752	1
4745	4746	4751	1
4745	4744	4750	1
4745	4752	4754	1
4744	4745	4752	1
4744	4741	4747	1
4770	4773	4774	1
4770	4773	4779	1
4770	4771	4772	1
4770	4771	4778	1
4770	4776	4777	1
4773	4774	4775	1
4773	4774	4781	1
4771	4770	4773	1
4773	4770	4776	1
4774	4773	4779	1
4772	4775	4774	1
4774	4775	4780	1
4774	4781	4783	1
4775	4774	4781	1
4771	4772	4775	1
4775	4772	4782	1
4772	4775	4780	1
4772	4771	4778	1
4772	4782	4784	1
4771	4772	4782	1
4771	4770	4776	1
820	821	822	1
822	821	828	1
822	825	824	1
822	825	830	1
822	832	834	1
822	832	835	1
821	820	823	1
821	820	826	1
821	822	825	1
821	822	832	1
820	821	828	1
820	823	824	1
820	823	829	1
820	826	827	1
823	820	826	1
823	824	825	1
823	824	831	1
824	823	829	1
824	825	830	1
824	831	833	1
825	824	831	1
825	822	832	1
832	835	836	1
834	832	835	1
4799	4802	4803	1
4799	4802	4808	1
4799	4800	4801	1
4799	4800	4807	1
4799	4805	4806	1
4802	4803	4804	1
4802	4803	4810	1
4800	4799	4802	1
4802	4799	4805	1
4803	4802	4808	1
4801	4804	4803	1
4803	4804	4809	1
4803	4810	4812	1
4804	4803	4810	1
4800	4801	4804	1
4804	4801	4811	1
4801	4804	4809	1
4801	4800	4807	1
4801	4811	4813	1
4800	4801	4811	1
4800	4799	4805	1
4828	4831	4832	1
4828	4831	4837	1
4828	4829	4830	1
4828	4829	4836	1
4828	4834	4835	1
4831	4832	4833	1
4831	4832	4839	1
4829	4828	4831	1
4831	4828	4834	1
4832	4831	4837	1
4830	4833	4832	1
4832	4833	4838	1
4832	4839	4841	1
4833	4832	4839	1
4829	4830	4833	1
4833	4830	4840	1
4830	4833	4838	1
4830	4829	4836	1
4830	4840	4842	1
4829	4830	4840	1
4829	4828	4834	1
853	856	855	1
853	856	861	1
851	852	853	1
853	852	859	1
853	863	865	1
853	863	866	1
854	855	856	1
856	855	862	1
852	853	856	1
856	853	863	1
855	856	861	1
851	854	855	1
855	854	860	1
855	862	864	1
854	855	862	1
852	851	854	1
854	851	857	1
851	854	860	1
851	852	859	1
851	857	858	1
852	851	857	1
852	853	863	1
863	866	867	1
865	863	866	1
4857	4860	4861	1
4857	4860	4866	1
4857	4858	4859	1
4857	4858	4865	1
4857	4863	4864	1
4860	4861	4862	1
4860	4861	4868	1
4858	4857	4860	1
4860	4857	4863	1
4861	4860	4866	1
4859	4862	4861	1
4861	4862	4867	1
4861	4868	4870	1
4862	4861	4868	1
4858	4859	4862	1
4862	4859	4869	1
4859	4862	4867	1
4859	4858	4865	1
4859	4869	4871	1
4858	4859	4869	1
4858	4857	4863	1
4872	4875	4876	1
4872	4875	4881	1
4872	4873	4874	1
4872	4873	4880	1
4872	4878	4879	1
4875	4876	4877	1
4875	4876	4883	1
4873	4872	4875	1
4875	4872	4878	1
4876	4875	4881	1
4874	4877	4876	1
4876	4877	4882	1
4876	4883	4885	1
4877	4876	4883	1
4873	4874	4877	1
4877	4874	4884	1
4874	4877	4882	1
4874	4873	4880	1
4874	4884	4886	1
4873	4874	4884	1
4873	4872	4878	1
4901	4902	4903	1
4901	4902	4909	1
4901	4904	4905	1
4901	4904	4910	1
4901	4907	4908	1
4902	4903	4906	1
4902	4903	4913	1
4904	4901	4902	1
4902	4901	4907	1
4903	4902	4909	1
4905	4906	4903	1
4903	4906	4911	1
4903	4913	4915	1
4906	4903	4913	1
4904	4905	4906	1
4906	4905	4912	1
4905	4906	4911	1
4905	4904	4910	1
4905	4912	4914	1
4904	4905	4912	1
4904	4901	4907	1
4930	4933	4934	1
4930	4933	4939	1
4930	4931	4932	1
4930	4931	4938	1
4930	4936	4937	1
4933	4934	4935	1
4933	4934	4941	1
4933	4930	4931	1
4933	4930	4936	1
4934	4933	4939	1
4934	4935	4932	1
4934	4935	4940	1
4934	4941	4943	1
4935	4934	4941	1
4931	4932	4935	1
4935	4932	4942	1
4932	4935	4940	1
4932	4931	4938	1
4932	4942	4944	1
4931	4932	4942	1
4931	4930	4936	1
4959	4960	4961	1
4959	4960	4967	1
4959	4962	4963	1
4959	4962	4968	1
4959	4965	4966	1
4960	4961	4964	1
4960	4961	4971	1
4960	4959	4962	1
4960	4959	4965	1
4961	4960	4967	1
4961	4964	4963	1
4961	4964	4969	1
4961	4971	4973	1
4964	4961	4971	1
4962	4963	4964	1
4964	4963	4970	1
4963	4964	4969	1
4963	4962	4968	1
4963	4970	4972	1
4962	4963	4970	1
4962	4959	4965	1
882	885	886	1
882	885	891	1
882	883	884	1
882	883	890	1
882	888	889	1
885	886	887	1
885	886	893	1
883	882	885	1
885	882	888	1
886	885	891	1
884	887	886	1
886	887	892	1
886	893	895	1
887	886	893	1
883	884	887	1
887	884	894	1
884	887	892	1
884	883	890	1
884	894	896	1
884	894	897	1
883	884	894	1
883	882	888	1
894	897	898	1
896	894	897	1
4988	4989	4990	1
4988	4989	4996	1
4988	4991	4992	1
4988	4991	4997	1
4988	4994	4995	1
4989	4990	4993	1
4989	4990	5000	1
4989	4988	4991	1
4989	4988	4994	1
4990	4989	4996	1
4990	4993	4992	1
4990	4993	4998	1
4990	5000	5002	1
4993	4990	5000	1
4991	4992	4993	1
4993	4992	4999	1
4992	4993	4998	1
4992	4991	4997	1
4992	4999	5001	1
4991	4992	4999	1
4991	4988	4994	1
913	916	917	1
913	916	922	1
913	914	915	1
913	914	921	1
913	919	920	1
916	917	918	1
916	917	924	1
914	913	916	1
916	913	919	1
917	916	922	1
915	918	917	1
917	918	923	1
917	924	926	1
918	917	924	1
914	915	918	1
918	915	925	1
915	918	923	1
915	914	921	1
915	925	927	1
915	925	928	1
914	915	925	1
914	913	919	1
925	928	929	1
927	925	928	1
5003	5004	5005	1
5003	5004	5011	1
5003	5006	5007	1
5003	5006	5012	1
5003	5009	5010	1
5004	5005	5008	1
5004	5005	5015	1
5004	5003	5006	1
5004	5003	5009	1
5005	5004	5011	1
5005	5008	5007	1
5005	5008	5013	1
5005	5015	5017	1
5008	5005	5015	1
5006	5007	5008	1
5008	5007	5014	1
5007	5008	5013	1
5007	5006	5012	1
5007	5014	5016	1
5006	5007	5014	1
5006	5003	5009	1
5032	5033	5034	1
5032	5033	5040	1
5032	5035	5036	1
5032	5035	5041	1
5032	5038	5039	1
5033	5034	5037	1
5033	5034	5044	1
5033	5032	5035	1
5033	5032	5038	1
5034	5033	5040	1
5034	5037	5036	1
5034	5037	5042	1
5034	5044	5046	1
5037	5034	5044	1
5035	5036	5037	1
5037	5036	5043	1
5036	5037	5042	1
5036	5035	5041	1
5036	5043	5045	1
5035	5036	5043	1
5035	5032	5038	1
944	945	946	1
944	945	952	1
944	947	948	1
944	947	953	1
944	950	951	1
945	946	949	1
945	946	956	1
945	944	947	1
945	944	950	1
946	945	952	1
946	949	948	1
946	949	954	1
946	956	958	1
946	956	959	1
949	946	956	1
947	948	949	1
949	948	955	1
948	949	954	1
948	947	953	1
948	955	957	1
947	948	955	1
947	944	950	1
956	959	960	1
958	956	959	1
5061	5062	5063	1
5061	5062	5069	1
5061	5064	5065	1
5061	5064	5070	1
5061	5067	5068	1
5062	5063	5066	1
5062	5063	5073	1
5062	5061	5064	1
5062	5061	5067	1
5063	5062	5069	1
5063	5066	5065	1
5063	5066	5071	1
5063	5073	5075	1
5066	5063	5073	1
5064	5065	5066	1
5066	5065	5072	1
5065	5066	5071	1
5065	5064	5070	1
5065	5072	5074	1
5064	5065	5072	1
5064	5061	5067	1
5076	5077	5078	1
5076	5077	5084	1
5076	5079	5080	1
5076	5079	5085	1
5076	5082	5083	1
5077	5078	5081	1
5077	5078	5088	1
5077	5076	5079	1
5077	5076	5082	1
5078	5077	5084	1
5078	5081	5080	1
5078	5081	5086	1
5078	5088	5090	1
5081	5078	5088	1
5079	5080	5081	1
5081	5080	5087	1
5080	5081	5086	1
5080	5079	5085	1
5080	5087	5089	1
5079	5080	5087	1
5079	5076	5082	1
5105	5106	5107	1
5105	5106	5113	1
5105	5108	5109	1
5105	5108	5114	1
5105	5111	5112	1
5106	5107	5110	1
5106	5107	5117	1
5108	5105	5106	1
5106	5105	5111	1
5107	5106	5113	1
5109	5110	5107	1
5107	5110	5115	1
5107	5117	5119	1
5110	5107	5117	1
5108	5109	5110	1
5110	5109	5116	1
5109	5110	5115	1
5109	5108	5114	1
5109	5116	5118	1
5108	5109	5116	1
5108	5105	5111	1
5134	5135	5136	1
5134	5135	5142	1
5134	5137	5138	1
5134	5137	5143	1
5134	5140	5141	1
5135	5136	5139	1
5135	5136	5146	1
5137	5134	5135	1
5135	5134	5140	1
5136	5135	5142	1
5138	5139	5136	1
5136	5139	5144	1
5136	5146	5148	1
5139	5136	5146	1
5137	5138	5139	1
5139	5138	5145	1
5138	5139	5144	1
5138	5137	5143	1
5138	5145	5147	1
5137	5138	5145	1
5137	5134	5140	1
5163	5166	5167	1
5163	5166	5172	1
5163	5164	5165	1
5163	5164	5171	1
5163	5169	5170	1
5166	5167	5168	1
5166	5167	5174	1
5164	5163	5166	1
5166	5163	5169	1
5167	5166	5172	1
5165	5168	5167	1
5167	5168	5173	1
5167	5174	5176	1
5168	5167	5174	1
5164	5165	5168	1
5168	5165	5175	1
5165	5168	5173	1
5165	5164	5171	1
5165	5175	5177	1
5164	5165	5175	1
5164	5163	5169	1
5192	5195	5196	1
5192	5195	5201	1
5192	5193	5194	1
5192	5193	5200	1
5192	5198	5199	1
5195	5196	5197	1
5195	5196	5203	1
5193	5192	5195	1
5195	5192	5198	1
5196	5195	5201	1
5194	5197	5196	1
5196	5197	5202	1
5196	5203	5205	1
5197	5196	5203	1
5193	5194	5197	1
5197	5194	5204	1
5194	5197	5202	1
5194	5193	5200	1
5194	5204	5206	1
5193	5194	5204	1
5193	5192	5198	1
975	978	979	1
975	978	984	1
975	976	977	1
975	976	983	1
975	981	982	1
978	979	980	1
978	979	986	1
976	975	978	1
978	975	981	1
979	978	984	1
977	980	979	1
979	980	985	1
979	986	988	1
980	979	986	1
976	977	980	1
980	977	987	1
977	980	985	1
977	976	983	1
977	987	989	1
977	987	990	1
976	977	987	1
976	975	981	1
987	990	991	1
989	987	990	1
1006	1007	1008	1
1006	1007	1014	1
1006	1009	1010	1
1006	1009	1015	1
1006	1012	1013	1
1007	1008	1011	1
1007	1008	1018	1
1007	1006	1009	1
1007	1006	1012	1
1008	1007	1014	1
1008	1011	1010	1
1008	1011	1016	1
1008	1018	1020	1
1008	1018	1021	1
1011	1008	1018	1
1009	1010	1011	1
1011	1010	1017	1
1010	1011	1016	1
1010	1009	1015	1
1010	1017	1019	1
1009	1010	1017	1
1009	1006	1012	1
1018	1021	1022	1
1020	1018	1021	1
5221	5224	5225	1
5221	5224	5230	1
5221	5222	5223	1
5221	5222	5229	1
5221	5227	5228	1
5224	5225	5226	1
5224	5225	5232	1
5222	5221	5224	1
5224	5221	5227	1
5225	5224	5230	1
5223	5226	5225	1
5225	5226	5231	1
5225	5232	5234	1
5226	5225	5232	1
5222	5223	5226	1
5226	5223	5233	1
5223	5226	5231	1
5223	5222	5229	1
5223	5233	5235	1
5222	5223	5233	1
5222	5221	5227	1
5250	5253	5254	1
5250	5253	5259	1
5250	5251	5252	1
5250	5251	5258	1
5250	5256	5257	1
5253	5254	5255	1
5253	5254	5261	1
5251	5250	5253	1
5253	5250	5256	1
5254	5253	5259	1
5252	5255	5254	1
5254	5255	5260	1
5254	5261	5263	1
5255	5254	5261	1
5251	5252	5255	1
5255	5252	5262	1
5252	5255	5260	1
5252	5251	5258	1
5252	5262	5264	1
5251	5252	5262	1
5251	5250	5256	1
5279	5280	5281	1
5279	5280	5287	1
5279	5282	5283	1
5279	5282	5288	1
5279	5285	5286	1
5280	5281	5284	1
5280	5281	5291	1
5280	5279	5282	1
5280	5279	5285	1
5281	5280	5287	1
5281	5284	5283	1
5281	5284	5289	1
5281	5291	5293	1
5284	5281	5291	1
5282	5283	5284	1
5284	5283	5290	1
5283	5284	5289	1
5283	5282	5288	1
5283	5290	5292	1
5282	5283	5290	1
5282	5279	5285	1
5308	5309	5310	1
5308	5309	5316	1
5308	5311	5312	1
5308	5311	5317	1
5308	5314	5315	1
5309	5310	5313	1
5309	5310	5320	1
5309	5308	5311	1
5309	5308	5314	1
5310	5309	5316	1
5310	5313	5312	1
5310	5313	5318	1
5310	5320	5322	1
5313	5310	5320	1
5311	5312	5313	1
5313	5312	5319	1
5312	5313	5318	1
5312	5311	5317	1
5312	5319	5321	1
5311	5312	5319	1
5311	5308	5314	1
5337	5340	5341	1
5337	5340	5346	1
5337	5338	5339	1
5337	5338	5345	1
5337	5343	5344	1
5340	5341	5342	1
5340	5341	5348	1
5340	5337	5338	1
5340	5337	5343	1
5341	5340	5346	1
5341	5342	5339	1
5341	5342	5347	1
5341	5348	5350	1
5342	5341	5348	1
5338	5339	5342	1
5342	5339	5349	1
5339	5342	5347	1
5339	5338	5345	1
5339	5349	5351	1
5338	5339	5349	1
5338	5337	5343	1
5352	5355	5356	1
5352	5355	5361	1
5352	5353	5354	1
5352	5353	5360	1
5352	5358	5359	1
5355	5356	5357	1
5355	5356	5363	1
5355	5352	5353	1
5355	5352	5358	1
5356	5355	5361	1
5356	5357	5354	1
5356	5357	5362	1
5356	5363	5365	1
5357	5356	5363	1
5353	5354	5357	1
5357	5354	5364	1
5354	5357	5362	1
5354	5353	5360	1
5354	5364	5366	1
5353	5354	5364	1
5353	5352	5358	1
5381	5384	5385	1
5381	5384	5390	1
5381	5382	5383	1
5381	5382	5389	1
5381	5387	5388	1
5384	5385	5386	1
5384	5385	5392	1
5382	5381	5384	1
5384	5381	5387	1
5385	5384	5390	1
5383	5386	5385	1
5385	5386	5391	1
5385	5392	5394	1
5386	5385	5392	1
5382	5383	5386	1
5386	5383	5393	1
5383	5386	5391	1
5383	5382	5389	1
5383	5393	5395	1
5382	5383	5393	1
5382	5381	5387	1
5410	5413	5414	1
5410	5413	5419	1
5410	5411	5412	1
5410	5411	5418	1
5410	5416	5417	1
5413	5414	5415	1
5413	5414	5421	1
5411	5410	5413	1
5413	5410	5416	1
5414	5413	5419	1
5412	5415	5414	1
5414	5415	5420	1
5414	5421	5423	1
5415	5414	5421	1
5411	5412	5415	1
5415	5412	5422	1
5412	5415	5420	1
5412	5411	5418	1
5412	5422	5424	1
5411	5412	5422	1
5411	5410	5416	1
5439	5442	5443	1
5439	5442	5448	1
5439	5440	5441	1
5439	5440	5447	1
5439	5445	5446	1
5442	5443	5444	1
5442	5443	5450	1
5440	5439	5442	1
5442	5439	5445	1
5443	5442	5448	1
5441	5444	5443	1
5443	5444	5449	1
5443	5450	5452	1
5444	5443	5450	1
5440	5441	5444	1
5444	5441	5451	1
5441	5444	5449	1
5441	5440	5447	1
5441	5451	5453	1
5440	5441	5451	1
5440	5439	5445	1
5468	5471	5472	1
5468	5471	5477	1
5468	5469	5470	1
5468	5469	5476	1
5468	5474	5475	1
5471	5472	5473	1
5471	5472	5479	1
5469	5468	5471	1
5471	5468	5474	1
5472	5471	5477	1
5470	5473	5472	1
5472	5473	5478	1
5472	5479	5481	1
5473	5472	5479	1
5469	5470	5473	1
5473	5470	5480	1
5470	5473	5478	1
5470	5469	5476	1
5470	5480	5482	1
5469	5470	5480	1
5469	5468	5474	1
5483	5484	5485	1
5483	5484	5491	1
5483	5486	5487	1
5483	5486	5492	1
5483	5489	5490	1
5484	5485	5488	1
5484	5485	5495	1
5484	5483	5486	1
5484	5483	5489	1
5485	5484	5491	1
5485	5488	5487	1
5485	5488	5493	1
5485	5495	5497	1
5488	5485	5495	1
5486	5487	5488	1
5488	5487	5494	1
5487	5488	5493	1
5487	5486	5492	1
5487	5494	5496	1
5486	5487	5494	1
5486	5483	5489	1
5512	5513	5514	1
5512	5513	5520	1
5512	5515	5516	1
5512	5515	5521	1
5512	5518	5519	1
5513	5514	5517	1
5513	5514	5524	1
5513	5512	5515	1
5513	5512	5518	1
5514	5513	5520	1
5514	5517	5516	1
5514	5517	5522	1
5514	5524	5526	1
5517	5514	5524	1
5515	5516	5517	1
5517	5516	5523	1
5516	5517	5522	1
5516	5515	5521	1
5516	5523	5525	1
5515	5516	5523	1
5515	5512	5518	1
5541	5544	5545	1
5541	5544	5550	1
5541	5542	5543	1
5541	5542	5549	1
5541	5547	5548	1
5544	5545	5546	1
5544	5545	5552	1
5544	5541	5542	1
5544	5541	5547	1
5545	5544	5550	1
5545	5546	5543	1
5545	5546	5551	1
5545	5552	5554	1
5546	5545	5552	1
5542	5543	5546	1
5546	5543	5553	1
5543	5546	5551	1
5543	5542	5549	1
5543	5553	5555	1
5542	5543	5553	1
5542	5541	5547	1
1037	1040	1041	1
1037	1040	1046	1
1037	1038	1039	1
1037	1038	1045	1
1037	1043	1044	1
1040	1041	1042	1
1040	1041	1048	1
1038	1037	1040	1
1040	1037	1043	1
1041	1040	1046	1
1039	1042	1041	1
1041	1042	1047	1
1041	1048	1050	1
1042	1041	1048	1
1038	1039	1042	1
1042	1039	1049	1
1039	1042	1047	1
1039	1038	1045	1
1039	1049	1051	1
1039	1049	1052	1
1038	1039	1049	1
1038	1037	1043	1
1049	1052	1053	1
1051	1049	1052	1
5570	5573	5574	1
5570	5573	5579	1
5570	5571	5572	1
5570	5571	5578	1
5570	5576	5577	1
5573	5574	5575	1
5573	5574	5581	1
5573	5570	5571	1
5573	5570	5576	1
5574	5573	5579	1
5574	5575	5572	1
5574	5575	5580	1
5574	5581	5583	1
5575	5574	5581	1
5571	5572	5575	1
5575	5572	5582	1
5572	5575	5580	1
5572	5571	5578	1
5572	5582	5584	1
5571	5572	5582	1
5571	5570	5576	1
5585	5586	5587	1
5587	5586	5593	1
5587	5590	5589	1
5587	5590	5595	1
5587	5597	5599	1
5586	5585	5588	1
5586	5585	5591	1
5586	5587	5590	1
5586	5587	5597	1
5585	5586	5593	1
5585	5588	5589	1
5585	5588	5594	1
5585	5591	5592	1
5588	5585	5591	1
5588	5589	5590	1
5588	5589	5596	1
5589	5588	5594	1
5589	5590	5595	1
5589	5596	5598	1
5590	5589	5596	1
5590	5587	5597	1
5600	5603	5604	1
5600	5603	5609	1
5600	5601	5602	1
5600	5601	5608	1
5600	5606	5607	1
5603	5604	5605	1
5603	5604	5611	1
5601	5600	5603	1
5603	5600	5606	1
5604	5603	5609	1
5602	5605	5604	1
5604	5605	5610	1
5604	5611	5613	1
5605	5604	5611	1
5601	5602	5605	1
5605	5602	5612	1
5602	5605	5610	1
5602	5601	5608	1
5602	5612	5614	1
5601	5602	5612	1
5601	5600	5606	1
5629	5632	5633	1
5629	5632	5638	1
5629	5630	5631	1
5629	5630	5637	1
5629	5635	5636	1
5632	5633	5634	1
5632	5633	5640	1
5630	5629	5632	1
5632	5629	5635	1
5633	5632	5638	1
5631	5634	5633	1
5633	5634	5639	1
5633	5640	5642	1
5634	5633	5640	1
5630	5631	5634	1
5634	5631	5641	1
5631	5634	5639	1
5631	5630	5637	1
5631	5641	5643	1
5630	5631	5641	1
5630	5629	5635	1
1068	1069	1070	1
1068	1069	1076	1
1068	1071	1072	1
1068	1071	1077	1
1068	1074	1075	1
1069	1070	1073	1
1069	1070	1080	1
1069	1068	1071	1
1069	1068	1074	1
1070	1069	1076	1
1070	1073	1072	1
1070	1073	1078	1
1070	1080	1082	1
1070	1080	1083	1
1073	1070	1080	1
1071	1072	1073	1
1073	1072	1079	1
1072	1073	1078	1
1072	1071	1077	1
1072	1079	1081	1
1071	1072	1079	1
1071	1068	1074	1
1080	1083	1084	1
1082	1080	1083	1
5644	5647	5648	1
5644	5647	5653	1
5644	5645	5646	1
5644	5645	5652	1
5644	5650	5651	1
5647	5648	5649	1
5647	5648	5655	1
5645	5644	5647	1
5647	5644	5650	1
5648	5647	5653	1
5646	5649	5648	1
5648	5649	5654	1
5648	5655	5657	1
5649	5648	5655	1
5645	5646	5649	1
5649	5646	5656	1
5646	5649	5654	1
5646	5645	5652	1
5646	5656	5658	1
5645	5646	5656	1
5645	5644	5650	1
1099	1100	1101	1
1099	1100	1107	1
1099	1102	1103	1
1099	1102	1108	1
1099	1105	1106	1
1100	1101	1104	1
1100	1101	1111	1
1100	1099	1102	1
1100	1099	1105	1
1101	1100	1107	1
1101	1104	1103	1
1101	1104	1109	1
1101	1111	1113	1
1101	1111	1114	1
1104	1101	1111	1
1102	1103	1104	1
1104	1103	1110	1
1103	1104	1109	1
1103	1102	1108	1
1103	1110	1112	1
1102	1103	1110	1
1102	1099	1105	1
1111	1114	1115	1
1113	1111	1114	1
5673	5676	5677	1
5673	5676	5682	1
5673	5674	5675	1
5673	5674	5681	1
5673	5679	5680	1
5676	5677	5678	1
5676	5677	5684	1
5674	5673	5676	1
5676	5673	5679	1
5677	5676	5682	1
5675	5678	5677	1
5677	5678	5683	1
5677	5684	5686	1
5678	5677	5684	1
5674	5675	5678	1
5678	5675	5685	1
5675	5678	5683	1
5675	5674	5681	1
5675	5685	5687	1
5674	5675	5685	1
5674	5673	5679	1
1130	1131	1132	1
1132	1131	1138	1
1132	1135	1134	1
1132	1135	1140	1
1132	1142	1144	1
1132	1142	1145	1
1131	1130	1133	1
1131	1130	1136	1
1131	1132	1135	1
1131	1132	1142	1
1130	1131	1138	1
1130	1133	1134	1
1130	1133	1139	1
1130	1136	1137	1
1133	1130	1136	1
1133	1134	1135	1
1133	1134	1141	1
1134	1133	1139	1
1134	1135	1140	1
1134	1141	1143	1
1135	1134	1141	1
1135	1132	1142	1
1142	1145	1146	1
1144	1142	1145	1
5702	5705	5706	1
5706	5705	5711	1
5704	5707	5706	1
5706	5707	5712	1
5706	5713	5715	1
5703	5702	5705	1
5705	5702	5708	1
5707	5706	5705	1
5705	5706	5713	1
5702	5705	5711	1
5704	5703	5702	1
5702	5703	5710	1
5702	5708	5709	1
5703	5702	5708	1
5703	5704	5707	1
5703	5704	5714	1
5704	5703	5710	1
5704	5707	5712	1
5704	5714	5716	1
5707	5704	5714	1
5707	5706	5713	1
5731	5732	5733	1
5731	5732	5739	1
5731	5734	5735	1
5731	5734	5740	1
5731	5737	5738	1
5732	5733	5736	1
5732	5733	5743	1
5734	5731	5732	1
5732	5731	5737	1
5733	5732	5739	1
5735	5736	5733	1
5733	5736	5741	1
5733	5743	5745	1
5736	5733	5743	1
5734	5735	5736	1
5736	5735	5742	1
5735	5736	5741	1
5735	5734	5740	1
5735	5742	5744	1
5734	5735	5742	1
5734	5731	5737	1
5746	5747	5748	1
5746	5747	5754	1
5746	5749	5750	1
5746	5749	5755	1
5746	5752	5753	1
5747	5748	5751	1
5747	5748	5758	1
5749	5746	5747	1
5747	5746	5752	1
5748	5747	5754	1
5750	5751	5748	1
5748	5751	5756	1
5748	5758	5760	1
5751	5748	5758	1
5749	5750	5751	1
5751	5750	5757	1
5750	5751	5756	1
5750	5749	5755	1
5750	5757	5759	1
5749	5750	5757	1
5749	5746	5752	1
1161	1162	1163	1
1161	1162	1169	1
1161	1164	1165	1
1161	1164	1170	1
1161	1167	1168	1
1162	1163	1166	1
1162	1163	1173	1
1162	1161	1164	1
1162	1161	1167	1
1163	1162	1169	1
1163	1166	1165	1
1163	1166	1171	1
1163	1173	1175	1
1163	1173	1176	1
1166	1163	1173	1
1164	1165	1166	1
1166	1165	1172	1
1165	1166	1171	1
1165	1164	1170	1
1165	1172	1174	1
1164	1165	1172	1
1164	1161	1167	1
1173	1176	1177	1
1175	1173	1176	1
5775	5778	5779	1
5775	5778	5784	1
5775	5776	5777	1
5775	5776	5783	1
5775	5781	5782	1
5778	5779	5780	1
5778	5779	5786	1
5776	5775	5778	1
5778	5775	5781	1
5779	5778	5784	1
5777	5780	5779	1
5779	5780	5785	1
5779	5786	5788	1
5780	5779	5786	1
5776	5777	5780	1
5780	5777	5787	1
5777	5780	5785	1
5777	5776	5783	1
5777	5787	5789	1
5776	5777	5787	1
5776	5775	5781	1
1178	1179	1180	1
1178	1179	1186	1
1178	1181	1182	1
1178	1181	1187	1
1178	1184	1185	1
1179	1180	1183	1
1179	1180	1190	1
1179	1178	1181	1
1179	1178	1184	1
1180	1179	1186	1
1180	1183	1182	1
1180	1183	1188	1
1180	1190	1192	1
1180	1190	1193	1
1183	1180	1190	1
1181	1182	1183	1
1183	1182	1189	1
1182	1183	1188	1
1182	1181	1187	1
1182	1189	1191	1
1181	1182	1189	1
1181	1178	1184	1
1190	1193	1194	1
1192	1190	1193	1
1209	1210	1211	1
1211	1210	1217	1
1211	1214	1213	1
1211	1214	1219	1
1211	1221	1223	1
1211	1221	1224	1
1210	1209	1212	1
1210	1209	1215	1
1210	1211	1214	1
1210	1211	1221	1
1209	1210	1217	1
1209	1212	1213	1
1209	1212	1218	1
1209	1215	1216	1
1212	1209	1215	1
1212	1213	1214	1
1212	1213	1220	1
1213	1212	1218	1
1213	1214	1219	1
1213	1220	1222	1
1214	1213	1220	1
1214	1211	1221	1
1221	1224	1225	1
1223	1221	1224	1
5806	5809	5808	1
5808	5809	5814	1
5804	5807	5808	1
5808	5807	5813	1
5808	5815	5817	1
5805	5806	5809	1
5809	5806	5816	1
5807	5808	5809	1
5809	5808	5815	1
5806	5809	5814	1
5804	5805	5806	1
5806	5805	5812	1
5806	5816	5818	1
5805	5806	5816	1
5805	5804	5807	1
5805	5804	5810	1
5804	5805	5812	1
5804	5807	5813	1
5804	5810	5811	1
5807	5804	5810	1
5807	5808	5815	1
5819	5822	5823	1
5819	5822	5828	1
5819	5820	5821	1
5819	5820	5827	1
5819	5825	5826	1
5822	5823	5824	1
5822	5823	5830	1
5820	5819	5822	1
5822	5819	5825	1
5823	5822	5828	1
5821	5824	5823	1
5823	5824	5829	1
5823	5830	5832	1
5824	5823	5830	1
5820	5821	5824	1
5824	5821	5831	1
5821	5824	5829	1
5821	5820	5827	1
5821	5831	5833	1
5820	5821	5831	1
5820	5819	5825	1
5848	5851	5852	1
5848	5851	5857	1
5848	5849	5850	1
5848	5849	5856	1
5848	5854	5855	1
5851	5852	5853	1
5851	5852	5859	1
5849	5848	5851	1
5851	5848	5854	1
5852	5851	5857	1
5850	5853	5852	1
5852	5853	5858	1
5852	5859	5861	1
5853	5852	5859	1
5849	5850	5853	1
5853	5850	5860	1
5850	5853	5858	1
5850	5849	5856	1
5850	5860	5862	1
5849	5850	5860	1
5849	5848	5854	1
5877	5878	5879	1
5877	5878	5885	1
5877	5880	5881	1
5877	5880	5886	1
5877	5883	5884	1
5878	5879	5882	1
5878	5879	5889	1
5878	5877	5880	1
5878	5877	5883	1
5879	5878	5885	1
5879	5882	5881	1
5879	5882	5887	1
5879	5889	5891	1
5882	5879	5889	1
5880	5881	5882	1
5882	5881	5888	1
5881	5882	5887	1
5881	5880	5886	1
5881	5888	5890	1
5880	5881	5888	1
5880	5877	5883	1
5906	5907	5908	1
5906	5907	5914	1
5906	5909	5910	1
5906	5909	5915	1
5906	5912	5913	1
5907	5908	5911	1
5907	5908	5918	1
5907	5906	5909	1
5907	5906	5912	1
5908	5907	5914	1
5908	5911	5910	1
5908	5911	5916	1
5908	5918	5920	1
5911	5908	5918	1
5909	5910	5911	1
5911	5910	5917	1
5910	5911	5916	1
5910	5909	5915	1
5910	5917	5919	1
5909	5910	5917	1
5909	5906	5912	1
5921	5924	5925	1
5921	5924	5930	1
5921	5922	5923	1
5921	5922	5929	1
5921	5927	5928	1
5924	5925	5926	1
5924	5925	5932	1
5924	5921	5922	1
5924	5921	5927	1
5925	5924	5930	1
5925	5926	5923	1
5925	5926	5931	1
5925	5932	5934	1
5926	5925	5932	1
5922	5923	5926	1
5926	5923	5933	1
5923	5926	5931	1
5923	5922	5929	1
5923	5933	5935	1
5922	5923	5933	1
5922	5921	5927	1
5936	5939	5940	1
5936	5939	5945	1
5936	5937	5938	1
5936	5937	5944	1
5936	5942	5943	1
5939	5940	5941	1
5939	5940	5947	1
5939	5936	5937	1
5939	5936	5942	1
5940	5939	5945	1
5940	5941	5938	1
5940	5941	5946	1
5940	5947	5949	1
5941	5940	5947	1
5937	5938	5941	1
5941	5938	5948	1
5938	5941	5946	1
5938	5937	5944	1
5938	5948	5950	1
5937	5938	5948	1
5937	5936	5942	1
1241	1242	1243	1
1243	1242	1249	1
1243	1246	1245	1
1243	1246	1251	1
1243	1253	1255	1
1243	1253	1256	1
1242	1241	1244	1
1242	1241	1247	1
1242	1243	1246	1
1242	1243	1253	1
1241	1242	1249	1
1241	1244	1245	1
1241	1244	1250	1
1241	1247	1248	1
1244	1241	1247	1
1244	1245	1246	1
1244	1245	1252	1
1245	1244	1250	1
1245	1246	1251	1
1245	1252	1254	1
1246	1245	1252	1
1246	1243	1253	1
1253	1256	1257	1
1255	1253	1256	1
5951	5952	5953	1
5951	5952	5959	1
5951	5954	5955	1
5951	5954	5960	1
5951	5957	5958	1
5952	5953	5956	1
5952	5953	5963	1
5952	5951	5954	1
5952	5951	5957	1
5953	5952	5959	1
5953	5956	5955	1
5953	5956	5961	1
5953	5963	5965	1
5956	5953	5963	1
5954	5955	5956	1
5956	5955	5962	1
5955	5956	5961	1
5955	5954	5960	1
5955	5962	5964	1
5954	5955	5962	1
5954	5951	5957	1
5980	5983	5984	1
5980	5983	5989	1
5980	5981	5982	1
5980	5981	5988	1
5980	5986	5987	1
5983	5984	5985	1
5983	5984	5991	1
5981	5980	5983	1
5983	5980	5986	1
5984	5983	5989	1
5982	5985	5984	1
5984	5985	5990	1
5984	5991	5993	1
5985	5984	5991	1
5981	5982	5985	1
5985	5982	5992	1
5982	5985	5990	1
5982	5981	5988	1
5982	5992	5994	1
5981	5982	5992	1
5981	5980	5986	1
6009	6012	6013	1
6009	6012	6018	1
6009	6010	6011	1
6009	6010	6017	1
6009	6015	6016	1
6012	6013	6014	1
6012	6013	6020	1
6010	6009	6012	1
6012	6009	6015	1
6013	6012	6018	1
6011	6014	6013	1
6013	6014	6019	1
6013	6020	6022	1
6014	6013	6020	1
6010	6011	6014	1
6014	6011	6021	1
6011	6014	6019	1
6011	6010	6017	1
6011	6021	6023	1
6010	6011	6021	1
6010	6009	6015	1
6024	6027	6028	1
6024	6027	6033	1
6024	6025	6026	1
6024	6025	6032	1
6024	6030	6031	1
6027	6028	6029	1
6027	6028	6035	1
6025	6024	6027	1
6027	6024	6030	1
6028	6027	6033	1
6026	6029	6028	1
6028	6029	6034	1
6028	6035	6037	1
6029	6028	6035	1
6025	6026	6029	1
6029	6026	6036	1
6026	6029	6034	1
6026	6025	6032	1
6026	6036	6038	1
6025	6026	6036	1
6025	6024	6030	1
1272	1273	1274	1
1272	1273	1280	1
1272	1275	1276	1
1272	1275	1281	1
1272	1278	1279	1
1273	1274	1277	1
1273	1274	1284	1
1273	1272	1275	1
1273	1272	1278	1
1274	1273	1280	1
1274	1277	1276	1
1274	1277	1282	1
1274	1284	1286	1
1274	1284	1287	1
1277	1274	1284	1
1275	1276	1277	1
1277	1276	1283	1
1276	1277	1282	1
1276	1275	1281	1
1276	1283	1285	1
1275	1276	1283	1
1275	1272	1278	1
1284	1287	1288	1
1286	1284	1287	1
6053	6056	6057	1
6053	6056	6062	1
6053	6054	6055	1
6053	6054	6061	1
6053	6059	6060	1
6056	6057	6058	1
6056	6057	6064	1
6054	6053	6056	1
6056	6053	6059	1
6057	6056	6062	1
6055	6058	6057	1
6057	6058	6063	1
6057	6064	6066	1
6058	6057	6064	1
6054	6055	6058	1
6058	6055	6065	1
6055	6058	6063	1
6055	6054	6061	1
6055	6065	6067	1
6054	6055	6065	1
6054	6053	6059	1
6082	6085	6086	1
6082	6085	6091	1
6082	6083	6084	1
6082	6083	6090	1
6082	6088	6089	1
6085	6086	6087	1
6085	6086	6093	1
6083	6082	6085	1
6085	6082	6088	1
6086	6085	6091	1
6084	6087	6086	1
6086	6087	6092	1
6086	6093	6095	1
6087	6086	6093	1
6083	6084	6087	1
6087	6084	6094	1
6084	6087	6092	1
6084	6083	6090	1
6084	6094	6096	1
6083	6084	6094	1
6083	6082	6088	1
1307	1308	1305	1
1307	1308	1313	1
1307	1306	1303	1
1307	1306	1312	1
1307	1314	1316	1
1308	1305	1304	1
1308	1305	1315	1
1308	1307	1306	1
1308	1307	1314	1
1305	1308	1313	1
1305	1304	1303	1
1305	1304	1311	1
1305	1315	1317	1
1305	1315	1318	1
1304	1305	1315	1
1306	1303	1304	1
1304	1303	1309	1
1303	1304	1311	1
1303	1306	1312	1
1303	1309	1310	1
1306	1303	1309	1
1306	1307	1314	1
1315	1318	1319	1
1317	1315	1318	1
6115	6116	6113	1
6115	6116	6121	1
6115	6114	6111	1
6115	6114	6120	1
6115	6122	6124	1
6116	6113	6112	1
6116	6113	6123	1
6114	6115	6116	1
6116	6115	6122	1
6113	6116	6121	1
6111	6112	6113	1
6113	6112	6119	1
6113	6123	6125	1
6112	6113	6123	1
6114	6111	6112	1
6112	6111	6117	1
6111	6112	6119	1
6111	6114	6120	1
6111	6117	6118	1
6114	6111	6117	1
6114	6115	6122	1
6140	6143	6144	1
6140	6143	6149	1
6140	6141	6142	1
6140	6141	6148	1
6140	6146	6147	1
6143	6144	6145	1
6143	6144	6151	1
6143	6140	6141	1
6143	6140	6146	1
6144	6143	6149	1
6144	6145	6142	1
6144	6145	6150	1
6144	6151	6153	1
6145	6144	6151	1
6141	6142	6145	1
6145	6142	6152	1
6142	6145	6150	1
6142	6141	6148	1
6142	6152	6154	1
6141	6142	6152	1
6141	6140	6146	1
6169	6170	6171	1
6169	6170	6177	1
6169	6172	6173	1
6169	6172	6178	1
6169	6175	6176	1
6170	6171	6174	1
6170	6171	6181	1
6170	6169	6172	1
6170	6169	6175	1
6171	6170	6177	1
6171	6174	6173	1
6171	6174	6179	1
6171	6181	6183	1
6174	6171	6181	1
6172	6173	6174	1
6174	6173	6180	1
6173	6174	6179	1
6173	6172	6178	1
6173	6180	6182	1
6172	6173	6180	1
6172	6169	6175	1
6198	6199	6200	1
6198	6199	6206	1
6198	6201	6202	1
6198	6201	6207	1
6198	6204	6205	1
6199	6200	6203	1
6199	6200	6210	1
6199	6198	6201	1
6199	6198	6204	1
6200	6199	6206	1
6200	6203	6202	1
6200	6203	6208	1
6200	6210	6212	1
6203	6200	6210	1
6201	6202	6203	1
6203	6202	6209	1
6202	6203	6208	1
6202	6201	6207	1
6202	6209	6211	1
6201	6202	6209	1
6201	6198	6204	1
6227	6228	6229	1
6227	6228	6235	1
6227	6230	6231	1
6227	6230	6236	1
6227	6233	6234	1
6228	6229	6232	1
6228	6229	6239	1
6228	6227	6230	1
6228	6227	6233	1
6229	6228	6235	1
6229	6232	6231	1
6229	6232	6237	1
6229	6239	6241	1
6232	6229	6239	1
6230	6231	6232	1
6232	6231	6238	1
6231	6232	6237	1
6231	6230	6236	1
6231	6238	6240	1
6230	6231	6238	1
6230	6227	6233	1
6242	6245	6246	1
6242	6245	6251	1
6242	6243	6244	1
6242	6243	6250	1
6242	6248	6249	1
6245	6246	6247	1
6245	6246	6253	1
6243	6242	6245	1
6245	6242	6248	1
6246	6245	6251	1
6244	6247	6246	1
6246	6247	6252	1
6246	6253	6255	1
6247	6246	6253	1
6243	6244	6247	1
6247	6244	6254	1
6244	6247	6252	1
6244	6243	6250	1
6244	6254	6256	1
6243	6244	6254	1
6243	6242	6248	1
6271	6274	6275	1
6271	6274	6280	1
6271	6272	6273	1
6271	6272	6279	1
6271	6277	6278	1
6274	6275	6276	1
6274	6275	6282	1
6272	6271	6274	1
6274	6271	6277	1
6275	6274	6280	1
6273	6276	6275	1
6275	6276	6281	1
6275	6282	6284	1
6276	6275	6282	1
6272	6273	6276	1
6276	6273	6283	1
6273	6276	6281	1
6273	6272	6279	1
6273	6283	6285	1
6272	6273	6283	1
6272	6271	6277	1
6286	6289	6290	1
6286	6289	6295	1
6286	6287	6288	1
6286	6287	6294	1
6286	6292	6293	1
6289	6290	6291	1
6289	6290	6297	1
6287	6286	6289	1
6289	6286	6292	1
6290	6289	6295	1
6288	6291	6290	1
6290	6291	6296	1
6290	6297	6299	1
6291	6290	6297	1
6287	6288	6291	1
6291	6288	6298	1
6288	6291	6296	1
6288	6287	6294	1
6288	6298	6300	1
6287	6288	6298	1
6287	6286	6292	1
6315	6318	6319	1
6315	6318	6324	1
6315	6316	6317	1
6315	6316	6323	1
6315	6321	6322	1
6318	6319	6320	1
6318	6319	6326	1
6318	6315	6316	1
6318	6315	6321	1
6319	6318	6324	1
6319	6320	6317	1
6319	6320	6325	1
6319	6326	6328	1
6320	6319	6326	1
6316	6317	6320	1
6320	6317	6327	1
6317	6320	6325	1
6317	6316	6323	1
6317	6327	6329	1
6316	6317	6327	1
6316	6315	6321	1
6330	6333	6334	1
6330	6333	6339	1
6330	6331	6332	1
6330	6331	6338	1
6330	6336	6337	1
6333	6334	6335	1
6333	6334	6341	1
6333	6330	6331	1
6333	6330	6336	1
6334	6333	6339	1
6334	6335	6332	1
6334	6335	6340	1
6334	6341	6343	1
6335	6334	6341	1
6331	6332	6335	1
6335	6332	6342	1
6332	6335	6340	1
6332	6331	6338	1
6332	6342	6344	1
6331	6332	6342	1
6331	6330	6336	1
6345	6346	6347	1
6345	6346	6353	1
6345	6348	6349	1
6345	6348	6354	1
6345	6351	6352	1
6346	6347	6350	1
6346	6347	6357	1
6346	6345	6348	1
6346	6345	6351	1
6347	6346	6353	1
6347	6350	6349	1
6347	6350	6355	1
6347	6357	6359	1
6350	6347	6357	1
6348	6349	6350	1
6350	6349	6356	1
6349	6350	6355	1
6349	6348	6354	1
6349	6356	6358	1
6348	6349	6356	1
6348	6345	6351	1
6374	6375	6376	1
6374	6375	6382	1
6374	6377	6378	1
6374	6377	6383	1
6374	6380	6381	1
6375	6376	6379	1
6375	6376	6386	1
6375	6374	6377	1
6375	6374	6380	1
6376	6375	6382	1
6376	6379	6378	1
6376	6379	6384	1
6376	6386	6388	1
6379	6376	6386	1
6377	6378	6379	1
6379	6378	6385	1
6378	6379	6384	1
6378	6377	6383	1
6378	6385	6387	1
6377	6378	6385	1
6377	6374	6380	1
6403	6406	6407	1
6403	6406	6412	1
6403	6404	6405	1
6403	6404	6411	1
6403	6409	6410	1
6406	6407	6408	1
6406	6407	6414	1
6404	6403	6406	1
6406	6403	6409	1
6407	6406	6412	1
6405	6408	6407	1
6407	6408	6413	1
6407	6414	6416	1
6408	6407	6414	1
6404	6405	6408	1
6408	6405	6415	1
6405	6408	6413	1
6405	6404	6411	1
6405	6415	6417	1
6404	6405	6415	1
6404	6403	6409	1
6432	6435	6436	1
6432	6435	6441	1
6432	6433	6434	1
6432	6433	6440	1
6432	6438	6439	1
6435	6436	6437	1
6435	6436	6443	1
6433	6432	6435	1
6435	6432	6438	1
6436	6435	6441	1
6434	6437	6436	1
6436	6437	6442	1
6436	6443	6445	1
6437	6436	6443	1
6433	6434	6437	1
6437	6434	6444	1
6434	6437	6442	1
6434	6433	6440	1
6434	6444	6446	1
6433	6434	6444	1
6433	6432	6438	1
6461	6464	6465	1
6461	6464	6470	1
6461	6462	6463	1
6461	6462	6469	1
6461	6467	6468	1
6464	6465	6466	1
6464	6465	6472	1
6462	6461	6464	1
6464	6461	6467	1
6465	6464	6470	1
6463	6466	6465	1
6465	6466	6471	1
6465	6472	6474	1
6466	6465	6472	1
6462	6463	6466	1
6466	6463	6473	1
6463	6466	6471	1
6463	6462	6469	1
6463	6473	6475	1
6462	6463	6473	1
6462	6461	6467	1
6490	6491	6492	1
6492	6491	6498	1
6492	6495	6494	1
6492	6495	6500	1
6492	6502	6504	1
6491	6490	6493	1
6491	6490	6496	1
6491	6492	6495	1
6491	6492	6502	1
6490	6491	6498	1
6490	6493	6494	1
6490	6493	6499	1
6490	6496	6497	1
6493	6490	6496	1
6493	6494	6495	1
6493	6494	6501	1
6494	6493	6499	1
6494	6495	6500	1
6494	6501	6503	1
6495	6494	6501	1
6495	6492	6502	1
6519	6522	6523	1
6519	6522	6528	1
6519	6520	6521	1
6519	6520	6527	1
6519	6525	6526	1
6522	6523	6524	1
6522	6523	6530	1
6522	6519	6520	1
6522	6519	6525	1
6523	6522	6528	1
6523	6524	6521	1
6523	6524	6529	1
6523	6530	6532	1
6524	6523	6530	1
6520	6521	6524	1
6524	6521	6531	1
6521	6524	6529	1
6521	6520	6527	1
6521	6531	6533	1
6520	6521	6531	1
6520	6519	6525	1
1320	1321	1322	1
1322	1321	1328	1
1322	1325	1324	1
1322	1325	1330	1
1322	1332	1334	1
1322	1332	1335	1
1321	1320	1323	1
1321	1320	1326	1
1321	1322	1325	1
1321	1322	1332	1
1320	1321	1328	1
1320	1323	1324	1
1320	1323	1329	1
1320	1326	1327	1
1323	1320	1326	1
1323	1324	1325	1
1323	1324	1331	1
1324	1323	1329	1
1324	1325	1330	1
1324	1331	1333	1
1325	1324	1331	1
1325	1322	1332	1
1332	1335	1336	1
1334	1332	1335	1
1355	1356	1353	1
1355	1356	1361	1
1355	1354	1351	1
1355	1354	1360	1
1355	1362	1364	1
1356	1353	1352	1
1356	1353	1363	1
1356	1355	1354	1
1356	1355	1362	1
1353	1356	1361	1
1353	1352	1351	1
1353	1352	1359	1
1353	1363	1365	1
1353	1363	1366	1
1352	1353	1363	1
1354	1351	1352	1
1352	1351	1357	1
1351	1352	1359	1
1351	1354	1360	1
1351	1357	1358	1
1354	1351	1357	1
1354	1355	1362	1
1363	1366	1367	1
1365	1363	1366	1
6550	6549	6548	1
6550	6549	6556	1
6550	6553	6552	1
6550	6553	6558	1
6550	6560	6562	1
6549	6548	6551	1
6549	6548	6554	1
6553	6550	6549	1
6549	6550	6560	1
6548	6549	6556	1
6552	6551	6548	1
6548	6551	6557	1
6548	6554	6555	1
6551	6548	6554	1
6553	6552	6551	1
6551	6552	6559	1
6552	6551	6557	1
6552	6553	6558	1
6552	6559	6561	1
6553	6552	6559	1
6553	6550	6560	1
6563	6564	6565	1
6563	6564	6571	1
6563	6566	6567	1
6563	6566	6572	1
6563	6569	6570	1
6564	6565	6568	1
6564	6565	6575	1
6564	6563	6566	1
6564	6563	6569	1
6565	6564	6571	1
6565	6568	6567	1
6565	6568	6573	1
6565	6575	6577	1
6568	6565	6575	1
6566	6567	6568	1
6568	6567	6574	1
6567	6568	6573	1
6567	6566	6572	1
6567	6574	6576	1
6566	6567	6574	1
6566	6563	6569	1
6592	6593	6594	1
6592	6593	6600	1
6592	6595	6596	1
6592	6595	6601	1
6592	6598	6599	1
6593	6594	6597	1
6593	6594	6604	1
6593	6592	6595	1
6593	6592	6598	1
6594	6593	6600	1
6594	6597	6596	1
6594	6597	6602	1
6594	6604	6606	1
6597	6594	6604	1
6595	6596	6597	1
6597	6596	6603	1
6596	6597	6602	1
6596	6595	6601	1
6596	6603	6605	1
6595	6596	6603	1
6595	6592	6598	1
6621	6622	6623	1
6621	6622	6629	1
6621	6624	6625	1
6621	6624	6630	1
6621	6627	6628	1
6622	6623	6626	1
6622	6623	6633	1
6622	6621	6624	1
6622	6621	6627	1
6623	6622	6629	1
6623	6626	6625	1
6623	6626	6631	1
6623	6633	6635	1
6626	6623	6633	1
6624	6625	6626	1
6626	6625	6632	1
6625	6626	6631	1
6625	6624	6630	1
6625	6632	6634	1
6624	6625	6632	1
6624	6621	6627	1
6650	6651	6652	1
6650	6651	6658	1
6650	6653	6654	1
6650	6653	6659	1
6650	6656	6657	1
6651	6652	6655	1
6651	6652	6662	1
6651	6650	6653	1
6651	6650	6656	1
6652	6651	6658	1
6652	6655	6654	1
6652	6655	6660	1
6652	6662	6664	1
6655	6652	6662	1
6653	6654	6655	1
6655	6654	6661	1
6654	6655	6660	1
6654	6653	6659	1
6654	6661	6663	1
6653	6654	6661	1
6653	6650	6656	1
6679	6682	6683	1
6679	6682	6688	1
6679	6680	6681	1
6679	6680	6687	1
6679	6685	6686	1
6682	6683	6684	1
6682	6683	6690	1
6680	6679	6682	1
6682	6679	6685	1
6683	6682	6688	1
6681	6684	6683	1
6683	6684	6689	1
6683	6690	6692	1
6684	6683	6690	1
6680	6681	6684	1
6684	6681	6691	1
6681	6684	6689	1
6681	6680	6687	1
6681	6691	6693	1
6680	6681	6691	1
6680	6679	6685	1
6710	6713	6712	1
6712	6713	6718	1
6708	6711	6712	1
6712	6711	6717	1
6712	6719	6721	1
6709	6710	6713	1
6713	6710	6720	1
6711	6712	6713	1
6713	6712	6719	1
6710	6713	6718	1
6708	6709	6710	1
6710	6709	6716	1
6710	6720	6722	1
6709	6710	6720	1
6709	6708	6711	1
6709	6708	6714	1
6708	6709	6716	1
6708	6711	6717	1
6708	6714	6715	1
6711	6708	6714	1
6711	6712	6719	1
6723	6724	6725	1
6723	6724	6731	1
6723	6726	6727	1
6723	6726	6732	1
6723	6729	6730	1
6724	6725	6728	1
6724	6725	6735	1
6726	6723	6724	1
6724	6723	6729	1
6725	6724	6731	1
6727	6728	6725	1
6725	6728	6733	1
6725	6735	6737	1
6728	6725	6735	1
6726	6727	6728	1
6728	6727	6734	1
6727	6728	6733	1
6727	6726	6732	1
6727	6734	6736	1
6726	6727	6734	1
6726	6723	6729	1
6752	6753	6754	1
6752	6753	6760	1
6752	6755	6756	1
6752	6755	6761	1
6752	6758	6759	1
6753	6754	6757	1
6753	6754	6764	1
6755	6752	6753	1
6753	6752	6758	1
6754	6753	6760	1
6756	6757	6754	1
6754	6757	6762	1
6754	6764	6766	1
6757	6754	6764	1
6755	6756	6757	1
6757	6756	6763	1
6756	6757	6762	1
6756	6755	6761	1
6756	6763	6765	1
6755	6756	6763	1
6755	6752	6758	1
6781	6782	6783	1
6781	6782	6789	1
6781	6784	6785	1
6781	6784	6790	1
6781	6787	6788	1
6782	6783	6786	1
6782	6783	6793	1
6782	6781	6784	1
6782	6781	6787	1
6783	6782	6789	1
6783	6786	6785	1
6783	6786	6791	1
6783	6793	6795	1
6786	6783	6793	1
6784	6785	6786	1
6786	6785	6792	1
6785	6786	6791	1
6785	6784	6790	1
6785	6792	6794	1
6784	6785	6792	1
6784	6781	6787	1
6796	6797	6798	1
6796	6797	6804	1
6796	6799	6800	1
6796	6799	6805	1
6796	6802	6803	1
6797	6798	6801	1
6797	6798	6808	1
6797	6796	6799	1
6797	6796	6802	1
6798	6797	6804	1
6798	6801	6800	1
6798	6801	6806	1
6798	6808	6810	1
6801	6798	6808	1
6799	6800	6801	1
6801	6800	6807	1
6800	6801	6806	1
6800	6799	6805	1
6800	6807	6809	1
6799	6800	6807	1
6799	6796	6802	1
6825	6826	6827	1
6825	6826	6833	1
6825	6828	6829	1
6825	6828	6834	1
6825	6831	6832	1
6826	6827	6830	1
6826	6827	6837	1
6826	6825	6828	1
6826	6825	6831	1
6827	6826	6833	1
6827	6830	6829	1
6827	6830	6835	1
6827	6837	6839	1
6830	6827	6837	1
6828	6829	6830	1
6830	6829	6836	1
6829	6830	6835	1
6829	6828	6834	1
6829	6836	6838	1
6828	6829	6836	1
6828	6825	6831	1
6854	6855	6856	1
6854	6855	6862	1
6854	6857	6858	1
6854	6857	6863	1
6854	6860	6861	1
6855	6856	6859	1
6855	6856	6866	1
6855	6854	6857	1
6855	6854	6860	1
6856	6855	6862	1
6856	6859	6858	1
6856	6859	6864	1
6856	6866	6868	1
6859	6856	6866	1
6857	6858	6859	1
6859	6858	6865	1
6858	6859	6864	1
6858	6857	6863	1
6858	6865	6867	1
6857	6858	6865	1
6857	6854	6860	1
6883	6886	6887	1
6883	6886	6892	1
6883	6884	6885	1
6883	6884	6891	1
6883	6889	6890	1
6886	6887	6888	1
6886	6887	6894	1
6884	6883	6886	1
6886	6883	6889	1
6887	6886	6892	1
6885	6888	6887	1
6887	6888	6893	1
6887	6894	6896	1
6888	6887	6894	1
6884	6885	6888	1
6888	6885	6895	1
6885	6888	6893	1
6885	6884	6891	1
6885	6895	6897	1
6884	6885	6895	1
6884	6883	6889	1
1382	1383	1384	1
1382	1383	1390	1
1382	1385	1386	1
1382	1385	1391	1
1382	1388	1389	1
1383	1384	1387	1
1383	1384	1394	1
1383	1382	1385	1
1383	1382	1388	1
1384	1383	1390	1
1384	1387	1386	1
1384	1387	1392	1
1384	1394	1396	1
1384	1394	1397	1
1387	1384	1394	1
1385	1386	1387	1
1387	1386	1393	1
1386	1387	1392	1
1386	1385	1391	1
1386	1393	1395	1
1385	1386	1393	1
1385	1382	1388	1
1394	1397	1398	1
1396	1394	1397	1
1413	1416	1417	1
1413	1416	1422	1
1413	1414	1415	1
1413	1414	1421	1
1413	1419	1420	1
1416	1417	1418	1
1416	1417	1424	1
1414	1413	1416	1
1416	1413	1419	1
1417	1416	1422	1
1415	1418	1417	1
1417	1418	1423	1
1417	1424	1426	1
1418	1417	1424	1
1414	1415	1418	1
1418	1415	1425	1
1415	1418	1423	1
1415	1414	1421	1
1415	1425	1427	1
1415	1425	1428	1
1414	1415	1425	1
1414	1413	1419	1
1425	1428	1429	1
1427	1425	1428	1
6912	6913	6914	1
6912	6913	6920	1
6912	6915	6916	1
6912	6915	6921	1
6912	6918	6919	1
6913	6914	6917	1
6913	6914	6924	1
6913	6912	6915	1
6913	6912	6918	1
6914	6913	6920	1
6914	6917	6916	1
6914	6917	6922	1
6914	6924	6926	1
6917	6914	6924	1
6915	6916	6917	1
6917	6916	6923	1
6916	6917	6922	1
6916	6915	6921	1
6916	6923	6925	1
6915	6916	6923	1
6915	6912	6918	1
6927	6928	6929	1
6927	6928	6935	1
6927	6930	6931	1
6927	6930	6936	1
6927	6933	6934	1
6928	6929	6932	1
6928	6929	6939	1
6930	6927	6928	1
6928	6927	6933	1
6929	6928	6935	1
6931	6932	6929	1
6929	6932	6937	1
6929	6939	6941	1
6932	6929	6939	1
6930	6931	6932	1
6932	6931	6938	1
6931	6932	6937	1
6931	6930	6936	1
6931	6938	6940	1
6930	6931	6938	1
6930	6927	6933	1
6956	6957	6958	1
6956	6957	6964	1
6956	6959	6960	1
6956	6959	6965	1
6956	6962	6963	1
6957	6958	6961	1
6957	6958	6968	1
6959	6956	6957	1
6957	6956	6962	1
6958	6957	6964	1
6960	6961	6958	1
6958	6961	6966	1
6958	6968	6970	1
6961	6958	6968	1
6959	6960	6961	1
6961	6960	6967	1
6960	6961	6966	1
6960	6959	6965	1
6960	6967	6969	1
6959	6960	6967	1
6959	6956	6962	1
6989	6988	6985	1
6989	6988	6994	1
6989	6990	6987	1
6989	6990	6995	1
6989	6996	6998	1
6988	6985	6986	1
6988	6985	6991	1
6990	6989	6988	1
6988	6989	6996	1
6985	6988	6994	1
6987	6986	6985	1
6985	6986	6993	1
6985	6991	6992	1
6986	6985	6991	1
6990	6987	6986	1
6986	6987	6997	1
6987	6986	6993	1
6987	6990	6995	1
6987	6997	6999	1
6990	6987	6997	1
6990	6989	6996	1
1444	1447	1448	1
1444	1447	1453	1
1444	1445	1446	1
1444	1445	1452	1
1444	1450	1451	1
1447	1448	1449	1
1447	1448	1455	1
1445	1444	1447	1
1447	1444	1450	1
1448	1447	1453	1
1446	1449	1448	1
1448	1449	1454	1
1448	1455	1457	1
1449	1448	1455	1
1445	1446	1449	1
1449	1446	1456	1
1446	1449	1454	1
1446	1445	1452	1
1446	1456	1458	1
1446	1456	1459	1
1445	1446	1456	1
1445	1444	1450	1
1456	1459	1460	1
1458	1456	1459	1
7000	7003	7004	1
7000	7003	7009	1
7000	7001	7002	1
7000	7001	7008	1
7000	7006	7007	1
7003	7004	7005	1
7003	7004	7011	1
7001	7000	7003	1
7003	7000	7006	1
7004	7003	7009	1
7002	7005	7004	1
7004	7005	7010	1
7004	7011	7013	1
7005	7004	7011	1
7001	7002	7005	1
7005	7002	7012	1
7002	7005	7010	1
7002	7001	7008	1
7002	7012	7014	1
7001	7002	7012	1
7001	7000	7006	1
1475	1476	1477	1
1477	1476	1483	1
1477	1480	1479	1
1477	1480	1485	1
1477	1487	1489	1
1477	1487	1490	1
1476	1475	1478	1
1476	1475	1481	1
1476	1477	1480	1
1476	1477	1487	1
1475	1476	1483	1
1475	1478	1479	1
1475	1478	1484	1
1475	1481	1482	1
1478	1475	1481	1
1478	1479	1480	1
1478	1479	1486	1
1479	1478	1484	1
1479	1480	1485	1
1479	1486	1488	1
1480	1479	1486	1
1480	1477	1487	1
1487	1490	1491	1
1489	1487	1490	1
7029	7032	7033	1
7029	7032	7038	1
7029	7030	7031	1
7029	7030	7037	1
7029	7035	7036	1
7032	7033	7034	1
7032	7033	7040	1
7030	7029	7032	1
7032	7029	7035	1
7033	7032	7038	1
7031	7034	7033	1
7033	7034	7039	1
7033	7040	7042	1
7034	7033	7040	1
7030	7031	7034	1
7034	7031	7041	1
7031	7034	7039	1
7031	7030	7037	1
7031	7041	7043	1
7030	7031	7041	1
7030	7029	7035	1
7044	7045	7046	1
7046	7045	7052	1
7046	7049	7048	1
7046	7049	7054	1
7046	7056	7058	1
7045	7044	7047	1
7045	7044	7050	1
7045	7046	7049	1
7045	7046	7056	1
7044	7045	7052	1
7044	7047	7048	1
7044	7047	7053	1
7044	7050	7051	1
7047	7044	7050	1
7047	7048	7049	1
7047	7048	7055	1
7048	7047	7053	1
7048	7049	7054	1
7048	7055	7057	1
7049	7048	7055	1
7049	7046	7056	1
7073	7074	7075	1
7073	7074	7081	1
7073	7076	7077	1
7073	7076	7082	1
7073	7079	7080	1
7074	7075	7078	1
7074	7075	7085	1
7074	7073	7076	1
7074	7073	7079	1
7075	7074	7081	1
7075	7078	7077	1
7075	7078	7083	1
7075	7085	7087	1
7078	7075	7085	1
7076	7077	7078	1
7078	7077	7084	1
7077	7078	7083	1
7077	7076	7082	1
7077	7084	7086	1
7076	7077	7084	1
7076	7073	7079	1
7102	7103	7104	1
7102	7103	7110	1
7102	7105	7106	1
7102	7105	7111	1
7102	7108	7109	1
7103	7104	7107	1
7103	7104	7114	1
7103	7102	7105	1
7103	7102	7108	1
7104	7103	7110	1
7104	7107	7106	1
7104	7107	7112	1
7104	7114	7116	1
7107	7104	7114	1
7105	7106	7107	1
7107	7106	7113	1
7106	7107	7112	1
7106	7105	7111	1
7106	7113	7115	1
7105	7106	7113	1
7105	7102	7108	1
7131	7134	7135	1
7131	7134	7140	1
7131	7132	7133	1
7131	7132	7139	1
7131	7137	7138	1
7134	7135	7136	1
7134	7135	7142	1
7134	7131	7132	1
7134	7131	7137	1
7135	7134	7140	1
7135	7136	7133	1
7135	7136	7141	1
7135	7142	7144	1
7136	7135	7142	1
7132	7133	7136	1
7136	7133	7143	1
7133	7136	7141	1
7133	7132	7139	1
7133	7143	7145	1
7132	7133	7143	1
7132	7131	7137	1
7160	7163	7164	1
7160	7163	7169	1
7160	7161	7162	1
7160	7161	7168	1
7160	7166	7167	1
7163	7164	7165	1
7163	7164	7171	1
7163	7160	7161	1
7163	7160	7166	1
7164	7163	7169	1
7164	7165	7162	1
7164	7165	7170	1
7164	7171	7173	1
7165	7164	7171	1
7161	7162	7165	1
7165	7162	7172	1
7162	7165	7170	1
7162	7161	7168	1
7162	7172	7174	1
7161	7162	7172	1
7161	7160	7166	1
1506	1507	1508	1
1506	1507	1514	1
1506	1509	1510	1
1506	1509	1515	1
1506	1512	1513	1
1507	1508	1511	1
1507	1508	1518	1
1507	1506	1509	1
1507	1506	1512	1
1508	1507	1514	1
1508	1511	1510	1
1508	1511	1516	1
1508	1518	1520	1
1508	1518	1521	1
1511	1508	1518	1
1509	1510	1511	1
1511	1510	1517	1
1510	1511	1516	1
1510	1509	1515	1
1510	1517	1519	1
1509	1510	1517	1
1509	1506	1512	1
1518	1521	1522	1
1520	1518	1521	1
7193	7194	7191	1
7193	7194	7199	1
7193	7192	7189	1
7193	7192	7198	1
7193	7200	7202	1
7194	7191	7190	1
7194	7191	7201	1
7194	7193	7192	1
7194	7193	7200	1
7191	7194	7199	1
7191	7190	7189	1
7191	7190	7197	1
7191	7201	7203	1
7190	7191	7201	1
7192	7189	7190	1
7190	7189	7195	1
7189	7190	7197	1
7189	7192	7198	1
7189	7195	7196	1
7192	7189	7195	1
7192	7193	7200	1
7218	7221	7222	1
7222	7221	7227	1
7220	7223	7222	1
7222	7223	7228	1
7222	7229	7231	1
7219	7218	7221	1
7221	7218	7224	1
7221	7222	7223	1
7221	7222	7229	1
7218	7221	7227	1
7218	7219	7220	1
7218	7219	7226	1
7218	7224	7225	1
7219	7218	7224	1
7219	7220	7223	1
7219	7220	7230	1
7220	7219	7226	1
7220	7223	7228	1
7220	7230	7232	1
7223	7220	7230	1
7223	7222	7229	1
74	75	70	1
74	75	84	1
74	73	72	1
74	73	83	1
74	76	77	1
75	70	71	1
75	70	68	1
73	74	75	1
75	74	76	1
70	75	84	1
72	71	70	1
70	71	82	1
70	68	69	1
70	68	67	1
71	70	68	1
73	72	71	1
71	72	78	1
72	71	82	1
72	73	83	1
72	78	79	1
72	78	80	1
73	72	78	1
73	74	76	1
68	67	81	1
79	78	80	1
69	68	67	1
7233	7234	7235	1
7233	7234	7241	1
7233	7236	7237	1
7233	7236	7242	1
7233	7239	7240	1
7234	7235	7238	1
7234	7235	7245	1
7234	7233	7236	1
7234	7233	7239	1
7235	7234	7241	1
7235	7238	7237	1
7235	7238	7243	1
7235	7245	7247	1
7238	7235	7245	1
7236	7237	7238	1
7238	7237	7244	1
7237	7238	7243	1
7237	7236	7242	1
7237	7244	7246	1
7236	7237	7244	1
7236	7233	7239	1
7262	7263	7264	1
7262	7263	7270	1
7262	7265	7266	1
7262	7265	7271	1
7262	7268	7269	1
7263	7264	7267	1
7263	7264	7274	1
7263	7262	7265	1
7263	7262	7268	1
7264	7263	7270	1
7264	7267	7266	1
7264	7267	7272	1
7264	7274	7276	1
7267	7264	7274	1
7265	7266	7267	1
7267	7266	7273	1
7266	7267	7272	1
7266	7265	7271	1
7266	7273	7275	1
7265	7266	7273	1
7265	7262	7268	1
7291	7294	7295	1
7291	7294	7300	1
7291	7292	7293	1
7291	7292	7299	1
7291	7297	7298	1
7294	7295	7296	1
7294	7295	7302	1
7292	7291	7294	1
7294	7291	7297	1
7295	7294	7300	1
7293	7296	7295	1
7295	7296	7301	1
7295	7302	7304	1
7296	7295	7302	1
7292	7293	7296	1
7296	7293	7303	1
7293	7296	7301	1
7293	7292	7299	1
7293	7303	7305	1
7292	7293	7303	1
7292	7291	7297	1
7320	7323	7324	1
7320	7323	7329	1
7320	7321	7322	1
7320	7321	7328	1
7320	7326	7327	1
7323	7324	7325	1
7323	7324	7331	1
7321	7320	7323	1
7323	7320	7326	1
7324	7323	7329	1
7322	7325	7324	1
7324	7325	7330	1
7324	7331	7333	1
7325	7324	7331	1
7321	7322	7325	1
7325	7322	7332	1
7322	7325	7330	1
7322	7321	7328	1
7322	7332	7334	1
7321	7322	7332	1
7321	7320	7326	1
7349	7350	7351	1
7349	7350	7357	1
7349	7352	7353	1
7349	7352	7358	1
7349	7355	7356	1
7350	7351	7354	1
7350	7351	7361	1
7352	7349	7350	1
7350	7349	7355	1
7351	7350	7357	1
7353	7354	7351	1
7351	7354	7359	1
7351	7361	7363	1
7354	7351	7361	1
7352	7353	7354	1
7354	7353	7360	1
7353	7354	7359	1
7353	7352	7358	1
7353	7360	7362	1
7352	7353	7360	1
7352	7349	7355	1
1537	1538	1539	1
1539	1538	1545	1
1539	1542	1541	1
1539	1542	1547	1
1539	1549	1551	1
1539	1549	1552	1
1538	1537	1540	1
1538	1537	1543	1
1538	1539	1542	1
1538	1539	1549	1
1537	1538	1545	1
1537	1540	1541	1
1537	1540	1546	1
1537	1543	1544	1
1540	1537	1543	1
1540	1541	1542	1
1540	1541	1548	1
1541	1540	1546	1
1541	1542	1547	1
1541	1548	1550	1
1542	1541	1548	1
1542	1539	1549	1
1549	1552	1553	1
1551	1549	1552	1
1568	1571	1572	1
1568	1571	1577	1
1568	1569	1570	1
1568	1569	1576	1
1568	1574	1575	1
1571	1572	1573	1
1571	1572	1579	1
1569	1568	1571	1
1571	1568	1574	1
1572	1571	1577	1
1570	1573	1572	1
1572	1573	1578	1
1572	1579	1581	1
1573	1572	1579	1
1569	1570	1573	1
1573	1570	1580	1
1570	1573	1578	1
1570	1569	1576	1
1570	1580	1582	1
1570	1580	1583	1
1569	1570	1580	1
1569	1568	1574	1
1580	1583	1584	1
1582	1580	1583	1
7378	7379	7380	1
7378	7379	7386	1
7378	7381	7382	1
7378	7381	7387	1
7378	7384	7385	1
7379	7380	7383	1
7379	7380	7390	1
7381	7378	7379	1
7379	7378	7384	1
7380	7379	7386	1
7382	7383	7380	1
7380	7383	7388	1
7380	7390	7392	1
7383	7380	7390	1
7381	7382	7383	1
7383	7382	7389	1
7382	7383	7388	1
7382	7381	7387	1
7382	7389	7391	1
7381	7382	7389	1
7381	7378	7384	1
1599	1600	1601	1
1599	1600	1607	1
1599	1602	1603	1
1599	1602	1608	1
1599	1605	1606	1
1600	1601	1604	1
1600	1601	1611	1
1600	1599	1602	1
1600	1599	1605	1
1601	1600	1607	1
1601	1604	1603	1
1601	1604	1609	1
1601	1611	1613	1
1601	1611	1614	1
1604	1601	1611	1
1602	1603	1604	1
1604	1603	1610	1
1603	1604	1609	1
1603	1602	1608	1
1603	1610	1612	1
1602	1603	1610	1
1602	1599	1605	1
1611	1614	1615	1
1613	1611	1614	1
1630	1631	1632	1
1632	1631	1638	1
1632	1635	1634	1
1632	1635	1640	1
1632	1642	1644	1
1632	1642	1645	1
1631	1630	1633	1
1631	1630	1636	1
1631	1632	1635	1
1631	1632	1642	1
1630	1631	1638	1
1630	1633	1634	1
1630	1633	1639	1
1630	1636	1637	1
1633	1630	1636	1
1633	1634	1635	1
1633	1634	1641	1
1634	1633	1639	1
1634	1635	1640	1
1634	1641	1643	1
1635	1634	1641	1
1635	1632	1642	1
1642	1645	1646	1
1644	1642	1645	1
7393	7396	7397	1
7393	7396	7402	1
7393	7394	7395	1
7393	7394	7401	1
7393	7399	7400	1
7396	7397	7398	1
7396	7397	7404	1
7394	7393	7396	1
7396	7393	7399	1
7397	7396	7402	1
7395	7398	7397	1
7397	7398	7403	1
7397	7404	7406	1
7398	7397	7404	1
7394	7395	7398	1
7398	7395	7405	1
7395	7398	7403	1
7395	7394	7401	1
7395	7405	7407	1
7394	7395	7405	1
7394	7393	7399	1
106	105	104	1
104	105	115	1
104	103	102	1
104	103	114	1
104	110	111	1
104	110	112	1
105	106	107	1
105	106	108	1
105	104	103	1
105	104	110	1
106	105	115	1
106	107	102	1
106	107	116	1
106	108	109	1
107	106	108	1
107	102	103	1
107	102	100	1
102	107	116	1
102	103	114	1
102	100	101	1
102	100	99	1
103	102	100	1
103	104	110	1
100	99	113	1
101	100	99	1
111	110	112	1
7408	7411	7412	1
7408	7411	7417	1
7408	7409	7410	1
7408	7409	7416	1
7408	7414	7415	1
7411	7412	7413	1
7411	7412	7419	1
7409	7408	7411	1
7411	7408	7414	1
7412	7411	7417	1
7410	7413	7412	1
7412	7413	7418	1
7412	7419	7421	1
7413	7412	7419	1
7409	7410	7413	1
7413	7410	7420	1
7410	7413	7418	1
7410	7409	7416	1
7410	7420	7422	1
7409	7410	7420	1
7409	7408	7414	1
7437	7440	7441	1
7437	7440	7446	1
7437	7438	7439	1
7437	7438	7445	1
7437	7443	7444	1
7440	7441	7442	1
7440	7441	7448	1
7438	7437	7440	1
7440	7437	7443	1
7441	7440	7446	1
7439	7442	7441	1
7441	7442	7447	1
7441	7448	7450	1
7442	7441	7448	1
7438	7439	7442	1
7442	7439	7449	1
7439	7442	7447	1
7439	7438	7445	1
7439	7449	7451	1
7438	7439	7449	1
7438	7437	7443	1
7466	7469	7470	1
7466	7469	7475	1
7466	7467	7468	1
7466	7467	7474	1
7466	7472	7473	1
7469	7470	7471	1
7469	7470	7477	1
7467	7466	7469	1
7469	7466	7472	1
7470	7469	7475	1
7468	7471	7470	1
7470	7471	7476	1
7470	7477	7479	1
7471	7470	7477	1
7467	7468	7471	1
7471	7468	7478	1
7468	7471	7476	1
7468	7467	7474	1
7468	7478	7480	1
7467	7468	7478	1
7467	7466	7472	1
7495	7498	7499	1
7495	7498	7504	1
7495	7496	7497	1
7495	7496	7503	1
7495	7501	7502	1
7498	7499	7500	1
7498	7499	7506	1
7496	7495	7498	1
7498	7495	7501	1
7499	7498	7504	1
7497	7500	7499	1
7499	7500	7505	1
7499	7506	7508	1
7500	7499	7506	1
7496	7497	7500	1
7500	7497	7507	1
7497	7500	7505	1
7497	7496	7503	1
7497	7507	7509	1
7496	7497	7507	1
7496	7495	7501	1
7510	7511	7512	1
7510	7511	7518	1
7510	7513	7514	1
7510	7513	7519	1
7510	7516	7517	1
7511	7512	7515	1
7511	7512	7522	1
7511	7510	7513	1
7511	7510	7516	1
7512	7511	7518	1
7512	7515	7514	1
7512	7515	7520	1
7512	7522	7524	1
7515	7512	7522	1
7513	7514	7515	1
7515	7514	7521	1
7514	7515	7520	1
7514	7513	7519	1
7514	7521	7523	1
7513	7514	7521	1
7513	7510	7516	1
7539	7542	7543	1
7539	7542	7548	1
7539	7540	7541	1
7539	7540	7547	1
7539	7545	7546	1
7542	7543	7544	1
7542	7543	7550	1
7542	7539	7540	1
7542	7539	7545	1
7543	7542	7548	1
7543	7544	7541	1
7543	7544	7549	1
7543	7550	7552	1
7544	7543	7550	1
7540	7541	7544	1
7544	7541	7551	1
7541	7544	7549	1
7541	7540	7547	1
7541	7551	7553	1
7540	7541	7551	1
7540	7539	7545	1
1661	1664	1665	1
1661	1664	1670	1
1661	1662	1663	1
1661	1662	1669	1
1661	1667	1668	1
1664	1665	1666	1
1664	1665	1672	1
1662	1661	1664	1
1664	1661	1667	1
1665	1664	1670	1
1663	1666	1665	1
1665	1666	1671	1
1665	1672	1674	1
1666	1665	1672	1
1662	1663	1666	1
1666	1663	1673	1
1663	1666	1671	1
1663	1662	1669	1
1663	1673	1675	1
1663	1673	1676	1
1662	1663	1673	1
1662	1661	1667	1
1673	1676	1677	1
1675	1673	1676	1
7568	7571	7572	1
7568	7571	7577	1
7568	7569	7570	1
7568	7569	7576	1
7568	7574	7575	1
7571	7572	7573	1
7571	7572	7579	1
7571	7568	7569	1
7571	7568	7574	1
7572	7571	7577	1
7572	7573	7570	1
7572	7573	7578	1
7572	7579	7581	1
7573	7572	7579	1
7569	7570	7573	1
7573	7570	7580	1
7570	7573	7578	1
7570	7569	7576	1
7570	7580	7582	1
7569	7570	7580	1
7569	7568	7574	1
7583	7584	7585	1
7583	7584	7591	1
7583	7586	7587	1
7583	7586	7592	1
7583	7589	7590	1
7584	7585	7588	1
7584	7585	7595	1
7584	7583	7586	1
7584	7583	7589	1
7585	7584	7591	1
7585	7588	7587	1
7585	7588	7593	1
7585	7595	7597	1
7588	7585	7595	1
7586	7587	7588	1
7588	7587	7594	1
7587	7588	7593	1
7587	7586	7592	1
7587	7594	7596	1
7586	7587	7594	1
7586	7583	7589	1
7616	7617	7614	1
7616	7617	7622	1
7616	7615	7612	1
7616	7615	7621	1
7616	7623	7625	1
7617	7614	7613	1
7617	7614	7624	1
7617	7616	7615	1
7617	7616	7623	1
7614	7617	7622	1
7614	7613	7612	1
7614	7613	7620	1
7614	7624	7626	1
7613	7614	7624	1
7615	7612	7613	1
7613	7612	7618	1
7612	7613	7620	1
7612	7615	7621	1
7612	7618	7619	1
7615	7612	7618	1
7615	7616	7623	1
7641	7644	7645	1
7641	7644	7650	1
7641	7642	7643	1
7641	7642	7649	1
7641	7647	7648	1
7644	7645	7646	1
7644	7645	7652	1
7642	7641	7644	1
7644	7641	7647	1
7645	7644	7650	1
7643	7646	7645	1
7645	7646	7651	1
7645	7652	7654	1
7646	7645	7652	1
7642	7643	7646	1
7646	7643	7653	1
7643	7646	7651	1
7643	7642	7649	1
7643	7653	7655	1
7642	7643	7653	1
7642	7641	7647	1
1692	1695	1696	1
1692	1695	1701	1
1692	1693	1694	1
1692	1693	1700	1
1692	1698	1699	1
1695	1696	1697	1
1695	1696	1703	1
1693	1692	1695	1
1695	1692	1698	1
1696	1695	1701	1
1694	1697	1696	1
1696	1697	1702	1
1696	1703	1705	1
1697	1696	1703	1
1693	1694	1697	1
1697	1694	1704	1
1694	1697	1702	1
1694	1693	1700	1
1694	1704	1706	1
1694	1704	1707	1
1693	1694	1704	1
1693	1692	1698	1
1704	1707	1708	1
1706	1704	1707	1
7656	7659	7660	1
7656	7659	7665	1
7656	7657	7658	1
7656	7657	7664	1
7656	7662	7663	1
7659	7660	7661	1
7659	7660	7667	1
7657	7656	7659	1
7659	7656	7662	1
7660	7659	7665	1
7658	7661	7660	1
7660	7661	7666	1
7660	7667	7669	1
7661	7660	7667	1
7657	7658	7661	1
7661	7658	7668	1
7658	7661	7666	1
7658	7657	7664	1
7658	7668	7670	1
7657	7658	7668	1
7657	7656	7662	1
7685	7688	7689	1
7685	7688	7694	1
7685	7686	7687	1
7685	7686	7693	1
7685	7691	7692	1
7688	7689	7690	1
7688	7689	7696	1
7686	7685	7688	1
7688	7685	7691	1
7689	7688	7694	1
7687	7690	7689	1
7689	7690	7695	1
7689	7696	7698	1
7690	7689	7696	1
7686	7687	7690	1
7690	7687	7697	1
7687	7690	7695	1
7687	7686	7693	1
7687	7697	7699	1
7686	7687	7697	1
7686	7685	7691	1
7714	7717	7718	1
7714	7717	7723	1
7714	7715	7716	1
7714	7715	7722	1
7714	7720	7721	1
7717	7718	7719	1
7717	7718	7725	1
7715	7714	7717	1
7717	7714	7720	1
7718	7717	7723	1
7716	7719	7718	1
7718	7719	7724	1
7718	7725	7727	1
7719	7718	7725	1
7715	7716	7719	1
7719	7716	7726	1
7716	7719	7724	1
7716	7715	7722	1
7716	7726	7728	1
7715	7716	7726	1
7715	7714	7720	1
1723	1724	1725	1
1723	1724	1731	1
1723	1726	1727	1
1723	1726	1732	1
1723	1729	1730	1
1724	1725	1728	1
1724	1725	1735	1
1724	1723	1726	1
1724	1723	1729	1
1725	1724	1731	1
1725	1728	1727	1
1725	1728	1733	1
1725	1735	1737	1
1725	1735	1738	1
1728	1725	1735	1
1726	1727	1728	1
1728	1727	1734	1
1727	1728	1733	1
1727	1726	1732	1
1727	1734	1736	1
1726	1727	1734	1
1726	1723	1729	1
1735	1738	1739	1
1737	1735	1738	1
7747	7748	7745	1
7747	7748	7753	1
7743	7746	7747	1
7747	7746	7752	1
7747	7754	7756	1
7744	7745	7748	1
7748	7745	7755	1
7746	7747	7748	1
7748	7747	7754	1
7745	7748	7753	1
7743	7744	7745	1
7745	7744	7751	1
7745	7755	7757	1
7744	7745	7755	1
7746	7743	7744	1
7744	7743	7749	1
7743	7744	7751	1
7743	7746	7752	1
7743	7749	7750	1
7746	7743	7749	1
7746	7747	7754	1
7772	7773	7774	1
7772	7773	7780	1
7772	7775	7776	1
7772	7775	7781	1
7772	7778	7779	1
7773	7774	7777	1
7773	7774	7784	1
7775	7772	7773	1
7773	7772	7778	1
7774	7773	7780	1
7776	7777	7774	1
7774	7777	7782	1
7774	7784	7786	1
7777	7774	7784	1
7775	7776	7777	1
7777	7776	7783	1
7776	7777	7782	1
7776	7775	7781	1
7776	7783	7785	1
7775	7776	7783	1
7775	7772	7778	1
7801	7802	7803	1
7801	7802	7809	1
7801	7804	7805	1
7801	7804	7810	1
7801	7807	7808	1
7802	7803	7806	1
7802	7803	7813	1
7802	7801	7804	1
7802	7801	7807	1
7803	7802	7809	1
7803	7806	7805	1
7803	7806	7811	1
7803	7813	7815	1
7806	7803	7813	1
7804	7805	7806	1
7806	7805	7812	1
7805	7806	7811	1
7805	7804	7810	1
7805	7812	7814	1
7804	7805	7812	1
7804	7801	7807	1
1754	1755	1756	1
1754	1755	1762	1
1754	1757	1758	1
1754	1757	1763	1
1754	1760	1761	1
1755	1756	1759	1
1755	1756	1766	1
1755	1754	1757	1
1755	1754	1760	1
1756	1755	1762	1
1756	1759	1758	1
1756	1759	1764	1
1756	1766	1768	1
1756	1766	1769	1
1759	1756	1766	1
1757	1758	1759	1
1759	1758	1765	1
1758	1759	1764	1
1758	1757	1763	1
1758	1765	1767	1
1757	1758	1765	1
1757	1754	1760	1
1766	1769	1770	1
1768	1766	1769	1
7830	7831	7832	1
7830	7831	7838	1
7830	7833	7834	1
7830	7833	7839	1
7830	7836	7837	1
7831	7832	7835	1
7831	7832	7842	1
7831	7830	7833	1
7831	7830	7836	1
7832	7831	7838	1
7832	7835	7834	1
7832	7835	7840	1
7832	7842	7844	1
7835	7832	7842	1
7833	7834	7835	1
7835	7834	7841	1
7834	7835	7840	1
7834	7833	7839	1
7834	7841	7843	1
7833	7834	7841	1
7833	7830	7836	1
7859	7860	7861	1
7859	7860	7867	1
7859	7862	7863	1
7859	7862	7868	1
7859	7865	7866	1
7860	7861	7864	1
7860	7861	7871	1
7860	7859	7862	1
7860	7859	7865	1
7861	7860	7867	1
7861	7864	7863	1
7861	7864	7869	1
7861	7871	7873	1
7864	7861	7871	1
7862	7863	7864	1
7864	7863	7870	1
7863	7864	7869	1
7863	7862	7868	1
7863	7870	7872	1
7862	7863	7870	1
7862	7859	7865	1
7888	7889	7890	1
7888	7889	7896	1
7888	7891	7892	1
7888	7891	7897	1
7888	7894	7895	1
7889	7890	7893	1
7889	7890	7900	1
7889	7888	7891	1
7889	7888	7894	1
7890	7889	7896	1
7890	7893	7892	1
7890	7893	7898	1
7890	7900	7902	1
7893	7890	7900	1
7891	7892	7893	1
7893	7892	7899	1
7892	7893	7898	1
7892	7891	7897	1
7892	7899	7901	1
7891	7892	7899	1
7891	7888	7894	1
7917	7918	7919	1
7917	7918	7925	1
7917	7920	7921	1
7917	7920	7926	1
7917	7923	7924	1
7918	7919	7922	1
7918	7919	7929	1
7918	7917	7920	1
7918	7917	7923	1
7919	7918	7925	1
7919	7922	7921	1
7919	7922	7927	1
7919	7929	7931	1
7922	7919	7929	1
7920	7921	7922	1
7922	7921	7928	1
7921	7922	7927	1
7921	7920	7926	1
7921	7928	7930	1
7920	7921	7928	1
7920	7917	7923	1
7946	7949	7950	1
7946	7949	7955	1
7946	7947	7948	1
7946	7947	7954	1
7946	7952	7953	1
7949	7950	7951	1
7949	7950	7957	1
7947	7946	7949	1
7949	7946	7952	1
7950	7949	7955	1
7948	7951	7950	1
7950	7951	7956	1
7950	7957	7959	1
7951	7950	7957	1
7947	7948	7951	1
7951	7948	7958	1
7948	7951	7956	1
7948	7947	7954	1
7948	7958	7960	1
7947	7948	7958	1
7947	7946	7952	1
1785	1786	1787	1
1785	1786	1793	1
1785	1788	1789	1
1785	1788	1794	1
1785	1791	1792	1
1786	1787	1790	1
1786	1787	1797	1
1786	1785	1788	1
1786	1785	1791	1
1787	1786	1793	1
1787	1790	1789	1
1787	1790	1795	1
1787	1797	1799	1
1787	1797	1800	1
1790	1787	1797	1
1788	1789	1790	1
1790	1789	1796	1
1789	1790	1795	1
1789	1788	1794	1
1789	1796	1798	1
1788	1789	1796	1
1788	1785	1791	1
1797	1800	1801	1
1799	1797	1800	1
7961	7962	7963	1
7961	7962	7969	1
7961	7964	7965	1
7961	7964	7970	1
7961	7967	7968	1
7962	7963	7966	1
7962	7963	7973	1
7964	7961	7962	1
7962	7961	7967	1
7963	7962	7969	1
7965	7966	7963	1
7963	7966	7971	1
7963	7973	7975	1
7966	7963	7973	1
7964	7965	7966	1
7966	7965	7972	1
7965	7966	7971	1
7965	7964	7970	1
7965	7972	7974	1
7964	7965	7972	1
7964	7961	7967	1
7990	7991	7992	1
7990	7991	7998	1
7990	7993	7994	1
7990	7993	7999	1
7990	7996	7997	1
7991	7992	7995	1
7991	7992	8002	1
7993	7990	7991	1
7991	7990	7996	1
7992	7991	7998	1
7994	7995	7992	1
7992	7995	8000	1
7992	8002	8004	1
7995	7992	8002	1
7993	7994	7995	1
7995	7994	8001	1
7994	7995	8000	1
7994	7993	7999	1
7994	8001	8003	1
7993	7994	8001	1
7993	7990	7996	1
8019	8022	8023	1
8019	8022	8028	1
8019	8020	8021	1
8019	8020	8027	1
8019	8025	8026	1
8022	8023	8024	1
8022	8023	8030	1
8020	8019	8022	1
8022	8019	8025	1
8023	8022	8028	1
8021	8024	8023	1
8023	8024	8029	1
8023	8030	8032	1
8024	8023	8030	1
8020	8021	8024	1
8024	8021	8031	1
8021	8024	8029	1
8021	8020	8027	1
8021	8031	8033	1
8020	8021	8031	1
8020	8019	8025	1
8034	8037	8038	1
8034	8037	8043	1
8034	8035	8036	1
8034	8035	8042	1
8034	8040	8041	1
8037	8038	8039	1
8037	8038	8045	1
8035	8034	8037	1
8037	8034	8040	1
8038	8037	8043	1
8036	8039	8038	1
8038	8039	8044	1
8038	8045	8047	1
8039	8038	8045	1
8035	8036	8039	1
8039	8036	8046	1
8036	8039	8044	1
8036	8035	8042	1
8036	8046	8048	1
8035	8036	8046	1
8035	8034	8040	1
8063	8064	8065	1
8063	8064	8071	1
8063	8066	8067	1
8063	8066	8072	1
8063	8069	8070	1
8064	8065	8068	1
8064	8065	8075	1
8064	8063	8066	1
8064	8063	8069	1
8065	8064	8071	1
8065	8068	8067	1
8065	8068	8073	1
8065	8075	8077	1
8068	8065	8075	1
8066	8067	8068	1
8068	8067	8074	1
8067	8068	8073	1
8067	8066	8072	1
8067	8074	8076	1
8066	8067	8074	1
8066	8063	8069	1
8092	8093	8094	1
8092	8093	8100	1
8092	8095	8096	1
8092	8095	8101	1
8092	8098	8099	1
8093	8094	8097	1
8093	8094	8104	1
8093	8092	8095	1
8093	8092	8098	1
8094	8093	8100	1
8094	8097	8096	1
8094	8097	8102	1
8094	8104	8106	1
8097	8094	8104	1
8095	8096	8097	1
8097	8096	8103	1
8096	8097	8102	1
8096	8095	8101	1
8096	8103	8105	1
8095	8096	8103	1
8095	8092	8098	1
1820	1819	1816	1
1820	1819	1825	1
1820	1821	1818	1
1820	1821	1826	1
1820	1827	1829	1
1819	1816	1817	1
1819	1816	1822	1
1821	1820	1819	1
1819	1820	1827	1
1816	1819	1825	1
1818	1817	1816	1
1816	1817	1824	1
1816	1822	1823	1
1817	1816	1822	1
1821	1818	1817	1
1817	1818	1828	1
1818	1817	1824	1
1818	1821	1826	1
1818	1828	1830	1
1818	1828	1831	1
1821	1818	1828	1
1821	1820	1827	1
1828	1831	1832	1
1830	1828	1831	1
8107	8108	8109	1
8107	8108	8115	1
8107	8110	8111	1
8107	8110	8116	1
8107	8113	8114	1
8108	8109	8112	1
8108	8109	8119	1
8108	8107	8110	1
8108	8107	8113	1
8109	8108	8115	1
8109	8112	8111	1
8109	8112	8117	1
8109	8119	8121	1
8112	8109	8119	1
8110	8111	8112	1
8112	8111	8118	1
8111	8112	8117	1
8111	8110	8116	1
8111	8118	8120	1
8110	8111	8118	1
8110	8107	8113	1
8136	8137	8138	1
8136	8137	8144	1
8136	8139	8140	1
8136	8139	8145	1
8136	8142	8143	1
8137	8138	8141	1
8137	8138	8148	1
8137	8136	8139	1
8137	8136	8142	1
8138	8137	8144	1
8138	8141	8140	1
8138	8141	8146	1
8138	8148	8150	1
8141	8138	8148	1
8139	8140	8141	1
8141	8140	8147	1
8140	8141	8146	1
8140	8139	8145	1
8140	8147	8149	1
8139	8140	8147	1
8139	8136	8142	1
8165	8168	8169	1
8165	8168	8174	1
8165	8166	8167	1
8165	8166	8173	1
8165	8171	8172	1
8168	8169	8170	1
8168	8169	8176	1
8168	8165	8166	1
8168	8165	8171	1
8169	8168	8174	1
8169	8170	8167	1
8169	8170	8175	1
8169	8176	8178	1
8170	8169	8176	1
8166	8167	8170	1
8170	8167	8177	1
8167	8170	8175	1
8167	8166	8173	1
8167	8177	8179	1
8166	8167	8177	1
8166	8165	8171	1
8194	8197	8198	1
8194	8197	8203	1
8194	8195	8196	1
8194	8195	8202	1
8194	8200	8201	1
8197	8198	8199	1
8197	8198	8205	1
8197	8194	8195	1
8197	8194	8200	1
8198	8197	8203	1
8198	8199	8196	1
8198	8199	8204	1
8198	8205	8207	1
8199	8198	8205	1
8195	8196	8199	1
8199	8196	8206	1
8196	8199	8204	1
8196	8195	8202	1
8196	8206	8208	1
8195	8196	8206	1
8195	8194	8200	1
8209	8212	8213	1
8209	8212	8218	1
8209	8210	8211	1
8209	8210	8217	1
8209	8215	8216	1
8212	8213	8214	1
8212	8213	8220	1
8210	8209	8212	1
8212	8209	8215	1
8213	8212	8218	1
8211	8214	8213	1
8213	8214	8219	1
8213	8220	8222	1
8214	8213	8220	1
8210	8211	8214	1
8214	8211	8221	1
8211	8214	8219	1
8211	8210	8217	1
8211	8221	8223	1
8210	8211	8221	1
8210	8209	8215	1
8224	8225	8226	1
8224	8225	8232	1
8224	8227	8228	1
8224	8227	8233	1
8224	8230	8231	1
8225	8226	8229	1
8225	8226	8236	1
8225	8224	8227	1
8225	8224	8230	1
8226	8225	8232	1
8226	8229	8228	1
8226	8229	8234	1
8226	8236	8238	1
8229	8226	8236	1
8227	8228	8229	1
8229	8228	8235	1
8228	8229	8234	1
8228	8227	8233	1
8228	8235	8237	1
8227	8228	8235	1
8227	8224	8230	1
8253	8254	8255	1
8255	8254	8261	1
8255	8258	8257	1
8255	8258	8263	1
8255	8265	8267	1
8254	8253	8256	1
8254	8253	8259	1
8254	8255	8258	1
8254	8255	8265	1
8253	8254	8261	1
8253	8256	8257	1
8253	8256	8262	1
8253	8259	8260	1
8256	8253	8259	1
8256	8257	8258	1
8256	8257	8264	1
8257	8256	8262	1
8257	8258	8263	1
8257	8264	8266	1
8258	8257	8264	1
8258	8255	8265	1
1847	1848	1849	1
1847	1848	1855	1
1847	1850	1851	1
1847	1850	1856	1
1847	1853	1854	1
1848	1849	1852	1
1848	1849	1859	1
1848	1847	1850	1
1848	1847	1853	1
1849	1848	1855	1
1849	1852	1851	1
1849	1852	1857	1
1849	1859	1861	1
1849	1859	1862	1
1852	1849	1859	1
1850	1851	1852	1
1852	1851	1858	1
1851	1852	1857	1
1851	1850	1856	1
1851	1858	1860	1
1850	1851	1858	1
1850	1847	1853	1
1859	1862	1863	1
1861	1859	1862	1
1878	1879	1880	1
1878	1879	1886	1
1878	1881	1882	1
1878	1881	1887	1
1878	1884	1885	1
1879	1880	1883	1
1879	1880	1890	1
1879	1878	1881	1
1879	1878	1884	1
1880	1879	1886	1
1880	1883	1882	1
1880	1883	1888	1
1880	1890	1892	1
1880	1890	1893	1
1883	1880	1890	1
1881	1882	1883	1
1883	1882	1889	1
1882	1883	1888	1
1882	1881	1887	1
1882	1889	1891	1
1881	1882	1889	1
1881	1878	1884	1
1890	1893	1894	1
1892	1890	1893	1
8268	8269	8270	1
8268	8269	8276	1
8268	8271	8272	1
8268	8271	8277	1
8268	8274	8275	1
8269	8270	8273	1
8269	8270	8280	1
8269	8268	8271	1
8269	8268	8274	1
8270	8269	8276	1
8270	8273	8272	1
8270	8273	8278	1
8270	8280	8282	1
8273	8270	8280	1
8271	8272	8273	1
8273	8272	8279	1
8272	8273	8278	1
8272	8271	8277	1
8272	8279	8281	1
8271	8272	8279	1
8271	8268	8274	1
1909	1910	1911	1
1911	1910	1917	1
1911	1914	1913	1
1911	1914	1919	1
1911	1921	1923	1
1911	1921	1924	1
1910	1909	1912	1
1910	1909	1915	1
1910	1911	1914	1
1910	1911	1921	1
1909	1910	1917	1
1909	1912	1913	1
1909	1912	1918	1
1909	1915	1916	1
1912	1909	1915	1
1912	1913	1914	1
1912	1913	1920	1
1913	1912	1918	1
1913	1914	1919	1
1913	1920	1922	1
1914	1913	1920	1
1914	1911	1921	1
1921	1924	1925	1
1923	1921	1924	1
1940	1943	1944	1
1940	1943	1949	1
1940	1941	1942	1
1940	1941	1948	1
1940	1946	1947	1
1943	1944	1945	1
1943	1944	1951	1
1941	1940	1943	1
1943	1940	1946	1
1944	1943	1949	1
1942	1945	1944	1
1944	1945	1950	1
1944	1951	1953	1
1945	1944	1951	1
1941	1942	1945	1
1945	1942	1952	1
1942	1945	1950	1
1942	1941	1948	1
1942	1952	1954	1
1942	1952	1955	1
1941	1942	1952	1
1941	1940	1946	1
1952	1955	1956	1
1954	1952	1955	1
131	134	135	1
135	134	140	1
135	136	133	1
135	136	141	1
135	142	144	1
135	142	146	1
134	131	132	1
134	131	137	1
134	135	136	1
134	135	142	1
131	134	140	1
131	132	133	1
131	132	139	1
131	137	138	1
132	131	137	1
132	133	136	1
132	133	143	1
133	132	139	1
133	136	141	1
133	143	145	1
133	143	148	1
136	133	143	1
136	135	142	1
143	148	149	1
142	146	147	1
145	143	148	1
144	142	146	1
171	170	169	1
169	170	180	1
169	168	167	1
169	168	179	1
169	175	176	1
169	175	177	1
170	171	172	1
170	171	173	1
170	169	168	1
170	169	175	1
171	170	180	1
171	172	167	1
171	172	181	1
171	173	174	1
172	171	173	1
172	167	168	1
172	167	165	1
167	172	181	1
167	168	179	1
167	165	166	1
167	165	164	1
168	167	165	1
168	169	175	1
165	164	178	1
166	165	164	1
176	175	177	1
1972	1973	1974	1
1972	1973	1980	1
1972	1975	1976	1
1972	1975	1981	1
1972	1978	1979	1
1973	1974	1977	1
1973	1974	1984	1
1973	1972	1975	1
1973	1972	1978	1
1974	1973	1980	1
1974	1977	1976	1
1974	1977	1982	1
1974	1984	1986	1
1974	1984	1987	1
1977	1974	1984	1
1975	1976	1977	1
1977	1976	1983	1
1976	1977	1982	1
1976	1975	1981	1
1976	1983	1985	1
1975	1976	1983	1
1975	1972	1978	1
1984	1987	1988	1
1986	1984	1987	1
2003	2004	2005	1
2005	2004	2011	1
2005	2008	2007	1
2005	2008	2013	1
2005	2015	2017	1
2005	2015	2018	1
2004	2003	2006	1
2004	2003	2009	1
2004	2005	2008	1
2004	2005	2015	1
2003	2004	2011	1
2003	2006	2007	1
2003	2006	2012	1
2003	2009	2010	1
2006	2003	2009	1
2006	2007	2008	1
2006	2007	2014	1
2007	2006	2012	1
2007	2008	2013	1
2007	2014	2016	1
2008	2007	2014	1
2008	2005	2015	1
2015	2018	2019	1
2017	2015	2018	1
8283	8284	8285	1
8283	8284	8291	1
8283	8286	8287	1
8283	8286	8292	1
8283	8289	8290	1
8284	8285	8288	1
8284	8285	8295	1
8284	8283	8286	1
8284	8283	8289	1
8285	8284	8291	1
8285	8288	8287	1
8285	8288	8293	1
8285	8295	8297	1
8288	8285	8295	1
8286	8287	8288	1
8288	8287	8294	1
8287	8288	8293	1
8287	8286	8292	1
8287	8294	8296	1
8286	8287	8294	1
8286	8283	8289	1
8312	8313	8314	1
8312	8313	8320	1
8312	8315	8316	1
8312	8315	8321	1
8312	8318	8319	1
8313	8314	8317	1
8313	8314	8324	1
8313	8312	8315	1
8313	8312	8318	1
8314	8313	8320	1
8314	8317	8316	1
8314	8317	8322	1
8314	8324	8326	1
8317	8314	8324	1
8315	8316	8317	1
8317	8316	8323	1
8316	8317	8322	1
8316	8315	8321	1
8316	8323	8325	1
8315	8316	8323	1
8315	8312	8318	1
8327	8328	8329	1
8327	8328	8335	1
8327	8330	8331	1
8327	8330	8336	1
8327	8333	8334	1
8328	8329	8332	1
8328	8329	8339	1
8330	8327	8328	1
8328	8327	8333	1
8329	8328	8335	1
8331	8332	8329	1
8329	8332	8337	1
8329	8339	8341	1
8332	8329	8339	1
8330	8331	8332	1
8332	8331	8338	1
8331	8332	8337	1
8331	8330	8336	1
8331	8338	8340	1
8330	8331	8338	1
8330	8327	8333	1
8356	8357	8358	1
8356	8357	8364	1
8356	8359	8360	1
8356	8359	8365	1
8356	8362	8363	1
8357	8358	8361	1
8357	8358	8368	1
8359	8356	8357	1
8357	8356	8362	1
8358	8357	8364	1
8360	8361	8358	1
8358	8361	8366	1
8358	8368	8370	1
8361	8358	8368	1
8359	8360	8361	1
8361	8360	8367	1
8360	8361	8366	1
8360	8359	8365	1
8360	8367	8369	1
8359	8360	8367	1
8359	8356	8362	1
8371	8374	8375	1
8371	8374	8380	1
8371	8372	8373	1
8371	8372	8379	1
8371	8377	8378	1
8374	8375	8376	1
8374	8375	8382	1
8372	8371	8374	1
8374	8371	8377	1
8375	8374	8380	1
8373	8376	8375	1
8375	8376	8381	1
8375	8382	8384	1
8376	8375	8382	1
8372	8373	8376	1
8376	8373	8383	1
8373	8376	8381	1
8373	8372	8379	1
8373	8383	8385	1
8372	8373	8383	1
8372	8371	8377	1
8386	8389	8390	1
8386	8389	8395	1
8386	8387	8388	1
8386	8387	8394	1
8386	8392	8393	1
8389	8390	8391	1
8389	8390	8397	1
8387	8386	8389	1
8389	8386	8392	1
8390	8389	8395	1
8388	8391	8390	1
8390	8391	8396	1
8390	8397	8399	1
8391	8390	8397	1
8387	8388	8391	1
8391	8388	8398	1
8388	8391	8396	1
8388	8387	8394	1
8388	8398	8400	1
8387	8388	8398	1
8387	8386	8392	1
8415	8416	8417	1
8415	8416	8423	1
8415	8418	8419	1
8415	8418	8424	1
8415	8421	8422	1
8416	8417	8420	1
8416	8417	8427	1
8416	8415	8418	1
8416	8415	8421	1
8417	8416	8423	1
8417	8420	8419	1
8417	8420	8425	1
8417	8427	8429	1
8420	8417	8427	1
8418	8419	8420	1
8420	8419	8426	1
8419	8420	8425	1
8419	8418	8424	1
8419	8426	8428	1
8418	8419	8426	1
8418	8415	8421	1
8430	8431	8432	1
8430	8431	8438	1
8430	8433	8434	1
8430	8433	8439	1
8430	8436	8437	1
8431	8432	8435	1
8431	8432	8442	1
8431	8430	8433	1
8431	8430	8436	1
8432	8431	8438	1
8432	8435	8434	1
8432	8435	8440	1
8432	8442	8444	1
8435	8432	8442	1
8433	8434	8435	1
8435	8434	8441	1
8434	8435	8440	1
8434	8433	8439	1
8434	8441	8443	1
8433	8434	8441	1
8433	8430	8436	1
2034	2035	2036	1
2036	2035	2042	1
2036	2039	2038	1
2036	2039	2044	1
2036	2046	2048	1
2036	2046	2049	1
2035	2034	2037	1
2035	2034	2040	1
2035	2036	2039	1
2035	2036	2046	1
2034	2035	2042	1
2034	2037	2038	1
2034	2037	2043	1
2034	2040	2041	1
2037	2034	2040	1
2037	2038	2039	1
2037	2038	2045	1
2038	2037	2043	1
2038	2039	2044	1
2038	2045	2047	1
2039	2038	2045	1
2039	2036	2046	1
2046	2049	2050	1
2048	2046	2049	1
8459	8460	8461	1
8459	8460	8467	1
8459	8462	8463	1
8459	8462	8468	1
8459	8465	8466	1
8460	8461	8464	1
8460	8461	8471	1
8460	8459	8462	1
8460	8459	8465	1
8461	8460	8467	1
8461	8464	8463	1
8461	8464	8469	1
8461	8471	8473	1
8464	8461	8471	1
8462	8463	8464	1
8464	8463	8470	1
8463	8464	8469	1
8463	8462	8468	1
8463	8470	8472	1
8462	8463	8470	1
8462	8459	8465	1
2065	2066	2067	1
2067	2066	2073	1
2067	2070	2069	1
2067	2070	2075	1
2067	2077	2079	1
2067	2077	2080	1
2066	2065	2068	1
2066	2065	2071	1
2066	2067	2070	1
2066	2067	2077	1
2065	2066	2073	1
2065	2068	2069	1
2065	2068	2074	1
2065	2071	2072	1
2068	2065	2071	1
2068	2069	2070	1
2068	2069	2076	1
2069	2068	2074	1
2069	2070	2075	1
2069	2076	2078	1
2070	2069	2076	1
2070	2067	2077	1
2077	2080	2081	1
2079	2077	2080	1
2096	2097	2098	1
2098	2097	2104	1
2098	2101	2100	1
2098	2101	2106	1
2098	2108	2110	1
2098	2108	2111	1
2097	2096	2099	1
2097	2096	2102	1
2097	2098	2101	1
2097	2098	2108	1
2096	2097	2104	1
2096	2099	2100	1
2096	2099	2105	1
2096	2102	2103	1
2099	2096	2102	1
2099	2100	2101	1
2099	2100	2107	1
2100	2099	2105	1
2100	2101	2106	1
2100	2107	2109	1
2101	2100	2107	1
2101	2098	2108	1
2108	2111	2112	1
2110	2108	2111	1
201	200	199	1
199	200	211	1
203	204	199	1
199	204	213	1
199	197	198	1
199	197	196	1
202	201	200	1
200	201	207	1
204	199	200	1
200	199	197	1
201	200	211	1
203	202	201	1
201	202	212	1
201	207	208	1
201	207	209	1
202	201	207	1
202	203	204	1
202	203	205	1
203	202	212	1
203	204	213	1
203	205	206	1
204	203	205	1
204	199	197	1
197	196	210	1
198	197	196	1
208	207	209	1
8488	8491	8492	1
8488	8491	8497	1
8488	8489	8490	1
8488	8489	8496	1
8488	8494	8495	1
8491	8492	8493	1
8491	8492	8499	1
8489	8488	8491	1
8491	8488	8494	1
8492	8491	8497	1
8490	8493	8492	1
8492	8493	8498	1
8492	8499	8501	1
8493	8492	8499	1
8489	8490	8493	1
8493	8490	8500	1
8490	8493	8498	1
8490	8489	8496	1
8490	8500	8502	1
8489	8490	8500	1
8489	8488	8494	1
8503	8504	8505	1
8503	8504	8511	1
8503	8506	8507	1
8503	8506	8512	1
8503	8509	8510	1
8504	8505	8508	1
8504	8505	8515	1
8506	8503	8504	1
8504	8503	8509	1
8505	8504	8511	1
8507	8508	8505	1
8505	8508	8513	1
8505	8515	8517	1
8508	8505	8515	1
8506	8507	8508	1
8508	8507	8514	1
8507	8508	8513	1
8507	8506	8512	1
8507	8514	8516	1
8506	8507	8514	1
8506	8503	8509	1
8532	8533	8534	1
8532	8533	8540	1
8532	8535	8536	1
8532	8535	8541	1
8532	8538	8539	1
8533	8534	8537	1
8533	8534	8544	1
8535	8532	8533	1
8533	8532	8538	1
8534	8533	8540	1
8536	8537	8534	1
8534	8537	8542	1
8534	8544	8546	1
8537	8534	8544	1
8535	8536	8537	1
8537	8536	8543	1
8536	8537	8542	1
8536	8535	8541	1
8536	8543	8545	1
8535	8536	8543	1
8535	8532	8538	1
8561	8562	8563	1
8561	8562	8569	1
8561	8564	8565	1
8561	8564	8570	1
8561	8567	8568	1
8562	8563	8566	1
8562	8563	8573	1
8562	8561	8564	1
8562	8561	8567	1
8563	8562	8569	1
8563	8566	8565	1
8563	8566	8571	1
8563	8573	8575	1
8566	8563	8573	1
8564	8565	8566	1
8566	8565	8572	1
8565	8566	8571	1
8565	8564	8570	1
8565	8572	8574	1
8564	8565	8572	1
8564	8561	8567	1
2127	2128	2129	1
2127	2128	2135	1
2127	2130	2131	1
2127	2130	2136	1
2127	2133	2134	1
2128	2129	2132	1
2128	2129	2139	1
2128	2127	2130	1
2128	2127	2133	1
2129	2128	2135	1
2129	2132	2131	1
2129	2132	2137	1
2129	2139	2141	1
2129	2139	2142	1
2132	2129	2139	1
2130	2131	2132	1
2132	2131	2138	1
2131	2132	2137	1
2131	2130	2136	1
2131	2138	2140	1
2130	2131	2138	1
2130	2127	2133	1
2139	2142	2143	1
2141	2139	2142	1
8576	8577	8578	1
8578	8577	8584	1
8578	8581	8580	1
8578	8581	8586	1
8578	8588	8590	1
8577	8576	8579	1
8577	8576	8582	1
8577	8578	8581	1
8577	8578	8588	1
8576	8577	8584	1
8576	8579	8580	1
8576	8579	8585	1
8576	8582	8583	1
8579	8576	8582	1
8579	8580	8581	1
8579	8580	8587	1
8580	8579	8585	1
8580	8581	8586	1
8580	8587	8589	1
8581	8580	8587	1
8581	8578	8588	1
8605	8606	8607	1
8605	8606	8613	1
8605	8608	8609	1
8605	8608	8614	1
8605	8611	8612	1
8606	8607	8610	1
8606	8607	8617	1
8606	8605	8608	1
8606	8605	8611	1
8607	8606	8613	1
8607	8610	8609	1
8607	8610	8615	1
8607	8617	8619	1
8610	8607	8617	1
8608	8609	8610	1
8610	8609	8616	1
8609	8610	8615	1
8609	8608	8614	1
8609	8616	8618	1
8608	8609	8616	1
8608	8605	8611	1
8634	8637	8638	1
8634	8637	8643	1
8634	8635	8636	1
8634	8635	8642	1
8634	8640	8641	1
8637	8638	8639	1
8637	8638	8645	1
8635	8634	8637	1
8637	8634	8640	1
8638	8637	8643	1
8636	8639	8638	1
8638	8639	8644	1
8638	8645	8647	1
8639	8638	8645	1
8635	8636	8639	1
8639	8636	8646	1
8636	8639	8644	1
8636	8635	8642	1
8636	8646	8648	1
8635	8636	8646	1
8635	8634	8640	1
8649	8650	8651	1
8649	8650	8657	1
8649	8652	8653	1
8649	8652	8658	1
8649	8655	8656	1
8650	8651	8654	1
8650	8651	8661	1
8650	8649	8652	1
8650	8649	8655	1
8651	8650	8657	1
8651	8654	8653	1
8651	8654	8659	1
8651	8661	8663	1
8654	8651	8661	1
8652	8653	8654	1
8654	8653	8660	1
8653	8654	8659	1
8653	8652	8658	1
8653	8660	8662	1
8652	8653	8660	1
8652	8649	8655	1
8678	8679	8680	1
8678	8679	8686	1
8678	8681	8682	1
8678	8681	8687	1
8678	8684	8685	1
8679	8680	8683	1
8679	8680	8690	1
8679	8678	8681	1
8679	8678	8684	1
8680	8679	8686	1
8680	8683	8682	1
8680	8683	8688	1
8680	8690	8692	1
8683	8680	8690	1
8681	8682	8683	1
8683	8682	8689	1
8682	8683	8688	1
8682	8681	8687	1
8682	8689	8691	1
8681	8682	8689	1
8681	8678	8684	1
8707	8710	8711	1
8707	8710	8716	1
8707	8708	8709	1
8707	8708	8715	1
8707	8713	8714	1
8710	8711	8712	1
8710	8711	8718	1
8710	8707	8708	1
8710	8707	8713	1
8711	8710	8716	1
8711	8712	8709	1
8711	8712	8717	1
8711	8718	8720	1
8712	8711	8718	1
8708	8709	8712	1
8712	8709	8719	1
8709	8712	8717	1
8709	8708	8715	1
8709	8719	8721	1
8708	8709	8719	1
8708	8707	8713	1
8736	8739	8740	1
8736	8739	8745	1
8736	8737	8738	1
8736	8737	8744	1
8736	8742	8743	1
8739	8740	8741	1
8739	8740	8747	1
8739	8736	8737	1
8739	8736	8742	1
8740	8739	8745	1
8740	8741	8738	1
8740	8741	8746	1
8740	8747	8749	1
8741	8740	8747	1
8737	8738	8741	1
8741	8738	8748	1
8738	8741	8746	1
8738	8737	8744	1
8738	8748	8750	1
8737	8738	8748	1
8737	8736	8742	1
8751	8754	8755	1
8751	8754	8760	1
8751	8752	8753	1
8751	8752	8759	1
8751	8757	8758	1
8754	8755	8756	1
8754	8755	8762	1
8752	8751	8754	1
8754	8751	8757	1
8755	8754	8760	1
8753	8756	8755	1
8755	8756	8761	1
8755	8762	8764	1
8756	8755	8762	1
8752	8753	8756	1
8756	8753	8763	1
8753	8756	8761	1
8753	8752	8759	1
8753	8763	8765	1
8752	8753	8763	1
8752	8751	8757	1
8766	8769	8770	1
8766	8769	8775	1
8766	8767	8768	1
8766	8767	8774	1
8766	8772	8773	1
8769	8770	8771	1
8769	8770	8777	1
8767	8766	8769	1
8769	8766	8772	1
8770	8769	8775	1
8768	8771	8770	1
8770	8771	8776	1
8770	8777	8779	1
8771	8770	8777	1
8767	8768	8771	1
8771	8768	8778	1
8768	8771	8776	1
8768	8767	8774	1
8768	8778	8780	1
8767	8768	8778	1
8767	8766	8772	1
8781	8784	8785	1
8781	8784	8790	1
8781	8782	8783	1
8781	8782	8789	1
8781	8787	8788	1
8784	8785	8786	1
8784	8785	8792	1
8782	8781	8784	1
8784	8781	8787	1
8785	8784	8790	1
8783	8786	8785	1
8785	8786	8791	1
8785	8792	8794	1
8786	8785	8792	1
8782	8783	8786	1
8786	8783	8793	1
8783	8786	8791	1
8783	8782	8789	1
8783	8793	8795	1
8782	8783	8793	1
8782	8781	8787	1
8810	8811	8812	1
8810	8811	8818	1
8810	8813	8814	1
8810	8813	8819	1
8810	8816	8817	1
8811	8812	8815	1
8811	8812	8822	1
8811	8810	8813	1
8811	8810	8816	1
8812	8811	8818	1
8812	8815	8814	1
8812	8815	8820	1
8812	8822	8824	1
8815	8812	8822	1
8813	8814	8815	1
8815	8814	8821	1
8814	8815	8820	1
8814	8813	8819	1
8814	8821	8823	1
8813	8814	8821	1
8813	8810	8816	1
8839	8840	8841	1
8839	8840	8847	1
8839	8842	8843	1
8839	8842	8848	1
8839	8845	8846	1
8840	8841	8844	1
8840	8841	8851	1
8840	8839	8842	1
8840	8839	8845	1
8841	8840	8847	1
8841	8844	8843	1
8841	8844	8849	1
8841	8851	8853	1
8844	8841	8851	1
8842	8843	8844	1
8844	8843	8850	1
8843	8844	8849	1
8843	8842	8848	1
8843	8850	8852	1
8842	8843	8850	1
8842	8839	8845	1
8870	8869	8868	1
8870	8869	8876	1
8870	8873	8872	1
8870	8873	8878	1
8870	8880	8882	1
8869	8868	8871	1
8869	8868	8874	1
8869	8870	8873	1
8869	8870	8880	1
8868	8869	8876	1
8868	8871	8872	1
8868	8871	8877	1
8868	8874	8875	1
8871	8868	8874	1
8873	8872	8871	1
8871	8872	8879	1
8872	8871	8877	1
8872	8873	8878	1
8872	8879	8881	1
8873	8872	8879	1
8873	8870	8880	1
8897	8900	8901	1
8897	8900	8906	1
8897	8898	8899	1
8897	8898	8905	1
8897	8903	8904	1
8900	8901	8902	1
8900	8901	8908	1
8900	8897	8898	1
8900	8897	8903	1
8901	8900	8906	1
8901	8902	8899	1
8901	8902	8907	1
8901	8908	8910	1
8902	8901	8908	1
8898	8899	8902	1
8902	8899	8909	1
8899	8902	8907	1
8899	8898	8905	1
8899	8909	8911	1
8898	8899	8909	1
8898	8897	8903	1
8912	8913	8914	1
8912	8913	8920	1
8912	8915	8916	1
8912	8915	8921	1
8912	8918	8919	1
8913	8914	8917	1
8913	8914	8924	1
8915	8912	8913	1
8913	8912	8918	1
8914	8913	8920	1
8916	8917	8914	1
8914	8917	8922	1
8914	8924	8926	1
8917	8914	8924	1
8915	8916	8917	1
8917	8916	8923	1
8916	8917	8922	1
8916	8915	8921	1
8916	8923	8925	1
8915	8916	8923	1
8915	8912	8918	1
8941	8944	8945	1
8941	8944	8950	1
8941	8942	8943	1
8941	8942	8949	1
8941	8947	8948	1
8944	8945	8946	1
8944	8945	8952	1
8942	8941	8944	1
8944	8941	8947	1
8945	8944	8950	1
8943	8946	8945	1
8945	8946	8951	1
8945	8952	8954	1
8946	8945	8952	1
8942	8943	8946	1
8946	8943	8953	1
8943	8946	8951	1
8943	8942	8949	1
8943	8953	8955	1
8942	8943	8953	1
8942	8941	8947	1
8970	8973	8974	1
8970	8973	8979	1
8970	8971	8972	1
8970	8971	8978	1
8970	8976	8977	1
8973	8974	8975	1
8973	8974	8981	1
8971	8970	8973	1
8973	8970	8976	1
8974	8973	8979	1
8972	8975	8974	1
8974	8975	8980	1
8974	8981	8983	1
8975	8974	8981	1
8971	8972	8975	1
8975	8972	8982	1
8972	8975	8980	1
8972	8971	8978	1
8972	8982	8984	1
8971	8972	8982	1
8971	8970	8976	1
8985	8988	8989	1
8985	8988	8994	1
8985	8986	8987	1
8985	8986	8993	1
8985	8991	8992	1
8988	8989	8990	1
8988	8989	8996	1
8986	8985	8988	1
8988	8985	8991	1
8989	8988	8994	1
8987	8990	8989	1
8989	8990	8995	1
8989	8996	8998	1
8990	8989	8996	1
8986	8987	8990	1
8990	8987	8997	1
8987	8990	8995	1
8987	8986	8993	1
8987	8997	8999	1
8986	8987	8997	1
8986	8985	8991	1
9014	9015	9016	1
9014	9015	9022	1
9014	9017	9018	1
9014	9017	9023	1
9014	9020	9021	1
9015	9016	9019	1
9015	9016	9026	1
9015	9014	9017	1
9015	9014	9020	1
9016	9015	9022	1
9016	9019	9018	1
9016	9019	9024	1
9016	9026	9028	1
9019	9016	9026	1
9017	9018	9019	1
9019	9018	9025	1
9018	9019	9024	1
9018	9017	9023	1
9018	9025	9027	1
9017	9018	9025	1
9017	9014	9020	1
9029	9030	9031	1
9029	9030	9037	1
9029	9032	9033	1
9029	9032	9038	1
9029	9035	9036	1
9030	9031	9034	1
9030	9031	9041	1
9030	9029	9032	1
9030	9029	9035	1
9031	9030	9037	1
9031	9034	9033	1
9031	9034	9039	1
9031	9041	9043	1
9034	9031	9041	1
9032	9033	9034	1
9034	9033	9040	1
9033	9034	9039	1
9033	9032	9038	1
9033	9040	9042	1
9032	9033	9040	1
9032	9029	9035	1
9058	9059	9060	1
9058	9059	9066	1
9058	9061	9062	1
9058	9061	9067	1
9058	9064	9065	1
9059	9060	9063	1
9059	9060	9070	1
9059	9058	9061	1
9059	9058	9064	1
9060	9059	9066	1
9060	9063	9062	1
9060	9063	9068	1
9060	9070	9072	1
9063	9060	9070	1
9061	9062	9063	1
9063	9062	9069	1
9062	9063	9068	1
9062	9061	9067	1
9062	9069	9071	1
9061	9062	9069	1
9061	9058	9064	1
9073	9076	9077	1
9073	9076	9082	1
9073	9074	9075	1
9073	9074	9081	1
9073	9079	9080	1
9076	9077	9078	1
9076	9077	9084	1
9076	9073	9074	1
9076	9073	9079	1
9077	9076	9082	1
9077	9078	9075	1
9077	9078	9083	1
9077	9084	9086	1
9078	9077	9084	1
9074	9075	9078	1
9078	9075	9085	1
9075	9078	9083	1
9075	9074	9081	1
9075	9085	9087	1
9074	9075	9085	1
9074	9073	9079	1
9088	9089	9090	1
9088	9089	9096	1
9088	9091	9092	1
9088	9091	9097	1
9088	9094	9095	1
9089	9090	9093	1
9089	9090	9100	1
9091	9088	9089	1
9089	9088	9094	1
9090	9089	9096	1
9092	9093	9090	1
9090	9093	9098	1
9090	9100	9102	1
9093	9090	9100	1
9091	9092	9093	1
9093	9092	9099	1
9092	9093	9098	1
9092	9091	9097	1
9092	9099	9101	1
9091	9092	9099	1
9091	9088	9094	1
2158	2159	2160	1
2158	2159	2166	1
2158	2161	2162	1
2158	2161	2167	1
2158	2164	2165	1
2159	2160	2163	1
2159	2160	2170	1
2159	2158	2161	1
2159	2158	2164	1
2160	2159	2166	1
2160	2163	2162	1
2160	2163	2168	1
2160	2170	2172	1
2160	2170	2173	1
2163	2160	2170	1
2161	2162	2163	1
2163	2162	2169	1
2162	2163	2168	1
2162	2161	2167	1
2162	2169	2171	1
2161	2162	2169	1
2161	2158	2164	1
2170	2173	2174	1
2172	2170	2173	1
2189	2192	2193	1
2189	2192	2198	1
2189	2190	2191	1
2189	2190	2197	1
2189	2195	2196	1
2192	2193	2194	1
2192	2193	2200	1
2190	2189	2192	1
2192	2189	2195	1
2193	2192	2198	1
2191	2194	2193	1
2193	2194	2199	1
2193	2200	2202	1
2194	2193	2200	1
2190	2191	2194	1
2194	2191	2201	1
2191	2194	2199	1
2191	2190	2197	1
2191	2201	2203	1
2191	2201	2204	1
2190	2191	2201	1
2190	2189	2195	1
2201	2204	2205	1
2203	2201	2204	1
9117	9118	9119	1
9117	9118	9125	1
9117	9120	9121	1
9117	9120	9126	1
9117	9123	9124	1
9118	9119	9122	1
9118	9119	9129	1
9118	9117	9120	1
9118	9117	9123	1
9119	9118	9125	1
9119	9122	9121	1
9119	9122	9127	1
9119	9129	9131	1
9122	9119	9129	1
9120	9121	9122	1
9122	9121	9128	1
9121	9122	9127	1
9121	9120	9126	1
9121	9128	9130	1
9120	9121	9128	1
9120	9117	9123	1
9146	9149	9150	1
9150	9149	9155	1
9148	9151	9150	1
9150	9151	9156	1
9150	9157	9159	1
9147	9146	9149	1
9149	9146	9152	1
9149	9150	9151	1
9149	9150	9157	1
9146	9149	9155	1
9146	9147	9148	1
9146	9147	9154	1
9146	9152	9153	1
9147	9146	9152	1
9147	9148	9151	1
9147	9148	9158	1
9148	9147	9154	1
9148	9151	9156	1
9148	9158	9160	1
9151	9148	9158	1
9151	9150	9157	1
9175	9178	9179	1
9175	9178	9184	1
9175	9176	9177	1
9175	9176	9183	1
9175	9181	9182	1
9178	9179	9180	1
9178	9179	9186	1
9176	9175	9178	1
9178	9175	9181	1
9179	9178	9184	1
9177	9180	9179	1
9179	9180	9185	1
9179	9186	9188	1
9180	9179	9186	1
9176	9177	9180	1
9180	9177	9187	1
9177	9180	9185	1
9177	9176	9183	1
9177	9187	9189	1
9176	9177	9187	1
9176	9175	9181	1
2206	2207	2208	1
2206	2207	2214	1
2206	2209	2210	1
2206	2209	2215	1
2206	2212	2213	1
2207	2208	2211	1
2207	2208	2218	1
2207	2206	2209	1
2207	2206	2212	1
2208	2207	2214	1
2208	2211	2210	1
2208	2211	2216	1
2208	2218	2220	1
2208	2218	2221	1
2211	2208	2218	1
2209	2210	2211	1
2211	2210	2217	1
2210	2211	2216	1
2210	2209	2215	1
2210	2217	2219	1
2209	2210	2217	1
2209	2206	2212	1
2218	2221	2222	1
2220	2218	2221	1
9204	9207	9208	1
9204	9207	9213	1
9204	9205	9206	1
9204	9205	9212	1
9204	9210	9211	1
9207	9208	9209	1
9207	9208	9215	1
9205	9204	9207	1
9207	9204	9210	1
9208	9207	9213	1
9206	9209	9208	1
9208	9209	9214	1
9208	9215	9217	1
9209	9208	9215	1
9205	9206	9209	1
9209	9206	9216	1
9206	9209	9214	1
9206	9205	9212	1
9206	9216	9218	1
9205	9206	9216	1
9205	9204	9210	1
9233	9236	9237	1
9233	9236	9242	1
9233	9234	9235	1
9233	9234	9241	1
9233	9239	9240	1
9236	9237	9238	1
9236	9237	9244	1
9234	9233	9236	1
9236	9233	9239	1
9237	9236	9242	1
9235	9238	9237	1
9237	9238	9243	1
9237	9244	9246	1
9238	9237	9244	1
9234	9235	9238	1
9238	9235	9245	1
9235	9238	9243	1
9235	9234	9241	1
9235	9245	9247	1
9234	9235	9245	1
9234	9233	9239	1
9262	9265	9266	1
9262	9265	9271	1
9262	9263	9264	1
9262	9263	9270	1
9262	9268	9269	1
9265	9266	9267	1
9265	9266	9273	1
9263	9262	9265	1
9265	9262	9268	1
9266	9265	9271	1
9264	9267	9266	1
9266	9267	9272	1
9266	9273	9275	1
9267	9266	9273	1
9263	9264	9267	1
9267	9264	9274	1
9264	9267	9272	1
9264	9263	9270	1
9264	9274	9276	1
9263	9264	9274	1
9263	9262	9268	1
9295	9294	9291	1
9295	9294	9300	1
9295	9296	9293	1
9295	9296	9301	1
9295	9302	9304	1
9294	9291	9292	1
9294	9291	9297	1
9294	9295	9296	1
9294	9295	9302	1
9291	9294	9300	1
9291	9292	9293	1
9291	9292	9299	1
9291	9297	9298	1
9292	9291	9297	1
9296	9293	9292	1
9292	9293	9303	1
9293	9292	9299	1
9293	9296	9301	1
9293	9303	9305	1
9296	9293	9303	1
9296	9295	9302	1
9320	9323	9324	1
9320	9323	9329	1
9320	9321	9322	1
9320	9321	9328	1
9320	9326	9327	1
9323	9324	9325	1
9323	9324	9331	1
9323	9320	9321	1
9323	9320	9326	1
9324	9323	9329	1
9324	9325	9322	1
9324	9325	9330	1
9324	9331	9333	1
9325	9324	9331	1
9321	9322	9325	1
9325	9322	9332	1
9322	9325	9330	1
9322	9321	9328	1
9322	9332	9334	1
9321	9322	9332	1
9321	9320	9326	1
9349	9350	9351	1
9349	9350	9357	1
9349	9352	9353	1
9349	9352	9358	1
9349	9355	9356	1
9350	9351	9354	1
9350	9351	9361	1
9350	9349	9352	1
9350	9349	9355	1
9351	9350	9357	1
9351	9354	9353	1
9351	9354	9359	1
9351	9361	9363	1
9354	9351	9361	1
9352	9353	9354	1
9354	9353	9360	1
9353	9354	9359	1
9353	9352	9358	1
9353	9360	9362	1
9352	9353	9360	1
9352	9349	9355	1
9378	9379	9380	1
9378	9379	9386	1
9378	9381	9382	1
9378	9381	9387	1
9378	9384	9385	1
9379	9380	9383	1
9379	9380	9390	1
9379	9378	9381	1
9379	9378	9384	1
9380	9379	9386	1
9380	9383	9382	1
9380	9383	9388	1
9380	9390	9392	1
9383	9380	9390	1
9381	9382	9383	1
9383	9382	9389	1
9382	9383	9388	1
9382	9381	9387	1
9382	9389	9391	1
9381	9382	9389	1
9381	9378	9384	1
9407	9410	9411	1
9407	9410	9416	1
9407	9408	9409	1
9407	9408	9415	1
9407	9413	9414	1
9410	9411	9412	1
9410	9411	9418	1
9408	9407	9410	1
9410	9407	9413	1
9411	9410	9416	1
9409	9412	9411	1
9411	9412	9417	1
9411	9418	9420	1
9412	9411	9418	1
9408	9409	9412	1
9412	9409	9419	1
9409	9412	9417	1
9409	9408	9415	1
9409	9419	9421	1
9408	9409	9419	1
9408	9407	9413	1
9436	9439	9440	1
9436	9439	9445	1
9436	9437	9438	1
9436	9437	9444	1
9436	9442	9443	1
9439	9440	9441	1
9439	9440	9447	1
9437	9436	9439	1
9439	9436	9442	1
9440	9439	9445	1
9438	9441	9440	1
9440	9441	9446	1
9440	9447	9449	1
9441	9440	9447	1
9437	9438	9441	1
9441	9438	9448	1
9438	9441	9446	1
9438	9437	9444	1
9438	9448	9450	1
9437	9438	9448	1
9437	9436	9442	1
2237	2238	2239	1
2237	2238	2245	1
2237	2240	2241	1
2237	2240	2246	1
2237	2243	2244	1
2238	2239	2242	1
2238	2239	2249	1
2238	2237	2240	1
2238	2237	2243	1
2239	2238	2245	1
2239	2242	2241	1
2239	2242	2247	1
2239	2249	2251	1
2239	2249	2252	1
2242	2239	2249	1
2240	2241	2242	1
2242	2241	2248	1
2241	2242	2247	1
2241	2240	2246	1
2241	2248	2250	1
2240	2241	2248	1
2240	2237	2243	1
2249	2252	2253	1
2251	2249	2252	1
9451	9454	9455	1
9451	9454	9460	1
9451	9452	9453	1
9451	9452	9459	1
9451	9457	9458	1
9454	9455	9456	1
9454	9455	9462	1
9452	9451	9454	1
9454	9451	9457	1
9455	9454	9460	1
9453	9456	9455	1
9455	9456	9461	1
9455	9462	9464	1
9456	9455	9462	1
9452	9453	9456	1
9456	9453	9463	1
9453	9456	9461	1
9453	9452	9459	1
9453	9463	9465	1
9452	9453	9463	1
9452	9451	9457	1
9480	9483	9484	1
9480	9483	9489	1
9480	9481	9482	1
9480	9481	9488	1
9480	9486	9487	1
9483	9484	9485	1
9483	9484	9491	1
9481	9480	9483	1
9483	9480	9486	1
9484	9483	9489	1
9482	9485	9484	1
9484	9485	9490	1
9484	9491	9493	1
9485	9484	9491	1
9481	9482	9485	1
9485	9482	9492	1
9482	9485	9490	1
9482	9481	9488	1
9482	9492	9494	1
9481	9482	9492	1
9481	9480	9486	1
9509	9510	9511	1
9509	9510	9517	1
9509	9512	9513	1
9509	9512	9518	1
9509	9515	9516	1
9510	9511	9514	1
9510	9511	9521	1
9512	9509	9510	1
9510	9509	9515	1
9511	9510	9517	1
9513	9514	9511	1
9511	9514	9519	1
9511	9521	9523	1
9514	9511	9521	1
9512	9513	9514	1
9514	9513	9520	1
9513	9514	9519	1
9513	9512	9518	1
9513	9520	9522	1
9512	9513	9520	1
9512	9509	9515	1
9538	9541	9542	1
9538	9541	9547	1
9538	9539	9540	1
9538	9539	9546	1
9538	9544	9545	1
9541	9542	9543	1
9541	9542	9549	1
9541	9538	9539	1
9541	9538	9544	1
9542	9541	9547	1
9542	9543	9540	1
9542	9543	9548	1
9542	9549	9551	1
9543	9542	9549	1
9539	9540	9543	1
9543	9540	9550	1
9540	9543	9548	1
9540	9539	9546	1
9540	9550	9552	1
9539	9540	9550	1
9539	9538	9544	1
9553	9554	9555	1
9553	9554	9561	1
9553	9556	9557	1
9553	9556	9562	1
9553	9559	9560	1
9554	9555	9558	1
9554	9555	9565	1
9554	9553	9556	1
9554	9553	9559	1
9555	9554	9561	1
9555	9558	9557	1
9555	9558	9563	1
9555	9565	9567	1
9558	9555	9565	1
9556	9557	9558	1
9558	9557	9564	1
9557	9558	9563	1
9557	9556	9562	1
9557	9564	9566	1
9556	9557	9564	1
9556	9553	9559	1
2272	2273	2270	1
2272	2273	2278	1
2272	2271	2268	1
2272	2271	2277	1
2272	2279	2281	1
2273	2270	2269	1
2273	2270	2280	1
2273	2272	2271	1
2273	2272	2279	1
2270	2273	2278	1
2270	2269	2268	1
2270	2269	2276	1
2270	2280	2282	1
2270	2280	2283	1
2269	2270	2280	1
2271	2268	2269	1
2269	2268	2274	1
2268	2269	2276	1
2268	2271	2277	1
2268	2274	2275	1
2271	2268	2274	1
2271	2272	2279	1
2280	2283	2284	1
2282	2280	2283	1
9568	9569	9570	1
9568	9569	9576	1
9568	9571	9572	1
9568	9571	9577	1
9568	9574	9575	1
9569	9570	9573	1
9569	9570	9580	1
9569	9568	9571	1
9569	9568	9574	1
9570	9569	9576	1
9570	9573	9572	1
9570	9573	9578	1
9570	9580	9582	1
9573	9570	9580	1
9571	9572	9573	1
9573	9572	9579	1
9572	9573	9578	1
9572	9571	9577	1
9572	9579	9581	1
9571	9572	9579	1
9571	9568	9574	1
9597	9598	9599	1
9597	9598	9605	1
9597	9600	9601	1
9597	9600	9606	1
9597	9603	9604	1
9598	9599	9602	1
9598	9599	9609	1
9598	9597	9600	1
9598	9597	9603	1
9599	9598	9605	1
9599	9602	9601	1
9599	9602	9607	1
9599	9609	9611	1
9602	9599	9609	1
9600	9601	9602	1
9602	9601	9608	1
9601	9602	9607	1
9601	9600	9606	1
9601	9608	9610	1
9600	9601	9608	1
9600	9597	9603	1
9626	9627	9628	1
9626	9627	9634	1
9626	9629	9630	1
9626	9629	9635	1
9626	9632	9633	1
9627	9628	9631	1
9627	9628	9638	1
9627	9626	9629	1
9627	9626	9632	1
9628	9627	9634	1
9628	9631	9630	1
9628	9631	9636	1
9628	9638	9640	1
9631	9628	9638	1
9629	9630	9631	1
9631	9630	9637	1
9630	9631	9636	1
9630	9629	9635	1
9630	9637	9639	1
9629	9630	9637	1
9629	9626	9632	1
9641	9644	9645	1
9641	9644	9650	1
9641	9642	9643	1
9641	9642	9649	1
9641	9647	9648	1
9644	9645	9646	1
9644	9645	9652	1
9642	9641	9644	1
9644	9641	9647	1
9645	9644	9650	1
9643	9646	9645	1
9645	9646	9651	1
9645	9652	9654	1
9646	9645	9652	1
9642	9643	9646	1
9646	9643	9653	1
9643	9646	9651	1
9643	9642	9649	1
9643	9653	9655	1
9642	9643	9653	1
9642	9641	9647	1
9656	9659	9660	1
9656	9659	9665	1
9656	9657	9658	1
9656	9657	9664	1
9656	9662	9663	1
9659	9660	9661	1
9659	9660	9667	1
9657	9656	9659	1
9659	9656	9662	1
9660	9659	9665	1
9658	9661	9660	1
9660	9661	9666	1
9660	9667	9669	1
9661	9660	9667	1
9657	9658	9661	1
9661	9658	9668	1
9658	9661	9666	1
9658	9657	9664	1
9658	9668	9670	1
9657	9658	9668	1
9657	9656	9662	1
9671	9672	9673	1
9671	9672	9679	1
9671	9674	9675	1
9671	9674	9680	1
9671	9677	9678	1
9672	9673	9676	1
9672	9673	9683	1
9674	9671	9672	1
9672	9671	9677	1
9673	9672	9679	1
9675	9676	9673	1
9673	9676	9681	1
9673	9683	9685	1
9676	9673	9683	1
9674	9675	9676	1
9676	9675	9682	1
9675	9676	9681	1
9675	9674	9680	1
9675	9682	9684	1
9674	9675	9682	1
9674	9671	9677	1
9702	9701	9700	1
9702	9701	9708	1
9702	9705	9704	1
9702	9705	9710	1
9702	9712	9714	1
9701	9700	9703	1
9701	9700	9706	1
9705	9702	9701	1
9701	9702	9712	1
9700	9701	9708	1
9704	9703	9700	1
9700	9703	9709	1
9700	9706	9707	1
9703	9700	9706	1
9705	9704	9703	1
9703	9704	9711	1
9704	9703	9709	1
9704	9705	9710	1
9704	9711	9713	1
9705	9704	9711	1
9705	9702	9712	1
9729	9730	9731	1
9729	9730	9737	1
9729	9732	9733	1
9729	9732	9738	1
9729	9735	9736	1
9730	9731	9734	1
9730	9731	9741	1
9730	9729	9732	1
9730	9729	9735	1
9731	9730	9737	1
9731	9734	9733	1
9731	9734	9739	1
9731	9741	9743	1
9734	9731	9741	1
9732	9733	9734	1
9734	9733	9740	1
9733	9734	9739	1
9733	9732	9738	1
9733	9740	9742	1
9732	9733	9740	1
9732	9729	9735	1
9758	9759	9760	1
9758	9759	9766	1
9758	9761	9762	1
9758	9761	9767	1
9758	9764	9765	1
9759	9760	9763	1
9759	9760	9770	1
9759	9758	9761	1
9759	9758	9764	1
9760	9759	9766	1
9760	9763	9762	1
9760	9763	9768	1
9760	9770	9772	1
9763	9760	9770	1
9761	9762	9763	1
9763	9762	9769	1
9762	9763	9768	1
9762	9761	9767	1
9762	9769	9771	1
9761	9762	9769	1
9761	9758	9764	1
9773	9774	9775	1
9773	9774	9781	1
9773	9776	9777	1
9773	9776	9782	1
9773	9779	9780	1
9774	9775	9778	1
9774	9775	9785	1
9774	9773	9776	1
9774	9773	9779	1
9775	9774	9781	1
9775	9778	9777	1
9775	9778	9783	1
9775	9785	9787	1
9778	9775	9785	1
9776	9777	9778	1
9778	9777	9784	1
9777	9778	9783	1
9777	9776	9782	1
9777	9784	9786	1
9776	9777	9784	1
9776	9773	9779	1
2299	2300	2301	1
2299	2300	2307	1
2299	2302	2303	1
2299	2302	2308	1
2299	2305	2306	1
2300	2301	2304	1
2300	2301	2311	1
2300	2299	2302	1
2300	2299	2305	1
2301	2300	2307	1
2301	2304	2303	1
2301	2304	2309	1
2301	2311	2313	1
2301	2311	2314	1
2304	2301	2311	1
2302	2303	2304	1
2304	2303	2310	1
2303	2304	2309	1
2303	2302	2308	1
2303	2310	2312	1
2302	2303	2310	1
2302	2299	2305	1
2311	2314	2315	1
2313	2311	2314	1
2330	2331	2332	1
2332	2331	2338	1
2332	2335	2334	1
2332	2335	2340	1
2332	2342	2344	1
2332	2342	2345	1
2331	2330	2333	1
2331	2330	2336	1
2331	2332	2335	1
2331	2332	2342	1
2330	2331	2338	1
2330	2333	2334	1
2330	2333	2339	1
2330	2336	2337	1
2333	2330	2336	1
2333	2334	2335	1
2333	2334	2341	1
2334	2333	2339	1
2334	2335	2340	1
2334	2341	2343	1
2335	2334	2341	1
2335	2332	2342	1
2342	2345	2346	1
2344	2342	2345	1
233	232	231	1
231	232	243	1
235	236	231	1
231	236	245	1
231	229	230	1
231	229	228	1
234	233	232	1
232	233	239	1
236	231	232	1
232	231	229	1
233	232	243	1
235	234	233	1
233	234	244	1
233	239	240	1
233	239	241	1
234	233	239	1
234	235	236	1
234	235	237	1
235	234	244	1
235	236	245	1
235	237	238	1
236	235	237	1
236	231	229	1
229	228	242	1
230	229	228	1
240	239	241	1
9802	9805	9806	1
9802	9805	9811	1
9802	9803	9804	1
9802	9803	9810	1
9802	9808	9809	1
9805	9806	9807	1
9805	9806	9813	1
9803	9802	9805	1
9805	9802	9808	1
9806	9805	9811	1
9804	9807	9806	1
9806	9807	9812	1
9806	9813	9815	1
9807	9806	9813	1
9803	9804	9807	1
9807	9804	9814	1
9804	9807	9812	1
9804	9803	9810	1
9804	9814	9816	1
9803	9804	9814	1
9803	9802	9808	1
9831	9832	9833	1
9831	9832	9839	1
9831	9834	9835	1
9831	9834	9840	1
9831	9837	9838	1
9832	9833	9836	1
9832	9833	9843	1
9832	9831	9834	1
9832	9831	9837	1
9833	9832	9839	1
9833	9836	9835	1
9833	9836	9841	1
9833	9843	9845	1
9836	9833	9843	1
9834	9835	9836	1
9836	9835	9842	1
9835	9836	9841	1
9835	9834	9840	1
9835	9842	9844	1
9834	9835	9842	1
9834	9831	9837	1
9860	9861	9862	1
9860	9861	9868	1
9860	9863	9864	1
9860	9863	9869	1
9860	9866	9867	1
9861	9862	9865	1
9861	9862	9872	1
9861	9860	9863	1
9861	9860	9866	1
9862	9861	9868	1
9862	9865	9864	1
9862	9865	9870	1
9862	9872	9874	1
9865	9862	9872	1
9863	9864	9865	1
9865	9864	9871	1
9864	9865	9870	1
9864	9863	9869	1
9864	9871	9873	1
9863	9864	9871	1
9863	9860	9866	1
9889	9892	9893	1
9889	9892	9898	1
9889	9890	9891	1
9889	9890	9897	1
9889	9895	9896	1
9892	9893	9894	1
9892	9893	9900	1
9892	9889	9890	1
9892	9889	9895	1
9893	9892	9898	1
9893	9894	9891	1
9893	9894	9899	1
9893	9900	9902	1
9894	9893	9900	1
9890	9891	9894	1
9894	9891	9901	1
9891	9894	9899	1
9891	9890	9897	1
9891	9901	9903	1
9890	9891	9901	1
9890	9889	9895	1
9904	9907	9908	1
9904	9907	9913	1
9904	9905	9906	1
9904	9905	9912	1
9904	9910	9911	1
9907	9908	9909	1
9907	9908	9915	1
9907	9904	9905	1
9907	9904	9910	1
9908	9907	9913	1
9908	9909	9906	1
9908	9909	9914	1
9908	9915	9917	1
9909	9908	9915	1
9905	9906	9909	1
9909	9906	9916	1
9906	9909	9914	1
9906	9905	9912	1
9906	9916	9918	1
9905	9906	9916	1
9905	9904	9910	1
2361	2362	2363	1
2361	2362	2369	1
2361	2364	2365	1
2361	2364	2370	1
2361	2367	2368	1
2362	2363	2366	1
2362	2363	2373	1
2362	2361	2364	1
2362	2361	2367	1
2363	2362	2369	1
2363	2366	2365	1
2363	2366	2371	1
2363	2373	2375	1
2363	2373	2376	1
2366	2363	2373	1
2364	2365	2366	1
2366	2365	2372	1
2365	2366	2371	1
2365	2364	2370	1
2365	2372	2374	1
2364	2365	2372	1
2364	2361	2367	1
2373	2376	2377	1
2375	2373	2376	1
9933	9934	9935	1
9933	9934	9941	1
9933	9936	9937	1
9933	9936	9942	1
9933	9939	9940	1
9934	9935	9938	1
9934	9935	9945	1
9934	9933	9936	1
9934	9933	9939	1
9935	9934	9941	1
9935	9938	9937	1
9935	9938	9943	1
9935	9945	9947	1
9938	9935	9945	1
9936	9937	9938	1
9938	9937	9944	1
9937	9938	9943	1
9937	9936	9942	1
9937	9944	9946	1
9936	9937	9944	1
9936	9933	9939	1
9948	9951	9952	1
9948	9951	9957	1
9948	9949	9950	1
9948	9949	9956	1
9948	9954	9955	1
9951	9952	9953	1
9951	9952	9959	1
9949	9948	9951	1
9951	9948	9954	1
9952	9951	9957	1
9950	9953	9952	1
9952	9953	9958	1
9952	9959	9961	1
9953	9952	9959	1
9949	9950	9953	1
9953	9950	9960	1
9950	9953	9958	1
9950	9949	9956	1
9950	9960	9962	1
9949	9950	9960	1
9949	9948	9954	1
260	263	264	1
260	263	269	1
260	261	262	1
260	261	268	1
260	266	267	1
263	264	265	1
263	264	271	1
261	260	263	1
263	260	266	1
264	263	269	1
262	265	264	1
264	265	270	1
264	271	273	1
264	271	275	1
265	264	271	1
261	262	265	1
265	262	272	1
262	265	270	1
262	261	268	1
262	272	274	1
262	272	277	1
261	262	272	1
261	260	266	1
272	277	278	1
271	275	276	1
274	272	277	1
273	271	275	1
9977	9978	9979	1
9977	9978	9985	1
9977	9980	9981	1
9977	9980	9986	1
9977	9983	9984	1
9978	9979	9982	1
9978	9979	9989	1
9978	9977	9980	1
9978	9977	9983	1
9979	9978	9985	1
9979	9982	9981	1
9979	9982	9987	1
9979	9989	9991	1
9982	9979	9989	1
9980	9981	9982	1
9982	9981	9988	1
9981	9982	9987	1
9981	9980	9986	1
9981	9988	9990	1
9980	9981	9988	1
9980	9977	9983	1
10006	10007	10008	1
10006	10007	10014	1
10006	10009	10010	1
10006	10009	10015	1
10006	10012	10013	1
10007	10008	10011	1
10007	10008	10018	1
10007	10006	10009	1
10007	10006	10012	1
10008	10007	10014	1
10008	10011	10010	1
10008	10011	10016	1
10008	10018	10020	1
10011	10008	10018	1
10009	10010	10011	1
10011	10010	10017	1
10010	10011	10016	1
10010	10009	10015	1
10010	10017	10019	1
10009	10010	10017	1
10009	10006	10012	1
10035	10038	10039	1
10035	10038	10044	1
10035	10036	10037	1
10035	10036	10043	1
10035	10041	10042	1
10038	10039	10040	1
10038	10039	10046	1
10036	10035	10038	1
10038	10035	10041	1
10039	10038	10044	1
10037	10040	10039	1
10039	10040	10045	1
10039	10046	10048	1
10040	10039	10046	1
10036	10037	10040	1
10040	10037	10047	1
10037	10040	10045	1
10037	10036	10043	1
10037	10047	10049	1
10036	10037	10047	1
10036	10035	10041	1
10064	10067	10068	1
10064	10067	10073	1
10064	10065	10066	1
10064	10065	10072	1
10064	10070	10071	1
10067	10068	10069	1
10067	10068	10075	1
10065	10064	10067	1
10067	10064	10070	1
10068	10067	10073	1
10066	10069	10068	1
10068	10069	10074	1
10068	10075	10077	1
10069	10068	10075	1
10065	10066	10069	1
10069	10066	10076	1
10066	10069	10074	1
10066	10065	10072	1
10066	10076	10078	1
10065	10066	10076	1
10065	10064	10070	1
10095	10094	10093	1
10095	10094	10101	1
10095	10098	10097	1
10095	10098	10103	1
10095	10105	10107	1
10094	10093	10096	1
10094	10093	10099	1
10098	10095	10094	1
10094	10095	10105	1
10093	10094	10101	1
10097	10096	10093	1
10093	10096	10102	1
10093	10099	10100	1
10096	10093	10099	1
10098	10097	10096	1
10096	10097	10104	1
10097	10096	10102	1
10097	10098	10103	1
10097	10104	10106	1
10098	10097	10104	1
10098	10095	10105	1
10122	10123	10124	1
10122	10123	10130	1
10122	10125	10126	1
10122	10125	10131	1
10122	10128	10129	1
10123	10124	10127	1
10123	10124	10134	1
10125	10122	10123	1
10123	10122	10128	1
10124	10123	10130	1
10126	10127	10124	1
10124	10127	10132	1
10124	10134	10136	1
10127	10124	10134	1
10125	10126	10127	1
10127	10126	10133	1
10126	10127	10132	1
10126	10125	10131	1
10126	10133	10135	1
10125	10126	10133	1
10125	10122	10128	1
10155	10156	10153	1
10155	10156	10161	1
10155	10154	10151	1
10155	10154	10160	1
10155	10162	10164	1
10156	10153	10152	1
10156	10153	10163	1
10156	10155	10154	1
10156	10155	10162	1
10153	10156	10161	1
10153	10152	10151	1
10153	10152	10159	1
10153	10163	10165	1
10152	10153	10163	1
10154	10151	10152	1
10152	10151	10157	1
10151	10152	10159	1
10151	10154	10160	1
10151	10157	10158	1
10154	10151	10157	1
10154	10155	10162	1
10180	10181	10182	1
10180	10181	10188	1
10180	10183	10184	1
10180	10183	10189	1
10180	10186	10187	1
10181	10182	10185	1
10181	10182	10192	1
10181	10180	10183	1
10181	10180	10186	1
10182	10181	10188	1
10182	10185	10184	1
10182	10185	10190	1
10182	10192	10194	1
10185	10182	10192	1
10183	10184	10185	1
10185	10184	10191	1
10184	10185	10190	1
10184	10183	10189	1
10184	10191	10193	1
10183	10184	10191	1
10183	10180	10186	1
10209	10210	10211	1
10209	10210	10217	1
10209	10212	10213	1
10209	10212	10218	1
10209	10215	10216	1
10210	10211	10214	1
10210	10211	10221	1
10210	10209	10212	1
10210	10209	10215	1
10211	10210	10217	1
10211	10214	10213	1
10211	10214	10219	1
10211	10221	10223	1
10214	10211	10221	1
10212	10213	10214	1
10214	10213	10220	1
10213	10214	10219	1
10213	10212	10218	1
10213	10220	10222	1
10212	10213	10220	1
10212	10209	10215	1
10238	10239	10240	1
10238	10239	10246	1
10238	10241	10242	1
10238	10241	10247	1
10238	10244	10245	1
10239	10240	10243	1
10239	10240	10250	1
10239	10238	10241	1
10239	10238	10244	1
10240	10239	10246	1
10240	10243	10242	1
10240	10243	10248	1
10240	10250	10252	1
10243	10240	10250	1
10241	10242	10243	1
10243	10242	10249	1
10242	10243	10248	1
10242	10241	10247	1
10242	10249	10251	1
10241	10242	10249	1
10241	10238	10244	1
10267	10270	10271	1
10267	10270	10276	1
10267	10268	10269	1
10267	10268	10275	1
10267	10273	10274	1
10270	10271	10272	1
10270	10271	10278	1
10268	10267	10270	1
10270	10267	10273	1
10271	10270	10276	1
10269	10272	10271	1
10271	10272	10277	1
10271	10278	10280	1
10272	10271	10278	1
10268	10269	10272	1
10272	10269	10279	1
10269	10272	10277	1
10269	10268	10275	1
10269	10279	10281	1
10268	10269	10279	1
10268	10267	10273	1
10282	10285	10286	1
10282	10285	10291	1
10282	10283	10284	1
10282	10283	10290	1
10282	10288	10289	1
10285	10286	10287	1
10285	10286	10293	1
10283	10282	10285	1
10285	10282	10288	1
10286	10285	10291	1
10284	10287	10286	1
10286	10287	10292	1
10286	10293	10295	1
10287	10286	10293	1
10283	10284	10287	1
10287	10284	10294	1
10284	10287	10292	1
10284	10283	10290	1
10284	10294	10296	1
10283	10284	10294	1
10283	10282	10288	1
10311	10312	10313	1
10311	10312	10319	1
10311	10314	10315	1
10311	10314	10320	1
10311	10317	10318	1
10312	10313	10316	1
10312	10313	10323	1
10314	10311	10312	1
10312	10311	10317	1
10313	10312	10319	1
10315	10316	10313	1
10313	10316	10321	1
10313	10323	10325	1
10316	10313	10323	1
10314	10315	10316	1
10316	10315	10322	1
10315	10316	10321	1
10315	10314	10320	1
10315	10322	10324	1
10314	10315	10322	1
10314	10311	10317	1
10340	10341	10342	1
10340	10341	10348	1
10340	10343	10344	1
10340	10343	10349	1
10340	10346	10347	1
10341	10342	10345	1
10341	10342	10352	1
10343	10340	10341	1
10341	10340	10346	1
10342	10341	10348	1
10344	10345	10342	1
10342	10345	10350	1
10342	10352	10354	1
10345	10342	10352	1
10343	10344	10345	1
10345	10344	10351	1
10344	10345	10350	1
10344	10343	10349	1
10344	10351	10353	1
10343	10344	10351	1
10343	10340	10346	1
10369	10370	10371	1
10369	10370	10377	1
10369	10372	10373	1
10369	10372	10378	1
10369	10375	10376	1
10370	10371	10374	1
10370	10371	10381	1
10370	10369	10372	1
10370	10369	10375	1
10371	10370	10377	1
10371	10374	10373	1
10371	10374	10379	1
10371	10381	10383	1
10374	10371	10381	1
10372	10373	10374	1
10374	10373	10380	1
10373	10374	10379	1
10373	10372	10378	1
10373	10380	10382	1
10372	10373	10380	1
10372	10369	10375	1
2392	2393	2394	1
2392	2393	2400	1
2392	2395	2396	1
2392	2395	2401	1
2392	2398	2399	1
2393	2394	2397	1
2393	2394	2404	1
2393	2392	2395	1
2393	2392	2398	1
2394	2393	2400	1
2394	2397	2396	1
2394	2397	2402	1
2394	2404	2406	1
2394	2404	2407	1
2397	2394	2404	1
2395	2396	2397	1
2397	2396	2403	1
2396	2397	2402	1
2396	2395	2401	1
2396	2403	2405	1
2395	2396	2403	1
2395	2392	2398	1
2404	2407	2408	1
2406	2404	2407	1
10384	10385	10386	1
10384	10385	10392	1
10384	10387	10388	1
10384	10387	10393	1
10384	10390	10391	1
10385	10386	10389	1
10385	10386	10396	1
10385	10384	10387	1
10385	10384	10390	1
10386	10385	10392	1
10386	10389	10388	1
10386	10389	10394	1
10386	10396	10398	1
10389	10386	10396	1
10387	10388	10389	1
10389	10388	10395	1
10388	10389	10394	1
10388	10387	10393	1
10388	10395	10397	1
10387	10388	10395	1
10387	10384	10390	1
10399	10400	10401	1
10399	10400	10407	1
10399	10402	10403	1
10399	10402	10408	1
10399	10405	10406	1
10400	10401	10404	1
10400	10401	10411	1
10400	10399	10402	1
10400	10399	10405	1
10401	10400	10407	1
10401	10404	10403	1
10401	10404	10409	1
10401	10411	10413	1
10404	10401	10411	1
10402	10403	10404	1
10404	10403	10410	1
10403	10404	10409	1
10403	10402	10408	1
10403	10410	10412	1
10402	10403	10410	1
10402	10399	10405	1
10414	10417	10418	1
10414	10417	10423	1
10414	10415	10416	1
10414	10415	10422	1
10414	10420	10421	1
10417	10418	10419	1
10417	10418	10425	1
10415	10414	10417	1
10417	10414	10420	1
10418	10417	10423	1
10416	10419	10418	1
10418	10419	10424	1
10418	10425	10427	1
10419	10418	10425	1
10415	10416	10419	1
10419	10416	10426	1
10416	10419	10424	1
10416	10415	10422	1
10416	10426	10428	1
10415	10416	10426	1
10415	10414	10420	1
10443	10446	10447	1
10443	10446	10452	1
10443	10444	10445	1
10443	10444	10451	1
10443	10449	10450	1
10446	10447	10448	1
10446	10447	10454	1
10444	10443	10446	1
10446	10443	10449	1
10447	10446	10452	1
10445	10448	10447	1
10447	10448	10453	1
10447	10454	10456	1
10448	10447	10454	1
10444	10445	10448	1
10448	10445	10455	1
10445	10448	10453	1
10445	10444	10451	1
10445	10455	10457	1
10444	10445	10455	1
10444	10443	10449	1
10458	10461	10462	1
10458	10461	10467	1
10458	10459	10460	1
10458	10459	10466	1
10458	10464	10465	1
10461	10462	10463	1
10461	10462	10469	1
10459	10458	10461	1
10461	10458	10464	1
10462	10461	10467	1
10460	10463	10462	1
10462	10463	10468	1
10462	10469	10471	1
10463	10462	10469	1
10459	10460	10463	1
10463	10460	10470	1
10460	10463	10468	1
10460	10459	10466	1
10460	10470	10472	1
10459	10460	10470	1
10459	10458	10464	1
10491	10492	10489	1
10491	10492	10497	1
10491	10490	10487	1
10491	10490	10496	1
10491	10498	10500	1
10492	10489	10488	1
10492	10489	10499	1
10490	10491	10492	1
10492	10491	10498	1
10489	10492	10497	1
10487	10488	10489	1
10489	10488	10495	1
10489	10499	10501	1
10488	10489	10499	1
10490	10487	10488	1
10488	10487	10493	1
10487	10488	10495	1
10487	10490	10496	1
10487	10493	10494	1
10490	10487	10493	1
10490	10491	10498	1
10502	10505	10506	1
10502	10505	10511	1
10502	10503	10504	1
10502	10503	10510	1
10502	10508	10509	1
10505	10506	10507	1
10505	10506	10513	1
10505	10502	10503	1
10505	10502	10508	1
10506	10505	10511	1
10506	10507	10504	1
10506	10507	10512	1
10506	10513	10515	1
10507	10506	10513	1
10503	10504	10507	1
10507	10504	10514	1
10504	10507	10512	1
10504	10503	10510	1
10504	10514	10516	1
10503	10504	10514	1
10503	10502	10508	1
10531	10532	10533	1
10531	10532	10539	1
10531	10534	10535	1
10531	10534	10540	1
10531	10537	10538	1
10532	10533	10536	1
10532	10533	10543	1
10532	10531	10534	1
10532	10531	10537	1
10533	10532	10539	1
10533	10536	10535	1
10533	10536	10541	1
10533	10543	10545	1
10536	10533	10543	1
10534	10535	10536	1
10536	10535	10542	1
10535	10536	10541	1
10535	10534	10540	1
10535	10542	10544	1
10534	10535	10542	1
10534	10531	10537	1
10546	10547	10548	1
10546	10547	10554	1
10546	10549	10550	1
10546	10549	10555	1
10546	10552	10553	1
10547	10548	10551	1
10547	10548	10558	1
10547	10546	10549	1
10547	10546	10552	1
10548	10547	10554	1
10548	10551	10550	1
10548	10551	10556	1
10548	10558	10560	1
10551	10548	10558	1
10549	10550	10551	1
10551	10550	10557	1
10550	10551	10556	1
10550	10549	10555	1
10550	10557	10559	1
10549	10550	10557	1
10549	10546	10552	1
2423	2424	2425	1
2423	2424	2431	1
2423	2426	2427	1
2423	2426	2432	1
2423	2429	2430	1
2424	2425	2428	1
2424	2425	2435	1
2424	2423	2426	1
2424	2423	2429	1
2425	2424	2431	1
2425	2428	2427	1
2425	2428	2433	1
2425	2435	2437	1
2425	2435	2438	1
2428	2425	2435	1
2426	2427	2428	1
2428	2427	2434	1
2427	2428	2433	1
2427	2426	2432	1
2427	2434	2436	1
2426	2427	2434	1
2426	2423	2429	1
2435	2438	2439	1
2437	2435	2438	1
10561	10562	10563	1
10561	10562	10569	1
10561	10564	10565	1
10561	10564	10570	1
10561	10567	10568	1
10562	10563	10566	1
10562	10563	10573	1
10562	10561	10564	1
10562	10561	10567	1
10563	10562	10569	1
10563	10566	10565	1
10563	10566	10571	1
10563	10573	10575	1
10566	10563	10573	1
10564	10565	10566	1
10566	10565	10572	1
10565	10566	10571	1
10565	10564	10570	1
10565	10572	10574	1
10564	10565	10572	1
10564	10561	10567	1
2454	2455	2456	1
2454	2455	2462	1
2454	2457	2458	1
2454	2457	2463	1
2454	2460	2461	1
2455	2456	2459	1
2455	2456	2466	1
2455	2454	2457	1
2455	2454	2460	1
2456	2455	2462	1
2456	2459	2458	1
2456	2459	2464	1
2456	2466	2468	1
2456	2466	2469	1
2459	2456	2466	1
2457	2458	2459	1
2459	2458	2465	1
2458	2459	2464	1
2458	2457	2463	1
2458	2465	2467	1
2457	2458	2465	1
2457	2454	2460	1
2466	2469	2470	1
2468	2466	2469	1
10590	10591	10592	1
10590	10591	10598	1
10590	10593	10594	1
10590	10593	10599	1
10590	10596	10597	1
10591	10592	10595	1
10591	10592	10602	1
10591	10590	10593	1
10591	10590	10596	1
10592	10591	10598	1
10592	10595	10594	1
10592	10595	10600	1
10592	10602	10604	1
10595	10592	10602	1
10593	10594	10595	1
10595	10594	10601	1
10594	10595	10600	1
10594	10593	10599	1
10594	10601	10603	1
10593	10594	10601	1
10593	10590	10596	1
2485	2486	2487	1
2485	2486	2493	1
2485	2488	2489	1
2485	2488	2494	1
2485	2491	2492	1
2486	2487	2490	1
2486	2487	2497	1
2486	2485	2488	1
2486	2485	2491	1
2487	2486	2493	1
2487	2490	2489	1
2487	2490	2495	1
2487	2497	2499	1
2487	2497	2500	1
2490	2487	2497	1
2488	2489	2490	1
2490	2489	2496	1
2489	2490	2495	1
2489	2488	2494	1
2489	2496	2498	1
2488	2489	2496	1
2488	2485	2491	1
2497	2500	2501	1
2499	2497	2500	1
10619	10620	10621	1
10621	10620	10627	1
10621	10624	10623	1
10621	10624	10629	1
10621	10631	10633	1
10620	10619	10622	1
10620	10619	10625	1
10620	10621	10624	1
10620	10621	10631	1
10619	10620	10627	1
10619	10622	10623	1
10619	10622	10628	1
10619	10625	10626	1
10622	10619	10625	1
10622	10623	10624	1
10622	10623	10630	1
10623	10622	10628	1
10623	10624	10629	1
10623	10630	10632	1
10624	10623	10630	1
10624	10621	10631	1
10648	10651	10652	1
10648	10651	10657	1
10648	10649	10650	1
10648	10649	10656	1
10648	10654	10655	1
10651	10652	10653	1
10651	10652	10659	1
10649	10648	10651	1
10651	10648	10654	1
10652	10651	10657	1
10650	10653	10652	1
10652	10653	10658	1
10652	10659	10661	1
10653	10652	10659	1
10649	10650	10653	1
10653	10650	10660	1
10650	10653	10658	1
10650	10649	10656	1
10650	10660	10662	1
10649	10650	10660	1
10649	10648	10654	1
10677	10678	10679	1
10677	10678	10685	1
10677	10680	10681	1
10677	10680	10686	1
10677	10683	10684	1
10678	10679	10682	1
10678	10679	10689	1
10680	10677	10678	1
10678	10677	10683	1
10679	10678	10685	1
10681	10682	10679	1
10679	10682	10687	1
10679	10689	10691	1
10682	10679	10689	1
10680	10681	10682	1
10682	10681	10688	1
10681	10682	10687	1
10681	10680	10686	1
10681	10688	10690	1
10680	10681	10688	1
10680	10677	10683	1
2516	2517	2518	1
2518	2517	2524	1
2518	2521	2520	1
2518	2521	2526	1
2518	2528	2530	1
2518	2528	2531	1
2517	2516	2519	1
2517	2516	2522	1
2517	2518	2521	1
2517	2518	2528	1
2516	2517	2524	1
2516	2519	2520	1
2516	2519	2525	1
2516	2522	2523	1
2519	2516	2522	1
2519	2520	2521	1
2519	2520	2527	1
2520	2519	2525	1
2520	2521	2526	1
2520	2527	2529	1
2521	2520	2527	1
2521	2518	2528	1
2528	2531	2532	1
2530	2528	2531	1
2547	2548	2549	1
2547	2548	2555	1
2547	2550	2551	1
2547	2550	2556	1
2547	2553	2554	1
2548	2549	2552	1
2548	2549	2559	1
2548	2547	2550	1
2548	2547	2553	1
2549	2548	2555	1
2549	2552	2551	1
2549	2552	2557	1
2549	2559	2561	1
2549	2559	2562	1
2552	2549	2559	1
2550	2551	2552	1
2552	2551	2558	1
2551	2552	2557	1
2551	2550	2556	1
2551	2558	2560	1
2550	2551	2558	1
2550	2547	2553	1
2559	2562	2563	1
2561	2559	2562	1
10706	10707	10708	1
10706	10707	10714	1
10706	10709	10710	1
10706	10709	10715	1
10706	10712	10713	1
10707	10708	10711	1
10707	10708	10718	1
10709	10706	10707	1
10707	10706	10712	1
10708	10707	10714	1
10710	10711	10708	1
10708	10711	10716	1
10708	10718	10720	1
10711	10708	10718	1
10709	10710	10711	1
10711	10710	10717	1
10710	10711	10716	1
10710	10709	10715	1
10710	10717	10719	1
10709	10710	10717	1
10709	10706	10712	1
10735	10738	10739	1
10735	10738	10744	1
10735	10736	10737	1
10735	10736	10743	1
10735	10741	10742	1
10738	10739	10740	1
10738	10739	10746	1
10736	10735	10738	1
10738	10735	10741	1
10739	10738	10744	1
10737	10740	10739	1
10739	10740	10745	1
10739	10746	10748	1
10740	10739	10746	1
10736	10737	10740	1
10740	10737	10747	1
10737	10740	10745	1
10737	10736	10743	1
10737	10747	10749	1
10736	10737	10747	1
10736	10735	10741	1
10752	10755	10754	1
10754	10755	10760	1
10750	10753	10754	1
10754	10753	10759	1
10754	10761	10763	1
10751	10752	10755	1
10755	10752	10762	1
10753	10754	10755	1
10755	10754	10761	1
10752	10755	10760	1
10750	10751	10752	1
10752	10751	10758	1
10752	10762	10764	1
10751	10752	10762	1
10751	10750	10753	1
10751	10750	10756	1
10750	10751	10758	1
10750	10753	10759	1
10750	10756	10757	1
10753	10750	10756	1
10753	10754	10761	1
10765	10768	10769	1
10765	10768	10774	1
10765	10766	10767	1
10765	10766	10773	1
10765	10771	10772	1
10768	10769	10770	1
10768	10769	10776	1
10766	10765	10768	1
10768	10765	10771	1
10769	10768	10774	1
10767	10770	10769	1
10769	10770	10775	1
10769	10776	10778	1
10770	10769	10776	1
10766	10767	10770	1
10770	10767	10777	1
10767	10770	10775	1
10767	10766	10773	1
10767	10777	10779	1
10766	10767	10777	1
10766	10765	10771	1
10794	10797	10798	1
10794	10797	10803	1
10794	10795	10796	1
10794	10795	10802	1
10794	10800	10801	1
10797	10798	10799	1
10797	10798	10805	1
10795	10794	10797	1
10797	10794	10800	1
10798	10797	10803	1
10796	10799	10798	1
10798	10799	10804	1
10798	10805	10807	1
10799	10798	10805	1
10795	10796	10799	1
10799	10796	10806	1
10796	10799	10804	1
10796	10795	10802	1
10796	10806	10808	1
10795	10796	10806	1
10795	10794	10800	1
10809	10810	10811	1
10809	10810	10817	1
10809	10812	10813	1
10809	10812	10818	1
10809	10815	10816	1
10810	10811	10814	1
10810	10811	10821	1
10810	10809	10812	1
10810	10809	10815	1
10811	10810	10817	1
10811	10814	10813	1
10811	10814	10819	1
10811	10821	10823	1
10814	10811	10821	1
10812	10813	10814	1
10814	10813	10820	1
10813	10814	10819	1
10813	10812	10818	1
10813	10820	10822	1
10812	10813	10820	1
10812	10809	10815	1
10838	10839	10840	1
10838	10839	10846	1
10838	10841	10842	1
10838	10841	10847	1
10838	10844	10845	1
10839	10840	10843	1
10839	10840	10850	1
10839	10838	10841	1
10839	10838	10844	1
10840	10839	10846	1
10840	10843	10842	1
10840	10843	10848	1
10840	10850	10852	1
10843	10840	10850	1
10841	10842	10843	1
10843	10842	10849	1
10842	10843	10848	1
10842	10841	10847	1
10842	10849	10851	1
10841	10842	10849	1
10841	10838	10844	1
10867	10870	10871	1
10867	10870	10876	1
10867	10868	10869	1
10867	10868	10875	1
10867	10873	10874	1
10870	10871	10872	1
10870	10871	10878	1
10870	10867	10868	1
10870	10867	10873	1
10871	10870	10876	1
10871	10872	10869	1
10871	10872	10877	1
10871	10878	10880	1
10872	10871	10878	1
10868	10869	10872	1
10872	10869	10879	1
10869	10872	10877	1
10869	10868	10875	1
10869	10879	10881	1
10868	10869	10879	1
10868	10867	10873	1
10882	10885	10886	1
10882	10885	10891	1
10882	10883	10884	1
10882	10883	10890	1
10882	10888	10889	1
10885	10886	10887	1
10885	10886	10893	1
10885	10882	10883	1
10885	10882	10888	1
10886	10885	10891	1
10886	10887	10884	1
10886	10887	10892	1
10886	10893	10895	1
10887	10886	10893	1
10883	10884	10887	1
10887	10884	10894	1
10884	10887	10892	1
10884	10883	10890	1
10884	10894	10896	1
10883	10884	10894	1
10883	10882	10888	1
10911	10912	10913	1
10911	10912	10919	1
10911	10914	10915	1
10911	10914	10920	1
10911	10917	10918	1
10912	10913	10916	1
10912	10913	10923	1
10912	10911	10914	1
10912	10911	10917	1
10913	10912	10919	1
10913	10916	10915	1
10913	10916	10921	1
10913	10923	10925	1
10916	10913	10923	1
10914	10915	10916	1
10916	10915	10922	1
10915	10916	10921	1
10915	10914	10920	1
10915	10922	10924	1
10914	10915	10922	1
10914	10911	10917	1
10940	10941	10942	1
10940	10941	10948	1
10940	10943	10944	1
10940	10943	10949	1
10940	10946	10947	1
10941	10942	10945	1
10941	10942	10952	1
10941	10940	10943	1
10941	10940	10946	1
10942	10941	10948	1
10942	10945	10944	1
10942	10945	10950	1
10942	10952	10954	1
10945	10942	10952	1
10943	10944	10945	1
10945	10944	10951	1
10944	10945	10950	1
10944	10943	10949	1
10944	10951	10953	1
10943	10944	10951	1
10943	10940	10946	1
10969	10970	10971	1
10969	10970	10977	1
10969	10972	10973	1
10969	10972	10978	1
10969	10975	10976	1
10970	10971	10974	1
10970	10971	10981	1
10970	10969	10972	1
10970	10969	10975	1
10971	10970	10977	1
10971	10974	10973	1
10971	10974	10979	1
10971	10981	10983	1
10974	10971	10981	1
10972	10973	10974	1
10974	10973	10980	1
10973	10974	10979	1
10973	10972	10978	1
10973	10980	10982	1
10972	10973	10980	1
10972	10969	10975	1
10984	10987	10988	1
10984	10987	10993	1
10984	10985	10986	1
10984	10985	10992	1
10984	10990	10991	1
10987	10988	10989	1
10987	10988	10995	1
10985	10984	10987	1
10987	10984	10990	1
10988	10987	10993	1
10986	10989	10988	1
10988	10989	10994	1
10988	10995	10997	1
10989	10988	10995	1
10985	10986	10989	1
10989	10986	10996	1
10986	10989	10994	1
10986	10985	10992	1
10986	10996	10998	1
10985	10986	10996	1
10985	10984	10990	1
10999	11002	11003	1
10999	11002	11008	1
10999	11000	11001	1
10999	11000	11007	1
10999	11005	11006	1
11002	11003	11004	1
11002	11003	11010	1
11000	10999	11002	1
11002	10999	11005	1
11003	11002	11008	1
11001	11004	11003	1
11003	11004	11009	1
11003	11010	11012	1
11004	11003	11010	1
11000	11001	11004	1
11004	11001	11011	1
11001	11004	11009	1
11001	11000	11007	1
11001	11011	11013	1
11000	11001	11011	1
11000	10999	11005	1
11014	11017	11018	1
11014	11017	11023	1
11014	11015	11016	1
11014	11015	11022	1
11014	11020	11021	1
11017	11018	11019	1
11017	11018	11025	1
11015	11014	11017	1
11017	11014	11020	1
11018	11017	11023	1
11016	11019	11018	1
11018	11019	11024	1
11018	11025	11027	1
11019	11018	11025	1
11015	11016	11019	1
11019	11016	11026	1
11016	11019	11024	1
11016	11015	11022	1
11016	11026	11028	1
11015	11016	11026	1
11015	11014	11020	1
11043	11044	11045	1
11043	11044	11051	1
11043	11046	11047	1
11043	11046	11052	1
11043	11049	11050	1
11044	11045	11048	1
11044	11045	11055	1
11046	11043	11044	1
11044	11043	11049	1
11045	11044	11051	1
11047	11048	11045	1
11045	11048	11053	1
11045	11055	11057	1
11048	11045	11055	1
11046	11047	11048	1
11048	11047	11054	1
11047	11048	11053	1
11047	11046	11052	1
11047	11054	11056	1
11046	11047	11054	1
11046	11043	11049	1
11058	11061	11062	1
11058	11061	11067	1
11058	11059	11060	1
11058	11059	11066	1
11058	11064	11065	1
11061	11062	11063	1
11061	11062	11069	1
11061	11058	11059	1
11061	11058	11064	1
11062	11061	11067	1
11062	11063	11060	1
11062	11063	11068	1
11062	11069	11071	1
11063	11062	11069	1
11059	11060	11063	1
11063	11060	11070	1
11060	11063	11068	1
11060	11059	11066	1
11060	11070	11072	1
11059	11060	11070	1
11059	11058	11064	1
2564	2567	2568	1
2564	2567	2573	1
2564	2565	2566	1
2564	2565	2572	1
2564	2570	2571	1
2567	2568	2569	1
2567	2568	2575	1
2565	2564	2567	1
2567	2564	2570	1
2568	2567	2573	1
2566	2569	2568	1
2568	2569	2574	1
2568	2575	2577	1
2569	2568	2575	1
2565	2566	2569	1
2569	2566	2576	1
2566	2569	2574	1
2566	2565	2572	1
2566	2576	2578	1
2566	2576	2579	1
2565	2566	2576	1
2565	2564	2570	1
2576	2579	2580	1
2578	2576	2579	1
11073	11074	11075	1
11073	11074	11081	1
11073	11076	11077	1
11073	11076	11082	1
11073	11079	11080	1
11074	11075	11078	1
11074	11075	11085	1
11074	11073	11076	1
11074	11073	11079	1
11075	11074	11081	1
11075	11078	11077	1
11075	11078	11083	1
11075	11085	11087	1
11078	11075	11085	1
11076	11077	11078	1
11078	11077	11084	1
11077	11078	11083	1
11077	11076	11082	1
11077	11084	11086	1
11076	11077	11084	1
11076	11073	11079	1
11088	11089	11090	1
11088	11089	11096	1
11088	11091	11092	1
11088	11091	11097	1
11088	11094	11095	1
11089	11090	11093	1
11089	11090	11100	1
11089	11088	11091	1
11089	11088	11094	1
11090	11089	11096	1
11090	11093	11092	1
11090	11093	11098	1
11090	11100	11102	1
11093	11090	11100	1
11091	11092	11093	1
11093	11092	11099	1
11092	11093	11098	1
11092	11091	11097	1
11092	11099	11101	1
11091	11092	11099	1
11091	11088	11094	1
11117	11118	11119	1
11117	11118	11125	1
11117	11120	11121	1
11117	11120	11126	1
11117	11123	11124	1
11118	11119	11122	1
11118	11119	11129	1
11118	11117	11120	1
11118	11117	11123	1
11119	11118	11125	1
11119	11122	11121	1
11119	11122	11127	1
11119	11129	11131	1
11122	11119	11129	1
11120	11121	11122	1
11122	11121	11128	1
11121	11122	11127	1
11121	11120	11126	1
11121	11128	11130	1
11120	11121	11128	1
11120	11117	11123	1
11146	11147	11148	1
11146	11147	11154	1
11146	11149	11150	1
11146	11149	11155	1
11146	11152	11153	1
11147	11148	11151	1
11147	11148	11158	1
11147	11146	11149	1
11147	11146	11152	1
11148	11147	11154	1
11148	11151	11150	1
11148	11151	11156	1
11148	11158	11160	1
11151	11148	11158	1
11149	11150	11151	1
11151	11150	11157	1
11150	11151	11156	1
11150	11149	11155	1
11150	11157	11159	1
11149	11150	11157	1
11149	11146	11152	1
2595	2596	2597	1
2595	2596	2603	1
2595	2598	2599	1
2595	2598	2604	1
2595	2601	2602	1
2596	2597	2600	1
2596	2597	2607	1
2596	2595	2598	1
2596	2595	2601	1
2597	2596	2603	1
2597	2600	2599	1
2597	2600	2605	1
2597	2607	2609	1
2597	2607	2610	1
2600	2597	2607	1
2598	2599	2600	1
2600	2599	2606	1
2599	2600	2605	1
2599	2598	2604	1
2599	2606	2608	1
2598	2599	2606	1
2598	2595	2601	1
2607	2610	2611	1
2609	2607	2610	1
11161	11162	11163	1
11161	11162	11169	1
11161	11164	11165	1
11161	11164	11170	1
11161	11167	11168	1
11162	11163	11166	1
11162	11163	11173	1
11162	11161	11164	1
11162	11161	11167	1
11163	11162	11169	1
11163	11166	11165	1
11163	11166	11171	1
11163	11173	11175	1
11166	11163	11173	1
11164	11165	11166	1
11166	11165	11172	1
11165	11166	11171	1
11165	11164	11170	1
11165	11172	11174	1
11164	11165	11172	1
11164	11161	11167	1
11176	11179	11180	1
11176	11179	11185	1
11176	11177	11178	1
11176	11177	11184	1
11176	11182	11183	1
11179	11180	11181	1
11179	11180	11187	1
11177	11176	11179	1
11179	11176	11182	1
11180	11179	11185	1
11178	11181	11180	1
11180	11181	11186	1
11180	11187	11189	1
11181	11180	11187	1
11177	11178	11181	1
11181	11178	11188	1
11178	11181	11186	1
11178	11177	11184	1
11178	11188	11190	1
11177	11178	11188	1
11177	11176	11182	1

[ dihedrals ]
5326	5325	5324	5335	9
5329	5325	5324	5335	9
5328	5323	5324	5335	9
5331	5323	5324	5335	9
5335	6386	6376	6375	9
5335	6386	6376	6379	9
5324	5325	5326	5333	9
5329	5325	5326	5333	9
5328	5327	5326	5333	9
5330	5327	5326	5333	9
5333	5343	5337	5340	9
5333	5343	5337	5338	9
5324	5335	6386	6376	9
5324	5335	6386	6388	9
5324	5325	5326	5327	9
5324	5323	5328	5327	9
5324	5323	5328	5332	9
5326	5333	5343	5337	9
5326	5333	5343	5344	9
5323	5324	5325	5326	9
5323	5328	5327	5326	9
5326	5327	5328	5332	9
5325	5324	5335	5336	9
5325	5324	5335	6386	9
5325	5324	5323	5328	9
5325	5324	5323	5331	9
5325	5326	5333	5334	9
5325	5326	5333	5343	9
5325	5326	5327	5328	9
5325	5326	5327	5330	9
5323	5324	5335	5336	9
5323	5324	5335	6386	9
5323	5324	5325	5329	9
5323	5328	5327	5330	9
5327	5326	5333	5334	9
5327	5326	5333	5343	9
5327	5326	5325	5329	9
5327	5328	5323	5331	9
5331	5323	5328	5332	9
5330	5327	5328	5332	9
5336	5335	6386	6376	9
5336	5335	6386	6388	9
5334	5333	5343	5337	9
5334	5333	5343	5344	9
4585	4584	4583	4594	9
4588	4584	4583	4594	9
4587	4582	4583	4594	9
4590	4582	4583	4594	9
4594	5349	5339	5342	9
4594	5349	5339	5338	9
4583	4584	4585	4592	9
4588	4584	4585	4592	9
4587	4586	4585	4592	9
4589	4586	4585	4592	9
4592	4602	4596	4599	9
4592	4602	4596	4597	9
4583	4594	5349	5339	9
4583	4594	5349	5351	9
4583	4584	4585	4586	9
4583	4582	4587	4586	9
4583	4582	4587	4591	9
4585	4592	4602	4596	9
4585	4592	4602	4603	9
4582	4583	4584	4585	9
4582	4587	4586	4585	9
4585	4586	4587	4591	9
4584	4583	4594	4595	9
4584	4583	4594	5349	9
4584	4583	4582	4587	9
4584	4583	4582	4590	9
4584	4585	4592	4593	9
4584	4585	4592	4602	9
4584	4585	4586	4587	9
4584	4585	4586	4589	9
4582	4583	4594	4595	9
4582	4583	4594	5349	9
4582	4583	4584	4588	9
4582	4587	4586	4589	9
4586	4585	4592	4593	9
4586	4585	4592	4602	9
4586	4585	4584	4588	9
4586	4587	4582	4590	9
4590	4582	4587	4591	9
4589	4586	4587	4591	9
4595	4594	5349	5339	9
4595	4594	5349	5351	9
4593	4592	4602	4596	9
4593	4592	4602	4603	9
9849	9848	9847	9858	9
9852	9848	9847	9858	9
9851	9846	9847	9858	9
9854	9846	9847	9858	9
9858	9866	9860	9861	9
9858	9866	9860	9863	9
9847	9848	9849	9856	9
9852	9848	9849	9856	9
9851	9850	9849	9856	9
9853	9850	9849	9856	9
9856	8748	8738	8741	9
9856	8748	8738	8737	9
9847	9858	9866	9860	9
9847	9858	9866	9867	9
9847	9848	9849	9850	9
9847	9846	9851	9850	9
9847	9846	9851	9855	9
9849	9856	8748	8738	9
9849	9856	8748	8750	9
9846	9847	9848	9849	9
9846	9851	9850	9849	9
9849	9850	9851	9855	9
9848	9847	9858	9859	9
9848	9847	9858	9866	9
9848	9847	9846	9851	9
9848	9847	9846	9854	9
9848	9849	9856	9857	9
9848	9849	9856	8748	9
9848	9849	9850	9851	9
9848	9849	9850	9853	9
9846	9847	9858	9859	9
9846	9847	9858	9866	9
9846	9847	9848	9852	9
9846	9851	9850	9853	9
9850	9849	9856	9857	9
9850	9849	9856	8748	9
9850	9849	9848	9852	9
9850	9851	9846	9854	9
9854	9846	9851	9855	9
9853	9850	9851	9855	9
9859	9858	9866	9860	9
9859	9858	9866	9867	9
9857	9856	8748	8738	9
9857	9856	8748	8750	9
5179	5180	5181	5188	9
5184	5180	5181	5188	9
5183	5182	5181	5188	9
5185	5182	5181	5188	9
5188	7755	7745	7748	9
5188	7755	7745	7744	9
5181	5180	5179	5190	9
5184	5180	5179	5190	9
5183	5178	5179	5190	9
5186	5178	5179	5190	9
5190	5198	5192	5195	9
5190	5198	5192	5193	9
5181	5188	7755	7745	9
5181	5188	7755	7757	9
5181	5180	5179	5178	9
5181	5182	5183	5178	9
5181	5182	5183	5187	9
5179	5190	5198	5192	9
5179	5190	5198	5199	9
5182	5181	5180	5179	9
5182	5183	5178	5179	9
5179	5178	5183	5187	9
5180	5181	5188	5189	9
5180	5181	5188	7755	9
5180	5181	5182	5183	9
5180	5181	5182	5185	9
5180	5179	5190	5191	9
5180	5179	5190	5198	9
5180	5179	5178	5183	9
5180	5179	5178	5186	9
5182	5181	5188	5189	9
5182	5181	5188	7755	9
5182	5181	5180	5184	9
5182	5183	5178	5186	9
5178	5179	5190	5191	9
5178	5179	5190	5198	9
5178	5179	5180	5184	9
5178	5183	5182	5185	9
5185	5182	5183	5187	9
5186	5178	5183	5187	9
5189	5188	7755	7745	9
5189	5188	7755	7757	9
5191	5190	5198	5192	9
5191	5190	5198	5199	9
1371	1370	1369	1380	9
1374	1370	1369	1380	9
1373	1368	1369	1380	9
1376	1368	1369	1380	9
1356	1355	1362	1380	9
1354	1355	1362	1380	9
1369	1370	1371	1378	9
1374	1370	1371	1378	9
1373	1372	1371	1378	9
1375	1372	1371	1378	9
1378	7244	7237	7238	9
1378	7244	7237	7236	9
1355	1362	1380	1369	9
1364	1362	1380	1369	9
1369	1370	1371	1372	9
1369	1368	1373	1372	9
1369	1368	1373	1377	9
1371	1378	7244	7237	9
1371	1378	7244	7246	9
1368	1369	1370	1371	9
1368	1373	1372	1371	9
1371	1372	1373	1377	9
1370	1369	1380	1381	9
1362	1380	1369	1370	9
1370	1369	1368	1373	9
1370	1369	1368	1376	9
1370	1371	1378	1379	9
1370	1371	1378	7244	9
1370	1371	1372	1373	9
1370	1371	1372	1375	9
1368	1369	1380	1381	9
1362	1380	1369	1368	9
1368	1369	1370	1374	9
1368	1373	1372	1375	9
1372	1371	1378	1379	9
1372	1371	1378	7244	9
1372	1371	1370	1374	9
1372	1373	1368	1376	9
1376	1368	1373	1377	9
1375	1372	1373	1377	9
1355	1362	1380	1381	9
1364	1362	1380	1381	9
1379	1378	7244	7237	9
1379	1378	7244	7246	9
11614	11613	11612	11623	9
11617	11613	11612	11623	9
11616	11611	11612	11623	9
11619	11611	11612	11623	9
11623	4607	4600	4599	9
11623	4607	4600	4601	9
11612	11613	11614	11621	9
11617	11613	11614	11621	9
11616	11615	11614	11621	9
11618	11615	11614	11621	9
11621	10018	10008	10007	9
11621	10018	10008	10011	9
11612	11623	4607	4600	9
11612	11623	4607	4609	9
11612	11613	11614	11615	9
11612	11611	11616	11615	9
11612	11611	11616	11620	9
11614	11621	10018	10008	9
11614	11621	10018	10020	9
11611	11612	11613	11614	9
11611	11616	11615	11614	9
11614	11615	11616	11620	9
11613	11612	11623	11624	9
11613	11612	11623	4607	9
11613	11612	11611	11616	9
11613	11612	11611	11619	9
11613	11614	11621	11622	9
11613	11614	11621	10018	9
11613	11614	11615	11616	9
11613	11614	11615	11618	9
11611	11612	11623	11624	9
11611	11612	11623	4607	9
11611	11612	11613	11617	9
11611	11616	11615	11618	9
11615	11614	11621	11622	9
11615	11614	11621	10018	9
11615	11614	11613	11617	9
11615	11616	11611	11619	9
11619	11611	11616	11620	9
11618	11615	11616	11620	9
11624	11623	4607	4600	9
11624	11623	4607	4609	9
11622	11621	10018	10008	9
11622	11621	10018	10020	9
2642	2643	2644	2651	9
2647	2643	2644	2651	9
2646	2645	2644	2651	9
2648	2645	2644	2651	9
2651	3969	3959	3962	9
2651	3969	3959	3958	9
2644	2643	2642	2653	9
2647	2643	2642	2653	9
2646	2641	2642	2653	9
2649	2641	2642	2653	9
2644	2651	3969	3959	9
2644	2651	3969	3971	9
2641	2642	2643	2644	9
2641	2646	2645	2644	9
2644	2645	2646	2650	9
2642	2643	2644	2645	9
2642	2641	2646	2645	9
2642	2641	2646	2650	9
2643	2644	2651	2652	9
2643	2644	2651	3969	9
2643	2644	2645	2646	9
2643	2644	2645	2648	9
2643	2642	2653	2654	9
2643	2642	2653	2655	9
2643	2642	2641	2646	9
2643	2642	2641	2649	9
2645	2644	2651	2652	9
2645	2644	2651	3969	9
2645	2644	2643	2647	9
2645	2646	2641	2649	9
2641	2642	2653	2654	9
2641	2642	2653	2655	9
2641	2642	2643	2647	9
2641	2646	2645	2648	9
2648	2645	2646	2650	9
2649	2641	2646	2650	9
2652	2651	3969	3959	9
2652	2651	3969	3971	9
809	808	807	818	9
812	808	807	818	9
811	806	807	818	9
814	806	807	818	9
818	4521	4511	4510	9
818	4521	4511	4514	9
807	808	809	816	9
812	808	809	816	9
811	810	809	816	9
813	810	809	816	9
790	789	795	816	9
792	789	795	816	9
807	818	4521	4511	9
807	818	4521	4523	9
807	808	809	810	9
807	806	811	810	9
807	806	811	815	9
789	795	816	809	9
796	795	816	809	9
806	807	808	809	9
806	811	810	809	9
809	810	811	815	9
808	807	818	819	9
808	807	818	4521	9
808	807	806	811	9
808	807	806	814	9
808	809	816	817	9
795	816	809	808	9
808	809	810	811	9
808	809	810	813	9
806	807	818	819	9
806	807	818	4521	9
806	807	808	812	9
806	811	810	813	9
810	809	816	817	9
795	816	809	810	9
810	809	808	812	9
810	811	806	814	9
814	806	811	815	9
813	810	811	815	9
819	818	4521	4511	9
819	818	4521	4523	9
789	795	816	817	9
796	795	816	817	9
11135	11134	11133	11144	9
11138	11134	11133	11144	9
11137	11132	11133	11144	9
11140	11132	11133	11144	9
11144	4361	4351	4354	9
11144	4361	4351	4350	9
11133	11134	11135	11142	9
11138	11134	11135	11142	9
11137	11136	11135	11142	9
11139	11136	11135	11142	9
11142	11152	11146	11147	9
11142	11152	11146	11149	9
11133	11144	4361	4351	9
11133	11144	4361	4363	9
11133	11134	11135	11136	9
11133	11132	11137	11136	9
11133	11132	11137	11141	9
11135	11142	11152	11146	9
11135	11142	11152	11153	9
11132	11133	11134	11135	9
11132	11137	11136	11135	9
11135	11136	11137	11141	9
11134	11133	11144	11145	9
11134	11133	11144	4361	9
11134	11133	11132	11137	9
11134	11133	11132	11140	9
11134	11135	11142	11143	9
11134	11135	11142	11152	9
11134	11135	11136	11137	9
11134	11135	11136	11139	9
11132	11133	11144	11145	9
11132	11133	11144	4361	9
11132	11133	11134	11138	9
11132	11137	11136	11139	9
11136	11135	11142	11143	9
11136	11135	11142	11152	9
11136	11135	11134	11138	9
11136	11137	11132	11140	9
11140	11132	11137	11141	9
11139	11136	11137	11141	9
11145	11144	4361	4351	9
11145	11144	4361	4363	9
11143	11142	11152	11146	9
11143	11142	11152	11153	9
11556	11557	11558	11565	9
11561	11557	11558	11565	9
11560	11559	11558	11565	9
11562	11559	11558	11565	9
11565	4463	4453	4452	9
11565	4463	4453	4456	9
11558	11557	11556	11567	9
11561	11557	11556	11567	9
11560	11555	11556	11567	9
11563	11555	11556	11567	9
11567	7245	7235	7234	9
11567	7245	7235	7238	9
11558	11565	4463	4453	9
11558	11565	4463	4465	9
11558	11557	11556	11555	9
11558	11559	11560	11555	9
11558	11559	11560	11564	9
11556	11567	7245	7235	9
11556	11567	7245	7247	9
11559	11558	11557	11556	9
11559	11560	11555	11556	9
11556	11555	11560	11564	9
11557	11558	11565	11566	9
11557	11558	11565	4463	9
11557	11558	11559	11560	9
11557	11558	11559	11562	9
11557	11556	11567	11568	9
11557	11556	11567	7245	9
11557	11556	11555	11560	9
11557	11556	11555	11563	9
11559	11558	11565	11566	9
11559	11558	11565	4463	9
11559	11558	11557	11561	9
11559	11560	11555	11563	9
11555	11556	11567	11568	9
11555	11556	11567	7245	9
11555	11556	11557	11561	9
11555	11560	11559	11562	9
11562	11559	11560	11564	9
11563	11555	11560	11564	9
11566	11565	4463	4453	9
11566	11565	4463	4465	9
11568	11567	7245	7235	9
11568	11567	7245	7247	9
9878	9877	9876	9887	9
9881	9877	9876	9887	9
9880	9875	9876	9887	9
9883	9875	9876	9887	9
9887	5991	5984	5983	9
9887	5991	5984	5985	9
9876	9877	9878	9885	9
9881	9877	9878	9885	9
9880	9879	9878	9885	9
9882	9879	9878	9885	9
9885	9895	9889	9892	9
9885	9895	9889	9890	9
9876	9887	5991	5984	9
9876	9887	5991	5993	9
9876	9877	9878	9879	9
9876	9875	9880	9879	9
9876	9875	9880	9884	9
9878	9885	9895	9889	9
9878	9885	9895	9896	9
9875	9876	9877	9878	9
9875	9880	9879	9878	9
9878	9879	9880	9884	9
9877	9876	9887	9888	9
9877	9876	9887	5991	9
9877	9876	9875	9880	9
9877	9876	9875	9883	9
9877	9878	9885	9886	9
9877	9878	9885	9895	9
9877	9878	9879	9880	9
9877	9878	9879	9882	9
9875	9876	9887	9888	9
9875	9876	9887	5991	9
9875	9876	9877	9881	9
9875	9880	9879	9882	9
9879	9878	9885	9886	9
9879	9878	9885	9895	9
9879	9878	9877	9881	9
9879	9880	9875	9883	9
9883	9875	9880	9884	9
9882	9879	9880	9884	9
9888	9887	5991	5984	9
9888	9887	5991	5993	9
9886	9885	9895	9889	9
9886	9885	9895	9896	9
7205	7206	7207	7214	9
7210	7206	7207	7214	9
7209	7208	7207	7214	9
7211	7208	7207	7214	9
7214	10981	10971	10970	9
7214	10981	10971	10974	9
7207	7206	7205	7216	9
7210	7206	7205	7216	9
7209	7204	7205	7216	9
7212	7204	7205	7216	9
7216	7224	7218	7221	9
7216	7224	7218	7219	9
7207	7214	10981	10971	9
7207	7214	10981	10983	9
7204	7205	7206	7207	9
7204	7209	7208	7207	9
7207	7208	7209	7213	9
7205	7216	7224	7218	9
7205	7216	7224	7225	9
7205	7206	7207	7208	9
7205	7204	7209	7208	9
7205	7204	7209	7213	9
7206	7207	7214	7215	9
7206	7207	7214	10981	9
7206	7207	7208	7209	9
7206	7207	7208	7211	9
7206	7205	7216	7217	9
7206	7205	7216	7224	9
7206	7205	7204	7209	9
7206	7205	7204	7212	9
7208	7207	7214	7215	9
7208	7207	7214	10981	9
7208	7207	7206	7210	9
7208	7209	7204	7212	9
7204	7205	7216	7217	9
7204	7205	7216	7224	9
7204	7205	7206	7210	9
7204	7209	7208	7211	9
7211	7208	7209	7213	9
7212	7204	7209	7213	9
7215	7214	10981	10971	9
7215	7214	10981	10983	9
7217	7216	7224	7218	9
7217	7216	7224	7225	9
2852	2853	2854	2861	9
2857	2853	2854	2861	9
2856	2855	2854	2861	9
2858	2855	2854	2861	9
2861	5650	5644	5647	9
2861	5650	5644	5645	9
2854	2853	2852	2863	9
2857	2853	2852	2863	9
2856	2851	2852	2863	9
2859	2851	2852	2863	9
2854	2861	5650	5644	9
2854	2861	5650	5651	9
2851	2852	2853	2854	9
2851	2856	2855	2854	9
2854	2855	2856	2860	9
2852	2853	2854	2855	9
2852	2851	2856	2855	9
2852	2851	2856	2860	9
2853	2854	2861	2862	9
2853	2854	2861	5650	9
2853	2854	2855	2856	9
2853	2854	2855	2858	9
2853	2852	2863	2865	9
2853	2852	2863	2864	9
2853	2852	2851	2856	9
2853	2852	2851	2859	9
2855	2854	2861	2862	9
2855	2854	2861	5650	9
2855	2854	2853	2857	9
2855	2856	2851	2859	9
2851	2852	2863	2865	9
2851	2852	2863	2864	9
2851	2852	2853	2857	9
2851	2856	2855	2858	9
2858	2855	2856	2860	9
2859	2851	2856	2860	9
2862	2861	5650	5644	9
2862	2861	5650	5651	9
9527	9526	9525	9536	9
9530	9526	9525	9536	9
9529	9524	9525	9536	9
9532	9524	9525	9536	9
9536	9544	9538	9541	9
9536	9544	9538	9539	9
9525	9526	9527	9534	9
9530	9526	9527	9534	9
9529	9528	9527	9534	9
9531	9528	9527	9534	9
9534	5320	5310	5309	9
9534	5320	5310	5313	9
9525	9536	9544	9538	9
9525	9536	9544	9545	9
9525	9526	9527	9528	9
9525	9524	9529	9528	9
9525	9524	9529	9533	9
9527	9534	5320	5310	9
9527	9534	5320	5322	9
9524	9525	9526	9527	9
9524	9529	9528	9527	9
9527	9528	9529	9533	9
9526	9525	9536	9537	9
9526	9525	9536	9544	9
9526	9525	9524	9529	9
9526	9525	9524	9532	9
9526	9527	9534	9535	9
9526	9527	9534	5320	9
9526	9527	9528	9529	9
9526	9527	9528	9531	9
9524	9525	9536	9537	9
9524	9525	9536	9544	9
9524	9525	9526	9530	9
9524	9529	9528	9531	9
9528	9527	9534	9535	9
9528	9527	9534	5320	9
9528	9527	9526	9530	9
9528	9529	9524	9532	9
9532	9524	9529	9533	9
9531	9528	9529	9533	9
9537	9536	9544	9538	9
9537	9536	9544	9545	9
9535	9534	5320	5310	9
9535	9534	5320	5322	9
13714	13713	13712	13723	9
13717	13713	13712	13723	9
13716	13711	13712	13723	9
13719	13711	13712	13723	9
1540	1541	1548	13723	9
1542	1541	1548	13723	9
13712	13713	13714	13721	9
13717	13713	13714	13721	9
13716	13715	13714	13721	9
13718	13715	13714	13721	9
13721	10630	10623	10622	9
13721	10630	10623	10624	9
1541	1548	13723	13712	9
1550	1548	13723	13712	9
13712	13713	13714	13715	9
13712	13711	13716	13715	9
13712	13711	13716	13720	9
13714	13721	10630	10623	9
13714	13721	10630	10632	9
13711	13712	13713	13714	9
13711	13716	13715	13714	9
13714	13715	13716	13720	9
13713	13712	13723	13724	9
1548	13723	13712	13713	9
13713	13712	13711	13716	9
13713	13712	13711	13719	9
13713	13714	13721	13722	9
13713	13714	13721	10630	9
13713	13714	13715	13716	9
13713	13714	13715	13718	9
13711	13712	13723	13724	9
1548	13723	13712	13711	9
13711	13712	13713	13717	9
13711	13716	13715	13718	9
13715	13714	13721	13722	9
13715	13714	13721	10630	9
13715	13714	13713	13717	9
13715	13716	13711	13719	9
13719	13711	13716	13720	9
13718	13715	13716	13720	9
1541	1548	13723	13724	9
1550	1548	13723	13724	9
13722	13721	10630	10623	9
13722	13721	10630	10632	9
56	55	54	65	9
59	55	54	65	9
58	53	54	65	9
61	53	54	65	9
2548	2547	2553	65	9
2550	2547	2553	65	9
54	55	56	63	9
59	55	56	63	9
58	57	56	63	9
60	57	56	63	9
37	34	40	63	9
35	34	40	63	9
2547	2553	65	54	9
2554	2553	65	54	9
54	55	56	57	9
54	53	58	57	9
54	53	58	62	9
34	40	63	56	9
41	40	63	56	9
53	54	55	56	9
53	58	57	56	9
56	57	58	62	9
55	54	65	66	9
2553	65	54	55	9
55	54	53	58	9
55	54	53	61	9
55	56	63	64	9
40	63	56	55	9
55	56	57	58	9
55	56	57	60	9
53	54	65	66	9
2553	65	54	53	9
53	54	55	59	9
53	58	57	60	9
57	56	63	64	9
40	63	56	57	9
57	56	55	59	9
57	58	53	61	9
61	53	58	62	9
60	57	58	62	9
2547	2553	65	66	9
2554	2553	65	66	9
34	40	63	64	9
41	40	63	64	9
9586	9585	9584	9595	9
9589	9585	9584	9595	9
9588	9583	9584	9595	9
9591	9583	9584	9595	9
9595	5494	5487	5488	9
9595	5494	5487	5486	9
9584	9585	9586	9593	9
9589	9585	9586	9593	9
9588	9587	9586	9593	9
9590	9587	9586	9593	9
9593	9603	9597	9598	9
9593	9603	9597	9600	9
9584	9595	5494	5487	9
9584	9595	5494	5496	9
9584	9585	9586	9587	9
9584	9583	9588	9587	9
9584	9583	9588	9592	9
9586	9593	9603	9597	9
9586	9593	9603	9604	9
9583	9584	9585	9586	9
9583	9588	9587	9586	9
9586	9587	9588	9592	9
9585	9584	9595	9596	9
9585	9584	9595	5494	9
9585	9584	9583	9588	9
9585	9584	9583	9591	9
9585	9586	9593	9594	9
9585	9586	9593	9603	9
9585	9586	9587	9588	9
9585	9586	9587	9590	9
9583	9584	9595	9596	9
9583	9584	9595	5494	9
9583	9584	9585	9589	9
9583	9588	9587	9590	9
9587	9586	9593	9594	9
9587	9586	9593	9603	9
9587	9586	9585	9589	9
9587	9588	9583	9591	9
9591	9583	9588	9592	9
9590	9587	9588	9592	9
9596	9595	5494	5487	9
9596	9595	5494	5496	9
9594	9593	9603	9597	9
9594	9593	9603	9604	9
4236	4235	4234	4245	9
4239	4235	4234	4245	9
4238	4233	4234	4245	9
4241	4233	4234	4245	9
4245	10396	10386	10385	9
4245	10396	10386	10389	9
4234	4235	4236	4243	9
4239	4235	4236	4243	9
4238	4237	4236	4243	9
4240	4237	4236	4243	9
4243	4253	4247	4250	9
4243	4253	4247	4248	9
4234	4245	10396	10386	9
4234	4245	10396	10398	9
4234	4235	4236	4237	9
4234	4233	4238	4237	9
4234	4233	4238	4242	9
4236	4243	4253	4247	9
4236	4243	4253	4254	9
4233	4234	4235	4236	9
4233	4238	4237	4236	9
4236	4237	4238	4242	9
4235	4234	4245	4246	9
4235	4234	4245	10396	9
4235	4234	4233	4238	9
4235	4234	4233	4241	9
4235	4236	4243	4244	9
4235	4236	4243	4253	9
4235	4236	4237	4238	9
4235	4236	4237	4240	9
4233	4234	4245	4246	9
4233	4234	4245	10396	9
4233	4234	4235	4239	9
4233	4238	4237	4240	9
4237	4236	4243	4244	9
4237	4236	4243	4253	9
4237	4236	4235	4239	9
4237	4238	4233	4241	9
4241	4233	4238	4242	9
4240	4237	4238	4242	9
4246	4245	10396	10386	9
4246	4245	10396	10398	9
4244	4243	4253	4247	9
4244	4243	4253	4254	9
11306	11305	11304	11315	9
11309	11305	11304	11315	9
11308	11303	11304	11315	9
11311	11303	11304	11315	9
11315	4055	4048	4047	9
11315	4055	4048	4049	9
11304	11305	11306	11313	9
11309	11305	11306	11313	9
11308	11307	11306	11313	9
11310	11307	11306	11313	9
11313	10455	10445	10448	9
11313	10455	10445	10444	9
11304	11315	4055	4048	9
11304	11315	4055	4057	9
11304	11305	11306	11307	9
11304	11303	11308	11307	9
11304	11303	11308	11312	9
11306	11313	10455	10445	9
11306	11313	10455	10457	9
11303	11304	11305	11306	9
11303	11308	11307	11306	9
11306	11307	11308	11312	9
11305	11304	11315	11316	9
11305	11304	11315	4055	9
11305	11304	11303	11308	9
11305	11304	11303	11311	9
11305	11306	11313	11314	9
11305	11306	11313	10455	9
11305	11306	11307	11308	9
11305	11306	11307	11310	9
11303	11304	11315	11316	9
11303	11304	11315	4055	9
11303	11304	11305	11309	9
11303	11308	11307	11310	9
11307	11306	11313	11314	9
11307	11306	11313	10455	9
11307	11306	11305	11309	9
11307	11308	11303	11311	9
11311	11303	11308	11312	9
11310	11307	11308	11312	9
11316	11315	4055	4048	9
11316	11315	4055	4057	9
11314	11313	10455	10445	9
11314	11313	10455	10457	9
12272	12271	12270	12281	9
12275	12271	12270	12281	9
12274	12269	12270	12281	9
12277	12269	12270	12281	9
12281	9770	9760	9759	9
12281	9770	9760	9763	9
12270	12271	12272	12279	9
12275	12271	12272	12279	9
12274	12273	12272	12279	9
12276	12273	12272	12279	9
12279	5758	5748	5747	9
12279	5758	5748	5751	9
12270	12281	9770	9760	9
12270	12281	9770	9772	9
12270	12271	12272	12273	9
12270	12269	12274	12273	9
12270	12269	12274	12278	9
12272	12279	5758	5748	9
12272	12279	5758	5760	9
12269	12270	12271	12272	9
12269	12274	12273	12272	9
12272	12273	12274	12278	9
12271	12270	12281	12282	9
12271	12270	12281	9770	9
12271	12270	12269	12274	9
12271	12270	12269	12277	9
12271	12272	12279	12280	9
12271	12272	12279	5758	9
12271	12272	12273	12274	9
12271	12272	12273	12276	9
12269	12270	12281	12282	9
12269	12270	12281	9770	9
12269	12270	12271	12275	9
12269	12274	12273	12276	9
12273	12272	12279	12280	9
12273	12272	12279	5758	9
12273	12272	12271	12275	9
12273	12274	12269	12277	9
12277	12269	12274	12278	9
12276	12273	12274	12278	9
12282	12281	9770	9760	9
12282	12281	9770	9772	9
12280	12279	5758	5748	9
12280	12279	5758	5760	9
11362	11361	11360	11371	9
11365	11361	11360	11371	9
11364	11359	11360	11371	9
11367	11359	11360	11371	9
11371	4143	4133	4132	9
11371	4143	4133	4136	9
11360	11361	11362	11369	9
11365	11361	11362	11369	9
11364	11363	11362	11369	9
11366	11363	11362	11369	9
11369	7871	7861	7860	9
11369	7871	7861	7864	9
11360	11371	4143	4133	9
11360	11371	4143	4145	9
11360	11361	11362	11363	9
11360	11359	11364	11363	9
11360	11359	11364	11368	9
11362	11369	7871	7861	9
11362	11369	7871	7873	9
11359	11360	11361	11362	9
11359	11364	11363	11362	9
11362	11363	11364	11368	9
11361	11360	11371	11372	9
11361	11360	11371	4143	9
11361	11360	11359	11364	9
11361	11360	11359	11367	9
11361	11362	11369	11370	9
11361	11362	11369	7871	9
11361	11362	11363	11364	9
11361	11362	11363	11366	9
11359	11360	11371	11372	9
11359	11360	11371	4143	9
11359	11360	11361	11365	9
11359	11364	11363	11366	9
11363	11362	11369	11370	9
11363	11362	11369	7871	9
11363	11362	11361	11365	9
11363	11364	11359	11367	9
11367	11359	11364	11368	9
11366	11363	11364	11368	9
11372	11371	4143	4133	9
11372	11371	4143	4145	9
11370	11369	7871	7861	9
11370	11369	7871	7873	9
8050	8051	8052	8059	9
8055	8051	8052	8059	9
8054	8053	8052	8059	9
8056	8053	8052	8059	9
8059	8069	8063	8064	9
8059	8069	8063	8066	9
8052	8051	8050	8061	9
8055	8051	8050	8061	9
8054	8049	8050	8061	9
8057	8049	8050	8061	9
8061	7172	7162	7165	9
8061	7172	7162	7161	9
8052	8059	8069	8063	9
8052	8059	8069	8070	9
8052	8051	8050	8049	9
8052	8053	8054	8049	9
8052	8053	8054	8058	9
8050	8061	7172	7162	9
8050	8061	7172	7174	9
8053	8052	8051	8050	9
8053	8054	8049	8050	9
8050	8049	8054	8058	9
8051	8052	8059	8060	9
8051	8052	8059	8069	9
8051	8052	8053	8054	9
8051	8052	8053	8056	9
8051	8050	8061	8062	9
8051	8050	8061	7172	9
8051	8050	8049	8054	9
8051	8050	8049	8057	9
8053	8052	8059	8060	9
8053	8052	8059	8069	9
8053	8052	8051	8055	9
8053	8054	8049	8057	9
8049	8050	8061	8062	9
8049	8050	8061	7172	9
8049	8050	8051	8055	9
8049	8054	8053	8056	9
8056	8053	8054	8058	9
8057	8049	8054	8058	9
8060	8059	8069	8063	9
8060	8059	8069	8070	9
8062	8061	7172	7162	9
8062	8061	7172	7174	9
9820	9819	9818	9829	9
9823	9819	9818	9829	9
9822	9817	9818	9829	9
9825	9817	9818	9829	9
9829	9837	9831	9832	9
9829	9837	9831	9834	9
9818	9819	9820	9827	9
9823	9819	9820	9827	9
9822	9821	9820	9827	9
9824	9821	9820	9827	9
9827	10390	10384	10385	9
9827	10390	10384	10387	9
9818	9829	9837	9831	9
9818	9829	9837	9838	9
9818	9819	9820	9821	9
9818	9817	9822	9821	9
9818	9817	9822	9826	9
9820	9827	10390	10384	9
9820	9827	10390	10391	9
9817	9818	9819	9820	9
9817	9822	9821	9820	9
9820	9821	9822	9826	9
9819	9818	9829	9830	9
9819	9818	9829	9837	9
9819	9818	9817	9822	9
9819	9818	9817	9825	9
9819	9820	9827	9828	9
9819	9820	9827	10390	9
9819	9820	9821	9822	9
9819	9820	9821	9824	9
9817	9818	9829	9830	9
9817	9818	9829	9837	9
9817	9818	9819	9823	9
9817	9822	9821	9824	9
9821	9820	9827	9828	9
9821	9820	9827	10390	9
9821	9820	9819	9823	9
9821	9822	9817	9825	9
9825	9817	9822	9826	9
9824	9821	9822	9826	9
9830	9829	9837	9831	9
9830	9829	9837	9838	9
9828	9827	10390	10384	9
9828	9827	10390	10391	9
13784	13783	13782	13793	9
13787	13783	13782	13793	9
13786	13781	13782	13793	9
13789	13781	13782	13793	9
1352	1351	1357	13793	9
1354	1351	1357	13793	9
13782	13783	13784	13791	9
13787	13783	13784	13791	9
13786	13785	13784	13791	9
13788	13785	13784	13791	9
1633	1634	1641	13791	9
1635	1634	1641	13791	9
1351	1357	13793	13782	9
1358	1357	13793	13782	9
13782	13783	13784	13785	9
13782	13781	13786	13785	9
13782	13781	13786	13790	9
1634	1641	13791	13784	9
1643	1641	13791	13784	9
13781	13782	13783	13784	9
13781	13786	13785	13784	9
13784	13785	13786	13790	9
13783	13782	13793	13794	9
1357	13793	13782	13783	9
13783	13782	13781	13786	9
13783	13782	13781	13789	9
13783	13784	13791	13792	9
1641	13791	13784	13783	9
13783	13784	13785	13786	9
13783	13784	13785	13788	9
13781	13782	13793	13794	9
1357	13793	13782	13781	9
13781	13782	13783	13787	9
13781	13786	13785	13788	9
13785	13784	13791	13792	9
1641	13791	13784	13785	9
13785	13784	13783	13787	9
13785	13786	13781	13789	9
13789	13781	13786	13790	9
13788	13785	13786	13790	9
1351	1357	13793	13794	9
1358	1357	13793	13794	9
1634	1641	13791	13792	9
1643	1641	13791	13792	9
8959	8958	8957	8968	9
8962	8958	8957	8968	9
8961	8956	8957	8968	9
8964	8956	8957	8968	9
8968	8976	8970	8973	9
8968	8976	8970	8971	9
8957	8958	8959	8966	9
8962	8958	8959	8966	9
8961	8960	8959	8966	9
8963	8960	8959	8966	9
8966	8543	8536	8537	9
8966	8543	8536	8535	9
8957	8968	8976	8970	9
8957	8968	8976	8977	9
8957	8958	8959	8960	9
8957	8956	8961	8960	9
8957	8956	8961	8965	9
8959	8966	8543	8536	9
8959	8966	8543	8545	9
8956	8957	8958	8959	9
8956	8961	8960	8959	9
8959	8960	8961	8965	9
8958	8957	8968	8969	9
8958	8957	8968	8976	9
8958	8957	8956	8961	9
8958	8957	8956	8964	9
8958	8959	8966	8967	9
8958	8959	8966	8543	9
8958	8959	8960	8961	9
8958	8959	8960	8963	9
8956	8957	8968	8969	9
8956	8957	8968	8976	9
8956	8957	8958	8962	9
8956	8961	8960	8963	9
8960	8959	8966	8967	9
8960	8959	8966	8543	9
8960	8959	8958	8962	9
8960	8961	8956	8964	9
8964	8956	8961	8965	9
8963	8960	8961	8965	9
8969	8968	8976	8970	9
8969	8968	8976	8977	9
8967	8966	8543	8536	9
8967	8966	8543	8545	9
10430	10431	10432	10439	9
10435	10431	10432	10439	9
10434	10433	10432	10439	9
10436	10433	10432	10439	9
10439	10449	10443	10446	9
10439	10449	10443	10444	9
10432	10431	10430	10441	9
10435	10431	10430	10441	9
10434	10429	10430	10441	9
10437	10429	10430	10441	9
10441	11085	11075	11074	9
10441	11085	11075	11078	9
10432	10439	10449	10443	9
10432	10439	10449	10450	9
10429	10430	10431	10432	9
10429	10434	10433	10432	9
10432	10433	10434	10438	9
10430	10441	11085	11075	9
10430	10441	11085	11087	9
10430	10431	10432	10433	9
10430	10429	10434	10433	9
10430	10429	10434	10438	9
10431	10432	10439	10440	9
10431	10432	10439	10449	9
10431	10432	10433	10434	9
10431	10432	10433	10436	9
10431	10430	10441	10442	9
10431	10430	10441	11085	9
10431	10430	10429	10434	9
10431	10430	10429	10437	9
10433	10432	10439	10440	9
10433	10432	10439	10449	9
10433	10432	10431	10435	9
10433	10434	10429	10437	9
10429	10430	10441	10442	9
10429	10430	10441	11085	9
10429	10430	10431	10435	9
10429	10434	10433	10436	9
10436	10433	10434	10438	9
10437	10429	10434	10438	9
10440	10439	10449	10443	9
10440	10439	10449	10450	9
10442	10441	11085	11075	9
10442	10441	11085	11087	9
4948	4947	4946	4957	9
4951	4947	4946	4957	9
4950	4945	4946	4957	9
4953	4945	4946	4957	9
4957	4965	4959	4960	9
4957	4965	4959	4962	9
4946	4947	4948	4955	9
4951	4947	4948	4955	9
4950	4949	4948	4955	9
4952	4949	4948	4955	9
4955	11084	11077	11078	9
4955	11084	11077	11076	9
4946	4957	4965	4959	9
4946	4957	4965	4966	9
4946	4947	4948	4949	9
4946	4945	4950	4949	9
4946	4945	4950	4954	9
4948	4955	11084	11077	9
4948	4955	11084	11086	9
4945	4946	4947	4948	9
4945	4950	4949	4948	9
4948	4949	4950	4954	9
4947	4946	4957	4958	9
4947	4946	4957	4965	9
4947	4946	4945	4950	9
4947	4946	4945	4953	9
4947	4948	4955	4956	9
4947	4948	4955	11084	9
4947	4948	4949	4950	9
4947	4948	4949	4952	9
4945	4946	4957	4958	9
4945	4946	4957	4965	9
4945	4946	4947	4951	9
4945	4950	4949	4952	9
4949	4948	4955	4956	9
4949	4948	4955	11084	9
4949	4948	4947	4951	9
4949	4950	4945	4953	9
4953	4945	4950	4954	9
4952	4949	4950	4954	9
4958	4957	4965	4959	9
4958	4957	4965	4966	9
4956	4955	11084	11077	9
4956	4955	11084	11086	9
3062	3063	3064	3071	9
3067	3063	3064	3071	9
3066	3065	3064	3071	9
3068	3065	3064	3071	9
3071	7449	7439	7442	9
3071	7449	7439	7438	9
3064	3063	3062	3073	9
3067	3063	3062	3073	9
3066	3061	3062	3073	9
3069	3061	3062	3073	9
3064	3071	7449	7439	9
3064	3071	7449	7451	9
3061	3062	3063	3064	9
3061	3066	3065	3064	9
3064	3065	3066	3070	9
3062	3063	3064	3065	9
3062	3061	3066	3065	9
3062	3061	3066	3070	9
3063	3064	3071	3072	9
3063	3064	3071	7449	9
3063	3064	3065	3066	9
3063	3064	3065	3068	9
3063	3062	3073	3074	9
3063	3062	3073	3075	9
3063	3062	3061	3066	9
3063	3062	3061	3069	9
3065	3064	3071	3072	9
3065	3064	3071	7449	9
3065	3064	3063	3067	9
3065	3066	3061	3069	9
3061	3062	3073	3074	9
3061	3062	3073	3075	9
3061	3062	3063	3067	9
3061	3066	3065	3068	9
3068	3065	3066	3070	9
3069	3061	3066	3070	9
3072	3071	7449	7439	9
3072	3071	7449	7451	9
10958	10957	10956	10967	9
10961	10957	10956	10967	9
10960	10955	10956	10967	9
10963	10955	10956	10967	9
10967	10381	10371	10370	9
10967	10381	10371	10374	9
10956	10957	10958	10965	9
10961	10957	10958	10965	9
10960	10959	10958	10965	9
10962	10959	10958	10965	9
10965	10975	10969	10970	9
10965	10975	10969	10972	9
10956	10967	10381	10371	9
10956	10967	10381	10383	9
10956	10957	10958	10959	9
10956	10955	10960	10959	9
10956	10955	10960	10964	9
10958	10965	10975	10969	9
10958	10965	10975	10976	9
10955	10956	10957	10958	9
10955	10960	10959	10958	9
10958	10959	10960	10964	9
10957	10956	10967	10968	9
10957	10956	10967	10381	9
10957	10956	10955	10960	9
10957	10956	10955	10963	9
10957	10958	10965	10966	9
10957	10958	10965	10975	9
10957	10958	10959	10960	9
10957	10958	10959	10962	9
10955	10956	10967	10968	9
10955	10956	10967	10381	9
10955	10956	10957	10961	9
10955	10960	10959	10962	9
10959	10958	10965	10966	9
10959	10958	10965	10975	9
10959	10958	10957	10961	9
10959	10960	10955	10963	9
10963	10955	10960	10964	9
10962	10959	10960	10964	9
10968	10967	10381	10371	9
10968	10967	10381	10383	9
10966	10965	10975	10969	9
10966	10965	10975	10976	9
11964	11963	11962	11973	9
11967	11963	11962	11973	9
11966	11961	11962	11973	9
11969	11961	11962	11973	9
2132	2131	2138	11973	9
2130	2131	2138	11973	9
11962	11963	11964	11971	9
11967	11963	11964	11971	9
11966	11965	11964	11971	9
11968	11965	11964	11971	9
11971	5174	5167	5166	9
11971	5174	5167	5168	9
2131	2138	11973	11962	9
2140	2138	11973	11962	9
11962	11963	11964	11965	9
11962	11961	11966	11965	9
11962	11961	11966	11970	9
11964	11971	5174	5167	9
11964	11971	5174	5176	9
11961	11962	11963	11964	9
11961	11966	11965	11964	9
11964	11965	11966	11970	9
11963	11962	11973	11974	9
2138	11973	11962	11963	9
11963	11962	11961	11966	9
11963	11962	11961	11969	9
11963	11964	11971	11972	9
11963	11964	11971	5174	9
11963	11964	11965	11966	9
11963	11964	11965	11968	9
11961	11962	11973	11974	9
2138	11973	11962	11961	9
11961	11962	11963	11967	9
11961	11966	11965	11968	9
11965	11964	11971	11972	9
11965	11964	11971	5174	9
11965	11964	11963	11967	9
11965	11966	11961	11969	9
11969	11961	11966	11970	9
11968	11965	11966	11970	9
2131	2138	11973	11974	9
2140	2138	11973	11974	9
11972	11971	5174	5167	9
11972	11971	5174	5176	9
8621	8622	8623	8630	9
8626	8622	8623	8630	9
8625	8624	8623	8630	9
8627	8624	8623	8630	9
8630	8640	8634	8637	9
8630	8640	8634	8635	9
8623	8622	8621	8632	9
8626	8622	8621	8632	9
8625	8620	8621	8632	9
8628	8620	8621	8632	9
8632	6065	6055	6058	9
8632	6065	6055	6054	9
8623	8630	8640	8634	9
8623	8630	8640	8641	9
8623	8622	8621	8620	9
8623	8624	8625	8620	9
8623	8624	8625	8629	9
8621	8632	6065	6055	9
8621	8632	6065	6067	9
8624	8623	8622	8621	9
8624	8625	8620	8621	9
8621	8620	8625	8629	9
8622	8623	8630	8631	9
8622	8623	8630	8640	9
8622	8623	8624	8625	9
8622	8623	8624	8627	9
8622	8621	8632	8633	9
8622	8621	8632	6065	9
8622	8621	8620	8625	9
8622	8621	8620	8628	9
8624	8623	8630	8631	9
8624	8623	8630	8640	9
8624	8623	8622	8626	9
8624	8625	8620	8628	9
8620	8621	8632	8633	9
8620	8621	8632	6065	9
8620	8621	8622	8626	9
8620	8625	8624	8627	9
8627	8624	8625	8629	9
8628	8620	8625	8629	9
8631	8630	8640	8634	9
8631	8630	8640	8641	9
8633	8632	6065	6055	9
8633	8632	6065	6067	9
3319	3318	3317	3328	9
3322	3318	3317	3328	9
3321	3316	3317	3328	9
3324	3316	3317	3328	9
3317	3318	3319	3326	9
3322	3318	3319	3326	9
3321	3320	3319	3326	9
3323	3320	3319	3326	9
3326	8991	8985	8988	9
3326	8991	8985	8986	9
3317	3318	3319	3320	9
3317	3316	3321	3320	9
3317	3316	3321	3325	9
3319	3326	8991	8985	9
3319	3326	8991	8992	9
3316	3317	3318	3319	9
3316	3321	3320	3319	9
3319	3320	3321	3325	9
3318	3317	3328	3330	9
3318	3317	3328	3329	9
3318	3317	3316	3321	9
3318	3317	3316	3324	9
3318	3319	3326	3327	9
3318	3319	3326	8991	9
3318	3319	3320	3321	9
3318	3319	3320	3323	9
3316	3317	3328	3330	9
3316	3317	3328	3329	9
3316	3317	3318	3322	9
3316	3321	3320	3323	9
3320	3319	3326	3327	9
3320	3319	3326	8991	9
3320	3319	3318	3322	9
3320	3321	3316	3324	9
3324	3316	3321	3325	9
3323	3320	3321	3325	9
3327	3326	8991	8985	9
3327	3326	8991	8992	9
3244	3243	3242	3253	9
3247	3243	3242	3253	9
3246	3241	3242	3253	9
3249	3241	3242	3253	9
3242	3243	3244	3251	9
3247	3243	3244	3251	9
3246	3245	3244	3251	9
3248	3245	3244	3251	9
3251	8582	8576	8577	9
3251	8582	8576	8579	9
3242	3243	3244	3245	9
3242	3241	3246	3245	9
3242	3241	3246	3250	9
3244	3251	8582	8576	9
3244	3251	8582	8583	9
3241	3242	3243	3244	9
3241	3246	3245	3244	9
3244	3245	3246	3250	9
3243	3242	3253	3255	9
3243	3242	3253	3254	9
3243	3242	3241	3246	9
3243	3242	3241	3249	9
3243	3244	3251	3252	9
3243	3244	3251	8582	9
3243	3244	3245	3246	9
3243	3244	3245	3248	9
3241	3242	3253	3255	9
3241	3242	3253	3254	9
3241	3242	3243	3247	9
3241	3246	3245	3248	9
3245	3244	3251	3252	9
3245	3244	3251	8582	9
3245	3244	3243	3247	9
3245	3246	3241	3249	9
3249	3241	3246	3250	9
3248	3245	3246	3250	9
3252	3251	8582	8576	9
3252	3251	8582	8583	9
2867	2868	2869	2876	9
2872	2868	2869	2876	9
2871	2870	2869	2876	9
2873	2870	2869	2876	9
2876	5655	5648	5647	9
2876	5655	5648	5649	9
2869	2868	2867	2878	9
2872	2868	2867	2878	9
2871	2866	2867	2878	9
2874	2866	2867	2878	9
2869	2876	5655	5648	9
2869	2876	5655	5657	9
2866	2867	2868	2869	9
2866	2871	2870	2869	9
2869	2870	2871	2875	9
2867	2868	2869	2870	9
2867	2866	2871	2870	9
2867	2866	2871	2875	9
2868	2869	2876	2877	9
2868	2869	2876	5655	9
2868	2869	2870	2871	9
2868	2869	2870	2873	9
2868	2867	2878	2879	9
2868	2867	2878	2880	9
2868	2867	2866	2871	9
2868	2867	2866	2874	9
2870	2869	2876	2877	9
2870	2869	2876	5655	9
2870	2869	2868	2872	9
2870	2871	2866	2874	9
2866	2867	2878	2879	9
2866	2867	2878	2880	9
2866	2867	2868	2872	9
2866	2871	2870	2873	9
2873	2870	2871	2875	9
2874	2866	2871	2875	9
2877	2876	5655	5648	9
2877	2876	5655	5657	9
13420	13419	13418	13429	9
13423	13419	13418	13429	9
13422	13417	13418	13429	9
13425	13417	13418	13429	9
13429	8587	8580	8579	9
13429	8587	8580	8581	9
13418	13419	13420	13427	9
13423	13419	13420	13427	9
13422	13421	13420	13427	9
13424	13421	13420	13427	9
13427	8442	8432	8431	9
13427	8442	8432	8435	9
13418	13429	8587	8580	9
13418	13429	8587	8589	9
13418	13419	13420	13421	9
13418	13417	13422	13421	9
13418	13417	13422	13426	9
13420	13427	8442	8432	9
13420	13427	8442	8444	9
13417	13418	13419	13420	9
13417	13422	13421	13420	9
13420	13421	13422	13426	9
13419	13418	13429	13430	9
13419	13418	13429	8587	9
13419	13418	13417	13422	9
13419	13418	13417	13425	9
13419	13420	13427	13428	9
13419	13420	13427	8442	9
13419	13420	13421	13422	9
13419	13420	13421	13424	9
13417	13418	13429	13430	9
13417	13418	13429	8587	9
13417	13418	13419	13423	9
13417	13422	13421	13424	9
13421	13420	13427	13428	9
13421	13420	13427	8442	9
13421	13420	13419	13423	9
13421	13422	13417	13425	9
13425	13417	13422	13426	9
13424	13421	13422	13426	9
13430	13429	8587	8580	9
13430	13429	8587	8589	9
13428	13427	8442	8432	9
13428	13427	8442	8444	9
3169	3168	3167	3178	9
3172	3168	3167	3178	9
3171	3166	3167	3178	9
3174	3166	3167	3178	9
3167	3168	3169	3176	9
3172	3168	3169	3176	9
3171	3170	3169	3176	9
3173	3170	3169	3176	9
3176	8148	8138	8137	9
3176	8148	8138	8141	9
3167	3168	3169	3170	9
3167	3166	3171	3170	9
3167	3166	3171	3175	9
3169	3176	8148	8138	9
3169	3176	8148	8150	9
3166	3167	3168	3169	9
3166	3171	3170	3169	9
3169	3170	3171	3175	9
3168	3167	3178	3179	9
3168	3167	3178	3180	9
3168	3167	3166	3171	9
3168	3167	3166	3174	9
3168	3169	3176	3177	9
3168	3169	3176	8148	9
3168	3169	3170	3171	9
3168	3169	3170	3173	9
3166	3167	3178	3179	9
3166	3167	3178	3180	9
3166	3167	3168	3172	9
3166	3171	3170	3173	9
3170	3169	3176	3177	9
3170	3169	3176	8148	9
3170	3169	3168	3172	9
3170	3171	3166	3174	9
3174	3166	3171	3175	9
3173	3170	3171	3175	9
3177	3176	8148	8138	9
3177	3176	8148	8150	9
2412	2411	2410	2421	9
2415	2411	2410	2421	9
2414	2409	2410	2421	9
2417	2409	2410	2421	9
2393	2392	2398	2421	9
2395	2392	2398	2421	9
2410	2411	2412	2419	9
2415	2411	2412	2419	9
2414	2413	2412	2419	9
2416	2413	2412	2419	9
2419	6064	6057	6056	9
2419	6064	6057	6058	9
2392	2398	2421	2410	9
2399	2398	2421	2410	9
2410	2411	2412	2413	9
2410	2409	2414	2413	9
2410	2409	2414	2418	9
2412	2419	6064	6057	9
2412	2419	6064	6066	9
2409	2410	2411	2412	9
2409	2414	2413	2412	9
2412	2413	2414	2418	9
2411	2410	2421	2422	9
2398	2421	2410	2411	9
2411	2410	2409	2414	9
2411	2410	2409	2417	9
2411	2412	2419	2420	9
2411	2412	2419	6064	9
2411	2412	2413	2414	9
2411	2412	2413	2416	9
2409	2410	2421	2422	9
2398	2421	2410	2409	9
2409	2410	2411	2415	9
2409	2414	2413	2416	9
2413	2412	2419	2420	9
2413	2412	2419	6064	9
2413	2412	2411	2415	9
2413	2414	2409	2417	9
2417	2409	2414	2418	9
2416	2413	2414	2418	9
2392	2398	2421	2422	9
2399	2398	2421	2422	9
2420	2419	6064	6057	9
2420	2419	6064	6066	9
10053	10052	10051	10062	9
10056	10052	10051	10062	9
10055	10050	10051	10062	9
10058	10050	10051	10062	9
10062	10070	10064	10067	9
10062	10070	10064	10065	9
10051	10052	10053	10060	9
10056	10052	10053	10060	9
10055	10054	10053	10060	9
10057	10054	10053	10060	9
10060	11079	11073	11074	9
10060	11079	11073	11076	9
10051	10062	10070	10064	9
10051	10062	10070	10071	9
10051	10052	10053	10054	9
10051	10050	10055	10054	9
10051	10050	10055	10059	9
10053	10060	11079	11073	9
10053	10060	11079	11080	9
10050	10051	10052	10053	9
10050	10055	10054	10053	9
10053	10054	10055	10059	9
10052	10051	10062	10063	9
10052	10051	10062	10070	9
10052	10051	10050	10055	9
10052	10051	10050	10058	9
10052	10053	10060	10061	9
10052	10053	10060	11079	9
10052	10053	10054	10055	9
10052	10053	10054	10057	9
10050	10051	10062	10063	9
10050	10051	10062	10070	9
10050	10051	10052	10056	9
10050	10055	10054	10057	9
10054	10053	10060	10061	9
10054	10053	10060	11079	9
10054	10053	10052	10056	9
10054	10055	10050	10058	9
10058	10050	10055	10059	9
10057	10054	10055	10059	9
10063	10062	10070	10064	9
10063	10062	10070	10071	9
10061	10060	11079	11073	9
10061	10060	11079	11080	9
5210	5209	5208	5219	9
5213	5209	5208	5219	9
5212	5207	5208	5219	9
5215	5207	5208	5219	9
5219	7390	7380	7379	9
5219	7390	7380	7383	9
5208	5209	5210	5217	9
5213	5209	5210	5217	9
5212	5211	5210	5217	9
5214	5211	5210	5217	9
5217	5227	5221	5224	9
5217	5227	5221	5222	9
5208	5219	7390	7380	9
5208	5219	7390	7392	9
5208	5209	5210	5211	9
5208	5207	5212	5211	9
5208	5207	5212	5216	9
5210	5217	5227	5221	9
5210	5217	5227	5228	9
5207	5208	5209	5210	9
5207	5212	5211	5210	9
5210	5211	5212	5216	9
5209	5208	5219	5220	9
5209	5208	5219	7390	9
5209	5208	5207	5212	9
5209	5208	5207	5215	9
5209	5210	5217	5218	9
5209	5210	5217	5227	9
5209	5210	5211	5212	9
5209	5210	5211	5214	9
5207	5208	5219	5220	9
5207	5208	5219	7390	9
5207	5208	5209	5213	9
5207	5212	5211	5214	9
5211	5210	5217	5218	9
5211	5210	5217	5227	9
5211	5210	5209	5213	9
5211	5212	5207	5215	9
5215	5207	5212	5216	9
5214	5211	5212	5216	9
5220	5219	7390	7380	9
5220	5219	7390	7392	9
5218	5217	5227	5221	9
5218	5217	5227	5228	9
11500	11501	11502	11509	9
11505	11501	11502	11509	9
11504	11503	11502	11509	9
11506	11503	11502	11509	9
546	545	552	11509	9
544	545	552	11509	9
11502	11501	11500	11511	9
11505	11501	11500	11511	9
11504	11499	11500	11511	9
11507	11499	11500	11511	9
11511	4360	4353	4352	9
11511	4360	4353	4354	9
545	552	11509	11502	9
554	552	11509	11502	9
11499	11500	11501	11502	9
11499	11504	11503	11502	9
11502	11503	11504	11508	9
11500	11511	4360	4353	9
11500	11511	4360	4362	9
11500	11501	11502	11503	9
11500	11499	11504	11503	9
11500	11499	11504	11508	9
11501	11502	11509	11510	9
552	11509	11502	11501	9
11501	11502	11503	11504	9
11501	11502	11503	11506	9
11501	11500	11511	11512	9
11501	11500	11511	4360	9
11501	11500	11499	11504	9
11501	11500	11499	11507	9
11503	11502	11509	11510	9
552	11509	11502	11503	9
11503	11502	11501	11505	9
11503	11504	11499	11507	9
11499	11500	11511	11512	9
11499	11500	11511	4360	9
11499	11500	11501	11505	9
11499	11504	11503	11506	9
11506	11503	11504	11508	9
11507	11499	11504	11508	9
545	552	11509	11510	9
554	552	11509	11510	9
11512	11511	4360	4353	9
11512	11511	4360	4362	9
5050	5049	5048	5059	9
5053	5049	5048	5059	9
5052	5047	5048	5059	9
5055	5047	5048	5059	9
5059	5067	5061	5062	9
5059	5067	5061	5064	9
5048	5049	5050	5057	9
5053	5049	5050	5057	9
5052	5051	5050	5057	9
5054	5051	5050	5057	9
5057	8382	8375	8374	9
5057	8382	8375	8376	9
5048	5059	5067	5061	9
5048	5059	5067	5068	9
5048	5049	5050	5051	9
5048	5047	5052	5051	9
5048	5047	5052	5056	9
5050	5057	8382	8375	9
5050	5057	8382	8384	9
5047	5048	5049	5050	9
5047	5052	5051	5050	9
5050	5051	5052	5056	9
5049	5048	5059	5060	9
5049	5048	5059	5067	9
5049	5048	5047	5052	9
5049	5048	5047	5055	9
5049	5050	5057	5058	9
5049	5050	5057	8382	9
5049	5050	5051	5052	9
5049	5050	5051	5054	9
5047	5048	5059	5060	9
5047	5048	5059	5067	9
5047	5048	5049	5053	9
5047	5052	5051	5054	9
5051	5050	5057	5058	9
5051	5050	5057	8382	9
5051	5050	5049	5053	9
5051	5052	5047	5055	9
5055	5047	5052	5056	9
5054	5051	5052	5056	9
5060	5059	5067	5061	9
5060	5059	5067	5068	9
5058	5057	8382	8375	9
5058	5057	8382	8384	9
282	281	280	291	9
285	281	280	291	9
284	279	280	291	9
287	279	280	291	9
263	260	266	291	9
261	260	266	291	9
280	281	282	289	9
285	281	282	289	9
284	283	282	289	9
286	283	282	289	9
289	5933	5923	5926	9
289	5933	5923	5922	9
260	266	291	280	9
267	266	291	280	9
280	281	282	283	9
280	279	284	283	9
280	279	284	288	9
282	289	5933	5923	9
282	289	5933	5935	9
279	280	281	282	9
279	284	283	282	9
282	283	284	288	9
281	280	291	292	9
266	291	280	281	9
281	280	279	284	9
281	280	279	287	9
281	282	289	290	9
281	282	289	5933	9
281	282	283	284	9
281	282	283	286	9
279	280	291	292	9
266	291	280	279	9
279	280	281	285	9
279	284	283	286	9
283	282	289	290	9
283	282	289	5933	9
283	282	281	285	9
283	284	279	287	9
287	279	284	288	9
286	283	284	288	9
260	266	291	292	9
267	266	291	292	9
290	289	5933	5923	9
290	289	5933	5935	9
12004	12005	12006	12013	9
12009	12005	12006	12013	9
12008	12007	12006	12013	9
12010	12007	12006	12013	9
916	917	924	12013	9
918	917	924	12013	9
12006	12005	12004	12015	9
12009	12005	12004	12015	9
12008	12003	12004	12015	9
12011	12003	12004	12015	9
12015	5291	5281	5280	9
12015	5291	5281	5284	9
917	924	12013	12006	9
926	924	12013	12006	9
12003	12004	12005	12006	9
12003	12008	12007	12006	9
12006	12007	12008	12012	9
12004	12015	5291	5281	9
12004	12015	5291	5293	9
12004	12005	12006	12007	9
12004	12003	12008	12007	9
12004	12003	12008	12012	9
12005	12006	12013	12014	9
924	12013	12006	12005	9
12005	12006	12007	12008	9
12005	12006	12007	12010	9
12005	12004	12015	12016	9
12005	12004	12015	5291	9
12005	12004	12003	12008	9
12005	12004	12003	12011	9
12007	12006	12013	12014	9
924	12013	12006	12007	9
12007	12006	12005	12009	9
12007	12008	12003	12011	9
12003	12004	12015	12016	9
12003	12004	12015	5291	9
12003	12004	12005	12009	9
12003	12008	12007	12010	9
12010	12007	12008	12012	9
12011	12003	12008	12012	9
917	924	12013	12014	9
926	924	12013	12014	9
12016	12015	5291	5281	9
12016	12015	5291	5293	9
4207	4206	4205	4216	9
4210	4206	4205	4216	9
4209	4204	4205	4216	9
4212	4204	4205	4216	9
4216	4224	4218	4219	9
4216	4224	4218	4221	9
4205	4206	4207	4214	9
4210	4206	4207	4214	9
4209	4208	4207	4214	9
4211	4208	4207	4214	9
4214	7973	7963	7962	9
4214	7973	7963	7966	9
4205	4216	4224	4218	9
4205	4216	4224	4225	9
4205	4206	4207	4208	9
4205	4204	4209	4208	9
4205	4204	4209	4213	9
4207	4214	7973	7963	9
4207	4214	7973	7975	9
4204	4205	4206	4207	9
4204	4209	4208	4207	9
4207	4208	4209	4213	9
4206	4205	4216	4217	9
4206	4205	4216	4224	9
4206	4205	4204	4209	9
4206	4205	4204	4212	9
4206	4207	4214	4215	9
4206	4207	4214	7973	9
4206	4207	4208	4209	9
4206	4207	4208	4211	9
4204	4205	4216	4217	9
4204	4205	4216	4224	9
4204	4205	4206	4210	9
4204	4209	4208	4211	9
4208	4207	4214	4215	9
4208	4207	4214	7973	9
4208	4207	4206	4210	9
4208	4209	4204	4212	9
4212	4204	4209	4213	9
4211	4208	4209	4213	9
4217	4216	4224	4218	9
4217	4216	4224	4225	9
4215	4214	7973	7963	9
4215	4214	7973	7975	9
3694	3693	3692	3703	9
3697	3693	3692	3703	9
3696	3691	3692	3703	9
3699	3691	3692	3703	9
3692	3693	3694	3701	9
3697	3693	3694	3701	9
3696	3695	3694	3701	9
3698	3695	3694	3701	9
3701	11005	10999	11002	9
3701	11005	10999	11000	9
3692	3693	3694	3695	9
3692	3691	3696	3695	9
3692	3691	3696	3700	9
3694	3701	11005	10999	9
3694	3701	11005	11006	9
3691	3692	3693	3694	9
3691	3696	3695	3694	9
3694	3695	3696	3700	9
3693	3692	3703	3705	9
3693	3692	3703	3704	9
3693	3692	3691	3696	9
3693	3692	3691	3699	9
3693	3694	3701	3702	9
3693	3694	3701	11005	9
3693	3694	3695	3696	9
3693	3694	3695	3698	9
3691	3692	3703	3705	9
3691	3692	3703	3704	9
3691	3692	3693	3697	9
3691	3696	3695	3698	9
3695	3694	3701	3702	9
3695	3694	3701	11005	9
3695	3694	3693	3697	9
3695	3696	3691	3699	9
3699	3691	3696	3700	9
3698	3695	3696	3700	9
3702	3701	11005	10999	9
3702	3701	11005	11006	9
11292	11291	11290	11301	9
11295	11291	11290	11301	9
11294	11289	11290	11301	9
11297	11289	11290	11301	9
11301	4056	4046	4049	9
11301	4056	4046	4045	9
11290	11291	11292	11299	9
11295	11291	11292	11299	9
11294	11293	11292	11299	9
11296	11293	11292	11299	9
11299	11158	11148	11147	9
11299	11158	11148	11151	9
11290	11301	4056	4046	9
11290	11301	4056	4058	9
11290	11291	11292	11293	9
11290	11289	11294	11293	9
11290	11289	11294	11298	9
11292	11299	11158	11148	9
11292	11299	11158	11160	9
11289	11290	11291	11292	9
11289	11294	11293	11292	9
11292	11293	11294	11298	9
11291	11290	11301	11302	9
11291	11290	11301	4056	9
11291	11290	11289	11294	9
11291	11290	11289	11297	9
11291	11292	11299	11300	9
11291	11292	11299	11158	9
11291	11292	11293	11294	9
11291	11292	11293	11296	9
11289	11290	11301	11302	9
11289	11290	11301	4056	9
11289	11290	11291	11295	9
11289	11294	11293	11296	9
11293	11292	11299	11300	9
11293	11292	11299	11158	9
11293	11292	11291	11295	9
11293	11294	11289	11297	9
11297	11289	11294	11298	9
11296	11293	11294	11298	9
11302	11301	4056	4046	9
11302	11301	4056	4058	9
11300	11299	11158	11148	9
11300	11299	11158	11160	9
2734	2733	2732	2743	9
2737	2733	2732	2743	9
2736	2731	2732	2743	9
2739	2731	2732	2743	9
2732	2733	2734	2741	9
2737	2733	2734	2741	9
2736	2735	2734	2741	9
2738	2735	2734	2741	9
2741	4999	4992	4993	9
2741	4999	4992	4991	9
2732	2733	2734	2735	9
2732	2731	2736	2735	9
2732	2731	2736	2740	9
2734	2741	4999	4992	9
2734	2741	4999	5001	9
2731	2732	2733	2734	9
2731	2736	2735	2734	9
2734	2735	2736	2740	9
2733	2732	2743	2745	9
2733	2732	2743	2744	9
2733	2732	2731	2736	9
2733	2732	2731	2739	9
2733	2734	2741	2742	9
2733	2734	2741	4999	9
2733	2734	2735	2736	9
2733	2734	2735	2738	9
2731	2732	2743	2745	9
2731	2732	2743	2744	9
2731	2732	2733	2737	9
2731	2736	2735	2738	9
2735	2734	2741	2742	9
2735	2734	2741	4999	9
2735	2734	2733	2737	9
2735	2736	2731	2739	9
2739	2731	2736	2740	9
2738	2735	2736	2740	9
2742	2741	4999	4992	9
2742	2741	4999	5001	9
10256	10255	10254	10265	9
10259	10255	10254	10265	9
10258	10253	10254	10265	9
10261	10253	10254	10265	9
10265	10273	10267	10270	9
10265	10273	10267	10268	9
10254	10255	10256	10263	9
10259	10255	10256	10263	9
10258	10257	10256	10263	9
10260	10257	10256	10263	9
10263	10815	10809	10810	9
10263	10815	10809	10812	9
10254	10265	10273	10267	9
10254	10265	10273	10274	9
10254	10255	10256	10257	9
10254	10253	10258	10257	9
10254	10253	10258	10262	9
10256	10263	10815	10809	9
10256	10263	10815	10816	9
10253	10254	10255	10256	9
10253	10258	10257	10256	9
10256	10257	10258	10262	9
10255	10254	10265	10266	9
10255	10254	10265	10273	9
10255	10254	10253	10258	9
10255	10254	10253	10261	9
10255	10256	10263	10264	9
10255	10256	10263	10815	9
10255	10256	10257	10258	9
10255	10256	10257	10260	9
10253	10254	10265	10266	9
10253	10254	10265	10273	9
10253	10254	10255	10259	9
10253	10258	10257	10260	9
10257	10256	10263	10264	9
10257	10256	10263	10815	9
10257	10256	10255	10259	9
10257	10258	10253	10261	9
10261	10253	10258	10262	9
10260	10257	10258	10262	9
10266	10265	10273	10267	9
10266	10265	10273	10274	9
10264	10263	10815	10809	9
10264	10263	10815	10816	9
12384	12383	12382	12393	9
12387	12383	12382	12393	9
12386	12381	12382	12393	9
12389	12381	12382	12393	9
12393	10075	10068	10067	9
12393	10075	10068	10069	9
12382	12383	12384	12391	9
12387	12383	12384	12391	9
12386	12385	12384	12391	9
12388	12385	12384	12391	9
12391	5889	5879	5878	9
12391	5889	5879	5882	9
12382	12393	10075	10068	9
12382	12393	10075	10077	9
12382	12383	12384	12385	9
12382	12381	12386	12385	9
12382	12381	12386	12390	9
12384	12391	5889	5879	9
12384	12391	5889	5891	9
12381	12382	12383	12384	9
12381	12386	12385	12384	9
12384	12385	12386	12390	9
12383	12382	12393	12394	9
12383	12382	12393	10075	9
12383	12382	12381	12386	9
12383	12382	12381	12389	9
12383	12384	12391	12392	9
12383	12384	12391	5889	9
12383	12384	12385	12386	9
12383	12384	12385	12388	9
12381	12382	12393	12394	9
12381	12382	12393	10075	9
12381	12382	12383	12387	9
12381	12386	12385	12388	9
12385	12384	12391	12392	9
12385	12384	12391	5889	9
12385	12384	12383	12387	9
12385	12386	12381	12389	9
12389	12381	12386	12390	9
12388	12385	12386	12390	9
12394	12393	10075	10068	9
12394	12393	10075	10077	9
12392	12391	5889	5879	9
12392	12391	5889	5891	9
11698	11697	11696	11707	9
11701	11697	11696	11707	9
11700	11695	11696	11707	9
11703	11695	11696	11707	9
1166	1165	1172	11707	9
1164	1165	1172	11707	9
11696	11697	11698	11705	9
11701	11697	11698	11705	9
11700	11699	11698	11705	9
11702	11699	11698	11705	9
11705	4752	4745	4746	9
11705	4752	4745	4744	9
1165	1172	11707	11696	9
1174	1172	11707	11696	9
11696	11697	11698	11699	9
11696	11695	11700	11699	9
11696	11695	11700	11704	9
11698	11705	4752	4745	9
11698	11705	4752	4754	9
11695	11696	11697	11698	9
11695	11700	11699	11698	9
11698	11699	11700	11704	9
11697	11696	11707	11708	9
1172	11707	11696	11697	9
11697	11696	11695	11700	9
11697	11696	11695	11703	9
11697	11698	11705	11706	9
11697	11698	11705	4752	9
11697	11698	11699	11700	9
11697	11698	11699	11702	9
11695	11696	11707	11708	9
1172	11707	11696	11695	9
11695	11696	11697	11701	9
11695	11700	11699	11702	9
11699	11698	11705	11706	9
11699	11698	11705	4752	9
11699	11698	11697	11701	9
11699	11700	11695	11703	9
11703	11695	11700	11704	9
11702	11699	11700	11704	9
1165	1172	11707	11708	9
1174	1172	11707	11708	9
11706	11705	4752	4745	9
11706	11705	4752	4754	9
5123	5122	5121	5132	9
5126	5122	5121	5132	9
5125	5120	5121	5132	9
5128	5120	5121	5132	9
5132	9331	9324	9323	9
5132	9331	9324	9325	9
5121	5122	5123	5130	9
5126	5122	5123	5130	9
5125	5124	5123	5130	9
5127	5124	5123	5130	9
5130	5140	5134	5135	9
5130	5140	5134	5137	9
5121	5132	9331	9324	9
5121	5132	9331	9333	9
5121	5122	5123	5124	9
5121	5120	5125	5124	9
5121	5120	5125	5129	9
5123	5130	5140	5134	9
5123	5130	5140	5141	9
5120	5121	5122	5123	9
5120	5125	5124	5123	9
5123	5124	5125	5129	9
5122	5121	5132	5133	9
5122	5121	5132	9331	9
5122	5121	5120	5125	9
5122	5121	5120	5128	9
5122	5123	5130	5131	9
5122	5123	5130	5140	9
5122	5123	5124	5125	9
5122	5123	5124	5127	9
5120	5121	5132	5133	9
5120	5121	5132	9331	9
5120	5121	5122	5126	9
5120	5125	5124	5127	9
5124	5123	5130	5131	9
5124	5123	5130	5140	9
5124	5123	5122	5126	9
5124	5125	5120	5128	9
5128	5120	5125	5129	9
5127	5124	5125	5129	9
5133	5132	9331	9324	9
5133	5132	9331	9333	9
5131	5130	5140	5134	9
5131	5130	5140	5141	9
10329	10328	10327	10338	9
10332	10328	10327	10338	9
10331	10326	10327	10338	9
10334	10326	10327	10338	9
10338	7784	7774	7773	9
10338	7784	7774	7777	9
10327	10328	10329	10336	9
10332	10328	10329	10336	9
10331	10330	10329	10336	9
10333	10330	10329	10336	9
10336	10346	10340	10341	9
10336	10346	10340	10343	9
10327	10338	7784	7774	9
10327	10338	7784	7786	9
10327	10328	10329	10330	9
10327	10326	10331	10330	9
10327	10326	10331	10335	9
10329	10336	10346	10340	9
10329	10336	10346	10347	9
10326	10327	10328	10329	9
10326	10331	10330	10329	9
10329	10330	10331	10335	9
10328	10327	10338	10339	9
10328	10327	10338	7784	9
10328	10327	10326	10331	9
10328	10327	10326	10334	9
10328	10329	10336	10337	9
10328	10329	10336	10346	9
10328	10329	10330	10331	9
10328	10329	10330	10333	9
10326	10327	10338	10339	9
10326	10327	10338	7784	9
10326	10327	10328	10332	9
10326	10331	10330	10333	9
10330	10329	10336	10337	9
10330	10329	10336	10346	9
10330	10329	10328	10332	9
10330	10331	10326	10334	9
10334	10326	10331	10335	9
10333	10330	10331	10335	9
10339	10338	7784	7774	9
10339	10338	7784	7786	9
10337	10336	10346	10340	9
10337	10336	10346	10347	9
7630	7629	7628	7639	9
7633	7629	7628	7639	9
7632	7627	7628	7639	9
7635	7627	7628	7639	9
7639	7647	7641	7644	9
7639	7647	7641	7642	9
7628	7629	7630	7637	9
7633	7629	7630	7637	9
7632	7631	7630	7637	9
7634	7631	7630	7637	9
7637	10990	10984	10987	9
7637	10990	10984	10985	9
7628	7639	7647	7641	9
7628	7639	7647	7648	9
7628	7629	7630	7631	9
7628	7627	7632	7631	9
7628	7627	7632	7636	9
7630	7637	10990	10984	9
7630	7637	10990	10991	9
7627	7628	7629	7630	9
7627	7632	7631	7630	9
7630	7631	7632	7636	9
7629	7628	7639	7640	9
7629	7628	7639	7647	9
7629	7628	7627	7632	9
7629	7628	7627	7635	9
7629	7630	7637	7638	9
7629	7630	7637	10990	9
7629	7630	7631	7632	9
7629	7630	7631	7634	9
7627	7628	7639	7640	9
7627	7628	7639	7647	9
7627	7628	7629	7633	9
7627	7632	7631	7634	9
7631	7630	7637	7638	9
7631	7630	7637	10990	9
7631	7630	7629	7633	9
7631	7632	7627	7635	9
7635	7627	7632	7636	9
7634	7631	7632	7636	9
7640	7639	7647	7641	9
7640	7639	7647	7648	9
7638	7637	10990	10984	9
7638	7637	10990	10991	9
11208	11207	11206	11217	9
11211	11207	11206	11217	9
11210	11205	11206	11217	9
11213	11205	11206	11217	9
885	886	893	11217	9
887	886	893	11217	9
11206	11207	11208	11215	9
11211	11207	11208	11215	9
11210	11209	11208	11215	9
11212	11209	11208	11215	9
11215	3867	3857	3856	9
11215	3867	3857	3860	9
886	893	11217	11206	9
895	893	11217	11206	9
11206	11207	11208	11209	9
11206	11205	11210	11209	9
11206	11205	11210	11214	9
11208	11215	3867	3857	9
11208	11215	3867	3869	9
11205	11206	11207	11208	9
11205	11210	11209	11208	9
11208	11209	11210	11214	9
11207	11206	11217	11218	9
893	11217	11206	11207	9
11207	11206	11205	11210	9
11207	11206	11205	11213	9
11207	11208	11215	11216	9
11207	11208	11215	3867	9
11207	11208	11209	11210	9
11207	11208	11209	11212	9
11205	11206	11217	11218	9
893	11217	11206	11205	9
11205	11206	11207	11211	9
11205	11210	11209	11212	9
11209	11208	11215	11216	9
11209	11208	11215	3867	9
11209	11208	11207	11211	9
11209	11210	11205	11213	9
11213	11205	11210	11214	9
11212	11209	11210	11214	9
886	893	11217	11218	9
895	893	11217	11218	9
11216	11215	3867	3857	9
11216	11215	3867	3869	9
9133	9134	9135	9142	9
9138	9134	9135	9142	9
9137	9136	9135	9142	9
9139	9136	9135	9142	9
9142	9492	9482	9485	9
9142	9492	9482	9481	9
9135	9134	9133	9144	9
9138	9134	9133	9144	9
9137	9132	9133	9144	9
9140	9132	9133	9144	9
9144	9152	9146	9149	9
9144	9152	9146	9147	9
9135	9142	9492	9482	9
9135	9142	9492	9494	9
9132	9133	9134	9135	9
9132	9137	9136	9135	9
9135	9136	9137	9141	9
9133	9144	9152	9146	9
9133	9144	9152	9153	9
9133	9134	9135	9136	9
9133	9132	9137	9136	9
9133	9132	9137	9141	9
9134	9135	9142	9143	9
9134	9135	9142	9492	9
9134	9135	9136	9137	9
9134	9135	9136	9139	9
9134	9133	9144	9145	9
9134	9133	9144	9152	9
9134	9133	9132	9137	9
9134	9133	9132	9140	9
9136	9135	9142	9143	9
9136	9135	9142	9492	9
9136	9135	9134	9138	9
9136	9137	9132	9140	9
9132	9133	9144	9145	9
9132	9133	9144	9152	9
9132	9133	9134	9138	9
9132	9137	9136	9139	9
9139	9136	9137	9141	9
9140	9132	9137	9141	9
9143	9142	9492	9482	9
9143	9142	9492	9494	9
9145	9144	9152	9146	9
9145	9144	9152	9153	9
559	560	561	568	9
564	560	561	568	9
563	562	561	568	9
565	562	561	568	9
542	541	547	568	9
544	541	547	568	9
561	560	559	570	9
564	560	559	570	9
563	558	559	570	9
566	558	559	570	9
570	5290	5283	5284	9
570	5290	5283	5282	9
541	547	568	561	9
548	547	568	561	9
561	560	559	558	9
561	562	563	558	9
561	562	563	567	9
559	570	5290	5283	9
559	570	5290	5292	9
562	561	560	559	9
562	563	558	559	9
559	558	563	567	9
560	561	568	569	9
547	568	561	560	9
560	561	562	563	9
560	561	562	565	9
560	559	570	571	9
560	559	570	5290	9
560	559	558	563	9
560	559	558	566	9
562	561	568	569	9
547	568	561	562	9
562	561	560	564	9
562	563	558	566	9
558	559	570	571	9
558	559	570	5290	9
558	559	560	564	9
558	563	562	565	9
565	562	563	567	9
566	558	563	567	9
541	547	568	569	9
548	547	568	569	9
571	570	5290	5283	9
571	570	5290	5292	9
2987	2988	2989	2996	9
2992	2988	2989	2996	9
2991	2990	2989	2996	9
2993	2990	2989	2996	9
2996	6691	6681	6684	9
2996	6691	6681	6680	9
2989	2988	2987	2998	9
2992	2988	2987	2998	9
2991	2986	2987	2998	9
2994	2986	2987	2998	9
2989	2996	6691	6681	9
2989	2996	6691	6693	9
2986	2987	2988	2989	9
2986	2991	2990	2989	9
2989	2990	2991	2995	9
2987	2988	2989	2990	9
2987	2986	2991	2990	9
2987	2986	2991	2995	9
2988	2989	2996	2997	9
2988	2989	2996	6691	9
2988	2989	2990	2991	9
2988	2989	2990	2993	9
2988	2987	2998	2999	9
2988	2987	2998	3000	9
2988	2987	2986	2991	9
2988	2987	2986	2994	9
2990	2989	2996	2997	9
2990	2989	2996	6691	9
2990	2989	2988	2992	9
2990	2991	2986	2994	9
2986	2987	2998	2999	9
2986	2987	2998	3000	9
2986	2987	2988	2992	9
2986	2991	2990	2993	9
2993	2990	2991	2995	9
2994	2986	2991	2995	9
2997	2996	6691	6681	9
2997	2996	6691	6693	9
9106	9105	9104	9115	9
9109	9105	9104	9115	9
9108	9103	9104	9115	9
9111	9103	9104	9115	9
9115	10454	10447	10446	9
9115	10454	10447	10448	9
9104	9105	9106	9113	9
9109	9105	9106	9113	9
9108	9107	9106	9113	9
9110	9107	9106	9113	9
9113	9123	9117	9118	9
9113	9123	9117	9120	9
9104	9115	10454	10447	9
9104	9115	10454	10456	9
9104	9105	9106	9107	9
9104	9103	9108	9107	9
9104	9103	9108	9112	9
9106	9113	9123	9117	9
9106	9113	9123	9124	9
9103	9104	9105	9106	9
9103	9108	9107	9106	9
9106	9107	9108	9112	9
9105	9104	9115	9116	9
9105	9104	9115	10454	9
9105	9104	9103	9108	9
9105	9104	9103	9111	9
9105	9106	9113	9114	9
9105	9106	9113	9123	9
9105	9106	9107	9108	9
9105	9106	9107	9110	9
9103	9104	9115	9116	9
9103	9104	9115	10454	9
9103	9104	9105	9109	9
9103	9108	9107	9110	9
9107	9106	9113	9114	9
9107	9106	9113	9123	9
9107	9106	9105	9109	9
9107	9108	9103	9111	9
9111	9103	9108	9112	9
9110	9107	9108	9112	9
9116	9115	10454	10447	9
9116	9115	10454	10456	9
9114	9113	9123	9117	9
9114	9113	9123	9124	9
13518	13517	13516	13527	9
13521	13517	13516	13527	9
13520	13515	13516	13527	9
13523	13515	13516	13527	9
13527	9129	9119	9118	9
13527	9129	9119	9122	9
13516	13517	13518	13525	9
13521	13517	13518	13525	9
13520	13519	13518	13525	9
13522	13519	13518	13525	9
13525	8996	8989	8988	9
13525	8996	8989	8990	9
13516	13527	9129	9119	9
13516	13527	9129	9131	9
13516	13517	13518	13519	9
13516	13515	13520	13519	9
13516	13515	13520	13524	9
13518	13525	8996	8989	9
13518	13525	8996	8998	9
13515	13516	13517	13518	9
13515	13520	13519	13518	9
13518	13519	13520	13524	9
13517	13516	13527	13528	9
13517	13516	13527	9129	9
13517	13516	13515	13520	9
13517	13516	13515	13523	9
13517	13518	13525	13526	9
13517	13518	13525	8996	9
13517	13518	13519	13520	9
13517	13518	13519	13522	9
13515	13516	13527	13528	9
13515	13516	13527	9129	9
13515	13516	13517	13521	9
13515	13520	13519	13522	9
13519	13518	13525	13526	9
13519	13518	13525	8996	9
13519	13518	13517	13521	9
13519	13520	13515	13523	9
13523	13515	13520	13524	9
13522	13519	13520	13524	9
13528	13527	9129	9119	9
13528	13527	9129	9131	9
13526	13525	8996	8989	9
13526	13525	8996	8998	9
3422	3423	3424	3431	9
3427	3423	3424	3431	9
3426	3425	3424	3431	9
3428	3425	3424	3431	9
3431	9463	9453	9456	9
3431	9463	9453	9452	9
3424	3423	3422	3433	9
3427	3423	3422	3433	9
3426	3421	3422	3433	9
3429	3421	3422	3433	9
3424	3431	9463	9453	9
3424	3431	9463	9465	9
3421	3422	3423	3424	9
3421	3426	3425	3424	9
3424	3425	3426	3430	9
3422	3423	3424	3425	9
3422	3421	3426	3425	9
3422	3421	3426	3430	9
3423	3424	3431	3432	9
3423	3424	3431	9463	9
3423	3424	3425	3426	9
3423	3424	3425	3428	9
3423	3422	3433	3434	9
3423	3422	3433	3435	9
3423	3422	3421	3426	9
3423	3422	3421	3429	9
3425	3424	3431	3432	9
3425	3424	3431	9463	9
3425	3424	3423	3427	9
3425	3426	3421	3429	9
3421	3422	3433	3434	9
3421	3422	3433	3435	9
3421	3422	3423	3427	9
3421	3426	3425	3428	9
3428	3425	3426	3430	9
3429	3421	3426	3430	9
3432	3431	9463	9453	9
3432	3431	9463	9465	9
7979	7978	7977	7988	9
7982	7978	7977	7988	9
7981	7976	7977	7988	9
7984	7976	7977	7988	9
7988	6967	6960	6961	9
7988	6967	6960	6959	9
7977	7978	7979	7986	9
7982	7978	7979	7986	9
7981	7980	7979	7986	9
7983	7980	7979	7986	9
7986	7996	7990	7991	9
7986	7996	7990	7993	9
7977	7988	6967	6960	9
7977	7988	6967	6969	9
7977	7978	7979	7980	9
7977	7976	7981	7980	9
7977	7976	7981	7985	9
7979	7986	7996	7990	9
7979	7986	7996	7997	9
7976	7977	7978	7979	9
7976	7981	7980	7979	9
7979	7980	7981	7985	9
7978	7977	7988	7989	9
7978	7977	7988	6967	9
7978	7977	7976	7981	9
7978	7977	7976	7984	9
7978	7979	7986	7987	9
7978	7979	7986	7996	9
7978	7979	7980	7981	9
7978	7979	7980	7983	9
7976	7977	7988	7989	9
7976	7977	7988	6967	9
7976	7977	7978	7982	9
7976	7981	7980	7983	9
7980	7979	7986	7987	9
7980	7979	7986	7996	9
7980	7979	7978	7982	9
7980	7981	7976	7984	9
7984	7976	7981	7985	9
7983	7980	7981	7985	9
7989	7988	6967	6960	9
7989	7988	6967	6969	9
7987	7986	7996	7990	9
7987	7986	7996	7997	9
1088	1087	1086	1097	9
1091	1087	1086	1097	9
1090	1085	1086	1097	9
1093	1085	1086	1097	9
1069	1068	1074	1097	9
1071	1068	1074	1097	9
1086	1087	1088	1095	9
1091	1087	1088	1095	9
1090	1089	1088	1095	9
1092	1089	1088	1095	9
1095	5582	5572	5575	9
1095	5582	5572	5571	9
1068	1074	1097	1086	9
1075	1074	1097	1086	9
1086	1087	1088	1089	9
1086	1085	1090	1089	9
1086	1085	1090	1094	9
1088	1095	5582	5572	9
1088	1095	5582	5584	9
1085	1086	1087	1088	9
1085	1090	1089	1088	9
1088	1089	1090	1094	9
1087	1086	1097	1098	9
1074	1097	1086	1087	9
1087	1086	1085	1090	9
1087	1086	1085	1093	9
1087	1088	1095	1096	9
1087	1088	1095	5582	9
1087	1088	1089	1090	9
1087	1088	1089	1092	9
1085	1086	1097	1098	9
1074	1097	1086	1085	9
1085	1086	1087	1091	9
1085	1090	1089	1092	9
1089	1088	1095	1096	9
1089	1088	1095	5582	9
1089	1088	1087	1091	9
1089	1090	1085	1093	9
1093	1085	1090	1094	9
1092	1089	1090	1094	9
1068	1074	1097	1098	9
1075	1074	1097	1098	9
1096	1095	5582	5572	9
1096	1095	5582	5584	9
13504	13503	13502	13513	9
13507	13503	13502	13513	9
13506	13501	13502	13513	9
13509	13501	13502	13513	9
13513	10952	10942	10941	9
13513	10952	10942	10945	9
13502	13503	13504	13511	9
13507	13503	13504	13511	9
13506	13505	13504	13511	9
13508	13505	13504	13511	9
13511	8997	8987	8990	9
13511	8997	8987	8986	9
13502	13513	10952	10942	9
13502	13513	10952	10954	9
13502	13503	13504	13505	9
13502	13501	13506	13505	9
13502	13501	13506	13510	9
13504	13511	8997	8987	9
13504	13511	8997	8999	9
13501	13502	13503	13504	9
13501	13506	13505	13504	9
13504	13505	13506	13510	9
13503	13502	13513	13514	9
13503	13502	13513	10952	9
13503	13502	13501	13506	9
13503	13502	13501	13509	9
13503	13504	13511	13512	9
13503	13504	13511	8997	9
13503	13504	13505	13506	9
13503	13504	13505	13508	9
13501	13502	13513	13514	9
13501	13502	13513	10952	9
13501	13502	13503	13507	9
13501	13506	13505	13508	9
13505	13504	13511	13512	9
13505	13504	13511	8997	9
13505	13504	13503	13507	9
13505	13506	13501	13509	9
13509	13501	13506	13510	9
13508	13505	13506	13510	9
13514	13513	10952	10942	9
13514	13513	10952	10954	9
13512	13511	8997	8987	9
13512	13511	8997	8999	9
10695	10694	10693	10704	9
10698	10694	10693	10704	9
10697	10692	10693	10704	9
10700	10692	10693	10704	9
10704	3968	3961	3960	9
10704	3968	3961	3962	9
10693	10694	10695	10702	9
10698	10694	10695	10702	9
10697	10696	10695	10702	9
10699	10696	10695	10702	9
10702	10712	10706	10707	9
10702	10712	10706	10709	9
10693	10704	3968	3961	9
10693	10704	3968	3970	9
10693	10694	10695	10696	9
10693	10692	10697	10696	9
10693	10692	10697	10701	9
10695	10702	10712	10706	9
10695	10702	10712	10713	9
10692	10693	10694	10695	9
10692	10697	10696	10695	9
10695	10696	10697	10701	9
10694	10693	10704	10705	9
10694	10693	10704	3968	9
10694	10693	10692	10697	9
10694	10693	10692	10700	9
10694	10695	10702	10703	9
10694	10695	10702	10712	9
10694	10695	10696	10697	9
10694	10695	10696	10699	9
10692	10693	10704	10705	9
10692	10693	10704	3968	9
10692	10693	10694	10698	9
10692	10697	10696	10699	9
10696	10695	10702	10703	9
10696	10695	10702	10712	9
10696	10695	10694	10698	9
10696	10697	10692	10700	9
10700	10692	10697	10701	9
10699	10696	10697	10701	9
10705	10704	3968	3961	9
10705	10704	3968	3970	9
10703	10702	10712	10706	9
10703	10702	10712	10713	9
5618	5617	5616	5627	9
5621	5617	5616	5627	9
5620	5615	5616	5627	9
5623	5615	5616	5627	9
2459	2458	2465	5627	9
2457	2458	2465	5627	9
5616	5617	5618	5625	9
5621	5617	5618	5625	9
5620	5619	5618	5625	9
5622	5619	5618	5625	9
5625	5635	5629	5632	9
5625	5635	5629	5630	9
2458	2465	5627	5616	9
2467	2465	5627	5616	9
5616	5617	5618	5619	9
5616	5615	5620	5619	9
5616	5615	5620	5624	9
5618	5625	5635	5629	9
5618	5625	5635	5636	9
5615	5616	5617	5618	9
5615	5620	5619	5618	9
5618	5619	5620	5624	9
5617	5616	5627	5628	9
2465	5627	5616	5617	9
5617	5616	5615	5620	9
5617	5616	5615	5623	9
5617	5618	5625	5626	9
5617	5618	5625	5635	9
5617	5618	5619	5620	9
5617	5618	5619	5622	9
5615	5616	5627	5628	9
2465	5627	5616	5615	9
5615	5616	5617	5621	9
5615	5620	5619	5622	9
5619	5618	5625	5626	9
5619	5618	5625	5635	9
5619	5618	5617	5621	9
5619	5620	5615	5623	9
5623	5615	5620	5624	9
5622	5619	5620	5624	9
2458	2465	5627	5628	9
2467	2465	5627	5628	9
5626	5625	5635	5629	9
5626	5625	5635	5636	9
437	436	435	446	9
440	436	435	446	9
439	434	435	446	9
442	434	435	446	9
446	6351	6345	6346	9
446	6351	6345	6348	9
435	436	437	444	9
440	436	437	444	9
439	438	437	444	9
441	438	437	444	9
418	417	423	444	9
420	417	423	444	9
435	446	6351	6345	9
435	446	6351	6352	9
435	436	437	438	9
435	434	439	438	9
435	434	439	443	9
417	423	444	437	9
424	423	444	437	9
434	435	436	437	9
434	439	438	437	9
437	438	439	443	9
436	435	446	447	9
436	435	446	6351	9
436	435	434	439	9
436	435	434	442	9
436	437	444	445	9
423	444	437	436	9
436	437	438	439	9
436	437	438	441	9
434	435	446	447	9
434	435	446	6351	9
434	435	436	440	9
434	439	438	441	9
438	437	444	445	9
423	444	437	438	9
438	437	436	440	9
438	439	434	442	9
442	434	439	443	9
441	438	439	443	9
447	446	6351	6345	9
447	446	6351	6352	9
417	423	444	445	9
424	423	444	445	9
7149	7148	7147	7158	9
7152	7148	7147	7158	9
7151	7146	7147	7158	9
7154	7146	7147	7158	9
7158	7166	7160	7163	9
7158	7166	7160	7161	9
7147	7148	7149	7156	9
7152	7148	7149	7156	9
7151	7150	7149	7156	9
7153	7150	7149	7156	9
7156	8616	8609	8610	9
7156	8616	8609	8608	9
7147	7158	7166	7160	9
7147	7158	7166	7167	9
7147	7148	7149	7150	9
7147	7146	7151	7150	9
7147	7146	7151	7155	9
7149	7156	8616	8609	9
7149	7156	8616	8618	9
7146	7147	7148	7149	9
7146	7151	7150	7149	9
7149	7150	7151	7155	9
7148	7147	7158	7159	9
7148	7147	7158	7166	9
7148	7147	7146	7151	9
7148	7147	7146	7154	9
7148	7149	7156	7157	9
7148	7149	7156	8616	9
7148	7149	7150	7151	9
7148	7149	7150	7153	9
7146	7147	7158	7159	9
7146	7147	7158	7166	9
7146	7147	7148	7152	9
7146	7151	7150	7153	9
7150	7149	7156	7157	9
7150	7149	7156	8616	9
7150	7149	7148	7152	9
7150	7151	7146	7154	9
7154	7146	7151	7155	9
7153	7150	7151	7155	9
7159	7158	7166	7160	9
7159	7158	7166	7167	9
7157	7156	8616	8609	9
7157	7156	8616	8618	9
685	684	683	694	9
688	684	683	694	9
687	682	683	694	9
690	682	683	694	9
694	10552	10546	10547	9
694	10552	10546	10549	9
683	684	685	692	9
688	684	685	692	9
687	686	685	692	9
689	686	685	692	9
666	665	671	692	9
668	665	671	692	9
683	694	10552	10546	9
683	694	10552	10553	9
683	684	685	686	9
683	682	687	686	9
683	682	687	691	9
665	671	692	685	9
672	671	692	685	9
682	683	684	685	9
682	687	686	685	9
685	686	687	691	9
684	683	694	695	9
684	683	694	10552	9
684	683	682	687	9
684	683	682	690	9
684	685	692	693	9
671	692	685	684	9
684	685	686	687	9
684	685	686	689	9
682	683	694	695	9
682	683	694	10552	9
682	683	684	688	9
682	687	686	689	9
686	685	692	693	9
671	692	685	686	9
686	685	684	688	9
686	687	682	690	9
690	682	687	691	9
689	686	687	691	9
695	694	10552	10546	9
695	694	10552	10553	9
665	671	692	693	9
672	671	692	693	9
6697	6696	6695	6706	9
6700	6696	6695	6706	9
6699	6694	6695	6706	9
6702	6694	6695	6706	9
6706	8367	8360	8361	9
6706	8367	8360	8359	9
6695	6696	6697	6704	9
6700	6696	6697	6704	9
6699	6698	6697	6704	9
6701	6698	6697	6704	9
6704	6714	6708	6709	9
6704	6714	6708	6711	9
6695	6706	8367	8360	9
6695	6706	8367	8369	9
6695	6696	6697	6698	9
6695	6694	6699	6698	9
6695	6694	6699	6703	9
6697	6704	6714	6708	9
6697	6704	6714	6715	9
6694	6695	6696	6697	9
6694	6699	6698	6697	9
6697	6698	6699	6703	9
6696	6695	6706	6707	9
6696	6695	6706	8367	9
6696	6695	6694	6699	9
6696	6695	6694	6702	9
6696	6697	6704	6705	9
6696	6697	6704	6714	9
6696	6697	6698	6699	9
6696	6697	6698	6701	9
6694	6695	6706	6707	9
6694	6695	6706	8367	9
6694	6695	6696	6700	9
6694	6699	6698	6701	9
6698	6697	6704	6705	9
6698	6697	6704	6714	9
6698	6697	6696	6700	9
6698	6699	6694	6702	9
6702	6694	6699	6703	9
6701	6698	6699	6703	9
6707	6706	8367	8360	9
6707	6706	8367	8369	9
6705	6704	6714	6708	9
6705	6704	6714	6715	9
3482	3483	3484	3491	9
3487	3483	3484	3491	9
3486	3485	3484	3491	9
3488	3485	3484	3491	9
3491	9608	9601	9602	9
3491	9608	9601	9600	9
3484	3483	3482	3493	9
3487	3483	3482	3493	9
3486	3481	3482	3493	9
3489	3481	3482	3493	9
3484	3491	9608	9601	9
3484	3491	9608	9610	9
3481	3482	3483	3484	9
3481	3486	3485	3484	9
3484	3485	3486	3490	9
3482	3483	3484	3485	9
3482	3481	3486	3485	9
3482	3481	3486	3490	9
3483	3484	3491	3492	9
3483	3484	3491	9608	9
3483	3484	3485	3486	9
3483	3484	3485	3488	9
3483	3482	3493	3495	9
3483	3482	3493	3494	9
3483	3482	3481	3486	9
3483	3482	3481	3489	9
3485	3484	3491	3492	9
3485	3484	3491	9608	9
3485	3484	3483	3487	9
3485	3486	3481	3489	9
3481	3482	3493	3495	9
3481	3482	3493	3494	9
3481	3482	3483	3487	9
3481	3486	3485	3488	9
3488	3485	3486	3490	9
3489	3481	3486	3490	9
3492	3491	9608	9601	9
3492	3491	9608	9610	9
13056	13055	13054	13065	9
13059	13055	13054	13065	9
13058	13053	13054	13065	9
13061	13053	13054	13065	9
13065	7624	7614	7617	9
13065	7624	7614	7613	9
13054	13055	13056	13063	9
13059	13055	13056	13063	9
13058	13057	13056	13063	9
13060	13057	13056	13063	9
13063	10278	10271	10270	9
13063	10278	10271	10272	9
13054	13065	7624	7614	9
13054	13065	7624	7626	9
13054	13055	13056	13057	9
13054	13053	13058	13057	9
13054	13053	13058	13062	9
13056	13063	10278	10271	9
13056	13063	10278	10280	9
13053	13054	13055	13056	9
13053	13058	13057	13056	9
13056	13057	13058	13062	9
13055	13054	13065	13066	9
13055	13054	13065	7624	9
13055	13054	13053	13058	9
13055	13054	13053	13061	9
13055	13056	13063	13064	9
13055	13056	13063	10278	9
13055	13056	13057	13058	9
13055	13056	13057	13060	9
13053	13054	13065	13066	9
13053	13054	13065	7624	9
13053	13054	13055	13059	9
13053	13058	13057	13060	9
13057	13056	13063	13064	9
13057	13056	13063	10278	9
13057	13056	13055	13059	9
13057	13058	13053	13061	9
13061	13053	13058	13062	9
13060	13057	13058	13062	9
13066	13065	7624	7614	9
13066	13065	7624	7626	9
13064	13063	10278	10271	9
13064	13063	10278	10280	9
11418	11417	11416	11427	9
11421	11417	11416	11427	9
11420	11415	11416	11427	9
11423	11415	11416	11427	9
11427	7522	7512	7511	9
11427	7522	7512	7515	9
11416	11417	11418	11425	9
11421	11417	11418	11425	9
11420	11419	11418	11425	9
11422	11419	11418	11425	9
11425	4230	4220	4219	9
11425	4230	4220	4223	9
11416	11427	7522	7512	9
11416	11427	7522	7524	9
11416	11417	11418	11419	9
11416	11415	11420	11419	9
11416	11415	11420	11424	9
11418	11425	4230	4220	9
11418	11425	4230	4232	9
11415	11416	11417	11418	9
11415	11420	11419	11418	9
11418	11419	11420	11424	9
11417	11416	11427	11428	9
11417	11416	11427	7522	9
11417	11416	11415	11420	9
11417	11416	11415	11423	9
11417	11418	11425	11426	9
11417	11418	11425	4230	9
11417	11418	11419	11420	9
11417	11418	11419	11422	9
11415	11416	11427	11428	9
11415	11416	11427	7522	9
11415	11416	11417	11421	9
11415	11420	11419	11422	9
11419	11418	11425	11426	9
11419	11418	11425	4230	9
11419	11418	11417	11421	9
11419	11420	11415	11423	9
11423	11415	11420	11424	9
11422	11419	11420	11424	9
11428	11427	7522	7512	9
11428	11427	7522	7524	9
11426	11425	4230	4220	9
11426	11425	4230	4232	9
12762	12761	12760	12771	9
12765	12761	12760	12771	9
12764	12759	12760	12771	9
12767	12759	12760	12771	9
2552	2551	2558	12771	9
2550	2551	2558	12771	9
12760	12761	12762	12769	9
12765	12761	12762	12769	9
12764	12763	12762	12769	9
12766	12763	12762	12769	9
12769	6719	6712	6713	9
12769	6719	6712	6711	9
2551	2558	12771	12760	9
2560	2558	12771	12760	9
12760	12761	12762	12763	9
12760	12759	12764	12763	9
12760	12759	12764	12768	9
12762	12769	6719	6712	9
12762	12769	6719	6721	9
12759	12760	12761	12762	9
12759	12764	12763	12762	9
12762	12763	12764	12768	9
12761	12760	12771	12772	9
2558	12771	12760	12761	9
12761	12760	12759	12764	9
12761	12760	12759	12767	9
12761	12762	12769	12770	9
12761	12762	12769	6719	9
12761	12762	12763	12764	9
12761	12762	12763	12766	9
12759	12760	12771	12772	9
2558	12771	12760	12759	9
12759	12760	12761	12765	9
12759	12764	12763	12766	9
12763	12762	12769	12770	9
12763	12762	12769	6719	9
12763	12762	12761	12765	9
12763	12764	12759	12767	9
12767	12759	12764	12768	9
12766	12763	12764	12768	9
2551	2558	12771	12772	9
2560	2558	12771	12772	9
12770	12769	6719	6712	9
12770	12769	6719	6721	9
4033	4032	4031	4042	9
4036	4032	4031	4042	9
4035	4030	4031	4042	9
4038	4030	4031	4042	9
4042	6282	6275	6274	9
4042	6282	6275	6276	9
4031	4032	4033	4040	9
4036	4032	4033	4040	9
4035	4034	4033	4040	9
4037	4034	4033	4040	9
4040	4050	4044	4047	9
4040	4050	4044	4045	9
4031	4042	6282	6275	9
4031	4042	6282	6284	9
4031	4032	4033	4034	9
4031	4030	4035	4034	9
4031	4030	4035	4039	9
4033	4040	4050	4044	9
4033	4040	4050	4051	9
4030	4031	4032	4033	9
4030	4035	4034	4033	9
4033	4034	4035	4039	9
4032	4031	4042	4043	9
4032	4031	4042	6282	9
4032	4031	4030	4035	9
4032	4031	4030	4038	9
4032	4033	4040	4041	9
4032	4033	4040	4050	9
4032	4033	4034	4035	9
4032	4033	4034	4037	9
4030	4031	4042	4043	9
4030	4031	4042	6282	9
4030	4031	4032	4036	9
4030	4035	4034	4037	9
4034	4033	4040	4041	9
4034	4033	4040	4050	9
4034	4033	4032	4036	9
4034	4035	4030	4038	9
4038	4030	4035	4039	9
4037	4034	4035	4039	9
4043	4042	6282	6275	9
4043	4042	6282	6284	9
4041	4040	4050	4044	9
4041	4040	4050	4051	9
2319	2318	2317	2328	9
2322	2318	2317	2328	9
2321	2316	2317	2328	9
2324	2316	2317	2328	9
2300	2299	2305	2328	9
2302	2299	2305	2328	9
2317	2318	2319	2326	9
2322	2318	2319	2326	9
2321	2320	2319	2326	9
2323	2320	2319	2326	9
2326	10806	10796	10799	9
2326	10806	10796	10795	9
2299	2305	2328	2317	9
2306	2305	2328	2317	9
2317	2318	2319	2320	9
2317	2316	2321	2320	9
2317	2316	2321	2325	9
2319	2326	10806	10796	9
2319	2326	10806	10808	9
2316	2317	2318	2319	9
2316	2321	2320	2319	9
2319	2320	2321	2325	9
2318	2317	2328	2329	9
2305	2328	2317	2318	9
2318	2317	2316	2321	9
2318	2317	2316	2324	9
2318	2319	2326	2327	9
2318	2319	2326	10806	9
2318	2319	2320	2321	9
2318	2319	2320	2323	9
2316	2317	2328	2329	9
2305	2328	2317	2316	9
2316	2317	2318	2322	9
2316	2321	2320	2323	9
2320	2319	2326	2327	9
2320	2319	2326	10806	9
2320	2319	2318	2322	9
2320	2321	2316	2324	9
2324	2316	2321	2325	9
2323	2320	2321	2325	9
2299	2305	2328	2329	9
2306	2305	2328	2329	9
2327	2326	10806	10796	9
2327	2326	10806	10808	9
6639	6638	6637	6648	9
6642	6638	6637	6648	9
6641	6636	6637	6648	9
6644	6636	6637	6648	9
6648	6656	6650	6651	9
6648	6656	6650	6653	9
6637	6638	6639	6646	9
6642	6638	6639	6646	9
6641	6640	6639	6646	9
6643	6640	6639	6646	9
6646	8952	8945	8944	9
6646	8952	8945	8946	9
6637	6648	6656	6650	9
6637	6648	6656	6657	9
6637	6638	6639	6640	9
6637	6636	6641	6640	9
6637	6636	6641	6645	9
6639	6646	8952	8945	9
6639	6646	8952	8954	9
6636	6637	6638	6639	9
6636	6641	6640	6639	9
6639	6640	6641	6645	9
6638	6637	6648	6649	9
6638	6637	6648	6656	9
6638	6637	6636	6641	9
6638	6637	6636	6644	9
6638	6639	6646	6647	9
6638	6639	6646	8952	9
6638	6639	6640	6641	9
6638	6639	6640	6643	9
6636	6637	6648	6649	9
6636	6637	6648	6656	9
6636	6637	6638	6642	9
6636	6641	6640	6643	9
6640	6639	6646	6647	9
6640	6639	6646	8952	9
6640	6639	6638	6642	9
6640	6641	6636	6644	9
6644	6636	6641	6645	9
6643	6640	6641	6645	9
6649	6648	6656	6650	9
6649	6648	6656	6657	9
6647	6646	8952	8945	9
6647	6646	8952	8954	9
7557	7556	7555	7566	9
7560	7556	7555	7566	9
7559	7554	7555	7566	9
7562	7554	7555	7566	9
7566	7574	7568	7571	9
7566	7574	7568	7569	9
7555	7556	7557	7564	9
7560	7556	7557	7564	9
7559	7558	7557	7564	9
7561	7558	7557	7564	9
7564	4637	4627	4626	9
7564	4637	4627	4630	9
7555	7566	7574	7568	9
7555	7566	7574	7575	9
7555	7556	7557	7558	9
7555	7554	7559	7558	9
7555	7554	7559	7563	9
7557	7564	4637	4627	9
7557	7564	4637	4639	9
7554	7555	7556	7557	9
7554	7559	7558	7557	9
7557	7558	7559	7563	9
7556	7555	7566	7567	9
7556	7555	7566	7574	9
7556	7555	7554	7559	9
7556	7555	7554	7562	9
7556	7557	7564	7565	9
7556	7557	7564	4637	9
7556	7557	7558	7559	9
7556	7557	7558	7561	9
7554	7555	7566	7567	9
7554	7555	7566	7574	9
7554	7555	7556	7560	9
7554	7559	7558	7561	9
7558	7557	7564	7565	9
7558	7557	7564	4637	9
7558	7557	7556	7560	9
7558	7559	7554	7562	9
7562	7554	7559	7563	9
7561	7558	7559	7563	9
7567	7566	7574	7568	9
7567	7566	7574	7575	9
7565	7564	4637	4627	9
7565	7564	4637	4639	9
12818	12817	12816	12827	9
12821	12817	12816	12827	9
12820	12815	12816	12827	9
12823	12815	12816	12827	9
12827	6968	6958	6957	9
12827	6968	6958	6961	9
12816	12817	12818	12825	9
12821	12817	12818	12825	9
12820	12819	12818	12825	9
12822	12819	12818	12825	9
2519	2520	2527	12825	9
2521	2520	2527	12825	9
12816	12827	6968	6958	9
12816	12827	6968	6970	9
12816	12817	12818	12819	9
12816	12815	12820	12819	9
12816	12815	12820	12824	9
2520	2527	12825	12818	9
2529	2527	12825	12818	9
12815	12816	12817	12818	9
12815	12820	12819	12818	9
12818	12819	12820	12824	9
12817	12816	12827	12828	9
12817	12816	12827	6968	9
12817	12816	12815	12820	9
12817	12816	12815	12823	9
12817	12818	12825	12826	9
2527	12825	12818	12817	9
12817	12818	12819	12820	9
12817	12818	12819	12822	9
12815	12816	12827	12828	9
12815	12816	12827	6968	9
12815	12816	12817	12821	9
12815	12820	12819	12822	9
12819	12818	12825	12826	9
2527	12825	12818	12819	9
12819	12818	12817	12821	9
12819	12820	12815	12823	9
12823	12815	12820	12824	9
12822	12819	12820	12824	9
12828	12827	6968	6958	9
12828	12827	6968	6970	9
2520	2527	12825	12826	9
2529	2527	12825	12826	9
13028	13027	13026	13037	9
13031	13027	13026	13037	9
13030	13025	13026	13037	9
13033	13025	13026	13037	9
13037	9332	9322	9325	9
13037	9332	9322	9321	9
13026	13027	13028	13035	9
13031	13027	13028	13035	9
13030	13029	13028	13035	9
13032	13029	13028	13035	9
13035	7551	7541	7544	9
13035	7551	7541	7540	9
13026	13037	9332	9322	9
13026	13037	9332	9334	9
13026	13027	13028	13029	9
13026	13025	13030	13029	9
13026	13025	13030	13034	9
13028	13035	7551	7541	9
13028	13035	7551	7553	9
13025	13026	13027	13028	9
13025	13030	13029	13028	9
13028	13029	13030	13034	9
13027	13026	13037	13038	9
13027	13026	13037	9332	9
13027	13026	13025	13030	9
13027	13026	13025	13033	9
13027	13028	13035	13036	9
13027	13028	13035	7551	9
13027	13028	13029	13030	9
13027	13028	13029	13032	9
13025	13026	13037	13038	9
13025	13026	13037	9332	9
13025	13026	13027	13031	9
13025	13030	13029	13032	9
13029	13028	13035	13036	9
13029	13028	13035	7551	9
13029	13028	13027	13031	9
13029	13030	13025	13033	9
13033	13025	13030	13034	9
13032	13029	13030	13034	9
13038	13037	9332	9322	9
13038	13037	9332	9334	9
13036	13035	7551	7541	9
13036	13035	7551	7553	9
4440	4439	4438	4449	9
4443	4439	4438	4449	9
4442	4437	4438	4449	9
4445	4437	4438	4449	9
4449	4457	4451	4452	9
4449	4457	4451	4454	9
4438	4439	4440	4447	9
4443	4439	4440	4447	9
4442	4441	4440	4447	9
4444	4441	4440	4447	9
4447	6938	6931	6932	9
4447	6938	6931	6930	9
4438	4449	4457	4451	9
4438	4449	4457	4458	9
4438	4439	4440	4441	9
4438	4437	4442	4441	9
4438	4437	4442	4446	9
4440	4447	6938	6931	9
4440	4447	6938	6940	9
4437	4438	4439	4440	9
4437	4442	4441	4440	9
4440	4441	4442	4446	9
4439	4438	4449	4450	9
4439	4438	4449	4457	9
4439	4438	4437	4442	9
4439	4438	4437	4445	9
4439	4440	4447	4448	9
4439	4440	4447	6938	9
4439	4440	4441	4442	9
4439	4440	4441	4444	9
4437	4438	4449	4450	9
4437	4438	4449	4457	9
4437	4438	4439	4443	9
4437	4442	4441	4444	9
4441	4440	4447	4448	9
4441	4440	4447	6938	9
4441	4440	4439	4443	9
4441	4442	4437	4445	9
4445	4437	4442	4446	9
4444	4441	4442	4446	9
4450	4449	4457	4451	9
4450	4449	4457	4458	9
4448	4447	6938	6931	9
4448	4447	6938	6940	9
10783	10782	10781	10792	9
10786	10782	10781	10792	9
10785	10780	10781	10792	9
10788	10780	10781	10792	9
10792	10800	10794	10797	9
10792	10800	10794	10795	9
10781	10782	10783	10790	9
10786	10782	10783	10790	9
10785	10784	10783	10790	9
10787	10784	10783	10790	9
10790	5947	5940	5939	9
10790	5947	5940	5941	9
10781	10792	10800	10794	9
10781	10792	10800	10801	9
10781	10782	10783	10784	9
10781	10780	10785	10784	9
10781	10780	10785	10789	9
10783	10790	5947	5940	9
10783	10790	5947	5949	9
10780	10781	10782	10783	9
10780	10785	10784	10783	9
10783	10784	10785	10789	9
10782	10781	10792	10793	9
10782	10781	10792	10800	9
10782	10781	10780	10785	9
10782	10781	10780	10788	9
10782	10783	10790	10791	9
10782	10783	10790	5947	9
10782	10783	10784	10785	9
10782	10783	10784	10787	9
10780	10781	10792	10793	9
10780	10781	10792	10800	9
10780	10781	10782	10786	9
10780	10785	10784	10787	9
10784	10783	10790	10791	9
10784	10783	10790	5947	9
10784	10783	10782	10786	9
10784	10785	10780	10788	9
10788	10780	10785	10789	9
10787	10784	10785	10789	9
10793	10792	10800	10794	9
10793	10792	10800	10801	9
10791	10790	5947	5940	9
10791	10790	5947	5949	9
3709	3708	3707	3718	9
3712	3708	3707	3718	9
3711	3706	3707	3718	9
3714	3706	3707	3718	9
3707	3708	3709	3716	9
3712	3708	3709	3716	9
3711	3710	3709	3716	9
3713	3710	3709	3716	9
3716	11010	11003	11002	9
3716	11010	11003	11004	9
3707	3708	3709	3710	9
3707	3706	3711	3710	9
3707	3706	3711	3715	9
3709	3716	11010	11003	9
3709	3716	11010	11012	9
3706	3707	3708	3709	9
3706	3711	3710	3709	9
3709	3710	3711	3715	9
3708	3707	3718	3719	9
3708	3707	3718	3720	9
3708	3707	3706	3711	9
3708	3707	3706	3714	9
3708	3709	3716	3717	9
3708	3709	3716	11010	9
3708	3709	3710	3711	9
3708	3709	3710	3713	9
3706	3707	3718	3719	9
3706	3707	3718	3720	9
3706	3707	3708	3712	9
3706	3711	3710	3713	9
3710	3709	3716	3717	9
3710	3709	3716	11010	9
3710	3709	3708	3712	9
3710	3711	3706	3714	9
3714	3706	3711	3715	9
3713	3710	3711	3715	9
3717	3716	11010	11003	9
3717	3716	11010	11012	9
10929	10928	10927	10938	9
10932	10928	10927	10938	9
10931	10926	10927	10938	9
10934	10926	10927	10938	9
10938	10922	10915	10916	9
10938	10922	10915	10914	9
10927	10928	10929	10936	9
10932	10928	10929	10936	9
10931	10930	10929	10936	9
10933	10930	10929	10936	9
10936	10946	10940	10941	9
10936	10946	10940	10943	9
10927	10938	10922	10915	9
10927	10938	10922	10924	9
10927	10928	10929	10930	9
10927	10926	10931	10930	9
10927	10926	10931	10935	9
10929	10936	10946	10940	9
10929	10936	10946	10947	9
10926	10927	10928	10929	9
10926	10931	10930	10929	9
10929	10930	10931	10935	9
10928	10927	10938	10939	9
10928	10927	10938	10922	9
10928	10927	10926	10931	9
10928	10927	10926	10934	9
10928	10929	10936	10937	9
10928	10929	10936	10946	9
10928	10929	10930	10931	9
10928	10929	10930	10933	9
10926	10927	10938	10939	9
10926	10927	10938	10922	9
10926	10927	10928	10932	9
10926	10931	10930	10933	9
10930	10929	10936	10937	9
10930	10929	10936	10946	9
10930	10929	10928	10932	9
10930	10931	10926	10934	9
10934	10926	10931	10935	9
10933	10930	10931	10935	9
10939	10938	10922	10915	9
10939	10938	10922	10924	9
10937	10936	10946	10940	9
10937	10936	10946	10947	9
3542	3543	3544	3551	9
3547	3543	3544	3551	9
3546	3545	3544	3551	9
3548	3545	3544	3551	9
3551	9785	9775	9774	9
3551	9785	9775	9778	9
3544	3543	3542	3553	9
3547	3543	3542	3553	9
3546	3541	3542	3553	9
3549	3541	3542	3553	9
3544	3551	9785	9775	9
3544	3551	9785	9787	9
3541	3542	3543	3544	9
3541	3546	3545	3544	9
3544	3545	3546	3550	9
3542	3543	3544	3545	9
3542	3541	3546	3545	9
3542	3541	3546	3550	9
3543	3544	3551	3552	9
3543	3544	3551	9785	9
3543	3544	3545	3546	9
3543	3544	3545	3548	9
3543	3542	3553	3554	9
3543	3542	3553	3555	9
3543	3542	3541	3546	9
3543	3542	3541	3549	9
3545	3544	3551	3552	9
3545	3544	3551	9785	9
3545	3544	3543	3547	9
3545	3546	3541	3549	9
3541	3542	3553	3554	9
3541	3542	3553	3555	9
3541	3542	3543	3547	9
3541	3546	3545	3548	9
3548	3545	3546	3550	9
3549	3541	3546	3550	9
3552	3551	9785	9775	9
3552	3551	9785	9787	9
13014	13013	13012	13023	9
13017	13013	13012	13023	9
13016	13011	13012	13023	9
13019	13011	13012	13023	9
13023	7521	7514	7515	9
13023	7521	7514	7513	9
13012	13013	13014	13021	9
13017	13013	13014	13021	9
13016	13015	13014	13021	9
13018	13015	13014	13021	9
13021	9520	9513	9514	9
13021	9520	9513	9512	9
13012	13023	7521	7514	9
13012	13023	7521	7523	9
13012	13013	13014	13015	9
13012	13011	13016	13015	9
13012	13011	13016	13020	9
13014	13021	9520	9513	9
13014	13021	9520	9522	9
13011	13012	13013	13014	9
13011	13016	13015	13014	9
13014	13015	13016	13020	9
13013	13012	13023	13024	9
13013	13012	13023	7521	9
13013	13012	13011	13016	9
13013	13012	13011	13019	9
13013	13014	13021	13022	9
13013	13014	13021	9520	9
13013	13014	13015	13016	9
13013	13014	13015	13018	9
13011	13012	13023	13024	9
13011	13012	13023	7521	9
13011	13012	13013	13017	9
13011	13016	13015	13018	9
13015	13014	13021	13022	9
13015	13014	13021	9520	9
13015	13014	13013	13017	9
13015	13016	13011	13019	9
13019	13011	13016	13020	9
13018	13015	13016	13020	9
13024	13023	7521	7514	9
13024	13023	7521	7523	9
13022	13021	9520	9513	9
13022	13021	9520	9522	9
10024	10023	10022	10033	9
10027	10023	10022	10033	9
10026	10021	10022	10033	9
10029	10021	10022	10033	9
10033	10041	10035	10038	9
10033	10041	10035	10036	9
10022	10023	10024	10031	9
10027	10023	10024	10031	9
10026	10025	10024	10031	9
10028	10025	10024	10031	9
10031	3998	3988	3987	9
10031	3998	3988	3991	9
10022	10033	10041	10035	9
10022	10033	10041	10042	9
10022	10023	10024	10025	9
10022	10021	10026	10025	9
10022	10021	10026	10030	9
10024	10031	3998	3988	9
10024	10031	3998	4000	9
10021	10022	10023	10024	9
10021	10026	10025	10024	9
10024	10025	10026	10030	9
10023	10022	10033	10034	9
10023	10022	10033	10041	9
10023	10022	10021	10026	9
10023	10022	10021	10029	9
10023	10024	10031	10032	9
10023	10024	10031	3998	9
10023	10024	10025	10026	9
10023	10024	10025	10028	9
10021	10022	10033	10034	9
10021	10022	10033	10041	9
10021	10022	10023	10027	9
10021	10026	10025	10028	9
10025	10024	10031	10032	9
10025	10024	10031	3998	9
10025	10024	10023	10027	9
10025	10026	10021	10029	9
10029	10021	10026	10030	9
10028	10025	10026	10030	9
10034	10033	10041	10035	9
10034	10033	10041	10042	9
10032	10031	3998	3988	9
10032	10031	3998	4000	9
11348	11347	11346	11357	9
11351	11347	11346	11357	9
11350	11345	11346	11357	9
11353	11345	11346	11357	9
11357	4142	4135	4136	9
11357	4142	4135	4134	9
11346	11347	11348	11355	9
11351	11347	11348	11355	9
11350	11349	11348	11355	9
11352	11349	11348	11355	9
11355	10279	10269	10272	9
11355	10279	10269	10268	9
11346	11357	4142	4135	9
11346	11357	4142	4144	9
11346	11347	11348	11349	9
11346	11345	11350	11349	9
11346	11345	11350	11354	9
11348	11355	10279	10269	9
11348	11355	10279	10281	9
11345	11346	11347	11348	9
11345	11350	11349	11348	9
11348	11349	11350	11354	9
11347	11346	11357	11358	9
11347	11346	11357	4142	9
11347	11346	11345	11350	9
11347	11346	11345	11353	9
11347	11348	11355	11356	9
11347	11348	11355	10279	9
11347	11348	11349	11350	9
11347	11348	11349	11352	9
11345	11346	11357	11358	9
11345	11346	11357	4142	9
11345	11346	11347	11351	9
11345	11350	11349	11352	9
11349	11348	11355	11356	9
11349	11348	11355	10279	9
11349	11348	11347	11351	9
11349	11350	11345	11353	9
11353	11345	11350	11354	9
11352	11349	11350	11354	9
11358	11357	4142	4135	9
11358	11357	4142	4144	9
11356	11355	10279	10269	9
11356	11355	10279	10281	9
3452	3453	3454	3461	9
3457	3453	3454	3461	9
3456	3455	3454	3461	9
3458	3455	3454	3461	9
3461	9549	9542	9541	9
3461	9549	9542	9543	9
3454	3453	3452	3463	9
3457	3453	3452	3463	9
3456	3451	3452	3463	9
3459	3451	3452	3463	9
3454	3461	9549	9542	9
3454	3461	9549	9551	9
3451	3452	3453	3454	9
3451	3456	3455	3454	9
3454	3455	3456	3460	9
3452	3453	3454	3455	9
3452	3451	3456	3455	9
3452	3451	3456	3460	9
3453	3454	3461	3462	9
3453	3454	3461	9549	9
3453	3454	3455	3456	9
3453	3454	3455	3458	9
3453	3452	3463	3465	9
3453	3452	3463	3464	9
3453	3452	3451	3456	9
3453	3452	3451	3459	9
3455	3454	3461	3462	9
3455	3454	3461	9549	9
3455	3454	3453	3457	9
3455	3456	3451	3459	9
3451	3452	3463	3465	9
3451	3452	3463	3464	9
3451	3452	3453	3457	9
3451	3456	3455	3458	9
3458	3455	3456	3460	9
3459	3451	3456	3460	9
3462	3461	9549	9542	9
3462	3461	9549	9551	9
9995	9994	9993	10004	9
9998	9994	9993	10004	9
9997	9992	9993	10004	9
10000	9992	9993	10004	9
10004	10012	10006	10007	9
10004	10012	10006	10009	9
9993	9994	9995	10002	9
9998	9994	9995	10002	9
9997	9996	9995	10002	9
9999	9996	9995	10002	9
10002	5348	5341	5340	9
10002	5348	5341	5342	9
9993	10004	10012	10006	9
9993	10004	10012	10013	9
9993	9994	9995	9996	9
9993	9992	9997	9996	9
9993	9992	9997	10001	9
9995	10002	5348	5341	9
9995	10002	5348	5350	9
9992	9993	9994	9995	9
9992	9997	9996	9995	9
9995	9996	9997	10001	9
9994	9993	10004	10005	9
9994	9993	10004	10012	9
9994	9993	9992	9997	9
9994	9993	9992	10000	9
9994	9995	10002	10003	9
9994	9995	10002	5348	9
9994	9995	9996	9997	9
9994	9995	9996	9999	9
9992	9993	10004	10005	9
9992	9993	10004	10012	9
9992	9993	9994	9998	9
9992	9997	9996	9999	9
9996	9995	10002	10003	9
9996	9995	10002	5348	9
9996	9995	9994	9998	9
9996	9997	9992	10000	9
10000	9992	9997	10001	9
9999	9996	9997	10001	9
10005	10004	10012	10006	9
10005	10004	10012	10013	9
10003	10002	5348	5341	9
10003	10002	5348	5350	9
4977	4976	4975	4986	9
4980	4976	4975	4986	9
4979	4974	4975	4986	9
4982	4974	4975	4986	9
4986	4994	4988	4989	9
4986	4994	4988	4991	9
4975	4976	4977	4984	9
4980	4976	4977	4984	9
4979	4978	4977	4984	9
4981	4978	4977	4984	9
4984	6030	6024	6027	9
4984	6030	6024	6025	9
4975	4986	4994	4988	9
4975	4986	4994	4995	9
4975	4976	4977	4978	9
4975	4974	4979	4978	9
4975	4974	4979	4983	9
4977	4984	6030	6024	9
4977	4984	6030	6031	9
4974	4975	4976	4977	9
4974	4979	4978	4977	9
4977	4978	4979	4983	9
4976	4975	4986	4987	9
4976	4975	4986	4994	9
4976	4975	4974	4979	9
4976	4975	4974	4982	9
4976	4977	4984	4985	9
4976	4977	4984	6030	9
4976	4977	4978	4979	9
4976	4977	4978	4981	9
4974	4975	4986	4987	9
4974	4975	4986	4994	9
4974	4975	4976	4980	9
4974	4979	4978	4981	9
4978	4977	4984	4985	9
4978	4977	4984	6030	9
4978	4977	4976	4980	9
4978	4979	4974	4982	9
4982	4974	4979	4983	9
4981	4978	4979	4983	9
4987	4986	4994	4988	9
4987	4986	4994	4995	9
4985	4984	6030	6024	9
4985	4984	6030	6031	9
2629	2628	2627	2638	9
2632	2628	2627	2638	9
2631	2626	2627	2638	9
2634	2626	2627	2638	9
2627	2628	2629	2636	9
2632	2628	2629	2636	9
2631	2630	2629	2636	9
2633	2630	2629	2636	9
2636	3876	3870	3873	9
2636	3876	3870	3871	9
2627	2628	2629	2630	9
2627	2626	2631	2630	9
2627	2626	2631	2635	9
2629	2636	3876	3870	9
2629	2636	3876	3877	9
2626	2627	2628	2629	9
2626	2631	2630	2629	9
2629	2630	2631	2635	9
2628	2627	2638	2639	9
2628	2627	2638	2640	9
2628	2627	2626	2631	9
2628	2627	2626	2634	9
2628	2629	2636	2637	9
2628	2629	2636	3876	9
2628	2629	2630	2631	9
2628	2629	2630	2633	9
2626	2627	2638	2639	9
2626	2627	2638	2640	9
2626	2627	2628	2632	9
2626	2631	2630	2633	9
2630	2629	2636	2637	9
2630	2629	2636	3876	9
2630	2629	2628	2632	9
2630	2631	2626	2634	9
2634	2626	2631	2635	9
2633	2630	2631	2635	9
2637	2636	3876	3870	9
2637	2636	3876	3877	9
3077	3078	3079	3086	9
3082	3078	3079	3086	9
3081	3080	3079	3086	9
3083	3080	3079	3086	9
3086	7478	7468	7471	9
3086	7478	7468	7467	9
3079	3078	3077	3088	9
3082	3078	3077	3088	9
3081	3076	3077	3088	9
3084	3076	3077	3088	9
3079	3086	7478	7468	9
3079	3086	7478	7480	9
3076	3077	3078	3079	9
3076	3081	3080	3079	9
3079	3080	3081	3085	9
3077	3078	3079	3080	9
3077	3076	3081	3080	9
3077	3076	3081	3085	9
3078	3079	3086	3087	9
3078	3079	3086	7478	9
3078	3079	3080	3081	9
3078	3079	3080	3083	9
3078	3077	3088	3089	9
3078	3077	3088	3090	9
3078	3077	3076	3081	9
3078	3077	3076	3084	9
3080	3079	3086	3087	9
3080	3079	3086	7478	9
3080	3079	3078	3082	9
3080	3081	3076	3084	9
3076	3077	3088	3089	9
3076	3077	3088	3090	9
3076	3077	3078	3082	9
3076	3081	3080	3083	9
3083	3080	3081	3085	9
3084	3076	3081	3085	9
3087	3086	7478	7468	9
3087	3086	7478	7480	9
6901	6900	6899	6910	9
6904	6900	6899	6910	9
6903	6898	6899	6910	9
6906	6898	6899	6910	9
6910	6720	6710	6713	9
6910	6720	6710	6709	9
6899	6900	6901	6908	9
6904	6900	6901	6908	9
6903	6902	6901	6908	9
6905	6902	6901	6908	9
6908	6918	6912	6913	9
6908	6918	6912	6915	9
6899	6910	6720	6710	9
6899	6910	6720	6722	9
6899	6900	6901	6902	9
6899	6898	6903	6902	9
6899	6898	6903	6907	9
6901	6908	6918	6912	9
6901	6908	6918	6919	9
6898	6899	6900	6901	9
6898	6903	6902	6901	9
6901	6902	6903	6907	9
6900	6899	6910	6911	9
6900	6899	6910	6720	9
6900	6899	6898	6903	9
6900	6899	6898	6906	9
6900	6901	6908	6909	9
6900	6901	6908	6918	9
6900	6901	6902	6903	9
6900	6901	6902	6905	9
6898	6899	6910	6911	9
6898	6899	6910	6720	9
6898	6899	6900	6904	9
6898	6903	6902	6905	9
6902	6901	6908	6909	9
6902	6901	6908	6918	9
6902	6901	6900	6904	9
6902	6903	6898	6906	9
6906	6898	6903	6907	9
6905	6902	6903	6907	9
6911	6910	6720	6710	9
6911	6910	6720	6722	9
6909	6908	6918	6912	9
6909	6908	6918	6919	9
11992	11991	11990	12001	9
11995	11991	11990	12001	9
11994	11989	11990	12001	9
11997	11989	11990	12001	9
12001	5232	5225	5224	9
12001	5232	5225	5226	9
11990	11991	11992	11999	9
11995	11991	11992	11999	9
11994	11993	11992	11999	9
11996	11993	11992	11999	9
11999	8778	8768	8771	9
11999	8778	8768	8767	9
11990	12001	5232	5225	9
11990	12001	5232	5234	9
11990	11991	11992	11993	9
11990	11989	11994	11993	9
11990	11989	11994	11998	9
11992	11999	8778	8768	9
11992	11999	8778	8780	9
11989	11990	11991	11992	9
11989	11994	11993	11992	9
11992	11993	11994	11998	9
11991	11990	12001	12002	9
11991	11990	12001	5232	9
11991	11990	11989	11994	9
11991	11990	11989	11997	9
11991	11992	11999	12000	9
11991	11992	11999	8778	9
11991	11992	11993	11994	9
11991	11992	11993	11996	9
11989	11990	12001	12002	9
11989	11990	12001	5232	9
11989	11990	11991	11995	9
11989	11994	11993	11996	9
11993	11992	11999	12000	9
11993	11992	11999	8778	9
11993	11992	11991	11995	9
11993	11994	11989	11997	9
11997	11989	11994	11998	9
11996	11993	11994	11998	9
12002	12001	5232	5225	9
12002	12001	5232	5234	9
12000	11999	8778	8768	9
12000	11999	8778	8780	9
12048	12047	12046	12057	9
12051	12047	12046	12057	9
12050	12045	12046	12057	9
12053	12045	12046	12057	9
12057	8074	8067	8068	9
12057	8074	8067	8066	9
12046	12047	12048	12055	9
12051	12047	12048	12055	9
12050	12049	12048	12055	9
12052	12049	12048	12055	9
12055	5451	5441	5444	9
12055	5451	5441	5440	9
12046	12057	8074	8067	9
12046	12057	8074	8076	9
12046	12047	12048	12049	9
12046	12045	12050	12049	9
12046	12045	12050	12054	9
12048	12055	5451	5441	9
12048	12055	5451	5453	9
12045	12046	12047	12048	9
12045	12050	12049	12048	9
12048	12049	12050	12054	9
12047	12046	12057	12058	9
12047	12046	12057	8074	9
12047	12046	12045	12050	9
12047	12046	12045	12053	9
12047	12048	12055	12056	9
12047	12048	12055	5451	9
12047	12048	12049	12050	9
12047	12048	12049	12052	9
12045	12046	12057	12058	9
12045	12046	12057	8074	9
12045	12046	12047	12051	9
12045	12050	12049	12052	9
12049	12048	12055	12056	9
12049	12048	12055	5451	9
12049	12048	12047	12051	9
12049	12050	12045	12053	9
12053	12045	12050	12054	9
12052	12049	12050	12054	9
12058	12057	8074	8067	9
12058	12057	8074	8076	9
12056	12055	5451	5441	9
12056	12055	5451	5453	9
592	591	590	601	9
595	591	590	601	9
594	589	590	601	9
597	589	590	601	9
601	10464	10458	10461	9
601	10464	10458	10459	9
590	591	592	599	9
595	591	592	599	9
594	593	592	599	9
596	593	592	599	9
573	572	578	599	9
575	572	578	599	9
590	601	10464	10458	9
590	601	10464	10465	9
590	591	592	593	9
590	589	594	593	9
590	589	594	598	9
572	578	599	592	9
579	578	599	592	9
589	590	591	592	9
589	594	593	592	9
592	593	594	598	9
591	590	601	602	9
591	590	601	10464	9
591	590	589	594	9
591	590	589	597	9
591	592	599	600	9
578	599	592	591	9
591	592	593	594	9
591	592	593	596	9
589	590	601	602	9
589	590	601	10464	9
589	590	591	595	9
589	594	593	596	9
593	592	599	600	9
578	599	592	593	9
593	592	591	595	9
593	594	589	597	9
597	589	594	598	9
596	593	594	598	9
602	601	10464	10458	9
602	601	10464	10465	9
572	578	599	600	9
579	578	599	600	9
13252	13251	13250	13261	9
13255	13251	13250	13261	9
13254	13249	13250	13261	9
13257	13249	13250	13261	9
13261	9683	9673	9672	9
13261	9683	9673	9676	9
13250	13251	13252	13259	9
13255	13251	13252	13259	9
13254	13253	13252	13259	9
13256	13253	13252	13259	9
13259	8205	8198	8197	9
13259	8205	8198	8199	9
13250	13261	9683	9673	9
13250	13261	9683	9685	9
13250	13251	13252	13253	9
13250	13249	13254	13253	9
13250	13249	13254	13258	9
13252	13259	8205	8198	9
13252	13259	8205	8207	9
13249	13250	13251	13252	9
13249	13254	13253	13252	9
13252	13253	13254	13258	9
13251	13250	13261	13262	9
13251	13250	13261	9683	9
13251	13250	13249	13254	9
13251	13250	13249	13257	9
13251	13252	13259	13260	9
13251	13252	13259	8205	9
13251	13252	13253	13254	9
13251	13252	13253	13256	9
13249	13250	13261	13262	9
13249	13250	13261	9683	9
13249	13250	13251	13255	9
13249	13254	13253	13256	9
13253	13252	13259	13260	9
13253	13252	13259	8205	9
13253	13252	13251	13255	9
13253	13254	13249	13257	9
13257	13249	13254	13258	9
13256	13253	13254	13258	9
13262	13261	9683	9673	9
13262	13261	9683	9685	9
13260	13259	8205	8198	9
13260	13259	8205	8207	9
12118	12117	12116	12127	9
12121	12117	12116	12127	9
12120	12115	12116	12127	9
12123	12115	12116	12127	9
12127	10572	10565	10566	9
12127	10572	10565	10564	9
12116	12117	12118	12125	9
12121	12117	12118	12125	9
12120	12119	12118	12125	9
12122	12119	12118	12125	9
12125	5552	5545	5544	9
12125	5552	5545	5546	9
12116	12127	10572	10565	9
12116	12127	10572	10574	9
12116	12117	12118	12119	9
12116	12115	12120	12119	9
12116	12115	12120	12124	9
12118	12125	5552	5545	9
12118	12125	5552	5554	9
12115	12116	12117	12118	9
12115	12120	12119	12118	9
12118	12119	12120	12124	9
12117	12116	12127	12128	9
12117	12116	12127	10572	9
12117	12116	12115	12120	9
12117	12116	12115	12123	9
12117	12118	12125	12126	9
12117	12118	12125	5552	9
12117	12118	12119	12120	9
12117	12118	12119	12122	9
12115	12116	12127	12128	9
12115	12116	12127	10572	9
12115	12116	12117	12121	9
12115	12120	12119	12122	9
12119	12118	12125	12126	9
12119	12118	12125	5552	9
12119	12118	12117	12121	9
12119	12120	12115	12123	9
12123	12115	12120	12124	9
12122	12119	12120	12124	9
12128	12127	10572	10565	9
12128	12127	10572	10574	9
12126	12125	5552	5545	9
12126	12125	5552	5554	9
6450	6449	6448	6459	9
6453	6449	6448	6459	9
6452	6447	6448	6459	9
6455	6447	6448	6459	9
1790	1789	1796	6459	9
1788	1789	1796	6459	9
6448	6449	6450	6457	9
6453	6449	6450	6457	9
6452	6451	6450	6457	9
6454	6451	6450	6457	9
6457	6467	6461	6464	9
6457	6467	6461	6462	9
1789	1796	6459	6448	9
1798	1796	6459	6448	9
6448	6449	6450	6451	9
6448	6447	6452	6451	9
6448	6447	6452	6456	9
6450	6457	6467	6461	9
6450	6457	6467	6468	9
6447	6448	6449	6450	9
6447	6452	6451	6450	9
6450	6451	6452	6456	9
6449	6448	6459	6460	9
1796	6459	6448	6449	9
6449	6448	6447	6452	9
6449	6448	6447	6455	9
6449	6450	6457	6458	9
6449	6450	6457	6467	9
6449	6450	6451	6452	9
6449	6450	6451	6454	9
6447	6448	6459	6460	9
1796	6459	6448	6447	9
6447	6448	6449	6453	9
6447	6452	6451	6454	9
6451	6450	6457	6458	9
6451	6450	6457	6467	9
6451	6450	6449	6453	9
6451	6452	6447	6455	9
6455	6447	6452	6456	9
6454	6451	6452	6456	9
1789	1796	6459	6460	9
1798	1796	6459	6460	9
6458	6457	6467	6461	9
6458	6457	6467	6468	9
3334	3333	3332	3343	9
3337	3333	3332	3343	9
3336	3331	3332	3343	9
3339	3331	3332	3343	9
3332	3333	3334	3341	9
3337	3333	3334	3341	9
3336	3335	3334	3341	9
3338	3335	3334	3341	9
3341	9035	9029	9030	9
3341	9035	9029	9032	9
3332	3333	3334	3335	9
3332	3331	3336	3335	9
3332	3331	3336	3340	9
3334	3341	9035	9029	9
3334	3341	9035	9036	9
3331	3332	3333	3334	9
3331	3336	3335	3334	9
3334	3335	3336	3340	9
3333	3332	3343	3345	9
3333	3332	3343	3344	9
3333	3332	3331	3336	9
3333	3332	3331	3339	9
3333	3334	3341	3342	9
3333	3334	3341	9035	9
3333	3334	3335	3336	9
3333	3334	3335	3338	9
3331	3332	3343	3345	9
3331	3332	3343	3344	9
3331	3332	3333	3337	9
3331	3336	3335	3338	9
3335	3334	3341	3342	9
3335	3334	3341	9035	9
3335	3334	3333	3337	9
3335	3336	3331	3339	9
3339	3331	3336	3340	9
3338	3335	3336	3340	9
3342	3341	9035	9029	9
3342	3341	9035	9036	9
3214	3213	3212	3223	9
3217	3213	3212	3223	9
3216	3211	3212	3223	9
3219	3211	3212	3223	9
3212	3213	3214	3221	9
3217	3213	3214	3221	9
3216	3215	3214	3221	9
3218	3215	3214	3221	9
3221	8572	8565	8566	9
3221	8572	8565	8564	9
3212	3213	3214	3215	9
3212	3211	3216	3215	9
3212	3211	3216	3220	9
3214	3221	8572	8565	9
3214	3221	8572	8574	9
3211	3212	3213	3214	9
3211	3216	3215	3214	9
3214	3215	3216	3220	9
3213	3212	3223	3225	9
3213	3212	3223	3224	9
3213	3212	3211	3216	9
3213	3212	3211	3219	9
3213	3214	3221	3222	9
3213	3214	3221	8572	9
3213	3214	3215	3216	9
3213	3214	3215	3218	9
3211	3212	3223	3225	9
3211	3212	3223	3224	9
3211	3212	3213	3217	9
3211	3216	3215	3218	9
3215	3214	3221	3222	9
3215	3214	3221	8572	9
3215	3214	3213	3217	9
3215	3216	3211	3219	9
3219	3211	3216	3220	9
3218	3215	3216	3220	9
3222	3221	8572	8565	9
3222	3221	8572	8574	9
11740	11739	11738	11749	9
11743	11739	11738	11749	9
11742	11737	11738	11749	9
11745	11737	11738	11749	9
11749	8339	8329	8328	9
11749	8339	8329	8332	9
11738	11739	11740	11747	9
11743	11739	11740	11747	9
11742	11741	11740	11747	9
11744	11741	11740	11747	9
11747	4781	4774	4773	9
11747	4781	4774	4775	9
11738	11749	8339	8329	9
11738	11749	8339	8341	9
11738	11739	11740	11741	9
11738	11737	11742	11741	9
11738	11737	11742	11746	9
11740	11747	4781	4774	9
11740	11747	4781	4783	9
11737	11738	11739	11740	9
11737	11742	11741	11740	9
11740	11741	11742	11746	9
11739	11738	11749	11750	9
11739	11738	11749	8339	9
11739	11738	11737	11742	9
11739	11738	11737	11745	9
11739	11740	11747	11748	9
11739	11740	11747	4781	9
11739	11740	11741	11742	9
11739	11740	11741	11744	9
11737	11738	11749	11750	9
11737	11738	11749	8339	9
11737	11738	11739	11743	9
11737	11742	11741	11744	9
11741	11740	11747	11748	9
11741	11740	11747	4781	9
11741	11740	11739	11743	9
11741	11742	11737	11745	9
11745	11737	11742	11746	9
11744	11741	11742	11746	9
11750	11749	8339	8329	9
11750	11749	8339	8341	9
11748	11747	4781	4774	9
11748	11747	4781	4783	9
12970	12971	12972	12979	9
12975	12971	12972	12979	9
12974	12973	12972	12979	9
12976	12973	12972	12979	9
12979	7404	7397	7396	9
12979	7404	7397	7398	9
12972	12971	12970	12981	9
12975	12971	12970	12981	9
12974	12969	12970	12981	9
12977	12969	12970	12981	9
12981	8718	8711	8710	9
12981	8718	8711	8712	9
12972	12979	7404	7397	9
12972	12979	7404	7406	9
12969	12970	12971	12972	9
12969	12974	12973	12972	9
12972	12973	12974	12978	9
12970	12981	8718	8711	9
12970	12981	8718	8720	9
12970	12971	12972	12973	9
12970	12969	12974	12973	9
12970	12969	12974	12978	9
12971	12972	12979	12980	9
12971	12972	12979	7404	9
12971	12972	12973	12974	9
12971	12972	12973	12976	9
12971	12970	12981	12982	9
12971	12970	12981	8718	9
12971	12970	12969	12974	9
12971	12970	12969	12977	9
12973	12972	12979	12980	9
12973	12972	12979	7404	9
12973	12972	12971	12975	9
12973	12974	12969	12977	9
12969	12970	12981	12982	9
12969	12970	12981	8718	9
12969	12970	12971	12975	9
12969	12974	12973	12976	9
12976	12973	12974	12978	9
12977	12969	12974	12978	9
12980	12979	7404	7397	9
12980	12979	7404	7406	9
12982	12981	8718	8711	9
12982	12981	8718	8720	9
12370	12369	12368	12379	9
12373	12369	12368	12379	9
12372	12367	12368	12379	9
12375	12367	12368	12379	9
12379	5888	5881	5882	9
12379	5888	5881	5880	9
12368	12369	12370	12377	9
12373	12369	12370	12377	9
12372	12371	12370	12377	9
12374	12371	12370	12377	9
12377	8661	8651	8650	9
12377	8661	8651	8654	9
12368	12379	5888	5881	9
12368	12379	5888	5890	9
12368	12369	12370	12371	9
12368	12367	12372	12371	9
12368	12367	12372	12376	9
12370	12377	8661	8651	9
12370	12377	8661	8663	9
12367	12368	12369	12370	9
12367	12372	12371	12370	9
12370	12371	12372	12376	9
12369	12368	12379	12380	9
12369	12368	12379	5888	9
12369	12368	12367	12372	9
12369	12368	12367	12375	9
12369	12370	12377	12378	9
12369	12370	12377	8661	9
12369	12370	12371	12372	9
12369	12370	12371	12374	9
12367	12368	12379	12380	9
12367	12368	12379	5888	9
12367	12368	12369	12373	9
12367	12372	12371	12374	9
12371	12370	12377	12378	9
12371	12370	12377	8661	9
12371	12370	12369	12373	9
12371	12372	12367	12375	9
12375	12367	12372	12376	9
12374	12371	12372	12376	9
12380	12379	5888	5881	9
12380	12379	5888	5890	9
12378	12377	8661	8651	9
12378	12377	8661	8663	9
12398	12397	12396	12407	9
12401	12397	12396	12407	9
12400	12395	12396	12407	9
12403	12395	12396	12407	9
12407	5917	5910	5911	9
12407	5917	5910	5909	9
12396	12397	12398	12405	9
12401	12397	12398	12405	9
12400	12399	12398	12405	9
12402	12399	12398	12405	9
12405	10323	10313	10312	9
12405	10323	10313	10316	9
12396	12407	5917	5910	9
12396	12407	5917	5919	9
12396	12397	12398	12399	9
12396	12395	12400	12399	9
12396	12395	12400	12404	9
12398	12405	10323	10313	9
12398	12405	10323	10325	9
12395	12396	12397	12398	9
12395	12400	12399	12398	9
12398	12399	12400	12404	9
12397	12396	12407	12408	9
12397	12396	12407	5917	9
12397	12396	12395	12400	9
12397	12396	12395	12403	9
12397	12398	12405	12406	9
12397	12398	12405	10323	9
12397	12398	12399	12400	9
12397	12398	12399	12402	9
12395	12396	12407	12408	9
12395	12396	12407	5917	9
12395	12396	12397	12401	9
12395	12400	12399	12402	9
12399	12398	12405	12406	9
12399	12398	12405	10323	9
12399	12398	12397	12401	9
12399	12400	12395	12403	9
12403	12395	12400	12404	9
12402	12399	12400	12404	9
12408	12407	5917	5910	9
12408	12407	5917	5919	9
12406	12405	10323	10313	9
12406	12405	10323	10325	9
3407	3408	3409	3416	9
3412	3408	3409	3416	9
3411	3410	3409	3416	9
3413	3410	3409	3416	9
3416	9186	9179	9178	9
3416	9186	9179	9180	9
3409	3408	3407	3418	9
3412	3408	3407	3418	9
3411	3406	3407	3418	9
3414	3406	3407	3418	9
3409	3416	9186	9179	9
3409	3416	9186	9188	9
3406	3407	3408	3409	9
3406	3411	3410	3409	9
3409	3410	3411	3415	9
3407	3408	3409	3410	9
3407	3406	3411	3410	9
3407	3406	3411	3415	9
3408	3409	3416	3417	9
3408	3409	3416	9186	9
3408	3409	3410	3411	9
3408	3409	3410	3413	9
3408	3407	3418	3419	9
3408	3407	3418	3420	9
3408	3407	3406	3411	9
3408	3407	3406	3414	9
3410	3409	3416	3417	9
3410	3409	3416	9186	9
3410	3409	3408	3412	9
3410	3411	3406	3414	9
3406	3407	3418	3419	9
3406	3407	3418	3420	9
3406	3407	3408	3412	9
3406	3411	3410	3413	9
3413	3410	3411	3415	9
3414	3406	3411	3415	9
3417	3416	9186	9179	9
3417	3416	9186	9188	9
9251	9250	9249	9260	9
9254	9250	9249	9260	9
9253	9248	9249	9260	9
9256	9248	9249	9260	9
9260	9268	9262	9265	9
9260	9268	9262	9263	9
9249	9250	9251	9258	9
9254	9250	9251	9258	9
9253	9252	9251	9258	9
9255	9252	9251	9258	9
9258	9910	9904	9907	9
9258	9910	9904	9905	9
9249	9260	9268	9262	9
9249	9260	9268	9269	9
9249	9250	9251	9252	9
9249	9248	9253	9252	9
9249	9248	9253	9257	9
9251	9258	9910	9904	9
9251	9258	9910	9911	9
9248	9249	9250	9251	9
9248	9253	9252	9251	9
9251	9252	9253	9257	9
9250	9249	9260	9261	9
9250	9249	9260	9268	9
9250	9249	9248	9253	9
9250	9249	9248	9256	9
9250	9251	9258	9259	9
9250	9251	9258	9910	9
9250	9251	9252	9253	9
9250	9251	9252	9255	9
9248	9249	9260	9261	9
9248	9249	9260	9268	9
9248	9249	9250	9254	9
9248	9253	9252	9255	9
9252	9251	9258	9259	9
9252	9251	9258	9910	9
9252	9251	9250	9254	9
9252	9253	9248	9256	9
9256	9248	9253	9257	9
9255	9252	9253	9257	9
9261	9260	9268	9262	9
9261	9260	9268	9269	9
9259	9258	9910	9904	9
9259	9258	9910	9911	9
9469	9468	9467	9478	9
9472	9468	9467	9478	9
9471	9466	9467	9478	9
9474	9466	9467	9478	9
9478	8397	8390	8389	9
9478	8397	8390	8391	9
9467	9468	9469	9476	9
9472	9468	9469	9476	9
9471	9470	9469	9476	9
9473	9470	9469	9476	9
9476	9486	9480	9483	9
9476	9486	9480	9481	9
9467	9478	8397	8390	9
9467	9478	8397	8399	9
9467	9468	9469	9470	9
9467	9466	9471	9470	9
9467	9466	9471	9475	9
9469	9476	9486	9480	9
9469	9476	9486	9487	9
9466	9467	9468	9469	9
9466	9471	9470	9469	9
9469	9470	9471	9475	9
9468	9467	9478	9479	9
9468	9467	9478	8397	9
9468	9467	9466	9471	9
9468	9467	9466	9474	9
9468	9469	9476	9477	9
9468	9469	9476	9486	9
9468	9469	9470	9471	9
9468	9469	9470	9473	9
9466	9467	9478	9479	9
9466	9467	9478	8397	9
9466	9467	9468	9472	9
9466	9471	9470	9473	9
9470	9469	9476	9477	9
9470	9469	9476	9486	9
9470	9469	9468	9472	9
9470	9471	9466	9474	9
9474	9466	9471	9475	9
9473	9470	9471	9475	9
9479	9478	8397	8390	9
9479	9478	8397	8399	9
9477	9476	9486	9480	9
9477	9476	9486	9487	9
12188	12187	12186	12197	9
12191	12187	12186	12197	9
12190	12185	12186	12197	9
12193	12185	12186	12197	9
12197	5611	5604	5603	9
12197	5611	5604	5605	9
12186	12187	12188	12195	9
12191	12187	12188	12195	9
12190	12189	12188	12195	9
12192	12189	12188	12195	9
12195	8294	8287	8288	9
12195	8294	8287	8286	9
12186	12197	5611	5604	9
12186	12197	5611	5613	9
12186	12187	12188	12189	9
12186	12185	12190	12189	9
12186	12185	12190	12194	9
12188	12195	8294	8287	9
12188	12195	8294	8296	9
12185	12186	12187	12188	9
12185	12190	12189	12188	9
12188	12189	12190	12194	9
12187	12186	12197	12198	9
12187	12186	12197	5611	9
12187	12186	12185	12190	9
12187	12186	12185	12193	9
12187	12188	12195	12196	9
12187	12188	12195	8294	9
12187	12188	12189	12190	9
12187	12188	12189	12192	9
12185	12186	12197	12198	9
12185	12186	12197	5611	9
12185	12186	12187	12191	9
12185	12190	12189	12192	9
12189	12188	12195	12196	9
12189	12188	12195	8294	9
12189	12188	12187	12191	9
12189	12190	12185	12193	9
12193	12185	12190	12194	9
12192	12189	12190	12194	9
12198	12197	5611	5604	9
12198	12197	5611	5613	9
12196	12195	8294	8287	9
12196	12195	8294	8296	9
5021	5020	5019	5030	9
5024	5020	5019	5030	9
5023	5018	5019	5030	9
5026	5018	5019	5030	9
5030	10469	10462	10461	9
5030	10469	10462	10463	9
5019	5020	5021	5028	9
5024	5020	5021	5028	9
5023	5022	5021	5028	9
5025	5022	5021	5028	9
5028	5038	5032	5033	9
5028	5038	5032	5035	9
5019	5030	10469	10462	9
5019	5030	10469	10471	9
5019	5020	5021	5022	9
5019	5018	5023	5022	9
5019	5018	5023	5027	9
5021	5028	5038	5032	9
5021	5028	5038	5039	9
5018	5019	5020	5021	9
5018	5023	5022	5021	9
5021	5022	5023	5027	9
5020	5019	5030	5031	9
5020	5019	5030	10469	9
5020	5019	5018	5023	9
5020	5019	5018	5026	9
5020	5021	5028	5029	9
5020	5021	5028	5038	9
5020	5021	5022	5023	9
5020	5021	5022	5025	9
5018	5019	5030	5031	9
5018	5019	5030	10469	9
5018	5019	5020	5024	9
5018	5023	5022	5025	9
5022	5021	5028	5029	9
5022	5021	5028	5038	9
5022	5021	5020	5024	9
5022	5023	5018	5026	9
5026	5018	5023	5027	9
5025	5022	5023	5027	9
5031	5030	10469	10462	9
5031	5030	10469	10471	9
5029	5028	5038	5032	9
5029	5028	5038	5039	9
2023	2022	2021	2032	9
2026	2022	2021	2032	9
2025	2020	2021	2032	9
2028	2020	2021	2032	9
2004	2003	2009	2032	9
2006	2003	2009	2032	9
2021	2022	2023	2030	9
2026	2022	2023	2030	9
2025	2024	2023	2030	9
2027	2024	2023	2030	9
2030	4520	4513	4514	9
2030	4520	4513	4512	9
2003	2009	2032	2021	9
2010	2009	2032	2021	9
2021	2022	2023	2024	9
2021	2020	2025	2024	9
2021	2020	2025	2029	9
2023	2030	4520	4513	9
2023	2030	4520	4522	9
2020	2021	2022	2023	9
2020	2025	2024	2023	9
2023	2024	2025	2029	9
2022	2021	2032	2033	9
2009	2032	2021	2022	9
2022	2021	2020	2025	9
2022	2021	2020	2028	9
2022	2023	2030	2031	9
2022	2023	2030	4520	9
2022	2023	2024	2025	9
2022	2023	2024	2027	9
2020	2021	2032	2033	9
2009	2032	2021	2020	9
2020	2021	2022	2026	9
2020	2025	2024	2027	9
2024	2023	2030	2031	9
2024	2023	2030	4520	9
2024	2023	2022	2026	9
2024	2025	2020	2028	9
2028	2020	2025	2029	9
2027	2024	2025	2029	9
2003	2009	2032	2033	9
2010	2009	2032	2033	9
2031	2030	4520	4513	9
2031	2030	4520	4522	9
7819	7818	7817	7828	9
7822	7818	7817	7828	9
7821	7816	7817	7828	9
7824	7816	7817	7828	9
7828	6923	6916	6917	9
7828	6923	6916	6915	9
7817	7818	7819	7826	9
7822	7818	7819	7826	9
7821	7820	7819	7826	9
7823	7820	7819	7826	9
7826	7836	7830	7831	9
7826	7836	7830	7833	9
7817	7828	6923	6916	9
7817	7828	6923	6925	9
7817	7818	7819	7820	9
7817	7816	7821	7820	9
7817	7816	7821	7825	9
7819	7826	7836	7830	9
7819	7826	7836	7837	9
7816	7817	7818	7819	9
7816	7821	7820	7819	9
7819	7820	7821	7825	9
7818	7817	7828	7829	9
7818	7817	7828	6923	9
7818	7817	7816	7821	9
7818	7817	7816	7824	9
7818	7819	7826	7827	9
7818	7819	7826	7836	9
7818	7819	7820	7821	9
7818	7819	7820	7823	9
7816	7817	7828	7829	9
7816	7817	7828	6923	9
7816	7817	7818	7822	9
7816	7821	7820	7823	9
7820	7819	7826	7827	9
7820	7819	7826	7836	9
7820	7819	7818	7822	9
7820	7821	7816	7824	9
7824	7816	7821	7825	9
7823	7820	7821	7825	9
7829	7828	6923	6916	9
7829	7828	6923	6925	9
7827	7826	7836	7830	9
7827	7826	7836	7837	9
6610	6609	6608	6619	9
6613	6609	6608	6619	9
6612	6607	6608	6619	9
6615	6607	6608	6619	9
6619	9779	9773	9774	9
6619	9779	9773	9776	9
6608	6609	6610	6617	9
6613	6609	6610	6617	9
6612	6611	6610	6617	9
6614	6611	6610	6617	9
6617	6627	6621	6622	9
6617	6627	6621	6624	9
6608	6619	9779	9773	9
6608	6619	9779	9780	9
6608	6609	6610	6611	9
6608	6607	6612	6611	9
6608	6607	6612	6616	9
6610	6617	6627	6621	9
6610	6617	6627	6628	9
6607	6608	6609	6610	9
6607	6612	6611	6610	9
6610	6611	6612	6616	9
6609	6608	6619	6620	9
6609	6608	6619	9779	9
6609	6608	6607	6612	9
6609	6608	6607	6615	9
6609	6610	6617	6618	9
6609	6610	6617	6627	9
6609	6610	6611	6612	9
6609	6610	6611	6614	9
6607	6608	6619	6620	9
6607	6608	6619	9779	9
6607	6608	6609	6613	9
6607	6612	6611	6614	9
6611	6610	6617	6618	9
6611	6610	6617	6627	9
6611	6610	6609	6613	9
6611	6612	6607	6615	9
6615	6607	6612	6616	9
6614	6611	6612	6616	9
6620	6619	9779	9773	9
6620	6619	9779	9780	9
6618	6617	6627	6621	9
6618	6617	6627	6628	9
5530	5529	5528	5539	9
5533	5529	5528	5539	9
5532	5527	5528	5539	9
5535	5527	5528	5539	9
5539	5547	5541	5544	9
5539	5547	5541	5542	9
5528	5529	5530	5537	9
5533	5529	5530	5537	9
5532	5531	5530	5537	9
5534	5531	5530	5537	9
5537	8689	8682	8683	9
5537	8689	8682	8681	9
5528	5539	5547	5541	9
5528	5539	5547	5548	9
5528	5529	5530	5531	9
5528	5527	5532	5531	9
5528	5527	5532	5536	9
5530	5537	8689	8682	9
5530	5537	8689	8691	9
5527	5528	5529	5530	9
5527	5532	5531	5530	9
5530	5531	5532	5536	9
5529	5528	5539	5540	9
5529	5528	5539	5547	9
5529	5528	5527	5532	9
5529	5528	5527	5535	9
5529	5530	5537	5538	9
5529	5530	5537	8689	9
5529	5530	5531	5532	9
5529	5530	5531	5534	9
5527	5528	5539	5540	9
5527	5528	5539	5547	9
5527	5528	5529	5533	9
5527	5532	5531	5534	9
5531	5530	5537	5538	9
5531	5530	5537	8689	9
5531	5530	5529	5533	9
5531	5532	5527	5535	9
5535	5527	5532	5536	9
5534	5531	5532	5536	9
5540	5539	5547	5541	9
5540	5539	5547	5548	9
5538	5537	8689	8682	9
5538	5537	8689	8691	9
8725	8724	8723	8734	9
8728	8724	8723	8734	9
8727	8722	8723	8734	9
8730	8722	8723	8734	9
8734	3997	3990	3991	9
8734	3997	3990	3989	9
8723	8724	8725	8732	9
8728	8724	8725	8732	9
8727	8726	8725	8732	9
8729	8726	8725	8732	9
8732	8742	8736	8739	9
8732	8742	8736	8737	9
8723	8734	3997	3990	9
8723	8734	3997	3999	9
8723	8724	8725	8726	9
8723	8722	8727	8726	9
8723	8722	8727	8731	9
8725	8732	8742	8736	9
8725	8732	8742	8743	9
8722	8723	8724	8725	9
8722	8727	8726	8725	9
8725	8726	8727	8731	9
8724	8723	8734	8735	9
8724	8723	8734	3997	9
8724	8723	8722	8727	9
8724	8723	8722	8730	9
8724	8725	8732	8733	9
8724	8725	8732	8742	9
8724	8725	8726	8727	9
8724	8725	8726	8729	9
8722	8723	8734	8735	9
8722	8723	8734	3997	9
8722	8723	8724	8728	9
8722	8727	8726	8729	9
8726	8725	8732	8733	9
8726	8725	8732	8742	9
8726	8725	8724	8728	9
8726	8727	8722	8730	9
8730	8722	8727	8731	9
8729	8726	8727	8731	9
8735	8734	3997	3990	9
8735	8734	3997	3999	9
8733	8732	8742	8736	9
8733	8732	8742	8743	9
12020	12019	12018	12029	9
12023	12019	12018	12029	9
12022	12017	12018	12029	9
12025	12017	12018	12029	9
12029	7303	7293	7296	9
12029	7303	7293	7292	9
12018	12019	12020	12027	9
12023	12019	12020	12027	9
12022	12021	12020	12027	9
12024	12021	12020	12027	9
12027	5363	5356	5355	9
12027	5363	5356	5357	9
12018	12029	7303	7293	9
12018	12029	7303	7305	9
12018	12019	12020	12021	9
12018	12017	12022	12021	9
12018	12017	12022	12026	9
12020	12027	5363	5356	9
12020	12027	5363	5365	9
12017	12018	12019	12020	9
12017	12022	12021	12020	9
12020	12021	12022	12026	9
12019	12018	12029	12030	9
12019	12018	12029	7303	9
12019	12018	12017	12022	9
12019	12018	12017	12025	9
12019	12020	12027	12028	9
12019	12020	12027	5363	9
12019	12020	12021	12022	9
12019	12020	12021	12024	9
12017	12018	12029	12030	9
12017	12018	12029	7303	9
12017	12018	12019	12023	9
12017	12022	12021	12024	9
12021	12020	12027	12028	9
12021	12020	12027	5363	9
12021	12020	12019	12023	9
12021	12022	12017	12025	9
12025	12017	12022	12026	9
12024	12021	12022	12026	9
12030	12029	7303	7293	9
12030	12029	7303	7305	9
12028	12027	5363	5356	9
12028	12027	5363	5365	9
13728	13727	13726	13737	9
13731	13727	13726	13737	9
13730	13725	13726	13737	9
13733	13725	13726	13737	9
2242	2241	2248	13737	9
2240	2241	2248	13737	9
13726	13727	13728	13735	9
13731	13727	13728	13735	9
13730	13729	13728	13735	9
13732	13729	13728	13735	9
13735	10631	10621	10620	9
13735	10631	10621	10624	9
2241	2248	13737	13726	9
2250	2248	13737	13726	9
13726	13727	13728	13729	9
13726	13725	13730	13729	9
13726	13725	13730	13734	9
13728	13735	10631	10621	9
13728	13735	10631	10633	9
13725	13726	13727	13728	9
13725	13730	13729	13728	9
13728	13729	13730	13734	9
13727	13726	13737	13738	9
2248	13737	13726	13727	9
13727	13726	13725	13730	9
13727	13726	13725	13733	9
13727	13728	13735	13736	9
13727	13728	13735	10631	9
13727	13728	13729	13730	9
13727	13728	13729	13732	9
13725	13726	13737	13738	9
2248	13737	13726	13725	9
13725	13726	13727	13731	9
13725	13730	13729	13732	9
13729	13728	13735	13736	9
13729	13728	13735	10631	9
13729	13728	13727	13731	9
13729	13730	13725	13733	9
13733	13725	13730	13734	9
13732	13729	13730	13734	9
2241	2248	13737	13738	9
2250	2248	13737	13738	9
13736	13735	10631	10621	9
13736	13735	10631	10633	9
11656	11655	11654	11665	9
11659	11655	11654	11665	9
11658	11653	11654	11665	9
11661	11653	11654	11665	9
11665	4666	4656	4655	9
11665	4666	4656	4659	9
11654	11655	11656	11663	9
11659	11655	11656	11663	9
11658	11657	11656	11663	9
11660	11657	11656	11663	9
329	328	335	11663	9
327	328	335	11663	9
11654	11665	4666	4656	9
11654	11665	4666	4668	9
11654	11655	11656	11657	9
11654	11653	11658	11657	9
11654	11653	11658	11662	9
328	335	11663	11656	9
337	335	11663	11656	9
11653	11654	11655	11656	9
11653	11658	11657	11656	9
11656	11657	11658	11662	9
11655	11654	11665	11666	9
11655	11654	11665	4666	9
11655	11654	11653	11658	9
11655	11654	11653	11661	9
11655	11656	11663	11664	9
335	11663	11656	11655	9
11655	11656	11657	11658	9
11655	11656	11657	11660	9
11653	11654	11665	11666	9
11653	11654	11665	4666	9
11653	11654	11655	11659	9
11653	11658	11657	11660	9
11657	11656	11663	11664	9
335	11663	11656	11657	9
11657	11656	11655	11659	9
11657	11658	11653	11661	9
11661	11653	11658	11662	9
11660	11657	11658	11662	9
11666	11665	4666	4656	9
11666	11665	4666	4668	9
328	335	11663	11664	9
337	335	11663	11664	9
11460	11459	11458	11469	9
11463	11459	11458	11469	9
11462	11457	11458	11469	9
11465	11457	11458	11469	9
11469	4811	4801	4804	9
11469	4811	4801	4800	9
11458	11459	11460	11467	9
11463	11459	11460	11467	9
11462	11461	11460	11467	9
11464	11461	11460	11467	9
11467	4287	4280	4281	9
11467	4287	4280	4279	9
11458	11469	4811	4801	9
11458	11469	4811	4813	9
11458	11459	11460	11461	9
11458	11457	11462	11461	9
11458	11457	11462	11466	9
11460	11467	4287	4280	9
11460	11467	4287	4289	9
11457	11458	11459	11460	9
11457	11462	11461	11460	9
11460	11461	11462	11466	9
11459	11458	11469	11470	9
11459	11458	11469	4811	9
11459	11458	11457	11462	9
11459	11458	11457	11465	9
11459	11460	11467	11468	9
11459	11460	11467	4287	9
11459	11460	11461	11462	9
11459	11460	11461	11464	9
11457	11458	11469	11470	9
11457	11458	11469	4811	9
11457	11458	11459	11463	9
11457	11462	11461	11464	9
11461	11460	11467	11468	9
11461	11460	11467	4287	9
11461	11460	11459	11463	9
11461	11462	11457	11465	9
11465	11457	11462	11466	9
11464	11461	11462	11466	9
11470	11469	4811	4801	9
11470	11469	4811	4813	9
11468	11467	4287	4280	9
11468	11467	4287	4289	9
13616	13615	13614	13625	9
13619	13615	13614	13625	9
13618	13613	13614	13625	9
13621	13613	13614	13625	9
13625	10558	10548	10547	9
13625	10558	10548	10551	9
13614	13615	13616	13623	9
13619	13615	13616	13623	9
13618	13617	13616	13623	9
13620	13617	13616	13623	9
13623	9872	9862	9861	9
13623	9872	9862	9865	9
13614	13625	10558	10548	9
13614	13625	10558	10560	9
13614	13615	13616	13617	9
13614	13613	13618	13617	9
13614	13613	13618	13622	9
13616	13623	9872	9862	9
13616	13623	9872	9874	9
13613	13614	13615	13616	9
13613	13618	13617	13616	9
13616	13617	13618	13622	9
13615	13614	13625	13626	9
13615	13614	13625	10558	9
13615	13614	13613	13618	9
13615	13614	13613	13621	9
13615	13616	13623	13624	9
13615	13616	13623	9872	9
13615	13616	13617	13618	9
13615	13616	13617	13620	9
13613	13614	13625	13626	9
13613	13614	13625	10558	9
13613	13614	13615	13619	9
13613	13618	13617	13620	9
13617	13616	13623	13624	9
13617	13616	13623	9872	9
13617	13616	13615	13619	9
13617	13618	13613	13621	9
13621	13613	13618	13622	9
13620	13617	13618	13622	9
13626	13625	10558	10548	9
13626	13625	10558	10560	9
13624	13623	9872	9862	9
13624	13623	9872	9874	9
10637	10636	10635	10646	9
10640	10636	10635	10646	9
10639	10634	10635	10646	9
10642	10634	10635	10646	9
10646	9550	9540	9543	9
10646	9550	9540	9539	9
10635	10636	10637	10644	9
10640	10636	10637	10644	9
10639	10638	10637	10644	9
10641	10638	10637	10644	9
10644	10654	10648	10651	9
10644	10654	10648	10649	9
10635	10646	9550	9540	9
10635	10646	9550	9552	9
10635	10636	10637	10638	9
10635	10634	10639	10638	9
10635	10634	10639	10643	9
10637	10644	10654	10648	9
10637	10644	10654	10655	9
10634	10635	10636	10637	9
10634	10639	10638	10637	9
10637	10638	10639	10643	9
10636	10635	10646	10647	9
10636	10635	10646	9550	9
10636	10635	10634	10639	9
10636	10635	10634	10642	9
10636	10637	10644	10645	9
10636	10637	10644	10654	9
10636	10637	10638	10639	9
10636	10637	10638	10641	9
10634	10635	10646	10647	9
10634	10635	10646	9550	9
10634	10635	10636	10640	9
10634	10639	10638	10641	9
10638	10637	10644	10645	9
10638	10637	10644	10654	9
10638	10637	10636	10640	9
10638	10639	10634	10642	9
10642	10634	10639	10643	9
10641	10638	10639	10643	9
10647	10646	9550	9540	9
10647	10646	9550	9552	9
10645	10644	10654	10648	9
10645	10644	10654	10655	9
4367	4366	4365	4376	9
4370	4366	4365	4376	9
4369	4364	4365	4376	9
4372	4364	4365	4376	9
4376	11129	11119	11118	9
4376	11129	11119	11122	9
4365	4366	4367	4374	9
4370	4366	4367	4374	9
4369	4368	4367	4374	9
4371	4368	4367	4374	9
4374	4384	4378	4381	9
4374	4384	4378	4379	9
4365	4376	11129	11119	9
4365	4376	11129	11131	9
4365	4366	4367	4368	9
4365	4364	4369	4368	9
4365	4364	4369	4373	9
4367	4374	4384	4378	9
4367	4374	4384	4385	9
4364	4365	4366	4367	9
4364	4369	4368	4367	9
4367	4368	4369	4373	9
4366	4365	4376	4377	9
4366	4365	4376	11129	9
4366	4365	4364	4369	9
4366	4365	4364	4372	9
4366	4367	4374	4375	9
4366	4367	4374	4384	9
4366	4367	4368	4369	9
4366	4367	4368	4371	9
4364	4365	4376	4377	9
4364	4365	4376	11129	9
4364	4365	4366	4370	9
4364	4369	4368	4371	9
4368	4367	4374	4375	9
4368	4367	4374	4384	9
4368	4367	4366	4370	9
4368	4369	4364	4372	9
4372	4364	4369	4373	9
4371	4368	4369	4373	9
4377	4376	11129	11119	9
4377	4376	11129	11131	9
4375	4374	4384	4378	9
4375	4374	4384	4385	9
2505	2504	2503	2514	9
2508	2504	2503	2514	9
2507	2502	2503	2514	9
2510	2502	2503	2514	9
2486	2485	2491	2514	9
2488	2485	2491	2514	9
2503	2504	2505	2512	9
2508	2504	2505	2512	9
2507	2506	2505	2512	9
2509	2506	2505	2512	9
2512	4608	4598	4601	9
2512	4608	4598	4597	9
2485	2491	2514	2503	9
2492	2491	2514	2503	9
2503	2504	2505	2506	9
2503	2502	2507	2506	9
2503	2502	2507	2511	9
2505	2512	4608	4598	9
2505	2512	4608	4610	9
2502	2503	2504	2505	9
2502	2507	2506	2505	9
2505	2506	2507	2511	9
2504	2503	2514	2515	9
2491	2514	2503	2504	9
2504	2503	2502	2507	9
2504	2503	2502	2510	9
2504	2505	2512	2513	9
2504	2505	2512	4608	9
2504	2505	2506	2507	9
2504	2505	2506	2509	9
2502	2503	2514	2515	9
2491	2514	2503	2502	9
2502	2503	2504	2508	9
2502	2507	2506	2509	9
2506	2505	2512	2513	9
2506	2505	2512	4608	9
2506	2505	2504	2508	9
2506	2507	2502	2510	9
2510	2502	2507	2511	9
2509	2506	2507	2511	9
2485	2491	2514	2515	9
2492	2491	2514	2515	9
2513	2512	4608	4598	9
2513	2512	4608	4610	9
12706	12705	12704	12715	9
12709	12705	12704	12715	9
12708	12703	12704	12715	9
12711	12703	12704	12715	9
12715	6530	6523	6522	9
12715	6530	6523	6524	9
12704	12705	12706	12713	9
12709	12705	12706	12713	9
12708	12707	12706	12713	9
12710	12707	12706	12713	9
12713	7507	7497	7500	9
12713	7507	7497	7496	9
12704	12715	6530	6523	9
12704	12715	6530	6532	9
12704	12705	12706	12707	9
12704	12703	12708	12707	9
12704	12703	12708	12712	9
12706	12713	7507	7497	9
12706	12713	7507	7509	9
12703	12704	12705	12706	9
12703	12708	12707	12706	9
12706	12707	12708	12712	9
12705	12704	12715	12716	9
12705	12704	12715	6530	9
12705	12704	12703	12708	9
12705	12704	12703	12711	9
12705	12706	12713	12714	9
12705	12706	12713	7507	9
12705	12706	12707	12708	9
12705	12706	12707	12710	9
12703	12704	12715	12716	9
12703	12704	12715	6530	9
12703	12704	12705	12709	9
12703	12708	12707	12710	9
12707	12706	12713	12714	9
12707	12706	12713	7507	9
12707	12706	12705	12709	9
12707	12708	12703	12711	9
12711	12703	12708	12712	9
12710	12707	12708	12712	9
12716	12715	6530	6523	9
12716	12715	6530	6532	9
12714	12713	7507	7497	9
12714	12713	7507	7509	9
871	870	869	880	9
874	870	869	880	9
873	868	869	880	9
876	868	869	880	9
854	851	857	880	9
852	851	857	880	9
869	870	871	878	9
874	870	871	878	9
873	872	871	878	9
875	872	871	878	9
878	6292	6286	6289	9
878	6292	6286	6287	9
851	857	880	869	9
858	857	880	869	9
869	870	871	872	9
869	868	873	872	9
869	868	873	877	9
871	878	6292	6286	9
871	878	6292	6293	9
868	869	870	871	9
868	873	872	871	9
871	872	873	877	9
870	869	880	881	9
857	880	869	870	9
870	869	868	873	9
870	869	868	876	9
870	871	878	879	9
870	871	878	6292	9
870	871	872	873	9
870	871	872	875	9
868	869	880	881	9
857	880	869	868	9
868	869	870	874	9
868	873	872	875	9
872	871	878	879	9
872	871	878	6292	9
872	871	870	874	9
872	873	868	876	9
876	868	873	877	9
875	872	873	877	9
851	857	880	881	9
858	857	880	881	9
879	878	6292	6286	9
879	878	6292	6293	9
5370	5369	5368	5379	9
5373	5369	5368	5379	9
5372	5367	5368	5379	9
5375	5367	5368	5379	9
5379	10076	10066	10069	9
5379	10076	10066	10065	9
5368	5369	5370	5377	9
5373	5369	5370	5377	9
5372	5371	5370	5377	9
5374	5371	5370	5377	9
5377	5387	5381	5384	9
5377	5387	5381	5382	9
5368	5379	10076	10066	9
5368	5379	10076	10078	9
5368	5369	5370	5371	9
5368	5367	5372	5371	9
5368	5367	5372	5376	9
5370	5377	5387	5381	9
5370	5377	5387	5388	9
5367	5368	5369	5370	9
5367	5372	5371	5370	9
5370	5371	5372	5376	9
5369	5368	5379	5380	9
5369	5368	5379	10076	9
5369	5368	5367	5372	9
5369	5368	5367	5375	9
5369	5370	5377	5378	9
5369	5370	5377	5387	9
5369	5370	5371	5372	9
5369	5370	5371	5374	9
5367	5368	5379	5380	9
5367	5368	5379	10076	9
5367	5368	5369	5373	9
5367	5372	5371	5374	9
5371	5370	5377	5378	9
5371	5370	5377	5387	9
5371	5370	5369	5373	9
5371	5372	5367	5375	9
5375	5367	5372	5376	9
5374	5371	5372	5376	9
5380	5379	10076	10066	9
5380	5379	10076	10078	9
5378	5377	5387	5381	9
5378	5377	5387	5388	9
5864	5865	5866	5873	9
5869	5865	5866	5873	9
5868	5867	5866	5873	9
5870	5867	5866	5873	9
5873	5883	5877	5878	9
5873	5883	5877	5880	9
5866	5865	5864	5875	9
5869	5865	5864	5875	9
5868	5863	5864	5875	9
5871	5863	5864	5875	9
5875	5942	5936	5939	9
5875	5942	5936	5937	9
5866	5873	5883	5877	9
5866	5873	5883	5884	9
5866	5865	5864	5863	9
5866	5867	5868	5863	9
5866	5867	5868	5872	9
5864	5875	5942	5936	9
5864	5875	5942	5943	9
5867	5866	5865	5864	9
5867	5868	5863	5864	9
5864	5863	5868	5872	9
5865	5866	5873	5874	9
5865	5866	5873	5883	9
5865	5866	5867	5868	9
5865	5866	5867	5870	9
5865	5864	5875	5876	9
5865	5864	5875	5942	9
5865	5864	5863	5868	9
5865	5864	5863	5871	9
5867	5866	5873	5874	9
5867	5866	5873	5883	9
5867	5866	5865	5869	9
5867	5868	5863	5871	9
5863	5864	5875	5876	9
5863	5864	5875	5942	9
5863	5864	5865	5869	9
5863	5868	5867	5870	9
5870	5867	5868	5872	9
5871	5863	5868	5872	9
5874	5873	5883	5877	9
5874	5873	5883	5884	9
5876	5875	5942	5936	9
5876	5875	5942	5943	9
11334	11333	11332	11343	9
11337	11333	11332	11343	9
11336	11331	11332	11343	9
11339	11331	11332	11343	9
11343	6734	6727	6728	9
11343	6734	6727	6726	9
11332	11333	11334	11341	9
11337	11333	11334	11341	9
11336	11335	11334	11341	9
11338	11335	11334	11341	9
11341	4114	4104	4103	9
11341	4114	4104	4107	9
11332	11343	6734	6727	9
11332	11343	6734	6736	9
11332	11333	11334	11335	9
11332	11331	11336	11335	9
11332	11331	11336	11340	9
11334	11341	4114	4104	9
11334	11341	4114	4116	9
11331	11332	11333	11334	9
11331	11336	11335	11334	9
11334	11335	11336	11340	9
11333	11332	11343	11344	9
11333	11332	11343	6734	9
11333	11332	11331	11336	9
11333	11332	11331	11339	9
11333	11334	11341	11342	9
11333	11334	11341	4114	9
11333	11334	11335	11336	9
11333	11334	11335	11338	9
11331	11332	11343	11344	9
11331	11332	11343	6734	9
11331	11332	11333	11337	9
11331	11336	11335	11338	9
11335	11334	11341	11342	9
11335	11334	11341	4114	9
11335	11334	11333	11337	9
11335	11336	11331	11339	9
11339	11331	11336	11340	9
11338	11335	11336	11340	9
11344	11343	6734	6727	9
11344	11343	6734	6736	9
11342	11341	4114	4104	9
11342	11341	4114	4116	9
3439	3438	3437	3448	9
3442	3438	3437	3448	9
3441	3436	3437	3448	9
3444	3436	3437	3448	9
3437	3438	3439	3446	9
3442	3438	3439	3446	9
3441	3440	3439	3446	9
3443	3440	3439	3446	9
3446	9462	9455	9454	9
3446	9462	9455	9456	9
3437	3438	3439	3440	9
3437	3436	3441	3440	9
3437	3436	3441	3445	9
3439	3446	9462	9455	9
3439	3446	9462	9464	9
3436	3437	3438	3439	9
3436	3441	3440	3439	9
3439	3440	3441	3445	9
3438	3437	3448	3449	9
3438	3437	3448	3450	9
3438	3437	3436	3441	9
3438	3437	3436	3444	9
3438	3439	3446	3447	9
3438	3439	3446	9462	9
3438	3439	3440	3441	9
3438	3439	3440	3443	9
3436	3437	3448	3449	9
3436	3437	3448	3450	9
3436	3437	3438	3442	9
3436	3441	3440	3443	9
3440	3439	3446	3447	9
3440	3439	3446	9462	9
3440	3439	3438	3442	9
3440	3441	3436	3444	9
3444	3436	3441	3445	9
3443	3440	3441	3445	9
3447	3446	9462	9455	9
3447	3446	9462	9464	9
2147	2146	2145	2156	9
2150	2146	2145	2156	9
2149	2144	2145	2156	9
2152	2144	2145	2156	9
2128	2127	2133	2156	9
2130	2127	2133	2156	9
2145	2146	2147	2154	9
2150	2146	2147	2154	9
2149	2148	2147	2154	9
2151	2148	2147	2154	9
2154	9273	9266	9265	9
2154	9273	9266	9267	9
2127	2133	2156	2145	9
2134	2133	2156	2145	9
2145	2146	2147	2148	9
2145	2144	2149	2148	9
2145	2144	2149	2153	9
2147	2154	9273	9266	9
2147	2154	9273	9275	9
2144	2145	2146	2147	9
2144	2149	2148	2147	9
2147	2148	2149	2153	9
2146	2145	2156	2157	9
2133	2156	2145	2146	9
2146	2145	2144	2149	9
2146	2145	2144	2152	9
2146	2147	2154	2155	9
2146	2147	2154	9273	9
2146	2147	2148	2149	9
2146	2147	2148	2151	9
2144	2145	2156	2157	9
2133	2156	2145	2144	9
2144	2145	2146	2150	9
2144	2149	2148	2151	9
2148	2147	2154	2155	9
2148	2147	2154	9273	9
2148	2147	2146	2150	9
2148	2149	2144	2152	9
2152	2144	2149	2153	9
2151	2148	2149	2153	9
2127	2133	2156	2157	9
2134	2133	2156	2157	9
2155	2154	9273	9266	9
2155	2154	9273	9275	9
3754	3753	3752	3763	9
3757	3753	3752	3763	9
3756	3751	3752	3763	9
3759	3751	3752	3763	9
3752	3753	3754	3761	9
3757	3753	3754	3761	9
3756	3755	3754	3761	9
3758	3755	3754	3761	9
3761	11173	11163	11162	9
3761	11173	11163	11166	9
3752	3753	3754	3755	9
3752	3751	3756	3755	9
3752	3751	3756	3760	9
3754	3761	11173	11163	9
3754	3761	11173	11175	9
3751	3752	3753	3754	9
3751	3756	3755	3754	9
3754	3755	3756	3760	9
3753	3752	3763	3765	9
3753	3752	3763	3764	9
3753	3752	3751	3756	9
3753	3752	3751	3759	9
3753	3754	3761	3762	9
3753	3754	3761	11173	9
3753	3754	3755	3756	9
3753	3754	3755	3758	9
3751	3752	3763	3765	9
3751	3752	3763	3764	9
3751	3752	3753	3757	9
3751	3756	3755	3758	9
3755	3754	3761	3762	9
3755	3754	3761	11173	9
3755	3754	3753	3757	9
3755	3756	3751	3759	9
3759	3751	3756	3760	9
3758	3755	3756	3760	9
3762	3761	11173	11163	9
3762	3761	11173	11175	9
9003	9002	9001	9012	9
9006	9002	9001	9012	9
9005	9000	9001	9012	9
9008	9000	9001	9012	9
9012	9020	9014	9015	9
9012	9020	9014	9017	9
9001	9002	9003	9010	9
9006	9002	9003	9010	9
9005	9004	9003	9010	9
9007	9004	9003	9010	9
9010	6554	6548	6549	9
9010	6554	6548	6551	9
9001	9012	9020	9014	9
9001	9012	9020	9021	9
9001	9002	9003	9004	9
9001	9000	9005	9004	9
9001	9000	9005	9009	9
9003	9010	6554	6548	9
9003	9010	6554	6555	9
9000	9001	9002	9003	9
9000	9005	9004	9003	9
9003	9004	9005	9009	9
9002	9001	9012	9013	9
9002	9001	9012	9020	9
9002	9001	9000	9005	9
9002	9001	9000	9008	9
9002	9003	9010	9011	9
9002	9003	9010	6554	9
9002	9003	9004	9005	9
9002	9003	9004	9007	9
9000	9001	9012	9013	9
9000	9001	9012	9020	9
9000	9001	9002	9006	9
9000	9005	9004	9007	9
9004	9003	9010	9011	9
9004	9003	9010	6554	9
9004	9003	9002	9006	9
9004	9005	9000	9008	9
9008	9000	9005	9009	9
9007	9004	9005	9009	9
9013	9012	9020	9014	9
9013	9012	9020	9021	9
9011	9010	6554	6548	9
9011	9010	6554	6555	9
1743	1742	1741	1752	9
1746	1742	1741	1752	9
1745	1740	1741	1752	9
1748	1740	1741	1752	9
1752	8040	8034	8037	9
1752	8040	8034	8035	9
1741	1742	1743	1750	9
1746	1742	1743	1750	9
1745	1744	1743	1750	9
1747	1744	1743	1750	9
1724	1723	1729	1750	9
1726	1723	1729	1750	9
1741	1752	8040	8034	9
1741	1752	8040	8041	9
1741	1742	1743	1744	9
1741	1740	1745	1744	9
1741	1740	1745	1749	9
1723	1729	1750	1743	9
1730	1729	1750	1743	9
1740	1741	1742	1743	9
1740	1745	1744	1743	9
1743	1744	1745	1749	9
1742	1741	1752	1753	9
1742	1741	1752	8040	9
1742	1741	1740	1745	9
1742	1741	1740	1748	9
1742	1743	1750	1751	9
1729	1750	1743	1742	9
1742	1743	1744	1745	9
1742	1743	1744	1747	9
1740	1741	1752	1753	9
1740	1741	1752	8040	9
1740	1741	1742	1746	9
1740	1745	1744	1747	9
1744	1743	1750	1751	9
1729	1750	1743	1744	9
1744	1743	1742	1746	9
1744	1745	1740	1748	9
1748	1740	1745	1749	9
1747	1744	1745	1749	9
1753	1752	8040	8034	9
1753	1752	8040	8041	9
1723	1729	1750	1751	9
1730	1729	1750	1751	9
8548	8549	8550	8557	9
8553	8549	8550	8557	9
8552	8551	8550	8557	9
8554	8551	8550	8557	9
8557	8567	8561	8562	9
8557	8567	8561	8564	9
8550	8549	8548	8559	9
8553	8549	8548	8559	9
8552	8547	8548	8559	9
8555	8547	8548	8559	9
8559	5422	5412	5415	9
8559	5422	5412	5411	9
8550	8557	8567	8561	9
8550	8557	8567	8568	9
8547	8548	8549	8550	9
8547	8552	8551	8550	9
8550	8551	8552	8556	9
8548	8559	5422	5412	9
8548	8559	5422	5424	9
8548	8549	8550	8551	9
8548	8547	8552	8551	9
8548	8547	8552	8556	9
8549	8550	8557	8558	9
8549	8550	8557	8567	9
8549	8550	8551	8552	9
8549	8550	8551	8554	9
8549	8548	8559	8560	9
8549	8548	8559	5422	9
8549	8548	8547	8552	9
8549	8548	8547	8555	9
8551	8550	8557	8558	9
8551	8550	8557	8567	9
8551	8550	8549	8553	9
8551	8552	8547	8555	9
8547	8548	8559	8560	9
8547	8548	8559	5422	9
8547	8548	8549	8553	9
8547	8552	8551	8554	9
8554	8551	8552	8556	9
8555	8547	8552	8556	9
8558	8557	8567	8561	9
8558	8557	8567	8568	9
8560	8559	5422	5412	9
8560	8559	5422	5424	9
12132	12131	12130	12141	9
12135	12131	12130	12141	9
12134	12129	12130	12141	9
12137	12129	12130	12141	9
12141	11069	11062	11061	9
12141	11069	11062	11063	9
12130	12131	12132	12139	9
12135	12131	12132	12139	9
12134	12133	12132	12139	9
12136	12133	12132	12139	9
12139	5581	5574	5573	9
12139	5581	5574	5575	9
12130	12141	11069	11062	9
12130	12141	11069	11071	9
12130	12131	12132	12133	9
12130	12129	12134	12133	9
12130	12129	12134	12138	9
12132	12139	5581	5574	9
12132	12139	5581	5583	9
12129	12130	12131	12132	9
12129	12134	12133	12132	9
12132	12133	12134	12138	9
12131	12130	12141	12142	9
12131	12130	12141	11069	9
12131	12130	12129	12134	9
12131	12130	12129	12137	9
12131	12132	12139	12140	9
12131	12132	12139	5581	9
12131	12132	12133	12134	9
12131	12132	12133	12136	9
12129	12130	12141	12142	9
12129	12130	12141	11069	9
12129	12130	12131	12135	9
12129	12134	12133	12136	9
12133	12132	12139	12140	9
12133	12132	12139	5581	9
12133	12132	12131	12135	9
12133	12134	12129	12137	9
12137	12129	12134	12138	9
12136	12133	12134	12138	9
12142	12141	11069	11062	9
12142	12141	11069	11071	9
12140	12139	5581	5574	9
12140	12139	5581	5583	9
11600	11599	11598	11609	9
11603	11599	11598	11609	9
11602	11597	11598	11609	9
11605	11597	11598	11609	9
11609	11157	11150	11151	9
11609	11157	11150	11149	9
11598	11599	11600	11607	9
11603	11599	11600	11607	9
11602	11601	11600	11607	9
11604	11601	11600	11607	9
11607	4578	4571	4570	9
11607	4578	4571	4572	9
11598	11609	11157	11150	9
11598	11609	11157	11159	9
11598	11599	11600	11601	9
11598	11597	11602	11601	9
11598	11597	11602	11606	9
11600	11607	4578	4571	9
11600	11607	4578	4580	9
11597	11598	11599	11600	9
11597	11602	11601	11600	9
11600	11601	11602	11606	9
11599	11598	11609	11610	9
11599	11598	11609	11157	9
11599	11598	11597	11602	9
11599	11598	11597	11605	9
11599	11600	11607	11608	9
11599	11600	11607	4578	9
11599	11600	11601	11602	9
11599	11600	11601	11604	9
11597	11598	11609	11610	9
11597	11598	11609	11157	9
11597	11598	11599	11603	9
11597	11602	11601	11604	9
11601	11600	11607	11608	9
11601	11600	11607	4578	9
11601	11600	11599	11603	9
11601	11602	11597	11605	9
11605	11597	11602	11606	9
11604	11601	11602	11606	9
11610	11609	11157	11150	9
11610	11609	11157	11159	9
11608	11607	4578	4571	9
11608	11607	4578	4580	9
13126	13125	13124	13135	9
13129	13125	13124	13135	9
13128	13123	13124	13135	9
13131	13123	13124	13135	9
13135	7870	7863	7864	9
13135	7870	7863	7862	9
13124	13125	13126	13133	9
13129	13125	13126	13133	9
13128	13127	13126	13133	9
13130	13127	13126	13133	9
13133	8879	8872	8871	9
13133	8879	8872	8873	9
13124	13135	7870	7863	9
13124	13135	7870	7872	9
13124	13125	13126	13127	9
13124	13123	13128	13127	9
13124	13123	13128	13132	9
13126	13133	8879	8872	9
13126	13133	8879	8881	9
13123	13124	13125	13126	9
13123	13128	13127	13126	9
13126	13127	13128	13132	9
13125	13124	13135	13136	9
13125	13124	13135	7870	9
13125	13124	13123	13128	9
13125	13124	13123	13131	9
13125	13126	13133	13134	9
13125	13126	13133	8879	9
13125	13126	13127	13128	9
13125	13126	13127	13130	9
13123	13124	13135	13136	9
13123	13124	13135	7870	9
13123	13124	13125	13129	9
13123	13128	13127	13130	9
13127	13126	13133	13134	9
13127	13126	13133	8879	9
13127	13126	13125	13129	9
13127	13128	13123	13131	9
13131	13123	13128	13132	9
13130	13127	13128	13132	9
13136	13135	7870	7863	9
13136	13135	7870	7872	9
13134	13133	8879	8872	9
13134	13133	8879	8881	9
2704	2703	2702	2713	9
2707	2703	2702	2713	9
2706	2701	2702	2713	9
2709	2701	2702	2713	9
2702	2703	2704	2711	9
2707	2703	2704	2711	9
2706	2705	2704	2711	9
2708	2705	2704	2711	9
2711	4399	4393	4394	9
2711	4399	4393	4396	9
2702	2703	2704	2705	9
2702	2701	2706	2705	9
2702	2701	2706	2710	9
2704	2711	4399	4393	9
2704	2711	4399	4400	9
2701	2702	2703	2704	9
2701	2706	2705	2704	9
2704	2705	2706	2710	9
2703	2702	2713	2714	9
2703	2702	2713	2715	9
2703	2702	2701	2706	9
2703	2702	2701	2709	9
2703	2704	2711	2712	9
2703	2704	2711	4399	9
2703	2704	2705	2706	9
2703	2704	2705	2708	9
2701	2702	2713	2714	9
2701	2702	2713	2715	9
2701	2702	2703	2707	9
2701	2706	2705	2708	9
2705	2704	2711	2712	9
2705	2704	2711	4399	9
2705	2704	2703	2707	9
2705	2706	2701	2709	9
2709	2701	2706	2710	9
2708	2705	2706	2710	9
2712	2711	4399	4393	9
2712	2711	4399	4400	9
6100	6099	6098	6109	9
6103	6099	6098	6109	9
6102	6097	6098	6109	9
6105	6097	6098	6109	9
6109	7594	7587	7588	9
6109	7594	7587	7586	9
6098	6099	6100	6107	9
6103	6099	6100	6107	9
6102	6101	6100	6107	9
6104	6101	6100	6107	9
6107	6122	6115	6116	9
6107	6122	6115	6114	9
6098	6109	7594	7587	9
6098	6109	7594	7596	9
6098	6099	6100	6101	9
6098	6097	6102	6101	9
6098	6097	6102	6106	9
6100	6107	6122	6115	9
6100	6107	6122	6124	9
6097	6098	6099	6100	9
6097	6102	6101	6100	9
6100	6101	6102	6106	9
6099	6098	6109	6110	9
6099	6098	6109	7594	9
6099	6098	6097	6102	9
6099	6098	6097	6105	9
6099	6100	6107	6108	9
6099	6100	6107	6122	9
6099	6100	6101	6102	9
6099	6100	6101	6104	9
6097	6098	6109	6110	9
6097	6098	6109	7594	9
6097	6098	6099	6103	9
6097	6102	6101	6104	9
6101	6100	6107	6108	9
6101	6100	6107	6122	9
6101	6100	6099	6103	9
6101	6102	6097	6105	9
6105	6097	6102	6106	9
6104	6101	6102	6106	9
6110	6109	7594	7587	9
6110	6109	7594	7596	9
6108	6107	6122	6115	9
6108	6107	6122	6124	9
13658	13657	13656	13667	9
13661	13657	13656	13667	9
13660	13655	13656	13667	9
13663	13655	13656	13667	9
13667	9988	9981	9982	9
13667	9988	9981	9980	9
13656	13657	13658	13665	9
13661	13657	13658	13665	9
13660	13659	13658	13665	9
13662	13659	13658	13665	9
13665	10352	10342	10341	9
13665	10352	10342	10345	9
13656	13667	9988	9981	9
13656	13667	9988	9990	9
13656	13657	13658	13659	9
13656	13655	13660	13659	9
13656	13655	13660	13664	9
13658	13665	10352	10342	9
13658	13665	10352	10354	9
13655	13656	13657	13658	9
13655	13660	13659	13658	9
13658	13659	13660	13664	9
13657	13656	13667	13668	9
13657	13656	13667	9988	9
13657	13656	13655	13660	9
13657	13656	13655	13663	9
13657	13658	13665	13666	9
13657	13658	13665	10352	9
13657	13658	13659	13660	9
13657	13658	13659	13662	9
13655	13656	13667	13668	9
13655	13656	13667	9988	9
13655	13656	13657	13661	9
13655	13660	13659	13662	9
13659	13658	13665	13666	9
13659	13658	13665	10352	9
13659	13658	13657	13661	9
13659	13660	13655	13663	9
13663	13655	13660	13664	9
13662	13659	13660	13664	9
13668	13667	9988	9981	9
13668	13667	9988	9990	9
13666	13665	10352	10342	9
13666	13665	10352	10354	9
3199	3198	3197	3208	9
3202	3198	3197	3208	9
3201	3196	3197	3208	9
3204	3196	3197	3208	9
3197	3198	3199	3206	9
3202	3198	3199	3206	9
3201	3200	3199	3206	9
3203	3200	3199	3206	9
3206	8441	8434	8435	9
3206	8441	8434	8433	9
3197	3198	3199	3200	9
3197	3196	3201	3200	9
3197	3196	3201	3205	9
3199	3206	8441	8434	9
3199	3206	8441	8443	9
3196	3197	3198	3199	9
3196	3201	3200	3199	9
3199	3200	3201	3205	9
3198	3197	3208	3209	9
3198	3197	3208	3210	9
3198	3197	3196	3201	9
3198	3197	3196	3204	9
3198	3199	3206	3207	9
3198	3199	3206	8441	9
3198	3199	3200	3201	9
3198	3199	3200	3203	9
3196	3197	3208	3209	9
3196	3197	3208	3210	9
3196	3197	3198	3202	9
3196	3201	3200	3203	9
3200	3199	3206	3207	9
3200	3199	3206	8441	9
3200	3199	3198	3202	9
3200	3201	3196	3204	9
3204	3196	3201	3205	9
3203	3200	3201	3205	9
3207	3206	8441	8434	9
3207	3206	8441	8443	9
3152	3153	3154	3161	9
3157	3153	3154	3161	9
3156	3155	3154	3161	9
3158	3155	3154	3161	9
3161	8118	8111	8112	9
3161	8118	8111	8110	9
3154	3153	3152	3163	9
3157	3153	3152	3163	9
3156	3151	3152	3163	9
3159	3151	3152	3163	9
3154	3161	8118	8111	9
3154	3161	8118	8120	9
3151	3152	3153	3154	9
3151	3156	3155	3154	9
3154	3155	3156	3160	9
3152	3153	3154	3155	9
3152	3151	3156	3155	9
3152	3151	3156	3160	9
3153	3154	3161	3162	9
3153	3154	3161	8118	9
3153	3154	3155	3156	9
3153	3154	3155	3158	9
3153	3152	3163	3165	9
3153	3152	3163	3164	9
3153	3152	3151	3156	9
3153	3152	3151	3159	9
3155	3154	3161	3162	9
3155	3154	3161	8118	9
3155	3154	3153	3157	9
3155	3156	3151	3159	9
3151	3152	3163	3165	9
3151	3152	3163	3164	9
3151	3152	3153	3157	9
3151	3156	3155	3158	9
3158	3155	3156	3160	9
3159	3151	3156	3160	9
3162	3161	8118	8111	9
3162	3161	8118	8120	9
13700	13699	13698	13709	9
13703	13699	13698	13709	9
13702	13697	13698	13709	9
13705	13697	13698	13709	9
13709	11055	11045	11044	9
13709	11055	11045	11048	9
13698	13699	13700	13707	9
13703	13699	13700	13707	9
13702	13701	13700	13707	9
13704	13701	13700	13707	9
13707	10514	10504	10507	9
13707	10514	10504	10503	9
13698	13709	11055	11045	9
13698	13709	11055	11057	9
13698	13699	13700	13701	9
13698	13697	13702	13701	9
13698	13697	13702	13706	9
13700	13707	10514	10504	9
13700	13707	10514	10516	9
13697	13698	13699	13700	9
13697	13702	13701	13700	9
13700	13701	13702	13706	9
13699	13698	13709	13710	9
13699	13698	13709	11055	9
13699	13698	13697	13702	9
13699	13698	13697	13705	9
13699	13700	13707	13708	9
13699	13700	13707	10514	9
13699	13700	13701	13702	9
13699	13700	13701	13704	9
13697	13698	13709	13710	9
13697	13698	13709	11055	9
13697	13698	13699	13703	9
13697	13702	13701	13704	9
13701	13700	13707	13708	9
13701	13700	13707	10514	9
13701	13700	13699	13703	9
13701	13702	13697	13705	9
13705	13697	13702	13706	9
13704	13701	13702	13706	9
13710	13709	11055	11045	9
13710	13709	11055	11057	9
13708	13707	10514	10504	9
13708	13707	10514	10516	9
3227	3228	3229	3236	9
3232	3228	3229	3236	9
3231	3230	3229	3236	9
3233	3230	3229	3236	9
3236	8588	8578	8577	9
3236	8588	8578	8581	9
3229	3228	3227	3238	9
3232	3228	3227	3238	9
3231	3226	3227	3238	9
3234	3226	3227	3238	9
3229	3236	8588	8578	9
3229	3236	8588	8590	9
3226	3227	3228	3229	9
3226	3231	3230	3229	9
3229	3230	3231	3235	9
3227	3228	3229	3230	9
3227	3226	3231	3230	9
3227	3226	3231	3235	9
3228	3229	3236	3237	9
3228	3229	3236	8588	9
3228	3229	3230	3231	9
3228	3229	3230	3233	9
3228	3227	3238	3240	9
3228	3227	3238	3239	9
3228	3227	3226	3231	9
3228	3227	3226	3234	9
3230	3229	3236	3237	9
3230	3229	3236	8588	9
3230	3229	3228	3232	9
3230	3231	3226	3234	9
3226	3227	3238	3240	9
3226	3227	3238	3239	9
3226	3227	3228	3232	9
3226	3231	3230	3233	9
3233	3230	3231	3235	9
3234	3226	3231	3235	9
3237	3236	8588	8578	9
3237	3236	8588	8590	9
11032	11031	11030	11041	9
11035	11031	11030	11041	9
11034	11029	11030	11041	9
11037	11029	11030	11041	9
11041	11049	11043	11044	9
11041	11049	11043	11046	9
11030	11031	11032	11039	9
11035	11031	11032	11039	9
11034	11033	11032	11039	9
11036	11033	11032	11039	9
1104	1103	1110	11039	9
1102	1103	1110	11039	9
11030	11041	11049	11043	9
11030	11041	11049	11050	9
11030	11031	11032	11033	9
11030	11029	11034	11033	9
11030	11029	11034	11038	9
1103	1110	11039	11032	9
1112	1110	11039	11032	9
11029	11030	11031	11032	9
11029	11034	11033	11032	9
11032	11033	11034	11038	9
11031	11030	11041	11042	9
11031	11030	11041	11049	9
11031	11030	11029	11034	9
11031	11030	11029	11037	9
11031	11032	11039	11040	9
1110	11039	11032	11031	9
11031	11032	11033	11034	9
11031	11032	11033	11036	9
11029	11030	11041	11042	9
11029	11030	11041	11049	9
11029	11030	11031	11035	9
11029	11034	11033	11036	9
11033	11032	11039	11040	9
1110	11039	11032	11033	9
11033	11032	11031	11035	9
11033	11034	11029	11037	9
11037	11029	11034	11038	9
11036	11033	11034	11038	9
11042	11041	11049	11043	9
11042	11041	11049	11050	9
1103	1110	11039	11040	9
1112	1110	11039	11040	9
12608	12607	12606	12617	9
12611	12607	12606	12617	9
12610	12605	12606	12617	9
12613	12605	12606	12617	9
12617	7229	7222	7221	9
12617	7229	7222	7223	9
12606	12607	12608	12615	9
12611	12607	12608	12615	9
12610	12609	12608	12615	9
12612	12609	12608	12615	9
12615	6326	6319	6318	9
12615	6326	6319	6320	9
12606	12617	7229	7222	9
12606	12617	7229	7231	9
12606	12607	12608	12609	9
12606	12605	12610	12609	9
12606	12605	12610	12614	9
12608	12615	6326	6319	9
12608	12615	6326	6328	9
12605	12606	12607	12608	9
12605	12610	12609	12608	9
12608	12609	12610	12614	9
12607	12606	12617	12618	9
12607	12606	12617	7229	9
12607	12606	12605	12610	9
12607	12606	12605	12613	9
12607	12608	12615	12616	9
12607	12608	12615	6326	9
12607	12608	12609	12610	9
12607	12608	12609	12612	9
12605	12606	12617	12618	9
12605	12606	12617	7229	9
12605	12606	12607	12611	9
12605	12610	12609	12612	9
12609	12608	12615	12616	9
12609	12608	12615	6326	9
12609	12608	12607	12611	9
12609	12610	12605	12613	9
12613	12605	12610	12614	9
12612	12609	12610	12614	9
12618	12617	7229	7222	9
12618	12617	7229	7231	9
12616	12615	6326	6319	9
12616	12615	6326	6328	9
12090	12089	12088	12099	9
12093	12089	12088	12099	9
12092	12087	12088	12099	9
12095	12087	12088	12099	9
12099	5524	5514	5513	9
12099	5524	5514	5517	9
12088	12089	12090	12097	9
12093	12089	12090	12097	9
12092	12091	12090	12097	9
12094	12091	12090	12097	9
12097	9915	9908	9907	9
12097	9915	9908	9909	9
12088	12099	5524	5514	9
12088	12099	5524	5526	9
12088	12089	12090	12091	9
12088	12087	12092	12091	9
12088	12087	12092	12096	9
12090	12097	9915	9908	9
12090	12097	9915	9917	9
12087	12088	12089	12090	9
12087	12092	12091	12090	9
12090	12091	12092	12096	9
12089	12088	12099	12100	9
12089	12088	12099	5524	9
12089	12088	12087	12092	9
12089	12088	12087	12095	9
12089	12090	12097	12098	9
12089	12090	12097	9915	9
12089	12090	12091	12092	9
12089	12090	12091	12094	9
12087	12088	12099	12100	9
12087	12088	12099	5524	9
12087	12088	12089	12093	9
12087	12092	12091	12094	9
12091	12090	12097	12098	9
12091	12090	12097	9915	9
12091	12090	12089	12093	9
12091	12092	12087	12095	9
12095	12087	12092	12096	9
12094	12091	12092	12096	9
12100	12099	5524	5514	9
12100	12099	5524	5526	9
12098	12097	9915	9908	9
12098	12097	9915	9917	9
3274	3273	3272	3283	9
3277	3273	3272	3283	9
3276	3271	3272	3283	9
3279	3271	3272	3283	9
3272	3273	3274	3281	9
3277	3273	3274	3281	9
3276	3275	3274	3281	9
3278	3275	3274	3281	9
3281	8909	8899	8902	9
3281	8909	8899	8898	9
3272	3273	3274	3275	9
3272	3271	3276	3275	9
3272	3271	3276	3280	9
3274	3281	8909	8899	9
3274	3281	8909	8911	9
3271	3272	3273	3274	9
3271	3276	3275	3274	9
3274	3275	3276	3280	9
3273	3272	3283	3284	9
3273	3272	3283	3285	9
3273	3272	3271	3276	9
3273	3272	3271	3279	9
3273	3274	3281	3282	9
3273	3274	3281	8909	9
3273	3274	3275	3276	9
3273	3274	3275	3278	9
3271	3272	3283	3284	9
3271	3272	3283	3285	9
3271	3272	3273	3277	9
3271	3276	3275	3278	9
3275	3274	3281	3282	9
3275	3274	3281	8909	9
3275	3274	3273	3277	9
3275	3276	3271	3279	9
3279	3271	3276	3280	9
3278	3275	3276	3280	9
3282	3281	8909	8899	9
3282	3281	8909	8911	9
12874	12873	12872	12883	9
12877	12873	12872	12883	9
12876	12871	12872	12883	9
12879	12871	12872	12883	9
12883	9390	9380	9379	9
12883	9390	9380	9383	9
12872	12873	12874	12881	9
12877	12873	12874	12881	9
12876	12875	12874	12881	9
12878	12875	12874	12881	9
12881	7085	7075	7074	9
12881	7085	7075	7078	9
12872	12883	9390	9380	9
12872	12883	9390	9392	9
12872	12873	12874	12875	9
12872	12871	12876	12875	9
12872	12871	12876	12880	9
12874	12881	7085	7075	9
12874	12881	7085	7087	9
12871	12872	12873	12874	9
12871	12876	12875	12874	9
12874	12875	12876	12880	9
12873	12872	12883	12884	9
12873	12872	12883	9390	9
12873	12872	12871	12876	9
12873	12872	12871	12879	9
12873	12874	12881	12882	9
12873	12874	12881	7085	9
12873	12874	12875	12876	9
12873	12874	12875	12878	9
12871	12872	12883	12884	9
12871	12872	12883	9390	9
12871	12872	12873	12877	9
12871	12876	12875	12878	9
12875	12874	12881	12882	9
12875	12874	12881	7085	9
12875	12874	12873	12877	9
12875	12876	12871	12879	9
12879	12871	12876	12880	9
12878	12875	12876	12880	9
12884	12883	9390	9380	9
12884	12883	9390	9392	9
12882	12881	7085	7075	9
12882	12881	7085	7087	9
8183	8182	8181	8192	9
8186	8182	8181	8192	9
8185	8180	8181	8192	9
8188	8180	8181	8192	9
8192	8200	8194	8197	9
8192	8200	8194	8195	9
8181	8182	8183	8190	9
8186	8182	8183	8190	9
8185	8184	8183	8190	9
8187	8184	8183	8190	9
8190	9559	9553	9554	9
8190	9559	9553	9556	9
8181	8192	8200	8194	9
8181	8192	8200	8201	9
8181	8182	8183	8184	9
8181	8180	8185	8184	9
8181	8180	8185	8189	9
8183	8190	9559	9553	9
8183	8190	9559	9560	9
8180	8181	8182	8183	9
8180	8185	8184	8183	9
8183	8184	8185	8189	9
8182	8181	8192	8193	9
8182	8181	8192	8200	9
8182	8181	8180	8185	9
8182	8181	8180	8188	9
8182	8183	8190	8191	9
8182	8183	8190	9559	9
8182	8183	8184	8185	9
8182	8183	8184	8187	9
8180	8181	8192	8193	9
8180	8181	8192	8200	9
8180	8181	8182	8186	9
8180	8185	8184	8187	9
8184	8183	8190	8191	9
8184	8183	8190	9559	9
8184	8183	8182	8186	9
8184	8185	8180	8188	9
8188	8180	8185	8189	9
8187	8184	8185	8189	9
8193	8192	8200	8194	9
8193	8192	8200	8201	9
8191	8190	9559	9553	9
8191	8190	9559	9560	9
11584	11585	11586	11593	9
11589	11585	11586	11593	9
11588	11587	11586	11593	9
11590	11587	11586	11593	9
11593	5948	5938	5941	9
11593	5948	5938	5937	9
11586	11585	11584	11595	9
11589	11585	11584	11595	9
11588	11583	11584	11595	9
11591	11583	11584	11595	9
11595	4579	4569	4572	9
11595	4579	4569	4568	9
11586	11593	5948	5938	9
11586	11593	5948	5950	9
11586	11585	11584	11583	9
11586	11587	11588	11583	9
11586	11587	11588	11592	9
11584	11595	4579	4569	9
11584	11595	4579	4581	9
11587	11586	11585	11584	9
11587	11588	11583	11584	9
11584	11583	11588	11592	9
11585	11586	11593	11594	9
11585	11586	11593	5948	9
11585	11586	11587	11588	9
11585	11586	11587	11590	9
11585	11584	11595	11596	9
11585	11584	11595	4579	9
11585	11584	11583	11588	9
11585	11584	11583	11591	9
11587	11586	11593	11594	9
11587	11586	11593	5948	9
11587	11586	11585	11589	9
11587	11588	11583	11591	9
11583	11584	11595	11596	9
11583	11584	11595	4579	9
11583	11584	11585	11589	9
11583	11588	11587	11590	9
11590	11587	11588	11592	9
11591	11583	11588	11592	9
11594	11593	5948	5938	9
11594	11593	5948	5950	9
11596	11595	4579	4569	9
11596	11595	4579	4581	9
12286	12285	12284	12295	9
12289	12285	12284	12295	9
12288	12283	12284	12295	9
12291	12283	12284	12295	9
12295	5787	5777	5780	9
12295	5787	5777	5776	9
12284	12285	12286	12293	9
12289	12285	12286	12293	9
12288	12287	12286	12293	9
12290	12287	12286	12293	9
12293	6181	6171	6170	9
12293	6181	6171	6174	9
12284	12295	5787	5777	9
12284	12295	5787	5789	9
12284	12285	12286	12287	9
12284	12283	12288	12287	9
12284	12283	12288	12292	9
12286	12293	6181	6171	9
12286	12293	6181	6183	9
12283	12284	12285	12286	9
12283	12288	12287	12286	9
12286	12287	12288	12292	9
12285	12284	12295	12296	9
12285	12284	12295	5787	9
12285	12284	12283	12288	9
12285	12284	12283	12291	9
12285	12286	12293	12294	9
12285	12286	12293	6181	9
12285	12286	12287	12288	9
12285	12286	12287	12290	9
12283	12284	12295	12296	9
12283	12284	12295	5787	9
12283	12284	12285	12289	9
12283	12288	12287	12290	9
12287	12286	12293	12294	9
12287	12286	12293	6181	9
12287	12286	12285	12289	9
12287	12288	12283	12291	9
12291	12283	12288	12292	9
12290	12287	12288	12292	9
12296	12295	5787	5777	9
12296	12295	5787	5789	9
12294	12293	6181	6171	9
12294	12293	6181	6183	9
13560	13559	13558	13569	9
13563	13559	13558	13569	9
13562	13557	13558	13569	9
13565	13557	13558	13569	9
13569	9084	9077	9076	9
13569	9084	9077	9078	9
13558	13559	13560	13567	9
13563	13559	13560	13567	9
13562	13561	13560	13567	9
13564	13561	13560	13567	9
13567	10660	10650	10653	9
13567	10660	10650	10649	9
13558	13569	9084	9077	9
13558	13569	9084	9086	9
13558	13559	13560	13561	9
13558	13557	13562	13561	9
13558	13557	13562	13566	9
13560	13567	10660	10650	9
13560	13567	10660	10662	9
13557	13558	13559	13560	9
13557	13562	13561	13560	9
13560	13561	13562	13566	9
13559	13558	13569	13570	9
13559	13558	13569	9084	9
13559	13558	13557	13562	9
13559	13558	13557	13565	9
13559	13560	13567	13568	9
13559	13560	13567	10660	9
13559	13560	13561	13562	9
13559	13560	13561	13564	9
13557	13558	13569	13570	9
13557	13558	13569	9084	9
13557	13558	13559	13563	9
13557	13562	13561	13564	9
13561	13560	13567	13568	9
13561	13560	13567	10660	9
13561	13560	13559	13563	9
13561	13562	13557	13565	9
13565	13557	13562	13566	9
13564	13561	13562	13566	9
13570	13569	9084	9077	9
13570	13569	9084	9086	9
13568	13567	10660	10650	9
13568	13567	10660	10662	9
3032	3033	3034	3041	9
3037	3033	3034	3041	9
3036	3035	3034	3041	9
3038	3035	3034	3041	9
3041	7050	7044	7045	9
3041	7050	7044	7047	9
3034	3033	3032	3043	9
3037	3033	3032	3043	9
3036	3031	3032	3043	9
3039	3031	3032	3043	9
3034	3041	7050	7044	9
3034	3041	7050	7051	9
3031	3032	3033	3034	9
3031	3036	3035	3034	9
3034	3035	3036	3040	9
3032	3033	3034	3035	9
3032	3031	3036	3035	9
3032	3031	3036	3040	9
3033	3034	3041	3042	9
3033	3034	3041	7050	9
3033	3034	3035	3036	9
3033	3034	3035	3038	9
3033	3032	3043	3044	9
3033	3032	3043	3045	9
3033	3032	3031	3036	9
3033	3032	3031	3039	9
3035	3034	3041	3042	9
3035	3034	3041	7050	9
3035	3034	3033	3037	9
3035	3036	3031	3039	9
3031	3032	3043	3044	9
3031	3032	3043	3045	9
3031	3032	3033	3037	9
3031	3036	3035	3038	9
3038	3035	3036	3040	9
3039	3031	3036	3040	9
3042	3041	7050	7044	9
3042	3041	7050	7051	9
8696	8695	8694	8705	9
8699	8695	8694	8705	9
8698	8693	8694	8705	9
8701	8693	8694	8705	9
8705	5757	5750	5751	9
8705	5757	5750	5749	9
8694	8695	8696	8703	9
8699	8695	8696	8703	9
8698	8697	8696	8703	9
8700	8697	8696	8703	9
8703	8713	8707	8710	9
8703	8713	8707	8708	9
8694	8705	5757	5750	9
8694	8705	5757	5759	9
8694	8695	8696	8697	9
8694	8693	8698	8697	9
8694	8693	8698	8702	9
8696	8703	8713	8707	9
8696	8703	8713	8714	9
8693	8694	8695	8696	9
8693	8698	8697	8696	9
8696	8697	8698	8702	9
8695	8694	8705	8706	9
8695	8694	8705	5757	9
8695	8694	8693	8698	9
8695	8694	8693	8701	9
8695	8696	8703	8704	9
8695	8696	8703	8713	9
8695	8696	8697	8698	9
8695	8696	8697	8700	9
8693	8694	8705	8706	9
8693	8694	8705	5757	9
8693	8694	8695	8699	9
8693	8698	8697	8700	9
8697	8696	8703	8704	9
8697	8696	8703	8713	9
8697	8696	8695	8699	9
8697	8698	8693	8701	9
8701	8693	8698	8702	9
8700	8697	8698	8702	9
8706	8705	5757	5750	9
8706	8705	5757	5759	9
8704	8703	8713	8707	9
8704	8703	8713	8714	9
5720	5719	5718	5729	9
5723	5719	5718	5729	9
5722	5717	5718	5729	9
5725	5717	5718	5729	9
5729	5737	5731	5732	9
5729	5737	5731	5734	9
5718	5719	5720	5727	9
5723	5719	5720	5727	9
5722	5721	5720	5727	9
5724	5721	5720	5727	9
5727	4724	4714	4713	9
5727	4724	4714	4717	9
5718	5729	5737	5731	9
5718	5729	5737	5738	9
5718	5719	5720	5721	9
5718	5717	5722	5721	9
5718	5717	5722	5726	9
5720	5727	4724	4714	9
5720	5727	4724	4726	9
5717	5718	5719	5720	9
5717	5722	5721	5720	9
5720	5721	5722	5726	9
5719	5718	5729	5730	9
5719	5718	5729	5737	9
5719	5718	5717	5722	9
5719	5718	5717	5725	9
5719	5720	5727	5728	9
5719	5720	5727	4724	9
5719	5720	5721	5722	9
5719	5720	5721	5724	9
5717	5718	5729	5730	9
5717	5718	5729	5737	9
5717	5718	5719	5723	9
5717	5722	5721	5724	9
5721	5720	5727	5728	9
5721	5720	5727	4724	9
5721	5720	5719	5723	9
5721	5722	5717	5725	9
5725	5717	5722	5726	9
5724	5721	5722	5726	9
5730	5729	5737	5731	9
5730	5729	5737	5738	9
5728	5727	4724	4714	9
5728	5727	4724	4726	9
1929	1928	1927	1938	9
1932	1928	1927	1938	9
1931	1926	1927	1938	9
1934	1926	1927	1938	9
1938	10761	10754	10755	9
1938	10761	10754	10753	9
1927	1928	1929	1936	9
1932	1928	1929	1936	9
1931	1930	1929	1936	9
1933	1930	1929	1936	9
1910	1909	1915	1936	9
1912	1909	1915	1936	9
1927	1938	10761	10754	9
1927	1938	10761	10763	9
1927	1928	1929	1930	9
1927	1926	1931	1930	9
1927	1926	1931	1935	9
1909	1915	1936	1929	9
1916	1915	1936	1929	9
1926	1927	1928	1929	9
1926	1931	1930	1929	9
1929	1930	1931	1935	9
1928	1927	1938	1939	9
1928	1927	1938	10761	9
1928	1927	1926	1931	9
1928	1927	1926	1934	9
1928	1929	1936	1937	9
1915	1936	1929	1928	9
1928	1929	1930	1931	9
1928	1929	1930	1933	9
1926	1927	1938	1939	9
1926	1927	1938	10761	9
1926	1927	1928	1932	9
1926	1931	1930	1933	9
1930	1929	1936	1937	9
1915	1936	1929	1930	9
1930	1929	1928	1932	9
1930	1931	1926	1934	9
1934	1926	1931	1935	9
1933	1930	1931	1935	9
1939	1938	10761	10754	9
1939	1938	10761	10763	9
1909	1915	1936	1937	9
1916	1915	1936	1937	9
6042	6041	6040	6051	9
6045	6041	6040	6051	9
6044	6039	6040	6051	9
6047	6039	6040	6051	9
6051	7239	7233	7234	9
6051	7239	7233	7236	9
6040	6041	6042	6049	9
6045	6041	6042	6049	9
6044	6043	6042	6049	9
6046	6043	6042	6049	9
6049	6059	6053	6056	9
6049	6059	6053	6054	9
6040	6051	7239	7233	9
6040	6051	7239	7240	9
6040	6041	6042	6043	9
6040	6039	6044	6043	9
6040	6039	6044	6048	9
6042	6049	6059	6053	9
6042	6049	6059	6060	9
6039	6040	6041	6042	9
6039	6044	6043	6042	9
6042	6043	6044	6048	9
6041	6040	6051	6052	9
6041	6040	6051	7239	9
6041	6040	6039	6044	9
6041	6040	6039	6047	9
6041	6042	6049	6050	9
6041	6042	6049	6059	9
6041	6042	6043	6044	9
6041	6042	6043	6046	9
6039	6040	6051	6052	9
6039	6040	6051	7239	9
6039	6040	6041	6045	9
6039	6044	6043	6046	9
6043	6042	6049	6050	9
6043	6042	6049	6059	9
6043	6042	6041	6045	9
6043	6044	6039	6047	9
6047	6039	6044	6048	9
6046	6043	6044	6048	9
6052	6051	7239	7233	9
6052	6051	7239	7240	9
6050	6049	6059	6053	9
6050	6049	6059	6060	9
13798	13797	13796	13807	9
13801	13797	13796	13807	9
13800	13795	13796	13807	9
13803	13795	13796	13807	9
639	638	645	13807	9
637	638	645	13807	9
13796	13797	13798	13805	9
13801	13797	13798	13805	9
13800	13799	13798	13805	9
13802	13799	13798	13805	9
1604	1603	1610	13805	9
1602	1603	1610	13805	9
638	645	13807	13796	9
647	645	13807	13796	9
13796	13797	13798	13799	9
13796	13795	13800	13799	9
13796	13795	13800	13804	9
1603	1610	13805	13798	9
1612	1610	13805	13798	9
13795	13796	13797	13798	9
13795	13800	13799	13798	9
13798	13799	13800	13804	9
13797	13796	13807	13808	9
645	13807	13796	13797	9
13797	13796	13795	13800	9
13797	13796	13795	13803	9
13797	13798	13805	13806	9
1610	13805	13798	13797	9
13797	13798	13799	13800	9
13797	13798	13799	13802	9
13795	13796	13807	13808	9
645	13807	13796	13795	9
13795	13796	13797	13801	9
13795	13800	13799	13802	9
13799	13798	13805	13806	9
1610	13805	13798	13799	9
13799	13798	13797	13801	9
13799	13800	13795	13803	9
13803	13795	13800	13804	9
13802	13799	13800	13804	9
638	645	13807	13808	9
647	645	13807	13808	9
1603	1610	13805	13806	9
1612	1610	13805	13806	9
2942	2943	2944	2951	9
2947	2943	2944	2951	9
2946	2945	2944	2951	9
2948	2945	2944	2951	9
2951	6559	6552	6551	9
2951	6559	6552	6553	9
2944	2943	2942	2953	9
2947	2943	2942	2953	9
2946	2941	2942	2953	9
2949	2941	2942	2953	9
2944	2951	6559	6552	9
2944	2951	6559	6561	9
2941	2942	2943	2944	9
2941	2946	2945	2944	9
2944	2945	2946	2950	9
2942	2943	2944	2945	9
2942	2941	2946	2945	9
2942	2941	2946	2950	9
2943	2944	2951	2952	9
2943	2944	2951	6559	9
2943	2944	2945	2946	9
2943	2944	2945	2948	9
2943	2942	2953	2955	9
2943	2942	2953	2954	9
2943	2942	2941	2946	9
2943	2942	2941	2949	9
2945	2944	2951	2952	9
2945	2944	2951	6559	9
2945	2944	2943	2947	9
2945	2946	2941	2949	9
2941	2942	2953	2955	9
2941	2942	2953	2954	9
2941	2942	2943	2947	9
2941	2946	2945	2948	9
2948	2945	2946	2950	9
2949	2941	2946	2950	9
2952	2951	6559	6552	9
2952	2951	6559	6561	9
9309	9308	9307	9318	9
9312	9308	9307	9318	9
9311	9306	9307	9318	9
9314	9306	9307	9318	9
9318	9326	9320	9323	9
9318	9326	9320	9321	9
9307	9308	9309	9316	9
9312	9308	9309	9316	9
9311	9310	9309	9316	9
9313	9310	9309	9316	9
9316	4689	4683	4684	9
9316	4689	4683	4686	9
9307	9318	9326	9320	9
9307	9318	9326	9327	9
9307	9308	9309	9310	9
9307	9306	9311	9310	9
9307	9306	9311	9315	9
9309	9316	4689	4683	9
9309	9316	4689	4690	9
9306	9307	9308	9309	9
9306	9311	9310	9309	9
9309	9310	9311	9315	9
9308	9307	9318	9319	9
9308	9307	9318	9326	9
9308	9307	9306	9311	9
9308	9307	9306	9314	9
9308	9309	9316	9317	9
9308	9309	9316	4689	9
9308	9309	9310	9311	9
9308	9309	9310	9313	9
9306	9307	9318	9319	9
9306	9307	9318	9326	9
9306	9307	9308	9312	9
9306	9311	9310	9313	9
9310	9309	9316	9317	9
9310	9309	9316	4689	9
9310	9309	9308	9312	9
9310	9311	9306	9314	9
9314	9306	9311	9315	9
9313	9310	9311	9315	9
9319	9318	9326	9320	9
9319	9318	9326	9327	9
9317	9316	4689	4683	9
9317	9316	4689	4690	9
5499	5500	5501	5508	9
5504	5500	5501	5508	9
5503	5502	5501	5508	9
5505	5502	5501	5508	9
5508	4971	4961	4960	9
5508	4971	4961	4964	9
5501	5500	5499	5510	9
5504	5500	5499	5510	9
5503	5498	5499	5510	9
5506	5498	5499	5510	9
5510	5518	5512	5513	9
5510	5518	5512	5515	9
5501	5508	4971	4961	9
5501	5508	4971	4973	9
5498	5499	5500	5501	9
5498	5503	5502	5501	9
5501	5502	5503	5507	9
5499	5510	5518	5512	9
5499	5510	5518	5519	9
5499	5500	5501	5502	9
5499	5498	5503	5502	9
5499	5498	5503	5507	9
5500	5501	5508	5509	9
5500	5501	5508	4971	9
5500	5501	5502	5503	9
5500	5501	5502	5505	9
5500	5499	5510	5511	9
5500	5499	5510	5518	9
5500	5499	5498	5503	9
5500	5499	5498	5506	9
5502	5501	5508	5509	9
5502	5501	5508	4971	9
5502	5501	5500	5504	9
5502	5503	5498	5506	9
5498	5499	5510	5511	9
5498	5499	5510	5518	9
5498	5499	5500	5504	9
5498	5503	5502	5505	9
5505	5502	5503	5507	9
5506	5498	5503	5507	9
5509	5508	4971	4961	9
5509	5508	4971	4973	9
5511	5510	5518	5512	9
5511	5510	5518	5519	9
13098	13097	13096	13107	9
13101	13097	13096	13107	9
13100	13095	13096	13107	9
13103	13095	13096	13107	9
13107	7725	7718	7717	9
13107	7725	7718	7719	9
13096	13097	13098	13105	9
13101	13097	13098	13105	9
13100	13099	13098	13105	9
13102	13099	13098	13105	9
13105	10820	10813	10814	9
13105	10820	10813	10812	9
13096	13107	7725	7718	9
13096	13107	7725	7727	9
13096	13097	13098	13099	9
13096	13095	13100	13099	9
13096	13095	13100	13104	9
13098	13105	10820	10813	9
13098	13105	10820	10822	9
13095	13096	13097	13098	9
13095	13100	13099	13098	9
13098	13099	13100	13104	9
13097	13096	13107	13108	9
13097	13096	13107	7725	9
13097	13096	13095	13100	9
13097	13096	13095	13103	9
13097	13098	13105	13106	9
13097	13098	13105	10820	9
13097	13098	13099	13100	9
13097	13098	13099	13102	9
13095	13096	13107	13108	9
13095	13096	13107	7725	9
13095	13096	13097	13101	9
13095	13100	13099	13102	9
13099	13098	13105	13106	9
13099	13098	13105	10820	9
13099	13098	13097	13101	9
13099	13100	13095	13103	9
13103	13095	13100	13104	9
13102	13099	13100	13104	9
13108	13107	7725	7718	9
13108	13107	7725	7727	9
13106	13105	10820	10813	9
13106	13105	10820	10822	9
12426	12425	12424	12435	9
12429	12425	12424	12435	9
12428	12423	12424	12435	9
12431	12423	12424	12435	9
12435	9389	9382	9383	9
12435	9389	9382	9381	9
12424	12425	12426	12433	9
12429	12425	12426	12433	9
12428	12427	12426	12433	9
12430	12427	12426	12433	9
12433	5992	5982	5985	9
12433	5992	5982	5981	9
12424	12435	9389	9382	9
12424	12435	9389	9391	9
12424	12425	12426	12427	9
12424	12423	12428	12427	9
12424	12423	12428	12432	9
12426	12433	5992	5982	9
12426	12433	5992	5994	9
12423	12424	12425	12426	9
12423	12428	12427	12426	9
12426	12427	12428	12432	9
12425	12424	12435	12436	9
12425	12424	12435	9389	9
12425	12424	12423	12428	9
12425	12424	12423	12431	9
12425	12426	12433	12434	9
12425	12426	12433	5992	9
12425	12426	12427	12428	9
12425	12426	12427	12430	9
12423	12424	12435	12436	9
12423	12424	12435	9389	9
12423	12424	12425	12429	9
12423	12428	12427	12430	9
12427	12426	12433	12434	9
12427	12426	12433	5992	9
12427	12426	12425	12429	9
12427	12428	12423	12431	9
12431	12423	12428	12432	9
12430	12427	12428	12432	9
12436	12435	9389	9382	9
12436	12435	9389	9391	9
12434	12433	5992	5982	9
12434	12433	5992	5994	9
10827	10826	10825	10836	9
10830	10826	10825	10836	9
10829	10824	10825	10836	9
10832	10824	10825	10836	9
10836	6991	6985	6988	9
10836	6991	6985	6986	9
10825	10826	10827	10834	9
10830	10826	10827	10834	9
10829	10828	10827	10834	9
10831	10828	10827	10834	9
10834	10844	10838	10839	9
10834	10844	10838	10841	9
10825	10836	6991	6985	9
10825	10836	6991	6992	9
10825	10826	10827	10828	9
10825	10824	10829	10828	9
10825	10824	10829	10833	9
10827	10834	10844	10838	9
10827	10834	10844	10845	9
10824	10825	10826	10827	9
10824	10829	10828	10827	9
10827	10828	10829	10833	9
10826	10825	10836	10837	9
10826	10825	10836	6991	9
10826	10825	10824	10829	9
10826	10825	10824	10832	9
10826	10827	10834	10835	9
10826	10827	10834	10844	9
10826	10827	10828	10829	9
10826	10827	10828	10831	9
10824	10825	10836	10837	9
10824	10825	10836	6991	9
10824	10825	10826	10830	9
10824	10829	10828	10831	9
10828	10827	10834	10835	9
10828	10827	10834	10844	9
10828	10827	10826	10830	9
10828	10829	10824	10832	9
10832	10824	10829	10833	9
10831	10828	10829	10833	9
10837	10836	6991	6985	9
10837	10836	6991	6992	9
10835	10834	10844	10838	9
10835	10834	10844	10845	9
2824	2823	2822	2833	9
2827	2823	2822	2833	9
2826	2821	2822	2833	9
2829	2821	2822	2833	9
2822	2823	2824	2831	9
2827	2823	2824	2831	9
2826	2825	2824	2831	9
2828	2825	2824	2831	9
2831	5421	5414	5413	9
2831	5421	5414	5415	9
2822	2823	2824	2825	9
2822	2821	2826	2825	9
2822	2821	2826	2830	9
2824	2831	5421	5414	9
2824	2831	5421	5423	9
2821	2822	2823	2824	9
2821	2826	2825	2824	9
2824	2825	2826	2830	9
2823	2822	2833	2835	9
2823	2822	2833	2834	9
2823	2822	2821	2826	9
2823	2822	2821	2829	9
2823	2824	2831	2832	9
2823	2824	2831	5421	9
2823	2824	2825	2826	9
2823	2824	2825	2828	9
2821	2822	2833	2835	9
2821	2822	2833	2834	9
2821	2822	2823	2827	9
2821	2826	2825	2828	9
2825	2824	2831	2832	9
2825	2824	2831	5421	9
2825	2824	2823	2827	9
2825	2826	2821	2829	9
2829	2821	2826	2830	9
2828	2825	2826	2830	9
2832	2831	5421	5414	9
2832	2831	5421	5423	9
13490	13489	13488	13499	9
13493	13489	13488	13499	9
13492	13487	13488	13499	9
13495	13487	13488	13499	9
13499	9842	9835	9836	9
13499	9842	9835	9834	9
13488	13489	13490	13497	9
13493	13489	13490	13497	9
13492	13491	13490	13497	9
13494	13491	13490	13497	9
13497	8851	8841	8840	9
13497	8851	8841	8844	9
13488	13499	9842	9835	9
13488	13499	9842	9844	9
13488	13489	13490	13491	9
13488	13487	13492	13491	9
13488	13487	13492	13496	9
13490	13497	8851	8841	9
13490	13497	8851	8853	9
13487	13488	13489	13490	9
13487	13492	13491	13490	9
13490	13491	13492	13496	9
13489	13488	13499	13500	9
13489	13488	13499	9842	9
13489	13488	13487	13492	9
13489	13488	13487	13495	9
13489	13490	13497	13498	9
13489	13490	13497	8851	9
13489	13490	13491	13492	9
13489	13490	13491	13494	9
13487	13488	13499	13500	9
13487	13488	13499	9842	9
13487	13488	13489	13493	9
13487	13492	13491	13494	9
13491	13490	13497	13498	9
13491	13490	13497	8851	9
13491	13490	13489	13493	9
13491	13492	13487	13495	9
13495	13487	13492	13496	9
13494	13491	13492	13496	9
13500	13499	9842	9835	9
13500	13499	9842	9844	9
13498	13497	8851	8841	9
13498	13497	8851	8853	9
9745	9746	9747	9754	9
9750	9746	9747	9754	9
9749	9748	9747	9754	9
9751	9748	9747	9754	9
9754	9814	9804	9807	9
9754	9814	9804	9803	9
9747	9746	9745	9756	9
9750	9746	9745	9756	9
9749	9744	9745	9756	9
9752	9744	9745	9756	9
9756	9764	9758	9759	9
9756	9764	9758	9761	9
9747	9754	9814	9804	9
9747	9754	9814	9816	9
9744	9745	9746	9747	9
9744	9749	9748	9747	9
9747	9748	9749	9753	9
9745	9756	9764	9758	9
9745	9756	9764	9765	9
9745	9746	9747	9748	9
9745	9744	9749	9748	9
9745	9744	9749	9753	9
9746	9747	9754	9755	9
9746	9747	9754	9814	9
9746	9747	9748	9749	9
9746	9747	9748	9751	9
9746	9745	9756	9757	9
9746	9745	9756	9764	9
9746	9745	9744	9749	9
9746	9745	9744	9752	9
9748	9747	9754	9755	9
9748	9747	9754	9814	9
9748	9747	9746	9750	9
9748	9749	9744	9752	9
9744	9745	9756	9757	9
9744	9745	9756	9764	9
9744	9745	9746	9750	9
9744	9749	9748	9751	9
9751	9748	9749	9753	9
9752	9744	9749	9753	9
9755	9754	9814	9804	9
9755	9754	9814	9816	9
9757	9756	9764	9758	9
9757	9756	9764	9765	9
11250	11249	11248	11259	9
11253	11249	11248	11259	9
11252	11247	11248	11259	9
11255	11247	11248	11259	9
11259	3911	3901	3904	9
11259	3911	3901	3900	9
11248	11249	11250	11257	9
11253	11249	11250	11257	9
11252	11251	11250	11257	9
11254	11251	11250	11257	9
11257	6604	6594	6593	9
11257	6604	6594	6597	9
11248	11259	3911	3901	9
11248	11259	3911	3913	9
11248	11249	11250	11251	9
11248	11247	11252	11251	9
11248	11247	11252	11256	9
11250	11257	6604	6594	9
11250	11257	6604	6606	9
11247	11248	11249	11250	9
11247	11252	11251	11250	9
11250	11251	11252	11256	9
11249	11248	11259	11260	9
11249	11248	11259	3911	9
11249	11248	11247	11252	9
11249	11248	11247	11255	9
11249	11250	11257	11258	9
11249	11250	11257	6604	9
11249	11250	11251	11252	9
11249	11250	11251	11254	9
11247	11248	11259	11260	9
11247	11248	11259	3911	9
11247	11248	11249	11253	9
11247	11252	11251	11254	9
11251	11250	11257	11258	9
11251	11250	11257	6604	9
11251	11250	11249	11253	9
11251	11252	11247	11255	9
11255	11247	11252	11256	9
11254	11251	11252	11256	9
11260	11259	3911	3901	9
11260	11259	3911	3913	9
11258	11257	6604	6594	9
11258	11257	6604	6606	9
11514	11515	11516	11523	9
11519	11515	11516	11523	9
11518	11517	11516	11523	9
11520	11517	11516	11523	9
11523	9900	9893	9892	9
11523	9900	9893	9894	9
11516	11515	11514	11525	9
11519	11515	11514	11525	9
11518	11513	11514	11525	9
11521	11513	11514	11525	9
11525	4390	4380	4383	9
11525	4390	4380	4379	9
11516	11523	9900	9893	9
11516	11523	9900	9902	9
11516	11515	11514	11513	9
11516	11517	11518	11513	9
11516	11517	11518	11522	9
11514	11525	4390	4380	9
11514	11525	4390	4392	9
11517	11516	11515	11514	9
11517	11518	11513	11514	9
11514	11513	11518	11522	9
11515	11516	11523	11524	9
11515	11516	11523	9900	9
11515	11516	11517	11518	9
11515	11516	11517	11520	9
11515	11514	11525	11526	9
11515	11514	11525	4390	9
11515	11514	11513	11518	9
11515	11514	11513	11521	9
11517	11516	11523	11524	9
11517	11516	11523	9900	9
11517	11516	11515	11519	9
11517	11518	11513	11521	9
11513	11514	11525	11526	9
11513	11514	11525	4390	9
11513	11514	11515	11519	9
11513	11518	11517	11520	9
11520	11517	11518	11522	9
11521	11513	11518	11522	9
11524	11523	9900	9893	9
11524	11523	9900	9902	9
11526	11525	4390	4380	9
11526	11525	4390	4392	9
2674	2673	2672	2683	9
2677	2673	2672	2683	9
2676	2671	2672	2683	9
2679	2671	2672	2683	9
2672	2673	2674	2681	9
2677	2673	2674	2681	9
2676	2675	2674	2681	9
2678	2675	2674	2681	9
2681	4288	4278	4277	9
2681	4288	4278	4281	9
2672	2673	2674	2675	9
2672	2671	2676	2675	9
2672	2671	2676	2680	9
2674	2681	4288	4278	9
2674	2681	4288	4290	9
2671	2672	2673	2674	9
2671	2676	2675	2674	9
2674	2675	2676	2680	9
2673	2672	2683	2685	9
2673	2672	2683	2684	9
2673	2672	2671	2676	9
2673	2672	2671	2679	9
2673	2674	2681	2682	9
2673	2674	2681	4288	9
2673	2674	2675	2676	9
2673	2674	2675	2678	9
2671	2672	2683	2685	9
2671	2672	2683	2684	9
2671	2672	2673	2677	9
2671	2676	2675	2678	9
2675	2674	2681	2682	9
2675	2674	2681	4288	9
2675	2674	2673	2677	9
2675	2676	2671	2679	9
2679	2671	2676	2680	9
2678	2675	2676	2680	9
2682	2681	4288	4278	9
2682	2681	4288	4290	9
3139	3138	3137	3148	9
3142	3138	3137	3148	9
3141	3136	3137	3148	9
3144	3136	3137	3148	9
3137	3138	3139	3146	9
3142	3138	3139	3146	9
3141	3140	3139	3146	9
3143	3140	3139	3146	9
3146	8103	8096	8097	9
3146	8103	8096	8095	9
3137	3138	3139	3140	9
3137	3136	3141	3140	9
3137	3136	3141	3145	9
3139	3146	8103	8096	9
3139	3146	8103	8105	9
3136	3137	3138	3139	9
3136	3141	3140	3139	9
3139	3140	3141	3145	9
3138	3137	3148	3149	9
3138	3137	3148	3150	9
3138	3137	3136	3141	9
3138	3137	3136	3144	9
3138	3139	3146	3147	9
3138	3139	3146	8103	9
3138	3139	3140	3141	9
3138	3139	3140	3143	9
3136	3137	3148	3149	9
3136	3137	3148	3150	9
3136	3137	3138	3142	9
3136	3141	3140	3143	9
3140	3139	3146	3147	9
3140	3139	3146	8103	9
3140	3139	3138	3142	9
3140	3141	3136	3144	9
3144	3136	3141	3145	9
3143	3140	3141	3145	9
3147	3146	8103	8096	9
3147	3146	8103	8105	9
13336	13335	13334	13345	9
13339	13335	13334	13345	9
13338	13333	13334	13345	9
13341	13333	13334	13345	9
13345	8295	8285	8284	9
13345	8295	8285	8288	9
13334	13335	13336	13343	9
13339	13335	13336	13343	9
13338	13337	13336	13343	9
13340	13337	13336	13343	9
13343	9157	9150	9149	9
13343	9157	9150	9151	9
13334	13345	8295	8285	9
13334	13345	8295	8297	9
13334	13335	13336	13337	9
13334	13333	13338	13337	9
13334	13333	13338	13342	9
13336	13343	9157	9150	9
13336	13343	9157	9159	9
13333	13334	13335	13336	9
13333	13338	13337	13336	9
13336	13337	13338	13342	9
13335	13334	13345	13346	9
13335	13334	13345	8295	9
13335	13334	13333	13338	9
13335	13334	13333	13341	9
13335	13336	13343	13344	9
13335	13336	13343	9157	9
13335	13336	13337	13338	9
13335	13336	13337	13340	9
13333	13334	13345	13346	9
13333	13334	13345	8295	9
13333	13334	13335	13339	9
13333	13338	13337	13340	9
13337	13336	13343	13344	9
13337	13336	13343	9157	9
13337	13336	13335	13339	9
13337	13338	13333	13341	9
13341	13333	13338	13342	9
13340	13337	13338	13342	9
13346	13345	8295	8285	9
13346	13345	8295	8297	9
13344	13343	9157	9150	9
13344	13343	9157	9159	9
5793	5792	5791	5802	9
5796	5792	5791	5802	9
5795	5790	5791	5802	9
5798	5790	5791	5802	9
5802	7273	7266	7267	9
5802	7273	7266	7265	9
5791	5792	5793	5800	9
5796	5792	5793	5800	9
5795	5794	5793	5800	9
5797	5794	5793	5800	9
5800	5810	5804	5805	9
5800	5810	5804	5807	9
5791	5802	7273	7266	9
5791	5802	7273	7275	9
5791	5792	5793	5794	9
5791	5790	5795	5794	9
5791	5790	5795	5799	9
5793	5800	5810	5804	9
5793	5800	5810	5811	9
5790	5791	5792	5793	9
5790	5795	5794	5793	9
5793	5794	5795	5799	9
5792	5791	5802	5803	9
5792	5791	5802	7273	9
5792	5791	5790	5795	9
5792	5791	5790	5798	9
5792	5793	5800	5801	9
5792	5793	5800	5810	9
5792	5793	5794	5795	9
5792	5793	5794	5797	9
5790	5791	5802	5803	9
5790	5791	5802	7273	9
5790	5791	5792	5796	9
5790	5795	5794	5797	9
5794	5793	5800	5801	9
5794	5793	5800	5810	9
5794	5793	5792	5796	9
5794	5795	5790	5798	9
5798	5790	5795	5799	9
5797	5794	5795	5799	9
5803	5802	7273	7266	9
5803	5802	7273	7275	9
5801	5800	5810	5804	9
5801	5800	5810	5811	9
9791	9790	9789	9800	9
9794	9790	9789	9800	9
9793	9788	9789	9800	9
9796	9788	9789	9800	9
9800	9808	9802	9805	9
9800	9808	9802	9803	9
9789	9790	9791	9798	9
9794	9790	9791	9798	9
9793	9792	9791	9798	9
9795	9792	9791	9798	9
9798	8470	8463	8464	9
9798	8470	8463	8462	9
9789	9800	9808	9802	9
9789	9800	9808	9809	9
9789	9790	9791	9792	9
9789	9788	9793	9792	9
9789	9788	9793	9797	9
9791	9798	8470	8463	9
9791	9798	8470	8472	9
9788	9789	9790	9791	9
9788	9793	9792	9791	9
9791	9792	9793	9797	9
9790	9789	9800	9801	9
9790	9789	9800	9808	9
9790	9789	9788	9793	9
9790	9789	9788	9796	9
9790	9791	9798	9799	9
9790	9791	9798	8470	9
9790	9791	9792	9793	9
9790	9791	9792	9795	9
9788	9789	9800	9801	9
9788	9789	9800	9808	9
9788	9789	9790	9794	9
9788	9793	9792	9795	9
9792	9791	9798	9799	9
9792	9791	9798	8470	9
9792	9791	9790	9794	9
9792	9793	9788	9796	9
9796	9788	9793	9797	9
9795	9792	9793	9797	9
9801	9800	9808	9802	9
9801	9800	9808	9809	9
9799	9798	8470	8463	9
9799	9798	8470	8472	9
10300	10299	10298	10309	9
10303	10299	10298	10309	9
10302	10297	10298	10309	9
10305	10297	10298	10309	9
10309	10317	10311	10312	9
10309	10317	10311	10314	9
10298	10299	10300	10307	9
10303	10299	10300	10307	9
10302	10301	10300	10307	9
10304	10301	10300	10307	9
10307	8045	8038	8037	9
10307	8045	8038	8039	9
10298	10309	10317	10311	9
10298	10309	10317	10318	9
10298	10299	10300	10301	9
10298	10297	10302	10301	9
10298	10297	10302	10306	9
10300	10307	8045	8038	9
10300	10307	8045	8047	9
10297	10298	10299	10300	9
10297	10302	10301	10300	9
10300	10301	10302	10306	9
10299	10298	10309	10310	9
10299	10298	10309	10317	9
10299	10298	10297	10302	9
10299	10298	10297	10305	9
10299	10300	10307	10308	9
10299	10300	10307	8045	9
10299	10300	10301	10302	9
10299	10300	10301	10304	9
10297	10298	10309	10310	9
10297	10298	10309	10317	9
10297	10298	10299	10303	9
10297	10302	10301	10304	9
10301	10300	10307	10308	9
10301	10300	10307	8045	9
10301	10300	10299	10303	9
10301	10302	10297	10305	9
10305	10297	10302	10306	9
10304	10301	10302	10306	9
10310	10309	10317	10311	9
10310	10309	10317	10318	9
10308	10307	8045	8038	9
10308	10307	8045	8047	9
12958	12957	12956	12967	9
12961	12957	12956	12967	9
12960	12955	12956	12967	9
12963	12955	12956	12967	9
12967	7405	7395	7398	9
12967	7405	7395	7394	9
12956	12957	12958	12965	9
12961	12957	12958	12965	9
12960	12959	12958	12965	9
12962	12959	12958	12965	9
12965	10017	10010	10011	9
12965	10017	10010	10009	9
12956	12967	7405	7395	9
12956	12967	7405	7407	9
12956	12957	12958	12959	9
12956	12955	12960	12959	9
12956	12955	12960	12964	9
12958	12965	10017	10010	9
12958	12965	10017	10019	9
12955	12956	12957	12958	9
12955	12960	12959	12958	9
12958	12959	12960	12964	9
12957	12956	12967	12968	9
12957	12956	12967	7405	9
12957	12956	12955	12960	9
12957	12956	12955	12963	9
12957	12958	12965	12966	9
12957	12958	12965	10017	9
12957	12958	12959	12960	9
12957	12958	12959	12962	9
12955	12956	12967	12968	9
12955	12956	12967	7405	9
12955	12956	12957	12961	9
12955	12960	12959	12962	9
12959	12958	12965	12966	9
12959	12958	12965	10017	9
12959	12958	12957	12961	9
12959	12960	12955	12963	9
12963	12955	12960	12964	9
12962	12959	12960	12964	9
12968	12967	7405	7395	9
12968	12967	7405	7407	9
12966	12965	10017	10010	9
12966	12965	10017	10019	9
3047	3048	3049	3056	9
3052	3048	3049	3056	9
3051	3050	3049	3056	9
3053	3050	3049	3056	9
3056	7331	7324	7323	9
3056	7331	7324	7325	9
3049	3048	3047	3058	9
3052	3048	3047	3058	9
3051	3046	3047	3058	9
3054	3046	3047	3058	9
3049	3056	7331	7324	9
3049	3056	7331	7333	9
3046	3047	3048	3049	9
3046	3051	3050	3049	9
3049	3050	3051	3055	9
3047	3048	3049	3050	9
3047	3046	3051	3050	9
3047	3046	3051	3055	9
3048	3049	3056	3057	9
3048	3049	3056	7331	9
3048	3049	3050	3051	9
3048	3049	3050	3053	9
3048	3047	3058	3060	9
3048	3047	3058	3059	9
3048	3047	3046	3051	9
3048	3047	3046	3054	9
3050	3049	3056	3057	9
3050	3049	3056	7331	9
3050	3049	3048	3052	9
3050	3051	3046	3054	9
3046	3047	3058	3060	9
3046	3047	3058	3059	9
3046	3047	3048	3052	9
3046	3051	3050	3053	9
3053	3050	3051	3055	9
3054	3046	3051	3055	9
3057	3056	7331	7324	9
3057	3056	7331	7333	9
10225	10226	10227	10234	9
10230	10226	10227	10234	9
10229	10228	10227	10234	9
10231	10228	10227	10234	9
10234	8908	8901	8900	9
10234	8908	8901	8902	9
10227	10226	10225	10236	9
10230	10226	10225	10236	9
10229	10224	10225	10236	9
10232	10224	10225	10236	9
10236	10244	10238	10239	9
10236	10244	10238	10241	9
10227	10234	8908	8901	9
10227	10234	8908	8910	9
10224	10225	10226	10227	9
10224	10229	10228	10227	9
10227	10228	10229	10233	9
10225	10236	10244	10238	9
10225	10236	10244	10245	9
10225	10226	10227	10228	9
10225	10224	10229	10228	9
10225	10224	10229	10233	9
10226	10227	10234	10235	9
10226	10227	10234	8908	9
10226	10227	10228	10229	9
10226	10227	10228	10231	9
10226	10225	10236	10237	9
10226	10225	10236	10244	9
10226	10225	10224	10229	9
10226	10225	10224	10232	9
10228	10227	10234	10235	9
10228	10227	10234	8908	9
10228	10227	10226	10230	9
10228	10229	10224	10232	9
10224	10225	10236	10237	9
10224	10225	10236	10244	9
10224	10225	10226	10230	9
10224	10229	10228	10231	9
10231	10228	10229	10233	9
10232	10224	10229	10233	9
10235	10234	8908	8901	9
10235	10234	8908	8910	9
10237	10236	10244	10238	9
10237	10236	10244	10245	9
2884	2883	2882	2893	9
2887	2883	2882	2893	9
2886	2881	2882	2893	9
2889	2881	2882	2893	9
2882	2883	2884	2891	9
2887	2883	2884	2891	9
2886	2885	2884	2891	9
2888	2885	2884	2891	9
2891	5752	5746	5747	9
2891	5752	5746	5749	9
2882	2883	2884	2885	9
2882	2881	2886	2885	9
2882	2881	2886	2890	9
2884	2891	5752	5746	9
2884	2891	5752	5753	9
2881	2882	2883	2884	9
2881	2886	2885	2884	9
2884	2885	2886	2890	9
2883	2882	2893	2894	9
2883	2882	2893	2895	9
2883	2882	2881	2886	9
2883	2882	2881	2889	9
2883	2884	2891	2892	9
2883	2884	2891	5752	9
2883	2884	2885	2886	9
2883	2884	2885	2888	9
2881	2882	2893	2894	9
2881	2882	2893	2895	9
2881	2882	2883	2887	9
2881	2886	2885	2888	9
2885	2884	2891	2892	9
2885	2884	2891	5752	9
2885	2884	2883	2887	9
2885	2886	2881	2889	9
2889	2881	2886	2890	9
2888	2885	2886	2890	9
2892	2891	5752	5746	9
2892	2891	5752	5753	9
4846	4845	4844	4855	9
4849	4845	4844	4855	9
4848	4843	4844	4855	9
4851	4843	4844	4855	9
4855	4878	4872	4875	9
4855	4878	4872	4873	9
4844	4845	4846	4853	9
4849	4845	4846	4853	9
4848	4847	4846	4853	9
4850	4847	4846	4853	9
4853	4863	4857	4860	9
4853	4863	4857	4858	9
4844	4855	4878	4872	9
4844	4855	4878	4879	9
4844	4845	4846	4847	9
4844	4843	4848	4847	9
4844	4843	4848	4852	9
4846	4853	4863	4857	9
4846	4853	4863	4864	9
4843	4844	4845	4846	9
4843	4848	4847	4846	9
4846	4847	4848	4852	9
4845	4844	4855	4856	9
4845	4844	4855	4878	9
4845	4844	4843	4848	9
4845	4844	4843	4851	9
4845	4846	4853	4854	9
4845	4846	4853	4863	9
4845	4846	4847	4848	9
4845	4846	4847	4850	9
4843	4844	4855	4856	9
4843	4844	4855	4878	9
4843	4844	4845	4849	9
4843	4848	4847	4850	9
4847	4846	4853	4854	9
4847	4846	4853	4863	9
4847	4846	4845	4849	9
4847	4848	4843	4851	9
4851	4843	4848	4852	9
4850	4847	4848	4852	9
4856	4855	4878	4872	9
4856	4855	4878	4879	9
4854	4853	4863	4857	9
4854	4853	4863	4864	9
6304	6303	6302	6313	9
6307	6303	6302	6313	9
6306	6301	6302	6313	9
6309	6301	6302	6313	9
6313	6501	6494	6493	9
6313	6501	6494	6495	9
6302	6303	6304	6311	9
6307	6303	6304	6311	9
6306	6305	6304	6311	9
6308	6305	6304	6311	9
6311	6321	6315	6318	9
6311	6321	6315	6316	9
6302	6313	6501	6494	9
6302	6313	6501	6503	9
6302	6303	6304	6305	9
6302	6301	6306	6305	9
6302	6301	6306	6310	9
6304	6311	6321	6315	9
6304	6311	6321	6322	9
6301	6302	6303	6304	9
6301	6306	6305	6304	9
6304	6305	6306	6310	9
6303	6302	6313	6314	9
6303	6302	6313	6501	9
6303	6302	6301	6306	9
6303	6302	6301	6309	9
6303	6304	6311	6312	9
6303	6304	6311	6321	9
6303	6304	6305	6306	9
6303	6304	6305	6308	9
6301	6302	6313	6314	9
6301	6302	6313	6501	9
6301	6302	6303	6307	9
6301	6306	6305	6308	9
6305	6304	6311	6312	9
6305	6304	6311	6321	9
6305	6304	6303	6307	9
6305	6306	6301	6309	9
6309	6301	6306	6310	9
6308	6305	6306	6310	9
6314	6313	6501	6494	9
6314	6313	6501	6503	9
6312	6311	6321	6315	9
6312	6311	6321	6322	9
12622	12621	12620	12631	9
12625	12621	12620	12631	9
12624	12619	12620	12631	9
12627	12619	12620	12631	9
1819	1816	1822	12631	9
1817	1816	1822	12631	9
12620	12621	12622	12629	9
12625	12621	12622	12629	9
12624	12623	12622	12629	9
12626	12623	12622	12629	9
12629	6341	6334	6333	9
12629	6341	6334	6335	9
1816	1822	12631	12620	9
1823	1822	12631	12620	9
12620	12621	12622	12623	9
12620	12619	12624	12623	9
12620	12619	12624	12628	9
12622	12629	6341	6334	9
12622	12629	6341	6343	9
12619	12620	12621	12622	9
12619	12624	12623	12622	9
12622	12623	12624	12628	9
12621	12620	12631	12632	9
1822	12631	12620	12621	9
12621	12620	12619	12624	9
12621	12620	12619	12627	9
12621	12622	12629	12630	9
12621	12622	12629	6341	9
12621	12622	12623	12624	9
12621	12622	12623	12626	9
12619	12620	12631	12632	9
1822	12631	12620	12619	9
12619	12620	12621	12625	9
12619	12624	12623	12626	9
12623	12622	12629	12630	9
12623	12622	12629	6341	9
12623	12622	12621	12625	9
12623	12624	12619	12627	9
12627	12619	12624	12628	9
12626	12623	12624	12628	9
1816	1822	12631	12632	9
1823	1822	12631	12632	9
12630	12629	6341	6334	9
12630	12629	6341	6343	9
5764	5763	5762	5773	9
5767	5763	5762	5773	9
5766	5761	5762	5773	9
5769	5761	5762	5773	9
5773	9871	9864	9865	9
5773	9871	9864	9863	9
5762	5763	5764	5771	9
5767	5763	5764	5771	9
5766	5765	5764	5771	9
5768	5765	5764	5771	9
5771	5781	5775	5778	9
5771	5781	5775	5776	9
5762	5773	9871	9864	9
5762	5773	9871	9873	9
5762	5763	5764	5765	9
5762	5761	5766	5765	9
5762	5761	5766	5770	9
5764	5771	5781	5775	9
5764	5771	5781	5782	9
5761	5762	5763	5764	9
5761	5766	5765	5764	9
5764	5765	5766	5770	9
5763	5762	5773	5774	9
5763	5762	5773	9871	9
5763	5762	5761	5766	9
5763	5762	5761	5769	9
5763	5764	5771	5772	9
5763	5764	5771	5781	9
5763	5764	5765	5766	9
5763	5764	5765	5768	9
5761	5762	5773	5774	9
5761	5762	5773	9871	9
5761	5762	5763	5767	9
5761	5766	5765	5768	9
5765	5764	5771	5772	9
5765	5764	5771	5781	9
5765	5764	5763	5767	9
5765	5766	5761	5769	9
5769	5761	5766	5770	9
5768	5765	5766	5770	9
5774	5773	9871	9864	9
5774	5773	9871	9873	9
5772	5771	5781	5775	9
5772	5771	5781	5782	9
8477	8476	8475	8486	9
8480	8476	8475	8486	9
8479	8474	8475	8486	9
8482	8474	8475	8486	9
8486	5479	5472	5471	9
8486	5479	5472	5473	9
8475	8476	8477	8484	9
8480	8476	8477	8484	9
8479	8478	8477	8484	9
8481	8478	8477	8484	9
8484	8494	8488	8491	9
8484	8494	8488	8489	9
8475	8486	5479	5472	9
8475	8486	5479	5481	9
8475	8476	8477	8478	9
8475	8474	8479	8478	9
8475	8474	8479	8483	9
8477	8484	8494	8488	9
8477	8484	8494	8495	9
8474	8475	8476	8477	9
8474	8479	8478	8477	9
8477	8478	8479	8483	9
8476	8475	8486	8487	9
8476	8475	8486	5479	9
8476	8475	8474	8479	9
8476	8475	8474	8482	9
8476	8477	8484	8485	9
8476	8477	8484	8494	9
8476	8477	8478	8479	9
8476	8477	8478	8481	9
8474	8475	8486	8487	9
8474	8475	8486	5479	9
8474	8475	8476	8480	9
8474	8479	8478	8481	9
8478	8477	8484	8485	9
8478	8477	8484	8494	9
8478	8477	8476	8480	9
8478	8479	8474	8482	9
8482	8474	8479	8483	9
8481	8478	8479	8483	9
8487	8486	5479	5472	9
8487	8486	5479	5481	9
8485	8484	8494	8488	9
8485	8484	8494	8495	9
1960	1959	1958	1969	9
1963	1959	1958	1969	9
1962	1957	1958	1969	9
1965	1957	1958	1969	9
1958	1959	1960	1967	9
1963	1959	1960	1967	9
1962	1961	1960	1967	9
1964	1961	1960	1967	9
1943	1940	1946	1967	9
1941	1940	1946	1967	9
1958	1959	1960	1961	9
1958	1957	1962	1961	9
1958	1957	1962	1966	9
1940	1946	1967	1960	9
1947	1946	1967	1960	9
1957	1958	1959	1960	9
1957	1962	1961	1960	9
1960	1961	1962	1966	9
1959	1958	1969	1970	9
1959	1958	1969	1971	9
1959	1958	1957	1962	9
1959	1958	1957	1965	9
1959	1960	1967	1968	9
1946	1967	1960	1959	9
1959	1960	1961	1962	9
1959	1960	1961	1964	9
1957	1958	1969	1970	9
1957	1958	1969	1971	9
1957	1958	1959	1963	9
1957	1962	1961	1964	9
1961	1960	1967	1968	9
1946	1967	1960	1961	9
1961	1960	1959	1963	9
1961	1962	1957	1965	9
1965	1957	1962	1966	9
1964	1961	1962	1966	9
1940	1946	1967	1968	9
1947	1946	1967	1968	9
7178	7177	7176	7187	9
7181	7177	7176	7187	9
7180	7175	7176	7187	9
7183	7175	7176	7187	9
7187	6443	6436	6435	9
7187	6443	6436	6437	9
7176	7177	7178	7185	9
7181	7177	7178	7185	9
7180	7179	7178	7185	9
7182	7179	7178	7185	9
7185	7200	7193	7194	9
7185	7200	7193	7192	9
7176	7187	6443	6436	9
7176	7187	6443	6445	9
7176	7177	7178	7179	9
7176	7175	7180	7179	9
7176	7175	7180	7184	9
7178	7185	7200	7193	9
7178	7185	7200	7202	9
7175	7176	7177	7178	9
7175	7180	7179	7178	9
7178	7179	7180	7184	9
7177	7176	7187	7188	9
7177	7176	7187	6443	9
7177	7176	7175	7180	9
7177	7176	7175	7183	9
7177	7178	7185	7186	9
7177	7178	7185	7200	9
7177	7178	7179	7180	9
7177	7178	7179	7182	9
7175	7176	7187	7188	9
7175	7176	7187	6443	9
7175	7176	7177	7181	9
7175	7180	7179	7182	9
7179	7178	7185	7186	9
7179	7178	7185	7200	9
7179	7178	7177	7181	9
7179	7180	7175	7183	9
7183	7175	7180	7184	9
7182	7179	7180	7184	9
7188	7187	6443	6436	9
7188	7187	6443	6445	9
7186	7185	7200	7193	9
7186	7185	7200	7202	9
5428	5427	5426	5437	9
5431	5427	5426	5437	9
5430	5425	5426	5437	9
5433	5425	5426	5437	9
5437	5445	5439	5442	9
5437	5445	5439	5440	9
5426	5427	5428	5435	9
5431	5427	5428	5435	9
5430	5429	5428	5435	9
5432	5429	5428	5435	9
5435	10688	10681	10682	9
5435	10688	10681	10680	9
5426	5437	5445	5439	9
5426	5437	5445	5446	9
5426	5427	5428	5429	9
5426	5425	5430	5429	9
5426	5425	5430	5434	9
5428	5435	10688	10681	9
5428	5435	10688	10690	9
5425	5426	5427	5428	9
5425	5430	5429	5428	9
5428	5429	5430	5434	9
5427	5426	5437	5438	9
5427	5426	5437	5445	9
5427	5426	5425	5430	9
5427	5426	5425	5433	9
5427	5428	5435	5436	9
5427	5428	5435	10688	9
5427	5428	5429	5430	9
5427	5428	5429	5432	9
5425	5426	5437	5438	9
5425	5426	5437	5445	9
5425	5426	5427	5431	9
5425	5430	5429	5432	9
5429	5428	5435	5436	9
5429	5428	5435	10688	9
5429	5428	5427	5431	9
5429	5430	5425	5433	9
5433	5425	5430	5434	9
5432	5429	5430	5434	9
5438	5437	5445	5439	9
5438	5437	5445	5446	9
5436	5435	10688	10681	9
5436	5435	10688	10690	9
12692	12691	12690	12701	9
12695	12691	12690	12701	9
12694	12689	12690	12701	9
12697	12689	12690	12701	9
12701	7171	7164	7163	9
12701	7171	7164	7165	9
12690	12691	12692	12699	9
12695	12691	12692	12699	9
12694	12693	12692	12699	9
12696	12693	12692	12699	9
12699	6531	6521	6524	9
12699	6531	6521	6520	9
12690	12701	7171	7164	9
12690	12701	7171	7173	9
12690	12691	12692	12693	9
12690	12689	12694	12693	9
12690	12689	12694	12698	9
12692	12699	6531	6521	9
12692	12699	6531	6533	9
12689	12690	12691	12692	9
12689	12694	12693	12692	9
12692	12693	12694	12698	9
12691	12690	12701	12702	9
12691	12690	12701	7171	9
12691	12690	12689	12694	9
12691	12690	12689	12697	9
12691	12692	12699	12700	9
12691	12692	12699	6531	9
12691	12692	12693	12694	9
12691	12692	12693	12696	9
12689	12690	12701	12702	9
12689	12690	12701	7171	9
12689	12690	12691	12695	9
12689	12694	12693	12696	9
12693	12692	12699	12700	9
12693	12692	12699	6531	9
12693	12692	12691	12695	9
12693	12694	12689	12697	9
12697	12689	12694	12698	9
12696	12693	12694	12698	9
12702	12701	7171	7164	9
12702	12701	7171	7173	9
12700	12699	6531	6521	9
12700	12699	6531	6533	9
7426	7425	7424	7435	9
7429	7425	7424	7435	9
7428	7423	7424	7435	9
7431	7423	7424	7435	9
7435	9419	9409	9412	9
7435	9419	9409	9408	9
7424	7425	7426	7433	9
7429	7425	7426	7433	9
7428	7427	7426	7433	9
7430	7427	7426	7433	9
7433	7443	7437	7440	9
7433	7443	7437	7438	9
7424	7435	9419	9409	9
7424	7435	9419	9421	9
7424	7425	7426	7427	9
7424	7423	7428	7427	9
7424	7423	7428	7432	9
7426	7433	7443	7437	9
7426	7433	7443	7444	9
7423	7424	7425	7426	9
7423	7428	7427	7426	9
7426	7427	7428	7432	9
7425	7424	7435	7436	9
7425	7424	7435	9419	9
7425	7424	7423	7428	9
7425	7424	7423	7431	9
7425	7426	7433	7434	9
7425	7426	7433	7443	9
7425	7426	7427	7428	9
7425	7426	7427	7430	9
7423	7424	7435	7436	9
7423	7424	7435	9419	9
7423	7424	7425	7429	9
7423	7428	7427	7430	9
7427	7426	7433	7434	9
7427	7426	7433	7443	9
7427	7426	7425	7429	9
7427	7428	7423	7431	9
7431	7423	7428	7432	9
7430	7427	7428	7432	9
7436	7435	9419	9409	9
7436	7435	9419	9421	9
7434	7433	7443	7437	9
7434	7433	7443	7444	9
10198	10197	10196	10207	9
10201	10197	10196	10207	9
10200	10195	10196	10207	9
10203	10195	10196	10207	9
1323	1324	1331	10207	9
1325	1324	1331	10207	9
10196	10197	10198	10205	9
10201	10197	10198	10205	9
10200	10199	10198	10205	9
10202	10199	10198	10205	9
10205	10215	10209	10210	9
10205	10215	10209	10212	9
1324	1331	10207	10196	9
1333	1331	10207	10196	9
10196	10197	10198	10199	9
10196	10195	10200	10199	9
10196	10195	10200	10204	9
10198	10205	10215	10209	9
10198	10205	10215	10216	9
10195	10196	10197	10198	9
10195	10200	10199	10198	9
10198	10199	10200	10204	9
10197	10196	10207	10208	9
1331	10207	10196	10197	9
10197	10196	10195	10200	9
10197	10196	10195	10203	9
10197	10198	10205	10206	9
10197	10198	10205	10215	9
10197	10198	10199	10200	9
10197	10198	10199	10202	9
10195	10196	10207	10208	9
1331	10207	10196	10195	9
10195	10196	10197	10201	9
10195	10200	10199	10202	9
10199	10198	10205	10206	9
10199	10198	10205	10215	9
10199	10198	10197	10201	9
10199	10200	10195	10203	9
10203	10195	10200	10204	9
10202	10199	10200	10204	9
1324	1331	10207	10208	9
1333	1331	10207	10208	9
10206	10205	10215	10209	9
10206	10205	10215	10216	9
11978	11977	11976	11987	9
11981	11977	11976	11987	9
11980	11975	11976	11987	9
11983	11975	11976	11987	9
11987	5233	5223	5226	9
11987	5233	5223	5222	9
11976	11977	11978	11985	9
11981	11977	11978	11985	9
11980	11979	11978	11985	9
11982	11979	11978	11985	9
2304	2303	2310	11985	9
2302	2303	2310	11985	9
11976	11987	5233	5223	9
11976	11987	5233	5235	9
11976	11977	11978	11979	9
11976	11975	11980	11979	9
11976	11975	11980	11984	9
2303	2310	11985	11978	9
2312	2310	11985	11978	9
11975	11976	11977	11978	9
11975	11980	11979	11978	9
11978	11979	11980	11984	9
11977	11976	11987	11988	9
11977	11976	11987	5233	9
11977	11976	11975	11980	9
11977	11976	11975	11983	9
11977	11978	11985	11986	9
2310	11985	11978	11977	9
11977	11978	11979	11980	9
11977	11978	11979	11982	9
11975	11976	11987	11988	9
11975	11976	11987	5233	9
11975	11976	11977	11981	9
11975	11980	11979	11982	9
11979	11978	11985	11986	9
2310	11985	11978	11979	9
11979	11978	11977	11981	9
11979	11980	11975	11983	9
11983	11975	11980	11984	9
11982	11979	11980	11984	9
11988	11987	5233	5223	9
11988	11987	5233	5235	9
2303	2310	11985	11986	9
2312	2310	11985	11986	9
8667	8666	8665	8676	9
8670	8666	8665	8676	9
8669	8664	8665	8676	9
8672	8664	8665	8676	9
8676	8684	8678	8679	9
8676	8684	8678	8681	9
8665	8666	8667	8674	9
8670	8666	8667	8674	9
8669	8668	8667	8674	9
8671	8668	8667	8674	9
8674	9361	9351	9350	9
8674	9361	9351	9354	9
8665	8676	8684	8678	9
8665	8676	8684	8685	9
8665	8666	8667	8668	9
8665	8664	8669	8668	9
8665	8664	8669	8673	9
8667	8674	9361	9351	9
8667	8674	9361	9363	9
8664	8665	8666	8667	9
8664	8669	8668	8667	9
8667	8668	8669	8673	9
8666	8665	8676	8677	9
8666	8665	8676	8684	9
8666	8665	8664	8669	9
8666	8665	8664	8672	9
8666	8667	8674	8675	9
8666	8667	8674	9361	9
8666	8667	8668	8669	9
8666	8667	8668	8671	9
8664	8665	8676	8677	9
8664	8665	8676	8684	9
8664	8665	8666	8670	9
8664	8669	8668	8671	9
8668	8667	8674	8675	9
8668	8667	8674	9361	9
8668	8667	8666	8670	9
8668	8669	8664	8672	9
8672	8664	8669	8673	9
8671	8668	8669	8673	9
8677	8676	8684	8678	9
8677	8676	8684	8685	9
8675	8674	9361	9351	9
8675	8674	9361	9363	9
6187	6186	6185	6196	9
6190	6186	6185	6196	9
6189	6184	6185	6196	9
6192	6184	6185	6196	9
6196	7414	7408	7411	9
6196	7414	7408	7409	9
6185	6186	6187	6194	9
6190	6186	6187	6194	9
6189	6188	6187	6194	9
6191	6188	6187	6194	9
6194	6204	6198	6199	9
6194	6204	6198	6201	9
6185	6196	7414	7408	9
6185	6196	7414	7415	9
6185	6186	6187	6188	9
6185	6184	6189	6188	9
6185	6184	6189	6193	9
6187	6194	6204	6198	9
6187	6194	6204	6205	9
6184	6185	6186	6187	9
6184	6189	6188	6187	9
6187	6188	6189	6193	9
6186	6185	6196	6197	9
6186	6185	6196	7414	9
6186	6185	6184	6189	9
6186	6185	6184	6192	9
6186	6187	6194	6195	9
6186	6187	6194	6204	9
6186	6187	6188	6189	9
6186	6187	6188	6191	9
6184	6185	6196	6197	9
6184	6185	6196	7414	9
6184	6185	6186	6190	9
6184	6189	6188	6191	9
6188	6187	6194	6195	9
6188	6187	6194	6204	9
6188	6187	6186	6190	9
6188	6189	6184	6192	9
6192	6184	6189	6193	9
6191	6188	6189	6193	9
6197	6196	7414	7408	9
6197	6196	7414	7415	9
6195	6194	6204	6198	9
6195	6194	6204	6205	9
11906	11907	11908	11915	9
11911	11907	11908	11915	9
11910	11909	11908	11915	9
11912	11909	11908	11915	9
11915	5117	5107	5106	9
11915	5117	5107	5110	9
11908	11907	11906	11917	9
11911	11907	11906	11917	9
11910	11905	11906	11917	9
11913	11905	11906	11917	9
11917	10573	10563	10562	9
11917	10573	10563	10566	9
11908	11915	5117	5107	9
11908	11915	5117	5119	9
11908	11907	11906	11905	9
11908	11909	11910	11905	9
11908	11909	11910	11914	9
11906	11917	10573	10563	9
11906	11917	10573	10575	9
11909	11908	11907	11906	9
11909	11910	11905	11906	9
11906	11905	11910	11914	9
11907	11908	11915	11916	9
11907	11908	11915	5117	9
11907	11908	11909	11910	9
11907	11908	11909	11912	9
11907	11906	11917	11918	9
11907	11906	11917	10573	9
11907	11906	11905	11910	9
11907	11906	11905	11913	9
11909	11908	11915	11916	9
11909	11908	11915	5117	9
11909	11908	11907	11911	9
11909	11910	11905	11913	9
11905	11906	11917	11918	9
11905	11906	11917	10573	9
11905	11906	11907	11911	9
11905	11910	11909	11912	9
11912	11909	11910	11914	9
11913	11905	11910	11914	9
11916	11915	5117	5107	9
11916	11915	5117	5119	9
11918	11917	10573	10563	9
11918	11917	10573	10575	9
7018	7017	7016	7027	9
7021	7017	7016	7027	9
7020	7015	7016	7027	9
7023	7015	7016	7027	9
7027	7035	7029	7032	9
7027	7035	7029	7030	9
7016	7017	7018	7025	9
7021	7017	7018	7025	9
7020	7019	7018	7025	9
7022	7019	7018	7025	9
7025	5072	5065	5066	9
7025	5072	5065	5064	9
7016	7027	7035	7029	9
7016	7027	7035	7036	9
7016	7017	7018	7019	9
7016	7015	7020	7019	9
7016	7015	7020	7024	9
7018	7025	5072	5065	9
7018	7025	5072	5074	9
7015	7016	7017	7018	9
7015	7020	7019	7018	9
7018	7019	7020	7024	9
7017	7016	7027	7028	9
7017	7016	7027	7035	9
7017	7016	7015	7020	9
7017	7016	7015	7023	9
7017	7018	7025	7026	9
7017	7018	7025	5072	9
7017	7018	7019	7020	9
7017	7018	7019	7022	9
7015	7016	7027	7028	9
7015	7016	7027	7035	9
7015	7016	7017	7021	9
7015	7020	7019	7022	9
7019	7018	7025	7026	9
7019	7018	7025	5072	9
7019	7018	7017	7021	9
7019	7020	7015	7023	9
7023	7015	7020	7024	9
7022	7019	7020	7024	9
7028	7027	7035	7029	9
7028	7027	7035	7036	9
7026	7025	5072	5065	9
7026	7025	5072	5074	9
4265	4264	4263	4274	9
4268	4264	4263	4274	9
4267	4262	4263	4274	9
4270	4262	4263	4274	9
4274	4282	4276	4277	9
4274	4282	4276	4279	9
4263	4264	4265	4272	9
4268	4264	4265	4272	9
4267	4266	4265	4272	9
4269	4266	4265	4272	9
4272	7361	7351	7350	9
4272	7361	7351	7354	9
4263	4274	4282	4276	9
4263	4274	4282	4283	9
4263	4264	4265	4266	9
4263	4262	4267	4266	9
4263	4262	4267	4271	9
4265	4272	7361	7351	9
4265	4272	7361	7363	9
4262	4263	4264	4265	9
4262	4267	4266	4265	9
4265	4266	4267	4271	9
4264	4263	4274	4275	9
4264	4263	4274	4282	9
4264	4263	4262	4267	9
4264	4263	4262	4270	9
4264	4265	4272	4273	9
4264	4265	4272	7361	9
4264	4265	4266	4267	9
4264	4265	4266	4269	9
4262	4263	4274	4275	9
4262	4263	4274	4282	9
4262	4263	4264	4268	9
4262	4267	4266	4269	9
4266	4265	4272	4273	9
4266	4265	4272	7361	9
4266	4265	4264	4268	9
4266	4267	4262	4270	9
4270	4262	4267	4271	9
4269	4266	4267	4271	9
4275	4274	4282	4276	9
4275	4274	4282	4283	9
4273	4272	7361	7351	9
4273	4272	7361	7363	9
8886	8885	8884	8895	9
8889	8885	8884	8895	9
8888	8883	8884	8895	9
8891	8883	8884	8895	9
8895	8903	8897	8900	9
8895	8903	8897	8898	9
8884	8885	8886	8893	9
8889	8885	8886	8893	9
8888	8887	8886	8893	9
8890	8887	8886	8893	9
8893	9647	9641	9644	9
8893	9647	9641	9642	9
8884	8895	8903	8897	9
8884	8895	8903	8904	9
8884	8885	8886	8887	9
8884	8883	8888	8887	9
8884	8883	8888	8892	9
8886	8893	9647	9641	9
8886	8893	9647	9648	9
8883	8884	8885	8886	9
8883	8888	8887	8886	9
8886	8887	8888	8892	9
8885	8884	8895	8896	9
8885	8884	8895	8903	9
8885	8884	8883	8888	9
8885	8884	8883	8891	9
8885	8886	8893	8894	9
8885	8886	8893	9647	9
8885	8886	8887	8888	9
8885	8886	8887	8890	9
8883	8884	8895	8896	9
8883	8884	8895	8903	9
8883	8884	8885	8889	9
8883	8888	8887	8890	9
8887	8886	8893	8894	9
8887	8886	8893	9647	9
8887	8886	8885	8889	9
8887	8888	8883	8891	9
8891	8883	8888	8892	9
8890	8887	8888	8892	9
8896	8895	8903	8897	9
8896	8895	8903	8904	9
8894	8893	9647	9641	9
8894	8893	9647	9648	9
6537	6536	6535	6546	9
6540	6536	6535	6546	9
6539	6534	6535	6546	9
6542	6534	6535	6546	9
6546	6560	6550	6549	9
6546	6560	6550	6553	9
6535	6536	6537	6544	9
6540	6536	6537	6544	9
6539	6538	6537	6544	9
6541	6538	6537	6544	9
6544	9769	9762	9763	9
6544	9769	9762	9761	9
6535	6546	6560	6550	9
6535	6546	6560	6562	9
6535	6536	6537	6538	9
6535	6534	6539	6538	9
6535	6534	6539	6543	9
6537	6544	9769	9762	9
6537	6544	9769	9771	9
6534	6535	6536	6537	9
6534	6539	6538	6537	9
6537	6538	6539	6543	9
6536	6535	6546	6547	9
6536	6535	6546	6560	9
6536	6535	6534	6539	9
6536	6535	6534	6542	9
6536	6537	6544	6545	9
6536	6537	6544	9769	9
6536	6537	6538	6539	9
6536	6537	6538	6541	9
6534	6535	6546	6547	9
6534	6535	6546	6560	9
6534	6535	6536	6540	9
6534	6539	6538	6541	9
6538	6537	6544	6545	9
6538	6537	6544	9769	9
6538	6537	6536	6540	9
6538	6539	6534	6542	9
6542	6534	6539	6543	9
6541	6538	6539	6543	9
6547	6546	6560	6550	9
6547	6546	6560	6562	9
6545	6544	9769	9762	9
6545	6544	9769	9771	9
10140	10139	10138	10149	9
10143	10139	10138	10149	9
10142	10137	10138	10149	9
10145	10137	10138	10149	9
10149	5523	5516	5517	9
10149	5523	5516	5515	9
10138	10139	10140	10147	9
10143	10139	10140	10147	9
10142	10141	10140	10147	9
10144	10141	10140	10147	9
10147	10162	10155	10156	9
10147	10162	10155	10154	9
10138	10149	5523	5516	9
10138	10149	5523	5525	9
10138	10139	10140	10141	9
10138	10137	10142	10141	9
10138	10137	10142	10146	9
10140	10147	10162	10155	9
10140	10147	10162	10164	9
10137	10138	10139	10140	9
10137	10142	10141	10140	9
10140	10141	10142	10146	9
10139	10138	10149	10150	9
10139	10138	10149	5523	9
10139	10138	10137	10142	9
10139	10138	10137	10145	9
10139	10140	10147	10148	9
10139	10140	10147	10162	9
10139	10140	10141	10142	9
10139	10140	10141	10144	9
10137	10138	10149	10150	9
10137	10138	10149	5523	9
10137	10138	10139	10143	9
10137	10142	10141	10144	9
10141	10140	10147	10148	9
10141	10140	10147	10162	9
10141	10140	10139	10143	9
10141	10142	10137	10145	9
10145	10137	10142	10146	9
10144	10141	10142	10146	9
10150	10149	5523	5516	9
10150	10149	5523	5525	9
10148	10147	10162	10155	9
10148	10147	10162	10164	9
12998	12999	13000	13007	9
13003	12999	13000	13007	9
13002	13001	13000	13007	9
13004	13001	13000	13007	9
1416	1417	1424	13007	9
1418	1417	1424	13007	9
13000	12999	12998	13009	9
13003	12999	12998	13009	9
13002	12997	12998	13009	9
13005	12997	12998	13009	9
13009	7448	7441	7440	9
13009	7448	7441	7442	9
1417	1424	13007	13000	9
1426	1424	13007	13000	9
12997	12998	12999	13000	9
12997	13002	13001	13000	9
13000	13001	13002	13006	9
12998	13009	7448	7441	9
12998	13009	7448	7450	9
12998	12999	13000	13001	9
12998	12997	13002	13001	9
12998	12997	13002	13006	9
12999	13000	13007	13008	9
1424	13007	13000	12999	9
12999	13000	13001	13002	9
12999	13000	13001	13004	9
12999	12998	13009	13010	9
12999	12998	13009	7448	9
12999	12998	12997	13002	9
12999	12998	12997	13005	9
13001	13000	13007	13008	9
1424	13007	13000	13001	9
13001	13000	12999	13003	9
13001	13002	12997	13005	9
12997	12998	13009	13010	9
12997	12998	13009	7448	9
12997	12998	12999	13003	9
12997	13002	13001	13004	9
13004	13001	13002	13006	9
13005	12997	13002	13006	9
1417	1424	13007	13008	9
1426	1424	13007	13008	9
13010	13009	7448	7441	9
13010	13009	7448	7450	9
8930	8929	8928	8939	9
8933	8929	8928	8939	9
8932	8927	8928	8939	9
8935	8927	8928	8939	9
8939	10288	10282	10285	9
8939	10288	10282	10283	9
8928	8929	8930	8937	9
8933	8929	8930	8937	9
8932	8931	8930	8937	9
8934	8931	8930	8937	9
8937	8947	8941	8944	9
8937	8947	8941	8942	9
8928	8939	10288	10282	9
8928	8939	10288	10289	9
8928	8929	8930	8931	9
8928	8927	8932	8931	9
8928	8927	8932	8936	9
8930	8937	8947	8941	9
8930	8937	8947	8948	9
8927	8928	8929	8930	9
8927	8932	8931	8930	9
8930	8931	8932	8936	9
8929	8928	8939	8940	9
8929	8928	8939	10288	9
8929	8928	8927	8932	9
8929	8928	8927	8935	9
8929	8930	8937	8938	9
8929	8930	8937	8947	9
8929	8930	8931	8932	9
8929	8930	8931	8934	9
8927	8928	8939	8940	9
8927	8928	8939	10288	9
8927	8928	8929	8933	9
8927	8932	8931	8934	9
8931	8930	8937	8938	9
8931	8930	8937	8947	9
8931	8930	8929	8933	9
8931	8932	8927	8935	9
8935	8927	8932	8936	9
8934	8931	8932	8936	9
8940	8939	10288	10282	9
8940	8939	10288	10289	9
8938	8937	8947	8941	9
8938	8937	8947	8948	9
9162	9163	9164	9171	9
9167	9163	9164	9171	9
9166	9165	9164	9171	9
9168	9165	9164	9171	9
9171	10220	10213	10214	9
9171	10220	10213	10212	9
9164	9163	9162	9173	9
9167	9163	9162	9173	9
9166	9161	9162	9173	9
9169	9161	9162	9173	9
9173	9181	9175	9178	9
9173	9181	9175	9176	9
9164	9171	10220	10213	9
9164	9171	10220	10222	9
9161	9162	9163	9164	9
9161	9166	9165	9164	9
9164	9165	9166	9170	9
9162	9173	9181	9175	9
9162	9173	9181	9182	9
9162	9163	9164	9165	9
9162	9161	9166	9165	9
9162	9161	9166	9170	9
9163	9164	9171	9172	9
9163	9164	9171	10220	9
9163	9164	9165	9166	9
9163	9164	9165	9168	9
9163	9162	9173	9174	9
9163	9162	9173	9181	9
9163	9162	9161	9166	9
9163	9162	9161	9169	9
9165	9164	9171	9172	9
9165	9164	9171	10220	9
9165	9164	9163	9167	9
9165	9166	9161	9169	9
9161	9162	9173	9174	9
9161	9162	9173	9181	9
9161	9162	9163	9167	9
9161	9166	9165	9168	9
9168	9165	9166	9170	9
9169	9161	9166	9170	9
9172	9171	10220	10213	9
9172	9171	10220	10222	9
9174	9173	9181	9175	9
9174	9173	9181	9182	9
13462	13461	13460	13471	9
13465	13461	13460	13471	9
13464	13459	13460	13471	9
13467	13459	13460	13471	9
13471	8822	8812	8811	9
13471	8822	8812	8815	9
13460	13461	13462	13469	9
13465	13461	13462	13469	9
13464	13463	13462	13469	9
13466	13463	13462	13469	9
1011	1010	1017	13469	9
1009	1010	1017	13469	9
13460	13471	8822	8812	9
13460	13471	8822	8824	9
13460	13461	13462	13463	9
13460	13459	13464	13463	9
13460	13459	13464	13468	9
1010	1017	13469	13462	9
1019	1017	13469	13462	9
13459	13460	13461	13462	9
13459	13464	13463	13462	9
13462	13463	13464	13468	9
13461	13460	13471	13472	9
13461	13460	13471	8822	9
13461	13460	13459	13464	9
13461	13460	13459	13467	9
13461	13462	13469	13470	9
1017	13469	13462	13461	9
13461	13462	13463	13464	9
13461	13462	13463	13466	9
13459	13460	13471	13472	9
13459	13460	13471	8822	9
13459	13460	13461	13465	9
13459	13464	13463	13466	9
13463	13462	13469	13470	9
1017	13469	13462	13463	9
13463	13462	13461	13465	9
13463	13464	13459	13467	9
13467	13459	13464	13468	9
13466	13463	13464	13468	9
13472	13471	8822	8812	9
13472	13471	8822	8824	9
1010	1017	13469	13470	9
1019	1017	13469	13470	9
3527	3528	3529	3536	9
3532	3528	3529	3536	9
3531	3530	3529	3536	9
3533	3530	3529	3536	9
3536	9784	9777	9778	9
3536	9784	9777	9776	9
3529	3528	3527	3538	9
3532	3528	3527	3538	9
3531	3526	3527	3538	9
3534	3526	3527	3538	9
3529	3536	9784	9777	9
3529	3536	9784	9786	9
3526	3527	3528	3529	9
3526	3531	3530	3529	9
3529	3530	3531	3535	9
3527	3528	3529	3530	9
3527	3526	3531	3530	9
3527	3526	3531	3535	9
3528	3529	3536	3537	9
3528	3529	3536	9784	9
3528	3529	3530	3531	9
3528	3529	3530	3533	9
3528	3527	3538	3540	9
3528	3527	3538	3539	9
3528	3527	3526	3531	9
3528	3527	3526	3534	9
3530	3529	3536	3537	9
3530	3529	3536	9784	9
3530	3529	3528	3532	9
3530	3531	3526	3534	9
3526	3527	3538	3540	9
3526	3527	3538	3539	9
3526	3527	3528	3532	9
3526	3531	3530	3533	9
3533	3530	3531	3535	9
3534	3526	3531	3535	9
3537	3536	9784	9777	9
3537	3536	9784	9786	9
12594	12593	12592	12603	9
12597	12593	12592	12603	9
12596	12591	12592	12603	9
12599	12591	12592	12603	9
12603	9099	9092	9093	9
12603	9099	9092	9091	9
12592	12593	12594	12601	9
12597	12593	12594	12601	9
12596	12595	12594	12601	9
12598	12595	12594	12601	9
12601	6327	6317	6320	9
12601	6327	6317	6316	9
12592	12603	9099	9092	9
12592	12603	9099	9101	9
12592	12593	12594	12595	9
12592	12591	12596	12595	9
12592	12591	12596	12600	9
12594	12601	6327	6317	9
12594	12601	6327	6329	9
12591	12592	12593	12594	9
12591	12596	12595	12594	9
12594	12595	12596	12600	9
12593	12592	12603	12604	9
12593	12592	12603	9099	9
12593	12592	12591	12596	9
12593	12592	12591	12599	9
12593	12594	12601	12602	9
12593	12594	12601	6327	9
12593	12594	12595	12596	9
12593	12594	12595	12598	9
12591	12592	12603	12604	9
12591	12592	12603	9099	9
12591	12592	12593	12597	9
12591	12596	12595	12598	9
12595	12594	12601	12602	9
12595	12594	12601	6327	9
12595	12594	12593	12597	9
12595	12596	12591	12599	9
12599	12591	12596	12600	9
12598	12595	12596	12600	9
12604	12603	9099	9092	9
12604	12603	9099	9101	9
12602	12601	6327	6317	9
12602	12601	6327	6329	9
13322	13321	13320	13331	9
13325	13321	13320	13331	9
13324	13319	13320	13331	9
13327	13319	13320	13331	9
13331	10322	10315	10316	9
13331	10322	10315	10314	9
13320	13321	13322	13329	9
13325	13321	13322	13329	9
13324	13323	13322	13329	9
13326	13323	13322	13329	9
13329	8279	8272	8273	9
13329	8279	8272	8271	9
13320	13331	10322	10315	9
13320	13331	10322	10324	9
13320	13321	13322	13323	9
13320	13319	13324	13323	9
13320	13319	13324	13328	9
13322	13329	8279	8272	9
13322	13329	8279	8281	9
13319	13320	13321	13322	9
13319	13324	13323	13322	9
13322	13323	13324	13328	9
13321	13320	13331	13332	9
13321	13320	13331	10322	9
13321	13320	13319	13324	9
13321	13320	13319	13327	9
13321	13322	13329	13330	9
13321	13322	13329	8279	9
13321	13322	13323	13324	9
13321	13322	13323	13326	9
13319	13320	13331	13332	9
13319	13320	13331	10322	9
13319	13320	13321	13325	9
13319	13324	13323	13326	9
13323	13322	13329	13330	9
13323	13322	13329	8279	9
13323	13322	13321	13325	9
13323	13324	13319	13327	9
13327	13319	13324	13328	9
13326	13323	13324	13328	9
13332	13331	10322	10315	9
13332	13331	10322	10324	9
13330	13329	8279	8272	9
13330	13329	8279	8281	9
7877	7876	7875	7886	9
7880	7876	7875	7886	9
7879	7874	7875	7886	9
7882	7874	7875	7886	9
7886	7894	7888	7889	9
7886	7894	7888	7891	9
7875	7876	7877	7884	9
7880	7876	7877	7884	9
7879	7878	7877	7884	9
7881	7878	7877	7884	9
7884	6385	6378	6379	9
7884	6385	6378	6377	9
7875	7886	7894	7888	9
7875	7886	7894	7895	9
7875	7876	7877	7878	9
7875	7874	7879	7878	9
7875	7874	7879	7883	9
7877	7884	6385	6378	9
7877	7884	6385	6387	9
7874	7875	7876	7877	9
7874	7879	7878	7877	9
7877	7878	7879	7883	9
7876	7875	7886	7887	9
7876	7875	7886	7894	9
7876	7875	7874	7879	9
7876	7875	7874	7882	9
7876	7877	7884	7885	9
7876	7877	7884	6385	9
7876	7877	7878	7879	9
7876	7877	7878	7881	9
7874	7875	7886	7887	9
7874	7875	7886	7894	9
7874	7875	7876	7880	9
7874	7879	7878	7881	9
7878	7877	7884	7885	9
7878	7877	7884	6385	9
7878	7877	7876	7880	9
7878	7879	7874	7882	9
7882	7874	7879	7883	9
7881	7878	7879	7883	9
7887	7886	7894	7888	9
7887	7886	7894	7895	9
7885	7884	6385	6378	9
7885	7884	6385	6387	9
12216	12215	12214	12225	9
12219	12215	12214	12225	9
12218	12213	12214	12225	9
12221	12213	12214	12225	9
12225	5918	5908	5907	9
12225	5918	5908	5911	9
12214	12215	12216	12223	9
12219	12215	12216	12223	9
12218	12217	12216	12223	9
12220	12217	12216	12223	9
12223	5656	5646	5649	9
12223	5656	5646	5645	9
12214	12225	5918	5908	9
12214	12225	5918	5920	9
12214	12215	12216	12217	9
12214	12213	12218	12217	9
12214	12213	12218	12222	9
12216	12223	5656	5646	9
12216	12223	5656	5658	9
12213	12214	12215	12216	9
12213	12218	12217	12216	9
12216	12217	12218	12222	9
12215	12214	12225	12226	9
12215	12214	12225	5918	9
12215	12214	12213	12218	9
12215	12214	12213	12221	9
12215	12216	12223	12224	9
12215	12216	12223	5656	9
12215	12216	12217	12218	9
12215	12216	12217	12220	9
12213	12214	12225	12226	9
12213	12214	12225	5918	9
12213	12214	12215	12219	9
12213	12218	12217	12220	9
12217	12216	12223	12224	9
12217	12216	12223	5656	9
12217	12216	12215	12219	9
12217	12218	12213	12221	9
12221	12213	12218	12222	9
12220	12217	12218	12222	9
12226	12225	5918	5908	9
12226	12225	5918	5920	9
12224	12223	5656	5646	9
12224	12223	5656	5658	9
11474	11473	11472	11483	9
11477	11473	11472	11483	9
11476	11471	11472	11483	9
11479	11471	11472	11483	9
11483	7012	7002	7005	9
11483	7012	7002	7001	9
11472	11473	11474	11481	9
11477	11473	11474	11481	9
11476	11475	11474	11481	9
11478	11475	11474	11481	9
11481	4302	4295	4294	9
11481	4302	4295	4296	9
11472	11483	7012	7002	9
11472	11483	7012	7014	9
11472	11473	11474	11475	9
11472	11471	11476	11475	9
11472	11471	11476	11480	9
11474	11481	4302	4295	9
11474	11481	4302	4304	9
11471	11472	11473	11474	9
11471	11476	11475	11474	9
11474	11475	11476	11480	9
11473	11472	11483	11484	9
11473	11472	11483	7012	9
11473	11472	11471	11476	9
11473	11472	11471	11479	9
11473	11474	11481	11482	9
11473	11474	11481	4302	9
11473	11474	11475	11476	9
11473	11474	11475	11478	9
11471	11472	11483	11484	9
11471	11472	11483	7012	9
11471	11472	11473	11477	9
11471	11476	11475	11478	9
11475	11474	11481	11482	9
11475	11474	11481	4302	9
11475	11474	11473	11477	9
11475	11476	11471	11479	9
11479	11471	11476	11480	9
11478	11475	11476	11480	9
11484	11483	7012	7002	9
11484	11483	7012	7014	9
11482	11481	4302	4295	9
11482	11481	4302	4304	9
13378	13377	13376	13387	9
13381	13377	13376	13387	9
13380	13375	13376	13387	9
13383	13375	13376	13387	9
13387	8398	8388	8391	9
13387	8398	8388	8387	9
13376	13377	13378	13385	9
13381	13377	13378	13385	9
13380	13379	13378	13385	9
13382	13379	13378	13385	9
484	483	490	13385	9
482	483	490	13385	9
13376	13387	8398	8388	9
13376	13387	8398	8400	9
13376	13377	13378	13379	9
13376	13375	13380	13379	9
13376	13375	13380	13384	9
483	490	13385	13378	9
492	490	13385	13378	9
13375	13376	13377	13378	9
13375	13380	13379	13378	9
13378	13379	13380	13384	9
13377	13376	13387	13388	9
13377	13376	13387	8398	9
13377	13376	13375	13380	9
13377	13376	13375	13383	9
13377	13378	13385	13386	9
490	13385	13378	13377	9
13377	13378	13379	13380	9
13377	13378	13379	13382	9
13375	13376	13387	13388	9
13375	13376	13387	8398	9
13375	13376	13377	13381	9
13375	13380	13379	13382	9
13379	13378	13385	13386	9
490	13385	13378	13379	9
13379	13378	13377	13381	9
13379	13380	13375	13383	9
13383	13375	13380	13384	9
13382	13379	13380	13384	9
13388	13387	8398	8388	9
13388	13387	8398	8400	9
483	490	13385	13386	9
492	490	13385	13386	9
4817	4816	4815	4826	9
4820	4816	4815	4826	9
4819	4814	4815	4826	9
4822	4814	4815	4826	9
2269	2268	2274	4826	9
2271	2268	2274	4826	9
4815	4816	4817	4824	9
4820	4816	4817	4824	9
4819	4818	4817	4824	9
4821	4818	4817	4824	9
4824	4834	4828	4831	9
4824	4834	4828	4829	9
2268	2274	4826	4815	9
2275	2274	4826	4815	9
4815	4816	4817	4818	9
4815	4814	4819	4818	9
4815	4814	4819	4823	9
4817	4824	4834	4828	9
4817	4824	4834	4835	9
4814	4815	4816	4817	9
4814	4819	4818	4817	9
4817	4818	4819	4823	9
4816	4815	4826	4827	9
2274	4826	4815	4816	9
4816	4815	4814	4819	9
4816	4815	4814	4822	9
4816	4817	4824	4825	9
4816	4817	4824	4834	9
4816	4817	4818	4819	9
4816	4817	4818	4821	9
4814	4815	4826	4827	9
2274	4826	4815	4814	9
4814	4815	4816	4820	9
4814	4819	4818	4821	9
4818	4817	4824	4825	9
4818	4817	4824	4834	9
4818	4817	4816	4820	9
4818	4819	4814	4822	9
4822	4814	4819	4823	9
4821	4818	4819	4823	9
2268	2274	4826	4827	9
2275	2274	4826	4827	9
4825	4824	4834	4828	9
4825	4824	4834	4835	9
185	184	183	194	9
188	184	183	194	9
187	182	183	194	9
190	182	183	194	9
170	171	173	194	9
172	171	173	194	9
183	184	185	192	9
188	184	185	192	9
187	186	185	192	9
189	186	185	192	9
192	6342	6332	6335	9
192	6342	6332	6331	9
171	173	194	183	9
174	173	194	183	9
183	184	185	186	9
183	182	187	186	9
183	182	187	191	9
185	192	6342	6332	9
185	192	6342	6344	9
182	183	184	185	9
182	187	186	185	9
185	186	187	191	9
184	183	194	195	9
173	194	183	184	9
184	183	182	187	9
184	183	182	190	9
184	185	192	193	9
184	185	192	6342	9
184	185	186	187	9
184	185	186	189	9
182	183	194	195	9
173	194	183	182	9
182	183	184	188	9
182	187	186	189	9
186	185	192	193	9
186	185	192	6342	9
186	185	184	188	9
186	187	182	190	9
190	182	187	191	9
189	186	187	191	9
171	173	194	195	9
174	173	194	195	9
193	192	6342	6332	9
193	192	6342	6344	9
5457	5456	5455	5466	9
5460	5456	5455	5466	9
5459	5454	5455	5466	9
5462	5454	5455	5466	9
5466	5474	5468	5471	9
5466	5474	5468	5469	9
5455	5456	5457	5464	9
5460	5456	5457	5464	9
5459	5458	5457	5464	9
5461	5458	5457	5464	9
5464	9741	9731	9730	9
5464	9741	9731	9734	9
5455	5466	5474	5468	9
5455	5466	5474	5475	9
5455	5456	5457	5458	9
5455	5454	5459	5458	9
5455	5454	5459	5463	9
5457	5464	9741	9731	9
5457	5464	9741	9743	9
5454	5455	5456	5457	9
5454	5459	5458	5457	9
5457	5458	5459	5463	9
5456	5455	5466	5467	9
5456	5455	5466	5474	9
5456	5455	5454	5459	9
5456	5455	5454	5462	9
5456	5457	5464	5465	9
5456	5457	5464	9741	9
5456	5457	5458	5459	9
5456	5457	5458	5461	9
5454	5455	5466	5467	9
5454	5455	5466	5474	9
5454	5455	5456	5460	9
5454	5459	5458	5461	9
5458	5457	5464	5465	9
5458	5457	5464	9741	9
5458	5457	5456	5460	9
5458	5459	5454	5462	9
5462	5454	5459	5463	9
5461	5458	5459	5463	9
5467	5466	5474	5468	9
5467	5466	5474	5475	9
5465	5464	9741	9731	9
5465	5464	9741	9743	9
6216	6215	6214	6225	9
6219	6215	6214	6225	9
6218	6213	6214	6225	9
6221	6213	6214	6225	9
6225	11025	11018	11017	9
6225	11025	11018	11019	9
6214	6215	6216	6223	9
6219	6215	6216	6223	9
6218	6217	6216	6223	9
6220	6217	6216	6223	9
6223	6233	6227	6228	9
6223	6233	6227	6230	9
6214	6225	11025	11018	9
6214	6225	11025	11027	9
6214	6215	6216	6217	9
6214	6213	6218	6217	9
6214	6213	6218	6222	9
6216	6223	6233	6227	9
6216	6223	6233	6234	9
6213	6214	6215	6216	9
6213	6218	6217	6216	9
6216	6217	6218	6222	9
6215	6214	6225	6226	9
6215	6214	6225	11025	9
6215	6214	6213	6218	9
6215	6214	6213	6221	9
6215	6216	6223	6224	9
6215	6216	6223	6233	9
6215	6216	6217	6218	9
6215	6216	6217	6220	9
6213	6214	6225	6226	9
6213	6214	6225	11025	9
6213	6214	6215	6219	9
6213	6218	6217	6220	9
6217	6216	6223	6224	9
6217	6216	6223	6233	9
6217	6216	6215	6219	9
6217	6218	6213	6221	9
6221	6213	6218	6222	9
6220	6217	6218	6222	9
6226	6225	11025	11018	9
6226	6225	11025	11027	9
6224	6223	6233	6227	9
6224	6223	6233	6234	9
2719	2718	2717	2728	9
2722	2718	2717	2728	9
2721	2716	2717	2728	9
2724	2716	2717	2728	9
2717	2718	2719	2726	9
2722	2718	2719	2726	9
2721	2720	2719	2726	9
2723	2720	2719	2726	9
2726	4550	4540	4543	9
2726	4550	4540	4539	9
2717	2718	2719	2720	9
2717	2716	2721	2720	9
2717	2716	2721	2725	9
2719	2726	4550	4540	9
2719	2726	4550	4552	9
2716	2717	2718	2719	9
2716	2721	2720	2719	9
2719	2720	2721	2725	9
2718	2717	2728	2730	9
2718	2717	2728	2729	9
2718	2717	2716	2721	9
2718	2717	2716	2724	9
2718	2719	2726	2727	9
2718	2719	2726	4550	9
2718	2719	2720	2721	9
2718	2719	2720	2723	9
2716	2717	2728	2730	9
2716	2717	2728	2729	9
2716	2717	2718	2722	9
2716	2721	2720	2723	9
2720	2719	2726	2727	9
2720	2719	2726	4550	9
2720	2719	2718	2722	9
2720	2721	2716	2724	9
2724	2716	2721	2725	9
2723	2720	2721	2725	9
2727	2726	4550	4540	9
2727	2726	4550	4552	9
12720	12719	12718	12729	9
12723	12719	12718	12729	9
12722	12717	12718	12729	9
12725	12717	12718	12729	9
12729	6603	6596	6597	9
12729	6603	6596	6595	9
12718	12719	12720	12727	9
12723	12719	12720	12727	9
12722	12721	12720	12727	9
12724	12721	12720	12727	9
12727	8177	8167	8170	9
12727	8177	8167	8166	9
12718	12729	6603	6596	9
12718	12729	6603	6605	9
12718	12719	12720	12721	9
12718	12717	12722	12721	9
12718	12717	12722	12726	9
12720	12727	8177	8167	9
12720	12727	8177	8179	9
12717	12718	12719	12720	9
12717	12722	12721	12720	9
12720	12721	12722	12726	9
12719	12718	12729	12730	9
12719	12718	12729	6603	9
12719	12718	12717	12722	9
12719	12718	12717	12725	9
12719	12720	12727	12728	9
12719	12720	12727	8177	9
12719	12720	12721	12722	9
12719	12720	12721	12724	9
12717	12718	12729	12730	9
12717	12718	12729	6603	9
12717	12718	12719	12723	9
12717	12722	12721	12724	9
12721	12720	12727	12728	9
12721	12720	12727	8177	9
12721	12720	12719	12723	9
12721	12722	12717	12725	9
12725	12717	12722	12726	9
12724	12721	12722	12726	9
12730	12729	6603	6596	9
12730	12729	6603	6605	9
12728	12727	8177	8167	9
12728	12727	8177	8179	9
3784	3783	3782	3793	9
3787	3783	3782	3793	9
3786	3781	3782	3793	9
3789	3781	3782	3793	9
3782	3783	3784	3791	9
3787	3783	3784	3791	9
3786	3785	3784	3791	9
3788	3785	3784	3791	9
2068	2069	2076	3791	9
2070	2069	2076	3791	9
3782	3783	3784	3785	9
3782	3781	3786	3785	9
3782	3781	3786	3790	9
2069	2076	3791	3784	9
2078	2076	3791	3784	9
3781	3782	3783	3784	9
3781	3786	3785	3784	9
3784	3785	3786	3790	9
3783	3782	3793	3794	9
3783	3782	3793	3795	9
3783	3782	3781	3786	9
3783	3782	3781	3789	9
3783	3784	3791	3792	9
2076	3791	3784	3783	9
3783	3784	3785	3786	9
3783	3784	3785	3788	9
3781	3782	3793	3794	9
3781	3782	3793	3795	9
3781	3782	3783	3787	9
3781	3786	3785	3788	9
3785	3784	3791	3792	9
2076	3791	3784	3785	9
3785	3784	3783	3787	9
3785	3786	3781	3789	9
3789	3781	3786	3790	9
3788	3785	3786	3790	9
2069	2076	3791	3792	9
2078	2076	3791	3792	9
13294	13293	13292	13303	9
13297	13293	13292	13303	9
13296	13291	13292	13303	9
13299	13291	13292	13303	9
13303	8264	8257	8256	9
13303	8264	8257	8258	9
13292	13293	13294	13301	9
13297	13293	13294	13301	9
13296	13295	13294	13301	9
13298	13295	13294	13301	9
1883	1882	1889	13301	9
1881	1882	1889	13301	9
13292	13303	8264	8257	9
13292	13303	8264	8266	9
13292	13293	13294	13295	9
13292	13291	13296	13295	9
13292	13291	13296	13300	9
1882	1889	13301	13294	9
1891	1889	13301	13294	9
13291	13292	13293	13294	9
13291	13296	13295	13294	9
13294	13295	13296	13300	9
13293	13292	13303	13304	9
13293	13292	13303	8264	9
13293	13292	13291	13296	9
13293	13292	13291	13299	9
13293	13294	13301	13302	9
1889	13301	13294	13293	9
13293	13294	13295	13296	9
13293	13294	13295	13298	9
13291	13292	13303	13304	9
13291	13292	13303	8264	9
13291	13292	13293	13297	9
13291	13296	13295	13298	9
13295	13294	13301	13302	9
1889	13301	13294	13295	9
13295	13294	13293	13297	9
13295	13296	13291	13299	9
13299	13291	13296	13300	9
13298	13295	13296	13300	9
13304	13303	8264	8257	9
13304	13303	8264	8266	9
1882	1889	13301	13302	9
1891	1889	13301	13302	9
2777	2778	2779	2786	9
2782	2778	2779	2786	9
2781	2780	2779	2786	9
2783	2780	2779	2786	9
2786	5116	5109	5110	9
2786	5116	5109	5108	9
2779	2778	2777	2788	9
2782	2778	2777	2788	9
2781	2776	2777	2788	9
2784	2776	2777	2788	9
2779	2786	5116	5109	9
2779	2786	5116	5118	9
2776	2777	2778	2779	9
2776	2781	2780	2779	9
2779	2780	2781	2785	9
2777	2778	2779	2780	9
2777	2776	2781	2780	9
2777	2776	2781	2785	9
2778	2779	2786	2787	9
2778	2779	2786	5116	9
2778	2779	2780	2781	9
2778	2779	2780	2783	9
2778	2777	2788	2789	9
2778	2777	2788	2790	9
2778	2777	2776	2781	9
2778	2777	2776	2784	9
2780	2779	2786	2787	9
2780	2779	2786	5116	9
2780	2779	2778	2782	9
2780	2781	2776	2784	9
2776	2777	2788	2789	9
2776	2777	2788	2790	9
2776	2777	2778	2782	9
2776	2781	2780	2783	9
2783	2780	2781	2785	9
2784	2776	2781	2785	9
2787	2786	5116	5109	9
2787	2786	5116	5118	9
9718	9717	9716	9727	9
9721	9717	9716	9727	9
9720	9715	9716	9727	9
9723	9715	9716	9727	9
9727	10249	10242	10243	9
9727	10249	10242	10241	9
9716	9717	9718	9725	9
9721	9717	9718	9725	9
9720	9719	9718	9725	9
9722	9719	9718	9725	9
9725	9735	9729	9730	9
9725	9735	9729	9732	9
9716	9727	10249	10242	9
9716	9727	10249	10251	9
9716	9717	9718	9719	9
9716	9715	9720	9719	9
9716	9715	9720	9724	9
9718	9725	9735	9729	9
9718	9725	9735	9736	9
9715	9716	9717	9718	9
9715	9720	9719	9718	9
9718	9719	9720	9724	9
9717	9716	9727	9728	9
9717	9716	9727	10249	9
9717	9716	9715	9720	9
9717	9716	9715	9723	9
9717	9718	9725	9726	9
9717	9718	9725	9735	9
9717	9718	9719	9720	9
9717	9718	9719	9722	9
9715	9716	9727	9728	9
9715	9716	9727	10249	9
9715	9716	9717	9721	9
9715	9720	9719	9722	9
9719	9718	9725	9726	9
9719	9718	9725	9735	9
9719	9718	9717	9721	9
9719	9720	9715	9723	9
9723	9715	9720	9724	9
9722	9719	9720	9724	9
9728	9727	10249	10242	9
9728	9727	10249	10251	9
9726	9725	9735	9729	9
9726	9725	9735	9736	9
12298	12299	12300	12307	9
12303	12299	12300	12307	9
12302	12301	12300	12307	9
12304	12301	12300	12307	9
12307	5815	5808	5809	9
12307	5815	5808	5807	9
12300	12299	12298	12309	9
12303	12299	12298	12309	9
12302	12297	12298	12309	9
12305	12297	12298	12309	9
12309	7274	7264	7263	9
12309	7274	7264	7267	9
12300	12307	5815	5808	9
12300	12307	5815	5817	9
12300	12299	12298	12297	9
12300	12301	12302	12297	9
12300	12301	12302	12306	9
12298	12309	7274	7264	9
12298	12309	7274	7276	9
12301	12300	12299	12298	9
12301	12302	12297	12298	9
12298	12297	12302	12306	9
12299	12300	12307	12308	9
12299	12300	12307	5815	9
12299	12300	12301	12302	9
12299	12300	12301	12304	9
12299	12298	12309	12310	9
12299	12298	12309	7274	9
12299	12298	12297	12302	9
12299	12298	12297	12305	9
12301	12300	12307	12308	9
12301	12300	12307	5815	9
12301	12300	12299	12303	9
12301	12302	12297	12305	9
12297	12298	12309	12310	9
12297	12298	12309	7274	9
12297	12298	12299	12303	9
12297	12302	12301	12304	9
12304	12301	12302	12306	9
12305	12297	12302	12306	9
12308	12307	5815	5808	9
12308	12307	5815	5817	9
12310	12309	7274	7264	9
12310	12309	7274	7276	9
13112	13111	13110	13121	9
13115	13111	13110	13121	9
13114	13109	13110	13121	9
13117	13109	13110	13121	9
13121	9297	9291	9294	9
13121	9297	9291	9292	9
13110	13111	13112	13119	9
13115	13111	13112	13119	9
13114	13113	13112	13119	9
13116	13113	13112	13119	9
13119	7812	7805	7806	9
13119	7812	7805	7804	9
13110	13121	9297	9291	9
13110	13121	9297	9298	9
13110	13111	13112	13113	9
13110	13109	13114	13113	9
13110	13109	13114	13118	9
13112	13119	7812	7805	9
13112	13119	7812	7814	9
13109	13110	13111	13112	9
13109	13114	13113	13112	9
13112	13113	13114	13118	9
13111	13110	13121	13122	9
13111	13110	13121	9297	9
13111	13110	13109	13114	9
13111	13110	13109	13117	9
13111	13112	13119	13120	9
13111	13112	13119	7812	9
13111	13112	13113	13114	9
13111	13112	13113	13116	9
13109	13110	13121	13122	9
13109	13110	13121	9297	9
13109	13110	13111	13115	9
13109	13114	13113	13116	9
13113	13112	13119	13120	9
13113	13112	13119	7812	9
13113	13112	13111	13115	9
13113	13114	13109	13117	9
13117	13109	13114	13118	9
13116	13113	13114	13118	9
13122	13121	9297	9291	9
13122	13121	9297	9298	9
13120	13119	7812	7805	9
13120	13119	7812	7814	9
6479	6478	6477	6488	9
6482	6478	6477	6488	9
6481	6476	6477	6488	9
6484	6476	6477	6488	9
6488	4492	4482	4485	9
6488	4492	4482	4481	9
6477	6478	6479	6486	9
6482	6478	6479	6486	9
6481	6480	6479	6486	9
6483	6480	6479	6486	9
6486	6496	6490	6491	9
6486	6496	6490	6493	9
6477	6488	4492	4482	9
6477	6488	4492	4494	9
6477	6478	6479	6480	9
6477	6476	6481	6480	9
6477	6476	6481	6485	9
6479	6486	6496	6490	9
6479	6486	6496	6497	9
6476	6477	6478	6479	9
6476	6481	6480	6479	9
6479	6480	6481	6485	9
6478	6477	6488	6489	9
6478	6477	6488	4492	9
6478	6477	6476	6481	9
6478	6477	6476	6484	9
6478	6479	6486	6487	9
6478	6479	6486	6496	9
6478	6479	6480	6481	9
6478	6479	6480	6483	9
6476	6477	6488	6489	9
6476	6477	6488	4492	9
6476	6477	6478	6482	9
6476	6481	6480	6483	9
6480	6479	6486	6487	9
6480	6479	6486	6496	9
6480	6479	6478	6482	9
6480	6481	6476	6484	9
6484	6476	6481	6485	9
6483	6480	6481	6485	9
6489	6488	4492	4482	9
6489	6488	4492	4494	9
6487	6486	6496	6490	9
6487	6486	6496	6497	9
6814	6813	6812	6823	9
6817	6813	6812	6823	9
6816	6811	6812	6823	9
6819	6811	6812	6823	9
6823	10294	10284	10287	9
6823	10294	10284	10283	9
6812	6813	6814	6821	9
6817	6813	6814	6821	9
6816	6815	6814	6821	9
6818	6815	6814	6821	9
6821	6831	6825	6826	9
6821	6831	6825	6828	9
6812	6823	10294	10284	9
6812	6823	10294	10296	9
6812	6813	6814	6815	9
6812	6811	6816	6815	9
6812	6811	6816	6820	9
6814	6821	6831	6825	9
6814	6821	6831	6832	9
6811	6812	6813	6814	9
6811	6816	6815	6814	9
6814	6815	6816	6820	9
6813	6812	6823	6824	9
6813	6812	6823	10294	9
6813	6812	6811	6816	9
6813	6812	6811	6819	9
6813	6814	6821	6822	9
6813	6814	6821	6831	9
6813	6814	6815	6816	9
6813	6814	6815	6818	9
6811	6812	6823	6824	9
6811	6812	6823	10294	9
6811	6812	6813	6817	9
6811	6816	6815	6818	9
6815	6814	6821	6822	9
6815	6814	6821	6831	9
6815	6814	6813	6817	9
6815	6816	6811	6819	9
6819	6811	6816	6820	9
6818	6815	6816	6820	9
6824	6823	10294	10284	9
6824	6823	10294	10296	9
6822	6821	6831	6825	9
6822	6821	6831	6832	9
2837	2838	2839	2846	9
2842	2838	2839	2846	9
2841	2840	2839	2846	9
2843	2840	2839	2846	9
2846	5489	5483	5484	9
2846	5489	5483	5486	9
2839	2838	2837	2848	9
2842	2838	2837	2848	9
2841	2836	2837	2848	9
2844	2836	2837	2848	9
2839	2846	5489	5483	9
2839	2846	5489	5490	9
2836	2837	2838	2839	9
2836	2841	2840	2839	9
2839	2840	2841	2845	9
2837	2838	2839	2840	9
2837	2836	2841	2840	9
2837	2836	2841	2845	9
2838	2839	2846	2847	9
2838	2839	2846	5489	9
2838	2839	2840	2841	9
2838	2839	2840	2843	9
2838	2837	2848	2850	9
2838	2837	2848	2849	9
2838	2837	2836	2841	9
2838	2837	2836	2844	9
2840	2839	2846	2847	9
2840	2839	2846	5489	9
2840	2839	2838	2842	9
2840	2841	2836	2844	9
2836	2837	2848	2850	9
2836	2837	2848	2849	9
2836	2837	2838	2842	9
2836	2841	2840	2843	9
2843	2840	2841	2845	9
2844	2836	2841	2845	9
2847	2846	5489	5483	9
2847	2846	5489	5490	9
1650	1649	1648	1659	9
1653	1649	1648	1659	9
1652	1647	1648	1659	9
1655	1647	1648	1659	9
1659	6414	6407	6406	9
1659	6414	6407	6408	9
1648	1649	1650	1657	9
1653	1649	1650	1657	9
1652	1651	1650	1657	9
1654	1651	1650	1657	9
1631	1630	1636	1657	9
1633	1630	1636	1657	9
1648	1659	6414	6407	9
1648	1659	6414	6416	9
1648	1649	1650	1651	9
1648	1647	1652	1651	9
1648	1647	1652	1656	9
1630	1636	1657	1650	9
1637	1636	1657	1650	9
1647	1648	1649	1650	9
1647	1652	1651	1650	9
1650	1651	1652	1656	9
1649	1648	1659	1660	9
1649	1648	1659	6414	9
1649	1648	1647	1652	9
1649	1648	1647	1655	9
1649	1650	1657	1658	9
1636	1657	1650	1649	9
1649	1650	1651	1652	9
1649	1650	1651	1654	9
1647	1648	1659	1660	9
1647	1648	1659	6414	9
1647	1648	1649	1653	9
1647	1652	1651	1654	9
1651	1650	1657	1658	9
1636	1657	1650	1651	9
1651	1650	1649	1653	9
1651	1652	1647	1655	9
1655	1647	1652	1656	9
1654	1651	1652	1656	9
1660	1659	6414	6407	9
1660	1659	6414	6416	9
1630	1636	1657	1658	9
1637	1636	1657	1658	9
7338	7337	7336	7347	9
7341	7337	7336	7347	9
7340	7335	7336	7347	9
7343	7335	7336	7347	9
7347	7355	7349	7350	9
7347	7355	7349	7352	9
7336	7337	7338	7345	9
7341	7337	7338	7345	9
7340	7339	7338	7345	9
7342	7339	7338	7345	9
7345	8747	8740	8739	9
7345	8747	8740	8741	9
7336	7347	7355	7349	9
7336	7347	7355	7356	9
7336	7337	7338	7339	9
7336	7335	7340	7339	9
7336	7335	7340	7344	9
7338	7345	8747	8740	9
7338	7345	8747	8749	9
7335	7336	7337	7338	9
7335	7340	7339	7338	9
7338	7339	7340	7344	9
7337	7336	7347	7348	9
7337	7336	7347	7355	9
7337	7336	7335	7340	9
7337	7336	7335	7343	9
7337	7338	7345	7346	9
7337	7338	7345	8747	9
7337	7338	7339	7340	9
7337	7338	7339	7342	9
7335	7336	7347	7348	9
7335	7336	7347	7355	9
7335	7336	7337	7341	9
7335	7340	7339	7342	9
7339	7338	7345	7346	9
7339	7338	7345	8747	9
7339	7338	7337	7341	9
7339	7340	7335	7343	9
7343	7335	7340	7344	9
7342	7339	7340	7344	9
7348	7347	7355	7349	9
7348	7347	7355	7356	9
7346	7345	8747	8740	9
7346	7345	8747	8749	9
12524	12523	12522	12533	9
12527	12523	12522	12533	9
12526	12521	12522	12533	9
12529	12521	12522	12533	9
12533	10542	10535	10536	9
12533	10542	10535	10534	9
12522	12523	12524	12531	9
12527	12523	12524	12531	9
12526	12525	12524	12531	9
12528	12525	12524	12531	9
12531	6210	6200	6199	9
12531	6210	6200	6203	9
12522	12533	10542	10535	9
12522	12533	10542	10544	9
12522	12523	12524	12525	9
12522	12521	12526	12525	9
12522	12521	12526	12530	9
12524	12531	6210	6200	9
12524	12531	6210	6212	9
12521	12522	12523	12524	9
12521	12526	12525	12524	9
12524	12525	12526	12530	9
12523	12522	12533	12534	9
12523	12522	12533	10542	9
12523	12522	12521	12526	9
12523	12522	12521	12529	9
12523	12524	12531	12532	9
12523	12524	12531	6210	9
12523	12524	12525	12526	9
12523	12524	12525	12528	9
12521	12522	12533	12534	9
12521	12522	12533	10542	9
12521	12522	12523	12527	9
12521	12526	12525	12528	9
12525	12524	12531	12532	9
12525	12524	12531	6210	9
12525	12524	12523	12527	9
12525	12526	12521	12529	9
12529	12521	12526	12530	9
12528	12525	12526	12530	9
12534	12533	10542	10535	9
12534	12533	10542	10544	9
12532	12531	6210	6200	9
12532	12531	6210	6212	9
1148	1149	1150	1157	9
1153	1149	1150	1157	9
1152	1151	1150	1157	9
1154	1151	1150	1157	9
1131	1130	1136	1157	9
1133	1130	1136	1157	9
1150	1149	1148	1159	9
1153	1149	1148	1159	9
1152	1147	1148	1159	9
1155	1147	1148	1159	9
1159	6763	6756	6757	9
1159	6763	6756	6755	9
1130	1136	1157	1150	9
1137	1136	1157	1150	9
1147	1148	1149	1150	9
1147	1152	1151	1150	9
1150	1151	1152	1156	9
1148	1159	6763	6756	9
1148	1159	6763	6765	9
1148	1149	1150	1151	9
1148	1147	1152	1151	9
1148	1147	1152	1156	9
1149	1150	1157	1158	9
1136	1157	1150	1149	9
1149	1150	1151	1152	9
1149	1150	1151	1154	9
1149	1148	1159	1160	9
1149	1148	1159	6763	9
1149	1148	1147	1152	9
1149	1148	1147	1155	9
1151	1150	1157	1158	9
1136	1157	1150	1151	9
1151	1150	1149	1153	9
1151	1152	1147	1155	9
1147	1148	1159	1160	9
1147	1148	1159	6763	9
1147	1148	1149	1153	9
1147	1152	1151	1154	9
1154	1151	1152	1156	9
1155	1147	1152	1156	9
1130	1136	1157	1158	9
1137	1136	1157	1158	9
1160	1159	6763	6756	9
1160	1159	6763	6765	9
11320	11319	11318	11329	9
11323	11319	11318	11329	9
11322	11317	11318	11329	9
11325	11317	11318	11329	9
11329	4085	4075	4074	9
11329	4085	4075	4078	9
11318	11319	11320	11327	9
11323	11319	11320	11327	9
11322	11321	11320	11327	9
11324	11321	11320	11327	9
11327	6836	6829	6830	9
11327	6836	6829	6828	9
11318	11329	4085	4075	9
11318	11329	4085	4087	9
11318	11319	11320	11321	9
11318	11317	11322	11321	9
11318	11317	11322	11326	9
11320	11327	6836	6829	9
11320	11327	6836	6838	9
11317	11318	11319	11320	9
11317	11322	11321	11320	9
11320	11321	11322	11326	9
11319	11318	11329	11330	9
11319	11318	11329	4085	9
11319	11318	11317	11322	9
11319	11318	11317	11325	9
11319	11320	11327	11328	9
11319	11320	11327	6836	9
11319	11320	11321	11322	9
11319	11320	11321	11324	9
11317	11318	11329	11330	9
11317	11318	11329	4085	9
11317	11318	11319	11323	9
11317	11322	11321	11324	9
11321	11320	11327	11328	9
11321	11320	11327	6836	9
11321	11320	11319	11323	9
11321	11322	11317	11325	9
11325	11317	11322	11326	9
11324	11321	11322	11326	9
11330	11329	4085	4075	9
11330	11329	4085	4087	9
11328	11327	6836	6829	9
11328	11327	6836	6838	9
1057	1056	1055	1066	9
1060	1056	1055	1066	9
1059	1054	1055	1066	9
1062	1054	1055	1066	9
1040	1037	1043	1066	9
1038	1037	1043	1066	9
1055	1056	1057	1064	9
1060	1056	1057	1064	9
1059	1058	1057	1064	9
1061	1058	1057	1064	9
1162	1161	1167	1064	9
1164	1161	1167	1064	9
1037	1043	1066	1055	9
1044	1043	1066	1055	9
1055	1056	1057	1058	9
1055	1054	1059	1058	9
1055	1054	1059	1063	9
1161	1167	1064	1057	9
1168	1167	1064	1057	9
1054	1055	1056	1057	9
1054	1059	1058	1057	9
1057	1058	1059	1063	9
1056	1055	1066	1067	9
1043	1066	1055	1056	9
1056	1055	1054	1059	9
1056	1055	1054	1062	9
1056	1057	1064	1065	9
1167	1064	1057	1056	9
1056	1057	1058	1059	9
1056	1057	1058	1061	9
1054	1055	1066	1067	9
1043	1066	1055	1054	9
1054	1055	1056	1060	9
1054	1059	1058	1061	9
1058	1057	1064	1065	9
1167	1064	1057	1058	9
1058	1057	1056	1060	9
1058	1059	1054	1062	9
1062	1054	1059	1063	9
1061	1058	1059	1063	9
1037	1043	1066	1067	9
1044	1043	1066	1067	9
1161	1167	1064	1065	9
1168	1167	1064	1065	9
13210	13209	13208	13219	9
13213	13209	13208	13219	9
13212	13207	13208	13219	9
13215	13207	13208	13219	9
13219	8573	8563	8562	9
13219	8573	8563	8566	9
13208	13209	13210	13217	9
13213	13209	13210	13217	9
13212	13211	13210	13217	9
13214	13211	13210	13217	9
13217	8147	8140	8141	9
13217	8147	8140	8139	9
13208	13219	8573	8563	9
13208	13219	8573	8575	9
13208	13209	13210	13211	9
13208	13207	13212	13211	9
13208	13207	13212	13216	9
13210	13217	8147	8140	9
13210	13217	8147	8149	9
13207	13208	13209	13210	9
13207	13212	13211	13210	9
13210	13211	13212	13216	9
13209	13208	13219	13220	9
13209	13208	13219	8573	9
13209	13208	13207	13212	9
13209	13208	13207	13215	9
13209	13210	13217	13218	9
13209	13210	13217	8147	9
13209	13210	13211	13212	9
13209	13210	13211	13214	9
13207	13208	13219	13220	9
13207	13208	13219	8573	9
13207	13208	13209	13213	9
13207	13212	13211	13214	9
13211	13210	13217	13218	9
13211	13210	13217	8147	9
13211	13210	13209	13213	9
13211	13212	13207	13215	9
13215	13207	13212	13216	9
13214	13211	13212	13216	9
13220	13219	8573	8563	9
13220	13219	8573	8575	9
13218	13217	8147	8140	9
13218	13217	8147	8149	9
8299	8300	8301	8308	9
8304	8300	8301	8308	9
8303	8302	8301	8308	9
8305	8302	8301	8308	9
8308	8318	8312	8313	9
8308	8318	8312	8315	9
8301	8300	8299	8310	9
8304	8300	8299	8310	9
8303	8298	8299	8310	9
8306	8298	8299	8310	9
8310	11094	11088	11089	9
8310	11094	11088	11091	9
8301	8308	8318	8312	9
8301	8308	8318	8319	9
8301	8300	8299	8298	9
8301	8302	8303	8298	9
8301	8302	8303	8307	9
8299	8310	11094	11088	9
8299	8310	11094	11095	9
8302	8301	8300	8299	9
8302	8303	8298	8299	9
8299	8298	8303	8307	9
8300	8301	8308	8309	9
8300	8301	8308	8318	9
8300	8301	8302	8303	9
8300	8301	8302	8305	9
8300	8299	8310	8311	9
8300	8299	8310	11094	9
8300	8299	8298	8303	9
8300	8299	8298	8306	9
8302	8301	8308	8309	9
8302	8301	8308	8318	9
8302	8301	8300	8304	9
8302	8303	8298	8306	9
8298	8299	8310	8311	9
8298	8299	8310	11094	9
8298	8299	8300	8304	9
8298	8303	8302	8305	9
8305	8302	8303	8307	9
8306	8298	8303	8307	9
8309	8308	8318	8312	9
8309	8308	8318	8319	9
8311	8310	11094	11088	9
8311	8310	11094	11095	9
9367	9366	9365	9376	9
9370	9366	9365	9376	9
9369	9364	9365	9376	9
9372	9364	9365	9376	9
9376	9384	9378	9379	9
9376	9384	9378	9381	9
9365	9366	9367	9374	9
9370	9366	9367	9374	9
9369	9368	9367	9374	9
9371	9368	9367	9374	9
9374	9187	9177	9180	9
9374	9187	9177	9176	9
9365	9376	9384	9378	9
9365	9376	9384	9385	9
9365	9366	9367	9368	9
9365	9364	9369	9368	9
9365	9364	9369	9373	9
9367	9374	9187	9177	9
9367	9374	9187	9189	9
9364	9365	9366	9367	9
9364	9369	9368	9367	9
9367	9368	9369	9373	9
9366	9365	9376	9377	9
9366	9365	9376	9384	9
9366	9365	9364	9369	9
9366	9365	9364	9372	9
9366	9367	9374	9375	9
9366	9367	9374	9187	9
9366	9367	9368	9369	9
9366	9367	9368	9371	9
9364	9365	9376	9377	9
9364	9365	9376	9384	9
9364	9365	9366	9370	9
9364	9369	9368	9371	9
9368	9367	9374	9375	9
9368	9367	9374	9187	9
9368	9367	9366	9370	9
9368	9369	9364	9372	9
9372	9364	9369	9373	9
9371	9368	9369	9373	9
9377	9376	9384	9378	9
9377	9376	9384	9385	9
9375	9374	9187	9177	9
9375	9374	9187	9189	9
5895	5894	5893	5904	9
5898	5894	5893	5904	9
5897	5892	5893	5904	9
5900	5892	5893	5904	9
5904	8280	8270	8269	9
5904	8280	8270	8273	9
5893	5894	5895	5902	9
5898	5894	5895	5902	9
5897	5896	5895	5902	9
5899	5896	5895	5902	9
5902	5912	5906	5907	9
5902	5912	5906	5909	9
5893	5904	8280	8270	9
5893	5904	8280	8282	9
5893	5894	5895	5896	9
5893	5892	5897	5896	9
5893	5892	5897	5901	9
5895	5902	5912	5906	9
5895	5902	5912	5913	9
5892	5893	5894	5895	9
5892	5897	5896	5895	9
5895	5896	5897	5901	9
5894	5893	5904	5905	9
5894	5893	5904	8280	9
5894	5893	5892	5897	9
5894	5893	5892	5900	9
5894	5895	5902	5903	9
5894	5895	5902	5912	9
5894	5895	5896	5897	9
5894	5895	5896	5899	9
5892	5893	5904	5905	9
5892	5893	5904	8280	9
5892	5893	5894	5898	9
5892	5897	5896	5899	9
5896	5895	5902	5903	9
5896	5895	5902	5912	9
5896	5895	5894	5898	9
5896	5897	5892	5900	9
5900	5892	5897	5901	9
5899	5896	5897	5901	9
5905	5904	8280	8270	9
5905	5904	8280	8282	9
5903	5902	5912	5906	9
5903	5902	5912	5913	9
2899	2898	2897	2908	9
2902	2898	2897	2908	9
2901	2896	2897	2908	9
2904	2896	2897	2908	9
2897	2898	2899	2906	9
2902	2898	2899	2906	9
2901	2900	2899	2906	9
2903	2900	2899	2906	9
2906	5786	5779	5778	9
2906	5786	5779	5780	9
2897	2898	2899	2900	9
2897	2896	2901	2900	9
2897	2896	2901	2905	9
2899	2906	5786	5779	9
2899	2906	5786	5788	9
2896	2897	2898	2899	9
2896	2901	2900	2899	9
2899	2900	2901	2905	9
2898	2897	2908	2909	9
2898	2897	2908	2910	9
2898	2897	2896	2901	9
2898	2897	2896	2904	9
2898	2899	2906	2907	9
2898	2899	2906	5786	9
2898	2899	2900	2901	9
2898	2899	2900	2903	9
2896	2897	2908	2909	9
2896	2897	2908	2910	9
2896	2897	2898	2902	9
2896	2901	2900	2903	9
2900	2899	2906	2907	9
2900	2899	2906	5786	9
2900	2899	2898	2902	9
2900	2901	2896	2904	9
2904	2896	2901	2905	9
2903	2900	2901	2905	9
2907	2906	5786	5779	9
2907	2906	5786	5788	9
4890	4889	4888	4899	9
4893	4889	4888	4899	9
4892	4887	4888	4899	9
4895	4887	4888	4899	9
4899	4907	4901	4902	9
4899	4907	4901	4904	9
4888	4889	4890	4897	9
4893	4889	4890	4897	9
4892	4891	4890	4897	9
4894	4891	4890	4897	9
4897	10351	10344	10345	9
4897	10351	10344	10343	9
4888	4899	4907	4901	9
4888	4899	4907	4908	9
4888	4889	4890	4891	9
4888	4887	4892	4891	9
4888	4887	4892	4896	9
4890	4897	10351	10344	9
4890	4897	10351	10353	9
4887	4888	4889	4890	9
4887	4892	4891	4890	9
4890	4891	4892	4896	9
4889	4888	4899	4900	9
4889	4888	4899	4907	9
4889	4888	4887	4892	9
4889	4888	4887	4895	9
4889	4890	4897	4898	9
4889	4890	4897	10351	9
4889	4890	4891	4892	9
4889	4890	4891	4894	9
4887	4888	4899	4900	9
4887	4888	4899	4907	9
4887	4888	4889	4893	9
4887	4892	4891	4894	9
4891	4890	4897	4898	9
4891	4890	4897	10351	9
4891	4890	4889	4893	9
4891	4892	4887	4895	9
4895	4887	4892	4896	9
4894	4891	4892	4896	9
4900	4899	4907	4901	9
4900	4899	4907	4908	9
4898	4897	10351	10344	9
4898	4897	10351	10353	9
7060	7061	7062	7069	9
7065	7061	7062	7069	9
7064	7063	7062	7069	9
7066	7063	7062	7069	9
7069	6473	6463	6466	9
7069	6473	6463	6462	9
7062	7061	7060	7071	9
7065	7061	7060	7071	9
7064	7059	7060	7071	9
7067	7059	7060	7071	9
7071	7079	7073	7074	9
7071	7079	7073	7076	9
7062	7069	6473	6463	9
7062	7069	6473	6475	9
7062	7061	7060	7059	9
7062	7063	7064	7059	9
7062	7063	7064	7068	9
7060	7071	7079	7073	9
7060	7071	7079	7080	9
7063	7062	7061	7060	9
7063	7064	7059	7060	9
7060	7059	7064	7068	9
7061	7062	7069	7070	9
7061	7062	7069	6473	9
7061	7062	7063	7064	9
7061	7062	7063	7066	9
7061	7060	7071	7072	9
7061	7060	7071	7079	9
7061	7060	7059	7064	9
7061	7060	7059	7067	9
7063	7062	7069	7070	9
7063	7062	7069	6473	9
7063	7062	7061	7065	9
7063	7064	7059	7067	9
7059	7060	7071	7072	9
7059	7060	7071	7079	9
7059	7060	7061	7065	9
7059	7064	7063	7066	9
7066	7063	7064	7068	9
7067	7059	7064	7068	9
7070	7069	6473	6463	9
7070	7069	6473	6475	9
7072	7071	7079	7073	9
7072	7071	7079	7080	9
12538	12537	12536	12547	9
12541	12537	12536	12547	9
12540	12535	12536	12547	9
12543	12535	12536	12547	9
12547	6238	6231	6232	9
12547	6238	6231	6230	9
12536	12537	12538	12545	9
12541	12537	12538	12545	9
12540	12539	12538	12545	9
12542	12539	12538	12545	9
12545	9813	9806	9805	9
12545	9813	9806	9807	9
12536	12547	6238	6231	9
12536	12547	6238	6240	9
12536	12537	12538	12539	9
12536	12535	12540	12539	9
12536	12535	12540	12544	9
12538	12545	9813	9806	9
12538	12545	9813	9815	9
12535	12536	12537	12538	9
12535	12540	12539	12538	9
12538	12539	12540	12544	9
12537	12536	12547	12548	9
12537	12536	12547	6238	9
12537	12536	12535	12540	9
12537	12536	12535	12543	9
12537	12538	12545	12546	9
12537	12538	12545	9813	9
12537	12538	12539	12540	9
12537	12538	12539	12542	9
12535	12536	12547	12548	9
12535	12536	12547	6238	9
12535	12536	12537	12541	9
12535	12540	12539	12542	9
12539	12538	12545	12546	9
12539	12538	12545	9813	9
12539	12538	12537	12541	9
12539	12540	12535	12543	9
12543	12535	12540	12544	9
12542	12539	12540	12544	9
12548	12547	6238	6231	9
12548	12547	6238	6240	9
12546	12545	9813	9806	9
12546	12545	9813	9815	9
9222	9221	9220	9231	9
9225	9221	9220	9231	9
9224	9219	9220	9231	9
9227	9219	9220	9231	9
9231	9239	9233	9236	9
9231	9239	9233	9234	9
9220	9221	9222	9229	9
9225	9221	9222	9229	9
9224	9223	9222	9229	9
9226	9223	9222	9229	9
9229	10602	10592	10591	9
9229	10602	10592	10595	9
9220	9231	9239	9233	9
9220	9231	9239	9240	9
9220	9221	9222	9223	9
9220	9219	9224	9223	9
9220	9219	9224	9228	9
9222	9229	10602	10592	9
9222	9229	10602	10604	9
9219	9220	9221	9222	9
9219	9224	9223	9222	9
9222	9223	9224	9228	9
9221	9220	9231	9232	9
9221	9220	9231	9239	9
9221	9220	9219	9224	9
9221	9220	9219	9227	9
9221	9222	9229	9230	9
9221	9222	9229	10602	9
9221	9222	9223	9224	9
9221	9222	9223	9226	9
9219	9220	9231	9232	9
9219	9220	9231	9239	9
9219	9220	9221	9225	9
9219	9224	9223	9226	9
9223	9222	9229	9230	9
9223	9222	9229	10602	9
9223	9222	9221	9225	9
9223	9224	9219	9227	9
9227	9219	9224	9228	9
9226	9223	9224	9228	9
9232	9231	9239	9233	9
9232	9231	9239	9240	9
9230	9229	10602	10592	9
9230	9229	10602	10604	9
7703	7702	7701	7712	9
7706	7702	7701	7712	9
7705	7700	7701	7712	9
7708	7700	7701	7712	9
7712	7720	7714	7717	9
7712	7720	7714	7715	9
7701	7702	7703	7710	9
7706	7702	7703	7710	9
7705	7704	7703	7710	9
7707	7704	7703	7710	9
7710	10567	10561	10562	9
7710	10567	10561	10564	9
7701	7712	7720	7714	9
7701	7712	7720	7721	9
7701	7702	7703	7704	9
7701	7700	7705	7704	9
7701	7700	7705	7709	9
7703	7710	10567	10561	9
7703	7710	10567	10568	9
7700	7701	7702	7703	9
7700	7705	7704	7703	9
7703	7704	7705	7709	9
7702	7701	7712	7713	9
7702	7701	7712	7720	9
7702	7701	7700	7705	9
7702	7701	7700	7708	9
7702	7703	7710	7711	9
7702	7703	7710	10567	9
7702	7703	7704	7705	9
7702	7703	7704	7707	9
7700	7701	7712	7713	9
7700	7701	7712	7720	9
7700	7701	7702	7706	9
7700	7705	7704	7707	9
7704	7703	7710	7711	9
7704	7703	7710	10567	9
7704	7703	7702	7706	9
7704	7705	7700	7708	9
7708	7700	7705	7709	9
7707	7704	7705	7709	9
7713	7712	7720	7714	9
7713	7712	7720	7721	9
7711	7710	10567	10561	9
7711	7710	10567	10568	9
3467	3468	3469	3476	9
3472	3468	3469	3476	9
3471	3470	3469	3476	9
3473	3470	3469	3476	9
3476	9565	9555	9554	9
3476	9565	9555	9558	9
3469	3468	3467	3478	9
3472	3468	3467	3478	9
3471	3466	3467	3478	9
3474	3466	3467	3478	9
3469	3476	9565	9555	9
3469	3476	9565	9567	9
3466	3467	3468	3469	9
3466	3471	3470	3469	9
3469	3470	3471	3475	9
3467	3468	3469	3470	9
3467	3466	3471	3470	9
3467	3466	3471	3475	9
3468	3469	3476	3477	9
3468	3469	3476	9565	9
3468	3469	3470	3471	9
3468	3469	3470	3473	9
3468	3467	3478	3480	9
3468	3467	3478	3479	9
3468	3467	3466	3471	9
3468	3467	3466	3474	9
3470	3469	3476	3477	9
3470	3469	3476	9565	9
3470	3469	3468	3472	9
3470	3471	3466	3474	9
3466	3467	3478	3480	9
3466	3467	3478	3479	9
3466	3467	3468	3472	9
3466	3471	3470	3473	9
3473	3470	3471	3475	9
3474	3466	3471	3475	9
3477	3476	9565	9555	9
3477	3476	9565	9567	9
11866	11865	11864	11875	9
11869	11865	11864	11875	9
11868	11863	11864	11875	9
11871	11863	11864	11875	9
11875	6939	6929	6928	9
11875	6939	6929	6932	9
11864	11865	11866	11873	9
11869	11865	11866	11873	9
11868	11867	11866	11873	9
11870	11867	11866	11873	9
11873	5000	4990	4989	9
11873	5000	4990	4993	9
11864	11875	6939	6929	9
11864	11875	6939	6941	9
11864	11865	11866	11867	9
11864	11863	11868	11867	9
11864	11863	11868	11872	9
11866	11873	5000	4990	9
11866	11873	5000	5002	9
11863	11864	11865	11866	9
11863	11868	11867	11866	9
11866	11867	11868	11872	9
11865	11864	11875	11876	9
11865	11864	11875	6939	9
11865	11864	11863	11868	9
11865	11864	11863	11871	9
11865	11866	11873	11874	9
11865	11866	11873	5000	9
11865	11866	11867	11868	9
11865	11866	11867	11870	9
11863	11864	11875	11876	9
11863	11864	11875	6939	9
11863	11864	11865	11869	9
11863	11868	11867	11870	9
11867	11866	11873	11874	9
11867	11866	11873	5000	9
11867	11866	11865	11869	9
11867	11868	11863	11871	9
11871	11863	11868	11872	9
11870	11867	11868	11872	9
11876	11875	6939	6929	9
11876	11875	6939	6941	9
11874	11873	5000	4990	9
11874	11873	5000	5002	9
3767	3768	3769	3776	9
3772	3768	3769	3776	9
3771	3770	3769	3776	9
3773	3770	3769	3776	9
3776	11187	11180	11179	9
3776	11187	11180	11181	9
3769	3768	3767	3778	9
3772	3768	3767	3778	9
3771	3766	3767	3778	9
3774	3766	3767	3778	9
3769	3776	11187	11180	9
3769	3776	11187	11189	9
3766	3767	3768	3769	9
3766	3771	3770	3769	9
3769	3770	3771	3775	9
3767	3768	3769	3770	9
3767	3766	3771	3770	9
3767	3766	3771	3775	9
3768	3769	3776	3777	9
3768	3769	3776	11187	9
3768	3769	3770	3771	9
3768	3769	3770	3773	9
3768	3767	3778	3780	9
3768	3767	3778	3779	9
3768	3767	3766	3771	9
3768	3767	3766	3774	9
3770	3769	3776	3777	9
3770	3769	3776	11187	9
3770	3769	3768	3772	9
3770	3771	3766	3774	9
3766	3767	3778	3780	9
3766	3767	3778	3779	9
3766	3767	3768	3772	9
3766	3771	3770	3773	9
3773	3770	3771	3775	9
3774	3766	3771	3775	9
3777	3776	11187	11180	9
3777	3776	11187	11189	9
3499	3498	3497	3508	9
3502	3498	3497	3508	9
3501	3496	3497	3508	9
3504	3496	3497	3508	9
3497	3498	3499	3506	9
3502	3498	3499	3506	9
3501	3500	3499	3506	9
3503	3500	3499	3506	9
3506	9609	9599	9598	9
3506	9609	9599	9602	9
3497	3498	3499	3500	9
3497	3496	3501	3500	9
3497	3496	3501	3505	9
3499	3506	9609	9599	9
3499	3506	9609	9611	9
3496	3497	3498	3499	9
3496	3501	3500	3499	9
3499	3500	3501	3505	9
3498	3497	3508	3509	9
3498	3497	3508	3510	9
3498	3497	3496	3501	9
3498	3497	3496	3504	9
3498	3499	3506	3507	9
3498	3499	3506	9609	9
3498	3499	3500	3501	9
3498	3499	3500	3503	9
3496	3497	3508	3509	9
3496	3497	3508	3510	9
3496	3497	3498	3502	9
3496	3501	3500	3503	9
3500	3499	3506	3507	9
3500	3499	3506	9609	9
3500	3499	3498	3502	9
3500	3501	3496	3504	9
3504	3496	3501	3505	9
3503	3500	3501	3505	9
3507	3506	9609	9599	9
3507	3506	9609	9611	9
2255	2256	2257	2264	9
2260	2256	2257	2264	9
2259	2258	2257	2264	9
2261	2258	2257	2264	9
2238	2237	2243	2264	9
2240	2237	2243	2264	9
2257	2256	2255	2266	9
2260	2256	2255	2266	9
2259	2254	2255	2266	9
2262	2254	2255	2266	9
2266	9574	9568	9569	9
2266	9574	9568	9571	9
2237	2243	2264	2257	9
2244	2243	2264	2257	9
2254	2255	2256	2257	9
2254	2259	2258	2257	9
2257	2258	2259	2263	9
2255	2266	9574	9568	9
2255	2266	9574	9575	9
2255	2256	2257	2258	9
2255	2254	2259	2258	9
2255	2254	2259	2263	9
2256	2257	2264	2265	9
2243	2264	2257	2256	9
2256	2257	2258	2259	9
2256	2257	2258	2261	9
2256	2255	2266	2267	9
2256	2255	2266	9574	9
2256	2255	2254	2259	9
2256	2255	2254	2262	9
2258	2257	2264	2265	9
2243	2264	2257	2258	9
2258	2257	2256	2260	9
2258	2259	2254	2262	9
2254	2255	2266	2267	9
2254	2255	2266	9574	9
2254	2255	2256	2260	9
2254	2259	2258	2261	9
2261	2258	2259	2263	9
2262	2254	2259	2263	9
2237	2243	2264	2265	9
2244	2243	2264	2265	9
2267	2266	9574	9568	9
2267	2266	9574	9575	9
3888	3887	3886	3897	9
3891	3887	3886	3897	9
3890	3885	3886	3897	9
3893	3885	3886	3897	9
3897	7516	7510	7511	9
3897	7516	7510	7513	9
3886	3887	3888	3895	9
3891	3887	3888	3895	9
3890	3889	3888	3895	9
3892	3889	3888	3895	9
3895	3905	3899	3902	9
3895	3905	3899	3900	9
3886	3897	7516	7510	9
3886	3897	7516	7517	9
3886	3887	3888	3889	9
3886	3885	3890	3889	9
3886	3885	3890	3894	9
3888	3895	3905	3899	9
3888	3895	3905	3906	9
3885	3886	3887	3888	9
3885	3890	3889	3888	9
3888	3889	3890	3894	9
3887	3886	3897	3898	9
3887	3886	3897	7516	9
3887	3886	3885	3890	9
3887	3886	3885	3893	9
3887	3888	3895	3896	9
3887	3888	3895	3905	9
3887	3888	3889	3890	9
3887	3888	3889	3892	9
3885	3886	3897	3898	9
3885	3886	3897	7516	9
3885	3886	3887	3891	9
3885	3890	3889	3892	9
3889	3888	3895	3896	9
3889	3888	3895	3905	9
3889	3888	3887	3891	9
3889	3890	3885	3893	9
3893	3885	3890	3894	9
3892	3889	3890	3894	9
3898	3897	7516	7510	9
3898	3897	7516	7517	9
3896	3895	3905	3899	9
3896	3895	3905	3906	9
12468	12467	12466	12477	9
12471	12467	12466	12477	9
12470	12465	12466	12477	9
12473	12465	12466	12477	9
12477	6472	6465	6464	9
12477	6472	6465	6466	9
12466	12467	12468	12475	9
12471	12467	12468	12475	9
12470	12469	12468	12475	9
12472	12469	12468	12475	9
12475	6035	6028	6027	9
12475	6035	6028	6029	9
12466	12477	6472	6465	9
12466	12477	6472	6474	9
12466	12467	12468	12469	9
12466	12465	12470	12469	9
12466	12465	12470	12474	9
12468	12475	6035	6028	9
12468	12475	6035	6037	9
12465	12466	12467	12468	9
12465	12470	12469	12468	9
12468	12469	12470	12474	9
12467	12466	12477	12478	9
12467	12466	12477	6472	9
12467	12466	12465	12470	9
12467	12466	12465	12473	9
12467	12468	12475	12476	9
12467	12468	12475	6035	9
12467	12468	12469	12470	9
12467	12468	12469	12472	9
12465	12466	12477	12478	9
12465	12466	12477	6472	9
12465	12466	12467	12471	9
12465	12470	12469	12472	9
12469	12468	12475	12476	9
12469	12468	12475	6035	9
12469	12468	12467	12471	9
12469	12470	12465	12473	9
12473	12465	12470	12474	9
12472	12469	12470	12474	9
12478	12477	6472	6465	9
12478	12477	6472	6474	9
12476	12475	6035	6028	9
12476	12475	6035	6037	9
8521	8520	8519	8530	9
8524	8520	8519	8530	9
8523	8518	8519	8530	9
8526	8518	8519	8530	9
8530	9457	9451	9454	9
8530	9457	9451	9452	9
8519	8520	8521	8528	9
8524	8520	8521	8528	9
8523	8522	8521	8528	9
8525	8522	8521	8528	9
8528	8538	8532	8533	9
8528	8538	8532	8535	9
8519	8530	9457	9451	9
8519	8530	9457	9458	9
8519	8520	8521	8522	9
8519	8518	8523	8522	9
8519	8518	8523	8527	9
8521	8528	8538	8532	9
8521	8528	8538	8539	9
8518	8519	8520	8521	9
8518	8523	8522	8521	9
8521	8522	8523	8527	9
8520	8519	8530	8531	9
8520	8519	8530	9457	9
8520	8519	8518	8523	9
8520	8519	8518	8526	9
8520	8521	8528	8529	9
8520	8521	8528	8538	9
8520	8521	8522	8523	9
8520	8521	8522	8525	9
8518	8519	8530	8531	9
8518	8519	8530	9457	9
8518	8519	8520	8524	9
8518	8523	8522	8525	9
8522	8521	8528	8529	9
8522	8521	8528	8538	9
8522	8521	8520	8524	9
8522	8523	8518	8526	9
8526	8518	8523	8527	9
8525	8522	8523	8527	9
8531	8530	9457	9451	9
8531	8530	9457	9458	9
8529	8528	8538	8532	9
8529	8528	8538	8539	9
11768	11767	11766	11777	9
11771	11767	11766	11777	9
11770	11765	11766	11777	9
11773	11765	11766	11777	9
11777	4839	4832	4831	9
11777	4839	4832	4833	9
11766	11767	11768	11775	9
11771	11767	11768	11775	9
11770	11769	11768	11775	9
11772	11769	11768	11775	9
11775	10601	10594	10595	9
11775	10601	10594	10593	9
11766	11777	4839	4832	9
11766	11777	4839	4841	9
11766	11767	11768	11769	9
11766	11765	11770	11769	9
11766	11765	11770	11774	9
11768	11775	10601	10594	9
11768	11775	10601	10603	9
11765	11766	11767	11768	9
11765	11770	11769	11768	9
11768	11769	11770	11774	9
11767	11766	11777	11778	9
11767	11766	11777	4839	9
11767	11766	11765	11770	9
11767	11766	11765	11773	9
11767	11768	11775	11776	9
11767	11768	11775	10601	9
11767	11768	11769	11770	9
11767	11768	11769	11772	9
11765	11766	11777	11778	9
11765	11766	11777	4839	9
11765	11766	11767	11771	9
11765	11770	11769	11772	9
11769	11768	11775	11776	9
11769	11768	11775	10601	9
11769	11768	11767	11771	9
11769	11770	11765	11773	9
11773	11765	11770	11774	9
11772	11769	11770	11774	9
11778	11777	4839	4832	9
11778	11777	4839	4841	9
11776	11775	10601	10594	9
11776	11775	10601	10603	9
13448	13447	13446	13457	9
13451	13447	13446	13457	9
13450	13445	13446	13457	9
13453	13445	13446	13457	9
13457	8690	8680	8679	9
13457	8690	8680	8683	9
13446	13447	13448	13455	9
13451	13447	13448	13455	9
13450	13449	13448	13455	9
13452	13449	13448	13455	9
13455	10493	10487	10488	9
13455	10493	10487	10490	9
13446	13457	8690	8680	9
13446	13457	8690	8692	9
13446	13447	13448	13449	9
13446	13445	13450	13449	9
13446	13445	13450	13454	9
13448	13455	10493	10487	9
13448	13455	10493	10494	9
13445	13446	13447	13448	9
13445	13450	13449	13448	9
13448	13449	13450	13454	9
13447	13446	13457	13458	9
13447	13446	13457	8690	9
13447	13446	13445	13450	9
13447	13446	13445	13453	9
13447	13448	13455	13456	9
13447	13448	13455	10493	9
13447	13448	13449	13450	9
13447	13448	13449	13452	9
13445	13446	13457	13458	9
13445	13446	13457	8690	9
13445	13446	13447	13451	9
13445	13450	13449	13452	9
13449	13448	13455	13456	9
13449	13448	13455	10493	9
13449	13448	13447	13451	9
13449	13450	13445	13453	9
13453	13445	13450	13454	9
13452	13449	13450	13454	9
13458	13457	8690	8680	9
13458	13457	8690	8692	9
13456	13455	10493	10487	9
13456	13455	10493	10494	9
3122	3123	3124	3131	9
3127	3123	3124	3131	9
3126	3125	3124	3131	9
3128	3125	3124	3131	9
3131	7842	7832	7831	9
3131	7842	7832	7835	9
3124	3123	3122	3133	9
3127	3123	3122	3133	9
3126	3121	3122	3133	9
3129	3121	3122	3133	9
3124	3131	7842	7832	9
3124	3131	7842	7844	9
3121	3122	3123	3124	9
3121	3126	3125	3124	9
3124	3125	3126	3130	9
3122	3123	3124	3125	9
3122	3121	3126	3125	9
3122	3121	3126	3130	9
3123	3124	3131	3132	9
3123	3124	3131	7842	9
3123	3124	3125	3126	9
3123	3124	3125	3128	9
3123	3122	3133	3134	9
3123	3122	3133	3135	9
3123	3122	3121	3126	9
3123	3122	3121	3129	9
3125	3124	3131	3132	9
3125	3124	3131	7842	9
3125	3124	3123	3127	9
3125	3126	3121	3129	9
3121	3122	3133	3134	9
3121	3122	3133	3135	9
3121	3122	3123	3127	9
3121	3126	3125	3128	9
3128	3125	3126	3130	9
3129	3121	3126	3130	9
3132	3131	7842	7832	9
3132	3131	7842	7844	9
3634	3633	3632	3643	9
3637	3633	3632	3643	9
3636	3631	3632	3643	9
3639	3631	3632	3643	9
3632	3633	3634	3641	9
3637	3633	3634	3641	9
3636	3635	3634	3641	9
3638	3635	3634	3641	9
3641	10805	10798	10797	9
3641	10805	10798	10799	9
3632	3633	3634	3635	9
3632	3631	3636	3635	9
3632	3631	3636	3640	9
3634	3641	10805	10798	9
3634	3641	10805	10807	9
3631	3632	3633	3634	9
3631	3636	3635	3634	9
3634	3635	3636	3640	9
3633	3632	3643	3645	9
3633	3632	3643	3644	9
3633	3632	3631	3636	9
3633	3632	3631	3639	9
3633	3634	3641	3642	9
3633	3634	3641	10805	9
3633	3634	3635	3636	9
3633	3634	3635	3638	9
3631	3632	3643	3645	9
3631	3632	3643	3644	9
3631	3632	3633	3637	9
3631	3636	3635	3638	9
3635	3634	3641	3642	9
3635	3634	3641	10805	9
3635	3634	3633	3637	9
3635	3636	3631	3639	9
3639	3631	3636	3640	9
3638	3635	3636	3640	9
3642	3641	10805	10798	9
3642	3641	10805	10807	9
12076	12075	12074	12085	9
12079	12075	12074	12085	9
12078	12073	12074	12085	9
12081	12073	12074	12085	9
12085	7841	7834	7835	9
12085	7841	7834	7833	9
12074	12075	12076	12083	9
12079	12075	12076	12083	9
12078	12077	12076	12083	9
12080	12077	12076	12083	9
12083	5495	5485	5484	9
12083	5495	5485	5488	9
12074	12085	7841	7834	9
12074	12085	7841	7843	9
12074	12075	12076	12077	9
12074	12073	12078	12077	9
12074	12073	12078	12082	9
12076	12083	5495	5485	9
12076	12083	5495	5497	9
12073	12074	12075	12076	9
12073	12078	12077	12076	9
12076	12077	12078	12082	9
12075	12074	12085	12086	9
12075	12074	12085	7841	9
12075	12074	12073	12078	9
12075	12074	12073	12081	9
12075	12076	12083	12084	9
12075	12076	12083	5495	9
12075	12076	12077	12078	9
12075	12076	12077	12080	9
12073	12074	12085	12086	9
12073	12074	12085	7841	9
12073	12074	12075	12079	9
12073	12078	12077	12080	9
12077	12076	12083	12084	9
12077	12076	12083	5495	9
12077	12076	12075	12079	9
12077	12078	12073	12081	9
12081	12073	12078	12082	9
12080	12077	12078	12082	9
12086	12085	7841	7834	9
12086	12085	7841	7843	9
12084	12083	5495	5485	9
12084	12083	5495	5497	9
13180	13181	13182	13189	9
13185	13181	13182	13189	9
13184	13183	13182	13189	9
13186	13183	13182	13189	9
13189	8646	8636	8639	9
13189	8646	8636	8635	9
13182	13181	13180	13191	9
13185	13181	13180	13191	9
13184	13179	13180	13191	9
13187	13179	13180	13191	9
13191	8002	7992	7991	9
13191	8002	7992	7995	9
13182	13189	8646	8636	9
13182	13189	8646	8648	9
13179	13180	13181	13182	9
13179	13184	13183	13182	9
13182	13183	13184	13188	9
13180	13191	8002	7992	9
13180	13191	8002	8004	9
13180	13181	13182	13183	9
13180	13179	13184	13183	9
13180	13179	13184	13188	9
13181	13182	13189	13190	9
13181	13182	13189	8646	9
13181	13182	13183	13184	9
13181	13182	13183	13186	9
13181	13180	13191	13192	9
13181	13180	13191	8002	9
13181	13180	13179	13184	9
13181	13180	13179	13187	9
13183	13182	13189	13190	9
13183	13182	13189	8646	9
13183	13182	13181	13185	9
13183	13184	13179	13187	9
13179	13180	13191	13192	9
13179	13180	13191	8002	9
13179	13180	13181	13185	9
13179	13184	13183	13186	9
13186	13183	13184	13188	9
13187	13179	13184	13188	9
13190	13189	8646	8636	9
13190	13189	8646	8648	9
13192	13191	8002	7992	9
13192	13191	8002	8004	9
6071	6070	6069	6080	9
6074	6070	6069	6080	9
6073	6068	6069	6080	9
6076	6068	6069	6080	9
6080	6088	6082	6085	9
6080	6088	6082	6083	9
6069	6070	6071	6078	9
6074	6070	6071	6078	9
6073	6072	6071	6078	9
6075	6072	6071	6078	9
6078	6336	6330	6333	9
6078	6336	6330	6331	9
6069	6080	6088	6082	9
6069	6080	6088	6089	9
6069	6070	6071	6072	9
6069	6068	6073	6072	9
6069	6068	6073	6077	9
6071	6078	6336	6330	9
6071	6078	6336	6337	9
6068	6069	6070	6071	9
6068	6073	6072	6071	9
6071	6072	6073	6077	9
6070	6069	6080	6081	9
6070	6069	6080	6088	9
6070	6069	6068	6073	9
6070	6069	6068	6076	9
6070	6071	6078	6079	9
6070	6071	6078	6336	9
6070	6071	6072	6073	9
6070	6071	6072	6075	9
6068	6069	6080	6081	9
6068	6069	6080	6088	9
6068	6069	6070	6074	9
6068	6073	6072	6075	9
6072	6071	6078	6079	9
6072	6071	6078	6336	9
6072	6071	6070	6074	9
6072	6073	6068	6076	9
6076	6068	6073	6077	9
6075	6072	6073	6077	9
6081	6080	6088	6082	9
6081	6080	6088	6089	9
6079	6078	6336	6330	9
6079	6078	6336	6337	9
3557	3558	3559	3566	9
3562	3558	3559	3566	9
3561	3560	3559	3566	9
3563	3560	3559	3566	9
3566	9944	9937	9938	9
3566	9944	9937	9936	9
3559	3558	3557	3568	9
3562	3558	3557	3568	9
3561	3556	3557	3568	9
3564	3556	3557	3568	9
3559	3566	9944	9937	9
3559	3566	9944	9946	9
3556	3557	3558	3559	9
3556	3561	3560	3559	9
3559	3560	3561	3565	9
3557	3558	3559	3560	9
3557	3556	3561	3560	9
3557	3556	3561	3565	9
3558	3559	3566	3567	9
3558	3559	3566	9944	9
3558	3559	3560	3561	9
3558	3559	3560	3563	9
3558	3557	3568	3569	9
3558	3557	3568	3570	9
3558	3557	3556	3561	9
3558	3557	3556	3564	9
3560	3559	3566	3567	9
3560	3559	3566	9944	9
3560	3559	3558	3562	9
3560	3561	3556	3564	9
3556	3557	3568	3569	9
3556	3557	3568	3570	9
3556	3557	3558	3562	9
3556	3561	3560	3563	9
3563	3560	3561	3565	9
3564	3556	3561	3565	9
3567	3566	9944	9937	9
3567	3566	9944	9946	9
8448	8447	8446	8457	9
8451	8447	8446	8457	9
8450	8445	8446	8457	9
8453	8445	8446	8457	9
8457	8465	8459	8460	9
8457	8465	8459	8462	9
8446	8447	8448	8455	9
8451	8447	8448	8455	9
8450	8449	8448	8455	9
8452	8449	8448	8455	9
8455	5641	5631	5634	9
8455	5641	5631	5630	9
8446	8457	8465	8459	9
8446	8457	8465	8466	9
8446	8447	8448	8449	9
8446	8445	8450	8449	9
8446	8445	8450	8454	9
8448	8455	5641	5631	9
8448	8455	5641	5643	9
8445	8446	8447	8448	9
8445	8450	8449	8448	9
8448	8449	8450	8454	9
8447	8446	8457	8458	9
8447	8446	8457	8465	9
8447	8446	8445	8450	9
8447	8446	8445	8453	9
8447	8448	8455	8456	9
8447	8448	8455	5641	9
8447	8448	8449	8450	9
8447	8448	8449	8452	9
8445	8446	8457	8458	9
8445	8446	8457	8465	9
8445	8446	8447	8451	9
8445	8450	8449	8452	9
8449	8448	8455	8456	9
8449	8448	8455	5641	9
8449	8448	8447	8451	9
8449	8450	8445	8453	9
8453	8445	8450	8454	9
8452	8449	8450	8454	9
8458	8457	8465	8459	9
8458	8457	8465	8466	9
8456	8455	5641	5631	9
8456	8455	5641	5643	9
7482	7483	7484	7491	9
7487	7483	7484	7491	9
7486	7485	7484	7491	9
7488	7485	7484	7491	9
7491	8333	8327	8328	9
7491	8333	8327	8330	9
7484	7483	7482	7493	9
7487	7483	7482	7493	9
7486	7481	7482	7493	9
7489	7481	7482	7493	9
7493	7501	7495	7498	9
7493	7501	7495	7496	9
7484	7491	8333	8327	9
7484	7491	8333	8334	9
7484	7483	7482	7481	9
7484	7485	7486	7481	9
7484	7485	7486	7490	9
7482	7493	7501	7495	9
7482	7493	7501	7502	9
7485	7484	7483	7482	9
7485	7486	7481	7482	9
7482	7481	7486	7490	9
7483	7484	7491	7492	9
7483	7484	7491	8333	9
7483	7484	7485	7486	9
7483	7484	7485	7488	9
7483	7482	7493	7494	9
7483	7482	7493	7501	9
7483	7482	7481	7486	9
7483	7482	7481	7489	9
7485	7484	7491	7492	9
7485	7484	7491	8333	9
7485	7484	7483	7487	9
7485	7486	7481	7489	9
7481	7482	7493	7494	9
7481	7482	7493	7501	9
7481	7482	7483	7487	9
7481	7486	7485	7488	9
7488	7485	7486	7490	9
7489	7481	7486	7490	9
7492	7491	8333	8327	9
7492	7491	8333	8334	9
7494	7493	7501	7495	9
7494	7493	7501	7502	9
13278	13279	13280	13287	9
13283	13279	13280	13287	9
13282	13281	13280	13287	9
13284	13281	13280	13287	9
13287	10878	10871	10870	9
13287	10878	10871	10872	9
13280	13279	13278	13289	9
13283	13279	13278	13289	9
13282	13277	13278	13289	9
13285	13277	13278	13289	9
13289	8220	8213	8212	9
13289	8220	8213	8214	9
13280	13287	10878	10871	9
13280	13287	10878	10880	9
13277	13278	13279	13280	9
13277	13282	13281	13280	9
13280	13281	13282	13286	9
13278	13289	8220	8213	9
13278	13289	8220	8222	9
13278	13279	13280	13281	9
13278	13277	13282	13281	9
13278	13277	13282	13286	9
13279	13280	13287	13288	9
13279	13280	13287	10878	9
13279	13280	13281	13282	9
13279	13280	13281	13284	9
13279	13278	13289	13290	9
13279	13278	13289	8220	9
13279	13278	13277	13282	9
13279	13278	13277	13285	9
13281	13280	13287	13288	9
13281	13280	13287	10878	9
13281	13280	13279	13283	9
13281	13282	13277	13285	9
13277	13278	13289	13290	9
13277	13278	13289	8220	9
13277	13278	13279	13283	9
13277	13282	13281	13284	9
13284	13281	13282	13286	9
13285	13277	13282	13286	9
13288	13287	10878	10871	9
13288	13287	10878	10880	9
13290	13289	8220	8213	9
13290	13289	8220	8222	9
4614	4613	4612	4623	9
4617	4613	4612	4623	9
4616	4611	4612	4623	9
4619	4611	4612	4623	9
4623	4631	4625	4626	9
4623	4631	4625	4628	9
4612	4613	4614	4621	9
4617	4613	4614	4621	9
4616	4615	4614	4621	9
4618	4615	4614	4621	9
4621	6248	6242	6245	9
4621	6248	6242	6243	9
4612	4623	4631	4625	9
4612	4623	4631	4632	9
4612	4613	4614	4615	9
4612	4611	4616	4615	9
4612	4611	4616	4620	9
4614	4621	6248	6242	9
4614	4621	6248	6249	9
4611	4612	4613	4614	9
4611	4616	4615	4614	9
4614	4615	4616	4620	9
4613	4612	4623	4624	9
4613	4612	4623	4631	9
4613	4612	4611	4616	9
4613	4612	4611	4619	9
4613	4614	4621	4622	9
4613	4614	4621	6248	9
4613	4614	4615	4616	9
4613	4614	4615	4618	9
4611	4612	4623	4624	9
4611	4612	4623	4631	9
4611	4612	4613	4617	9
4611	4616	4615	4618	9
4615	4614	4621	4622	9
4615	4614	4621	6248	9
4615	4614	4613	4617	9
4615	4616	4611	4619	9
4619	4611	4616	4620	9
4618	4615	4616	4620	9
4624	4623	4631	4625	9
4624	4623	4631	4632	9
4622	4621	6248	6242	9
4622	4621	6248	6249	9
13754	13755	13756	13763	9
13759	13755	13756	13763	9
13758	13757	13756	13763	9
13760	13757	13756	13763	9
13763	11100	11090	11089	9
13763	11100	11090	11093	9
13756	13755	13754	13765	9
13759	13755	13754	13765	9
13758	13753	13754	13765	9
13761	13753	13754	13765	9
13765	10951	10944	10945	9
13765	10951	10944	10943	9
13756	13763	11100	11090	9
13756	13763	11100	11102	9
13753	13754	13755	13756	9
13753	13758	13757	13756	9
13756	13757	13758	13762	9
13754	13765	10951	10944	9
13754	13765	10951	10953	9
13754	13755	13756	13757	9
13754	13753	13758	13757	9
13754	13753	13758	13762	9
13755	13756	13763	13764	9
13755	13756	13763	11100	9
13755	13756	13757	13758	9
13755	13756	13757	13760	9
13755	13754	13765	13766	9
13755	13754	13765	10951	9
13755	13754	13753	13758	9
13755	13754	13753	13761	9
13757	13756	13763	13764	9
13757	13756	13763	11100	9
13757	13756	13755	13759	9
13757	13758	13753	13761	9
13753	13754	13765	13766	9
13753	13754	13765	10951	9
13753	13754	13755	13759	9
13753	13758	13757	13760	9
13760	13757	13758	13762	9
13761	13753	13758	13762	9
13764	13763	11100	11090	9
13764	13763	11100	11102	9
13766	13765	10951	10944	9
13766	13765	10951	10953	9
13266	13265	13264	13275	9
13269	13265	13264	13275	9
13268	13263	13264	13275	9
13271	13263	13264	13275	9
13275	10776	10769	10768	9
13275	10776	10769	10770	9
13264	13265	13266	13273	9
13269	13265	13266	13273	9
13268	13267	13266	13273	9
13270	13267	13266	13273	9
13273	8221	8211	8214	9
13273	8221	8211	8210	9
13264	13275	10776	10769	9
13264	13275	10776	10778	9
13264	13265	13266	13267	9
13264	13263	13268	13267	9
13264	13263	13268	13272	9
13266	13273	8221	8211	9
13266	13273	8221	8223	9
13263	13264	13265	13266	9
13263	13268	13267	13266	9
13266	13267	13268	13272	9
13265	13264	13275	13276	9
13265	13264	13275	10776	9
13265	13264	13263	13268	9
13265	13264	13263	13271	9
13265	13266	13273	13274	9
13265	13266	13273	8221	9
13265	13266	13267	13268	9
13265	13266	13267	13270	9
13263	13264	13275	13276	9
13263	13264	13275	10776	9
13263	13264	13265	13269	9
13263	13268	13267	13270	9
13267	13266	13273	13274	9
13267	13266	13273	8221	9
13267	13266	13265	13269	9
13267	13268	13263	13271	9
13271	13263	13268	13272	9
13270	13267	13268	13272	9
13276	13275	10776	10769	9
13276	13275	10776	10778	9
13274	13273	8221	8211	9
13274	13273	8221	8223	9
2054	2053	2052	2063	9
2057	2053	2052	2063	9
2056	2051	2052	2063	9
2059	2051	2052	2063	9
2035	2034	2040	2063	9
2037	2034	2040	2063	9
2052	2053	2054	2061	9
2057	2053	2054	2061	9
2056	2055	2054	2061	9
2058	2055	2054	2061	9
2061	10762	10752	10755	9
2061	10762	10752	10751	9
2034	2040	2063	2052	9
2041	2040	2063	2052	9
2052	2053	2054	2055	9
2052	2051	2056	2055	9
2052	2051	2056	2060	9
2054	2061	10762	10752	9
2054	2061	10762	10764	9
2051	2052	2053	2054	9
2051	2056	2055	2054	9
2054	2055	2056	2060	9
2053	2052	2063	2064	9
2040	2063	2052	2053	9
2053	2052	2051	2056	9
2053	2052	2051	2059	9
2053	2054	2061	2062	9
2053	2054	2061	10762	9
2053	2054	2055	2056	9
2053	2054	2055	2058	9
2051	2052	2063	2064	9
2040	2063	2052	2051	9
2051	2052	2053	2057	9
2051	2056	2055	2058	9
2055	2054	2061	2062	9
2055	2054	2061	10762	9
2055	2054	2053	2057	9
2055	2056	2051	2059	9
2059	2051	2056	2060	9
2058	2055	2056	2060	9
2034	2040	2063	2064	9
2041	2040	2063	2064	9
2062	2061	10762	10752	9
2062	2061	10762	10764	9
12060	12061	12062	12069	9
12065	12061	12062	12069	9
12064	12063	12062	12069	9
12066	12063	12062	12069	9
12069	5480	5470	5473	9
12069	5480	5470	5469	9
12062	12061	12060	12071	9
12065	12061	12060	12071	9
12064	12059	12060	12071	9
12067	12059	12060	12071	9
12071	10411	10401	10400	9
12071	10411	10401	10404	9
12062	12069	5480	5470	9
12062	12069	5480	5482	9
12062	12061	12060	12059	9
12062	12063	12064	12059	9
12062	12063	12064	12068	9
12060	12071	10411	10401	9
12060	12071	10411	10413	9
12063	12062	12061	12060	9
12063	12064	12059	12060	9
12060	12059	12064	12068	9
12061	12062	12069	12070	9
12061	12062	12069	5480	9
12061	12062	12063	12064	9
12061	12062	12063	12066	9
12061	12060	12071	12072	9
12061	12060	12071	10411	9
12061	12060	12059	12064	9
12061	12060	12059	12067	9
12063	12062	12069	12070	9
12063	12062	12069	5480	9
12063	12062	12061	12065	9
12063	12064	12059	12067	9
12059	12060	12071	12072	9
12059	12060	12071	10411	9
12059	12060	12061	12065	9
12059	12064	12063	12066	9
12066	12063	12064	12068	9
12067	12059	12064	12068	9
12070	12069	5480	5470	9
12070	12069	5480	5482	9
12072	12071	10411	10401	9
12072	12071	10411	10413	9
4498	4497	4496	4507	9
4501	4497	4496	4507	9
4500	4495	4496	4507	9
4503	4495	4496	4507	9
4507	8544	8534	8533	9
4507	8544	8534	8537	9
4496	4497	4498	4505	9
4501	4497	4498	4505	9
4500	4499	4498	4505	9
4502	4499	4498	4505	9
4505	4515	4509	4510	9
4505	4515	4509	4512	9
4496	4507	8544	8534	9
4496	4507	8544	8546	9
4496	4497	4498	4499	9
4496	4495	4500	4499	9
4496	4495	4500	4504	9
4498	4505	4515	4509	9
4498	4505	4515	4516	9
4495	4496	4497	4498	9
4495	4500	4499	4498	9
4498	4499	4500	4504	9
4497	4496	4507	4508	9
4497	4496	4507	8544	9
4497	4496	4495	4500	9
4497	4496	4495	4503	9
4497	4498	4505	4506	9
4497	4498	4505	4515	9
4497	4498	4499	4500	9
4497	4498	4499	4502	9
4495	4496	4507	4508	9
4495	4496	4507	8544	9
4495	4496	4497	4501	9
4495	4500	4499	4502	9
4499	4498	4505	4506	9
4499	4498	4505	4515	9
4499	4498	4497	4501	9
4499	4500	4495	4503	9
4503	4495	4500	4504	9
4502	4499	4500	4504	9
4508	4507	8544	8534	9
4508	4507	8544	8546	9
4506	4505	4515	4509	9
4506	4505	4515	4516	9
931	932	933	940	9
936	932	933	940	9
935	934	933	940	9
937	934	933	940	9
940	8230	8224	8225	9
940	8230	8224	8227	9
933	932	931	942	9
936	932	931	942	9
935	930	931	942	9
938	930	931	942	9
916	913	919	942	9
914	913	919	942	9
933	940	8230	8224	9
933	940	8230	8231	9
930	931	932	933	9
930	935	934	933	9
933	934	935	939	9
913	919	942	931	9
920	919	942	931	9
931	932	933	934	9
931	930	935	934	9
931	930	935	939	9
932	933	940	941	9
932	933	940	8230	9
932	933	934	935	9
932	933	934	937	9
932	931	942	943	9
919	942	931	932	9
932	931	930	935	9
932	931	930	938	9
934	933	940	941	9
934	933	940	8230	9
934	933	932	936	9
934	935	930	938	9
930	931	942	943	9
919	942	931	930	9
930	931	932	936	9
930	935	934	937	9
937	934	935	939	9
938	930	935	939	9
941	940	8230	8224	9
941	940	8230	8231	9
913	919	942	943	9
920	919	942	943	9
2929	2928	2927	2938	9
2932	2928	2927	2938	9
2931	2926	2927	2938	9
2934	2926	2927	2938	9
2927	2928	2929	2936	9
2932	2928	2929	2936	9
2931	2930	2929	2936	9
2933	2930	2929	2936	9
2936	6021	6011	6014	9
2936	6021	6011	6010	9
2927	2928	2929	2930	9
2927	2926	2931	2930	9
2927	2926	2931	2935	9
2929	2936	6021	6011	9
2929	2936	6021	6023	9
2926	2927	2928	2929	9
2926	2931	2930	2929	9
2929	2930	2931	2935	9
2928	2927	2938	2939	9
2928	2927	2938	2940	9
2928	2927	2926	2931	9
2928	2927	2926	2934	9
2928	2929	2936	2937	9
2928	2929	2936	6021	9
2928	2929	2930	2931	9
2928	2929	2930	2933	9
2926	2927	2938	2939	9
2926	2927	2938	2940	9
2926	2927	2928	2932	9
2926	2931	2930	2933	9
2930	2929	2936	2937	9
2930	2929	2936	6021	9
2930	2929	2928	2932	9
2930	2931	2926	2934	9
2934	2926	2931	2935	9
2933	2930	2931	2935	9
2937	2936	6021	6011	9
2937	2936	6021	6023	9
5998	5997	5996	6007	9
6001	5997	5996	6007	9
6000	5995	5996	6007	9
6003	5995	5996	6007	9
6007	6015	6009	6012	9
6007	6015	6009	6010	9
5996	5997	5998	6005	9
6001	5997	5998	6005	9
6000	5999	5998	6005	9
6002	5999	5998	6005	9
6005	6298	6288	6291	9
6005	6298	6288	6287	9
5996	6007	6015	6009	9
5996	6007	6015	6016	9
5996	5997	5998	5999	9
5996	5995	6000	5999	9
5996	5995	6000	6004	9
5998	6005	6298	6288	9
5998	6005	6298	6300	9
5995	5996	5997	5998	9
5995	6000	5999	5998	9
5998	5999	6000	6004	9
5997	5996	6007	6008	9
5997	5996	6007	6015	9
5997	5996	5995	6000	9
5997	5996	5995	6003	9
5997	5998	6005	6006	9
5997	5998	6005	6298	9
5997	5998	5999	6000	9
5997	5998	5999	6002	9
5995	5996	6007	6008	9
5995	5996	6007	6015	9
5995	5996	5997	6001	9
5995	6000	5999	6002	9
5999	5998	6005	6006	9
5999	5998	6005	6298	9
5999	5998	5997	6001	9
5999	6000	5995	6003	9
6003	5995	6000	6004	9
6002	5999	6000	6004	9
6008	6007	6015	6009	9
6008	6007	6015	6016	9
6006	6005	6298	6288	9
6006	6005	6298	6300	9
12888	12887	12886	12897	9
12891	12887	12886	12897	9
12890	12885	12886	12897	9
12893	12885	12886	12897	9
12897	7113	7106	7107	9
12897	7113	7106	7105	9
12886	12887	12888	12895	9
12891	12887	12888	12895	9
12890	12889	12888	12895	9
12892	12889	12888	12895	9
12895	10380	10373	10374	9
12895	10380	10373	10372	9
12886	12897	7113	7106	9
12886	12897	7113	7115	9
12886	12887	12888	12889	9
12886	12885	12890	12889	9
12886	12885	12890	12894	9
12888	12895	10380	10373	9
12888	12895	10380	10382	9
12885	12886	12887	12888	9
12885	12890	12889	12888	9
12888	12889	12890	12894	9
12887	12886	12897	12898	9
12887	12886	12897	7113	9
12887	12886	12885	12890	9
12887	12886	12885	12893	9
12887	12888	12895	12896	9
12887	12888	12895	10380	9
12887	12888	12889	12890	9
12887	12888	12889	12892	9
12885	12886	12897	12898	9
12885	12886	12897	7113	9
12885	12886	12887	12891	9
12885	12890	12889	12892	9
12889	12888	12895	12896	9
12889	12888	12895	10380	9
12889	12888	12887	12891	9
12889	12890	12885	12893	9
12893	12885	12890	12894	9
12892	12889	12890	12894	9
12898	12897	7113	7106	9
12898	12897	7113	7115	9
12896	12895	10380	10373	9
12896	12895	10380	10382	9
3677	3678	3679	3686	9
3682	3678	3679	3686	9
3681	3680	3679	3686	9
3683	3680	3679	3686	9
3686	10996	10986	10989	9
3686	10996	10986	10985	9
3679	3678	3677	3688	9
3682	3678	3677	3688	9
3681	3676	3677	3688	9
3684	3676	3677	3688	9
3679	3686	10996	10986	9
3679	3686	10996	10998	9
3676	3677	3678	3679	9
3676	3681	3680	3679	9
3679	3680	3681	3685	9
3677	3678	3679	3680	9
3677	3676	3681	3680	9
3677	3676	3681	3685	9
3678	3679	3686	3687	9
3678	3679	3686	10996	9
3678	3679	3680	3681	9
3678	3679	3680	3683	9
3678	3677	3688	3689	9
3678	3677	3688	3690	9
3678	3677	3676	3681	9
3678	3677	3676	3684	9
3680	3679	3686	3687	9
3680	3679	3686	10996	9
3680	3679	3678	3682	9
3680	3681	3676	3684	9
3676	3677	3688	3689	9
3676	3677	3688	3690	9
3676	3677	3678	3682	9
3676	3681	3680	3683	9
3683	3680	3681	3685	9
3684	3676	3681	3685	9
3687	3686	10996	10986	9
3687	3686	10996	10998	9
3722	3723	3724	3731	9
3727	3723	3724	3731	9
3726	3725	3724	3731	9
3728	3725	3724	3731	9
3731	11020	11014	11017	9
3731	11020	11014	11015	9
3724	3723	3722	3733	9
3727	3723	3722	3733	9
3726	3721	3722	3733	9
3729	3721	3722	3733	9
3724	3731	11020	11014	9
3724	3731	11020	11021	9
3721	3722	3723	3724	9
3721	3726	3725	3724	9
3724	3725	3726	3730	9
3722	3723	3724	3725	9
3722	3721	3726	3725	9
3722	3721	3726	3730	9
3723	3724	3731	3732	9
3723	3724	3731	11020	9
3723	3724	3725	3726	9
3723	3724	3725	3728	9
3723	3722	3733	3734	9
3723	3722	3733	3735	9
3723	3722	3721	3726	9
3723	3722	3721	3729	9
3725	3724	3731	3732	9
3725	3724	3731	11020	9
3725	3724	3723	3727	9
3725	3726	3721	3729	9
3721	3722	3733	3734	9
3721	3722	3733	3735	9
3721	3722	3723	3727	9
3721	3726	3725	3728	9
3728	3725	3726	3730	9
3729	3721	3726	3730	9
3732	3731	11020	11014	9
3732	3731	11020	11021	9
4409	4410	4411	4418	9
4414	4410	4411	4418	9
4413	4412	4411	4418	9
4415	4412	4411	4418	9
4418	4428	4422	4423	9
4418	4428	4422	4425	9
4411	4410	4409	4420	9
4414	4410	4409	4420	9
4413	4408	4409	4420	9
4416	4408	4409	4420	9
4420	11011	11001	11004	9
4420	11011	11001	11000	9
4411	4418	4428	4422	9
4411	4418	4428	4429	9
4408	4409	4410	4411	9
4408	4413	4412	4411	9
4411	4412	4413	4417	9
4409	4420	11011	11001	9
4409	4420	11011	11013	9
4409	4410	4411	4412	9
4409	4408	4413	4412	9
4409	4408	4413	4417	9
4410	4411	4418	4419	9
4410	4411	4418	4428	9
4410	4411	4412	4413	9
4410	4411	4412	4415	9
4410	4409	4420	4421	9
4410	4409	4420	11011	9
4410	4409	4408	4413	9
4410	4409	4408	4416	9
4412	4411	4418	4419	9
4412	4411	4418	4428	9
4412	4411	4410	4414	9
4412	4413	4408	4416	9
4408	4409	4420	4421	9
4408	4409	4420	11011	9
4408	4409	4410	4414	9
4408	4413	4412	4415	9
4415	4412	4413	4417	9
4416	4408	4413	4417	9
4419	4418	4428	4422	9
4419	4418	4428	4429	9
4421	4420	11011	11001	9
4421	4420	11011	11013	9
5662	5661	5660	5671	9
5665	5661	5660	5671	9
5664	5659	5660	5671	9
5667	5659	5660	5671	9
5671	7813	7803	7802	9
5671	7813	7803	7806	9
5660	5661	5662	5669	9
5665	5661	5662	5669	9
5664	5663	5662	5669	9
5666	5663	5662	5669	9
5669	5679	5673	5676	9
5669	5679	5673	5674	9
5660	5671	7813	7803	9
5660	5671	7813	7815	9
5660	5661	5662	5663	9
5660	5659	5664	5663	9
5660	5659	5664	5668	9
5662	5669	5679	5673	9
5662	5669	5679	5680	9
5659	5660	5661	5662	9
5659	5664	5663	5662	9
5662	5663	5664	5668	9
5661	5660	5671	5672	9
5661	5660	5671	7813	9
5661	5660	5659	5664	9
5661	5660	5659	5667	9
5661	5662	5669	5670	9
5661	5662	5669	5679	9
5661	5662	5663	5664	9
5661	5662	5663	5666	9
5659	5660	5671	5672	9
5659	5660	5671	7813	9
5659	5660	5661	5665	9
5659	5664	5663	5666	9
5663	5662	5669	5670	9
5663	5662	5669	5679	9
5663	5662	5661	5665	9
5663	5664	5659	5667	9
5667	5659	5664	5668	9
5666	5663	5664	5668	9
5672	5671	7813	7803	9
5672	5671	7813	7815	9
5670	5669	5679	5673	9
5670	5669	5679	5680	9
1526	1525	1524	1535	9
1529	1525	1524	1535	9
1528	1523	1524	1535	9
1531	1523	1524	1535	9
1535	6792	6785	6786	9
1535	6792	6785	6784	9
1524	1525	1526	1533	9
1529	1525	1526	1533	9
1528	1527	1526	1533	9
1530	1527	1526	1533	9
1507	1506	1512	1533	9
1509	1506	1512	1533	9
1524	1535	6792	6785	9
1524	1535	6792	6794	9
1524	1525	1526	1527	9
1524	1523	1528	1527	9
1524	1523	1528	1532	9
1506	1512	1533	1526	9
1513	1512	1533	1526	9
1523	1524	1525	1526	9
1523	1528	1527	1526	9
1526	1527	1528	1532	9
1525	1524	1535	1536	9
1525	1524	1535	6792	9
1525	1524	1523	1528	9
1525	1524	1523	1531	9
1525	1526	1533	1534	9
1512	1533	1526	1525	9
1525	1526	1527	1528	9
1525	1526	1527	1530	9
1523	1524	1535	1536	9
1523	1524	1535	6792	9
1523	1524	1525	1529	9
1523	1528	1527	1530	9
1527	1526	1533	1534	9
1512	1533	1526	1527	9
1527	1526	1525	1529	9
1527	1528	1523	1531	9
1531	1523	1528	1532	9
1530	1527	1528	1532	9
1536	1535	6792	6785	9
1536	1535	6792	6794	9
1506	1512	1533	1534	9
1513	1512	1533	1534	9
1026	1025	1024	1035	9
1029	1025	1024	1035	9
1028	1023	1024	1035	9
1031	1023	1024	1035	9
1007	1006	1012	1035	9
1009	1006	1012	1035	9
1024	1025	1026	1033	9
1029	1025	1026	1033	9
1028	1027	1026	1033	9
1030	1027	1026	1033	9
1033	10425	10418	10417	9
1033	10425	10418	10419	9
1006	1012	1035	1024	9
1013	1012	1035	1024	9
1024	1025	1026	1027	9
1024	1023	1028	1027	9
1024	1023	1028	1032	9
1026	1033	10425	10418	9
1026	1033	10425	10427	9
1023	1024	1025	1026	9
1023	1028	1027	1026	9
1026	1027	1028	1032	9
1025	1024	1035	1036	9
1012	1035	1024	1025	9
1025	1024	1023	1028	9
1025	1024	1023	1031	9
1025	1026	1033	1034	9
1025	1026	1033	10425	9
1025	1026	1027	1028	9
1025	1026	1027	1030	9
1023	1024	1035	1036	9
1012	1035	1024	1023	9
1023	1024	1025	1029	9
1023	1028	1027	1030	9
1027	1026	1033	1034	9
1027	1026	1033	10425	9
1027	1026	1025	1029	9
1027	1028	1023	1031	9
1031	1023	1028	1032	9
1030	1027	1028	1032	9
1006	1012	1035	1036	9
1013	1012	1035	1036	9
1034	1033	10425	10418	9
1034	1033	10425	10427	9
654	653	652	663	9
657	653	652	663	9
656	651	652	663	9
659	651	652	663	9
635	634	640	663	9
637	634	640	663	9
652	653	654	661	9
657	653	654	661	9
656	655	654	661	9
658	655	654	661	9
2192	2189	2195	661	9
2190	2189	2195	661	9
634	640	663	652	9
641	640	663	652	9
652	653	654	655	9
652	651	656	655	9
652	651	656	660	9
2189	2195	661	654	9
2196	2195	661	654	9
651	652	653	654	9
651	656	655	654	9
654	655	656	660	9
653	652	663	664	9
640	663	652	653	9
653	652	651	656	9
653	652	651	659	9
653	654	661	662	9
2195	661	654	653	9
653	654	655	656	9
653	654	655	658	9
651	652	663	664	9
640	663	652	651	9
651	652	653	657	9
651	656	655	658	9
655	654	661	662	9
2195	661	654	655	9
655	654	653	657	9
655	656	651	659	9
659	651	656	660	9
658	655	656	660	9
634	640	663	664	9
641	640	663	664	9
2189	2195	661	662	9
2196	2195	661	662	9
11488	11487	11486	11497	9
11491	11487	11486	11497	9
11490	11485	11486	11497	9
11493	11485	11486	11497	9
11497	8515	8505	8504	9
11497	8515	8505	8508	9
11486	11487	11488	11495	9
11491	11487	11488	11495	9
11490	11489	11488	11495	9
11492	11489	11488	11495	9
11495	4331	4324	4325	9
11495	4331	4324	4323	9
11486	11497	8515	8505	9
11486	11497	8515	8517	9
11486	11487	11488	11489	9
11486	11485	11490	11489	9
11486	11485	11490	11494	9
11488	11495	4331	4324	9
11488	11495	4331	4333	9
11485	11486	11487	11488	9
11485	11490	11489	11488	9
11488	11489	11490	11494	9
11487	11486	11497	11498	9
11487	11486	11497	8515	9
11487	11486	11485	11490	9
11487	11486	11485	11493	9
11487	11488	11495	11496	9
11487	11488	11495	4331	9
11487	11488	11489	11490	9
11487	11488	11489	11492	9
11485	11486	11497	11498	9
11485	11486	11497	8515	9
11485	11486	11487	11491	9
11485	11490	11489	11492	9
11489	11488	11495	11496	9
11489	11488	11495	4331	9
11489	11488	11487	11491	9
11489	11490	11485	11493	9
11493	11485	11490	11494	9
11492	11489	11490	11494	9
11498	11497	8515	8505	9
11498	11497	8515	8517	9
11496	11495	4331	4324	9
11496	11495	4331	4333	9
4556	4555	4554	4565	9
4559	4555	4554	4565	9
4558	4553	4554	4565	9
4561	4553	4554	4565	9
4565	7389	7382	7383	9
4565	7389	7382	7381	9
4554	4555	4556	4563	9
4559	4555	4556	4563	9
4558	4557	4556	4563	9
4560	4557	4556	4563	9
4563	4573	4567	4570	9
4563	4573	4567	4568	9
4554	4565	7389	7382	9
4554	4565	7389	7391	9
4554	4555	4556	4557	9
4554	4553	4558	4557	9
4554	4553	4558	4562	9
4556	4563	4573	4567	9
4556	4563	4573	4574	9
4553	4554	4555	4556	9
4553	4558	4557	4556	9
4556	4557	4558	4562	9
4555	4554	4565	4566	9
4555	4554	4565	7389	9
4555	4554	4553	4558	9
4555	4554	4553	4561	9
4555	4556	4563	4564	9
4555	4556	4563	4573	9
4555	4556	4557	4558	9
4555	4556	4557	4560	9
4553	4554	4565	4566	9
4553	4554	4565	7389	9
4553	4554	4555	4559	9
4553	4558	4557	4560	9
4557	4556	4563	4564	9
4557	4556	4563	4573	9
4557	4556	4555	4559	9
4557	4558	4553	4561	9
4561	4553	4558	4562	9
4560	4557	4558	4562	9
4566	4565	7389	7382	9
4566	4565	7389	7391	9
4564	4563	4573	4567	9
4564	4563	4573	4574	9
10722	10723	10724	10731	9
10727	10723	10724	10731	9
10726	10725	10724	10731	9
10728	10725	10724	10731	9
10731	10741	10735	10738	9
10731	10741	10735	10736	9
10724	10723	10722	10733	9
10727	10723	10722	10733	9
10726	10721	10722	10733	9
10729	10721	10722	10733	9
10733	4840	4830	4833	9
10733	4840	4830	4829	9
10724	10731	10741	10735	9
10724	10731	10741	10742	9
10724	10723	10722	10721	9
10724	10725	10726	10721	9
10724	10725	10726	10730	9
10722	10733	4840	4830	9
10722	10733	4840	4842	9
10725	10724	10723	10722	9
10725	10726	10721	10722	9
10722	10721	10726	10730	9
10723	10724	10731	10732	9
10723	10724	10731	10741	9
10723	10724	10725	10726	9
10723	10724	10725	10728	9
10723	10722	10733	10734	9
10723	10722	10733	4840	9
10723	10722	10721	10726	9
10723	10722	10721	10729	9
10725	10724	10731	10732	9
10725	10724	10731	10741	9
10725	10724	10723	10727	9
10725	10726	10721	10729	9
10721	10722	10733	10734	9
10721	10722	10733	4840	9
10721	10722	10723	10727	9
10721	10726	10725	10728	9
10728	10725	10726	10730	9
10729	10721	10726	10730	9
10732	10731	10741	10735	9
10732	10731	10741	10742	9
10734	10733	4840	4830	9
10734	10733	4840	4842	9
6158	6157	6156	6167	9
6161	6157	6156	6167	9
6160	6155	6156	6167	9
6163	6155	6156	6167	9
6167	10405	10399	10400	9
6167	10405	10399	10402	9
6156	6157	6158	6165	9
6161	6157	6158	6165	9
6160	6159	6158	6165	9
6162	6159	6158	6165	9
6165	6175	6169	6170	9
6165	6175	6169	6172	9
6156	6167	10405	10399	9
6156	6167	10405	10406	9
6156	6157	6158	6159	9
6156	6155	6160	6159	9
6156	6155	6160	6164	9
6158	6165	6175	6169	9
6158	6165	6175	6176	9
6155	6156	6157	6158	9
6155	6160	6159	6158	9
6158	6159	6160	6164	9
6157	6156	6167	6168	9
6157	6156	6167	10405	9
6157	6156	6155	6160	9
6157	6156	6155	6163	9
6157	6158	6165	6166	9
6157	6158	6165	6175	9
6157	6158	6159	6160	9
6157	6158	6159	6162	9
6155	6156	6167	6168	9
6155	6156	6167	10405	9
6155	6156	6157	6161	9
6155	6160	6159	6162	9
6159	6158	6165	6166	9
6159	6158	6165	6175	9
6159	6158	6157	6161	9
6159	6160	6155	6163	9
6163	6155	6160	6164	9
6162	6159	6160	6164	9
6168	6167	10405	10399	9
6168	6167	10405	10406	9
6166	6165	6175	6169	9
6166	6165	6175	6176	9
13670	13671	13672	13679	9
13675	13671	13672	13679	9
13674	13673	13672	13679	9
13676	13673	13672	13679	9
13679	10104	10097	10096	9
13679	10104	10097	10098	9
13672	13671	13670	13681	9
13675	13671	13670	13681	9
13674	13669	13670	13681	9
13677	13669	13670	13681	9
13681	10557	10550	10551	9
13681	10557	10550	10549	9
13672	13679	10104	10097	9
13672	13679	10104	10106	9
13672	13671	13670	13669	9
13672	13673	13674	13669	9
13672	13673	13674	13678	9
13670	13681	10557	10550	9
13670	13681	10557	10559	9
13673	13672	13671	13670	9
13673	13674	13669	13670	9
13670	13669	13674	13678	9
13671	13672	13679	13680	9
13671	13672	13679	10104	9
13671	13672	13673	13674	9
13671	13672	13673	13676	9
13671	13670	13681	13682	9
13671	13670	13681	10557	9
13671	13670	13669	13674	9
13671	13670	13669	13677	9
13673	13672	13679	13680	9
13673	13672	13679	10104	9
13673	13672	13671	13675	9
13673	13674	13669	13677	9
13669	13670	13681	13682	9
13669	13670	13681	10557	9
13669	13670	13671	13675	9
13669	13674	13673	13676	9
13676	13673	13674	13678	9
13677	13669	13674	13678	9
13680	13679	10104	10097	9
13680	13679	10104	10106	9
13682	13681	10557	10550	9
13682	13681	10557	10559	9
6841	6842	6843	6850	9
6846	6842	6843	6850	9
6845	6844	6843	6850	9
6847	6844	6843	6850	9
6850	6860	6854	6855	9
6850	6860	6854	6857	9
6843	6842	6841	6852	9
6846	6842	6841	6852	9
6845	6840	6841	6852	9
6848	6840	6841	6852	9
6852	4549	4542	4541	9
6852	4549	4542	4543	9
6843	6850	6860	6854	9
6843	6850	6860	6861	9
6840	6841	6842	6843	9
6840	6845	6844	6843	9
6843	6844	6845	6849	9
6841	6852	4549	4542	9
6841	6852	4549	4551	9
6841	6842	6843	6844	9
6841	6840	6845	6844	9
6841	6840	6845	6849	9
6842	6843	6850	6851	9
6842	6843	6850	6860	9
6842	6843	6844	6845	9
6842	6843	6844	6847	9
6842	6841	6852	6853	9
6842	6841	6852	4549	9
6842	6841	6840	6845	9
6842	6841	6840	6848	9
6844	6843	6850	6851	9
6844	6843	6850	6860	9
6844	6843	6842	6846	9
6844	6845	6840	6848	9
6840	6841	6852	6853	9
6840	6841	6852	4549	9
6840	6841	6842	6846	9
6840	6845	6844	6847	9
6847	6844	6845	6849	9
6848	6840	6845	6849	9
6851	6850	6860	6854	9
6851	6850	6860	6861	9
6853	6852	4549	4542	9
6853	6852	4549	4551	9
13588	13587	13586	13597	9
13591	13587	13586	13597	9
13590	13585	13586	13597	9
13593	13585	13586	13597	9
13597	10718	10708	10707	9
13597	10718	10708	10711	9
13586	13587	13588	13595	9
13591	13587	13588	13595	9
13590	13589	13588	13595	9
13592	13589	13588	13595	9
13595	9418	9411	9410	9
13595	9418	9411	9412	9
13586	13597	10718	10708	9
13586	13597	10718	10720	9
13586	13587	13588	13589	9
13586	13585	13590	13589	9
13586	13585	13590	13594	9
13588	13595	9418	9411	9
13588	13595	9418	9420	9
13585	13586	13587	13588	9
13585	13590	13589	13588	9
13588	13589	13590	13594	9
13587	13586	13597	13598	9
13587	13586	13597	10718	9
13587	13586	13585	13590	9
13587	13586	13585	13593	9
13587	13588	13595	13596	9
13587	13588	13595	9418	9
13587	13588	13589	13590	9
13587	13588	13589	13592	9
13585	13586	13597	13598	9
13585	13586	13597	10718	9
13585	13586	13587	13591	9
13585	13590	13589	13592	9
13589	13588	13595	13596	9
13589	13588	13595	9418	9
13589	13588	13587	13591	9
13589	13590	13585	13593	9
13593	13585	13590	13594	9
13592	13589	13590	13594	9
13598	13597	10718	10708	9
13598	13597	10718	10720	9
13596	13595	9418	9411	9
13596	13595	9418	9420	9
1772	1773	1774	1781	9
1777	1773	1774	1781	9
1776	1775	1774	1781	9
1778	1775	1774	1781	9
1755	1754	1760	1781	9
1757	1754	1760	1781	9
1774	1773	1772	1783	9
1777	1773	1772	1783	9
1776	1771	1772	1783	9
1779	1771	1772	1783	9
1783	8645	8638	8637	9
1783	8645	8638	8639	9
1754	1760	1781	1774	9
1761	1760	1781	1774	9
1771	1772	1773	1774	9
1771	1776	1775	1774	9
1774	1775	1776	1780	9
1772	1783	8645	8638	9
1772	1783	8645	8647	9
1772	1773	1774	1775	9
1772	1771	1776	1775	9
1772	1771	1776	1780	9
1773	1774	1781	1782	9
1760	1781	1774	1773	9
1773	1774	1775	1776	9
1773	1774	1775	1778	9
1773	1772	1783	1784	9
1773	1772	1783	8645	9
1773	1772	1771	1776	9
1773	1772	1771	1779	9
1775	1774	1781	1782	9
1760	1781	1774	1775	9
1775	1774	1773	1777	9
1775	1776	1771	1779	9
1771	1772	1783	1784	9
1771	1772	1783	8645	9
1771	1772	1773	1777	9
1771	1776	1775	1778	9
1778	1775	1776	1780	9
1779	1771	1776	1780	9
1754	1760	1781	1782	9
1761	1760	1781	1782	9
1784	1783	8645	8638	9
1784	1783	8645	8647	9
6770	6769	6768	6779	9
6773	6769	6768	6779	9
6772	6767	6768	6779	9
6775	6767	6768	6779	9
6779	10099	10093	10094	9
6779	10099	10093	10096	9
6768	6769	6770	6777	9
6773	6769	6770	6777	9
6772	6771	6770	6777	9
6774	6771	6770	6777	9
6777	6787	6781	6782	9
6777	6787	6781	6784	9
6768	6779	10099	10093	9
6768	6779	10099	10100	9
6768	6769	6770	6771	9
6768	6767	6772	6771	9
6768	6767	6772	6776	9
6770	6777	6787	6781	9
6770	6777	6787	6788	9
6767	6768	6769	6770	9
6767	6772	6771	6770	9
6770	6771	6772	6776	9
6769	6768	6779	6780	9
6769	6768	6779	10099	9
6769	6768	6767	6772	9
6769	6768	6767	6775	9
6769	6770	6777	6778	9
6769	6770	6777	6787	9
6769	6770	6771	6772	9
6769	6770	6771	6774	9
6767	6768	6779	6780	9
6767	6768	6779	10099	9
6767	6768	6769	6773	9
6767	6772	6771	6774	9
6771	6770	6777	6778	9
6771	6770	6777	6787	9
6771	6770	6769	6773	9
6771	6772	6767	6775	9
6775	6767	6772	6776	9
6774	6771	6772	6776	9
6780	6779	10099	10093	9
6780	6779	10099	10100	9
6778	6777	6787	6781	9
6778	6777	6787	6788	9
375	374	373	384	9
378	374	373	384	9
377	372	373	384	9
380	372	373	384	9
384	8289	8283	8284	9
384	8289	8283	8286	9
373	374	375	382	9
378	374	375	382	9
377	376	375	382	9
379	376	375	382	9
358	355	361	382	9
356	355	361	382	9
373	384	8289	8283	9
373	384	8289	8290	9
373	374	375	376	9
373	372	377	376	9
373	372	377	381	9
355	361	382	375	9
362	361	382	375	9
372	373	374	375	9
372	377	376	375	9
375	376	377	381	9
374	373	384	385	9
374	373	384	8289	9
374	373	372	377	9
374	373	372	380	9
374	375	382	383	9
361	382	375	374	9
374	375	376	377	9
374	375	376	379	9
372	373	384	385	9
372	373	384	8289	9
372	373	374	378	9
372	377	376	379	9
376	375	382	383	9
361	382	375	376	9
376	375	374	378	9
376	377	372	380	9
380	372	377	381	9
379	376	377	381	9
385	384	8289	8283	9
385	384	8289	8290	9
355	361	382	383	9
362	361	382	383	9
3182	3183	3184	3191	9
3187	3183	3184	3191	9
3186	3185	3184	3191	9
3188	3185	3184	3191	9
3191	8392	8386	8389	9
3191	8392	8386	8387	9
3184	3183	3182	3193	9
3187	3183	3182	3193	9
3186	3181	3182	3193	9
3189	3181	3182	3193	9
3184	3191	8392	8386	9
3184	3191	8392	8393	9
3181	3182	3183	3184	9
3181	3186	3185	3184	9
3184	3185	3186	3190	9
3182	3183	3184	3185	9
3182	3181	3186	3185	9
3182	3181	3186	3190	9
3183	3184	3191	3192	9
3183	3184	3191	8392	9
3183	3184	3185	3186	9
3183	3184	3185	3188	9
3183	3182	3193	3194	9
3183	3182	3193	3195	9
3183	3182	3181	3186	9
3183	3182	3181	3189	9
3185	3184	3191	3192	9
3185	3184	3191	8392	9
3185	3184	3183	3187	9
3185	3186	3181	3189	9
3181	3182	3193	3194	9
3181	3182	3193	3195	9
3181	3182	3183	3187	9
3181	3186	3185	3188	9
3188	3185	3186	3190	9
3189	3181	3186	3190	9
3192	3191	8392	8386	9
3192	3191	8392	8393	9
2178	2177	2176	2187	9
2181	2177	2176	2187	9
2180	2175	2176	2187	9
2183	2175	2176	2187	9
2159	2158	2164	2187	9
2161	2158	2164	2187	9
2176	2177	2178	2185	9
2181	2177	2178	2185	9
2180	2179	2178	2185	9
2182	2179	2178	2185	9
2185	4297	4291	4294	9
2185	4297	4291	4292	9
2158	2164	2187	2176	9
2165	2164	2187	2176	9
2176	2177	2178	2179	9
2176	2175	2180	2179	9
2176	2175	2180	2184	9
2178	2185	4297	4291	9
2178	2185	4297	4298	9
2175	2176	2177	2178	9
2175	2180	2179	2178	9
2178	2179	2180	2184	9
2177	2176	2187	2188	9
2164	2187	2176	2177	9
2177	2176	2175	2180	9
2177	2176	2175	2183	9
2177	2178	2185	2186	9
2177	2178	2185	4297	9
2177	2178	2179	2180	9
2177	2178	2179	2182	9
2175	2176	2187	2188	9
2164	2187	2176	2175	9
2175	2176	2177	2181	9
2175	2180	2179	2182	9
2179	2178	2185	2186	9
2179	2178	2185	4297	9
2179	2178	2177	2181	9
2179	2180	2175	2183	9
2183	2175	2180	2184	9
2182	2179	2180	2184	9
2158	2164	2187	2188	9
2165	2164	2187	2188	9
2186	2185	4297	4291	9
2186	2185	4297	4298	9
11194	11193	11192	11203	9
11197	11193	11192	11203	9
11196	11191	11192	11203	9
11199	11191	11192	11203	9
11203	4303	4293	4296	9
11203	4303	4293	4292	9
11192	11193	11194	11201	9
11197	11193	11194	11201	9
11196	11195	11194	11201	9
11198	11195	11194	11201	9
11201	3866	3859	3860	9
11201	3866	3859	3858	9
11192	11203	4303	4293	9
11192	11203	4303	4305	9
11192	11193	11194	11195	9
11192	11191	11196	11195	9
11192	11191	11196	11200	9
11194	11201	3866	3859	9
11194	11201	3866	3868	9
11191	11192	11193	11194	9
11191	11196	11195	11194	9
11194	11195	11196	11200	9
11193	11192	11203	11204	9
11193	11192	11203	4303	9
11193	11192	11191	11196	9
11193	11192	11191	11199	9
11193	11194	11201	11202	9
11193	11194	11201	3866	9
11193	11194	11195	11196	9
11193	11194	11195	11198	9
11191	11192	11203	11204	9
11191	11192	11203	4303	9
11191	11192	11193	11197	9
11191	11196	11195	11198	9
11195	11194	11201	11202	9
11195	11194	11201	3866	9
11195	11194	11193	11197	9
11195	11196	11191	11199	9
11199	11191	11196	11200	9
11198	11195	11196	11200	9
11204	11203	4303	4293	9
11204	11203	4303	4305	9
11202	11201	3866	3859	9
11202	11201	3866	3868	9
2085	2084	2083	2094	9
2088	2084	2083	2094	9
2087	2082	2083	2094	9
2090	2082	2083	2094	9
2066	2065	2071	2094	9
2068	2065	2071	2094	9
2083	2084	2085	2092	9
2088	2084	2085	2092	9
2087	2086	2085	2092	9
2089	2086	2085	2092	9
2092	6151	6144	6143	9
2092	6151	6144	6145	9
2065	2071	2094	2083	9
2072	2071	2094	2083	9
2083	2084	2085	2086	9
2083	2082	2087	2086	9
2083	2082	2087	2091	9
2085	2092	6151	6144	9
2085	2092	6151	6153	9
2082	2083	2084	2085	9
2082	2087	2086	2085	9
2085	2086	2087	2091	9
2084	2083	2094	2095	9
2071	2094	2083	2084	9
2084	2083	2082	2087	9
2084	2083	2082	2090	9
2084	2085	2092	2093	9
2084	2085	2092	6151	9
2084	2085	2086	2087	9
2084	2085	2086	2089	9
2082	2083	2094	2095	9
2071	2094	2083	2082	9
2082	2083	2084	2088	9
2082	2087	2086	2089	9
2086	2085	2092	2093	9
2086	2085	2092	6151	9
2086	2085	2084	2088	9
2086	2087	2082	2090	9
2090	2082	2087	2091	9
2089	2086	2087	2091	9
2065	2071	2094	2095	9
2072	2071	2094	2095	9
2093	2092	6151	6144	9
2093	2092	6151	6153	9
12634	12635	12636	12643	9
12639	12635	12636	12643	9
12638	12637	12636	12643	9
12640	12637	12636	12643	9
12643	10747	10737	10740	9
12643	10747	10737	10736	9
12636	12635	12634	12645	9
12639	12635	12634	12645	9
12638	12633	12634	12645	9
12641	12633	12634	12645	9
12645	6357	6347	6346	9
12645	6357	6347	6350	9
12636	12643	10747	10737	9
12636	12643	10747	10749	9
12636	12635	12634	12633	9
12636	12637	12638	12633	9
12636	12637	12638	12642	9
12634	12645	6357	6347	9
12634	12645	6357	6359	9
12637	12636	12635	12634	9
12637	12638	12633	12634	9
12634	12633	12638	12642	9
12635	12636	12643	12644	9
12635	12636	12643	10747	9
12635	12636	12637	12638	9
12635	12636	12637	12640	9
12635	12634	12645	12646	9
12635	12634	12645	6357	9
12635	12634	12633	12638	9
12635	12634	12633	12641	9
12637	12636	12643	12644	9
12637	12636	12643	10747	9
12637	12636	12635	12639	9
12637	12638	12633	12641	9
12633	12634	12645	12646	9
12633	12634	12645	6357	9
12633	12634	12635	12639	9
12633	12638	12637	12640	9
12640	12637	12638	12642	9
12641	12633	12638	12642	9
12644	12643	10747	10737	9
12644	12643	10747	10749	9
12646	12645	6357	6347	9
12646	12645	6357	6359	9
6945	6944	6943	6954	9
6948	6944	6943	6954	9
6947	6942	6943	6954	9
6950	6942	6943	6954	9
6954	6962	6956	6957	9
6954	6962	6956	6959	9
6943	6944	6945	6952	9
6948	6944	6945	6952	9
6947	6946	6945	6952	9
6949	6946	6945	6952	9
2006	2007	2014	6952	9
2008	2007	2014	6952	9
6943	6954	6962	6956	9
6943	6954	6962	6963	9
6943	6944	6945	6946	9
6943	6942	6947	6946	9
6943	6942	6947	6951	9
2007	2014	6952	6945	9
2016	2014	6952	6945	9
6942	6943	6944	6945	9
6942	6947	6946	6945	9
6945	6946	6947	6951	9
6944	6943	6954	6955	9
6944	6943	6954	6962	9
6944	6943	6942	6947	9
6944	6943	6942	6950	9
6944	6945	6952	6953	9
2014	6952	6945	6944	9
6944	6945	6946	6947	9
6944	6945	6946	6949	9
6942	6943	6954	6955	9
6942	6943	6954	6962	9
6942	6943	6944	6948	9
6942	6947	6946	6949	9
6946	6945	6952	6953	9
2014	6952	6945	6946	9
6946	6945	6944	6948	9
6946	6947	6942	6950	9
6950	6942	6947	6951	9
6949	6946	6947	6951	9
6955	6954	6962	6956	9
6955	6954	6962	6963	9
2007	2014	6952	6953	9
2016	2014	6952	6953	9
11808	11809	11810	11817	9
11813	11809	11810	11817	9
11812	11811	11810	11817	9
11814	11811	11810	11817	9
11817	8982	8972	8975	9
11817	8982	8972	8971	9
11810	11809	11808	11819	9
11813	11809	11808	11819	9
11812	11807	11808	11819	9
11815	11807	11808	11819	9
11819	4883	4876	4875	9
11819	4883	4876	4877	9
11810	11817	8982	8972	9
11810	11817	8982	8984	9
11807	11808	11809	11810	9
11807	11812	11811	11810	9
11810	11811	11812	11816	9
11808	11819	4883	4876	9
11808	11819	4883	4885	9
11808	11809	11810	11811	9
11808	11807	11812	11811	9
11808	11807	11812	11816	9
11809	11810	11817	11818	9
11809	11810	11817	8982	9
11809	11810	11811	11812	9
11809	11810	11811	11814	9
11809	11808	11819	11820	9
11809	11808	11819	4883	9
11809	11808	11807	11812	9
11809	11808	11807	11815	9
11811	11810	11817	11818	9
11811	11810	11817	8982	9
11811	11810	11809	11813	9
11811	11812	11807	11815	9
11807	11808	11819	11820	9
11807	11808	11819	4883	9
11807	11808	11809	11813	9
11807	11812	11811	11814	9
11814	11811	11812	11816	9
11815	11807	11812	11816	9
11818	11817	8982	8972	9
11818	11817	8982	8984	9
11820	11819	4883	4876	9
11820	11819	4883	4885	9
1896	1897	1898	1905	9
1901	1897	1898	1905	9
1900	1899	1898	1905	9
1902	1899	1898	1905	9
1905	5358	5352	5355	9
1905	5358	5352	5353	9
1898	1897	1896	1907	9
1901	1897	1896	1907	9
1900	1895	1896	1907	9
1903	1895	1896	1907	9
1879	1878	1884	1907	9
1881	1878	1884	1907	9
1898	1905	5358	5352	9
1898	1905	5358	5359	9
1898	1897	1896	1895	9
1898	1899	1900	1895	9
1898	1899	1900	1904	9
1878	1884	1907	1896	9
1885	1884	1907	1896	9
1899	1898	1897	1896	9
1899	1900	1895	1896	9
1896	1895	1900	1904	9
1897	1898	1905	1906	9
1897	1898	1905	5358	9
1897	1898	1899	1900	9
1897	1898	1899	1902	9
1897	1896	1907	1908	9
1884	1907	1896	1897	9
1897	1896	1895	1900	9
1897	1896	1895	1903	9
1899	1898	1905	1906	9
1899	1898	1905	5358	9
1899	1898	1897	1901	9
1899	1900	1895	1903	9
1895	1896	1907	1908	9
1884	1907	1896	1895	9
1895	1896	1897	1901	9
1895	1900	1899	1902	9
1902	1899	1900	1904	9
1903	1895	1900	1904	9
1906	1905	5358	5352	9
1906	1905	5358	5359	9
1878	1884	1907	1908	9
1885	1884	1907	1908	9
12160	12159	12158	12169	9
12163	12159	12158	12169	9
12162	12157	12158	12169	9
12165	12157	12158	12169	9
12169	5597	5587	5586	9
12169	5597	5587	5590	9
12158	12159	12160	12167	9
12163	12159	12160	12167	9
12162	12161	12160	12167	9
12164	12161	12160	12167	9
12167	9447	9440	9439	9
12167	9447	9440	9441	9
12158	12169	5597	5587	9
12158	12169	5597	5599	9
12158	12159	12160	12161	9
12158	12157	12162	12161	9
12158	12157	12162	12166	9
12160	12167	9447	9440	9
12160	12167	9447	9449	9
12157	12158	12159	12160	9
12157	12162	12161	12160	9
12160	12161	12162	12166	9
12159	12158	12169	12170	9
12159	12158	12169	5597	9
12159	12158	12157	12162	9
12159	12158	12157	12165	9
12159	12160	12167	12168	9
12159	12160	12167	9447	9
12159	12160	12161	12162	9
12159	12160	12161	12164	9
12157	12158	12169	12170	9
12157	12158	12169	5597	9
12157	12158	12159	12163	9
12157	12162	12161	12164	9
12161	12160	12167	12168	9
12161	12160	12167	9447	9
12161	12160	12159	12163	9
12161	12162	12157	12165	9
12165	12157	12162	12166	9
12164	12161	12162	12166	9
12170	12169	5597	5587	9
12170	12169	5597	5599	9
12168	12167	9447	9440	9
12168	12167	9447	9449	9
3257	3258	3259	3266	9
3262	3258	3259	3266	9
3261	3260	3259	3266	9
3263	3260	3259	3266	9
3266	8762	8755	8754	9
3266	8762	8755	8756	9
3259	3258	3257	3268	9
3262	3258	3257	3268	9
3261	3256	3257	3268	9
3264	3256	3257	3268	9
3259	3266	8762	8755	9
3259	3266	8762	8764	9
3256	3257	3258	3259	9
3256	3261	3260	3259	9
3259	3260	3261	3265	9
3257	3258	3259	3260	9
3257	3256	3261	3260	9
3257	3256	3261	3265	9
3258	3259	3266	3267	9
3258	3259	3266	8762	9
3258	3259	3260	3261	9
3258	3259	3260	3263	9
3258	3257	3268	3269	9
3258	3257	3268	3270	9
3258	3257	3256	3261	9
3258	3257	3256	3264	9
3260	3259	3266	3267	9
3260	3259	3266	8762	9
3260	3259	3258	3262	9
3260	3261	3256	3264	9
3256	3257	3268	3269	9
3256	3257	3268	3270	9
3256	3257	3258	3262	9
3256	3261	3260	3263	9
3263	3260	3261	3265	9
3264	3256	3261	3265	9
3267	3266	8762	8755	9
3267	3266	8762	8764	9
1681	1680	1679	1690	9
1684	1680	1679	1690	9
1683	1678	1679	1690	9
1686	1678	1679	1690	9
1664	1661	1667	1690	9
1662	1661	1667	1690	9
1679	1680	1681	1688	9
1684	1680	1681	1688	9
1683	1682	1681	1688	9
1685	1682	1681	1688	9
1688	9843	9833	9832	9
1688	9843	9833	9836	9
1661	1667	1690	1679	9
1668	1667	1690	1679	9
1679	1680	1681	1682	9
1679	1678	1683	1682	9
1679	1678	1683	1687	9
1681	1688	9843	9833	9
1681	1688	9843	9845	9
1678	1679	1680	1681	9
1678	1683	1682	1681	9
1681	1682	1683	1687	9
1680	1679	1690	1691	9
1667	1690	1679	1680	9
1680	1679	1678	1683	9
1680	1679	1678	1686	9
1680	1681	1688	1689	9
1680	1681	1688	9843	9
1680	1681	1682	1683	9
1680	1681	1682	1685	9
1678	1679	1690	1691	9
1667	1690	1679	1678	9
1678	1679	1680	1684	9
1678	1683	1682	1685	9
1682	1681	1688	1689	9
1682	1681	1688	9843	9
1682	1681	1680	1684	9
1682	1683	1678	1686	9
1686	1678	1683	1687	9
1685	1682	1683	1687	9
1661	1667	1690	1691	9
1668	1667	1690	1691	9
1689	1688	9843	9833	9
1689	1688	9843	9845	9
9047	9046	9045	9056	9
9050	9046	9045	9056	9
9049	9044	9045	9056	9
9052	9044	9045	9056	9
9056	9064	9058	9059	9
9056	9064	9058	9061	9
9045	9046	9047	9054	9
9050	9046	9047	9054	9
9049	9048	9047	9054	9
9051	9048	9047	9054	9
9054	10923	10913	10912	9
9054	10923	10913	10916	9
9045	9056	9064	9058	9
9045	9056	9064	9065	9
9045	9046	9047	9048	9
9045	9044	9049	9048	9
9045	9044	9049	9053	9
9047	9054	10923	10913	9
9047	9054	10923	10925	9
9044	9045	9046	9047	9
9044	9049	9048	9047	9
9047	9048	9049	9053	9
9046	9045	9056	9057	9
9046	9045	9056	9064	9
9046	9045	9044	9049	9
9046	9045	9044	9052	9
9046	9047	9054	9055	9
9046	9047	9054	10923	9
9046	9047	9048	9049	9
9046	9047	9048	9051	9
9044	9045	9056	9057	9
9044	9045	9056	9064	9
9044	9045	9046	9050	9
9044	9049	9048	9051	9
9048	9047	9054	9055	9
9048	9047	9054	10923	9
9048	9047	9046	9050	9
9048	9049	9044	9052	9
9052	9044	9049	9053	9
9051	9048	9049	9053	9
9057	9056	9064	9058	9
9057	9056	9064	9065	9
9055	9054	10923	10913	9
9055	9054	10923	10925	9
12454	12453	12452	12463	9
12457	12453	12452	12463	9
12456	12451	12452	12463	9
12459	12451	12452	12463	9
12463	8500	8490	8493	9
12463	8500	8490	8489	9
12452	12453	12454	12461	9
12457	12453	12454	12461	9
12456	12455	12454	12461	9
12458	12455	12454	12461	9
12461	6036	6026	6029	9
12461	6036	6026	6025	9
12452	12463	8500	8490	9
12452	12463	8500	8502	9
12452	12453	12454	12455	9
12452	12451	12456	12455	9
12452	12451	12456	12460	9
12454	12461	6036	6026	9
12454	12461	6036	6038	9
12451	12452	12453	12454	9
12451	12456	12455	12454	9
12454	12455	12456	12460	9
12453	12452	12463	12464	9
12453	12452	12463	8500	9
12453	12452	12451	12456	9
12453	12452	12451	12459	9
12453	12454	12461	12462	9
12453	12454	12461	6036	9
12453	12454	12455	12456	9
12453	12454	12455	12458	9
12451	12452	12463	12464	9
12451	12452	12463	8500	9
12451	12452	12453	12457	9
12451	12456	12455	12458	9
12455	12454	12461	12462	9
12455	12454	12461	6036	9
12455	12454	12453	12457	9
12455	12456	12451	12459	9
12459	12451	12456	12460	9
12458	12455	12456	12460	9
12464	12463	8500	8490	9
12464	12463	8500	8502	9
12462	12461	6036	6026	9
12462	12461	6036	6038	9
3347	3348	3349	3356	9
3352	3348	3349	3356	9
3351	3350	3349	3356	9
3353	3350	3349	3356	9
3356	9085	9075	9078	9
3356	9085	9075	9074	9
3349	3348	3347	3358	9
3352	3348	3347	3358	9
3351	3346	3347	3358	9
3354	3346	3347	3358	9
3349	3356	9085	9075	9
3349	3356	9085	9087	9
3346	3347	3348	3349	9
3346	3351	3350	3349	9
3349	3350	3351	3355	9
3347	3348	3349	3350	9
3347	3346	3351	3350	9
3347	3346	3351	3355	9
3348	3349	3356	3357	9
3348	3349	3356	9085	9
3348	3349	3350	3351	9
3348	3349	3350	3353	9
3348	3347	3358	3360	9
3348	3347	3358	3359	9
3348	3347	3346	3351	9
3348	3347	3346	3354	9
3350	3349	3356	3357	9
3350	3349	3356	9085	9
3350	3349	3348	3352	9
3350	3351	3346	3354	9
3346	3347	3358	3360	9
3346	3347	3358	3359	9
3346	3347	3348	3352	9
3346	3351	3350	3353	9
3353	3350	3351	3355	9
3354	3346	3351	3355	9
3357	3356	9085	9075	9
3357	3356	9085	9087	9
2689	2688	2687	2698	9
2692	2688	2687	2698	9
2691	2686	2687	2698	9
2694	2686	2687	2698	9
2687	2688	2689	2696	9
2692	2688	2689	2696	9
2691	2690	2689	2696	9
2693	2690	2689	2696	9
2696	4404	4397	4398	9
2696	4404	4397	4396	9
2687	2688	2689	2690	9
2687	2686	2691	2690	9
2687	2686	2691	2695	9
2689	2696	4404	4397	9
2689	2696	4404	4406	9
2686	2687	2688	2689	9
2686	2691	2690	2689	9
2689	2690	2691	2695	9
2688	2687	2698	2700	9
2688	2687	2698	2699	9
2688	2687	2686	2691	9
2688	2687	2686	2694	9
2688	2689	2696	2697	9
2688	2689	2696	4404	9
2688	2689	2690	2691	9
2688	2689	2690	2693	9
2686	2687	2698	2700	9
2686	2687	2698	2699	9
2686	2687	2688	2692	9
2686	2691	2690	2693	9
2690	2689	2696	2697	9
2690	2689	2696	4404	9
2690	2689	2688	2692	9
2690	2691	2686	2694	9
2694	2686	2691	2695	9
2693	2690	2691	2695	9
2697	2696	4404	4397	9
2697	2696	4404	4406	9
2659	2658	2657	2668	9
2662	2658	2657	2668	9
2661	2656	2657	2668	9
2664	2656	2657	2668	9
2657	2658	2659	2666	9
2662	2658	2659	2666	9
2661	2660	2659	2666	9
2663	2660	2659	2666	9
2666	4084	4077	4078	9
2666	4084	4077	4076	9
2657	2658	2659	2660	9
2657	2656	2661	2660	9
2657	2656	2661	2665	9
2659	2666	4084	4077	9
2659	2666	4084	4086	9
2656	2657	2658	2659	9
2656	2661	2660	2659	9
2659	2660	2661	2665	9
2658	2657	2668	2669	9
2658	2657	2668	2670	9
2658	2657	2656	2661	9
2658	2657	2656	2664	9
2658	2659	2666	2667	9
2658	2659	2666	4084	9
2658	2659	2660	2661	9
2658	2659	2660	2663	9
2656	2657	2668	2669	9
2656	2657	2668	2670	9
2656	2657	2658	2662	9
2656	2661	2660	2663	9
2660	2659	2666	2667	9
2660	2659	2666	4084	9
2660	2659	2658	2662	9
2660	2661	2656	2664	9
2664	2656	2661	2665	9
2663	2660	2661	2665	9
2667	2666	4084	4077	9
2667	2666	4084	4086	9
13602	13601	13600	13611	9
13605	13601	13600	13611	9
13604	13599	13600	13611	9
13607	13599	13600	13611	9
13611	10133	10126	10127	9
13611	10133	10126	10125	9
13600	13601	13602	13609	9
13605	13601	13602	13609	9
13604	13603	13602	13609	9
13606	13603	13602	13609	9
13609	9667	9660	9659	9
13609	9667	9660	9661	9
13600	13611	10133	10126	9
13600	13611	10133	10135	9
13600	13601	13602	13603	9
13600	13599	13604	13603	9
13600	13599	13604	13608	9
13602	13609	9667	9660	9
13602	13609	9667	9669	9
13599	13600	13601	13602	9
13599	13604	13603	13602	9
13602	13603	13604	13608	9
13601	13600	13611	13612	9
13601	13600	13611	10133	9
13601	13600	13599	13604	9
13601	13600	13599	13607	9
13601	13602	13609	13610	9
13601	13602	13609	9667	9
13601	13602	13603	13604	9
13601	13602	13603	13606	9
13599	13600	13611	13612	9
13599	13600	13611	10133	9
13599	13600	13601	13605	9
13599	13604	13603	13606	9
13603	13602	13609	13610	9
13603	13602	13609	9667	9
13603	13602	13601	13605	9
13603	13604	13599	13607	9
13607	13599	13604	13608	9
13606	13603	13604	13608	9
13612	13611	10133	10126	9
13612	13611	10133	10135	9
13610	13609	9667	9660	9
13610	13609	9667	9669	9
7367	7366	7365	7376	9
7370	7366	7365	7376	9
7369	7364	7365	7376	9
7372	7364	7365	7376	9
7376	7384	7378	7379	9
7376	7384	7378	7381	9
7365	7366	7367	7374	9
7370	7366	7367	7374	9
7369	7368	7367	7374	9
7371	7368	7367	7374	9
7374	9069	9062	9063	9
7374	9069	9062	9061	9
7365	7376	7384	7378	9
7365	7376	7384	7385	9
7365	7366	7367	7368	9
7365	7364	7369	7368	9
7365	7364	7369	7373	9
7367	7374	9069	9062	9
7367	7374	9069	9071	9
7364	7365	7366	7367	9
7364	7369	7368	7367	9
7367	7368	7369	7373	9
7366	7365	7376	7377	9
7366	7365	7376	7384	9
7366	7365	7364	7369	9
7366	7365	7364	7372	9
7366	7367	7374	7375	9
7366	7367	7374	9069	9
7366	7367	7368	7369	9
7366	7367	7368	7371	9
7364	7365	7376	7377	9
7364	7365	7376	7384	9
7364	7365	7366	7370	9
7364	7369	7368	7371	9
7368	7367	7374	7375	9
7368	7367	7374	9069	9
7368	7367	7366	7370	9
7368	7369	7364	7372	9
7372	7364	7369	7373	9
7371	7368	7369	7373	9
7377	7376	7384	7378	9
7377	7376	7384	7385	9
7375	7374	9069	9062	9
7375	7374	9069	9071	9
13532	13531	13530	13541	9
13535	13531	13530	13541	9
13534	13529	13530	13541	9
13537	13529	13530	13541	9
13541	9303	9293	9292	9
13541	9303	9293	9296	9
13530	13531	13532	13539	9
13535	13531	13532	13539	9
13534	13533	13532	13539	9
13536	13533	13532	13539	9
13539	9026	9016	9015	9
13539	9026	9016	9019	9
13530	13541	9303	9293	9
13530	13541	9303	9305	9
13530	13531	13532	13533	9
13530	13529	13534	13533	9
13530	13529	13534	13538	9
13532	13539	9026	9016	9
13532	13539	9026	9028	9
13529	13530	13531	13532	9
13529	13534	13533	13532	9
13532	13533	13534	13538	9
13531	13530	13541	13542	9
13531	13530	13541	9303	9
13531	13530	13529	13534	9
13531	13530	13529	13537	9
13531	13532	13539	13540	9
13531	13532	13539	9026	9
13531	13532	13533	13534	9
13531	13532	13533	13536	9
13529	13530	13541	13542	9
13529	13530	13541	9303	9
13529	13530	13531	13535	9
13529	13534	13533	13536	9
13533	13532	13539	13540	9
13533	13532	13539	9026	9
13533	13532	13531	13535	9
13533	13534	13529	13537	9
13537	13529	13534	13538	9
13536	13533	13534	13538	9
13542	13541	9303	9293	9
13542	13541	9303	9305	9
13540	13539	9026	9016	9
13540	13539	9026	9028	9
11852	11851	11850	11861	9
11855	11851	11850	11861	9
11854	11849	11850	11861	9
11857	11849	11850	11861	9
11861	4941	4934	4933	9
11861	4941	4934	4935	9
11850	11851	11852	11859	9
11855	11851	11852	11859	9
11854	11853	11852	11859	9
11856	11853	11852	11859	9
11859	5262	5252	5255	9
11859	5262	5252	5251	9
11850	11861	4941	4934	9
11850	11861	4941	4943	9
11850	11851	11852	11853	9
11850	11849	11854	11853	9
11850	11849	11854	11858	9
11852	11859	5262	5252	9
11852	11859	5262	5264	9
11849	11850	11851	11852	9
11849	11854	11853	11852	9
11852	11853	11854	11858	9
11851	11850	11861	11862	9
11851	11850	11861	4941	9
11851	11850	11849	11854	9
11851	11850	11849	11857	9
11851	11852	11859	11860	9
11851	11852	11859	5262	9
11851	11852	11853	11854	9
11851	11852	11853	11856	9
11849	11850	11861	11862	9
11849	11850	11861	4941	9
11849	11850	11851	11855	9
11849	11854	11853	11856	9
11853	11852	11859	11860	9
11853	11852	11859	5262	9
11853	11852	11851	11855	9
11853	11854	11849	11857	9
11857	11849	11854	11858	9
11856	11853	11854	11858	9
11862	11861	4941	4934	9
11862	11861	4941	4943	9
11860	11859	5262	5252	9
11860	11859	5262	5264	9
12566	12565	12564	12575	9
12569	12565	12564	12575	9
12568	12563	12564	12575	9
12571	12563	12564	12575	9
12575	7580	7570	7573	9
12575	7580	7570	7569	9
12564	12565	12566	12573	9
12569	12565	12566	12573	9
12568	12567	12566	12573	9
12570	12567	12566	12573	9
12573	6253	6246	6245	9
12573	6253	6246	6247	9
12564	12575	7580	7570	9
12564	12575	7580	7582	9
12564	12565	12566	12567	9
12564	12563	12568	12567	9
12564	12563	12568	12572	9
12566	12573	6253	6246	9
12566	12573	6253	6255	9
12563	12564	12565	12566	9
12563	12568	12567	12566	9
12566	12567	12568	12572	9
12565	12564	12575	12576	9
12565	12564	12575	7580	9
12565	12564	12563	12568	9
12565	12564	12563	12571	9
12565	12566	12573	12574	9
12565	12566	12573	6253	9
12565	12566	12567	12568	9
12565	12566	12567	12570	9
12563	12564	12575	12576	9
12563	12564	12575	7580	9
12563	12564	12565	12569	9
12563	12568	12567	12570	9
12567	12566	12573	12574	9
12567	12566	12573	6253	9
12567	12566	12565	12569	9
12567	12568	12563	12571	9
12571	12563	12568	12572	9
12570	12567	12568	12572	9
12576	12575	7580	7570	9
12576	12575	7580	7582	9
12574	12573	6253	6246	9
12574	12573	6253	6255	9
7848	7847	7846	7857	9
7851	7847	7846	7857	9
7850	7845	7846	7857	9
7853	7845	7846	7857	9
7857	7865	7859	7860	9
7857	7865	7859	7862	9
7846	7847	7848	7855	9
7851	7847	7848	7855	9
7850	7849	7848	7855	9
7852	7849	7848	7855	9
7855	7967	7961	7962	9
7855	7967	7961	7964	9
7846	7857	7865	7859	9
7846	7857	7865	7866	9
7846	7847	7848	7849	9
7846	7845	7850	7849	9
7846	7845	7850	7854	9
7848	7855	7967	7961	9
7848	7855	7967	7968	9
7845	7846	7847	7848	9
7845	7850	7849	7848	9
7848	7849	7850	7854	9
7847	7846	7857	7858	9
7847	7846	7857	7865	9
7847	7846	7845	7850	9
7847	7846	7845	7853	9
7847	7848	7855	7856	9
7847	7848	7855	7967	9
7847	7848	7849	7850	9
7847	7848	7849	7852	9
7845	7846	7857	7858	9
7845	7846	7857	7865	9
7845	7846	7847	7851	9
7845	7850	7849	7852	9
7849	7848	7855	7856	9
7849	7848	7855	7967	9
7849	7848	7847	7851	9
7849	7850	7845	7853	9
7853	7845	7850	7854	9
7852	7849	7850	7854	9
7858	7857	7865	7859	9
7858	7857	7865	7866	9
7856	7855	7967	7961	9
7856	7855	7967	7968	9
8799	8798	8797	8808	9
8802	8798	8797	8808	9
8801	8796	8797	8808	9
8804	8796	8797	8808	9
8808	5685	5675	5678	9
8808	5685	5675	5674	9
8797	8798	8799	8806	9
8802	8798	8799	8806	9
8801	8800	8799	8806	9
8803	8800	8799	8806	9
8806	8816	8810	8811	9
8806	8816	8810	8813	9
8797	8808	5685	5675	9
8797	8808	5685	5687	9
8797	8798	8799	8800	9
8797	8796	8801	8800	9
8797	8796	8801	8805	9
8799	8806	8816	8810	9
8799	8806	8816	8817	9
8796	8797	8798	8799	9
8796	8801	8800	8799	9
8799	8800	8801	8805	9
8798	8797	8808	8809	9
8798	8797	8808	5685	9
8798	8797	8796	8801	9
8798	8797	8796	8804	9
8798	8799	8806	8807	9
8798	8799	8806	8816	9
8798	8799	8800	8801	9
8798	8799	8800	8803	9
8796	8797	8808	8809	9
8796	8797	8808	5685	9
8796	8797	8798	8802	9
8796	8801	8800	8803	9
8800	8799	8806	8807	9
8800	8799	8806	8816	9
8800	8799	8798	8802	9
8800	8801	8796	8804	9
8804	8796	8801	8805	9
8803	8800	8801	8805	9
8809	8808	5685	5675	9
8809	8808	5685	5687	9
8807	8806	8816	8810	9
8807	8806	8816	8817	9
11222	11221	11220	11231	9
11225	11221	11220	11231	9
11224	11219	11220	11231	9
11227	11219	11220	11231	9
11231	8338	8331	8332	9
11231	8338	8331	8330	9
11220	11221	11222	11229	9
11225	11221	11222	11229	9
11224	11223	11222	11229	9
11226	11223	11222	11229	9
11229	3882	3872	3875	9
11229	3882	3872	3871	9
11220	11231	8338	8331	9
11220	11231	8338	8340	9
11220	11221	11222	11223	9
11220	11219	11224	11223	9
11220	11219	11224	11228	9
11222	11229	3882	3872	9
11222	11229	3882	3884	9
11219	11220	11221	11222	9
11219	11224	11223	11222	9
11222	11223	11224	11228	9
11221	11220	11231	11232	9
11221	11220	11231	8338	9
11221	11220	11219	11224	9
11221	11220	11219	11227	9
11221	11222	11229	11230	9
11221	11222	11229	3882	9
11221	11222	11223	11224	9
11221	11222	11223	11226	9
11219	11220	11231	11232	9
11219	11220	11231	8338	9
11219	11220	11221	11225	9
11219	11224	11223	11226	9
11223	11222	11229	11230	9
11223	11222	11229	3882	9
11223	11222	11221	11225	9
11223	11224	11219	11227	9
11227	11219	11224	11228	9
11226	11223	11224	11228	9
11232	11231	8338	8331	9
11232	11231	8338	8340	9
11230	11229	3882	3872	9
11230	11229	3882	3884	9
4701	4700	4699	4710	9
4704	4700	4699	4710	9
4703	4698	4699	4710	9
4706	4698	4699	4710	9
4710	4718	4712	4713	9
4710	4718	4712	4715	9
4699	4700	4701	4708	9
4704	4700	4701	4708	9
4703	4702	4701	4708	9
4705	4702	4701	4708	9
4708	7550	7543	7542	9
4708	7550	7543	7544	9
4699	4710	4718	4712	9
4699	4710	4718	4719	9
4699	4700	4701	4702	9
4699	4698	4703	4702	9
4699	4698	4703	4707	9
4701	4708	7550	7543	9
4701	4708	7550	7552	9
4698	4699	4700	4701	9
4698	4703	4702	4701	9
4701	4702	4703	4707	9
4700	4699	4710	4711	9
4700	4699	4710	4718	9
4700	4699	4698	4703	9
4700	4699	4698	4706	9
4700	4701	4708	4709	9
4700	4701	4708	7550	9
4700	4701	4702	4703	9
4700	4701	4702	4705	9
4698	4699	4710	4711	9
4698	4699	4710	4718	9
4698	4699	4700	4704	9
4698	4703	4702	4705	9
4702	4701	4708	4709	9
4702	4701	4708	7550	9
4702	4701	4700	4704	9
4702	4703	4698	4706	9
4706	4698	4703	4707	9
4705	4702	4703	4707	9
4711	4710	4718	4712	9
4711	4710	4718	4719	9
4709	4708	7550	7543	9
4709	4708	7550	7552	9
2809	2808	2807	2818	9
2812	2808	2807	2818	9
2811	2806	2807	2818	9
2814	2806	2807	2818	9
2807	2808	2809	2816	9
2812	2808	2809	2816	9
2811	2810	2809	2816	9
2813	2810	2809	2816	9
2816	5319	5312	5313	9
2816	5319	5312	5311	9
2807	2808	2809	2810	9
2807	2806	2811	2810	9
2807	2806	2811	2815	9
2809	2816	5319	5312	9
2809	2816	5319	5321	9
2806	2807	2808	2809	9
2806	2811	2810	2809	9
2809	2810	2811	2815	9
2808	2807	2818	2820	9
2808	2807	2818	2819	9
2808	2807	2806	2811	9
2808	2807	2806	2814	9
2808	2809	2816	2817	9
2808	2809	2816	5319	9
2808	2809	2810	2811	9
2808	2809	2810	2813	9
2806	2807	2818	2820	9
2806	2807	2818	2819	9
2806	2807	2808	2812	9
2806	2811	2810	2813	9
2810	2809	2816	2817	9
2810	2809	2816	5319	9
2810	2809	2808	2812	9
2810	2811	2806	2814	9
2814	2806	2811	2815	9
2813	2810	2811	2815	9
2817	2816	5319	5312	9
2817	2816	5319	5321	9
1557	1556	1555	1566	9
1560	1556	1555	1566	9
1559	1554	1555	1566	9
1562	1554	1555	1566	9
1538	1537	1543	1566	9
1540	1537	1543	1566	9
1555	1556	1557	1564	9
1560	1556	1557	1564	9
1559	1558	1557	1564	9
1561	1558	1557	1564	9
668	669	676	1564	9
670	669	676	1564	9
1537	1543	1566	1555	9
1544	1543	1566	1555	9
1555	1556	1557	1558	9
1555	1554	1559	1558	9
1555	1554	1559	1563	9
669	676	1564	1557	9
678	676	1564	1557	9
1554	1555	1556	1557	9
1554	1559	1558	1557	9
1557	1558	1559	1563	9
1556	1555	1566	1567	9
1543	1566	1555	1556	9
1556	1555	1554	1559	9
1556	1555	1554	1562	9
1556	1557	1564	1565	9
676	1564	1557	1556	9
1556	1557	1558	1559	9
1556	1557	1558	1561	9
1554	1555	1566	1567	9
1543	1566	1555	1554	9
1554	1555	1556	1560	9
1554	1559	1558	1561	9
1558	1557	1564	1565	9
676	1564	1557	1558	9
1558	1557	1556	1560	9
1558	1559	1554	1562	9
1562	1554	1559	1563	9
1561	1558	1559	1563	9
1537	1543	1566	1567	9
1544	1543	1566	1567	9
669	676	1564	1565	9
678	676	1564	1565	9
11376	11375	11374	11385	9
11379	11375	11374	11385	9
11378	11373	11374	11385	9
11381	11373	11374	11385	9
11385	9521	9511	9510	9
11385	9521	9511	9514	9
11374	11375	11376	11383	9
11379	11375	11376	11383	9
11378	11377	11376	11383	9
11380	11377	11376	11383	9
11383	4171	4164	4165	9
11383	4171	4164	4163	9
11374	11385	9521	9511	9
11374	11385	9521	9523	9
11374	11375	11376	11377	9
11374	11373	11378	11377	9
11374	11373	11378	11382	9
11376	11383	4171	4164	9
11376	11383	4171	4173	9
11373	11374	11375	11376	9
11373	11378	11377	11376	9
11376	11377	11378	11382	9
11375	11374	11385	11386	9
11375	11374	11385	9521	9
11375	11374	11373	11378	9
11375	11374	11373	11381	9
11375	11376	11383	11384	9
11375	11376	11383	4171	9
11375	11376	11377	11378	9
11375	11376	11377	11380	9
11373	11374	11385	11386	9
11373	11374	11385	9521	9
11373	11374	11375	11379	9
11373	11378	11377	11380	9
11377	11376	11383	11384	9
11377	11376	11383	4171	9
11377	11376	11375	11379	9
11377	11378	11373	11381	9
11381	11373	11378	11382	9
11380	11377	11378	11382	9
11386	11385	9521	9511	9
11386	11385	9521	9523	9
11384	11383	4171	4164	9
11384	11383	4171	4173	9
4469	4468	4467	4478	9
4472	4468	4467	4478	9
4471	4466	4467	4478	9
4474	4466	4467	4478	9
4478	4486	4480	4483	9
4478	4486	4480	4481	9
4467	4468	4469	4476	9
4472	4468	4469	4476	9
4471	4470	4469	4476	9
4473	4470	4469	4476	9
4476	6093	6086	6085	9
4476	6093	6086	6087	9
4467	4478	4486	4480	9
4467	4478	4486	4487	9
4467	4468	4469	4470	9
4467	4466	4471	4470	9
4467	4466	4471	4475	9
4469	4476	6093	6086	9
4469	4476	6093	6095	9
4466	4467	4468	4469	9
4466	4471	4470	4469	9
4469	4470	4471	4475	9
4468	4467	4478	4479	9
4468	4467	4478	4486	9
4468	4467	4466	4471	9
4468	4467	4466	4474	9
4468	4469	4476	4477	9
4468	4469	4476	6093	9
4468	4469	4470	4471	9
4468	4469	4470	4473	9
4466	4467	4478	4479	9
4466	4467	4478	4486	9
4466	4467	4468	4472	9
4466	4471	4470	4473	9
4470	4469	4476	4477	9
4470	4469	4476	6093	9
4470	4469	4468	4472	9
4470	4471	4466	4474	9
4474	4466	4471	4475	9
4473	4470	4471	4475	9
4479	4478	4486	4480	9
4479	4478	4486	4487	9
4477	4476	6093	6086	9
4477	4476	6093	6095	9
8154	8153	8152	8163	9
8157	8153	8152	8163	9
8156	8151	8152	8163	9
8159	8151	8152	8163	9
8163	8171	8165	8168	9
8163	8171	8165	8166	9
8152	8153	8154	8161	9
8157	8153	8154	8161	9
8156	8155	8154	8161	9
8158	8155	8154	8161	9
8161	5203	5196	5195	9
8161	5203	5196	5197	9
8152	8163	8171	8165	9
8152	8163	8171	8172	9
8152	8153	8154	8155	9
8152	8151	8156	8155	9
8152	8151	8156	8160	9
8154	8161	5203	5196	9
8154	8161	5203	5205	9
8151	8152	8153	8154	9
8151	8156	8155	8154	9
8154	8155	8156	8160	9
8153	8152	8163	8164	9
8153	8152	8163	8171	9
8153	8152	8151	8156	9
8153	8152	8151	8159	9
8153	8154	8161	8162	9
8153	8154	8161	5203	9
8153	8154	8155	8156	9
8153	8154	8155	8158	9
8151	8152	8163	8164	9
8151	8152	8163	8171	9
8151	8152	8153	8157	9
8151	8156	8155	8158	9
8155	8154	8161	8162	9
8155	8154	8161	5203	9
8155	8154	8153	8157	9
8155	8156	8151	8159	9
8159	8151	8156	8160	9
8158	8155	8156	8160	9
8164	8163	8171	8165	9
8164	8163	8171	8172	9
8162	8161	5203	5196	9
8162	8161	5203	5205	9
2974	2973	2972	2983	9
2977	2973	2972	2983	9
2976	2971	2972	2983	9
2979	2971	2972	2983	9
2972	2973	2974	2981	9
2977	2973	2974	2981	9
2976	2975	2974	2981	9
2978	2975	2974	2981	9
2981	6575	6565	6564	9
2981	6575	6565	6568	9
2972	2973	2974	2975	9
2972	2971	2976	2975	9
2972	2971	2976	2980	9
2974	2981	6575	6565	9
2974	2981	6575	6577	9
2971	2972	2973	2974	9
2971	2976	2975	2974	9
2974	2975	2976	2980	9
2973	2972	2983	2985	9
2973	2972	2983	2984	9
2973	2972	2971	2976	9
2973	2972	2971	2979	9
2973	2974	2981	2982	9
2973	2974	2981	6575	9
2973	2974	2975	2976	9
2973	2974	2975	2978	9
2971	2972	2983	2985	9
2971	2972	2983	2984	9
2971	2972	2973	2977	9
2971	2976	2975	2978	9
2975	2974	2981	2982	9
2975	2974	2981	6575	9
2975	2974	2973	2977	9
2975	2976	2971	2979	9
2979	2971	2976	2980	9
2978	2975	2976	2980	9
2982	2981	6575	6565	9
2982	2981	6575	6577	9
7906	7905	7904	7915	9
7909	7905	7904	7915	9
7908	7903	7904	7915	9
7911	7903	7904	7915	9
7915	7923	7917	7918	9
7915	7923	7917	7920	9
7904	7905	7906	7913	9
7909	7905	7906	7913	9
7908	7907	7906	7913	9
7910	7907	7906	7913	9
7913	4113	4106	4107	9
7913	4113	4106	4105	9
7904	7915	7923	7917	9
7904	7915	7923	7924	9
7904	7905	7906	7907	9
7904	7903	7908	7907	9
7904	7903	7908	7912	9
7906	7913	4113	4106	9
7906	7913	4113	4115	9
7903	7904	7905	7906	9
7903	7908	7907	7906	9
7906	7907	7908	7912	9
7905	7904	7915	7916	9
7905	7904	7915	7923	9
7905	7904	7903	7908	9
7905	7904	7903	7911	9
7905	7906	7913	7914	9
7905	7906	7913	4113	9
7905	7906	7907	7908	9
7905	7906	7907	7910	9
7903	7904	7915	7916	9
7903	7904	7915	7923	9
7903	7904	7905	7909	9
7903	7908	7907	7910	9
7907	7906	7913	7914	9
7907	7906	7913	4113	9
7907	7906	7905	7909	9
7907	7908	7903	7911	9
7911	7903	7908	7912	9
7910	7907	7908	7912	9
7916	7915	7923	7917	9
7916	7915	7923	7924	9
7914	7913	4113	4106	9
7914	7913	4113	4115	9
12034	12033	12032	12043	9
12037	12033	12032	12043	9
12036	12031	12032	12043	9
12039	12031	12032	12043	9
12043	5392	5385	5384	9
12043	5392	5385	5386	9
12032	12033	12034	12041	9
12037	12033	12034	12041	9
12036	12035	12034	12041	9
12038	12035	12034	12041	9
12041	9564	9557	9558	9
12041	9564	9557	9556	9
12032	12043	5392	5385	9
12032	12043	5392	5394	9
12032	12033	12034	12035	9
12032	12031	12036	12035	9
12032	12031	12036	12040	9
12034	12041	9564	9557	9
12034	12041	9564	9566	9
12031	12032	12033	12034	9
12031	12036	12035	12034	9
12034	12035	12036	12040	9
12033	12032	12043	12044	9
12033	12032	12043	5392	9
12033	12032	12031	12036	9
12033	12032	12031	12039	9
12033	12034	12041	12042	9
12033	12034	12041	9564	9
12033	12034	12035	12036	9
12033	12034	12035	12038	9
12031	12032	12043	12044	9
12031	12032	12043	5392	9
12031	12032	12033	12037	9
12031	12036	12035	12038	9
12035	12034	12041	12042	9
12035	12034	12041	9564	9
12035	12034	12033	12037	9
12035	12036	12031	12039	9
12039	12031	12036	12040	9
12038	12035	12036	12040	9
12044	12043	5392	5385	9
12044	12043	5392	5394	9
12042	12041	9564	9557	9
12042	12041	9564	9566	9
6872	6871	6870	6881	9
6875	6871	6870	6881	9
6874	6869	6870	6881	9
6877	6869	6870	6881	9
6881	6889	6883	6886	9
6881	6889	6883	6884	9
6870	6871	6872	6879	9
6875	6871	6872	6879	9
6874	6873	6872	6879	9
6876	6873	6872	6879	9
6879	6574	6567	6568	9
6879	6574	6567	6566	9
6870	6881	6889	6883	9
6870	6881	6889	6890	9
6870	6871	6872	6873	9
6870	6869	6874	6873	9
6870	6869	6874	6878	9
6872	6879	6574	6567	9
6872	6879	6574	6576	9
6869	6870	6871	6872	9
6869	6874	6873	6872	9
6872	6873	6874	6878	9
6871	6870	6881	6882	9
6871	6870	6881	6889	9
6871	6870	6869	6874	9
6871	6870	6869	6877	9
6871	6872	6879	6880	9
6871	6872	6879	6574	9
6871	6872	6873	6874	9
6871	6872	6873	6876	9
6869	6870	6881	6882	9
6869	6870	6881	6889	9
6869	6870	6871	6875	9
6869	6874	6873	6876	9
6873	6872	6879	6880	9
6873	6872	6879	6574	9
6873	6872	6871	6875	9
6873	6874	6869	6877	9
6877	6869	6874	6878	9
6876	6873	6874	6878	9
6882	6881	6889	6883	9
6882	6881	6889	6890	9
6880	6879	6574	6567	9
6880	6879	6574	6576	9
344	343	342	353	9
347	343	342	353	9
346	341	342	353	9
349	341	342	353	9
353	6117	6111	6112	9
353	6117	6111	6114	9
342	343	344	351	9
347	343	344	351	9
346	345	344	351	9
348	345	344	351	9
325	324	330	351	9
327	324	330	351	9
342	353	6117	6111	9
342	353	6117	6118	9
342	343	344	345	9
342	341	346	345	9
342	341	346	350	9
324	330	351	344	9
331	330	351	344	9
341	342	343	344	9
341	346	345	344	9
344	345	346	350	9
343	342	353	354	9
343	342	353	6117	9
343	342	341	346	9
343	342	341	349	9
343	344	351	352	9
330	351	344	343	9
343	344	345	346	9
343	344	345	348	9
341	342	353	354	9
341	342	353	6117	9
341	342	343	347	9
341	346	345	348	9
345	344	351	352	9
330	351	344	345	9
345	344	343	347	9
345	346	341	349	9
349	341	346	350	9
348	345	346	350	9
354	353	6117	6111	9
354	353	6117	6118	9
324	330	351	352	9
331	330	351	352	9
11446	11445	11444	11455	9
11449	11445	11444	11455	9
11448	11443	11444	11455	9
11451	11443	11444	11455	9
11455	4258	4251	4250	9
11455	4258	4251	4252	9
11444	11445	11446	11453	9
11449	11445	11446	11453	9
11448	11447	11446	11453	9
11450	11447	11446	11453	9
1447	1448	1455	11453	9
1449	1448	1455	11453	9
11444	11455	4258	4251	9
11444	11455	4258	4260	9
11444	11445	11446	11447	9
11444	11443	11448	11447	9
11444	11443	11448	11452	9
1448	1455	11453	11446	9
1457	1455	11453	11446	9
11443	11444	11445	11446	9
11443	11448	11447	11446	9
11446	11447	11448	11452	9
11445	11444	11455	11456	9
11445	11444	11455	4258	9
11445	11444	11443	11448	9
11445	11444	11443	11451	9
11445	11446	11453	11454	9
1455	11453	11446	11445	9
11445	11446	11447	11448	9
11445	11446	11447	11450	9
11443	11444	11455	11456	9
11443	11444	11455	4258	9
11443	11444	11445	11449	9
11443	11448	11447	11450	9
11447	11446	11453	11454	9
1455	11453	11446	11447	9
11447	11446	11445	11449	9
11447	11448	11443	11451	9
11451	11443	11448	11452	9
11450	11447	11448	11452	9
11456	11455	4258	4251	9
11456	11455	4258	4260	9
1448	1455	11453	11454	9
1457	1455	11453	11454	9
7761	7760	7759	7770	9
7764	7760	7759	7770	9
7763	7758	7759	7770	9
7766	7758	7759	7770	9
7770	9989	9979	9978	9
7770	9989	9979	9982	9
7759	7760	7761	7768	9
7764	7760	7761	7768	9
7763	7762	7761	7768	9
7765	7762	7761	7768	9
7768	7778	7772	7773	9
7768	7778	7772	7775	9
7759	7770	9989	9979	9
7759	7770	9989	9991	9
7759	7760	7761	7762	9
7759	7758	7763	7762	9
7759	7758	7763	7767	9
7761	7768	7778	7772	9
7761	7768	7778	7779	9
7758	7759	7760	7761	9
7758	7763	7762	7761	9
7761	7762	7763	7767	9
7760	7759	7770	7771	9
7760	7759	7770	9989	9
7760	7759	7758	7763	9
7760	7759	7758	7766	9
7760	7761	7768	7769	9
7760	7761	7768	7778	9
7760	7761	7762	7763	9
7760	7761	7762	7765	9
7758	7759	7770	7771	9
7758	7759	7770	9989	9
7758	7759	7760	7764	9
7758	7763	7762	7765	9
7762	7761	7768	7769	9
7762	7761	7768	7778	9
7762	7761	7760	7764	9
7762	7763	7758	7766	9
7766	7758	7763	7767	9
7765	7762	7763	7767	9
7771	7770	9989	9979	9
7771	7770	9989	9991	9
7769	7768	7778	7772	9
7769	7768	7778	7779	9
4527	4526	4525	4536	9
4530	4526	4525	4536	9
4529	4524	4525	4536	9
4532	4524	4525	4536	9
4536	4544	4538	4541	9
4536	4544	4538	4539	9
4525	4526	4527	4534	9
4530	4526	4527	4534	9
4529	4528	4527	4534	9
4531	4528	4527	4534	9
4534	8953	8943	8946	9
4534	8953	8943	8942	9
4525	4536	4544	4538	9
4525	4536	4544	4545	9
4525	4526	4527	4528	9
4525	4524	4529	4528	9
4525	4524	4529	4533	9
4527	4534	8953	8943	9
4527	4534	8953	8955	9
4524	4525	4526	4527	9
4524	4529	4528	4527	9
4527	4528	4529	4533	9
4526	4525	4536	4537	9
4526	4525	4536	4544	9
4526	4525	4524	4529	9
4526	4525	4524	4532	9
4526	4527	4534	4535	9
4526	4527	4534	8953	9
4526	4527	4528	4529	9
4526	4527	4528	4531	9
4524	4525	4536	4537	9
4524	4525	4536	4544	9
4524	4525	4526	4530	9
4524	4529	4528	4531	9
4528	4527	4534	4535	9
4528	4527	4534	8953	9
4528	4527	4526	4530	9
4528	4529	4524	4532	9
4532	4524	4529	4533	9
4531	4528	4529	4533	9
4537	4536	4544	4538	9
4537	4536	4544	4545	9
4535	4534	8953	8943	9
4535	4534	8953	8955	9
13630	13629	13628	13639	9
13633	13629	13628	13639	9
13632	13627	13628	13639	9
13635	13627	13628	13639	9
13639	11054	11047	11048	9
13639	11054	11047	11046	9
13628	13629	13630	13637	9
13633	13629	13630	13637	9
13632	13631	13630	13637	9
13634	13631	13630	13637	9
13637	9901	9891	9894	9
13637	9901	9891	9890	9
13628	13639	11054	11047	9
13628	13639	11054	11056	9
13628	13629	13630	13631	9
13628	13627	13632	13631	9
13628	13627	13632	13636	9
13630	13637	9901	9891	9
13630	13637	9901	9903	9
13627	13628	13629	13630	9
13627	13632	13631	13630	9
13630	13631	13632	13636	9
13629	13628	13639	13640	9
13629	13628	13639	11054	9
13629	13628	13627	13632	9
13629	13628	13627	13635	9
13629	13630	13637	13638	9
13629	13630	13637	9901	9
13629	13630	13631	13632	9
13629	13630	13631	13634	9
13627	13628	13639	13640	9
13627	13628	13639	11054	9
13627	13628	13629	13633	9
13627	13632	13631	13634	9
13631	13630	13637	13638	9
13631	13630	13637	9901	9
13631	13630	13629	13633	9
13631	13632	13627	13635	9
13635	13627	13632	13636	9
13634	13631	13632	13636	9
13640	13639	11054	11047	9
13640	13639	11054	11056	9
13638	13637	9901	9891	9
13638	13637	9901	9903	9
6508	6507	6506	6517	9
6511	6507	6506	6517	9
6510	6505	6506	6517	9
6513	6505	6506	6517	9
6517	6525	6519	6522	9
6517	6525	6519	6520	9
6506	6507	6508	6515	9
6511	6507	6508	6515	9
6510	6509	6508	6515	9
6512	6509	6508	6515	9
6515	8075	8065	8064	9
6515	8075	8065	8068	9
6506	6517	6525	6519	9
6506	6517	6525	6526	9
6506	6507	6508	6509	9
6506	6505	6510	6509	9
6506	6505	6510	6514	9
6508	6515	8075	8065	9
6508	6515	8075	8077	9
6505	6506	6507	6508	9
6505	6510	6509	6508	9
6508	6509	6510	6514	9
6507	6506	6517	6518	9
6507	6506	6517	6525	9
6507	6506	6505	6510	9
6507	6506	6505	6513	9
6507	6508	6515	6516	9
6507	6508	6515	8075	9
6507	6508	6509	6510	9
6507	6508	6509	6512	9
6505	6506	6517	6518	9
6505	6506	6517	6525	9
6505	6506	6507	6511	9
6505	6510	6509	6512	9
6509	6508	6515	6516	9
6509	6508	6515	8075	9
6509	6508	6507	6511	9
6509	6510	6505	6513	9
6513	6505	6510	6514	9
6512	6509	6510	6514	9
6518	6517	6525	6519	9
6518	6517	6525	6526	9
6516	6515	8075	8065	9
6516	6515	8075	8077	9
6363	6362	6361	6372	9
6366	6362	6361	6372	9
6365	6360	6361	6372	9
6368	6360	6361	6372	9
6372	6380	6374	6375	9
6372	6380	6374	6377	9
6361	6362	6363	6370	9
6366	6362	6363	6370	9
6365	6364	6363	6370	9
6367	6364	6363	6370	9
6370	10250	10240	10239	9
6370	10250	10240	10243	9
6361	6372	6380	6374	9
6361	6372	6380	6381	9
6361	6362	6363	6364	9
6361	6360	6365	6364	9
6361	6360	6365	6369	9
6363	6370	10250	10240	9
6363	6370	10250	10252	9
6360	6361	6362	6363	9
6360	6365	6364	6363	9
6363	6364	6365	6369	9
6362	6361	6372	6373	9
6362	6361	6372	6380	9
6362	6361	6360	6365	9
6362	6361	6360	6368	9
6362	6363	6370	6371	9
6362	6363	6370	10250	9
6362	6363	6364	6365	9
6362	6363	6364	6367	9
6360	6361	6372	6373	9
6360	6361	6372	6380	9
6360	6361	6362	6366	9
6360	6365	6364	6367	9
6364	6363	6370	6371	9
6364	6363	6370	10250	9
6364	6363	6362	6366	9
6364	6365	6360	6368	9
6368	6360	6365	6369	9
6367	6364	6365	6369	9
6373	6372	6380	6374	9
6373	6372	6380	6381	9
6371	6370	10250	10240	9
6371	6370	10250	10252	9
3664	3663	3662	3673	9
3667	3663	3662	3673	9
3666	3661	3662	3673	9
3669	3661	3662	3673	9
3662	3663	3664	3671	9
3667	3663	3664	3671	9
3666	3665	3664	3671	9
3668	3665	3664	3671	9
3671	10980	10973	10974	9
3671	10980	10973	10972	9
3662	3663	3664	3665	9
3662	3661	3666	3665	9
3662	3661	3666	3670	9
3664	3671	10980	10973	9
3664	3671	10980	10982	9
3661	3662	3663	3664	9
3661	3666	3665	3664	9
3664	3665	3666	3670	9
3663	3662	3673	3675	9
3663	3662	3673	3674	9
3663	3662	3661	3666	9
3663	3662	3661	3669	9
3663	3664	3671	3672	9
3663	3664	3671	10980	9
3663	3664	3665	3666	9
3663	3664	3665	3668	9
3661	3662	3673	3675	9
3661	3662	3673	3674	9
3661	3662	3663	3667	9
3661	3666	3665	3668	9
3665	3664	3671	3672	9
3665	3664	3671	10980	9
3665	3664	3663	3667	9
3665	3666	3661	3669	9
3669	3661	3666	3670	9
3668	3665	3666	3670	9
3672	3671	10980	10973	9
3672	3671	10980	10982	9
12482	12481	12480	12491	9
12485	12481	12480	12491	9
12484	12479	12480	12491	9
12487	12479	12480	12491	9
12491	6094	6084	6087	9
12491	6094	6084	6083	9
12480	12481	12482	12489	9
12485	12481	12482	12489	9
12484	12483	12482	12489	9
12486	12483	12482	12489	9
12489	10995	10988	10987	9
12489	10995	10988	10989	9
12480	12491	6094	6084	9
12480	12491	6094	6096	9
12480	12481	12482	12483	9
12480	12479	12484	12483	9
12480	12479	12484	12488	9
12482	12489	10995	10988	9
12482	12489	10995	10997	9
12479	12480	12481	12482	9
12479	12484	12483	12482	9
12482	12483	12484	12488	9
12481	12480	12491	12492	9
12481	12480	12491	6094	9
12481	12480	12479	12484	9
12481	12480	12479	12487	9
12481	12482	12489	12490	9
12481	12482	12489	10995	9
12481	12482	12483	12484	9
12481	12482	12483	12486	9
12479	12480	12491	12492	9
12479	12480	12491	6094	9
12479	12480	12481	12485	9
12479	12484	12483	12486	9
12483	12482	12489	12490	9
12483	12482	12489	10995	9
12483	12482	12481	12485	9
12483	12484	12479	12487	9
12487	12479	12484	12488	9
12486	12483	12484	12488	9
12492	12491	6094	6084	9
12492	12491	6094	6096	9
12490	12489	10995	10988	9
12490	12489	10995	10997	9
2536	2535	2534	2545	9
2539	2535	2534	2545	9
2538	2533	2534	2545	9
2541	2533	2534	2545	9
2545	7399	7393	7396	9
2545	7399	7393	7394	9
2534	2535	2536	2543	9
2539	2535	2536	2543	9
2538	2537	2536	2543	9
2540	2537	2536	2543	9
2517	2516	2522	2543	9
2519	2516	2522	2543	9
2534	2545	7399	7393	9
2534	2545	7399	7400	9
2534	2535	2536	2537	9
2534	2533	2538	2537	9
2534	2533	2538	2542	9
2516	2522	2543	2536	9
2523	2522	2543	2536	9
2533	2534	2535	2536	9
2533	2538	2537	2536	9
2536	2537	2538	2542	9
2535	2534	2545	2546	9
2535	2534	2545	7399	9
2535	2534	2533	2538	9
2535	2534	2533	2541	9
2535	2536	2543	2544	9
2522	2543	2536	2535	9
2535	2536	2537	2538	9
2535	2536	2537	2540	9
2533	2534	2545	2546	9
2533	2534	2545	7399	9
2533	2534	2535	2539	9
2533	2538	2537	2540	9
2537	2536	2543	2544	9
2522	2543	2536	2537	9
2537	2536	2535	2539	9
2537	2538	2533	2541	9
2541	2533	2538	2542	9
2540	2537	2538	2542	9
2546	2545	7399	7393	9
2546	2545	7399	7400	9
2516	2522	2543	2544	9
2523	2522	2543	2544	9
3019	3018	3017	3028	9
3022	3018	3017	3028	9
3021	3016	3017	3028	9
3024	3016	3017	3028	9
3017	3018	3019	3026	9
3022	3018	3019	3026	9
3021	3020	3019	3026	9
3023	3020	3019	3026	9
3026	6933	6927	6928	9
3026	6933	6927	6930	9
3017	3018	3019	3020	9
3017	3016	3021	3020	9
3017	3016	3021	3025	9
3019	3026	6933	6927	9
3019	3026	6933	6934	9
3016	3017	3018	3019	9
3016	3021	3020	3019	9
3019	3020	3021	3025	9
3018	3017	3028	3030	9
3018	3017	3028	3029	9
3018	3017	3016	3021	9
3018	3017	3016	3024	9
3018	3019	3026	3027	9
3018	3019	3026	6933	9
3018	3019	3020	3021	9
3018	3019	3020	3023	9
3016	3017	3028	3030	9
3016	3017	3028	3029	9
3016	3017	3018	3022	9
3016	3021	3020	3023	9
3020	3019	3026	3027	9
3020	3019	3026	6933	9
3020	3019	3018	3022	9
3020	3021	3016	3024	9
3024	3016	3021	3025	9
3023	3020	3021	3025	9
3027	3026	6933	6927	9
3027	3026	6933	6934	9
6581	6580	6579	6590	9
6584	6580	6579	6590	9
6583	6578	6579	6590	9
6586	6578	6579	6590	9
6590	6598	6592	6593	9
6590	6598	6592	6595	9
6579	6580	6581	6588	9
6584	6580	6581	6588	9
6583	6582	6581	6588	9
6585	6582	6581	6588	9
6588	8113	8107	8108	9
6588	8113	8107	8110	9
6579	6590	6598	6592	9
6579	6590	6598	6599	9
6579	6580	6581	6582	9
6579	6578	6583	6582	9
6579	6578	6583	6587	9
6581	6588	8113	8107	9
6581	6588	8113	8114	9
6578	6579	6580	6581	9
6578	6583	6582	6581	9
6581	6582	6583	6587	9
6580	6579	6590	6591	9
6580	6579	6590	6598	9
6580	6579	6578	6583	9
6580	6579	6578	6586	9
6580	6581	6588	6589	9
6580	6581	6588	8113	9
6580	6581	6582	6583	9
6580	6581	6582	6585	9
6578	6579	6590	6591	9
6578	6579	6590	6598	9
6578	6579	6580	6584	9
6578	6583	6582	6585	9
6582	6581	6588	6589	9
6582	6581	6588	8113	9
6582	6581	6580	6584	9
6582	6583	6578	6586	9
6586	6578	6583	6587	9
6585	6582	6583	6587	9
6591	6590	6598	6592	9
6591	6590	6598	6599	9
6589	6588	8113	8107	9
6589	6588	8113	8114	9
995	994	993	1004	9
998	994	993	1004	9
997	992	993	1004	9
1000	992	993	1004	9
1004	9711	9704	9703	9
1004	9711	9704	9705	9
993	994	995	1002	9
998	994	995	1002	9
997	996	995	1002	9
999	996	995	1002	9
978	975	981	1002	9
976	975	981	1002	9
993	1004	9711	9704	9
993	1004	9711	9713	9
993	994	995	996	9
993	992	997	996	9
993	992	997	1001	9
975	981	1002	995	9
982	981	1002	995	9
992	993	994	995	9
992	997	996	995	9
995	996	997	1001	9
994	993	1004	1005	9
994	993	1004	9711	9
994	993	992	997	9
994	993	992	1000	9
994	995	1002	1003	9
981	1002	995	994	9
994	995	996	997	9
994	995	996	999	9
992	993	1004	1005	9
992	993	1004	9711	9
992	993	994	998	9
992	997	996	999	9
996	995	1002	1003	9
981	1002	995	996	9
996	995	994	998	9
996	997	992	1000	9
1000	992	997	1001	9
999	996	997	1001	9
1005	1004	9711	9704	9
1005	1004	9711	9713	9
975	981	1002	1003	9
982	981	1002	1003	9
778	777	776	787	9
781	777	776	787	9
780	775	776	787	9
783	775	776	787	9
761	758	764	787	9
759	758	764	787	9
776	777	778	785	9
781	777	778	785	9
780	779	778	785	9
782	779	778	785	9
1308	1307	1314	785	9
1306	1307	1314	785	9
758	764	787	776	9
765	764	787	776	9
776	777	778	779	9
776	775	780	779	9
776	775	780	784	9
1307	1314	785	778	9
1316	1314	785	778	9
775	776	777	778	9
775	780	779	778	9
778	779	780	784	9
777	776	787	788	9
764	787	776	777	9
777	776	775	780	9
777	776	775	783	9
777	778	785	786	9
1314	785	778	777	9
777	778	779	780	9
777	778	779	782	9
775	776	787	788	9
764	787	776	775	9
775	776	777	781	9
775	780	779	782	9
779	778	785	786	9
1314	785	778	779	9
779	778	777	781	9
779	780	775	783	9
783	775	780	784	9
782	779	780	784	9
758	764	787	788	9
765	764	787	788	9
1307	1314	785	786	9
1316	1314	785	786	9
1338	1339	1340	1347	9
1343	1339	1340	1347	9
1342	1341	1340	1347	9
1344	1341	1340	1347	9
1321	1320	1326	1347	9
1323	1320	1326	1347	9
1340	1339	1338	1349	9
1343	1339	1338	1349	9
1342	1337	1338	1349	9
1345	1337	1338	1349	9
1349	5591	5585	5586	9
1349	5591	5585	5588	9
1320	1326	1347	1340	9
1327	1326	1347	1340	9
1340	1339	1338	1337	9
1340	1341	1342	1337	9
1340	1341	1342	1346	9
1338	1349	5591	5585	9
1338	1349	5591	5592	9
1341	1340	1339	1338	9
1341	1342	1337	1338	9
1338	1337	1342	1346	9
1339	1340	1347	1348	9
1326	1347	1340	1339	9
1339	1340	1341	1342	9
1339	1340	1341	1344	9
1339	1338	1349	1350	9
1339	1338	1349	5591	9
1339	1338	1337	1342	9
1339	1338	1337	1345	9
1341	1340	1347	1348	9
1326	1347	1340	1341	9
1341	1340	1339	1343	9
1341	1342	1337	1345	9
1337	1338	1349	1350	9
1337	1338	1349	5591	9
1337	1338	1339	1343	9
1337	1342	1341	1344	9
1344	1341	1342	1346	9
1345	1337	1342	1346	9
1320	1326	1347	1348	9
1327	1326	1347	1348	9
1350	1349	5591	5585	9
1350	1349	5591	5592	9
3799	3798	3797	3808	9
3802	3798	3797	3808	9
3801	3796	3797	3808	9
3804	3796	3797	3808	9
3797	3798	3799	3806	9
3802	3798	3799	3806	9
3801	3800	3799	3806	9
3803	3800	3799	3806	9
1478	1479	1486	3806	9
1480	1479	1486	3806	9
3797	3798	3799	3800	9
3797	3796	3801	3800	9
3797	3796	3801	3805	9
1479	1486	3806	3799	9
1488	1486	3806	3799	9
3796	3797	3798	3799	9
3796	3801	3800	3799	9
3799	3800	3801	3805	9
3798	3797	3808	3810	9
3798	3797	3808	3809	9
3798	3797	3796	3801	9
3798	3797	3796	3804	9
3798	3799	3806	3807	9
1486	3806	3799	3798	9
3798	3799	3800	3801	9
3798	3799	3800	3803	9
3796	3797	3808	3810	9
3796	3797	3808	3809	9
3796	3797	3798	3802	9
3796	3801	3800	3803	9
3800	3799	3806	3807	9
1486	3806	3799	3800	9
3800	3799	3798	3802	9
3800	3801	3796	3804	9
3804	3796	3801	3805	9
3803	3800	3801	3805	9
1479	1486	3806	3807	9
1488	1486	3806	3807	9
12146	12145	12144	12155	9
12149	12145	12144	12155	9
12148	12143	12144	12155	9
12151	12143	12144	12155	9
12155	9652	9645	9644	9
12155	9652	9645	9646	9
12144	12145	12146	12153	9
12149	12145	12146	12153	9
12148	12147	12146	12153	9
12150	12147	12146	12153	9
12153	5596	5589	5588	9
12153	5596	5589	5590	9
12144	12155	9652	9645	9
12144	12155	9652	9654	9
12144	12145	12146	12147	9
12144	12143	12148	12147	9
12144	12143	12148	12152	9
12146	12153	5596	5589	9
12146	12153	5596	5598	9
12143	12144	12145	12146	9
12143	12148	12147	12146	9
12146	12147	12148	12152	9
12145	12144	12155	12156	9
12145	12144	12155	9652	9
12145	12144	12143	12148	9
12145	12144	12143	12151	9
12145	12146	12153	12154	9
12145	12146	12153	5596	9
12145	12146	12147	12148	9
12145	12146	12147	12150	9
12143	12144	12155	12156	9
12143	12144	12155	9652	9
12143	12144	12145	12149	9
12143	12148	12147	12150	9
12147	12146	12153	12154	9
12147	12146	12153	5596	9
12147	12146	12145	12149	9
12147	12148	12143	12151	9
12151	12143	12148	12152	9
12150	12147	12148	12152	9
12156	12155	9652	9645	9
12156	12155	9652	9654	9
12154	12153	5596	5589	9
12154	12153	5596	5598	9
13362	13363	13364	13371	9
13367	13363	13364	13371	9
13366	13365	13364	13371	9
13368	13365	13364	13371	9
13371	8617	8607	8606	9
13371	8617	8607	8610	9
13364	13363	13362	13373	9
13367	13363	13362	13373	9
13366	13361	13362	13373	9
13369	13361	13362	13373	9
13373	8383	8373	8376	9
13373	8383	8373	8372	9
13364	13371	8617	8607	9
13364	13371	8617	8619	9
13364	13363	13362	13361	9
13364	13365	13366	13361	9
13364	13365	13366	13370	9
13362	13373	8383	8373	9
13362	13373	8383	8385	9
13365	13364	13363	13362	9
13365	13366	13361	13362	9
13362	13361	13366	13370	9
13363	13364	13371	13372	9
13363	13364	13371	8617	9
13363	13364	13365	13366	9
13363	13364	13365	13368	9
13363	13362	13373	13374	9
13363	13362	13373	8383	9
13363	13362	13361	13366	9
13363	13362	13361	13369	9
13365	13364	13371	13372	9
13365	13364	13371	8617	9
13365	13364	13363	13367	9
13365	13366	13361	13369	9
13361	13362	13373	13374	9
13361	13362	13373	8383	9
13361	13362	13363	13367	9
13361	13366	13365	13368	9
13368	13365	13366	13370	9
13369	13361	13366	13370	9
13372	13371	8617	8607	9
13372	13371	8617	8619	9
13374	13373	8383	8373	9
13374	13373	8383	8385	9
12104	12103	12102	12113	9
12107	12103	12102	12113	9
12106	12101	12102	12113	9
12109	12101	12102	12113	9
12113	5553	5543	5546	9
12113	5553	5543	5542	9
12102	12103	12104	12111	9
12107	12103	12104	12111	9
12106	12105	12104	12111	9
12108	12105	12104	12111	9
12111	5742	5735	5736	9
12111	5742	5735	5734	9
12102	12113	5553	5543	9
12102	12113	5553	5555	9
12102	12103	12104	12105	9
12102	12101	12106	12105	9
12102	12101	12106	12110	9
12104	12111	5742	5735	9
12104	12111	5742	5744	9
12101	12102	12103	12104	9
12101	12106	12105	12104	9
12104	12105	12106	12110	9
12103	12102	12113	12114	9
12103	12102	12113	5553	9
12103	12102	12101	12106	9
12103	12102	12101	12109	9
12103	12104	12111	12112	9
12103	12104	12111	5742	9
12103	12104	12105	12106	9
12103	12104	12105	12108	9
12101	12102	12113	12114	9
12101	12102	12113	5553	9
12101	12102	12103	12107	9
12101	12106	12105	12108	9
12105	12104	12111	12112	9
12105	12104	12111	5742	9
12105	12104	12103	12107	9
12105	12106	12101	12109	9
12109	12101	12106	12110	9
12108	12105	12106	12110	9
12114	12113	5553	5543	9
12114	12113	5553	5555	9
12112	12111	5742	5735	9
12112	12111	5742	5744	9
9193	9192	9191	9202	9
9196	9192	9191	9202	9
9195	9190	9191	9202	9
9198	9190	9191	9202	9
9202	9210	9204	9207	9
9202	9210	9204	9205	9
9191	9192	9193	9200	9
9196	9192	9193	9200	9
9195	9194	9193	9200	9
9197	9194	9193	9200	9
9200	4913	4903	4902	9
9200	4913	4903	4906	9
9191	9202	9210	9204	9
9191	9202	9210	9211	9
9191	9192	9193	9194	9
9191	9190	9195	9194	9
9191	9190	9195	9199	9
9193	9200	4913	4903	9
9193	9200	4913	4915	9
9190	9191	9192	9193	9
9190	9195	9194	9193	9
9193	9194	9195	9199	9
9192	9191	9202	9203	9
9192	9191	9202	9210	9
9192	9191	9190	9195	9
9192	9191	9190	9198	9
9192	9193	9200	9201	9
9192	9193	9200	4913	9
9192	9193	9194	9195	9
9192	9193	9194	9197	9
9190	9191	9202	9203	9
9190	9191	9202	9210	9
9190	9191	9192	9196	9
9190	9195	9194	9197	9
9194	9193	9200	9201	9
9194	9193	9200	4913	9
9194	9193	9192	9196	9
9194	9195	9190	9198	9
9198	9190	9195	9199	9
9197	9194	9195	9199	9
9203	9202	9210	9204	9
9203	9202	9210	9211	9
9201	9200	4913	4903	9
9201	9200	4913	4915	9
1198	1197	1196	1207	9
1201	1197	1196	1207	9
1200	1195	1196	1207	9
1203	1195	1196	1207	9
1207	5825	5819	5822	9
1207	5825	5819	5820	9
1196	1197	1198	1205	9
1201	1197	1198	1205	9
1200	1199	1198	1205	9
1202	1199	1198	1205	9
1179	1178	1184	1205	9
1181	1178	1184	1205	9
1196	1207	5825	5819	9
1196	1207	5825	5826	9
1196	1197	1198	1199	9
1196	1195	1200	1199	9
1196	1195	1200	1204	9
1178	1184	1205	1198	9
1185	1184	1205	1198	9
1195	1196	1197	1198	9
1195	1200	1199	1198	9
1198	1199	1200	1204	9
1197	1196	1207	1208	9
1197	1196	1207	5825	9
1197	1196	1195	1200	9
1197	1196	1195	1203	9
1197	1198	1205	1206	9
1184	1205	1198	1197	9
1197	1198	1199	1200	9
1197	1198	1199	1202	9
1195	1196	1207	1208	9
1195	1196	1207	5825	9
1195	1196	1197	1201	9
1195	1200	1199	1202	9
1199	1198	1205	1206	9
1184	1205	1198	1199	9
1199	1198	1197	1201	9
1199	1200	1195	1203	9
1203	1195	1200	1204	9
1202	1199	1200	1204	9
1208	1207	5825	5819	9
1208	1207	5825	5826	9
1178	1184	1205	1206	9
1185	1184	1205	1206	9
12916	12915	12914	12925	9
12919	12915	12914	12925	9
12918	12913	12914	12925	9
12921	12913	12914	12925	9
12925	7201	7191	7194	9
12925	7201	7191	7190	9
12914	12915	12916	12923	9
12919	12915	12916	12923	9
12918	12917	12916	12923	9
12920	12917	12916	12923	9
12923	7419	7412	7411	9
12923	7419	7412	7413	9
12914	12925	7201	7191	9
12914	12925	7201	7203	9
12914	12915	12916	12917	9
12914	12913	12918	12917	9
12914	12913	12918	12922	9
12916	12923	7419	7412	9
12916	12923	7419	7421	9
12913	12914	12915	12916	9
12913	12918	12917	12916	9
12916	12917	12918	12922	9
12915	12914	12925	12926	9
12915	12914	12925	7201	9
12915	12914	12913	12918	9
12915	12914	12913	12921	9
12915	12916	12923	12924	9
12915	12916	12923	7419	9
12915	12916	12917	12918	9
12915	12916	12917	12920	9
12913	12914	12925	12926	9
12913	12914	12925	7201	9
12913	12914	12915	12919	9
12913	12918	12917	12920	9
12917	12916	12923	12924	9
12917	12916	12923	7419	9
12917	12916	12915	12919	9
12917	12918	12913	12921	9
12921	12913	12918	12922	9
12920	12917	12918	12922	9
12926	12925	7201	7191	9
12926	12925	7201	7203	9
12924	12923	7419	7412	9
12924	12923	7419	7421	9
3514	3513	3512	3523	9
3517	3513	3512	3523	9
3516	3511	3512	3523	9
3519	3511	3512	3523	9
3512	3513	3514	3521	9
3517	3513	3514	3521	9
3516	3515	3514	3521	9
3518	3515	3514	3521	9
3521	9668	9658	9661	9
3521	9668	9658	9657	9
3512	3513	3514	3515	9
3512	3511	3516	3515	9
3512	3511	3516	3520	9
3514	3521	9668	9658	9
3514	3521	9668	9670	9
3511	3512	3513	3514	9
3511	3516	3515	3514	9
3514	3515	3516	3520	9
3513	3512	3523	3524	9
3513	3512	3523	3525	9
3513	3512	3511	3516	9
3513	3512	3511	3519	9
3513	3514	3521	3522	9
3513	3514	3521	9668	9
3513	3514	3515	3516	9
3513	3514	3515	3518	9
3511	3512	3523	3524	9
3511	3512	3523	3525	9
3511	3512	3513	3517	9
3511	3516	3515	3518	9
3515	3514	3521	3522	9
3515	3514	3521	9668	9
3515	3514	3513	3517	9
3515	3516	3511	3519	9
3519	3511	3516	3520	9
3518	3515	3516	3520	9
3522	3521	9668	9658	9
3522	3521	9668	9670	9
3092	3093	3094	3101	9
3097	3093	3094	3101	9
3096	3095	3094	3101	9
3098	3095	3094	3101	9
3101	7589	7583	7584	9
3101	7589	7583	7586	9
3094	3093	3092	3103	9
3097	3093	3092	3103	9
3096	3091	3092	3103	9
3099	3091	3092	3103	9
3094	3101	7589	7583	9
3094	3101	7589	7590	9
3091	3092	3093	3094	9
3091	3096	3095	3094	9
3094	3095	3096	3100	9
3092	3093	3094	3095	9
3092	3091	3096	3095	9
3092	3091	3096	3100	9
3093	3094	3101	3102	9
3093	3094	3101	7589	9
3093	3094	3095	3096	9
3093	3094	3095	3098	9
3093	3092	3103	3105	9
3093	3092	3103	3104	9
3093	3092	3091	3096	9
3093	3092	3091	3099	9
3095	3094	3101	3102	9
3095	3094	3101	7589	9
3095	3094	3093	3097	9
3095	3096	3091	3099	9
3091	3092	3103	3105	9
3091	3092	3103	3104	9
3091	3092	3093	3097	9
3091	3096	3095	3098	9
3098	3095	3096	3100	9
3099	3091	3096	3100	9
3102	3101	7589	7583	9
3102	3101	7589	7590	9
12776	12775	12774	12785	9
12779	12775	12774	12785	9
12778	12773	12774	12785	9
12781	12773	12774	12785	9
12785	6866	6856	6855	9
12785	6866	6856	6859	9
12774	12775	12776	12783	9
12779	12775	12776	12783	9
12778	12777	12776	12783	9
12780	12777	12776	12783	9
12783	6735	6725	6724	9
12783	6735	6725	6728	9
12774	12785	6866	6856	9
12774	12785	6866	6868	9
12774	12775	12776	12777	9
12774	12773	12778	12777	9
12774	12773	12778	12782	9
12776	12783	6735	6725	9
12776	12783	6735	6737	9
12773	12774	12775	12776	9
12773	12778	12777	12776	9
12776	12777	12778	12782	9
12775	12774	12785	12786	9
12775	12774	12785	6866	9
12775	12774	12773	12778	9
12775	12774	12773	12781	9
12775	12776	12783	12784	9
12775	12776	12783	6735	9
12775	12776	12777	12778	9
12775	12776	12777	12780	9
12773	12774	12785	12786	9
12773	12774	12785	6866	9
12773	12774	12775	12779	9
12773	12778	12777	12780	9
12777	12776	12783	12784	9
12777	12776	12783	6735	9
12777	12776	12775	12779	9
12777	12778	12773	12781	9
12781	12773	12778	12782	9
12780	12777	12778	12782	9
12786	12785	6866	6856	9
12786	12785	6866	6868	9
12784	12783	6735	6725	9
12784	12783	6735	6737	9
3109	3108	3107	3118	9
3112	3108	3107	3118	9
3111	3106	3107	3118	9
3114	3106	3107	3118	9
3107	3108	3109	3116	9
3112	3108	3109	3116	9
3111	3110	3109	3116	9
3113	3110	3109	3116	9
3116	7662	7656	7659	9
3116	7662	7656	7657	9
3107	3108	3109	3110	9
3107	3106	3111	3110	9
3107	3106	3111	3115	9
3109	3116	7662	7656	9
3109	3116	7662	7663	9
3106	3107	3108	3109	9
3106	3111	3110	3109	9
3109	3110	3111	3115	9
3108	3107	3118	3120	9
3108	3107	3118	3119	9
3108	3107	3106	3111	9
3108	3107	3106	3114	9
3108	3109	3116	3117	9
3108	3109	3116	7662	9
3108	3109	3110	3111	9
3108	3109	3110	3113	9
3106	3107	3118	3120	9
3106	3107	3118	3119	9
3106	3107	3108	3112	9
3106	3111	3110	3113	9
3110	3109	3116	3117	9
3110	3109	3116	7662	9
3110	3109	3108	3112	9
3110	3111	3106	3114	9
3114	3106	3111	3115	9
3113	3110	3111	3115	9
3117	3116	7662	7656	9
3117	3116	7662	7663	9
8125	8124	8123	8134	9
8128	8124	8123	8134	9
8127	8122	8123	8134	9
8130	8122	8123	8134	9
8134	8142	8136	8137	9
8134	8142	8136	8139	9
8123	8124	8125	8132	9
8128	8124	8125	8132	9
8127	8126	8125	8132	9
8129	8126	8125	8132	9
8132	8119	8109	8108	9
8132	8119	8109	8112	9
8123	8134	8142	8136	9
8123	8134	8142	8143	9
8123	8124	8125	8126	9
8123	8122	8127	8126	9
8123	8122	8127	8131	9
8125	8132	8119	8109	9
8125	8132	8119	8121	9
8122	8123	8124	8125	9
8122	8127	8126	8125	9
8125	8126	8127	8131	9
8124	8123	8134	8135	9
8124	8123	8134	8142	9
8124	8123	8122	8127	9
8124	8123	8122	8130	9
8124	8125	8132	8133	9
8124	8125	8132	8119	9
8124	8125	8126	8127	9
8124	8125	8126	8129	9
8122	8123	8134	8135	9
8122	8123	8134	8142	9
8122	8123	8124	8128	9
8122	8127	8126	8129	9
8126	8125	8132	8133	9
8126	8125	8132	8119	9
8126	8125	8124	8128	9
8126	8127	8122	8130	9
8130	8122	8127	8131	9
8129	8126	8127	8131	9
8135	8134	8142	8136	9
8135	8134	8142	8143	9
8133	8132	8119	8109	9
8133	8132	8119	8121	9
12510	12509	12508	12519	9
12513	12509	12508	12519	9
12512	12507	12508	12519	9
12515	12507	12508	12519	9
12519	6180	6173	6174	9
12519	6180	6173	6172	9
12508	12509	12510	12517	9
12513	12509	12510	12517	9
12512	12511	12510	12517	9
12514	12511	12510	12517	9
12517	7084	7077	7078	9
12517	7084	7077	7076	9
12508	12519	6180	6173	9
12508	12519	6180	6182	9
12508	12509	12510	12511	9
12508	12507	12512	12511	9
12508	12507	12512	12516	9
12510	12517	7084	7077	9
12510	12517	7084	7086	9
12507	12508	12509	12510	9
12507	12512	12511	12510	9
12510	12511	12512	12516	9
12509	12508	12519	12520	9
12509	12508	12519	6180	9
12509	12508	12507	12512	9
12509	12508	12507	12515	9
12509	12510	12517	12518	9
12509	12510	12517	7084	9
12509	12510	12511	12512	9
12509	12510	12511	12514	9
12507	12508	12519	12520	9
12507	12508	12519	6180	9
12507	12508	12509	12513	9
12507	12512	12511	12514	9
12511	12510	12517	12518	9
12511	12510	12517	7084	9
12511	12510	12509	12513	9
12511	12512	12507	12515	9
12515	12507	12512	12516	9
12514	12511	12512	12516	9
12520	12519	6180	6173	9
12520	12519	6180	6182	9
12518	12517	7084	7077	9
12518	12517	7084	7086	9
4091	4090	4089	4100	9
4094	4090	4089	4100	9
4093	4088	4089	4100	9
4096	4088	4089	4100	9
4100	4108	4102	4103	9
4100	4108	4102	4105	9
4089	4090	4091	4098	9
4094	4090	4091	4098	9
4093	4092	4091	4098	9
4095	4092	4091	4098	9
4098	9041	9031	9030	9
4098	9041	9031	9034	9
4089	4100	4108	4102	9
4089	4100	4108	4109	9
4089	4090	4091	4092	9
4089	4088	4093	4092	9
4089	4088	4093	4097	9
4091	4098	9041	9031	9
4091	4098	9041	9043	9
4088	4089	4090	4091	9
4088	4093	4092	4091	9
4091	4092	4093	4097	9
4090	4089	4100	4101	9
4090	4089	4100	4108	9
4090	4089	4088	4093	9
4090	4089	4088	4096	9
4090	4091	4098	4099	9
4090	4091	4098	9041	9
4090	4091	4092	4093	9
4090	4091	4092	4095	9
4088	4089	4100	4101	9
4088	4089	4100	4108	9
4088	4089	4090	4094	9
4088	4093	4092	4095	9
4092	4091	4098	4099	9
4092	4091	4098	9041	9
4092	4091	4090	4094	9
4092	4093	4088	4096	9
4096	4088	4093	4097	9
4095	4092	4093	4097	9
4101	4100	4108	4102	9
4101	4100	4108	4109	9
4099	4098	9041	9031	9
4099	4098	9041	9043	9
11754	11753	11752	11763	9
11757	11753	11752	11763	9
11756	11751	11752	11763	9
11759	11751	11752	11763	9
11763	4810	4803	4802	9
11763	4810	4803	4804	9
11752	11753	11754	11761	9
11757	11753	11754	11761	9
11756	11755	11754	11761	9
11758	11755	11754	11761	9
11761	6865	6858	6859	9
11761	6865	6858	6857	9
11752	11763	4810	4803	9
11752	11763	4810	4812	9
11752	11753	11754	11755	9
11752	11751	11756	11755	9
11752	11751	11756	11760	9
11754	11761	6865	6858	9
11754	11761	6865	6867	9
11751	11752	11753	11754	9
11751	11756	11755	11754	9
11754	11755	11756	11760	9
11753	11752	11763	11764	9
11753	11752	11763	4810	9
11753	11752	11751	11756	9
11753	11752	11751	11759	9
11753	11754	11761	11762	9
11753	11754	11761	6865	9
11753	11754	11755	11756	9
11753	11754	11755	11758	9
11751	11752	11763	11764	9
11751	11752	11763	4810	9
11751	11752	11753	11757	9
11751	11756	11755	11758	9
11755	11754	11761	11762	9
11755	11754	11761	6865	9
11755	11754	11753	11757	9
11755	11756	11751	11759	9
11759	11751	11756	11760	9
11758	11755	11756	11760	9
11764	11763	4810	4803	9
11764	11763	4810	4812	9
11762	11761	6865	6858	9
11762	11761	6865	6867	9
9396	9395	9394	9405	9
9399	9395	9394	9405	9
9398	9393	9394	9405	9
9401	9393	9394	9405	9
9405	9413	9407	9410	9
9405	9413	9407	9408	9
9394	9395	9396	9403	9
9399	9395	9396	9403	9
9398	9397	9396	9403	9
9400	9397	9396	9403	9
9403	10221	10211	10210	9
9403	10221	10211	10214	9
9394	9405	9413	9407	9
9394	9405	9413	9414	9
9394	9395	9396	9397	9
9394	9393	9398	9397	9
9394	9393	9398	9402	9
9396	9403	10221	10211	9
9396	9403	10221	10223	9
9393	9394	9395	9396	9
9393	9398	9397	9396	9
9396	9397	9398	9402	9
9395	9394	9405	9406	9
9395	9394	9405	9413	9
9395	9394	9393	9398	9
9395	9394	9393	9401	9
9395	9396	9403	9404	9
9395	9396	9403	10221	9
9395	9396	9397	9398	9
9395	9396	9397	9400	9
9393	9394	9405	9406	9
9393	9394	9405	9413	9
9393	9394	9395	9399	9
9393	9398	9397	9400	9
9397	9396	9403	9404	9
9397	9396	9403	10221	9
9397	9396	9395	9399	9
9397	9398	9393	9401	9
9401	9393	9398	9402	9
9400	9397	9398	9402	9
9406	9405	9413	9407	9
9406	9405	9413	9414	9
9404	9403	10221	10211	9
9404	9403	10221	10223	9
12804	12803	12802	12813	9
12807	12803	12802	12813	9
12806	12801	12802	12813	9
12809	12801	12802	12813	9
1695	1696	1703	12813	9
1697	1696	1703	12813	9
12802	12803	12804	12811	9
12807	12803	12804	12811	9
12806	12805	12804	12811	9
12808	12805	12804	12811	9
12811	6793	6783	6782	9
12811	6793	6783	6786	9
1696	1703	12813	12802	9
1705	1703	12813	12802	9
12802	12803	12804	12805	9
12802	12801	12806	12805	9
12802	12801	12806	12810	9
12804	12811	6793	6783	9
12804	12811	6793	6795	9
12801	12802	12803	12804	9
12801	12806	12805	12804	9
12804	12805	12806	12810	9
12803	12802	12813	12814	9
1703	12813	12802	12803	9
12803	12802	12801	12806	9
12803	12802	12801	12809	9
12803	12804	12811	12812	9
12803	12804	12811	6793	9
12803	12804	12805	12806	9
12803	12804	12805	12808	9
12801	12802	12813	12814	9
1703	12813	12802	12801	9
12801	12802	12803	12807	9
12801	12806	12805	12808	9
12805	12804	12811	12812	9
12805	12804	12811	6793	9
12805	12804	12803	12807	9
12805	12806	12801	12809	9
12809	12801	12806	12810	9
12808	12805	12806	12810	9
1696	1703	12813	12814	9
1705	1703	12813	12814	9
12812	12811	6793	6783	9
12812	12811	6793	6795	9
13812	13811	13810	13821	9
13815	13811	13810	13821	9
13814	13809	13810	13821	9
13817	13809	13810	13821	9
1977	1976	1983	13821	9
1975	1976	1983	13821	9
13810	13811	13812	13819	9
13815	13811	13812	13819	9
13814	13813	13812	13819	9
13816	13813	13812	13819	9
513	514	521	13819	9
515	514	521	13819	9
1976	1983	13821	13810	9
1985	1983	13821	13810	9
13810	13811	13812	13813	9
13810	13809	13814	13813	9
13810	13809	13814	13818	9
514	521	13819	13812	9
523	521	13819	13812	9
13809	13810	13811	13812	9
13809	13814	13813	13812	9
13812	13813	13814	13818	9
13811	13810	13821	13822	9
1983	13821	13810	13811	9
13811	13810	13809	13814	9
13811	13810	13809	13817	9
13811	13812	13819	13820	9
521	13819	13812	13811	9
13811	13812	13813	13814	9
13811	13812	13813	13816	9
13809	13810	13821	13822	9
1983	13821	13810	13809	9
13809	13810	13811	13815	9
13809	13814	13813	13816	9
13813	13812	13819	13820	9
521	13819	13812	13813	9
13813	13812	13811	13815	9
13813	13814	13809	13817	9
13817	13809	13814	13818	9
13816	13813	13814	13818	9
1976	1983	13821	13822	9
1985	1983	13821	13822	9
514	521	13819	13820	9
523	521	13819	13820	9
10520	10519	10518	10529	9
10523	10519	10518	10529	9
10522	10517	10518	10529	9
10525	10517	10518	10529	9
10529	10537	10531	10532	9
10529	10537	10531	10534	9
10518	10519	10520	10527	9
10523	10519	10520	10527	9
10522	10521	10520	10527	9
10524	10521	10520	10527	9
10527	6209	6202	6203	9
10527	6209	6202	6201	9
10518	10529	10537	10531	9
10518	10529	10537	10538	9
10518	10519	10520	10521	9
10518	10517	10522	10521	9
10518	10517	10522	10526	9
10520	10527	6209	6202	9
10520	10527	6209	6211	9
10517	10518	10519	10520	9
10517	10522	10521	10520	9
10520	10521	10522	10526	9
10519	10518	10529	10530	9
10519	10518	10529	10537	9
10519	10518	10517	10522	9
10519	10518	10517	10525	9
10519	10520	10527	10528	9
10519	10520	10527	6209	9
10519	10520	10521	10522	9
10519	10520	10521	10524	9
10517	10518	10529	10530	9
10517	10518	10529	10537	9
10517	10518	10519	10523	9
10517	10522	10521	10524	9
10521	10520	10527	10528	9
10521	10520	10527	6209	9
10521	10520	10519	10523	9
10521	10522	10517	10525	9
10525	10517	10522	10526	9
10524	10521	10522	10526	9
10530	10529	10537	10531	9
10530	10529	10537	10538	9
10528	10527	6209	6202	9
10528	10527	6209	6211	9
9615	9614	9613	9624	9
9618	9614	9613	9624	9
9617	9612	9613	9624	9
9620	9612	9613	9624	9
9624	9632	9626	9627	9
9624	9632	9626	9629	9
9613	9614	9615	9622	9
9618	9614	9615	9622	9
9617	9616	9615	9622	9
9619	9616	9615	9622	9
9622	4172	4162	4161	9
9622	4172	4162	4165	9
9613	9624	9632	9626	9
9613	9624	9632	9633	9
9613	9614	9615	9616	9
9613	9612	9617	9616	9
9613	9612	9617	9621	9
9615	9622	4172	4162	9
9615	9622	4172	4174	9
9612	9613	9614	9615	9
9612	9617	9616	9615	9
9615	9616	9617	9621	9
9614	9613	9624	9625	9
9614	9613	9624	9632	9
9614	9613	9612	9617	9
9614	9613	9612	9620	9
9614	9615	9622	9623	9
9614	9615	9622	4172	9
9614	9615	9616	9617	9
9614	9615	9616	9619	9
9612	9613	9624	9625	9
9612	9613	9624	9632	9
9612	9613	9614	9618	9
9612	9617	9616	9619	9
9616	9615	9622	9623	9
9616	9615	9622	4172	9
9616	9615	9614	9618	9
9616	9617	9612	9620	9
9620	9612	9617	9621	9
9619	9616	9617	9621	9
9625	9624	9632	9626	9
9625	9624	9632	9633	9
9623	9622	4172	4162	9
9623	9622	4172	4174	9
3812	3813	3814	3821	9
3817	3813	3814	3821	9
3816	3815	3814	3821	9
3818	3815	3814	3821	9
2397	2396	2403	3821	9
2395	2396	2403	3821	9
3814	3813	3812	3823	9
3817	3813	3812	3823	9
3816	3811	3812	3823	9
3819	3811	3812	3823	9
2396	2403	3821	3814	9
2405	2403	3821	3814	9
3811	3812	3813	3814	9
3811	3816	3815	3814	9
3814	3815	3816	3820	9
3812	3813	3814	3815	9
3812	3811	3816	3815	9
3812	3811	3816	3820	9
3813	3814	3821	3822	9
2403	3821	3814	3813	9
3813	3814	3815	3816	9
3813	3814	3815	3818	9
3813	3812	3823	3824	9
3813	3812	3823	3825	9
3813	3812	3811	3816	9
3813	3812	3811	3819	9
3815	3814	3821	3822	9
2403	3821	3814	3815	9
3815	3814	3813	3817	9
3815	3816	3811	3819	9
3811	3812	3823	3824	9
3811	3812	3823	3825	9
3811	3812	3813	3817	9
3811	3816	3815	3818	9
3818	3815	3816	3820	9
3819	3811	3816	3820	9
2396	2403	3821	3822	9
2405	2403	3821	3822	9
12496	12495	12494	12505	9
12499	12495	12494	12505	9
12498	12493	12494	12505	9
12501	12493	12494	12505	9
12505	6123	6113	6116	9
12505	6123	6113	6112	9
12494	12495	12496	12503	9
12499	12495	12496	12503	9
12498	12497	12496	12503	9
12500	12497	12496	12503	9
12503	7595	7585	7584	9
12503	7595	7585	7588	9
12494	12505	6123	6113	9
12494	12505	6123	6125	9
12494	12495	12496	12497	9
12494	12493	12498	12497	9
12494	12493	12498	12502	9
12496	12503	7595	7585	9
12496	12503	7595	7597	9
12493	12494	12495	12496	9
12493	12498	12497	12496	9
12496	12497	12498	12502	9
12495	12494	12505	12506	9
12495	12494	12505	6123	9
12495	12494	12493	12498	9
12495	12494	12493	12501	9
12495	12496	12503	12504	9
12495	12496	12503	7595	9
12495	12496	12497	12498	9
12495	12496	12497	12500	9
12493	12494	12505	12506	9
12493	12494	12505	6123	9
12493	12494	12495	12499	9
12493	12498	12497	12500	9
12497	12496	12503	12504	9
12497	12496	12503	7595	9
12497	12496	12495	12499	9
12497	12498	12493	12501	9
12501	12493	12498	12502	9
12500	12497	12498	12502	9
12506	12505	6123	6113	9
12506	12505	6123	6125	9
12504	12503	7595	7585	9
12504	12503	7595	7597	9
13434	13433	13432	13443	9
13437	13433	13432	13443	9
13436	13431	13432	13443	9
13439	13431	13432	13443	9
13443	8660	8653	8654	9
13443	8660	8653	8652	9
13432	13433	13434	13441	9
13437	13433	13434	13441	9
13436	13435	13434	13441	9
13438	13435	13434	13441	9
13441	9682	9675	9676	9
13441	9682	9675	9674	9
13432	13443	8660	8653	9
13432	13443	8660	8662	9
13432	13433	13434	13435	9
13432	13431	13436	13435	9
13432	13431	13436	13440	9
13434	13441	9682	9675	9
13434	13441	9682	9684	9
13431	13432	13433	13434	9
13431	13436	13435	13434	9
13434	13435	13436	13440	9
13433	13432	13443	13444	9
13433	13432	13443	8660	9
13433	13432	13431	13436	9
13433	13432	13431	13439	9
13433	13434	13441	13442	9
13433	13434	13441	9682	9
13433	13434	13435	13436	9
13433	13434	13435	13438	9
13431	13432	13443	13444	9
13431	13432	13443	8660	9
13431	13432	13433	13437	9
13431	13436	13435	13438	9
13435	13434	13441	13442	9
13435	13434	13441	9682	9
13435	13434	13433	13437	9
13435	13436	13431	13439	9
13439	13431	13436	13440	9
13438	13435	13436	13440	9
13444	13443	8660	8653	9
13444	13443	8660	8662	9
13442	13441	9682	9675	9
13442	13441	9682	9684	9
623	622	621	632	9
626	622	621	632	9
625	620	621	632	9
628	620	621	632	9
604	603	609	632	9
606	603	609	632	9
621	622	623	630	9
626	622	623	630	9
625	624	623	630	9
627	624	623	630	9
630	4389	4382	4381	9
630	4389	4382	4383	9
603	609	632	621	9
610	609	632	621	9
621	622	623	624	9
621	620	625	624	9
621	620	625	629	9
623	630	4389	4382	9
623	630	4389	4391	9
620	621	622	623	9
620	625	624	623	9
623	624	625	629	9
622	621	632	633	9
609	632	621	622	9
622	621	620	625	9
622	621	620	628	9
622	623	630	631	9
622	623	630	4389	9
622	623	624	625	9
622	623	624	627	9
620	621	632	633	9
609	632	621	620	9
620	621	622	626	9
620	625	624	627	9
624	623	630	631	9
624	623	630	4389	9
624	623	622	626	9
624	625	620	628	9
628	620	625	629	9
627	624	625	629	9
603	609	632	633	9
610	609	632	633	9
631	630	4389	4382	9
631	630	4389	4391	9
13406	13405	13404	13415	9
13409	13405	13404	13415	9
13408	13403	13404	13415	9
13411	13403	13404	13415	9
13415	8427	8417	8416	9
13415	8427	8417	8420	9
13404	13405	13406	13413	9
13409	13405	13406	13413	9
13408	13407	13406	13413	9
13410	13407	13406	13413	9
13413	8499	8492	8491	9
13413	8499	8492	8493	9
13404	13415	8427	8417	9
13404	13415	8427	8429	9
13404	13405	13406	13407	9
13404	13403	13408	13407	9
13404	13403	13408	13412	9
13406	13413	8499	8492	9
13406	13413	8499	8501	9
13403	13404	13405	13406	9
13403	13408	13407	13406	9
13406	13407	13408	13412	9
13405	13404	13415	13416	9
13405	13404	13415	8427	9
13405	13404	13403	13408	9
13405	13404	13403	13411	9
13405	13406	13413	13414	9
13405	13406	13413	8499	9
13405	13406	13407	13408	9
13405	13406	13407	13410	9
13403	13404	13415	13416	9
13403	13404	13415	8427	9
13403	13404	13405	13409	9
13403	13408	13407	13410	9
13407	13406	13413	13414	9
13407	13406	13413	8499	9
13407	13406	13405	13409	9
13407	13408	13403	13411	9
13411	13403	13408	13412	9
13410	13407	13408	13412	9
13416	13415	8427	8417	9
13416	13415	8427	8429	9
13414	13413	8499	8492	9
13414	13413	8499	8501	9
12942	12943	12944	12951	9
12947	12943	12944	12951	9
12946	12945	12944	12951	9
12948	12945	12944	12951	9
12951	8031	8021	8024	9
12951	8031	8021	8020	9
12944	12943	12942	12953	9
12947	12943	12942	12953	9
12946	12941	12942	12953	9
12949	12941	12942	12953	9
12953	7360	7353	7354	9
12953	7360	7353	7352	9
12944	12951	8031	8021	9
12944	12951	8031	8033	9
12944	12943	12942	12941	9
12944	12945	12946	12941	9
12944	12945	12946	12950	9
12942	12953	7360	7353	9
12942	12953	7360	7362	9
12945	12944	12943	12942	9
12945	12946	12941	12942	9
12942	12941	12946	12950	9
12943	12944	12951	12952	9
12943	12944	12951	8031	9
12943	12944	12945	12946	9
12943	12944	12945	12948	9
12943	12942	12953	12954	9
12943	12942	12953	7360	9
12943	12942	12941	12946	9
12943	12942	12941	12949	9
12945	12944	12951	12952	9
12945	12944	12951	8031	9
12945	12944	12943	12947	9
12945	12946	12941	12949	9
12941	12942	12953	12954	9
12941	12942	12953	7360	9
12941	12942	12943	12947	9
12941	12946	12945	12948	9
12948	12945	12946	12950	9
12949	12941	12946	12950	9
12952	12951	8031	8021	9
12952	12951	8031	8033	9
12954	12953	7360	7353	9
12954	12953	7360	7362	9
2792	2793	2794	2801	9
2797	2793	2794	2801	9
2796	2795	2794	2801	9
2798	2795	2794	2801	9
2801	5261	5254	5253	9
2801	5261	5254	5255	9
2794	2793	2792	2803	9
2797	2793	2792	2803	9
2796	2791	2792	2803	9
2799	2791	2792	2803	9
2794	2801	5261	5254	9
2794	2801	5261	5263	9
2791	2792	2793	2794	9
2791	2796	2795	2794	9
2794	2795	2796	2800	9
2792	2793	2794	2795	9
2792	2791	2796	2795	9
2792	2791	2796	2800	9
2793	2794	2801	2802	9
2793	2794	2801	5261	9
2793	2794	2795	2796	9
2793	2794	2795	2798	9
2793	2792	2803	2804	9
2793	2792	2803	2805	9
2793	2792	2791	2796	9
2793	2792	2791	2799	9
2795	2794	2801	2802	9
2795	2794	2801	5261	9
2795	2794	2793	2797	9
2795	2796	2791	2799	9
2791	2792	2803	2804	9
2791	2792	2803	2805	9
2791	2792	2793	2797	9
2791	2796	2795	2798	9
2798	2795	2796	2800	9
2799	2791	2796	2800	9
2802	2801	5261	5254	9
2802	2801	5261	5263	9
1805	1804	1803	1814	9
1808	1804	1803	1814	9
1807	1802	1803	1814	9
1810	1802	1803	1814	9
1814	10410	10403	10404	9
1814	10410	10403	10402	9
1803	1804	1805	1812	9
1808	1804	1805	1812	9
1807	1806	1805	1812	9
1809	1806	1805	1812	9
1786	1785	1791	1812	9
1788	1785	1791	1812	9
1803	1814	10410	10403	9
1803	1814	10410	10412	9
1803	1804	1805	1806	9
1803	1802	1807	1806	9
1803	1802	1807	1811	9
1785	1791	1812	1805	9
1792	1791	1812	1805	9
1802	1803	1804	1805	9
1802	1807	1806	1805	9
1805	1806	1807	1811	9
1804	1803	1814	1815	9
1804	1803	1814	10410	9
1804	1803	1802	1807	9
1804	1803	1802	1810	9
1804	1805	1812	1813	9
1791	1812	1805	1804	9
1804	1805	1806	1807	9
1804	1805	1806	1809	9
1802	1803	1814	1815	9
1802	1803	1814	10410	9
1802	1803	1804	1808	9
1802	1807	1806	1809	9
1806	1805	1812	1813	9
1791	1812	1805	1806	9
1806	1805	1804	1808	9
1806	1807	1802	1810	9
1810	1802	1807	1811	9
1809	1806	1807	1811	9
1815	1814	10410	10403	9
1815	1814	10410	10412	9
1785	1791	1812	1813	9
1792	1791	1812	1813	9
11106	11105	11104	11115	9
11109	11105	11104	11115	9
11108	11103	11104	11115	9
11111	11103	11104	11115	9
2567	2568	2575	11115	9
2569	2568	2575	11115	9
11104	11105	11106	11113	9
11109	11105	11106	11113	9
11108	11107	11106	11113	9
11110	11107	11106	11113	9
11113	11123	11117	11118	9
11113	11123	11117	11120	9
2568	2575	11115	11104	9
2577	2575	11115	11104	9
11104	11105	11106	11107	9
11104	11103	11108	11107	9
11104	11103	11108	11112	9
11106	11113	11123	11117	9
11106	11113	11123	11124	9
11103	11104	11105	11106	9
11103	11108	11107	11106	9
11106	11107	11108	11112	9
11105	11104	11115	11116	9
2575	11115	11104	11105	9
11105	11104	11103	11108	9
11105	11104	11103	11111	9
11105	11106	11113	11114	9
11105	11106	11113	11123	9
11105	11106	11107	11108	9
11105	11106	11107	11110	9
11103	11104	11115	11116	9
2575	11115	11104	11103	9
11103	11104	11105	11109	9
11103	11108	11107	11110	9
11107	11106	11113	11114	9
11107	11106	11113	11123	9
11107	11106	11105	11109	9
11107	11108	11103	11111	9
11111	11103	11108	11112	9
11110	11107	11108	11112	9
2568	2575	11115	11116	9
2577	2575	11115	11116	9
11114	11113	11123	11117	9
11114	11113	11123	11124	9
902	901	900	911	9
905	901	900	911	9
904	899	900	911	9
907	899	900	911	9
911	9216	9206	9209	9
911	9216	9206	9205	9
900	901	902	909	9
905	901	902	909	9
904	903	902	909	9
906	903	902	909	9
885	882	888	909	9
883	882	888	909	9
900	911	9216	9206	9
900	911	9216	9218	9
900	901	902	903	9
900	899	904	903	9
900	899	904	908	9
882	888	909	902	9
889	888	909	902	9
899	900	901	902	9
899	904	903	902	9
902	903	904	908	9
901	900	911	912	9
901	900	911	9216	9
901	900	899	904	9
901	900	899	907	9
901	902	909	910	9
888	909	902	901	9
901	902	903	904	9
901	902	903	906	9
899	900	911	912	9
899	900	911	9216	9
899	900	901	905	9
899	904	903	906	9
903	902	909	910	9
888	909	902	903	9
903	902	901	905	9
903	904	899	907	9
907	899	904	908	9
906	903	904	908	9
912	911	9216	9206	9
912	911	9216	9218	9
882	888	909	910	9
889	888	909	910	9
3574	3573	3572	3583	9
3577	3573	3572	3583	9
3576	3571	3572	3583	9
3579	3571	3572	3583	9
3572	3573	3574	3581	9
3577	3573	3574	3581	9
3576	3575	3574	3581	9
3578	3575	3574	3581	9
3581	10046	10039	10038	9
3581	10046	10039	10040	9
3572	3573	3574	3575	9
3572	3571	3576	3575	9
3572	3571	3576	3580	9
3574	3581	10046	10039	9
3574	3581	10046	10048	9
3571	3572	3573	3574	9
3571	3576	3575	3574	9
3574	3575	3576	3580	9
3573	3572	3583	3584	9
3573	3572	3583	3585	9
3573	3572	3571	3576	9
3573	3572	3571	3579	9
3573	3574	3581	3582	9
3573	3574	3581	10046	9
3573	3574	3575	3576	9
3573	3574	3575	3578	9
3571	3572	3583	3584	9
3571	3572	3583	3585	9
3571	3572	3573	3577	9
3571	3576	3575	3578	9
3575	3574	3581	3582	9
3575	3574	3581	10046	9
3575	3574	3573	3577	9
3575	3576	3571	3579	9
3579	3571	3576	3580	9
3578	3575	3576	3580	9
3582	3581	10046	10039	9
3582	3581	10046	10048	9
12986	12985	12984	12995	9
12989	12985	12984	12995	9
12988	12983	12984	12995	9
12991	12983	12984	12995	9
12995	7420	7410	7413	9
12995	7420	7410	7409	9
12984	12985	12986	12993	9
12989	12985	12986	12993	9
12988	12987	12986	12993	9
12990	12987	12986	12993	9
12993	8874	8868	8869	9
12993	8874	8868	8871	9
12984	12995	7420	7410	9
12984	12995	7420	7422	9
12984	12985	12986	12987	9
12984	12983	12988	12987	9
12984	12983	12988	12992	9
12986	12993	8874	8868	9
12986	12993	8874	8875	9
12983	12984	12985	12986	9
12983	12988	12987	12986	9
12986	12987	12988	12992	9
12985	12984	12995	12996	9
12985	12984	12995	7420	9
12985	12984	12983	12988	9
12985	12984	12983	12991	9
12985	12986	12993	12994	9
12985	12986	12993	8874	9
12985	12986	12987	12988	9
12985	12986	12987	12990	9
12983	12984	12995	12996	9
12983	12984	12995	7420	9
12983	12984	12985	12989	9
12983	12988	12987	12990	9
12987	12986	12993	12994	9
12987	12986	12993	8874	9
12987	12986	12985	12989	9
12987	12988	12983	12991	9
12991	12983	12988	12992	9
12990	12987	12988	12992	9
12996	12995	7420	7410	9
12996	12995	7420	7422	9
12994	12993	8874	8868	9
12994	12993	8874	8875	9
2474	2473	2472	2483	9
2477	2473	2472	2483	9
2476	2471	2472	2483	9
2479	2471	2472	2483	9
2483	8471	8461	8460	9
2483	8471	8461	8464	9
2472	2473	2474	2481	9
2477	2473	2474	2481	9
2476	2475	2474	2481	9
2478	2475	2474	2481	9
2455	2454	2460	2481	9
2457	2454	2460	2481	9
2472	2483	8471	8461	9
2472	2483	8471	8473	9
2472	2473	2474	2475	9
2472	2471	2476	2475	9
2472	2471	2476	2480	9
2454	2460	2481	2474	9
2461	2460	2481	2474	9
2471	2472	2473	2474	9
2471	2476	2475	2474	9
2474	2475	2476	2480	9
2473	2472	2483	2484	9
2473	2472	2483	8471	9
2473	2472	2471	2476	9
2473	2472	2471	2479	9
2473	2474	2481	2482	9
2460	2481	2474	2473	9
2473	2474	2475	2476	9
2473	2474	2475	2478	9
2471	2472	2483	2484	9
2471	2472	2483	8471	9
2471	2472	2473	2477	9
2471	2476	2475	2478	9
2475	2474	2481	2482	9
2460	2481	2474	2475	9
2475	2474	2473	2477	9
2475	2476	2471	2479	9
2479	2471	2476	2480	9
2478	2475	2476	2480	9
2484	2483	8471	8461	9
2484	2483	8471	8473	9
2454	2460	2481	2482	9
2461	2460	2481	2482	9
9425	9424	9423	9434	9
9428	9424	9423	9434	9
9427	9422	9423	9434	9
9430	9422	9423	9434	9
9434	9442	9436	9439	9
9434	9442	9436	9437	9
9423	9424	9425	9432	9
9428	9424	9425	9432	9
9427	9426	9425	9432	9
9429	9426	9425	9432	9
9432	10849	10842	10843	9
9432	10849	10842	10841	9
9423	9434	9442	9436	9
9423	9434	9442	9443	9
9423	9424	9425	9426	9
9423	9422	9427	9426	9
9423	9422	9427	9431	9
9425	9432	10849	10842	9
9425	9432	10849	10851	9
9422	9423	9424	9425	9
9422	9427	9426	9425	9
9425	9426	9427	9431	9
9424	9423	9434	9435	9
9424	9423	9434	9442	9
9424	9423	9422	9427	9
9424	9423	9422	9430	9
9424	9425	9432	9433	9
9424	9425	9432	10849	9
9424	9425	9426	9427	9
9424	9425	9426	9429	9
9422	9423	9434	9435	9
9422	9423	9434	9442	9
9422	9423	9424	9428	9
9422	9427	9426	9429	9
9426	9425	9432	9433	9
9426	9425	9432	10849	9
9426	9425	9424	9428	9
9426	9427	9422	9430	9
9430	9422	9427	9431	9
9429	9426	9427	9431	9
9435	9434	9442	9436	9
9435	9434	9442	9443	9
9433	9432	10849	10842	9
9433	9432	10849	10851	9
12354	12355	12356	12363	9
12359	12355	12356	12363	9
12358	12357	12356	12363	9
12360	12357	12356	12363	9
12363	5859	5852	5851	9
12363	5859	5852	5853	9
12356	12355	12354	12365	9
12359	12355	12354	12365	9
12358	12353	12354	12365	9
12361	12353	12354	12365	9
12365	8777	8770	8769	9
12365	8777	8770	8771	9
12356	12363	5859	5852	9
12356	12363	5859	5861	9
12356	12355	12354	12353	9
12356	12357	12358	12353	9
12356	12357	12358	12362	9
12354	12365	8777	8770	9
12354	12365	8777	8779	9
12357	12356	12355	12354	9
12357	12358	12353	12354	9
12354	12353	12358	12362	9
12355	12356	12363	12364	9
12355	12356	12363	5859	9
12355	12356	12357	12358	9
12355	12356	12357	12360	9
12355	12354	12365	12366	9
12355	12354	12365	8777	9
12355	12354	12353	12358	9
12355	12354	12353	12361	9
12357	12356	12363	12364	9
12357	12356	12363	5859	9
12357	12356	12355	12359	9
12357	12358	12353	12361	9
12353	12354	12365	12366	9
12353	12354	12365	8777	9
12353	12354	12355	12359	9
12353	12358	12357	12360	9
12360	12357	12358	12362	9
12361	12353	12358	12362	9
12364	12363	5859	5852	9
12364	12363	5859	5861	9
12366	12365	8777	8770	9
12366	12365	8777	8779	9
8242	8241	8240	8251	9
8245	8241	8240	8251	9
8244	8239	8240	8251	9
8247	8239	8240	8251	9
8251	8259	8253	8254	9
8251	8259	8253	8256	9
8240	8241	8242	8249	9
8245	8241	8242	8249	9
8244	8243	8242	8249	9
8246	8243	8242	8249	9
8249	9960	9950	9953	9
8249	9960	9950	9949	9
8240	8251	8259	8253	9
8240	8251	8259	8260	9
8240	8241	8242	8243	9
8240	8239	8244	8243	9
8240	8239	8244	8248	9
8242	8249	9960	9950	9
8242	8249	9960	9962	9
8239	8240	8241	8242	9
8239	8244	8243	8242	9
8242	8243	8244	8248	9
8241	8240	8251	8252	9
8241	8240	8251	8259	9
8241	8240	8239	8244	9
8241	8240	8239	8247	9
8241	8242	8249	8250	9
8241	8242	8249	9960	9
8241	8242	8243	8244	9
8241	8242	8243	8246	9
8239	8240	8251	8252	9
8239	8240	8251	8259	9
8239	8240	8241	8245	9
8239	8244	8243	8246	9
8243	8242	8249	8250	9
8243	8242	8249	9960	9
8243	8242	8241	8245	9
8243	8244	8239	8247	9
8247	8239	8244	8248	9
8246	8243	8244	8248	9
8252	8251	8259	8253	9
8252	8251	8259	8260	9
8250	8249	9960	9950	9
8250	8249	9960	9962	9
13574	13573	13572	13583	9
13577	13573	13572	13583	9
13576	13571	13572	13583	9
13579	13571	13572	13583	9
13583	9491	9484	9483	9
13583	9491	9484	9485	9
13572	13573	13574	13581	9
13577	13573	13574	13581	9
13576	13575	13574	13581	9
13578	13575	13574	13581	9
13581	9158	9148	9147	9
13581	9158	9148	9151	9
13572	13583	9491	9484	9
13572	13583	9491	9493	9
13572	13573	13574	13575	9
13572	13571	13576	13575	9
13572	13571	13576	13580	9
13574	13581	9158	9148	9
13574	13581	9158	9160	9
13571	13572	13573	13574	9
13571	13576	13575	13574	9
13574	13575	13576	13580	9
13573	13572	13583	13584	9
13573	13572	13583	9491	9
13573	13572	13571	13576	9
13573	13572	13571	13579	9
13573	13574	13581	13582	9
13573	13574	13581	9158	9
13573	13574	13575	13576	9
13573	13574	13575	13578	9
13571	13572	13583	13584	9
13571	13572	13583	9491	9
13571	13572	13573	13577	9
13571	13576	13575	13578	9
13575	13574	13581	13582	9
13575	13574	13581	9158	9
13575	13574	13573	13577	9
13575	13576	13571	13579	9
13579	13571	13576	13580	9
13578	13575	13576	13580	9
13584	13583	9491	9484	9
13584	13583	9491	9493	9
13582	13581	9158	9148	9
13582	13581	9158	9160	9
9689	9688	9687	9698	9
9692	9688	9687	9698	9
9691	9686	9687	9698	9
9694	9686	9687	9698	9
9698	5073	5063	5062	9
9698	5073	5063	5066	9
9687	9688	9689	9696	9
9692	9688	9689	9696	9
9691	9690	9689	9696	9
9693	9690	9689	9696	9
9696	9712	9702	9701	9
9696	9712	9702	9705	9
9687	9698	5073	5063	9
9687	9698	5073	5075	9
9687	9688	9689	9690	9
9687	9686	9691	9690	9
9687	9686	9691	9695	9
9689	9696	9712	9702	9
9689	9696	9712	9714	9
9686	9687	9688	9689	9
9686	9691	9690	9689	9
9689	9690	9691	9695	9
9688	9687	9698	9699	9
9688	9687	9698	5073	9
9688	9687	9686	9691	9
9688	9687	9686	9694	9
9688	9689	9696	9697	9
9688	9689	9696	9712	9
9688	9689	9690	9691	9
9688	9689	9690	9693	9
9686	9687	9698	9699	9
9686	9687	9698	5073	9
9686	9687	9688	9692	9
9686	9691	9690	9693	9
9690	9689	9696	9697	9
9690	9689	9696	9712	9
9690	9689	9688	9692	9
9690	9691	9686	9694	9
9694	9686	9691	9695	9
9693	9690	9691	9695	9
9699	9698	5073	5063	9
9699	9698	5073	5075	9
9697	9696	9712	9702	9
9697	9696	9712	9714	9
4062	4061	4060	4071	9
4065	4061	4060	4071	9
4064	4059	4060	4071	9
4067	4059	4060	4071	9
4071	4079	4073	4074	9
4071	4079	4073	4076	9
4060	4061	4062	4069	9
4065	4061	4062	4069	9
4064	4063	4062	4069	9
4066	4063	4062	4069	9
4069	7653	7643	7646	9
4069	7653	7643	7642	9
4060	4071	4079	4073	9
4060	4071	4079	4080	9
4060	4061	4062	4063	9
4060	4059	4064	4063	9
4060	4059	4064	4068	9
4062	4069	7653	7643	9
4062	4069	7653	7655	9
4059	4060	4061	4062	9
4059	4064	4063	4062	9
4062	4063	4064	4068	9
4061	4060	4071	4072	9
4061	4060	4071	4079	9
4061	4060	4059	4064	9
4061	4060	4059	4067	9
4061	4062	4069	4070	9
4061	4062	4069	7653	9
4061	4062	4063	4064	9
4061	4062	4063	4066	9
4059	4060	4071	4072	9
4059	4060	4071	4079	9
4059	4060	4061	4065	9
4059	4064	4063	4066	9
4063	4062	4069	4070	9
4063	4062	4069	7653	9
4063	4062	4061	4065	9
4063	4064	4059	4067	9
4067	4059	4064	4068	9
4066	4063	4064	4068	9
4072	4071	4079	4073	9
4072	4071	4079	4080	9
4070	4069	7653	7643	9
4070	4069	7653	7655	9
8592	8593	8594	8601	9
8597	8593	8594	8601	9
8596	8595	8594	8601	9
8598	8595	8594	8601	9
2600	2599	2606	8601	9
2598	2599	2606	8601	9
8594	8593	8592	8603	9
8597	8593	8592	8603	9
8596	8591	8592	8603	9
8599	8591	8592	8603	9
8603	8611	8605	8606	9
8603	8611	8605	8608	9
2599	2606	8601	8594	9
2608	2606	8601	8594	9
8594	8593	8592	8591	9
8594	8595	8596	8591	9
8594	8595	8596	8600	9
8592	8603	8611	8605	9
8592	8603	8611	8612	9
8595	8594	8593	8592	9
8595	8596	8591	8592	9
8592	8591	8596	8600	9
8593	8594	8601	8602	9
2606	8601	8594	8593	9
8593	8594	8595	8596	9
8593	8594	8595	8598	9
8593	8592	8603	8604	9
8593	8592	8603	8611	9
8593	8592	8591	8596	9
8593	8592	8591	8599	9
8595	8594	8601	8602	9
2606	8601	8594	8595	9
8595	8594	8593	8597	9
8595	8596	8591	8599	9
8591	8592	8603	8604	9
8591	8592	8603	8611	9
8591	8592	8593	8597	9
8591	8596	8595	8598	9
8598	8595	8596	8600	9
8599	8591	8596	8600	9
2599	2606	8601	8602	9
2608	2606	8601	8602	9
8604	8603	8611	8605	9
8604	8603	8611	8612	9
7674	7673	7672	7683	9
7677	7673	7672	7683	9
7676	7671	7672	7683	9
7679	7671	7672	7683	9
7683	7691	7685	7688	9
7683	7691	7685	7686	9
7672	7673	7674	7681	9
7677	7673	7674	7681	9
7676	7675	7674	7681	9
7678	7675	7674	7681	9
7681	7958	7948	7951	9
7681	7958	7948	7947	9
7672	7683	7691	7685	9
7672	7683	7691	7692	9
7672	7673	7674	7675	9
7672	7671	7676	7675	9
7672	7671	7676	7680	9
7674	7681	7958	7948	9
7674	7681	7958	7960	9
7671	7672	7673	7674	9
7671	7676	7675	7674	9
7674	7675	7676	7680	9
7673	7672	7683	7684	9
7673	7672	7683	7691	9
7673	7672	7671	7676	9
7673	7672	7671	7679	9
7673	7674	7681	7682	9
7673	7674	7681	7958	9
7673	7674	7675	7676	9
7673	7674	7675	7678	9
7671	7672	7683	7684	9
7671	7672	7683	7691	9
7671	7672	7673	7677	9
7671	7676	7675	7678	9
7675	7674	7681	7682	9
7675	7674	7681	7958	9
7675	7674	7673	7677	9
7675	7676	7671	7679	9
7679	7671	7676	7680	9
7678	7675	7676	7680	9
7684	7683	7691	7685	9
7684	7683	7691	7692	9
7682	7681	7958	7948	9
7682	7681	7958	7960	9
11796	11795	11794	11805	9
11799	11795	11794	11805	9
11798	11793	11794	11805	9
11801	11793	11794	11805	9
11805	8981	8974	8973	9
11805	8981	8974	8975	9
11794	11795	11796	11803	9
11799	11795	11796	11803	9
11798	11797	11796	11803	9
11800	11797	11796	11803	9
11803	4884	4874	4877	9
11803	4884	4874	4873	9
11794	11805	8981	8974	9
11794	11805	8981	8983	9
11794	11795	11796	11797	9
11794	11793	11798	11797	9
11794	11793	11798	11802	9
11796	11803	4884	4874	9
11796	11803	4884	4886	9
11793	11794	11795	11796	9
11793	11798	11797	11796	9
11796	11797	11798	11802	9
11795	11794	11805	11806	9
11795	11794	11805	8981	9
11795	11794	11793	11798	9
11795	11794	11793	11801	9
11795	11796	11803	11804	9
11795	11796	11803	4884	9
11795	11796	11797	11798	9
11795	11796	11797	11800	9
11793	11794	11805	11806	9
11793	11794	11805	8981	9
11793	11794	11795	11799	9
11793	11798	11797	11800	9
11797	11796	11803	11804	9
11797	11796	11803	4884	9
11797	11796	11795	11799	9
11797	11798	11793	11801	9
11801	11793	11798	11802	9
11800	11797	11798	11802	9
11806	11805	8981	8974	9
11806	11805	8981	8983	9
11804	11803	4884	4874	9
11804	11803	4884	4886	9
11824	11823	11822	11833	9
11827	11823	11822	11833	9
11826	11821	11822	11833	9
11829	11821	11822	11833	9
11833	9360	9353	9354	9
11833	9360	9353	9352	9
11822	11823	11824	11831	9
11827	11823	11824	11831	9
11826	11825	11824	11831	9
11828	11825	11824	11831	9
11831	4912	4905	4906	9
11831	4912	4905	4904	9
11822	11833	9360	9353	9
11822	11833	9360	9362	9
11822	11823	11824	11825	9
11822	11821	11826	11825	9
11822	11821	11826	11830	9
11824	11831	4912	4905	9
11824	11831	4912	4914	9
11821	11822	11823	11824	9
11821	11826	11825	11824	9
11824	11825	11826	11830	9
11823	11822	11833	11834	9
11823	11822	11833	9360	9
11823	11822	11821	11826	9
11823	11822	11821	11829	9
11823	11824	11831	11832	9
11823	11824	11831	4912	9
11823	11824	11825	11826	9
11823	11824	11825	11828	9
11821	11822	11833	11834	9
11821	11822	11833	9360	9
11821	11822	11823	11827	9
11821	11826	11825	11828	9
11825	11824	11831	11832	9
11825	11824	11831	4912	9
11825	11824	11823	11827	9
11825	11826	11821	11829	9
11829	11821	11826	11830	9
11828	11825	11826	11830	9
11834	11833	9360	9353	9
11834	11833	9360	9362	9
11832	11831	4912	4905	9
11832	11831	4912	4914	9
3917	3916	3915	3926	9
3920	3916	3915	3926	9
3919	3914	3915	3926	9
3922	3914	3915	3926	9
3926	3934	3928	3931	9
3926	3934	3928	3929	9
3915	3916	3917	3924	9
3920	3916	3917	3924	9
3919	3918	3917	3924	9
3921	3918	3917	3924	9
3924	9274	9264	9267	9
3924	9274	9264	9263	9
3915	3926	3934	3928	9
3915	3926	3934	3935	9
3915	3916	3917	3918	9
3915	3914	3919	3918	9
3915	3914	3919	3923	9
3917	3924	9274	9264	9
3917	3924	9274	9276	9
3914	3915	3916	3917	9
3914	3919	3918	3917	9
3917	3918	3919	3923	9
3916	3915	3926	3927	9
3916	3915	3926	3934	9
3916	3915	3914	3919	9
3916	3915	3914	3922	9
3916	3917	3924	3925	9
3916	3917	3924	9274	9
3916	3917	3918	3919	9
3916	3917	3918	3921	9
3914	3915	3926	3927	9
3914	3915	3926	3934	9
3914	3915	3916	3920	9
3914	3919	3918	3921	9
3918	3917	3924	3925	9
3918	3917	3924	9274	9
3918	3917	3916	3920	9
3918	3919	3914	3922	9
3922	3914	3919	3923	9
3921	3918	3919	3923	9
3927	3926	3934	3928	9
3927	3926	3934	3935	9
3925	3924	9274	9264	9
3925	3924	9274	9276	9
9498	9497	9496	9507	9
9501	9497	9496	9507	9
9500	9495	9496	9507	9
9503	9495	9496	9507	9
9507	7972	7965	7966	9
9507	7972	7965	7964	9
9496	9497	9498	9505	9
9501	9497	9498	9505	9
9500	9499	9498	9505	9
9502	9499	9498	9505	9
9505	9515	9509	9510	9
9505	9515	9509	9512	9
9496	9507	7972	7965	9
9496	9507	7972	7974	9
9496	9497	9498	9499	9
9496	9495	9500	9499	9
9496	9495	9500	9504	9
9498	9505	9515	9509	9
9498	9505	9515	9516	9
9495	9496	9497	9498	9
9495	9500	9499	9498	9
9498	9499	9500	9504	9
9497	9496	9507	9508	9
9497	9496	9507	7972	9
9497	9496	9495	9500	9
9497	9496	9495	9503	9
9497	9498	9505	9506	9
9497	9498	9505	9515	9
9497	9498	9499	9500	9
9497	9498	9499	9502	9
9495	9496	9507	9508	9
9495	9496	9507	7972	9
9495	9496	9497	9501	9
9495	9500	9499	9502	9
9499	9498	9505	9506	9
9499	9498	9505	9515	9
9499	9498	9497	9501	9
9499	9500	9495	9503	9
9503	9495	9500	9504	9
9502	9499	9500	9504	9
9508	9507	7972	7965	9
9508	9507	7972	7974	9
9506	9505	9515	9509	9
9506	9505	9515	9516	9
4643	4642	4641	4652	9
4646	4642	4641	4652	9
4645	4640	4641	4652	9
4648	4640	4641	4652	9
4652	4660	4654	4655	9
4652	4660	4654	4657	9
4641	4642	4643	4650	9
4646	4642	4643	4650	9
4645	4644	4643	4650	9
4647	4644	4643	4650	9
4650	8235	8228	8229	9
4650	8235	8228	8227	9
4641	4652	4660	4654	9
4641	4652	4660	4661	9
4641	4642	4643	4644	9
4641	4640	4645	4644	9
4641	4640	4645	4649	9
4643	4650	8235	8228	9
4643	4650	8235	8237	9
4640	4641	4642	4643	9
4640	4645	4644	4643	9
4643	4644	4645	4649	9
4642	4641	4652	4653	9
4642	4641	4652	4660	9
4642	4641	4640	4645	9
4642	4641	4640	4648	9
4642	4643	4650	4651	9
4642	4643	4650	8235	9
4642	4643	4644	4645	9
4642	4643	4644	4647	9
4640	4641	4652	4653	9
4640	4641	4652	4660	9
4640	4641	4642	4646	9
4640	4645	4644	4647	9
4644	4643	4650	4651	9
4644	4643	4650	8235	9
4644	4643	4642	4646	9
4644	4645	4640	4648	9
4648	4640	4645	4649	9
4647	4644	4645	4649	9
4653	4652	4660	4654	9
4653	4652	4660	4661	9
4651	4650	8235	8228	9
4651	4650	8235	8237	9
12678	12677	12676	12687	9
12681	12677	12676	12687	9
12680	12675	12676	12687	9
12683	12675	12676	12687	9
12687	10879	10869	10872	9
12687	10879	10869	10868	9
12676	12677	12678	12685	9
12681	12677	12678	12685	9
12680	12679	12678	12685	9
12682	12679	12678	12685	9
12685	6502	6492	6491	9
12685	6502	6492	6495	9
12676	12687	10879	10869	9
12676	12687	10879	10881	9
12676	12677	12678	12679	9
12676	12675	12680	12679	9
12676	12675	12680	12684	9
12678	12685	6502	6492	9
12678	12685	6502	6504	9
12675	12676	12677	12678	9
12675	12680	12679	12678	9
12678	12679	12680	12684	9
12677	12676	12687	12688	9
12677	12676	12687	10879	9
12677	12676	12675	12680	9
12677	12676	12675	12683	9
12677	12678	12685	12686	9
12677	12678	12685	6502	9
12677	12678	12679	12680	9
12677	12678	12679	12682	9
12675	12676	12687	12688	9
12675	12676	12687	10879	9
12675	12676	12677	12681	9
12675	12680	12679	12682	9
12679	12678	12685	12686	9
12679	12678	12685	6502	9
12679	12678	12677	12681	9
12679	12680	12675	12683	9
12683	12675	12680	12684	9
12682	12679	12680	12684	9
12688	12687	10879	10869	9
12688	12687	10879	10881	9
12686	12685	6502	6492	9
12686	12685	6502	6504	9
12930	12929	12928	12939	9
12933	12929	12928	12939	9
12932	12927	12928	12939	9
12935	12927	12928	12939	9
12939	7302	7295	7294	9
12939	7302	7295	7296	9
12928	12929	12930	12937	9
12933	12929	12930	12937	9
12932	12931	12930	12937	9
12934	12931	12930	12937	9
12937	10543	10533	10532	9
12937	10543	10533	10536	9
12928	12939	7302	7295	9
12928	12939	7302	7304	9
12928	12929	12930	12931	9
12928	12927	12932	12931	9
12928	12927	12932	12936	9
12930	12937	10543	10533	9
12930	12937	10543	10545	9
12927	12928	12929	12930	9
12927	12932	12931	12930	9
12930	12931	12932	12936	9
12929	12928	12939	12940	9
12929	12928	12939	7302	9
12929	12928	12927	12932	9
12929	12928	12927	12935	9
12929	12930	12937	12938	9
12929	12930	12937	10543	9
12929	12930	12931	12932	9
12929	12930	12931	12934	9
12927	12928	12939	12940	9
12927	12928	12939	7302	9
12927	12928	12929	12933	9
12927	12932	12931	12934	9
12931	12930	12937	12938	9
12931	12930	12937	10543	9
12931	12930	12929	12933	9
12931	12932	12927	12935	9
12935	12927	12932	12936	9
12934	12931	12932	12936	9
12940	12939	7302	7295	9
12940	12939	7302	7304	9
12938	12937	10543	10533	9
12938	12937	10543	10545	9
716	715	714	725	9
719	715	714	725	9
718	713	714	725	9
721	713	714	725	9
699	696	702	725	9
697	696	702	725	9
714	715	716	723	9
719	715	716	723	9
718	717	716	723	9
720	717	716	723	9
723	6152	6142	6145	9
723	6152	6142	6141	9
696	702	725	714	9
703	702	725	714	9
714	715	716	717	9
714	713	718	717	9
714	713	718	722	9
716	723	6152	6142	9
716	723	6152	6154	9
713	714	715	716	9
713	718	717	716	9
716	717	718	722	9
715	714	725	726	9
702	725	714	715	9
715	714	713	718	9
715	714	713	721	9
715	716	723	724	9
715	716	723	6152	9
715	716	717	718	9
715	716	717	720	9
713	714	725	726	9
702	725	714	713	9
713	714	715	719	9
713	718	717	720	9
717	716	723	724	9
717	716	723	6152	9
717	716	715	719	9
717	718	713	721	9
721	713	718	722	9
720	717	718	722	9
696	702	725	726	9
703	702	725	726	9
724	723	6152	6142	9
724	723	6152	6154	9
12202	12201	12200	12211	9
12205	12201	12200	12211	9
12204	12199	12200	12211	9
12207	12199	12200	12211	9
2163	2162	2169	12211	9
2161	2162	2169	12211	9
12200	12201	12202	12209	9
12205	12201	12202	12209	9
12204	12203	12202	12209	9
12206	12203	12202	12209	9
12209	5640	5633	5632	9
12209	5640	5633	5634	9
2162	2169	12211	12200	9
2171	2169	12211	12200	9
12200	12201	12202	12203	9
12200	12199	12204	12203	9
12200	12199	12204	12208	9
12202	12209	5640	5633	9
12202	12209	5640	5642	9
12199	12200	12201	12202	9
12199	12204	12203	12202	9
12202	12203	12204	12208	9
12201	12200	12211	12212	9
2169	12211	12200	12201	9
12201	12200	12199	12204	9
12201	12200	12199	12207	9
12201	12202	12209	12210	9
12201	12202	12209	5640	9
12201	12202	12203	12204	9
12201	12202	12203	12206	9
12199	12200	12211	12212	9
2169	12211	12200	12199	9
12199	12200	12201	12205	9
12199	12204	12203	12206	9
12203	12202	12209	12210	9
12203	12202	12209	5640	9
12203	12202	12201	12205	9
12203	12204	12199	12207	9
12207	12199	12204	12208	9
12206	12203	12204	12208	9
2162	2169	12211	12212	9
2171	2169	12211	12212	9
12210	12209	5640	5633	9
12210	12209	5640	5642	9
13238	13237	13236	13247	9
13241	13237	13236	13247	9
13240	13235	13236	13247	9
13243	13235	13236	13247	9
13247	8206	8196	8199	9
13247	8206	8196	8195	9
13236	13237	13238	13245	9
13241	13237	13238	13245	9
13240	13239	13238	13245	9
13242	13239	13238	13245	9
2333	2334	2341	13245	9
2335	2334	2341	13245	9
13236	13247	8206	8196	9
13236	13247	8206	8208	9
13236	13237	13238	13239	9
13236	13235	13240	13239	9
13236	13235	13240	13244	9
2334	2341	13245	13238	9
2343	2341	13245	13238	9
13235	13236	13237	13238	9
13235	13240	13239	13238	9
13238	13239	13240	13244	9
13237	13236	13247	13248	9
13237	13236	13247	8206	9
13237	13236	13235	13240	9
13237	13236	13235	13243	9
13237	13238	13245	13246	9
2341	13245	13238	13237	9
13237	13238	13239	13240	9
13237	13238	13239	13242	9
13235	13236	13247	13248	9
13235	13236	13247	8206	9
13235	13236	13237	13241	9
13235	13240	13239	13242	9
13239	13238	13245	13246	9
2341	13245	13238	13239	9
13239	13238	13237	13241	9
13239	13240	13235	13243	9
13243	13235	13240	13244	9
13242	13239	13240	13244	9
13248	13247	8206	8196	9
13248	13247	8206	8208	9
2334	2341	13245	13246	9
2343	2341	13245	13246	9
7309	7308	7307	7318	9
7312	7308	7307	7318	9
7311	7306	7307	7318	9
7314	7306	7307	7318	9
7318	8509	8503	8504	9
7318	8509	8503	8506	9
7307	7308	7309	7316	9
7312	7308	7309	7316	9
7311	7310	7309	7316	9
7313	7310	7309	7316	9
7316	7326	7320	7323	9
7316	7326	7320	7321	9
7307	7318	8509	8503	9
7307	7318	8509	8510	9
7307	7308	7309	7310	9
7307	7306	7311	7310	9
7307	7306	7311	7315	9
7309	7316	7326	7320	9
7309	7316	7326	7327	9
7306	7307	7308	7309	9
7306	7311	7310	7309	9
7309	7310	7311	7315	9
7308	7307	7318	7319	9
7308	7307	7318	8509	9
7308	7307	7306	7311	9
7308	7307	7306	7314	9
7308	7309	7316	7317	9
7308	7309	7316	7326	9
7308	7309	7310	7311	9
7308	7309	7310	7313	9
7306	7307	7318	7319	9
7306	7307	7318	8509	9
7306	7307	7308	7312	9
7306	7311	7310	7313	9
7310	7309	7316	7317	9
7310	7309	7316	7326	9
7310	7309	7308	7312	9
7310	7311	7306	7314	9
7314	7306	7311	7315	9
7313	7310	7311	7315	9
7319	7318	8509	8503	9
7319	7318	8509	8510	9
7317	7316	7326	7320	9
7317	7316	7326	7327	9
13686	13685	13684	13695	9
13689	13685	13684	13695	9
13688	13683	13684	13695	9
13691	13683	13684	13695	9
13695	10163	10153	10156	9
13695	10163	10153	10152	9
13684	13685	13686	13693	9
13689	13685	13686	13693	9
13688	13687	13686	13693	9
13690	13687	13686	13693	9
2428	2427	2434	13693	9
2426	2427	2434	13693	9
13684	13695	10163	10153	9
13684	13695	10163	10165	9
13684	13685	13686	13687	9
13684	13683	13688	13687	9
13684	13683	13688	13692	9
2427	2434	13693	13686	9
2436	2434	13693	13686	9
13683	13684	13685	13686	9
13683	13688	13687	13686	9
13686	13687	13688	13692	9
13685	13684	13695	13696	9
13685	13684	13695	10163	9
13685	13684	13683	13688	9
13685	13684	13683	13691	9
13685	13686	13693	13694	9
2434	13693	13686	13685	9
13685	13686	13687	13688	9
13685	13686	13687	13690	9
13683	13684	13695	13696	9
13683	13684	13695	10163	9
13683	13684	13685	13689	9
13683	13688	13687	13690	9
13687	13686	13693	13694	9
2434	13693	13686	13687	9
13687	13686	13685	13689	9
13687	13688	13683	13691	9
13691	13683	13688	13692	9
13690	13687	13688	13692	9
13696	13695	10163	10153	9
13696	13695	10163	10165	9
2427	2434	13693	13694	9
2436	2434	13693	13694	9
1867	1866	1865	1876	9
1870	1866	1865	1876	9
1869	1864	1865	1876	9
1872	1864	1865	1876	9
1876	9215	9208	9207	9
1876	9215	9208	9209	9
1865	1866	1867	1874	9
1870	1866	1867	1874	9
1869	1868	1867	1874	9
1871	1868	1867	1874	9
1848	1847	1853	1874	9
1850	1847	1853	1874	9
1865	1876	9215	9208	9
1865	1876	9215	9217	9
1865	1866	1867	1868	9
1865	1864	1869	1868	9
1865	1864	1869	1873	9
1847	1853	1874	1867	9
1854	1853	1874	1867	9
1864	1865	1866	1867	9
1864	1869	1868	1867	9
1867	1868	1869	1873	9
1866	1865	1876	1877	9
1866	1865	1876	9215	9
1866	1865	1864	1869	9
1866	1865	1864	1872	9
1866	1867	1874	1875	9
1853	1874	1867	1866	9
1866	1867	1868	1869	9
1866	1867	1868	1871	9
1864	1865	1876	1877	9
1864	1865	1876	9215	9
1864	1865	1866	1870	9
1864	1869	1868	1871	9
1868	1867	1874	1875	9
1853	1874	1867	1868	9
1868	1867	1866	1870	9
1868	1869	1864	1872	9
1872	1864	1869	1873	9
1871	1868	1869	1873	9
1877	1876	9215	9208	9
1877	1876	9215	9217	9
1847	1853	1874	1875	9
1854	1853	1874	1875	9
12342	12341	12340	12351	9
12345	12341	12340	12351	9
12344	12339	12340	12351	9
12347	12339	12340	12351	9
12351	5830	5823	5822	9
12351	5830	5823	5824	9
12340	12341	12342	12349	9
12345	12341	12342	12349	9
12344	12343	12342	12349	9
12346	12343	12342	12349	9
1073	1072	1079	12349	9
1071	1072	1079	12349	9
12340	12351	5830	5823	9
12340	12351	5830	5832	9
12340	12341	12342	12343	9
12340	12339	12344	12343	9
12340	12339	12344	12348	9
1072	1079	12349	12342	9
1081	1079	12349	12342	9
12339	12340	12341	12342	9
12339	12344	12343	12342	9
12342	12343	12344	12348	9
12341	12340	12351	12352	9
12341	12340	12351	5830	9
12341	12340	12339	12344	9
12341	12340	12339	12347	9
12341	12342	12349	12350	9
1079	12349	12342	12341	9
12341	12342	12343	12344	9
12341	12342	12343	12346	9
12339	12340	12351	12352	9
12339	12340	12351	5830	9
12339	12340	12341	12345	9
12339	12344	12343	12346	9
12343	12342	12349	12350	9
1079	12349	12342	12343	9
12343	12342	12341	12345	9
12343	12344	12339	12347	9
12347	12339	12344	12348	9
12346	12343	12344	12348	9
12352	12351	5830	5823	9
12352	12351	5830	5832	9
1072	1079	12349	12350	9
1081	1079	12349	12350	9
1464	1463	1462	1473	9
1467	1463	1462	1473	9
1466	1461	1462	1473	9
1469	1461	1462	1473	9
1447	1444	1450	1473	9
1445	1444	1450	1473	9
1462	1463	1464	1471	9
1467	1463	1464	1471	9
1466	1465	1464	1471	9
1468	1465	1464	1471	9
1471	7006	7000	7003	9
1471	7006	7000	7001	9
1444	1450	1473	1462	9
1451	1450	1473	1462	9
1462	1463	1464	1465	9
1462	1461	1466	1465	9
1462	1461	1466	1470	9
1464	1471	7006	7000	9
1464	1471	7006	7007	9
1461	1462	1463	1464	9
1461	1466	1465	1464	9
1464	1465	1466	1470	9
1463	1462	1473	1474	9
1450	1473	1462	1463	9
1463	1462	1461	1466	9
1463	1462	1461	1469	9
1463	1464	1471	1472	9
1463	1464	1471	7006	9
1463	1464	1465	1466	9
1463	1464	1465	1468	9
1461	1462	1473	1474	9
1450	1473	1462	1461	9
1461	1462	1463	1467	9
1461	1466	1465	1468	9
1465	1464	1471	1472	9
1465	1464	1471	7006	9
1465	1464	1463	1467	9
1465	1466	1461	1469	9
1469	1461	1466	1470	9
1468	1465	1466	1470	9
1444	1450	1473	1474	9
1451	1450	1473	1474	9
1472	1471	7006	7000	9
1472	1471	7006	7007	9
5092	5093	5094	5101	9
5097	5093	5094	5101	9
5096	5095	5094	5101	9
5098	5095	5094	5101	9
5101	10499	10489	10492	9
5101	10499	10489	10488	9
5094	5093	5092	5103	9
5097	5093	5092	5103	9
5096	5091	5092	5103	9
5099	5091	5092	5103	9
5103	5111	5105	5106	9
5103	5111	5105	5108	9
5094	5101	10499	10489	9
5094	5101	10499	10501	9
5091	5092	5093	5094	9
5091	5096	5095	5094	9
5094	5095	5096	5100	9
5092	5103	5111	5105	9
5092	5103	5111	5112	9
5092	5093	5094	5095	9
5092	5091	5096	5095	9
5092	5091	5096	5100	9
5093	5094	5101	5102	9
5093	5094	5101	10499	9
5093	5094	5095	5096	9
5093	5094	5095	5098	9
5093	5092	5103	5104	9
5093	5092	5103	5111	9
5093	5092	5091	5096	9
5093	5092	5091	5099	9
5095	5094	5101	5102	9
5095	5094	5101	10499	9
5095	5094	5093	5097	9
5095	5096	5091	5099	9
5091	5092	5103	5104	9
5091	5092	5103	5111	9
5091	5092	5093	5097	9
5091	5096	5095	5098	9
5098	5095	5096	5100	9
5099	5091	5096	5100	9
5102	5101	10499	10489	9
5102	5101	10499	10501	9
5104	5103	5111	5105	9
5104	5103	5111	5112	9
88	87	86	97	9
91	87	86	97	9
90	85	86	97	9
93	85	86	97	9
75	74	76	97	9
73	74	76	97	9
86	87	88	95	9
91	87	88	95	9
90	89	88	95	9
92	89	88	95	9
95	7040	7033	7032	9
95	7040	7033	7034	9
74	76	97	86	9
77	76	97	86	9
86	87	88	89	9
86	85	90	89	9
86	85	90	94	9
88	95	7040	7033	9
88	95	7040	7042	9
85	86	87	88	9
85	90	89	88	9
88	89	90	94	9
87	86	97	98	9
76	97	86	87	9
87	86	85	90	9
87	86	85	93	9
87	88	95	96	9
87	88	95	7040	9
87	88	89	90	9
87	88	89	92	9
85	86	97	98	9
76	97	86	85	9
85	86	87	91	9
85	90	89	92	9
89	88	95	96	9
89	88	95	7040	9
89	88	87	91	9
89	90	85	93	9
93	85	90	94	9
92	89	90	94	9
74	76	97	98	9
77	76	97	98	9
96	95	7040	7033	9
96	95	7040	7042	9
8828	8827	8826	8837	9
8831	8827	8826	8837	9
8830	8825	8826	8837	9
8833	8825	8826	8837	9
8837	8845	8839	8840	9
8837	8845	8839	8842	9
8826	8827	8828	8835	9
8831	8827	8828	8835	9
8830	8829	8828	8835	9
8832	8829	8828	8835	9
8835	5393	5383	5386	9
8835	5393	5383	5382	9
8826	8837	8845	8839	9
8826	8837	8845	8846	9
8826	8827	8828	8829	9
8826	8825	8830	8829	9
8826	8825	8830	8834	9
8828	8835	5393	5383	9
8828	8835	5393	5395	9
8825	8826	8827	8828	9
8825	8830	8829	8828	9
8828	8829	8830	8834	9
8827	8826	8837	8838	9
8827	8826	8837	8845	9
8827	8826	8825	8830	9
8827	8826	8825	8833	9
8827	8828	8835	8836	9
8827	8828	8835	5393	9
8827	8828	8829	8830	9
8827	8828	8829	8832	9
8825	8826	8837	8838	9
8825	8826	8837	8845	9
8825	8826	8827	8831	9
8825	8830	8829	8832	9
8829	8828	8835	8836	9
8829	8828	8835	5393	9
8829	8828	8827	8831	9
8829	8830	8825	8833	9
8833	8825	8830	8834	9
8832	8829	8830	8834	9
8838	8837	8845	8839	9
8838	8837	8845	8846	9
8836	8835	5393	5383	9
8836	8835	5393	5395	9
1227	1228	1229	1236	9
1232	1228	1229	1236	9
1231	1230	1229	1236	9
1233	1230	1229	1236	9
1210	1209	1215	1236	9
1212	1209	1215	1236	9
1229	1228	1227	1238	9
1232	1228	1227	1238	9
1231	1226	1227	1238	9
1234	1226	1227	1238	9
1209	1215	1236	1229	9
1216	1215	1236	1229	9
1226	1227	1228	1229	9
1226	1231	1230	1229	9
1229	1230	1231	1235	9
1227	1228	1229	1230	9
1227	1226	1231	1230	9
1227	1226	1231	1235	9
1228	1229	1236	1237	9
1215	1236	1229	1228	9
1228	1229	1230	1231	9
1228	1229	1230	1233	9
1228	1227	1238	1240	9
1228	1227	1238	1239	9
1228	1227	1226	1231	9
1228	1227	1226	1234	9
1230	1229	1236	1237	9
1215	1236	1229	1230	9
1230	1229	1228	1232	9
1230	1231	1226	1234	9
1226	1227	1238	1240	9
1226	1227	1238	1239	9
1226	1227	1228	1232	9
1226	1231	1230	1233	9
1233	1230	1231	1235	9
1234	1226	1231	1235	9
1209	1215	1236	1237	9
1216	1215	1236	1237	9
13826	13825	13824	13835	9
13829	13825	13824	13835	9
13828	13823	13824	13835	9
13831	13823	13824	13835	9
1943	1944	1951	13835	9
1945	1944	1951	13835	9
13824	13825	13826	13833	9
13829	13825	13826	13833	9
13828	13827	13826	13833	9
13830	13827	13826	13833	9
730	731	738	13833	9
732	731	738	13833	9
1944	1951	13835	13824	9
1953	1951	13835	13824	9
13824	13825	13826	13827	9
13824	13823	13828	13827	9
13824	13823	13828	13832	9
731	738	13833	13826	9
740	738	13833	13826	9
13823	13824	13825	13826	9
13823	13828	13827	13826	9
13826	13827	13828	13832	9
13825	13824	13835	13836	9
1951	13835	13824	13825	9
13825	13824	13823	13828	9
13825	13824	13823	13831	9
13825	13826	13833	13834	9
738	13833	13826	13825	9
13825	13826	13827	13828	9
13825	13826	13827	13830	9
13823	13824	13835	13836	9
1951	13835	13824	13823	9
13823	13824	13825	13829	9
13823	13828	13827	13830	9
13827	13826	13833	13834	9
738	13833	13826	13827	9
13827	13826	13825	13829	9
13827	13828	13823	13831	9
13831	13823	13828	13832	9
13830	13827	13828	13832	9
1944	1951	13835	13836	9
1953	1951	13835	13836	9
731	738	13833	13834	9
740	738	13833	13834	9
1119	1118	1117	1128	9
1122	1118	1117	1128	9
1121	1116	1117	1128	9
1124	1116	1117	1128	9
1128	7055	7048	7047	9
1128	7055	7048	7049	9
1117	1118	1119	1126	9
1122	1118	1119	1126	9
1121	1120	1119	1126	9
1123	1120	1119	1126	9
1100	1099	1105	1126	9
1102	1099	1105	1126	9
1117	1128	7055	7048	9
1117	1128	7055	7057	9
1117	1118	1119	1120	9
1117	1116	1121	1120	9
1117	1116	1121	1125	9
1099	1105	1126	1119	9
1106	1105	1126	1119	9
1116	1117	1118	1119	9
1116	1121	1120	1119	9
1119	1120	1121	1125	9
1118	1117	1128	1129	9
1118	1117	1128	7055	9
1118	1117	1116	1121	9
1118	1117	1116	1124	9
1118	1119	1126	1127	9
1105	1126	1119	1118	9
1118	1119	1120	1121	9
1118	1119	1120	1123	9
1116	1117	1128	1129	9
1116	1117	1128	7055	9
1116	1117	1118	1122	9
1116	1121	1120	1123	9
1120	1119	1126	1127	9
1105	1126	1119	1120	9
1120	1119	1118	1122	9
1120	1121	1116	1124	9
1124	1116	1121	1125	9
1123	1120	1121	1125	9
1129	1128	7055	7048	9
1129	1128	7055	7057	9
1099	1105	1126	1127	9
1106	1105	1126	1127	9
11712	11711	11710	11721	9
11715	11711	11710	11721	9
11714	11709	11710	11721	9
11717	11709	11710	11721	9
11721	4753	4743	4742	9
11721	4753	4743	4746	9
11710	11711	11712	11719	9
11715	11711	11712	11719	9
11714	11713	11712	11719	9
11716	11713	11712	11719	9
2366	2365	2372	11719	9
2364	2365	2372	11719	9
11710	11721	4753	4743	9
11710	11721	4753	4755	9
11710	11711	11712	11713	9
11710	11709	11714	11713	9
11710	11709	11714	11718	9
2365	2372	11719	11712	9
2374	2372	11719	11712	9
11709	11710	11711	11712	9
11709	11714	11713	11712	9
11712	11713	11714	11718	9
11711	11710	11721	11722	9
11711	11710	11721	4753	9
11711	11710	11709	11714	9
11711	11710	11709	11717	9
11711	11712	11719	11720	9
2372	11719	11712	11711	9
11711	11712	11713	11714	9
11711	11712	11713	11716	9
11709	11710	11721	11722	9
11709	11710	11721	4753	9
11709	11710	11711	11715	9
11709	11714	11713	11716	9
11713	11712	11719	11720	9
2372	11719	11712	11713	9
11713	11712	11711	11715	9
11713	11714	11709	11717	9
11717	11709	11714	11718	9
11716	11713	11714	11718	9
11722	11721	4753	4743	9
11722	11721	4753	4755	9
2365	2372	11719	11720	9
2374	2372	11719	11720	9
9922	9921	9920	9931	9
9925	9921	9920	9931	9
9924	9919	9920	9931	9
9927	9919	9920	9931	9
9931	9939	9933	9934	9
9931	9939	9933	9936	9
9920	9921	9922	9929	9
9925	9921	9922	9929	9
9924	9923	9922	9929	9
9926	9923	9922	9929	9
9929	5962	5955	5956	9
9929	5962	5955	5954	9
9920	9931	9939	9933	9
9920	9931	9939	9940	9
9920	9921	9922	9923	9
9920	9919	9924	9923	9
9920	9919	9924	9928	9
9922	9929	5962	5955	9
9922	9929	5962	5964	9
9919	9920	9921	9922	9
9919	9924	9923	9922	9
9922	9923	9924	9928	9
9921	9920	9931	9932	9
9921	9920	9931	9939	9
9921	9920	9919	9924	9
9921	9920	9919	9927	9
9921	9922	9929	9930	9
9921	9922	9929	5962	9
9921	9922	9923	9924	9
9921	9922	9923	9926	9
9919	9920	9931	9932	9
9919	9920	9931	9939	9
9919	9920	9921	9925	9
9919	9924	9923	9926	9
9923	9922	9929	9930	9
9923	9922	9929	5962	9
9923	9922	9921	9925	9
9923	9924	9919	9927	9
9927	9919	9924	9928	9
9926	9923	9924	9928	9
9932	9931	9939	9933	9
9932	9931	9939	9940	9
9930	9929	5962	5955	9
9930	9929	5962	5964	9
11530	11529	11528	11539	9
11533	11529	11528	11539	9
11532	11527	11528	11539	9
11535	11527	11528	11539	9
11539	9945	9935	9934	9
11539	9945	9935	9938	9
11528	11529	11530	11537	9
11533	11529	11530	11537	9
11532	11531	11530	11537	9
11534	11531	11530	11537	9
11537	4405	4395	4394	9
11537	4405	4395	4398	9
11528	11539	9945	9935	9
11528	11539	9945	9947	9
11528	11529	11530	11531	9
11528	11527	11532	11531	9
11528	11527	11532	11536	9
11530	11537	4405	4395	9
11530	11537	4405	4407	9
11527	11528	11529	11530	9
11527	11532	11531	11530	9
11530	11531	11532	11536	9
11529	11528	11539	11540	9
11529	11528	11539	9945	9
11529	11528	11527	11532	9
11529	11528	11527	11535	9
11529	11530	11537	11538	9
11529	11530	11537	4405	9
11529	11530	11531	11532	9
11529	11530	11531	11534	9
11527	11528	11539	11540	9
11527	11528	11539	9945	9
11527	11528	11529	11533	9
11527	11532	11531	11534	9
11531	11530	11537	11538	9
11531	11530	11537	4405	9
11531	11530	11529	11533	9
11531	11532	11527	11535	9
11535	11527	11532	11536	9
11534	11531	11532	11536	9
11540	11539	9945	9935	9
11540	11539	9945	9947	9
11538	11537	4405	4395	9
11538	11537	4405	4407	9
406	405	404	415	9
409	405	404	415	9
408	403	404	415	9
411	403	404	415	9
415	11099	11092	11093	9
415	11099	11092	11091	9
404	405	406	413	9
409	405	406	413	9
408	407	406	413	9
410	407	406	413	9
389	386	392	413	9
387	386	392	413	9
404	415	11099	11092	9
404	415	11099	11101	9
404	405	406	407	9
404	403	408	407	9
404	403	408	412	9
386	392	413	406	9
393	392	413	406	9
403	404	405	406	9
403	408	407	406	9
406	407	408	412	9
405	404	415	416	9
405	404	415	11099	9
405	404	403	408	9
405	404	403	411	9
405	406	413	414	9
392	413	406	405	9
405	406	407	408	9
405	406	407	410	9
403	404	415	416	9
403	404	415	11099	9
403	404	405	409	9
403	408	407	410	9
407	406	413	414	9
392	413	406	407	9
407	406	405	409	9
407	408	403	411	9
411	403	408	412	9
410	407	408	412	9
416	415	11099	11092	9
416	415	11099	11101	9
386	392	413	414	9
393	392	413	414	9
466	467	468	475	9
471	467	468	475	9
470	469	468	475	9
472	469	468	475	9
449	448	454	475	9
451	448	454	475	9
468	467	466	477	9
471	467	466	477	9
470	465	466	477	9
473	465	466	477	9
477	4434	4424	4423	9
477	4434	4424	4427	9
448	454	475	468	9
455	454	475	468	9
465	466	467	468	9
465	470	469	468	9
468	469	470	474	9
466	477	4434	4424	9
466	477	4434	4436	9
466	467	468	469	9
466	465	470	469	9
466	465	470	474	9
467	468	475	476	9
454	475	468	467	9
467	468	469	470	9
467	468	469	472	9
467	466	477	478	9
467	466	477	4434	9
467	466	465	470	9
467	466	465	473	9
469	468	475	476	9
454	475	468	469	9
469	468	467	471	9
469	470	465	473	9
465	466	477	478	9
465	466	477	4434	9
465	466	467	471	9
465	470	469	472	9
472	469	470	474	9
473	465	470	474	9
448	454	475	476	9
455	454	475	476	9
478	477	4434	4424	9
478	477	4434	4436	9
1495	1494	1493	1504	9
1498	1494	1493	1504	9
1497	1492	1493	1504	9
1500	1492	1493	1504	9
1504	10420	10414	10417	9
1504	10420	10414	10415	9
1493	1494	1495	1502	9
1498	1494	1495	1502	9
1497	1496	1495	1502	9
1499	1496	1495	1502	9
1476	1475	1481	1502	9
1478	1475	1481	1502	9
1493	1504	10420	10414	9
1493	1504	10420	10421	9
1493	1494	1495	1496	9
1493	1492	1497	1496	9
1493	1492	1497	1501	9
1475	1481	1502	1495	9
1482	1481	1502	1495	9
1492	1493	1494	1495	9
1492	1497	1496	1495	9
1495	1496	1497	1501	9
1494	1493	1504	1505	9
1494	1493	1504	10420	9
1494	1493	1492	1497	9
1494	1493	1492	1500	9
1494	1495	1502	1503	9
1481	1502	1495	1494	9
1494	1495	1496	1497	9
1494	1495	1496	1499	9
1492	1493	1504	1505	9
1492	1493	1504	10420	9
1492	1493	1494	1498	9
1492	1497	1496	1499	9
1496	1495	1502	1503	9
1481	1502	1495	1496	9
1496	1495	1494	1498	9
1496	1497	1492	1500	9
1500	1492	1497	1501	9
1499	1496	1497	1501	9
1505	1504	10420	10414	9
1505	1504	10420	10421	9
1475	1481	1502	1503	9
1482	1481	1502	1503	9
840	839	838	849	9
843	839	838	849	9
842	837	838	849	9
845	837	838	849	9
821	820	826	849	9
823	820	826	849	9
838	839	840	847	9
843	839	840	847	9
842	841	840	847	9
844	841	840	847	9
575	576	583	847	9
577	576	583	847	9
820	826	849	838	9
827	826	849	838	9
838	839	840	841	9
838	837	842	841	9
838	837	842	846	9
576	583	847	840	9
585	583	847	840	9
837	838	839	840	9
837	842	841	840	9
840	841	842	846	9
839	838	849	850	9
826	849	838	839	9
839	838	837	842	9
839	838	837	845	9
839	840	847	848	9
583	847	840	839	9
839	840	841	842	9
839	840	841	844	9
837	838	849	850	9
826	849	838	837	9
837	838	839	843	9
837	842	841	844	9
841	840	847	848	9
583	847	840	841	9
841	840	839	843	9
841	842	837	845	9
845	837	842	846	9
844	841	842	846	9
820	826	849	850	9
827	826	849	850	9
576	583	847	848	9
585	583	847	848	9
2749	2748	2747	2758	9
2752	2748	2747	2758	9
2751	2746	2747	2758	9
2754	2746	2747	2758	9
2747	2748	2749	2756	9
2752	2748	2749	2756	9
2751	2750	2749	2756	9
2753	2750	2749	2756	9
2756	5014	5007	5008	9
2756	5014	5007	5006	9
2747	2748	2749	2750	9
2747	2746	2751	2750	9
2747	2746	2751	2755	9
2749	2756	5014	5007	9
2749	2756	5014	5016	9
2746	2747	2748	2749	9
2746	2751	2750	2749	9
2749	2750	2751	2755	9
2748	2747	2758	2759	9
2748	2747	2758	2760	9
2748	2747	2746	2751	9
2748	2747	2746	2754	9
2748	2749	2756	2757	9
2748	2749	2756	5014	9
2748	2749	2750	2751	9
2748	2749	2750	2753	9
2746	2747	2758	2759	9
2746	2747	2758	2760	9
2746	2747	2748	2752	9
2746	2751	2750	2753	9
2750	2749	2756	2757	9
2750	2749	2756	5014	9
2750	2749	2748	2752	9
2750	2751	2746	2754	9
2754	2746	2751	2755	9
2753	2750	2751	2755	9
2757	2756	5014	5007	9
2757	2756	5014	5016	9
120	119	118	129	9
123	119	118	129	9
122	117	118	129	9
125	117	118	129	9
129	11182	11176	11179	9
129	11182	11176	11177	9
118	119	120	127	9
123	119	120	127	9
122	121	120	127	9
124	121	120	127	9
105	106	108	127	9
107	106	108	127	9
118	129	11182	11176	9
118	129	11182	11183	9
118	119	120	121	9
118	117	122	121	9
118	117	122	126	9
106	108	127	120	9
109	108	127	120	9
117	118	119	120	9
117	122	121	120	9
120	121	122	126	9
119	118	129	130	9
119	118	129	11182	9
119	118	117	122	9
119	118	117	125	9
119	120	127	128	9
108	127	120	119	9
119	120	121	122	9
119	120	121	124	9
117	118	129	130	9
117	118	129	11182	9
117	118	119	123	9
117	122	121	124	9
121	120	127	128	9
108	127	120	121	9
121	120	119	123	9
121	122	117	125	9
125	117	122	126	9
124	121	122	126	9
130	129	11182	11176	9
130	129	11182	11183	9
106	108	127	128	9
109	108	127	128	9
3975	3974	3973	3984	9
3978	3974	3973	3984	9
3977	3972	3973	3984	9
3980	3972	3973	3984	9
3984	8001	7994	7995	9
3984	8001	7994	7993	9
3973	3974	3975	3982	9
3978	3974	3975	3982	9
3977	3976	3975	3982	9
3979	3976	3975	3982	9
3982	3992	3986	3987	9
3982	3992	3986	3989	9
3973	3984	8001	7994	9
3973	3984	8001	8003	9
3973	3974	3975	3976	9
3973	3972	3977	3976	9
3973	3972	3977	3981	9
3975	3982	3992	3986	9
3975	3982	3992	3993	9
3972	3973	3974	3975	9
3972	3977	3976	3975	9
3975	3976	3977	3981	9
3974	3973	3984	3985	9
3974	3973	3984	8001	9
3974	3973	3972	3977	9
3974	3973	3972	3980	9
3974	3975	3982	3983	9
3974	3975	3982	3992	9
3974	3975	3976	3977	9
3974	3975	3976	3979	9
3972	3973	3984	3985	9
3972	3973	3984	8001	9
3972	3973	3974	3978	9
3972	3977	3976	3979	9
3976	3975	3982	3983	9
3976	3975	3982	3992	9
3976	3975	3974	3978	9
3976	3977	3972	3980	9
3980	3972	3977	3981	9
3979	3976	3977	3981	9
3985	3984	8001	7994	9
3985	3984	8001	8003	9
3983	3982	3992	3986	9
3983	3982	3992	3993	9
12412	12411	12410	12421	9
12415	12411	12410	12421	9
12414	12409	12410	12421	9
12417	12409	12410	12421	9
2192	2193	2200	12421	9
2194	2193	2200	12421	9
12410	12411	12412	12419	9
12415	12411	12412	12419	9
12414	12413	12412	12419	9
12416	12413	12412	12419	9
12419	5963	5953	5952	9
12419	5963	5953	5956	9
2193	2200	12421	12410	9
2202	2200	12421	12410	9
12410	12411	12412	12413	9
12410	12409	12414	12413	9
12410	12409	12414	12418	9
12412	12419	5963	5953	9
12412	12419	5963	5965	9
12409	12410	12411	12412	9
12409	12414	12413	12412	9
12412	12413	12414	12418	9
12411	12410	12421	12422	9
2200	12421	12410	12411	9
12411	12410	12409	12414	9
12411	12410	12409	12417	9
12411	12412	12419	12420	9
12411	12412	12419	5963	9
12411	12412	12413	12414	9
12411	12412	12413	12416	9
12409	12410	12421	12422	9
2200	12421	12410	12409	9
12409	12410	12411	12415	9
12409	12414	12413	12416	9
12413	12412	12419	12420	9
12413	12412	12419	5963	9
12413	12412	12411	12415	9
12413	12414	12409	12417	9
12417	12409	12414	12418	9
12416	12413	12414	12418	9
2193	2200	12421	12422	9
2202	2200	12421	12422	9
12420	12419	5963	5953	9
12420	12419	5963	5965	9
11936	11935	11934	11945	9
11939	11935	11934	11945	9
11938	11933	11934	11945	9
11941	11933	11934	11945	9
11945	5146	5136	5135	9
11945	5146	5136	5139	9
11934	11935	11936	11943	9
11939	11935	11936	11943	9
11938	11937	11936	11943	9
11940	11937	11936	11943	9
1387	1386	1393	11943	9
1385	1386	1393	11943	9
11934	11945	5146	5136	9
11934	11945	5146	5148	9
11934	11935	11936	11937	9
11934	11933	11938	11937	9
11934	11933	11938	11942	9
1386	1393	11943	11936	9
1395	1393	11943	11936	9
11933	11934	11935	11936	9
11933	11938	11937	11936	9
11936	11937	11938	11942	9
11935	11934	11945	11946	9
11935	11934	11945	5146	9
11935	11934	11933	11938	9
11935	11934	11933	11941	9
11935	11936	11943	11944	9
1393	11943	11936	11935	9
11935	11936	11937	11938	9
11935	11936	11937	11940	9
11933	11934	11945	11946	9
11933	11934	11945	5146	9
11933	11934	11935	11939	9
11933	11938	11937	11940	9
11937	11936	11943	11944	9
1393	11943	11936	11937	9
11937	11936	11935	11939	9
11937	11938	11933	11941	9
11941	11933	11938	11942	9
11940	11937	11938	11942	9
11946	11945	5146	5136	9
11946	11945	5146	5148	9
1386	1393	11943	11944	9
1395	1393	11943	11944	9
10900	10899	10898	10909	9
10903	10899	10898	10909	9
10902	10897	10898	10909	9
10905	10897	10898	10909	9
10909	10917	10911	10912	9
10909	10917	10911	10914	9
10898	10899	10900	10907	9
10903	10899	10900	10907	9
10902	10901	10900	10907	9
10904	10901	10900	10907	9
10907	9070	9060	9059	9
10907	9070	9060	9063	9
10898	10909	10917	10911	9
10898	10909	10917	10918	9
10898	10899	10900	10901	9
10898	10897	10902	10901	9
10898	10897	10902	10906	9
10900	10907	9070	9060	9
10900	10907	9070	9072	9
10897	10898	10899	10900	9
10897	10902	10901	10900	9
10900	10901	10902	10906	9
10899	10898	10909	10910	9
10899	10898	10909	10917	9
10899	10898	10897	10902	9
10899	10898	10897	10905	9
10899	10900	10907	10908	9
10899	10900	10907	9070	9
10899	10900	10901	10902	9
10899	10900	10901	10904	9
10897	10898	10909	10910	9
10897	10898	10909	10917	9
10897	10898	10899	10903	9
10897	10902	10901	10904	9
10901	10900	10907	10908	9
10901	10900	10907	9070	9
10901	10900	10899	10903	9
10901	10902	10897	10905	9
10905	10897	10902	10906	9
10904	10901	10902	10906	9
10910	10909	10917	10911	9
10910	10909	10917	10918	9
10908	10907	9070	9060	9
10908	10907	9070	9072	9
3946	3945	3944	3955	9
3949	3945	3944	3955	9
3948	3943	3944	3955	9
3951	3943	3944	3955	9
3955	6894	6887	6886	9
3955	6894	6887	6888	9
3944	3945	3946	3953	9
3949	3945	3946	3953	9
3948	3947	3946	3953	9
3950	3947	3946	3953	9
3953	3963	3957	3960	9
3953	3963	3957	3958	9
3944	3955	6894	6887	9
3944	3955	6894	6896	9
3944	3945	3946	3947	9
3944	3943	3948	3947	9
3944	3943	3948	3952	9
3946	3953	3963	3957	9
3946	3953	3963	3964	9
3943	3944	3945	3946	9
3943	3948	3947	3946	9
3946	3947	3948	3952	9
3945	3944	3955	3956	9
3945	3944	3955	6894	9
3945	3944	3943	3948	9
3945	3944	3943	3951	9
3945	3946	3953	3954	9
3945	3946	3953	3963	9
3945	3946	3947	3948	9
3945	3946	3947	3950	9
3943	3944	3955	3956	9
3943	3944	3955	6894	9
3943	3944	3945	3949	9
3943	3948	3947	3950	9
3947	3946	3953	3954	9
3947	3946	3953	3963	9
3947	3946	3945	3949	9
3947	3948	3943	3951	9
3951	3943	3948	3952	9
3950	3947	3948	3952	9
3956	3955	6894	6887	9
3956	3955	6894	6896	9
3954	3953	3963	3957	9
3954	3953	3963	3964	9
13140	13139	13138	13149	9
13143	13139	13138	13149	9
13142	13137	13138	13149	9
13145	13137	13138	13149	9
13149	7899	7892	7893	9
13149	7899	7892	7891	9
13138	13139	13140	13147	9
13143	13139	13140	13147	9
13142	13141	13140	13147	9
13144	13141	13140	13147	9
1212	1213	1220	13147	9
1214	1213	1220	13147	9
13138	13149	7899	7892	9
13138	13149	7899	7901	9
13138	13139	13140	13141	9
13138	13137	13142	13141	9
13138	13137	13142	13146	9
1213	1220	13147	13140	9
1222	1220	13147	13140	9
13137	13138	13139	13140	9
13137	13142	13141	13140	9
13140	13141	13142	13146	9
13139	13138	13149	13150	9
13139	13138	13149	7899	9
13139	13138	13137	13142	9
13139	13138	13137	13145	9
13139	13140	13147	13148	9
1220	13147	13140	13139	9
13139	13140	13141	13142	9
13139	13140	13141	13144	9
13137	13138	13149	13150	9
13137	13138	13149	7899	9
13137	13138	13139	13143	9
13137	13142	13141	13144	9
13141	13140	13147	13148	9
1220	13147	13140	13141	9
13141	13140	13139	13143	9
13141	13142	13137	13145	9
13145	13137	13142	13146	9
13144	13141	13142	13146	9
13150	13149	7899	7892	9
13150	13149	7899	7901	9
1213	1220	13147	13148	9
1222	1220	13147	13148	9
13168	13167	13166	13177	9
13171	13167	13166	13177	9
13170	13165	13166	13177	9
13173	13165	13166	13177	9
13177	7957	7950	7949	9
13177	7957	7950	7951	9
13166	13167	13168	13175	9
13171	13167	13168	13175	9
13170	13169	13168	13175	9
13172	13169	13168	13175	9
13175	9244	9237	9236	9
13175	9244	9237	9238	9
13166	13177	7957	7950	9
13166	13177	7957	7959	9
13166	13167	13168	13169	9
13166	13165	13170	13169	9
13166	13165	13170	13174	9
13168	13175	9244	9237	9
13168	13175	9244	9246	9
13165	13166	13167	13168	9
13165	13170	13169	13168	9
13168	13169	13170	13174	9
13167	13166	13177	13178	9
13167	13166	13177	7957	9
13167	13166	13165	13170	9
13167	13166	13165	13173	9
13167	13168	13175	13176	9
13167	13168	13175	9244	9
13167	13168	13169	13170	9
13167	13168	13169	13172	9
13165	13166	13177	13178	9
13165	13166	13177	7957	9
13165	13166	13167	13171	9
13165	13170	13169	13172	9
13169	13168	13175	13176	9
13169	13168	13175	9244	9
13169	13168	13167	13171	9
13169	13170	13165	13173	9
13173	13165	13170	13174	9
13172	13169	13170	13174	9
13178	13177	7957	7950	9
13178	13177	7957	7959	9
13176	13175	9244	9237	9
13176	13175	9244	9246	9
3379	3378	3377	3388	9
3382	3378	3377	3388	9
3381	3376	3377	3388	9
3384	3376	3377	3388	9
3377	3378	3379	3386	9
3382	3378	3379	3386	9
3381	3380	3379	3386	9
3383	3380	3379	3386	9
3386	9100	9090	9089	9
3386	9100	9090	9093	9
3377	3378	3379	3380	9
3377	3376	3381	3380	9
3377	3376	3381	3385	9
3379	3386	9100	9090	9
3379	3386	9100	9102	9
3376	3377	3378	3379	9
3376	3381	3380	3379	9
3379	3380	3381	3385	9
3378	3377	3388	3389	9
3378	3377	3388	3390	9
3378	3377	3376	3381	9
3378	3377	3376	3384	9
3378	3379	3386	3387	9
3378	3379	3386	9100	9
3378	3379	3380	3381	9
3378	3379	3380	3383	9
3376	3377	3388	3389	9
3376	3377	3388	3390	9
3376	3377	3378	3382	9
3376	3381	3380	3383	9
3380	3379	3386	3387	9
3380	3379	3386	9100	9
3380	3379	3378	3382	9
3380	3381	3376	3384	9
3384	3376	3381	3385	9
3383	3380	3381	3385	9
3387	3386	9100	9090	9
3387	3386	9100	9102	9
4788	4787	4786	4797	9
4791	4787	4786	4797	9
4790	4785	4786	4797	9
4793	4785	4786	4797	9
4797	9580	9570	9569	9
4797	9580	9570	9573	9
4786	4787	4788	4795	9
4791	4787	4788	4795	9
4790	4789	4788	4795	9
4792	4789	4788	4795	9
4795	4805	4799	4802	9
4795	4805	4799	4800	9
4786	4797	9580	9570	9
4786	4797	9580	9582	9
4786	4787	4788	4789	9
4786	4785	4790	4789	9
4786	4785	4790	4794	9
4788	4795	4805	4799	9
4788	4795	4805	4806	9
4785	4786	4787	4788	9
4785	4790	4789	4788	9
4788	4789	4790	4794	9
4787	4786	4797	4798	9
4787	4786	4797	9580	9
4787	4786	4785	4790	9
4787	4786	4785	4793	9
4787	4788	4795	4796	9
4787	4788	4795	4805	9
4787	4788	4789	4790	9
4787	4788	4789	4792	9
4785	4786	4797	4798	9
4785	4786	4797	9580	9
4785	4786	4787	4791	9
4785	4790	4789	4792	9
4789	4788	4795	4796	9
4789	4788	4795	4805	9
4789	4788	4787	4791	9
4789	4790	4785	4793	9
4793	4785	4790	4794	9
4792	4789	4790	4794	9
4798	4797	9580	9570	9
4798	4797	9580	9582	9
4796	4795	4805	4799	9
4796	4795	4805	4806	9
11670	11669	11668	11679	9
11673	11669	11668	11679	9
11672	11667	11668	11679	9
11675	11667	11668	11679	9
11679	4695	4685	4688	9
11679	4695	4685	4684	9
11668	11669	11670	11677	9
11673	11669	11670	11677	9
11672	11671	11670	11677	9
11674	11671	11670	11677	9
11677	6297	6290	6289	9
11677	6297	6290	6291	9
11668	11679	4695	4685	9
11668	11679	4695	4697	9
11668	11669	11670	11671	9
11668	11667	11672	11671	9
11668	11667	11672	11676	9
11670	11677	6297	6290	9
11670	11677	6297	6299	9
11667	11668	11669	11670	9
11667	11672	11671	11670	9
11670	11671	11672	11676	9
11669	11668	11679	11680	9
11669	11668	11679	4695	9
11669	11668	11667	11672	9
11669	11668	11667	11675	9
11669	11670	11677	11678	9
11669	11670	11677	6297	9
11669	11670	11671	11672	9
11669	11670	11671	11674	9
11667	11668	11679	11680	9
11667	11668	11679	4695	9
11667	11668	11669	11673	9
11667	11672	11671	11674	9
11671	11670	11677	11678	9
11671	11670	11677	6297	9
11671	11670	11669	11673	9
11671	11672	11667	11675	9
11675	11667	11672	11676	9
11674	11671	11672	11676	9
11680	11679	4695	4685	9
11680	11679	4695	4697	9
11678	11677	6297	6290	9
11678	11677	6297	6299	9
2288	2287	2286	2297	9
2291	2287	2286	2297	9
2290	2285	2286	2297	9
2293	2285	2286	2297	9
2297	9662	9656	9659	9
2297	9662	9656	9657	9
2286	2287	2288	2295	9
2291	2287	2288	2295	9
2290	2289	2288	2295	9
2292	2289	2288	2295	9
2273	2272	2279	2295	9
2271	2272	2279	2295	9
2286	2297	9662	9656	9
2286	2297	9662	9663	9
2286	2287	2288	2289	9
2286	2285	2290	2289	9
2286	2285	2290	2294	9
2272	2279	2295	2288	9
2281	2279	2295	2288	9
2285	2286	2287	2288	9
2285	2290	2289	2288	9
2288	2289	2290	2294	9
2287	2286	2297	2298	9
2287	2286	2297	9662	9
2287	2286	2285	2290	9
2287	2286	2285	2293	9
2287	2288	2295	2296	9
2279	2295	2288	2287	9
2287	2288	2289	2290	9
2287	2288	2289	2292	9
2285	2286	2297	2298	9
2285	2286	2297	9662	9
2285	2286	2287	2291	9
2285	2290	2289	2292	9
2289	2288	2295	2296	9
2279	2295	2288	2289	9
2289	2288	2287	2291	9
2289	2290	2285	2293	9
2293	2285	2290	2294	9
2292	2289	2290	2294	9
2298	2297	9662	9656	9
2298	2297	9662	9663	9
2272	2279	2295	2296	9
2281	2279	2295	2296	9
1992	1991	1990	2001	9
1995	1991	1990	2001	9
1994	1989	1990	2001	9
1997	1989	1990	2001	9
1973	1972	1978	2001	9
1975	1972	1978	2001	9
1990	1991	1992	1999	9
1995	1991	1992	1999	9
1994	1993	1992	1999	9
1996	1993	1992	1999	9
1999	5015	5005	5004	9
1999	5015	5005	5008	9
1972	1978	2001	1990	9
1979	1978	2001	1990	9
1990	1991	1992	1993	9
1990	1989	1994	1993	9
1990	1989	1994	1998	9
1992	1999	5015	5005	9
1992	1999	5015	5017	9
1989	1990	1991	1992	9
1989	1994	1993	1992	9
1992	1993	1994	1998	9
1991	1990	2001	2002	9
1978	2001	1990	1991	9
1991	1990	1989	1994	9
1991	1990	1989	1997	9
1991	1992	1999	2000	9
1991	1992	1999	5015	9
1991	1992	1993	1994	9
1991	1992	1993	1996	9
1989	1990	2001	2002	9
1978	2001	1990	1989	9
1989	1990	1991	1995	9
1989	1994	1993	1996	9
1993	1992	1999	2000	9
1993	1992	1999	5015	9
1993	1992	1991	1995	9
1993	1994	1989	1997	9
1997	1989	1994	1998	9
1996	1993	1994	1998	9
1972	1978	2001	2002	9
1979	1978	2001	2002	9
2000	1999	5015	5005	9
2000	1999	5015	5017	9
11684	11683	11682	11693	9
11687	11683	11682	11693	9
11686	11681	11682	11693	9
11689	11681	11682	11693	9
11693	8763	8753	8756	9
11693	8763	8753	8752	9
11682	11683	11684	11691	9
11687	11683	11684	11691	9
11686	11685	11684	11691	9
11688	11685	11684	11691	9
11691	4723	4716	4717	9
11691	4723	4716	4715	9
11682	11693	8763	8753	9
11682	11693	8763	8765	9
11682	11683	11684	11685	9
11682	11681	11686	11685	9
11682	11681	11686	11690	9
11684	11691	4723	4716	9
11684	11691	4723	4725	9
11681	11682	11683	11684	9
11681	11686	11685	11684	9
11684	11685	11686	11690	9
11683	11682	11693	11694	9
11683	11682	11693	8763	9
11683	11682	11681	11686	9
11683	11682	11681	11689	9
11683	11684	11691	11692	9
11683	11684	11691	4723	9
11683	11684	11685	11686	9
11683	11684	11685	11688	9
11681	11682	11693	11694	9
11681	11682	11693	8763	9
11681	11682	11683	11687	9
11681	11686	11685	11688	9
11685	11684	11691	11692	9
11685	11684	11691	4723	9
11685	11684	11683	11687	9
11685	11686	11681	11689	9
11689	11681	11686	11690	9
11688	11685	11686	11690	9
11694	11693	8763	8753	9
11694	11693	8763	8765	9
11692	11691	4723	4716	9
11692	11691	4723	4725	9
13224	13223	13222	13233	9
13227	13223	13222	13233	9
13226	13221	13222	13233	9
13229	13221	13222	13233	9
13233	8176	8169	8168	9
13233	8176	8169	8170	9
13222	13223	13224	13231	9
13227	13223	13224	13231	9
13226	13225	13224	13231	9
13228	13225	13224	13231	9
13231	9579	9572	9573	9
13231	9579	9572	9571	9
13222	13233	8176	8169	9
13222	13233	8176	8178	9
13222	13223	13224	13225	9
13222	13221	13226	13225	9
13222	13221	13226	13230	9
13224	13231	9579	9572	9
13224	13231	9579	9581	9
13221	13222	13223	13224	9
13221	13226	13225	13224	9
13224	13225	13226	13230	9
13223	13222	13233	13234	9
13223	13222	13233	8176	9
13223	13222	13221	13226	9
13223	13222	13221	13229	9
13223	13224	13231	13232	9
13223	13224	13231	9579	9
13223	13224	13225	13226	9
13223	13224	13225	13228	9
13221	13222	13233	13234	9
13221	13222	13233	8176	9
13221	13222	13223	13227	9
13221	13226	13225	13228	9
13225	13224	13231	13232	9
13225	13224	13231	9579	9
13225	13224	13223	13227	9
13225	13226	13221	13229	9
13229	13221	13226	13230	9
13228	13225	13226	13230	9
13234	13233	8176	8169	9
13234	13233	8176	8178	9
13232	13231	9579	9572	9
13232	13231	9579	9581	9
5239	5238	5237	5248	9
5242	5238	5237	5248	9
5241	5236	5237	5248	9
5244	5236	5237	5248	9
5248	10134	10124	10123	9
5248	10134	10124	10127	9
5237	5238	5239	5246	9
5242	5238	5239	5246	9
5241	5240	5239	5246	9
5243	5240	5239	5246	9
5246	5256	5250	5253	9
5246	5256	5250	5251	9
5237	5248	10134	10124	9
5237	5248	10134	10136	9
5237	5238	5239	5240	9
5237	5236	5241	5240	9
5237	5236	5241	5245	9
5239	5246	5256	5250	9
5239	5246	5256	5257	9
5236	5237	5238	5239	9
5236	5241	5240	5239	9
5239	5240	5241	5245	9
5238	5237	5248	5249	9
5238	5237	5248	10134	9
5238	5237	5236	5241	9
5238	5237	5236	5244	9
5238	5239	5246	5247	9
5238	5239	5246	5256	9
5238	5239	5240	5241	9
5238	5239	5240	5243	9
5236	5237	5248	5249	9
5236	5237	5248	10134	9
5236	5237	5238	5242	9
5236	5241	5240	5243	9
5240	5239	5246	5247	9
5240	5239	5246	5256	9
5240	5239	5238	5242	9
5240	5241	5236	5244	9
5244	5236	5241	5245	9
5243	5240	5241	5245	9
5249	5248	10134	10124	9
5249	5248	10134	10136	9
5247	5246	5256	5250	9
5247	5246	5256	5257	9
12748	12747	12746	12757	9
12751	12747	12746	12757	9
12750	12745	12746	12757	9
12753	12745	12746	12757	9
12757	8514	8507	8508	9
12757	8514	8507	8506	9
12746	12747	12748	12755	9
12751	12747	12748	12755	9
12750	12749	12748	12755	9
12752	12749	12748	12755	9
12755	6662	6652	6651	9
12755	6662	6652	6655	9
12746	12757	8514	8507	9
12746	12757	8514	8516	9
12746	12747	12748	12749	9
12746	12745	12750	12749	9
12746	12745	12750	12754	9
12748	12755	6662	6652	9
12748	12755	6662	6664	9
12745	12746	12747	12748	9
12745	12750	12749	12748	9
12748	12749	12750	12754	9
12747	12746	12757	12758	9
12747	12746	12757	8514	9
12747	12746	12745	12750	9
12747	12746	12745	12753	9
12747	12748	12755	12756	9
12747	12748	12755	6662	9
12747	12748	12749	12750	9
12747	12748	12749	12752	9
12745	12746	12757	12758	9
12745	12746	12757	8514	9
12745	12746	12747	12751	9
12745	12750	12749	12752	9
12749	12748	12755	12756	9
12749	12748	12755	6662	9
12749	12748	12747	12751	9
12749	12750	12745	12753	9
12753	12745	12750	12754	9
12752	12749	12750	12754	9
12758	12757	8514	8507	9
12758	12757	8514	8516	9
12756	12755	6662	6652	9
12756	12755	6662	6664	9
11544	11543	11542	11553	9
11547	11543	11542	11553	9
11546	11541	11542	11553	9
11549	11541	11542	11553	9
11553	7114	7104	7103	9
11553	7114	7104	7107	9
11542	11543	11544	11551	9
11547	11543	11544	11551	9
11546	11545	11544	11551	9
11548	11545	11544	11551	9
11551	4433	4426	4427	9
11551	4433	4426	4425	9
11542	11553	7114	7104	9
11542	11553	7114	7116	9
11542	11543	11544	11545	9
11542	11541	11546	11545	9
11542	11541	11546	11550	9
11544	11551	4433	4426	9
11544	11551	4433	4435	9
11541	11542	11543	11544	9
11541	11546	11545	11544	9
11544	11545	11546	11550	9
11543	11542	11553	11554	9
11543	11542	11553	7114	9
11543	11542	11541	11546	9
11543	11542	11541	11549	9
11543	11544	11551	11552	9
11543	11544	11551	4433	9
11543	11544	11545	11546	9
11543	11544	11545	11548	9
11541	11542	11553	11554	9
11541	11542	11553	7114	9
11541	11542	11543	11547	9
11541	11546	11545	11548	9
11545	11544	11551	11552	9
11545	11544	11551	4433	9
11545	11544	11543	11547	9
11545	11546	11541	11549	9
11549	11541	11546	11550	9
11548	11545	11546	11550	9
11554	11553	7114	7104	9
11554	11553	7114	7116	9
11552	11551	4433	4426	9
11552	11551	4433	4435	9
1588	1587	1586	1597	9
1591	1587	1586	1597	9
1590	1585	1586	1597	9
1593	1585	1586	1597	9
1571	1568	1574	1597	9
1569	1568	1574	1597	9
1586	1587	1588	1595	9
1591	1587	1588	1595	9
1590	1589	1588	1595	9
1592	1589	1588	1595	9
1595	8236	8226	8225	9
1595	8236	8226	8229	9
1568	1574	1597	1586	9
1575	1574	1597	1586	9
1586	1587	1588	1589	9
1586	1585	1590	1589	9
1586	1585	1590	1594	9
1588	1595	8236	8226	9
1588	1595	8236	8238	9
1585	1586	1587	1588	9
1585	1590	1589	1588	9
1588	1589	1590	1594	9
1587	1586	1597	1598	9
1574	1597	1586	1587	9
1587	1586	1585	1590	9
1587	1586	1585	1593	9
1587	1588	1595	1596	9
1587	1588	1595	8236	9
1587	1588	1589	1590	9
1587	1588	1589	1592	9
1585	1586	1597	1598	9
1574	1597	1586	1585	9
1585	1586	1587	1591	9
1585	1590	1589	1592	9
1589	1588	1595	1596	9
1589	1588	1595	8236	9
1589	1588	1587	1591	9
1589	1590	1585	1593	9
1593	1585	1590	1594	9
1592	1589	1590	1594	9
1568	1574	1597	1598	9
1575	1574	1597	1598	9
1596	1595	8236	8226	9
1596	1595	8236	8238	9
6421	6420	6419	6430	9
6424	6420	6419	6430	9
6423	6418	6419	6430	9
6426	6418	6419	6430	9
6430	6438	6432	6435	9
6430	6438	6432	6433	9
6419	6420	6421	6428	9
6424	6420	6421	6428	9
6423	6422	6421	6428	9
6425	6422	6421	6428	9
6428	9637	9630	9631	9
6428	9637	9630	9629	9
6419	6430	6438	6432	9
6419	6430	6438	6439	9
6419	6420	6421	6422	9
6419	6418	6423	6422	9
6419	6418	6423	6427	9
6421	6428	9637	9630	9
6421	6428	9637	9639	9
6418	6419	6420	6421	9
6418	6423	6422	6421	9
6421	6422	6423	6427	9
6420	6419	6430	6431	9
6420	6419	6430	6438	9
6420	6419	6418	6423	9
6420	6419	6418	6426	9
6420	6421	6428	6429	9
6420	6421	6428	9637	9
6420	6421	6422	6423	9
6420	6421	6422	6425	9
6418	6419	6430	6431	9
6418	6419	6430	6438	9
6418	6419	6420	6424	9
6418	6423	6422	6425	9
6422	6421	6428	6429	9
6422	6421	6428	9637	9
6422	6421	6420	6424	9
6422	6423	6418	6426	9
6426	6418	6423	6427	9
6425	6422	6423	6427	9
6431	6430	6438	6432	9
6431	6430	6438	6439	9
6429	6428	9637	9630	9
6429	6428	9637	9639	9
12832	12831	12830	12841	9
12835	12831	12830	12841	9
12834	12829	12830	12841	9
12837	12829	12830	12841	9
12841	9448	9438	9441	9
12841	9448	9438	9437	9
12830	12831	12832	12839	9
12835	12831	12832	12839	9
12834	12833	12832	12839	9
12836	12833	12832	12839	9
12839	6997	6987	6986	9
12839	6997	6987	6990	9
12830	12841	9448	9438	9
12830	12841	9448	9450	9
12830	12831	12832	12833	9
12830	12829	12834	12833	9
12830	12829	12834	12838	9
12832	12839	6997	6987	9
12832	12839	6997	6999	9
12829	12830	12831	12832	9
12829	12834	12833	12832	9
12832	12833	12834	12838	9
12831	12830	12841	12842	9
12831	12830	12841	9448	9
12831	12830	12829	12834	9
12831	12830	12829	12837	9
12831	12832	12839	12840	9
12831	12832	12839	6997	9
12831	12832	12833	12834	9
12831	12832	12833	12836	9
12829	12830	12841	12842	9
12829	12830	12841	9448	9
12829	12830	12831	12835	9
12829	12834	12833	12836	9
12833	12832	12839	12840	9
12833	12832	12839	6997	9
12833	12832	12831	12835	9
12833	12834	12829	12837	9
12837	12829	12834	12838	9
12836	12833	12834	12838	9
12842	12841	9448	9438	9
12842	12841	9448	9450	9
12840	12839	6997	6987	9
12840	12839	6997	6999	9
13196	13195	13194	13205	9
13199	13195	13194	13205	9
13198	13193	13194	13205	9
13201	13193	13194	13205	9
13205	8323	8316	8317	9
13205	8323	8316	8315	9
13194	13195	13196	13203	9
13199	13195	13196	13203	9
13198	13197	13196	13203	9
13200	13197	13196	13203	9
13203	8046	8036	8039	9
13203	8046	8036	8035	9
13194	13205	8323	8316	9
13194	13205	8323	8325	9
13194	13195	13196	13197	9
13194	13193	13198	13197	9
13194	13193	13198	13202	9
13196	13203	8046	8036	9
13196	13203	8046	8048	9
13193	13194	13195	13196	9
13193	13198	13197	13196	9
13196	13197	13198	13202	9
13195	13194	13205	13206	9
13195	13194	13205	8323	9
13195	13194	13193	13198	9
13195	13194	13193	13201	9
13195	13196	13203	13204	9
13195	13196	13203	8046	9
13195	13196	13197	13198	9
13195	13196	13197	13200	9
13193	13194	13205	13206	9
13193	13194	13205	8323	9
13193	13194	13195	13199	9
13193	13198	13197	13200	9
13197	13196	13203	13204	9
13197	13196	13203	8046	9
13197	13196	13195	13199	9
13197	13198	13193	13201	9
13201	13193	13198	13202	9
13200	13197	13198	13202	9
13206	13205	8323	8316	9
13206	13205	8323	8325	9
13204	13203	8046	8036	9
13204	13203	8046	8048	9
13390	13391	13392	13399	9
13395	13391	13392	13399	9
13394	13393	13392	13399	9
13396	13393	13392	13399	9
13399	8426	8419	8420	9
13399	8426	8419	8418	9
13392	13391	13390	13401	9
13395	13391	13390	13401	9
13394	13389	13390	13401	9
13397	13389	13390	13401	9
13401	9025	9018	9019	9
13401	9025	9018	9017	9
13392	13399	8426	8419	9
13392	13399	8426	8428	9
13392	13391	13390	13389	9
13392	13393	13394	13389	9
13392	13393	13394	13398	9
13390	13401	9025	9018	9
13390	13401	9025	9027	9
13393	13392	13391	13390	9
13393	13394	13389	13390	9
13390	13389	13394	13398	9
13391	13392	13399	13400	9
13391	13392	13399	8426	9
13391	13392	13393	13394	9
13391	13392	13393	13396	9
13391	13390	13401	13402	9
13391	13390	13401	9025	9
13391	13390	13389	13394	9
13391	13390	13389	13397	9
13393	13392	13399	13400	9
13393	13392	13399	8426	9
13393	13392	13391	13395	9
13393	13394	13389	13397	9
13389	13390	13401	13402	9
13389	13390	13401	9025	9
13389	13390	13391	13395	9
13389	13394	13393	13396	9
13396	13393	13394	13398	9
13397	13389	13394	13398	9
13400	13399	8426	8419	9
13400	13399	8426	8428	9
13402	13401	9025	9018	9
13402	13401	9025	9027	9
12734	12733	12732	12743	9
12737	12733	12732	12743	9
12736	12731	12732	12743	9
12739	12731	12732	12743	9
12743	7332	7322	7325	9
12743	7332	7322	7321	9
12732	12733	12734	12741	9
12737	12733	12734	12741	9
12736	12735	12734	12741	9
12738	12735	12734	12741	9
12741	6661	6654	6655	9
12741	6661	6654	6653	9
12732	12743	7332	7322	9
12732	12743	7332	7334	9
12732	12733	12734	12735	9
12732	12731	12736	12735	9
12732	12731	12736	12740	9
12734	12741	6661	6654	9
12734	12741	6661	6663	9
12731	12732	12733	12734	9
12731	12736	12735	12734	9
12734	12735	12736	12740	9
12733	12732	12743	12744	9
12733	12732	12743	7332	9
12733	12732	12731	12736	9
12733	12732	12731	12739	9
12733	12734	12741	12742	9
12733	12734	12741	6661	9
12733	12734	12735	12736	9
12733	12734	12735	12738	9
12731	12732	12743	12744	9
12731	12732	12743	7332	9
12731	12732	12733	12737	9
12731	12736	12735	12738	9
12735	12734	12741	12742	9
12735	12734	12741	6661	9
12735	12734	12733	12737	9
12735	12736	12731	12739	9
12739	12731	12736	12740	9
12738	12735	12736	12740	9
12744	12743	7332	7322	9
12744	12743	7332	7334	9
12742	12741	6661	6654	9
12742	12741	6661	6663	9
1259	1260	1261	1268	9
1264	1260	1261	1268	9
1263	1262	1261	1268	9
1265	1262	1261	1268	9
1268	10470	10460	10463	9
1268	10470	10460	10459	9
1261	1260	1259	1270	9
1264	1260	1259	1270	9
1263	1258	1259	1270	9
1266	1258	1259	1270	9
1242	1241	1247	1270	9
1244	1241	1247	1270	9
1261	1268	10470	10460	9
1261	1268	10470	10472	9
1261	1260	1259	1258	9
1261	1262	1263	1258	9
1261	1262	1263	1267	9
1241	1247	1270	1259	9
1248	1247	1270	1259	9
1262	1261	1260	1259	9
1262	1263	1258	1259	9
1259	1258	1263	1267	9
1260	1261	1268	1269	9
1260	1261	1268	10470	9
1260	1261	1262	1263	9
1260	1261	1262	1265	9
1260	1259	1270	1271	9
1247	1270	1259	1260	9
1260	1259	1258	1263	9
1260	1259	1258	1266	9
1262	1261	1268	1269	9
1262	1261	1268	10470	9
1262	1261	1260	1264	9
1262	1263	1258	1266	9
1258	1259	1270	1271	9
1247	1270	1259	1258	9
1258	1259	1260	1264	9
1258	1263	1262	1265	9
1265	1262	1263	1267	9
1266	1258	1263	1267	9
1269	1268	10470	10460	9
1269	1268	10470	10472	9
1241	1247	1270	1271	9
1248	1247	1270	1271	9
7280	7279	7278	7289	9
7283	7279	7278	7289	9
7282	7277	7278	7289	9
7285	7277	7278	7289	9
7289	7297	7291	7294	9
7289	7297	7291	7292	9
7278	7279	7280	7287	9
7283	7279	7280	7287	9
7282	7281	7280	7287	9
7284	7281	7280	7287	9
7287	9677	9671	9672	9
7287	9677	9671	9674	9
7278	7289	7297	7291	9
7278	7289	7297	7298	9
7278	7279	7280	7281	9
7278	7277	7282	7281	9
7278	7277	7282	7286	9
7280	7287	9677	9671	9
7280	7287	9677	9678	9
7277	7278	7279	7280	9
7277	7282	7281	7280	9
7280	7281	7282	7286	9
7279	7278	7289	7290	9
7279	7278	7289	7297	9
7279	7278	7277	7282	9
7279	7278	7277	7285	9
7279	7280	7287	7288	9
7279	7280	7287	9677	9
7279	7280	7281	7282	9
7279	7280	7281	7284	9
7277	7278	7289	7290	9
7277	7278	7289	7297	9
7277	7278	7279	7283	9
7277	7282	7281	7284	9
7281	7280	7287	7288	9
7281	7280	7287	9677	9
7281	7280	7279	7283	9
7281	7282	7277	7285	9
7285	7277	7282	7286	9
7284	7281	7282	7286	9
7290	7289	7297	7291	9
7290	7289	7297	7298	9
7288	7287	9677	9671	9
7288	7287	9677	9678	9
1619	1618	1617	1628	9
1622	1618	1617	1628	9
1621	1616	1617	1628	9
1624	1616	1617	1628	9
1600	1599	1605	1628	9
1602	1599	1605	1628	9
1617	1618	1619	1626	9
1622	1618	1619	1626	9
1621	1620	1619	1626	9
1623	1620	1619	1626	9
1183	1182	1189	1626	9
1181	1182	1189	1626	9
1599	1605	1628	1617	9
1606	1605	1628	1617	9
1617	1618	1619	1620	9
1617	1616	1621	1620	9
1617	1616	1621	1625	9
1182	1189	1626	1619	9
1191	1189	1626	1619	9
1616	1617	1618	1619	9
1616	1621	1620	1619	9
1619	1620	1621	1625	9
1618	1617	1628	1629	9
1605	1628	1617	1618	9
1618	1617	1616	1621	9
1618	1617	1616	1624	9
1618	1619	1626	1627	9
1189	1626	1619	1618	9
1618	1619	1620	1621	9
1618	1619	1620	1623	9
1616	1617	1628	1629	9
1605	1628	1617	1616	9
1616	1617	1618	1622	9
1616	1621	1620	1623	9
1620	1619	1626	1627	9
1189	1626	1619	1620	9
1620	1619	1618	1622	9
1620	1621	1616	1624	9
1624	1616	1621	1625	9
1623	1620	1621	1625	9
1599	1605	1628	1629	9
1606	1605	1628	1629	9
1182	1189	1626	1627	9
1191	1189	1626	1627	9
530	529	528	539	9
533	529	528	539	9
532	527	528	539	9
535	527	528	539	9
539	5927	5921	5924	9
539	5927	5921	5922	9
528	529	530	537	9
533	529	530	537	9
532	531	530	537	9
534	531	530	537	9
513	510	516	537	9
511	510	516	537	9
528	539	5927	5921	9
528	539	5927	5928	9
528	529	530	531	9
528	527	532	531	9
528	527	532	536	9
510	516	537	530	9
517	516	537	530	9
527	528	529	530	9
527	532	531	530	9
530	531	532	536	9
529	528	539	540	9
529	528	539	5927	9
529	528	527	532	9
529	528	527	535	9
529	530	537	538	9
516	537	530	529	9
529	530	531	532	9
529	530	531	534	9
527	528	539	540	9
527	528	539	5927	9
527	528	529	533	9
527	532	531	534	9
531	530	537	538	9
516	537	530	531	9
531	530	529	533	9
531	532	527	535	9
535	527	532	536	9
534	531	532	536	9
540	539	5927	5921	9
540	539	5927	5928	9
510	516	537	538	9
517	516	537	538	9
13070	13069	13068	13079	9
13073	13069	13068	13079	9
13072	13067	13068	13079	9
13075	13067	13068	13079	9
13079	8923	8916	8917	9
13079	8923	8916	8915	9
13068	13069	13070	13077	9
13073	13069	13070	13077	9
13072	13071	13070	13077	9
13074	13071	13070	13077	9
13077	7652	7645	7644	9
13077	7652	7645	7646	9
13068	13079	8923	8916	9
13068	13079	8923	8925	9
13068	13069	13070	13071	9
13068	13067	13072	13071	9
13068	13067	13072	13076	9
13070	13077	7652	7645	9
13070	13077	7652	7654	9
13067	13068	13069	13070	9
13067	13072	13071	13070	9
13070	13071	13072	13076	9
13069	13068	13079	13080	9
13069	13068	13079	8923	9
13069	13068	13067	13072	9
13069	13068	13067	13075	9
13069	13070	13077	13078	9
13069	13070	13077	7652	9
13069	13070	13071	13072	9
13069	13070	13071	13074	9
13067	13068	13079	13080	9
13067	13068	13079	8923	9
13067	13068	13069	13073	9
13067	13072	13071	13074	9
13071	13070	13077	13078	9
13071	13070	13077	7652	9
13071	13070	13069	13073	9
13071	13072	13067	13075	9
13075	13067	13072	13076	9
13074	13071	13072	13076	9
13080	13079	8923	8916	9
13080	13079	8923	8925	9
13078	13077	7652	7645	9
13078	13077	7652	7654	9
8404	8403	8402	8413	9
8407	8403	8402	8413	9
8406	8401	8402	8413	9
8409	8401	8402	8413	9
8413	8421	8415	8416	9
8413	8421	8415	8418	9
8402	8403	8404	8411	9
8407	8403	8404	8411	9
8406	8405	8404	8411	9
8408	8405	8404	8411	9
8411	10192	10182	10181	9
8411	10192	10182	10185	9
8402	8413	8421	8415	9
8402	8413	8421	8422	9
8402	8403	8404	8405	9
8402	8401	8406	8405	9
8402	8401	8406	8410	9
8404	8411	10192	10182	9
8404	8411	10192	10194	9
8401	8402	8403	8404	9
8401	8406	8405	8404	9
8404	8405	8406	8410	9
8403	8402	8413	8414	9
8403	8402	8413	8421	9
8403	8402	8401	8406	9
8403	8402	8401	8409	9
8403	8404	8411	8412	9
8403	8404	8411	10192	9
8403	8404	8405	8406	9
8403	8404	8405	8408	9
8401	8402	8413	8414	9
8401	8402	8413	8421	9
8401	8402	8403	8407	9
8401	8406	8405	8408	9
8405	8404	8411	8412	9
8405	8404	8411	10192	9
8405	8404	8403	8407	9
8405	8406	8401	8409	9
8409	8401	8406	8410	9
8408	8405	8406	8410	9
8414	8413	8421	8415	9
8414	8413	8421	8422	9
8412	8411	10192	10182	9
8412	8411	10192	10194	9
4757	4758	4759	4766	9
4762	4758	4759	4766	9
4761	4760	4759	4766	9
4763	4760	4759	4766	9
4766	7142	7135	7134	9
4766	7142	7135	7136	9
4759	4758	4757	4768	9
4762	4758	4757	4768	9
4761	4756	4757	4768	9
4764	4756	4757	4768	9
4768	4776	4770	4773	9
4768	4776	4770	4771	9
4759	4766	7142	7135	9
4759	4766	7142	7144	9
4756	4757	4758	4759	9
4756	4761	4760	4759	9
4759	4760	4761	4765	9
4757	4768	4776	4770	9
4757	4768	4776	4777	9
4757	4758	4759	4760	9
4757	4756	4761	4760	9
4757	4756	4761	4765	9
4758	4759	4766	4767	9
4758	4759	4766	7142	9
4758	4759	4760	4761	9
4758	4759	4760	4763	9
4758	4757	4768	4769	9
4758	4757	4768	4776	9
4758	4757	4756	4761	9
4758	4757	4756	4764	9
4760	4759	4766	4767	9
4760	4759	4766	7142	9
4760	4759	4758	4762	9
4760	4761	4756	4764	9
4756	4757	4768	4769	9
4756	4757	4768	4776	9
4756	4757	4758	4762	9
4756	4761	4760	4763	9
4763	4760	4761	4765	9
4764	4756	4761	4765	9
4767	4766	7142	7135	9
4767	4766	7142	7144	9
4769	4768	4776	4770	9
4769	4768	4776	4777	9
3737	3738	3739	3746	9
3742	3738	3739	3746	9
3741	3740	3739	3746	9
3743	3740	3739	3746	9
3746	11172	11165	11166	9
3746	11172	11165	11164	9
3739	3738	3737	3748	9
3742	3738	3737	3748	9
3741	3736	3737	3748	9
3744	3736	3737	3748	9
3739	3746	11172	11165	9
3739	3746	11172	11174	9
3736	3737	3738	3739	9
3736	3741	3740	3739	9
3739	3740	3741	3745	9
3737	3738	3739	3740	9
3737	3736	3741	3740	9
3737	3736	3741	3745	9
3738	3739	3746	3747	9
3738	3739	3746	11172	9
3738	3739	3740	3741	9
3738	3739	3740	3743	9
3738	3737	3748	3749	9
3738	3737	3748	3750	9
3738	3737	3736	3741	9
3738	3737	3736	3744	9
3740	3739	3746	3747	9
3740	3739	3746	11172	9
3740	3739	3738	3742	9
3740	3741	3736	3744	9
3736	3737	3748	3749	9
3736	3737	3748	3750	9
3736	3737	3738	3742	9
3736	3741	3740	3743	9
3743	3740	3741	3745	9
3744	3736	3741	3745	9
3747	3746	11172	11165	9
3747	3746	11172	11174	9
12314	12313	12312	12323	9
12317	12313	12312	12323	9
12316	12311	12312	12323	9
12319	12311	12312	12323	9
12323	10157	10151	10152	9
12323	10157	10151	10154	9
12312	12313	12314	12321	9
12317	12313	12314	12321	9
12316	12315	12314	12321	9
12318	12315	12314	12321	9
12321	5816	5806	5809	9
12321	5816	5806	5805	9
12312	12323	10157	10151	9
12312	12323	10157	10158	9
12312	12313	12314	12315	9
12312	12311	12316	12315	9
12312	12311	12316	12320	9
12314	12321	5816	5806	9
12314	12321	5816	5818	9
12311	12312	12313	12314	9
12311	12316	12315	12314	9
12314	12315	12316	12320	9
12313	12312	12323	12324	9
12313	12312	12323	10157	9
12313	12312	12311	12316	9
12313	12312	12311	12319	9
12313	12314	12321	12322	9
12313	12314	12321	5816	9
12313	12314	12315	12316	9
12313	12314	12315	12318	9
12311	12312	12323	12324	9
12311	12312	12323	10157	9
12311	12312	12313	12317	9
12311	12316	12315	12318	9
12315	12314	12321	12322	9
12315	12314	12321	5816	9
12315	12314	12313	12317	9
12315	12316	12311	12319	9
12319	12311	12316	12320	9
12318	12315	12316	12320	9
12324	12323	10157	10151	9
12324	12323	10157	10158	9
12322	12321	5816	5806	9
12322	12321	5816	5818	9
5268	5267	5266	5277	9
5271	5267	5266	5277	9
5270	5265	5266	5277	9
5273	5265	5266	5277	9
5277	5285	5279	5280	9
5277	5285	5279	5282	9
5266	5267	5268	5275	9
5271	5267	5268	5275	9
5270	5269	5268	5275	9
5272	5269	5268	5275	9
5275	8274	8268	8269	9
5275	8274	8268	8271	9
5266	5277	5285	5279	9
5266	5277	5285	5286	9
5266	5267	5268	5269	9
5266	5265	5270	5269	9
5266	5265	5270	5274	9
5268	5275	8274	8268	9
5268	5275	8274	8275	9
5265	5266	5267	5268	9
5265	5270	5269	5268	9
5268	5269	5270	5274	9
5267	5266	5277	5278	9
5267	5266	5277	5285	9
5267	5266	5265	5270	9
5267	5266	5265	5273	9
5267	5268	5275	5276	9
5267	5268	5275	8274	9
5267	5268	5269	5270	9
5267	5268	5269	5272	9
5265	5266	5277	5278	9
5265	5266	5277	5285	9
5265	5266	5267	5271	9
5265	5270	5269	5272	9
5269	5268	5275	5276	9
5269	5268	5275	8274	9
5269	5268	5267	5271	9
5269	5270	5265	5273	9
5273	5265	5270	5274	9
5272	5269	5270	5274	9
5278	5277	5285	5279	9
5278	5277	5285	5286	9
5276	5275	8274	8268	9
5276	5275	8274	8275	9
7732	7731	7730	7741	9
7735	7731	7730	7741	9
7734	7729	7730	7741	9
7737	7729	7730	7741	9
7741	7749	7743	7744	9
7741	7749	7743	7746	9
7730	7731	7732	7739	9
7735	7731	7732	7739	9
7734	7733	7732	7739	9
7736	7733	7732	7739	9
7739	4462	4455	4456	9
7739	4462	4455	4454	9
7730	7741	7749	7743	9
7730	7741	7749	7750	9
7730	7731	7732	7733	9
7730	7729	7734	7733	9
7730	7729	7734	7738	9
7732	7739	4462	4455	9
7732	7739	4462	4464	9
7729	7730	7731	7732	9
7729	7734	7733	7732	9
7732	7733	7734	7738	9
7731	7730	7741	7742	9
7731	7730	7741	7749	9
7731	7730	7729	7734	9
7731	7730	7729	7737	9
7731	7732	7739	7740	9
7731	7732	7739	4462	9
7731	7732	7733	7734	9
7731	7732	7733	7736	9
7729	7730	7741	7742	9
7729	7730	7741	7749	9
7729	7730	7731	7735	9
7729	7734	7733	7736	9
7733	7732	7739	7740	9
7733	7732	7739	4462	9
7733	7732	7731	7735	9
7733	7734	7729	7737	9
7737	7729	7734	7738	9
7736	7733	7734	7738	9
7742	7741	7749	7743	9
7742	7741	7749	7750	9
7740	7739	4462	4455	9
7740	7739	4462	4464	9
9336	9337	9338	9345	9
9341	9337	9338	9345	9
9340	9339	9338	9345	9
9342	9339	9338	9345	9
451	452	459	9345	9
453	452	459	9345	9
9338	9337	9336	9347	9
9341	9337	9336	9347	9
9340	9335	9336	9347	9
9343	9335	9336	9347	9
9347	9355	9349	9350	9
9347	9355	9349	9352	9
452	459	9345	9338	9
461	459	9345	9338	9
9335	9336	9337	9338	9
9335	9340	9339	9338	9
9338	9339	9340	9344	9
9336	9347	9355	9349	9
9336	9347	9355	9356	9
9336	9337	9338	9339	9
9336	9335	9340	9339	9
9336	9335	9340	9344	9
9337	9338	9345	9346	9
459	9345	9338	9337	9
9337	9338	9339	9340	9
9337	9338	9339	9342	9
9337	9336	9347	9348	9
9337	9336	9347	9355	9
9337	9336	9335	9340	9
9337	9336	9335	9343	9
9339	9338	9345	9346	9
459	9345	9338	9339	9
9339	9338	9337	9341	9
9339	9340	9335	9343	9
9335	9336	9347	9348	9
9335	9336	9347	9355	9
9335	9336	9337	9341	9
9335	9340	9339	9342	9
9342	9339	9340	9344	9
9343	9335	9340	9344	9
452	459	9345	9346	9
461	459	9345	9346	9
9348	9347	9355	9349	9
9348	9347	9355	9356	9
2116	2115	2114	2125	9
2119	2115	2114	2125	9
2118	2113	2114	2125	9
2121	2113	2114	2125	9
2097	2096	2102	2125	9
2099	2096	2102	2125	9
2114	2115	2116	2123	9
2119	2115	2116	2123	9
2118	2117	2116	2123	9
2120	2117	2116	2123	9
2123	9079	9073	9076	9
2123	9079	9073	9074	9
2096	2102	2125	2114	9
2103	2102	2125	2114	9
2114	2115	2116	2117	9
2114	2113	2118	2117	9
2114	2113	2118	2122	9
2116	2123	9079	9073	9
2116	2123	9079	9080	9
2113	2114	2115	2116	9
2113	2118	2117	2116	9
2116	2117	2118	2122	9
2115	2114	2125	2126	9
2102	2125	2114	2115	9
2115	2114	2113	2118	9
2115	2114	2113	2121	9
2115	2116	2123	2124	9
2115	2116	2123	9079	9
2115	2116	2117	2118	9
2115	2116	2117	2120	9
2113	2114	2125	2126	9
2102	2125	2114	2113	9
2113	2114	2115	2119	9
2113	2118	2117	2120	9
2117	2116	2123	2124	9
2117	2116	2123	9079	9
2117	2116	2115	2119	9
2117	2118	2113	2121	9
2121	2113	2118	2122	9
2120	2117	2118	2122	9
2096	2102	2125	2126	9
2103	2102	2125	2126	9
2124	2123	9079	9073	9
2124	2123	9079	9080	9
10856	10855	10854	10865	9
10859	10855	10854	10865	9
10858	10853	10854	10865	9
10861	10853	10854	10865	9
10865	10873	10867	10870	9
10865	10873	10867	10868	9
10854	10855	10856	10863	9
10859	10855	10856	10863	9
10858	10857	10856	10863	9
10860	10857	10856	10863	9
10863	7697	7687	7690	9
10863	7697	7687	7686	9
10854	10865	10873	10867	9
10854	10865	10873	10874	9
10854	10855	10856	10857	9
10854	10853	10858	10857	9
10854	10853	10858	10862	9
10856	10863	7697	7687	9
10856	10863	7697	7699	9
10853	10854	10855	10856	9
10853	10858	10857	10856	9
10856	10857	10858	10862	9
10855	10854	10865	10866	9
10855	10854	10865	10873	9
10855	10854	10853	10858	9
10855	10854	10853	10861	9
10855	10856	10863	10864	9
10855	10856	10863	7697	9
10855	10856	10857	10858	9
10855	10856	10857	10860	9
10853	10854	10865	10866	9
10853	10854	10865	10873	9
10853	10854	10855	10859	9
10853	10858	10857	10860	9
10857	10856	10863	10864	9
10857	10856	10863	7697	9
10857	10856	10855	10859	9
10857	10858	10853	10861	9
10861	10853	10858	10862	9
10860	10857	10858	10862	9
10866	10865	10873	10867	9
10866	10865	10873	10874	9
10864	10863	7697	7687	9
10864	10863	7697	7699	9
13154	13153	13152	13163	9
13157	13153	13152	13163	9
13156	13151	13152	13163	9
13159	13151	13152	13163	9
2490	2489	2496	13163	9
2488	2489	2496	13163	9
13152	13153	13154	13161	9
13157	13153	13154	13161	9
13156	13155	13154	13161	9
13158	13155	13154	13161	9
13161	7928	7921	7922	9
13161	7928	7921	7920	9
2489	2496	13163	13152	9
2498	2496	13163	13152	9
13152	13153	13154	13155	9
13152	13151	13156	13155	9
13152	13151	13156	13160	9
13154	13161	7928	7921	9
13154	13161	7928	7930	9
13151	13152	13153	13154	9
13151	13156	13155	13154	9
13154	13155	13156	13160	9
13153	13152	13163	13164	9
2496	13163	13152	13153	9
13153	13152	13151	13156	9
13153	13152	13151	13159	9
13153	13154	13161	13162	9
13153	13154	13161	7928	9
13153	13154	13155	13156	9
13153	13154	13155	13158	9
13151	13152	13163	13164	9
2496	13163	13152	13151	9
13151	13152	13153	13157	9
13151	13156	13155	13158	9
13155	13154	13161	13162	9
13155	13154	13161	7928	9
13155	13154	13153	13157	9
13155	13156	13151	13159	9
13159	13151	13156	13160	9
13158	13155	13156	13160	9
2489	2496	13163	13164	9
2498	2496	13163	13164	9
13162	13161	7928	7921	9
13162	13161	7928	7930	9
13642	13643	13644	13651	9
13647	13643	13644	13651	9
13646	13645	13644	13651	9
13648	13645	13644	13651	9
13651	9916	9906	9909	9
13651	9916	9906	9905	9
13644	13643	13642	13653	9
13647	13643	13642	13653	9
13646	13641	13642	13653	9
13649	13641	13642	13653	9
978	979	986	13653	9
980	979	986	13653	9
13644	13651	9916	9906	9
13644	13651	9916	9918	9
13641	13642	13643	13644	9
13641	13646	13645	13644	9
13644	13645	13646	13650	9
979	986	13653	13642	9
988	986	13653	13642	9
13642	13643	13644	13645	9
13642	13641	13646	13645	9
13642	13641	13646	13650	9
13643	13644	13651	13652	9
13643	13644	13651	9916	9
13643	13644	13645	13646	9
13643	13644	13645	13648	9
13643	13642	13653	13654	9
986	13653	13642	13643	9
13643	13642	13641	13646	9
13643	13642	13641	13649	9
13645	13644	13651	13652	9
13645	13644	13651	9916	9
13645	13644	13643	13647	9
13645	13646	13641	13649	9
13641	13642	13653	13654	9
986	13653	13642	13641	9
13641	13642	13643	13647	9
13641	13646	13645	13648	9
13648	13645	13646	13650	9
13649	13641	13646	13650	9
13652	13651	9916	9906	9
13652	13651	9916	9918	9
979	986	13653	13654	9
988	986	13653	13654	9
11642	11641	11640	11651	9
11645	11641	11640	11651	9
11644	11639	11640	11651	9
11647	11639	11640	11651	9
11651	4665	4658	4657	9
11651	4665	4658	4659	9
11640	11641	11642	11649	9
11645	11641	11642	11649	9
11644	11643	11642	11649	9
11646	11643	11642	11649	9
11649	11026	11016	11019	9
11649	11026	11016	11015	9
11640	11651	4665	4658	9
11640	11651	4665	4667	9
11640	11641	11642	11643	9
11640	11639	11644	11643	9
11640	11639	11644	11648	9
11642	11649	11026	11016	9
11642	11649	11026	11028	9
11639	11640	11641	11642	9
11639	11644	11643	11642	9
11642	11643	11644	11648	9
11641	11640	11651	11652	9
11641	11640	11651	4665	9
11641	11640	11639	11644	9
11641	11640	11639	11647	9
11641	11642	11649	11650	9
11641	11642	11649	11026	9
11641	11642	11643	11644	9
11641	11642	11643	11646	9
11639	11640	11651	11652	9
11639	11640	11651	4665	9
11639	11640	11641	11645	9
11639	11644	11643	11646	9
11643	11642	11649	11650	9
11643	11642	11649	11026	9
11643	11642	11641	11645	9
11643	11644	11639	11647	9
11647	11639	11644	11648	9
11646	11643	11644	11648	9
11652	11651	4665	4658	9
11652	11651	4665	4667	9
11650	11649	11026	11016	9
11650	11649	11026	11028	9
2379	2380	2381	2388	9
2384	2380	2381	2388	9
2383	2382	2381	2388	9
2385	2382	2381	2388	9
2388	5043	5036	5037	9
2388	5043	5036	5035	9
2381	2380	2379	2390	9
2384	2380	2379	2390	9
2383	2378	2379	2390	9
2386	2378	2379	2390	9
2362	2361	2367	2390	9
2364	2361	2367	2390	9
2381	2388	5043	5036	9
2381	2388	5043	5045	9
2381	2380	2379	2378	9
2381	2382	2383	2378	9
2381	2382	2383	2387	9
2361	2367	2390	2379	9
2368	2367	2390	2379	9
2382	2381	2380	2379	9
2382	2383	2378	2379	9
2379	2378	2383	2387	9
2380	2381	2388	2389	9
2380	2381	2388	5043	9
2380	2381	2382	2383	9
2380	2381	2382	2385	9
2380	2379	2390	2391	9
2367	2390	2379	2380	9
2380	2379	2378	2383	9
2380	2379	2378	2386	9
2382	2381	2388	2389	9
2382	2381	2388	5043	9
2382	2381	2380	2384	9
2382	2383	2378	2386	9
2378	2379	2390	2391	9
2367	2390	2379	2378	9
2378	2379	2380	2384	9
2378	2383	2382	2385	9
2385	2382	2383	2387	9
2386	2378	2383	2387	9
2389	2388	5043	5036	9
2389	2388	5043	5045	9
2361	2367	2390	2391	9
2368	2367	2390	2391	9
3844	3843	3842	3853	9
3847	3843	3842	3853	9
3846	3841	3842	3853	9
3849	3841	3842	3853	9
3853	3861	3855	3856	9
3853	3861	3855	3858	9
3842	3843	3844	3851	9
3847	3843	3844	3851	9
3846	3845	3844	3851	9
3848	3845	3844	3851	9
3851	10771	10765	10768	9
3851	10771	10765	10766	9
3842	3853	3861	3855	9
3842	3853	3861	3862	9
3842	3843	3844	3845	9
3842	3841	3846	3845	9
3842	3841	3846	3850	9
3844	3851	10771	10765	9
3844	3851	10771	10772	9
3841	3842	3843	3844	9
3841	3846	3845	3844	9
3844	3845	3846	3850	9
3843	3842	3853	3854	9
3843	3842	3853	3861	9
3843	3842	3841	3846	9
3843	3842	3841	3849	9
3843	3844	3851	3852	9
3843	3844	3851	10771	9
3843	3844	3845	3846	9
3843	3844	3845	3848	9
3841	3842	3853	3854	9
3841	3842	3853	3861	9
3841	3842	3843	3847	9
3841	3846	3845	3848	9
3845	3844	3851	3852	9
3845	3844	3851	10771	9
3845	3844	3843	3847	9
3845	3846	3841	3849	9
3849	3841	3846	3850	9
3848	3845	3846	3850	9
3854	3853	3861	3855	9
3854	3853	3861	3862	9
3852	3851	10771	10765	9
3852	3851	10771	10772	9
13476	13475	13474	13485	9
13479	13475	13474	13485	9
13478	13473	13474	13485	9
13481	13473	13474	13485	9
13485	8850	8843	8844	9
13485	8850	8843	8842	9
13474	13475	13476	13483	9
13479	13475	13476	13483	9
13478	13477	13476	13483	9
13480	13477	13476	13483	9
1277	1276	1283	13483	9
1275	1276	1283	13483	9
13474	13485	8850	8843	9
13474	13485	8850	8852	9
13474	13475	13476	13477	9
13474	13473	13478	13477	9
13474	13473	13478	13482	9
1276	1283	13483	13476	9
1285	1283	13483	13476	9
13473	13474	13475	13476	9
13473	13478	13477	13476	9
13476	13477	13478	13482	9
13475	13474	13485	13486	9
13475	13474	13485	8850	9
13475	13474	13473	13478	9
13475	13474	13473	13481	9
13475	13476	13483	13484	9
1283	13483	13476	13475	9
13475	13476	13477	13478	9
13475	13476	13477	13480	9
13473	13474	13485	13486	9
13473	13474	13485	8850	9
13473	13474	13475	13479	9
13473	13478	13477	13480	9
13477	13476	13483	13484	9
1283	13483	13476	13477	9
13477	13476	13475	13479	9
13477	13478	13473	13481	9
13481	13473	13478	13482	9
13480	13477	13478	13482	9
13486	13485	8850	8843	9
13486	13485	8850	8852	9
1276	1283	13483	13484	9
1285	1283	13483	13484	9
11838	11837	11836	11847	9
11841	11837	11836	11847	9
11840	11835	11836	11847	9
11843	11835	11836	11847	9
11847	4942	4932	4935	9
11847	4942	4932	4931	9
11836	11837	11838	11845	9
11841	11837	11838	11845	9
11840	11839	11838	11845	9
11842	11839	11838	11845	9
11845	11070	11060	11063	9
11845	11070	11060	11059	9
11836	11847	4942	4932	9
11836	11847	4942	4944	9
11836	11837	11838	11839	9
11836	11835	11840	11839	9
11836	11835	11840	11844	9
11838	11845	11070	11060	9
11838	11845	11070	11072	9
11835	11836	11837	11838	9
11835	11840	11839	11838	9
11838	11839	11840	11844	9
11837	11836	11847	11848	9
11837	11836	11847	4942	9
11837	11836	11835	11840	9
11837	11836	11835	11843	9
11837	11838	11845	11846	9
11837	11838	11845	11070	9
11837	11838	11839	11840	9
11837	11838	11839	11842	9
11835	11836	11847	11848	9
11835	11836	11847	4942	9
11835	11836	11837	11841	9
11835	11840	11839	11842	9
11839	11838	11845	11846	9
11839	11838	11845	11070	9
11839	11838	11837	11841	9
11839	11840	11835	11843	9
11843	11835	11840	11844	9
11842	11839	11840	11844	9
11848	11847	4942	4932	9
11848	11847	4942	4944	9
11846	11845	11070	11060	9
11846	11845	11070	11072	9
11782	11781	11780	11791	9
11785	11781	11780	11791	9
11784	11779	11780	11791	9
11787	11779	11780	11791	9
11791	4869	4859	4862	9
11791	4869	4859	4858	9
11780	11781	11782	11789	9
11785	11781	11782	11789	9
11784	11783	11782	11789	9
11786	11783	11782	11789	9
11789	10293	10286	10285	9
11789	10293	10286	10287	9
11780	11791	4869	4859	9
11780	11791	4869	4871	9
11780	11781	11782	11783	9
11780	11779	11784	11783	9
11780	11779	11784	11788	9
11782	11789	10293	10286	9
11782	11789	10293	10295	9
11779	11780	11781	11782	9
11779	11784	11783	11782	9
11782	11783	11784	11788	9
11781	11780	11791	11792	9
11781	11780	11791	4869	9
11781	11780	11779	11784	9
11781	11780	11779	11787	9
11781	11782	11789	11790	9
11781	11782	11789	10293	9
11781	11782	11783	11784	9
11781	11782	11783	11786	9
11779	11780	11791	11792	9
11779	11780	11791	4869	9
11779	11780	11781	11785	9
11779	11784	11783	11786	9
11783	11782	11789	11790	9
11783	11782	11789	10293	9
11783	11782	11781	11785	9
11783	11784	11779	11787	9
11787	11779	11784	11788	9
11786	11783	11784	11788	9
11792	11791	4869	4859	9
11792	11791	4869	4871	9
11790	11789	10293	10286	9
11790	11789	10293	10295	9
964	963	962	973	9
967	963	962	973	9
966	961	962	973	9
969	961	962	973	9
945	944	950	973	9
947	944	950	973	9
962	963	964	971	9
967	963	964	971	9
966	965	964	971	9
968	965	964	971	9
971	5957	5951	5952	9
971	5957	5951	5954	9
944	950	973	962	9
951	950	973	962	9
962	963	964	965	9
962	961	966	965	9
962	961	966	970	9
964	971	5957	5951	9
964	971	5957	5958	9
961	962	963	964	9
961	966	965	964	9
964	965	966	970	9
963	962	973	974	9
950	973	962	963	9
963	962	961	966	9
963	962	961	969	9
963	964	971	972	9
963	964	971	5957	9
963	964	965	966	9
963	964	965	968	9
961	962	973	974	9
950	973	962	961	9
961	962	963	967	9
961	966	965	968	9
965	964	971	972	9
965	964	971	5957	9
965	964	963	967	9
965	966	961	969	9
969	961	966	970	9
968	965	966	970	9
944	950	973	974	9
951	950	973	974	9
972	971	5957	5951	9
972	971	5957	5958	9
6741	6740	6739	6750	9
6744	6740	6739	6750	9
6743	6738	6739	6750	9
6746	6738	6739	6750	9
6750	6758	6752	6753	9
6750	6758	6752	6755	9
6739	6740	6741	6748	9
6744	6740	6741	6748	9
6743	6742	6741	6748	9
6745	6742	6741	6748	9
1133	1134	1141	6748	9
1135	1134	1141	6748	9
6739	6750	6758	6752	9
6739	6750	6758	6759	9
6739	6740	6741	6742	9
6739	6738	6743	6742	9
6739	6738	6743	6747	9
1134	1141	6748	6741	9
1143	1141	6748	6741	9
6738	6739	6740	6741	9
6738	6743	6742	6741	9
6741	6742	6743	6747	9
6740	6739	6750	6751	9
6740	6739	6750	6758	9
6740	6739	6738	6743	9
6740	6739	6738	6746	9
6740	6741	6748	6749	9
1141	6748	6741	6740	9
6740	6741	6742	6743	9
6740	6741	6742	6745	9
6738	6739	6750	6751	9
6738	6739	6750	6758	9
6738	6739	6740	6744	9
6738	6743	6742	6745	9
6742	6741	6748	6749	9
1141	6748	6741	6742	9
6742	6741	6740	6744	9
6742	6743	6738	6746	9
6746	6738	6743	6747	9
6745	6742	6743	6747	9
6751	6750	6758	6752	9
6751	6750	6758	6759	9
1134	1141	6748	6749	9
1143	1141	6748	6749	9
6668	6667	6666	6677	9
6671	6667	6666	6677	9
6670	6665	6666	6677	9
6673	6665	6666	6677	9
6677	5204	5194	5197	9
6677	5204	5194	5193	9
6666	6667	6668	6675	9
6671	6667	6668	6675	9
6670	6669	6668	6675	9
6672	6669	6668	6675	9
6675	6685	6679	6682	9
6675	6685	6679	6680	9
6666	6677	5204	5194	9
6666	6677	5204	5206	9
6666	6667	6668	6669	9
6666	6665	6670	6669	9
6666	6665	6670	6674	9
6668	6675	6685	6679	9
6668	6675	6685	6686	9
6665	6666	6667	6668	9
6665	6670	6669	6668	9
6668	6669	6670	6674	9
6667	6666	6677	6678	9
6667	6666	6677	5204	9
6667	6666	6665	6670	9
6667	6666	6665	6673	9
6667	6668	6675	6676	9
6667	6668	6675	6685	9
6667	6668	6669	6670	9
6667	6668	6669	6672	9
6665	6666	6677	6678	9
6665	6666	6677	5204	9
6665	6666	6667	6671	9
6665	6670	6669	6672	9
6669	6668	6675	6676	9
6669	6668	6675	6685	9
6669	6668	6667	6671	9
6669	6670	6665	6673	9
6673	6665	6670	6674	9
6672	6669	6670	6674	9
6678	6677	5204	5194	9
6678	6677	5204	5206	9
6676	6675	6685	6679	9
6676	6675	6685	6686	9
12440	12439	12438	12449	9
12443	12439	12438	12449	9
12442	12437	12438	12449	9
12445	12437	12438	12449	9
1511	1510	1517	12449	9
1509	1510	1517	12449	9
12438	12439	12440	12447	9
12443	12439	12440	12447	9
12442	12441	12440	12447	9
12444	12441	12440	12447	9
12447	6020	6013	6012	9
12447	6020	6013	6014	9
1510	1517	12449	12438	9
1519	1517	12449	12438	9
12438	12439	12440	12441	9
12438	12437	12442	12441	9
12438	12437	12442	12446	9
12440	12447	6020	6013	9
12440	12447	6020	6022	9
12437	12438	12439	12440	9
12437	12442	12441	12440	9
12440	12441	12442	12446	9
12439	12438	12449	12450	9
1517	12449	12438	12439	9
12439	12438	12437	12442	9
12439	12438	12437	12445	9
12439	12440	12447	12448	9
12439	12440	12447	6020	9
12439	12440	12441	12442	9
12439	12440	12441	12444	9
12437	12438	12449	12450	9
1517	12449	12438	12437	9
12437	12438	12439	12443	9
12437	12442	12441	12444	9
12441	12440	12447	12448	9
12441	12440	12447	6020	9
12441	12440	12439	12443	9
12441	12442	12437	12445	9
12445	12437	12442	12446	9
12444	12441	12442	12446	9
1510	1517	12449	12450	9
1519	1517	12449	12450	9
12448	12447	6020	6013	9
12448	12447	6020	6022	9
3289	3288	3287	3298	9
3292	3288	3287	3298	9
3291	3286	3287	3298	9
3294	3286	3287	3298	9
3287	3288	3289	3296	9
3292	3288	3289	3296	9
3291	3290	3289	3296	9
3293	3290	3289	3296	9
3296	8918	8912	8913	9
3296	8918	8912	8915	9
3287	3288	3289	3290	9
3287	3286	3291	3290	9
3287	3286	3291	3295	9
3289	3296	8918	8912	9
3289	3296	8918	8919	9
3286	3287	3288	3289	9
3286	3291	3290	3289	9
3289	3290	3291	3295	9
3288	3287	3298	3300	9
3288	3287	3298	3299	9
3288	3287	3286	3291	9
3288	3287	3286	3294	9
3288	3289	3296	3297	9
3288	3289	3296	8918	9
3288	3289	3290	3291	9
3288	3289	3290	3293	9
3286	3287	3298	3300	9
3286	3287	3298	3299	9
3286	3287	3288	3292	9
3286	3291	3290	3293	9
3290	3289	3296	3297	9
3290	3289	3296	8918	9
3290	3289	3288	3292	9
3290	3291	3286	3294	9
3294	3286	3291	3295	9
3293	3290	3291	3295	9
3297	3296	8918	8912	9
3297	3296	8918	8919	9
747	746	745	756	9
750	746	745	756	9
749	744	745	756	9
752	744	745	756	9
730	727	733	756	9
728	727	733	756	9
745	746	747	754	9
750	746	747	754	9
749	748	747	754	9
751	748	747	754	9
754	5009	5003	5004	9
754	5009	5003	5006	9
727	733	756	745	9
734	733	756	745	9
745	746	747	748	9
745	744	749	748	9
745	744	749	753	9
747	754	5009	5003	9
747	754	5009	5010	9
744	745	746	747	9
744	749	748	747	9
747	748	749	753	9
746	745	756	757	9
733	756	745	746	9
746	745	744	749	9
746	745	744	752	9
746	747	754	755	9
746	747	754	5009	9
746	747	748	749	9
746	747	748	751	9
744	745	756	757	9
733	756	745	744	9
744	745	746	750	9
744	749	748	751	9
748	747	754	755	9
748	747	754	5009	9
748	747	746	750	9
748	749	744	752	9
752	744	749	753	9
751	748	749	753	9
727	733	756	757	9
734	733	756	757	9
755	754	5009	5003	9
755	754	5009	5010	9
8857	8856	8855	8866	9
8860	8856	8855	8866	9
8859	8854	8855	8866	9
8862	8854	8855	8866	9
8866	9959	9952	9951	9
8866	9959	9952	9953	9
8855	8856	8857	8864	9
8860	8856	8857	8864	9
8859	8858	8857	8864	9
8861	8858	8857	8864	9
8864	8880	8870	8869	9
8864	8880	8870	8873	9
8855	8866	9959	9952	9
8855	8866	9959	9961	9
8855	8856	8857	8858	9
8855	8854	8859	8858	9
8855	8854	8859	8863	9
8857	8864	8880	8870	9
8857	8864	8880	8882	9
8854	8855	8856	8857	9
8854	8859	8858	8857	9
8857	8858	8859	8863	9
8856	8855	8866	8867	9
8856	8855	8866	9959	9
8856	8855	8854	8859	9
8856	8855	8854	8862	9
8856	8857	8864	8865	9
8856	8857	8864	8880	9
8856	8857	8858	8859	9
8856	8857	8858	8861	9
8854	8855	8866	8867	9
8854	8855	8866	9959	9
8854	8855	8856	8860	9
8854	8859	8858	8861	9
8858	8857	8864	8865	9
8858	8857	8864	8880	9
8858	8857	8856	8860	9
8858	8859	8854	8862	9
8862	8854	8859	8863	9
8861	8858	8859	8863	9
8867	8866	9959	9952	9
8867	8866	9959	9961	9
8865	8864	8880	8870	9
8865	8864	8880	8882	9
12580	12579	12578	12589	9
12583	12579	12578	12589	9
12582	12577	12578	12589	9
12585	12577	12578	12589	9
12589	8104	8094	8093	9
12589	8104	8094	8097	9
12578	12579	12580	12587	9
12583	12579	12580	12587	9
12582	12581	12580	12587	9
12584	12581	12580	12587	9
12587	6283	6273	6276	9
12587	6283	6273	6272	9
12578	12589	8104	8094	9
12578	12589	8104	8106	9
12578	12579	12580	12581	9
12578	12577	12582	12581	9
12578	12577	12582	12586	9
12580	12587	6283	6273	9
12580	12587	6283	6285	9
12577	12578	12579	12580	9
12577	12582	12581	12580	9
12580	12581	12582	12586	9
12579	12578	12589	12590	9
12579	12578	12589	8104	9
12579	12578	12577	12582	9
12579	12578	12577	12585	9
12579	12580	12587	12588	9
12579	12580	12587	6283	9
12579	12580	12581	12582	9
12579	12580	12581	12584	9
12577	12578	12589	12590	9
12577	12578	12589	8104	9
12577	12578	12579	12583	9
12577	12582	12581	12584	9
12581	12580	12587	12588	9
12581	12580	12587	6283	9
12581	12580	12579	12583	9
12581	12582	12577	12585	9
12585	12577	12582	12586	9
12584	12581	12582	12586	9
12590	12589	8104	8094	9
12590	12589	8104	8106	9
12588	12587	6283	6273	9
12588	12587	6283	6285	9
7528	7527	7526	7537	9
7531	7527	7526	7537	9
7530	7525	7526	7537	9
7533	7525	7526	7537	9
7537	9740	9733	9734	9
7537	9740	9733	9732	9
7526	7527	7528	7535	9
7531	7527	7528	7535	9
7530	7529	7528	7535	9
7532	7529	7528	7535	9
7535	7545	7539	7542	9
7535	7545	7539	7540	9
7526	7537	9740	9733	9
7526	7537	9740	9742	9
7526	7527	7528	7529	9
7526	7525	7530	7529	9
7526	7525	7530	7534	9
7528	7535	7545	7539	9
7528	7535	7545	7546	9
7525	7526	7527	7528	9
7525	7530	7529	7528	9
7528	7529	7530	7534	9
7527	7526	7537	7538	9
7527	7526	7537	9740	9
7527	7526	7525	7530	9
7527	7526	7525	7533	9
7527	7528	7535	7536	9
7527	7528	7535	7545	9
7527	7528	7529	7530	9
7527	7528	7529	7532	9
7525	7526	7537	7538	9
7525	7526	7537	9740	9
7525	7526	7527	7531	9
7525	7530	7529	7532	9
7529	7528	7535	7536	9
7529	7528	7535	7545	9
7529	7528	7527	7531	9
7529	7530	7525	7533	9
7533	7525	7530	7534	9
7532	7529	7530	7534	9
7538	7537	9740	9733	9
7538	7537	9740	9742	9
7536	7535	7545	7539	9
7536	7535	7545	7546	9
7935	7934	7933	7944	9
7938	7934	7933	7944	9
7937	7932	7933	7944	9
7940	7932	7933	7944	9
7944	7952	7946	7949	9
7944	7952	7946	7947	9
7933	7934	7935	7942	9
7938	7934	7935	7942	9
7937	7936	7935	7942	9
7939	7936	7935	7942	9
7942	7696	7689	7688	9
7942	7696	7689	7690	9
7933	7944	7952	7946	9
7933	7944	7952	7953	9
7933	7934	7935	7936	9
7933	7932	7937	7936	9
7933	7932	7937	7941	9
7935	7942	7696	7689	9
7935	7942	7696	7698	9
7932	7933	7934	7935	9
7932	7937	7936	7935	9
7935	7936	7937	7941	9
7934	7933	7944	7945	9
7934	7933	7944	7952	9
7934	7933	7932	7937	9
7934	7933	7932	7940	9
7934	7935	7942	7943	9
7934	7935	7942	7696	9
7934	7935	7936	7937	9
7934	7935	7936	7939	9
7932	7933	7944	7945	9
7932	7933	7944	7952	9
7932	7933	7934	7938	9
7932	7937	7936	7939	9
7936	7935	7942	7943	9
7936	7935	7942	7696	9
7936	7935	7934	7938	9
7936	7937	7932	7940	9
7940	7932	7937	7941	9
7939	7936	7937	7941	9
7945	7944	7952	7946	9
7945	7944	7952	7953	9
7943	7942	7696	7689	9
7943	7942	7696	7698	9
12790	12789	12788	12799	9
12793	12789	12788	12799	9
12792	12787	12788	12799	9
12795	12787	12788	12799	9
12799	10395	10388	10389	9
12799	10395	10388	10387	9
12788	12789	12790	12797	9
12793	12789	12790	12797	9
12792	12791	12790	12797	9
12794	12791	12790	12797	9
12797	6764	6754	6753	9
12797	6764	6754	6757	9
12788	12799	10395	10388	9
12788	12799	10395	10397	9
12788	12789	12790	12791	9
12788	12787	12792	12791	9
12788	12787	12792	12796	9
12790	12797	6764	6754	9
12790	12797	6764	6766	9
12787	12788	12789	12790	9
12787	12792	12791	12790	9
12790	12791	12792	12796	9
12789	12788	12799	12800	9
12789	12788	12799	10395	9
12789	12788	12787	12792	9
12789	12788	12787	12795	9
12789	12790	12797	12798	9
12789	12790	12797	6764	9
12789	12790	12791	12792	9
12789	12790	12791	12794	9
12787	12788	12799	12800	9
12787	12788	12799	10395	9
12787	12788	12789	12793	9
12787	12792	12791	12794	9
12791	12790	12797	12798	9
12791	12790	12797	6764	9
12791	12790	12789	12793	9
12791	12792	12787	12795	9
12795	12787	12792	12796	9
12794	12791	12792	12796	9
12800	12799	10395	10388	9
12800	12799	10395	10397	9
12798	12797	6764	6754	9
12798	12797	6764	6766	9
153	152	151	162	9
156	152	151	162	9
155	150	151	162	9
158	150	151	162	9
134	131	137	162	9
132	131	137	162	9
151	152	153	160	9
156	152	153	160	9
155	154	153	160	9
157	154	153	160	9
160	6807	6800	6801	9
160	6807	6800	6799	9
131	137	162	151	9
138	137	162	151	9
151	152	153	154	9
151	150	155	154	9
151	150	155	159	9
153	160	6807	6800	9
153	160	6807	6809	9
150	151	152	153	9
150	155	154	153	9
153	154	155	159	9
152	151	162	163	9
137	162	151	152	9
152	151	150	155	9
152	151	150	158	9
152	153	160	161	9
152	153	160	6807	9
152	153	154	155	9
152	153	154	157	9
150	151	162	163	9
137	162	151	150	9
150	151	152	156	9
150	155	154	157	9
154	153	160	161	9
154	153	160	6807	9
154	153	152	156	9
154	155	150	158	9
158	150	155	159	9
157	154	155	159	9
131	137	162	163	9
138	137	162	163	9
161	160	6807	6800	9
161	160	6807	6809	9
11572	11571	11570	11581	9
11575	11571	11570	11581	9
11574	11569	11570	11581	9
11577	11569	11570	11581	9
11581	4491	4484	4483	9
11581	4491	4484	4485	9
11570	11571	11572	11579	9
11575	11571	11572	11579	9
11574	11573	11572	11579	9
11576	11573	11572	11579	9
389	390	397	11579	9
391	390	397	11579	9
11570	11581	4491	4484	9
11570	11581	4491	4493	9
11570	11571	11572	11573	9
11570	11569	11574	11573	9
11570	11569	11574	11578	9
390	397	11579	11572	9
399	397	11579	11572	9
11569	11570	11571	11572	9
11569	11574	11573	11572	9
11572	11573	11574	11578	9
11571	11570	11581	11582	9
11571	11570	11581	4491	9
11571	11570	11569	11574	9
11571	11570	11569	11577	9
11571	11572	11579	11580	9
397	11579	11572	11571	9
11571	11572	11573	11574	9
11571	11572	11573	11576	9
11569	11570	11581	11582	9
11569	11570	11581	4491	9
11569	11570	11571	11575	9
11569	11574	11573	11576	9
11573	11572	11579	11580	9
397	11579	11572	11573	9
11573	11572	11571	11575	9
11573	11574	11569	11577	9
11577	11569	11574	11578	9
11576	11573	11574	11578	9
11582	11581	4491	4484	9
11582	11581	4491	4493	9
390	397	11579	11580	9
399	397	11579	11580	9
1712	1711	1710	1721	9
1715	1711	1710	1721	9
1714	1709	1710	1721	9
1717	1709	1710	1721	9
1721	7900	7890	7889	9
1721	7900	7890	7893	9
1710	1711	1712	1719	9
1715	1711	1712	1719	9
1714	1713	1712	1719	9
1716	1713	1712	1719	9
1695	1692	1698	1719	9
1693	1692	1698	1719	9
1710	1721	7900	7890	9
1710	1721	7900	7902	9
1710	1711	1712	1713	9
1710	1709	1714	1713	9
1710	1709	1714	1718	9
1692	1698	1719	1712	9
1699	1698	1719	1712	9
1709	1710	1711	1712	9
1709	1714	1713	1712	9
1712	1713	1714	1718	9
1711	1710	1721	1722	9
1711	1710	1721	7900	9
1711	1710	1709	1714	9
1711	1710	1709	1717	9
1711	1712	1719	1720	9
1698	1719	1712	1711	9
1711	1712	1713	1714	9
1711	1712	1713	1716	9
1709	1710	1721	1722	9
1709	1710	1721	7900	9
1709	1710	1711	1715	9
1709	1714	1713	1716	9
1713	1712	1719	1720	9
1698	1719	1712	1713	9
1713	1712	1711	1715	9
1713	1714	1709	1717	9
1717	1709	1714	1718	9
1716	1713	1714	1718	9
1722	1721	7900	7890	9
1722	1721	7900	7902	9
1692	1698	1719	1720	9
1699	1698	1719	1720	9
2350	2349	2348	2359	9
2353	2349	2348	2359	9
2352	2347	2348	2359	9
2355	2347	2348	2359	9
2359	6802	6796	6797	9
2359	6802	6796	6799	9
2348	2349	2350	2357	9
2353	2349	2350	2357	9
2352	2351	2350	2357	9
2354	2351	2350	2357	9
2331	2330	2336	2357	9
2333	2330	2336	2357	9
2348	2359	6802	6796	9
2348	2359	6802	6803	9
2348	2349	2350	2351	9
2348	2347	2352	2351	9
2348	2347	2352	2356	9
2330	2336	2357	2350	9
2337	2336	2357	2350	9
2347	2348	2349	2350	9
2347	2352	2351	2350	9
2350	2351	2352	2356	9
2349	2348	2359	2360	9
2349	2348	2359	6802	9
2349	2348	2347	2352	9
2349	2348	2347	2355	9
2349	2350	2357	2358	9
2336	2357	2350	2349	9
2349	2350	2351	2352	9
2349	2350	2351	2354	9
2347	2348	2359	2360	9
2347	2348	2359	6802	9
2347	2348	2349	2353	9
2347	2352	2351	2354	9
2351	2350	2357	2358	9
2336	2357	2350	2351	9
2351	2350	2349	2353	9
2351	2352	2347	2355	9
2355	2347	2352	2356	9
2354	2351	2352	2356	9
2360	2359	6802	6796	9
2360	2359	6802	6803	9
2330	2336	2357	2358	9
2337	2336	2357	2358	9
12860	12859	12858	12869	9
12863	12859	12858	12869	9
12862	12857	12858	12869	9
12865	12857	12858	12869	9
12869	8792	8785	8784	9
12869	8792	8785	8786	9
12858	12859	12860	12867	9
12863	12859	12860	12867	9
12862	12861	12860	12867	9
12864	12861	12860	12867	9
12867	7056	7046	7045	9
12867	7056	7046	7049	9
12858	12869	8792	8785	9
12858	12869	8792	8794	9
12858	12859	12860	12861	9
12858	12857	12862	12861	9
12858	12857	12862	12866	9
12860	12867	7056	7046	9
12860	12867	7056	7058	9
12857	12858	12859	12860	9
12857	12862	12861	12860	9
12860	12861	12862	12866	9
12859	12858	12869	12870	9
12859	12858	12869	8792	9
12859	12858	12857	12862	9
12859	12858	12857	12865	9
12859	12860	12867	12868	9
12859	12860	12867	7056	9
12859	12860	12861	12862	9
12859	12860	12861	12864	9
12857	12858	12869	12870	9
12857	12858	12869	8792	9
12857	12858	12859	12863	9
12857	12862	12861	12864	9
12861	12860	12867	12868	9
12861	12860	12867	7056	9
12861	12860	12859	12863	9
12861	12862	12857	12865	9
12865	12857	12862	12866	9
12864	12861	12862	12866	9
12870	12869	8792	8785	9
12870	12869	8792	8794	9
12868	12867	7056	7046	9
12868	12867	7056	7058	9
3649	3648	3647	3658	9
3652	3648	3647	3658	9
3651	3646	3647	3658	9
3654	3646	3647	3658	9
3647	3648	3649	3656	9
3652	3648	3649	3656	9
3651	3650	3649	3656	9
3653	3650	3649	3656	9
3656	10821	10811	10810	9
3656	10821	10811	10814	9
3647	3648	3649	3650	9
3647	3646	3651	3650	9
3647	3646	3651	3655	9
3649	3656	10821	10811	9
3649	3656	10821	10823	9
3646	3647	3648	3649	9
3646	3651	3650	3649	9
3649	3650	3651	3655	9
3648	3647	3658	3659	9
3648	3647	3658	3660	9
3648	3647	3646	3651	9
3648	3647	3646	3654	9
3648	3649	3656	3657	9
3648	3649	3656	10821	9
3648	3649	3650	3651	9
3648	3649	3650	3653	9
3646	3647	3658	3659	9
3646	3647	3658	3660	9
3646	3647	3648	3652	9
3646	3651	3650	3653	9
3650	3649	3656	3657	9
3650	3649	3656	10821	9
3650	3649	3648	3652	9
3650	3651	3646	3654	9
3654	3646	3651	3655	9
3653	3650	3651	3655	9
3657	3656	10821	10811	9
3657	3656	10821	10823	9
5689	5690	5691	5698	9
5694	5690	5691	5698	9
5693	5692	5691	5698	9
5695	5692	5691	5698	9
1571	1572	1579	5698	9
1573	1572	1579	5698	9
5691	5690	5689	5700	9
5694	5690	5689	5700	9
5693	5688	5689	5700	9
5696	5688	5689	5700	9
5700	5714	5704	5703	9
5700	5714	5704	5707	9
1572	1579	5698	5691	9
1581	1579	5698	5691	9
5691	5690	5689	5688	9
5691	5692	5693	5688	9
5691	5692	5693	5697	9
5689	5700	5714	5704	9
5689	5700	5714	5716	9
5692	5691	5690	5689	9
5692	5693	5688	5689	9
5689	5688	5693	5697	9
5690	5691	5698	5699	9
1579	5698	5691	5690	9
5690	5691	5692	5693	9
5690	5691	5692	5695	9
5690	5689	5700	5701	9
5690	5689	5700	5714	9
5690	5689	5688	5693	9
5690	5689	5688	5696	9
5692	5691	5698	5699	9
1579	5698	5691	5692	9
5692	5691	5690	5694	9
5692	5693	5688	5696	9
5688	5689	5700	5701	9
5688	5689	5700	5714	9
5688	5689	5690	5694	9
5688	5693	5692	5695	9
5695	5692	5693	5697	9
5696	5688	5693	5697	9
1572	1579	5698	5699	9
1581	1579	5698	5699	9
5701	5700	5714	5704	9
5701	5700	5714	5716	9
13042	13041	13040	13051	9
13045	13041	13040	13051	9
13044	13039	13040	13051	9
13047	13039	13040	13051	9
13051	7618	7612	7613	9
13051	7618	7612	7615	9
13040	13041	13042	13049	9
13045	13041	13042	13049	9
13044	13043	13042	13049	9
13046	13043	13042	13049	9
13049	9638	9628	9627	9
13049	9638	9628	9631	9
13040	13051	7618	7612	9
13040	13051	7618	7619	9
13040	13041	13042	13043	9
13040	13039	13044	13043	9
13040	13039	13044	13048	9
13042	13049	9638	9628	9
13042	13049	9638	9640	9
13039	13040	13041	13042	9
13039	13044	13043	13042	9
13042	13043	13044	13048	9
13041	13040	13051	13052	9
13041	13040	13051	7618	9
13041	13040	13039	13044	9
13041	13040	13039	13047	9
13041	13042	13049	13050	9
13041	13042	13049	9638	9
13041	13042	13043	13044	9
13041	13042	13043	13046	9
13039	13040	13051	13052	9
13039	13040	13051	7618	9
13039	13040	13041	13045	9
13039	13044	13043	13046	9
13043	13042	13049	13050	9
13043	13042	13049	9638	9
13043	13042	13041	13045	9
13043	13044	13039	13047	9
13047	13039	13044	13048	9
13046	13043	13044	13048	9
13052	13051	7618	7612	9
13052	13051	7618	7619	9
13050	13049	9638	9628	9
13050	13049	9638	9640	9
5152	5151	5150	5161	9
5155	5151	5150	5161	9
5154	5149	5150	5161	9
5157	5149	5150	5161	9
5161	5169	5163	5166	9
5161	5169	5163	5164	9
5150	5151	5152	5159	9
5155	5151	5152	5159	9
5154	5153	5152	5159	9
5156	5153	5152	5159	9
5159	3939	3932	3931	9
5159	3939	3932	3933	9
5150	5161	5169	5163	9
5150	5161	5169	5170	9
5150	5151	5152	5153	9
5150	5149	5154	5153	9
5150	5149	5154	5158	9
5152	5159	3939	3932	9
5152	5159	3939	3941	9
5149	5150	5151	5152	9
5149	5154	5153	5152	9
5152	5153	5154	5158	9
5151	5150	5161	5162	9
5151	5150	5161	5169	9
5151	5150	5149	5154	9
5151	5150	5149	5157	9
5151	5152	5159	5160	9
5151	5152	5159	3939	9
5151	5152	5153	5154	9
5151	5152	5153	5156	9
5149	5150	5161	5162	9
5149	5150	5161	5169	9
5149	5150	5151	5155	9
5149	5154	5153	5156	9
5153	5152	5159	5160	9
5153	5152	5159	3939	9
5153	5152	5151	5155	9
5153	5154	5149	5157	9
5157	5149	5154	5158	9
5156	5153	5154	5158	9
5162	5161	5169	5163	9
5162	5161	5169	5170	9
5160	5159	3939	3932	9
5160	5159	3939	3941	9
4004	4003	4002	4013	9
4007	4003	4002	4013	9
4006	4001	4002	4013	9
4009	4001	4002	4013	9
4013	10777	10767	10770	9
4013	10777	10767	10766	9
4002	4003	4004	4011	9
4007	4003	4004	4011	9
4006	4005	4004	4011	9
4008	4005	4004	4011	9
4011	4021	4015	4018	9
4011	4021	4015	4016	9
4002	4013	10777	10767	9
4002	4013	10777	10779	9
4002	4003	4004	4005	9
4002	4001	4006	4005	9
4002	4001	4006	4010	9
4004	4011	4021	4015	9
4004	4011	4021	4022	9
4001	4002	4003	4004	9
4001	4006	4005	4004	9
4004	4005	4006	4010	9
4003	4002	4013	4014	9
4003	4002	4013	10777	9
4003	4002	4001	4006	9
4003	4002	4001	4009	9
4003	4004	4011	4012	9
4003	4004	4011	4021	9
4003	4004	4005	4006	9
4003	4004	4005	4008	9
4001	4002	4013	4014	9
4001	4002	4013	10777	9
4001	4002	4003	4007	9
4001	4006	4005	4008	9
4005	4004	4011	4012	9
4005	4004	4011	4021	9
4005	4004	4003	4007	9
4005	4006	4001	4009	9
4009	4001	4006	4010	9
4008	4005	4006	4010	9
4014	4013	10777	10767	9
4014	4013	10777	10779	9
4012	4011	4021	4015	9
4012	4011	4021	4022	9
12230	12229	12228	12239	9
12233	12229	12228	12239	9
12232	12227	12228	12239	9
12235	12227	12228	12239	9
12239	5713	5706	5705	9
12239	5713	5706	5707	9
12228	12229	12230	12237	9
12233	12229	12230	12237	9
12232	12231	12230	12237	9
12234	12231	12230	12237	9
823	824	831	12237	9
825	824	831	12237	9
12228	12239	5713	5706	9
12228	12239	5713	5715	9
12228	12229	12230	12231	9
12228	12227	12232	12231	9
12228	12227	12232	12236	9
824	831	12237	12230	9
833	831	12237	12230	9
12227	12228	12229	12230	9
12227	12232	12231	12230	9
12230	12231	12232	12236	9
12229	12228	12239	12240	9
12229	12228	12239	5713	9
12229	12228	12227	12232	9
12229	12228	12227	12235	9
12229	12230	12237	12238	9
831	12237	12230	12229	9
12229	12230	12231	12232	9
12229	12230	12231	12234	9
12227	12228	12239	12240	9
12227	12228	12239	5713	9
12227	12228	12229	12233	9
12227	12232	12231	12234	9
12231	12230	12237	12238	9
831	12237	12230	12231	9
12231	12230	12229	12233	9
12231	12232	12227	12235	9
12235	12227	12232	12236	9
12234	12231	12232	12236	9
12240	12239	5713	5706	9
12240	12239	5713	5715	9
824	831	12237	12238	9
833	831	12237	12238	9
10111	10110	10109	10120	9
10114	10110	10109	10120	9
10113	10108	10109	10120	9
10116	10108	10109	10120	9
10120	10128	10122	10123	9
10120	10128	10122	10125	9
10109	10110	10111	10118	9
10114	10110	10111	10118	9
10113	10112	10111	10118	9
10115	10112	10111	10118	9
10118	7230	7220	7219	9
10118	7230	7220	7223	9
10109	10120	10128	10122	9
10109	10120	10128	10129	9
10109	10110	10111	10112	9
10109	10108	10113	10112	9
10109	10108	10113	10117	9
10111	10118	7230	7220	9
10111	10118	7230	7232	9
10108	10109	10110	10111	9
10108	10113	10112	10111	9
10111	10112	10113	10117	9
10110	10109	10120	10121	9
10110	10109	10120	10128	9
10110	10109	10108	10113	9
10110	10109	10108	10116	9
10110	10111	10118	10119	9
10110	10111	10118	7230	9
10110	10111	10112	10113	9
10110	10111	10112	10115	9
10108	10109	10120	10121	9
10108	10109	10120	10128	9
10108	10109	10110	10114	9
10108	10113	10112	10115	9
10112	10111	10118	10119	9
10112	10111	10118	7230	9
10112	10111	10110	10114	9
10112	10113	10108	10116	9
10116	10108	10113	10117	9
10115	10112	10113	10117	9
10121	10120	10128	10122	9
10121	10120	10128	10129	9
10119	10118	7230	7220	9
10119	10118	7230	7232	9
12664	12663	12662	12673	9
12667	12663	12662	12673	9
12666	12661	12662	12673	9
12669	12661	12662	12673	9
12673	6444	6434	6437	9
12673	6444	6434	6433	9
12662	12663	12664	12671	9
12667	12663	12664	12671	9
12666	12665	12664	12671	9
12668	12665	12664	12671	9
949	948	955	12671	9
947	948	955	12671	9
12662	12673	6444	6434	9
12662	12673	6444	6446	9
12662	12663	12664	12665	9
12662	12661	12666	12665	9
12662	12661	12666	12670	9
948	955	12671	12664	9
957	955	12671	12664	9
12661	12662	12663	12664	9
12661	12666	12665	12664	9
12664	12665	12666	12670	9
12663	12662	12673	12674	9
12663	12662	12673	6444	9
12663	12662	12661	12666	9
12663	12662	12661	12669	9
12663	12664	12671	12672	9
955	12671	12664	12663	9
12663	12664	12665	12666	9
12663	12664	12665	12668	9
12661	12662	12673	12674	9
12661	12662	12673	6444	9
12661	12662	12663	12667	9
12661	12666	12665	12668	9
12665	12664	12671	12672	9
955	12671	12664	12665	9
12665	12664	12663	12667	9
12665	12666	12661	12669	9
12669	12661	12666	12670	9
12668	12665	12666	12670	9
12674	12673	6444	6434	9
12674	12673	6444	6446	9
948	955	12671	12672	9
957	955	12671	12672	9
9280	9279	9278	9289	9
9283	9279	9278	9289	9
9282	9277	9278	9289	9
9285	9277	9278	9289	9
9289	10191	10184	10185	9
9289	10191	10184	10183	9
9278	9279	9280	9287	9
9283	9279	9280	9287	9
9282	9281	9280	9287	9
9284	9281	9280	9287	9
9287	9302	9295	9294	9
9287	9302	9295	9296	9
9278	9289	10191	10184	9
9278	9289	10191	10193	9
9278	9279	9280	9281	9
9278	9277	9282	9281	9
9278	9277	9282	9286	9
9280	9287	9302	9295	9
9280	9287	9302	9304	9
9277	9278	9279	9280	9
9277	9282	9281	9280	9
9280	9281	9282	9286	9
9279	9278	9289	9290	9
9279	9278	9289	10191	9
9279	9278	9277	9282	9
9279	9278	9277	9285	9
9279	9280	9287	9288	9
9279	9280	9287	9302	9
9279	9280	9281	9282	9
9279	9280	9281	9284	9
9277	9278	9289	9290	9
9277	9278	9289	10191	9
9277	9278	9279	9283	9
9277	9282	9281	9284	9
9281	9280	9287	9288	9
9281	9280	9287	9302	9
9281	9280	9279	9283	9
9281	9282	9277	9285	9
9285	9277	9282	9286	9
9284	9281	9282	9286	9
9290	9289	10191	10184	9
9290	9289	10191	10193	9
9288	9287	9302	9295	9
9288	9287	9302	9304	9
8081	8080	8079	8090	9
8084	8080	8079	8090	9
8083	8078	8079	8090	9
8086	8078	8079	8090	9
8090	5364	5354	5357	9
8090	5364	5354	5353	9
8079	8080	8081	8088	9
8084	8080	8081	8088	9
8083	8082	8081	8088	9
8085	8082	8081	8088	9
8088	8098	8092	8093	9
8088	8098	8092	8095	9
8079	8090	5364	5354	9
8079	8090	5364	5366	9
8079	8080	8081	8082	9
8079	8078	8083	8082	9
8079	8078	8083	8087	9
8081	8088	8098	8092	9
8081	8088	8098	8099	9
8078	8079	8080	8081	9
8078	8083	8082	8081	9
8081	8082	8083	8087	9
8080	8079	8090	8091	9
8080	8079	8090	5364	9
8080	8079	8078	8083	9
8080	8079	8078	8086	9
8080	8081	8088	8089	9
8080	8081	8088	8098	9
8080	8081	8082	8083	9
8080	8081	8082	8085	9
8078	8079	8090	8091	9
8078	8079	8090	5364	9
8078	8079	8080	8084	9
8078	8083	8082	8085	9
8082	8081	8088	8089	9
8082	8081	8088	8098	9
8082	8081	8080	8084	9
8082	8083	8078	8086	9
8086	8078	8083	8087	9
8085	8082	8083	8087	9
8091	8090	5364	5354	9
8091	8090	5364	5366	9
8089	8088	8098	8092	9
8089	8088	8098	8099	9
10169	10168	10167	10178	9
10172	10168	10167	10178	9
10171	10166	10167	10178	9
10174	10166	10167	10178	9
10178	10186	10180	10181	9
10178	10186	10180	10183	9
10167	10168	10169	10176	9
10172	10168	10169	10176	9
10171	10170	10169	10176	9
10173	10170	10169	10176	9
10176	4868	4861	4860	9
10176	4868	4861	4862	9
10167	10178	10186	10180	9
10167	10178	10186	10187	9
10167	10168	10169	10170	9
10167	10166	10171	10170	9
10167	10166	10171	10175	9
10169	10176	4868	4861	9
10169	10176	4868	4870	9
10166	10167	10168	10169	9
10166	10171	10170	10169	9
10169	10170	10171	10175	9
10168	10167	10178	10179	9
10168	10167	10178	10186	9
10168	10167	10166	10171	9
10168	10167	10166	10174	9
10168	10169	10176	10177	9
10168	10169	10176	4868	9
10168	10169	10170	10171	9
10168	10169	10170	10173	9
10166	10167	10178	10179	9
10166	10167	10178	10186	9
10166	10167	10168	10172	9
10166	10171	10170	10173	9
10170	10169	10176	10177	9
10170	10169	10176	4868	9
10170	10169	10168	10172	9
10170	10171	10166	10174	9
10174	10166	10171	10175	9
10173	10170	10171	10175	9
10179	10178	10186	10180	9
10179	10178	10186	10187	9
10177	10176	4868	4861	9
10177	10176	4868	4870	9
9966	9965	9964	9975	9
9969	9965	9964	9975	9
9968	9963	9964	9975	9
9971	9963	9964	9975	9
1852	1851	1858	9975	9
1850	1851	1858	9975	9
9964	9965	9966	9973	9
9969	9965	9966	9973	9
9968	9967	9966	9973	9
9970	9967	9966	9973	9
9973	9983	9977	9978	9
9973	9983	9977	9980	9
1851	1858	9975	9964	9
1860	1858	9975	9964	9
9964	9965	9966	9967	9
9964	9963	9968	9967	9
9964	9963	9968	9972	9
9966	9973	9983	9977	9
9966	9973	9983	9984	9
9963	9964	9965	9966	9
9963	9968	9967	9966	9
9966	9967	9968	9972	9
9965	9964	9975	9976	9
1858	9975	9964	9965	9
9965	9964	9963	9968	9
9965	9964	9963	9971	9
9965	9966	9973	9974	9
9965	9966	9973	9983	9
9965	9966	9967	9968	9
9965	9966	9967	9970	9
9963	9964	9975	9976	9
1858	9975	9964	9963	9
9963	9964	9965	9969	9
9963	9968	9967	9970	9
9967	9966	9973	9974	9
9967	9966	9973	9983	9
9967	9966	9965	9969	9
9967	9968	9963	9971	9
9971	9963	9968	9972	9
9970	9967	9968	9972	9
1851	1858	9975	9976	9
1860	1858	9975	9976	9
9974	9973	9983	9977	9
9974	9973	9983	9984	9
11432	11431	11430	11441	9
11435	11431	11430	11441	9
11434	11429	11430	11441	9
11437	11429	11430	11441	9
11441	4259	4249	4252	9
11441	4259	4249	4248	9
11430	11431	11432	11439	9
11435	11431	11432	11439	9
11434	11433	11432	11439	9
11436	11433	11432	11439	9
11439	7668	7658	7661	9
11439	7668	7658	7657	9
11430	11441	4259	4249	9
11430	11441	4259	4261	9
11430	11431	11432	11433	9
11430	11429	11434	11433	9
11430	11429	11434	11438	9
11432	11439	7668	7658	9
11432	11439	7668	7670	9
11429	11430	11431	11432	9
11429	11434	11433	11432	9
11432	11433	11434	11438	9
11431	11430	11441	11442	9
11431	11430	11441	4259	9
11431	11430	11429	11434	9
11431	11430	11429	11437	9
11431	11432	11439	11440	9
11431	11432	11439	7668	9
11431	11432	11433	11434	9
11431	11432	11433	11436	9
11429	11430	11441	11442	9
11429	11430	11441	4259	9
11429	11430	11431	11435	9
11429	11434	11433	11436	9
11433	11432	11439	11440	9
11433	11432	11439	7668	9
11433	11432	11431	11435	9
11433	11434	11429	11437	9
11437	11429	11434	11438	9
11436	11433	11434	11438	9
11442	11441	4259	4249	9
11442	11441	4259	4261	9
11440	11439	7668	7658	9
11440	11439	7668	7670	9
13770	13769	13768	13779	9
13773	13769	13768	13779	9
13772	13767	13768	13779	9
13775	13767	13768	13779	9
1759	1758	1765	13779	9
1757	1758	1765	13779	9
13768	13769	13770	13777	9
13773	13769	13770	13777	9
13772	13771	13770	13777	9
13774	13771	13770	13777	9
13777	11128	11121	11122	9
13777	11128	11121	11120	9
1758	1765	13779	13768	9
1767	1765	13779	13768	9
13768	13769	13770	13771	9
13768	13767	13772	13771	9
13768	13767	13772	13776	9
13770	13777	11128	11121	9
13770	13777	11128	11130	9
13767	13768	13769	13770	9
13767	13772	13771	13770	9
13770	13771	13772	13776	9
13769	13768	13779	13780	9
1765	13779	13768	13769	9
13769	13768	13767	13772	9
13769	13768	13767	13775	9
13769	13770	13777	13778	9
13769	13770	13777	11128	9
13769	13770	13771	13772	9
13769	13770	13771	13774	9
13767	13768	13779	13780	9
1765	13779	13768	13767	9
13767	13768	13769	13773	9
13767	13772	13771	13774	9
13771	13770	13777	13778	9
13771	13770	13777	11128	9
13771	13770	13769	13773	9
13771	13772	13767	13775	9
13775	13767	13772	13776	9
13774	13771	13772	13776	9
1758	1765	13779	13780	9
1767	1765	13779	13780	9
13778	13777	11128	11121	9
13778	13777	11128	11130	9
2912	2913	2914	2921	9
2917	2913	2914	2921	9
2916	2915	2914	2921	9
2918	2915	2914	2921	9
2921	5860	5850	5853	9
2921	5860	5850	5849	9
2914	2913	2912	2923	9
2917	2913	2912	2923	9
2916	2911	2912	2923	9
2919	2911	2912	2923	9
2914	2921	5860	5850	9
2914	2921	5860	5862	9
2911	2912	2913	2914	9
2911	2916	2915	2914	9
2914	2915	2916	2920	9
2912	2913	2914	2915	9
2912	2911	2916	2915	9
2912	2911	2916	2920	9
2913	2914	2921	2922	9
2913	2914	2921	5860	9
2913	2914	2915	2916	9
2913	2914	2915	2918	9
2913	2912	2923	2924	9
2913	2912	2923	2925	9
2913	2912	2911	2916	9
2913	2912	2911	2919	9
2915	2914	2921	2922	9
2915	2914	2921	5860	9
2915	2914	2913	2917	9
2915	2916	2911	2919	9
2911	2912	2923	2924	9
2911	2912	2923	2925	9
2911	2912	2913	2917	9
2911	2916	2915	2918	9
2918	2915	2916	2920	9
2919	2911	2916	2920	9
2922	2921	5860	5850	9
2922	2921	5860	5862	9
249	248	247	258	9
252	248	247	258	9
251	246	247	258	9
254	246	247	258	9
234	235	237	258	9
236	235	237	258	9
247	248	249	256	9
252	248	249	256	9
251	250	249	256	9
253	250	249	256	9
256	8787	8781	8784	9
256	8787	8781	8782	9
235	237	258	247	9
238	237	258	247	9
247	248	249	250	9
247	246	251	250	9
247	246	251	255	9
249	256	8787	8781	9
249	256	8787	8788	9
246	247	248	249	9
246	251	250	249	9
249	250	251	255	9
248	247	258	259	9
237	258	247	248	9
248	247	246	251	9
248	247	246	254	9
248	249	256	257	9
248	249	256	8787	9
248	249	250	251	9
248	249	250	253	9
246	247	258	259	9
237	258	247	246	9
246	247	248	252	9
246	251	250	253	9
250	249	256	257	9
250	249	256	8787	9
250	249	248	252	9
250	251	246	254	9
254	246	251	255	9
253	250	251	255	9
235	237	258	259	9
238	237	258	259	9
257	256	8787	8781	9
257	256	8787	8788	9
13084	13083	13082	13093	9
13087	13083	13082	13093	9
13086	13081	13082	13093	9
13089	13081	13082	13093	9
13093	10746	10739	10738	9
13093	10746	10739	10740	9
13082	13083	13084	13091	9
13087	13083	13084	13091	9
13086	13085	13084	13091	9
13088	13085	13084	13091	9
13091	7667	7660	7659	9
13091	7667	7660	7661	9
13082	13093	10746	10739	9
13082	13093	10746	10748	9
13082	13083	13084	13085	9
13082	13081	13086	13085	9
13082	13081	13086	13090	9
13084	13091	7667	7660	9
13084	13091	7667	7669	9
13081	13082	13083	13084	9
13081	13086	13085	13084	9
13084	13085	13086	13090	9
13083	13082	13093	13094	9
13083	13082	13093	10746	9
13083	13082	13081	13086	9
13083	13082	13081	13089	9
13083	13084	13091	13092	9
13083	13084	13091	7667	9
13083	13084	13085	13086	9
13083	13084	13085	13088	9
13081	13082	13093	13094	9
13081	13082	13093	10746	9
13081	13082	13083	13087	9
13081	13086	13085	13088	9
13085	13084	13091	13092	9
13085	13084	13091	7667	9
13085	13084	13083	13087	9
13085	13086	13081	13089	9
13089	13081	13086	13090	9
13088	13085	13086	13090	9
13094	13093	10746	10739	9
13094	13093	10746	10748	9
13092	13091	7667	7660	9
13092	13091	7667	7669	9
12902	12901	12900	12911	9
12905	12901	12900	12911	9
12904	12899	12900	12911	9
12907	12899	12900	12911	9
12911	7195	7189	7190	9
12911	7195	7189	7192	9
12900	12901	12902	12909	9
12905	12901	12902	12909	9
12904	12903	12902	12909	9
12906	12903	12902	12909	9
12909	8821	8814	8815	9
12909	8821	8814	8813	9
12900	12911	7195	7189	9
12900	12911	7195	7196	9
12900	12901	12902	12903	9
12900	12899	12904	12903	9
12900	12899	12904	12908	9
12902	12909	8821	8814	9
12902	12909	8821	8823	9
12899	12900	12901	12902	9
12899	12904	12903	12902	9
12902	12903	12904	12908	9
12901	12900	12911	12912	9
12901	12900	12911	7195	9
12901	12900	12899	12904	9
12901	12900	12899	12907	9
12901	12902	12909	12910	9
12901	12902	12909	8821	9
12901	12902	12903	12904	9
12901	12902	12903	12906	9
12899	12900	12911	12912	9
12899	12900	12911	7195	9
12899	12900	12901	12905	9
12899	12904	12903	12906	9
12903	12902	12909	12910	9
12903	12902	12909	8821	9
12903	12902	12901	12905	9
12903	12904	12899	12907	9
12907	12899	12904	12908	9
12906	12903	12904	12908	9
12912	12911	7195	7189	9
12912	12911	7195	7196	9
12910	12909	8821	8814	9
12910	12909	8821	8823	9
13350	13349	13348	13359	9
13353	13349	13348	13359	9
13352	13347	13348	13359	9
13355	13347	13348	13359	9
699	700	707	13359	9
701	700	707	13359	9
13348	13349	13350	13357	9
13353	13349	13350	13357	9
13352	13351	13350	13357	9
13354	13351	13350	13357	9
13357	8324	8314	8313	9
13357	8324	8314	8317	9
700	707	13359	13348	9
709	707	13359	13348	9
13348	13349	13350	13351	9
13348	13347	13352	13351	9
13348	13347	13352	13356	9
13350	13357	8324	8314	9
13350	13357	8324	8326	9
13347	13348	13349	13350	9
13347	13352	13351	13350	9
13350	13351	13352	13356	9
13349	13348	13359	13360	9
707	13359	13348	13349	9
13349	13348	13347	13352	9
13349	13348	13347	13355	9
13349	13350	13357	13358	9
13349	13350	13357	8324	9
13349	13350	13351	13352	9
13349	13350	13351	13354	9
13347	13348	13359	13360	9
707	13359	13348	13347	9
13347	13348	13349	13353	9
13347	13352	13351	13354	9
13351	13350	13357	13358	9
13351	13350	13357	8324	9
13351	13350	13349	13353	9
13351	13352	13347	13355	9
13355	13347	13352	13356	9
13354	13351	13352	13356	9
700	707	13359	13360	9
709	707	13359	13360	9
13358	13357	8324	8314	9
13358	13357	8324	8326	9
2443	2442	2441	2452	9
2446	2442	2441	2452	9
2445	2440	2441	2452	9
2448	2440	2441	2452	9
2424	2423	2429	2452	9
2426	2423	2429	2452	9
2441	2442	2443	2450	9
2446	2442	2443	2450	9
2445	2444	2443	2450	9
2447	2444	2443	2450	9
2450	8215	8209	8212	9
2450	8215	8209	8210	9
2423	2429	2452	2441	9
2430	2429	2452	2441	9
2441	2442	2443	2444	9
2441	2440	2445	2444	9
2441	2440	2445	2449	9
2443	2450	8215	8209	9
2443	2450	8215	8216	9
2440	2441	2442	2443	9
2440	2445	2444	2443	9
2443	2444	2445	2449	9
2442	2441	2452	2453	9
2429	2452	2441	2442	9
2442	2441	2440	2445	9
2442	2441	2440	2448	9
2442	2443	2450	2451	9
2442	2443	2450	8215	9
2442	2443	2444	2445	9
2442	2443	2444	2447	9
2440	2441	2452	2453	9
2429	2452	2441	2440	9
2440	2441	2442	2446	9
2440	2445	2444	2447	9
2444	2443	2450	2451	9
2444	2443	2450	8215	9
2444	2443	2442	2446	9
2444	2445	2440	2448	9
2448	2440	2445	2449	9
2447	2444	2445	2449	9
2423	2429	2452	2453	9
2430	2429	2452	2453	9
2451	2450	8215	8209	9
2451	2450	8215	8216	9
11880	11879	11878	11889	9
11883	11879	11878	11889	9
11882	11877	11878	11889	9
11885	11877	11878	11889	9
1244	1245	1252	11889	9
1246	1245	1252	11889	9
11878	11879	11880	11887	9
11883	11879	11880	11887	9
11882	11881	11880	11887	9
11884	11881	11880	11887	9
11887	5044	5034	5033	9
11887	5044	5034	5037	9
1245	1252	11889	11878	9
1254	1252	11889	11878	9
11878	11879	11880	11881	9
11878	11877	11882	11881	9
11878	11877	11882	11886	9
11880	11887	5044	5034	9
11880	11887	5044	5046	9
11877	11878	11879	11880	9
11877	11882	11881	11880	9
11880	11881	11882	11886	9
11879	11878	11889	11890	9
1252	11889	11878	11879	9
11879	11878	11877	11882	9
11879	11878	11877	11885	9
11879	11880	11887	11888	9
11879	11880	11887	5044	9
11879	11880	11881	11882	9
11879	11880	11881	11884	9
11877	11878	11889	11890	9
1252	11889	11878	11877	9
11877	11878	11879	11883	9
11877	11882	11881	11884	9
11881	11880	11887	11888	9
11881	11880	11887	5044	9
11881	11880	11879	11883	9
11881	11882	11877	11885	9
11885	11877	11882	11886	9
11884	11881	11882	11886	9
1245	1252	11889	11890	9
1254	1252	11889	11890	9
11888	11887	5044	5034	9
11888	11887	5044	5046	9
2959	2958	2957	2968	9
2962	2958	2957	2968	9
2961	2956	2957	2968	9
2964	2956	2957	2968	9
2957	2958	2959	2966	9
2962	2958	2959	2966	9
2961	2960	2959	2966	9
2963	2960	2959	2966	9
2966	6569	6563	6564	9
2966	6569	6563	6566	9
2957	2958	2959	2960	9
2957	2956	2961	2960	9
2957	2956	2961	2965	9
2959	2966	6569	6563	9
2959	2966	6569	6570	9
2956	2957	2958	2959	9
2956	2961	2960	2959	9
2959	2960	2961	2965	9
2958	2957	2968	2969	9
2958	2957	2968	2970	9
2958	2957	2956	2961	9
2958	2957	2956	2964	9
2958	2959	2966	2967	9
2958	2959	2966	6569	9
2958	2959	2960	2961	9
2958	2959	2960	2963	9
2956	2957	2968	2969	9
2956	2957	2968	2970	9
2956	2957	2958	2962	9
2956	2961	2960	2963	9
2960	2959	2966	2967	9
2960	2959	2966	6569	9
2960	2959	2958	2962	9
2960	2961	2956	2964	9
2964	2956	2961	2965	9
2963	2960	2961	2965	9
2967	2966	6569	6563	9
2967	2966	6569	6570	9
13840	13839	13838	13849	9
13843	13839	13838	13849	9
13842	13837	13838	13849	9
13845	13837	13838	13849	9
2211	2210	2217	13849	9
2209	2210	2217	13849	9
13838	13839	13840	13847	9
13843	13839	13840	13847	9
13842	13841	13840	13847	9
13844	13841	13840	13847	9
1912	1913	1920	13847	9
1914	1913	1920	13847	9
2210	2217	13849	13838	9
2219	2217	13849	13838	9
13838	13839	13840	13841	9
13838	13837	13842	13841	9
13838	13837	13842	13846	9
1913	1920	13847	13840	9
1922	1920	13847	13840	9
13837	13838	13839	13840	9
13837	13842	13841	13840	9
13840	13841	13842	13846	9
13839	13838	13849	13850	9
2217	13849	13838	13839	9
13839	13838	13837	13842	9
13839	13838	13837	13845	9
13839	13840	13847	13848	9
1920	13847	13840	13839	9
13839	13840	13841	13842	9
13839	13840	13841	13844	9
13837	13838	13849	13850	9
2217	13849	13838	13837	9
13837	13838	13839	13843	9
13837	13842	13841	13844	9
13841	13840	13847	13848	9
1920	13847	13840	13841	9
13841	13840	13839	13843	9
13841	13842	13837	13845	9
13845	13837	13842	13846	9
13844	13841	13842	13846	9
2210	2217	13849	13850	9
2219	2217	13849	13850	9
1913	1920	13847	13848	9
1922	1920	13847	13848	9
8343	8344	8345	8352	9
8348	8344	8345	8352	9
8347	8346	8345	8352	9
8349	8346	8345	8352	9
8352	8362	8356	8357	9
8352	8362	8356	8359	9
8345	8344	8343	8354	9
8348	8344	8343	8354	9
8347	8342	8343	8354	9
8350	8342	8343	8354	9
8354	9706	9700	9701	9
8354	9706	9700	9703	9
8345	8352	8362	8356	9
8345	8352	8362	8363	9
8345	8344	8343	8342	9
8345	8346	8347	8342	9
8345	8346	8347	8351	9
8343	8354	9706	9700	9
8343	8354	9706	9707	9
8346	8345	8344	8343	9
8346	8347	8342	8343	9
8343	8342	8347	8351	9
8344	8345	8352	8353	9
8344	8345	8352	8362	9
8344	8345	8346	8347	9
8344	8345	8346	8349	9
8344	8343	8354	8355	9
8344	8343	8354	9706	9
8344	8343	8342	8347	9
8344	8343	8342	8350	9
8346	8345	8352	8353	9
8346	8345	8352	8362	9
8346	8345	8344	8348	9
8346	8347	8342	8350	9
8342	8343	8354	8355	9
8342	8343	8354	9706	9
8342	8343	8344	8348	9
8342	8347	8346	8349	9
8349	8346	8347	8351	9
8350	8342	8347	8351	9
8353	8352	8362	8356	9
8353	8352	8362	8363	9
8355	8354	9706	9700	9
8355	8354	9706	9707	9
1402	1401	1400	1411	9
1405	1401	1400	1411	9
1404	1399	1400	1411	9
1407	1399	1400	1411	9
608	607	614	1411	9
606	607	614	1411	9
1400	1401	1402	1409	9
1405	1401	1402	1409	9
1404	1403	1402	1409	9
1406	1403	1402	1409	9
1383	1382	1388	1409	9
1385	1382	1388	1409	9
607	614	1411	1400	9
616	614	1411	1400	9
1400	1401	1402	1403	9
1400	1399	1404	1403	9
1400	1399	1404	1408	9
1382	1388	1409	1402	9
1389	1388	1409	1402	9
1399	1400	1401	1402	9
1399	1404	1403	1402	9
1402	1403	1404	1408	9
1401	1400	1411	1412	9
614	1411	1400	1401	9
1401	1400	1399	1404	9
1401	1400	1399	1407	9
1401	1402	1409	1410	9
1388	1409	1402	1401	9
1401	1402	1403	1404	9
1401	1402	1403	1406	9
1399	1400	1411	1412	9
614	1411	1400	1399	9
1399	1400	1401	1405	9
1399	1404	1403	1406	9
1403	1402	1409	1410	9
1388	1409	1402	1403	9
1403	1402	1401	1405	9
1403	1404	1399	1407	9
1407	1399	1404	1408	9
1406	1403	1404	1408	9
607	614	1411	1412	9
616	614	1411	1412	9
1382	1388	1409	1410	9
1389	1388	1409	1410	9
7455	7454	7453	7464	9
7458	7454	7453	7464	9
7457	7452	7453	7464	9
7460	7452	7453	7464	9
7464	7472	7466	7469	9
7464	7472	7466	7467	9
7453	7454	7455	7462	9
7458	7454	7455	7462	9
7457	7456	7455	7462	9
7459	7456	7455	7462	9
7462	6254	6244	6247	9
7462	6254	6244	6243	9
7453	7464	7472	7466	9
7453	7464	7472	7473	9
7453	7454	7455	7456	9
7453	7452	7457	7456	9
7453	7452	7457	7461	9
7455	7462	6254	6244	9
7455	7462	6254	6256	9
7452	7453	7454	7455	9
7452	7457	7456	7455	9
7455	7456	7457	7461	9
7454	7453	7464	7465	9
7454	7453	7464	7472	9
7454	7453	7452	7457	9
7454	7453	7452	7460	9
7454	7455	7462	7463	9
7454	7455	7462	6254	9
7454	7455	7456	7457	9
7454	7455	7456	7459	9
7452	7453	7464	7465	9
7452	7453	7464	7472	9
7452	7453	7454	7458	9
7452	7457	7456	7459	9
7456	7455	7462	7463	9
7456	7455	7462	6254	9
7456	7455	7454	7458	9
7456	7457	7452	7460	9
7460	7452	7457	7461	9
7459	7456	7457	7461	9
7465	7464	7472	7466	9
7465	7464	7472	7473	9
7463	7462	6254	6244	9
7463	7462	6254	6256	9
11626	11627	11628	11635	9
11631	11627	11628	11635	9
11630	11629	11628	11635	9
11632	11629	11628	11635	9
11635	7579	7572	7571	9
11635	7579	7572	7573	9
11628	11627	11626	11637	9
11631	11627	11626	11637	9
11630	11625	11626	11637	9
11633	11625	11626	11637	9
11637	4636	4629	4630	9
11637	4636	4629	4628	9
11628	11635	7579	7572	9
11628	11635	7579	7581	9
11625	11626	11627	11628	9
11625	11630	11629	11628	9
11628	11629	11630	11634	9
11626	11637	4636	4629	9
11626	11637	4636	4638	9
11626	11627	11628	11629	9
11626	11625	11630	11629	9
11626	11625	11630	11634	9
11627	11628	11635	11636	9
11627	11628	11635	7579	9
11627	11628	11629	11630	9
11627	11628	11629	11632	9
11627	11626	11637	11638	9
11627	11626	11637	4636	9
11627	11626	11625	11630	9
11627	11626	11625	11633	9
11629	11628	11635	11636	9
11629	11628	11635	7579	9
11629	11628	11627	11631	9
11629	11630	11625	11633	9
11625	11626	11637	11638	9
11625	11626	11637	4636	9
11625	11626	11627	11631	9
11625	11630	11629	11632	9
11632	11629	11630	11634	9
11633	11625	11630	11634	9
11636	11635	7579	7572	9
11636	11635	7579	7581	9
11638	11637	4636	4629	9
11638	11637	4636	4638	9
12256	12257	12258	12265	9
12261	12257	12258	12265	9
12260	12259	12258	12265	9
12262	12259	12258	12265	9
12265	6632	6625	6626	9
12265	6632	6625	6624	9
12258	12257	12256	12267	9
12261	12257	12256	12267	9
12260	12255	12256	12267	9
12263	12255	12256	12267	9
12267	5743	5733	5732	9
12267	5743	5733	5736	9
12258	12265	6632	6625	9
12258	12265	6632	6634	9
12255	12256	12257	12258	9
12255	12260	12259	12258	9
12258	12259	12260	12264	9
12256	12267	5743	5733	9
12256	12267	5743	5745	9
12256	12257	12258	12259	9
12256	12255	12260	12259	9
12256	12255	12260	12264	9
12257	12258	12265	12266	9
12257	12258	12265	6632	9
12257	12258	12259	12260	9
12257	12258	12259	12262	9
12257	12256	12267	12268	9
12257	12256	12267	5743	9
12257	12256	12255	12260	9
12257	12256	12255	12263	9
12259	12258	12265	12266	9
12259	12258	12265	6632	9
12259	12258	12257	12261	9
12259	12260	12255	12263	9
12255	12256	12267	12268	9
12255	12256	12267	5743	9
12255	12256	12257	12261	9
12255	12260	12259	12262	9
12262	12259	12260	12264	9
12263	12255	12260	12264	9
12266	12265	6632	6625	9
12266	12265	6632	6634	9
12268	12267	5743	5733	9
12268	12267	5743	5745	9
6260	6259	6258	6269	9
6263	6259	6258	6269	9
6262	6257	6258	6269	9
6265	6257	6258	6269	9
6269	6277	6271	6274	9
6269	6277	6271	6272	9
6258	6259	6260	6267	9
6263	6259	6260	6267	9
6262	6261	6260	6267	9
6264	6261	6260	6267	9
6267	4200	4193	4194	9
6267	4200	4193	4192	9
6258	6269	6277	6271	9
6258	6269	6277	6278	9
6258	6259	6260	6261	9
6258	6257	6262	6261	9
6258	6257	6262	6266	9
6260	6267	4200	4193	9
6260	6267	4200	4202	9
6257	6258	6259	6260	9
6257	6262	6261	6260	9
6260	6261	6262	6266	9
6259	6258	6269	6270	9
6259	6258	6269	6277	9
6259	6258	6257	6262	9
6259	6258	6257	6265	9
6259	6260	6267	6268	9
6259	6260	6267	4200	9
6259	6260	6261	6262	9
6259	6260	6261	6264	9
6257	6258	6269	6270	9
6257	6258	6269	6277	9
6257	6258	6259	6263	9
6257	6262	6261	6264	9
6261	6260	6267	6268	9
6261	6260	6267	4200	9
6261	6260	6259	6263	9
6261	6262	6257	6265	9
6265	6257	6262	6266	9
6264	6261	6262	6266	9
6270	6269	6277	6271	9
6270	6269	6277	6278	9
6268	6267	4200	4193	9
6268	6267	4200	4202	9
4149	4148	4147	4158	9
4152	4148	4147	4158	9
4151	4146	4147	4158	9
4154	4146	4147	4158	9
4158	4166	4160	4161	9
4158	4166	4160	4163	9
4147	4148	4149	4156	9
4152	4148	4149	4156	9
4151	4150	4149	4156	9
4153	4150	4149	4156	9
4156	7783	7776	7777	9
4156	7783	7776	7775	9
4147	4158	4166	4160	9
4147	4158	4166	4167	9
4147	4148	4149	4150	9
4147	4146	4151	4150	9
4147	4146	4151	4155	9
4149	4156	7783	7776	9
4149	4156	7783	7785	9
4146	4147	4148	4149	9
4146	4151	4150	4149	9
4149	4150	4151	4155	9
4148	4147	4158	4159	9
4148	4147	4158	4166	9
4148	4147	4146	4151	9
4148	4147	4146	4154	9
4148	4149	4156	4157	9
4148	4149	4156	7783	9
4148	4149	4150	4151	9
4148	4149	4150	4153	9
4146	4147	4158	4159	9
4146	4147	4158	4166	9
4146	4147	4148	4152	9
4146	4151	4150	4153	9
4150	4149	4156	4157	9
4150	4149	4156	7783	9
4150	4149	4148	4152	9
4150	4151	4146	4154	9
4154	4146	4151	4155	9
4153	4150	4151	4155	9
4159	4158	4166	4160	9
4159	4158	4166	4167	9
4157	4156	7783	7776	9
4157	4156	7783	7785	9
11726	11725	11724	11735	9
11729	11725	11724	11735	9
11728	11723	11724	11735	9
11731	11723	11724	11735	9
11735	8368	8358	8357	9
11735	8368	8358	8361	9
11724	11725	11726	11733	9
11729	11725	11726	11733	9
11728	11727	11726	11733	9
11730	11727	11726	11733	9
11733	4782	4772	4775	9
11733	4782	4772	4771	9
11724	11735	8368	8358	9
11724	11735	8368	8370	9
11724	11725	11726	11727	9
11724	11723	11728	11727	9
11724	11723	11728	11732	9
11726	11733	4782	4772	9
11726	11733	4782	4784	9
11723	11724	11725	11726	9
11723	11728	11727	11726	9
11726	11727	11728	11732	9
11725	11724	11735	11736	9
11725	11724	11735	8368	9
11725	11724	11723	11728	9
11725	11724	11723	11731	9
11725	11726	11733	11734	9
11725	11726	11733	4782	9
11725	11726	11727	11728	9
11725	11726	11727	11730	9
11723	11724	11735	11736	9
11723	11724	11735	8368	9
11723	11724	11725	11729	9
11723	11728	11727	11730	9
11727	11726	11733	11734	9
11727	11726	11733	4782	9
11727	11726	11725	11729	9
11727	11728	11723	11731	9
11731	11723	11728	11732	9
11730	11727	11728	11732	9
11736	11735	8368	8358	9
11736	11735	8368	8370	9
11734	11733	4782	4772	9
11734	11733	4782	4784	9
8008	8007	8006	8017	9
8011	8007	8006	8017	9
8010	8005	8006	8017	9
8013	8005	8006	8017	9
8017	8025	8019	8022	9
8017	8025	8019	8020	9
8006	8007	8008	8015	9
8011	8007	8008	8015	9
8010	8009	8008	8015	9
8012	8009	8008	8015	9
8015	3910	3903	3902	9
8015	3910	3903	3904	9
8006	8017	8025	8019	9
8006	8017	8025	8026	9
8006	8007	8008	8009	9
8006	8005	8010	8009	9
8006	8005	8010	8014	9
8008	8015	3910	3903	9
8008	8015	3910	3912	9
8005	8006	8007	8008	9
8005	8010	8009	8008	9
8008	8009	8010	8014	9
8007	8006	8017	8018	9
8007	8006	8017	8025	9
8007	8006	8005	8010	9
8007	8006	8005	8013	9
8007	8008	8015	8016	9
8007	8008	8015	3910	9
8007	8008	8009	8010	9
8007	8008	8009	8012	9
8005	8006	8017	8018	9
8005	8006	8017	8025	9
8005	8006	8007	8011	9
8005	8010	8009	8012	9
8009	8008	8015	8016	9
8009	8008	8015	3910	9
8009	8008	8007	8011	9
8009	8010	8005	8013	9
8013	8005	8010	8014	9
8012	8009	8010	8014	9
8018	8017	8025	8019	9
8018	8017	8025	8026	9
8016	8015	3910	3903	9
8016	8015	3910	3912	9
4730	4729	4728	4739	9
4733	4729	4728	4739	9
4732	4727	4728	4739	9
4735	4727	4728	4739	9
4739	6356	6349	6350	9
4739	6356	6349	6348	9
4728	4729	4730	4737	9
4733	4729	4730	4737	9
4732	4731	4730	4737	9
4734	4731	4730	4737	9
4737	4747	4741	4742	9
4737	4747	4741	4744	9
4728	4739	6356	6349	9
4728	4739	6356	6358	9
4728	4729	4730	4731	9
4728	4727	4732	4731	9
4728	4727	4732	4736	9
4730	4737	4747	4741	9
4730	4737	4747	4748	9
4727	4728	4729	4730	9
4727	4732	4731	4730	9
4730	4731	4732	4736	9
4729	4728	4739	4740	9
4729	4728	4739	6356	9
4729	4728	4727	4732	9
4729	4728	4727	4735	9
4729	4730	4737	4738	9
4729	4730	4737	4747	9
4729	4730	4731	4732	9
4729	4730	4731	4734	9
4727	4728	4739	4740	9
4727	4728	4739	6356	9
4727	4728	4729	4733	9
4727	4732	4731	4734	9
4731	4730	4737	4738	9
4731	4730	4737	4747	9
4731	4730	4729	4733	9
4731	4732	4727	4735	9
4735	4727	4732	4736	9
4734	4731	4732	4736	9
4740	4739	6356	6349	9
4740	4739	6356	6358	9
4738	4737	4747	4741	9
4738	4737	4747	4748	9
4672	4671	4670	4681	9
4675	4671	4670	4681	9
4674	4669	4670	4681	9
4677	4669	4670	4681	9
856	855	862	4681	9
854	855	862	4681	9
4670	4671	4672	4679	9
4675	4671	4672	4679	9
4674	4673	4672	4679	9
4676	4673	4672	4679	9
4679	4694	4687	4688	9
4679	4694	4687	4686	9
855	862	4681	4670	9
864	862	4681	4670	9
4670	4671	4672	4673	9
4670	4669	4674	4673	9
4670	4669	4674	4678	9
4672	4679	4694	4687	9
4672	4679	4694	4696	9
4669	4670	4671	4672	9
4669	4674	4673	4672	9
4672	4673	4674	4678	9
4671	4670	4681	4682	9
862	4681	4670	4671	9
4671	4670	4669	4674	9
4671	4670	4669	4677	9
4671	4672	4679	4680	9
4671	4672	4679	4694	9
4671	4672	4673	4674	9
4671	4672	4673	4676	9
4669	4670	4681	4682	9
862	4681	4670	4669	9
4669	4670	4671	4675	9
4669	4674	4673	4676	9
4673	4672	4679	4680	9
4673	4672	4679	4694	9
4673	4672	4671	4675	9
4673	4674	4669	4677	9
4677	4669	4674	4678	9
4676	4673	4674	4678	9
855	862	4681	4682	9
864	862	4681	4682	9
4680	4679	4694	4687	9
4680	4679	4694	4696	9
10082	10081	10080	10091	9
10085	10081	10080	10091	9
10084	10079	10080	10091	9
10087	10079	10080	10091	9
10091	10105	10095	10094	9
10091	10105	10095	10098	9
10080	10081	10082	10089	9
10085	10081	10082	10089	9
10084	10083	10082	10089	9
10086	10083	10082	10089	9
10089	8793	8783	8786	9
10089	8793	8783	8782	9
10080	10091	10105	10095	9
10080	10091	10105	10107	9
10080	10081	10082	10083	9
10080	10079	10084	10083	9
10080	10079	10084	10088	9
10082	10089	8793	8783	9
10082	10089	8793	8795	9
10079	10080	10081	10082	9
10079	10084	10083	10082	9
10082	10083	10084	10088	9
10081	10080	10091	10092	9
10081	10080	10091	10105	9
10081	10080	10079	10084	9
10081	10080	10079	10087	9
10081	10082	10089	10090	9
10081	10082	10089	8793	9
10081	10082	10083	10084	9
10081	10082	10083	10086	9
10079	10080	10091	10092	9
10079	10080	10091	10105	9
10079	10080	10081	10085	9
10079	10084	10083	10086	9
10083	10082	10089	10090	9
10083	10082	10089	8793	9
10083	10082	10081	10085	9
10083	10084	10079	10087	9
10087	10079	10084	10088	9
10086	10083	10084	10088	9
10092	10091	10105	10095	9
10092	10091	10105	10107	9
10090	10089	8793	8783	9
10090	10089	8793	8795	9
5837	5836	5835	5846	9
5840	5836	5835	5846	9
5839	5834	5835	5846	9
5842	5834	5835	5846	9
5846	5854	5848	5851	9
5846	5854	5848	5849	9
5835	5836	5837	5844	9
5840	5836	5837	5844	9
5839	5838	5837	5844	9
5841	5838	5837	5844	9
5844	8772	8766	8769	9
5844	8772	8766	8767	9
5835	5846	5854	5848	9
5835	5846	5854	5855	9
5835	5836	5837	5838	9
5835	5834	5839	5838	9
5835	5834	5839	5843	9
5837	5844	8772	8766	9
5837	5844	8772	8773	9
5834	5835	5836	5837	9
5834	5839	5838	5837	9
5837	5838	5839	5843	9
5836	5835	5846	5847	9
5836	5835	5846	5854	9
5836	5835	5834	5839	9
5836	5835	5834	5842	9
5836	5837	5844	5845	9
5836	5837	5844	8772	9
5836	5837	5838	5839	9
5836	5837	5838	5841	9
5834	5835	5846	5847	9
5834	5835	5846	5854	9
5834	5835	5836	5840	9
5834	5839	5838	5841	9
5838	5837	5844	5845	9
5838	5837	5844	8772	9
5838	5837	5836	5840	9
5838	5839	5834	5842	9
5842	5834	5839	5843	9
5841	5838	5839	5843	9
5847	5846	5854	5848	9
5847	5846	5854	5855	9
5845	5844	8772	8766	9
5845	5844	8772	8773	9
3004	3003	3002	3013	9
3007	3003	3002	3013	9
3006	3001	3002	3013	9
3009	3001	3002	3013	9
3002	3003	3004	3011	9
3007	3003	3004	3011	9
3006	3005	3004	3011	9
3008	3005	3004	3011	9
3011	6729	6723	6724	9
3011	6729	6723	6726	9
3002	3003	3004	3005	9
3002	3001	3006	3005	9
3002	3001	3006	3010	9
3004	3011	6729	6723	9
3004	3011	6729	6730	9
3001	3002	3003	3004	9
3001	3006	3005	3004	9
3004	3005	3006	3010	9
3003	3002	3013	3014	9
3003	3002	3013	3015	9
3003	3002	3001	3006	9
3003	3002	3001	3009	9
3003	3004	3011	3012	9
3003	3004	3011	6729	9
3003	3004	3005	3006	9
3003	3004	3005	3008	9
3001	3002	3013	3014	9
3001	3002	3013	3015	9
3001	3002	3003	3007	9
3001	3006	3005	3008	9
3005	3004	3011	3012	9
3005	3004	3011	6729	9
3005	3004	3003	3007	9
3005	3006	3001	3009	9
3009	3001	3006	3010	9
3008	3005	3006	3010	9
3012	3011	6729	6723	9
3012	3011	6729	6730	9
6974	6973	6972	6983	9
6977	6973	6972	6983	9
6976	6971	6972	6983	9
6979	6971	6972	6983	9
6983	11167	11161	11162	9
6983	11167	11161	11164	9
6972	6973	6974	6981	9
6977	6973	6974	6981	9
6976	6975	6974	6981	9
6978	6975	6974	6981	9
6981	6996	6989	6988	9
6981	6996	6989	6990	9
6972	6983	11167	11161	9
6972	6983	11167	11168	9
6972	6973	6974	6975	9
6972	6971	6976	6975	9
6972	6971	6976	6980	9
6974	6981	6996	6989	9
6974	6981	6996	6998	9
6971	6972	6973	6974	9
6971	6976	6975	6974	9
6974	6975	6976	6980	9
6973	6972	6983	6984	9
6973	6972	6983	11167	9
6973	6972	6971	6976	9
6973	6972	6971	6979	9
6973	6974	6981	6982	9
6973	6974	6981	6996	9
6973	6974	6975	6976	9
6973	6974	6975	6978	9
6971	6972	6983	6984	9
6971	6972	6983	11167	9
6971	6972	6973	6977	9
6971	6976	6975	6978	9
6975	6974	6981	6982	9
6975	6974	6981	6996	9
6975	6974	6973	6977	9
6975	6976	6971	6979	9
6979	6971	6976	6980	9
6978	6975	6976	6980	9
6984	6983	11167	11161	9
6984	6983	11167	11168	9
6982	6981	6996	6989	9
6982	6981	6996	6998	9
1292	1291	1290	1301	9
1295	1291	1290	1301	9
1294	1289	1290	1301	9
1297	1289	1290	1301	9
1301	7506	7499	7498	9
1301	7506	7499	7500	9
1290	1291	1292	1299	9
1295	1291	1292	1299	9
1294	1293	1292	1299	9
1296	1293	1292	1299	9
1273	1272	1278	1299	9
1275	1272	1278	1299	9
1290	1301	7506	7499	9
1290	1301	7506	7508	9
1290	1291	1292	1293	9
1290	1289	1294	1293	9
1290	1289	1294	1298	9
1272	1278	1299	1292	9
1279	1278	1299	1292	9
1289	1290	1291	1292	9
1289	1294	1293	1292	9
1292	1293	1294	1298	9
1291	1290	1301	1302	9
1291	1290	1301	7506	9
1291	1290	1289	1294	9
1291	1290	1289	1297	9
1291	1292	1299	1300	9
1278	1299	1292	1291	9
1291	1292	1293	1294	9
1291	1292	1293	1296	9
1289	1290	1301	1302	9
1289	1290	1301	7506	9
1289	1290	1291	1295	9
1289	1294	1293	1296	9
1293	1292	1299	1300	9
1278	1299	1292	1293	9
1293	1292	1291	1295	9
1293	1294	1289	1297	9
1297	1289	1294	1298	9
1296	1293	1294	1298	9
1302	1301	7506	7499	9
1302	1301	7506	7508	9
1272	1278	1299	1300	9
1279	1278	1299	1300	9
2584	2583	2582	2593	9
2587	2583	2582	2593	9
2586	2581	2582	2593	9
2589	2581	2582	2593	9
794	793	800	2593	9
792	793	800	2593	9
2582	2583	2584	2591	9
2587	2583	2584	2591	9
2586	2585	2584	2591	9
2588	2585	2584	2591	9
2567	2564	2570	2591	9
2565	2564	2570	2591	9
793	800	2593	2582	9
802	800	2593	2582	9
2582	2583	2584	2585	9
2582	2581	2586	2585	9
2582	2581	2586	2590	9
2564	2570	2591	2584	9
2571	2570	2591	2584	9
2581	2582	2583	2584	9
2581	2586	2585	2584	9
2584	2585	2586	2590	9
2583	2582	2593	2594	9
800	2593	2582	2583	9
2583	2582	2581	2586	9
2583	2582	2581	2589	9
2583	2584	2591	2592	9
2570	2591	2584	2583	9
2583	2584	2585	2586	9
2583	2584	2585	2588	9
2581	2582	2593	2594	9
800	2593	2582	2581	9
2581	2582	2583	2587	9
2581	2586	2585	2588	9
2585	2584	2591	2592	9
2570	2591	2584	2585	9
2585	2584	2583	2587	9
2585	2586	2581	2589	9
2589	2581	2586	2590	9
2588	2585	2586	2590	9
793	800	2593	2594	9
802	800	2593	2594	9
2564	2570	2591	2592	9
2571	2570	2591	2592	9
6390	6391	6392	6399	9
6395	6391	6392	6399	9
6394	6393	6392	6399	9
6396	6393	6392	6399	9
6399	7754	7747	7748	9
6399	7754	7747	7746	9
6392	6391	6390	6401	9
6395	6391	6390	6401	9
6394	6389	6390	6401	9
6397	6389	6390	6401	9
6401	6409	6403	6406	9
6401	6409	6403	6404	9
6392	6399	7754	7747	9
6392	6399	7754	7756	9
6392	6391	6390	6389	9
6392	6393	6394	6389	9
6392	6393	6394	6398	9
6390	6401	6409	6403	9
6390	6401	6409	6410	9
6393	6392	6391	6390	9
6393	6394	6389	6390	9
6390	6389	6394	6398	9
6391	6392	6399	6400	9
6391	6392	6399	7754	9
6391	6392	6393	6394	9
6391	6392	6393	6396	9
6391	6390	6401	6402	9
6391	6390	6401	6409	9
6391	6390	6389	6394	9
6391	6390	6389	6397	9
6393	6392	6399	6400	9
6393	6392	6399	7754	9
6393	6392	6391	6395	9
6393	6394	6389	6397	9
6389	6390	6401	6402	9
6389	6390	6401	6409	9
6389	6390	6391	6395	9
6389	6394	6393	6396	9
6396	6393	6394	6398	9
6397	6389	6394	6398	9
6400	6399	7754	7747	9
6400	6399	7754	7756	9
6402	6401	6409	6403	9
6402	6401	6409	6410	9
11236	11235	11234	11245	9
11239	11235	11234	11245	9
11238	11233	11234	11245	9
11241	11233	11234	11245	9
11245	7477	7470	7469	9
11245	7477	7470	7471	9
11234	11235	11236	11243	9
11239	11235	11236	11243	9
11238	11237	11236	11243	9
11240	11237	11236	11243	9
11243	3881	3874	3873	9
11243	3881	3874	3875	9
11234	11245	7477	7470	9
11234	11245	7477	7479	9
11234	11235	11236	11237	9
11234	11233	11238	11237	9
11234	11233	11238	11242	9
11236	11243	3881	3874	9
11236	11243	3881	3883	9
11233	11234	11235	11236	9
11233	11238	11237	11236	9
11236	11237	11238	11242	9
11235	11234	11245	11246	9
11235	11234	11245	7477	9
11235	11234	11233	11238	9
11235	11234	11233	11241	9
11235	11236	11243	11244	9
11235	11236	11243	3881	9
11235	11236	11237	11238	9
11235	11236	11237	11240	9
11233	11234	11245	11246	9
11233	11234	11245	7477	9
11233	11234	11235	11239	9
11233	11238	11237	11240	9
11237	11236	11243	11244	9
11237	11236	11243	3881	9
11237	11236	11235	11239	9
11237	11238	11233	11241	9
11241	11233	11238	11242	9
11240	11237	11238	11242	9
11246	11245	7477	7470	9
11246	11245	7477	7479	9
11244	11243	3881	3874	9
11244	11243	3881	3883	9
10358	10357	10356	10367	9
10361	10357	10356	10367	9
10360	10355	10356	10367	9
10363	10355	10356	10367	9
10367	4332	4322	4325	9
10367	4332	4322	4321	9
10356	10357	10358	10365	9
10361	10357	10358	10365	9
10360	10359	10358	10365	9
10362	10359	10358	10365	9
10365	10375	10369	10370	9
10365	10375	10369	10372	9
10356	10367	4332	4322	9
10356	10367	4332	4334	9
10356	10357	10358	10359	9
10356	10355	10360	10359	9
10356	10355	10360	10364	9
10358	10365	10375	10369	9
10358	10365	10375	10376	9
10355	10356	10357	10358	9
10355	10360	10359	10358	9
10358	10359	10360	10364	9
10357	10356	10367	10368	9
10357	10356	10367	4332	9
10357	10356	10355	10360	9
10357	10356	10355	10363	9
10357	10358	10365	10366	9
10357	10358	10365	10375	9
10357	10358	10359	10360	9
10357	10358	10359	10362	9
10355	10356	10367	10368	9
10355	10356	10367	4332	9
10355	10356	10357	10361	9
10355	10360	10359	10362	9
10359	10358	10365	10366	9
10359	10358	10365	10375	9
10359	10358	10357	10361	9
10359	10360	10355	10363	9
10363	10355	10360	10364	9
10362	10359	10360	10364	9
10368	10367	4332	4322	9
10368	10367	4332	4334	9
10366	10365	10375	10369	9
10366	10365	10375	10376	9
3827	3828	3829	3836	9
3832	3828	3829	3836	9
3831	3830	3829	3836	9
3833	3830	3829	3836	9
761	762	769	3836	9
763	762	769	3836	9
3829	3828	3827	3838	9
3832	3828	3827	3838	9
3831	3826	3827	3838	9
3834	3826	3827	3838	9
762	769	3836	3829	9
771	769	3836	3829	9
3826	3827	3828	3829	9
3826	3831	3830	3829	9
3829	3830	3831	3835	9
3827	3828	3829	3830	9
3827	3826	3831	3830	9
3827	3826	3831	3835	9
3828	3829	3836	3837	9
769	3836	3829	3828	9
3828	3829	3830	3831	9
3828	3829	3830	3833	9
3828	3827	3838	3840	9
3828	3827	3838	3839	9
3828	3827	3826	3831	9
3828	3827	3826	3834	9
3830	3829	3836	3837	9
769	3836	3829	3830	9
3830	3829	3828	3832	9
3830	3831	3826	3834	9
3826	3827	3838	3840	9
3826	3827	3838	3839	9
3826	3827	3828	3832	9
3826	3831	3830	3833	9
3833	3830	3831	3835	9
3834	3826	3831	3835	9
762	769	3836	3837	9
771	769	3836	3837	9
11278	11277	11276	11287	9
11281	11277	11276	11287	9
11280	11275	11276	11287	9
11283	11275	11276	11287	9
11287	6808	6798	6797	9
11287	6808	6798	6801	9
11276	11277	11278	11285	9
11281	11277	11278	11285	9
11280	11279	11278	11285	9
11282	11279	11278	11285	9
11285	4027	4017	4020	9
11285	4027	4017	4016	9
11276	11287	6808	6798	9
11276	11287	6808	6810	9
11276	11277	11278	11279	9
11276	11275	11280	11279	9
11276	11275	11280	11284	9
11278	11285	4027	4017	9
11278	11285	4027	4029	9
11275	11276	11277	11278	9
11275	11280	11279	11278	9
11278	11279	11280	11284	9
11277	11276	11287	11288	9
11277	11276	11287	6808	9
11277	11276	11275	11280	9
11277	11276	11275	11283	9
11277	11278	11285	11286	9
11277	11278	11285	4027	9
11277	11278	11279	11280	9
11277	11278	11279	11282	9
11275	11276	11287	11288	9
11275	11276	11287	6808	9
11275	11276	11277	11281	9
11275	11280	11279	11282	9
11279	11278	11285	11286	9
11279	11278	11285	4027	9
11279	11278	11277	11281	9
11279	11280	11275	11283	9
11283	11275	11280	11284	9
11282	11279	11280	11284	9
11288	11287	6808	6798	9
11288	11287	6808	6810	9
11286	11285	4027	4017	9
11286	11285	4027	4029	9
10579	10578	10577	10588	9
10582	10578	10577	10588	9
10581	10576	10577	10588	9
10584	10576	10577	10588	9
10588	11064	11058	11061	9
10588	11064	11058	11059	9
10577	10578	10579	10586	9
10582	10578	10579	10586	9
10581	10580	10579	10586	9
10583	10580	10579	10586	9
10586	10596	10590	10591	9
10586	10596	10590	10593	9
10577	10588	11064	11058	9
10577	10588	11064	11065	9
10577	10578	10579	10580	9
10577	10576	10581	10580	9
10577	10576	10581	10585	9
10579	10586	10596	10590	9
10579	10586	10596	10597	9
10576	10577	10578	10579	9
10576	10581	10580	10579	9
10579	10580	10581	10585	9
10578	10577	10588	10589	9
10578	10577	10588	11064	9
10578	10577	10576	10581	9
10578	10577	10576	10584	9
10578	10579	10586	10587	9
10578	10579	10586	10596	9
10578	10579	10580	10581	9
10578	10579	10580	10583	9
10576	10577	10588	10589	9
10576	10577	10588	11064	9
10576	10577	10578	10582	9
10576	10581	10580	10583	9
10580	10579	10586	10587	9
10580	10579	10586	10596	9
10580	10579	10578	10582	9
10580	10581	10576	10584	9
10584	10576	10581	10585	9
10583	10580	10581	10585	9
10589	10588	11064	11058	9
10589	10588	11064	11065	9
10587	10586	10596	10590	9
10587	10586	10596	10597	9
7120	7119	7118	7129	9
7123	7119	7118	7129	9
7122	7117	7118	7129	9
7125	7117	7118	7129	9
7129	7137	7131	7134	9
7129	7137	7131	7132	9
7118	7119	7120	7127	9
7123	7119	7120	7127	9
7122	7121	7120	7127	9
7124	7121	7120	7127	9
7127	5932	5925	5924	9
7127	5932	5925	5926	9
7118	7129	7137	7131	9
7118	7129	7137	7138	9
7118	7119	7120	7121	9
7118	7117	7122	7121	9
7118	7117	7122	7126	9
7120	7127	5932	5925	9
7120	7127	5932	5934	9
7117	7118	7119	7120	9
7117	7122	7121	7120	9
7120	7121	7122	7126	9
7119	7118	7129	7130	9
7119	7118	7129	7137	9
7119	7118	7117	7122	9
7119	7118	7117	7125	9
7119	7120	7127	7128	9
7119	7120	7127	5932	9
7119	7120	7121	7122	9
7119	7120	7121	7124	9
7117	7118	7129	7130	9
7117	7118	7129	7137	9
7117	7118	7119	7123	9
7117	7122	7121	7124	9
7121	7120	7127	7128	9
7121	7120	7127	5932	9
7121	7120	7119	7123	9
7121	7122	7117	7125	9
7125	7117	7122	7126	9
7124	7121	7122	7126	9
7130	7129	7137	7131	9
7130	7129	7137	7138	9
7128	7127	5932	5925	9
7128	7127	5932	5934	9
1836	1835	1834	1845	9
1839	1835	1834	1845	9
1838	1833	1834	1845	9
1841	1833	1834	1845	9
1819	1820	1827	1845	9
1821	1820	1827	1845	9
1834	1835	1836	1843	9
1839	1835	1836	1843	9
1838	1837	1836	1843	9
1840	1837	1836	1843	9
298	297	304	1843	9
296	297	304	1843	9
1820	1827	1845	1834	9
1829	1827	1845	1834	9
1834	1835	1836	1837	9
1834	1833	1838	1837	9
1834	1833	1838	1842	9
297	304	1843	1836	9
306	304	1843	1836	9
1833	1834	1835	1836	9
1833	1838	1837	1836	9
1836	1837	1838	1842	9
1835	1834	1845	1846	9
1827	1845	1834	1835	9
1835	1834	1833	1838	9
1835	1834	1833	1841	9
1835	1836	1843	1844	9
304	1843	1836	1835	9
1835	1836	1837	1838	9
1835	1836	1837	1840	9
1833	1834	1845	1846	9
1827	1845	1834	1833	9
1833	1834	1835	1839	9
1833	1838	1837	1840	9
1837	1836	1843	1844	9
304	1843	1836	1837	9
1837	1836	1835	1839	9
1837	1838	1833	1841	9
1841	1833	1838	1842	9
1840	1837	1838	1842	9
1820	1827	1845	1846	9
1829	1827	1845	1846	9
297	304	1843	1844	9
306	304	1843	1844	9
12846	12845	12844	12855	9
12849	12845	12844	12855	9
12848	12843	12844	12855	9
12851	12843	12844	12855	9
12855	7011	7004	7003	9
12855	7011	7004	7005	9
12844	12845	12846	12853	9
12849	12845	12846	12853	9
12848	12847	12846	12853	9
12850	12847	12846	12853	9
12853	10717	10710	10711	9
12853	10717	10710	10709	9
12844	12855	7011	7004	9
12844	12855	7011	7013	9
12844	12845	12846	12847	9
12844	12843	12848	12847	9
12844	12843	12848	12852	9
12846	12853	10717	10710	9
12846	12853	10717	10719	9
12843	12844	12845	12846	9
12843	12848	12847	12846	9
12846	12847	12848	12852	9
12845	12844	12855	12856	9
12845	12844	12855	7011	9
12845	12844	12843	12848	9
12845	12844	12843	12851	9
12845	12846	12853	12854	9
12845	12846	12853	10717	9
12845	12846	12847	12848	9
12845	12846	12847	12850	9
12843	12844	12855	12856	9
12843	12844	12855	7011	9
12843	12844	12845	12849	9
12843	12848	12847	12850	9
12847	12846	12853	12854	9
12847	12846	12853	10717	9
12847	12846	12845	12849	9
12847	12848	12843	12851	9
12851	12843	12848	12852	9
12850	12847	12848	12852	9
12856	12855	7011	7004	9
12856	12855	7011	7013	9
12854	12853	10717	10710	9
12854	12853	10717	10719	9
3394	3393	3392	3403	9
3397	3393	3392	3403	9
3396	3391	3392	3403	9
3399	3391	3392	3403	9
3392	3393	3394	3401	9
3397	3393	3394	3401	9
3396	3395	3394	3401	9
3398	3395	3394	3401	9
3401	9128	9121	9122	9
3401	9128	9121	9120	9
3392	3393	3394	3395	9
3392	3391	3396	3395	9
3392	3391	3396	3400	9
3394	3401	9128	9121	9
3394	3401	9128	9130	9
3391	3392	3393	3394	9
3391	3396	3395	3394	9
3394	3395	3396	3400	9
3393	3392	3403	3404	9
3393	3392	3403	3405	9
3393	3392	3391	3396	9
3393	3392	3391	3399	9
3393	3394	3401	3402	9
3393	3394	3401	9128	9
3393	3394	3395	3396	9
3393	3394	3395	3398	9
3391	3392	3403	3404	9
3391	3392	3403	3405	9
3391	3392	3393	3397	9
3391	3396	3395	3398	9
3395	3394	3401	3402	9
3395	3394	3401	9128	9
3395	3394	3393	3397	9
3395	3396	3391	3399	9
3399	3391	3396	3400	9
3398	3395	3396	3400	9
3402	3401	9128	9121	9
3402	3401	9128	9130	9
13546	13545	13544	13555	9
13549	13545	13544	13555	9
13548	13543	13544	13555	9
13551	13543	13544	13555	9
13555	9040	9033	9034	9
13555	9040	9033	9032	9
13544	13545	13546	13553	9
13549	13545	13546	13553	9
13548	13547	13546	13553	9
13550	13547	13546	13553	9
13553	10850	10840	10839	9
13553	10850	10840	10843	9
13544	13555	9040	9033	9
13544	13555	9040	9042	9
13544	13545	13546	13547	9
13544	13543	13548	13547	9
13544	13543	13548	13552	9
13546	13553	10850	10840	9
13546	13553	10850	10852	9
13543	13544	13545	13546	9
13543	13548	13547	13546	9
13546	13547	13548	13552	9
13545	13544	13555	13556	9
13545	13544	13555	9040	9
13545	13544	13543	13548	9
13545	13544	13543	13551	9
13545	13546	13553	13554	9
13545	13546	13553	10850	9
13545	13546	13547	13548	9
13545	13546	13547	13550	9
13543	13544	13555	13556	9
13543	13544	13555	9040	9
13543	13544	13545	13549	9
13543	13548	13547	13550	9
13547	13546	13553	13554	9
13547	13546	13553	10850	9
13547	13546	13545	13549	9
13547	13548	13543	13551	9
13551	13543	13548	13552	9
13550	13547	13548	13552	9
13556	13555	9040	9033	9
13556	13555	9040	9042	9
13554	13553	10850	10840	9
13554	13553	10850	10852	9
11950	11949	11948	11959	9
11953	11949	11948	11959	9
11952	11947	11948	11959	9
11955	11947	11948	11959	9
2037	2038	2045	11959	9
2039	2038	2045	11959	9
11948	11949	11950	11957	9
11953	11949	11950	11957	9
11952	11951	11950	11957	9
11954	11951	11950	11957	9
11957	5175	5165	5168	9
11957	5175	5165	5164	9
2038	2045	11959	11948	9
2047	2045	11959	11948	9
11948	11949	11950	11951	9
11948	11947	11952	11951	9
11948	11947	11952	11956	9
11950	11957	5175	5165	9
11950	11957	5175	5177	9
11947	11948	11949	11950	9
11947	11952	11951	11950	9
11950	11951	11952	11956	9
11949	11948	11959	11960	9
2045	11959	11948	11949	9
11949	11948	11947	11952	9
11949	11948	11947	11955	9
11949	11950	11957	11958	9
11949	11950	11957	5175	9
11949	11950	11951	11952	9
11949	11950	11951	11954	9
11947	11948	11959	11960	9
2045	11959	11948	11947	9
11947	11948	11949	11953	9
11947	11952	11951	11954	9
11951	11950	11957	11958	9
11951	11950	11957	5175	9
11951	11950	11949	11953	9
11951	11952	11947	11955	9
11955	11947	11952	11956	9
11954	11951	11952	11956	9
2038	2045	11959	11960	9
2047	2045	11959	11960	9
11958	11957	5175	5165	9
11958	11957	5175	5177	9
11264	11263	11262	11273	9
11267	11263	11262	11273	9
11266	11261	11262	11273	9
11269	11261	11262	11273	9
11273	3940	3930	3933	9
11273	3940	3930	3929	9
11262	11263	11264	11271	9
11267	11263	11264	11271	9
11266	11265	11264	11271	9
11268	11265	11264	11271	9
2099	2100	2107	11271	9
2101	2100	2107	11271	9
11262	11273	3940	3930	9
11262	11273	3940	3942	9
11262	11263	11264	11265	9
11262	11261	11266	11265	9
11262	11261	11266	11270	9
2100	2107	11271	11264	9
2109	2107	11271	11264	9
11261	11262	11263	11264	9
11261	11266	11265	11264	9
11264	11265	11266	11270	9
11263	11262	11273	11274	9
11263	11262	11273	3940	9
11263	11262	11261	11266	9
11263	11262	11261	11269	9
11263	11264	11271	11272	9
2107	11271	11264	11263	9
11263	11264	11265	11266	9
11263	11264	11265	11268	9
11261	11262	11273	11274	9
11261	11262	11273	3940	9
11261	11262	11263	11267	9
11261	11266	11265	11268	9
11265	11264	11271	11272	9
2107	11271	11264	11265	9
11265	11264	11263	11267	9
11265	11266	11261	11269	9
11269	11261	11266	11270	9
11268	11265	11266	11270	9
11274	11273	3940	3930	9
11274	11273	3940	3942	9
2100	2107	11271	11272	9
2109	2107	11271	11272	9
3619	3618	3617	3628	9
3622	3618	3617	3628	9
3621	3616	3617	3628	9
3624	3616	3617	3628	9
3617	3618	3619	3626	9
3622	3618	3619	3626	9
3621	3620	3619	3626	9
3623	3620	3619	3626	9
3626	10756	10750	10751	9
3626	10756	10750	10753	9
3617	3618	3619	3620	9
3617	3616	3621	3620	9
3617	3616	3621	3625	9
3619	3626	10756	10750	9
3619	3626	10756	10757	9
3616	3617	3618	3619	9
3616	3621	3620	3619	9
3619	3620	3621	3625	9
3618	3617	3628	3630	9
3618	3617	3628	3629	9
3618	3617	3616	3621	9
3618	3617	3616	3624	9
3618	3619	3626	3627	9
3618	3619	3626	10756	9
3618	3619	3620	3621	9
3618	3619	3620	3623	9
3616	3617	3628	3630	9
3616	3617	3628	3629	9
3616	3617	3618	3622	9
3616	3621	3620	3623	9
3620	3619	3626	3627	9
3620	3619	3626	10756	9
3620	3619	3618	3622	9
3620	3621	3616	3624	9
3624	3616	3621	3625	9
3623	3620	3621	3625	9
3627	3626	10756	10750	9
3627	3626	10756	10757	9
311	312	313	320	9
316	312	313	320	9
315	314	313	320	9
317	314	313	320	9
320	7726	7716	7719	9
320	7726	7716	7715	9
313	312	311	322	9
316	312	311	322	9
315	310	311	322	9
318	310	311	322	9
296	293	299	322	9
294	293	299	322	9
313	320	7726	7716	9
313	320	7726	7728	9
313	312	311	310	9
313	314	315	310	9
313	314	315	319	9
293	299	322	311	9
300	299	322	311	9
314	313	312	311	9
314	315	310	311	9
311	310	315	319	9
312	313	320	321	9
312	313	320	7726	9
312	313	314	315	9
312	313	314	317	9
312	311	322	323	9
299	322	311	312	9
312	311	310	315	9
312	311	310	318	9
314	313	320	321	9
314	313	320	7726	9
314	313	312	316	9
314	315	310	318	9
310	311	322	323	9
299	322	311	310	9
310	311	312	316	9
310	315	314	317	9
317	314	315	319	9
318	310	315	319	9
321	320	7726	7716	9
321	320	7726	7728	9
293	299	322	323	9
300	299	322	323	9
2615	2614	2613	2624	9
2618	2614	2613	2624	9
2617	2612	2613	2624	9
2620	2612	2613	2624	9
2596	2595	2601	2624	9
2598	2595	2601	2624	9
2613	2614	2615	2622	9
2618	2614	2615	2622	9
2617	2616	2615	2622	9
2619	2616	2615	2622	9
420	421	428	2622	9
422	421	428	2622	9
2595	2601	2624	2613	9
2602	2601	2624	2613	9
2613	2614	2615	2616	9
2613	2612	2617	2616	9
2613	2612	2617	2621	9
421	428	2622	2615	9
430	428	2622	2615	9
2612	2613	2614	2615	9
2612	2617	2616	2615	9
2615	2616	2617	2621	9
2614	2613	2624	2625	9
2601	2624	2613	2614	9
2614	2613	2612	2617	9
2614	2613	2612	2620	9
2614	2615	2622	2623	9
428	2622	2615	2614	9
2614	2615	2616	2617	9
2614	2615	2616	2619	9
2612	2613	2624	2625	9
2601	2624	2613	2612	9
2612	2613	2614	2618	9
2612	2617	2616	2619	9
2616	2615	2622	2623	9
428	2622	2615	2616	9
2616	2615	2614	2618	9
2616	2617	2612	2620	9
2620	2612	2617	2621	9
2619	2616	2617	2621	9
2595	2601	2624	2625	9
2602	2601	2624	2625	9
421	428	2622	2623	9
430	428	2622	2623	9
5559	5558	5557	5568	9
5562	5558	5557	5568	9
5561	5556	5557	5568	9
5564	5556	5557	5568	9
5568	5576	5570	5573	9
5568	5576	5570	5571	9
5557	5558	5559	5566	9
5562	5558	5559	5566	9
5561	5560	5559	5566	9
5563	5560	5559	5566	9
5566	10888	10882	10885	9
5566	10888	10882	10883	9
5557	5568	5576	5570	9
5557	5568	5576	5577	9
5557	5558	5559	5560	9
5557	5556	5561	5560	9
5557	5556	5561	5565	9
5559	5566	10888	10882	9
5559	5566	10888	10889	9
5556	5557	5558	5559	9
5556	5561	5560	5559	9
5559	5560	5561	5565	9
5558	5557	5568	5569	9
5558	5557	5568	5576	9
5558	5557	5556	5561	9
5558	5557	5556	5564	9
5558	5559	5566	5567	9
5558	5559	5566	10888	9
5558	5559	5560	5561	9
5558	5559	5560	5563	9
5556	5557	5568	5569	9
5556	5557	5568	5576	9
5556	5557	5558	5562	9
5556	5561	5560	5563	9
5560	5559	5566	5567	9
5560	5559	5566	10888	9
5560	5559	5558	5562	9
5560	5561	5556	5564	9
5564	5556	5561	5565	9
5563	5560	5561	5565	9
5569	5568	5576	5570	9
5569	5568	5576	5577	9
5567	5566	10888	10882	9
5567	5566	10888	10889	9
4338	4337	4336	4347	9
4341	4337	4336	4347	9
4340	4335	4336	4347	9
4343	4335	4336	4347	9
4347	4355	4349	4352	9
4347	4355	4349	4350	9
4336	4337	4338	4345	9
4341	4337	4338	4345	9
4340	4339	4338	4345	9
4342	4339	4338	4345	9
4345	8655	8649	8650	9
4345	8655	8649	8652	9
4336	4347	4355	4349	9
4336	4347	4355	4356	9
4336	4337	4338	4339	9
4336	4335	4340	4339	9
4336	4335	4340	4344	9
4338	4345	8655	8649	9
4338	4345	8655	8656	9
4335	4336	4337	4338	9
4335	4340	4339	4338	9
4338	4339	4340	4344	9
4337	4336	4347	4348	9
4337	4336	4347	4355	9
4337	4336	4335	4340	9
4337	4336	4335	4343	9
4337	4338	4345	4346	9
4337	4338	4345	8655	9
4337	4338	4339	4340	9
4337	4338	4339	4342	9
4335	4336	4347	4348	9
4335	4336	4347	4355	9
4335	4336	4337	4341	9
4335	4340	4339	4342	9
4339	4338	4345	4346	9
4339	4338	4345	8655	9
4339	4338	4337	4341	9
4339	4340	4335	4343	9
4343	4335	4340	4344	9
4342	4339	4340	4344	9
4348	4347	4355	4349	9
4348	4347	4355	4356	9
4346	4345	8655	8649	9
4346	4345	8655	8656	9
13854	13853	13852	13863	9
13857	13853	13852	13863	9
13856	13851	13852	13863	9
13859	13851	13852	13863	9
1304	1303	1309	13863	9
1306	1303	1309	13863	9
13852	13853	13854	13861	9
13857	13853	13854	13861	9
13856	13855	13854	13861	9
13858	13855	13854	13861	9
1664	1665	1672	13861	9
1666	1665	1672	13861	9
1303	1309	13863	13852	9
1310	1309	13863	13852	9
13852	13853	13854	13855	9
13852	13851	13856	13855	9
13852	13851	13856	13860	9
1665	1672	13861	13854	9
1674	1672	13861	13854	9
13851	13852	13853	13854	9
13851	13856	13855	13854	9
13854	13855	13856	13860	9
13853	13852	13863	13864	9
1309	13863	13852	13853	9
13853	13852	13851	13856	9
13853	13852	13851	13859	9
13853	13854	13861	13862	9
1672	13861	13854	13853	9
13853	13854	13855	13856	9
13853	13854	13855	13858	9
13851	13852	13863	13864	9
1309	13863	13852	13851	9
13851	13852	13853	13857	9
13851	13856	13855	13858	9
13855	13854	13861	13862	9
1672	13861	13854	13855	9
13855	13854	13853	13857	9
13855	13856	13851	13859	9
13859	13851	13856	13860	9
13858	13855	13856	13860	9
1303	1309	13863	13864	9
1310	1309	13863	13864	9
1665	1672	13861	13862	9
1674	1672	13861	13862	9
3304	3303	3302	3313	9
3307	3303	3302	3313	9
3306	3301	3302	3313	9
3309	3301	3302	3313	9
3302	3303	3304	3311	9
3307	3303	3304	3311	9
3306	3305	3304	3311	9
3308	3305	3304	3311	9
3311	8924	8914	8913	9
3311	8924	8914	8917	9
3302	3303	3304	3305	9
3302	3301	3306	3305	9
3302	3301	3306	3310	9
3304	3311	8924	8914	9
3304	3311	8924	8926	9
3301	3302	3303	3304	9
3301	3306	3305	3304	9
3304	3305	3306	3310	9
3303	3302	3313	3314	9
3303	3302	3313	3315	9
3303	3302	3301	3306	9
3303	3302	3301	3309	9
3303	3304	3311	3312	9
3303	3304	3311	8924	9
3303	3304	3305	3306	9
3303	3304	3305	3308	9
3301	3302	3313	3314	9
3301	3302	3313	3315	9
3301	3302	3303	3307	9
3301	3306	3305	3308	9
3305	3304	3311	3312	9
3305	3304	3311	8924	9
3305	3304	3303	3307	9
3305	3306	3301	3309	9
3309	3301	3306	3310	9
3308	3305	3306	3310	9
3312	3311	8924	8914	9
3312	3311	8924	8926	9
12552	12551	12550	12561	9
12555	12551	12550	12561	9
12554	12549	12550	12561	9
12557	12549	12550	12561	9
12561	6239	6229	6228	9
12561	6239	6229	6232	9
12550	12551	12552	12559	9
12555	12551	12552	12559	9
12554	12553	12552	12559	9
12556	12553	12552	12559	9
12559	6633	6623	6622	9
12559	6633	6623	6626	9
12550	12561	6239	6229	9
12550	12561	6239	6241	9
12550	12551	12552	12553	9
12550	12549	12554	12553	9
12550	12549	12554	12558	9
12552	12559	6633	6623	9
12552	12559	6633	6635	9
12549	12550	12551	12552	9
12549	12554	12553	12552	9
12552	12553	12554	12558	9
12551	12550	12561	12562	9
12551	12550	12561	6239	9
12551	12550	12549	12554	9
12551	12550	12549	12557	9
12551	12552	12559	12560	9
12551	12552	12559	6633	9
12551	12552	12553	12554	9
12551	12552	12553	12556	9
12549	12550	12561	12562	9
12549	12550	12561	6239	9
12549	12550	12551	12555	9
12549	12554	12553	12556	9
12553	12552	12559	12560	9
12553	12552	12559	6633	9
12553	12552	12551	12555	9
12553	12554	12549	12557	9
12557	12549	12554	12558	9
12556	12553	12554	12558	9
12562	12561	6239	6229	9
12562	12561	6239	6241	9
12560	12559	6633	6623	9
12560	12559	6633	6635	9
12328	12327	12326	12337	9
12331	12327	12326	12337	9
12330	12325	12326	12337	9
12333	12325	12326	12337	9
12337	7041	7031	7034	9
12337	7041	7031	7030	9
12326	12327	12328	12335	9
12331	12327	12328	12335	9
12330	12329	12328	12335	9
12332	12329	12328	12335	9
12335	5831	5821	5824	9
12335	5831	5821	5820	9
12326	12337	7041	7031	9
12326	12337	7041	7043	9
12326	12327	12328	12329	9
12326	12325	12330	12329	9
12326	12325	12330	12334	9
12328	12335	5831	5821	9
12328	12335	5831	5833	9
12325	12326	12327	12328	9
12325	12330	12329	12328	9
12328	12329	12330	12334	9
12327	12326	12337	12338	9
12327	12326	12337	7041	9
12327	12326	12325	12330	9
12327	12326	12325	12333	9
12327	12328	12335	12336	9
12327	12328	12335	5831	9
12327	12328	12329	12330	9
12327	12328	12329	12332	9
12325	12326	12337	12338	9
12325	12326	12337	7041	9
12325	12326	12327	12331	9
12325	12330	12329	12332	9
12329	12328	12335	12336	9
12329	12328	12335	5831	9
12329	12328	12327	12331	9
12329	12330	12325	12333	9
12333	12325	12330	12334	9
12332	12329	12330	12334	9
12338	12337	7041	7031	9
12338	12337	7041	7043	9
12336	12335	5831	5821	9
12336	12335	5831	5833	9
11404	11403	11402	11413	9
11407	11403	11402	11413	9
11406	11401	11402	11413	9
11409	11401	11402	11413	9
11413	4229	4222	4223	9
11413	4229	4222	4221	9
11402	11403	11404	11411	9
11407	11403	11404	11411	9
11406	11405	11404	11411	9
11408	11405	11404	11411	9
11411	10426	10416	10419	9
11411	10426	10416	10415	9
11402	11413	4229	4222	9
11402	11413	4229	4231	9
11402	11403	11404	11405	9
11402	11401	11406	11405	9
11402	11401	11406	11410	9
11404	11411	10426	10416	9
11404	11411	10426	10428	9
11401	11402	11403	11404	9
11401	11406	11405	11404	9
11404	11405	11406	11410	9
11403	11402	11413	11414	9
11403	11402	11413	4229	9
11403	11402	11401	11406	9
11403	11402	11401	11409	9
11403	11404	11411	11412	9
11403	11404	11411	10426	9
11403	11404	11405	11406	9
11403	11404	11405	11408	9
11401	11402	11413	11414	9
11401	11402	11413	4229	9
11401	11402	11403	11407	9
11401	11406	11405	11408	9
11405	11404	11411	11412	9
11405	11404	11411	10426	9
11405	11404	11403	11407	9
11405	11406	11401	11409	9
11409	11401	11406	11410	9
11408	11405	11406	11410	9
11414	11413	4229	4222	9
11414	11413	4229	4231	9
11412	11411	10426	10416	9
11412	11411	10426	10428	9
5297	5296	5295	5306	9
5300	5296	5295	5306	9
5299	5294	5295	5306	9
5302	5294	5295	5306	9
5306	5314	5308	5309	9
5306	5314	5308	5311	9
5295	5296	5297	5304	9
5300	5296	5297	5304	9
5299	5298	5297	5304	9
5301	5298	5297	5304	9
5304	7143	7133	7136	9
5304	7143	7133	7132	9
5295	5306	5314	5308	9
5295	5306	5314	5315	9
5295	5296	5297	5298	9
5295	5294	5299	5298	9
5295	5294	5299	5303	9
5297	5304	7143	7133	9
5297	5304	7143	7145	9
5294	5295	5296	5297	9
5294	5299	5298	5297	9
5297	5298	5299	5303	9
5296	5295	5306	5307	9
5296	5295	5306	5314	9
5296	5295	5294	5299	9
5296	5295	5294	5302	9
5296	5297	5304	5305	9
5296	5297	5304	7143	9
5296	5297	5298	5299	9
5296	5297	5298	5301	9
5294	5295	5306	5307	9
5294	5295	5306	5314	9
5294	5295	5296	5300	9
5294	5299	5298	5301	9
5298	5297	5304	5305	9
5298	5297	5304	7143	9
5298	5297	5296	5300	9
5298	5299	5294	5302	9
5302	5294	5299	5303	9
5301	5298	5299	5303	9
5307	5306	5314	5308	9
5307	5306	5314	5315	9
5305	5304	7143	7133	9
5305	5304	7143	7145	9
1433	1432	1431	1442	9
1436	1432	1431	1442	9
1435	1430	1431	1442	9
1438	1430	1431	1442	9
1416	1413	1419	1442	9
1414	1413	1419	1442	9
1431	1432	1433	1440	9
1436	1432	1433	1440	9
1435	1434	1433	1440	9
1437	1434	1433	1440	9
1440	8757	8751	8754	9
1440	8757	8751	8752	9
1413	1419	1442	1431	9
1420	1419	1442	1431	9
1431	1432	1433	1434	9
1431	1430	1435	1434	9
1431	1430	1435	1439	9
1433	1440	8757	8751	9
1433	1440	8757	8758	9
1430	1431	1432	1433	9
1430	1435	1434	1433	9
1433	1434	1435	1439	9
1432	1431	1442	1443	9
1419	1442	1431	1432	9
1432	1431	1430	1435	9
1432	1431	1430	1438	9
1432	1433	1440	1441	9
1432	1433	1440	8757	9
1432	1433	1434	1435	9
1432	1433	1434	1437	9
1430	1431	1442	1443	9
1419	1442	1431	1430	9
1430	1431	1432	1436	9
1430	1435	1434	1437	9
1434	1433	1440	1441	9
1434	1433	1440	8757	9
1434	1433	1432	1436	9
1434	1435	1430	1438	9
1438	1430	1435	1439	9
1437	1434	1435	1439	9
1413	1419	1442	1443	9
1420	1419	1442	1443	9
1441	1440	8757	8751	9
1441	1440	8757	8758	9
12650	12649	12648	12659	9
12653	12649	12648	12659	9
12652	12647	12648	12659	9
12655	12647	12648	12659	9
12659	6837	6827	6826	9
12659	6837	6827	6830	9
12648	12649	12650	12657	9
12653	12649	12650	12657	9
12652	12651	12650	12657	9
12654	12651	12650	12657	9
12657	6415	6405	6408	9
12657	6415	6405	6404	9
12648	12659	6837	6827	9
12648	12659	6837	6839	9
12648	12649	12650	12651	9
12648	12647	12652	12651	9
12648	12647	12652	12656	9
12650	12657	6415	6405	9
12650	12657	6415	6417	9
12647	12648	12649	12650	9
12647	12652	12651	12650	9
12650	12651	12652	12656	9
12649	12648	12659	12660	9
12649	12648	12659	6837	9
12649	12648	12647	12652	9
12649	12648	12647	12655	9
12649	12650	12657	12658	9
12649	12650	12657	6415	9
12649	12650	12651	12652	9
12649	12650	12651	12654	9
12647	12648	12659	12660	9
12647	12648	12659	6837	9
12647	12648	12649	12653	9
12647	12652	12651	12654	9
12651	12650	12657	12658	9
12651	12650	12657	6415	9
12651	12650	12649	12653	9
12651	12652	12647	12655	9
12655	12647	12652	12656	9
12654	12651	12652	12656	9
12660	12659	6837	6827	9
12660	12659	6837	6839	9
12658	12657	6415	6405	9
12658	12657	6415	6417	9
11894	11893	11892	11903	9
11897	11893	11892	11903	9
11896	11891	11892	11903	9
11899	11891	11892	11903	9
11903	8719	8709	8712	9
11903	8719	8709	8708	9
11892	11893	11894	11901	9
11897	11893	11894	11901	9
11896	11895	11894	11901	9
11898	11895	11894	11901	9
11901	5088	5078	5077	9
11901	5088	5078	5081	9
11892	11903	8719	8709	9
11892	11903	8719	8721	9
11892	11893	11894	11895	9
11892	11891	11896	11895	9
11892	11891	11896	11900	9
11894	11901	5088	5078	9
11894	11901	5088	5090	9
11891	11892	11893	11894	9
11891	11896	11895	11894	9
11894	11895	11896	11900	9
11893	11892	11903	11904	9
11893	11892	11903	8719	9
11893	11892	11891	11896	9
11893	11892	11891	11899	9
11893	11894	11901	11902	9
11893	11894	11901	5088	9
11893	11894	11895	11896	9
11893	11894	11895	11898	9
11891	11892	11903	11904	9
11891	11892	11903	8719	9
11891	11892	11893	11897	9
11891	11896	11895	11898	9
11895	11894	11901	11902	9
11895	11894	11901	5088	9
11895	11894	11893	11897	9
11895	11896	11891	11899	9
11899	11891	11896	11900	9
11898	11895	11896	11900	9
11904	11903	8719	8709	9
11904	11903	8719	8721	9
11902	11901	5088	5078	9
11902	11901	5088	5090	9
4919	4918	4917	4928	9
4922	4918	4917	4928	9
4921	4916	4917	4928	9
4924	4916	4917	4928	9
358	359	366	4928	9
360	359	366	4928	9
4917	4918	4919	4926	9
4922	4918	4919	4926	9
4921	4920	4919	4926	9
4923	4920	4919	4926	9
4926	4936	4930	4933	9
4926	4936	4930	4931	9
359	366	4928	4917	9
368	366	4928	4917	9
4917	4918	4919	4920	9
4917	4916	4921	4920	9
4917	4916	4921	4925	9
4919	4926	4936	4930	9
4919	4926	4936	4937	9
4916	4917	4918	4919	9
4916	4921	4920	4919	9
4919	4920	4921	4925	9
4918	4917	4928	4929	9
366	4928	4917	4918	9
4918	4917	4916	4921	9
4918	4917	4916	4924	9
4918	4919	4926	4927	9
4918	4919	4926	4936	9
4918	4919	4920	4921	9
4918	4919	4920	4923	9
4916	4917	4928	4929	9
366	4928	4917	4916	9
4916	4917	4918	4922	9
4916	4921	4920	4923	9
4920	4919	4926	4927	9
4920	4919	4926	4936	9
4920	4919	4918	4922	9
4920	4921	4916	4924	9
4924	4916	4921	4925	9
4923	4920	4921	4925	9
359	366	4928	4929	9
368	366	4928	4929	9
4927	4926	4936	4930	9
4927	4926	4936	4937	9
5967	5968	5969	5976	9
5972	5968	5969	5976	9
5971	5970	5969	5976	9
5973	5970	5969	5976	9
5976	8030	8023	8022	9
5976	8030	8023	8024	9
5969	5968	5967	5978	9
5972	5968	5967	5978	9
5971	5966	5967	5978	9
5974	5966	5967	5978	9
5978	5986	5980	5983	9
5978	5986	5980	5981	9
5969	5976	8030	8023	9
5969	5976	8030	8032	9
5966	5967	5968	5969	9
5966	5971	5970	5969	9
5969	5970	5971	5975	9
5967	5978	5986	5980	9
5967	5978	5986	5987	9
5967	5968	5969	5970	9
5967	5966	5971	5970	9
5967	5966	5971	5975	9
5968	5969	5976	5977	9
5968	5969	5976	8030	9
5968	5969	5970	5971	9
5968	5969	5970	5973	9
5968	5967	5978	5979	9
5968	5967	5978	5986	9
5968	5967	5966	5971	9
5968	5967	5966	5974	9
5970	5969	5976	5977	9
5970	5969	5976	8030	9
5970	5969	5968	5972	9
5970	5971	5966	5974	9
5966	5967	5978	5979	9
5966	5967	5978	5986	9
5966	5967	5968	5972	9
5966	5971	5970	5973	9
5973	5970	5971	5975	9
5974	5966	5971	5975	9
5977	5976	8030	8023	9
5977	5976	8030	8032	9
5979	5978	5986	5980	9
5979	5978	5986	5987	9
11390	11389	11388	11399	9
11393	11389	11388	11399	9
11392	11387	11388	11399	9
11395	11387	11388	11399	9
11399	4970	4963	4964	9
11399	4970	4963	4962	9
11388	11389	11390	11397	9
11393	11389	11390	11397	9
11392	11391	11390	11397	9
11394	11391	11390	11397	9
11397	4201	4191	4190	9
11397	4201	4191	4194	9
11388	11399	4970	4963	9
11388	11399	4970	4972	9
11388	11389	11390	11391	9
11388	11387	11392	11391	9
11388	11387	11392	11396	9
11390	11397	4201	4191	9
11390	11397	4201	4203	9
11387	11388	11389	11390	9
11387	11392	11391	11390	9
11390	11391	11392	11396	9
11389	11388	11399	11400	9
11389	11388	11399	4970	9
11389	11388	11387	11392	9
11389	11388	11387	11395	9
11389	11390	11397	11398	9
11389	11390	11397	4201	9
11389	11390	11391	11392	9
11389	11390	11391	11394	9
11387	11388	11399	11400	9
11387	11388	11399	4970	9
11387	11388	11389	11393	9
11387	11392	11391	11394	9
11391	11390	11397	11398	9
11391	11390	11397	4201	9
11391	11390	11389	11393	9
11391	11392	11387	11395	9
11395	11387	11392	11396	9
11394	11391	11392	11396	9
11400	11399	4970	4963	9
11400	11399	4970	4972	9
11398	11397	4201	4191	9
11398	11397	4201	4203	9
12244	12243	12242	12253	9
12247	12243	12242	12253	9
12246	12241	12242	12253	9
12249	12241	12242	12253	9
1728	1727	1734	12253	9
1726	1727	1734	12253	9
12242	12243	12244	12251	9
12247	12243	12244	12251	9
12246	12245	12244	12251	9
12248	12245	12244	12251	9
12251	5708	5702	5705	9
12251	5708	5702	5703	9
1727	1734	12253	12242	9
1736	1734	12253	12242	9
12242	12243	12244	12245	9
12242	12241	12246	12245	9
12242	12241	12246	12250	9
12244	12251	5708	5702	9
12244	12251	5708	5709	9
12241	12242	12243	12244	9
12241	12246	12245	12244	9
12244	12245	12246	12250	9
12243	12242	12253	12254	9
1734	12253	12242	12243	9
12243	12242	12241	12246	9
12243	12242	12241	12249	9
12243	12244	12251	12252	9
12243	12244	12251	5708	9
12243	12244	12245	12246	9
12243	12244	12245	12248	9
12241	12242	12253	12254	9
1734	12253	12242	12241	9
12241	12242	12243	12247	9
12241	12246	12245	12248	9
12245	12244	12251	12252	9
12245	12244	12251	5708	9
12245	12244	12243	12247	9
12245	12246	12241	12249	9
12249	12241	12246	12250	9
12248	12245	12246	12250	9
1727	1734	12253	12254	9
1736	1734	12253	12254	9
12252	12251	5708	5702	9
12252	12251	5708	5709	9
10666	10665	10664	10675	9
10669	10665	10664	10675	9
10668	10663	10664	10675	9
10671	10663	10664	10675	9
10675	10683	10677	10678	9
10675	10683	10677	10680	9
10664	10665	10666	10673	9
10669	10665	10666	10673	9
10668	10667	10666	10673	9
10670	10667	10666	10673	9
10673	10894	10884	10887	9
10673	10894	10884	10883	9
10664	10675	10683	10677	9
10664	10675	10683	10684	9
10664	10665	10666	10667	9
10664	10663	10668	10667	9
10664	10663	10668	10672	9
10666	10673	10894	10884	9
10666	10673	10894	10896	9
10663	10664	10665	10666	9
10663	10668	10667	10666	9
10666	10667	10668	10672	9
10665	10664	10675	10676	9
10665	10664	10675	10683	9
10665	10664	10663	10668	9
10665	10664	10663	10671	9
10665	10666	10673	10674	9
10665	10666	10673	10894	9
10665	10666	10667	10668	9
10665	10666	10667	10670	9
10663	10664	10675	10676	9
10663	10664	10675	10683	9
10663	10664	10665	10669	9
10663	10668	10667	10670	9
10667	10666	10673	10674	9
10667	10666	10673	10894	9
10667	10666	10665	10669	9
10667	10668	10663	10671	9
10671	10663	10668	10672	9
10670	10667	10668	10672	9
10676	10675	10683	10677	9
10676	10675	10683	10684	9
10674	10673	10894	10884	9
10674	10673	10894	10896	9
3589	3588	3587	3598	9
3592	3588	3587	3598	9
3591	3586	3587	3598	9
3594	3586	3587	3598	9
3587	3588	3589	3596	9
3592	3588	3589	3596	9
3591	3590	3589	3596	9
3593	3590	3589	3596	9
3596	10513	10506	10505	9
3596	10513	10506	10507	9
3587	3588	3589	3590	9
3587	3586	3591	3590	9
3587	3586	3591	3595	9
3589	3596	10513	10506	9
3589	3596	10513	10515	9
3586	3587	3588	3589	9
3586	3591	3590	3589	9
3589	3590	3591	3595	9
3588	3587	3598	3599	9
3588	3587	3598	3600	9
3588	3587	3586	3591	9
3588	3587	3586	3594	9
3588	3589	3596	3597	9
3588	3589	3596	10513	9
3588	3589	3590	3591	9
3588	3589	3590	3593	9
3586	3587	3598	3599	9
3586	3587	3598	3600	9
3586	3587	3588	3592	9
3586	3591	3590	3593	9
3590	3589	3596	3597	9
3590	3589	3596	10513	9
3590	3589	3588	3592	9
3590	3591	3586	3594	9
3594	3586	3591	3595	9
3593	3590	3591	3595	9
3597	3596	10513	10506	9
3597	3596	10513	10515	9
499	498	497	508	9
502	498	497	508	9
501	496	497	508	9
504	496	497	508	9
508	9954	9948	9951	9
508	9954	9948	9949	9
497	498	499	506	9
502	498	499	506	9
501	500	499	506	9
503	500	499	506	9
480	479	485	506	9
482	479	485	506	9
497	508	9954	9948	9
497	508	9954	9955	9
497	498	499	500	9
497	496	501	500	9
497	496	501	505	9
479	485	506	499	9
486	485	506	499	9
496	497	498	499	9
496	501	500	499	9
499	500	501	505	9
498	497	508	509	9
498	497	508	9954	9
498	497	496	501	9
498	497	496	504	9
498	499	506	507	9
485	506	499	498	9
498	499	500	501	9
498	499	500	503	9
496	497	508	509	9
496	497	508	9954	9
496	497	498	502	9
496	501	500	503	9
500	499	506	507	9
485	506	499	500	9
500	499	498	502	9
500	501	496	504	9
504	496	501	505	9
503	500	501	505	9
509	508	9954	9948	9
509	508	9954	9955	9
479	485	506	507	9
486	485	506	507	9
7790	7789	7788	7799	9
7793	7789	7788	7799	9
7792	7787	7788	7799	9
7795	7787	7788	7799	9
7799	5087	5080	5081	9
7799	5087	5080	5079	9
7788	7789	7790	7797	9
7793	7789	7790	7797	9
7792	7791	7790	7797	9
7794	7791	7790	7797	9
7797	7807	7801	7802	9
7797	7807	7801	7804	9
7788	7799	5087	5080	9
7788	7799	5087	5089	9
7788	7789	7790	7791	9
7788	7787	7792	7791	9
7788	7787	7792	7796	9
7790	7797	7807	7801	9
7790	7797	7807	7808	9
7787	7788	7789	7790	9
7787	7792	7791	7790	9
7790	7791	7792	7796	9
7789	7788	7799	7800	9
7789	7788	7799	5087	9
7789	7788	7787	7792	9
7789	7788	7787	7795	9
7789	7790	7797	7798	9
7789	7790	7797	7807	9
7789	7790	7791	7792	9
7789	7790	7791	7794	9
7787	7788	7799	7800	9
7787	7788	7799	5087	9
7787	7788	7789	7793	9
7787	7792	7791	7794	9
7791	7790	7797	7798	9
7791	7790	7797	7807	9
7791	7790	7789	7793	9
7791	7792	7787	7795	9
7795	7787	7792	7796	9
7794	7791	7792	7796	9
7800	7799	5087	5080	9
7800	7799	5087	5089	9
7798	7797	7807	7801	9
7798	7797	7807	7808	9
11922	11921	11920	11931	9
11925	11921	11920	11931	9
11924	11919	11920	11931	9
11927	11919	11920	11931	9
11931	5145	5138	5139	9
11931	5145	5138	5137	9
11920	11921	11922	11929	9
11925	11921	11922	11929	9
11924	11923	11922	11929	9
11926	11923	11922	11929	9
11929	10047	10037	10040	9
11929	10047	10037	10036	9
11920	11931	5145	5138	9
11920	11931	5145	5147	9
11920	11921	11922	11923	9
11920	11919	11924	11923	9
11920	11919	11924	11928	9
11922	11929	10047	10037	9
11922	11929	10047	10049	9
11919	11920	11921	11922	9
11919	11924	11923	11922	9
11922	11923	11924	11928	9
11921	11920	11931	11932	9
11921	11920	11931	5145	9
11921	11920	11919	11924	9
11921	11920	11919	11927	9
11921	11922	11929	11930	9
11921	11922	11929	10047	9
11921	11922	11923	11924	9
11921	11922	11923	11926	9
11919	11920	11931	11932	9
11919	11920	11931	5145	9
11919	11920	11921	11925	9
11919	11924	11923	11926	9
11923	11922	11929	11930	9
11923	11922	11929	10047	9
11923	11922	11921	11925	9
11923	11924	11919	11927	9
11927	11919	11924	11928	9
11926	11923	11924	11928	9
11932	11931	5145	5138	9
11932	11931	5145	5147	9
11930	11929	10047	10037	9
11930	11929	10047	10049	9
217	216	215	226	9
220	216	215	226	9
219	214	215	226	9
222	214	215	226	9
202	203	205	226	9
204	203	205	226	9
215	216	217	224	9
220	216	217	224	9
219	218	217	224	9
221	218	217	224	9
224	8377	8371	8374	9
224	8377	8371	8372	9
203	205	226	215	9
206	205	226	215	9
215	216	217	218	9
215	214	219	218	9
215	214	219	223	9
217	224	8377	8371	9
217	224	8377	8378	9
214	215	216	217	9
214	219	218	217	9
217	218	219	223	9
216	215	226	227	9
205	226	215	216	9
216	215	214	219	9
216	215	214	222	9
216	217	224	225	9
216	217	224	8377	9
216	217	218	219	9
216	217	218	221	9
214	215	226	227	9
205	226	215	214	9
214	215	216	220	9
214	219	218	221	9
218	217	224	225	9
218	217	224	8377	9
218	217	216	220	9
218	219	214	222	9
222	214	219	223	9
221	218	219	223	9
203	205	226	227	9
206	205	226	227	9
225	224	8377	8371	9
225	224	8377	8378	9
10608	10607	10606	10617	9
10611	10607	10606	10617	9
10610	10605	10606	10617	9
10613	10605	10606	10617	9
10617	10625	10619	10620	9
10617	10625	10619	10622	9
10606	10607	10608	10615	9
10611	10607	10608	10615	9
10610	10609	10608	10615	9
10612	10609	10608	10615	9
10615	7929	7919	7918	9
10615	7929	7919	7922	9
10606	10617	10625	10619	9
10606	10617	10625	10626	9
10606	10607	10608	10609	9
10606	10605	10610	10609	9
10606	10605	10610	10614	9
10608	10615	7929	7919	9
10608	10615	7929	7931	9
10605	10606	10607	10608	9
10605	10610	10609	10608	9
10608	10609	10610	10614	9
10607	10606	10617	10618	9
10607	10606	10617	10625	9
10607	10606	10605	10610	9
10607	10606	10605	10613	9
10607	10608	10615	10616	9
10607	10608	10615	7929	9
10607	10608	10609	10610	9
10607	10608	10609	10612	9
10605	10606	10617	10618	9
10605	10606	10617	10625	9
10605	10606	10607	10611	9
10605	10610	10609	10612	9
10609	10608	10615	10616	9
10609	10608	10615	7929	9
10609	10608	10607	10611	9
10609	10610	10605	10613	9
10613	10605	10610	10614	9
10612	10609	10610	10614	9
10618	10617	10625	10619	9
10618	10617	10625	10626	9
10616	10615	7929	7919	9
10616	10615	7929	7931	9
23	22	21	32	9
26	22	21	32	9
25	20	21	32	9
28	20	21	32	9
32	4026	4019	4018	9
32	4026	4019	4020	9
21	22	23	30	9
26	22	23	30	9
25	24	23	30	9
27	24	23	30	9
4	1	7	30	9
2	1	7	30	9
21	32	4026	4019	9
21	32	4026	4028	9
21	22	23	24	9
21	20	25	24	9
21	20	25	29	9
1	7	30	23	9
8	7	30	23	9
20	21	22	23	9
20	25	24	23	9
23	24	25	29	9
22	21	32	33	9
22	21	32	4026	9
22	21	20	25	9
22	21	20	28	9
22	23	30	31	9
7	30	23	22	9
22	23	24	25	9
22	23	24	27	9
20	21	32	33	9
20	21	32	4026	9
20	21	22	26	9
20	25	24	27	9
24	23	30	31	9
7	30	23	24	9
24	23	22	26	9
24	25	20	28	9
28	20	25	29	9
27	24	25	29	9
33	32	4026	4019	9
33	32	4026	4028	9
1	7	30	31	9
8	7	30	31	9
2762	2763	2764	2771	9
2767	2763	2764	2771	9
2766	2765	2764	2771	9
2768	2765	2764	2771	9
2771	5082	5076	5077	9
2771	5082	5076	5079	9
2764	2763	2762	2773	9
2767	2763	2762	2773	9
2766	2761	2762	2773	9
2769	2761	2762	2773	9
2764	2771	5082	5076	9
2764	2771	5082	5083	9
2761	2762	2763	2764	9
2761	2766	2765	2764	9
2764	2765	2766	2770	9
2762	2763	2764	2765	9
2762	2761	2766	2765	9
2762	2761	2766	2770	9
2763	2764	2771	2772	9
2763	2764	2771	5082	9
2763	2764	2765	2766	9
2763	2764	2765	2768	9
2763	2762	2773	2774	9
2763	2762	2773	2775	9
2763	2762	2761	2766	9
2763	2762	2761	2769	9
2765	2764	2771	2772	9
2765	2764	2771	5082	9
2765	2764	2763	2767	9
2765	2766	2761	2769	9
2761	2762	2773	2774	9
2761	2762	2773	2775	9
2761	2762	2763	2767	9
2761	2766	2765	2768	9
2768	2765	2766	2770	9
2769	2761	2766	2770	9
2772	2771	5082	5076	9
2772	2771	5082	5083	9
2224	2225	2226	2233	9
2229	2225	2226	2233	9
2228	2227	2226	2233	9
2230	2227	2226	2233	9
2207	2206	2212	2233	9
2209	2206	2212	2233	9
2226	2225	2224	2235	9
2229	2225	2224	2235	9
2228	2223	2224	2235	9
2231	2223	2224	2235	9
2235	8436	8430	8431	9
2235	8436	8430	8433	9
2206	2212	2233	2226	9
2213	2212	2233	2226	9
2223	2224	2225	2226	9
2223	2228	2227	2226	9
2226	2227	2228	2232	9
2224	2235	8436	8430	9
2224	2235	8436	8437	9
2224	2225	2226	2227	9
2224	2223	2228	2227	9
2224	2223	2228	2232	9
2225	2226	2233	2234	9
2212	2233	2226	2225	9
2225	2226	2227	2228	9
2225	2226	2227	2230	9
2225	2224	2235	2236	9
2225	2224	2235	8436	9
2225	2224	2223	2228	9
2225	2224	2223	2231	9
2227	2226	2233	2234	9
2212	2233	2226	2227	9
2227	2226	2225	2229	9
2227	2228	2223	2231	9
2223	2224	2235	2236	9
2223	2224	2235	8436	9
2223	2224	2225	2229	9
2223	2228	2227	2230	9
2230	2227	2228	2232	9
2231	2223	2228	2232	9
2206	2212	2233	2234	9
2213	2212	2233	2234	9
2236	2235	8436	8430	9
2236	2235	8436	8437	9
13742	13741	13740	13751	9
13745	13741	13740	13751	9
13744	13739	13740	13751	9
13747	13739	13740	13751	9
13751	10893	10886	10885	9
13751	10893	10886	10887	9
13740	13741	13742	13749	9
13745	13741	13742	13749	9
13744	13743	13742	13749	9
13746	13743	13742	13749	9
13749	10689	10679	10678	9
13749	10689	10679	10682	9
13740	13751	10893	10886	9
13740	13751	10893	10895	9
13740	13741	13742	13743	9
13740	13739	13744	13743	9
13740	13739	13744	13748	9
13742	13749	10689	10679	9
13742	13749	10689	10691	9
13739	13740	13741	13742	9
13739	13744	13743	13742	9
13742	13743	13744	13748	9
13741	13740	13751	13752	9
13741	13740	13751	10893	9
13741	13740	13739	13744	9
13741	13740	13739	13747	9
13741	13742	13749	13750	9
13741	13742	13749	10689	9
13741	13742	13743	13744	9
13741	13742	13743	13746	9
13739	13740	13751	13752	9
13739	13740	13751	10893	9
13739	13740	13741	13745	9
13739	13744	13743	13746	9
13743	13742	13749	13750	9
13743	13742	13749	10689	9
13743	13742	13741	13745	9
13743	13744	13739	13747	9
13747	13739	13744	13748	9
13746	13743	13744	13748	9
13752	13751	10893	10886	9
13752	13751	10893	10895	9
13750	13749	10689	10679	9
13750	13749	10689	10691	9
7251	7250	7249	7260	9
7254	7250	7249	7260	9
7253	7248	7249	7260	9
7256	7248	7249	7260	9
7260	6895	6885	6888	9
7260	6895	6885	6884	9
7249	7250	7251	7258	9
7254	7250	7251	7258	9
7253	7252	7251	7258	9
7255	7252	7251	7258	9
7258	7268	7262	7263	9
7258	7268	7262	7265	9
7249	7260	6895	6885	9
7249	7260	6895	6897	9
7249	7250	7251	7252	9
7249	7248	7253	7252	9
7249	7248	7253	7257	9
7251	7258	7268	7262	9
7251	7258	7268	7269	9
7248	7249	7250	7251	9
7248	7253	7252	7251	9
7251	7252	7253	7257	9
7250	7249	7260	7261	9
7250	7249	7260	6895	9
7250	7249	7248	7253	9
7250	7249	7248	7256	9
7250	7251	7258	7259	9
7250	7251	7258	7268	9
7250	7251	7252	7253	9
7250	7251	7252	7255	9
7248	7249	7260	7261	9
7248	7249	7260	6895	9
7248	7249	7250	7254	9
7248	7253	7252	7255	9
7252	7251	7258	7259	9
7252	7251	7258	7268	9
7252	7251	7250	7254	9
7252	7253	7248	7256	9
7256	7248	7253	7257	9
7255	7252	7253	7257	9
7261	7260	6895	6885	9
7261	7260	6895	6897	9
7259	7258	7268	7262	9
7259	7258	7268	7269	9
4120	4119	4118	4129	9
4123	4119	4118	4129	9
4122	4117	4118	4129	9
4125	4117	4118	4129	9
4129	4137	4131	4132	9
4129	4137	4131	4134	9
4118	4119	4120	4127	9
4123	4119	4120	4127	9
4122	4121	4120	4127	9
4124	4121	4120	4127	9
4127	5606	5600	5603	9
4127	5606	5600	5601	9
4118	4129	4137	4131	9
4118	4129	4137	4138	9
4118	4119	4120	4121	9
4118	4117	4122	4121	9
4118	4117	4122	4126	9
4120	4127	5606	5600	9
4120	4127	5606	5607	9
4117	4118	4119	4120	9
4117	4122	4121	4120	9
4120	4121	4122	4126	9
4119	4118	4129	4130	9
4119	4118	4129	4137	9
4119	4118	4117	4122	9
4119	4118	4117	4125	9
4119	4120	4127	4128	9
4119	4120	4127	5606	9
4119	4120	4121	4122	9
4119	4120	4121	4124	9
4117	4118	4129	4130	9
4117	4118	4129	4137	9
4117	4118	4119	4123	9
4117	4122	4121	4124	9
4121	4120	4127	4128	9
4121	4120	4127	5606	9
4121	4120	4119	4123	9
4121	4122	4117	4125	9
4125	4117	4122	4126	9
4124	4121	4122	4126	9
4130	4129	4137	4131	9
4130	4129	4137	4138	9
4128	4127	5606	5600	9
4128	4127	5606	5607	9
6129	6128	6127	6138	9
6132	6128	6127	6138	9
6131	6126	6127	6138	9
6134	6126	6127	6138	9
6138	6146	6140	6143	9
6138	6146	6140	6141	9
6127	6128	6129	6136	9
6132	6128	6129	6136	9
6131	6130	6129	6136	9
6133	6130	6129	6136	9
6136	6924	6914	6913	9
6136	6924	6914	6917	9
6127	6138	6146	6140	9
6127	6138	6146	6147	9
6127	6128	6129	6130	9
6127	6126	6131	6130	9
6127	6126	6131	6135	9
6129	6136	6924	6914	9
6129	6136	6924	6926	9
6126	6127	6128	6129	9
6126	6131	6130	6129	9
6129	6130	6131	6135	9
6128	6127	6138	6139	9
6128	6127	6138	6146	9
6128	6127	6126	6131	9
6128	6127	6126	6134	9
6128	6129	6136	6137	9
6128	6129	6136	6924	9
6128	6129	6130	6131	9
6128	6129	6130	6133	9
6126	6127	6138	6139	9
6126	6127	6138	6146	9
6126	6127	6128	6132	9
6126	6131	6130	6133	9
6130	6129	6136	6137	9
6130	6129	6136	6924	9
6130	6129	6128	6132	9
6130	6131	6126	6134	9
6134	6126	6131	6135	9
6133	6130	6131	6135	9
6139	6138	6146	6140	9
6139	6138	6146	6147	9
6137	6136	6924	6914	9
6137	6136	6924	6926	9
4307	4308	4309	4316	9
4312	4308	4309	4316	9
4311	4310	4309	4316	9
4313	4310	4309	4316	9
1040	1041	1048	4316	9
1042	1041	1048	4316	9
4309	4308	4307	4318	9
4312	4308	4307	4318	9
4311	4306	4307	4318	9
4314	4306	4307	4318	9
4318	4326	4320	4323	9
4318	4326	4320	4321	9
1041	1048	4316	4309	9
1050	1048	4316	4309	9
4306	4307	4308	4309	9
4306	4311	4310	4309	9
4309	4310	4311	4315	9
4307	4318	4326	4320	9
4307	4318	4326	4327	9
4307	4308	4309	4310	9
4307	4306	4311	4310	9
4307	4306	4311	4315	9
4308	4309	4316	4317	9
1048	4316	4309	4308	9
4308	4309	4310	4311	9
4308	4309	4310	4313	9
4308	4307	4318	4319	9
4308	4307	4318	4326	9
4308	4307	4306	4311	9
4308	4307	4306	4314	9
4310	4309	4316	4317	9
1048	4316	4309	4310	9
4310	4309	4308	4312	9
4310	4311	4306	4314	9
4306	4307	4318	4319	9
4306	4307	4318	4326	9
4306	4307	4308	4312	9
4306	4311	4310	4313	9
4313	4310	4311	4315	9
4314	4306	4311	4315	9
1041	1048	4316	4317	9
1050	1048	4316	4317	9
4319	4318	4326	4320	9
4319	4318	4326	4327	9
13306	13307	13308	13315	9
13311	13307	13308	13315	9
13310	13309	13308	13315	9
13312	13309	13308	13315	9
13315	9245	9235	9238	9
13315	9245	9235	9234	9
13308	13307	13306	13317	9
13311	13307	13306	13317	9
13310	13305	13306	13317	9
13313	13305	13306	13317	9
13317	8265	8255	8254	9
13317	8265	8255	8258	9
13308	13315	9245	9235	9
13308	13315	9245	9247	9
13305	13306	13307	13308	9
13305	13310	13309	13308	9
13308	13309	13310	13314	9
13306	13317	8265	8255	9
13306	13317	8265	8267	9
13306	13307	13308	13309	9
13306	13305	13310	13309	9
13306	13305	13310	13314	9
13307	13308	13315	13316	9
13307	13308	13315	9245	9
13307	13308	13309	13310	9
13307	13308	13309	13312	9
13307	13306	13317	13318	9
13307	13306	13317	8265	9
13307	13306	13305	13310	9
13307	13306	13305	13313	9
13309	13308	13315	13316	9
13309	13308	13315	9245	9
13309	13308	13307	13311	9
13309	13310	13305	13313	9
13305	13306	13317	13318	9
13305	13306	13317	8265	9
13305	13306	13307	13311	9
13305	13310	13309	13312	9
13312	13309	13310	13314	9
13313	13305	13310	13314	9
13316	13315	9245	9235	9
13316	13315	9245	9247	9
13318	13317	8265	8255	9
13318	13317	8265	8267	9
7091	7090	7089	7100	9
7094	7090	7089	7100	9
7093	7088	7089	7100	9
7096	7088	7089	7100	9
7100	11188	11178	11181	9
7100	11188	11178	11177	9
7089	7090	7091	7098	9
7094	7090	7091	7098	9
7093	7092	7091	7098	9
7095	7092	7091	7098	9
7098	7108	7102	7103	9
7098	7108	7102	7105	9
7089	7100	11188	11178	9
7089	7100	11188	11190	9
7089	7090	7091	7092	9
7089	7088	7093	7092	9
7089	7088	7093	7097	9
7091	7098	7108	7102	9
7091	7098	7108	7109	9
7088	7089	7090	7091	9
7088	7093	7092	7091	9
7091	7092	7093	7097	9
7090	7089	7100	7101	9
7090	7089	7100	11188	9
7090	7089	7088	7093	9
7090	7089	7088	7096	9
7090	7091	7098	7099	9
7090	7091	7098	7108	9
7090	7091	7092	7093	9
7090	7091	7092	7095	9
7088	7089	7100	7101	9
7088	7089	7100	11188	9
7088	7089	7090	7094	9
7088	7093	7092	7095	9
7092	7091	7098	7099	9
7092	7091	7098	7108	9
7092	7091	7090	7094	9
7092	7093	7088	7096	9
7096	7088	7093	7097	9
7095	7092	7093	7097	9
7101	7100	11188	11178	9
7101	7100	11188	11190	9
7099	7098	7108	7102	9
7099	7098	7108	7109	9
4178	4177	4176	4187	9
4181	4177	4176	4187	9
4180	4175	4176	4187	9
4183	4175	4176	4187	9
4187	5450	5443	5442	9
4187	5450	5443	5444	9
4176	4177	4178	4185	9
4181	4177	4178	4185	9
4180	4179	4178	4185	9
4182	4179	4178	4185	9
4185	4195	4189	4190	9
4185	4195	4189	4192	9
4176	4187	5450	5443	9
4176	4187	5450	5452	9
4176	4177	4178	4179	9
4176	4175	4180	4179	9
4176	4175	4180	4184	9
4178	4185	4195	4189	9
4178	4185	4195	4196	9
4175	4176	4177	4178	9
4175	4180	4179	4178	9
4178	4179	4180	4184	9
4177	4176	4187	4188	9
4177	4176	4187	5450	9
4177	4176	4175	4180	9
4177	4176	4175	4183	9
4177	4178	4185	4186	9
4177	4178	4185	4195	9
4177	4178	4179	4180	9
4177	4178	4179	4182	9
4175	4176	4187	4188	9
4175	4176	4187	5450	9
4175	4176	4177	4181	9
4175	4180	4179	4182	9
4179	4178	4185	4186	9
4179	4178	4185	4195	9
4179	4178	4177	4181	9
4179	4180	4175	4183	9
4183	4175	4180	4184	9
4182	4179	4180	4184	9
4188	4187	5450	5443	9
4188	4187	5450	5452	9
4186	4185	4195	4189	9
4186	4185	4195	4196	9
3602	3603	3604	3611	9
3607	3603	3604	3611	9
3606	3605	3604	3611	9
3608	3605	3604	3611	9
3611	10659	10652	10651	9
3611	10659	10652	10653	9
3604	3603	3602	3613	9
3607	3603	3602	3613	9
3606	3601	3602	3613	9
3609	3601	3602	3613	9
3604	3611	10659	10652	9
3604	3611	10659	10661	9
3601	3602	3603	3604	9
3601	3606	3605	3604	9
3604	3605	3606	3610	9
3602	3603	3604	3605	9
3602	3601	3606	3605	9
3602	3601	3606	3610	9
3603	3604	3611	3612	9
3603	3604	3611	10659	9
3603	3604	3605	3606	9
3603	3604	3605	3608	9
3603	3602	3613	3614	9
3603	3602	3613	3615	9
3603	3602	3601	3606	9
3603	3602	3601	3609	9
3605	3604	3611	3612	9
3605	3604	3611	10659	9
3605	3604	3603	3607	9
3605	3606	3601	3609	9
3601	3602	3613	3614	9
3601	3602	3613	3615	9
3601	3602	3603	3607	9
3601	3606	3605	3608	9
3608	3605	3606	3610	9
3609	3601	3606	3610	9
3612	3611	10659	10652	9
3612	3611	10659	10661	9
3362	3363	3364	3371	9
3367	3363	3364	3371	9
3366	3365	3364	3371	9
3368	3365	3364	3371	9
3371	9094	9088	9089	9
3371	9094	9088	9091	9
3364	3363	3362	3373	9
3367	3363	3362	3373	9
3366	3361	3362	3373	9
3369	3361	3362	3373	9
3364	3371	9094	9088	9
3364	3371	9094	9095	9
3361	3362	3363	3364	9
3361	3366	3365	3364	9
3364	3365	3366	3370	9
3362	3363	3364	3365	9
3362	3361	3366	3365	9
3362	3361	3366	3370	9
3363	3364	3371	3372	9
3363	3364	3371	9094	9
3363	3364	3365	3366	9
3363	3364	3365	3368	9
3363	3362	3373	3374	9
3363	3362	3373	3375	9
3363	3362	3361	3366	9
3363	3362	3361	3369	9
3365	3364	3371	3372	9
3365	3364	3371	9094	9
3365	3364	3363	3367	9
3365	3366	3361	3369	9
3361	3362	3373	3374	9
3361	3362	3373	3375	9
3361	3362	3363	3367	9
3361	3366	3365	3368	9
3368	3365	3366	3370	9
3369	3361	3366	3370	9
3372	3371	9094	9088	9
3372	3371	9094	9095	9
7599	7600	7601	7608	9
7604	7600	7601	7608	9
7603	7602	7601	7608	9
7605	7602	7601	7608	9
7608	7623	7616	7617	9
7608	7623	7616	7615	9
7601	7600	7599	7610	9
7604	7600	7599	7610	9
7603	7598	7599	7610	9
7606	7598	7599	7610	9
7610	5684	5677	5676	9
7610	5684	5677	5678	9
7601	7608	7623	7616	9
7601	7608	7623	7625	9
7601	7600	7599	7598	9
7601	7602	7603	7598	9
7601	7602	7603	7607	9
7599	7610	5684	5677	9
7599	7610	5684	5686	9
7602	7601	7600	7599	9
7602	7603	7598	7599	9
7599	7598	7603	7607	9
7600	7601	7608	7609	9
7600	7601	7608	7623	9
7600	7601	7602	7603	9
7600	7601	7602	7605	9
7600	7599	7610	7611	9
7600	7599	7610	5684	9
7600	7599	7598	7603	9
7600	7599	7598	7606	9
7602	7601	7608	7609	9
7602	7601	7608	7623	9
7602	7601	7600	7604	9
7602	7603	7598	7606	9
7598	7599	7610	7611	9
7598	7599	7610	5684	9
7598	7599	7600	7604	9
7598	7603	7602	7605	9
7605	7602	7603	7607	9
7606	7598	7603	7607	9
7609	7608	7623	7616	9
7609	7608	7623	7625	9
7611	7610	5684	5677	9
7611	7610	5684	5686	9
10476	10475	10474	10485	9
10479	10475	10474	10485	9
10478	10473	10474	10485	9
10481	10473	10474	10485	9
10485	10498	10491	10492	9
10485	10498	10491	10490	9
10474	10475	10476	10483	9
10479	10475	10476	10483	9
10478	10477	10476	10483	9
10480	10477	10476	10483	9
10483	6690	6683	6682	9
10483	6690	6683	6684	9
10474	10485	10498	10491	9
10474	10485	10498	10500	9
10474	10475	10476	10477	9
10474	10473	10478	10477	9
10474	10473	10478	10482	9
10476	10483	6690	6683	9
10476	10483	6690	6692	9
10473	10474	10475	10476	9
10473	10478	10477	10476	9
10476	10477	10478	10482	9
10475	10474	10485	10486	9
10475	10474	10485	10498	9
10475	10474	10473	10478	9
10475	10474	10473	10481	9
10475	10476	10483	10484	9
10475	10476	10483	6690	9
10475	10476	10477	10478	9
10475	10476	10477	10480	9
10473	10474	10485	10486	9
10473	10474	10485	10498	9
10473	10474	10475	10479	9
10473	10478	10477	10480	9
10477	10476	10483	10484	9
10477	10476	10483	6690	9
10477	10476	10475	10479	9
10477	10478	10473	10481	9
10481	10473	10478	10482	9
10480	10477	10478	10482	9
10486	10485	10498	10491	9
10486	10485	10498	10500	9
10484	10483	6690	6683	9
10484	10483	6690	6692	9
5399	5398	5397	5408	9
5402	5398	5397	5408	9
5401	5396	5397	5408	9
5404	5396	5397	5408	9
5408	5416	5410	5413	9
5408	5416	5410	5411	9
5397	5398	5399	5406	9
5402	5398	5399	5406	9
5401	5400	5399	5406	9
5403	5400	5399	5406	9
5406	10508	10502	10505	9
5406	10508	10502	10503	9
5397	5408	5416	5410	9
5397	5408	5416	5417	9
5397	5398	5399	5400	9
5397	5396	5401	5400	9
5397	5396	5401	5405	9
5399	5406	10508	10502	9
5399	5406	10508	10509	9
5396	5397	5398	5399	9
5396	5401	5400	5399	9
5399	5400	5401	5405	9
5398	5397	5408	5409	9
5398	5397	5408	5416	9
5398	5397	5396	5401	9
5398	5397	5396	5404	9
5398	5399	5406	5407	9
5398	5399	5406	10508	9
5398	5399	5400	5401	9
5398	5399	5400	5403	9
5396	5397	5408	5409	9
5396	5397	5408	5416	9
5396	5397	5398	5402	9
5396	5401	5400	5403	9
5400	5399	5406	5407	9
5400	5399	5406	10508	9
5400	5399	5398	5402	9
5400	5401	5396	5404	9
5404	5396	5401	5405	9
5403	5400	5401	5405	9
5409	5408	5416	5410	9
5409	5408	5416	5417	9
5407	5406	10508	10502	9
5407	5406	10508	10509	9
12174	12173	12172	12183	9
12177	12173	12172	12183	9
12176	12171	12172	12183	9
12179	12171	12172	12183	9
12183	9653	9643	9646	9
12183	9653	9643	9642	9
12172	12173	12174	12181	9
12177	12173	12174	12181	9
12176	12175	12174	12181	9
12178	12175	12174	12181	9
12181	5612	5602	5605	9
12181	5612	5602	5601	9
12172	12183	9653	9643	9
12172	12183	9653	9655	9
12172	12173	12174	12175	9
12172	12171	12176	12175	9
12172	12171	12176	12180	9
12174	12181	5612	5602	9
12174	12181	5612	5614	9
12171	12172	12173	12174	9
12171	12176	12175	12174	9
12174	12175	12176	12180	9
12173	12172	12183	12184	9
12173	12172	12183	9653	9
12173	12172	12171	12176	9
12173	12172	12171	12179	9
12173	12174	12181	12182	9
12173	12174	12181	5612	9
12173	12174	12175	12176	9
12173	12174	12175	12178	9
12171	12172	12183	12184	9
12171	12172	12183	9653	9
12171	12172	12173	12177	9
12171	12176	12175	12178	9
12175	12174	12181	12182	9
12175	12174	12181	5612	9
12175	12174	12173	12177	9
12175	12176	12171	12179	9
12179	12171	12176	12180	9
12178	12175	12176	12180	9
12184	12183	9653	9643	9
12184	12183	9653	9655	9
12182	12181	5612	5602	9
12182	12181	5612	5614	9
3855	3856	3857	3860	9
3855	3856	3857	3867	9
3855	3858	3859	3860	9
3855	3858	3859	3866	9
3856	3857	3860	3859	9
3856	3857	3860	3865	9
3856	3857	3867	3869	9
3856	3855	3858	3859	9
3856	3855	3858	3864	9
3856	3855	3861	3862	9
3857	3856	3855	3858	9
3857	3856	3855	3861	9
3857	3860	3859	3858	9
3857	3860	3859	3866	9
3860	3857	3856	3863	9
3860	3857	3867	3869	9
3860	3859	3858	3864	9
3860	3859	3866	3868	9
3859	3860	3857	3867	9
3859	3858	3855	3861	9
3858	3859	3860	3865	9
3858	3859	3866	3868	9
3858	3855	3856	3863	9
3858	3855	3861	3862	9
3865	3860	3859	3866	9
3864	3858	3859	3866	9
3861	3855	3856	3863	9
3861	3855	3858	3864	9
3863	3856	3857	3867	9
3865	3860	3857	3867	9
295	298	297	296	9
295	298	297	304	9
295	294	293	296	9
295	294	293	299	9
295	305	308	309	9
293	296	297	298	9
298	297	296	302	9
298	297	304	306	9
293	294	295	298	9
298	295	294	301	9
298	295	305	307	9
298	295	305	308	9
294	295	298	297	9
297	298	295	305	9
294	293	296	297	9
297	296	293	299	9
296	297	298	303	9
296	297	304	306	9
296	293	294	301	9
296	293	299	300	9
293	296	297	304	9
293	294	295	305	9
294	293	296	302	9
294	293	299	300	9
294	295	298	303	9
294	295	305	307	9
294	295	305	308	9
299	293	296	302	9
299	293	294	301	9
303	298	295	305	9
301	294	295	305	9
303	298	297	304	9
302	296	297	304	9
307	305	308	309	9
324	325	326	329	9
324	325	326	336	9
324	327	328	329	9
324	327	328	335	9
325	326	329	328	9
325	326	329	334	9
325	326	336	338	9
325	326	336	339	9
325	324	327	328	9
325	324	327	333	9
325	324	330	331	9
326	325	324	327	9
326	325	324	330	9
326	329	328	327	9
326	329	328	335	9
326	336	339	340	9
329	326	325	332	9
329	326	336	338	9
329	326	336	339	9
329	328	327	333	9
329	328	335	337	9
328	329	326	336	9
328	327	324	330	9
327	328	329	334	9
327	328	335	337	9
327	324	325	332	9
327	324	330	331	9
334	329	328	335	9
333	327	328	335	9
330	324	325	332	9
330	324	327	333	9
332	325	326	336	9
334	329	326	336	9
338	336	339	340	9
3870	3873	3874	3875	9
3870	3873	3874	3881	9
3870	3871	3872	3875	9
3870	3871	3872	3882	9
3872	3875	3874	3873	9
3873	3874	3875	3880	9
3873	3874	3881	3883	9
3872	3871	3870	3873	9
3873	3870	3871	3878	9
3873	3870	3876	3877	9
3871	3870	3873	3874	9
3874	3873	3870	3876	9
3871	3872	3875	3874	9
3874	3875	3872	3882	9
3875	3874	3873	3879	9
3875	3874	3881	3883	9
3875	3872	3871	3878	9
3875	3872	3882	3884	9
3872	3875	3874	3881	9
3872	3871	3870	3876	9
3871	3872	3875	3880	9
3871	3872	3882	3884	9
3871	3870	3873	3879	9
3871	3870	3876	3877	9
3880	3875	3872	3882	9
3878	3871	3872	3882	9
3876	3870	3873	3879	9
3876	3870	3871	3878	9
3879	3873	3874	3881	9
3880	3875	3874	3881	9
355	358	359	360	9
355	358	359	366	9
355	356	357	360	9
355	356	357	367	9
357	360	359	358	9
358	359	360	365	9
358	359	366	368	9
357	356	355	358	9
358	355	356	363	9
358	355	361	362	9
356	355	358	359	9
359	358	355	361	9
356	357	360	359	9
359	360	357	367	9
360	359	358	364	9
360	359	366	368	9
360	357	356	363	9
360	357	367	369	9
360	357	367	370	9
357	360	359	366	9
357	356	355	361	9
357	367	370	371	9
356	357	360	365	9
356	357	367	369	9
356	357	367	370	9
356	355	358	364	9
356	355	361	362	9
365	360	357	367	9
363	356	357	367	9
361	355	358	364	9
361	355	356	363	9
364	358	359	366	9
365	360	359	366	9
369	367	370	371	9
386	389	390	391	9
386	389	390	397	9
386	387	388	391	9
386	387	388	398	9
388	391	390	389	9
389	390	391	396	9
389	390	397	399	9
388	387	386	389	9
389	386	387	394	9
389	386	392	393	9
387	386	389	390	9
390	389	386	392	9
387	388	391	390	9
390	391	388	398	9
391	390	389	395	9
391	390	397	399	9
391	388	387	394	9
391	388	398	400	9
391	388	398	401	9
388	391	390	397	9
388	387	386	392	9
388	398	401	402	9
387	388	391	396	9
387	388	398	400	9
387	388	398	401	9
387	386	389	395	9
387	386	392	393	9
396	391	388	398	9
394	387	388	398	9
392	386	389	395	9
392	386	387	394	9
395	389	390	397	9
396	391	390	397	9
400	398	401	402	9
3899	3902	3903	3904	9
3899	3902	3903	3910	9
3899	3900	3901	3904	9
3899	3900	3901	3911	9
3901	3904	3903	3902	9
3902	3903	3904	3909	9
3902	3903	3910	3912	9
3901	3900	3899	3902	9
3902	3899	3900	3907	9
3902	3899	3905	3906	9
3900	3899	3902	3903	9
3903	3902	3899	3905	9
3900	3901	3904	3903	9
3903	3904	3901	3911	9
3904	3903	3902	3908	9
3904	3903	3910	3912	9
3904	3901	3900	3907	9
3904	3901	3911	3913	9
3901	3904	3903	3910	9
3901	3900	3899	3905	9
3900	3901	3904	3909	9
3900	3901	3911	3913	9
3900	3899	3902	3908	9
3900	3899	3905	3906	9
3909	3904	3901	3911	9
3907	3900	3901	3911	9
3905	3899	3902	3908	9
3905	3899	3900	3907	9
3908	3902	3903	3910	9
3909	3904	3903	3910	9
3928	3931	3932	3933	9
3928	3931	3932	3939	9
3928	3929	3930	3933	9
3928	3929	3930	3940	9
3930	3933	3932	3931	9
3931	3932	3933	3938	9
3931	3932	3939	3941	9
3930	3929	3928	3931	9
3931	3928	3929	3936	9
3931	3928	3934	3935	9
3929	3928	3931	3932	9
3932	3931	3928	3934	9
3929	3930	3933	3932	9
3932	3933	3930	3940	9
3933	3932	3931	3937	9
3933	3932	3939	3941	9
3933	3930	3929	3936	9
3933	3930	3940	3942	9
3930	3933	3932	3939	9
3930	3929	3928	3934	9
3929	3930	3933	3938	9
3929	3930	3940	3942	9
3929	3928	3931	3937	9
3929	3928	3934	3935	9
3938	3933	3930	3940	9
3936	3929	3930	3940	9
3934	3928	3931	3937	9
3934	3928	3929	3936	9
3937	3931	3932	3939	9
3938	3933	3932	3939	9
419	418	417	420	9
419	418	417	423	9
419	422	421	420	9
419	422	421	428	9
419	429	432	433	9
418	417	420	421	9
418	417	420	426	9
418	417	423	424	9
418	419	422	421	9
418	419	422	427	9
418	419	429	431	9
418	419	429	432	9
417	418	419	422	9
417	418	419	429	9
417	420	421	422	9
417	420	421	428	9
420	417	418	425	9
420	417	423	424	9
420	421	422	427	9
420	421	428	430	9
421	420	417	423	9
421	422	419	429	9
422	421	420	426	9
422	421	428	430	9
422	419	418	425	9
422	419	429	431	9
422	419	429	432	9
426	420	421	428	9
427	422	421	428	9
425	418	419	429	9
427	422	419	429	9
423	417	418	425	9
423	417	420	426	9
431	429	432	433	9
3957	3960	3961	3962	9
3957	3960	3961	3968	9
3957	3958	3959	3962	9
3957	3958	3959	3969	9
3959	3962	3961	3960	9
3960	3961	3962	3967	9
3960	3961	3968	3970	9
3959	3958	3957	3960	9
3960	3957	3958	3965	9
3960	3957	3963	3964	9
3958	3957	3960	3961	9
3961	3960	3957	3963	9
3958	3959	3962	3961	9
3961	3962	3959	3969	9
3962	3961	3960	3966	9
3962	3961	3968	3970	9
3962	3959	3958	3965	9
3962	3959	3969	3971	9
3959	3962	3961	3968	9
3959	3958	3957	3963	9
3958	3959	3962	3967	9
3958	3959	3969	3971	9
3958	3957	3960	3966	9
3958	3957	3963	3964	9
3967	3962	3959	3969	9
3965	3958	3959	3969	9
3963	3957	3960	3966	9
3963	3957	3958	3965	9
3966	3960	3961	3968	9
3967	3962	3961	3968	9
3986	3987	3988	3991	9
3986	3987	3988	3998	9
3986	3989	3990	3991	9
3986	3989	3990	3997	9
3987	3988	3991	3990	9
3987	3988	3991	3996	9
3987	3988	3998	4000	9
3987	3986	3989	3990	9
3987	3986	3989	3995	9
3987	3986	3992	3993	9
3988	3987	3986	3989	9
3988	3987	3986	3992	9
3988	3991	3990	3989	9
3988	3991	3990	3997	9
3991	3988	3987	3994	9
3991	3988	3998	4000	9
3991	3990	3989	3995	9
3991	3990	3997	3999	9
3990	3991	3988	3998	9
3990	3989	3986	3992	9
3989	3990	3991	3996	9
3989	3990	3997	3999	9
3989	3986	3987	3994	9
3989	3986	3992	3993	9
3996	3991	3990	3997	9
3995	3989	3990	3997	9
3992	3986	3987	3994	9
3992	3986	3989	3995	9
3994	3987	3988	3998	9
3996	3991	3988	3998	9
4015	4018	4019	4020	9
4015	4018	4019	4026	9
4015	4016	4017	4020	9
4015	4016	4017	4027	9
4018	4019	4020	4017	9
4018	4019	4020	4025	9
4018	4019	4026	4028	9
4018	4015	4016	4017	9
4018	4015	4016	4023	9
4018	4015	4021	4022	9
4019	4018	4015	4016	9
4019	4018	4015	4021	9
4019	4020	4017	4016	9
4019	4020	4017	4027	9
4020	4019	4018	4024	9
4020	4019	4026	4028	9
4020	4017	4016	4023	9
4020	4017	4027	4029	9
4017	4020	4019	4026	9
4017	4016	4015	4021	9
4016	4017	4020	4025	9
4016	4017	4027	4029	9
4016	4015	4018	4024	9
4016	4015	4021	4022	9
4025	4020	4017	4027	9
4023	4016	4017	4027	9
4021	4015	4018	4024	9
4021	4015	4016	4023	9
4024	4018	4019	4026	9
4025	4020	4019	4026	9
450	449	448	451	9
450	449	448	454	9
450	453	452	451	9
450	453	452	459	9
450	460	463	464	9
449	448	451	452	9
449	448	451	457	9
449	448	454	455	9
449	450	453	452	9
449	450	453	458	9
449	450	460	462	9
449	450	460	463	9
448	449	450	453	9
448	449	450	460	9
448	451	452	453	9
448	451	452	459	9
451	448	449	456	9
451	448	454	455	9
451	452	453	458	9
451	452	459	461	9
452	451	448	454	9
452	453	450	460	9
453	452	451	457	9
453	452	459	461	9
453	450	449	456	9
453	450	460	462	9
453	450	460	463	9
457	451	452	459	9
458	453	452	459	9
456	449	450	460	9
458	453	450	460	9
454	448	449	456	9
454	448	451	457	9
462	460	463	464	9
4044	4047	4048	4049	9
4044	4047	4048	4055	9
4044	4045	4046	4049	9
4044	4045	4046	4056	9
4047	4048	4049	4046	9
4047	4048	4049	4054	9
4047	4048	4055	4057	9
4047	4044	4045	4046	9
4047	4044	4045	4052	9
4047	4044	4050	4051	9
4048	4047	4044	4045	9
4048	4047	4044	4050	9
4048	4049	4046	4045	9
4048	4049	4046	4056	9
4049	4048	4047	4053	9
4049	4048	4055	4057	9
4049	4046	4045	4052	9
4049	4046	4056	4058	9
4046	4049	4048	4055	9
4046	4045	4044	4050	9
4045	4046	4049	4054	9
4045	4046	4056	4058	9
4045	4044	4047	4053	9
4045	4044	4050	4051	9
4054	4049	4046	4056	9
4052	4045	4046	4056	9
4050	4044	4047	4053	9
4050	4044	4045	4052	9
4053	4047	4048	4055	9
4054	4049	4048	4055	9
4073	4074	4075	4078	9
4073	4074	4075	4085	9
4073	4076	4077	4078	9
4073	4076	4077	4084	9
4074	4075	4078	4077	9
4074	4075	4078	4083	9
4074	4075	4085	4087	9
4074	4073	4076	4077	9
4074	4073	4076	4082	9
4074	4073	4079	4080	9
4075	4074	4073	4076	9
4075	4074	4073	4079	9
4075	4078	4077	4076	9
4075	4078	4077	4084	9
4078	4075	4074	4081	9
4078	4075	4085	4087	9
4078	4077	4076	4082	9
4078	4077	4084	4086	9
4077	4078	4075	4085	9
4077	4076	4073	4079	9
4076	4077	4078	4083	9
4076	4077	4084	4086	9
4076	4073	4074	4081	9
4076	4073	4079	4080	9
4083	4078	4077	4084	9
4082	4076	4077	4084	9
4079	4073	4074	4081	9
4079	4073	4076	4082	9
4081	4074	4075	4085	9
4083	4078	4075	4085	9
4102	4103	4104	4107	9
4102	4103	4104	4114	9
4102	4105	4106	4107	9
4102	4105	4106	4113	9
4103	4104	4107	4106	9
4103	4104	4107	4112	9
4103	4104	4114	4116	9
4103	4102	4105	4106	9
4103	4102	4105	4111	9
4103	4102	4108	4109	9
4104	4103	4102	4105	9
4104	4103	4102	4108	9
4104	4107	4106	4105	9
4104	4107	4106	4113	9
4107	4104	4103	4110	9
4107	4104	4114	4116	9
4107	4106	4105	4111	9
4107	4106	4113	4115	9
4106	4107	4104	4114	9
4106	4105	4102	4108	9
4105	4106	4107	4112	9
4105	4106	4113	4115	9
4105	4102	4103	4110	9
4105	4102	4108	4109	9
4112	4107	4106	4113	9
4111	4105	4106	4113	9
4108	4102	4103	4110	9
4108	4102	4105	4111	9
4110	4103	4104	4114	9
4112	4107	4104	4114	9
2	1	4	5	9
5	4	1	7	9
2	3	6	5	9
5	6	3	13	9
5	12	16	17	9
3	2	1	4	9
4	1	2	9	9
4	1	7	8	9
3	6	5	4	9
4	5	6	11	9
4	5	12	14	9
4	5	12	16	9
1	4	5	6	9
1	4	5	12	9
1	2	3	6	9
1	2	3	13	9
2	1	4	10	9
2	1	7	8	9
2	3	6	11	9
2	3	13	15	9
2	3	13	18	9
3	2	1	7	9
3	6	5	12	9
3	13	18	19	9
6	3	2	9	9
6	3	13	15	9
6	3	13	18	9
6	5	4	10	9
6	5	12	14	9
6	5	12	16	9
9	2	3	13	9
11	6	3	13	9
10	4	5	12	9
11	6	5	12	9
7	1	4	10	9
7	1	2	9	9
15	13	18	19	9
14	12	16	17	9
4131	4132	4133	4136	9
4131	4132	4133	4143	9
4131	4134	4135	4136	9
4131	4134	4135	4142	9
4132	4133	4136	4135	9
4132	4133	4136	4141	9
4132	4133	4143	4145	9
4132	4131	4134	4135	9
4132	4131	4134	4140	9
4132	4131	4137	4138	9
4133	4132	4131	4134	9
4133	4132	4131	4137	9
4133	4136	4135	4134	9
4133	4136	4135	4142	9
4136	4133	4132	4139	9
4136	4133	4143	4145	9
4136	4135	4134	4140	9
4136	4135	4142	4144	9
4135	4136	4133	4143	9
4135	4134	4131	4137	9
4134	4135	4136	4141	9
4134	4135	4142	4144	9
4134	4131	4132	4139	9
4134	4131	4137	4138	9
4141	4136	4135	4142	9
4140	4134	4135	4142	9
4137	4131	4132	4139	9
4137	4131	4134	4140	9
4139	4132	4133	4143	9
4141	4136	4133	4143	9
479	480	481	484	9
479	480	481	491	9
479	482	483	484	9
479	482	483	490	9
480	481	484	483	9
480	481	484	489	9
480	481	491	493	9
480	481	491	494	9
480	479	482	483	9
480	479	482	488	9
480	479	485	486	9
481	480	479	482	9
481	480	479	485	9
481	484	483	482	9
481	484	483	490	9
481	491	494	495	9
484	481	480	487	9
484	481	491	493	9
484	481	491	494	9
484	483	482	488	9
484	483	490	492	9
483	484	481	491	9
483	482	479	485	9
482	483	484	489	9
482	483	490	492	9
482	479	480	487	9
482	479	485	486	9
489	484	483	490	9
488	482	483	490	9
485	479	480	487	9
485	479	482	488	9
487	480	481	491	9
489	484	481	491	9
493	491	494	495	9
4160	4161	4162	4165	9
4160	4161	4162	4172	9
4160	4163	4164	4165	9
4160	4163	4164	4171	9
4161	4162	4165	4164	9
4161	4162	4165	4170	9
4161	4162	4172	4174	9
4161	4160	4163	4164	9
4161	4160	4163	4169	9
4161	4160	4166	4167	9
4162	4161	4160	4163	9
4162	4161	4160	4166	9
4162	4165	4164	4163	9
4162	4165	4164	4171	9
4165	4162	4161	4168	9
4165	4162	4172	4174	9
4165	4164	4163	4169	9
4165	4164	4171	4173	9
4164	4165	4162	4172	9
4164	4163	4160	4166	9
4163	4164	4165	4170	9
4163	4164	4171	4173	9
4163	4160	4161	4168	9
4163	4160	4166	4167	9
4170	4165	4164	4171	9
4169	4163	4164	4171	9
4166	4160	4161	4168	9
4166	4160	4163	4169	9
4168	4161	4162	4172	9
4170	4165	4162	4172	9
510	513	514	515	9
510	513	514	521	9
510	511	512	515	9
510	511	512	522	9
512	515	514	513	9
513	514	515	520	9
513	514	521	523	9
512	511	510	513	9
513	510	511	518	9
513	510	516	517	9
511	510	513	514	9
514	513	510	516	9
511	512	515	514	9
514	515	512	522	9
515	514	513	519	9
515	514	521	523	9
515	512	511	518	9
515	512	522	524	9
515	512	522	525	9
512	515	514	521	9
512	511	510	516	9
512	522	525	526	9
511	512	515	520	9
511	512	522	524	9
511	512	522	525	9
511	510	513	519	9
511	510	516	517	9
520	515	512	522	9
518	511	512	522	9
516	510	513	519	9
516	510	511	518	9
519	513	514	521	9
520	515	514	521	9
524	522	525	526	9
4189	4190	4191	4194	9
4189	4190	4191	4201	9
4189	4192	4193	4194	9
4189	4192	4193	4200	9
4190	4191	4194	4193	9
4190	4191	4194	4199	9
4190	4191	4201	4203	9
4190	4189	4192	4193	9
4190	4189	4192	4198	9
4190	4189	4195	4196	9
4191	4190	4189	4192	9
4191	4190	4189	4195	9
4191	4194	4193	4192	9
4191	4194	4193	4200	9
4194	4191	4190	4197	9
4194	4191	4201	4203	9
4194	4193	4192	4198	9
4194	4193	4200	4202	9
4193	4194	4191	4201	9
4193	4192	4189	4195	9
4192	4193	4194	4199	9
4192	4193	4200	4202	9
4192	4189	4190	4197	9
4192	4189	4195	4196	9
4199	4194	4193	4200	9
4198	4192	4193	4200	9
4195	4189	4190	4197	9
4195	4189	4192	4198	9
4197	4190	4191	4201	9
4199	4194	4191	4201	9
4218	4219	4220	4223	9
4218	4219	4220	4230	9
4218	4221	4222	4223	9
4218	4221	4222	4229	9
4219	4220	4223	4222	9
4219	4220	4223	4228	9
4219	4220	4230	4232	9
4219	4218	4221	4222	9
4219	4218	4221	4227	9
4219	4218	4224	4225	9
4220	4219	4218	4221	9
4220	4219	4218	4224	9
4220	4223	4222	4221	9
4220	4223	4222	4229	9
4223	4220	4219	4226	9
4223	4220	4230	4232	9
4223	4222	4221	4227	9
4223	4222	4229	4231	9
4222	4223	4220	4230	9
4222	4221	4218	4224	9
4221	4222	4223	4228	9
4221	4222	4229	4231	9
4221	4218	4219	4226	9
4221	4218	4224	4225	9
4228	4223	4222	4229	9
4227	4221	4222	4229	9
4224	4218	4219	4226	9
4224	4218	4221	4227	9
4226	4219	4220	4230	9
4228	4223	4220	4230	9
4247	4250	4251	4252	9
4247	4250	4251	4258	9
4247	4248	4249	4252	9
4247	4248	4249	4259	9
4250	4251	4252	4249	9
4250	4251	4252	4257	9
4250	4251	4258	4260	9
4250	4247	4248	4249	9
4250	4247	4248	4255	9
4250	4247	4253	4254	9
4251	4250	4247	4248	9
4251	4250	4247	4253	9
4251	4252	4249	4248	9
4251	4252	4249	4259	9
4252	4251	4250	4256	9
4252	4251	4258	4260	9
4252	4249	4248	4255	9
4252	4249	4259	4261	9
4249	4252	4251	4258	9
4249	4248	4247	4253	9
4248	4249	4252	4257	9
4248	4249	4259	4261	9
4248	4247	4250	4256	9
4248	4247	4253	4254	9
4257	4252	4249	4259	9
4255	4248	4249	4259	9
4253	4247	4250	4256	9
4253	4247	4248	4255	9
4256	4250	4251	4258	9
4257	4252	4251	4258	9
4276	4277	4278	4281	9
4276	4277	4278	4288	9
4276	4279	4280	4281	9
4276	4279	4280	4287	9
4280	4281	4278	4277	9
4277	4278	4281	4286	9
4277	4278	4288	4290	9
4280	4279	4276	4277	9
4277	4276	4279	4285	9
4277	4276	4282	4283	9
4279	4276	4277	4278	9
4278	4277	4276	4282	9
4279	4280	4281	4278	9
4278	4281	4280	4287	9
4281	4278	4277	4284	9
4281	4278	4288	4290	9
4281	4280	4279	4285	9
4281	4280	4287	4289	9
4280	4281	4278	4288	9
4280	4279	4276	4282	9
4279	4280	4281	4286	9
4279	4280	4287	4289	9
4279	4276	4277	4284	9
4279	4276	4282	4283	9
4286	4281	4280	4287	9
4285	4279	4280	4287	9
4282	4276	4277	4284	9
4282	4276	4279	4285	9
4284	4277	4278	4288	9
4286	4281	4278	4288	9
541	542	543	546	9
541	542	543	553	9
541	544	545	546	9
541	544	545	552	9
542	543	546	545	9
542	543	546	551	9
542	543	553	555	9
542	543	553	556	9
542	541	544	545	9
542	541	544	550	9
542	541	547	548	9
543	542	541	544	9
543	542	541	547	9
543	546	545	544	9
543	546	545	552	9
543	553	556	557	9
546	543	542	549	9
546	543	553	555	9
546	543	553	556	9
546	545	544	550	9
546	545	552	554	9
545	546	543	553	9
545	544	541	547	9
544	545	546	551	9
544	545	552	554	9
544	541	542	549	9
544	541	547	548	9
551	546	545	552	9
550	544	545	552	9
547	541	542	549	9
547	541	544	550	9
549	542	543	553	9
551	546	543	553	9
555	553	556	557	9
574	573	572	575	9
574	573	572	578	9
574	577	576	575	9
574	577	576	583	9
574	584	587	588	9
573	572	575	576	9
573	572	575	581	9
573	572	578	579	9
573	574	577	576	9
573	574	577	582	9
573	574	584	586	9
573	574	584	587	9
572	573	574	577	9
572	573	574	584	9
572	575	576	577	9
572	575	576	583	9
575	572	573	580	9
575	572	578	579	9
575	576	577	582	9
575	576	583	585	9
576	575	572	578	9
576	577	574	584	9
577	576	575	581	9
577	576	583	585	9
577	574	573	580	9
577	574	584	586	9
577	574	584	587	9
581	575	576	583	9
582	577	576	583	9
580	573	574	584	9
582	577	574	584	9
578	572	573	580	9
578	572	575	581	9
586	584	587	588	9
4291	4294	4295	4296	9
4291	4294	4295	4302	9
4291	4292	4293	4296	9
4291	4292	4293	4303	9
4293	4296	4295	4294	9
4294	4295	4296	4301	9
4294	4295	4302	4304	9
4293	4292	4291	4294	9
4294	4291	4292	4299	9
4294	4291	4297	4298	9
4292	4291	4294	4295	9
4295	4294	4291	4297	9
4292	4293	4296	4295	9
4295	4296	4293	4303	9
4296	4295	4294	4300	9
4296	4295	4302	4304	9
4296	4293	4292	4299	9
4296	4293	4303	4305	9
4293	4296	4295	4302	9
4293	4292	4291	4297	9
4292	4293	4296	4301	9
4292	4293	4303	4305	9
4292	4291	4294	4300	9
4292	4291	4297	4298	9
4301	4296	4293	4303	9
4299	4292	4293	4303	9
4297	4291	4294	4300	9
4297	4291	4292	4299	9
4300	4294	4295	4302	9
4301	4296	4295	4302	9
4322	4325	4324	4323	9
4322	4325	4324	4331	9
4322	4321	4320	4323	9
4322	4321	4320	4326	9
4320	4323	4324	4325	9
4325	4324	4323	4329	9
4325	4324	4331	4333	9
4320	4321	4322	4325	9
4325	4322	4321	4328	9
4325	4322	4332	4334	9
4321	4322	4325	4324	9
4324	4325	4322	4332	9
4321	4320	4323	4324	9
4324	4323	4320	4326	9
4323	4324	4325	4330	9
4323	4324	4331	4333	9
4323	4320	4321	4328	9
4323	4320	4326	4327	9
4320	4323	4324	4331	9
4320	4321	4322	4332	9
4321	4320	4323	4329	9
4321	4320	4326	4327	9
4321	4322	4325	4330	9
4321	4322	4332	4334	9
4326	4320	4323	4329	9
4326	4320	4321	4328	9
4330	4325	4322	4332	9
4328	4321	4322	4332	9
4330	4325	4324	4331	9
4329	4323	4324	4331	9
603	604	605	608	9
603	604	605	615	9
603	606	607	608	9
603	606	607	614	9
604	605	608	607	9
604	605	608	613	9
604	605	615	617	9
604	605	615	618	9
604	603	606	607	9
604	603	606	612	9
604	603	609	610	9
605	604	603	606	9
605	604	603	609	9
605	608	607	606	9
605	608	607	614	9
605	615	618	619	9
608	605	604	611	9
608	605	615	617	9
608	605	615	618	9
608	607	606	612	9
608	607	614	616	9
607	608	605	615	9
607	606	603	609	9
606	607	608	613	9
606	607	614	616	9
606	603	604	611	9
606	603	609	610	9
613	608	607	614	9
612	606	607	614	9
609	603	604	611	9
609	603	606	612	9
611	604	605	615	9
613	608	605	615	9
617	615	618	619	9
4349	4352	4353	4354	9
4349	4352	4353	4360	9
4349	4350	4351	4354	9
4349	4350	4351	4361	9
4351	4354	4353	4352	9
4352	4353	4354	4359	9
4352	4353	4360	4362	9
4351	4350	4349	4352	9
4352	4349	4350	4357	9
4352	4349	4355	4356	9
4350	4349	4352	4353	9
4353	4352	4349	4355	9
4350	4351	4354	4353	9
4353	4354	4351	4361	9
4354	4353	4352	4358	9
4354	4353	4360	4362	9
4354	4351	4350	4357	9
4354	4351	4361	4363	9
4351	4354	4353	4360	9
4351	4350	4349	4355	9
4350	4351	4354	4359	9
4350	4351	4361	4363	9
4350	4349	4352	4358	9
4350	4349	4355	4356	9
4359	4354	4351	4361	9
4357	4350	4351	4361	9
4355	4349	4352	4358	9
4355	4349	4350	4357	9
4358	4352	4353	4360	9
4359	4354	4353	4360	9
634	635	636	639	9
634	635	636	646	9
634	637	638	639	9
634	637	638	645	9
635	636	639	638	9
635	636	639	644	9
635	636	646	648	9
635	636	646	649	9
635	634	637	638	9
635	634	637	643	9
635	634	640	641	9
636	635	634	637	9
636	635	634	640	9
636	639	638	637	9
636	639	638	645	9
636	646	649	650	9
639	636	635	642	9
639	636	646	648	9
639	636	646	649	9
639	638	637	643	9
639	638	645	647	9
638	639	636	646	9
638	637	634	640	9
637	638	639	644	9
637	638	645	647	9
637	634	635	642	9
637	634	640	641	9
644	639	638	645	9
643	637	638	645	9
640	634	635	642	9
640	634	637	643	9
642	635	636	646	9
644	639	636	646	9
648	646	649	650	9
4378	4381	4382	4383	9
4378	4381	4382	4389	9
4378	4379	4380	4383	9
4378	4379	4380	4390	9
4380	4383	4382	4381	9
4381	4382	4383	4388	9
4381	4382	4389	4391	9
4380	4379	4378	4381	9
4381	4378	4379	4386	9
4381	4378	4384	4385	9
4379	4378	4381	4382	9
4382	4381	4378	4384	9
4379	4380	4383	4382	9
4382	4383	4380	4390	9
4383	4382	4381	4387	9
4383	4382	4389	4391	9
4383	4380	4379	4386	9
4383	4380	4390	4392	9
4380	4383	4382	4389	9
4380	4379	4378	4384	9
4379	4380	4383	4388	9
4379	4380	4390	4392	9
4379	4378	4381	4387	9
4379	4378	4384	4385	9
4388	4383	4380	4390	9
4386	4379	4380	4390	9
4384	4378	4381	4387	9
4384	4378	4379	4386	9
4387	4381	4382	4389	9
4388	4383	4382	4389	9
4393	4394	4395	4398	9
4393	4394	4395	4405	9
4393	4396	4397	4398	9
4393	4396	4397	4404	9
4394	4395	4398	4397	9
4394	4395	4398	4403	9
4394	4395	4405	4407	9
4394	4393	4396	4397	9
4394	4393	4396	4402	9
4394	4393	4399	4400	9
4395	4394	4393	4396	9
4395	4394	4393	4399	9
4395	4398	4397	4396	9
4395	4398	4397	4404	9
4398	4395	4394	4401	9
4398	4395	4405	4407	9
4398	4397	4396	4402	9
4398	4397	4404	4406	9
4397	4398	4395	4405	9
4397	4396	4393	4399	9
4396	4397	4398	4403	9
4396	4397	4404	4406	9
4396	4393	4394	4401	9
4396	4393	4399	4400	9
4403	4398	4397	4404	9
4402	4396	4397	4404	9
4399	4393	4394	4401	9
4399	4393	4396	4402	9
4401	4394	4395	4405	9
4403	4398	4395	4405	9
4422	4423	4424	4427	9
4422	4423	4424	4434	9
4422	4425	4426	4427	9
4422	4425	4426	4433	9
4423	4424	4427	4426	9
4423	4424	4427	4432	9
4423	4424	4434	4436	9
4423	4422	4425	4426	9
4423	4422	4425	4431	9
4423	4422	4428	4429	9
4424	4423	4422	4425	9
4424	4423	4422	4428	9
4424	4427	4426	4425	9
4424	4427	4426	4433	9
4427	4424	4423	4430	9
4427	4424	4434	4436	9
4427	4426	4425	4431	9
4427	4426	4433	4435	9
4426	4427	4424	4434	9
4426	4425	4422	4428	9
4425	4426	4427	4432	9
4425	4426	4433	4435	9
4425	4422	4423	4430	9
4425	4422	4428	4429	9
4432	4427	4426	4433	9
4431	4425	4426	4433	9
4428	4422	4423	4430	9
4428	4422	4425	4431	9
4430	4423	4424	4434	9
4432	4427	4424	4434	9
4451	4452	4453	4456	9
4451	4452	4453	4463	9
4451	4454	4455	4456	9
4451	4454	4455	4462	9
4455	4456	4453	4452	9
4452	4453	4456	4461	9
4452	4453	4463	4465	9
4455	4454	4451	4452	9
4452	4451	4454	4460	9
4452	4451	4457	4458	9
4454	4451	4452	4453	9
4453	4452	4451	4457	9
4454	4455	4456	4453	9
4453	4456	4455	4462	9
4456	4453	4452	4459	9
4456	4453	4463	4465	9
4456	4455	4454	4460	9
4456	4455	4462	4464	9
4455	4456	4453	4463	9
4455	4454	4451	4457	9
4454	4455	4456	4461	9
4454	4455	4462	4464	9
4454	4451	4452	4459	9
4454	4451	4457	4458	9
4461	4456	4455	4462	9
4460	4454	4455	4462	9
4457	4451	4452	4459	9
4457	4451	4454	4460	9
4459	4452	4453	4463	9
4461	4456	4453	4463	9
4480	4483	4484	4485	9
4480	4483	4484	4491	9
4480	4481	4482	4485	9
4480	4481	4482	4492	9
4483	4484	4485	4482	9
4483	4484	4485	4490	9
4483	4484	4491	4493	9
4483	4480	4481	4482	9
4483	4480	4481	4488	9
4483	4480	4486	4487	9
4484	4483	4480	4481	9
4484	4483	4480	4486	9
4484	4485	4482	4481	9
4484	4485	4482	4492	9
4485	4484	4483	4489	9
4485	4484	4491	4493	9
4485	4482	4481	4488	9
4485	4482	4492	4494	9
4482	4485	4484	4491	9
4482	4481	4480	4486	9
4481	4482	4485	4490	9
4481	4482	4492	4494	9
4481	4480	4483	4489	9
4481	4480	4486	4487	9
4490	4485	4482	4492	9
4488	4481	4482	4492	9
4486	4480	4483	4489	9
4486	4480	4481	4488	9
4489	4483	4484	4491	9
4490	4485	4484	4491	9
667	666	665	668	9
667	666	665	671	9
667	670	669	668	9
667	670	669	676	9
667	677	680	681	9
666	665	668	669	9
666	665	668	674	9
666	665	671	672	9
666	667	670	669	9
666	667	670	675	9
666	667	677	679	9
666	667	677	680	9
665	666	667	670	9
665	666	667	677	9
665	668	669	670	9
665	668	669	676	9
668	665	666	673	9
668	665	671	672	9
668	669	670	675	9
668	669	676	678	9
669	668	665	671	9
669	670	667	677	9
670	669	668	674	9
670	669	676	678	9
670	667	666	673	9
670	667	677	679	9
670	667	677	680	9
674	668	669	676	9
675	670	669	676	9
673	666	667	677	9
675	670	667	677	9
671	665	666	673	9
671	665	668	674	9
679	677	680	681	9
4509	4510	4511	4514	9
4509	4510	4511	4521	9
4509	4512	4513	4514	9
4509	4512	4513	4520	9
4510	4511	4514	4513	9
4510	4511	4514	4519	9
4510	4511	4521	4523	9
4510	4509	4512	4513	9
4510	4509	4512	4518	9
4510	4509	4515	4516	9
4511	4510	4509	4512	9
4511	4510	4509	4515	9
4511	4514	4513	4512	9
4511	4514	4513	4520	9
4514	4511	4510	4517	9
4514	4511	4521	4523	9
4514	4513	4512	4518	9
4514	4513	4520	4522	9
4513	4514	4511	4521	9
4513	4512	4509	4515	9
4512	4513	4514	4519	9
4512	4513	4520	4522	9
4512	4509	4510	4517	9
4512	4509	4515	4516	9
4519	4514	4513	4520	9
4518	4512	4513	4520	9
4515	4509	4510	4517	9
4515	4509	4512	4518	9
4517	4510	4511	4521	9
4519	4514	4511	4521	9
696	699	700	701	9
696	699	700	707	9
696	697	698	701	9
696	697	698	708	9
698	701	700	699	9
699	700	701	706	9
699	700	707	709	9
698	697	696	699	9
699	696	697	704	9
699	696	702	703	9
697	696	699	700	9
700	699	696	702	9
697	698	701	700	9
700	701	698	708	9
701	700	699	705	9
701	700	707	709	9
701	698	697	704	9
701	698	708	710	9
701	698	708	711	9
698	701	700	707	9
698	697	696	702	9
698	708	711	712	9
697	698	701	706	9
697	698	708	710	9
697	698	708	711	9
697	696	699	705	9
697	696	702	703	9
706	701	698	708	9
704	697	698	708	9
702	696	699	705	9
702	696	697	704	9
705	699	700	707	9
706	701	700	707	9
710	708	711	712	9
4538	4541	4542	4543	9
4538	4541	4542	4549	9
4538	4539	4540	4543	9
4538	4539	4540	4550	9
4540	4543	4542	4541	9
4541	4542	4543	4548	9
4541	4542	4549	4551	9
4540	4539	4538	4541	9
4541	4538	4539	4546	9
4541	4538	4544	4545	9
4539	4538	4541	4542	9
4542	4541	4538	4544	9
4539	4540	4543	4542	9
4542	4543	4540	4550	9
4543	4542	4541	4547	9
4543	4542	4549	4551	9
4543	4540	4539	4546	9
4543	4540	4550	4552	9
4540	4543	4542	4549	9
4540	4539	4538	4544	9
4539	4540	4543	4548	9
4539	4540	4550	4552	9
4539	4538	4541	4547	9
4539	4538	4544	4545	9
4548	4543	4540	4550	9
4546	4539	4540	4550	9
4544	4538	4541	4547	9
4544	4538	4539	4546	9
4547	4541	4542	4549	9
4548	4543	4542	4549	9
4567	4570	4571	4572	9
4567	4570	4571	4578	9
4567	4568	4569	4572	9
4567	4568	4569	4579	9
4569	4572	4571	4570	9
4570	4571	4572	4577	9
4570	4571	4578	4580	9
4569	4568	4567	4570	9
4570	4567	4568	4575	9
4570	4567	4573	4574	9
4568	4567	4570	4571	9
4571	4570	4567	4573	9
4568	4569	4572	4571	9
4571	4572	4569	4579	9
4572	4571	4570	4576	9
4572	4571	4578	4580	9
4572	4569	4568	4575	9
4572	4569	4579	4581	9
4569	4572	4571	4578	9
4569	4568	4567	4573	9
4568	4569	4572	4577	9
4568	4569	4579	4581	9
4568	4567	4570	4576	9
4568	4567	4573	4574	9
4577	4572	4569	4579	9
4575	4568	4569	4579	9
4573	4567	4570	4576	9
4573	4567	4568	4575	9
4576	4570	4571	4578	9
4577	4572	4571	4578	9
4596	4599	4600	4601	9
4596	4599	4600	4607	9
4596	4597	4598	4601	9
4596	4597	4598	4608	9
4598	4601	4600	4599	9
4599	4600	4601	4606	9
4599	4600	4607	4609	9
4598	4597	4596	4599	9
4599	4596	4597	4604	9
4599	4596	4602	4603	9
4597	4596	4599	4600	9
4600	4599	4596	4602	9
4597	4598	4601	4600	9
4600	4601	4598	4608	9
4601	4600	4599	4605	9
4601	4600	4607	4609	9
4601	4598	4597	4604	9
4601	4598	4608	4610	9
4598	4601	4600	4607	9
4598	4597	4596	4602	9
4597	4598	4601	4606	9
4597	4598	4608	4610	9
4597	4596	4599	4605	9
4597	4596	4602	4603	9
4606	4601	4598	4608	9
4604	4597	4598	4608	9
4602	4596	4599	4605	9
4602	4596	4597	4604	9
4605	4599	4600	4607	9
4606	4601	4600	4607	9
4625	4626	4627	4630	9
4625	4626	4627	4637	9
4625	4628	4629	4630	9
4625	4628	4629	4636	9
4626	4627	4630	4629	9
4626	4627	4630	4635	9
4626	4627	4637	4639	9
4626	4625	4628	4629	9
4626	4625	4628	4634	9
4626	4625	4631	4632	9
4627	4626	4625	4628	9
4627	4626	4625	4631	9
4627	4630	4629	4628	9
4627	4630	4629	4636	9
4630	4627	4626	4633	9
4630	4627	4637	4639	9
4630	4629	4628	4634	9
4630	4629	4636	4638	9
4629	4630	4627	4637	9
4629	4628	4625	4631	9
4628	4629	4630	4635	9
4628	4629	4636	4638	9
4628	4625	4626	4633	9
4628	4625	4631	4632	9
4635	4630	4629	4636	9
4634	4628	4629	4636	9
4631	4625	4626	4633	9
4631	4625	4628	4634	9
4633	4626	4627	4637	9
4635	4630	4627	4637	9
727	730	731	732	9
727	730	731	738	9
727	728	729	732	9
727	728	729	739	9
729	732	731	730	9
730	731	732	737	9
730	731	738	740	9
729	728	727	730	9
730	727	728	735	9
730	727	733	734	9
728	727	730	731	9
731	730	727	733	9
728	729	732	731	9
731	732	729	739	9
732	731	730	736	9
732	731	738	740	9
732	729	728	735	9
732	729	739	741	9
732	729	739	742	9
729	732	731	738	9
729	728	727	733	9
729	739	742	743	9
728	729	732	737	9
728	729	739	741	9
728	729	739	742	9
728	727	730	736	9
728	727	733	734	9
737	732	729	739	9
735	728	729	739	9
733	727	730	736	9
733	727	728	735	9
736	730	731	738	9
737	732	731	738	9
741	739	742	743	9
758	761	762	763	9
758	761	762	769	9
758	759	760	763	9
758	759	760	770	9
760	763	762	761	9
761	762	763	768	9
761	762	769	771	9
760	759	758	761	9
761	758	759	766	9
761	758	764	765	9
759	758	761	762	9
762	761	758	764	9
759	760	763	762	9
762	763	760	770	9
763	762	761	767	9
763	762	769	771	9
763	760	759	766	9
763	760	770	772	9
763	760	770	773	9
760	763	762	769	9
760	759	758	764	9
760	770	773	774	9
759	760	763	768	9
759	760	770	772	9
759	760	770	773	9
759	758	761	767	9
759	758	764	765	9
768	763	760	770	9
766	759	760	770	9
764	758	761	767	9
764	758	759	766	9
767	761	762	769	9
768	763	762	769	9
772	770	773	774	9
789	790	791	794	9
789	790	791	801	9
789	792	793	794	9
789	792	793	800	9
790	791	794	793	9
790	791	794	799	9
790	791	801	803	9
790	791	801	804	9
790	789	792	793	9
790	789	792	798	9
790	789	795	796	9
791	790	789	792	9
791	790	789	795	9
791	794	793	792	9
791	794	793	800	9
791	801	804	805	9
794	791	790	797	9
794	791	801	803	9
794	791	801	804	9
794	793	792	798	9
794	793	800	802	9
793	794	791	801	9
793	792	789	795	9
792	793	794	799	9
792	793	800	802	9
792	789	790	797	9
792	789	795	796	9
799	794	793	800	9
798	792	793	800	9
795	789	790	797	9
795	789	792	798	9
797	790	791	801	9
799	794	791	801	9
803	801	804	805	9
4656	4655	4654	4657	9
4656	4655	4654	4660	9
4656	4659	4658	4657	9
4656	4659	4658	4665	9
4655	4654	4657	4658	9
4655	4654	4657	4663	9
4655	4654	4660	4661	9
4655	4656	4659	4658	9
4655	4656	4659	4664	9
4655	4656	4666	4668	9
4654	4655	4656	4659	9
4654	4655	4656	4666	9
4654	4657	4658	4659	9
4654	4657	4658	4665	9
4657	4654	4655	4662	9
4657	4654	4660	4661	9
4657	4658	4659	4664	9
4657	4658	4665	4667	9
4658	4657	4654	4660	9
4658	4659	4656	4666	9
4659	4658	4657	4663	9
4659	4658	4665	4667	9
4659	4656	4655	4662	9
4659	4656	4666	4668	9
4663	4657	4658	4665	9
4664	4659	4658	4665	9
4662	4655	4656	4666	9
4664	4659	4656	4666	9
4660	4654	4655	4662	9
4660	4654	4657	4663	9
4687	4688	4685	4684	9
4687	4688	4685	4695	9
4687	4686	4683	4684	9
4687	4686	4683	4689	9
4683	4684	4685	4688	9
4688	4685	4684	4691	9
4688	4685	4695	4697	9
4683	4686	4687	4688	9
4688	4687	4686	4692	9
4688	4687	4694	4696	9
4686	4687	4688	4685	9
4685	4688	4687	4694	9
4686	4683	4684	4685	9
4685	4684	4683	4689	9
4684	4685	4688	4693	9
4684	4685	4695	4697	9
4684	4683	4686	4692	9
4684	4683	4689	4690	9
4683	4684	4685	4695	9
4683	4686	4687	4694	9
4686	4683	4684	4691	9
4686	4683	4689	4690	9
4686	4687	4688	4693	9
4686	4687	4694	4696	9
4691	4684	4683	4689	9
4692	4686	4683	4689	9
4694	4687	4688	4693	9
4694	4687	4686	4692	9
4693	4688	4685	4695	9
4691	4684	4685	4695	9
4712	4713	4714	4717	9
4712	4713	4714	4724	9
4712	4715	4716	4717	9
4712	4715	4716	4723	9
4716	4717	4714	4713	9
4713	4714	4717	4722	9
4713	4714	4724	4726	9
4716	4715	4712	4713	9
4713	4712	4715	4721	9
4713	4712	4718	4719	9
4715	4712	4713	4714	9
4714	4713	4712	4718	9
4715	4716	4717	4714	9
4714	4717	4716	4723	9
4717	4714	4713	4720	9
4717	4714	4724	4726	9
4717	4716	4715	4721	9
4717	4716	4723	4725	9
4716	4717	4714	4724	9
4716	4715	4712	4718	9
4715	4716	4717	4722	9
4715	4716	4723	4725	9
4715	4712	4713	4720	9
4715	4712	4718	4719	9
4722	4717	4716	4723	9
4721	4715	4716	4723	9
4718	4712	4713	4720	9
4718	4712	4715	4721	9
4720	4713	4714	4724	9
4722	4717	4714	4724	9
36	39	38	37	9
36	39	38	45	9
36	35	34	37	9
36	35	34	40	9
36	46	51	52	9
34	37	38	39	9
39	38	37	43	9
39	38	45	47	9
39	38	45	49	9
34	35	36	39	9
39	36	35	42	9
39	36	46	48	9
39	36	46	51	9
35	36	39	38	9
38	39	36	46	9
35	34	37	38	9
38	37	34	40	9
38	45	49	50	9
37	38	39	44	9
37	38	45	47	9
37	38	45	49	9
37	34	35	42	9
37	34	40	41	9
34	37	38	45	9
34	35	36	46	9
35	34	37	43	9
35	34	40	41	9
35	36	39	44	9
35	36	46	48	9
35	36	46	51	9
40	34	37	43	9
40	34	35	42	9
44	39	36	46	9
42	35	36	46	9
44	39	38	45	9
43	37	38	45	9
48	46	51	52	9
47	45	49	50	9
4741	4742	4743	4746	9
4741	4742	4743	4753	9
4741	4744	4745	4746	9
4741	4744	4745	4752	9
4742	4743	4746	4745	9
4742	4743	4746	4751	9
4742	4743	4753	4755	9
4742	4741	4744	4745	9
4742	4741	4744	4750	9
4742	4741	4747	4748	9
4743	4742	4741	4744	9
4743	4742	4741	4747	9
4743	4746	4745	4744	9
4743	4746	4745	4752	9
4746	4743	4742	4749	9
4746	4743	4753	4755	9
4746	4745	4744	4750	9
4746	4745	4752	4754	9
4745	4746	4743	4753	9
4745	4744	4741	4747	9
4744	4745	4746	4751	9
4744	4745	4752	4754	9
4744	4741	4742	4749	9
4744	4741	4747	4748	9
4751	4746	4745	4752	9
4750	4744	4745	4752	9
4747	4741	4742	4749	9
4747	4741	4744	4750	9
4749	4742	4743	4753	9
4751	4746	4743	4753	9
4770	4773	4774	4775	9
4770	4773	4774	4781	9
4770	4771	4772	4775	9
4770	4771	4772	4782	9
4772	4775	4774	4773	9
4773	4774	4775	4780	9
4773	4774	4781	4783	9
4772	4771	4770	4773	9
4773	4770	4771	4778	9
4773	4770	4776	4777	9
4771	4770	4773	4774	9
4774	4773	4770	4776	9
4771	4772	4775	4774	9
4774	4775	4772	4782	9
4775	4774	4773	4779	9
4775	4774	4781	4783	9
4775	4772	4771	4778	9
4775	4772	4782	4784	9
4772	4775	4774	4781	9
4772	4771	4770	4776	9
4771	4772	4775	4780	9
4771	4772	4782	4784	9
4771	4770	4773	4779	9
4771	4770	4776	4777	9
4780	4775	4772	4782	9
4778	4771	4772	4782	9
4776	4770	4773	4779	9
4776	4770	4771	4778	9
4779	4773	4774	4781	9
4780	4775	4774	4781	9
822	821	820	823	9
822	821	820	826	9
822	825	824	823	9
822	825	824	831	9
822	832	835	836	9
821	820	823	824	9
821	820	823	829	9
821	820	826	827	9
821	822	825	824	9
821	822	825	830	9
821	822	832	834	9
821	822	832	835	9
820	821	822	825	9
820	821	822	832	9
820	823	824	825	9
820	823	824	831	9
823	820	821	828	9
823	820	826	827	9
823	824	825	830	9
823	824	831	833	9
824	823	820	826	9
824	825	822	832	9
825	824	823	829	9
825	824	831	833	9
825	822	821	828	9
825	822	832	834	9
825	822	832	835	9
829	823	824	831	9
830	825	824	831	9
828	821	822	832	9
830	825	822	832	9
826	820	821	828	9
826	820	823	829	9
834	832	835	836	9
4799	4802	4803	4804	9
4799	4802	4803	4810	9
4799	4800	4801	4804	9
4799	4800	4801	4811	9
4801	4804	4803	4802	9
4802	4803	4804	4809	9
4802	4803	4810	4812	9
4801	4800	4799	4802	9
4802	4799	4800	4807	9
4802	4799	4805	4806	9
4800	4799	4802	4803	9
4803	4802	4799	4805	9
4800	4801	4804	4803	9
4803	4804	4801	4811	9
4804	4803	4802	4808	9
4804	4803	4810	4812	9
4804	4801	4800	4807	9
4804	4801	4811	4813	9
4801	4804	4803	4810	9
4801	4800	4799	4805	9
4800	4801	4804	4809	9
4800	4801	4811	4813	9
4800	4799	4802	4808	9
4800	4799	4805	4806	9
4809	4804	4801	4811	9
4807	4800	4801	4811	9
4805	4799	4802	4808	9
4805	4799	4800	4807	9
4808	4802	4803	4810	9
4809	4804	4803	4810	9
4828	4831	4832	4833	9
4828	4831	4832	4839	9
4828	4829	4830	4833	9
4828	4829	4830	4840	9
4830	4833	4832	4831	9
4831	4832	4833	4838	9
4831	4832	4839	4841	9
4830	4829	4828	4831	9
4831	4828	4829	4836	9
4831	4828	4834	4835	9
4829	4828	4831	4832	9
4832	4831	4828	4834	9
4829	4830	4833	4832	9
4832	4833	4830	4840	9
4833	4832	4831	4837	9
4833	4832	4839	4841	9
4833	4830	4829	4836	9
4833	4830	4840	4842	9
4830	4833	4832	4839	9
4830	4829	4828	4834	9
4829	4830	4833	4838	9
4829	4830	4840	4842	9
4829	4828	4831	4837	9
4829	4828	4834	4835	9
4838	4833	4830	4840	9
4836	4829	4830	4840	9
4834	4828	4831	4837	9
4834	4828	4829	4836	9
4837	4831	4832	4839	9
4838	4833	4832	4839	9
853	856	855	854	9
853	856	855	862	9
853	852	851	854	9
853	852	851	857	9
853	863	866	867	9
851	854	855	856	9
856	855	854	860	9
856	855	862	864	9
851	852	853	856	9
856	853	852	859	9
856	853	863	865	9
856	853	863	866	9
852	853	856	855	9
855	856	853	863	9
852	851	854	855	9
855	854	851	857	9
854	855	856	861	9
854	855	862	864	9
854	851	852	859	9
854	851	857	858	9
851	854	855	862	9
851	852	853	863	9
852	851	854	860	9
852	851	857	858	9
852	853	856	861	9
852	853	863	865	9
852	853	863	866	9
857	851	854	860	9
857	851	852	859	9
861	856	853	863	9
859	852	853	863	9
861	856	855	862	9
860	854	855	862	9
865	863	866	867	9
4857	4860	4861	4862	9
4857	4860	4861	4868	9
4857	4858	4859	4862	9
4857	4858	4859	4869	9
4859	4862	4861	4860	9
4860	4861	4862	4867	9
4860	4861	4868	4870	9
4859	4858	4857	4860	9
4860	4857	4858	4865	9
4860	4857	4863	4864	9
4858	4857	4860	4861	9
4861	4860	4857	4863	9
4858	4859	4862	4861	9
4861	4862	4859	4869	9
4862	4861	4860	4866	9
4862	4861	4868	4870	9
4862	4859	4858	4865	9
4862	4859	4869	4871	9
4859	4862	4861	4868	9
4859	4858	4857	4863	9
4858	4859	4862	4867	9
4858	4859	4869	4871	9
4858	4857	4860	4866	9
4858	4857	4863	4864	9
4867	4862	4859	4869	9
4865	4858	4859	4869	9
4863	4857	4860	4866	9
4863	4857	4858	4865	9
4866	4860	4861	4868	9
4867	4862	4861	4868	9
4872	4875	4876	4877	9
4872	4875	4876	4883	9
4872	4873	4874	4877	9
4872	4873	4874	4884	9
4874	4877	4876	4875	9
4875	4876	4877	4882	9
4875	4876	4883	4885	9
4874	4873	4872	4875	9
4875	4872	4873	4880	9
4875	4872	4878	4879	9
4873	4872	4875	4876	9
4876	4875	4872	4878	9
4873	4874	4877	4876	9
4876	4877	4874	4884	9
4877	4876	4875	4881	9
4877	4876	4883	4885	9
4877	4874	4873	4880	9
4877	4874	4884	4886	9
4874	4877	4876	4883	9
4874	4873	4872	4878	9
4873	4874	4877	4882	9
4873	4874	4884	4886	9
4873	4872	4875	4881	9
4873	4872	4878	4879	9
4882	4877	4874	4884	9
4880	4873	4874	4884	9
4878	4872	4875	4881	9
4878	4872	4873	4880	9
4881	4875	4876	4883	9
4882	4877	4876	4883	9
4901	4902	4903	4906	9
4901	4902	4903	4913	9
4901	4904	4905	4906	9
4901	4904	4905	4912	9
4905	4906	4903	4902	9
4902	4903	4906	4911	9
4902	4903	4913	4915	9
4905	4904	4901	4902	9
4902	4901	4904	4910	9
4902	4901	4907	4908	9
4904	4901	4902	4903	9
4903	4902	4901	4907	9
4904	4905	4906	4903	9
4903	4906	4905	4912	9
4906	4903	4902	4909	9
4906	4903	4913	4915	9
4906	4905	4904	4910	9
4906	4905	4912	4914	9
4905	4906	4903	4913	9
4905	4904	4901	4907	9
4904	4905	4906	4911	9
4904	4905	4912	4914	9
4904	4901	4902	4909	9
4904	4901	4907	4908	9
4911	4906	4905	4912	9
4910	4904	4905	4912	9
4907	4901	4902	4909	9
4907	4901	4904	4910	9
4909	4902	4903	4913	9
4911	4906	4903	4913	9
4930	4933	4934	4935	9
4930	4933	4934	4941	9
4930	4931	4932	4935	9
4930	4931	4932	4942	9
4933	4934	4935	4932	9
4933	4934	4935	4940	9
4933	4934	4941	4943	9
4933	4930	4931	4932	9
4933	4930	4931	4938	9
4933	4930	4936	4937	9
4934	4933	4930	4931	9
4934	4933	4930	4936	9
4934	4935	4932	4931	9
4934	4935	4932	4942	9
4935	4934	4933	4939	9
4935	4934	4941	4943	9
4935	4932	4931	4938	9
4935	4932	4942	4944	9
4932	4935	4934	4941	9
4932	4931	4930	4936	9
4931	4932	4935	4940	9
4931	4932	4942	4944	9
4931	4930	4933	4939	9
4931	4930	4936	4937	9
4940	4935	4932	4942	9
4938	4931	4932	4942	9
4936	4930	4933	4939	9
4936	4930	4931	4938	9
4939	4933	4934	4941	9
4940	4935	4934	4941	9
4959	4960	4961	4964	9
4959	4960	4961	4971	9
4959	4962	4963	4964	9
4959	4962	4963	4970	9
4960	4961	4964	4963	9
4960	4961	4964	4969	9
4960	4961	4971	4973	9
4960	4959	4962	4963	9
4960	4959	4962	4968	9
4960	4959	4965	4966	9
4961	4960	4959	4962	9
4961	4960	4959	4965	9
4961	4964	4963	4962	9
4961	4964	4963	4970	9
4964	4961	4960	4967	9
4964	4961	4971	4973	9
4964	4963	4962	4968	9
4964	4963	4970	4972	9
4963	4964	4961	4971	9
4963	4962	4959	4965	9
4962	4963	4964	4969	9
4962	4963	4970	4972	9
4962	4959	4960	4967	9
4962	4959	4965	4966	9
4969	4964	4963	4970	9
4968	4962	4963	4970	9
4965	4959	4960	4967	9
4965	4959	4962	4968	9
4967	4960	4961	4971	9
4969	4964	4961	4971	9
882	885	886	887	9
882	885	886	893	9
882	883	884	887	9
882	883	884	894	9
884	887	886	885	9
885	886	887	892	9
885	886	893	895	9
884	883	882	885	9
885	882	883	890	9
885	882	888	889	9
883	882	885	886	9
886	885	882	888	9
883	884	887	886	9
886	887	884	894	9
887	886	885	891	9
887	886	893	895	9
887	884	883	890	9
887	884	894	896	9
887	884	894	897	9
884	887	886	893	9
884	883	882	888	9
884	894	897	898	9
883	884	887	892	9
883	884	894	896	9
883	884	894	897	9
883	882	885	891	9
883	882	888	889	9
892	887	884	894	9
890	883	884	894	9
888	882	885	891	9
888	882	883	890	9
891	885	886	893	9
892	887	886	893	9
896	894	897	898	9
4988	4989	4990	4993	9
4988	4989	4990	5000	9
4988	4991	4992	4993	9
4988	4991	4992	4999	9
4989	4990	4993	4992	9
4989	4990	4993	4998	9
4989	4990	5000	5002	9
4989	4988	4991	4992	9
4989	4988	4991	4997	9
4989	4988	4994	4995	9
4990	4989	4988	4991	9
4990	4989	4988	4994	9
4990	4993	4992	4991	9
4990	4993	4992	4999	9
4993	4990	4989	4996	9
4993	4990	5000	5002	9
4993	4992	4991	4997	9
4993	4992	4999	5001	9
4992	4993	4990	5000	9
4992	4991	4988	4994	9
4991	4992	4993	4998	9
4991	4992	4999	5001	9
4991	4988	4989	4996	9
4991	4988	4994	4995	9
4998	4993	4992	4999	9
4997	4991	4992	4999	9
4994	4988	4989	4996	9
4994	4988	4991	4997	9
4996	4989	4990	5000	9
4998	4993	4990	5000	9
913	916	917	918	9
913	916	917	924	9
913	914	915	918	9
913	914	915	925	9
915	918	917	916	9
916	917	918	923	9
916	917	924	926	9
915	914	913	916	9
916	913	914	921	9
916	913	919	920	9
914	913	916	917	9
917	916	913	919	9
914	915	918	917	9
917	918	915	925	9
918	917	916	922	9
918	917	924	926	9
918	915	914	921	9
918	915	925	927	9
918	915	925	928	9
915	918	917	924	9
915	914	913	919	9
915	925	928	929	9
914	915	918	923	9
914	915	925	927	9
914	915	925	928	9
914	913	916	922	9
914	913	919	920	9
923	918	915	925	9
921	914	915	925	9
919	913	916	922	9
919	913	914	921	9
922	916	917	924	9
923	918	917	924	9
927	925	928	929	9
5003	5004	5005	5008	9
5003	5004	5005	5015	9
5003	5006	5007	5008	9
5003	5006	5007	5014	9
5004	5005	5008	5007	9
5004	5005	5008	5013	9
5004	5005	5015	5017	9
5004	5003	5006	5007	9
5004	5003	5006	5012	9
5004	5003	5009	5010	9
5005	5004	5003	5006	9
5005	5004	5003	5009	9
5005	5008	5007	5006	9
5005	5008	5007	5014	9
5008	5005	5004	5011	9
5008	5005	5015	5017	9
5008	5007	5006	5012	9
5008	5007	5014	5016	9
5007	5008	5005	5015	9
5007	5006	5003	5009	9
5006	5007	5008	5013	9
5006	5007	5014	5016	9
5006	5003	5004	5011	9
5006	5003	5009	5010	9
5013	5008	5007	5014	9
5012	5006	5007	5014	9
5009	5003	5004	5011	9
5009	5003	5006	5012	9
5011	5004	5005	5015	9
5013	5008	5005	5015	9
5032	5033	5034	5037	9
5032	5033	5034	5044	9
5032	5035	5036	5037	9
5032	5035	5036	5043	9
5033	5034	5037	5036	9
5033	5034	5037	5042	9
5033	5034	5044	5046	9
5033	5032	5035	5036	9
5033	5032	5035	5041	9
5033	5032	5038	5039	9
5034	5033	5032	5035	9
5034	5033	5032	5038	9
5034	5037	5036	5035	9
5034	5037	5036	5043	9
5037	5034	5033	5040	9
5037	5034	5044	5046	9
5037	5036	5035	5041	9
5037	5036	5043	5045	9
5036	5037	5034	5044	9
5036	5035	5032	5038	9
5035	5036	5037	5042	9
5035	5036	5043	5045	9
5035	5032	5033	5040	9
5035	5032	5038	5039	9
5042	5037	5036	5043	9
5041	5035	5036	5043	9
5038	5032	5033	5040	9
5038	5032	5035	5041	9
5040	5033	5034	5044	9
5042	5037	5034	5044	9
944	945	946	949	9
944	945	946	956	9
944	947	948	949	9
944	947	948	955	9
945	946	949	948	9
945	946	949	954	9
945	946	956	958	9
945	946	956	959	9
945	944	947	948	9
945	944	947	953	9
945	944	950	951	9
946	945	944	947	9
946	945	944	950	9
946	949	948	947	9
946	949	948	955	9
946	956	959	960	9
949	946	945	952	9
949	946	956	958	9
949	946	956	959	9
949	948	947	953	9
949	948	955	957	9
948	949	946	956	9
948	947	944	950	9
947	948	949	954	9
947	948	955	957	9
947	944	945	952	9
947	944	950	951	9
954	949	948	955	9
953	947	948	955	9
950	944	945	952	9
950	944	947	953	9
952	945	946	956	9
954	949	946	956	9
958	956	959	960	9
5061	5062	5063	5066	9
5061	5062	5063	5073	9
5061	5064	5065	5066	9
5061	5064	5065	5072	9
5062	5063	5066	5065	9
5062	5063	5066	5071	9
5062	5063	5073	5075	9
5062	5061	5064	5065	9
5062	5061	5064	5070	9
5062	5061	5067	5068	9
5063	5062	5061	5064	9
5063	5062	5061	5067	9
5063	5066	5065	5064	9
5063	5066	5065	5072	9
5066	5063	5062	5069	9
5066	5063	5073	5075	9
5066	5065	5064	5070	9
5066	5065	5072	5074	9
5065	5066	5063	5073	9
5065	5064	5061	5067	9
5064	5065	5066	5071	9
5064	5065	5072	5074	9
5064	5061	5062	5069	9
5064	5061	5067	5068	9
5071	5066	5065	5072	9
5070	5064	5065	5072	9
5067	5061	5062	5069	9
5067	5061	5064	5070	9
5069	5062	5063	5073	9
5071	5066	5063	5073	9
5076	5077	5078	5081	9
5076	5077	5078	5088	9
5076	5079	5080	5081	9
5076	5079	5080	5087	9
5077	5078	5081	5080	9
5077	5078	5081	5086	9
5077	5078	5088	5090	9
5077	5076	5079	5080	9
5077	5076	5079	5085	9
5077	5076	5082	5083	9
5078	5077	5076	5079	9
5078	5077	5076	5082	9
5078	5081	5080	5079	9
5078	5081	5080	5087	9
5081	5078	5077	5084	9
5081	5078	5088	5090	9
5081	5080	5079	5085	9
5081	5080	5087	5089	9
5080	5081	5078	5088	9
5080	5079	5076	5082	9
5079	5080	5081	5086	9
5079	5080	5087	5089	9
5079	5076	5077	5084	9
5079	5076	5082	5083	9
5086	5081	5080	5087	9
5085	5079	5080	5087	9
5082	5076	5077	5084	9
5082	5076	5079	5085	9
5084	5077	5078	5088	9
5086	5081	5078	5088	9
5105	5106	5107	5110	9
5105	5106	5107	5117	9
5105	5108	5109	5110	9
5105	5108	5109	5116	9
5109	5110	5107	5106	9
5106	5107	5110	5115	9
5106	5107	5117	5119	9
5109	5108	5105	5106	9
5106	5105	5108	5114	9
5106	5105	5111	5112	9
5108	5105	5106	5107	9
5107	5106	5105	5111	9
5108	5109	5110	5107	9
5107	5110	5109	5116	9
5110	5107	5106	5113	9
5110	5107	5117	5119	9
5110	5109	5108	5114	9
5110	5109	5116	5118	9
5109	5110	5107	5117	9
5109	5108	5105	5111	9
5108	5109	5110	5115	9
5108	5109	5116	5118	9
5108	5105	5106	5113	9
5108	5105	5111	5112	9
5115	5110	5109	5116	9
5114	5108	5109	5116	9
5111	5105	5106	5113	9
5111	5105	5108	5114	9
5113	5106	5107	5117	9
5115	5110	5107	5117	9
5134	5135	5136	5139	9
5134	5135	5136	5146	9
5134	5137	5138	5139	9
5134	5137	5138	5145	9
5138	5139	5136	5135	9
5135	5136	5139	5144	9
5135	5136	5146	5148	9
5138	5137	5134	5135	9
5135	5134	5137	5143	9
5135	5134	5140	5141	9
5137	5134	5135	5136	9
5136	5135	5134	5140	9
5137	5138	5139	5136	9
5136	5139	5138	5145	9
5139	5136	5135	5142	9
5139	5136	5146	5148	9
5139	5138	5137	5143	9
5139	5138	5145	5147	9
5138	5139	5136	5146	9
5138	5137	5134	5140	9
5137	5138	5139	5144	9
5137	5138	5145	5147	9
5137	5134	5135	5142	9
5137	5134	5140	5141	9
5144	5139	5138	5145	9
5143	5137	5138	5145	9
5140	5134	5135	5142	9
5140	5134	5137	5143	9
5142	5135	5136	5146	9
5144	5139	5136	5146	9
5163	5166	5167	5168	9
5163	5166	5167	5174	9
5163	5164	5165	5168	9
5163	5164	5165	5175	9
5165	5168	5167	5166	9
5166	5167	5168	5173	9
5166	5167	5174	5176	9
5165	5164	5163	5166	9
5166	5163	5164	5171	9
5166	5163	5169	5170	9
5164	5163	5166	5167	9
5167	5166	5163	5169	9
5164	5165	5168	5167	9
5167	5168	5165	5175	9
5168	5167	5166	5172	9
5168	5167	5174	5176	9
5168	5165	5164	5171	9
5168	5165	5175	5177	9
5165	5168	5167	5174	9
5165	5164	5163	5169	9
5164	5165	5168	5173	9
5164	5165	5175	5177	9
5164	5163	5166	5172	9
5164	5163	5169	5170	9
5173	5168	5165	5175	9
5171	5164	5165	5175	9
5169	5163	5166	5172	9
5169	5163	5164	5171	9
5172	5166	5167	5174	9
5173	5168	5167	5174	9
5192	5195	5196	5197	9
5192	5195	5196	5203	9
5192	5193	5194	5197	9
5192	5193	5194	5204	9
5194	5197	5196	5195	9
5195	5196	5197	5202	9
5195	5196	5203	5205	9
5194	5193	5192	5195	9
5195	5192	5193	5200	9
5195	5192	5198	5199	9
5193	5192	5195	5196	9
5196	5195	5192	5198	9
5193	5194	5197	5196	9
5196	5197	5194	5204	9
5197	5196	5195	5201	9
5197	5196	5203	5205	9
5197	5194	5193	5200	9
5197	5194	5204	5206	9
5194	5197	5196	5203	9
5194	5193	5192	5198	9
5193	5194	5197	5202	9
5193	5194	5204	5206	9
5193	5192	5195	5201	9
5193	5192	5198	5199	9
5202	5197	5194	5204	9
5200	5193	5194	5204	9
5198	5192	5195	5201	9
5198	5192	5193	5200	9
5201	5195	5196	5203	9
5202	5197	5196	5203	9
975	978	979	980	9
975	978	979	986	9
975	976	977	980	9
975	976	977	987	9
977	980	979	978	9
978	979	980	985	9
978	979	986	988	9
977	976	975	978	9
978	975	976	983	9
978	975	981	982	9
976	975	978	979	9
979	978	975	981	9
976	977	980	979	9
979	980	977	987	9
980	979	978	984	9
980	979	986	988	9
980	977	976	983	9
980	977	987	989	9
980	977	987	990	9
977	980	979	986	9
977	976	975	981	9
977	987	990	991	9
976	977	980	985	9
976	977	987	989	9
976	977	987	990	9
976	975	978	984	9
976	975	981	982	9
985	980	977	987	9
983	976	977	987	9
981	975	978	984	9
981	975	976	983	9
984	978	979	986	9
985	980	979	986	9
989	987	990	991	9
1006	1007	1008	1011	9
1006	1007	1008	1018	9
1006	1009	1010	1011	9
1006	1009	1010	1017	9
1007	1008	1011	1010	9
1007	1008	1011	1016	9
1007	1008	1018	1020	9
1007	1008	1018	1021	9
1007	1006	1009	1010	9
1007	1006	1009	1015	9
1007	1006	1012	1013	9
1008	1007	1006	1009	9
1008	1007	1006	1012	9
1008	1011	1010	1009	9
1008	1011	1010	1017	9
1008	1018	1021	1022	9
1011	1008	1007	1014	9
1011	1008	1018	1020	9
1011	1008	1018	1021	9
1011	1010	1009	1015	9
1011	1010	1017	1019	9
1010	1011	1008	1018	9
1010	1009	1006	1012	9
1009	1010	1011	1016	9
1009	1010	1017	1019	9
1009	1006	1007	1014	9
1009	1006	1012	1013	9
1016	1011	1010	1017	9
1015	1009	1010	1017	9
1012	1006	1007	1014	9
1012	1006	1009	1015	9
1014	1007	1008	1018	9
1016	1011	1008	1018	9
1020	1018	1021	1022	9
5221	5224	5225	5226	9
5221	5224	5225	5232	9
5221	5222	5223	5226	9
5221	5222	5223	5233	9
5223	5226	5225	5224	9
5224	5225	5226	5231	9
5224	5225	5232	5234	9
5223	5222	5221	5224	9
5224	5221	5222	5229	9
5224	5221	5227	5228	9
5222	5221	5224	5225	9
5225	5224	5221	5227	9
5222	5223	5226	5225	9
5225	5226	5223	5233	9
5226	5225	5224	5230	9
5226	5225	5232	5234	9
5226	5223	5222	5229	9
5226	5223	5233	5235	9
5223	5226	5225	5232	9
5223	5222	5221	5227	9
5222	5223	5226	5231	9
5222	5223	5233	5235	9
5222	5221	5224	5230	9
5222	5221	5227	5228	9
5231	5226	5223	5233	9
5229	5222	5223	5233	9
5227	5221	5224	5230	9
5227	5221	5222	5229	9
5230	5224	5225	5232	9
5231	5226	5225	5232	9
5250	5253	5254	5255	9
5250	5253	5254	5261	9
5250	5251	5252	5255	9
5250	5251	5252	5262	9
5252	5255	5254	5253	9
5253	5254	5255	5260	9
5253	5254	5261	5263	9
5252	5251	5250	5253	9
5253	5250	5251	5258	9
5253	5250	5256	5257	9
5251	5250	5253	5254	9
5254	5253	5250	5256	9
5251	5252	5255	5254	9
5254	5255	5252	5262	9
5255	5254	5253	5259	9
5255	5254	5261	5263	9
5255	5252	5251	5258	9
5255	5252	5262	5264	9
5252	5255	5254	5261	9
5252	5251	5250	5256	9
5251	5252	5255	5260	9
5251	5252	5262	5264	9
5251	5250	5253	5259	9
5251	5250	5256	5257	9
5260	5255	5252	5262	9
5258	5251	5252	5262	9
5256	5250	5253	5259	9
5256	5250	5251	5258	9
5259	5253	5254	5261	9
5260	5255	5254	5261	9
5279	5280	5281	5284	9
5279	5280	5281	5291	9
5279	5282	5283	5284	9
5279	5282	5283	5290	9
5280	5281	5284	5283	9
5280	5281	5284	5289	9
5280	5281	5291	5293	9
5280	5279	5282	5283	9
5280	5279	5282	5288	9
5280	5279	5285	5286	9
5281	5280	5279	5282	9
5281	5280	5279	5285	9
5281	5284	5283	5282	9
5281	5284	5283	5290	9
5284	5281	5280	5287	9
5284	5281	5291	5293	9
5284	5283	5282	5288	9
5284	5283	5290	5292	9
5283	5284	5281	5291	9
5283	5282	5279	5285	9
5282	5283	5284	5289	9
5282	5283	5290	5292	9
5282	5279	5280	5287	9
5282	5279	5285	5286	9
5289	5284	5283	5290	9
5288	5282	5283	5290	9
5285	5279	5280	5287	9
5285	5279	5282	5288	9
5287	5280	5281	5291	9
5289	5284	5281	5291	9
5308	5309	5310	5313	9
5308	5309	5310	5320	9
5308	5311	5312	5313	9
5308	5311	5312	5319	9
5309	5310	5313	5312	9
5309	5310	5313	5318	9
5309	5310	5320	5322	9
5309	5308	5311	5312	9
5309	5308	5311	5317	9
5309	5308	5314	5315	9
5310	5309	5308	5311	9
5310	5309	5308	5314	9
5310	5313	5312	5311	9
5310	5313	5312	5319	9
5313	5310	5309	5316	9
5313	5310	5320	5322	9
5313	5312	5311	5317	9
5313	5312	5319	5321	9
5312	5313	5310	5320	9
5312	5311	5308	5314	9
5311	5312	5313	5318	9
5311	5312	5319	5321	9
5311	5308	5309	5316	9
5311	5308	5314	5315	9
5318	5313	5312	5319	9
5317	5311	5312	5319	9
5314	5308	5309	5316	9
5314	5308	5311	5317	9
5316	5309	5310	5320	9
5318	5313	5310	5320	9
5337	5340	5341	5342	9
5337	5340	5341	5348	9
5337	5338	5339	5342	9
5337	5338	5339	5349	9
5340	5341	5342	5339	9
5340	5341	5342	5347	9
5340	5341	5348	5350	9
5340	5337	5338	5339	9
5340	5337	5338	5345	9
5340	5337	5343	5344	9
5341	5340	5337	5338	9
5341	5340	5337	5343	9
5341	5342	5339	5338	9
5341	5342	5339	5349	9
5342	5341	5340	5346	9
5342	5341	5348	5350	9
5342	5339	5338	5345	9
5342	5339	5349	5351	9
5339	5342	5341	5348	9
5339	5338	5337	5343	9
5338	5339	5342	5347	9
5338	5339	5349	5351	9
5338	5337	5340	5346	9
5338	5337	5343	5344	9
5347	5342	5339	5349	9
5345	5338	5339	5349	9
5343	5337	5340	5346	9
5343	5337	5338	5345	9
5346	5340	5341	5348	9
5347	5342	5341	5348	9
5352	5355	5356	5357	9
5352	5355	5356	5363	9
5352	5353	5354	5357	9
5352	5353	5354	5364	9
5355	5356	5357	5354	9
5355	5356	5357	5362	9
5355	5356	5363	5365	9
5355	5352	5353	5354	9
5355	5352	5353	5360	9
5355	5352	5358	5359	9
5356	5355	5352	5353	9
5356	5355	5352	5358	9
5356	5357	5354	5353	9
5356	5357	5354	5364	9
5357	5356	5355	5361	9
5357	5356	5363	5365	9
5357	5354	5353	5360	9
5357	5354	5364	5366	9
5354	5357	5356	5363	9
5354	5353	5352	5358	9
5353	5354	5357	5362	9
5353	5354	5364	5366	9
5353	5352	5355	5361	9
5353	5352	5358	5359	9
5362	5357	5354	5364	9
5360	5353	5354	5364	9
5358	5352	5355	5361	9
5358	5352	5353	5360	9
5361	5355	5356	5363	9
5362	5357	5356	5363	9
5381	5384	5385	5386	9
5381	5384	5385	5392	9
5381	5382	5383	5386	9
5381	5382	5383	5393	9
5383	5386	5385	5384	9
5384	5385	5386	5391	9
5384	5385	5392	5394	9
5383	5382	5381	5384	9
5384	5381	5382	5389	9
5384	5381	5387	5388	9
5382	5381	5384	5385	9
5385	5384	5381	5387	9
5382	5383	5386	5385	9
5385	5386	5383	5393	9
5386	5385	5384	5390	9
5386	5385	5392	5394	9
5386	5383	5382	5389	9
5386	5383	5393	5395	9
5383	5386	5385	5392	9
5383	5382	5381	5387	9
5382	5383	5386	5391	9
5382	5383	5393	5395	9
5382	5381	5384	5390	9
5382	5381	5387	5388	9
5391	5386	5383	5393	9
5389	5382	5383	5393	9
5387	5381	5384	5390	9
5387	5381	5382	5389	9
5390	5384	5385	5392	9
5391	5386	5385	5392	9
5410	5413	5414	5415	9
5410	5413	5414	5421	9
5410	5411	5412	5415	9
5410	5411	5412	5422	9
5412	5415	5414	5413	9
5413	5414	5415	5420	9
5413	5414	5421	5423	9
5412	5411	5410	5413	9
5413	5410	5411	5418	9
5413	5410	5416	5417	9
5411	5410	5413	5414	9
5414	5413	5410	5416	9
5411	5412	5415	5414	9
5414	5415	5412	5422	9
5415	5414	5413	5419	9
5415	5414	5421	5423	9
5415	5412	5411	5418	9
5415	5412	5422	5424	9
5412	5415	5414	5421	9
5412	5411	5410	5416	9
5411	5412	5415	5420	9
5411	5412	5422	5424	9
5411	5410	5413	5419	9
5411	5410	5416	5417	9
5420	5415	5412	5422	9
5418	5411	5412	5422	9
5416	5410	5413	5419	9
5416	5410	5411	5418	9
5419	5413	5414	5421	9
5420	5415	5414	5421	9
5439	5442	5443	5444	9
5439	5442	5443	5450	9
5439	5440	5441	5444	9
5439	5440	5441	5451	9
5441	5444	5443	5442	9
5442	5443	5444	5449	9
5442	5443	5450	5452	9
5441	5440	5439	5442	9
5442	5439	5440	5447	9
5442	5439	5445	5446	9
5440	5439	5442	5443	9
5443	5442	5439	5445	9
5440	5441	5444	5443	9
5443	5444	5441	5451	9
5444	5443	5442	5448	9
5444	5443	5450	5452	9
5444	5441	5440	5447	9
5444	5441	5451	5453	9
5441	5444	5443	5450	9
5441	5440	5439	5445	9
5440	5441	5444	5449	9
5440	5441	5451	5453	9
5440	5439	5442	5448	9
5440	5439	5445	5446	9
5449	5444	5441	5451	9
5447	5440	5441	5451	9
5445	5439	5442	5448	9
5445	5439	5440	5447	9
5448	5442	5443	5450	9
5449	5444	5443	5450	9
5468	5471	5472	5473	9
5468	5471	5472	5479	9
5468	5469	5470	5473	9
5468	5469	5470	5480	9
5470	5473	5472	5471	9
5471	5472	5473	5478	9
5471	5472	5479	5481	9
5470	5469	5468	5471	9
5471	5468	5469	5476	9
5471	5468	5474	5475	9
5469	5468	5471	5472	9
5472	5471	5468	5474	9
5469	5470	5473	5472	9
5472	5473	5470	5480	9
5473	5472	5471	5477	9
5473	5472	5479	5481	9
5473	5470	5469	5476	9
5473	5470	5480	5482	9
5470	5473	5472	5479	9
5470	5469	5468	5474	9
5469	5470	5473	5478	9
5469	5470	5480	5482	9
5469	5468	5471	5477	9
5469	5468	5474	5475	9
5478	5473	5470	5480	9
5476	5469	5470	5480	9
5474	5468	5471	5477	9
5474	5468	5469	5476	9
5477	5471	5472	5479	9
5478	5473	5472	5479	9
5483	5484	5485	5488	9
5483	5484	5485	5495	9
5483	5486	5487	5488	9
5483	5486	5487	5494	9
5484	5485	5488	5487	9
5484	5485	5488	5493	9
5484	5485	5495	5497	9
5484	5483	5486	5487	9
5484	5483	5486	5492	9
5484	5483	5489	5490	9
5485	5484	5483	5486	9
5485	5484	5483	5489	9
5485	5488	5487	5486	9
5485	5488	5487	5494	9
5488	5485	5484	5491	9
5488	5485	5495	5497	9
5488	5487	5486	5492	9
5488	5487	5494	5496	9
5487	5488	5485	5495	9
5487	5486	5483	5489	9
5486	5487	5488	5493	9
5486	5487	5494	5496	9
5486	5483	5484	5491	9
5486	5483	5489	5490	9
5493	5488	5487	5494	9
5492	5486	5487	5494	9
5489	5483	5484	5491	9
5489	5483	5486	5492	9
5491	5484	5485	5495	9
5493	5488	5485	5495	9
5512	5513	5514	5517	9
5512	5513	5514	5524	9
5512	5515	5516	5517	9
5512	5515	5516	5523	9
5513	5514	5517	5516	9
5513	5514	5517	5522	9
5513	5514	5524	5526	9
5513	5512	5515	5516	9
5513	5512	5515	5521	9
5513	5512	5518	5519	9
5514	5513	5512	5515	9
5514	5513	5512	5518	9
5514	5517	5516	5515	9
5514	5517	5516	5523	9
5517	5514	5513	5520	9
5517	5514	5524	5526	9
5517	5516	5515	5521	9
5517	5516	5523	5525	9
5516	5517	5514	5524	9
5516	5515	5512	5518	9
5515	5516	5517	5522	9
5515	5516	5523	5525	9
5515	5512	5513	5520	9
5515	5512	5518	5519	9
5522	5517	5516	5523	9
5521	5515	5516	5523	9
5518	5512	5513	5520	9
5518	5512	5515	5521	9
5520	5513	5514	5524	9
5522	5517	5514	5524	9
5541	5544	5545	5546	9
5541	5544	5545	5552	9
5541	5542	5543	5546	9
5541	5542	5543	5553	9
5544	5545	5546	5543	9
5544	5545	5546	5551	9
5544	5545	5552	5554	9
5544	5541	5542	5543	9
5544	5541	5542	5549	9
5544	5541	5547	5548	9
5545	5544	5541	5542	9
5545	5544	5541	5547	9
5545	5546	5543	5542	9
5545	5546	5543	5553	9
5546	5545	5544	5550	9
5546	5545	5552	5554	9
5546	5543	5542	5549	9
5546	5543	5553	5555	9
5543	5546	5545	5552	9
5543	5542	5541	5547	9
5542	5543	5546	5551	9
5542	5543	5553	5555	9
5542	5541	5544	5550	9
5542	5541	5547	5548	9
5551	5546	5543	5553	9
5549	5542	5543	5553	9
5547	5541	5544	5550	9
5547	5541	5542	5549	9
5550	5544	5545	5552	9
5551	5546	5545	5552	9
1037	1040	1041	1042	9
1037	1040	1041	1048	9
1037	1038	1039	1042	9
1037	1038	1039	1049	9
1039	1042	1041	1040	9
1040	1041	1042	1047	9
1040	1041	1048	1050	9
1039	1038	1037	1040	9
1040	1037	1038	1045	9
1040	1037	1043	1044	9
1038	1037	1040	1041	9
1041	1040	1037	1043	9
1038	1039	1042	1041	9
1041	1042	1039	1049	9
1042	1041	1040	1046	9
1042	1041	1048	1050	9
1042	1039	1038	1045	9
1042	1039	1049	1051	9
1042	1039	1049	1052	9
1039	1042	1041	1048	9
1039	1038	1037	1043	9
1039	1049	1052	1053	9
1038	1039	1042	1047	9
1038	1039	1049	1051	9
1038	1039	1049	1052	9
1038	1037	1040	1046	9
1038	1037	1043	1044	9
1047	1042	1039	1049	9
1045	1038	1039	1049	9
1043	1037	1040	1046	9
1043	1037	1038	1045	9
1046	1040	1041	1048	9
1047	1042	1041	1048	9
1051	1049	1052	1053	9
5570	5573	5574	5575	9
5570	5573	5574	5581	9
5570	5571	5572	5575	9
5570	5571	5572	5582	9
5573	5574	5575	5572	9
5573	5574	5575	5580	9
5573	5574	5581	5583	9
5573	5570	5571	5572	9
5573	5570	5571	5578	9
5573	5570	5576	5577	9
5574	5573	5570	5571	9
5574	5573	5570	5576	9
5574	5575	5572	5571	9
5574	5575	5572	5582	9
5575	5574	5573	5579	9
5575	5574	5581	5583	9
5575	5572	5571	5578	9
5575	5572	5582	5584	9
5572	5575	5574	5581	9
5572	5571	5570	5576	9
5571	5572	5575	5580	9
5571	5572	5582	5584	9
5571	5570	5573	5579	9
5571	5570	5576	5577	9
5580	5575	5572	5582	9
5578	5571	5572	5582	9
5576	5570	5573	5579	9
5576	5570	5571	5578	9
5579	5573	5574	5581	9
5580	5575	5574	5581	9
5587	5586	5585	5588	9
5587	5586	5585	5591	9
5587	5590	5589	5588	9
5587	5590	5589	5596	9
5586	5585	5588	5589	9
5586	5585	5588	5594	9
5586	5585	5591	5592	9
5586	5587	5590	5589	9
5586	5587	5590	5595	9
5586	5587	5597	5599	9
5585	5586	5587	5590	9
5585	5586	5587	5597	9
5585	5588	5589	5590	9
5585	5588	5589	5596	9
5588	5585	5586	5593	9
5588	5585	5591	5592	9
5588	5589	5590	5595	9
5588	5589	5596	5598	9
5589	5588	5585	5591	9
5589	5590	5587	5597	9
5590	5589	5588	5594	9
5590	5589	5596	5598	9
5590	5587	5586	5593	9
5590	5587	5597	5599	9
5594	5588	5589	5596	9
5595	5590	5589	5596	9
5593	5586	5587	5597	9
5595	5590	5587	5597	9
5591	5585	5586	5593	9
5591	5585	5588	5594	9
5600	5603	5604	5605	9
5600	5603	5604	5611	9
5600	5601	5602	5605	9
5600	5601	5602	5612	9
5602	5605	5604	5603	9
5603	5604	5605	5610	9
5603	5604	5611	5613	9
5602	5601	5600	5603	9
5603	5600	5601	5608	9
5603	5600	5606	5607	9
5601	5600	5603	5604	9
5604	5603	5600	5606	9
5601	5602	5605	5604	9
5604	5605	5602	5612	9
5605	5604	5603	5609	9
5605	5604	5611	5613	9
5605	5602	5601	5608	9
5605	5602	5612	5614	9
5602	5605	5604	5611	9
5602	5601	5600	5606	9
5601	5602	5605	5610	9
5601	5602	5612	5614	9
5601	5600	5603	5609	9
5601	5600	5606	5607	9
5610	5605	5602	5612	9
5608	5601	5602	5612	9
5606	5600	5603	5609	9
5606	5600	5601	5608	9
5609	5603	5604	5611	9
5610	5605	5604	5611	9
5629	5632	5633	5634	9
5629	5632	5633	5640	9
5629	5630	5631	5634	9
5629	5630	5631	5641	9
5631	5634	5633	5632	9
5632	5633	5634	5639	9
5632	5633	5640	5642	9
5631	5630	5629	5632	9
5632	5629	5630	5637	9
5632	5629	5635	5636	9
5630	5629	5632	5633	9
5633	5632	5629	5635	9
5630	5631	5634	5633	9
5633	5634	5631	5641	9
5634	5633	5632	5638	9
5634	5633	5640	5642	9
5634	5631	5630	5637	9
5634	5631	5641	5643	9
5631	5634	5633	5640	9
5631	5630	5629	5635	9
5630	5631	5634	5639	9
5630	5631	5641	5643	9
5630	5629	5632	5638	9
5630	5629	5635	5636	9
5639	5634	5631	5641	9
5637	5630	5631	5641	9
5635	5629	5632	5638	9
5635	5629	5630	5637	9
5638	5632	5633	5640	9
5639	5634	5633	5640	9
1068	1069	1070	1073	9
1068	1069	1070	1080	9
1068	1071	1072	1073	9
1068	1071	1072	1079	9
1069	1070	1073	1072	9
1069	1070	1073	1078	9
1069	1070	1080	1082	9
1069	1070	1080	1083	9
1069	1068	1071	1072	9
1069	1068	1071	1077	9
1069	1068	1074	1075	9
1070	1069	1068	1071	9
1070	1069	1068	1074	9
1070	1073	1072	1071	9
1070	1073	1072	1079	9
1070	1080	1083	1084	9
1073	1070	1069	1076	9
1073	1070	1080	1082	9
1073	1070	1080	1083	9
1073	1072	1071	1077	9
1073	1072	1079	1081	9
1072	1073	1070	1080	9
1072	1071	1068	1074	9
1071	1072	1073	1078	9
1071	1072	1079	1081	9
1071	1068	1069	1076	9
1071	1068	1074	1075	9
1078	1073	1072	1079	9
1077	1071	1072	1079	9
1074	1068	1069	1076	9
1074	1068	1071	1077	9
1076	1069	1070	1080	9
1078	1073	1070	1080	9
1082	1080	1083	1084	9
5644	5647	5648	5649	9
5644	5647	5648	5655	9
5644	5645	5646	5649	9
5644	5645	5646	5656	9
5646	5649	5648	5647	9
5647	5648	5649	5654	9
5647	5648	5655	5657	9
5646	5645	5644	5647	9
5647	5644	5645	5652	9
5647	5644	5650	5651	9
5645	5644	5647	5648	9
5648	5647	5644	5650	9
5645	5646	5649	5648	9
5648	5649	5646	5656	9
5649	5648	5647	5653	9
5649	5648	5655	5657	9
5649	5646	5645	5652	9
5649	5646	5656	5658	9
5646	5649	5648	5655	9
5646	5645	5644	5650	9
5645	5646	5649	5654	9
5645	5646	5656	5658	9
5645	5644	5647	5653	9
5645	5644	5650	5651	9
5654	5649	5646	5656	9
5652	5645	5646	5656	9
5650	5644	5647	5653	9
5650	5644	5645	5652	9
5653	5647	5648	5655	9
5654	5649	5648	5655	9
1099	1100	1101	1104	9
1099	1100	1101	1111	9
1099	1102	1103	1104	9
1099	1102	1103	1110	9
1100	1101	1104	1103	9
1100	1101	1104	1109	9
1100	1101	1111	1113	9
1100	1101	1111	1114	9
1100	1099	1102	1103	9
1100	1099	1102	1108	9
1100	1099	1105	1106	9
1101	1100	1099	1102	9
1101	1100	1099	1105	9
1101	1104	1103	1102	9
1101	1104	1103	1110	9
1101	1111	1114	1115	9
1104	1101	1100	1107	9
1104	1101	1111	1113	9
1104	1101	1111	1114	9
1104	1103	1102	1108	9
1104	1103	1110	1112	9
1103	1104	1101	1111	9
1103	1102	1099	1105	9
1102	1103	1104	1109	9
1102	1103	1110	1112	9
1102	1099	1100	1107	9
1102	1099	1105	1106	9
1109	1104	1103	1110	9
1108	1102	1103	1110	9
1105	1099	1100	1107	9
1105	1099	1102	1108	9
1107	1100	1101	1111	9
1109	1104	1101	1111	9
1113	1111	1114	1115	9
5673	5676	5677	5678	9
5673	5676	5677	5684	9
5673	5674	5675	5678	9
5673	5674	5675	5685	9
5675	5678	5677	5676	9
5676	5677	5678	5683	9
5676	5677	5684	5686	9
5675	5674	5673	5676	9
5676	5673	5674	5681	9
5676	5673	5679	5680	9
5674	5673	5676	5677	9
5677	5676	5673	5679	9
5674	5675	5678	5677	9
5677	5678	5675	5685	9
5678	5677	5676	5682	9
5678	5677	5684	5686	9
5678	5675	5674	5681	9
5678	5675	5685	5687	9
5675	5678	5677	5684	9
5675	5674	5673	5679	9
5674	5675	5678	5683	9
5674	5675	5685	5687	9
5674	5673	5676	5682	9
5674	5673	5679	5680	9
5683	5678	5675	5685	9
5681	5674	5675	5685	9
5679	5673	5676	5682	9
5679	5673	5674	5681	9
5682	5676	5677	5684	9
5683	5678	5677	5684	9
1132	1131	1130	1133	9
1132	1131	1130	1136	9
1132	1135	1134	1133	9
1132	1135	1134	1141	9
1132	1142	1145	1146	9
1131	1130	1133	1134	9
1131	1130	1133	1139	9
1131	1130	1136	1137	9
1131	1132	1135	1134	9
1131	1132	1135	1140	9
1131	1132	1142	1144	9
1131	1132	1142	1145	9
1130	1131	1132	1135	9
1130	1131	1132	1142	9
1130	1133	1134	1135	9
1130	1133	1134	1141	9
1133	1130	1131	1138	9
1133	1130	1136	1137	9
1133	1134	1135	1140	9
1133	1134	1141	1143	9
1134	1133	1130	1136	9
1134	1135	1132	1142	9
1135	1134	1133	1139	9
1135	1134	1141	1143	9
1135	1132	1131	1138	9
1135	1132	1142	1144	9
1135	1132	1142	1145	9
1139	1133	1134	1141	9
1140	1135	1134	1141	9
1138	1131	1132	1142	9
1140	1135	1132	1142	9
1136	1130	1131	1138	9
1136	1130	1133	1139	9
1144	1142	1145	1146	9
5703	5702	5705	5706	9
5706	5705	5702	5708	9
5703	5704	5707	5706	9
5706	5707	5704	5714	9
5704	5703	5702	5705	9
5705	5702	5703	5710	9
5705	5702	5708	5709	9
5704	5707	5706	5705	9
5705	5706	5707	5712	9
5705	5706	5713	5715	9
5702	5705	5706	5707	9
5702	5705	5706	5713	9
5702	5703	5704	5707	9
5702	5703	5704	5714	9
5703	5702	5705	5711	9
5703	5702	5708	5709	9
5703	5704	5707	5712	9
5703	5704	5714	5716	9
5704	5703	5702	5708	9
5704	5707	5706	5713	9
5707	5704	5703	5710	9
5707	5704	5714	5716	9
5707	5706	5705	5711	9
5707	5706	5713	5715	9
5714	5704	5703	5710	9
5714	5704	5707	5712	9
5711	5705	5706	5713	9
5712	5707	5706	5713	9
5711	5705	5702	5708	9
5710	5703	5702	5708	9
5731	5732	5733	5736	9
5731	5732	5733	5743	9
5731	5734	5735	5736	9
5731	5734	5735	5742	9
5735	5736	5733	5732	9
5732	5733	5736	5741	9
5732	5733	5743	5745	9
5735	5734	5731	5732	9
5732	5731	5734	5740	9
5732	5731	5737	5738	9
5734	5731	5732	5733	9
5733	5732	5731	5737	9
5734	5735	5736	5733	9
5733	5736	5735	5742	9
5736	5733	5732	5739	9
5736	5733	5743	5745	9
5736	5735	5734	5740	9
5736	5735	5742	5744	9
5735	5736	5733	5743	9
5735	5734	5731	5737	9
5734	5735	5736	5741	9
5734	5735	5742	5744	9
5734	5731	5732	5739	9
5734	5731	5737	5738	9
5741	5736	5735	5742	9
5740	5734	5735	5742	9
5737	5731	5732	5739	9
5737	5731	5734	5740	9
5739	5732	5733	5743	9
5741	5736	5733	5743	9
5746	5747	5748	5751	9
5746	5747	5748	5758	9
5746	5749	5750	5751	9
5746	5749	5750	5757	9
5750	5751	5748	5747	9
5747	5748	5751	5756	9
5747	5748	5758	5760	9
5750	5749	5746	5747	9
5747	5746	5749	5755	9
5747	5746	5752	5753	9
5749	5746	5747	5748	9
5748	5747	5746	5752	9
5749	5750	5751	5748	9
5748	5751	5750	5757	9
5751	5748	5747	5754	9
5751	5748	5758	5760	9
5751	5750	5749	5755	9
5751	5750	5757	5759	9
5750	5751	5748	5758	9
5750	5749	5746	5752	9
5749	5750	5751	5756	9
5749	5750	5757	5759	9
5749	5746	5747	5754	9
5749	5746	5752	5753	9
5756	5751	5750	5757	9
5755	5749	5750	5757	9
5752	5746	5747	5754	9
5752	5746	5749	5755	9
5754	5747	5748	5758	9
5756	5751	5748	5758	9
1161	1162	1163	1166	9
1161	1162	1163	1173	9
1161	1164	1165	1166	9
1161	1164	1165	1172	9
1162	1163	1166	1165	9
1162	1163	1166	1171	9
1162	1163	1173	1175	9
1162	1163	1173	1176	9
1162	1161	1164	1165	9
1162	1161	1164	1170	9
1162	1161	1167	1168	9
1163	1162	1161	1164	9
1163	1162	1161	1167	9
1163	1166	1165	1164	9
1163	1166	1165	1172	9
1163	1173	1176	1177	9
1166	1163	1162	1169	9
1166	1163	1173	1175	9
1166	1163	1173	1176	9
1166	1165	1164	1170	9
1166	1165	1172	1174	9
1165	1166	1163	1173	9
1165	1164	1161	1167	9
1164	1165	1166	1171	9
1164	1165	1172	1174	9
1164	1161	1162	1169	9
1164	1161	1167	1168	9
1171	1166	1165	1172	9
1170	1164	1165	1172	9
1167	1161	1162	1169	9
1167	1161	1164	1170	9
1169	1162	1163	1173	9
1171	1166	1163	1173	9
1175	1173	1176	1177	9
5775	5778	5779	5780	9
5775	5778	5779	5786	9
5775	5776	5777	5780	9
5775	5776	5777	5787	9
5777	5780	5779	5778	9
5778	5779	5780	5785	9
5778	5779	5786	5788	9
5777	5776	5775	5778	9
5778	5775	5776	5783	9
5778	5775	5781	5782	9
5776	5775	5778	5779	9
5779	5778	5775	5781	9
5776	5777	5780	5779	9
5779	5780	5777	5787	9
5780	5779	5778	5784	9
5780	5779	5786	5788	9
5780	5777	5776	5783	9
5780	5777	5787	5789	9
5777	5780	5779	5786	9
5777	5776	5775	5781	9
5776	5777	5780	5785	9
5776	5777	5787	5789	9
5776	5775	5778	5784	9
5776	5775	5781	5782	9
5785	5780	5777	5787	9
5783	5776	5777	5787	9
5781	5775	5778	5784	9
5781	5775	5776	5783	9
5784	5778	5779	5786	9
5785	5780	5779	5786	9
1178	1179	1180	1183	9
1178	1179	1180	1190	9
1178	1181	1182	1183	9
1178	1181	1182	1189	9
1179	1180	1183	1182	9
1179	1180	1183	1188	9
1179	1180	1190	1192	9
1179	1180	1190	1193	9
1179	1178	1181	1182	9
1179	1178	1181	1187	9
1179	1178	1184	1185	9
1180	1179	1178	1181	9
1180	1179	1178	1184	9
1180	1183	1182	1181	9
1180	1183	1182	1189	9
1180	1190	1193	1194	9
1183	1180	1179	1186	9
1183	1180	1190	1192	9
1183	1180	1190	1193	9
1183	1182	1181	1187	9
1183	1182	1189	1191	9
1182	1183	1180	1190	9
1182	1181	1178	1184	9
1181	1182	1183	1188	9
1181	1182	1189	1191	9
1181	1178	1179	1186	9
1181	1178	1184	1185	9
1188	1183	1182	1189	9
1187	1181	1182	1189	9
1184	1178	1179	1186	9
1184	1178	1181	1187	9
1186	1179	1180	1190	9
1188	1183	1180	1190	9
1192	1190	1193	1194	9
1211	1210	1209	1212	9
1211	1210	1209	1215	9
1211	1214	1213	1212	9
1211	1214	1213	1220	9
1211	1221	1224	1225	9
1210	1209	1212	1213	9
1210	1209	1212	1218	9
1210	1209	1215	1216	9
1210	1211	1214	1213	9
1210	1211	1214	1219	9
1210	1211	1221	1223	9
1210	1211	1221	1224	9
1209	1210	1211	1214	9
1209	1210	1211	1221	9
1209	1212	1213	1214	9
1209	1212	1213	1220	9
1212	1209	1210	1217	9
1212	1209	1215	1216	9
1212	1213	1214	1219	9
1212	1213	1220	1222	9
1213	1212	1209	1215	9
1213	1214	1211	1221	9
1214	1213	1212	1218	9
1214	1213	1220	1222	9
1214	1211	1210	1217	9
1214	1211	1221	1223	9
1214	1211	1221	1224	9
1218	1212	1213	1220	9
1219	1214	1213	1220	9
1217	1210	1211	1221	9
1219	1214	1211	1221	9
1215	1209	1210	1217	9
1215	1209	1212	1218	9
1223	1221	1224	1225	9
5805	5806	5809	5808	9
5808	5809	5806	5816	9
5805	5804	5807	5808	9
5808	5807	5804	5810	9
5804	5805	5806	5809	9
5809	5806	5805	5812	9
5809	5806	5816	5818	9
5804	5807	5808	5809	9
5809	5808	5807	5813	9
5809	5808	5815	5817	9
5806	5809	5808	5807	9
5806	5809	5808	5815	9
5806	5805	5804	5807	9
5806	5805	5804	5810	9
5805	5806	5809	5814	9
5805	5806	5816	5818	9
5805	5804	5807	5813	9
5805	5804	5810	5811	9
5804	5805	5806	5816	9
5804	5807	5808	5815	9
5807	5804	5805	5812	9
5807	5804	5810	5811	9
5807	5808	5809	5814	9
5807	5808	5815	5817	9
5810	5804	5805	5812	9
5810	5804	5807	5813	9
5814	5809	5808	5815	9
5813	5807	5808	5815	9
5814	5809	5806	5816	9
5812	5805	5806	5816	9
5819	5822	5823	5824	9
5819	5822	5823	5830	9
5819	5820	5821	5824	9
5819	5820	5821	5831	9
5821	5824	5823	5822	9
5822	5823	5824	5829	9
5822	5823	5830	5832	9
5821	5820	5819	5822	9
5822	5819	5820	5827	9
5822	5819	5825	5826	9
5820	5819	5822	5823	9
5823	5822	5819	5825	9
5820	5821	5824	5823	9
5823	5824	5821	5831	9
5824	5823	5822	5828	9
5824	5823	5830	5832	9
5824	5821	5820	5827	9
5824	5821	5831	5833	9
5821	5824	5823	5830	9
5821	5820	5819	5825	9
5820	5821	5824	5829	9
5820	5821	5831	5833	9
5820	5819	5822	5828	9
5820	5819	5825	5826	9
5829	5824	5821	5831	9
5827	5820	5821	5831	9
5825	5819	5822	5828	9
5825	5819	5820	5827	9
5828	5822	5823	5830	9
5829	5824	5823	5830	9
5848	5851	5852	5853	9
5848	5851	5852	5859	9
5848	5849	5850	5853	9
5848	5849	5850	5860	9
5850	5853	5852	5851	9
5851	5852	5853	5858	9
5851	5852	5859	5861	9
5850	5849	5848	5851	9
5851	5848	5849	5856	9
5851	5848	5854	5855	9
5849	5848	5851	5852	9
5852	5851	5848	5854	9
5849	5850	5853	5852	9
5852	5853	5850	5860	9
5853	5852	5851	5857	9
5853	5852	5859	5861	9
5853	5850	5849	5856	9
5853	5850	5860	5862	9
5850	5853	5852	5859	9
5850	5849	5848	5854	9
5849	5850	5853	5858	9
5849	5850	5860	5862	9
5849	5848	5851	5857	9
5849	5848	5854	5855	9
5858	5853	5850	5860	9
5856	5849	5850	5860	9
5854	5848	5851	5857	9
5854	5848	5849	5856	9
5857	5851	5852	5859	9
5858	5853	5852	5859	9
5877	5878	5879	5882	9
5877	5878	5879	5889	9
5877	5880	5881	5882	9
5877	5880	5881	5888	9
5878	5879	5882	5881	9
5878	5879	5882	5887	9
5878	5879	5889	5891	9
5878	5877	5880	5881	9
5878	5877	5880	5886	9
5878	5877	5883	5884	9
5879	5878	5877	5880	9
5879	5878	5877	5883	9
5879	5882	5881	5880	9
5879	5882	5881	5888	9
5882	5879	5878	5885	9
5882	5879	5889	5891	9
5882	5881	5880	5886	9
5882	5881	5888	5890	9
5881	5882	5879	5889	9
5881	5880	5877	5883	9
5880	5881	5882	5887	9
5880	5881	5888	5890	9
5880	5877	5878	5885	9
5880	5877	5883	5884	9
5887	5882	5881	5888	9
5886	5880	5881	5888	9
5883	5877	5878	5885	9
5883	5877	5880	5886	9
5885	5878	5879	5889	9
5887	5882	5879	5889	9
5906	5907	5908	5911	9
5906	5907	5908	5918	9
5906	5909	5910	5911	9
5906	5909	5910	5917	9
5907	5908	5911	5910	9
5907	5908	5911	5916	9
5907	5908	5918	5920	9
5907	5906	5909	5910	9
5907	5906	5909	5915	9
5907	5906	5912	5913	9
5908	5907	5906	5909	9
5908	5907	5906	5912	9
5908	5911	5910	5909	9
5908	5911	5910	5917	9
5911	5908	5907	5914	9
5911	5908	5918	5920	9
5911	5910	5909	5915	9
5911	5910	5917	5919	9
5910	5911	5908	5918	9
5910	5909	5906	5912	9
5909	5910	5911	5916	9
5909	5910	5917	5919	9
5909	5906	5907	5914	9
5909	5906	5912	5913	9
5916	5911	5910	5917	9
5915	5909	5910	5917	9
5912	5906	5907	5914	9
5912	5906	5909	5915	9
5914	5907	5908	5918	9
5916	5911	5908	5918	9
5921	5924	5925	5926	9
5921	5924	5925	5932	9
5921	5922	5923	5926	9
5921	5922	5923	5933	9
5924	5925	5926	5923	9
5924	5925	5926	5931	9
5924	5925	5932	5934	9
5924	5921	5922	5923	9
5924	5921	5922	5929	9
5924	5921	5927	5928	9
5925	5924	5921	5922	9
5925	5924	5921	5927	9
5925	5926	5923	5922	9
5925	5926	5923	5933	9
5926	5925	5924	5930	9
5926	5925	5932	5934	9
5926	5923	5922	5929	9
5926	5923	5933	5935	9
5923	5926	5925	5932	9
5923	5922	5921	5927	9
5922	5923	5926	5931	9
5922	5923	5933	5935	9
5922	5921	5924	5930	9
5922	5921	5927	5928	9
5931	5926	5923	5933	9
5929	5922	5923	5933	9
5927	5921	5924	5930	9
5927	5921	5922	5929	9
5930	5924	5925	5932	9
5931	5926	5925	5932	9
5936	5939	5940	5941	9
5936	5939	5940	5947	9
5936	5937	5938	5941	9
5936	5937	5938	5948	9
5939	5940	5941	5938	9
5939	5940	5941	5946	9
5939	5940	5947	5949	9
5939	5936	5937	5938	9
5939	5936	5937	5944	9
5939	5936	5942	5943	9
5940	5939	5936	5937	9
5940	5939	5936	5942	9
5940	5941	5938	5937	9
5940	5941	5938	5948	9
5941	5940	5939	5945	9
5941	5940	5947	5949	9
5941	5938	5937	5944	9
5941	5938	5948	5950	9
5938	5941	5940	5947	9
5938	5937	5936	5942	9
5937	5938	5941	5946	9
5937	5938	5948	5950	9
5937	5936	5939	5945	9
5937	5936	5942	5943	9
5946	5941	5938	5948	9
5944	5937	5938	5948	9
5942	5936	5939	5945	9
5942	5936	5937	5944	9
5945	5939	5940	5947	9
5946	5941	5940	5947	9
1243	1242	1241	1244	9
1243	1242	1241	1247	9
1243	1246	1245	1244	9
1243	1246	1245	1252	9
1243	1253	1256	1257	9
1242	1241	1244	1245	9
1242	1241	1244	1250	9
1242	1241	1247	1248	9
1242	1243	1246	1245	9
1242	1243	1246	1251	9
1242	1243	1253	1255	9
1242	1243	1253	1256	9
1241	1242	1243	1246	9
1241	1242	1243	1253	9
1241	1244	1245	1246	9
1241	1244	1245	1252	9
1244	1241	1242	1249	9
1244	1241	1247	1248	9
1244	1245	1246	1251	9
1244	1245	1252	1254	9
1245	1244	1241	1247	9
1245	1246	1243	1253	9
1246	1245	1244	1250	9
1246	1245	1252	1254	9
1246	1243	1242	1249	9
1246	1243	1253	1255	9
1246	1243	1253	1256	9
1250	1244	1245	1252	9
1251	1246	1245	1252	9
1249	1242	1243	1253	9
1251	1246	1243	1253	9
1247	1241	1242	1249	9
1247	1241	1244	1250	9
1255	1253	1256	1257	9
5951	5952	5953	5956	9
5951	5952	5953	5963	9
5951	5954	5955	5956	9
5951	5954	5955	5962	9
5952	5953	5956	5955	9
5952	5953	5956	5961	9
5952	5953	5963	5965	9
5952	5951	5954	5955	9
5952	5951	5954	5960	9
5952	5951	5957	5958	9
5953	5952	5951	5954	9
5953	5952	5951	5957	9
5953	5956	5955	5954	9
5953	5956	5955	5962	9
5956	5953	5952	5959	9
5956	5953	5963	5965	9
5956	5955	5954	5960	9
5956	5955	5962	5964	9
5955	5956	5953	5963	9
5955	5954	5951	5957	9
5954	5955	5956	5961	9
5954	5955	5962	5964	9
5954	5951	5952	5959	9
5954	5951	5957	5958	9
5961	5956	5955	5962	9
5960	5954	5955	5962	9
5957	5951	5952	5959	9
5957	5951	5954	5960	9
5959	5952	5953	5963	9
5961	5956	5953	5963	9
5980	5983	5984	5985	9
5980	5983	5984	5991	9
5980	5981	5982	5985	9
5980	5981	5982	5992	9
5982	5985	5984	5983	9
5983	5984	5985	5990	9
5983	5984	5991	5993	9
5982	5981	5980	5983	9
5983	5980	5981	5988	9
5983	5980	5986	5987	9
5981	5980	5983	5984	9
5984	5983	5980	5986	9
5981	5982	5985	5984	9
5984	5985	5982	5992	9
5985	5984	5983	5989	9
5985	5984	5991	5993	9
5985	5982	5981	5988	9
5985	5982	5992	5994	9
5982	5985	5984	5991	9
5982	5981	5980	5986	9
5981	5982	5985	5990	9
5981	5982	5992	5994	9
5981	5980	5983	5989	9
5981	5980	5986	5987	9
5990	5985	5982	5992	9
5988	5981	5982	5992	9
5986	5980	5983	5989	9
5986	5980	5981	5988	9
5989	5983	5984	5991	9
5990	5985	5984	5991	9
6009	6012	6013	6014	9
6009	6012	6013	6020	9
6009	6010	6011	6014	9
6009	6010	6011	6021	9
6011	6014	6013	6012	9
6012	6013	6014	6019	9
6012	6013	6020	6022	9
6011	6010	6009	6012	9
6012	6009	6010	6017	9
6012	6009	6015	6016	9
6010	6009	6012	6013	9
6013	6012	6009	6015	9
6010	6011	6014	6013	9
6013	6014	6011	6021	9
6014	6013	6012	6018	9
6014	6013	6020	6022	9
6014	6011	6010	6017	9
6014	6011	6021	6023	9
6011	6014	6013	6020	9
6011	6010	6009	6015	9
6010	6011	6014	6019	9
6010	6011	6021	6023	9
6010	6009	6012	6018	9
6010	6009	6015	6016	9
6019	6014	6011	6021	9
6017	6010	6011	6021	9
6015	6009	6012	6018	9
6015	6009	6010	6017	9
6018	6012	6013	6020	9
6019	6014	6013	6020	9
6024	6027	6028	6029	9
6024	6027	6028	6035	9
6024	6025	6026	6029	9
6024	6025	6026	6036	9
6026	6029	6028	6027	9
6027	6028	6029	6034	9
6027	6028	6035	6037	9
6026	6025	6024	6027	9
6027	6024	6025	6032	9
6027	6024	6030	6031	9
6025	6024	6027	6028	9
6028	6027	6024	6030	9
6025	6026	6029	6028	9
6028	6029	6026	6036	9
6029	6028	6027	6033	9
6029	6028	6035	6037	9
6029	6026	6025	6032	9
6029	6026	6036	6038	9
6026	6029	6028	6035	9
6026	6025	6024	6030	9
6025	6026	6029	6034	9
6025	6026	6036	6038	9
6025	6024	6027	6033	9
6025	6024	6030	6031	9
6034	6029	6026	6036	9
6032	6025	6026	6036	9
6030	6024	6027	6033	9
6030	6024	6025	6032	9
6033	6027	6028	6035	9
6034	6029	6028	6035	9
1272	1273	1274	1277	9
1272	1273	1274	1284	9
1272	1275	1276	1277	9
1272	1275	1276	1283	9
1273	1274	1277	1276	9
1273	1274	1277	1282	9
1273	1274	1284	1286	9
1273	1274	1284	1287	9
1273	1272	1275	1276	9
1273	1272	1275	1281	9
1273	1272	1278	1279	9
1274	1273	1272	1275	9
1274	1273	1272	1278	9
1274	1277	1276	1275	9
1274	1277	1276	1283	9
1274	1284	1287	1288	9
1277	1274	1273	1280	9
1277	1274	1284	1286	9
1277	1274	1284	1287	9
1277	1276	1275	1281	9
1277	1276	1283	1285	9
1276	1277	1274	1284	9
1276	1275	1272	1278	9
1275	1276	1277	1282	9
1275	1276	1283	1285	9
1275	1272	1273	1280	9
1275	1272	1278	1279	9
1282	1277	1276	1283	9
1281	1275	1276	1283	9
1278	1272	1273	1280	9
1278	1272	1275	1281	9
1280	1273	1274	1284	9
1282	1277	1274	1284	9
1286	1284	1287	1288	9
6053	6056	6057	6058	9
6053	6056	6057	6064	9
6053	6054	6055	6058	9
6053	6054	6055	6065	9
6055	6058	6057	6056	9
6056	6057	6058	6063	9
6056	6057	6064	6066	9
6055	6054	6053	6056	9
6056	6053	6054	6061	9
6056	6053	6059	6060	9
6054	6053	6056	6057	9
6057	6056	6053	6059	9
6054	6055	6058	6057	9
6057	6058	6055	6065	9
6058	6057	6056	6062	9
6058	6057	6064	6066	9
6058	6055	6054	6061	9
6058	6055	6065	6067	9
6055	6058	6057	6064	9
6055	6054	6053	6059	9
6054	6055	6058	6063	9
6054	6055	6065	6067	9
6054	6053	6056	6062	9
6054	6053	6059	6060	9
6063	6058	6055	6065	9
6061	6054	6055	6065	9
6059	6053	6056	6062	9
6059	6053	6054	6061	9
6062	6056	6057	6064	9
6063	6058	6057	6064	9
6082	6085	6086	6087	9
6082	6085	6086	6093	9
6082	6083	6084	6087	9
6082	6083	6084	6094	9
6084	6087	6086	6085	9
6085	6086	6087	6092	9
6085	6086	6093	6095	9
6084	6083	6082	6085	9
6085	6082	6083	6090	9
6085	6082	6088	6089	9
6083	6082	6085	6086	9
6086	6085	6082	6088	9
6083	6084	6087	6086	9
6086	6087	6084	6094	9
6087	6086	6085	6091	9
6087	6086	6093	6095	9
6087	6084	6083	6090	9
6087	6084	6094	6096	9
6084	6087	6086	6093	9
6084	6083	6082	6088	9
6083	6084	6087	6092	9
6083	6084	6094	6096	9
6083	6082	6085	6091	9
6083	6082	6088	6089	9
6092	6087	6084	6094	9
6090	6083	6084	6094	9
6088	6082	6085	6091	9
6088	6082	6083	6090	9
6091	6085	6086	6093	9
6092	6087	6086	6093	9
1307	1308	1305	1304	9
1307	1308	1305	1315	9
1307	1306	1303	1304	9
1307	1306	1303	1309	9
1308	1305	1304	1303	9
1308	1305	1304	1311	9
1308	1305	1315	1317	9
1308	1305	1315	1318	9
1308	1307	1306	1303	9
1308	1307	1306	1312	9
1308	1307	1314	1316	9
1305	1308	1307	1306	9
1305	1308	1307	1314	9
1305	1304	1303	1306	9
1305	1304	1303	1309	9
1305	1315	1318	1319	9
1304	1305	1308	1313	9
1304	1305	1315	1317	9
1304	1305	1315	1318	9
1304	1303	1306	1312	9
1304	1303	1309	1310	9
1303	1304	1305	1315	9
1303	1306	1307	1314	9
1306	1303	1304	1311	9
1306	1303	1309	1310	9
1306	1307	1308	1313	9
1306	1307	1314	1316	9
1311	1304	1303	1309	9
1312	1306	1303	1309	9
1314	1307	1308	1313	9
1314	1307	1306	1312	9
1313	1308	1305	1315	9
1311	1304	1305	1315	9
1317	1315	1318	1319	9
6115	6116	6113	6112	9
6115	6116	6113	6123	9
6115	6114	6111	6112	9
6115	6114	6111	6117	9
6111	6112	6113	6116	9
6116	6113	6112	6119	9
6116	6113	6123	6125	9
6111	6114	6115	6116	9
6116	6115	6114	6120	9
6116	6115	6122	6124	9
6114	6115	6116	6113	9
6113	6116	6115	6122	9
6114	6111	6112	6113	9
6113	6112	6111	6117	9
6112	6113	6116	6121	9
6112	6113	6123	6125	9
6112	6111	6114	6120	9
6112	6111	6117	6118	9
6111	6112	6113	6123	9
6111	6114	6115	6122	9
6114	6111	6112	6119	9
6114	6111	6117	6118	9
6114	6115	6116	6121	9
6114	6115	6122	6124	9
6119	6112	6111	6117	9
6120	6114	6111	6117	9
6122	6115	6116	6121	9
6122	6115	6114	6120	9
6121	6116	6113	6123	9
6119	6112	6113	6123	9
6140	6143	6144	6145	9
6140	6143	6144	6151	9
6140	6141	6142	6145	9
6140	6141	6142	6152	9
6143	6144	6145	6142	9
6143	6144	6145	6150	9
6143	6144	6151	6153	9
6143	6140	6141	6142	9
6143	6140	6141	6148	9
6143	6140	6146	6147	9
6144	6143	6140	6141	9
6144	6143	6140	6146	9
6144	6145	6142	6141	9
6144	6145	6142	6152	9
6145	6144	6143	6149	9
6145	6144	6151	6153	9
6145	6142	6141	6148	9
6145	6142	6152	6154	9
6142	6145	6144	6151	9
6142	6141	6140	6146	9
6141	6142	6145	6150	9
6141	6142	6152	6154	9
6141	6140	6143	6149	9
6141	6140	6146	6147	9
6150	6145	6142	6152	9
6148	6141	6142	6152	9
6146	6140	6143	6149	9
6146	6140	6141	6148	9
6149	6143	6144	6151	9
6150	6145	6144	6151	9
6169	6170	6171	6174	9
6169	6170	6171	6181	9
6169	6172	6173	6174	9
6169	6172	6173	6180	9
6170	6171	6174	6173	9
6170	6171	6174	6179	9
6170	6171	6181	6183	9
6170	6169	6172	6173	9
6170	6169	6172	6178	9
6170	6169	6175	6176	9
6171	6170	6169	6172	9
6171	6170	6169	6175	9
6171	6174	6173	6172	9
6171	6174	6173	6180	9
6174	6171	6170	6177	9
6174	6171	6181	6183	9
6174	6173	6172	6178	9
6174	6173	6180	6182	9
6173	6174	6171	6181	9
6173	6172	6169	6175	9
6172	6173	6174	6179	9
6172	6173	6180	6182	9
6172	6169	6170	6177	9
6172	6169	6175	6176	9
6179	6174	6173	6180	9
6178	6172	6173	6180	9
6175	6169	6170	6177	9
6175	6169	6172	6178	9
6177	6170	6171	6181	9
6179	6174	6171	6181	9
6198	6199	6200	6203	9
6198	6199	6200	6210	9
6198	6201	6202	6203	9
6198	6201	6202	6209	9
6199	6200	6203	6202	9
6199	6200	6203	6208	9
6199	6200	6210	6212	9
6199	6198	6201	6202	9
6199	6198	6201	6207	9
6199	6198	6204	6205	9
6200	6199	6198	6201	9
6200	6199	6198	6204	9
6200	6203	6202	6201	9
6200	6203	6202	6209	9
6203	6200	6199	6206	9
6203	6200	6210	6212	9
6203	6202	6201	6207	9
6203	6202	6209	6211	9
6202	6203	6200	6210	9
6202	6201	6198	6204	9
6201	6202	6203	6208	9
6201	6202	6209	6211	9
6201	6198	6199	6206	9
6201	6198	6204	6205	9
6208	6203	6202	6209	9
6207	6201	6202	6209	9
6204	6198	6199	6206	9
6204	6198	6201	6207	9
6206	6199	6200	6210	9
6208	6203	6200	6210	9
6227	6228	6229	6232	9
6227	6228	6229	6239	9
6227	6230	6231	6232	9
6227	6230	6231	6238	9
6228	6229	6232	6231	9
6228	6229	6232	6237	9
6228	6229	6239	6241	9
6228	6227	6230	6231	9
6228	6227	6230	6236	9
6228	6227	6233	6234	9
6229	6228	6227	6230	9
6229	6228	6227	6233	9
6229	6232	6231	6230	9
6229	6232	6231	6238	9
6232	6229	6228	6235	9
6232	6229	6239	6241	9
6232	6231	6230	6236	9
6232	6231	6238	6240	9
6231	6232	6229	6239	9
6231	6230	6227	6233	9
6230	6231	6232	6237	9
6230	6231	6238	6240	9
6230	6227	6228	6235	9
6230	6227	6233	6234	9
6237	6232	6231	6238	9
6236	6230	6231	6238	9
6233	6227	6228	6235	9
6233	6227	6230	6236	9
6235	6228	6229	6239	9
6237	6232	6229	6239	9
6242	6245	6246	6247	9
6242	6245	6246	6253	9
6242	6243	6244	6247	9
6242	6243	6244	6254	9
6244	6247	6246	6245	9
6245	6246	6247	6252	9
6245	6246	6253	6255	9
6244	6243	6242	6245	9
6245	6242	6243	6250	9
6245	6242	6248	6249	9
6243	6242	6245	6246	9
6246	6245	6242	6248	9
6243	6244	6247	6246	9
6246	6247	6244	6254	9
6247	6246	6245	6251	9
6247	6246	6253	6255	9
6247	6244	6243	6250	9
6247	6244	6254	6256	9
6244	6247	6246	6253	9
6244	6243	6242	6248	9
6243	6244	6247	6252	9
6243	6244	6254	6256	9
6243	6242	6245	6251	9
6243	6242	6248	6249	9
6252	6247	6244	6254	9
6250	6243	6244	6254	9
6248	6242	6245	6251	9
6248	6242	6243	6250	9
6251	6245	6246	6253	9
6252	6247	6246	6253	9
6271	6274	6275	6276	9
6271	6274	6275	6282	9
6271	6272	6273	6276	9
6271	6272	6273	6283	9
6273	6276	6275	6274	9
6274	6275	6276	6281	9
6274	6275	6282	6284	9
6273	6272	6271	6274	9
6274	6271	6272	6279	9
6274	6271	6277	6278	9
6272	6271	6274	6275	9
6275	6274	6271	6277	9
6272	6273	6276	6275	9
6275	6276	6273	6283	9
6276	6275	6274	6280	9
6276	6275	6282	6284	9
6276	6273	6272	6279	9
6276	6273	6283	6285	9
6273	6276	6275	6282	9
6273	6272	6271	6277	9
6272	6273	6276	6281	9
6272	6273	6283	6285	9
6272	6271	6274	6280	9
6272	6271	6277	6278	9
6281	6276	6273	6283	9
6279	6272	6273	6283	9
6277	6271	6274	6280	9
6277	6271	6272	6279	9
6280	6274	6275	6282	9
6281	6276	6275	6282	9
6286	6289	6290	6291	9
6286	6289	6290	6297	9
6286	6287	6288	6291	9
6286	6287	6288	6298	9
6288	6291	6290	6289	9
6289	6290	6291	6296	9
6289	6290	6297	6299	9
6288	6287	6286	6289	9
6289	6286	6287	6294	9
6289	6286	6292	6293	9
6287	6286	6289	6290	9
6290	6289	6286	6292	9
6287	6288	6291	6290	9
6290	6291	6288	6298	9
6291	6290	6289	6295	9
6291	6290	6297	6299	9
6291	6288	6287	6294	9
6291	6288	6298	6300	9
6288	6291	6290	6297	9
6288	6287	6286	6292	9
6287	6288	6291	6296	9
6287	6288	6298	6300	9
6287	6286	6289	6295	9
6287	6286	6292	6293	9
6296	6291	6288	6298	9
6294	6287	6288	6298	9
6292	6286	6289	6295	9
6292	6286	6287	6294	9
6295	6289	6290	6297	9
6296	6291	6290	6297	9
6315	6318	6319	6320	9
6315	6318	6319	6326	9
6315	6316	6317	6320	9
6315	6316	6317	6327	9
6318	6319	6320	6317	9
6318	6319	6320	6325	9
6318	6319	6326	6328	9
6318	6315	6316	6317	9
6318	6315	6316	6323	9
6318	6315	6321	6322	9
6319	6318	6315	6316	9
6319	6318	6315	6321	9
6319	6320	6317	6316	9
6319	6320	6317	6327	9
6320	6319	6318	6324	9
6320	6319	6326	6328	9
6320	6317	6316	6323	9
6320	6317	6327	6329	9
6317	6320	6319	6326	9
6317	6316	6315	6321	9
6316	6317	6320	6325	9
6316	6317	6327	6329	9
6316	6315	6318	6324	9
6316	6315	6321	6322	9
6325	6320	6317	6327	9
6323	6316	6317	6327	9
6321	6315	6318	6324	9
6321	6315	6316	6323	9
6324	6318	6319	6326	9
6325	6320	6319	6326	9
6330	6333	6334	6335	9
6330	6333	6334	6341	9
6330	6331	6332	6335	9
6330	6331	6332	6342	9
6333	6334	6335	6332	9
6333	6334	6335	6340	9
6333	6334	6341	6343	9
6333	6330	6331	6332	9
6333	6330	6331	6338	9
6333	6330	6336	6337	9
6334	6333	6330	6331	9
6334	6333	6330	6336	9
6334	6335	6332	6331	9
6334	6335	6332	6342	9
6335	6334	6333	6339	9
6335	6334	6341	6343	9
6335	6332	6331	6338	9
6335	6332	6342	6344	9
6332	6335	6334	6341	9
6332	6331	6330	6336	9
6331	6332	6335	6340	9
6331	6332	6342	6344	9
6331	6330	6333	6339	9
6331	6330	6336	6337	9
6340	6335	6332	6342	9
6338	6331	6332	6342	9
6336	6330	6333	6339	9
6336	6330	6331	6338	9
6339	6333	6334	6341	9
6340	6335	6334	6341	9
6345	6346	6347	6350	9
6345	6346	6347	6357	9
6345	6348	6349	6350	9
6345	6348	6349	6356	9
6346	6347	6350	6349	9
6346	6347	6350	6355	9
6346	6347	6357	6359	9
6346	6345	6348	6349	9
6346	6345	6348	6354	9
6346	6345	6351	6352	9
6347	6346	6345	6348	9
6347	6346	6345	6351	9
6347	6350	6349	6348	9
6347	6350	6349	6356	9
6350	6347	6346	6353	9
6350	6347	6357	6359	9
6350	6349	6348	6354	9
6350	6349	6356	6358	9
6349	6350	6347	6357	9
6349	6348	6345	6351	9
6348	6349	6350	6355	9
6348	6349	6356	6358	9
6348	6345	6346	6353	9
6348	6345	6351	6352	9
6355	6350	6349	6356	9
6354	6348	6349	6356	9
6351	6345	6346	6353	9
6351	6345	6348	6354	9
6353	6346	6347	6357	9
6355	6350	6347	6357	9
6374	6375	6376	6379	9
6374	6375	6376	6386	9
6374	6377	6378	6379	9
6374	6377	6378	6385	9
6375	6376	6379	6378	9
6375	6376	6379	6384	9
6375	6376	6386	6388	9
6375	6374	6377	6378	9
6375	6374	6377	6383	9
6375	6374	6380	6381	9
6376	6375	6374	6377	9
6376	6375	6374	6380	9
6376	6379	6378	6377	9
6376	6379	6378	6385	9
6379	6376	6375	6382	9
6379	6376	6386	6388	9
6379	6378	6377	6383	9
6379	6378	6385	6387	9
6378	6379	6376	6386	9
6378	6377	6374	6380	9
6377	6378	6379	6384	9
6377	6378	6385	6387	9
6377	6374	6375	6382	9
6377	6374	6380	6381	9
6384	6379	6378	6385	9
6383	6377	6378	6385	9
6380	6374	6375	6382	9
6380	6374	6377	6383	9
6382	6375	6376	6386	9
6384	6379	6376	6386	9
6403	6406	6407	6408	9
6403	6406	6407	6414	9
6403	6404	6405	6408	9
6403	6404	6405	6415	9
6405	6408	6407	6406	9
6406	6407	6408	6413	9
6406	6407	6414	6416	9
6405	6404	6403	6406	9
6406	6403	6404	6411	9
6406	6403	6409	6410	9
6404	6403	6406	6407	9
6407	6406	6403	6409	9
6404	6405	6408	6407	9
6407	6408	6405	6415	9
6408	6407	6406	6412	9
6408	6407	6414	6416	9
6408	6405	6404	6411	9
6408	6405	6415	6417	9
6405	6408	6407	6414	9
6405	6404	6403	6409	9
6404	6405	6408	6413	9
6404	6405	6415	6417	9
6404	6403	6406	6412	9
6404	6403	6409	6410	9
6413	6408	6405	6415	9
6411	6404	6405	6415	9
6409	6403	6406	6412	9
6409	6403	6404	6411	9
6412	6406	6407	6414	9
6413	6408	6407	6414	9
6432	6435	6436	6437	9
6432	6435	6436	6443	9
6432	6433	6434	6437	9
6432	6433	6434	6444	9
6434	6437	6436	6435	9
6435	6436	6437	6442	9
6435	6436	6443	6445	9
6434	6433	6432	6435	9
6435	6432	6433	6440	9
6435	6432	6438	6439	9
6433	6432	6435	6436	9
6436	6435	6432	6438	9
6433	6434	6437	6436	9
6436	6437	6434	6444	9
6437	6436	6435	6441	9
6437	6436	6443	6445	9
6437	6434	6433	6440	9
6437	6434	6444	6446	9
6434	6437	6436	6443	9
6434	6433	6432	6438	9
6433	6434	6437	6442	9
6433	6434	6444	6446	9
6433	6432	6435	6441	9
6433	6432	6438	6439	9
6442	6437	6434	6444	9
6440	6433	6434	6444	9
6438	6432	6435	6441	9
6438	6432	6433	6440	9
6441	6435	6436	6443	9
6442	6437	6436	6443	9
6461	6464	6465	6466	9
6461	6464	6465	6472	9
6461	6462	6463	6466	9
6461	6462	6463	6473	9
6463	6466	6465	6464	9
6464	6465	6466	6471	9
6464	6465	6472	6474	9
6463	6462	6461	6464	9
6464	6461	6462	6469	9
6464	6461	6467	6468	9
6462	6461	6464	6465	9
6465	6464	6461	6467	9
6462	6463	6466	6465	9
6465	6466	6463	6473	9
6466	6465	6464	6470	9
6466	6465	6472	6474	9
6466	6463	6462	6469	9
6466	6463	6473	6475	9
6463	6466	6465	6472	9
6463	6462	6461	6467	9
6462	6463	6466	6471	9
6462	6463	6473	6475	9
6462	6461	6464	6470	9
6462	6461	6467	6468	9
6471	6466	6463	6473	9
6469	6462	6463	6473	9
6467	6461	6464	6470	9
6467	6461	6462	6469	9
6470	6464	6465	6472	9
6471	6466	6465	6472	9
6492	6491	6490	6493	9
6492	6491	6490	6496	9
6492	6495	6494	6493	9
6492	6495	6494	6501	9
6491	6490	6493	6494	9
6491	6490	6493	6499	9
6491	6490	6496	6497	9
6491	6492	6495	6494	9
6491	6492	6495	6500	9
6491	6492	6502	6504	9
6490	6491	6492	6495	9
6490	6491	6492	6502	9
6490	6493	6494	6495	9
6490	6493	6494	6501	9
6493	6490	6491	6498	9
6493	6490	6496	6497	9
6493	6494	6495	6500	9
6493	6494	6501	6503	9
6494	6493	6490	6496	9
6494	6495	6492	6502	9
6495	6494	6493	6499	9
6495	6494	6501	6503	9
6495	6492	6491	6498	9
6495	6492	6502	6504	9
6499	6493	6494	6501	9
6500	6495	6494	6501	9
6498	6491	6492	6502	9
6500	6495	6492	6502	9
6496	6490	6491	6498	9
6496	6490	6493	6499	9
6519	6522	6523	6524	9
6519	6522	6523	6530	9
6519	6520	6521	6524	9
6519	6520	6521	6531	9
6522	6523	6524	6521	9
6522	6523	6524	6529	9
6522	6523	6530	6532	9
6522	6519	6520	6521	9
6522	6519	6520	6527	9
6522	6519	6525	6526	9
6523	6522	6519	6520	9
6523	6522	6519	6525	9
6523	6524	6521	6520	9
6523	6524	6521	6531	9
6524	6523	6522	6528	9
6524	6523	6530	6532	9
6524	6521	6520	6527	9
6524	6521	6531	6533	9
6521	6524	6523	6530	9
6521	6520	6519	6525	9
6520	6521	6524	6529	9
6520	6521	6531	6533	9
6520	6519	6522	6528	9
6520	6519	6525	6526	9
6529	6524	6521	6531	9
6527	6520	6521	6531	9
6525	6519	6522	6528	9
6525	6519	6520	6527	9
6528	6522	6523	6530	9
6529	6524	6523	6530	9
1322	1321	1320	1323	9
1322	1321	1320	1326	9
1322	1325	1324	1323	9
1322	1325	1324	1331	9
1322	1332	1335	1336	9
1321	1320	1323	1324	9
1321	1320	1323	1329	9
1321	1320	1326	1327	9
1321	1322	1325	1324	9
1321	1322	1325	1330	9
1321	1322	1332	1334	9
1321	1322	1332	1335	9
1320	1321	1322	1325	9
1320	1321	1322	1332	9
1320	1323	1324	1325	9
1320	1323	1324	1331	9
1323	1320	1321	1328	9
1323	1320	1326	1327	9
1323	1324	1325	1330	9
1323	1324	1331	1333	9
1324	1323	1320	1326	9
1324	1325	1322	1332	9
1325	1324	1323	1329	9
1325	1324	1331	1333	9
1325	1322	1321	1328	9
1325	1322	1332	1334	9
1325	1322	1332	1335	9
1329	1323	1324	1331	9
1330	1325	1324	1331	9
1328	1321	1322	1332	9
1330	1325	1322	1332	9
1326	1320	1321	1328	9
1326	1320	1323	1329	9
1334	1332	1335	1336	9
1355	1356	1353	1352	9
1355	1356	1353	1363	9
1355	1354	1351	1352	9
1355	1354	1351	1357	9
1356	1353	1352	1351	9
1356	1353	1352	1359	9
1356	1353	1363	1365	9
1356	1353	1363	1366	9
1356	1355	1354	1351	9
1356	1355	1354	1360	9
1356	1355	1362	1364	9
1353	1356	1355	1354	9
1353	1356	1355	1362	9
1353	1352	1351	1354	9
1353	1352	1351	1357	9
1353	1363	1366	1367	9
1352	1353	1356	1361	9
1352	1353	1363	1365	9
1352	1353	1363	1366	9
1352	1351	1354	1360	9
1352	1351	1357	1358	9
1351	1352	1353	1363	9
1351	1354	1355	1362	9
1354	1351	1352	1359	9
1354	1351	1357	1358	9
1354	1355	1356	1361	9
1354	1355	1362	1364	9
1359	1352	1351	1357	9
1360	1354	1351	1357	9
1362	1355	1356	1361	9
1362	1355	1354	1360	9
1361	1356	1353	1363	9
1359	1352	1353	1363	9
1365	1363	1366	1367	9
6550	6549	6548	6551	9
6550	6549	6548	6554	9
6550	6553	6552	6551	9
6550	6553	6552	6559	9
6552	6551	6548	6549	9
6549	6548	6551	6557	9
6549	6548	6554	6555	9
6552	6553	6550	6549	9
6549	6550	6553	6558	9
6549	6550	6560	6562	9
6553	6550	6549	6548	9
6548	6549	6550	6560	9
6553	6552	6551	6548	9
6548	6551	6552	6559	9
6551	6548	6549	6556	9
6551	6548	6554	6555	9
6551	6552	6553	6558	9
6551	6552	6559	6561	9
6552	6551	6548	6554	9
6552	6553	6550	6560	9
6553	6552	6551	6557	9
6553	6552	6559	6561	9
6553	6550	6549	6556	9
6553	6550	6560	6562	9
6557	6551	6552	6559	9
6558	6553	6552	6559	9
6560	6550	6549	6556	9
6560	6550	6553	6558	9
6556	6549	6548	6554	9
6557	6551	6548	6554	9
6563	6564	6565	6568	9
6563	6564	6565	6575	9
6563	6566	6567	6568	9
6563	6566	6567	6574	9
6564	6565	6568	6567	9
6564	6565	6568	6573	9
6564	6565	6575	6577	9
6564	6563	6566	6567	9
6564	6563	6566	6572	9
6564	6563	6569	6570	9
6565	6564	6563	6566	9
6565	6564	6563	6569	9
6565	6568	6567	6566	9
6565	6568	6567	6574	9
6568	6565	6564	6571	9
6568	6565	6575	6577	9
6568	6567	6566	6572	9
6568	6567	6574	6576	9
6567	6568	6565	6575	9
6567	6566	6563	6569	9
6566	6567	6568	6573	9
6566	6567	6574	6576	9
6566	6563	6564	6571	9
6566	6563	6569	6570	9
6573	6568	6567	6574	9
6572	6566	6567	6574	9
6569	6563	6564	6571	9
6569	6563	6566	6572	9
6571	6564	6565	6575	9
6573	6568	6565	6575	9
6592	6593	6594	6597	9
6592	6593	6594	6604	9
6592	6595	6596	6597	9
6592	6595	6596	6603	9
6593	6594	6597	6596	9
6593	6594	6597	6602	9
6593	6594	6604	6606	9
6593	6592	6595	6596	9
6593	6592	6595	6601	9
6593	6592	6598	6599	9
6594	6593	6592	6595	9
6594	6593	6592	6598	9
6594	6597	6596	6595	9
6594	6597	6596	6603	9
6597	6594	6593	6600	9
6597	6594	6604	6606	9
6597	6596	6595	6601	9
6597	6596	6603	6605	9
6596	6597	6594	6604	9
6596	6595	6592	6598	9
6595	6596	6597	6602	9
6595	6596	6603	6605	9
6595	6592	6593	6600	9
6595	6592	6598	6599	9
6602	6597	6596	6603	9
6601	6595	6596	6603	9
6598	6592	6593	6600	9
6598	6592	6595	6601	9
6600	6593	6594	6604	9
6602	6597	6594	6604	9
6621	6622	6623	6626	9
6621	6622	6623	6633	9
6621	6624	6625	6626	9
6621	6624	6625	6632	9
6622	6623	6626	6625	9
6622	6623	6626	6631	9
6622	6623	6633	6635	9
6622	6621	6624	6625	9
6622	6621	6624	6630	9
6622	6621	6627	6628	9
6623	6622	6621	6624	9
6623	6622	6621	6627	9
6623	6626	6625	6624	9
6623	6626	6625	6632	9
6626	6623	6622	6629	9
6626	6623	6633	6635	9
6626	6625	6624	6630	9
6626	6625	6632	6634	9
6625	6626	6623	6633	9
6625	6624	6621	6627	9
6624	6625	6626	6631	9
6624	6625	6632	6634	9
6624	6621	6622	6629	9
6624	6621	6627	6628	9
6631	6626	6625	6632	9
6630	6624	6625	6632	9
6627	6621	6622	6629	9
6627	6621	6624	6630	9
6629	6622	6623	6633	9
6631	6626	6623	6633	9
6650	6651	6652	6655	9
6650	6651	6652	6662	9
6650	6653	6654	6655	9
6650	6653	6654	6661	9
6651	6652	6655	6654	9
6651	6652	6655	6660	9
6651	6652	6662	6664	9
6651	6650	6653	6654	9
6651	6650	6653	6659	9
6651	6650	6656	6657	9
6652	6651	6650	6653	9
6652	6651	6650	6656	9
6652	6655	6654	6653	9
6652	6655	6654	6661	9
6655	6652	6651	6658	9
6655	6652	6662	6664	9
6655	6654	6653	6659	9
6655	6654	6661	6663	9
6654	6655	6652	6662	9
6654	6653	6650	6656	9
6653	6654	6655	6660	9
6653	6654	6661	6663	9
6653	6650	6651	6658	9
6653	6650	6656	6657	9
6660	6655	6654	6661	9
6659	6653	6654	6661	9
6656	6650	6651	6658	9
6656	6650	6653	6659	9
6658	6651	6652	6662	9
6660	6655	6652	6662	9
6679	6682	6683	6684	9
6679	6682	6683	6690	9
6679	6680	6681	6684	9
6679	6680	6681	6691	9
6681	6684	6683	6682	9
6682	6683	6684	6689	9
6682	6683	6690	6692	9
6681	6680	6679	6682	9
6682	6679	6680	6687	9
6682	6679	6685	6686	9
6680	6679	6682	6683	9
6683	6682	6679	6685	9
6680	6681	6684	6683	9
6683	6684	6681	6691	9
6684	6683	6682	6688	9
6684	6683	6690	6692	9
6684	6681	6680	6687	9
6684	6681	6691	6693	9
6681	6684	6683	6690	9
6681	6680	6679	6685	9
6680	6681	6684	6689	9
6680	6681	6691	6693	9
6680	6679	6682	6688	9
6680	6679	6685	6686	9
6689	6684	6681	6691	9
6687	6680	6681	6691	9
6685	6679	6682	6688	9
6685	6679	6680	6687	9
6688	6682	6683	6690	9
6689	6684	6683	6690	9
6709	6710	6713	6712	9
6712	6713	6710	6720	9
6709	6708	6711	6712	9
6712	6711	6708	6714	9
6708	6709	6710	6713	9
6713	6710	6709	6716	9
6713	6710	6720	6722	9
6708	6711	6712	6713	9
6713	6712	6711	6717	9
6713	6712	6719	6721	9
6710	6713	6712	6711	9
6710	6713	6712	6719	9
6710	6709	6708	6711	9
6710	6709	6708	6714	9
6709	6710	6713	6718	9
6709	6710	6720	6722	9
6709	6708	6711	6717	9
6709	6708	6714	6715	9
6708	6709	6710	6720	9
6708	6711	6712	6719	9
6711	6708	6709	6716	9
6711	6708	6714	6715	9
6711	6712	6713	6718	9
6711	6712	6719	6721	9
6714	6708	6709	6716	9
6714	6708	6711	6717	9
6718	6713	6712	6719	9
6717	6711	6712	6719	9
6718	6713	6710	6720	9
6716	6709	6710	6720	9
6723	6724	6725	6728	9
6723	6724	6725	6735	9
6723	6726	6727	6728	9
6723	6726	6727	6734	9
6727	6728	6725	6724	9
6724	6725	6728	6733	9
6724	6725	6735	6737	9
6727	6726	6723	6724	9
6724	6723	6726	6732	9
6724	6723	6729	6730	9
6726	6723	6724	6725	9
6725	6724	6723	6729	9
6726	6727	6728	6725	9
6725	6728	6727	6734	9
6728	6725	6724	6731	9
6728	6725	6735	6737	9
6728	6727	6726	6732	9
6728	6727	6734	6736	9
6727	6728	6725	6735	9
6727	6726	6723	6729	9
6726	6727	6728	6733	9
6726	6727	6734	6736	9
6726	6723	6724	6731	9
6726	6723	6729	6730	9
6733	6728	6727	6734	9
6732	6726	6727	6734	9
6729	6723	6724	6731	9
6729	6723	6726	6732	9
6731	6724	6725	6735	9
6733	6728	6725	6735	9
6752	6753	6754	6757	9
6752	6753	6754	6764	9
6752	6755	6756	6757	9
6752	6755	6756	6763	9
6756	6757	6754	6753	9
6753	6754	6757	6762	9
6753	6754	6764	6766	9
6756	6755	6752	6753	9
6753	6752	6755	6761	9
6753	6752	6758	6759	9
6755	6752	6753	6754	9
6754	6753	6752	6758	9
6755	6756	6757	6754	9
6754	6757	6756	6763	9
6757	6754	6753	6760	9
6757	6754	6764	6766	9
6757	6756	6755	6761	9
6757	6756	6763	6765	9
6756	6757	6754	6764	9
6756	6755	6752	6758	9
6755	6756	6757	6762	9
6755	6756	6763	6765	9
6755	6752	6753	6760	9
6755	6752	6758	6759	9
6762	6757	6756	6763	9
6761	6755	6756	6763	9
6758	6752	6753	6760	9
6758	6752	6755	6761	9
6760	6753	6754	6764	9
6762	6757	6754	6764	9
6781	6782	6783	6786	9
6781	6782	6783	6793	9
6781	6784	6785	6786	9
6781	6784	6785	6792	9
6782	6783	6786	6785	9
6782	6783	6786	6791	9
6782	6783	6793	6795	9
6782	6781	6784	6785	9
6782	6781	6784	6790	9
6782	6781	6787	6788	9
6783	6782	6781	6784	9
6783	6782	6781	6787	9
6783	6786	6785	6784	9
6783	6786	6785	6792	9
6786	6783	6782	6789	9
6786	6783	6793	6795	9
6786	6785	6784	6790	9
6786	6785	6792	6794	9
6785	6786	6783	6793	9
6785	6784	6781	6787	9
6784	6785	6786	6791	9
6784	6785	6792	6794	9
6784	6781	6782	6789	9
6784	6781	6787	6788	9
6791	6786	6785	6792	9
6790	6784	6785	6792	9
6787	6781	6782	6789	9
6787	6781	6784	6790	9
6789	6782	6783	6793	9
6791	6786	6783	6793	9
6796	6797	6798	6801	9
6796	6797	6798	6808	9
6796	6799	6800	6801	9
6796	6799	6800	6807	9
6797	6798	6801	6800	9
6797	6798	6801	6806	9
6797	6798	6808	6810	9
6797	6796	6799	6800	9
6797	6796	6799	6805	9
6797	6796	6802	6803	9
6798	6797	6796	6799	9
6798	6797	6796	6802	9
6798	6801	6800	6799	9
6798	6801	6800	6807	9
6801	6798	6797	6804	9
6801	6798	6808	6810	9
6801	6800	6799	6805	9
6801	6800	6807	6809	9
6800	6801	6798	6808	9
6800	6799	6796	6802	9
6799	6800	6801	6806	9
6799	6800	6807	6809	9
6799	6796	6797	6804	9
6799	6796	6802	6803	9
6806	6801	6800	6807	9
6805	6799	6800	6807	9
6802	6796	6797	6804	9
6802	6796	6799	6805	9
6804	6797	6798	6808	9
6806	6801	6798	6808	9
6825	6826	6827	6830	9
6825	6826	6827	6837	9
6825	6828	6829	6830	9
6825	6828	6829	6836	9
6826	6827	6830	6829	9
6826	6827	6830	6835	9
6826	6827	6837	6839	9
6826	6825	6828	6829	9
6826	6825	6828	6834	9
6826	6825	6831	6832	9
6827	6826	6825	6828	9
6827	6826	6825	6831	9
6827	6830	6829	6828	9
6827	6830	6829	6836	9
6830	6827	6826	6833	9
6830	6827	6837	6839	9
6830	6829	6828	6834	9
6830	6829	6836	6838	9
6829	6830	6827	6837	9
6829	6828	6825	6831	9
6828	6829	6830	6835	9
6828	6829	6836	6838	9
6828	6825	6826	6833	9
6828	6825	6831	6832	9
6835	6830	6829	6836	9
6834	6828	6829	6836	9
6831	6825	6826	6833	9
6831	6825	6828	6834	9
6833	6826	6827	6837	9
6835	6830	6827	6837	9
6854	6855	6856	6859	9
6854	6855	6856	6866	9
6854	6857	6858	6859	9
6854	6857	6858	6865	9
6855	6856	6859	6858	9
6855	6856	6859	6864	9
6855	6856	6866	6868	9
6855	6854	6857	6858	9
6855	6854	6857	6863	9
6855	6854	6860	6861	9
6856	6855	6854	6857	9
6856	6855	6854	6860	9
6856	6859	6858	6857	9
6856	6859	6858	6865	9
6859	6856	6855	6862	9
6859	6856	6866	6868	9
6859	6858	6857	6863	9
6859	6858	6865	6867	9
6858	6859	6856	6866	9
6858	6857	6854	6860	9
6857	6858	6859	6864	9
6857	6858	6865	6867	9
6857	6854	6855	6862	9
6857	6854	6860	6861	9
6864	6859	6858	6865	9
6863	6857	6858	6865	9
6860	6854	6855	6862	9
6860	6854	6857	6863	9
6862	6855	6856	6866	9
6864	6859	6856	6866	9
6883	6886	6887	6888	9
6883	6886	6887	6894	9
6883	6884	6885	6888	9
6883	6884	6885	6895	9
6885	6888	6887	6886	9
6886	6887	6888	6893	9
6886	6887	6894	6896	9
6885	6884	6883	6886	9
6886	6883	6884	6891	9
6886	6883	6889	6890	9
6884	6883	6886	6887	9
6887	6886	6883	6889	9
6884	6885	6888	6887	9
6887	6888	6885	6895	9
6888	6887	6886	6892	9
6888	6887	6894	6896	9
6888	6885	6884	6891	9
6888	6885	6895	6897	9
6885	6888	6887	6894	9
6885	6884	6883	6889	9
6884	6885	6888	6893	9
6884	6885	6895	6897	9
6884	6883	6886	6892	9
6884	6883	6889	6890	9
6893	6888	6885	6895	9
6891	6884	6885	6895	9
6889	6883	6886	6892	9
6889	6883	6884	6891	9
6892	6886	6887	6894	9
6893	6888	6887	6894	9
1382	1383	1384	1387	9
1382	1383	1384	1394	9
1382	1385	1386	1387	9
1382	1385	1386	1393	9
1383	1384	1387	1386	9
1383	1384	1387	1392	9
1383	1384	1394	1396	9
1383	1384	1394	1397	9
1383	1382	1385	1386	9
1383	1382	1385	1391	9
1383	1382	1388	1389	9
1384	1383	1382	1385	9
1384	1383	1382	1388	9
1384	1387	1386	1385	9
1384	1387	1386	1393	9
1384	1394	1397	1398	9
1387	1384	1383	1390	9
1387	1384	1394	1396	9
1387	1384	1394	1397	9
1387	1386	1385	1391	9
1387	1386	1393	1395	9
1386	1387	1384	1394	9
1386	1385	1382	1388	9
1385	1386	1387	1392	9
1385	1386	1393	1395	9
1385	1382	1383	1390	9
1385	1382	1388	1389	9
1392	1387	1386	1393	9
1391	1385	1386	1393	9
1388	1382	1383	1390	9
1388	1382	1385	1391	9
1390	1383	1384	1394	9
1392	1387	1384	1394	9
1396	1394	1397	1398	9
1413	1416	1417	1418	9
1413	1416	1417	1424	9
1413	1414	1415	1418	9
1413	1414	1415	1425	9
1415	1418	1417	1416	9
1416	1417	1418	1423	9
1416	1417	1424	1426	9
1415	1414	1413	1416	9
1416	1413	1414	1421	9
1416	1413	1419	1420	9
1414	1413	1416	1417	9
1417	1416	1413	1419	9
1414	1415	1418	1417	9
1417	1418	1415	1425	9
1418	1417	1416	1422	9
1418	1417	1424	1426	9
1418	1415	1414	1421	9
1418	1415	1425	1427	9
1418	1415	1425	1428	9
1415	1418	1417	1424	9
1415	1414	1413	1419	9
1415	1425	1428	1429	9
1414	1415	1418	1423	9
1414	1415	1425	1427	9
1414	1415	1425	1428	9
1414	1413	1416	1422	9
1414	1413	1419	1420	9
1423	1418	1415	1425	9
1421	1414	1415	1425	9
1419	1413	1416	1422	9
1419	1413	1414	1421	9
1422	1416	1417	1424	9
1423	1418	1417	1424	9
1427	1425	1428	1429	9
6912	6913	6914	6917	9
6912	6913	6914	6924	9
6912	6915	6916	6917	9
6912	6915	6916	6923	9
6913	6914	6917	6916	9
6913	6914	6917	6922	9
6913	6914	6924	6926	9
6913	6912	6915	6916	9
6913	6912	6915	6921	9
6913	6912	6918	6919	9
6914	6913	6912	6915	9
6914	6913	6912	6918	9
6914	6917	6916	6915	9
6914	6917	6916	6923	9
6917	6914	6913	6920	9
6917	6914	6924	6926	9
6917	6916	6915	6921	9
6917	6916	6923	6925	9
6916	6917	6914	6924	9
6916	6915	6912	6918	9
6915	6916	6917	6922	9
6915	6916	6923	6925	9
6915	6912	6913	6920	9
6915	6912	6918	6919	9
6922	6917	6916	6923	9
6921	6915	6916	6923	9
6918	6912	6913	6920	9
6918	6912	6915	6921	9
6920	6913	6914	6924	9
6922	6917	6914	6924	9
6927	6928	6929	6932	9
6927	6928	6929	6939	9
6927	6930	6931	6932	9
6927	6930	6931	6938	9
6931	6932	6929	6928	9
6928	6929	6932	6937	9
6928	6929	6939	6941	9
6931	6930	6927	6928	9
6928	6927	6930	6936	9
6928	6927	6933	6934	9
6930	6927	6928	6929	9
6929	6928	6927	6933	9
6930	6931	6932	6929	9
6929	6932	6931	6938	9
6932	6929	6928	6935	9
6932	6929	6939	6941	9
6932	6931	6930	6936	9
6932	6931	6938	6940	9
6931	6932	6929	6939	9
6931	6930	6927	6933	9
6930	6931	6932	6937	9
6930	6931	6938	6940	9
6930	6927	6928	6935	9
6930	6927	6933	6934	9
6937	6932	6931	6938	9
6936	6930	6931	6938	9
6933	6927	6928	6935	9
6933	6927	6930	6936	9
6935	6928	6929	6939	9
6937	6932	6929	6939	9
6956	6957	6958	6961	9
6956	6957	6958	6968	9
6956	6959	6960	6961	9
6956	6959	6960	6967	9
6960	6961	6958	6957	9
6957	6958	6961	6966	9
6957	6958	6968	6970	9
6960	6959	6956	6957	9
6957	6956	6959	6965	9
6957	6956	6962	6963	9
6959	6956	6957	6958	9
6958	6957	6956	6962	9
6959	6960	6961	6958	9
6958	6961	6960	6967	9
6961	6958	6957	6964	9
6961	6958	6968	6970	9
6961	6960	6959	6965	9
6961	6960	6967	6969	9
6960	6961	6958	6968	9
6960	6959	6956	6962	9
6959	6960	6961	6966	9
6959	6960	6967	6969	9
6959	6956	6957	6964	9
6959	6956	6962	6963	9
6966	6961	6960	6967	9
6965	6959	6960	6967	9
6962	6956	6957	6964	9
6962	6956	6959	6965	9
6964	6957	6958	6968	9
6966	6961	6958	6968	9
6989	6988	6985	6986	9
6989	6988	6985	6991	9
6989	6990	6987	6986	9
6989	6990	6987	6997	9
6987	6986	6985	6988	9
6988	6985	6986	6993	9
6988	6985	6991	6992	9
6987	6990	6989	6988	9
6988	6989	6990	6995	9
6988	6989	6996	6998	9
6990	6989	6988	6985	9
6985	6988	6989	6996	9
6990	6987	6986	6985	9
6985	6986	6987	6997	9
6986	6985	6988	6994	9
6986	6985	6991	6992	9
6986	6987	6990	6995	9
6986	6987	6997	6999	9
6987	6986	6985	6991	9
6987	6990	6989	6996	9
6990	6987	6986	6993	9
6990	6987	6997	6999	9
6990	6989	6988	6994	9
6990	6989	6996	6998	9
6993	6986	6987	6997	9
6995	6990	6987	6997	9
6996	6989	6988	6994	9
6996	6989	6990	6995	9
6994	6988	6985	6991	9
6993	6986	6985	6991	9
1444	1447	1448	1449	9
1444	1447	1448	1455	9
1444	1445	1446	1449	9
1444	1445	1446	1456	9
1446	1449	1448	1447	9
1447	1448	1449	1454	9
1447	1448	1455	1457	9
1446	1445	1444	1447	9
1447	1444	1445	1452	9
1447	1444	1450	1451	9
1445	1444	1447	1448	9
1448	1447	1444	1450	9
1445	1446	1449	1448	9
1448	1449	1446	1456	9
1449	1448	1447	1453	9
1449	1448	1455	1457	9
1449	1446	1445	1452	9
1449	1446	1456	1458	9
1449	1446	1456	1459	9
1446	1449	1448	1455	9
1446	1445	1444	1450	9
1446	1456	1459	1460	9
1445	1446	1449	1454	9
1445	1446	1456	1458	9
1445	1446	1456	1459	9
1445	1444	1447	1453	9
1445	1444	1450	1451	9
1454	1449	1446	1456	9
1452	1445	1446	1456	9
1450	1444	1447	1453	9
1450	1444	1445	1452	9
1453	1447	1448	1455	9
1454	1449	1448	1455	9
1458	1456	1459	1460	9
7000	7003	7004	7005	9
7000	7003	7004	7011	9
7000	7001	7002	7005	9
7000	7001	7002	7012	9
7002	7005	7004	7003	9
7003	7004	7005	7010	9
7003	7004	7011	7013	9
7002	7001	7000	7003	9
7003	7000	7001	7008	9
7003	7000	7006	7007	9
7001	7000	7003	7004	9
7004	7003	7000	7006	9
7001	7002	7005	7004	9
7004	7005	7002	7012	9
7005	7004	7003	7009	9
7005	7004	7011	7013	9
7005	7002	7001	7008	9
7005	7002	7012	7014	9
7002	7005	7004	7011	9
7002	7001	7000	7006	9
7001	7002	7005	7010	9
7001	7002	7012	7014	9
7001	7000	7003	7009	9
7001	7000	7006	7007	9
7010	7005	7002	7012	9
7008	7001	7002	7012	9
7006	7000	7003	7009	9
7006	7000	7001	7008	9
7009	7003	7004	7011	9
7010	7005	7004	7011	9
1477	1476	1475	1478	9
1477	1476	1475	1481	9
1477	1480	1479	1478	9
1477	1480	1479	1486	9
1477	1487	1490	1491	9
1476	1475	1478	1479	9
1476	1475	1478	1484	9
1476	1475	1481	1482	9
1476	1477	1480	1479	9
1476	1477	1480	1485	9
1476	1477	1487	1489	9
1476	1477	1487	1490	9
1475	1476	1477	1480	9
1475	1476	1477	1487	9
1475	1478	1479	1480	9
1475	1478	1479	1486	9
1478	1475	1476	1483	9
1478	1475	1481	1482	9
1478	1479	1480	1485	9
1478	1479	1486	1488	9
1479	1478	1475	1481	9
1479	1480	1477	1487	9
1480	1479	1478	1484	9
1480	1479	1486	1488	9
1480	1477	1476	1483	9
1480	1477	1487	1489	9
1480	1477	1487	1490	9
1484	1478	1479	1486	9
1485	1480	1479	1486	9
1483	1476	1477	1487	9
1485	1480	1477	1487	9
1481	1475	1476	1483	9
1481	1475	1478	1484	9
1489	1487	1490	1491	9
7029	7032	7033	7034	9
7029	7032	7033	7040	9
7029	7030	7031	7034	9
7029	7030	7031	7041	9
7031	7034	7033	7032	9
7032	7033	7034	7039	9
7032	7033	7040	7042	9
7031	7030	7029	7032	9
7032	7029	7030	7037	9
7032	7029	7035	7036	9
7030	7029	7032	7033	9
7033	7032	7029	7035	9
7030	7031	7034	7033	9
7033	7034	7031	7041	9
7034	7033	7032	7038	9
7034	7033	7040	7042	9
7034	7031	7030	7037	9
7034	7031	7041	7043	9
7031	7034	7033	7040	9
7031	7030	7029	7035	9
7030	7031	7034	7039	9
7030	7031	7041	7043	9
7030	7029	7032	7038	9
7030	7029	7035	7036	9
7039	7034	7031	7041	9
7037	7030	7031	7041	9
7035	7029	7032	7038	9
7035	7029	7030	7037	9
7038	7032	7033	7040	9
7039	7034	7033	7040	9
7046	7045	7044	7047	9
7046	7045	7044	7050	9
7046	7049	7048	7047	9
7046	7049	7048	7055	9
7045	7044	7047	7048	9
7045	7044	7047	7053	9
7045	7044	7050	7051	9
7045	7046	7049	7048	9
7045	7046	7049	7054	9
7045	7046	7056	7058	9
7044	7045	7046	7049	9
7044	7045	7046	7056	9
7044	7047	7048	7049	9
7044	7047	7048	7055	9
7047	7044	7045	7052	9
7047	7044	7050	7051	9
7047	7048	7049	7054	9
7047	7048	7055	7057	9
7048	7047	7044	7050	9
7048	7049	7046	7056	9
7049	7048	7047	7053	9
7049	7048	7055	7057	9
7049	7046	7045	7052	9
7049	7046	7056	7058	9
7053	7047	7048	7055	9
7054	7049	7048	7055	9
7052	7045	7046	7056	9
7054	7049	7046	7056	9
7050	7044	7045	7052	9
7050	7044	7047	7053	9
7073	7074	7075	7078	9
7073	7074	7075	7085	9
7073	7076	7077	7078	9
7073	7076	7077	7084	9
7074	7075	7078	7077	9
7074	7075	7078	7083	9
7074	7075	7085	7087	9
7074	7073	7076	7077	9
7074	7073	7076	7082	9
7074	7073	7079	7080	9
7075	7074	7073	7076	9
7075	7074	7073	7079	9
7075	7078	7077	7076	9
7075	7078	7077	7084	9
7078	7075	7074	7081	9
7078	7075	7085	7087	9
7078	7077	7076	7082	9
7078	7077	7084	7086	9
7077	7078	7075	7085	9
7077	7076	7073	7079	9
7076	7077	7078	7083	9
7076	7077	7084	7086	9
7076	7073	7074	7081	9
7076	7073	7079	7080	9
7083	7078	7077	7084	9
7082	7076	7077	7084	9
7079	7073	7074	7081	9
7079	7073	7076	7082	9
7081	7074	7075	7085	9
7083	7078	7075	7085	9
7102	7103	7104	7107	9
7102	7103	7104	7114	9
7102	7105	7106	7107	9
7102	7105	7106	7113	9
7103	7104	7107	7106	9
7103	7104	7107	7112	9
7103	7104	7114	7116	9
7103	7102	7105	7106	9
7103	7102	7105	7111	9
7103	7102	7108	7109	9
7104	7103	7102	7105	9
7104	7103	7102	7108	9
7104	7107	7106	7105	9
7104	7107	7106	7113	9
7107	7104	7103	7110	9
7107	7104	7114	7116	9
7107	7106	7105	7111	9
7107	7106	7113	7115	9
7106	7107	7104	7114	9
7106	7105	7102	7108	9
7105	7106	7107	7112	9
7105	7106	7113	7115	9
7105	7102	7103	7110	9
7105	7102	7108	7109	9
7112	7107	7106	7113	9
7111	7105	7106	7113	9
7108	7102	7103	7110	9
7108	7102	7105	7111	9
7110	7103	7104	7114	9
7112	7107	7104	7114	9
7131	7134	7135	7136	9
7131	7134	7135	7142	9
7131	7132	7133	7136	9
7131	7132	7133	7143	9
7134	7135	7136	7133	9
7134	7135	7136	7141	9
7134	7135	7142	7144	9
7134	7131	7132	7133	9
7134	7131	7132	7139	9
7134	7131	7137	7138	9
7135	7134	7131	7132	9
7135	7134	7131	7137	9
7135	7136	7133	7132	9
7135	7136	7133	7143	9
7136	7135	7134	7140	9
7136	7135	7142	7144	9
7136	7133	7132	7139	9
7136	7133	7143	7145	9
7133	7136	7135	7142	9
7133	7132	7131	7137	9
7132	7133	7136	7141	9
7132	7133	7143	7145	9
7132	7131	7134	7140	9
7132	7131	7137	7138	9
7141	7136	7133	7143	9
7139	7132	7133	7143	9
7137	7131	7134	7140	9
7137	7131	7132	7139	9
7140	7134	7135	7142	9
7141	7136	7135	7142	9
7160	7163	7164	7165	9
7160	7163	7164	7171	9
7160	7161	7162	7165	9
7160	7161	7162	7172	9
7163	7164	7165	7162	9
7163	7164	7165	7170	9
7163	7164	7171	7173	9
7163	7160	7161	7162	9
7163	7160	7161	7168	9
7163	7160	7166	7167	9
7164	7163	7160	7161	9
7164	7163	7160	7166	9
7164	7165	7162	7161	9
7164	7165	7162	7172	9
7165	7164	7163	7169	9
7165	7164	7171	7173	9
7165	7162	7161	7168	9
7165	7162	7172	7174	9
7162	7165	7164	7171	9
7162	7161	7160	7166	9
7161	7162	7165	7170	9
7161	7162	7172	7174	9
7161	7160	7163	7169	9
7161	7160	7166	7167	9
7170	7165	7162	7172	9
7168	7161	7162	7172	9
7166	7160	7163	7169	9
7166	7160	7161	7168	9
7169	7163	7164	7171	9
7170	7165	7164	7171	9
1506	1507	1508	1511	9
1506	1507	1508	1518	9
1506	1509	1510	1511	9
1506	1509	1510	1517	9
1507	1508	1511	1510	9
1507	1508	1511	1516	9
1507	1508	1518	1520	9
1507	1508	1518	1521	9
1507	1506	1509	1510	9
1507	1506	1509	1515	9
1507	1506	1512	1513	9
1508	1507	1506	1509	9
1508	1507	1506	1512	9
1508	1511	1510	1509	9
1508	1511	1510	1517	9
1508	1518	1521	1522	9
1511	1508	1507	1514	9
1511	1508	1518	1520	9
1511	1508	1518	1521	9
1511	1510	1509	1515	9
1511	1510	1517	1519	9
1510	1511	1508	1518	9
1510	1509	1506	1512	9
1509	1510	1511	1516	9
1509	1510	1517	1519	9
1509	1506	1507	1514	9
1509	1506	1512	1513	9
1516	1511	1510	1517	9
1515	1509	1510	1517	9
1512	1506	1507	1514	9
1512	1506	1509	1515	9
1514	1507	1508	1518	9
1516	1511	1508	1518	9
1520	1518	1521	1522	9
7193	7194	7191	7190	9
7193	7194	7191	7201	9
7193	7192	7189	7190	9
7193	7192	7189	7195	9
7194	7191	7190	7189	9
7194	7191	7190	7197	9
7194	7191	7201	7203	9
7194	7193	7192	7189	9
7194	7193	7192	7198	9
7194	7193	7200	7202	9
7191	7194	7193	7192	9
7191	7194	7193	7200	9
7191	7190	7189	7192	9
7191	7190	7189	7195	9
7190	7191	7194	7199	9
7190	7191	7201	7203	9
7190	7189	7192	7198	9
7190	7189	7195	7196	9
7189	7190	7191	7201	9
7189	7192	7193	7200	9
7192	7189	7190	7197	9
7192	7189	7195	7196	9
7192	7193	7194	7199	9
7192	7193	7200	7202	9
7197	7190	7189	7195	9
7198	7192	7189	7195	9
7200	7193	7194	7199	9
7200	7193	7192	7198	9
7199	7194	7191	7201	9
7197	7190	7191	7201	9
7219	7218	7221	7222	9
7222	7221	7218	7224	9
7219	7220	7223	7222	9
7222	7223	7220	7230	9
7220	7219	7218	7221	9
7221	7218	7219	7226	9
7221	7218	7224	7225	9
7220	7223	7222	7221	9
7221	7222	7223	7228	9
7221	7222	7229	7231	9
7218	7221	7222	7223	9
7218	7221	7222	7229	9
7218	7219	7220	7223	9
7218	7219	7220	7230	9
7219	7218	7221	7227	9
7219	7218	7224	7225	9
7219	7220	7223	7228	9
7219	7220	7230	7232	9
7220	7219	7218	7224	9
7220	7223	7222	7229	9
7223	7220	7219	7226	9
7223	7220	7230	7232	9
7223	7222	7221	7227	9
7223	7222	7229	7231	9
7226	7219	7220	7230	9
7228	7223	7220	7230	9
7227	7221	7222	7229	9
7228	7223	7222	7229	9
7224	7218	7221	7227	9
7224	7218	7219	7226	9
74	75	70	71	9
74	75	70	68	9
74	73	72	71	9
74	73	72	78	9
72	71	70	75	9
75	70	71	82	9
75	70	68	69	9
75	70	68	67	9
72	73	74	75	9
75	74	73	83	9
75	74	76	77	9
73	74	75	70	9
70	75	74	76	9
73	72	71	70	9
70	71	72	78	9
70	68	67	81	9
71	70	75	84	9
71	70	68	69	9
71	70	68	67	9
71	72	73	83	9
71	72	78	79	9
71	72	78	80	9
72	71	70	68	9
72	73	74	76	9
73	72	71	82	9
73	72	78	79	9
73	72	78	80	9
73	74	75	84	9
73	74	76	77	9
82	71	72	78	9
83	73	72	78	9
76	74	75	84	9
76	74	73	83	9
84	75	70	68	9
82	71	70	68	9
69	68	67	81	9
7233	7234	7235	7238	9
7233	7234	7235	7245	9
7233	7236	7237	7238	9
7233	7236	7237	7244	9
7234	7235	7238	7237	9
7234	7235	7238	7243	9
7234	7235	7245	7247	9
7234	7233	7236	7237	9
7234	7233	7236	7242	9
7234	7233	7239	7240	9
7235	7234	7233	7236	9
7235	7234	7233	7239	9
7235	7238	7237	7236	9
7235	7238	7237	7244	9
7238	7235	7234	7241	9
7238	7235	7245	7247	9
7238	7237	7236	7242	9
7238	7237	7244	7246	9
7237	7238	7235	7245	9
7237	7236	7233	7239	9
7236	7237	7238	7243	9
7236	7237	7244	7246	9
7236	7233	7234	7241	9
7236	7233	7239	7240	9
7243	7238	7237	7244	9
7242	7236	7237	7244	9
7239	7233	7234	7241	9
7239	7233	7236	7242	9
7241	7234	7235	7245	9
7243	7238	7235	7245	9
7262	7263	7264	7267	9
7262	7263	7264	7274	9
7262	7265	7266	7267	9
7262	7265	7266	7273	9
7263	7264	7267	7266	9
7263	7264	7267	7272	9
7263	7264	7274	7276	9
7263	7262	7265	7266	9
7263	7262	7265	7271	9
7263	7262	7268	7269	9
7264	7263	7262	7265	9
7264	7263	7262	7268	9
7264	7267	7266	7265	9
7264	7267	7266	7273	9
7267	7264	7263	7270	9
7267	7264	7274	7276	9
7267	7266	7265	7271	9
7267	7266	7273	7275	9
7266	7267	7264	7274	9
7266	7265	7262	7268	9
7265	7266	7267	7272	9
7265	7266	7273	7275	9
7265	7262	7263	7270	9
7265	7262	7268	7269	9
7272	7267	7266	7273	9
7271	7265	7266	7273	9
7268	7262	7263	7270	9
7268	7262	7265	7271	9
7270	7263	7264	7274	9
7272	7267	7264	7274	9
7291	7294	7295	7296	9
7291	7294	7295	7302	9
7291	7292	7293	7296	9
7291	7292	7293	7303	9
7293	7296	7295	7294	9
7294	7295	7296	7301	9
7294	7295	7302	7304	9
7293	7292	7291	7294	9
7294	7291	7292	7299	9
7294	7291	7297	7298	9
7292	7291	7294	7295	9
7295	7294	7291	7297	9
7292	7293	7296	7295	9
7295	7296	7293	7303	9
7296	7295	7294	7300	9
7296	7295	7302	7304	9
7296	7293	7292	7299	9
7296	7293	7303	7305	9
7293	7296	7295	7302	9
7293	7292	7291	7297	9
7292	7293	7296	7301	9
7292	7293	7303	7305	9
7292	7291	7294	7300	9
7292	7291	7297	7298	9
7301	7296	7293	7303	9
7299	7292	7293	7303	9
7297	7291	7294	7300	9
7297	7291	7292	7299	9
7300	7294	7295	7302	9
7301	7296	7295	7302	9
7320	7323	7324	7325	9
7320	7323	7324	7331	9
7320	7321	7322	7325	9
7320	7321	7322	7332	9
7322	7325	7324	7323	9
7323	7324	7325	7330	9
7323	7324	7331	7333	9
7322	7321	7320	7323	9
7323	7320	7321	7328	9
7323	7320	7326	7327	9
7321	7320	7323	7324	9
7324	7323	7320	7326	9
7321	7322	7325	7324	9
7324	7325	7322	7332	9
7325	7324	7323	7329	9
7325	7324	7331	7333	9
7325	7322	7321	7328	9
7325	7322	7332	7334	9
7322	7325	7324	7331	9
7322	7321	7320	7326	9
7321	7322	7325	7330	9
7321	7322	7332	7334	9
7321	7320	7323	7329	9
7321	7320	7326	7327	9
7330	7325	7322	7332	9
7328	7321	7322	7332	9
7326	7320	7323	7329	9
7326	7320	7321	7328	9
7329	7323	7324	7331	9
7330	7325	7324	7331	9
7349	7350	7351	7354	9
7349	7350	7351	7361	9
7349	7352	7353	7354	9
7349	7352	7353	7360	9
7353	7354	7351	7350	9
7350	7351	7354	7359	9
7350	7351	7361	7363	9
7353	7352	7349	7350	9
7350	7349	7352	7358	9
7350	7349	7355	7356	9
7352	7349	7350	7351	9
7351	7350	7349	7355	9
7352	7353	7354	7351	9
7351	7354	7353	7360	9
7354	7351	7350	7357	9
7354	7351	7361	7363	9
7354	7353	7352	7358	9
7354	7353	7360	7362	9
7353	7354	7351	7361	9
7353	7352	7349	7355	9
7352	7353	7354	7359	9
7352	7353	7360	7362	9
7352	7349	7350	7357	9
7352	7349	7355	7356	9
7359	7354	7353	7360	9
7358	7352	7353	7360	9
7355	7349	7350	7357	9
7355	7349	7352	7358	9
7357	7350	7351	7361	9
7359	7354	7351	7361	9
1539	1538	1537	1540	9
1539	1538	1537	1543	9
1539	1542	1541	1540	9
1539	1542	1541	1548	9
1539	1549	1552	1553	9
1538	1537	1540	1541	9
1538	1537	1540	1546	9
1538	1537	1543	1544	9
1538	1539	1542	1541	9
1538	1539	1542	1547	9
1538	1539	1549	1551	9
1538	1539	1549	1552	9
1537	1538	1539	1542	9
1537	1538	1539	1549	9
1537	1540	1541	1542	9
1537	1540	1541	1548	9
1540	1537	1538	1545	9
1540	1537	1543	1544	9
1540	1541	1542	1547	9
1540	1541	1548	1550	9
1541	1540	1537	1543	9
1541	1542	1539	1549	9
1542	1541	1540	1546	9
1542	1541	1548	1550	9
1542	1539	1538	1545	9
1542	1539	1549	1551	9
1542	1539	1549	1552	9
1546	1540	1541	1548	9
1547	1542	1541	1548	9
1545	1538	1539	1549	9
1547	1542	1539	1549	9
1543	1537	1538	1545	9
1543	1537	1540	1546	9
1551	1549	1552	1553	9
1568	1571	1572	1573	9
1568	1571	1572	1579	9
1568	1569	1570	1573	9
1568	1569	1570	1580	9
1570	1573	1572	1571	9
1571	1572	1573	1578	9
1571	1572	1579	1581	9
1570	1569	1568	1571	9
1571	1568	1569	1576	9
1571	1568	1574	1575	9
1569	1568	1571	1572	9
1572	1571	1568	1574	9
1569	1570	1573	1572	9
1572	1573	1570	1580	9
1573	1572	1571	1577	9
1573	1572	1579	1581	9
1573	1570	1569	1576	9
1573	1570	1580	1582	9
1573	1570	1580	1583	9
1570	1573	1572	1579	9
1570	1569	1568	1574	9
1570	1580	1583	1584	9
1569	1570	1573	1578	9
1569	1570	1580	1582	9
1569	1570	1580	1583	9
1569	1568	1571	1577	9
1569	1568	1574	1575	9
1578	1573	1570	1580	9
1576	1569	1570	1580	9
1574	1568	1571	1577	9
1574	1568	1569	1576	9
1577	1571	1572	1579	9
1578	1573	1572	1579	9
1582	1580	1583	1584	9
7378	7379	7380	7383	9
7378	7379	7380	7390	9
7378	7381	7382	7383	9
7378	7381	7382	7389	9
7382	7383	7380	7379	9
7379	7380	7383	7388	9
7379	7380	7390	7392	9
7382	7381	7378	7379	9
7379	7378	7381	7387	9
7379	7378	7384	7385	9
7381	7378	7379	7380	9
7380	7379	7378	7384	9
7381	7382	7383	7380	9
7380	7383	7382	7389	9
7383	7380	7379	7386	9
7383	7380	7390	7392	9
7383	7382	7381	7387	9
7383	7382	7389	7391	9
7382	7383	7380	7390	9
7382	7381	7378	7384	9
7381	7382	7383	7388	9
7381	7382	7389	7391	9
7381	7378	7379	7386	9
7381	7378	7384	7385	9
7388	7383	7382	7389	9
7387	7381	7382	7389	9
7384	7378	7379	7386	9
7384	7378	7381	7387	9
7386	7379	7380	7390	9
7388	7383	7380	7390	9
1599	1600	1601	1604	9
1599	1600	1601	1611	9
1599	1602	1603	1604	9
1599	1602	1603	1610	9
1600	1601	1604	1603	9
1600	1601	1604	1609	9
1600	1601	1611	1613	9
1600	1601	1611	1614	9
1600	1599	1602	1603	9
1600	1599	1602	1608	9
1600	1599	1605	1606	9
1601	1600	1599	1602	9
1601	1600	1599	1605	9
1601	1604	1603	1602	9
1601	1604	1603	1610	9
1601	1611	1614	1615	9
1604	1601	1600	1607	9
1604	1601	1611	1613	9
1604	1601	1611	1614	9
1604	1603	1602	1608	9
1604	1603	1610	1612	9
1603	1604	1601	1611	9
1603	1602	1599	1605	9
1602	1603	1604	1609	9
1602	1603	1610	1612	9
1602	1599	1600	1607	9
1602	1599	1605	1606	9
1609	1604	1603	1610	9
1608	1602	1603	1610	9
1605	1599	1600	1607	9
1605	1599	1602	1608	9
1607	1600	1601	1611	9
1609	1604	1601	1611	9
1613	1611	1614	1615	9
1632	1631	1630	1633	9
1632	1631	1630	1636	9
1632	1635	1634	1633	9
1632	1635	1634	1641	9
1632	1642	1645	1646	9
1631	1630	1633	1634	9
1631	1630	1633	1639	9
1631	1630	1636	1637	9
1631	1632	1635	1634	9
1631	1632	1635	1640	9
1631	1632	1642	1644	9
1631	1632	1642	1645	9
1630	1631	1632	1635	9
1630	1631	1632	1642	9
1630	1633	1634	1635	9
1630	1633	1634	1641	9
1633	1630	1631	1638	9
1633	1630	1636	1637	9
1633	1634	1635	1640	9
1633	1634	1641	1643	9
1634	1633	1630	1636	9
1634	1635	1632	1642	9
1635	1634	1633	1639	9
1635	1634	1641	1643	9
1635	1632	1631	1638	9
1635	1632	1642	1644	9
1635	1632	1642	1645	9
1639	1633	1634	1641	9
1640	1635	1634	1641	9
1638	1631	1632	1642	9
1640	1635	1632	1642	9
1636	1630	1631	1638	9
1636	1630	1633	1639	9
1644	1642	1645	1646	9
7393	7396	7397	7398	9
7393	7396	7397	7404	9
7393	7394	7395	7398	9
7393	7394	7395	7405	9
7395	7398	7397	7396	9
7396	7397	7398	7403	9
7396	7397	7404	7406	9
7395	7394	7393	7396	9
7396	7393	7394	7401	9
7396	7393	7399	7400	9
7394	7393	7396	7397	9
7397	7396	7393	7399	9
7394	7395	7398	7397	9
7397	7398	7395	7405	9
7398	7397	7396	7402	9
7398	7397	7404	7406	9
7398	7395	7394	7401	9
7398	7395	7405	7407	9
7395	7398	7397	7404	9
7395	7394	7393	7399	9
7394	7395	7398	7403	9
7394	7395	7405	7407	9
7394	7393	7396	7402	9
7394	7393	7399	7400	9
7403	7398	7395	7405	9
7401	7394	7395	7405	9
7399	7393	7396	7402	9
7399	7393	7394	7401	9
7402	7396	7397	7404	9
7403	7398	7397	7404	9
104	105	106	107	9
104	105	106	108	9
104	103	102	107	9
104	103	102	100	9
105	106	107	102	9
105	106	107	116	9
105	106	108	109	9
105	104	103	102	9
105	104	103	114	9
105	104	110	111	9
105	104	110	112	9
106	105	104	103	9
106	105	104	110	9
106	107	102	103	9
106	107	102	100	9
107	106	105	115	9
107	106	108	109	9
107	102	103	114	9
107	102	100	101	9
107	102	100	99	9
102	107	106	108	9
102	103	104	110	9
102	100	99	113	9
103	102	107	116	9
103	102	100	101	9
103	102	100	99	9
103	104	105	115	9
103	104	110	111	9
103	104	110	112	9
116	107	102	100	9
114	103	102	100	9
115	105	104	110	9
114	103	104	110	9
108	106	105	115	9
108	106	107	116	9
101	100	99	113	9
7408	7411	7412	7413	9
7408	7411	7412	7419	9
7408	7409	7410	7413	9
7408	7409	7410	7420	9
7410	7413	7412	7411	9
7411	7412	7413	7418	9
7411	7412	7419	7421	9
7410	7409	7408	7411	9
7411	7408	7409	7416	9
7411	7408	7414	7415	9
7409	7408	7411	7412	9
7412	7411	7408	7414	9
7409	7410	7413	7412	9
7412	7413	7410	7420	9
7413	7412	7411	7417	9
7413	7412	7419	7421	9
7413	7410	7409	7416	9
7413	7410	7420	7422	9
7410	7413	7412	7419	9
7410	7409	7408	7414	9
7409	7410	7413	7418	9
7409	7410	7420	7422	9
7409	7408	7411	7417	9
7409	7408	7414	7415	9
7418	7413	7410	7420	9
7416	7409	7410	7420	9
7414	7408	7411	7417	9
7414	7408	7409	7416	9
7417	7411	7412	7419	9
7418	7413	7412	7419	9
7437	7440	7441	7442	9
7437	7440	7441	7448	9
7437	7438	7439	7442	9
7437	7438	7439	7449	9
7439	7442	7441	7440	9
7440	7441	7442	7447	9
7440	7441	7448	7450	9
7439	7438	7437	7440	9
7440	7437	7438	7445	9
7440	7437	7443	7444	9
7438	7437	7440	7441	9
7441	7440	7437	7443	9
7438	7439	7442	7441	9
7441	7442	7439	7449	9
7442	7441	7440	7446	9
7442	7441	7448	7450	9
7442	7439	7438	7445	9
7442	7439	7449	7451	9
7439	7442	7441	7448	9
7439	7438	7437	7443	9
7438	7439	7442	7447	9
7438	7439	7449	7451	9
7438	7437	7440	7446	9
7438	7437	7443	7444	9
7447	7442	7439	7449	9
7445	7438	7439	7449	9
7443	7437	7440	7446	9
7443	7437	7438	7445	9
7446	7440	7441	7448	9
7447	7442	7441	7448	9
7466	7469	7470	7471	9
7466	7469	7470	7477	9
7466	7467	7468	7471	9
7466	7467	7468	7478	9
7468	7471	7470	7469	9
7469	7470	7471	7476	9
7469	7470	7477	7479	9
7468	7467	7466	7469	9
7469	7466	7467	7474	9
7469	7466	7472	7473	9
7467	7466	7469	7470	9
7470	7469	7466	7472	9
7467	7468	7471	7470	9
7470	7471	7468	7478	9
7471	7470	7469	7475	9
7471	7470	7477	7479	9
7471	7468	7467	7474	9
7471	7468	7478	7480	9
7468	7471	7470	7477	9
7468	7467	7466	7472	9
7467	7468	7471	7476	9
7467	7468	7478	7480	9
7467	7466	7469	7475	9
7467	7466	7472	7473	9
7476	7471	7468	7478	9
7474	7467	7468	7478	9
7472	7466	7469	7475	9
7472	7466	7467	7474	9
7475	7469	7470	7477	9
7476	7471	7470	7477	9
7495	7498	7499	7500	9
7495	7498	7499	7506	9
7495	7496	7497	7500	9
7495	7496	7497	7507	9
7497	7500	7499	7498	9
7498	7499	7500	7505	9
7498	7499	7506	7508	9
7497	7496	7495	7498	9
7498	7495	7496	7503	9
7498	7495	7501	7502	9
7496	7495	7498	7499	9
7499	7498	7495	7501	9
7496	7497	7500	7499	9
7499	7500	7497	7507	9
7500	7499	7498	7504	9
7500	7499	7506	7508	9
7500	7497	7496	7503	9
7500	7497	7507	7509	9
7497	7500	7499	7506	9
7497	7496	7495	7501	9
7496	7497	7500	7505	9
7496	7497	7507	7509	9
7496	7495	7498	7504	9
7496	7495	7501	7502	9
7505	7500	7497	7507	9
7503	7496	7497	7507	9
7501	7495	7498	7504	9
7501	7495	7496	7503	9
7504	7498	7499	7506	9
7505	7500	7499	7506	9
7510	7511	7512	7515	9
7510	7511	7512	7522	9
7510	7513	7514	7515	9
7510	7513	7514	7521	9
7511	7512	7515	7514	9
7511	7512	7515	7520	9
7511	7512	7522	7524	9
7511	7510	7513	7514	9
7511	7510	7513	7519	9
7511	7510	7516	7517	9
7512	7511	7510	7513	9
7512	7511	7510	7516	9
7512	7515	7514	7513	9
7512	7515	7514	7521	9
7515	7512	7511	7518	9
7515	7512	7522	7524	9
7515	7514	7513	7519	9
7515	7514	7521	7523	9
7514	7515	7512	7522	9
7514	7513	7510	7516	9
7513	7514	7515	7520	9
7513	7514	7521	7523	9
7513	7510	7511	7518	9
7513	7510	7516	7517	9
7520	7515	7514	7521	9
7519	7513	7514	7521	9
7516	7510	7511	7518	9
7516	7510	7513	7519	9
7518	7511	7512	7522	9
7520	7515	7512	7522	9
7539	7542	7543	7544	9
7539	7542	7543	7550	9
7539	7540	7541	7544	9
7539	7540	7541	7551	9
7542	7543	7544	7541	9
7542	7543	7544	7549	9
7542	7543	7550	7552	9
7542	7539	7540	7541	9
7542	7539	7540	7547	9
7542	7539	7545	7546	9
7543	7542	7539	7540	9
7543	7542	7539	7545	9
7543	7544	7541	7540	9
7543	7544	7541	7551	9
7544	7543	7542	7548	9
7544	7543	7550	7552	9
7544	7541	7540	7547	9
7544	7541	7551	7553	9
7541	7544	7543	7550	9
7541	7540	7539	7545	9
7540	7541	7544	7549	9
7540	7541	7551	7553	9
7540	7539	7542	7548	9
7540	7539	7545	7546	9
7549	7544	7541	7551	9
7547	7540	7541	7551	9
7545	7539	7542	7548	9
7545	7539	7540	7547	9
7548	7542	7543	7550	9
7549	7544	7543	7550	9
1661	1664	1665	1666	9
1661	1664	1665	1672	9
1661	1662	1663	1666	9
1661	1662	1663	1673	9
1663	1666	1665	1664	9
1664	1665	1666	1671	9
1664	1665	1672	1674	9
1663	1662	1661	1664	9
1664	1661	1662	1669	9
1664	1661	1667	1668	9
1662	1661	1664	1665	9
1665	1664	1661	1667	9
1662	1663	1666	1665	9
1665	1666	1663	1673	9
1666	1665	1664	1670	9
1666	1665	1672	1674	9
1666	1663	1662	1669	9
1666	1663	1673	1675	9
1666	1663	1673	1676	9
1663	1666	1665	1672	9
1663	1662	1661	1667	9
1663	1673	1676	1677	9
1662	1663	1666	1671	9
1662	1663	1673	1675	9
1662	1663	1673	1676	9
1662	1661	1664	1670	9
1662	1661	1667	1668	9
1671	1666	1663	1673	9
1669	1662	1663	1673	9
1667	1661	1664	1670	9
1667	1661	1662	1669	9
1670	1664	1665	1672	9
1671	1666	1665	1672	9
1675	1673	1676	1677	9
7568	7571	7572	7573	9
7568	7571	7572	7579	9
7568	7569	7570	7573	9
7568	7569	7570	7580	9
7571	7572	7573	7570	9
7571	7572	7573	7578	9
7571	7572	7579	7581	9
7571	7568	7569	7570	9
7571	7568	7569	7576	9
7571	7568	7574	7575	9
7572	7571	7568	7569	9
7572	7571	7568	7574	9
7572	7573	7570	7569	9
7572	7573	7570	7580	9
7573	7572	7571	7577	9
7573	7572	7579	7581	9
7573	7570	7569	7576	9
7573	7570	7580	7582	9
7570	7573	7572	7579	9
7570	7569	7568	7574	9
7569	7570	7573	7578	9
7569	7570	7580	7582	9
7569	7568	7571	7577	9
7569	7568	7574	7575	9
7578	7573	7570	7580	9
7576	7569	7570	7580	9
7574	7568	7571	7577	9
7574	7568	7569	7576	9
7577	7571	7572	7579	9
7578	7573	7572	7579	9
7583	7584	7585	7588	9
7583	7584	7585	7595	9
7583	7586	7587	7588	9
7583	7586	7587	7594	9
7584	7585	7588	7587	9
7584	7585	7588	7593	9
7584	7585	7595	7597	9
7584	7583	7586	7587	9
7584	7583	7586	7592	9
7584	7583	7589	7590	9
7585	7584	7583	7586	9
7585	7584	7583	7589	9
7585	7588	7587	7586	9
7585	7588	7587	7594	9
7588	7585	7584	7591	9
7588	7585	7595	7597	9
7588	7587	7586	7592	9
7588	7587	7594	7596	9
7587	7588	7585	7595	9
7587	7586	7583	7589	9
7586	7587	7588	7593	9
7586	7587	7594	7596	9
7586	7583	7584	7591	9
7586	7583	7589	7590	9
7593	7588	7587	7594	9
7592	7586	7587	7594	9
7589	7583	7584	7591	9
7589	7583	7586	7592	9
7591	7584	7585	7595	9
7593	7588	7585	7595	9
7616	7617	7614	7613	9
7616	7617	7614	7624	9
7616	7615	7612	7613	9
7616	7615	7612	7618	9
7617	7614	7613	7612	9
7617	7614	7613	7620	9
7617	7614	7624	7626	9
7617	7616	7615	7612	9
7617	7616	7615	7621	9
7617	7616	7623	7625	9
7614	7617	7616	7615	9
7614	7617	7616	7623	9
7614	7613	7612	7615	9
7614	7613	7612	7618	9
7613	7614	7617	7622	9
7613	7614	7624	7626	9
7613	7612	7615	7621	9
7613	7612	7618	7619	9
7612	7613	7614	7624	9
7612	7615	7616	7623	9
7615	7612	7613	7620	9
7615	7612	7618	7619	9
7615	7616	7617	7622	9
7615	7616	7623	7625	9
7620	7613	7612	7618	9
7621	7615	7612	7618	9
7623	7616	7617	7622	9
7623	7616	7615	7621	9
7622	7617	7614	7624	9
7620	7613	7614	7624	9
7641	7644	7645	7646	9
7641	7644	7645	7652	9
7641	7642	7643	7646	9
7641	7642	7643	7653	9
7643	7646	7645	7644	9
7644	7645	7646	7651	9
7644	7645	7652	7654	9
7643	7642	7641	7644	9
7644	7641	7642	7649	9
7644	7641	7647	7648	9
7642	7641	7644	7645	9
7645	7644	7641	7647	9
7642	7643	7646	7645	9
7645	7646	7643	7653	9
7646	7645	7644	7650	9
7646	7645	7652	7654	9
7646	7643	7642	7649	9
7646	7643	7653	7655	9
7643	7646	7645	7652	9
7643	7642	7641	7647	9
7642	7643	7646	7651	9
7642	7643	7653	7655	9
7642	7641	7644	7650	9
7642	7641	7647	7648	9
7651	7646	7643	7653	9
7649	7642	7643	7653	9
7647	7641	7644	7650	9
7647	7641	7642	7649	9
7650	7644	7645	7652	9
7651	7646	7645	7652	9
1692	1695	1696	1697	9
1692	1695	1696	1703	9
1692	1693	1694	1697	9
1692	1693	1694	1704	9
1694	1697	1696	1695	9
1695	1696	1697	1702	9
1695	1696	1703	1705	9
1694	1693	1692	1695	9
1695	1692	1693	1700	9
1695	1692	1698	1699	9
1693	1692	1695	1696	9
1696	1695	1692	1698	9
1693	1694	1697	1696	9
1696	1697	1694	1704	9
1697	1696	1695	1701	9
1697	1696	1703	1705	9
1697	1694	1693	1700	9
1697	1694	1704	1706	9
1697	1694	1704	1707	9
1694	1697	1696	1703	9
1694	1693	1692	1698	9
1694	1704	1707	1708	9
1693	1694	1697	1702	9
1693	1694	1704	1706	9
1693	1694	1704	1707	9
1693	1692	1695	1701	9
1693	1692	1698	1699	9
1702	1697	1694	1704	9
1700	1693	1694	1704	9
1698	1692	1695	1701	9
1698	1692	1693	1700	9
1701	1695	1696	1703	9
1702	1697	1696	1703	9
1706	1704	1707	1708	9
7656	7659	7660	7661	9
7656	7659	7660	7667	9
7656	7657	7658	7661	9
7656	7657	7658	7668	9
7658	7661	7660	7659	9
7659	7660	7661	7666	9
7659	7660	7667	7669	9
7658	7657	7656	7659	9
7659	7656	7657	7664	9
7659	7656	7662	7663	9
7657	7656	7659	7660	9
7660	7659	7656	7662	9
7657	7658	7661	7660	9
7660	7661	7658	7668	9
7661	7660	7659	7665	9
7661	7660	7667	7669	9
7661	7658	7657	7664	9
7661	7658	7668	7670	9
7658	7661	7660	7667	9
7658	7657	7656	7662	9
7657	7658	7661	7666	9
7657	7658	7668	7670	9
7657	7656	7659	7665	9
7657	7656	7662	7663	9
7666	7661	7658	7668	9
7664	7657	7658	7668	9
7662	7656	7659	7665	9
7662	7656	7657	7664	9
7665	7659	7660	7667	9
7666	7661	7660	7667	9
7685	7688	7689	7690	9
7685	7688	7689	7696	9
7685	7686	7687	7690	9
7685	7686	7687	7697	9
7687	7690	7689	7688	9
7688	7689	7690	7695	9
7688	7689	7696	7698	9
7687	7686	7685	7688	9
7688	7685	7686	7693	9
7688	7685	7691	7692	9
7686	7685	7688	7689	9
7689	7688	7685	7691	9
7686	7687	7690	7689	9
7689	7690	7687	7697	9
7690	7689	7688	7694	9
7690	7689	7696	7698	9
7690	7687	7686	7693	9
7690	7687	7697	7699	9
7687	7690	7689	7696	9
7687	7686	7685	7691	9
7686	7687	7690	7695	9
7686	7687	7697	7699	9
7686	7685	7688	7694	9
7686	7685	7691	7692	9
7695	7690	7687	7697	9
7693	7686	7687	7697	9
7691	7685	7688	7694	9
7691	7685	7686	7693	9
7694	7688	7689	7696	9
7695	7690	7689	7696	9
7714	7717	7718	7719	9
7714	7717	7718	7725	9
7714	7715	7716	7719	9
7714	7715	7716	7726	9
7716	7719	7718	7717	9
7717	7718	7719	7724	9
7717	7718	7725	7727	9
7716	7715	7714	7717	9
7717	7714	7715	7722	9
7717	7714	7720	7721	9
7715	7714	7717	7718	9
7718	7717	7714	7720	9
7715	7716	7719	7718	9
7718	7719	7716	7726	9
7719	7718	7717	7723	9
7719	7718	7725	7727	9
7719	7716	7715	7722	9
7719	7716	7726	7728	9
7716	7719	7718	7725	9
7716	7715	7714	7720	9
7715	7716	7719	7724	9
7715	7716	7726	7728	9
7715	7714	7717	7723	9
7715	7714	7720	7721	9
7724	7719	7716	7726	9
7722	7715	7716	7726	9
7720	7714	7717	7723	9
7720	7714	7715	7722	9
7723	7717	7718	7725	9
7724	7719	7718	7725	9
1723	1724	1725	1728	9
1723	1724	1725	1735	9
1723	1726	1727	1728	9
1723	1726	1727	1734	9
1724	1725	1728	1727	9
1724	1725	1728	1733	9
1724	1725	1735	1737	9
1724	1725	1735	1738	9
1724	1723	1726	1727	9
1724	1723	1726	1732	9
1724	1723	1729	1730	9
1725	1724	1723	1726	9
1725	1724	1723	1729	9
1725	1728	1727	1726	9
1725	1728	1727	1734	9
1725	1735	1738	1739	9
1728	1725	1724	1731	9
1728	1725	1735	1737	9
1728	1725	1735	1738	9
1728	1727	1726	1732	9
1728	1727	1734	1736	9
1727	1728	1725	1735	9
1727	1726	1723	1729	9
1726	1727	1728	1733	9
1726	1727	1734	1736	9
1726	1723	1724	1731	9
1726	1723	1729	1730	9
1733	1728	1727	1734	9
1732	1726	1727	1734	9
1729	1723	1724	1731	9
1729	1723	1726	1732	9
1731	1724	1725	1735	9
1733	1728	1725	1735	9
1737	1735	1738	1739	9
7747	7748	7745	7744	9
7747	7748	7745	7755	9
7747	7746	7743	7744	9
7747	7746	7743	7749	9
7743	7744	7745	7748	9
7748	7745	7744	7751	9
7748	7745	7755	7757	9
7743	7746	7747	7748	9
7748	7747	7746	7752	9
7748	7747	7754	7756	9
7746	7747	7748	7745	9
7745	7748	7747	7754	9
7746	7743	7744	7745	9
7745	7744	7743	7749	9
7744	7745	7748	7753	9
7744	7745	7755	7757	9
7744	7743	7746	7752	9
7744	7743	7749	7750	9
7743	7744	7745	7755	9
7743	7746	7747	7754	9
7746	7743	7744	7751	9
7746	7743	7749	7750	9
7746	7747	7748	7753	9
7746	7747	7754	7756	9
7749	7743	7744	7751	9
7749	7743	7746	7752	9
7753	7748	7747	7754	9
7752	7746	7747	7754	9
7753	7748	7745	7755	9
7751	7744	7745	7755	9
7772	7773	7774	7777	9
7772	7773	7774	7784	9
7772	7775	7776	7777	9
7772	7775	7776	7783	9
7776	7777	7774	7773	9
7773	7774	7777	7782	9
7773	7774	7784	7786	9
7776	7775	7772	7773	9
7773	7772	7775	7781	9
7773	7772	7778	7779	9
7775	7772	7773	7774	9
7774	7773	7772	7778	9
7775	7776	7777	7774	9
7774	7777	7776	7783	9
7777	7774	7773	7780	9
7777	7774	7784	7786	9
7777	7776	7775	7781	9
7777	7776	7783	7785	9
7776	7777	7774	7784	9
7776	7775	7772	7778	9
7775	7776	7777	7782	9
7775	7776	7783	7785	9
7775	7772	7773	7780	9
7775	7772	7778	7779	9
7782	7777	7776	7783	9
7781	7775	7776	7783	9
7778	7772	7773	7780	9
7778	7772	7775	7781	9
7780	7773	7774	7784	9
7782	7777	7774	7784	9
7801	7802	7803	7806	9
7801	7802	7803	7813	9
7801	7804	7805	7806	9
7801	7804	7805	7812	9
7802	7803	7806	7805	9
7802	7803	7806	7811	9
7802	7803	7813	7815	9
7802	7801	7804	7805	9
7802	7801	7804	7810	9
7802	7801	7807	7808	9
7803	7802	7801	7804	9
7803	7802	7801	7807	9
7803	7806	7805	7804	9
7803	7806	7805	7812	9
7806	7803	7802	7809	9
7806	7803	7813	7815	9
7806	7805	7804	7810	9
7806	7805	7812	7814	9
7805	7806	7803	7813	9
7805	7804	7801	7807	9
7804	7805	7806	7811	9
7804	7805	7812	7814	9
7804	7801	7802	7809	9
7804	7801	7807	7808	9
7811	7806	7805	7812	9
7810	7804	7805	7812	9
7807	7801	7802	7809	9
7807	7801	7804	7810	9
7809	7802	7803	7813	9
7811	7806	7803	7813	9
1754	1755	1756	1759	9
1754	1755	1756	1766	9
1754	1757	1758	1759	9
1754	1757	1758	1765	9
1755	1756	1759	1758	9
1755	1756	1759	1764	9
1755	1756	1766	1768	9
1755	1756	1766	1769	9
1755	1754	1757	1758	9
1755	1754	1757	1763	9
1755	1754	1760	1761	9
1756	1755	1754	1757	9
1756	1755	1754	1760	9
1756	1759	1758	1757	9
1756	1759	1758	1765	9
1756	1766	1769	1770	9
1759	1756	1755	1762	9
1759	1756	1766	1768	9
1759	1756	1766	1769	9
1759	1758	1757	1763	9
1759	1758	1765	1767	9
1758	1759	1756	1766	9
1758	1757	1754	1760	9
1757	1758	1759	1764	9
1757	1758	1765	1767	9
1757	1754	1755	1762	9
1757	1754	1760	1761	9
1764	1759	1758	1765	9
1763	1757	1758	1765	9
1760	1754	1755	1762	9
1760	1754	1757	1763	9
1762	1755	1756	1766	9
1764	1759	1756	1766	9
1768	1766	1769	1770	9
7830	7831	7832	7835	9
7830	7831	7832	7842	9
7830	7833	7834	7835	9
7830	7833	7834	7841	9
7831	7832	7835	7834	9
7831	7832	7835	7840	9
7831	7832	7842	7844	9
7831	7830	7833	7834	9
7831	7830	7833	7839	9
7831	7830	7836	7837	9
7832	7831	7830	7833	9
7832	7831	7830	7836	9
7832	7835	7834	7833	9
7832	7835	7834	7841	9
7835	7832	7831	7838	9
7835	7832	7842	7844	9
7835	7834	7833	7839	9
7835	7834	7841	7843	9
7834	7835	7832	7842	9
7834	7833	7830	7836	9
7833	7834	7835	7840	9
7833	7834	7841	7843	9
7833	7830	7831	7838	9
7833	7830	7836	7837	9
7840	7835	7834	7841	9
7839	7833	7834	7841	9
7836	7830	7831	7838	9
7836	7830	7833	7839	9
7838	7831	7832	7842	9
7840	7835	7832	7842	9
7859	7860	7861	7864	9
7859	7860	7861	7871	9
7859	7862	7863	7864	9
7859	7862	7863	7870	9
7860	7861	7864	7863	9
7860	7861	7864	7869	9
7860	7861	7871	7873	9
7860	7859	7862	7863	9
7860	7859	7862	7868	9
7860	7859	7865	7866	9
7861	7860	7859	7862	9
7861	7860	7859	7865	9
7861	7864	7863	7862	9
7861	7864	7863	7870	9
7864	7861	7860	7867	9
7864	7861	7871	7873	9
7864	7863	7862	7868	9
7864	7863	7870	7872	9
7863	7864	7861	7871	9
7863	7862	7859	7865	9
7862	7863	7864	7869	9
7862	7863	7870	7872	9
7862	7859	7860	7867	9
7862	7859	7865	7866	9
7869	7864	7863	7870	9
7868	7862	7863	7870	9
7865	7859	7860	7867	9
7865	7859	7862	7868	9
7867	7860	7861	7871	9
7869	7864	7861	7871	9
7888	7889	7890	7893	9
7888	7889	7890	7900	9
7888	7891	7892	7893	9
7888	7891	7892	7899	9
7889	7890	7893	7892	9
7889	7890	7893	7898	9
7889	7890	7900	7902	9
7889	7888	7891	7892	9
7889	7888	7891	7897	9
7889	7888	7894	7895	9
7890	7889	7888	7891	9
7890	7889	7888	7894	9
7890	7893	7892	7891	9
7890	7893	7892	7899	9
7893	7890	7889	7896	9
7893	7890	7900	7902	9
7893	7892	7891	7897	9
7893	7892	7899	7901	9
7892	7893	7890	7900	9
7892	7891	7888	7894	9
7891	7892	7893	7898	9
7891	7892	7899	7901	9
7891	7888	7889	7896	9
7891	7888	7894	7895	9
7898	7893	7892	7899	9
7897	7891	7892	7899	9
7894	7888	7889	7896	9
7894	7888	7891	7897	9
7896	7889	7890	7900	9
7898	7893	7890	7900	9
7917	7918	7919	7922	9
7917	7918	7919	7929	9
7917	7920	7921	7922	9
7917	7920	7921	7928	9
7918	7919	7922	7921	9
7918	7919	7922	7927	9
7918	7919	7929	7931	9
7918	7917	7920	7921	9
7918	7917	7920	7926	9
7918	7917	7923	7924	9
7919	7918	7917	7920	9
7919	7918	7917	7923	9
7919	7922	7921	7920	9
7919	7922	7921	7928	9
7922	7919	7918	7925	9
7922	7919	7929	7931	9
7922	7921	7920	7926	9
7922	7921	7928	7930	9
7921	7922	7919	7929	9
7921	7920	7917	7923	9
7920	7921	7922	7927	9
7920	7921	7928	7930	9
7920	7917	7918	7925	9
7920	7917	7923	7924	9
7927	7922	7921	7928	9
7926	7920	7921	7928	9
7923	7917	7918	7925	9
7923	7917	7920	7926	9
7925	7918	7919	7929	9
7927	7922	7919	7929	9
7946	7949	7950	7951	9
7946	7949	7950	7957	9
7946	7947	7948	7951	9
7946	7947	7948	7958	9
7948	7951	7950	7949	9
7949	7950	7951	7956	9
7949	7950	7957	7959	9
7948	7947	7946	7949	9
7949	7946	7947	7954	9
7949	7946	7952	7953	9
7947	7946	7949	7950	9
7950	7949	7946	7952	9
7947	7948	7951	7950	9
7950	7951	7948	7958	9
7951	7950	7949	7955	9
7951	7950	7957	7959	9
7951	7948	7947	7954	9
7951	7948	7958	7960	9
7948	7951	7950	7957	9
7948	7947	7946	7952	9
7947	7948	7951	7956	9
7947	7948	7958	7960	9
7947	7946	7949	7955	9
7947	7946	7952	7953	9
7956	7951	7948	7958	9
7954	7947	7948	7958	9
7952	7946	7949	7955	9
7952	7946	7947	7954	9
7955	7949	7950	7957	9
7956	7951	7950	7957	9
1785	1786	1787	1790	9
1785	1786	1787	1797	9
1785	1788	1789	1790	9
1785	1788	1789	1796	9
1786	1787	1790	1789	9
1786	1787	1790	1795	9
1786	1787	1797	1799	9
1786	1787	1797	1800	9
1786	1785	1788	1789	9
1786	1785	1788	1794	9
1786	1785	1791	1792	9
1787	1786	1785	1788	9
1787	1786	1785	1791	9
1787	1790	1789	1788	9
1787	1790	1789	1796	9
1787	1797	1800	1801	9
1790	1787	1786	1793	9
1790	1787	1797	1799	9
1790	1787	1797	1800	9
1790	1789	1788	1794	9
1790	1789	1796	1798	9
1789	1790	1787	1797	9
1789	1788	1785	1791	9
1788	1789	1790	1795	9
1788	1789	1796	1798	9
1788	1785	1786	1793	9
1788	1785	1791	1792	9
1795	1790	1789	1796	9
1794	1788	1789	1796	9
1791	1785	1786	1793	9
1791	1785	1788	1794	9
1793	1786	1787	1797	9
1795	1790	1787	1797	9
1799	1797	1800	1801	9
7961	7962	7963	7966	9
7961	7962	7963	7973	9
7961	7964	7965	7966	9
7961	7964	7965	7972	9
7965	7966	7963	7962	9
7962	7963	7966	7971	9
7962	7963	7973	7975	9
7965	7964	7961	7962	9
7962	7961	7964	7970	9
7962	7961	7967	7968	9
7964	7961	7962	7963	9
7963	7962	7961	7967	9
7964	7965	7966	7963	9
7963	7966	7965	7972	9
7966	7963	7962	7969	9
7966	7963	7973	7975	9
7966	7965	7964	7970	9
7966	7965	7972	7974	9
7965	7966	7963	7973	9
7965	7964	7961	7967	9
7964	7965	7966	7971	9
7964	7965	7972	7974	9
7964	7961	7962	7969	9
7964	7961	7967	7968	9
7971	7966	7965	7972	9
7970	7964	7965	7972	9
7967	7961	7962	7969	9
7967	7961	7964	7970	9
7969	7962	7963	7973	9
7971	7966	7963	7973	9
7990	7991	7992	7995	9
7990	7991	7992	8002	9
7990	7993	7994	7995	9
7990	7993	7994	8001	9
7994	7995	7992	7991	9
7991	7992	7995	8000	9
7991	7992	8002	8004	9
7994	7993	7990	7991	9
7991	7990	7993	7999	9
7991	7990	7996	7997	9
7993	7990	7991	7992	9
7992	7991	7990	7996	9
7993	7994	7995	7992	9
7992	7995	7994	8001	9
7995	7992	7991	7998	9
7995	7992	8002	8004	9
7995	7994	7993	7999	9
7995	7994	8001	8003	9
7994	7995	7992	8002	9
7994	7993	7990	7996	9
7993	7994	7995	8000	9
7993	7994	8001	8003	9
7993	7990	7991	7998	9
7993	7990	7996	7997	9
8000	7995	7994	8001	9
7999	7993	7994	8001	9
7996	7990	7991	7998	9
7996	7990	7993	7999	9
7998	7991	7992	8002	9
8000	7995	7992	8002	9
8019	8022	8023	8024	9
8019	8022	8023	8030	9
8019	8020	8021	8024	9
8019	8020	8021	8031	9
8021	8024	8023	8022	9
8022	8023	8024	8029	9
8022	8023	8030	8032	9
8021	8020	8019	8022	9
8022	8019	8020	8027	9
8022	8019	8025	8026	9
8020	8019	8022	8023	9
8023	8022	8019	8025	9
8020	8021	8024	8023	9
8023	8024	8021	8031	9
8024	8023	8022	8028	9
8024	8023	8030	8032	9
8024	8021	8020	8027	9
8024	8021	8031	8033	9
8021	8024	8023	8030	9
8021	8020	8019	8025	9
8020	8021	8024	8029	9
8020	8021	8031	8033	9
8020	8019	8022	8028	9
8020	8019	8025	8026	9
8029	8024	8021	8031	9
8027	8020	8021	8031	9
8025	8019	8022	8028	9
8025	8019	8020	8027	9
8028	8022	8023	8030	9
8029	8024	8023	8030	9
8034	8037	8038	8039	9
8034	8037	8038	8045	9
8034	8035	8036	8039	9
8034	8035	8036	8046	9
8036	8039	8038	8037	9
8037	8038	8039	8044	9
8037	8038	8045	8047	9
8036	8035	8034	8037	9
8037	8034	8035	8042	9
8037	8034	8040	8041	9
8035	8034	8037	8038	9
8038	8037	8034	8040	9
8035	8036	8039	8038	9
8038	8039	8036	8046	9
8039	8038	8037	8043	9
8039	8038	8045	8047	9
8039	8036	8035	8042	9
8039	8036	8046	8048	9
8036	8039	8038	8045	9
8036	8035	8034	8040	9
8035	8036	8039	8044	9
8035	8036	8046	8048	9
8035	8034	8037	8043	9
8035	8034	8040	8041	9
8044	8039	8036	8046	9
8042	8035	8036	8046	9
8040	8034	8037	8043	9
8040	8034	8035	8042	9
8043	8037	8038	8045	9
8044	8039	8038	8045	9
8063	8064	8065	8068	9
8063	8064	8065	8075	9
8063	8066	8067	8068	9
8063	8066	8067	8074	9
8064	8065	8068	8067	9
8064	8065	8068	8073	9
8064	8065	8075	8077	9
8064	8063	8066	8067	9
8064	8063	8066	8072	9
8064	8063	8069	8070	9
8065	8064	8063	8066	9
8065	8064	8063	8069	9
8065	8068	8067	8066	9
8065	8068	8067	8074	9
8068	8065	8064	8071	9
8068	8065	8075	8077	9
8068	8067	8066	8072	9
8068	8067	8074	8076	9
8067	8068	8065	8075	9
8067	8066	8063	8069	9
8066	8067	8068	8073	9
8066	8067	8074	8076	9
8066	8063	8064	8071	9
8066	8063	8069	8070	9
8073	8068	8067	8074	9
8072	8066	8067	8074	9
8069	8063	8064	8071	9
8069	8063	8066	8072	9
8071	8064	8065	8075	9
8073	8068	8065	8075	9
8092	8093	8094	8097	9
8092	8093	8094	8104	9
8092	8095	8096	8097	9
8092	8095	8096	8103	9
8093	8094	8097	8096	9
8093	8094	8097	8102	9
8093	8094	8104	8106	9
8093	8092	8095	8096	9
8093	8092	8095	8101	9
8093	8092	8098	8099	9
8094	8093	8092	8095	9
8094	8093	8092	8098	9
8094	8097	8096	8095	9
8094	8097	8096	8103	9
8097	8094	8093	8100	9
8097	8094	8104	8106	9
8097	8096	8095	8101	9
8097	8096	8103	8105	9
8096	8097	8094	8104	9
8096	8095	8092	8098	9
8095	8096	8097	8102	9
8095	8096	8103	8105	9
8095	8092	8093	8100	9
8095	8092	8098	8099	9
8102	8097	8096	8103	9
8101	8095	8096	8103	9
8098	8092	8093	8100	9
8098	8092	8095	8101	9
8100	8093	8094	8104	9
8102	8097	8094	8104	9
1820	1819	1816	1817	9
1820	1819	1816	1822	9
1820	1821	1818	1817	9
1820	1821	1818	1828	9
1818	1817	1816	1819	9
1819	1816	1817	1824	9
1819	1816	1822	1823	9
1818	1821	1820	1819	9
1819	1820	1821	1826	9
1819	1820	1827	1829	9
1821	1820	1819	1816	9
1816	1819	1820	1827	9
1821	1818	1817	1816	9
1816	1817	1818	1828	9
1817	1816	1819	1825	9
1817	1816	1822	1823	9
1817	1818	1821	1826	9
1817	1818	1828	1830	9
1817	1818	1828	1831	9
1818	1817	1816	1822	9
1818	1821	1820	1827	9
1818	1828	1831	1832	9
1821	1818	1817	1824	9
1821	1818	1828	1830	9
1821	1818	1828	1831	9
1821	1820	1819	1825	9
1821	1820	1827	1829	9
1824	1817	1818	1828	9
1826	1821	1818	1828	9
1827	1820	1819	1825	9
1827	1820	1821	1826	9
1825	1819	1816	1822	9
1824	1817	1816	1822	9
1830	1828	1831	1832	9
8107	8108	8109	8112	9
8107	8108	8109	8119	9
8107	8110	8111	8112	9
8107	8110	8111	8118	9
8108	8109	8112	8111	9
8108	8109	8112	8117	9
8108	8109	8119	8121	9
8108	8107	8110	8111	9
8108	8107	8110	8116	9
8108	8107	8113	8114	9
8109	8108	8107	8110	9
8109	8108	8107	8113	9
8109	8112	8111	8110	9
8109	8112	8111	8118	9
8112	8109	8108	8115	9
8112	8109	8119	8121	9
8112	8111	8110	8116	9
8112	8111	8118	8120	9
8111	8112	8109	8119	9
8111	8110	8107	8113	9
8110	8111	8112	8117	9
8110	8111	8118	8120	9
8110	8107	8108	8115	9
8110	8107	8113	8114	9
8117	8112	8111	8118	9
8116	8110	8111	8118	9
8113	8107	8108	8115	9
8113	8107	8110	8116	9
8115	8108	8109	8119	9
8117	8112	8109	8119	9
8136	8137	8138	8141	9
8136	8137	8138	8148	9
8136	8139	8140	8141	9
8136	8139	8140	8147	9
8137	8138	8141	8140	9
8137	8138	8141	8146	9
8137	8138	8148	8150	9
8137	8136	8139	8140	9
8137	8136	8139	8145	9
8137	8136	8142	8143	9
8138	8137	8136	8139	9
8138	8137	8136	8142	9
8138	8141	8140	8139	9
8138	8141	8140	8147	9
8141	8138	8137	8144	9
8141	8138	8148	8150	9
8141	8140	8139	8145	9
8141	8140	8147	8149	9
8140	8141	8138	8148	9
8140	8139	8136	8142	9
8139	8140	8141	8146	9
8139	8140	8147	8149	9
8139	8136	8137	8144	9
8139	8136	8142	8143	9
8146	8141	8140	8147	9
8145	8139	8140	8147	9
8142	8136	8137	8144	9
8142	8136	8139	8145	9
8144	8137	8138	8148	9
8146	8141	8138	8148	9
8165	8168	8169	8170	9
8165	8168	8169	8176	9
8165	8166	8167	8170	9
8165	8166	8167	8177	9
8168	8169	8170	8167	9
8168	8169	8170	8175	9
8168	8169	8176	8178	9
8168	8165	8166	8167	9
8168	8165	8166	8173	9
8168	8165	8171	8172	9
8169	8168	8165	8166	9
8169	8168	8165	8171	9
8169	8170	8167	8166	9
8169	8170	8167	8177	9
8170	8169	8168	8174	9
8170	8169	8176	8178	9
8170	8167	8166	8173	9
8170	8167	8177	8179	9
8167	8170	8169	8176	9
8167	8166	8165	8171	9
8166	8167	8170	8175	9
8166	8167	8177	8179	9
8166	8165	8168	8174	9
8166	8165	8171	8172	9
8175	8170	8167	8177	9
8173	8166	8167	8177	9
8171	8165	8168	8174	9
8171	8165	8166	8173	9
8174	8168	8169	8176	9
8175	8170	8169	8176	9
8194	8197	8198	8199	9
8194	8197	8198	8205	9
8194	8195	8196	8199	9
8194	8195	8196	8206	9
8197	8198	8199	8196	9
8197	8198	8199	8204	9
8197	8198	8205	8207	9
8197	8194	8195	8196	9
8197	8194	8195	8202	9
8197	8194	8200	8201	9
8198	8197	8194	8195	9
8198	8197	8194	8200	9
8198	8199	8196	8195	9
8198	8199	8196	8206	9
8199	8198	8197	8203	9
8199	8198	8205	8207	9
8199	8196	8195	8202	9
8199	8196	8206	8208	9
8196	8199	8198	8205	9
8196	8195	8194	8200	9
8195	8196	8199	8204	9
8195	8196	8206	8208	9
8195	8194	8197	8203	9
8195	8194	8200	8201	9
8204	8199	8196	8206	9
8202	8195	8196	8206	9
8200	8194	8197	8203	9
8200	8194	8195	8202	9
8203	8197	8198	8205	9
8204	8199	8198	8205	9
8209	8212	8213	8214	9
8209	8212	8213	8220	9
8209	8210	8211	8214	9
8209	8210	8211	8221	9
8211	8214	8213	8212	9
8212	8213	8214	8219	9
8212	8213	8220	8222	9
8211	8210	8209	8212	9
8212	8209	8210	8217	9
8212	8209	8215	8216	9
8210	8209	8212	8213	9
8213	8212	8209	8215	9
8210	8211	8214	8213	9
8213	8214	8211	8221	9
8214	8213	8212	8218	9
8214	8213	8220	8222	9
8214	8211	8210	8217	9
8214	8211	8221	8223	9
8211	8214	8213	8220	9
8211	8210	8209	8215	9
8210	8211	8214	8219	9
8210	8211	8221	8223	9
8210	8209	8212	8218	9
8210	8209	8215	8216	9
8219	8214	8211	8221	9
8217	8210	8211	8221	9
8215	8209	8212	8218	9
8215	8209	8210	8217	9
8218	8212	8213	8220	9
8219	8214	8213	8220	9
8224	8225	8226	8229	9
8224	8225	8226	8236	9
8224	8227	8228	8229	9
8224	8227	8228	8235	9
8225	8226	8229	8228	9
8225	8226	8229	8234	9
8225	8226	8236	8238	9
8225	8224	8227	8228	9
8225	8224	8227	8233	9
8225	8224	8230	8231	9
8226	8225	8224	8227	9
8226	8225	8224	8230	9
8226	8229	8228	8227	9
8226	8229	8228	8235	9
8229	8226	8225	8232	9
8229	8226	8236	8238	9
8229	8228	8227	8233	9
8229	8228	8235	8237	9
8228	8229	8226	8236	9
8228	8227	8224	8230	9
8227	8228	8229	8234	9
8227	8228	8235	8237	9
8227	8224	8225	8232	9
8227	8224	8230	8231	9
8234	8229	8228	8235	9
8233	8227	8228	8235	9
8230	8224	8225	8232	9
8230	8224	8227	8233	9
8232	8225	8226	8236	9
8234	8229	8226	8236	9
8255	8254	8253	8256	9
8255	8254	8253	8259	9
8255	8258	8257	8256	9
8255	8258	8257	8264	9
8254	8253	8256	8257	9
8254	8253	8256	8262	9
8254	8253	8259	8260	9
8254	8255	8258	8257	9
8254	8255	8258	8263	9
8254	8255	8265	8267	9
8253	8254	8255	8258	9
8253	8254	8255	8265	9
8253	8256	8257	8258	9
8253	8256	8257	8264	9
8256	8253	8254	8261	9
8256	8253	8259	8260	9
8256	8257	8258	8263	9
8256	8257	8264	8266	9
8257	8256	8253	8259	9
8257	8258	8255	8265	9
8258	8257	8256	8262	9
8258	8257	8264	8266	9
8258	8255	8254	8261	9
8258	8255	8265	8267	9
8262	8256	8257	8264	9
8263	8258	8257	8264	9
8261	8254	8255	8265	9
8263	8258	8255	8265	9
8259	8253	8254	8261	9
8259	8253	8256	8262	9
1847	1848	1849	1852	9
1847	1848	1849	1859	9
1847	1850	1851	1852	9
1847	1850	1851	1858	9
1848	1849	1852	1851	9
1848	1849	1852	1857	9
1848	1849	1859	1861	9
1848	1849	1859	1862	9
1848	1847	1850	1851	9
1848	1847	1850	1856	9
1848	1847	1853	1854	9
1849	1848	1847	1850	9
1849	1848	1847	1853	9
1849	1852	1851	1850	9
1849	1852	1851	1858	9
1849	1859	1862	1863	9
1852	1849	1848	1855	9
1852	1849	1859	1861	9
1852	1849	1859	1862	9
1852	1851	1850	1856	9
1852	1851	1858	1860	9
1851	1852	1849	1859	9
1851	1850	1847	1853	9
1850	1851	1852	1857	9
1850	1851	1858	1860	9
1850	1847	1848	1855	9
1850	1847	1853	1854	9
1857	1852	1851	1858	9
1856	1850	1851	1858	9
1853	1847	1848	1855	9
1853	1847	1850	1856	9
1855	1848	1849	1859	9
1857	1852	1849	1859	9
1861	1859	1862	1863	9
1878	1879	1880	1883	9
1878	1879	1880	1890	9
1878	1881	1882	1883	9
1878	1881	1882	1889	9
1879	1880	1883	1882	9
1879	1880	1883	1888	9
1879	1880	1890	1892	9
1879	1880	1890	1893	9
1879	1878	1881	1882	9
1879	1878	1881	1887	9
1879	1878	1884	1885	9
1880	1879	1878	1881	9
1880	1879	1878	1884	9
1880	1883	1882	1881	9
1880	1883	1882	1889	9
1880	1890	1893	1894	9
1883	1880	1879	1886	9
1883	1880	1890	1892	9
1883	1880	1890	1893	9
1883	1882	1881	1887	9
1883	1882	1889	1891	9
1882	1883	1880	1890	9
1882	1881	1878	1884	9
1881	1882	1883	1888	9
1881	1882	1889	1891	9
1881	1878	1879	1886	9
1881	1878	1884	1885	9
1888	1883	1882	1889	9
1887	1881	1882	1889	9
1884	1878	1879	1886	9
1884	1878	1881	1887	9
1886	1879	1880	1890	9
1888	1883	1880	1890	9
1892	1890	1893	1894	9
8268	8269	8270	8273	9
8268	8269	8270	8280	9
8268	8271	8272	8273	9
8268	8271	8272	8279	9
8269	8270	8273	8272	9
8269	8270	8273	8278	9
8269	8270	8280	8282	9
8269	8268	8271	8272	9
8269	8268	8271	8277	9
8269	8268	8274	8275	9
8270	8269	8268	8271	9
8270	8269	8268	8274	9
8270	8273	8272	8271	9
8270	8273	8272	8279	9
8273	8270	8269	8276	9
8273	8270	8280	8282	9
8273	8272	8271	8277	9
8273	8272	8279	8281	9
8272	8273	8270	8280	9
8272	8271	8268	8274	9
8271	8272	8273	8278	9
8271	8272	8279	8281	9
8271	8268	8269	8276	9
8271	8268	8274	8275	9
8278	8273	8272	8279	9
8277	8271	8272	8279	9
8274	8268	8269	8276	9
8274	8268	8271	8277	9
8276	8269	8270	8280	9
8278	8273	8270	8280	9
1911	1910	1909	1912	9
1911	1910	1909	1915	9
1911	1914	1913	1912	9
1911	1914	1913	1920	9
1911	1921	1924	1925	9
1910	1909	1912	1913	9
1910	1909	1912	1918	9
1910	1909	1915	1916	9
1910	1911	1914	1913	9
1910	1911	1914	1919	9
1910	1911	1921	1923	9
1910	1911	1921	1924	9
1909	1910	1911	1914	9
1909	1910	1911	1921	9
1909	1912	1913	1914	9
1909	1912	1913	1920	9
1912	1909	1910	1917	9
1912	1909	1915	1916	9
1912	1913	1914	1919	9
1912	1913	1920	1922	9
1913	1912	1909	1915	9
1913	1914	1911	1921	9
1914	1913	1912	1918	9
1914	1913	1920	1922	9
1914	1911	1910	1917	9
1914	1911	1921	1923	9
1914	1911	1921	1924	9
1918	1912	1913	1920	9
1919	1914	1913	1920	9
1917	1910	1911	1921	9
1919	1914	1911	1921	9
1915	1909	1910	1917	9
1915	1909	1912	1918	9
1923	1921	1924	1925	9
1940	1943	1944	1945	9
1940	1943	1944	1951	9
1940	1941	1942	1945	9
1940	1941	1942	1952	9
1942	1945	1944	1943	9
1943	1944	1945	1950	9
1943	1944	1951	1953	9
1942	1941	1940	1943	9
1943	1940	1941	1948	9
1943	1940	1946	1947	9
1941	1940	1943	1944	9
1944	1943	1940	1946	9
1941	1942	1945	1944	9
1944	1945	1942	1952	9
1945	1944	1943	1949	9
1945	1944	1951	1953	9
1945	1942	1941	1948	9
1945	1942	1952	1954	9
1945	1942	1952	1955	9
1942	1945	1944	1951	9
1942	1941	1940	1946	9
1942	1952	1955	1956	9
1941	1942	1945	1950	9
1941	1942	1952	1954	9
1941	1942	1952	1955	9
1941	1940	1943	1949	9
1941	1940	1946	1947	9
1950	1945	1942	1952	9
1948	1941	1942	1952	9
1946	1940	1943	1949	9
1946	1940	1941	1948	9
1949	1943	1944	1951	9
1950	1945	1944	1951	9
1954	1952	1955	1956	9
135	134	131	132	9
135	134	131	137	9
135	136	133	132	9
135	136	133	143	9
135	142	146	147	9
134	131	132	133	9
134	131	132	139	9
134	131	137	138	9
134	135	136	133	9
134	135	136	141	9
134	135	142	144	9
134	135	142	146	9
131	134	135	136	9
131	134	135	142	9
131	132	133	136	9
131	132	133	143	9
132	131	134	140	9
132	131	137	138	9
132	133	136	141	9
132	133	143	145	9
132	133	143	148	9
133	132	131	137	9
133	136	135	142	9
133	143	148	149	9
136	133	132	139	9
136	133	143	145	9
136	133	143	148	9
136	135	134	140	9
136	135	142	144	9
136	135	142	146	9
139	132	133	143	9
141	136	133	143	9
140	134	135	142	9
141	136	135	142	9
137	131	134	140	9
137	131	132	139	9
145	143	148	149	9
144	142	146	147	9
169	170	171	172	9
169	170	171	173	9
169	168	167	172	9
169	168	167	165	9
170	171	172	167	9
170	171	172	181	9
170	171	173	174	9
170	169	168	167	9
170	169	168	179	9
170	169	175	176	9
170	169	175	177	9
171	170	169	168	9
171	170	169	175	9
171	172	167	168	9
171	172	167	165	9
172	171	170	180	9
172	171	173	174	9
172	167	168	179	9
172	167	165	166	9
172	167	165	164	9
167	172	171	173	9
167	168	169	175	9
167	165	164	178	9
168	167	172	181	9
168	167	165	166	9
168	167	165	164	9
168	169	170	180	9
168	169	175	176	9
168	169	175	177	9
181	172	167	165	9
179	168	167	165	9
180	170	169	175	9
179	168	169	175	9
173	171	170	180	9
173	171	172	181	9
166	165	164	178	9
1972	1973	1974	1977	9
1972	1973	1974	1984	9
1972	1975	1976	1977	9
1972	1975	1976	1983	9
1973	1974	1977	1976	9
1973	1974	1977	1982	9
1973	1974	1984	1986	9
1973	1974	1984	1987	9
1973	1972	1975	1976	9
1973	1972	1975	1981	9
1973	1972	1978	1979	9
1974	1973	1972	1975	9
1974	1973	1972	1978	9
1974	1977	1976	1975	9
1974	1977	1976	1983	9
1974	1984	1987	1988	9
1977	1974	1973	1980	9
1977	1974	1984	1986	9
1977	1974	1984	1987	9
1977	1976	1975	1981	9
1977	1976	1983	1985	9
1976	1977	1974	1984	9
1976	1975	1972	1978	9
1975	1976	1977	1982	9
1975	1976	1983	1985	9
1975	1972	1973	1980	9
1975	1972	1978	1979	9
1982	1977	1976	1983	9
1981	1975	1976	1983	9
1978	1972	1973	1980	9
1978	1972	1975	1981	9
1980	1973	1974	1984	9
1982	1977	1974	1984	9
1986	1984	1987	1988	9
2005	2004	2003	2006	9
2005	2004	2003	2009	9
2005	2008	2007	2006	9
2005	2008	2007	2014	9
2005	2015	2018	2019	9
2004	2003	2006	2007	9
2004	2003	2006	2012	9
2004	2003	2009	2010	9
2004	2005	2008	2007	9
2004	2005	2008	2013	9
2004	2005	2015	2017	9
2004	2005	2015	2018	9
2003	2004	2005	2008	9
2003	2004	2005	2015	9
2003	2006	2007	2008	9
2003	2006	2007	2014	9
2006	2003	2004	2011	9
2006	2003	2009	2010	9
2006	2007	2008	2013	9
2006	2007	2014	2016	9
2007	2006	2003	2009	9
2007	2008	2005	2015	9
2008	2007	2006	2012	9
2008	2007	2014	2016	9
2008	2005	2004	2011	9
2008	2005	2015	2017	9
2008	2005	2015	2018	9
2012	2006	2007	2014	9
2013	2008	2007	2014	9
2011	2004	2005	2015	9
2013	2008	2005	2015	9
2009	2003	2004	2011	9
2009	2003	2006	2012	9
2017	2015	2018	2019	9
8283	8284	8285	8288	9
8283	8284	8285	8295	9
8283	8286	8287	8288	9
8283	8286	8287	8294	9
8284	8285	8288	8287	9
8284	8285	8288	8293	9
8284	8285	8295	8297	9
8284	8283	8286	8287	9
8284	8283	8286	8292	9
8284	8283	8289	8290	9
8285	8284	8283	8286	9
8285	8284	8283	8289	9
8285	8288	8287	8286	9
8285	8288	8287	8294	9
8288	8285	8284	8291	9
8288	8285	8295	8297	9
8288	8287	8286	8292	9
8288	8287	8294	8296	9
8287	8288	8285	8295	9
8287	8286	8283	8289	9
8286	8287	8288	8293	9
8286	8287	8294	8296	9
8286	8283	8284	8291	9
8286	8283	8289	8290	9
8293	8288	8287	8294	9
8292	8286	8287	8294	9
8289	8283	8284	8291	9
8289	8283	8286	8292	9
8291	8284	8285	8295	9
8293	8288	8285	8295	9
8312	8313	8314	8317	9
8312	8313	8314	8324	9
8312	8315	8316	8317	9
8312	8315	8316	8323	9
8313	8314	8317	8316	9
8313	8314	8317	8322	9
8313	8314	8324	8326	9
8313	8312	8315	8316	9
8313	8312	8315	8321	9
8313	8312	8318	8319	9
8314	8313	8312	8315	9
8314	8313	8312	8318	9
8314	8317	8316	8315	9
8314	8317	8316	8323	9
8317	8314	8313	8320	9
8317	8314	8324	8326	9
8317	8316	8315	8321	9
8317	8316	8323	8325	9
8316	8317	8314	8324	9
8316	8315	8312	8318	9
8315	8316	8317	8322	9
8315	8316	8323	8325	9
8315	8312	8313	8320	9
8315	8312	8318	8319	9
8322	8317	8316	8323	9
8321	8315	8316	8323	9
8318	8312	8313	8320	9
8318	8312	8315	8321	9
8320	8313	8314	8324	9
8322	8317	8314	8324	9
8327	8328	8329	8332	9
8327	8328	8329	8339	9
8327	8330	8331	8332	9
8327	8330	8331	8338	9
8331	8332	8329	8328	9
8328	8329	8332	8337	9
8328	8329	8339	8341	9
8331	8330	8327	8328	9
8328	8327	8330	8336	9
8328	8327	8333	8334	9
8330	8327	8328	8329	9
8329	8328	8327	8333	9
8330	8331	8332	8329	9
8329	8332	8331	8338	9
8332	8329	8328	8335	9
8332	8329	8339	8341	9
8332	8331	8330	8336	9
8332	8331	8338	8340	9
8331	8332	8329	8339	9
8331	8330	8327	8333	9
8330	8331	8332	8337	9
8330	8331	8338	8340	9
8330	8327	8328	8335	9
8330	8327	8333	8334	9
8337	8332	8331	8338	9
8336	8330	8331	8338	9
8333	8327	8328	8335	9
8333	8327	8330	8336	9
8335	8328	8329	8339	9
8337	8332	8329	8339	9
8356	8357	8358	8361	9
8356	8357	8358	8368	9
8356	8359	8360	8361	9
8356	8359	8360	8367	9
8360	8361	8358	8357	9
8357	8358	8361	8366	9
8357	8358	8368	8370	9
8360	8359	8356	8357	9
8357	8356	8359	8365	9
8357	8356	8362	8363	9
8359	8356	8357	8358	9
8358	8357	8356	8362	9
8359	8360	8361	8358	9
8358	8361	8360	8367	9
8361	8358	8357	8364	9
8361	8358	8368	8370	9
8361	8360	8359	8365	9
8361	8360	8367	8369	9
8360	8361	8358	8368	9
8360	8359	8356	8362	9
8359	8360	8361	8366	9
8359	8360	8367	8369	9
8359	8356	8357	8364	9
8359	8356	8362	8363	9
8366	8361	8360	8367	9
8365	8359	8360	8367	9
8362	8356	8357	8364	9
8362	8356	8359	8365	9
8364	8357	8358	8368	9
8366	8361	8358	8368	9
8371	8374	8375	8376	9
8371	8374	8375	8382	9
8371	8372	8373	8376	9
8371	8372	8373	8383	9
8373	8376	8375	8374	9
8374	8375	8376	8381	9
8374	8375	8382	8384	9
8373	8372	8371	8374	9
8374	8371	8372	8379	9
8374	8371	8377	8378	9
8372	8371	8374	8375	9
8375	8374	8371	8377	9
8372	8373	8376	8375	9
8375	8376	8373	8383	9
8376	8375	8374	8380	9
8376	8375	8382	8384	9
8376	8373	8372	8379	9
8376	8373	8383	8385	9
8373	8376	8375	8382	9
8373	8372	8371	8377	9
8372	8373	8376	8381	9
8372	8373	8383	8385	9
8372	8371	8374	8380	9
8372	8371	8377	8378	9
8381	8376	8373	8383	9
8379	8372	8373	8383	9
8377	8371	8374	8380	9
8377	8371	8372	8379	9
8380	8374	8375	8382	9
8381	8376	8375	8382	9
8386	8389	8390	8391	9
8386	8389	8390	8397	9
8386	8387	8388	8391	9
8386	8387	8388	8398	9
8388	8391	8390	8389	9
8389	8390	8391	8396	9
8389	8390	8397	8399	9
8388	8387	8386	8389	9
8389	8386	8387	8394	9
8389	8386	8392	8393	9
8387	8386	8389	8390	9
8390	8389	8386	8392	9
8387	8388	8391	8390	9
8390	8391	8388	8398	9
8391	8390	8389	8395	9
8391	8390	8397	8399	9
8391	8388	8387	8394	9
8391	8388	8398	8400	9
8388	8391	8390	8397	9
8388	8387	8386	8392	9
8387	8388	8391	8396	9
8387	8388	8398	8400	9
8387	8386	8389	8395	9
8387	8386	8392	8393	9
8396	8391	8388	8398	9
8394	8387	8388	8398	9
8392	8386	8389	8395	9
8392	8386	8387	8394	9
8395	8389	8390	8397	9
8396	8391	8390	8397	9
8415	8416	8417	8420	9
8415	8416	8417	8427	9
8415	8418	8419	8420	9
8415	8418	8419	8426	9
8416	8417	8420	8419	9
8416	8417	8420	8425	9
8416	8417	8427	8429	9
8416	8415	8418	8419	9
8416	8415	8418	8424	9
8416	8415	8421	8422	9
8417	8416	8415	8418	9
8417	8416	8415	8421	9
8417	8420	8419	8418	9
8417	8420	8419	8426	9
8420	8417	8416	8423	9
8420	8417	8427	8429	9
8420	8419	8418	8424	9
8420	8419	8426	8428	9
8419	8420	8417	8427	9
8419	8418	8415	8421	9
8418	8419	8420	8425	9
8418	8419	8426	8428	9
8418	8415	8416	8423	9
8418	8415	8421	8422	9
8425	8420	8419	8426	9
8424	8418	8419	8426	9
8421	8415	8416	8423	9
8421	8415	8418	8424	9
8423	8416	8417	8427	9
8425	8420	8417	8427	9
8430	8431	8432	8435	9
8430	8431	8432	8442	9
8430	8433	8434	8435	9
8430	8433	8434	8441	9
8431	8432	8435	8434	9
8431	8432	8435	8440	9
8431	8432	8442	8444	9
8431	8430	8433	8434	9
8431	8430	8433	8439	9
8431	8430	8436	8437	9
8432	8431	8430	8433	9
8432	8431	8430	8436	9
8432	8435	8434	8433	9
8432	8435	8434	8441	9
8435	8432	8431	8438	9
8435	8432	8442	8444	9
8435	8434	8433	8439	9
8435	8434	8441	8443	9
8434	8435	8432	8442	9
8434	8433	8430	8436	9
8433	8434	8435	8440	9
8433	8434	8441	8443	9
8433	8430	8431	8438	9
8433	8430	8436	8437	9
8440	8435	8434	8441	9
8439	8433	8434	8441	9
8436	8430	8431	8438	9
8436	8430	8433	8439	9
8438	8431	8432	8442	9
8440	8435	8432	8442	9
2036	2035	2034	2037	9
2036	2035	2034	2040	9
2036	2039	2038	2037	9
2036	2039	2038	2045	9
2036	2046	2049	2050	9
2035	2034	2037	2038	9
2035	2034	2037	2043	9
2035	2034	2040	2041	9
2035	2036	2039	2038	9
2035	2036	2039	2044	9
2035	2036	2046	2048	9
2035	2036	2046	2049	9
2034	2035	2036	2039	9
2034	2035	2036	2046	9
2034	2037	2038	2039	9
2034	2037	2038	2045	9
2037	2034	2035	2042	9
2037	2034	2040	2041	9
2037	2038	2039	2044	9
2037	2038	2045	2047	9
2038	2037	2034	2040	9
2038	2039	2036	2046	9
2039	2038	2037	2043	9
2039	2038	2045	2047	9
2039	2036	2035	2042	9
2039	2036	2046	2048	9
2039	2036	2046	2049	9
2043	2037	2038	2045	9
2044	2039	2038	2045	9
2042	2035	2036	2046	9
2044	2039	2036	2046	9
2040	2034	2035	2042	9
2040	2034	2037	2043	9
2048	2046	2049	2050	9
8459	8460	8461	8464	9
8459	8460	8461	8471	9
8459	8462	8463	8464	9
8459	8462	8463	8470	9
8460	8461	8464	8463	9
8460	8461	8464	8469	9
8460	8461	8471	8473	9
8460	8459	8462	8463	9
8460	8459	8462	8468	9
8460	8459	8465	8466	9
8461	8460	8459	8462	9
8461	8460	8459	8465	9
8461	8464	8463	8462	9
8461	8464	8463	8470	9
8464	8461	8460	8467	9
8464	8461	8471	8473	9
8464	8463	8462	8468	9
8464	8463	8470	8472	9
8463	8464	8461	8471	9
8463	8462	8459	8465	9
8462	8463	8464	8469	9
8462	8463	8470	8472	9
8462	8459	8460	8467	9
8462	8459	8465	8466	9
8469	8464	8463	8470	9
8468	8462	8463	8470	9
8465	8459	8460	8467	9
8465	8459	8462	8468	9
8467	8460	8461	8471	9
8469	8464	8461	8471	9
2067	2066	2065	2068	9
2067	2066	2065	2071	9
2067	2070	2069	2068	9
2067	2070	2069	2076	9
2067	2077	2080	2081	9
2066	2065	2068	2069	9
2066	2065	2068	2074	9
2066	2065	2071	2072	9
2066	2067	2070	2069	9
2066	2067	2070	2075	9
2066	2067	2077	2079	9
2066	2067	2077	2080	9
2065	2066	2067	2070	9
2065	2066	2067	2077	9
2065	2068	2069	2070	9
2065	2068	2069	2076	9
2068	2065	2066	2073	9
2068	2065	2071	2072	9
2068	2069	2070	2075	9
2068	2069	2076	2078	9
2069	2068	2065	2071	9
2069	2070	2067	2077	9
2070	2069	2068	2074	9
2070	2069	2076	2078	9
2070	2067	2066	2073	9
2070	2067	2077	2079	9
2070	2067	2077	2080	9
2074	2068	2069	2076	9
2075	2070	2069	2076	9
2073	2066	2067	2077	9
2075	2070	2067	2077	9
2071	2065	2066	2073	9
2071	2065	2068	2074	9
2079	2077	2080	2081	9
2098	2097	2096	2099	9
2098	2097	2096	2102	9
2098	2101	2100	2099	9
2098	2101	2100	2107	9
2098	2108	2111	2112	9
2097	2096	2099	2100	9
2097	2096	2099	2105	9
2097	2096	2102	2103	9
2097	2098	2101	2100	9
2097	2098	2101	2106	9
2097	2098	2108	2110	9
2097	2098	2108	2111	9
2096	2097	2098	2101	9
2096	2097	2098	2108	9
2096	2099	2100	2101	9
2096	2099	2100	2107	9
2099	2096	2097	2104	9
2099	2096	2102	2103	9
2099	2100	2101	2106	9
2099	2100	2107	2109	9
2100	2099	2096	2102	9
2100	2101	2098	2108	9
2101	2100	2099	2105	9
2101	2100	2107	2109	9
2101	2098	2097	2104	9
2101	2098	2108	2110	9
2101	2098	2108	2111	9
2105	2099	2100	2107	9
2106	2101	2100	2107	9
2104	2097	2098	2108	9
2106	2101	2098	2108	9
2102	2096	2097	2104	9
2102	2096	2099	2105	9
2110	2108	2111	2112	9
202	201	200	199	9
199	200	201	207	9
202	203	204	199	9
199	204	203	205	9
199	197	196	210	9
203	202	201	200	9
200	201	202	212	9
200	201	207	208	9
200	201	207	209	9
203	204	199	200	9
200	199	204	213	9
200	199	197	198	9
200	199	197	196	9
201	200	199	204	9
201	200	199	197	9
201	202	203	204	9
201	202	203	205	9
202	201	200	211	9
202	201	207	208	9
202	201	207	209	9
202	203	204	213	9
202	203	205	206	9
203	202	201	207	9
203	204	199	197	9
204	203	202	212	9
204	203	205	206	9
204	199	200	211	9
204	199	197	198	9
204	199	197	196	9
205	203	202	212	9
205	203	204	213	9
211	200	199	197	9
213	204	199	197	9
211	200	201	207	9
212	202	201	207	9
198	197	196	210	9
8488	8491	8492	8493	9
8488	8491	8492	8499	9
8488	8489	8490	8493	9
8488	8489	8490	8500	9
8490	8493	8492	8491	9
8491	8492	8493	8498	9
8491	8492	8499	8501	9
8490	8489	8488	8491	9
8491	8488	8489	8496	9
8491	8488	8494	8495	9
8489	8488	8491	8492	9
8492	8491	8488	8494	9
8489	8490	8493	8492	9
8492	8493	8490	8500	9
8493	8492	8491	8497	9
8493	8492	8499	8501	9
8493	8490	8489	8496	9
8493	8490	8500	8502	9
8490	8493	8492	8499	9
8490	8489	8488	8494	9
8489	8490	8493	8498	9
8489	8490	8500	8502	9
8489	8488	8491	8497	9
8489	8488	8494	8495	9
8498	8493	8490	8500	9
8496	8489	8490	8500	9
8494	8488	8491	8497	9
8494	8488	8489	8496	9
8497	8491	8492	8499	9
8498	8493	8492	8499	9
8503	8504	8505	8508	9
8503	8504	8505	8515	9
8503	8506	8507	8508	9
8503	8506	8507	8514	9
8507	8508	8505	8504	9
8504	8505	8508	8513	9
8504	8505	8515	8517	9
8507	8506	8503	8504	9
8504	8503	8506	8512	9
8504	8503	8509	8510	9
8506	8503	8504	8505	9
8505	8504	8503	8509	9
8506	8507	8508	8505	9
8505	8508	8507	8514	9
8508	8505	8504	8511	9
8508	8505	8515	8517	9
8508	8507	8506	8512	9
8508	8507	8514	8516	9
8507	8508	8505	8515	9
8507	8506	8503	8509	9
8506	8507	8508	8513	9
8506	8507	8514	8516	9
8506	8503	8504	8511	9
8506	8503	8509	8510	9
8513	8508	8507	8514	9
8512	8506	8507	8514	9
8509	8503	8504	8511	9
8509	8503	8506	8512	9
8511	8504	8505	8515	9
8513	8508	8505	8515	9
8532	8533	8534	8537	9
8532	8533	8534	8544	9
8532	8535	8536	8537	9
8532	8535	8536	8543	9
8536	8537	8534	8533	9
8533	8534	8537	8542	9
8533	8534	8544	8546	9
8536	8535	8532	8533	9
8533	8532	8535	8541	9
8533	8532	8538	8539	9
8535	8532	8533	8534	9
8534	8533	8532	8538	9
8535	8536	8537	8534	9
8534	8537	8536	8543	9
8537	8534	8533	8540	9
8537	8534	8544	8546	9
8537	8536	8535	8541	9
8537	8536	8543	8545	9
8536	8537	8534	8544	9
8536	8535	8532	8538	9
8535	8536	8537	8542	9
8535	8536	8543	8545	9
8535	8532	8533	8540	9
8535	8532	8538	8539	9
8542	8537	8536	8543	9
8541	8535	8536	8543	9
8538	8532	8533	8540	9
8538	8532	8535	8541	9
8540	8533	8534	8544	9
8542	8537	8534	8544	9
8561	8562	8563	8566	9
8561	8562	8563	8573	9
8561	8564	8565	8566	9
8561	8564	8565	8572	9
8562	8563	8566	8565	9
8562	8563	8566	8571	9
8562	8563	8573	8575	9
8562	8561	8564	8565	9
8562	8561	8564	8570	9
8562	8561	8567	8568	9
8563	8562	8561	8564	9
8563	8562	8561	8567	9
8563	8566	8565	8564	9
8563	8566	8565	8572	9
8566	8563	8562	8569	9
8566	8563	8573	8575	9
8566	8565	8564	8570	9
8566	8565	8572	8574	9
8565	8566	8563	8573	9
8565	8564	8561	8567	9
8564	8565	8566	8571	9
8564	8565	8572	8574	9
8564	8561	8562	8569	9
8564	8561	8567	8568	9
8571	8566	8565	8572	9
8570	8564	8565	8572	9
8567	8561	8562	8569	9
8567	8561	8564	8570	9
8569	8562	8563	8573	9
8571	8566	8563	8573	9
2127	2128	2129	2132	9
2127	2128	2129	2139	9
2127	2130	2131	2132	9
2127	2130	2131	2138	9
2128	2129	2132	2131	9
2128	2129	2132	2137	9
2128	2129	2139	2141	9
2128	2129	2139	2142	9
2128	2127	2130	2131	9
2128	2127	2130	2136	9
2128	2127	2133	2134	9
2129	2128	2127	2130	9
2129	2128	2127	2133	9
2129	2132	2131	2130	9
2129	2132	2131	2138	9
2129	2139	2142	2143	9
2132	2129	2128	2135	9
2132	2129	2139	2141	9
2132	2129	2139	2142	9
2132	2131	2130	2136	9
2132	2131	2138	2140	9
2131	2132	2129	2139	9
2131	2130	2127	2133	9
2130	2131	2132	2137	9
2130	2131	2138	2140	9
2130	2127	2128	2135	9
2130	2127	2133	2134	9
2137	2132	2131	2138	9
2136	2130	2131	2138	9
2133	2127	2128	2135	9
2133	2127	2130	2136	9
2135	2128	2129	2139	9
2137	2132	2129	2139	9
2141	2139	2142	2143	9
8578	8577	8576	8579	9
8578	8577	8576	8582	9
8578	8581	8580	8579	9
8578	8581	8580	8587	9
8577	8576	8579	8580	9
8577	8576	8579	8585	9
8577	8576	8582	8583	9
8577	8578	8581	8580	9
8577	8578	8581	8586	9
8577	8578	8588	8590	9
8576	8577	8578	8581	9
8576	8577	8578	8588	9
8576	8579	8580	8581	9
8576	8579	8580	8587	9
8579	8576	8577	8584	9
8579	8576	8582	8583	9
8579	8580	8581	8586	9
8579	8580	8587	8589	9
8580	8579	8576	8582	9
8580	8581	8578	8588	9
8581	8580	8579	8585	9
8581	8580	8587	8589	9
8581	8578	8577	8584	9
8581	8578	8588	8590	9
8585	8579	8580	8587	9
8586	8581	8580	8587	9
8584	8577	8578	8588	9
8586	8581	8578	8588	9
8582	8576	8577	8584	9
8582	8576	8579	8585	9
8605	8606	8607	8610	9
8605	8606	8607	8617	9
8605	8608	8609	8610	9
8605	8608	8609	8616	9
8606	8607	8610	8609	9
8606	8607	8610	8615	9
8606	8607	8617	8619	9
8606	8605	8608	8609	9
8606	8605	8608	8614	9
8606	8605	8611	8612	9
8607	8606	8605	8608	9
8607	8606	8605	8611	9
8607	8610	8609	8608	9
8607	8610	8609	8616	9
8610	8607	8606	8613	9
8610	8607	8617	8619	9
8610	8609	8608	8614	9
8610	8609	8616	8618	9
8609	8610	8607	8617	9
8609	8608	8605	8611	9
8608	8609	8610	8615	9
8608	8609	8616	8618	9
8608	8605	8606	8613	9
8608	8605	8611	8612	9
8615	8610	8609	8616	9
8614	8608	8609	8616	9
8611	8605	8606	8613	9
8611	8605	8608	8614	9
8613	8606	8607	8617	9
8615	8610	8607	8617	9
8634	8637	8638	8639	9
8634	8637	8638	8645	9
8634	8635	8636	8639	9
8634	8635	8636	8646	9
8636	8639	8638	8637	9
8637	8638	8639	8644	9
8637	8638	8645	8647	9
8636	8635	8634	8637	9
8637	8634	8635	8642	9
8637	8634	8640	8641	9
8635	8634	8637	8638	9
8638	8637	8634	8640	9
8635	8636	8639	8638	9
8638	8639	8636	8646	9
8639	8638	8637	8643	9
8639	8638	8645	8647	9
8639	8636	8635	8642	9
8639	8636	8646	8648	9
8636	8639	8638	8645	9
8636	8635	8634	8640	9
8635	8636	8639	8644	9
8635	8636	8646	8648	9
8635	8634	8637	8643	9
8635	8634	8640	8641	9
8644	8639	8636	8646	9
8642	8635	8636	8646	9
8640	8634	8637	8643	9
8640	8634	8635	8642	9
8643	8637	8638	8645	9
8644	8639	8638	8645	9
8649	8650	8651	8654	9
8649	8650	8651	8661	9
8649	8652	8653	8654	9
8649	8652	8653	8660	9
8650	8651	8654	8653	9
8650	8651	8654	8659	9
8650	8651	8661	8663	9
8650	8649	8652	8653	9
8650	8649	8652	8658	9
8650	8649	8655	8656	9
8651	8650	8649	8652	9
8651	8650	8649	8655	9
8651	8654	8653	8652	9
8651	8654	8653	8660	9
8654	8651	8650	8657	9
8654	8651	8661	8663	9
8654	8653	8652	8658	9
8654	8653	8660	8662	9
8653	8654	8651	8661	9
8653	8652	8649	8655	9
8652	8653	8654	8659	9
8652	8653	8660	8662	9
8652	8649	8650	8657	9
8652	8649	8655	8656	9
8659	8654	8653	8660	9
8658	8652	8653	8660	9
8655	8649	8650	8657	9
8655	8649	8652	8658	9
8657	8650	8651	8661	9
8659	8654	8651	8661	9
8678	8679	8680	8683	9
8678	8679	8680	8690	9
8678	8681	8682	8683	9
8678	8681	8682	8689	9
8679	8680	8683	8682	9
8679	8680	8683	8688	9
8679	8680	8690	8692	9
8679	8678	8681	8682	9
8679	8678	8681	8687	9
8679	8678	8684	8685	9
8680	8679	8678	8681	9
8680	8679	8678	8684	9
8680	8683	8682	8681	9
8680	8683	8682	8689	9
8683	8680	8679	8686	9
8683	8680	8690	8692	9
8683	8682	8681	8687	9
8683	8682	8689	8691	9
8682	8683	8680	8690	9
8682	8681	8678	8684	9
8681	8682	8683	8688	9
8681	8682	8689	8691	9
8681	8678	8679	8686	9
8681	8678	8684	8685	9
8688	8683	8682	8689	9
8687	8681	8682	8689	9
8684	8678	8679	8686	9
8684	8678	8681	8687	9
8686	8679	8680	8690	9
8688	8683	8680	8690	9
8707	8710	8711	8712	9
8707	8710	8711	8718	9
8707	8708	8709	8712	9
8707	8708	8709	8719	9
8710	8711	8712	8709	9
8710	8711	8712	8717	9
8710	8711	8718	8720	9
8710	8707	8708	8709	9
8710	8707	8708	8715	9
8710	8707	8713	8714	9
8711	8710	8707	8708	9
8711	8710	8707	8713	9
8711	8712	8709	8708	9
8711	8712	8709	8719	9
8712	8711	8710	8716	9
8712	8711	8718	8720	9
8712	8709	8708	8715	9
8712	8709	8719	8721	9
8709	8712	8711	8718	9
8709	8708	8707	8713	9
8708	8709	8712	8717	9
8708	8709	8719	8721	9
8708	8707	8710	8716	9
8708	8707	8713	8714	9
8717	8712	8709	8719	9
8715	8708	8709	8719	9
8713	8707	8710	8716	9
8713	8707	8708	8715	9
8716	8710	8711	8718	9
8717	8712	8711	8718	9
8736	8739	8740	8741	9
8736	8739	8740	8747	9
8736	8737	8738	8741	9
8736	8737	8738	8748	9
8739	8740	8741	8738	9
8739	8740	8741	8746	9
8739	8740	8747	8749	9
8739	8736	8737	8738	9
8739	8736	8737	8744	9
8739	8736	8742	8743	9
8740	8739	8736	8737	9
8740	8739	8736	8742	9
8740	8741	8738	8737	9
8740	8741	8738	8748	9
8741	8740	8739	8745	9
8741	8740	8747	8749	9
8741	8738	8737	8744	9
8741	8738	8748	8750	9
8738	8741	8740	8747	9
8738	8737	8736	8742	9
8737	8738	8741	8746	9
8737	8738	8748	8750	9
8737	8736	8739	8745	9
8737	8736	8742	8743	9
8746	8741	8738	8748	9
8744	8737	8738	8748	9
8742	8736	8739	8745	9
8742	8736	8737	8744	9
8745	8739	8740	8747	9
8746	8741	8740	8747	9
8751	8754	8755	8756	9
8751	8754	8755	8762	9
8751	8752	8753	8756	9
8751	8752	8753	8763	9
8753	8756	8755	8754	9
8754	8755	8756	8761	9
8754	8755	8762	8764	9
8753	8752	8751	8754	9
8754	8751	8752	8759	9
8754	8751	8757	8758	9
8752	8751	8754	8755	9
8755	8754	8751	8757	9
8752	8753	8756	8755	9
8755	8756	8753	8763	9
8756	8755	8754	8760	9
8756	8755	8762	8764	9
8756	8753	8752	8759	9
8756	8753	8763	8765	9
8753	8756	8755	8762	9
8753	8752	8751	8757	9
8752	8753	8756	8761	9
8752	8753	8763	8765	9
8752	8751	8754	8760	9
8752	8751	8757	8758	9
8761	8756	8753	8763	9
8759	8752	8753	8763	9
8757	8751	8754	8760	9
8757	8751	8752	8759	9
8760	8754	8755	8762	9
8761	8756	8755	8762	9
8766	8769	8770	8771	9
8766	8769	8770	8777	9
8766	8767	8768	8771	9
8766	8767	8768	8778	9
8768	8771	8770	8769	9
8769	8770	8771	8776	9
8769	8770	8777	8779	9
8768	8767	8766	8769	9
8769	8766	8767	8774	9
8769	8766	8772	8773	9
8767	8766	8769	8770	9
8770	8769	8766	8772	9
8767	8768	8771	8770	9
8770	8771	8768	8778	9
8771	8770	8769	8775	9
8771	8770	8777	8779	9
8771	8768	8767	8774	9
8771	8768	8778	8780	9
8768	8771	8770	8777	9
8768	8767	8766	8772	9
8767	8768	8771	8776	9
8767	8768	8778	8780	9
8767	8766	8769	8775	9
8767	8766	8772	8773	9
8776	8771	8768	8778	9
8774	8767	8768	8778	9
8772	8766	8769	8775	9
8772	8766	8767	8774	9
8775	8769	8770	8777	9
8776	8771	8770	8777	9
8781	8784	8785	8786	9
8781	8784	8785	8792	9
8781	8782	8783	8786	9
8781	8782	8783	8793	9
8783	8786	8785	8784	9
8784	8785	8786	8791	9
8784	8785	8792	8794	9
8783	8782	8781	8784	9
8784	8781	8782	8789	9
8784	8781	8787	8788	9
8782	8781	8784	8785	9
8785	8784	8781	8787	9
8782	8783	8786	8785	9
8785	8786	8783	8793	9
8786	8785	8784	8790	9
8786	8785	8792	8794	9
8786	8783	8782	8789	9
8786	8783	8793	8795	9
8783	8786	8785	8792	9
8783	8782	8781	8787	9
8782	8783	8786	8791	9
8782	8783	8793	8795	9
8782	8781	8784	8790	9
8782	8781	8787	8788	9
8791	8786	8783	8793	9
8789	8782	8783	8793	9
8787	8781	8784	8790	9
8787	8781	8782	8789	9
8790	8784	8785	8792	9
8791	8786	8785	8792	9
8810	8811	8812	8815	9
8810	8811	8812	8822	9
8810	8813	8814	8815	9
8810	8813	8814	8821	9
8811	8812	8815	8814	9
8811	8812	8815	8820	9
8811	8812	8822	8824	9
8811	8810	8813	8814	9
8811	8810	8813	8819	9
8811	8810	8816	8817	9
8812	8811	8810	8813	9
8812	8811	8810	8816	9
8812	8815	8814	8813	9
8812	8815	8814	8821	9
8815	8812	8811	8818	9
8815	8812	8822	8824	9
8815	8814	8813	8819	9
8815	8814	8821	8823	9
8814	8815	8812	8822	9
8814	8813	8810	8816	9
8813	8814	8815	8820	9
8813	8814	8821	8823	9
8813	8810	8811	8818	9
8813	8810	8816	8817	9
8820	8815	8814	8821	9
8819	8813	8814	8821	9
8816	8810	8811	8818	9
8816	8810	8813	8819	9
8818	8811	8812	8822	9
8820	8815	8812	8822	9
8839	8840	8841	8844	9
8839	8840	8841	8851	9
8839	8842	8843	8844	9
8839	8842	8843	8850	9
8840	8841	8844	8843	9
8840	8841	8844	8849	9
8840	8841	8851	8853	9
8840	8839	8842	8843	9
8840	8839	8842	8848	9
8840	8839	8845	8846	9
8841	8840	8839	8842	9
8841	8840	8839	8845	9
8841	8844	8843	8842	9
8841	8844	8843	8850	9
8844	8841	8840	8847	9
8844	8841	8851	8853	9
8844	8843	8842	8848	9
8844	8843	8850	8852	9
8843	8844	8841	8851	9
8843	8842	8839	8845	9
8842	8843	8844	8849	9
8842	8843	8850	8852	9
8842	8839	8840	8847	9
8842	8839	8845	8846	9
8849	8844	8843	8850	9
8848	8842	8843	8850	9
8845	8839	8840	8847	9
8845	8839	8842	8848	9
8847	8840	8841	8851	9
8849	8844	8841	8851	9
8870	8869	8868	8871	9
8870	8869	8868	8874	9
8870	8873	8872	8871	9
8870	8873	8872	8879	9
8869	8868	8871	8872	9
8869	8868	8871	8877	9
8869	8868	8874	8875	9
8869	8870	8873	8872	9
8869	8870	8873	8878	9
8869	8870	8880	8882	9
8868	8869	8870	8873	9
8868	8869	8870	8880	9
8868	8871	8872	8873	9
8868	8871	8872	8879	9
8871	8868	8869	8876	9
8871	8868	8874	8875	9
8871	8872	8873	8878	9
8871	8872	8879	8881	9
8872	8871	8868	8874	9
8872	8873	8870	8880	9
8873	8872	8871	8877	9
8873	8872	8879	8881	9
8873	8870	8869	8876	9
8873	8870	8880	8882	9
8877	8871	8872	8879	9
8878	8873	8872	8879	9
8880	8870	8869	8876	9
8880	8870	8873	8878	9
8876	8869	8868	8874	9
8877	8871	8868	8874	9
8897	8900	8901	8902	9
8897	8900	8901	8908	9
8897	8898	8899	8902	9
8897	8898	8899	8909	9
8900	8901	8902	8899	9
8900	8901	8902	8907	9
8900	8901	8908	8910	9
8900	8897	8898	8899	9
8900	8897	8898	8905	9
8900	8897	8903	8904	9
8901	8900	8897	8898	9
8901	8900	8897	8903	9
8901	8902	8899	8898	9
8901	8902	8899	8909	9
8902	8901	8900	8906	9
8902	8901	8908	8910	9
8902	8899	8898	8905	9
8902	8899	8909	8911	9
8899	8902	8901	8908	9
8899	8898	8897	8903	9
8898	8899	8902	8907	9
8898	8899	8909	8911	9
8898	8897	8900	8906	9
8898	8897	8903	8904	9
8907	8902	8899	8909	9
8905	8898	8899	8909	9
8903	8897	8900	8906	9
8903	8897	8898	8905	9
8906	8900	8901	8908	9
8907	8902	8901	8908	9
8912	8913	8914	8917	9
8912	8913	8914	8924	9
8912	8915	8916	8917	9
8912	8915	8916	8923	9
8916	8917	8914	8913	9
8913	8914	8917	8922	9
8913	8914	8924	8926	9
8916	8915	8912	8913	9
8913	8912	8915	8921	9
8913	8912	8918	8919	9
8915	8912	8913	8914	9
8914	8913	8912	8918	9
8915	8916	8917	8914	9
8914	8917	8916	8923	9
8917	8914	8913	8920	9
8917	8914	8924	8926	9
8917	8916	8915	8921	9
8917	8916	8923	8925	9
8916	8917	8914	8924	9
8916	8915	8912	8918	9
8915	8916	8917	8922	9
8915	8916	8923	8925	9
8915	8912	8913	8920	9
8915	8912	8918	8919	9
8922	8917	8916	8923	9
8921	8915	8916	8923	9
8918	8912	8913	8920	9
8918	8912	8915	8921	9
8920	8913	8914	8924	9
8922	8917	8914	8924	9
8941	8944	8945	8946	9
8941	8944	8945	8952	9
8941	8942	8943	8946	9
8941	8942	8943	8953	9
8943	8946	8945	8944	9
8944	8945	8946	8951	9
8944	8945	8952	8954	9
8943	8942	8941	8944	9
8944	8941	8942	8949	9
8944	8941	8947	8948	9
8942	8941	8944	8945	9
8945	8944	8941	8947	9
8942	8943	8946	8945	9
8945	8946	8943	8953	9
8946	8945	8944	8950	9
8946	8945	8952	8954	9
8946	8943	8942	8949	9
8946	8943	8953	8955	9
8943	8946	8945	8952	9
8943	8942	8941	8947	9
8942	8943	8946	8951	9
8942	8943	8953	8955	9
8942	8941	8944	8950	9
8942	8941	8947	8948	9
8951	8946	8943	8953	9
8949	8942	8943	8953	9
8947	8941	8944	8950	9
8947	8941	8942	8949	9
8950	8944	8945	8952	9
8951	8946	8945	8952	9
8970	8973	8974	8975	9
8970	8973	8974	8981	9
8970	8971	8972	8975	9
8970	8971	8972	8982	9
8972	8975	8974	8973	9
8973	8974	8975	8980	9
8973	8974	8981	8983	9
8972	8971	8970	8973	9
8973	8970	8971	8978	9
8973	8970	8976	8977	9
8971	8970	8973	8974	9
8974	8973	8970	8976	9
8971	8972	8975	8974	9
8974	8975	8972	8982	9
8975	8974	8973	8979	9
8975	8974	8981	8983	9
8975	8972	8971	8978	9
8975	8972	8982	8984	9
8972	8975	8974	8981	9
8972	8971	8970	8976	9
8971	8972	8975	8980	9
8971	8972	8982	8984	9
8971	8970	8973	8979	9
8971	8970	8976	8977	9
8980	8975	8972	8982	9
8978	8971	8972	8982	9
8976	8970	8973	8979	9
8976	8970	8971	8978	9
8979	8973	8974	8981	9
8980	8975	8974	8981	9
8985	8988	8989	8990	9
8985	8988	8989	8996	9
8985	8986	8987	8990	9
8985	8986	8987	8997	9
8987	8990	8989	8988	9
8988	8989	8990	8995	9
8988	8989	8996	8998	9
8987	8986	8985	8988	9
8988	8985	8986	8993	9
8988	8985	8991	8992	9
8986	8985	8988	8989	9
8989	8988	8985	8991	9
8986	8987	8990	8989	9
8989	8990	8987	8997	9
8990	8989	8988	8994	9
8990	8989	8996	8998	9
8990	8987	8986	8993	9
8990	8987	8997	8999	9
8987	8990	8989	8996	9
8987	8986	8985	8991	9
8986	8987	8990	8995	9
8986	8987	8997	8999	9
8986	8985	8988	8994	9
8986	8985	8991	8992	9
8995	8990	8987	8997	9
8993	8986	8987	8997	9
8991	8985	8988	8994	9
8991	8985	8986	8993	9
8994	8988	8989	8996	9
8995	8990	8989	8996	9
9014	9015	9016	9019	9
9014	9015	9016	9026	9
9014	9017	9018	9019	9
9014	9017	9018	9025	9
9015	9016	9019	9018	9
9015	9016	9019	9024	9
9015	9016	9026	9028	9
9015	9014	9017	9018	9
9015	9014	9017	9023	9
9015	9014	9020	9021	9
9016	9015	9014	9017	9
9016	9015	9014	9020	9
9016	9019	9018	9017	9
9016	9019	9018	9025	9
9019	9016	9015	9022	9
9019	9016	9026	9028	9
9019	9018	9017	9023	9
9019	9018	9025	9027	9
9018	9019	9016	9026	9
9018	9017	9014	9020	9
9017	9018	9019	9024	9
9017	9018	9025	9027	9
9017	9014	9015	9022	9
9017	9014	9020	9021	9
9024	9019	9018	9025	9
9023	9017	9018	9025	9
9020	9014	9015	9022	9
9020	9014	9017	9023	9
9022	9015	9016	9026	9
9024	9019	9016	9026	9
9029	9030	9031	9034	9
9029	9030	9031	9041	9
9029	9032	9033	9034	9
9029	9032	9033	9040	9
9030	9031	9034	9033	9
9030	9031	9034	9039	9
9030	9031	9041	9043	9
9030	9029	9032	9033	9
9030	9029	9032	9038	9
9030	9029	9035	9036	9
9031	9030	9029	9032	9
9031	9030	9029	9035	9
9031	9034	9033	9032	9
9031	9034	9033	9040	9
9034	9031	9030	9037	9
9034	9031	9041	9043	9
9034	9033	9032	9038	9
9034	9033	9040	9042	9
9033	9034	9031	9041	9
9033	9032	9029	9035	9
9032	9033	9034	9039	9
9032	9033	9040	9042	9
9032	9029	9030	9037	9
9032	9029	9035	9036	9
9039	9034	9033	9040	9
9038	9032	9033	9040	9
9035	9029	9030	9037	9
9035	9029	9032	9038	9
9037	9030	9031	9041	9
9039	9034	9031	9041	9
9058	9059	9060	9063	9
9058	9059	9060	9070	9
9058	9061	9062	9063	9
9058	9061	9062	9069	9
9059	9060	9063	9062	9
9059	9060	9063	9068	9
9059	9060	9070	9072	9
9059	9058	9061	9062	9
9059	9058	9061	9067	9
9059	9058	9064	9065	9
9060	9059	9058	9061	9
9060	9059	9058	9064	9
9060	9063	9062	9061	9
9060	9063	9062	9069	9
9063	9060	9059	9066	9
9063	9060	9070	9072	9
9063	9062	9061	9067	9
9063	9062	9069	9071	9
9062	9063	9060	9070	9
9062	9061	9058	9064	9
9061	9062	9063	9068	9
9061	9062	9069	9071	9
9061	9058	9059	9066	9
9061	9058	9064	9065	9
9068	9063	9062	9069	9
9067	9061	9062	9069	9
9064	9058	9059	9066	9
9064	9058	9061	9067	9
9066	9059	9060	9070	9
9068	9063	9060	9070	9
9073	9076	9077	9078	9
9073	9076	9077	9084	9
9073	9074	9075	9078	9
9073	9074	9075	9085	9
9076	9077	9078	9075	9
9076	9077	9078	9083	9
9076	9077	9084	9086	9
9076	9073	9074	9075	9
9076	9073	9074	9081	9
9076	9073	9079	9080	9
9077	9076	9073	9074	9
9077	9076	9073	9079	9
9077	9078	9075	9074	9
9077	9078	9075	9085	9
9078	9077	9076	9082	9
9078	9077	9084	9086	9
9078	9075	9074	9081	9
9078	9075	9085	9087	9
9075	9078	9077	9084	9
9075	9074	9073	9079	9
9074	9075	9078	9083	9
9074	9075	9085	9087	9
9074	9073	9076	9082	9
9074	9073	9079	9080	9
9083	9078	9075	9085	9
9081	9074	9075	9085	9
9079	9073	9076	9082	9
9079	9073	9074	9081	9
9082	9076	9077	9084	9
9083	9078	9077	9084	9
9088	9089	9090	9093	9
9088	9089	9090	9100	9
9088	9091	9092	9093	9
9088	9091	9092	9099	9
9092	9093	9090	9089	9
9089	9090	9093	9098	9
9089	9090	9100	9102	9
9092	9091	9088	9089	9
9089	9088	9091	9097	9
9089	9088	9094	9095	9
9091	9088	9089	9090	9
9090	9089	9088	9094	9
9091	9092	9093	9090	9
9090	9093	9092	9099	9
9093	9090	9089	9096	9
9093	9090	9100	9102	9
9093	9092	9091	9097	9
9093	9092	9099	9101	9
9092	9093	9090	9100	9
9092	9091	9088	9094	9
9091	9092	9093	9098	9
9091	9092	9099	9101	9
9091	9088	9089	9096	9
9091	9088	9094	9095	9
9098	9093	9092	9099	9
9097	9091	9092	9099	9
9094	9088	9089	9096	9
9094	9088	9091	9097	9
9096	9089	9090	9100	9
9098	9093	9090	9100	9
2158	2159	2160	2163	9
2158	2159	2160	2170	9
2158	2161	2162	2163	9
2158	2161	2162	2169	9
2159	2160	2163	2162	9
2159	2160	2163	2168	9
2159	2160	2170	2172	9
2159	2160	2170	2173	9
2159	2158	2161	2162	9
2159	2158	2161	2167	9
2159	2158	2164	2165	9
2160	2159	2158	2161	9
2160	2159	2158	2164	9
2160	2163	2162	2161	9
2160	2163	2162	2169	9
2160	2170	2173	2174	9
2163	2160	2159	2166	9
2163	2160	2170	2172	9
2163	2160	2170	2173	9
2163	2162	2161	2167	9
2163	2162	2169	2171	9
2162	2163	2160	2170	9
2162	2161	2158	2164	9
2161	2162	2163	2168	9
2161	2162	2169	2171	9
2161	2158	2159	2166	9
2161	2158	2164	2165	9
2168	2163	2162	2169	9
2167	2161	2162	2169	9
2164	2158	2159	2166	9
2164	2158	2161	2167	9
2166	2159	2160	2170	9
2168	2163	2160	2170	9
2172	2170	2173	2174	9
2189	2192	2193	2194	9
2189	2192	2193	2200	9
2189	2190	2191	2194	9
2189	2190	2191	2201	9
2191	2194	2193	2192	9
2192	2193	2194	2199	9
2192	2193	2200	2202	9
2191	2190	2189	2192	9
2192	2189	2190	2197	9
2192	2189	2195	2196	9
2190	2189	2192	2193	9
2193	2192	2189	2195	9
2190	2191	2194	2193	9
2193	2194	2191	2201	9
2194	2193	2192	2198	9
2194	2193	2200	2202	9
2194	2191	2190	2197	9
2194	2191	2201	2203	9
2194	2191	2201	2204	9
2191	2194	2193	2200	9
2191	2190	2189	2195	9
2191	2201	2204	2205	9
2190	2191	2194	2199	9
2190	2191	2201	2203	9
2190	2191	2201	2204	9
2190	2189	2192	2198	9
2190	2189	2195	2196	9
2199	2194	2191	2201	9
2197	2190	2191	2201	9
2195	2189	2192	2198	9
2195	2189	2190	2197	9
2198	2192	2193	2200	9
2199	2194	2193	2200	9
2203	2201	2204	2205	9
9117	9118	9119	9122	9
9117	9118	9119	9129	9
9117	9120	9121	9122	9
9117	9120	9121	9128	9
9118	9119	9122	9121	9
9118	9119	9122	9127	9
9118	9119	9129	9131	9
9118	9117	9120	9121	9
9118	9117	9120	9126	9
9118	9117	9123	9124	9
9119	9118	9117	9120	9
9119	9118	9117	9123	9
9119	9122	9121	9120	9
9119	9122	9121	9128	9
9122	9119	9118	9125	9
9122	9119	9129	9131	9
9122	9121	9120	9126	9
9122	9121	9128	9130	9
9121	9122	9119	9129	9
9121	9120	9117	9123	9
9120	9121	9122	9127	9
9120	9121	9128	9130	9
9120	9117	9118	9125	9
9120	9117	9123	9124	9
9127	9122	9121	9128	9
9126	9120	9121	9128	9
9123	9117	9118	9125	9
9123	9117	9120	9126	9
9125	9118	9119	9129	9
9127	9122	9119	9129	9
9147	9146	9149	9150	9
9150	9149	9146	9152	9
9147	9148	9151	9150	9
9150	9151	9148	9158	9
9148	9147	9146	9149	9
9149	9146	9147	9154	9
9149	9146	9152	9153	9
9148	9151	9150	9149	9
9149	9150	9151	9156	9
9149	9150	9157	9159	9
9146	9149	9150	9151	9
9146	9149	9150	9157	9
9146	9147	9148	9151	9
9146	9147	9148	9158	9
9147	9146	9149	9155	9
9147	9146	9152	9153	9
9147	9148	9151	9156	9
9147	9148	9158	9160	9
9148	9147	9146	9152	9
9148	9151	9150	9157	9
9151	9148	9147	9154	9
9151	9148	9158	9160	9
9151	9150	9149	9155	9
9151	9150	9157	9159	9
9154	9147	9148	9158	9
9156	9151	9148	9158	9
9155	9149	9150	9157	9
9156	9151	9150	9157	9
9152	9146	9149	9155	9
9152	9146	9147	9154	9
9175	9178	9179	9180	9
9175	9178	9179	9186	9
9175	9176	9177	9180	9
9175	9176	9177	9187	9
9177	9180	9179	9178	9
9178	9179	9180	9185	9
9178	9179	9186	9188	9
9177	9176	9175	9178	9
9178	9175	9176	9183	9
9178	9175	9181	9182	9
9176	9175	9178	9179	9
9179	9178	9175	9181	9
9176	9177	9180	9179	9
9179	9180	9177	9187	9
9180	9179	9178	9184	9
9180	9179	9186	9188	9
9180	9177	9176	9183	9
9180	9177	9187	9189	9
9177	9180	9179	9186	9
9177	9176	9175	9181	9
9176	9177	9180	9185	9
9176	9177	9187	9189	9
9176	9175	9178	9184	9
9176	9175	9181	9182	9
9185	9180	9177	9187	9
9183	9176	9177	9187	9
9181	9175	9178	9184	9
9181	9175	9176	9183	9
9184	9178	9179	9186	9
9185	9180	9179	9186	9
2206	2207	2208	2211	9
2206	2207	2208	2218	9
2206	2209	2210	2211	9
2206	2209	2210	2217	9
2207	2208	2211	2210	9
2207	2208	2211	2216	9
2207	2208	2218	2220	9
2207	2208	2218	2221	9
2207	2206	2209	2210	9
2207	2206	2209	2215	9
2207	2206	2212	2213	9
2208	2207	2206	2209	9
2208	2207	2206	2212	9
2208	2211	2210	2209	9
2208	2211	2210	2217	9
2208	2218	2221	2222	9
2211	2208	2207	2214	9
2211	2208	2218	2220	9
2211	2208	2218	2221	9
2211	2210	2209	2215	9
2211	2210	2217	2219	9
2210	2211	2208	2218	9
2210	2209	2206	2212	9
2209	2210	2211	2216	9
2209	2210	2217	2219	9
2209	2206	2207	2214	9
2209	2206	2212	2213	9
2216	2211	2210	2217	9
2215	2209	2210	2217	9
2212	2206	2207	2214	9
2212	2206	2209	2215	9
2214	2207	2208	2218	9
2216	2211	2208	2218	9
2220	2218	2221	2222	9
9204	9207	9208	9209	9
9204	9207	9208	9215	9
9204	9205	9206	9209	9
9204	9205	9206	9216	9
9206	9209	9208	9207	9
9207	9208	9209	9214	9
9207	9208	9215	9217	9
9206	9205	9204	9207	9
9207	9204	9205	9212	9
9207	9204	9210	9211	9
9205	9204	9207	9208	9
9208	9207	9204	9210	9
9205	9206	9209	9208	9
9208	9209	9206	9216	9
9209	9208	9207	9213	9
9209	9208	9215	9217	9
9209	9206	9205	9212	9
9209	9206	9216	9218	9
9206	9209	9208	9215	9
9206	9205	9204	9210	9
9205	9206	9209	9214	9
9205	9206	9216	9218	9
9205	9204	9207	9213	9
9205	9204	9210	9211	9
9214	9209	9206	9216	9
9212	9205	9206	9216	9
9210	9204	9207	9213	9
9210	9204	9205	9212	9
9213	9207	9208	9215	9
9214	9209	9208	9215	9
9233	9236	9237	9238	9
9233	9236	9237	9244	9
9233	9234	9235	9238	9
9233	9234	9235	9245	9
9235	9238	9237	9236	9
9236	9237	9238	9243	9
9236	9237	9244	9246	9
9235	9234	9233	9236	9
9236	9233	9234	9241	9
9236	9233	9239	9240	9
9234	9233	9236	9237	9
9237	9236	9233	9239	9
9234	9235	9238	9237	9
9237	9238	9235	9245	9
9238	9237	9236	9242	9
9238	9237	9244	9246	9
9238	9235	9234	9241	9
9238	9235	9245	9247	9
9235	9238	9237	9244	9
9235	9234	9233	9239	9
9234	9235	9238	9243	9
9234	9235	9245	9247	9
9234	9233	9236	9242	9
9234	9233	9239	9240	9
9243	9238	9235	9245	9
9241	9234	9235	9245	9
9239	9233	9236	9242	9
9239	9233	9234	9241	9
9242	9236	9237	9244	9
9243	9238	9237	9244	9
9262	9265	9266	9267	9
9262	9265	9266	9273	9
9262	9263	9264	9267	9
9262	9263	9264	9274	9
9264	9267	9266	9265	9
9265	9266	9267	9272	9
9265	9266	9273	9275	9
9264	9263	9262	9265	9
9265	9262	9263	9270	9
9265	9262	9268	9269	9
9263	9262	9265	9266	9
9266	9265	9262	9268	9
9263	9264	9267	9266	9
9266	9267	9264	9274	9
9267	9266	9265	9271	9
9267	9266	9273	9275	9
9267	9264	9263	9270	9
9267	9264	9274	9276	9
9264	9267	9266	9273	9
9264	9263	9262	9268	9
9263	9264	9267	9272	9
9263	9264	9274	9276	9
9263	9262	9265	9271	9
9263	9262	9268	9269	9
9272	9267	9264	9274	9
9270	9263	9264	9274	9
9268	9262	9265	9271	9
9268	9262	9263	9270	9
9271	9265	9266	9273	9
9272	9267	9266	9273	9
9295	9294	9291	9292	9
9295	9294	9291	9297	9
9295	9296	9293	9292	9
9295	9296	9293	9303	9
9294	9291	9292	9293	9
9294	9291	9292	9299	9
9294	9291	9297	9298	9
9294	9295	9296	9293	9
9294	9295	9296	9301	9
9294	9295	9302	9304	9
9291	9294	9295	9296	9
9291	9294	9295	9302	9
9291	9292	9293	9296	9
9291	9292	9293	9303	9
9292	9291	9294	9300	9
9292	9291	9297	9298	9
9292	9293	9296	9301	9
9292	9293	9303	9305	9
9293	9292	9291	9297	9
9293	9296	9295	9302	9
9296	9293	9292	9299	9
9296	9293	9303	9305	9
9296	9295	9294	9300	9
9296	9295	9302	9304	9
9299	9292	9293	9303	9
9301	9296	9293	9303	9
9302	9295	9294	9300	9
9302	9295	9296	9301	9
9300	9294	9291	9297	9
9299	9292	9291	9297	9
9320	9323	9324	9325	9
9320	9323	9324	9331	9
9320	9321	9322	9325	9
9320	9321	9322	9332	9
9323	9324	9325	9322	9
9323	9324	9325	9330	9
9323	9324	9331	9333	9
9323	9320	9321	9322	9
9323	9320	9321	9328	9
9323	9320	9326	9327	9
9324	9323	9320	9321	9
9324	9323	9320	9326	9
9324	9325	9322	9321	9
9324	9325	9322	9332	9
9325	9324	9323	9329	9
9325	9324	9331	9333	9
9325	9322	9321	9328	9
9325	9322	9332	9334	9
9322	9325	9324	9331	9
9322	9321	9320	9326	9
9321	9322	9325	9330	9
9321	9322	9332	9334	9
9321	9320	9323	9329	9
9321	9320	9326	9327	9
9330	9325	9322	9332	9
9328	9321	9322	9332	9
9326	9320	9323	9329	9
9326	9320	9321	9328	9
9329	9323	9324	9331	9
9330	9325	9324	9331	9
9349	9350	9351	9354	9
9349	9350	9351	9361	9
9349	9352	9353	9354	9
9349	9352	9353	9360	9
9350	9351	9354	9353	9
9350	9351	9354	9359	9
9350	9351	9361	9363	9
9350	9349	9352	9353	9
9350	9349	9352	9358	9
9350	9349	9355	9356	9
9351	9350	9349	9352	9
9351	9350	9349	9355	9
9351	9354	9353	9352	9
9351	9354	9353	9360	9
9354	9351	9350	9357	9
9354	9351	9361	9363	9
9354	9353	9352	9358	9
9354	9353	9360	9362	9
9353	9354	9351	9361	9
9353	9352	9349	9355	9
9352	9353	9354	9359	9
9352	9353	9360	9362	9
9352	9349	9350	9357	9
9352	9349	9355	9356	9
9359	9354	9353	9360	9
9358	9352	9353	9360	9
9355	9349	9350	9357	9
9355	9349	9352	9358	9
9357	9350	9351	9361	9
9359	9354	9351	9361	9
9378	9379	9380	9383	9
9378	9379	9380	9390	9
9378	9381	9382	9383	9
9378	9381	9382	9389	9
9379	9380	9383	9382	9
9379	9380	9383	9388	9
9379	9380	9390	9392	9
9379	9378	9381	9382	9
9379	9378	9381	9387	9
9379	9378	9384	9385	9
9380	9379	9378	9381	9
9380	9379	9378	9384	9
9380	9383	9382	9381	9
9380	9383	9382	9389	9
9383	9380	9379	9386	9
9383	9380	9390	9392	9
9383	9382	9381	9387	9
9383	9382	9389	9391	9
9382	9383	9380	9390	9
9382	9381	9378	9384	9
9381	9382	9383	9388	9
9381	9382	9389	9391	9
9381	9378	9379	9386	9
9381	9378	9384	9385	9
9388	9383	9382	9389	9
9387	9381	9382	9389	9
9384	9378	9379	9386	9
9384	9378	9381	9387	9
9386	9379	9380	9390	9
9388	9383	9380	9390	9
9407	9410	9411	9412	9
9407	9410	9411	9418	9
9407	9408	9409	9412	9
9407	9408	9409	9419	9
9409	9412	9411	9410	9
9410	9411	9412	9417	9
9410	9411	9418	9420	9
9409	9408	9407	9410	9
9410	9407	9408	9415	9
9410	9407	9413	9414	9
9408	9407	9410	9411	9
9411	9410	9407	9413	9
9408	9409	9412	9411	9
9411	9412	9409	9419	9
9412	9411	9410	9416	9
9412	9411	9418	9420	9
9412	9409	9408	9415	9
9412	9409	9419	9421	9
9409	9412	9411	9418	9
9409	9408	9407	9413	9
9408	9409	9412	9417	9
9408	9409	9419	9421	9
9408	9407	9410	9416	9
9408	9407	9413	9414	9
9417	9412	9409	9419	9
9415	9408	9409	9419	9
9413	9407	9410	9416	9
9413	9407	9408	9415	9
9416	9410	9411	9418	9
9417	9412	9411	9418	9
9436	9439	9440	9441	9
9436	9439	9440	9447	9
9436	9437	9438	9441	9
9436	9437	9438	9448	9
9438	9441	9440	9439	9
9439	9440	9441	9446	9
9439	9440	9447	9449	9
9438	9437	9436	9439	9
9439	9436	9437	9444	9
9439	9436	9442	9443	9
9437	9436	9439	9440	9
9440	9439	9436	9442	9
9437	9438	9441	9440	9
9440	9441	9438	9448	9
9441	9440	9439	9445	9
9441	9440	9447	9449	9
9441	9438	9437	9444	9
9441	9438	9448	9450	9
9438	9441	9440	9447	9
9438	9437	9436	9442	9
9437	9438	9441	9446	9
9437	9438	9448	9450	9
9437	9436	9439	9445	9
9437	9436	9442	9443	9
9446	9441	9438	9448	9
9444	9437	9438	9448	9
9442	9436	9439	9445	9
9442	9436	9437	9444	9
9445	9439	9440	9447	9
9446	9441	9440	9447	9
2237	2238	2239	2242	9
2237	2238	2239	2249	9
2237	2240	2241	2242	9
2237	2240	2241	2248	9
2238	2239	2242	2241	9
2238	2239	2242	2247	9
2238	2239	2249	2251	9
2238	2239	2249	2252	9
2238	2237	2240	2241	9
2238	2237	2240	2246	9
2238	2237	2243	2244	9
2239	2238	2237	2240	9
2239	2238	2237	2243	9
2239	2242	2241	2240	9
2239	2242	2241	2248	9
2239	2249	2252	2253	9
2242	2239	2238	2245	9
2242	2239	2249	2251	9
2242	2239	2249	2252	9
2242	2241	2240	2246	9
2242	2241	2248	2250	9
2241	2242	2239	2249	9
2241	2240	2237	2243	9
2240	2241	2242	2247	9
2240	2241	2248	2250	9
2240	2237	2238	2245	9
2240	2237	2243	2244	9
2247	2242	2241	2248	9
2246	2240	2241	2248	9
2243	2237	2238	2245	9
2243	2237	2240	2246	9
2245	2238	2239	2249	9
2247	2242	2239	2249	9
2251	2249	2252	2253	9
9451	9454	9455	9456	9
9451	9454	9455	9462	9
9451	9452	9453	9456	9
9451	9452	9453	9463	9
9453	9456	9455	9454	9
9454	9455	9456	9461	9
9454	9455	9462	9464	9
9453	9452	9451	9454	9
9454	9451	9452	9459	9
9454	9451	9457	9458	9
9452	9451	9454	9455	9
9455	9454	9451	9457	9
9452	9453	9456	9455	9
9455	9456	9453	9463	9
9456	9455	9454	9460	9
9456	9455	9462	9464	9
9456	9453	9452	9459	9
9456	9453	9463	9465	9
9453	9456	9455	9462	9
9453	9452	9451	9457	9
9452	9453	9456	9461	9
9452	9453	9463	9465	9
9452	9451	9454	9460	9
9452	9451	9457	9458	9
9461	9456	9453	9463	9
9459	9452	9453	9463	9
9457	9451	9454	9460	9
9457	9451	9452	9459	9
9460	9454	9455	9462	9
9461	9456	9455	9462	9
9480	9483	9484	9485	9
9480	9483	9484	9491	9
9480	9481	9482	9485	9
9480	9481	9482	9492	9
9482	9485	9484	9483	9
9483	9484	9485	9490	9
9483	9484	9491	9493	9
9482	9481	9480	9483	9
9483	9480	9481	9488	9
9483	9480	9486	9487	9
9481	9480	9483	9484	9
9484	9483	9480	9486	9
9481	9482	9485	9484	9
9484	9485	9482	9492	9
9485	9484	9483	9489	9
9485	9484	9491	9493	9
9485	9482	9481	9488	9
9485	9482	9492	9494	9
9482	9485	9484	9491	9
9482	9481	9480	9486	9
9481	9482	9485	9490	9
9481	9482	9492	9494	9
9481	9480	9483	9489	9
9481	9480	9486	9487	9
9490	9485	9482	9492	9
9488	9481	9482	9492	9
9486	9480	9483	9489	9
9486	9480	9481	9488	9
9489	9483	9484	9491	9
9490	9485	9484	9491	9
9509	9510	9511	9514	9
9509	9510	9511	9521	9
9509	9512	9513	9514	9
9509	9512	9513	9520	9
9513	9514	9511	9510	9
9510	9511	9514	9519	9
9510	9511	9521	9523	9
9513	9512	9509	9510	9
9510	9509	9512	9518	9
9510	9509	9515	9516	9
9512	9509	9510	9511	9
9511	9510	9509	9515	9
9512	9513	9514	9511	9
9511	9514	9513	9520	9
9514	9511	9510	9517	9
9514	9511	9521	9523	9
9514	9513	9512	9518	9
9514	9513	9520	9522	9
9513	9514	9511	9521	9
9513	9512	9509	9515	9
9512	9513	9514	9519	9
9512	9513	9520	9522	9
9512	9509	9510	9517	9
9512	9509	9515	9516	9
9519	9514	9513	9520	9
9518	9512	9513	9520	9
9515	9509	9510	9517	9
9515	9509	9512	9518	9
9517	9510	9511	9521	9
9519	9514	9511	9521	9
9538	9541	9542	9543	9
9538	9541	9542	9549	9
9538	9539	9540	9543	9
9538	9539	9540	9550	9
9541	9542	9543	9540	9
9541	9542	9543	9548	9
9541	9542	9549	9551	9
9541	9538	9539	9540	9
9541	9538	9539	9546	9
9541	9538	9544	9545	9
9542	9541	9538	9539	9
9542	9541	9538	9544	9
9542	9543	9540	9539	9
9542	9543	9540	9550	9
9543	9542	9541	9547	9
9543	9542	9549	9551	9
9543	9540	9539	9546	9
9543	9540	9550	9552	9
9540	9543	9542	9549	9
9540	9539	9538	9544	9
9539	9540	9543	9548	9
9539	9540	9550	9552	9
9539	9538	9541	9547	9
9539	9538	9544	9545	9
9548	9543	9540	9550	9
9546	9539	9540	9550	9
9544	9538	9541	9547	9
9544	9538	9539	9546	9
9547	9541	9542	9549	9
9548	9543	9542	9549	9
9553	9554	9555	9558	9
9553	9554	9555	9565	9
9553	9556	9557	9558	9
9553	9556	9557	9564	9
9554	9555	9558	9557	9
9554	9555	9558	9563	9
9554	9555	9565	9567	9
9554	9553	9556	9557	9
9554	9553	9556	9562	9
9554	9553	9559	9560	9
9555	9554	9553	9556	9
9555	9554	9553	9559	9
9555	9558	9557	9556	9
9555	9558	9557	9564	9
9558	9555	9554	9561	9
9558	9555	9565	9567	9
9558	9557	9556	9562	9
9558	9557	9564	9566	9
9557	9558	9555	9565	9
9557	9556	9553	9559	9
9556	9557	9558	9563	9
9556	9557	9564	9566	9
9556	9553	9554	9561	9
9556	9553	9559	9560	9
9563	9558	9557	9564	9
9562	9556	9557	9564	9
9559	9553	9554	9561	9
9559	9553	9556	9562	9
9561	9554	9555	9565	9
9563	9558	9555	9565	9
2272	2273	2270	2269	9
2272	2273	2270	2280	9
2272	2271	2268	2269	9
2272	2271	2268	2274	9
2273	2270	2269	2268	9
2273	2270	2269	2276	9
2273	2270	2280	2282	9
2273	2270	2280	2283	9
2273	2272	2271	2268	9
2273	2272	2271	2277	9
2273	2272	2279	2281	9
2270	2273	2272	2271	9
2270	2273	2272	2279	9
2270	2269	2268	2271	9
2270	2269	2268	2274	9
2270	2280	2283	2284	9
2269	2270	2273	2278	9
2269	2270	2280	2282	9
2269	2270	2280	2283	9
2269	2268	2271	2277	9
2269	2268	2274	2275	9
2268	2269	2270	2280	9
2268	2271	2272	2279	9
2271	2268	2269	2276	9
2271	2268	2274	2275	9
2271	2272	2273	2278	9
2271	2272	2279	2281	9
2276	2269	2268	2274	9
2277	2271	2268	2274	9
2279	2272	2273	2278	9
2279	2272	2271	2277	9
2278	2273	2270	2280	9
2276	2269	2270	2280	9
2282	2280	2283	2284	9
9568	9569	9570	9573	9
9568	9569	9570	9580	9
9568	9571	9572	9573	9
9568	9571	9572	9579	9
9569	9570	9573	9572	9
9569	9570	9573	9578	9
9569	9570	9580	9582	9
9569	9568	9571	9572	9
9569	9568	9571	9577	9
9569	9568	9574	9575	9
9570	9569	9568	9571	9
9570	9569	9568	9574	9
9570	9573	9572	9571	9
9570	9573	9572	9579	9
9573	9570	9569	9576	9
9573	9570	9580	9582	9
9573	9572	9571	9577	9
9573	9572	9579	9581	9
9572	9573	9570	9580	9
9572	9571	9568	9574	9
9571	9572	9573	9578	9
9571	9572	9579	9581	9
9571	9568	9569	9576	9
9571	9568	9574	9575	9
9578	9573	9572	9579	9
9577	9571	9572	9579	9
9574	9568	9569	9576	9
9574	9568	9571	9577	9
9576	9569	9570	9580	9
9578	9573	9570	9580	9
9597	9598	9599	9602	9
9597	9598	9599	9609	9
9597	9600	9601	9602	9
9597	9600	9601	9608	9
9598	9599	9602	9601	9
9598	9599	9602	9607	9
9598	9599	9609	9611	9
9598	9597	9600	9601	9
9598	9597	9600	9606	9
9598	9597	9603	9604	9
9599	9598	9597	9600	9
9599	9598	9597	9603	9
9599	9602	9601	9600	9
9599	9602	9601	9608	9
9602	9599	9598	9605	9
9602	9599	9609	9611	9
9602	9601	9600	9606	9
9602	9601	9608	9610	9
9601	9602	9599	9609	9
9601	9600	9597	9603	9
9600	9601	9602	9607	9
9600	9601	9608	9610	9
9600	9597	9598	9605	9
9600	9597	9603	9604	9
9607	9602	9601	9608	9
9606	9600	9601	9608	9
9603	9597	9598	9605	9
9603	9597	9600	9606	9
9605	9598	9599	9609	9
9607	9602	9599	9609	9
9626	9627	9628	9631	9
9626	9627	9628	9638	9
9626	9629	9630	9631	9
9626	9629	9630	9637	9
9627	9628	9631	9630	9
9627	9628	9631	9636	9
9627	9628	9638	9640	9
9627	9626	9629	9630	9
9627	9626	9629	9635	9
9627	9626	9632	9633	9
9628	9627	9626	9629	9
9628	9627	9626	9632	9
9628	9631	9630	9629	9
9628	9631	9630	9637	9
9631	9628	9627	9634	9
9631	9628	9638	9640	9
9631	9630	9629	9635	9
9631	9630	9637	9639	9
9630	9631	9628	9638	9
9630	9629	9626	9632	9
9629	9630	9631	9636	9
9629	9630	9637	9639	9
9629	9626	9627	9634	9
9629	9626	9632	9633	9
9636	9631	9630	9637	9
9635	9629	9630	9637	9
9632	9626	9627	9634	9
9632	9626	9629	9635	9
9634	9627	9628	9638	9
9636	9631	9628	9638	9
9641	9644	9645	9646	9
9641	9644	9645	9652	9
9641	9642	9643	9646	9
9641	9642	9643	9653	9
9643	9646	9645	9644	9
9644	9645	9646	9651	9
9644	9645	9652	9654	9
9643	9642	9641	9644	9
9644	9641	9642	9649	9
9644	9641	9647	9648	9
9642	9641	9644	9645	9
9645	9644	9641	9647	9
9642	9643	9646	9645	9
9645	9646	9643	9653	9
9646	9645	9644	9650	9
9646	9645	9652	9654	9
9646	9643	9642	9649	9
9646	9643	9653	9655	9
9643	9646	9645	9652	9
9643	9642	9641	9647	9
9642	9643	9646	9651	9
9642	9643	9653	9655	9
9642	9641	9644	9650	9
9642	9641	9647	9648	9
9651	9646	9643	9653	9
9649	9642	9643	9653	9
9647	9641	9644	9650	9
9647	9641	9642	9649	9
9650	9644	9645	9652	9
9651	9646	9645	9652	9
9656	9659	9660	9661	9
9656	9659	9660	9667	9
9656	9657	9658	9661	9
9656	9657	9658	9668	9
9658	9661	9660	9659	9
9659	9660	9661	9666	9
9659	9660	9667	9669	9
9658	9657	9656	9659	9
9659	9656	9657	9664	9
9659	9656	9662	9663	9
9657	9656	9659	9660	9
9660	9659	9656	9662	9
9657	9658	9661	9660	9
9660	9661	9658	9668	9
9661	9660	9659	9665	9
9661	9660	9667	9669	9
9661	9658	9657	9664	9
9661	9658	9668	9670	9
9658	9661	9660	9667	9
9658	9657	9656	9662	9
9657	9658	9661	9666	9
9657	9658	9668	9670	9
9657	9656	9659	9665	9
9657	9656	9662	9663	9
9666	9661	9658	9668	9
9664	9657	9658	9668	9
9662	9656	9659	9665	9
9662	9656	9657	9664	9
9665	9659	9660	9667	9
9666	9661	9660	9667	9
9671	9672	9673	9676	9
9671	9672	9673	9683	9
9671	9674	9675	9676	9
9671	9674	9675	9682	9
9675	9676	9673	9672	9
9672	9673	9676	9681	9
9672	9673	9683	9685	9
9675	9674	9671	9672	9
9672	9671	9674	9680	9
9672	9671	9677	9678	9
9674	9671	9672	9673	9
9673	9672	9671	9677	9
9674	9675	9676	9673	9
9673	9676	9675	9682	9
9676	9673	9672	9679	9
9676	9673	9683	9685	9
9676	9675	9674	9680	9
9676	9675	9682	9684	9
9675	9676	9673	9683	9
9675	9674	9671	9677	9
9674	9675	9676	9681	9
9674	9675	9682	9684	9
9674	9671	9672	9679	9
9674	9671	9677	9678	9
9681	9676	9675	9682	9
9680	9674	9675	9682	9
9677	9671	9672	9679	9
9677	9671	9674	9680	9
9679	9672	9673	9683	9
9681	9676	9673	9683	9
9702	9701	9700	9703	9
9702	9701	9700	9706	9
9702	9705	9704	9703	9
9702	9705	9704	9711	9
9704	9703	9700	9701	9
9701	9700	9703	9709	9
9701	9700	9706	9707	9
9704	9705	9702	9701	9
9701	9702	9705	9710	9
9701	9702	9712	9714	9
9705	9702	9701	9700	9
9700	9701	9702	9712	9
9705	9704	9703	9700	9
9700	9703	9704	9711	9
9703	9700	9701	9708	9
9703	9700	9706	9707	9
9703	9704	9705	9710	9
9703	9704	9711	9713	9
9704	9703	9700	9706	9
9704	9705	9702	9712	9
9705	9704	9703	9709	9
9705	9704	9711	9713	9
9705	9702	9701	9708	9
9705	9702	9712	9714	9
9709	9703	9704	9711	9
9710	9705	9704	9711	9
9712	9702	9701	9708	9
9712	9702	9705	9710	9
9708	9701	9700	9706	9
9709	9703	9700	9706	9
9729	9730	9731	9734	9
9729	9730	9731	9741	9
9729	9732	9733	9734	9
9729	9732	9733	9740	9
9730	9731	9734	9733	9
9730	9731	9734	9739	9
9730	9731	9741	9743	9
9730	9729	9732	9733	9
9730	9729	9732	9738	9
9730	9729	9735	9736	9
9731	9730	9729	9732	9
9731	9730	9729	9735	9
9731	9734	9733	9732	9
9731	9734	9733	9740	9
9734	9731	9730	9737	9
9734	9731	9741	9743	9
9734	9733	9732	9738	9
9734	9733	9740	9742	9
9733	9734	9731	9741	9
9733	9732	9729	9735	9
9732	9733	9734	9739	9
9732	9733	9740	9742	9
9732	9729	9730	9737	9
9732	9729	9735	9736	9
9739	9734	9733	9740	9
9738	9732	9733	9740	9
9735	9729	9730	9737	9
9735	9729	9732	9738	9
9737	9730	9731	9741	9
9739	9734	9731	9741	9
9758	9759	9760	9763	9
9758	9759	9760	9770	9
9758	9761	9762	9763	9
9758	9761	9762	9769	9
9759	9760	9763	9762	9
9759	9760	9763	9768	9
9759	9760	9770	9772	9
9759	9758	9761	9762	9
9759	9758	9761	9767	9
9759	9758	9764	9765	9
9760	9759	9758	9761	9
9760	9759	9758	9764	9
9760	9763	9762	9761	9
9760	9763	9762	9769	9
9763	9760	9759	9766	9
9763	9760	9770	9772	9
9763	9762	9761	9767	9
9763	9762	9769	9771	9
9762	9763	9760	9770	9
9762	9761	9758	9764	9
9761	9762	9763	9768	9
9761	9762	9769	9771	9
9761	9758	9759	9766	9
9761	9758	9764	9765	9
9768	9763	9762	9769	9
9767	9761	9762	9769	9
9764	9758	9759	9766	9
9764	9758	9761	9767	9
9766	9759	9760	9770	9
9768	9763	9760	9770	9
9773	9774	9775	9778	9
9773	9774	9775	9785	9
9773	9776	9777	9778	9
9773	9776	9777	9784	9
9774	9775	9778	9777	9
9774	9775	9778	9783	9
9774	9775	9785	9787	9
9774	9773	9776	9777	9
9774	9773	9776	9782	9
9774	9773	9779	9780	9
9775	9774	9773	9776	9
9775	9774	9773	9779	9
9775	9778	9777	9776	9
9775	9778	9777	9784	9
9778	9775	9774	9781	9
9778	9775	9785	9787	9
9778	9777	9776	9782	9
9778	9777	9784	9786	9
9777	9778	9775	9785	9
9777	9776	9773	9779	9
9776	9777	9778	9783	9
9776	9777	9784	9786	9
9776	9773	9774	9781	9
9776	9773	9779	9780	9
9783	9778	9777	9784	9
9782	9776	9777	9784	9
9779	9773	9774	9781	9
9779	9773	9776	9782	9
9781	9774	9775	9785	9
9783	9778	9775	9785	9
2299	2300	2301	2304	9
2299	2300	2301	2311	9
2299	2302	2303	2304	9
2299	2302	2303	2310	9
2300	2301	2304	2303	9
2300	2301	2304	2309	9
2300	2301	2311	2313	9
2300	2301	2311	2314	9
2300	2299	2302	2303	9
2300	2299	2302	2308	9
2300	2299	2305	2306	9
2301	2300	2299	2302	9
2301	2300	2299	2305	9
2301	2304	2303	2302	9
2301	2304	2303	2310	9
2301	2311	2314	2315	9
2304	2301	2300	2307	9
2304	2301	2311	2313	9
2304	2301	2311	2314	9
2304	2303	2302	2308	9
2304	2303	2310	2312	9
2303	2304	2301	2311	9
2303	2302	2299	2305	9
2302	2303	2304	2309	9
2302	2303	2310	2312	9
2302	2299	2300	2307	9
2302	2299	2305	2306	9
2309	2304	2303	2310	9
2308	2302	2303	2310	9
2305	2299	2300	2307	9
2305	2299	2302	2308	9
2307	2300	2301	2311	9
2309	2304	2301	2311	9
2313	2311	2314	2315	9
2332	2331	2330	2333	9
2332	2331	2330	2336	9
2332	2335	2334	2333	9
2332	2335	2334	2341	9
2332	2342	2345	2346	9
2331	2330	2333	2334	9
2331	2330	2333	2339	9
2331	2330	2336	2337	9
2331	2332	2335	2334	9
2331	2332	2335	2340	9
2331	2332	2342	2344	9
2331	2332	2342	2345	9
2330	2331	2332	2335	9
2330	2331	2332	2342	9
2330	2333	2334	2335	9
2330	2333	2334	2341	9
2333	2330	2331	2338	9
2333	2330	2336	2337	9
2333	2334	2335	2340	9
2333	2334	2341	2343	9
2334	2333	2330	2336	9
2334	2335	2332	2342	9
2335	2334	2333	2339	9
2335	2334	2341	2343	9
2335	2332	2331	2338	9
2335	2332	2342	2344	9
2335	2332	2342	2345	9
2339	2333	2334	2341	9
2340	2335	2334	2341	9
2338	2331	2332	2342	9
2340	2335	2332	2342	9
2336	2330	2331	2338	9
2336	2330	2333	2339	9
2344	2342	2345	2346	9
234	233	232	231	9
231	232	233	239	9
234	235	236	231	9
231	236	235	237	9
231	229	228	242	9
235	234	233	232	9
232	233	234	244	9
232	233	239	240	9
232	233	239	241	9
235	236	231	232	9
232	231	236	245	9
232	231	229	230	9
232	231	229	228	9
233	232	231	236	9
233	232	231	229	9
233	234	235	236	9
233	234	235	237	9
234	233	232	243	9
234	233	239	240	9
234	233	239	241	9
234	235	236	245	9
234	235	237	238	9
235	234	233	239	9
235	236	231	229	9
236	235	234	244	9
236	235	237	238	9
236	231	232	243	9
236	231	229	230	9
236	231	229	228	9
237	235	234	244	9
237	235	236	245	9
243	232	231	229	9
245	236	231	229	9
243	232	233	239	9
244	234	233	239	9
230	229	228	242	9
9802	9805	9806	9807	9
9802	9805	9806	9813	9
9802	9803	9804	9807	9
9802	9803	9804	9814	9
9804	9807	9806	9805	9
9805	9806	9807	9812	9
9805	9806	9813	9815	9
9804	9803	9802	9805	9
9805	9802	9803	9810	9
9805	9802	9808	9809	9
9803	9802	9805	9806	9
9806	9805	9802	9808	9
9803	9804	9807	9806	9
9806	9807	9804	9814	9
9807	9806	9805	9811	9
9807	9806	9813	9815	9
9807	9804	9803	9810	9
9807	9804	9814	9816	9
9804	9807	9806	9813	9
9804	9803	9802	9808	9
9803	9804	9807	9812	9
9803	9804	9814	9816	9
9803	9802	9805	9811	9
9803	9802	9808	9809	9
9812	9807	9804	9814	9
9810	9803	9804	9814	9
9808	9802	9805	9811	9
9808	9802	9803	9810	9
9811	9805	9806	9813	9
9812	9807	9806	9813	9
9831	9832	9833	9836	9
9831	9832	9833	9843	9
9831	9834	9835	9836	9
9831	9834	9835	9842	9
9832	9833	9836	9835	9
9832	9833	9836	9841	9
9832	9833	9843	9845	9
9832	9831	9834	9835	9
9832	9831	9834	9840	9
9832	9831	9837	9838	9
9833	9832	9831	9834	9
9833	9832	9831	9837	9
9833	9836	9835	9834	9
9833	9836	9835	9842	9
9836	9833	9832	9839	9
9836	9833	9843	9845	9
9836	9835	9834	9840	9
9836	9835	9842	9844	9
9835	9836	9833	9843	9
9835	9834	9831	9837	9
9834	9835	9836	9841	9
9834	9835	9842	9844	9
9834	9831	9832	9839	9
9834	9831	9837	9838	9
9841	9836	9835	9842	9
9840	9834	9835	9842	9
9837	9831	9832	9839	9
9837	9831	9834	9840	9
9839	9832	9833	9843	9
9841	9836	9833	9843	9
9860	9861	9862	9865	9
9860	9861	9862	9872	9
9860	9863	9864	9865	9
9860	9863	9864	9871	9
9861	9862	9865	9864	9
9861	9862	9865	9870	9
9861	9862	9872	9874	9
9861	9860	9863	9864	9
9861	9860	9863	9869	9
9861	9860	9866	9867	9
9862	9861	9860	9863	9
9862	9861	9860	9866	9
9862	9865	9864	9863	9
9862	9865	9864	9871	9
9865	9862	9861	9868	9
9865	9862	9872	9874	9
9865	9864	9863	9869	9
9865	9864	9871	9873	9
9864	9865	9862	9872	9
9864	9863	9860	9866	9
9863	9864	9865	9870	9
9863	9864	9871	9873	9
9863	9860	9861	9868	9
9863	9860	9866	9867	9
9870	9865	9864	9871	9
9869	9863	9864	9871	9
9866	9860	9861	9868	9
9866	9860	9863	9869	9
9868	9861	9862	9872	9
9870	9865	9862	9872	9
9889	9892	9893	9894	9
9889	9892	9893	9900	9
9889	9890	9891	9894	9
9889	9890	9891	9901	9
9892	9893	9894	9891	9
9892	9893	9894	9899	9
9892	9893	9900	9902	9
9892	9889	9890	9891	9
9892	9889	9890	9897	9
9892	9889	9895	9896	9
9893	9892	9889	9890	9
9893	9892	9889	9895	9
9893	9894	9891	9890	9
9893	9894	9891	9901	9
9894	9893	9892	9898	9
9894	9893	9900	9902	9
9894	9891	9890	9897	9
9894	9891	9901	9903	9
9891	9894	9893	9900	9
9891	9890	9889	9895	9
9890	9891	9894	9899	9
9890	9891	9901	9903	9
9890	9889	9892	9898	9
9890	9889	9895	9896	9
9899	9894	9891	9901	9
9897	9890	9891	9901	9
9895	9889	9892	9898	9
9895	9889	9890	9897	9
9898	9892	9893	9900	9
9899	9894	9893	9900	9
9904	9907	9908	9909	9
9904	9907	9908	9915	9
9904	9905	9906	9909	9
9904	9905	9906	9916	9
9907	9908	9909	9906	9
9907	9908	9909	9914	9
9907	9908	9915	9917	9
9907	9904	9905	9906	9
9907	9904	9905	9912	9
9907	9904	9910	9911	9
9908	9907	9904	9905	9
9908	9907	9904	9910	9
9908	9909	9906	9905	9
9908	9909	9906	9916	9
9909	9908	9907	9913	9
9909	9908	9915	9917	9
9909	9906	9905	9912	9
9909	9906	9916	9918	9
9906	9909	9908	9915	9
9906	9905	9904	9910	9
9905	9906	9909	9914	9
9905	9906	9916	9918	9
9905	9904	9907	9913	9
9905	9904	9910	9911	9
9914	9909	9906	9916	9
9912	9905	9906	9916	9
9910	9904	9907	9913	9
9910	9904	9905	9912	9
9913	9907	9908	9915	9
9914	9909	9908	9915	9
2361	2362	2363	2366	9
2361	2362	2363	2373	9
2361	2364	2365	2366	9
2361	2364	2365	2372	9
2362	2363	2366	2365	9
2362	2363	2366	2371	9
2362	2363	2373	2375	9
2362	2363	2373	2376	9
2362	2361	2364	2365	9
2362	2361	2364	2370	9
2362	2361	2367	2368	9
2363	2362	2361	2364	9
2363	2362	2361	2367	9
2363	2366	2365	2364	9
2363	2366	2365	2372	9
2363	2373	2376	2377	9
2366	2363	2362	2369	9
2366	2363	2373	2375	9
2366	2363	2373	2376	9
2366	2365	2364	2370	9
2366	2365	2372	2374	9
2365	2366	2363	2373	9
2365	2364	2361	2367	9
2364	2365	2366	2371	9
2364	2365	2372	2374	9
2364	2361	2362	2369	9
2364	2361	2367	2368	9
2371	2366	2365	2372	9
2370	2364	2365	2372	9
2367	2361	2362	2369	9
2367	2361	2364	2370	9
2369	2362	2363	2373	9
2371	2366	2363	2373	9
2375	2373	2376	2377	9
9933	9934	9935	9938	9
9933	9934	9935	9945	9
9933	9936	9937	9938	9
9933	9936	9937	9944	9
9934	9935	9938	9937	9
9934	9935	9938	9943	9
9934	9935	9945	9947	9
9934	9933	9936	9937	9
9934	9933	9936	9942	9
9934	9933	9939	9940	9
9935	9934	9933	9936	9
9935	9934	9933	9939	9
9935	9938	9937	9936	9
9935	9938	9937	9944	9
9938	9935	9934	9941	9
9938	9935	9945	9947	9
9938	9937	9936	9942	9
9938	9937	9944	9946	9
9937	9938	9935	9945	9
9937	9936	9933	9939	9
9936	9937	9938	9943	9
9936	9937	9944	9946	9
9936	9933	9934	9941	9
9936	9933	9939	9940	9
9943	9938	9937	9944	9
9942	9936	9937	9944	9
9939	9933	9934	9941	9
9939	9933	9936	9942	9
9941	9934	9935	9945	9
9943	9938	9935	9945	9
9948	9951	9952	9953	9
9948	9951	9952	9959	9
9948	9949	9950	9953	9
9948	9949	9950	9960	9
9950	9953	9952	9951	9
9951	9952	9953	9958	9
9951	9952	9959	9961	9
9950	9949	9948	9951	9
9951	9948	9949	9956	9
9951	9948	9954	9955	9
9949	9948	9951	9952	9
9952	9951	9948	9954	9
9949	9950	9953	9952	9
9952	9953	9950	9960	9
9953	9952	9951	9957	9
9953	9952	9959	9961	9
9953	9950	9949	9956	9
9953	9950	9960	9962	9
9950	9953	9952	9959	9
9950	9949	9948	9954	9
9949	9950	9953	9958	9
9949	9950	9960	9962	9
9949	9948	9951	9957	9
9949	9948	9954	9955	9
9958	9953	9950	9960	9
9956	9949	9950	9960	9
9954	9948	9951	9957	9
9954	9948	9949	9956	9
9957	9951	9952	9959	9
9958	9953	9952	9959	9
260	263	264	265	9
260	263	264	271	9
260	261	262	265	9
260	261	262	272	9
262	265	264	263	9
263	264	265	270	9
263	264	271	273	9
263	264	271	275	9
262	261	260	263	9
263	260	261	268	9
263	260	266	267	9
261	260	263	264	9
264	263	260	266	9
261	262	265	264	9
264	265	262	272	9
264	271	275	276	9
265	264	263	269	9
265	264	271	273	9
265	264	271	275	9
265	262	261	268	9
265	262	272	274	9
265	262	272	277	9
262	265	264	271	9
262	261	260	266	9
262	272	277	278	9
261	262	265	270	9
261	262	272	274	9
261	262	272	277	9
261	260	263	269	9
261	260	266	267	9
270	265	262	272	9
268	261	262	272	9
266	260	263	269	9
266	260	261	268	9
269	263	264	271	9
270	265	264	271	9
274	272	277	278	9
273	271	275	276	9
9977	9978	9979	9982	9
9977	9978	9979	9989	9
9977	9980	9981	9982	9
9977	9980	9981	9988	9
9978	9979	9982	9981	9
9978	9979	9982	9987	9
9978	9979	9989	9991	9
9978	9977	9980	9981	9
9978	9977	9980	9986	9
9978	9977	9983	9984	9
9979	9978	9977	9980	9
9979	9978	9977	9983	9
9979	9982	9981	9980	9
9979	9982	9981	9988	9
9982	9979	9978	9985	9
9982	9979	9989	9991	9
9982	9981	9980	9986	9
9982	9981	9988	9990	9
9981	9982	9979	9989	9
9981	9980	9977	9983	9
9980	9981	9982	9987	9
9980	9981	9988	9990	9
9980	9977	9978	9985	9
9980	9977	9983	9984	9
9987	9982	9981	9988	9
9986	9980	9981	9988	9
9983	9977	9978	9985	9
9983	9977	9980	9986	9
9985	9978	9979	9989	9
9987	9982	9979	9989	9
10006	10007	10008	10011	9
10006	10007	10008	10018	9
10006	10009	10010	10011	9
10006	10009	10010	10017	9
10007	10008	10011	10010	9
10007	10008	10011	10016	9
10007	10008	10018	10020	9
10007	10006	10009	10010	9
10007	10006	10009	10015	9
10007	10006	10012	10013	9
10008	10007	10006	10009	9
10008	10007	10006	10012	9
10008	10011	10010	10009	9
10008	10011	10010	10017	9
10011	10008	10007	10014	9
10011	10008	10018	10020	9
10011	10010	10009	10015	9
10011	10010	10017	10019	9
10010	10011	10008	10018	9
10010	10009	10006	10012	9
10009	10010	10011	10016	9
10009	10010	10017	10019	9
10009	10006	10007	10014	9
10009	10006	10012	10013	9
10016	10011	10010	10017	9
10015	10009	10010	10017	9
10012	10006	10007	10014	9
10012	10006	10009	10015	9
10014	10007	10008	10018	9
10016	10011	10008	10018	9
10035	10038	10039	10040	9
10035	10038	10039	10046	9
10035	10036	10037	10040	9
10035	10036	10037	10047	9
10037	10040	10039	10038	9
10038	10039	10040	10045	9
10038	10039	10046	10048	9
10037	10036	10035	10038	9
10038	10035	10036	10043	9
10038	10035	10041	10042	9
10036	10035	10038	10039	9
10039	10038	10035	10041	9
10036	10037	10040	10039	9
10039	10040	10037	10047	9
10040	10039	10038	10044	9
10040	10039	10046	10048	9
10040	10037	10036	10043	9
10040	10037	10047	10049	9
10037	10040	10039	10046	9
10037	10036	10035	10041	9
10036	10037	10040	10045	9
10036	10037	10047	10049	9
10036	10035	10038	10044	9
10036	10035	10041	10042	9
10045	10040	10037	10047	9
10043	10036	10037	10047	9
10041	10035	10038	10044	9
10041	10035	10036	10043	9
10044	10038	10039	10046	9
10045	10040	10039	10046	9
10064	10067	10068	10069	9
10064	10067	10068	10075	9
10064	10065	10066	10069	9
10064	10065	10066	10076	9
10066	10069	10068	10067	9
10067	10068	10069	10074	9
10067	10068	10075	10077	9
10066	10065	10064	10067	9
10067	10064	10065	10072	9
10067	10064	10070	10071	9
10065	10064	10067	10068	9
10068	10067	10064	10070	9
10065	10066	10069	10068	9
10068	10069	10066	10076	9
10069	10068	10067	10073	9
10069	10068	10075	10077	9
10069	10066	10065	10072	9
10069	10066	10076	10078	9
10066	10069	10068	10075	9
10066	10065	10064	10070	9
10065	10066	10069	10074	9
10065	10066	10076	10078	9
10065	10064	10067	10073	9
10065	10064	10070	10071	9
10074	10069	10066	10076	9
10072	10065	10066	10076	9
10070	10064	10067	10073	9
10070	10064	10065	10072	9
10073	10067	10068	10075	9
10074	10069	10068	10075	9
10095	10094	10093	10096	9
10095	10094	10093	10099	9
10095	10098	10097	10096	9
10095	10098	10097	10104	9
10097	10096	10093	10094	9
10094	10093	10096	10102	9
10094	10093	10099	10100	9
10097	10098	10095	10094	9
10094	10095	10098	10103	9
10094	10095	10105	10107	9
10098	10095	10094	10093	9
10093	10094	10095	10105	9
10098	10097	10096	10093	9
10093	10096	10097	10104	9
10096	10093	10094	10101	9
10096	10093	10099	10100	9
10096	10097	10098	10103	9
10096	10097	10104	10106	9
10097	10096	10093	10099	9
10097	10098	10095	10105	9
10098	10097	10096	10102	9
10098	10097	10104	10106	9
10098	10095	10094	10101	9
10098	10095	10105	10107	9
10102	10096	10097	10104	9
10103	10098	10097	10104	9
10105	10095	10094	10101	9
10105	10095	10098	10103	9
10101	10094	10093	10099	9
10102	10096	10093	10099	9
10122	10123	10124	10127	9
10122	10123	10124	10134	9
10122	10125	10126	10127	9
10122	10125	10126	10133	9
10126	10127	10124	10123	9
10123	10124	10127	10132	9
10123	10124	10134	10136	9
10126	10125	10122	10123	9
10123	10122	10125	10131	9
10123	10122	10128	10129	9
10125	10122	10123	10124	9
10124	10123	10122	10128	9
10125	10126	10127	10124	9
10124	10127	10126	10133	9
10127	10124	10123	10130	9
10127	10124	10134	10136	9
10127	10126	10125	10131	9
10127	10126	10133	10135	9
10126	10127	10124	10134	9
10126	10125	10122	10128	9
10125	10126	10127	10132	9
10125	10126	10133	10135	9
10125	10122	10123	10130	9
10125	10122	10128	10129	9
10132	10127	10126	10133	9
10131	10125	10126	10133	9
10128	10122	10123	10130	9
10128	10122	10125	10131	9
10130	10123	10124	10134	9
10132	10127	10124	10134	9
10155	10156	10153	10152	9
10155	10156	10153	10163	9
10155	10154	10151	10152	9
10155	10154	10151	10157	9
10156	10153	10152	10151	9
10156	10153	10152	10159	9
10156	10153	10163	10165	9
10156	10155	10154	10151	9
10156	10155	10154	10160	9
10156	10155	10162	10164	9
10153	10156	10155	10154	9
10153	10156	10155	10162	9
10153	10152	10151	10154	9
10153	10152	10151	10157	9
10152	10153	10156	10161	9
10152	10153	10163	10165	9
10152	10151	10154	10160	9
10152	10151	10157	10158	9
10151	10152	10153	10163	9
10151	10154	10155	10162	9
10154	10151	10152	10159	9
10154	10151	10157	10158	9
10154	10155	10156	10161	9
10154	10155	10162	10164	9
10159	10152	10151	10157	9
10160	10154	10151	10157	9
10162	10155	10156	10161	9
10162	10155	10154	10160	9
10161	10156	10153	10163	9
10159	10152	10153	10163	9
10180	10181	10182	10185	9
10180	10181	10182	10192	9
10180	10183	10184	10185	9
10180	10183	10184	10191	9
10181	10182	10185	10184	9
10181	10182	10185	10190	9
10181	10182	10192	10194	9
10181	10180	10183	10184	9
10181	10180	10183	10189	9
10181	10180	10186	10187	9
10182	10181	10180	10183	9
10182	10181	10180	10186	9
10182	10185	10184	10183	9
10182	10185	10184	10191	9
10185	10182	10181	10188	9
10185	10182	10192	10194	9
10185	10184	10183	10189	9
10185	10184	10191	10193	9
10184	10185	10182	10192	9
10184	10183	10180	10186	9
10183	10184	10185	10190	9
10183	10184	10191	10193	9
10183	10180	10181	10188	9
10183	10180	10186	10187	9
10190	10185	10184	10191	9
10189	10183	10184	10191	9
10186	10180	10181	10188	9
10186	10180	10183	10189	9
10188	10181	10182	10192	9
10190	10185	10182	10192	9
10209	10210	10211	10214	9
10209	10210	10211	10221	9
10209	10212	10213	10214	9
10209	10212	10213	10220	9
10210	10211	10214	10213	9
10210	10211	10214	10219	9
10210	10211	10221	10223	9
10210	10209	10212	10213	9
10210	10209	10212	10218	9
10210	10209	10215	10216	9
10211	10210	10209	10212	9
10211	10210	10209	10215	9
10211	10214	10213	10212	9
10211	10214	10213	10220	9
10214	10211	10210	10217	9
10214	10211	10221	10223	9
10214	10213	10212	10218	9
10214	10213	10220	10222	9
10213	10214	10211	10221	9
10213	10212	10209	10215	9
10212	10213	10214	10219	9
10212	10213	10220	10222	9
10212	10209	10210	10217	9
10212	10209	10215	10216	9
10219	10214	10213	10220	9
10218	10212	10213	10220	9
10215	10209	10210	10217	9
10215	10209	10212	10218	9
10217	10210	10211	10221	9
10219	10214	10211	10221	9
10238	10239	10240	10243	9
10238	10239	10240	10250	9
10238	10241	10242	10243	9
10238	10241	10242	10249	9
10239	10240	10243	10242	9
10239	10240	10243	10248	9
10239	10240	10250	10252	9
10239	10238	10241	10242	9
10239	10238	10241	10247	9
10239	10238	10244	10245	9
10240	10239	10238	10241	9
10240	10239	10238	10244	9
10240	10243	10242	10241	9
10240	10243	10242	10249	9
10243	10240	10239	10246	9
10243	10240	10250	10252	9
10243	10242	10241	10247	9
10243	10242	10249	10251	9
10242	10243	10240	10250	9
10242	10241	10238	10244	9
10241	10242	10243	10248	9
10241	10242	10249	10251	9
10241	10238	10239	10246	9
10241	10238	10244	10245	9
10248	10243	10242	10249	9
10247	10241	10242	10249	9
10244	10238	10239	10246	9
10244	10238	10241	10247	9
10246	10239	10240	10250	9
10248	10243	10240	10250	9
10267	10270	10271	10272	9
10267	10270	10271	10278	9
10267	10268	10269	10272	9
10267	10268	10269	10279	9
10269	10272	10271	10270	9
10270	10271	10272	10277	9
10270	10271	10278	10280	9
10269	10268	10267	10270	9
10270	10267	10268	10275	9
10270	10267	10273	10274	9
10268	10267	10270	10271	9
10271	10270	10267	10273	9
10268	10269	10272	10271	9
10271	10272	10269	10279	9
10272	10271	10270	10276	9
10272	10271	10278	10280	9
10272	10269	10268	10275	9
10272	10269	10279	10281	9
10269	10272	10271	10278	9
10269	10268	10267	10273	9
10268	10269	10272	10277	9
10268	10269	10279	10281	9
10268	10267	10270	10276	9
10268	10267	10273	10274	9
10277	10272	10269	10279	9
10275	10268	10269	10279	9
10273	10267	10270	10276	9
10273	10267	10268	10275	9
10276	10270	10271	10278	9
10277	10272	10271	10278	9
10282	10285	10286	10287	9
10282	10285	10286	10293	9
10282	10283	10284	10287	9
10282	10283	10284	10294	9
10284	10287	10286	10285	9
10285	10286	10287	10292	9
10285	10286	10293	10295	9
10284	10283	10282	10285	9
10285	10282	10283	10290	9
10285	10282	10288	10289	9
10283	10282	10285	10286	9
10286	10285	10282	10288	9
10283	10284	10287	10286	9
10286	10287	10284	10294	9
10287	10286	10285	10291	9
10287	10286	10293	10295	9
10287	10284	10283	10290	9
10287	10284	10294	10296	9
10284	10287	10286	10293	9
10284	10283	10282	10288	9
10283	10284	10287	10292	9
10283	10284	10294	10296	9
10283	10282	10285	10291	9
10283	10282	10288	10289	9
10292	10287	10284	10294	9
10290	10283	10284	10294	9
10288	10282	10285	10291	9
10288	10282	10283	10290	9
10291	10285	10286	10293	9
10292	10287	10286	10293	9
10311	10312	10313	10316	9
10311	10312	10313	10323	9
10311	10314	10315	10316	9
10311	10314	10315	10322	9
10315	10316	10313	10312	9
10312	10313	10316	10321	9
10312	10313	10323	10325	9
10315	10314	10311	10312	9
10312	10311	10314	10320	9
10312	10311	10317	10318	9
10314	10311	10312	10313	9
10313	10312	10311	10317	9
10314	10315	10316	10313	9
10313	10316	10315	10322	9
10316	10313	10312	10319	9
10316	10313	10323	10325	9
10316	10315	10314	10320	9
10316	10315	10322	10324	9
10315	10316	10313	10323	9
10315	10314	10311	10317	9
10314	10315	10316	10321	9
10314	10315	10322	10324	9
10314	10311	10312	10319	9
10314	10311	10317	10318	9
10321	10316	10315	10322	9
10320	10314	10315	10322	9
10317	10311	10312	10319	9
10317	10311	10314	10320	9
10319	10312	10313	10323	9
10321	10316	10313	10323	9
10340	10341	10342	10345	9
10340	10341	10342	10352	9
10340	10343	10344	10345	9
10340	10343	10344	10351	9
10344	10345	10342	10341	9
10341	10342	10345	10350	9
10341	10342	10352	10354	9
10344	10343	10340	10341	9
10341	10340	10343	10349	9
10341	10340	10346	10347	9
10343	10340	10341	10342	9
10342	10341	10340	10346	9
10343	10344	10345	10342	9
10342	10345	10344	10351	9
10345	10342	10341	10348	9
10345	10342	10352	10354	9
10345	10344	10343	10349	9
10345	10344	10351	10353	9
10344	10345	10342	10352	9
10344	10343	10340	10346	9
10343	10344	10345	10350	9
10343	10344	10351	10353	9
10343	10340	10341	10348	9
10343	10340	10346	10347	9
10350	10345	10344	10351	9
10349	10343	10344	10351	9
10346	10340	10341	10348	9
10346	10340	10343	10349	9
10348	10341	10342	10352	9
10350	10345	10342	10352	9
10369	10370	10371	10374	9
10369	10370	10371	10381	9
10369	10372	10373	10374	9
10369	10372	10373	10380	9
10370	10371	10374	10373	9
10370	10371	10374	10379	9
10370	10371	10381	10383	9
10370	10369	10372	10373	9
10370	10369	10372	10378	9
10370	10369	10375	10376	9
10371	10370	10369	10372	9
10371	10370	10369	10375	9
10371	10374	10373	10372	9
10371	10374	10373	10380	9
10374	10371	10370	10377	9
10374	10371	10381	10383	9
10374	10373	10372	10378	9
10374	10373	10380	10382	9
10373	10374	10371	10381	9
10373	10372	10369	10375	9
10372	10373	10374	10379	9
10372	10373	10380	10382	9
10372	10369	10370	10377	9
10372	10369	10375	10376	9
10379	10374	10373	10380	9
10378	10372	10373	10380	9
10375	10369	10370	10377	9
10375	10369	10372	10378	9
10377	10370	10371	10381	9
10379	10374	10371	10381	9
2392	2393	2394	2397	9
2392	2393	2394	2404	9
2392	2395	2396	2397	9
2392	2395	2396	2403	9
2393	2394	2397	2396	9
2393	2394	2397	2402	9
2393	2394	2404	2406	9
2393	2394	2404	2407	9
2393	2392	2395	2396	9
2393	2392	2395	2401	9
2393	2392	2398	2399	9
2394	2393	2392	2395	9
2394	2393	2392	2398	9
2394	2397	2396	2395	9
2394	2397	2396	2403	9
2394	2404	2407	2408	9
2397	2394	2393	2400	9
2397	2394	2404	2406	9
2397	2394	2404	2407	9
2397	2396	2395	2401	9
2397	2396	2403	2405	9
2396	2397	2394	2404	9
2396	2395	2392	2398	9
2395	2396	2397	2402	9
2395	2396	2403	2405	9
2395	2392	2393	2400	9
2395	2392	2398	2399	9
2402	2397	2396	2403	9
2401	2395	2396	2403	9
2398	2392	2393	2400	9
2398	2392	2395	2401	9
2400	2393	2394	2404	9
2402	2397	2394	2404	9
2406	2404	2407	2408	9
10384	10385	10386	10389	9
10384	10385	10386	10396	9
10384	10387	10388	10389	9
10384	10387	10388	10395	9
10385	10386	10389	10388	9
10385	10386	10389	10394	9
10385	10386	10396	10398	9
10385	10384	10387	10388	9
10385	10384	10387	10393	9
10385	10384	10390	10391	9
10386	10385	10384	10387	9
10386	10385	10384	10390	9
10386	10389	10388	10387	9
10386	10389	10388	10395	9
10389	10386	10385	10392	9
10389	10386	10396	10398	9
10389	10388	10387	10393	9
10389	10388	10395	10397	9
10388	10389	10386	10396	9
10388	10387	10384	10390	9
10387	10388	10389	10394	9
10387	10388	10395	10397	9
10387	10384	10385	10392	9
10387	10384	10390	10391	9
10394	10389	10388	10395	9
10393	10387	10388	10395	9
10390	10384	10385	10392	9
10390	10384	10387	10393	9
10392	10385	10386	10396	9
10394	10389	10386	10396	9
10399	10400	10401	10404	9
10399	10400	10401	10411	9
10399	10402	10403	10404	9
10399	10402	10403	10410	9
10400	10401	10404	10403	9
10400	10401	10404	10409	9
10400	10401	10411	10413	9
10400	10399	10402	10403	9
10400	10399	10402	10408	9
10400	10399	10405	10406	9
10401	10400	10399	10402	9
10401	10400	10399	10405	9
10401	10404	10403	10402	9
10401	10404	10403	10410	9
10404	10401	10400	10407	9
10404	10401	10411	10413	9
10404	10403	10402	10408	9
10404	10403	10410	10412	9
10403	10404	10401	10411	9
10403	10402	10399	10405	9
10402	10403	10404	10409	9
10402	10403	10410	10412	9
10402	10399	10400	10407	9
10402	10399	10405	10406	9
10409	10404	10403	10410	9
10408	10402	10403	10410	9
10405	10399	10400	10407	9
10405	10399	10402	10408	9
10407	10400	10401	10411	9
10409	10404	10401	10411	9
10414	10417	10418	10419	9
10414	10417	10418	10425	9
10414	10415	10416	10419	9
10414	10415	10416	10426	9
10416	10419	10418	10417	9
10417	10418	10419	10424	9
10417	10418	10425	10427	9
10416	10415	10414	10417	9
10417	10414	10415	10422	9
10417	10414	10420	10421	9
10415	10414	10417	10418	9
10418	10417	10414	10420	9
10415	10416	10419	10418	9
10418	10419	10416	10426	9
10419	10418	10417	10423	9
10419	10418	10425	10427	9
10419	10416	10415	10422	9
10419	10416	10426	10428	9
10416	10419	10418	10425	9
10416	10415	10414	10420	9
10415	10416	10419	10424	9
10415	10416	10426	10428	9
10415	10414	10417	10423	9
10415	10414	10420	10421	9
10424	10419	10416	10426	9
10422	10415	10416	10426	9
10420	10414	10417	10423	9
10420	10414	10415	10422	9
10423	10417	10418	10425	9
10424	10419	10418	10425	9
10443	10446	10447	10448	9
10443	10446	10447	10454	9
10443	10444	10445	10448	9
10443	10444	10445	10455	9
10445	10448	10447	10446	9
10446	10447	10448	10453	9
10446	10447	10454	10456	9
10445	10444	10443	10446	9
10446	10443	10444	10451	9
10446	10443	10449	10450	9
10444	10443	10446	10447	9
10447	10446	10443	10449	9
10444	10445	10448	10447	9
10447	10448	10445	10455	9
10448	10447	10446	10452	9
10448	10447	10454	10456	9
10448	10445	10444	10451	9
10448	10445	10455	10457	9
10445	10448	10447	10454	9
10445	10444	10443	10449	9
10444	10445	10448	10453	9
10444	10445	10455	10457	9
10444	10443	10446	10452	9
10444	10443	10449	10450	9
10453	10448	10445	10455	9
10451	10444	10445	10455	9
10449	10443	10446	10452	9
10449	10443	10444	10451	9
10452	10446	10447	10454	9
10453	10448	10447	10454	9
10458	10461	10462	10463	9
10458	10461	10462	10469	9
10458	10459	10460	10463	9
10458	10459	10460	10470	9
10460	10463	10462	10461	9
10461	10462	10463	10468	9
10461	10462	10469	10471	9
10460	10459	10458	10461	9
10461	10458	10459	10466	9
10461	10458	10464	10465	9
10459	10458	10461	10462	9
10462	10461	10458	10464	9
10459	10460	10463	10462	9
10462	10463	10460	10470	9
10463	10462	10461	10467	9
10463	10462	10469	10471	9
10463	10460	10459	10466	9
10463	10460	10470	10472	9
10460	10463	10462	10469	9
10460	10459	10458	10464	9
10459	10460	10463	10468	9
10459	10460	10470	10472	9
10459	10458	10461	10467	9
10459	10458	10464	10465	9
10468	10463	10460	10470	9
10466	10459	10460	10470	9
10464	10458	10461	10467	9
10464	10458	10459	10466	9
10467	10461	10462	10469	9
10468	10463	10462	10469	9
10491	10492	10489	10488	9
10491	10492	10489	10499	9
10491	10490	10487	10488	9
10491	10490	10487	10493	9
10487	10488	10489	10492	9
10492	10489	10488	10495	9
10492	10489	10499	10501	9
10487	10490	10491	10492	9
10492	10491	10490	10496	9
10492	10491	10498	10500	9
10490	10491	10492	10489	9
10489	10492	10491	10498	9
10490	10487	10488	10489	9
10489	10488	10487	10493	9
10488	10489	10492	10497	9
10488	10489	10499	10501	9
10488	10487	10490	10496	9
10488	10487	10493	10494	9
10487	10488	10489	10499	9
10487	10490	10491	10498	9
10490	10487	10488	10495	9
10490	10487	10493	10494	9
10490	10491	10492	10497	9
10490	10491	10498	10500	9
10495	10488	10487	10493	9
10496	10490	10487	10493	9
10498	10491	10492	10497	9
10498	10491	10490	10496	9
10497	10492	10489	10499	9
10495	10488	10489	10499	9
10502	10505	10506	10507	9
10502	10505	10506	10513	9
10502	10503	10504	10507	9
10502	10503	10504	10514	9
10505	10506	10507	10504	9
10505	10506	10507	10512	9
10505	10506	10513	10515	9
10505	10502	10503	10504	9
10505	10502	10503	10510	9
10505	10502	10508	10509	9
10506	10505	10502	10503	9
10506	10505	10502	10508	9
10506	10507	10504	10503	9
10506	10507	10504	10514	9
10507	10506	10505	10511	9
10507	10506	10513	10515	9
10507	10504	10503	10510	9
10507	10504	10514	10516	9
10504	10507	10506	10513	9
10504	10503	10502	10508	9
10503	10504	10507	10512	9
10503	10504	10514	10516	9
10503	10502	10505	10511	9
10503	10502	10508	10509	9
10512	10507	10504	10514	9
10510	10503	10504	10514	9
10508	10502	10505	10511	9
10508	10502	10503	10510	9
10511	10505	10506	10513	9
10512	10507	10506	10513	9
10531	10532	10533	10536	9
10531	10532	10533	10543	9
10531	10534	10535	10536	9
10531	10534	10535	10542	9
10532	10533	10536	10535	9
10532	10533	10536	10541	9
10532	10533	10543	10545	9
10532	10531	10534	10535	9
10532	10531	10534	10540	9
10532	10531	10537	10538	9
10533	10532	10531	10534	9
10533	10532	10531	10537	9
10533	10536	10535	10534	9
10533	10536	10535	10542	9
10536	10533	10532	10539	9
10536	10533	10543	10545	9
10536	10535	10534	10540	9
10536	10535	10542	10544	9
10535	10536	10533	10543	9
10535	10534	10531	10537	9
10534	10535	10536	10541	9
10534	10535	10542	10544	9
10534	10531	10532	10539	9
10534	10531	10537	10538	9
10541	10536	10535	10542	9
10540	10534	10535	10542	9
10537	10531	10532	10539	9
10537	10531	10534	10540	9
10539	10532	10533	10543	9
10541	10536	10533	10543	9
10546	10547	10548	10551	9
10546	10547	10548	10558	9
10546	10549	10550	10551	9
10546	10549	10550	10557	9
10547	10548	10551	10550	9
10547	10548	10551	10556	9
10547	10548	10558	10560	9
10547	10546	10549	10550	9
10547	10546	10549	10555	9
10547	10546	10552	10553	9
10548	10547	10546	10549	9
10548	10547	10546	10552	9
10548	10551	10550	10549	9
10548	10551	10550	10557	9
10551	10548	10547	10554	9
10551	10548	10558	10560	9
10551	10550	10549	10555	9
10551	10550	10557	10559	9
10550	10551	10548	10558	9
10550	10549	10546	10552	9
10549	10550	10551	10556	9
10549	10550	10557	10559	9
10549	10546	10547	10554	9
10549	10546	10552	10553	9
10556	10551	10550	10557	9
10555	10549	10550	10557	9
10552	10546	10547	10554	9
10552	10546	10549	10555	9
10554	10547	10548	10558	9
10556	10551	10548	10558	9
2423	2424	2425	2428	9
2423	2424	2425	2435	9
2423	2426	2427	2428	9
2423	2426	2427	2434	9
2424	2425	2428	2427	9
2424	2425	2428	2433	9
2424	2425	2435	2437	9
2424	2425	2435	2438	9
2424	2423	2426	2427	9
2424	2423	2426	2432	9
2424	2423	2429	2430	9
2425	2424	2423	2426	9
2425	2424	2423	2429	9
2425	2428	2427	2426	9
2425	2428	2427	2434	9
2425	2435	2438	2439	9
2428	2425	2424	2431	9
2428	2425	2435	2437	9
2428	2425	2435	2438	9
2428	2427	2426	2432	9
2428	2427	2434	2436	9
2427	2428	2425	2435	9
2427	2426	2423	2429	9
2426	2427	2428	2433	9
2426	2427	2434	2436	9
2426	2423	2424	2431	9
2426	2423	2429	2430	9
2433	2428	2427	2434	9
2432	2426	2427	2434	9
2429	2423	2424	2431	9
2429	2423	2426	2432	9
2431	2424	2425	2435	9
2433	2428	2425	2435	9
2437	2435	2438	2439	9
10561	10562	10563	10566	9
10561	10562	10563	10573	9
10561	10564	10565	10566	9
10561	10564	10565	10572	9
10562	10563	10566	10565	9
10562	10563	10566	10571	9
10562	10563	10573	10575	9
10562	10561	10564	10565	9
10562	10561	10564	10570	9
10562	10561	10567	10568	9
10563	10562	10561	10564	9
10563	10562	10561	10567	9
10563	10566	10565	10564	9
10563	10566	10565	10572	9
10566	10563	10562	10569	9
10566	10563	10573	10575	9
10566	10565	10564	10570	9
10566	10565	10572	10574	9
10565	10566	10563	10573	9
10565	10564	10561	10567	9
10564	10565	10566	10571	9
10564	10565	10572	10574	9
10564	10561	10562	10569	9
10564	10561	10567	10568	9
10571	10566	10565	10572	9
10570	10564	10565	10572	9
10567	10561	10562	10569	9
10567	10561	10564	10570	9
10569	10562	10563	10573	9
10571	10566	10563	10573	9
2454	2455	2456	2459	9
2454	2455	2456	2466	9
2454	2457	2458	2459	9
2454	2457	2458	2465	9
2455	2456	2459	2458	9
2455	2456	2459	2464	9
2455	2456	2466	2468	9
2455	2456	2466	2469	9
2455	2454	2457	2458	9
2455	2454	2457	2463	9
2455	2454	2460	2461	9
2456	2455	2454	2457	9
2456	2455	2454	2460	9
2456	2459	2458	2457	9
2456	2459	2458	2465	9
2456	2466	2469	2470	9
2459	2456	2455	2462	9
2459	2456	2466	2468	9
2459	2456	2466	2469	9
2459	2458	2457	2463	9
2459	2458	2465	2467	9
2458	2459	2456	2466	9
2458	2457	2454	2460	9
2457	2458	2459	2464	9
2457	2458	2465	2467	9
2457	2454	2455	2462	9
2457	2454	2460	2461	9
2464	2459	2458	2465	9
2463	2457	2458	2465	9
2460	2454	2455	2462	9
2460	2454	2457	2463	9
2462	2455	2456	2466	9
2464	2459	2456	2466	9
2468	2466	2469	2470	9
10590	10591	10592	10595	9
10590	10591	10592	10602	9
10590	10593	10594	10595	9
10590	10593	10594	10601	9
10591	10592	10595	10594	9
10591	10592	10595	10600	9
10591	10592	10602	10604	9
10591	10590	10593	10594	9
10591	10590	10593	10599	9
10591	10590	10596	10597	9
10592	10591	10590	10593	9
10592	10591	10590	10596	9
10592	10595	10594	10593	9
10592	10595	10594	10601	9
10595	10592	10591	10598	9
10595	10592	10602	10604	9
10595	10594	10593	10599	9
10595	10594	10601	10603	9
10594	10595	10592	10602	9
10594	10593	10590	10596	9
10593	10594	10595	10600	9
10593	10594	10601	10603	9
10593	10590	10591	10598	9
10593	10590	10596	10597	9
10600	10595	10594	10601	9
10599	10593	10594	10601	9
10596	10590	10591	10598	9
10596	10590	10593	10599	9
10598	10591	10592	10602	9
10600	10595	10592	10602	9
2485	2486	2487	2490	9
2485	2486	2487	2497	9
2485	2488	2489	2490	9
2485	2488	2489	2496	9
2486	2487	2490	2489	9
2486	2487	2490	2495	9
2486	2487	2497	2499	9
2486	2487	2497	2500	9
2486	2485	2488	2489	9
2486	2485	2488	2494	9
2486	2485	2491	2492	9
2487	2486	2485	2488	9
2487	2486	2485	2491	9
2487	2490	2489	2488	9
2487	2490	2489	2496	9
2487	2497	2500	2501	9
2490	2487	2486	2493	9
2490	2487	2497	2499	9
2490	2487	2497	2500	9
2490	2489	2488	2494	9
2490	2489	2496	2498	9
2489	2490	2487	2497	9
2489	2488	2485	2491	9
2488	2489	2490	2495	9
2488	2489	2496	2498	9
2488	2485	2486	2493	9
2488	2485	2491	2492	9
2495	2490	2489	2496	9
2494	2488	2489	2496	9
2491	2485	2486	2493	9
2491	2485	2488	2494	9
2493	2486	2487	2497	9
2495	2490	2487	2497	9
2499	2497	2500	2501	9
10621	10620	10619	10622	9
10621	10620	10619	10625	9
10621	10624	10623	10622	9
10621	10624	10623	10630	9
10620	10619	10622	10623	9
10620	10619	10622	10628	9
10620	10619	10625	10626	9
10620	10621	10624	10623	9
10620	10621	10624	10629	9
10620	10621	10631	10633	9
10619	10620	10621	10624	9
10619	10620	10621	10631	9
10619	10622	10623	10624	9
10619	10622	10623	10630	9
10622	10619	10620	10627	9
10622	10619	10625	10626	9
10622	10623	10624	10629	9
10622	10623	10630	10632	9
10623	10622	10619	10625	9
10623	10624	10621	10631	9
10624	10623	10622	10628	9
10624	10623	10630	10632	9
10624	10621	10620	10627	9
10624	10621	10631	10633	9
10628	10622	10623	10630	9
10629	10624	10623	10630	9
10627	10620	10621	10631	9
10629	10624	10621	10631	9
10625	10619	10620	10627	9
10625	10619	10622	10628	9
10648	10651	10652	10653	9
10648	10651	10652	10659	9
10648	10649	10650	10653	9
10648	10649	10650	10660	9
10650	10653	10652	10651	9
10651	10652	10653	10658	9
10651	10652	10659	10661	9
10650	10649	10648	10651	9
10651	10648	10649	10656	9
10651	10648	10654	10655	9
10649	10648	10651	10652	9
10652	10651	10648	10654	9
10649	10650	10653	10652	9
10652	10653	10650	10660	9
10653	10652	10651	10657	9
10653	10652	10659	10661	9
10653	10650	10649	10656	9
10653	10650	10660	10662	9
10650	10653	10652	10659	9
10650	10649	10648	10654	9
10649	10650	10653	10658	9
10649	10650	10660	10662	9
10649	10648	10651	10657	9
10649	10648	10654	10655	9
10658	10653	10650	10660	9
10656	10649	10650	10660	9
10654	10648	10651	10657	9
10654	10648	10649	10656	9
10657	10651	10652	10659	9
10658	10653	10652	10659	9
10677	10678	10679	10682	9
10677	10678	10679	10689	9
10677	10680	10681	10682	9
10677	10680	10681	10688	9
10681	10682	10679	10678	9
10678	10679	10682	10687	9
10678	10679	10689	10691	9
10681	10680	10677	10678	9
10678	10677	10680	10686	9
10678	10677	10683	10684	9
10680	10677	10678	10679	9
10679	10678	10677	10683	9
10680	10681	10682	10679	9
10679	10682	10681	10688	9
10682	10679	10678	10685	9
10682	10679	10689	10691	9
10682	10681	10680	10686	9
10682	10681	10688	10690	9
10681	10682	10679	10689	9
10681	10680	10677	10683	9
10680	10681	10682	10687	9
10680	10681	10688	10690	9
10680	10677	10678	10685	9
10680	10677	10683	10684	9
10687	10682	10681	10688	9
10686	10680	10681	10688	9
10683	10677	10678	10685	9
10683	10677	10680	10686	9
10685	10678	10679	10689	9
10687	10682	10679	10689	9
2518	2517	2516	2519	9
2518	2517	2516	2522	9
2518	2521	2520	2519	9
2518	2521	2520	2527	9
2518	2528	2531	2532	9
2517	2516	2519	2520	9
2517	2516	2519	2525	9
2517	2516	2522	2523	9
2517	2518	2521	2520	9
2517	2518	2521	2526	9
2517	2518	2528	2530	9
2517	2518	2528	2531	9
2516	2517	2518	2521	9
2516	2517	2518	2528	9
2516	2519	2520	2521	9
2516	2519	2520	2527	9
2519	2516	2517	2524	9
2519	2516	2522	2523	9
2519	2520	2521	2526	9
2519	2520	2527	2529	9
2520	2519	2516	2522	9
2520	2521	2518	2528	9
2521	2520	2519	2525	9
2521	2520	2527	2529	9
2521	2518	2517	2524	9
2521	2518	2528	2530	9
2521	2518	2528	2531	9
2525	2519	2520	2527	9
2526	2521	2520	2527	9
2524	2517	2518	2528	9
2526	2521	2518	2528	9
2522	2516	2517	2524	9
2522	2516	2519	2525	9
2530	2528	2531	2532	9
2547	2548	2549	2552	9
2547	2548	2549	2559	9
2547	2550	2551	2552	9
2547	2550	2551	2558	9
2548	2549	2552	2551	9
2548	2549	2552	2557	9
2548	2549	2559	2561	9
2548	2549	2559	2562	9
2548	2547	2550	2551	9
2548	2547	2550	2556	9
2548	2547	2553	2554	9
2549	2548	2547	2550	9
2549	2548	2547	2553	9
2549	2552	2551	2550	9
2549	2552	2551	2558	9
2549	2559	2562	2563	9
2552	2549	2548	2555	9
2552	2549	2559	2561	9
2552	2549	2559	2562	9
2552	2551	2550	2556	9
2552	2551	2558	2560	9
2551	2552	2549	2559	9
2551	2550	2547	2553	9
2550	2551	2552	2557	9
2550	2551	2558	2560	9
2550	2547	2548	2555	9
2550	2547	2553	2554	9
2557	2552	2551	2558	9
2556	2550	2551	2558	9
2553	2547	2548	2555	9
2553	2547	2550	2556	9
2555	2548	2549	2559	9
2557	2552	2549	2559	9
2561	2559	2562	2563	9
10706	10707	10708	10711	9
10706	10707	10708	10718	9
10706	10709	10710	10711	9
10706	10709	10710	10717	9
10710	10711	10708	10707	9
10707	10708	10711	10716	9
10707	10708	10718	10720	9
10710	10709	10706	10707	9
10707	10706	10709	10715	9
10707	10706	10712	10713	9
10709	10706	10707	10708	9
10708	10707	10706	10712	9
10709	10710	10711	10708	9
10708	10711	10710	10717	9
10711	10708	10707	10714	9
10711	10708	10718	10720	9
10711	10710	10709	10715	9
10711	10710	10717	10719	9
10710	10711	10708	10718	9
10710	10709	10706	10712	9
10709	10710	10711	10716	9
10709	10710	10717	10719	9
10709	10706	10707	10714	9
10709	10706	10712	10713	9
10716	10711	10710	10717	9
10715	10709	10710	10717	9
10712	10706	10707	10714	9
10712	10706	10709	10715	9
10714	10707	10708	10718	9
10716	10711	10708	10718	9
10735	10738	10739	10740	9
10735	10738	10739	10746	9
10735	10736	10737	10740	9
10735	10736	10737	10747	9
10737	10740	10739	10738	9
10738	10739	10740	10745	9
10738	10739	10746	10748	9
10737	10736	10735	10738	9
10738	10735	10736	10743	9
10738	10735	10741	10742	9
10736	10735	10738	10739	9
10739	10738	10735	10741	9
10736	10737	10740	10739	9
10739	10740	10737	10747	9
10740	10739	10738	10744	9
10740	10739	10746	10748	9
10740	10737	10736	10743	9
10740	10737	10747	10749	9
10737	10740	10739	10746	9
10737	10736	10735	10741	9
10736	10737	10740	10745	9
10736	10737	10747	10749	9
10736	10735	10738	10744	9
10736	10735	10741	10742	9
10745	10740	10737	10747	9
10743	10736	10737	10747	9
10741	10735	10738	10744	9
10741	10735	10736	10743	9
10744	10738	10739	10746	9
10745	10740	10739	10746	9
10751	10752	10755	10754	9
10754	10755	10752	10762	9
10751	10750	10753	10754	9
10754	10753	10750	10756	9
10750	10751	10752	10755	9
10755	10752	10751	10758	9
10755	10752	10762	10764	9
10750	10753	10754	10755	9
10755	10754	10753	10759	9
10755	10754	10761	10763	9
10752	10755	10754	10753	9
10752	10755	10754	10761	9
10752	10751	10750	10753	9
10752	10751	10750	10756	9
10751	10752	10755	10760	9
10751	10752	10762	10764	9
10751	10750	10753	10759	9
10751	10750	10756	10757	9
10750	10751	10752	10762	9
10750	10753	10754	10761	9
10753	10750	10751	10758	9
10753	10750	10756	10757	9
10753	10754	10755	10760	9
10753	10754	10761	10763	9
10756	10750	10751	10758	9
10756	10750	10753	10759	9
10760	10755	10754	10761	9
10759	10753	10754	10761	9
10760	10755	10752	10762	9
10758	10751	10752	10762	9
10765	10768	10769	10770	9
10765	10768	10769	10776	9
10765	10766	10767	10770	9
10765	10766	10767	10777	9
10767	10770	10769	10768	9
10768	10769	10770	10775	9
10768	10769	10776	10778	9
10767	10766	10765	10768	9
10768	10765	10766	10773	9
10768	10765	10771	10772	9
10766	10765	10768	10769	9
10769	10768	10765	10771	9
10766	10767	10770	10769	9
10769	10770	10767	10777	9
10770	10769	10768	10774	9
10770	10769	10776	10778	9
10770	10767	10766	10773	9
10770	10767	10777	10779	9
10767	10770	10769	10776	9
10767	10766	10765	10771	9
10766	10767	10770	10775	9
10766	10767	10777	10779	9
10766	10765	10768	10774	9
10766	10765	10771	10772	9
10775	10770	10767	10777	9
10773	10766	10767	10777	9
10771	10765	10768	10774	9
10771	10765	10766	10773	9
10774	10768	10769	10776	9
10775	10770	10769	10776	9
10794	10797	10798	10799	9
10794	10797	10798	10805	9
10794	10795	10796	10799	9
10794	10795	10796	10806	9
10796	10799	10798	10797	9
10797	10798	10799	10804	9
10797	10798	10805	10807	9
10796	10795	10794	10797	9
10797	10794	10795	10802	9
10797	10794	10800	10801	9
10795	10794	10797	10798	9
10798	10797	10794	10800	9
10795	10796	10799	10798	9
10798	10799	10796	10806	9
10799	10798	10797	10803	9
10799	10798	10805	10807	9
10799	10796	10795	10802	9
10799	10796	10806	10808	9
10796	10799	10798	10805	9
10796	10795	10794	10800	9
10795	10796	10799	10804	9
10795	10796	10806	10808	9
10795	10794	10797	10803	9
10795	10794	10800	10801	9
10804	10799	10796	10806	9
10802	10795	10796	10806	9
10800	10794	10797	10803	9
10800	10794	10795	10802	9
10803	10797	10798	10805	9
10804	10799	10798	10805	9
10809	10810	10811	10814	9
10809	10810	10811	10821	9
10809	10812	10813	10814	9
10809	10812	10813	10820	9
10810	10811	10814	10813	9
10810	10811	10814	10819	9
10810	10811	10821	10823	9
10810	10809	10812	10813	9
10810	10809	10812	10818	9
10810	10809	10815	10816	9
10811	10810	10809	10812	9
10811	10810	10809	10815	9
10811	10814	10813	10812	9
10811	10814	10813	10820	9
10814	10811	10810	10817	9
10814	10811	10821	10823	9
10814	10813	10812	10818	9
10814	10813	10820	10822	9
10813	10814	10811	10821	9
10813	10812	10809	10815	9
10812	10813	10814	10819	9
10812	10813	10820	10822	9
10812	10809	10810	10817	9
10812	10809	10815	10816	9
10819	10814	10813	10820	9
10818	10812	10813	10820	9
10815	10809	10810	10817	9
10815	10809	10812	10818	9
10817	10810	10811	10821	9
10819	10814	10811	10821	9
10838	10839	10840	10843	9
10838	10839	10840	10850	9
10838	10841	10842	10843	9
10838	10841	10842	10849	9
10839	10840	10843	10842	9
10839	10840	10843	10848	9
10839	10840	10850	10852	9
10839	10838	10841	10842	9
10839	10838	10841	10847	9
10839	10838	10844	10845	9
10840	10839	10838	10841	9
10840	10839	10838	10844	9
10840	10843	10842	10841	9
10840	10843	10842	10849	9
10843	10840	10839	10846	9
10843	10840	10850	10852	9
10843	10842	10841	10847	9
10843	10842	10849	10851	9
10842	10843	10840	10850	9
10842	10841	10838	10844	9
10841	10842	10843	10848	9
10841	10842	10849	10851	9
10841	10838	10839	10846	9
10841	10838	10844	10845	9
10848	10843	10842	10849	9
10847	10841	10842	10849	9
10844	10838	10839	10846	9
10844	10838	10841	10847	9
10846	10839	10840	10850	9
10848	10843	10840	10850	9
10867	10870	10871	10872	9
10867	10870	10871	10878	9
10867	10868	10869	10872	9
10867	10868	10869	10879	9
10870	10871	10872	10869	9
10870	10871	10872	10877	9
10870	10871	10878	10880	9
10870	10867	10868	10869	9
10870	10867	10868	10875	9
10870	10867	10873	10874	9
10871	10870	10867	10868	9
10871	10870	10867	10873	9
10871	10872	10869	10868	9
10871	10872	10869	10879	9
10872	10871	10870	10876	9
10872	10871	10878	10880	9
10872	10869	10868	10875	9
10872	10869	10879	10881	9
10869	10872	10871	10878	9
10869	10868	10867	10873	9
10868	10869	10872	10877	9
10868	10869	10879	10881	9
10868	10867	10870	10876	9
10868	10867	10873	10874	9
10877	10872	10869	10879	9
10875	10868	10869	10879	9
10873	10867	10870	10876	9
10873	10867	10868	10875	9
10876	10870	10871	10878	9
10877	10872	10871	10878	9
10882	10885	10886	10887	9
10882	10885	10886	10893	9
10882	10883	10884	10887	9
10882	10883	10884	10894	9
10885	10886	10887	10884	9
10885	10886	10887	10892	9
10885	10886	10893	10895	9
10885	10882	10883	10884	9
10885	10882	10883	10890	9
10885	10882	10888	10889	9
10886	10885	10882	10883	9
10886	10885	10882	10888	9
10886	10887	10884	10883	9
10886	10887	10884	10894	9
10887	10886	10885	10891	9
10887	10886	10893	10895	9
10887	10884	10883	10890	9
10887	10884	10894	10896	9
10884	10887	10886	10893	9
10884	10883	10882	10888	9
10883	10884	10887	10892	9
10883	10884	10894	10896	9
10883	10882	10885	10891	9
10883	10882	10888	10889	9
10892	10887	10884	10894	9
10890	10883	10884	10894	9
10888	10882	10885	10891	9
10888	10882	10883	10890	9
10891	10885	10886	10893	9
10892	10887	10886	10893	9
10911	10912	10913	10916	9
10911	10912	10913	10923	9
10911	10914	10915	10916	9
10911	10914	10915	10922	9
10912	10913	10916	10915	9
10912	10913	10916	10921	9
10912	10913	10923	10925	9
10912	10911	10914	10915	9
10912	10911	10914	10920	9
10912	10911	10917	10918	9
10913	10912	10911	10914	9
10913	10912	10911	10917	9
10913	10916	10915	10914	9
10913	10916	10915	10922	9
10916	10913	10912	10919	9
10916	10913	10923	10925	9
10916	10915	10914	10920	9
10916	10915	10922	10924	9
10915	10916	10913	10923	9
10915	10914	10911	10917	9
10914	10915	10916	10921	9
10914	10915	10922	10924	9
10914	10911	10912	10919	9
10914	10911	10917	10918	9
10921	10916	10915	10922	9
10920	10914	10915	10922	9
10917	10911	10912	10919	9
10917	10911	10914	10920	9
10919	10912	10913	10923	9
10921	10916	10913	10923	9
10940	10941	10942	10945	9
10940	10941	10942	10952	9
10940	10943	10944	10945	9
10940	10943	10944	10951	9
10941	10942	10945	10944	9
10941	10942	10945	10950	9
10941	10942	10952	10954	9
10941	10940	10943	10944	9
10941	10940	10943	10949	9
10941	10940	10946	10947	9
10942	10941	10940	10943	9
10942	10941	10940	10946	9
10942	10945	10944	10943	9
10942	10945	10944	10951	9
10945	10942	10941	10948	9
10945	10942	10952	10954	9
10945	10944	10943	10949	9
10945	10944	10951	10953	9
10944	10945	10942	10952	9
10944	10943	10940	10946	9
10943	10944	10945	10950	9
10943	10944	10951	10953	9
10943	10940	10941	10948	9
10943	10940	10946	10947	9
10950	10945	10944	10951	9
10949	10943	10944	10951	9
10946	10940	10941	10948	9
10946	10940	10943	10949	9
10948	10941	10942	10952	9
10950	10945	10942	10952	9
10969	10970	10971	10974	9
10969	10970	10971	10981	9
10969	10972	10973	10974	9
10969	10972	10973	10980	9
10970	10971	10974	10973	9
10970	10971	10974	10979	9
10970	10971	10981	10983	9
10970	10969	10972	10973	9
10970	10969	10972	10978	9
10970	10969	10975	10976	9
10971	10970	10969	10972	9
10971	10970	10969	10975	9
10971	10974	10973	10972	9
10971	10974	10973	10980	9
10974	10971	10970	10977	9
10974	10971	10981	10983	9
10974	10973	10972	10978	9
10974	10973	10980	10982	9
10973	10974	10971	10981	9
10973	10972	10969	10975	9
10972	10973	10974	10979	9
10972	10973	10980	10982	9
10972	10969	10970	10977	9
10972	10969	10975	10976	9
10979	10974	10973	10980	9
10978	10972	10973	10980	9
10975	10969	10970	10977	9
10975	10969	10972	10978	9
10977	10970	10971	10981	9
10979	10974	10971	10981	9
10984	10987	10988	10989	9
10984	10987	10988	10995	9
10984	10985	10986	10989	9
10984	10985	10986	10996	9
10986	10989	10988	10987	9
10987	10988	10989	10994	9
10987	10988	10995	10997	9
10986	10985	10984	10987	9
10987	10984	10985	10992	9
10987	10984	10990	10991	9
10985	10984	10987	10988	9
10988	10987	10984	10990	9
10985	10986	10989	10988	9
10988	10989	10986	10996	9
10989	10988	10987	10993	9
10989	10988	10995	10997	9
10989	10986	10985	10992	9
10989	10986	10996	10998	9
10986	10989	10988	10995	9
10986	10985	10984	10990	9
10985	10986	10989	10994	9
10985	10986	10996	10998	9
10985	10984	10987	10993	9
10985	10984	10990	10991	9
10994	10989	10986	10996	9
10992	10985	10986	10996	9
10990	10984	10987	10993	9
10990	10984	10985	10992	9
10993	10987	10988	10995	9
10994	10989	10988	10995	9
10999	11002	11003	11004	9
10999	11002	11003	11010	9
10999	11000	11001	11004	9
10999	11000	11001	11011	9
11001	11004	11003	11002	9
11002	11003	11004	11009	9
11002	11003	11010	11012	9
11001	11000	10999	11002	9
11002	10999	11000	11007	9
11002	10999	11005	11006	9
11000	10999	11002	11003	9
11003	11002	10999	11005	9
11000	11001	11004	11003	9
11003	11004	11001	11011	9
11004	11003	11002	11008	9
11004	11003	11010	11012	9
11004	11001	11000	11007	9
11004	11001	11011	11013	9
11001	11004	11003	11010	9
11001	11000	10999	11005	9
11000	11001	11004	11009	9
11000	11001	11011	11013	9
11000	10999	11002	11008	9
11000	10999	11005	11006	9
11009	11004	11001	11011	9
11007	11000	11001	11011	9
11005	10999	11002	11008	9
11005	10999	11000	11007	9
11008	11002	11003	11010	9
11009	11004	11003	11010	9
11014	11017	11018	11019	9
11014	11017	11018	11025	9
11014	11015	11016	11019	9
11014	11015	11016	11026	9
11016	11019	11018	11017	9
11017	11018	11019	11024	9
11017	11018	11025	11027	9
11016	11015	11014	11017	9
11017	11014	11015	11022	9
11017	11014	11020	11021	9
11015	11014	11017	11018	9
11018	11017	11014	11020	9
11015	11016	11019	11018	9
11018	11019	11016	11026	9
11019	11018	11017	11023	9
11019	11018	11025	11027	9
11019	11016	11015	11022	9
11019	11016	11026	11028	9
11016	11019	11018	11025	9
11016	11015	11014	11020	9
11015	11016	11019	11024	9
11015	11016	11026	11028	9
11015	11014	11017	11023	9
11015	11014	11020	11021	9
11024	11019	11016	11026	9
11022	11015	11016	11026	9
11020	11014	11017	11023	9
11020	11014	11015	11022	9
11023	11017	11018	11025	9
11024	11019	11018	11025	9
11043	11044	11045	11048	9
11043	11044	11045	11055	9
11043	11046	11047	11048	9
11043	11046	11047	11054	9
11047	11048	11045	11044	9
11044	11045	11048	11053	9
11044	11045	11055	11057	9
11047	11046	11043	11044	9
11044	11043	11046	11052	9
11044	11043	11049	11050	9
11046	11043	11044	11045	9
11045	11044	11043	11049	9
11046	11047	11048	11045	9
11045	11048	11047	11054	9
11048	11045	11044	11051	9
11048	11045	11055	11057	9
11048	11047	11046	11052	9
11048	11047	11054	11056	9
11047	11048	11045	11055	9
11047	11046	11043	11049	9
11046	11047	11048	11053	9
11046	11047	11054	11056	9
11046	11043	11044	11051	9
11046	11043	11049	11050	9
11053	11048	11047	11054	9
11052	11046	11047	11054	9
11049	11043	11044	11051	9
11049	11043	11046	11052	9
11051	11044	11045	11055	9
11053	11048	11045	11055	9
11058	11061	11062	11063	9
11058	11061	11062	11069	9
11058	11059	11060	11063	9
11058	11059	11060	11070	9
11061	11062	11063	11060	9
11061	11062	11063	11068	9
11061	11062	11069	11071	9
11061	11058	11059	11060	9
11061	11058	11059	11066	9
11061	11058	11064	11065	9
11062	11061	11058	11059	9
11062	11061	11058	11064	9
11062	11063	11060	11059	9
11062	11063	11060	11070	9
11063	11062	11061	11067	9
11063	11062	11069	11071	9
11063	11060	11059	11066	9
11063	11060	11070	11072	9
11060	11063	11062	11069	9
11060	11059	11058	11064	9
11059	11060	11063	11068	9
11059	11060	11070	11072	9
11059	11058	11061	11067	9
11059	11058	11064	11065	9
11068	11063	11060	11070	9
11066	11059	11060	11070	9
11064	11058	11061	11067	9
11064	11058	11059	11066	9
11067	11061	11062	11069	9
11068	11063	11062	11069	9
2564	2567	2568	2569	9
2564	2567	2568	2575	9
2564	2565	2566	2569	9
2564	2565	2566	2576	9
2566	2569	2568	2567	9
2567	2568	2569	2574	9
2567	2568	2575	2577	9
2566	2565	2564	2567	9
2567	2564	2565	2572	9
2567	2564	2570	2571	9
2565	2564	2567	2568	9
2568	2567	2564	2570	9
2565	2566	2569	2568	9
2568	2569	2566	2576	9
2569	2568	2567	2573	9
2569	2568	2575	2577	9
2569	2566	2565	2572	9
2569	2566	2576	2578	9
2569	2566	2576	2579	9
2566	2569	2568	2575	9
2566	2565	2564	2570	9
2566	2576	2579	2580	9
2565	2566	2569	2574	9
2565	2566	2576	2578	9
2565	2566	2576	2579	9
2565	2564	2567	2573	9
2565	2564	2570	2571	9
2574	2569	2566	2576	9
2572	2565	2566	2576	9
2570	2564	2567	2573	9
2570	2564	2565	2572	9
2573	2567	2568	2575	9
2574	2569	2568	2575	9
2578	2576	2579	2580	9
11073	11074	11075	11078	9
11073	11074	11075	11085	9
11073	11076	11077	11078	9
11073	11076	11077	11084	9
11074	11075	11078	11077	9
11074	11075	11078	11083	9
11074	11075	11085	11087	9
11074	11073	11076	11077	9
11074	11073	11076	11082	9
11074	11073	11079	11080	9
11075	11074	11073	11076	9
11075	11074	11073	11079	9
11075	11078	11077	11076	9
11075	11078	11077	11084	9
11078	11075	11074	11081	9
11078	11075	11085	11087	9
11078	11077	11076	11082	9
11078	11077	11084	11086	9
11077	11078	11075	11085	9
11077	11076	11073	11079	9
11076	11077	11078	11083	9
11076	11077	11084	11086	9
11076	11073	11074	11081	9
11076	11073	11079	11080	9
11083	11078	11077	11084	9
11082	11076	11077	11084	9
11079	11073	11074	11081	9
11079	11073	11076	11082	9
11081	11074	11075	11085	9
11083	11078	11075	11085	9
11088	11089	11090	11093	9
11088	11089	11090	11100	9
11088	11091	11092	11093	9
11088	11091	11092	11099	9
11089	11090	11093	11092	9
11089	11090	11093	11098	9
11089	11090	11100	11102	9
11089	11088	11091	11092	9
11089	11088	11091	11097	9
11089	11088	11094	11095	9
11090	11089	11088	11091	9
11090	11089	11088	11094	9
11090	11093	11092	11091	9
11090	11093	11092	11099	9
11093	11090	11089	11096	9
11093	11090	11100	11102	9
11093	11092	11091	11097	9
11093	11092	11099	11101	9
11092	11093	11090	11100	9
11092	11091	11088	11094	9
11091	11092	11093	11098	9
11091	11092	11099	11101	9
11091	11088	11089	11096	9
11091	11088	11094	11095	9
11098	11093	11092	11099	9
11097	11091	11092	11099	9
11094	11088	11089	11096	9
11094	11088	11091	11097	9
11096	11089	11090	11100	9
11098	11093	11090	11100	9
11117	11118	11119	11122	9
11117	11118	11119	11129	9
11117	11120	11121	11122	9
11117	11120	11121	11128	9
11118	11119	11122	11121	9
11118	11119	11122	11127	9
11118	11119	11129	11131	9
11118	11117	11120	11121	9
11118	11117	11120	11126	9
11118	11117	11123	11124	9
11119	11118	11117	11120	9
11119	11118	11117	11123	9
11119	11122	11121	11120	9
11119	11122	11121	11128	9
11122	11119	11118	11125	9
11122	11119	11129	11131	9
11122	11121	11120	11126	9
11122	11121	11128	11130	9
11121	11122	11119	11129	9
11121	11120	11117	11123	9
11120	11121	11122	11127	9
11120	11121	11128	11130	9
11120	11117	11118	11125	9
11120	11117	11123	11124	9
11127	11122	11121	11128	9
11126	11120	11121	11128	9
11123	11117	11118	11125	9
11123	11117	11120	11126	9
11125	11118	11119	11129	9
11127	11122	11119	11129	9
11146	11147	11148	11151	9
11146	11147	11148	11158	9
11146	11149	11150	11151	9
11146	11149	11150	11157	9
11147	11148	11151	11150	9
11147	11148	11151	11156	9
11147	11148	11158	11160	9
11147	11146	11149	11150	9
11147	11146	11149	11155	9
11147	11146	11152	11153	9
11148	11147	11146	11149	9
11148	11147	11146	11152	9
11148	11151	11150	11149	9
11148	11151	11150	11157	9
11151	11148	11147	11154	9
11151	11148	11158	11160	9
11151	11150	11149	11155	9
11151	11150	11157	11159	9
11150	11151	11148	11158	9
11150	11149	11146	11152	9
11149	11150	11151	11156	9
11149	11150	11157	11159	9
11149	11146	11147	11154	9
11149	11146	11152	11153	9
11156	11151	11150	11157	9
11155	11149	11150	11157	9
11152	11146	11147	11154	9
11152	11146	11149	11155	9
11154	11147	11148	11158	9
11156	11151	11148	11158	9
2595	2596	2597	2600	9
2595	2596	2597	2607	9
2595	2598	2599	2600	9
2595	2598	2599	2606	9
2596	2597	2600	2599	9
2596	2597	2600	2605	9
2596	2597	2607	2609	9
2596	2597	2607	2610	9
2596	2595	2598	2599	9
2596	2595	2598	2604	9
2596	2595	2601	2602	9
2597	2596	2595	2598	9
2597	2596	2595	2601	9
2597	2600	2599	2598	9
2597	2600	2599	2606	9
2597	2607	2610	2611	9
2600	2597	2596	2603	9
2600	2597	2607	2609	9
2600	2597	2607	2610	9
2600	2599	2598	2604	9
2600	2599	2606	2608	9
2599	2600	2597	2607	9
2599	2598	2595	2601	9
2598	2599	2600	2605	9
2598	2599	2606	2608	9
2598	2595	2596	2603	9
2598	2595	2601	2602	9
2605	2600	2599	2606	9
2604	2598	2599	2606	9
2601	2595	2596	2603	9
2601	2595	2598	2604	9
2603	2596	2597	2607	9
2605	2600	2597	2607	9
2609	2607	2610	2611	9
11161	11162	11163	11166	9
11161	11162	11163	11173	9
11161	11164	11165	11166	9
11161	11164	11165	11172	9
11162	11163	11166	11165	9
11162	11163	11166	11171	9
11162	11163	11173	11175	9
11162	11161	11164	11165	9
11162	11161	11164	11170	9
11162	11161	11167	11168	9
11163	11162	11161	11164	9
11163	11162	11161	11167	9
11163	11166	11165	11164	9
11163	11166	11165	11172	9
11166	11163	11162	11169	9
11166	11163	11173	11175	9
11166	11165	11164	11170	9
11166	11165	11172	11174	9
11165	11166	11163	11173	9
11165	11164	11161	11167	9
11164	11165	11166	11171	9
11164	11165	11172	11174	9
11164	11161	11162	11169	9
11164	11161	11167	11168	9
11171	11166	11165	11172	9
11170	11164	11165	11172	9
11167	11161	11162	11169	9
11167	11161	11164	11170	9
11169	11162	11163	11173	9
11171	11166	11163	11173	9
11176	11179	11180	11181	9
11176	11179	11180	11187	9
11176	11177	11178	11181	9
11176	11177	11178	11188	9
11178	11181	11180	11179	9
11179	11180	11181	11186	9
11179	11180	11187	11189	9
11178	11177	11176	11179	9
11179	11176	11177	11184	9
11179	11176	11182	11183	9
11177	11176	11179	11180	9
11180	11179	11176	11182	9
11177	11178	11181	11180	9
11180	11181	11178	11188	9
11181	11180	11179	11185	9
11181	11180	11187	11189	9
11181	11178	11177	11184	9
11181	11178	11188	11190	9
11178	11181	11180	11187	9
11178	11177	11176	11182	9
11177	11178	11181	11186	9
11177	11178	11188	11190	9
11177	11176	11179	11185	9
11177	11176	11182	11183	9
11186	11181	11178	11188	9
11184	11177	11178	11188	9
11182	11176	11179	11185	9
11182	11176	11177	11184	9
11185	11179	11180	11187	9
11186	11181	11180	11187	9
5336	6386	5324	5335	2
5334	5343	5326	5333	2
5323	5325	5335	5324	2
5325	5327	5333	5326	2
5325	5324	5326	5329	2
5323	5324	5328	5331	2
5327	5328	5326	5330	2
5328	5323	5327	5332	2
4595	5349	4583	4594	2
4593	4602	4585	4592	2
4583	4584	4594	4582	2
4584	4586	4592	4585	2
4584	4583	4585	4588	2
4582	4587	4583	4590	2
4586	4585	4587	4589	2
4587	4582	4586	4591	2
9859	9866	9847	9858	2
9857	8748	9849	9856	2
9847	9848	9858	9846	2
9848	9850	9856	9849	2
9848	9849	9847	9852	2
9846	9851	9847	9854	2
9850	9849	9851	9853	2
9851	9846	9850	9855	2
5189	7755	5181	5188	2
5191	5198	5179	5190	2
5180	5182	5188	5181	2
5178	5180	5190	5179	2
5180	5181	5179	5184	2
5182	5181	5183	5185	2
5178	5183	5179	5186	2
5183	5182	5178	5187	2
1381	1362	1369	1380	2
1379	7244	1371	1378	2
1370	1368	1380	1369	2
1370	1372	1378	1371	2
1370	1371	1369	1374	2
1368	1373	1369	1376	2
1372	1373	1371	1375	2
1373	1368	1372	1377	2
11624	4607	11612	11623	2
11622	10018	11614	11621	2
11612	11613	11623	11611	2
11614	11613	11621	11615	2
11613	11614	11612	11617	2
11611	11616	11612	11619	2
11615	11616	11614	11618	2
11616	11615	11611	11620	2
2652	3969	2644	2651	2
2655	2642	2654	2653	2
2644	2643	2651	2645	2
2642	2641	2653	2643	2
2643	2642	2644	2647	2
2645	2644	2646	2648	2
2641	2642	2646	2649	2
2646	2645	2641	2650	2
819	4521	807	818	2
817	795	809	816	2
808	806	818	807	2
809	810	816	808	2
808	807	809	812	2
811	807	806	814	2
810	809	811	813	2
811	806	810	815	2
11145	4361	11133	11144	2
11143	11152	11135	11142	2
11134	11132	11144	11133	2
11135	11136	11142	11134	2
11134	11133	11135	11138	2
11132	11137	11133	11140	2
11136	11135	11137	11139	2
11137	11136	11132	11141	2
11566	4463	11558	11565	2
11568	7245	11556	11567	2
11559	11557	11565	11558	2
11556	11555	11567	11557	2
11557	11558	11556	11561	2
11559	11558	11560	11562	2
11555	11556	11560	11563	2
11560	11555	11559	11564	2
9888	5991	9876	9887	2
9886	9895	9878	9885	2
9876	9877	9887	9875	2
9879	9877	9885	9878	2
9877	9878	9876	9881	2
9875	9880	9876	9883	2
9879	9878	9880	9882	2
9880	9879	9875	9884	2
7215	10981	7207	7214	2
7217	7224	7205	7216	2
7207	7208	7214	7206	2
7204	7206	7216	7205	2
7206	7207	7205	7210	2
7208	7207	7209	7211	2
7204	7209	7205	7212	2
7209	7208	7204	7213	2
2862	5650	2854	2861	2
2864	2852	2865	2863	2
2854	2855	2861	2853	2
2853	2851	2863	2852	2
2853	2854	2852	2857	2
2855	2854	2856	2858	2
2851	2852	2856	2859	2
2856	2855	2851	2860	2
9537	9544	9525	9536	2
9535	5320	9527	9534	2
9526	9524	9536	9525	2
9527	9528	9534	9526	2
9526	9527	9525	9530	2
9524	9525	9529	9532	2
9528	9527	9529	9531	2
9529	9524	9528	9533	2
13724	1548	13712	13723	2
13722	10630	13714	13721	2
13712	13713	13723	13711	2
13713	13715	13721	13714	2
13713	13712	13714	13717	2
13711	13712	13716	13719	2
13715	13716	13714	13718	2
13716	13715	13711	13720	2
66	2553	54	65	2
64	40	56	63	2
53	55	65	54	2
56	55	63	57	2
55	56	54	59	2
53	58	54	61	2
57	56	58	60	2
58	57	53	62	2
9596	5494	9584	9595	2
9594	9603	9586	9593	2
9584	9583	9595	9585	2
9587	9585	9593	9586	2
9585	9586	9584	9589	2
9583	9584	9588	9591	2
9587	9586	9588	9590	2
9588	9583	9587	9592	2
4246	10396	4234	4245	2
4244	4253	4236	4243	2
4235	4233	4245	4234	2
4236	4237	4243	4235	2
4235	4234	4236	4239	2
4233	4238	4234	4241	2
4237	4236	4238	4240	2
4238	4237	4233	4242	2
11316	4055	11304	11315	2
11314	10455	11306	11313	2
11305	11303	11315	11304	2
11306	11305	11313	11307	2
11305	11304	11306	11309	2
11303	11308	11304	11311	2
11307	11306	11308	11310	2
11308	11307	11303	11312	2
12282	9770	12270	12281	2
12280	5758	12272	12279	2
12270	12269	12281	12271	2
12271	12273	12279	12272	2
12271	12270	12272	12275	2
12269	12270	12274	12277	2
12273	12272	12274	12276	2
12274	12269	12273	12278	2
11372	4143	11360	11371	2
11370	7871	11362	11369	2
11361	11359	11371	11360	2
11361	11363	11369	11362	2
11361	11362	11360	11365	2
11359	11360	11364	11367	2
11363	11362	11364	11366	2
11364	11363	11359	11368	2
8060	8069	8052	8059	2
8062	7172	8050	8061	2
8051	8053	8059	8052	2
8050	8051	8061	8049	2
8051	8050	8052	8055	2
8053	8054	8052	8056	2
8049	8054	8050	8057	2
8054	8053	8049	8058	2
9830	9837	9818	9829	2
9828	10390	9820	9827	2
9819	9817	9829	9818	2
9819	9821	9827	9820	2
9819	9820	9818	9823	2
9817	9818	9822	9825	2
9821	9822	9820	9824	2
9822	9817	9821	9826	2
13794	1357	13782	13793	2
13792	1641	13784	13791	2
13783	13781	13793	13782	2
13784	13783	13791	13785	2
13783	13782	13784	13787	2
13781	13782	13786	13789	2
13785	13786	13784	13788	2
13786	13781	13785	13790	2
8969	8976	8957	8968	2
8967	8543	8959	8966	2
8957	8956	8968	8958	2
8958	8960	8966	8959	2
8958	8959	8957	8962	2
8956	8957	8961	8964	2
8960	8959	8961	8963	2
8961	8956	8960	8965	2
10440	10449	10432	10439	2
10442	11085	10430	10441	2
10432	10433	10439	10431	2
10429	10431	10441	10430	2
10431	10430	10432	10435	2
10433	10434	10432	10436	2
10429	10430	10434	10437	2
10434	10429	10433	10438	2
4958	4965	4946	4957	2
4956	11084	4948	4955	2
4946	4947	4957	4945	2
4948	4949	4955	4947	2
4947	4948	4946	4951	2
4945	4950	4946	4953	2
4949	4950	4948	4952	2
4950	4945	4949	4954	2
3072	7449	3064	3071	2
3075	3062	3074	3073	2
3063	3065	3071	3064	2
3063	3061	3073	3062	2
3063	3064	3062	3067	2
3065	3064	3066	3068	2
3061	3066	3062	3069	2
3066	3061	3065	3070	2
10968	10381	10956	10967	2
10966	10975	10958	10965	2
10956	10957	10967	10955	2
10959	10957	10965	10958	2
10957	10958	10956	10961	2
10955	10960	10956	10963	2
10959	10958	10960	10962	2
10960	10959	10955	10964	2
11974	2138	11962	11973	2
11972	5174	11964	11971	2
11962	11961	11973	11963	2
11964	11965	11971	11963	2
11963	11962	11964	11967	2
11961	11962	11966	11969	2
11965	11966	11964	11968	2
11966	11965	11961	11970	2
8631	8640	8623	8630	2
8633	6065	8621	8632	2
8624	8622	8630	8623	2
8621	8620	8632	8622	2
8622	8621	8623	8626	2
8624	8625	8623	8627	2
8620	8625	8621	8628	2
8625	8624	8620	8629	2
3329	3317	3330	3328	2
3327	8991	3319	3326	2
3317	3316	3328	3318	2
3320	3318	3326	3319	2
3318	3317	3319	3322	2
3316	3317	3321	3324	2
3320	3321	3319	3323	2
3321	3320	3316	3325	2
3254	3242	3255	3253	2
3252	8582	3244	3251	2
3243	3241	3253	3242	2
3243	3245	3251	3244	2
3243	3244	3242	3247	2
3241	3246	3242	3249	2
3245	3246	3244	3248	2
3246	3245	3241	3250	2
2877	5655	2869	2876	2
2880	2867	2879	2878	2
2868	2870	2876	2869	2
2867	2866	2878	2868	2
2868	2869	2867	2872	2
2870	2869	2871	2873	2
2866	2867	2871	2874	2
2871	2870	2866	2875	2
13430	8587	13418	13429	2
13428	8442	13420	13427	2
13419	13417	13429	13418	2
13420	13421	13427	13419	2
13419	13420	13418	13423	2
13417	13418	13422	13425	2
13421	13422	13420	13424	2
13422	13421	13417	13426	2
3179	3167	3180	3178	2
3177	8148	3169	3176	2
3167	3168	3178	3166	2
3169	3168	3176	3170	2
3168	3169	3167	3172	2
3166	3167	3171	3174	2
3170	3171	3169	3173	2
3171	3166	3170	3175	2
2422	2398	2410	2421	2
2420	6064	2412	2419	2
2410	2409	2421	2411	2
2412	2411	2419	2413	2
2411	2412	2410	2415	2
2409	2414	2410	2417	2
2413	2412	2414	2416	2
2414	2413	2409	2418	2
10063	10070	10051	10062	2
10061	11079	10053	10060	2
10051	10052	10062	10050	2
10052	10054	10060	10053	2
10052	10051	10053	10056	2
10050	10055	10051	10058	2
10054	10053	10055	10057	2
10055	10054	10050	10059	2
5220	7390	5208	5219	2
5218	5227	5210	5217	2
5209	5207	5219	5208	2
5209	5211	5217	5210	2
5209	5208	5210	5213	2
5207	5212	5208	5215	2
5211	5210	5212	5214	2
5212	5207	5211	5216	2
11510	552	11502	11509	2
11512	4360	11500	11511	2
11501	11503	11509	11502	2
11500	11501	11511	11499	2
11501	11500	11502	11505	2
11503	11502	11504	11506	2
11499	11500	11504	11507	2
11504	11499	11503	11508	2
5060	5067	5048	5059	2
5058	8382	5050	5057	2
5048	5047	5059	5049	2
5051	5049	5057	5050	2
5049	5048	5050	5053	2
5047	5052	5048	5055	2
5051	5050	5052	5054	2
5052	5051	5047	5056	2
292	266	280	291	2
290	5933	282	289	2
279	281	291	280	2
281	283	289	282	2
281	280	282	285	2
279	284	280	287	2
283	282	284	286	2
284	279	283	288	2
12014	924	12006	12013	2
12016	5291	12004	12015	2
12006	12007	12013	12005	2
12004	12003	12015	12005	2
12005	12004	12006	12009	2
12007	12006	12008	12010	2
12003	12004	12008	12011	2
12008	12003	12007	12012	2
4217	4224	4205	4216	2
4215	7973	4207	4214	2
4205	4206	4216	4204	2
4207	4208	4214	4206	2
4206	4207	4205	4210	2
4204	4209	4205	4212	2
4208	4209	4207	4211	2
4209	4204	4208	4213	2
3704	3692	3705	3703	2
3702	11005	3694	3701	2
3692	3691	3703	3693	2
3693	3695	3701	3694	2
3693	3692	3694	3697	2
3691	3696	3692	3699	2
3695	3696	3694	3698	2
3695	3691	3696	3700	2
11302	4056	11290	11301	2
11300	11158	11292	11299	2
11291	11289	11301	11290	2
11291	11293	11299	11292	2
11291	11292	11290	11295	2
11289	11294	11290	11297	2
11293	11294	11292	11296	2
11294	11293	11289	11298	2
2744	2732	2745	2743	2
2742	4999	2734	2741	2
2732	2733	2743	2731	2
2734	2733	2741	2735	2
2733	2734	2732	2737	2
2731	2736	2732	2739	2
2735	2736	2734	2738	2
2736	2731	2735	2740	2
10266	10273	10254	10265	2
10264	10815	10256	10263	2
10253	10255	10265	10254	2
10257	10255	10263	10256	2
10255	10256	10254	10259	2
10253	10254	10258	10261	2
10257	10256	10258	10260	2
10258	10253	10257	10262	2
12394	10075	12382	12393	2
12392	5889	12384	12391	2
12382	12383	12393	12381	2
12383	12385	12391	12384	2
12383	12384	12382	12387	2
12381	12386	12382	12389	2
12385	12386	12384	12388	2
12386	12385	12381	12390	2
11708	1172	11696	11707	2
11706	4752	11698	11705	2
11697	11695	11707	11696	2
11698	11699	11705	11697	2
11697	11696	11698	11701	2
11695	11700	11696	11703	2
11699	11700	11698	11702	2
11700	11695	11699	11704	2
5133	9331	5121	5132	2
5131	5140	5123	5130	2
5120	5122	5132	5121	2
5124	5122	5130	5123	2
5122	5121	5123	5126	2
5120	5121	5125	5128	2
5124	5123	5125	5127	2
5125	5120	5124	5129	2
10339	7784	10327	10338	2
10337	10346	10329	10336	2
10326	10328	10338	10327	2
10330	10328	10336	10329	2
10328	10327	10329	10332	2
10326	10331	10327	10334	2
10330	10331	10329	10333	2
10331	10326	10330	10335	2
7640	7647	7628	7639	2
7638	10990	7630	7637	2
7629	7627	7639	7628	2
7630	7629	7637	7631	2
7629	7630	7628	7633	2
7632	7628	7627	7635	2
7631	7632	7630	7634	2
7632	7627	7631	7636	2
11218	893	11206	11217	2
11216	3867	11208	11215	2
11205	11207	11217	11206	2
11207	11209	11215	11208	2
11207	11208	11206	11211	2
11205	11210	11206	11213	2
11209	11210	11208	11212	2
11210	11205	11209	11214	2
9143	9492	9135	9142	2
9145	9152	9133	9144	2
9135	9136	9142	9134	2
9134	9132	9144	9133	2
9134	9135	9133	9138	2
9136	9135	9137	9139	2
9132	9137	9133	9140	2
9137	9136	9132	9141	2
569	547	561	568	2
571	5290	559	570	2
561	560	568	562	2
560	558	570	559	2
560	561	559	564	2
562	561	563	565	2
558	563	559	566	2
563	562	558	567	2
2997	6691	2989	2996	2
2999	2987	3000	2998	2
2989	2990	2996	2988	2
2987	2986	2998	2988	2
2988	2989	2987	2992	2
2990	2991	2989	2993	2
2986	2987	2991	2994	2
2991	2990	2986	2995	2
9116	10454	9104	9115	2
9114	9123	9106	9113	2
9105	9103	9115	9104	2
9106	9107	9113	9105	2
9105	9104	9106	9109	2
9103	9104	9108	9111	2
9107	9108	9106	9110	2
9108	9107	9103	9112	2
13528	9129	13516	13527	2
13526	8996	13518	13525	2
13515	13517	13527	13516	2
13518	13517	13525	13519	2
13517	13516	13518	13521	2
13515	13516	13520	13523	2
13519	13520	13518	13522	2
13520	13519	13515	13524	2
3432	9463	3424	3431	2
3435	3422	3434	3433	2
3423	3425	3431	3424	2
3422	3423	3433	3421	2
3423	3424	3422	3427	2
3425	3424	3426	3428	2
3421	3422	3426	3429	2
3426	3421	3425	3430	2
7989	6967	7977	7988	2
7987	7996	7979	7986	2
7978	7976	7988	7977	2
7979	7980	7986	7978	2
7978	7977	7979	7982	2
7976	7977	7981	7984	2
7980	7981	7979	7983	2
7981	7980	7976	7985	2
1098	1074	1086	1097	2
1096	5582	1088	1095	2
1085	1087	1097	1086	2
1088	1089	1095	1087	2
1087	1088	1086	1091	2
1085	1086	1090	1093	2
1089	1088	1090	1092	2
1090	1089	1085	1094	2
13514	10952	13502	13513	2
13512	8997	13504	13511	2
13501	13503	13513	13502	2
13503	13505	13511	13504	2
13503	13504	13502	13507	2
13501	13506	13502	13509	2
13505	13506	13504	13508	2
13505	13501	13506	13510	2
10705	3968	10693	10704	2
10703	10712	10695	10702	2
10692	10694	10704	10693	2
10695	10694	10702	10696	2
10694	10693	10695	10698	2
10692	10693	10697	10700	2
10696	10695	10697	10699	2
10697	10696	10692	10701	2
5628	2465	5616	5627	2
5626	5635	5618	5625	2
5615	5617	5627	5616	2
5619	5617	5625	5618	2
5617	5616	5618	5621	2
5615	5620	5616	5623	2
5619	5620	5618	5622	2
5620	5615	5619	5624	2
447	6351	435	446	2
445	423	437	444	2
435	434	446	436	2
438	436	444	437	2
436	435	437	440	2
434	439	435	442	2
438	439	437	441	2
439	434	438	443	2
7159	7166	7147	7158	2
7157	8616	7149	7156	2
7148	7146	7158	7147	2
7149	7148	7156	7150	2
7148	7147	7149	7152	2
7146	7147	7151	7154	2
7150	7149	7151	7153	2
7151	7146	7150	7155	2
695	10552	683	694	2
693	671	685	692	2
683	684	694	682	2
685	686	692	684	2
684	685	683	688	2
682	683	687	690	2
686	687	685	689	2
687	682	686	691	2
6707	8367	6695	6706	2
6705	6714	6697	6704	2
6694	6696	6706	6695	2
6698	6696	6704	6697	2
6696	6697	6695	6700	2
6694	6695	6699	6702	2
6698	6697	6699	6701	2
6699	6698	6694	6703	2
3492	9608	3484	3491	2
3495	3482	3494	3493	2
3485	3483	3491	3484	2
3482	3483	3493	3481	2
3483	3482	3484	3487	2
3485	3484	3486	3488	2
3481	3482	3486	3489	2
3486	3481	3485	3490	2
13066	7624	13054	13065	2
13064	10278	13056	13063	2
13054	13055	13065	13053	2
13056	13057	13063	13055	2
13055	13056	13054	13059	2
13053	13058	13054	13061	2
13057	13058	13056	13060	2
13058	13057	13053	13062	2
11428	7522	11416	11427	2
11426	4230	11418	11425	2
11416	11415	11427	11417	2
11418	11417	11425	11419	2
11417	11418	11416	11421	2
11415	11420	11416	11423	2
11419	11418	11420	11422	2
11420	11415	11419	11424	2
12772	2558	12760	12771	2
12770	6719	12762	12769	2
12761	12759	12771	12760	2
12762	12763	12769	12761	2
12761	12760	12762	12765	2
12764	12760	12759	12767	2
12763	12764	12762	12766	2
12764	12759	12763	12768	2
4043	6282	4031	4042	2
4041	4050	4033	4040	2
4030	4032	4042	4031	2
4034	4032	4040	4033	2
4032	4033	4031	4036	2
4030	4035	4031	4038	2
4034	4033	4035	4037	2
4035	4030	4034	4039	2
2329	2305	2317	2328	2
2327	10806	2319	2326	2
2316	2318	2328	2317	2
2319	2320	2326	2318	2
2318	2319	2317	2322	2
2316	2321	2317	2324	2
2320	2319	2321	2323	2
2321	2316	2320	2325	2
6649	6656	6637	6648	2
6647	8952	6639	6646	2
6637	6636	6648	6638	2
6639	6640	6646	6638	2
6638	6639	6637	6642	2
6636	6637	6641	6644	2
6640	6641	6639	6643	2
6641	6636	6640	6645	2
7567	7574	7555	7566	2
7565	4637	7557	7564	2
7555	7556	7566	7554	2
7557	7558	7564	7556	2
7556	7555	7557	7560	2
7554	7555	7559	7562	2
7558	7559	7557	7561	2
7559	7554	7558	7563	2
12828	6968	12816	12827	2
12826	2527	12818	12825	2
12817	12815	12827	12816	2
12819	12817	12825	12818	2
12816	12818	12817	12821	2
12815	12820	12816	12823	2
12819	12820	12818	12822	2
12820	12815	12819	12824	2
13038	9332	13026	13037	2
13036	7551	13028	13035	2
13025	13027	13037	13026	2
13028	13029	13035	13027	2
13027	13028	13026	13031	2
13025	13030	13026	13033	2
13029	13030	13028	13032	2
13030	13029	13025	13034	2
4450	4457	4438	4449	2
4448	6938	4440	4447	2
4437	4439	4449	4438	2
4440	4439	4447	4441	2
4439	4438	4440	4443	2
4437	4442	4438	4445	2
4441	4440	4442	4444	2
4442	4441	4437	4446	2
10793	10800	10781	10792	2
10791	5947	10783	10790	2
10781	10782	10792	10780	2
10783	10784	10790	10782	2
10782	10783	10781	10786	2
10780	10781	10785	10788	2
10784	10785	10783	10787	2
10785	10784	10780	10789	2
3719	3707	3720	3718	2
3717	11010	3709	3716	2
3707	3708	3718	3706	2
3708	3710	3716	3709	2
3708	3707	3709	3712	2
3706	3711	3707	3714	2
3710	3709	3711	3713	2
3711	3706	3710	3715	2
10939	10922	10927	10938	2
10937	10946	10929	10936	2
10928	10926	10938	10927	2
10929	10930	10936	10928	2
10928	10927	10929	10932	2
10926	10931	10927	10934	2
10930	10929	10931	10933	2
10931	10930	10926	10935	2
3552	9785	3544	3551	2
3554	3542	3555	3553	2
3545	3543	3551	3544	2
3541	3543	3553	3542	2
3543	3544	3542	3547	2
3545	3546	3544	3548	2
3541	3546	3542	3549	2
3546	3545	3541	3550	2
13024	7521	13012	13023	2
13022	9520	13014	13021	2
13012	13013	13023	13011	2
13013	13015	13021	13014	2
13013	13014	13012	13017	2
13011	13012	13016	13019	2
13015	13014	13016	13018	2
13016	13015	13011	13020	2
10034	10041	10022	10033	2
10032	3998	10024	10031	2
10023	10021	10033	10022	2
10024	10023	10031	10025	2
10023	10024	10022	10027	2
10021	10026	10022	10029	2
10025	10026	10024	10028	2
10026	10025	10021	10030	2
11358	4142	11346	11357	2
11356	10279	11348	11355	2
11346	11345	11357	11347	2
11349	11347	11355	11348	2
11347	11348	11346	11351	2
11345	11346	11350	11353	2
11349	11350	11348	11352	2
11350	11349	11345	11354	2
3462	9549	3454	3461	2
3465	3452	3464	3463	2
3453	3455	3461	3454	2
3453	3451	3463	3452	2
3453	3452	3454	3457	2
3455	3456	3454	3458	2
3451	3456	3452	3459	2
3456	3455	3451	3460	2
10005	10012	9993	10004	2
10003	5348	9995	10002	2
9993	9994	10004	9992	2
9995	9996	10002	9994	2
9994	9995	9993	9998	2
9992	9997	9993	10000	2
9996	9995	9997	9999	2
9997	9996	9992	10001	2
4987	4994	4975	4986	2
4985	6030	4977	4984	2
4974	4976	4986	4975	2
4977	4976	4984	4978	2
4976	4977	4975	4980	2
4974	4979	4975	4982	2
4977	4978	4979	4981	2
4979	4978	4974	4983	2
2639	2627	2640	2638	2
2637	3876	2629	2636	2
2627	2626	2638	2628	2
2630	2628	2636	2629	2
2628	2629	2627	2632	2
2626	2627	2631	2634	2
2630	2629	2631	2633	2
2631	2626	2630	2635	2
3087	7478	3079	3086	2
3090	3077	3089	3088	2
3079	3080	3086	3078	2
3077	3078	3088	3076	2
3078	3077	3079	3082	2
3080	3081	3079	3083	2
3076	3081	3077	3084	2
3081	3080	3076	3085	2
6911	6720	6899	6910	2
6909	6918	6901	6908	2
6900	6898	6910	6899	2
6902	6900	6908	6901	2
6900	6901	6899	6904	2
6898	6903	6899	6906	2
6902	6901	6903	6905	2
6903	6898	6902	6907	2
12002	5232	11990	12001	2
12000	8778	11992	11999	2
11991	11989	12001	11990	2
11993	11991	11999	11992	2
11991	11990	11992	11995	2
11989	11994	11990	11997	2
11993	11994	11992	11996	2
11994	11993	11989	11998	2
12058	8074	12046	12057	2
12056	5451	12048	12055	2
12047	12045	12057	12046	2
12048	12049	12055	12047	2
12047	12046	12048	12051	2
12045	12046	12050	12053	2
12049	12048	12050	12052	2
12050	12049	12045	12054	2
602	10464	590	601	2
600	578	592	599	2
590	589	601	591	2
593	591	599	592	2
591	592	590	595	2
589	590	594	597	2
593	592	594	596	2
594	593	589	598	2
13262	9683	13250	13261	2
13260	8205	13252	13259	2
13251	13249	13261	13250	2
13253	13251	13259	13252	2
13251	13252	13250	13255	2
13249	13254	13250	13257	2
13253	13254	13252	13256	2
13254	13249	13253	13258	2
12128	10572	12116	12127	2
12126	5552	12118	12125	2
12117	12115	12127	12116	2
12117	12119	12125	12118	2
12117	12116	12118	12121	2
12115	12116	12120	12123	2
12119	12120	12118	12122	2
12120	12115	12119	12124	2
6460	1796	6448	6459	2
6458	6467	6450	6457	2
6447	6449	6459	6448	2
6451	6449	6457	6450	2
6449	6448	6450	6453	2
6447	6448	6452	6455	2
6451	6450	6452	6454	2
6452	6447	6451	6456	2
3344	3332	3345	3343	2
3342	9035	3334	3341	2
3333	3331	3343	3332	2
3335	3333	3341	3334	2
3333	3332	3334	3337	2
3331	3332	3336	3339	2
3335	3336	3334	3338	2
3336	3331	3335	3340	2
3225	3212	3224	3223	2
3222	8572	3214	3221	2
3213	3211	3223	3212	2
3213	3215	3221	3214	2
3213	3214	3212	3217	2
3211	3212	3216	3219	2
3216	3215	3214	3218	2
3216	3215	3211	3220	2
11750	8339	11738	11749	2
11748	4781	11740	11747	2
11738	11739	11749	11737	2
11740	11739	11747	11741	2
11739	11738	11740	11743	2
11737	11742	11738	11745	2
11741	11742	11740	11744	2
11742	11737	11741	11746	2
12980	7404	12972	12979	2
12982	8718	12970	12981	2
12972	12973	12979	12971	2
12969	12970	12981	12971	2
12971	12970	12972	12975	2
12973	12972	12974	12976	2
12970	12969	12974	12977	2
12974	12973	12969	12978	2
12380	5888	12368	12379	2
12378	8661	12370	12377	2
12367	12369	12379	12368	2
12371	12369	12377	12370	2
12369	12368	12370	12373	2
12367	12372	12368	12375	2
12371	12370	12372	12374	2
12372	12367	12371	12376	2
12408	5917	12396	12407	2
12406	10323	12398	12405	2
12397	12395	12407	12396	2
12398	12399	12405	12397	2
12397	12396	12398	12401	2
12395	12400	12396	12403	2
12399	12398	12400	12402	2
12400	12399	12395	12404	2
3417	9186	3409	3416	2
3420	3407	3419	3418	2
3409	3408	3416	3410	2
3407	3406	3418	3408	2
3408	3409	3407	3412	2
3410	3411	3409	3413	2
3406	3411	3407	3414	2
3411	3406	3410	3415	2
9261	9268	9249	9260	2
9259	9910	9251	9258	2
9248	9250	9260	9249	2
9252	9250	9258	9251	2
9250	9251	9249	9254	2
9248	9253	9249	9256	2
9252	9251	9253	9255	2
9253	9252	9248	9257	2
9479	8397	9467	9478	2
9477	9486	9469	9476	2
9466	9468	9478	9467	2
9470	9468	9476	9469	2
9468	9469	9467	9472	2
9466	9467	9471	9474	2
9470	9469	9471	9473	2
9471	9466	9470	9475	2
12198	5611	12186	12197	2
12196	8294	12188	12195	2
12186	12185	12197	12187	2
12188	12189	12195	12187	2
12187	12188	12186	12191	2
12185	12190	12186	12193	2
12189	12188	12190	12192	2
12190	12189	12185	12194	2
5031	10469	5019	5030	2
5029	5038	5021	5028	2
5019	5018	5030	5020	2
5021	5022	5028	5020	2
5020	5021	5019	5024	2
5018	5019	5023	5026	2
5022	5023	5021	5025	2
5023	5022	5018	5027	2
2033	2009	2021	2032	2
2031	4520	2023	2030	2
2022	2020	2032	2021	2
2023	2024	2030	2022	2
2022	2023	2021	2026	2
2020	2025	2021	2028	2
2024	2025	2023	2027	2
2025	2020	2024	2029	2
7829	6923	7817	7828	2
7827	7836	7819	7826	2
7818	7816	7828	7817	2
7819	7818	7826	7820	2
7818	7819	7817	7822	2
7816	7817	7821	7824	2
7820	7819	7821	7823	2
7821	7820	7816	7825	2
6620	9779	6608	6619	2
6618	6627	6610	6617	2
6608	6609	6619	6607	2
6610	6611	6617	6609	2
6609	6610	6608	6613	2
6607	6612	6608	6615	2
6611	6610	6612	6614	2
6612	6611	6607	6616	2
5540	5547	5528	5539	2
5538	8689	5530	5537	2
5528	5527	5539	5529	2
5531	5529	5537	5530	2
5529	5530	5528	5533	2
5527	5532	5528	5535	2
5531	5532	5530	5534	2
5532	5527	5531	5536	2
8735	3997	8723	8734	2
8733	8742	8725	8732	2
8722	8724	8734	8723	2
8725	8726	8732	8724	2
8724	8723	8725	8728	2
8722	8727	8723	8730	2
8726	8727	8725	8729	2
8727	8722	8726	8731	2
12030	7303	12018	12029	2
12028	5363	12020	12027	2
12019	12017	12029	12018	2
12020	12019	12027	12021	2
12019	12018	12020	12023	2
12017	12018	12022	12025	2
12021	12020	12022	12024	2
12022	12021	12017	12026	2
13738	2248	13726	13737	2
13736	10631	13728	13735	2
13727	13725	13737	13726	2
13727	13729	13735	13728	2
13727	13728	13726	13731	2
13725	13730	13726	13733	2
13729	13730	13728	13732	2
13730	13729	13725	13734	2
11666	4666	11654	11665	2
11664	335	11656	11663	2
11655	11653	11665	11654	2
11656	11655	11663	11657	2
11655	11654	11656	11659	2
11653	11654	11658	11661	2
11657	11658	11656	11660	2
11658	11653	11657	11662	2
11470	4811	11458	11469	2
11468	4287	11460	11467	2
11458	11459	11469	11457	2
11461	11459	11467	11460	2
11459	11458	11460	11463	2
11457	11458	11462	11465	2
11461	11462	11460	11464	2
11462	11461	11457	11466	2
13626	10558	13614	13625	2
13624	9872	13616	13623	2
13615	13613	13625	13614	2
13615	13617	13623	13616	2
13615	13614	13616	13619	2
13613	13614	13618	13621	2
13617	13616	13618	13620	2
13618	13617	13613	13622	2
10647	9550	10635	10646	2
10645	10654	10637	10644	2
10635	10636	10646	10634	2
10637	10636	10644	10638	2
10636	10637	10635	10640	2
10634	10639	10635	10642	2
10638	10637	10639	10641	2
10639	10638	10634	10643	2
4377	11129	4365	4376	2
4375	4384	4367	4374	2
4365	4366	4376	4364	2
4367	4368	4374	4366	2
4366	4367	4365	4370	2
4364	4365	4369	4372	2
4368	4369	4367	4371	2
4369	4364	4368	4373	2
2515	2491	2503	2514	2
2513	4608	2505	2512	2
2503	2504	2514	2502	2
2504	2506	2512	2505	2
2504	2503	2505	2508	2
2502	2507	2503	2510	2
2506	2505	2507	2509	2
2507	2506	2502	2511	2
12716	6530	12704	12715	2
12714	7507	12706	12713	2
12704	12705	12715	12703	2
12705	12707	12713	12706	2
12705	12706	12704	12709	2
12703	12704	12708	12711	2
12707	12708	12706	12710	2
12708	12707	12703	12712	2
881	857	869	880	2
879	6292	871	878	2
869	870	880	868	2
872	870	878	871	2
870	871	869	874	2
868	873	869	876	2
872	871	873	875	2
873	868	872	877	2
5380	10076	5368	5379	2
5378	5387	5370	5377	2
5368	5367	5379	5369	2
5369	5371	5377	5370	2
5369	5368	5370	5373	2
5367	5368	5372	5375	2
5371	5370	5372	5374	2
5372	5371	5367	5376	2
5874	5883	5866	5873	2
5876	5942	5864	5875	2
5866	5867	5873	5865	2
5864	5863	5875	5865	2
5865	5864	5866	5869	2
5867	5868	5866	5870	2
5863	5864	5868	5871	2
5868	5867	5863	5872	2
11344	6734	11332	11343	2
11342	4114	11334	11341	2
11332	11333	11343	11331	2
11335	11333	11341	11334	2
11333	11334	11332	11337	2
11331	11336	11332	11339	2
11335	11336	11334	11338	2
11336	11335	11331	11340	2
3450	3437	3449	3448	2
3447	9462	3439	3446	2
3438	3436	3448	3437	2
3439	3440	3446	3438	2
3438	3437	3439	3442	2
3436	3437	3441	3444	2
3440	3439	3441	3443	2
3441	3436	3440	3445	2
2157	2133	2145	2156	2
2155	9273	2147	2154	2
2146	2144	2156	2145	2
2147	2146	2154	2148	2
2146	2147	2145	2150	2
2144	2145	2149	2152	2
2148	2147	2149	2151	2
2149	2144	2148	2153	2
3764	3752	3765	3763	2
3762	11173	3754	3761	2
3753	3751	3763	3752	2
3755	3753	3761	3754	2
3753	3754	3752	3757	2
3751	3756	3752	3759	2
3755	3756	3754	3758	2
3756	3755	3751	3760	2
9013	9020	9001	9012	2
9011	6554	9003	9010	2
9001	9000	9012	9002	2
9004	9002	9010	9003	2
9002	9003	9001	9006	2
9000	9005	9001	9008	2
9004	9005	9003	9007	2
9005	9000	9004	9009	2
1753	8040	1741	1752	2
1751	1729	1743	1750	2
1742	1740	1752	1741	2
1743	1744	1750	1742	2
1742	1743	1741	1746	2
1740	1741	1745	1748	2
1744	1745	1743	1747	2
1745	1740	1744	1749	2
8558	8567	8550	8557	2
8560	5422	8548	8559	2
8549	8551	8557	8550	2
8548	8547	8559	8549	2
8549	8550	8548	8553	2
8551	8552	8550	8554	2
8547	8552	8548	8555	2
8552	8551	8547	8556	2
12142	11069	12130	12141	2
12140	5581	12132	12139	2
12129	12131	12141	12130	2
12132	12133	12139	12131	2
12131	12132	12130	12135	2
12129	12130	12134	12137	2
12133	12132	12134	12136	2
12134	12133	12129	12138	2
11610	11157	11598	11609	2
11608	4578	11600	11607	2
11598	11597	11609	11599	2
11600	11599	11607	11601	2
11599	11598	11600	11603	2
11597	11598	11602	11605	2
11601	11600	11602	11604	2
11602	11597	11601	11606	2
13136	7870	13124	13135	2
13134	8879	13126	13133	2
13124	13123	13135	13125	2
13125	13127	13133	13126	2
13125	13126	13124	13129	2
13123	13124	13128	13131	2
13127	13128	13126	13130	2
13128	13127	13123	13132	2
2714	2702	2715	2713	2
2712	4399	2704	2711	2
2703	2701	2713	2702	2
2704	2705	2711	2703	2
2703	2702	2704	2707	2
2701	2702	2706	2709	2
2705	2704	2706	2708	2
2706	2705	2701	2710	2
6110	7594	6098	6109	2
6108	6122	6100	6107	2
6097	6099	6109	6098	2
6101	6099	6107	6100	2
6099	6098	6100	6103	2
6097	6098	6102	6105	2
6101	6100	6102	6104	2
6102	6097	6101	6106	2
13668	9988	13656	13667	2
13666	10352	13658	13665	2
13656	13657	13667	13655	2
13658	13659	13665	13657	2
13657	13656	13658	13661	2
13655	13660	13656	13663	2
13659	13658	13660	13662	2
13660	13655	13659	13664	2
3210	3197	3209	3208	2
3207	8441	3199	3206	2
3196	3198	3208	3197	2
3199	3200	3206	3198	2
3198	3199	3197	3202	2
3196	3201	3197	3204	2
3200	3201	3199	3203	2
3201	3200	3196	3205	2
3162	8118	3154	3161	2
3165	3152	3164	3163	2
3154	3153	3161	3155	2
3151	3153	3163	3152	2
3153	3152	3154	3157	2
3155	3154	3156	3158	2
3151	3156	3152	3159	2
3156	3151	3155	3160	2
13710	11055	13698	13709	2
13708	10514	13700	13707	2
13699	13697	13709	13698	2
13701	13699	13707	13700	2
13699	13698	13700	13703	2
13697	13698	13702	13705	2
13701	13702	13700	13704	2
13702	13697	13701	13706	2
3237	8588	3229	3236	2
3240	3227	3239	3238	2
3229	3228	3236	3230	2
3227	3226	3238	3228	2
3228	3227	3229	3232	2
3230	3229	3231	3233	2
3226	3231	3227	3234	2
3231	3230	3226	3235	2
11042	11049	11030	11041	2
11040	1110	11032	11039	2
11031	11029	11041	11030	2
11031	11033	11039	11032	2
11031	11032	11030	11035	2
11029	11030	11034	11037	2
11033	11032	11034	11036	2
11034	11033	11029	11038	2
12618	7229	12606	12617	2
12616	6326	12608	12615	2
12605	12607	12617	12606	2
12607	12609	12615	12608	2
12607	12608	12606	12611	2
12605	12606	12610	12613	2
12609	12608	12610	12612	2
12610	12605	12609	12614	2
12100	5524	12088	12099	2
12098	9915	12090	12097	2
12088	12089	12099	12087	2
12089	12091	12097	12090	2
12089	12088	12090	12093	2
12087	12088	12092	12095	2
12091	12090	12092	12094	2
12092	12087	12091	12096	2
3284	3272	3285	3283	2
3282	8909	3274	3281	2
3272	3271	3283	3273	2
3274	3275	3281	3273	2
3273	3272	3274	3277	2
3271	3272	3276	3279	2
3275	3276	3274	3278	2
3276	3271	3275	3280	2
12884	9390	12872	12883	2
12882	7085	12874	12881	2
12873	12871	12883	12872	2
12874	12875	12881	12873	2
12873	12874	12872	12877	2
12871	12876	12872	12879	2
12875	12874	12876	12878	2
12876	12875	12871	12880	2
8193	8200	8181	8192	2
8191	9559	8183	8190	2
8181	8180	8192	8182	2
8184	8182	8190	8183	2
8182	8183	8181	8186	2
8180	8181	8185	8188	2
8184	8183	8185	8187	2
8185	8184	8180	8189	2
11594	5948	11586	11593	2
11596	4579	11584	11595	2
11587	11585	11593	11586	2
11584	11583	11595	11585	2
11585	11586	11584	11589	2
11587	11586	11588	11590	2
11583	11588	11584	11591	2
11588	11583	11587	11592	2
12296	5787	12284	12295	2
12294	6181	12286	12293	2
12285	12283	12295	12284	2
12286	12287	12293	12285	2
12286	12285	12284	12289	2
12283	12288	12284	12291	2
12287	12286	12288	12290	2
12288	12287	12283	12292	2
13570	9084	13558	13569	2
13568	10660	13560	13567	2
13559	13557	13569	13558	2
13560	13559	13567	13561	2
13559	13558	13560	13563	2
13557	13558	13562	13565	2
13561	13560	13562	13564	2
13562	13561	13557	13566	2
3042	7050	3034	3041	2
3045	3032	3044	3043	2
3034	3035	3041	3033	2
3032	3033	3043	3031	2
3033	3032	3034	3037	2
3035	3034	3036	3038	2
3031	3036	3032	3039	2
3036	3035	3031	3040	2
8706	5757	8694	8705	2
8704	8713	8696	8703	2
8693	8695	8705	8694	2
8696	8697	8703	8695	2
8695	8696	8694	8699	2
8693	8698	8694	8701	2
8697	8698	8696	8700	2
8698	8697	8693	8702	2
5730	5737	5718	5729	2
5728	4724	5720	5727	2
5719	5717	5729	5718	2
5719	5721	5727	5720	2
5719	5718	5720	5723	2
5717	5718	5722	5725	2
5721	5720	5722	5724	2
5722	5717	5721	5726	2
1939	10761	1927	1938	2
1937	1915	1929	1936	2
1927	1926	1938	1928	2
1930	1928	1936	1929	2
1928	1929	1927	1932	2
1926	1927	1931	1934	2
1930	1929	1931	1933	2
1931	1930	1926	1935	2
6052	7239	6040	6051	2
6050	6059	6042	6049	2
6039	6041	6051	6040	2
6042	6041	6049	6043	2
6041	6042	6040	6045	2
6039	6044	6040	6047	2
6043	6042	6044	6046	2
6044	6043	6039	6048	2
13808	645	13796	13807	2
13806	1610	13798	13805	2
13797	13795	13807	13796	2
13797	13799	13805	13798	2
13797	13796	13798	13801	2
13795	13800	13796	13803	2
13799	13800	13798	13802	2
13800	13799	13795	13804	2
2952	6559	2944	2951	2
2954	2942	2955	2953	2
2944	2943	2951	2945	2
2942	2943	2953	2941	2
2943	2944	2942	2947	2
2945	2946	2944	2948	2
2941	2942	2946	2949	2
2946	2945	2941	2950	2
9319	9326	9307	9318	2
9317	4689	9309	9316	2
9306	9308	9318	9307	2
9310	9308	9316	9309	2
9308	9307	9309	9312	2
9306	9311	9307	9314	2
9310	9309	9311	9313	2
9311	9310	9306	9315	2
5509	4971	5501	5508	2
5511	5518	5499	5510	2
5500	5502	5508	5501	2
5500	5498	5510	5499	2
5500	5501	5499	5504	2
5502	5501	5503	5505	2
5498	5499	5503	5506	2
5503	5498	5502	5507	2
13108	7725	13096	13107	2
13106	10820	13098	13105	2
13097	13095	13107	13096	2
13098	13097	13105	13099	2
13097	13098	13096	13101	2
13095	13096	13100	13103	2
13099	13098	13100	13102	2
13100	13099	13095	13104	2
12436	9389	12424	12435	2
12434	5992	12426	12433	2
12425	12423	12435	12424	2
12426	12425	12433	12427	2
12424	12425	12426	12429	2
12423	12424	12428	12431	2
12427	12428	12426	12430	2
12428	12427	12423	12432	2
10837	6991	10825	10836	2
10835	10844	10827	10834	2
10826	10824	10836	10825	2
10826	10828	10834	10827	2
10826	10827	10825	10830	2
10824	10829	10825	10832	2
10828	10827	10829	10831	2
10829	10828	10824	10833	2
2834	2822	2835	2833	2
2832	5421	2824	2831	2
2821	2823	2833	2822	2
2824	2825	2831	2823	2
2823	2824	2822	2827	2
2821	2822	2826	2829	2
2825	2824	2826	2828	2
2826	2825	2821	2830	2
13500	9842	13488	13499	2
13498	8851	13490	13497	2
13488	13489	13499	13487	2
13490	13489	13497	13491	2
13489	13490	13488	13493	2
13487	13492	13488	13495	2
13491	13492	13490	13494	2
13492	13491	13487	13496	2
9755	9814	9747	9754	2
9757	9764	9745	9756	2
9747	9748	9754	9746	2
9744	9746	9756	9745	2
9746	9745	9747	9750	2
9748	9747	9749	9751	2
9744	9749	9745	9752	2
9749	9748	9744	9753	2
11260	3911	11248	11259	2
11258	6604	11250	11257	2
11249	11247	11259	11248	2
11250	11251	11257	11249	2
11249	11250	11248	11253	2
11247	11248	11252	11255	2
11251	11250	11252	11254	2
11252	11247	11251	11256	2
11524	9900	11516	11523	2
11526	4390	11514	11525	2
11515	11517	11523	11516	2
11514	11515	11525	11513	2
11515	11514	11516	11519	2
11517	11518	11516	11520	2
11513	11518	11514	11521	2
11518	11513	11517	11522	2
2685	2672	2684	2683	2
2682	4288	2674	2681	2
2672	2673	2683	2671	2
2674	2675	2681	2673	2
2673	2672	2674	2677	2
2671	2676	2672	2679	2
2675	2676	2674	2678	2
2676	2675	2671	2680	2
3149	3137	3150	3148	2
3147	8103	3139	3146	2
3137	3138	3148	3136	2
3139	3138	3146	3140	2
3138	3137	3139	3142	2
3136	3137	3141	3144	2
3140	3141	3139	3143	2
3141	3136	3140	3145	2
13346	8295	13334	13345	2
13344	9157	13336	13343	2
13333	13335	13345	13334	2
13336	13335	13343	13337	2
13335	13334	13336	13339	2
13333	13334	13338	13341	2
13337	13336	13338	13340	2
13338	13337	13333	13342	2
5803	7273	5791	5802	2
5801	5810	5793	5800	2
5792	5790	5802	5791	2
5793	5794	5800	5792	2
5792	5793	5791	5796	2
5790	5795	5791	5798	2
5794	5793	5795	5797	2
5795	5794	5790	5799	2
9801	9808	9789	9800	2
9799	8470	9791	9798	2
9790	9788	9800	9789	2
9792	9790	9798	9791	2
9790	9791	9789	9794	2
9788	9793	9789	9796	2
9792	9791	9793	9795	2
9793	9788	9792	9797	2
10310	10317	10298	10309	2
10308	8045	10300	10307	2
10299	10297	10309	10298	2
10301	10299	10307	10300	2
10299	10298	10300	10303	2
10298	10302	10297	10305	2
10301	10302	10300	10304	2
10302	10301	10297	10306	2
12968	7405	12956	12967	2
12966	10017	12958	12965	2
12955	12957	12967	12956	2
12958	12959	12965	12957	2
12957	12958	12956	12961	2
12955	12960	12956	12963	2
12959	12958	12960	12962	2
12960	12955	12959	12964	2
3057	7331	3049	3056	2
3059	3047	3060	3058	2
3049	3048	3056	3050	2
3048	3046	3058	3047	2
3048	3049	3047	3052	2
3050	3051	3049	3053	2
3046	3047	3051	3054	2
3051	3050	3046	3055	2
10235	8908	10227	10234	2
10237	10244	10225	10236	2
10226	10228	10234	10227	2
10224	10226	10236	10225	2
10226	10227	10225	10230	2
10228	10227	10229	10231	2
10224	10229	10225	10232	2
10229	10228	10224	10233	2
2895	2882	2894	2893	2
2892	5752	2884	2891	2
2883	2881	2893	2882	2
2883	2885	2891	2884	2
2883	2884	2882	2887	2
2881	2886	2882	2889	2
2885	2886	2884	2888	2
2886	2885	2881	2890	2
4856	4878	4844	4855	2
4854	4863	4846	4853	2
4844	4845	4855	4843	2
4845	4847	4853	4846	2
4845	4844	4846	4849	2
4843	4848	4844	4851	2
4847	4846	4848	4850	2
4848	4843	4847	4852	2
6314	6501	6302	6313	2
6312	6321	6304	6311	2
6302	6303	6313	6301	2
6304	6303	6311	6305	2
6303	6304	6302	6307	2
6301	6302	6306	6309	2
6305	6304	6306	6308	2
6306	6305	6301	6310	2
12632	1822	12620	12631	2
12630	6341	12622	12629	2
12619	12621	12631	12620	2
12621	12623	12629	12622	2
12621	12622	12620	12625	2
12619	12624	12620	12627	2
12623	12624	12622	12626	2
12624	12619	12623	12628	2
5774	9871	5762	5773	2
5772	5781	5764	5771	2
5761	5763	5773	5762	2
5764	5765	5771	5763	2
5763	5764	5762	5767	2
5761	5766	5762	5769	2
5765	5764	5766	5768	2
5766	5765	5761	5770	2
8487	5479	8475	8486	2
8485	8494	8477	8484	2
8475	8474	8486	8476	2
8477	8476	8484	8478	2
8476	8477	8475	8480	2
8474	8479	8475	8482	2
8478	8477	8479	8481	2
8479	8474	8478	8483	2
1970	1958	1971	1969	2
1968	1946	1960	1967	2
1959	1957	1969	1958	2
1961	1959	1967	1960	2
1959	1958	1960	1963	2
1957	1962	1958	1965	2
1961	1962	1960	1964	2
1962	1961	1957	1966	2
7188	6443	7176	7187	2
7186	7200	7178	7185	2
7177	7175	7187	7176	2
7178	7179	7185	7177	2
7177	7178	7176	7181	2
7175	7180	7176	7183	2
7179	7180	7178	7182	2
7180	7175	7179	7184	2
5438	5445	5426	5437	2
5436	10688	5428	5435	2
5425	5427	5437	5426	2
5428	5429	5435	5427	2
5427	5426	5428	5431	2
5425	5426	5430	5433	2
5429	5430	5428	5432	2
5430	5425	5429	5434	2
12702	7171	12690	12701	2
12700	6531	12692	12699	2
12689	12691	12701	12690	2
12691	12693	12699	12692	2
12691	12690	12692	12695	2
12689	12694	12690	12697	2
12693	12692	12694	12696	2
12694	12689	12693	12698	2
7436	9419	7424	7435	2
7434	7443	7426	7433	2
7424	7423	7435	7425	2
7425	7427	7433	7426	2
7425	7426	7424	7429	2
7423	7424	7428	7431	2
7427	7428	7426	7430	2
7428	7427	7423	7432	2
10208	1331	10196	10207	2
10206	10215	10198	10205	2
10197	10195	10207	10196	2
10197	10199	10205	10198	2
10197	10198	10196	10201	2
10195	10196	10200	10203	2
10199	10198	10200	10202	2
10200	10199	10195	10204	2
11988	5233	11976	11987	2
11986	2310	11978	11985	2
11975	11977	11987	11976	2
11977	11979	11985	11978	2
11977	11978	11976	11981	2
11975	11980	11976	11983	2
11979	11980	11978	11982	2
11980	11975	11979	11984	2
8677	8684	8665	8676	2
8675	9361	8667	8674	2
8665	8664	8676	8666	2
8667	8666	8674	8668	2
8666	8667	8665	8670	2
8664	8665	8669	8672	2
8668	8669	8667	8671	2
8669	8668	8664	8673	2
6197	7414	6185	6196	2
6195	6204	6187	6194	2
6186	6184	6196	6185	2
6186	6188	6194	6187	2
6186	6185	6187	6190	2
6184	6189	6185	6192	2
6189	6187	6188	6191	2
6189	6188	6184	6193	2
11916	5117	11908	11915	2
11918	10573	11906	11917	2
11908	11907	11915	11909	2
11906	11907	11917	11905	2
11907	11908	11906	11911	2
11909	11908	11910	11912	2
11905	11906	11910	11913	2
11910	11909	11905	11914	2
7028	7035	7016	7027	2
7026	5072	7018	7025	2
7017	7015	7027	7016	2
7018	7019	7025	7017	2
7017	7016	7018	7021	2
7015	7020	7016	7023	2
7019	7020	7018	7022	2
7020	7019	7015	7024	2
4275	4282	4263	4274	2
4273	7361	4265	4272	2
4263	4262	4274	4264	2
4265	4266	4272	4264	2
4264	4263	4265	4268	2
4262	4263	4267	4270	2
4266	4267	4265	4269	2
4267	4266	4262	4271	2
8896	8903	8884	8895	2
8894	9647	8886	8893	2
8884	8885	8895	8883	2
8886	8885	8893	8887	2
8885	8886	8884	8889	2
8883	8888	8884	8891	2
8887	8886	8888	8890	2
8888	8887	8883	8892	2
6547	6560	6535	6546	2
6545	9769	6537	6544	2
6535	6536	6546	6534	2
6538	6536	6544	6537	2
6536	6535	6537	6540	2
6534	6535	6539	6542	2
6538	6539	6537	6541	2
6539	6538	6534	6543	2
10150	5523	10138	10149	2
10148	10162	10140	10147	2
10138	10139	10149	10137	2
10139	10141	10147	10140	2
10139	10138	10140	10143	2
10137	10142	10138	10145	2
10141	10140	10142	10144	2
10142	10137	10141	10146	2
13008	1424	13000	13007	2
13010	7448	12998	13009	2
13000	12999	13007	13001	2
12997	12999	13009	12998	2
12999	12998	13000	13003	2
13001	13000	13002	13004	2
12997	12998	13002	13005	2
13002	12997	13001	13006	2
8940	10288	8928	8939	2
8938	8947	8930	8937	2
8929	8927	8939	8928	2
8929	8931	8937	8930	2
8929	8928	8930	8933	2
8927	8928	8932	8935	2
8931	8930	8932	8934	2
8932	8927	8931	8936	2
9172	10220	9164	9171	2
9174	9181	9162	9173	2
9164	9165	9171	9163	2
9163	9161	9173	9162	2
9163	9162	9164	9167	2
9165	9166	9164	9168	2
9161	9162	9166	9169	2
9166	9161	9165	9170	2
13472	8822	13460	13471	2
13470	1017	13462	13469	2
13461	13459	13471	13460	2
13462	13463	13469	13461	2
13461	13460	13462	13465	2
13459	13460	13464	13467	2
13463	13464	13462	13466	2
13464	13463	13459	13468	2
3537	9784	3529	3536	2
3540	3527	3539	3538	2
3529	3530	3536	3528	2
3528	3526	3538	3527	2
3528	3527	3529	3532	2
3530	3531	3529	3533	2
3526	3531	3527	3534	2
3531	3526	3530	3535	2
12604	9099	12592	12603	2
12602	6327	12594	12601	2
12592	12591	12603	12593	2
12595	12593	12601	12594	2
12593	12592	12594	12597	2
12591	12592	12596	12599	2
12595	12594	12596	12598	2
12596	12591	12595	12600	2
13332	10322	13320	13331	2
13330	8279	13322	13329	2
13320	13321	13331	13319	2
13322	13323	13329	13321	2
13321	13322	13320	13325	2
13319	13320	13324	13327	2
13323	13324	13322	13326	2
13324	13323	13319	13328	2
7887	7894	7875	7886	2
7885	6385	7877	7884	2
7875	7876	7886	7874	2
7876	7878	7884	7877	2
7876	7877	7875	7880	2
7874	7879	7875	7882	2
7879	7878	7877	7881	2
7879	7878	7874	7883	2
12226	5918	12214	12225	2
12224	5656	12216	12223	2
12215	12213	12225	12214	2
12217	12215	12223	12216	2
12215	12216	12214	12219	2
12213	12214	12218	12221	2
12217	12216	12218	12220	2
12218	12213	12217	12222	2
11484	7012	11472	11483	2
11482	4302	11474	11481	2
11472	11471	11483	11473	2
11475	11473	11481	11474	2
11473	11474	11472	11477	2
11471	11472	11476	11479	2
11475	11474	11476	11478	2
11476	11471	11475	11480	2
13388	8398	13376	13387	2
13386	490	13378	13385	2
13375	13377	13387	13376	2
13378	13379	13385	13377	2
13377	13376	13378	13381	2
13375	13380	13376	13383	2
13379	13380	13378	13382	2
13380	13375	13379	13384	2
4827	2274	4815	4826	2
4825	4834	4817	4824	2
4816	4814	4826	4815	2
4816	4818	4824	4817	2
4816	4815	4817	4820	2
4819	4815	4814	4822	2
4818	4819	4817	4821	2
4819	4814	4818	4823	2
195	173	183	194	2
193	6342	185	192	2
183	184	194	182	2
184	186	192	185	2
184	183	185	188	2
182	183	187	190	2
186	187	185	189	2
187	186	182	191	2
5467	5474	5455	5466	2
5465	9741	5457	5464	2
5455	5456	5466	5454	2
5457	5458	5464	5456	2
5456	5455	5457	5460	2
5454	5455	5459	5462	2
5458	5459	5457	5461	2
5459	5458	5454	5463	2
6226	11025	6214	6225	2
6224	6233	6216	6223	2
6215	6213	6225	6214	2
6217	6215	6223	6216	2
6215	6216	6214	6219	2
6213	6214	6218	6221	2
6217	6218	6216	6220	2
6218	6213	6217	6222	2
2730	2717	2729	2728	2
2727	4550	2719	2726	2
2717	2718	2728	2716	2
2719	2720	2726	2718	2
2718	2717	2719	2722	2
2716	2717	2721	2724	2
2720	2721	2719	2723	2
2721	2720	2716	2725	2
12730	6603	12718	12729	2
12728	8177	12720	12727	2
12718	12717	12729	12719	2
12719	12721	12727	12720	2
12719	12720	12718	12723	2
12717	12718	12722	12725	2
12721	12720	12722	12724	2
12722	12721	12717	12726	2
3794	3782	3795	3793	2
3792	2076	3784	3791	2
3782	3781	3793	3783	2
3784	3783	3791	3785	2
3783	3784	3782	3787	2
3781	3786	3782	3789	2
3784	3786	3785	3788	2
3781	3785	3786	3790	2
13304	8264	13292	13303	2
13302	1889	13294	13301	2
13292	13293	13303	13291	2
13294	13293	13301	13295	2
13293	13292	13294	13297	2
13291	13296	13292	13299	2
13295	13296	13294	13298	2
13296	13291	13295	13300	2
2787	5116	2779	2786	2
2790	2777	2789	2788	2
2779	2780	2786	2778	2
2776	2778	2788	2777	2
2778	2777	2779	2782	2
2780	2779	2781	2783	2
2776	2781	2777	2784	2
2781	2776	2780	2785	2
9728	10249	9716	9727	2
9726	9735	9718	9725	2
9716	9717	9727	9715	2
9718	9717	9725	9719	2
9717	9718	9716	9721	2
9715	9716	9720	9723	2
9719	9718	9720	9722	2
9720	9719	9715	9724	2
12308	5815	12300	12307	2
12310	7274	12298	12309	2
12300	12299	12307	12301	2
12298	12297	12309	12299	2
12299	12298	12300	12303	2
12301	12302	12300	12304	2
12297	12298	12302	12305	2
12302	12297	12301	12306	2
13122	9297	13110	13121	2
13120	7812	13112	13119	2
13110	13109	13121	13111	2
13113	13111	13119	13112	2
13111	13110	13112	13115	2
13109	13110	13114	13117	2
13113	13114	13112	13116	2
13114	13109	13113	13118	2
6489	4492	6477	6488	2
6487	6496	6479	6486	2
6477	6476	6488	6478	2
6480	6478	6486	6479	2
6478	6479	6477	6482	2
6476	6477	6481	6484	2
6480	6481	6479	6483	2
6481	6480	6476	6485	2
6824	10294	6812	6823	2
6822	6831	6814	6821	2
6812	6811	6823	6813	2
6814	6815	6821	6813	2
6813	6812	6814	6817	2
6811	6816	6812	6819	2
6815	6814	6816	6818	2
6816	6815	6811	6820	2
2847	5489	2839	2846	2
2849	2837	2850	2848	2
2839	2838	2846	2840	2
2837	2838	2848	2836	2
2838	2837	2839	2842	2
2840	2839	2841	2843	2
2836	2841	2837	2844	2
2841	2836	2840	2845	2
1660	6414	1648	1659	2
1658	1636	1650	1657	2
1647	1649	1659	1648	2
1650	1649	1657	1651	2
1649	1648	1650	1653	2
1648	1647	1652	1655	2
1651	1652	1650	1654	2
1651	1652	1647	1656	2
7348	7355	7336	7347	2
7346	8747	7338	7345	2
7335	7337	7347	7336	2
7337	7339	7345	7338	2
7337	7336	7338	7341	2
7335	7340	7336	7343	2
7339	7338	7340	7342	2
7340	7335	7339	7344	2
12534	10542	12522	12533	2
12532	6210	12524	12531	2
12522	12521	12533	12523	2
12525	12523	12531	12524	2
12523	12522	12524	12527	2
12521	12526	12522	12529	2
12525	12524	12526	12528	2
12526	12525	12521	12530	2
1158	1136	1150	1157	2
1160	6763	1148	1159	2
1150	1151	1157	1149	2
1148	1147	1159	1149	2
1149	1150	1148	1153	2
1151	1150	1152	1154	2
1147	1148	1152	1155	2
1152	1151	1147	1156	2
11330	4085	11318	11329	2
11328	6836	11320	11327	2
11317	11319	11329	11318	2
11319	11321	11327	11320	2
11319	11318	11320	11323	2
11317	11318	11322	11325	2
11321	11322	11320	11324	2
11317	11322	11321	11326	2
1067	1043	1055	1066	2
1065	1167	1057	1064	2
1054	1056	1066	1055	2
1056	1058	1064	1057	2
1056	1055	1057	1060	2
1054	1055	1059	1062	2
1058	1057	1059	1061	2
1059	1054	1058	1063	2
13220	8573	13208	13219	2
13218	8147	13210	13217	2
13209	13207	13219	13208	2
13210	13209	13217	13211	2
13209	13210	13208	13213	2
13207	13212	13208	13215	2
13211	13212	13210	13214	2
13212	13207	13211	13216	2
8309	8318	8301	8308	2
8311	11094	8299	8310	2
8302	8300	8308	8301	2
8299	8300	8310	8298	2
8300	8299	8301	8304	2
8302	8301	8303	8305	2
8298	8303	8299	8306	2
8303	8302	8298	8307	2
9377	9384	9365	9376	2
9375	9187	9367	9374	2
9366	9364	9376	9365	2
9367	9366	9374	9368	2
9366	9367	9365	9370	2
9364	9365	9369	9372	2
9368	9369	9367	9371	2
9369	9368	9364	9373	2
5905	8280	5893	5904	2
5903	5912	5895	5902	2
5893	5892	5904	5894	2
5896	5894	5902	5895	2
5894	5895	5893	5898	2
5892	5897	5893	5900	2
5896	5895	5897	5899	2
5897	5892	5896	5901	2
2910	2897	2909	2908	2
2907	5786	2899	2906	2
2898	2896	2908	2897	2
2898	2900	2906	2899	2
2898	2897	2899	2902	2
2896	2897	2901	2904	2
2900	2899	2901	2903	2
2901	2900	2896	2905	2
4900	4907	4888	4899	2
4898	10351	4890	4897	2
4889	4887	4899	4888	2
4890	4889	4897	4891	2
4889	4888	4890	4893	2
4887	4892	4888	4895	2
4891	4892	4890	4894	2
4892	4891	4887	4896	2
7070	6473	7062	7069	2
7072	7079	7060	7071	2
7062	7063	7069	7061	2
7059	7061	7071	7060	2
7061	7062	7060	7065	2
7063	7062	7064	7066	2
7059	7064	7060	7067	2
7064	7059	7063	7068	2
12548	6238	12536	12547	2
12546	9813	12538	12545	2
12536	12535	12547	12537	2
12537	12539	12545	12538	2
12537	12538	12536	12541	2
12535	12540	12536	12543	2
12539	12540	12538	12542	2
12540	12535	12539	12544	2
9232	9239	9220	9231	2
9230	10602	9222	9229	2
9219	9221	9231	9220	2
9221	9223	9229	9222	2
9221	9220	9222	9225	2
9219	9224	9220	9227	2
9223	9224	9222	9226	2
9224	9223	9219	9228	2
7713	7720	7701	7712	2
7711	10567	7703	7710	2
7701	7702	7712	7700	2
7703	7704	7710	7702	2
7702	7703	7701	7706	2
7700	7705	7701	7708	2
7704	7705	7703	7707	2
7705	7700	7704	7709	2
3477	9565	3469	3476	2
3480	3467	3479	3478	2
3469	3470	3476	3468	2
3468	3466	3478	3467	2
3468	3469	3467	3472	2
3470	3469	3471	3473	2
3466	3467	3471	3474	2
3471	3470	3466	3475	2
11876	6939	11864	11875	2
11874	5000	11866	11873	2
11864	11865	11875	11863	2
11866	11865	11873	11867	2
11865	11866	11864	11869	2
11868	11864	11863	11871	2
11867	11868	11866	11870	2
11868	11863	11867	11872	2
3777	11187	3769	3776	2
3779	3767	3780	3778	2
3769	3768	3776	3770	2
3767	3766	3778	3768	2
3768	3767	3769	3772	2
3770	3771	3769	3773	2
3766	3767	3771	3774	2
3771	3770	3766	3775	2
3510	3497	3509	3508	2
3507	9609	3499	3506	2
3496	3498	3508	3497	2
3500	3498	3506	3499	2
3498	3499	3497	3502	2
3496	3501	3497	3504	2
3500	3499	3501	3503	2
3501	3496	3500	3505	2
2265	2243	2257	2264	2
2267	9574	2255	2266	2
2257	2258	2264	2256	2
2254	2256	2266	2255	2
2256	2257	2255	2260	2
2258	2257	2259	2261	2
2254	2259	2255	2262	2
2259	2254	2258	2263	2
3898	7516	3886	3897	2
3896	3905	3888	3895	2
3885	3887	3897	3886	2
3888	3889	3895	3887	2
3887	3888	3886	3891	2
3885	3890	3886	3893	2
3889	3890	3888	3892	2
3890	3885	3889	3894	2
12478	6472	12466	12477	2
12476	6035	12468	12475	2
12467	12465	12477	12466	2
12468	12467	12475	12469	2
12467	12468	12466	12471	2
12465	12466	12470	12473	2
12469	12470	12468	12472	2
12470	12465	12469	12474	2
8531	9457	8519	8530	2
8529	8538	8521	8528	2
8519	8518	8530	8520	2
8521	8520	8528	8522	2
8520	8521	8519	8524	2
8518	8523	8519	8526	2
8522	8523	8521	8525	2
8523	8518	8522	8527	2
11778	4839	11766	11777	2
11776	10601	11768	11775	2
11765	11767	11777	11766	2
11769	11767	11775	11768	2
11767	11768	11766	11771	2
11765	11770	11766	11773	2
11769	11770	11768	11772	2
11770	11765	11769	11774	2
13458	8690	13446	13457	2
13456	10493	13448	13455	2
13446	13445	13457	13447	2
13448	13447	13455	13449	2
13447	13448	13446	13451	2
13445	13450	13446	13453	2
13449	13450	13448	13452	2
13450	13445	13449	13454	2
3132	7842	3124	3131	2
3134	3122	3135	3133	2
3123	3125	3131	3124	2
3123	3122	3133	3121	2
3122	3124	3123	3127	2
3125	3124	3126	3128	2
3121	3126	3122	3129	2
3126	3121	3125	3130	2
3645	3632	3644	3643	2
3642	10805	3634	3641	2
3633	3631	3643	3632	2
3633	3635	3641	3634	2
3633	3634	3632	3637	2
3631	3636	3632	3639	2
3635	3636	3634	3638	2
3636	3635	3631	3640	2
12086	7841	12074	12085	2
12084	5495	12076	12083	2
12073	12075	12085	12074	2
12077	12075	12083	12076	2
12075	12076	12074	12079	2
12073	12078	12074	12081	2
12077	12076	12078	12080	2
12078	12073	12077	12082	2
13190	8646	13182	13189	2
13192	8002	13180	13191	2
13183	13181	13189	13182	2
13180	13179	13191	13181	2
13181	13182	13180	13185	2
13183	13182	13184	13186	2
13179	13180	13184	13187	2
13184	13183	13179	13188	2
6081	6088	6069	6080	2
6079	6336	6071	6078	2
6070	6068	6080	6069	2
6071	6072	6078	6070	2
6070	6069	6071	6074	2
6068	6073	6069	6076	2
6072	6073	6071	6075	2
6073	6072	6068	6077	2
3567	9944	3559	3566	2
3570	3557	3569	3568	2
3560	3558	3566	3559	2
3556	3558	3568	3557	2
3558	3559	3557	3562	2
3560	3559	3561	3563	2
3556	3561	3557	3564	2
3561	3556	3560	3565	2
8458	8465	8446	8457	2
8456	5641	8448	8455	2
8446	8445	8457	8447	2
8448	8447	8455	8449	2
8447	8446	8448	8451	2
8445	8450	8446	8453	2
8449	8450	8448	8452	2
8450	8449	8445	8454	2
7492	8333	7484	7491	2
7494	7501	7482	7493	2
7483	7485	7491	7484	2
7482	7483	7493	7481	2
7483	7484	7482	7487	2
7485	7484	7486	7488	2
7481	7482	7486	7489	2
7486	7485	7481	7490	2
13288	10878	13280	13287	2
13290	8220	13278	13289	2
13281	13279	13287	13280	2
13278	13277	13289	13279	2
13279	13280	13278	13283	2
13281	13280	13282	13284	2
13277	13282	13278	13285	2
13282	13277	13281	13286	2
4624	4631	4612	4623	2
4622	6248	4614	4621	2
4613	4611	4623	4612	2
4614	4615	4621	4613	2
4613	4614	4612	4617	2
4611	4616	4612	4619	2
4615	4616	4614	4618	2
4616	4611	4615	4620	2
13764	11100	13756	13763	2
13766	10951	13754	13765	2
13755	13757	13763	13756	2
13753	13754	13765	13755	2
13755	13756	13754	13759	2
13757	13758	13756	13760	2
13753	13754	13758	13761	2
13758	13753	13757	13762	2
13276	10776	13264	13275	2
13274	8221	13266	13273	2
13264	13263	13275	13265	2
13266	13267	13273	13265	2
13265	13264	13266	13269	2
13263	13268	13264	13271	2
13267	13268	13266	13270	2
13268	13263	13267	13272	2
2064	2040	2052	2063	2
2062	10762	2054	2061	2
2052	2051	2063	2053	2
2055	2053	2061	2054	2
2053	2054	2052	2057	2
2051	2052	2056	2059	2
2056	2054	2055	2058	2
2056	2051	2055	2060	2
12070	5480	12062	12069	2
12072	10411	12060	12071	2
12062	12061	12069	12063	2
12061	12059	12071	12060	2
12061	12060	12062	12065	2
12063	12064	12062	12066	2
12059	12060	12064	12067	2
12064	12063	12059	12068	2
4508	8544	4496	4507	2
4506	4515	4498	4505	2
4495	4497	4507	4496	2
4498	4499	4505	4497	2
4497	4498	4496	4501	2
4495	4500	4496	4503	2
4499	4500	4498	4502	2
4500	4499	4495	4504	2
941	8230	933	940	2
943	919	931	942	2
932	934	940	933	2
932	930	942	931	2
932	933	931	936	2
934	935	933	937	2
930	931	935	938	2
935	934	930	939	2
2940	2927	2939	2938	2
2937	6021	2929	2936	2
2928	2926	2938	2927	2
2929	2928	2936	2930	2
2928	2929	2927	2932	2
2926	2931	2927	2934	2
2930	2929	2931	2933	2
2931	2926	2930	2935	2
6008	6015	5996	6007	2
6006	6298	5998	6005	2
5996	5997	6007	5995	2
5999	5997	6005	5998	2
5997	5998	5996	6001	2
5995	6000	5996	6003	2
5999	6000	5998	6002	2
6000	5995	5999	6004	2
12898	7113	12886	12897	2
12896	10380	12888	12895	2
12885	12887	12897	12886	2
12888	12889	12895	12887	2
12887	12888	12886	12891	2
12885	12886	12890	12893	2
12888	12890	12889	12892	2
12885	12889	12890	12894	2
3687	10996	3679	3686	2
3690	3677	3689	3688	2
3678	3680	3686	3679	2
3678	3676	3688	3677	2
3678	3677	3679	3682	2
3680	3679	3681	3683	2
3676	3681	3677	3684	2
3681	3680	3676	3685	2
3732	11020	3724	3731	2
3734	3722	3735	3733	2
3724	3723	3731	3725	2
3722	3723	3733	3721	2
3723	3722	3724	3727	2
3725	3726	3724	3728	2
3721	3722	3726	3729	2
3726	3721	3725	3730	2
4419	4428	4411	4418	2
4421	11011	4409	4420	2
4411	4410	4418	4412	2
4410	4408	4420	4409	2
4410	4409	4411	4414	2
4412	4411	4413	4415	2
4408	4409	4413	4416	2
4413	4408	4412	4417	2
5672	7813	5660	5671	2
5670	5679	5662	5669	2
5659	5661	5671	5660	2
5663	5661	5669	5662	2
5661	5660	5662	5665	2
5659	5660	5664	5667	2
5663	5664	5662	5666	2
5664	5663	5659	5668	2
1536	6792	1524	1535	2
1534	1512	1526	1533	2
1525	1523	1535	1524	2
1525	1527	1533	1526	2
1525	1524	1526	1529	2
1523	1524	1528	1531	2
1527	1528	1526	1530	2
1528	1527	1523	1532	2
1036	1012	1024	1035	2
1034	10425	1026	1033	2
1023	1025	1035	1024	2
1026	1027	1033	1025	2
1025	1026	1024	1029	2
1023	1028	1024	1031	2
1027	1028	1026	1030	2
1028	1027	1023	1032	2
664	640	652	663	2
662	2195	654	661	2
652	651	663	653	2
654	655	661	653	2
653	654	652	657	2
651	652	656	659	2
655	654	656	658	2
656	651	655	660	2
11498	8515	11486	11497	2
11496	4331	11488	11495	2
11486	11485	11497	11487	2
11488	11489	11495	11487	2
11487	11486	11488	11491	2
11485	11490	11486	11493	2
11489	11490	11488	11492	2
11490	11485	11489	11494	2
4566	7389	4554	4565	2
4564	4573	4556	4563	2
4555	4553	4565	4554	2
4556	4557	4563	4555	2
4555	4556	4554	4559	2
4553	4554	4558	4561	2
4557	4558	4556	4560	2
4558	4557	4553	4562	2
10732	10741	10724	10731	2
10734	4840	10722	10733	2
10725	10723	10731	10724	2
10723	10721	10733	10722	2
10723	10724	10722	10727	2
10725	10724	10726	10728	2
10721	10722	10726	10729	2
10726	10725	10721	10730	2
6168	10405	6156	6167	2
6166	6175	6158	6165	2
6156	6157	6167	6155	2
6158	6159	6165	6157	2
6157	6156	6158	6161	2
6155	6156	6160	6163	2
6159	6160	6158	6162	2
6160	6159	6155	6164	2
13680	10104	13672	13679	2
13682	10557	13670	13681	2
13672	13673	13679	13671	2
13669	13671	13681	13670	2
13672	13670	13671	13675	2
13673	13672	13674	13676	2
13669	13670	13674	13677	2
13674	13673	13669	13678	2
6851	6860	6843	6850	2
6853	4549	6841	6852	2
6843	6844	6850	6842	2
6841	6840	6852	6842	2
6842	6843	6841	6846	2
6844	6845	6843	6847	2
6840	6845	6841	6848	2
6845	6840	6844	6849	2
13598	10718	13586	13597	2
13596	9418	13588	13595	2
13586	13587	13597	13585	2
13588	13589	13595	13587	2
13587	13588	13586	13591	2
13585	13586	13590	13593	2
13589	13588	13590	13592	2
13590	13585	13589	13594	2
1782	1760	1774	1781	2
1784	8645	1772	1783	2
1774	1775	1781	1773	2
1772	1771	1783	1773	2
1773	1774	1772	1777	2
1775	1776	1774	1778	2
1771	1776	1772	1779	2
1776	1775	1771	1780	2
6780	10099	6768	6779	2
6778	6787	6770	6777	2
6769	6767	6779	6768	2
6771	6769	6777	6770	2
6769	6770	6768	6773	2
6767	6772	6768	6775	2
6771	6770	6772	6774	2
6772	6771	6767	6776	2
385	8289	373	384	2
383	361	375	382	2
372	374	384	373	2
375	376	382	374	2
374	373	375	378	2
372	377	373	380	2
376	377	375	379	2
377	376	372	381	2
3192	8392	3184	3191	2
3194	3182	3195	3193	2
3185	3183	3191	3184	2
3182	3181	3193	3183	2
3183	3184	3182	3187	2
3185	3184	3186	3188	2
3181	3186	3182	3189	2
3186	3185	3181	3190	2
2188	2164	2176	2187	2
2186	4297	2178	2185	2
2176	2175	2187	2177	2
2179	2177	2185	2178	2
2177	2178	2176	2181	2
2175	2180	2176	2183	2
2179	2178	2180	2182	2
2180	2175	2179	2184	2
11204	4303	11192	11203	2
11202	3866	11194	11201	2
11193	11191	11203	11192	2
11193	11195	11201	11194	2
11193	11192	11194	11197	2
11191	11196	11192	11199	2
11195	11194	11196	11198	2
11196	11191	11195	11200	2
2095	2071	2083	2094	2
2093	6151	2085	2092	2
2083	2082	2094	2084	2
2084	2086	2092	2085	2
2084	2085	2083	2088	2
2082	2087	2083	2090	2
2086	2087	2085	2089	2
2087	2086	2082	2091	2
12644	10747	12636	12643	2
12646	6357	12634	12645	2
12637	12635	12643	12636	2
12634	12635	12645	12633	2
12635	12634	12636	12639	2
12637	12636	12638	12640	2
12633	12634	12638	12641	2
12638	12633	12637	12642	2
6955	6962	6943	6954	2
6953	2014	6945	6952	2
6943	6944	6954	6942	2
6945	6946	6952	6944	2
6944	6945	6943	6948	2
6942	6947	6943	6950	2
6946	6947	6945	6949	2
6947	6942	6946	6951	2
11818	8982	11810	11817	2
11820	4883	11808	11819	2
11811	11809	11817	11810	2
11809	11807	11819	11808	2
11809	11808	11810	11813	2
11811	11812	11810	11814	2
11807	11808	11812	11815	2
11812	11807	11811	11816	2
1906	5358	1898	1905	2
1908	1884	1896	1907	2
1898	1899	1905	1897	2
1895	1897	1907	1896	2
1897	1896	1898	1901	2
1900	1899	1898	1902	2
1895	1900	1896	1903	2
1900	1899	1895	1904	2
12170	5597	12158	12169	2
12168	9447	12160	12167	2
12158	12157	12169	12159	2
12160	12161	12167	12159	2
12159	12158	12160	12163	2
12157	12162	12158	12165	2
12161	12162	12160	12164	2
12162	12161	12157	12166	2
3267	8762	3259	3266	2
3269	3257	3270	3268	2
3260	3258	3266	3259	2
3256	3258	3268	3257	2
3258	3259	3257	3262	2
3260	3261	3259	3263	2
3256	3261	3257	3264	2
3261	3260	3256	3265	2
1691	1667	1679	1690	2
1689	9843	1681	1688	2
1680	1678	1690	1679	2
1680	1682	1688	1681	2
1680	1679	1681	1684	2
1678	1679	1683	1686	2
1682	1681	1683	1685	2
1683	1682	1678	1687	2
9057	9064	9045	9056	2
9055	10923	9047	9054	2
9044	9046	9056	9045	2
9047	9046	9054	9048	2
9046	9047	9045	9050	2
9044	9045	9049	9052	2
9048	9049	9047	9051	2
9049	9044	9048	9053	2
12464	8500	12452	12463	2
12462	6036	12454	12461	2
12451	12453	12463	12452	2
12454	12453	12461	12455	2
12453	12454	12452	12457	2
12451	12452	12456	12459	2
12455	12456	12454	12458	2
12456	12455	12451	12460	2
3357	9085	3349	3356	2
3360	3347	3359	3358	2
3349	3350	3356	3348	2
3347	3348	3358	3346	2
3348	3349	3347	3352	2
3350	3351	3349	3353	2
3346	3351	3347	3354	2
3351	3350	3346	3355	2
2700	2687	2699	2698	2
2697	4404	2689	2696	2
2686	2688	2698	2687	2
2689	2688	2696	2690	2
2688	2689	2687	2692	2
2686	2691	2687	2694	2
2690	2691	2689	2693	2
2691	2686	2690	2695	2
2670	2657	2669	2668	2
2667	4084	2659	2666	2
2657	2658	2668	2656	2
2658	2660	2666	2659	2
2658	2659	2657	2662	2
2656	2657	2661	2664	2
2660	2661	2659	2663	2
2661	2660	2656	2665	2
13612	10133	13600	13611	2
13610	9667	13602	13609	2
13600	13601	13611	13599	2
13602	13603	13609	13601	2
13601	13600	13602	13605	2
13599	13600	13604	13607	2
13603	13604	13602	13606	2
13604	13603	13599	13608	2
7377	7384	7365	7376	2
7375	9069	7367	7374	2
7366	7364	7376	7365	2
7366	7368	7374	7367	2
7366	7367	7365	7370	2
7364	7369	7365	7372	2
7368	7369	7367	7371	2
7369	7368	7364	7373	2
13542	9303	13530	13541	2
13540	9026	13532	13539	2
13531	13529	13541	13530	2
13532	13531	13539	13533	2
13531	13530	13532	13535	2
13529	13530	13534	13537	2
13533	13534	13532	13536	2
13534	13533	13529	13538	2
11862	4941	11850	11861	2
11860	5262	11852	11859	2
11849	11851	11861	11850	2
11853	11851	11859	11852	2
11851	11850	11852	11855	2
11849	11850	11854	11857	2
11853	11852	11854	11856	2
11854	11853	11849	11858	2
12576	7580	12564	12575	2
12574	6253	12566	12573	2
12564	12565	12575	12563	2
12566	12565	12573	12567	2
12565	12566	12564	12569	2
12563	12568	12564	12571	2
12567	12566	12568	12570	2
12568	12567	12563	12572	2
7858	7865	7846	7857	2
7856	7967	7848	7855	2
7845	7847	7857	7846	2
7847	7849	7855	7848	2
7847	7848	7846	7851	2
7845	7846	7850	7853	2
7849	7848	7850	7852	2
7850	7845	7849	7854	2
8809	5685	8797	8808	2
8807	8816	8799	8806	2
8797	8796	8808	8798	2
8800	8798	8806	8799	2
8798	8799	8797	8802	2
8796	8801	8797	8804	2
8800	8799	8801	8803	2
8801	8796	8800	8805	2
11232	8338	11220	11231	2
11230	3882	11222	11229	2
11219	11221	11231	11220	2
11223	11221	11229	11222	2
11221	11220	11222	11225	2
11219	11220	11224	11227	2
11223	11222	11224	11226	2
11224	11223	11219	11228	2
4711	4718	4699	4710	2
4709	7550	4701	4708	2
4698	4700	4710	4699	2
4702	4700	4708	4701	2
4700	4699	4701	4704	2
4698	4699	4703	4706	2
4702	4701	4703	4705	2
4703	4702	4698	4707	2
2820	2807	2819	2818	2
2817	5319	2809	2816	2
2807	2808	2818	2806	2
2808	2810	2816	2809	2
2808	2809	2807	2812	2
2806	2811	2807	2814	2
2810	2809	2811	2813	2
2811	2806	2810	2815	2
1567	1543	1555	1566	2
1565	676	1557	1564	2
1555	1556	1566	1554	2
1557	1556	1564	1558	2
1556	1557	1555	1560	2
1554	1559	1555	1562	2
1558	1559	1557	1561	2
1559	1558	1554	1563	2
11386	9521	11374	11385	2
11384	4171	11376	11383	2
11375	11373	11385	11374	2
11376	11375	11383	11377	2
11375	11376	11374	11379	2
11373	11374	11378	11381	2
11377	11376	11378	11380	2
11378	11377	11373	11382	2
4479	4486	4467	4478	2
4477	6093	4469	4476	2
4467	4466	4478	4468	2
4469	4468	4476	4470	2
4468	4467	4469	4472	2
4466	4467	4471	4474	2
4470	4469	4471	4473	2
4471	4466	4470	4475	2
8164	8171	8152	8163	2
8162	5203	8154	8161	2
8152	8151	8163	8153	2
8154	8155	8161	8153	2
8153	8154	8152	8157	2
8151	8152	8156	8159	2
8155	8154	8156	8158	2
8156	8151	8155	8160	2
2984	2972	2985	2983	2
2982	6575	2974	2981	2
2973	2971	2983	2972	2
2974	2975	2981	2973	2
2973	2972	2974	2977	2
2971	2976	2972	2979	2
2975	2976	2974	2978	2
2976	2971	2975	2980	2
7916	7923	7904	7915	2
7914	4113	7906	7913	2
7904	7905	7915	7903	2
7905	7907	7913	7906	2
7905	7904	7906	7909	2
7903	7904	7908	7911	2
7907	7908	7906	7910	2
7908	7907	7903	7912	2
12044	5392	12032	12043	2
12042	9564	12034	12041	2
12031	12033	12043	12032	2
12034	12035	12041	12033	2
12033	12034	12032	12037	2
12031	12032	12036	12039	2
12035	12036	12034	12038	2
12036	12031	12035	12040	2
6882	6889	6870	6881	2
6880	6574	6872	6879	2
6870	6869	6881	6871	2
6872	6871	6879	6873	2
6871	6872	6870	6875	2
6869	6874	6870	6877	2
6873	6872	6874	6876	2
6874	6869	6873	6878	2
354	6117	342	353	2
352	330	344	351	2
341	343	353	342	2
344	345	351	343	2
343	342	344	347	2
341	346	342	349	2
345	346	344	348	2
346	341	345	350	2
11456	4258	11444	11455	2
11454	1455	11446	11453	2
11444	11445	11455	11443	2
11446	11447	11453	11445	2
11445	11446	11444	11449	2
11443	11444	11448	11451	2
11447	11446	11448	11450	2
11448	11443	11447	11452	2
7771	9989	7759	7770	2
7769	7778	7761	7768	2
7758	7760	7770	7759	2
7761	7762	7768	7760	2
7760	7761	7759	7764	2
7758	7763	7759	7766	2
7762	7761	7763	7765	2
7763	7762	7758	7767	2
4537	4544	4525	4536	2
4535	8953	4527	4534	2
4526	4524	4536	4525	2
4528	4526	4534	4527	2
4526	4525	4527	4530	2
4524	4529	4525	4532	2
4528	4529	4527	4531	2
4529	4524	4528	4533	2
13640	11054	13628	13639	2
13638	9901	13630	13637	2
13629	13627	13639	13628	2
13629	13631	13637	13630	2
13629	13628	13630	13633	2
13627	13628	13632	13635	2
13631	13630	13632	13634	2
13632	13631	13627	13636	2
6518	6525	6506	6517	2
6516	8075	6508	6515	2
6505	6507	6517	6506	2
6508	6507	6515	6509	2
6507	6508	6506	6511	2
6505	6510	6506	6513	2
6509	6508	6510	6512	2
6510	6505	6509	6514	2
6373	6380	6361	6372	2
6371	10250	6363	6370	2
6361	6362	6372	6360	2
6363	6364	6370	6362	2
6362	6361	6363	6366	2
6360	6365	6361	6368	2
6364	6365	6363	6367	2
6365	6360	6364	6369	2
3675	3662	3674	3673	2
3672	10980	3664	3671	2
3663	3661	3673	3662	2
3664	3663	3671	3665	2
3662	3664	3663	3667	2
3661	3666	3662	3669	2
3665	3666	3664	3668	2
3666	3665	3661	3670	2
12492	6094	12480	12491	2
12490	10995	12482	12489	2
12479	12481	12491	12480	2
12483	12481	12489	12482	2
12481	12480	12482	12485	2
12479	12484	12480	12487	2
12483	12484	12482	12486	2
12484	12479	12483	12488	2
2546	7399	2534	2545	2
2544	2522	2536	2543	2
2535	2533	2545	2534	2
2535	2537	2543	2536	2
2535	2536	2534	2539	2
2533	2538	2534	2541	2
2537	2538	2536	2540	2
2538	2533	2537	2542	2
3030	3017	3029	3028	2
3027	6933	3019	3026	2
3017	3018	3028	3016	2
3018	3020	3026	3019	2
3018	3017	3019	3022	2
3016	3017	3021	3024	2
3020	3021	3019	3023	2
3021	3020	3016	3025	2
6591	6598	6579	6590	2
6589	8113	6581	6588	2
6580	6578	6590	6579	2
6580	6582	6588	6581	2
6580	6581	6579	6584	2
6578	6579	6583	6586	2
6582	6581	6583	6585	2
6583	6582	6578	6587	2
1005	9711	993	1004	2
1003	981	995	1002	2
992	994	1004	993	2
996	994	1002	995	2
994	995	993	998	2
992	993	997	1000	2
996	997	995	999	2
997	996	992	1001	2
788	764	776	787	2
786	1314	778	785	2
775	777	787	776	2
777	779	785	778	2
777	776	778	781	2
775	776	780	783	2
779	780	778	782	2
780	779	775	784	2
1348	1326	1340	1347	2
1350	5591	1338	1349	2
1341	1339	1347	1340	2
1338	1339	1349	1337	2
1339	1338	1340	1343	2
1341	1342	1340	1344	2
1337	1338	1342	1345	2
1342	1341	1337	1346	2
3810	3797	3809	3808	2
3807	1486	3799	3806	2
3796	3798	3808	3797	2
3799	3800	3806	3798	2
3798	3799	3797	3802	2
3796	3797	3801	3804	2
3800	3799	3801	3803	2
3801	3796	3800	3805	2
12156	9652	12144	12155	2
12154	5596	12146	12153	2
12143	12145	12155	12144	2
12147	12145	12153	12146	2
12145	12146	12144	12149	2
12143	12148	12144	12151	2
12147	12148	12146	12150	2
12148	12147	12143	12152	2
13372	8617	13364	13371	2
13374	8383	13362	13373	2
13364	13363	13371	13365	2
13361	13363	13373	13362	2
13363	13364	13362	13367	2
13365	13366	13364	13368	2
13361	13366	13362	13369	2
13366	13365	13361	13370	2
12114	5553	12102	12113	2
12112	5742	12104	12111	2
12102	12101	12113	12103	2
12105	12103	12111	12104	2
12103	12104	12102	12107	2
12101	12102	12106	12109	2
12105	12106	12104	12108	2
12106	12101	12105	12110	2
9203	9210	9191	9202	2
9201	4913	9193	9200	2
9191	9190	9202	9192	2
9193	9192	9200	9194	2
9192	9193	9191	9196	2
9190	9191	9195	9198	2
9194	9195	9193	9197	2
9195	9190	9194	9199	2
1208	5825	1196	1207	2
1206	1184	1198	1205	2
1196	1195	1207	1197	2
1197	1199	1205	1198	2
1197	1198	1196	1201	2
1195	1196	1200	1203	2
1199	1198	1200	1202	2
1200	1195	1199	1204	2
12926	7201	12914	12925	2
12924	7419	12916	12923	2
12914	12915	12925	12913	2
12915	12917	12923	12916	2
12915	12914	12916	12919	2
12913	12918	12914	12921	2
12917	12918	12916	12920	2
12918	12917	12913	12922	2
3524	3512	3525	3523	2
3522	9668	3514	3521	2
3512	3511	3523	3513	2
3514	3513	3521	3515	2
3513	3512	3514	3517	2
3511	3512	3516	3519	2
3515	3514	3516	3518	2
3516	3515	3511	3520	2
3102	7589	3094	3101	2
3104	3092	3105	3103	2
3094	3093	3101	3095	2
3093	3091	3103	3092	2
3093	3094	3092	3097	2
3095	3094	3096	3098	2
3091	3092	3096	3099	2
3096	3091	3095	3100	2
12786	6866	12774	12785	2
12784	6735	12776	12783	2
12774	12773	12785	12775	2
12776	12777	12783	12775	2
12775	12776	12774	12779	2
12773	12774	12778	12781	2
12777	12778	12776	12780	2
12778	12773	12777	12782	2
3119	3107	3120	3118	2
3117	7662	3109	3116	2
3106	3108	3118	3107	2
3110	3108	3116	3109	2
3108	3107	3109	3112	2
3106	3111	3107	3114	2
3110	3111	3109	3113	2
3111	3106	3110	3115	2
8135	8142	8123	8134	2
8133	8119	8125	8132	2
8123	8122	8134	8124	2
8124	8126	8132	8125	2
8124	8125	8123	8128	2
8122	8127	8123	8130	2
8126	8127	8125	8129	2
8127	8122	8126	8131	2
12520	6180	12508	12519	2
12518	7084	12510	12517	2
12507	12509	12519	12508	2
12509	12511	12517	12510	2
12509	12508	12510	12513	2
12507	12512	12508	12515	2
12511	12510	12512	12514	2
12512	12511	12507	12516	2
4101	4108	4089	4100	2
4099	9041	4091	4098	2
4089	4090	4100	4088	2
4090	4092	4098	4091	2
4090	4091	4089	4094	2
4088	4093	4089	4096	2
4092	4091	4093	4095	2
4093	4088	4092	4097	2
11764	4810	11752	11763	2
11762	6865	11754	11761	2
11751	11753	11763	11752	2
11754	11755	11761	11753	2
11753	11752	11754	11757	2
11751	11756	11752	11759	2
11755	11754	11756	11758	2
11756	11751	11755	11760	2
9406	9413	9394	9405	2
9404	10221	9396	9403	2
9395	9393	9405	9394	2
9397	9395	9403	9396	2
9395	9394	9396	9399	2
9393	9394	9398	9401	2
9397	9398	9396	9400	2
9398	9397	9393	9402	2
12814	1703	12802	12813	2
12812	6793	12804	12811	2
12801	12803	12813	12802	2
12803	12805	12811	12804	2
12804	12802	12803	12807	2
12801	12802	12806	12809	2
12805	12804	12806	12808	2
12806	12805	12801	12810	2
13822	1983	13810	13821	2
13820	521	13812	13819	2
13809	13811	13821	13810	2
13811	13813	13819	13812	2
13811	13812	13810	13815	2
13809	13814	13810	13817	2
13813	13812	13814	13816	2
13814	13809	13813	13818	2
10530	10537	10518	10529	2
10528	6209	10520	10527	2
10518	10517	10529	10519	2
10520	10521	10527	10519	2
10519	10520	10518	10523	2
10522	10517	10518	10525	2
10521	10522	10520	10524	2
10522	10521	10517	10526	2
9625	9632	9613	9624	2
9623	4172	9615	9622	2
9613	9612	9624	9614	2
9614	9616	9622	9615	2
9614	9615	9613	9618	2
9612	9617	9613	9620	2
9616	9617	9615	9619	2
9617	9612	9616	9621	2
3822	2403	3814	3821	2
3824	3812	3825	3823	2
3814	3813	3821	3815	2
3813	3811	3823	3812	2
3813	3814	3812	3817	2
3815	3814	3816	3818	2
3811	3816	3812	3819	2
3816	3811	3815	3820	2
12506	6123	12494	12505	2
12504	7595	12496	12503	2
12493	12495	12505	12494	2
12496	12497	12503	12495	2
12495	12494	12496	12499	2
12493	12498	12494	12501	2
12497	12496	12498	12500	2
12498	12497	12493	12502	2
13444	8660	13432	13443	2
13442	9682	13434	13441	2
13432	13431	13443	13433	2
13434	13433	13441	13435	2
13433	13434	13432	13437	2
13431	13432	13436	13439	2
13435	13434	13436	13438	2
13436	13435	13431	13440	2
633	609	621	632	2
631	4389	623	630	2
622	620	632	621	2
623	624	630	622	2
622	623	621	626	2
620	625	621	628	2
625	624	623	627	2
625	620	624	629	2
13416	8427	13404	13415	2
13414	8499	13406	13413	2
13404	13403	13415	13405	2
13407	13405	13413	13406	2
13405	13404	13406	13409	2
13403	13408	13404	13411	2
13407	13406	13408	13410	2
13408	13403	13407	13412	2
12952	8031	12944	12951	2
12954	7360	12942	12953	2
12943	12945	12951	12944	2
12943	12941	12953	12942	2
12943	12944	12942	12947	2
12945	12944	12946	12948	2
12941	12942	12946	12949	2
12946	12941	12945	12950	2
2802	5261	2794	2801	2
2804	2792	2805	2803	2
2793	2795	2801	2794	2
2792	2791	2803	2793	2
2793	2792	2794	2797	2
2795	2796	2794	2798	2
2791	2796	2792	2799	2
2796	2795	2791	2800	2
1815	10410	1803	1814	2
1813	1791	1805	1812	2
1803	1802	1814	1804	2
1804	1806	1812	1805	2
1804	1803	1805	1808	2
1802	1807	1803	1810	2
1806	1807	1805	1809	2
1807	1806	1802	1811	2
11116	2575	11104	11115	2
11114	11123	11106	11113	2
11105	11103	11115	11104	2
11106	11105	11113	11107	2
11105	11106	11104	11109	2
11103	11108	11104	11111	2
11107	11106	11108	11110	2
11108	11107	11103	11112	2
912	9216	900	911	2
910	888	902	909	2
901	899	911	900	2
903	901	909	902	2
901	902	900	905	2
899	900	904	907	2
903	902	904	906	2
904	903	899	908	2
3585	3572	3584	3583	2
3582	10046	3574	3581	2
3571	3573	3583	3572	2
3574	3573	3581	3575	2
3573	3574	3572	3577	2
3571	3572	3576	3579	2
3575	3576	3574	3578	2
3576	3575	3571	3580	2
12996	7420	12984	12995	2
12994	8874	12986	12993	2
12985	12983	12995	12984	2
12985	12987	12993	12986	2
12985	12986	12984	12989	2
12983	12984	12988	12991	2
12987	12988	12986	12990	2
12988	12987	12983	12992	2
2484	8471	2472	2483	2
2482	2460	2474	2481	2
2473	2471	2483	2472	2
2474	2473	2481	2475	2
2473	2472	2474	2477	2
2471	2476	2472	2479	2
2475	2476	2474	2478	2
2476	2475	2471	2480	2
9435	9442	9423	9434	2
9433	10849	9425	9432	2
9422	9424	9434	9423	2
9425	9426	9432	9424	2
9424	9425	9423	9428	2
9422	9423	9427	9430	2
9426	9427	9425	9429	2
9427	9422	9426	9431	2
12364	5859	12356	12363	2
12366	8777	12354	12365	2
12356	12355	12363	12357	2
12354	12355	12365	12353	2
12355	12356	12354	12359	2
12358	12357	12356	12360	2
12353	12358	12354	12361	2
12358	12357	12353	12362	2
8252	8259	8240	8251	2
8250	9960	8242	8249	2
8241	8239	8251	8240	2
8241	8243	8249	8242	2
8241	8242	8240	8245	2
8239	8244	8240	8247	2
8243	8244	8242	8246	2
8244	8243	8239	8248	2
13584	9491	13572	13583	2
13582	9158	13574	13581	2
13572	13571	13583	13573	2
13573	13575	13581	13574	2
13573	13572	13574	13577	2
13571	13572	13576	13579	2
13575	13576	13574	13578	2
13576	13571	13575	13580	2
9699	5073	9687	9698	2
9697	9712	9689	9696	2
9687	9688	9698	9686	2
9690	9688	9696	9689	2
9688	9689	9687	9692	2
9686	9691	9687	9694	2
9690	9691	9689	9693	2
9691	9686	9690	9695	2
4072	4079	4060	4071	2
4070	7653	4062	4069	2
4059	4061	4071	4060	2
4063	4061	4069	4062	2
4061	4060	4062	4065	2
4059	4064	4060	4067	2
4063	4064	4062	4066	2
4064	4063	4059	4068	2
8602	2606	8594	8601	2
8604	8611	8592	8603	2
8594	8593	8601	8595	2
8591	8593	8603	8592	2
8593	8592	8594	8597	2
8595	8596	8594	8598	2
8591	8592	8596	8599	2
8596	8591	8595	8600	2
7684	7691	7672	7683	2
7682	7958	7674	7681	2
7672	7673	7683	7671	2
7674	7673	7681	7675	2
7673	7674	7672	7677	2
7671	7676	7672	7679	2
7675	7674	7676	7678	2
7676	7671	7675	7680	2
11806	8981	11794	11805	2
11804	4884	11796	11803	2
11794	11795	11805	11793	2
11795	11797	11803	11796	2
11795	11794	11796	11799	2
11793	11794	11798	11801	2
11797	11798	11796	11800	2
11798	11793	11797	11802	2
11834	9360	11822	11833	2
11832	4912	11824	11831	2
11821	11823	11833	11822	2
11824	11825	11831	11823	2
11823	11824	11822	11827	2
11821	11822	11826	11829	2
11825	11824	11826	11828	2
11826	11825	11821	11830	2
3927	3934	3915	3926	2
3925	9274	3917	3924	2
3916	3914	3926	3915	2
3918	3916	3924	3917	2
3916	3917	3915	3920	2
3914	3919	3915	3922	2
3918	3919	3917	3921	2
3919	3918	3914	3923	2
9508	7972	9496	9507	2
9506	9515	9498	9505	2
9496	9495	9507	9497	2
9498	9497	9505	9499	2
9497	9496	9498	9501	2
9495	9496	9500	9503	2
9499	9500	9498	9502	2
9500	9495	9499	9504	2
4653	4660	4641	4652	2
4651	8235	4643	4650	2
4642	4640	4652	4641	2
4642	4644	4650	4643	2
4642	4641	4643	4646	2
4640	4645	4641	4648	2
4644	4643	4645	4647	2
4645	4640	4644	4649	2
12688	10879	12676	12687	2
12686	6502	12678	12685	2
12676	12677	12687	12675	2
12677	12679	12685	12678	2
12677	12678	12676	12681	2
12675	12680	12676	12683	2
12679	12678	12680	12682	2
12680	12675	12679	12684	2
12940	7302	12928	12939	2
12938	10543	12930	12937	2
12929	12927	12939	12928	2
12930	12931	12937	12929	2
12929	12928	12930	12933	2
12927	12928	12932	12935	2
12932	12930	12931	12934	2
12932	12927	12931	12936	2
726	702	714	725	2
724	6152	716	723	2
714	713	725	715	2
716	715	723	717	2
715	716	714	719	2
713	714	718	721	2
717	716	718	720	2
718	713	717	722	2
12212	2169	12200	12211	2
12210	5640	12202	12209	2
12200	12199	12211	12201	2
12202	12203	12209	12201	2
12201	12200	12202	12205	2
12199	12200	12204	12207	2
12203	12204	12202	12206	2
12204	12203	12199	12208	2
13248	8206	13236	13247	2
13246	2341	13238	13245	2
13236	13235	13247	13237	2
13238	13237	13245	13239	2
13237	13236	13238	13241	2
13235	13240	13236	13243	2
13239	13240	13238	13242	2
13240	13235	13239	13244	2
7319	8509	7307	7318	2
7317	7326	7309	7316	2
7308	7306	7318	7307	2
7308	7310	7316	7309	2
7308	7307	7309	7312	2
7306	7307	7311	7314	2
7310	7311	7309	7313	2
7311	7306	7310	7315	2
13696	10163	13684	13695	2
13694	2434	13686	13693	2
13683	13685	13695	13684	2
13686	13687	13693	13685	2
13685	13684	13686	13689	2
13683	13688	13684	13691	2
13687	13688	13686	13690	2
13688	13687	13683	13692	2
1877	9215	1865	1876	2
1875	1853	1867	1874	2
1865	1864	1876	1866	2
1866	1868	1874	1867	2
1866	1865	1867	1870	2
1864	1865	1869	1872	2
1868	1869	1867	1871	2
1869	1864	1868	1873	2
12352	5830	12340	12351	2
12350	1079	12342	12349	2
12341	12339	12351	12340	2
12342	12343	12349	12341	2
12341	12342	12340	12345	2
12339	12340	12344	12347	2
12343	12342	12344	12346	2
12344	12343	12339	12348	2
1474	1450	1462	1473	2
1472	7006	1464	1471	2
1462	1463	1473	1461	2
1463	1465	1471	1464	2
1463	1464	1462	1467	2
1461	1462	1466	1469	2
1465	1464	1466	1468	2
1466	1461	1465	1470	2
5102	10499	5094	5101	2
5104	5111	5092	5103	2
5094	5095	5101	5093	2
5091	5093	5103	5092	2
5093	5092	5094	5097	2
5095	5094	5096	5098	2
5091	5096	5092	5099	2
5096	5091	5095	5100	2
98	76	86	97	2
96	7040	88	95	2
87	85	97	86	2
88	89	95	87	2
87	86	88	91	2
85	90	86	93	2
89	90	88	92	2
90	85	89	94	2
8838	8845	8826	8837	2
8836	5393	8828	8835	2
8827	8825	8837	8826	2
8829	8827	8835	8828	2
8827	8826	8828	8831	2
8825	8830	8826	8833	2
8829	8830	8828	8832	2
8830	8829	8825	8834	2
1237	1215	1229	1236	2
1239	1227	1240	1238	2
1229	1230	1236	1228	2
1227	1226	1238	1228	2
1228	1229	1227	1232	2
1230	1229	1231	1233	2
1226	1231	1227	1234	2
1231	1230	1226	1235	2
13836	1951	13824	13835	2
13834	738	13826	13833	2
13823	13825	13835	13824	2
13826	13825	13833	13827	2
13825	13824	13826	13829	2
13823	13828	13824	13831	2
13827	13828	13826	13830	2
13828	13823	13827	13832	2
1129	7055	1117	1128	2
1127	1105	1119	1126	2
1117	1118	1128	1116	2
1118	1120	1126	1119	2
1118	1119	1117	1122	2
1116	1121	1117	1124	2
1120	1119	1121	1123	2
1121	1116	1120	1125	2
11722	4753	11710	11721	2
11720	2372	11712	11719	2
11711	11709	11721	11710	2
11712	11711	11719	11713	2
11711	11710	11712	11715	2
11709	11714	11710	11717	2
11713	11712	11714	11716	2
11714	11713	11709	11718	2
9932	9939	9920	9931	2
9930	5962	9922	9929	2
9920	9921	9931	9919	2
9921	9923	9929	9922	2
9921	9920	9922	9925	2
9919	9924	9920	9927	2
9923	9924	9922	9926	2
9924	9923	9919	9928	2
11540	9945	11528	11539	2
11538	4405	11530	11537	2
11527	11529	11539	11528	2
11529	11531	11537	11530	2
11529	11530	11528	11533	2
11527	11528	11532	11535	2
11531	11530	11532	11534	2
11532	11531	11527	11536	2
416	11099	404	415	2
414	392	406	413	2
404	403	415	405	2
406	405	413	407	2
405	404	406	409	2
403	408	404	411	2
407	408	406	410	2
408	403	407	412	2
476	454	468	475	2
478	4434	466	477	2
468	469	475	467	2
466	467	477	465	2
467	466	468	471	2
469	470	468	472	2
465	470	466	473	2
470	465	469	474	2
1505	10420	1493	1504	2
1503	1481	1495	1502	2
1493	1492	1504	1494	2
1495	1496	1502	1494	2
1494	1493	1495	1498	2
1492	1493	1497	1500	2
1496	1497	1495	1499	2
1497	1492	1496	1501	2
850	826	838	849	2
848	583	840	847	2
838	839	849	837	2
840	841	847	839	2
839	838	840	843	2
837	842	838	845	2
841	840	842	844	2
842	841	837	846	2
2759	2747	2760	2758	2
2757	5014	2749	2756	2
2747	2748	2758	2746	2
2749	2748	2756	2750	2
2748	2747	2749	2752	2
2746	2751	2747	2754	2
2750	2751	2749	2753	2
2751	2750	2746	2755	2
130	11182	118	129	2
128	108	120	127	2
119	117	129	118	2
119	121	127	120	2
119	118	120	123	2
117	118	122	125	2
121	120	122	124	2
122	121	117	126	2
3985	8001	3973	3984	2
3983	3992	3975	3982	2
3973	3972	3984	3974	2
3975	3974	3982	3976	2
3974	3973	3975	3978	2
3972	3973	3977	3980	2
3976	3975	3977	3979	2
3977	3972	3976	3981	2
12422	2200	12410	12421	2
12420	5963	12412	12419	2
12410	12411	12421	12409	2
12413	12411	12419	12412	2
12411	12410	12412	12415	2
12409	12414	12410	12417	2
12413	12414	12412	12416	2
12414	12413	12409	12418	2
11946	5146	11934	11945	2
11944	1393	11936	11943	2
11934	11935	11945	11933	2
11937	11935	11943	11936	2
11935	11936	11934	11939	2
11933	11938	11934	11941	2
11937	11936	11938	11940	2
11938	11933	11937	11942	2
10910	10917	10898	10909	2
10908	9070	10900	10907	2
10898	10897	10909	10899	2
10901	10899	10907	10900	2
10899	10900	10898	10903	2
10897	10902	10898	10905	2
10901	10902	10900	10904	2
10902	10897	10901	10906	2
3956	6894	3944	3955	2
3954	3963	3946	3953	2
3944	3943	3955	3945	2
3945	3947	3953	3946	2
3945	3944	3946	3949	2
3943	3944	3948	3951	2
3947	3946	3948	3950	2
3948	3947	3943	3952	2
13150	7899	13138	13149	2
13148	1220	13140	13147	2
13137	13139	13149	13138	2
13139	13141	13147	13140	2
13139	13138	13140	13143	2
13137	13138	13142	13145	2
13141	13142	13140	13144	2
13142	13137	13141	13146	2
13178	7957	13166	13177	2
13176	9244	13168	13175	2
13165	13167	13177	13166	2
13168	13169	13175	13167	2
13166	13168	13167	13171	2
13165	13166	13170	13173	2
13169	13168	13170	13172	2
13170	13165	13169	13174	2
3390	3377	3389	3388	2
3387	9100	3379	3386	2
3376	3378	3388	3377	2
3379	3380	3386	3378	2
3378	3379	3377	3382	2
3376	3377	3381	3384	2
3380	3381	3379	3383	2
3381	3380	3376	3385	2
4798	9580	4786	4797	2
4796	4805	4788	4795	2
4786	4785	4797	4787	2
4789	4787	4795	4788	2
4787	4788	4786	4791	2
4785	4786	4790	4793	2
4789	4790	4788	4792	2
4790	4789	4785	4794	2
11680	4695	11668	11679	2
11678	6297	11670	11677	2
11668	11669	11679	11667	2
11669	11671	11677	11670	2
11669	11668	11670	11673	2
11667	11668	11672	11675	2
11671	11672	11670	11674	2
11672	11667	11671	11676	2
2298	9662	2286	2297	2
2296	2279	2288	2295	2
2286	2285	2297	2287	2
2289	2287	2295	2288	2
2287	2286	2288	2291	2
2285	2290	2286	2293	2
2289	2288	2290	2292	2
2290	2285	2289	2294	2
2002	1978	1990	2001	2
2000	5015	1992	1999	2
1990	1989	2001	1991	2
1992	1991	1999	1993	2
1991	1990	1992	1995	2
1989	1994	1990	1997	2
1993	1992	1994	1996	2
1994	1993	1989	1998	2
11694	8763	11682	11693	2
11692	4723	11684	11691	2
11681	11683	11693	11682	2
11683	11685	11691	11684	2
11683	11682	11684	11687	2
11681	11686	11682	11689	2
11685	11686	11684	11688	2
11686	11681	11685	11690	2
13234	8176	13222	13233	2
13232	9579	13224	13231	2
13222	13221	13233	13223	2
13224	13225	13231	13223	2
13223	13222	13224	13227	2
13221	13222	13226	13229	2
13225	13226	13224	13228	2
13226	13221	13225	13230	2
5249	10134	5237	5248	2
5247	5256	5239	5246	2
5236	5238	5248	5237	2
5240	5238	5246	5239	2
5238	5239	5237	5242	2
5236	5237	5241	5244	2
5240	5241	5239	5243	2
5241	5236	5240	5245	2
12758	8514	12746	12757	2
12756	6662	12748	12755	2
12747	12745	12757	12746	2
12749	12747	12755	12748	2
12747	12748	12746	12751	2
12745	12746	12750	12753	2
12749	12748	12750	12752	2
12750	12749	12745	12754	2
11554	7114	11542	11553	2
11552	4433	11544	11551	2
11542	11543	11553	11541	2
11544	11543	11551	11545	2
11543	11542	11544	11547	2
11541	11546	11542	11549	2
11545	11544	11546	11548	2
11546	11541	11545	11550	2
1598	1574	1586	1597	2
1596	8236	1588	1595	2
1586	1587	1597	1585	2
1589	1587	1595	1588	2
1587	1586	1588	1591	2
1585	1586	1590	1593	2
1589	1590	1588	1592	2
1590	1589	1585	1594	2
6431	6438	6419	6430	2
6429	9637	6421	6428	2
6418	6420	6430	6419	2
6421	6422	6428	6420	2
6420	6421	6419	6424	2
6418	6419	6423	6426	2
6422	6423	6421	6425	2
6423	6418	6422	6427	2
12842	9448	12830	12841	2
12840	6997	12832	12839	2
12830	12829	12841	12831	2
12833	12831	12839	12832	2
12831	12830	12832	12835	2
12829	12830	12834	12837	2
12833	12832	12834	12836	2
12834	12833	12829	12838	2
13206	8323	13194	13205	2
13204	8046	13196	13203	2
13194	13195	13205	13193	2
13197	13195	13203	13196	2
13196	13194	13195	13199	2
13193	13194	13198	13201	2
13197	13198	13196	13200	2
13198	13193	13197	13202	2
13400	8426	13392	13399	2
13402	9025	13390	13401	2
13391	13393	13399	13392	2
13390	13389	13401	13391	2
13391	13392	13390	13395	2
13393	13392	13394	13396	2
13389	13390	13394	13397	2
13394	13393	13389	13398	2
12744	7332	12732	12743	2
12742	6661	12734	12741	2
12732	12731	12743	12733	2
12734	12735	12741	12733	2
12733	12734	12732	12737	2
12731	12736	12732	12739	2
12735	12734	12736	12738	2
12736	12735	12731	12740	2
1269	10470	1261	1268	2
1271	1247	1259	1270	2
1260	1262	1268	1261	2
1258	1260	1270	1259	2
1260	1259	1261	1264	2
1262	1261	1263	1265	2
1258	1259	1263	1266	2
1263	1258	1262	1267	2
7290	7297	7278	7289	2
7288	9677	7280	7287	2
7279	7277	7289	7278	2
7280	7281	7287	7279	2
7279	7280	7278	7283	2
7277	7278	7282	7285	2
7281	7282	7280	7284	2
7282	7277	7281	7286	2
1629	1605	1617	1628	2
1627	1189	1619	1626	2
1618	1616	1628	1617	2
1619	1618	1626	1620	2
1618	1617	1619	1622	2
1616	1621	1617	1624	2
1620	1619	1621	1623	2
1621	1616	1620	1625	2
540	5927	528	539	2
538	516	530	537	2
529	527	539	528	2
529	531	537	530	2
529	530	528	533	2
527	528	532	535	2
531	532	530	534	2
532	531	527	536	2
13080	8923	13068	13079	2
13078	7652	13070	13077	2
13067	13069	13079	13068	2
13070	13069	13077	13071	2
13069	13070	13068	13073	2
13072	13068	13067	13075	2
13071	13070	13072	13074	2
13072	13067	13071	13076	2
8414	8421	8402	8413	2
8412	10192	8404	8411	2
8403	8401	8413	8402	2
8404	8405	8411	8403	2
8403	8404	8402	8407	2
8401	8402	8406	8409	2
8406	8405	8404	8408	2
8406	8401	8405	8410	2
4767	7142	4759	4766	2
4769	4776	4757	4768	2
4760	4758	4766	4759	2
4756	4758	4768	4757	2
4758	4757	4759	4762	2
4760	4759	4761	4763	2
4756	4761	4757	4764	2
4761	4760	4756	4765	2
3747	11172	3739	3746	2
3750	3737	3749	3748	2
3740	3738	3746	3739	2
3737	3736	3748	3738	2
3738	3739	3737	3742	2
3740	3739	3741	3743	2
3736	3741	3737	3744	2
3741	3740	3736	3745	2
12324	10157	12312	12323	2
12322	5816	12314	12321	2
12312	12311	12323	12313	2
12314	12313	12321	12315	2
12313	12314	12312	12317	2
12311	12316	12312	12319	2
12315	12316	12314	12318	2
12316	12315	12311	12320	2
5278	5285	5266	5277	2
5276	8274	5268	5275	2
5267	5265	5277	5266	2
5269	5267	5275	5268	2
5267	5268	5266	5271	2
5265	5270	5266	5273	2
5269	5270	5268	5272	2
5270	5265	5269	5274	2
7742	7749	7730	7741	2
7740	4462	7732	7739	2
7730	7731	7741	7729	2
7731	7733	7739	7732	2
7731	7730	7732	7735	2
7729	7730	7734	7737	2
7733	7732	7734	7736	2
7734	7733	7729	7738	2
9346	459	9338	9345	2
9348	9355	9336	9347	2
9339	9337	9345	9338	2
9336	9337	9347	9335	2
9337	9338	9336	9341	2
9339	9340	9338	9342	2
9335	9340	9336	9343	2
9340	9335	9339	9344	2
2126	2102	2114	2125	2
2124	9079	2116	2123	2
2114	2115	2125	2113	2
2116	2117	2123	2115	2
2115	2116	2114	2119	2
2113	2114	2118	2121	2
2117	2116	2118	2120	2
2118	2117	2113	2122	2
10866	10873	10854	10865	2
10864	7697	10856	10863	2
10853	10855	10865	10854	2
10857	10855	10863	10856	2
10855	10854	10856	10859	2
10853	10858	10854	10861	2
10857	10858	10856	10860	2
10858	10853	10857	10862	2
13164	2496	13152	13163	2
13162	7928	13154	13161	2
13151	13153	13163	13152	2
13155	13153	13161	13154	2
13153	13154	13152	13157	2
13151	13156	13152	13159	2
13155	13156	13154	13158	2
13156	13155	13151	13160	2
13652	9916	13644	13651	2
13654	986	13642	13653	2
13644	13645	13651	13643	2
13643	13641	13653	13642	2
13644	13643	13642	13647	2
13645	13644	13646	13648	2
13641	13646	13642	13649	2
13646	13645	13641	13650	2
11652	4665	11640	11651	2
11650	11026	11642	11649	2
11641	11639	11651	11640	2
11641	11643	11649	11642	2
11641	11642	11640	11645	2
11639	11644	11640	11647	2
11643	11642	11644	11646	2
11644	11643	11639	11648	2
2389	5043	2381	2388	2
2391	2367	2379	2390	2
2382	2380	2388	2381	2
2380	2378	2390	2379	2
2380	2379	2381	2384	2
2382	2381	2383	2385	2
2378	2379	2383	2386	2
2383	2382	2378	2387	2
3854	3861	3842	3853	2
3852	10771	3844	3851	2
3843	3841	3853	3842	2
3843	3845	3851	3844	2
3843	3844	3842	3847	2
3841	3842	3846	3849	2
3845	3846	3844	3848	2
3846	3841	3845	3850	2
13486	8850	13474	13485	2
13484	1283	13476	13483	2
13474	13473	13485	13475	2
13475	13477	13483	13476	2
13475	13474	13476	13479	2
13473	13478	13474	13481	2
13477	13476	13478	13480	2
13478	13477	13473	13482	2
11848	4942	11836	11847	2
11846	11070	11838	11845	2
11836	11835	11847	11837	2
11839	11837	11845	11838	2
11837	11838	11836	11841	2
11835	11836	11840	11843	2
11839	11838	11840	11842	2
11839	11840	11835	11844	2
11792	4869	11780	11791	2
11790	10293	11782	11789	2
11781	11779	11791	11780	2
11782	11781	11789	11783	2
11781	11782	11780	11785	2
11779	11780	11784	11787	2
11783	11782	11784	11786	2
11784	11783	11779	11788	2
974	950	962	973	2
972	5957	964	971	2
961	963	973	962	2
963	965	971	964	2
963	962	964	967	2
961	966	962	969	2
965	964	966	968	2
966	965	961	970	2
6751	6758	6739	6750	2
6749	1141	6741	6748	2
6739	6740	6750	6738	2
6741	6740	6748	6742	2
6740	6741	6739	6744	2
6738	6743	6739	6746	2
6742	6743	6741	6745	2
6743	6742	6738	6747	2
6678	5204	6666	6677	2
6676	6685	6668	6675	2
6666	6667	6677	6665	2
6669	6667	6675	6668	2
6667	6666	6668	6671	2
6665	6670	6666	6673	2
6669	6668	6670	6672	2
6670	6665	6669	6674	2
12450	1517	12438	12449	2
12448	6020	12440	12447	2
12439	12437	12449	12438	2
12440	12441	12447	12439	2
12439	12440	12438	12443	2
12437	12438	12442	12445	2
12441	12440	12442	12444	2
12442	12437	12441	12446	2
3300	3287	3299	3298	2
3297	8918	3289	3296	2
3288	3287	3298	3286	2
3289	3288	3296	3290	2
3288	3289	3287	3292	2
3287	3291	3286	3294	2
3290	3291	3289	3293	2
3291	3290	3286	3295	2
757	733	745	756	2
755	5009	747	754	2
745	746	756	744	2
746	748	754	747	2
746	745	747	750	2
744	749	745	752	2
748	747	749	751	2
749	748	744	753	2
8867	9959	8855	8866	2
8865	8880	8857	8864	2
8856	8854	8866	8855	2
8857	8856	8864	8858	2
8856	8855	8857	8860	2
8859	8855	8854	8862	2
8858	8859	8857	8861	2
8859	8858	8854	8863	2
12590	8104	12578	12589	2
12588	6283	12580	12587	2
12579	12577	12589	12578	2
12579	12581	12587	12580	2
12579	12580	12578	12583	2
12577	12582	12578	12585	2
12581	12580	12582	12584	2
12582	12577	12581	12586	2
7538	9740	7526	7537	2
7536	7545	7528	7535	2
7525	7527	7537	7526	2
7528	7527	7535	7529	2
7527	7528	7526	7531	2
7525	7530	7526	7533	2
7529	7530	7528	7532	2
7530	7529	7525	7534	2
7945	7952	7933	7944	2
7943	7696	7935	7942	2
7932	7934	7944	7933	2
7935	7936	7942	7934	2
7934	7935	7933	7938	2
7932	7937	7933	7940	2
7936	7937	7935	7939	2
7937	7936	7932	7941	2
12800	10395	12788	12799	2
12798	6764	12790	12797	2
12789	12787	12799	12788	2
12791	12789	12797	12790	2
12789	12788	12790	12793	2
12787	12788	12792	12795	2
12791	12792	12790	12794	2
12792	12791	12787	12796	2
163	137	151	162	2
161	6807	153	160	2
150	152	162	151	2
153	154	160	152	2
152	151	153	156	2
150	151	155	158	2
154	153	155	157	2
155	150	154	159	2
11582	4491	11570	11581	2
11580	397	11572	11579	2
11569	11571	11581	11570	2
11572	11573	11579	11571	2
11571	11572	11570	11575	2
11569	11574	11570	11577	2
11573	11572	11574	11576	2
11574	11569	11573	11578	2
1722	7900	1710	1721	2
1720	1698	1712	1719	2
1709	1711	1721	1710	2
1713	1711	1719	1712	2
1712	1710	1711	1715	2
1709	1710	1714	1717	2
1713	1714	1712	1716	2
1714	1709	1713	1718	2
2360	6802	2348	2359	2
2358	2336	2350	2357	2
2348	2347	2359	2349	2
2351	2349	2357	2350	2
2349	2348	2350	2353	2
2347	2348	2352	2355	2
2351	2350	2352	2354	2
2352	2351	2347	2356	2
12870	8792	12858	12869	2
12868	7056	12860	12867	2
12858	12857	12869	12859	2
12859	12861	12867	12860	2
12859	12860	12858	12863	2
12857	12862	12858	12865	2
12862	12860	12861	12864	2
12862	12861	12857	12866	2
3660	3647	3659	3658	2
3657	10821	3649	3656	2
3648	3646	3658	3647	2
3649	3650	3656	3648	2
3648	3649	3647	3652	2
3646	3651	3647	3654	2
3650	3649	3651	3653	2
3651	3646	3650	3655	2
5699	1579	5691	5698	2
5701	5714	5689	5700	2
5690	5692	5698	5691	2
5689	5688	5700	5690	2
5690	5689	5691	5694	2
5692	5691	5693	5695	2
5688	5693	5689	5696	2
5693	5688	5692	5697	2
13052	7618	13040	13051	2
13050	9638	13042	13049	2
13041	13039	13051	13040	2
13041	13043	13049	13042	2
13041	13042	13040	13045	2
13044	13040	13039	13047	2
13043	13044	13042	13046	2
13044	13043	13039	13048	2
5162	5169	5150	5161	2
5160	3939	5152	5159	2
5150	5149	5161	5151	2
5152	5151	5159	5153	2
5151	5152	5150	5155	2
5149	5150	5154	5157	2
5153	5154	5152	5156	2
5154	5149	5153	5158	2
4014	10777	4002	4013	2
4012	4021	4004	4011	2
4001	4003	4013	4002	2
4004	4005	4011	4003	2
4003	4002	4004	4007	2
4001	4006	4002	4009	2
4005	4006	4004	4008	2
4006	4005	4001	4010	2
12240	5713	12228	12239	2
12238	831	12230	12237	2
12227	12229	12239	12228	2
12229	12231	12237	12230	2
12229	12230	12228	12233	2
12227	12228	12232	12235	2
12231	12232	12230	12234	2
12232	12231	12227	12236	2
10121	10128	10109	10120	2
10119	7230	10111	10118	2
10108	10110	10120	10109	2
10111	10112	10118	10110	2
10110	10109	10111	10114	2
10108	10109	10113	10116	2
10112	10113	10111	10115	2
10113	10108	10112	10117	2
12674	6444	12662	12673	2
12672	955	12664	12671	2
12663	12661	12673	12662	2
12663	12665	12671	12664	2
12663	12662	12664	12667	2
12661	12662	12666	12669	2
12665	12666	12664	12668	2
12666	12665	12661	12670	2
9290	10191	9278	9289	2
9288	9302	9280	9287	2
9278	9279	9289	9277	2
9281	9279	9287	9280	2
9279	9278	9280	9283	2
9277	9282	9278	9285	2
9281	9280	9282	9284	2
9282	9281	9277	9286	2
8091	5364	8079	8090	2
8089	8098	8081	8088	2
8078	8080	8090	8079	2
8080	8082	8088	8081	2
8080	8081	8079	8084	2
8078	8083	8079	8086	2
8082	8083	8081	8085	2
8083	8082	8078	8087	2
10179	10186	10167	10178	2
10177	4868	10169	10176	2
10168	10166	10178	10167	2
10169	10170	10176	10168	2
10168	10167	10169	10172	2
10166	10171	10167	10174	2
10170	10169	10171	10173	2
10171	10170	10166	10175	2
9976	1858	9964	9975	2
9974	9983	9966	9973	2
9964	9965	9975	9963	2
9966	9965	9973	9967	2
9965	9964	9966	9969	2
9963	9968	9964	9971	2
9967	9966	9968	9970	2
9968	9967	9963	9972	2
11442	4259	11430	11441	2
11440	7668	11432	11439	2
11429	11431	11441	11430	2
11433	11431	11439	11432	2
11431	11430	11432	11435	2
11429	11434	11430	11437	2
11433	11434	11432	11436	2
11434	11433	11429	11438	2
13780	1765	13768	13779	2
13778	11128	13770	13777	2
13768	13769	13779	13767	2
13769	13771	13777	13770	2
13769	13768	13770	13773	2
13767	13772	13768	13775	2
13771	13770	13772	13774	2
13772	13771	13767	13776	2
2922	5860	2914	2921	2
2924	2912	2925	2923	2
2915	2913	2921	2914	2
2912	2911	2923	2913	2
2913	2914	2912	2917	2
2916	2914	2915	2918	2
2916	2911	2912	2919	2
2916	2915	2911	2920	2
259	237	247	258	2
257	8787	249	256	2
247	246	258	248	2
250	248	256	249	2
248	247	249	252	2
246	247	251	254	2
250	251	249	253	2
251	250	246	255	2
13094	10746	13082	13093	2
13092	7667	13084	13091	2
13081	13082	13093	13083	2
13085	13083	13091	13084	2
13082	13084	13083	13087	2
13082	13086	13081	13089	2
13085	13086	13084	13088	2
13086	13081	13085	13090	2
12912	7195	12900	12911	2
12910	8821	12902	12909	2
12899	12901	12911	12900	2
12903	12901	12909	12902	2
12901	12902	12900	12905	2
12899	12904	12900	12907	2
12903	12904	12902	12906	2
12904	12899	12903	12908	2
13360	707	13348	13359	2
13358	8324	13350	13357	2
13348	13347	13359	13349	2
13350	13349	13357	13351	2
13349	13350	13348	13353	2
13347	13352	13348	13355	2
13351	13352	13350	13354	2
13352	13351	13347	13356	2
2453	2429	2441	2452	2
2451	8215	2443	2450	2
2442	2440	2452	2441	2
2443	2442	2450	2444	2
2442	2443	2441	2446	2
2440	2441	2445	2448	2
2444	2445	2443	2447	2
2445	2440	2444	2449	2
11890	1252	11878	11889	2
11888	5044	11880	11887	2
11878	11879	11889	11877	2
11880	11881	11887	11879	2
11879	11878	11880	11883	2
11877	11878	11882	11885	2
11881	11880	11882	11884	2
11882	11881	11877	11886	2
2969	2957	2970	2968	2
2967	6569	2959	2966	2
2957	2956	2968	2958	2
2959	2960	2966	2958	2
2958	2959	2957	2962	2
2956	2961	2957	2964	2
2960	2959	2961	2963	2
2961	2956	2960	2965	2
13850	2217	13838	13849	2
13848	1920	13840	13847	2
13838	13837	13849	13839	2
13839	13841	13847	13840	2
13839	13838	13840	13843	2
13837	13842	13838	13845	2
13841	13840	13842	13844	2
13842	13837	13841	13846	2
8353	8362	8345	8352	2
8355	9706	8343	8354	2
8345	8344	8352	8346	2
8343	8342	8354	8344	2
8344	8343	8345	8348	2
8346	8345	8347	8349	2
8342	8343	8347	8350	2
8347	8346	8342	8351	2
1412	614	1400	1411	2
1410	1388	1402	1409	2
1400	1399	1411	1401	2
1403	1401	1409	1402	2
1401	1400	1402	1405	2
1399	1400	1404	1407	2
1403	1404	1402	1406	2
1404	1403	1399	1408	2
7465	7472	7453	7464	2
7463	6254	7455	7462	2
7454	7452	7464	7453	2
7455	7456	7462	7454	2
7454	7455	7453	7458	2
7452	7457	7453	7460	2
7456	7455	7457	7459	2
7457	7456	7452	7461	2
11636	7579	11628	11635	2
11638	4636	11626	11637	2
11629	11627	11635	11628	2
11626	11625	11637	11627	2
11627	11626	11628	11631	2
11629	11628	11630	11632	2
11625	11626	11630	11633	2
11630	11625	11629	11634	2
12266	6632	12258	12265	2
12268	5743	12256	12267	2
12258	12259	12265	12257	2
12256	12255	12267	12257	2
12257	12256	12258	12261	2
12259	12258	12260	12262	2
12255	12256	12260	12263	2
12260	12259	12255	12264	2
6270	6277	6258	6269	2
6268	4200	6260	6267	2
6258	6257	6269	6259	2
6260	6261	6267	6259	2
6259	6258	6260	6263	2
6257	6258	6262	6265	2
6262	6261	6260	6264	2
6262	6257	6261	6266	2
4159	4166	4147	4158	2
4157	7783	4149	4156	2
4147	4148	4158	4146	2
4148	4150	4156	4149	2
4148	4149	4147	4152	2
4146	4147	4151	4154	2
4150	4151	4149	4153	2
4151	4150	4146	4155	2
11736	8368	11724	11735	2
11734	4782	11726	11733	2
11725	11723	11735	11724	2
11726	11727	11733	11725	2
11725	11726	11724	11729	2
11723	11728	11724	11731	2
11727	11726	11728	11730	2
11728	11723	11727	11732	2
8018	8025	8006	8017	2
8016	3910	8008	8015	2
8006	8007	8017	8005	2
8008	8009	8015	8007	2
8007	8008	8006	8011	2
8005	8006	8010	8013	2
8009	8010	8008	8012	2
8010	8005	8009	8014	2
4740	6356	4728	4739	2
4738	4747	4730	4737	2
4727	4729	4739	4728	2
4731	4729	4737	4730	2
4729	4730	4728	4733	2
4727	4728	4732	4735	2
4731	4732	4730	4734	2
4732	4727	4731	4736	2
4682	862	4670	4681	2
4680	4694	4672	4679	2
4670	4671	4681	4669	2
4672	4671	4679	4673	2
4671	4670	4672	4675	2
4669	4674	4670	4677	2
4673	4672	4674	4676	2
4674	4673	4669	4678	2
10092	10105	10080	10091	2
10090	8793	10082	10089	2
10080	10081	10091	10079	2
10082	10081	10089	10083	2
10081	10080	10082	10085	2
10079	10084	10080	10087	2
10083	10082	10084	10086	2
10084	10079	10083	10088	2
5847	5854	5835	5846	2
5845	8772	5837	5844	2
5834	5836	5846	5835	2
5837	5836	5844	5838	2
5836	5837	5835	5840	2
5834	5839	5835	5842	2
5838	5839	5837	5841	2
5839	5838	5834	5843	2
3015	3002	3014	3013	2
3012	6729	3004	3011	2
3002	3001	3013	3003	2
3004	3003	3011	3005	2
3003	3004	3002	3007	2
3001	3002	3006	3009	2
3005	3004	3006	3008	2
3006	3001	3005	3010	2
6984	11167	6972	6983	2
6982	6996	6974	6981	2
6971	6973	6983	6972	2
6975	6973	6981	6974	2
6973	6972	6974	6977	2
6971	6972	6976	6979	2
6975	6974	6976	6978	2
6976	6971	6975	6980	2
1302	7506	1290	1301	2
1300	1278	1292	1299	2
1291	1289	1301	1290	2
1292	1293	1299	1291	2
1291	1290	1292	1295	2
1289	1290	1294	1297	2
1293	1294	1292	1296	2
1294	1293	1289	1298	2
2594	800	2582	2593	2
2592	2570	2584	2591	2
2582	2581	2593	2583	2
2584	2585	2591	2583	2
2583	2582	2584	2587	2
2581	2582	2586	2589	2
2585	2586	2584	2588	2
2586	2581	2585	2590	2
6400	7754	6392	6399	2
6402	6409	6390	6401	2
6392	6391	6399	6393	2
6390	6389	6401	6391	2
6391	6392	6390	6395	2
6393	6394	6392	6396	2
6389	6390	6394	6397	2
6394	6393	6389	6398	2
11246	7477	11234	11245	2
11244	3881	11236	11243	2
11234	11233	11245	11235	2
11236	11237	11243	11235	2
11235	11236	11234	11239	2
11233	11234	11238	11241	2
11237	11238	11236	11240	2
11238	11237	11233	11242	2
10368	4332	10356	10367	2
10366	10375	10358	10365	2
10356	10357	10367	10355	2
10358	10357	10365	10359	2
10357	10358	10356	10361	2
10355	10360	10356	10363	2
10359	10358	10360	10362	2
10360	10359	10355	10364	2
3837	769	3829	3836	2
3840	3827	3839	3838	2
3830	3828	3836	3829	2
3827	3828	3838	3826	2
3828	3827	3829	3832	2
3830	3829	3831	3833	2
3826	3831	3827	3834	2
3831	3830	3826	3835	2
11288	6808	11276	11287	2
11286	4027	11278	11285	2
11275	11277	11287	11276	2
11278	11279	11285	11277	2
11277	11276	11278	11281	2
11275	11280	11276	11283	2
11279	11278	11280	11282	2
11280	11279	11275	11284	2
10589	11064	10577	10588	2
10587	10596	10579	10586	2
10578	10576	10588	10577	2
10580	10578	10586	10579	2
10578	10579	10577	10582	2
10576	10581	10577	10584	2
10580	10581	10579	10583	2
10581	10576	10580	10585	2
7130	7137	7118	7129	2
7128	5932	7120	7127	2
7119	7117	7129	7118	2
7119	7121	7127	7120	2
7119	7118	7120	7123	2
7117	7122	7118	7125	2
7121	7122	7120	7124	2
7122	7121	7117	7126	2
1846	1827	1834	1845	2
1844	304	1836	1843	2
1834	1833	1845	1835	2
1835	1837	1843	1836	2
1835	1836	1834	1839	2
1833	1838	1834	1841	2
1837	1836	1838	1840	2
1838	1837	1833	1842	2
12856	7011	12844	12855	2
12854	10717	12846	12853	2
12843	12845	12855	12844	2
12846	12847	12853	12845	2
12845	12846	12844	12849	2
12843	12848	12844	12851	2
12847	12846	12848	12850	2
12848	12843	12847	12852	2
3404	3392	3405	3403	2
3402	9128	3394	3401	2
3392	3391	3403	3393	2
3394	3393	3401	3395	2
3393	3392	3394	3397	2
3391	3396	3392	3399	2
3395	3394	3396	3398	2
3396	3391	3395	3400	2
13556	9040	13544	13555	2
13554	10850	13546	13553	2
13543	13545	13555	13544	2
13546	13545	13553	13547	2
13545	13546	13544	13549	2
13543	13548	13544	13551	2
13547	13548	13546	13550	2
13548	13547	13543	13552	2
11960	2045	11948	11959	2
11958	5175	11950	11957	2
11947	11949	11959	11948	2
11950	11951	11957	11949	2
11949	11948	11950	11953	2
11947	11952	11948	11955	2
11951	11952	11950	11954	2
11952	11951	11947	11956	2
11274	3940	11262	11273	2
11272	2107	11264	11271	2
11261	11263	11273	11262	2
11264	11263	11271	11265	2
11263	11262	11264	11267	2
11261	11266	11262	11269	2
11265	11266	11264	11268	2
11266	11265	11261	11270	2
3630	3617	3629	3628	2
3627	10756	3619	3626	2
3616	3618	3628	3617	2
3618	3620	3626	3619	2
3618	3619	3617	3622	2
3616	3621	3617	3624	2
3620	3621	3619	3623	2
3620	3621	3616	3625	2
321	7726	313	320	2
323	299	311	322	2
312	314	320	313	2
310	312	322	311	2
312	311	313	316	2
314	315	313	317	2
310	315	311	318	2
315	314	310	319	2
2625	2601	2613	2624	2
2623	428	2615	2622	2
2612	2614	2624	2613	2
2614	2616	2622	2615	2
2614	2613	2615	2618	2
2612	2613	2617	2620	2
2616	2615	2617	2619	2
2617	2612	2616	2621	2
5569	5576	5557	5568	2
5567	10888	5559	5566	2
5557	5556	5568	5558	2
5560	5558	5566	5559	2
5558	5559	5557	5562	2
5556	5561	5557	5564	2
5560	5559	5561	5563	2
5561	5556	5560	5565	2
4348	4355	4336	4347	2
4346	8655	4338	4345	2
4336	4337	4347	4335	2
4337	4339	4345	4338	2
4337	4338	4336	4341	2
4335	4340	4336	4343	2
4339	4338	4340	4342	2
4340	4339	4335	4344	2
13864	1309	13852	13863	2
13862	1672	13854	13861	2
13852	13851	13863	13853	2
13855	13853	13861	13854	2
13853	13854	13852	13857	2
13851	13852	13856	13859	2
13855	13854	13856	13858	2
13856	13851	13855	13860	2
3315	3302	3314	3313	2
3312	8924	3304	3311	2
3303	3301	3313	3302	2
3303	3305	3311	3304	2
3303	3302	3304	3307	2
3301	3306	3302	3309	2
3305	3306	3304	3308	2
3306	3305	3301	3310	2
12562	6239	12550	12561	2
12560	6633	12552	12559	2
12551	12549	12561	12550	2
12553	12551	12559	12552	2
12551	12552	12550	12555	2
12549	12554	12550	12557	2
12553	12554	12552	12556	2
12554	12553	12549	12558	2
12338	7041	12326	12337	2
12336	5831	12328	12335	2
12325	12327	12337	12326	2
12327	12329	12335	12328	2
12327	12328	12326	12331	2
12325	12326	12330	12333	2
12329	12328	12330	12332	2
12330	12325	12329	12334	2
11414	4229	11402	11413	2
11412	10426	11404	11411	2
11403	11401	11413	11402	2
11405	11403	11411	11404	2
11403	11404	11402	11407	2
11401	11402	11406	11409	2
11405	11406	11404	11408	2
11406	11405	11401	11410	2
5307	5314	5295	5306	2
5305	7143	5297	5304	2
5295	5296	5306	5294	2
5297	5296	5304	5298	2
5296	5297	5295	5300	2
5294	5295	5299	5302	2
5298	5299	5297	5301	2
5299	5298	5294	5303	2
1443	1419	1431	1442	2
1441	8757	1433	1440	2
1430	1432	1442	1431	2
1434	1432	1440	1433	2
1432	1431	1433	1436	2
1430	1431	1435	1438	2
1434	1433	1435	1437	2
1435	1430	1434	1439	2
12660	6837	12648	12659	2
12658	6415	12650	12657	2
12649	12647	12659	12648	2
12649	12651	12657	12650	2
12649	12650	12648	12653	2
12647	12648	12652	12655	2
12651	12650	12652	12654	2
12652	12647	12651	12656	2
11904	8719	11892	11903	2
11902	5088	11894	11901	2
11892	11893	11903	11891	2
11895	11893	11901	11894	2
11893	11894	11892	11897	2
11891	11896	11892	11899	2
11895	11896	11894	11898	2
11896	11895	11891	11900	2
4929	366	4917	4928	2
4927	4936	4919	4926	2
4918	4916	4928	4917	2
4919	4920	4926	4918	2
4918	4917	4919	4922	2
4916	4921	4917	4924	2
4920	4921	4919	4923	2
4921	4920	4916	4925	2
5977	8030	5969	5976	2
5979	5986	5967	5978	2
5970	5968	5976	5969	2
5968	5966	5978	5967	2
5968	5967	5969	5972	2
5970	5969	5971	5973	2
5966	5971	5967	5974	2
5971	5970	5966	5975	2
11400	4970	11388	11399	2
11398	4201	11390	11397	2
11387	11389	11399	11388	2
11391	11389	11397	11390	2
11389	11388	11390	11393	2
11387	11392	11388	11395	2
11391	11392	11390	11394	2
11392	11387	11391	11396	2
12254	1734	12242	12253	2
12252	5708	12244	12251	2
12242	12241	12253	12243	2
12243	12245	12251	12244	2
12243	12242	12244	12247	2
12241	12246	12242	12249	2
12245	12244	12246	12248	2
12246	12245	12241	12250	2
10676	10683	10664	10675	2
10674	10894	10666	10673	2
10664	10663	10675	10665	2
10666	10665	10673	10667	2
10665	10664	10666	10669	2
10663	10664	10668	10671	2
10667	10668	10666	10670	2
10668	10663	10667	10672	2
3599	3587	3600	3598	2
3597	10513	3589	3596	2
3586	3588	3598	3587	2
3588	3590	3596	3589	2
3588	3587	3589	3592	2
3586	3591	3587	3594	2
3590	3591	3589	3593	2
3591	3590	3586	3595	2
509	9954	497	508	2
507	485	499	506	2
497	496	508	498	2
499	500	506	498	2
498	497	499	502	2
496	497	501	504	2
500	501	499	503	2
501	496	500	505	2
7800	5087	7788	7799	2
7798	7807	7790	7797	2
7789	7787	7799	7788	2
7791	7789	7797	7790	2
7789	7788	7790	7793	2
7787	7792	7788	7795	2
7791	7792	7790	7794	2
7792	7791	7787	7796	2
11932	5145	11920	11931	2
11930	10047	11922	11929	2
11921	11919	11931	11920	2
11921	11923	11929	11922	2
11921	11922	11920	11925	2
11919	11924	11920	11927	2
11923	11922	11924	11926	2
11924	11919	11923	11928	2
227	205	215	226	2
225	8377	217	224	2
216	214	226	215	2
217	216	224	218	2
216	215	217	220	2
214	219	215	222	2
218	217	219	221	2
219	218	214	223	2
10618	10625	10606	10617	2
10616	7929	10608	10615	2
10605	10607	10617	10606	2
10608	10609	10615	10607	2
10607	10608	10606	10611	2
10605	10606	10610	10613	2
10609	10610	10608	10612	2
10610	10609	10605	10614	2
33	4026	21	32	2
31	7	23	30	2
21	22	32	20	2
23	24	30	22	2
22	21	23	26	2
20	21	25	28	2
24	23	25	27	2
25	24	20	29	2
2772	5082	2764	2771	2
2774	2762	2775	2773	2
2764	2763	2771	2765	2
2762	2763	2773	2761	2
2763	2764	2762	2767	2
2765	2766	2764	2768	2
2761	2766	2762	2769	2
2766	2761	2765	2770	2
2234	2212	2226	2233	2
2236	8436	2224	2235	2
2226	2227	2233	2225	2
2225	2223	2235	2224	2
2225	2224	2226	2229	2
2227	2228	2226	2230	2
2223	2228	2224	2231	2
2228	2227	2223	2232	2
13752	10893	13740	13751	2
13750	10689	13742	13749	2
13739	13741	13751	13740	2
13741	13743	13749	13742	2
13741	13742	13740	13745	2
13739	13744	13740	13747	2
13743	13744	13742	13746	2
13744	13743	13739	13748	2
7261	6895	7249	7260	2
7259	7268	7251	7258	2
7248	7250	7260	7249	2
7251	7252	7258	7250	2
7250	7251	7249	7254	2
7248	7253	7249	7256	2
7252	7253	7251	7255	2
7253	7252	7248	7257	2
4130	4137	4118	4129	2
4128	5606	4120	4127	2
4118	4117	4129	4119	2
4120	4119	4127	4121	2
4119	4118	4120	4123	2
4117	4118	4122	4125	2
4121	4122	4120	4124	2
4122	4121	4117	4126	2
6139	6146	6127	6138	2
6137	6924	6129	6136	2
6127	6128	6138	6126	2
6129	6130	6136	6128	2
6128	6129	6127	6132	2
6126	6131	6127	6134	2
6130	6131	6129	6133	2
6131	6130	6126	6135	2
4317	1048	4309	4316	2
4319	4326	4307	4318	2
4309	4308	4316	4310	2
4307	4308	4318	4306	2
4308	4309	4307	4312	2
4310	4309	4311	4313	2
4306	4311	4307	4314	2
4311	4310	4306	4315	2
13316	9245	13308	13315	2
13318	8265	13306	13317	2
13308	13309	13315	13307	2
13306	13305	13317	13307	2
13307	13306	13308	13311	2
13309	13308	13310	13312	2
13305	13306	13310	13313	2
13310	13309	13305	13314	2
7101	11188	7089	7100	2
7099	7108	7091	7098	2
7089	7090	7100	7088	2
7090	7092	7098	7091	2
7090	7089	7091	7094	2
7088	7089	7093	7096	2
7092	7093	7091	7095	2
7093	7092	7088	7097	2
4188	5450	4176	4187	2
4186	4195	4178	4185	2
4175	4177	4187	4176	2
4178	4179	4185	4177	2
4177	4178	4176	4181	2
4175	4180	4176	4183	2
4179	4178	4180	4182	2
4180	4175	4179	4184	2
3612	10659	3604	3611	2
3614	3602	3615	3613	2
3603	3605	3611	3604	2
3602	3603	3613	3601	2
3603	3602	3604	3607	2
3605	3604	3606	3608	2
3601	3606	3602	3609	2
3606	3605	3601	3610	2
3372	9094	3364	3371	2
3374	3362	3375	3373	2
3365	3363	3371	3364	2
3361	3363	3373	3362	2
3363	3364	3362	3367	2
3365	3366	3364	3368	2
3361	3366	3362	3369	2
3366	3365	3361	3370	2
7609	7623	7601	7608	2
7611	5684	7599	7610	2
7602	7600	7608	7601	2
7598	7600	7610	7599	2
7600	7599	7601	7604	2
7602	7601	7603	7605	2
7598	7599	7603	7606	2
7603	7598	7602	7607	2
10486	10498	10474	10485	2
10484	6690	10476	10483	2
10474	10475	10485	10473	2
10476	10475	10483	10477	2
10475	10476	10474	10479	2
10473	10474	10478	10481	2
10477	10478	10476	10480	2
10477	10478	10473	10482	2
5409	5416	5397	5408	2
5407	10508	5399	5406	2
5397	5396	5408	5398	2
5398	5400	5406	5399	2
5398	5397	5399	5402	2
5396	5397	5401	5404	2
5400	5401	5399	5403	2
5401	5400	5396	5405	2
12184	9653	12172	12183	2
12182	5612	12174	12181	2
12171	12173	12183	12172	2
12174	12173	12181	12175	2
12173	12172	12174	12177	2
12171	12176	12172	12179	2
12175	12174	12176	12178	2
12176	12175	12171	12180	2
3858	3861	3856	3855	2
3856	3857	3855	3863	2
3860	3867	3856	3857	2
3860	3857	3859	3865	2
3859	3866	3858	3860	2
3858	3859	3855	3864	2
3866	11201	3859	3868	2
3861	3853	3855	3862	2
3867	11215	3857	3869	2
295	305	298	294	2
298	297	295	303	2
296	304	298	297	2
296	293	297	302	2
293	299	294	296	2
294	293	295	301	2
299	322	293	300	2
305	308	295	307	2
304	1843	297	306	2
324	330	325	327	2
325	324	326	332	2
326	336	329	325	2
329	328	326	334	2
328	335	329	327	2
327	328	324	333	2
335	11663	328	337	2
330	351	324	331	2
336	339	326	338	2
3873	3876	3871	3870	2
3873	3870	3874	3879	2
3875	3881	3873	3874	2
3875	3872	3874	3880	2
3872	3882	3871	3875	2
3871	3870	3872	3878	2
3882	11229	3872	3884	2
3876	2636	3870	3877	2
3881	11243	3874	3883	2
356	361	358	355	2
358	355	359	364	2
360	366	358	359	2
360	359	357	365	2
357	367	356	360	2
356	357	355	363	2
367	370	357	369	2
361	382	355	362	2
366	4928	359	368	2
386	392	389	387	2
389	390	386	395	2
390	397	389	391	2
391	388	390	396	2
387	398	391	388	2
387	388	386	394	2
398	401	388	400	2
392	413	386	393	2
397	11579	390	399	2
3899	3905	3900	3902	2
3902	3903	3899	3908	2
3903	3910	3904	3902	2
3904	3903	3901	3909	2
3901	3911	3904	3900	2
3900	3899	3901	3907	2
3911	11259	3901	3913	2
3905	3895	3899	3906	2
3910	8015	3903	3912	2
3928	3934	3929	3931	2
3931	3932	3928	3937	2
3932	3939	3933	3931	2
3933	3930	3932	3938	2
3930	3940	3933	3929	2
3929	3930	3928	3936	2
3940	11273	3930	3942	2
3934	3926	3928	3935	2
3939	5159	3932	3941	2
419	429	422	418	2
418	419	417	425	2
418	423	420	417	2
420	417	421	426	2
421	428	420	422	2
422	421	419	427	2
428	2622	421	430	2
429	432	419	431	2
423	444	417	424	2
3960	3963	3958	3957	2
3960	3957	3961	3966	2
3961	3968	3960	3962	2
3962	3961	3959	3967	2
3959	3969	3962	3958	2
3958	3959	3957	3965	2
3969	2651	3959	3971	2
3963	3953	3957	3964	2
3968	10704	3961	3970	2
3987	3992	3989	3986	2
3987	3986	3988	3994	2
3988	3998	3987	3991	2
3991	3988	3990	3996	2
3990	3997	3989	3991	2
3989	3986	3990	3995	2
3997	8734	3990	3999	2
3992	3982	3986	3993	2
3998	10031	3988	4000	2
4018	4021	4016	4015	2
4018	4015	4019	4024	2
4019	4026	4020	4018	2
4020	4019	4017	4025	2
4017	4027	4020	4016	2
4016	4015	4017	4023	2
4027	11285	4017	4029	2
4021	4011	4015	4022	2
4026	32	4019	4028	2
449	460	453	450	2
449	450	448	456	2
448	454	451	449	2
451	452	448	457	2
453	459	451	452	2
453	452	450	458	2
459	9345	452	461	2
460	463	450	462	2
454	475	448	455	2
4045	4050	4047	4044	2
4047	4044	4048	4053	2
4048	4055	4047	4049	2
4049	4048	4046	4054	2
4046	4056	4049	4045	2
4045	4044	4046	4052	2
4056	11301	4046	4058	2
4050	4040	4044	4051	2
4055	11315	4048	4057	2
4076	4079	4074	4073	2
4074	4073	4075	4081	2
4078	4085	4074	4075	2
4078	4077	4075	4083	2
4077	4084	4076	4078	2
4076	4073	4077	4082	2
4084	2666	4077	4086	2
4079	4071	4073	4080	2
4085	11329	4075	4087	2
4103	4108	4105	4102	2
4103	4102	4104	4110	2
4103	4114	4107	4104	2
4107	4106	4104	4112	2
4105	4113	4107	4106	2
4105	4106	4102	4111	2
4113	7913	4106	4115	2
4108	4100	4102	4109	2
4114	11341	4104	4116	2
6	12	4	5	2
4	5	1	10	2
4	7	2	1	2
2	1	3	9	2
3	13	6	2	2
6	3	5	11	2
13	18	3	15	2
12	16	5	14	2
7	30	1	8	2
4131	4137	4132	4134	2
4132	4131	4133	4139	2
4132	4143	4136	4133	2
4136	4133	4135	4141	2
4135	4142	4134	4136	2
4134	4131	4135	4140	2
4142	11357	4135	4144	2
4137	4129	4131	4138	2
4143	11371	4133	4145	2
482	485	480	479	2
480	479	481	487	2
480	491	484	481	2
484	481	483	489	2
484	490	482	483	2
482	479	483	488	2
490	13385	483	492	2
485	506	479	486	2
491	494	481	493	2
4160	4166	4161	4163	2
4161	4162	4160	4168	2
4161	4172	4165	4162	2
4165	4164	4162	4170	2
4165	4171	4163	4164	2
4163	4160	4164	4169	2
4171	11383	4164	4173	2
4166	4158	4160	4167	2
4172	9622	4162	4174	2
510	516	513	511	2
513	514	510	519	2
513	521	515	514	2
515	512	514	520	2
512	522	511	515	2
511	510	512	518	2
522	525	512	524	2
516	537	510	517	2
521	13819	514	523	2
4190	4195	4192	4189	2
4190	4191	4189	4197	2
4191	4201	4190	4194	2
4191	4194	4193	4199	2
4192	4200	4194	4193	2
4192	4189	4193	4198	2
4200	6267	4193	4202	2
4195	4185	4189	4196	2
4201	11397	4191	4203	2
4219	4224	4221	4218	2
4219	4218	4220	4226	2
4220	4230	4219	4223	2
4223	4220	4222	4228	2
4223	4229	4221	4222	2
4221	4222	4218	4227	2
4229	11413	4222	4231	2
4224	4216	4218	4225	2
4230	11425	4220	4232	2
4247	4253	4250	4248	2
4250	4247	4251	4256	2
4250	4258	4252	4251	2
4252	4249	4251	4257	2
4252	4259	4248	4249	2
4248	4249	4247	4255	2
4259	11441	4249	4261	2
4253	4243	4247	4254	2
4258	11455	4251	4260	2
4279	4282	4277	4276	2
4277	4278	4276	4284	2
4278	4288	4277	4281	2
4281	4278	4280	4286	2
4279	4287	4281	4280	2
4279	4280	4276	4285	2
4287	11467	4280	4289	2
4282	4274	4276	4283	2
4288	2681	4278	4290	2
541	547	542	544	2
542	541	543	549	2
543	553	542	546	2
546	543	545	551	2
546	552	544	545	2
544	545	541	550	2
552	11509	545	554	2
547	568	541	548	2
553	556	543	555	2
577	584	573	574	2
573	572	574	580	2
575	578	573	572	2
575	576	572	581	2
575	583	577	576	2
577	574	576	582	2
583	847	576	585	2
584	587	574	586	2
578	599	572	579	2
4291	4297	4294	4292	2
4294	4291	4295	4300	2
4294	4302	4296	4295	2
4296	4295	4293	4301	2
4292	4303	4296	4293	2
4292	4291	4293	4299	2
4303	11203	4293	4305	2
4297	2185	4291	4298	2
4302	11481	4295	4304	2
4321	4332	4325	4322	2
4325	4324	4322	4330	2
4324	4331	4325	4323	2
4323	4320	4324	4329	2
4320	4326	4323	4321	2
4321	4320	4322	4328	2
4326	4318	4320	4327	2
4332	10367	4322	4334	2
4331	11495	4324	4333	2
606	609	604	603	2
604	605	603	611	2
605	615	604	608	2
608	605	607	613	2
608	614	606	607	2
606	603	607	612	2
614	1411	607	616	2
609	632	603	610	2
615	618	605	617	2
4349	4355	4350	4352	2
4352	4353	4349	4358	2
4353	4360	4352	4354	2
4354	4351	4353	4359	2
4350	4361	4354	4351	2
4350	4351	4349	4357	2
4361	11144	4351	4363	2
4355	4347	4349	4356	2
4360	11511	4353	4362	2
634	640	637	635	2
635	634	636	642	2
636	646	635	639	2
639	638	636	644	2
638	645	639	637	2
637	634	638	643	2
645	13807	638	647	2
640	663	634	641	2
646	649	636	648	2
4378	4384	4379	4381	2
4381	4378	4382	4387	2
4381	4389	4383	4382	2
4383	4382	4380	4388	2
4383	4390	4379	4380	2
4379	4380	4378	4386	2
4390	11525	4380	4392	2
4384	4374	4378	4385	2
4389	630	4382	4391	2
4393	4399	4396	4394	2
4394	4393	4395	4401	2
4394	4405	4398	4395	2
4398	4395	4397	4403	2
4398	4404	4396	4397	2
4396	4397	4393	4402	2
4404	2696	4397	4406	2
4399	2711	4393	4400	2
4405	11537	4395	4407	2
4422	4428	4423	4425	2
4423	4422	4424	4430	2
4424	4434	4427	4423	2
4427	4426	4424	4432	2
4426	4433	4427	4425	2
4425	4422	4426	4431	2
4433	11551	4426	4435	2
4428	4418	4422	4429	2
4434	477	4424	4436	2
4451	4457	4454	4452	2
4452	4453	4451	4459	2
4453	4463	4456	4452	2
4456	4455	4453	4461	2
4456	4462	4454	4455	2
4454	4455	4451	4460	2
4462	7739	4455	4464	2
4457	4449	4451	4458	2
4463	11565	4453	4465	2
4483	4486	4481	4480	2
4483	4484	4480	4489	2
4484	4491	4483	4485	2
4485	4484	4482	4490	2
4485	4492	4481	4482	2
4481	4482	4480	4488	2
4492	6488	4482	4494	2
4486	4478	4480	4487	2
4491	11581	4484	4493	2
670	677	666	667	2
666	667	665	673	2
665	671	668	666	2
668	669	665	674	2
668	676	670	669	2
670	669	667	675	2
676	1564	669	678	2
677	680	667	679	2
671	692	665	672	2
4510	4515	4512	4509	2
4510	4511	4509	4517	2
4510	4521	4514	4511	2
4514	4513	4511	4519	2
4514	4520	4512	4513	2
4512	4509	4513	4518	2
4520	2030	4513	4522	2
4515	4505	4509	4516	2
4521	818	4511	4523	2
699	702	697	696	2
699	696	700	705	2
700	707	701	699	2
701	700	698	706	2
698	708	697	701	2
697	696	698	704	2
708	711	698	710	2
702	725	696	703	2
707	13359	700	709	2
4538	4544	4539	4541	2
4541	4538	4542	4547	2
4542	4549	4541	4543	2
4543	4540	4542	4548	2
4540	4550	4543	4539	2
4539	4538	4540	4546	2
4550	2726	4540	4552	2
4544	4536	4538	4545	2
4549	6852	4542	4551	2
4570	4573	4568	4567	2
4570	4567	4571	4576	2
4572	4578	4570	4571	2
4572	4571	4569	4577	2
4572	4579	4568	4569	2
4568	4567	4569	4575	2
4579	11595	4569	4581	2
4573	4563	4567	4574	2
4578	11607	4571	4580	2
4597	4602	4599	4596	2
4599	4596	4600	4605	2
4599	4607	4601	4600	2
4601	4598	4600	4606	2
4601	4608	4597	4598	2
4597	4596	4598	4604	2
4608	2512	4598	4610	2
4602	4592	4596	4603	2
4607	11623	4600	4609	2
4625	4631	4626	4628	2
4626	4627	4625	4633	2
4627	4637	4626	4630	2
4630	4627	4629	4635	2
4628	4636	4630	4629	2
4628	4625	4629	4634	2
4636	11637	4629	4638	2
4631	4623	4625	4632	2
4637	7564	4627	4639	2
728	733	730	727	2
730	731	727	736	2
731	738	730	732	2
732	729	731	737	2
729	739	728	732	2
728	729	727	735	2
739	742	729	741	2
733	756	727	734	2
738	13833	731	740	2
758	764	759	761	2
761	762	758	767	2
762	769	763	761	2
763	762	760	768	2
759	770	763	760	2
759	760	758	766	2
770	773	760	772	2
764	787	758	765	2
769	3836	762	771	2
792	795	790	789	2
790	791	789	797	2
791	801	794	790	2
794	791	793	799	2
792	800	794	793	2
792	789	793	798	2
800	2593	793	802	2
795	816	789	796	2
801	804	791	803	2
4656	4666	4655	4659	2
4655	4654	4656	4662	2
4657	4660	4655	4654	2
4657	4658	4654	4663	2
4657	4665	4659	4658	2
4659	4656	4658	4664	2
4665	11651	4658	4667	2
4666	11665	4656	4668	2
4660	4652	4654	4661	2
4686	4694	4688	4687	2
4688	4687	4685	4693	2
4685	4695	4684	4688	2
4684	4685	4683	4691	2
4683	4689	4686	4684	2
4686	4687	4683	4692	2
4689	9316	4683	4690	2
4694	4679	4687	4696	2
4695	11679	4685	4697	2
4713	4718	4715	4712	2
4713	4712	4714	4720	2
4717	4724	4713	4714	2
4717	4716	4714	4722	2
4717	4723	4715	4716	2
4715	4712	4716	4721	2
4723	11691	4716	4725	2
4718	4710	4712	4719	2
4724	5727	4714	4726	2
35	46	39	36	2
39	38	36	44	2
38	45	37	39	2
37	34	38	43	2
34	40	37	35	2
35	34	36	42	2
40	63	34	41	2
46	51	36	48	2
45	49	38	47	2
4744	4747	4742	4741	2
4742	4741	4743	4749	2
4746	4753	4742	4743	2
4746	4743	4745	4751	2
4745	4752	4744	4746	2
4744	4741	4745	4750	2
4752	11705	4745	4754	2
4747	4737	4741	4748	2
4753	11721	4743	4755	2
4770	4776	4773	4771	2
4773	4774	4770	4779	2
4775	4781	4773	4774	2
4775	4772	4774	4780	2
4771	4782	4775	4772	2
4771	4772	4770	4778	2
4782	11733	4772	4784	2
4776	4768	4770	4777	2
4781	11747	4774	4783	2
822	832	821	825	2
821	820	822	828	2
821	826	823	820	2
823	824	820	829	2
824	831	823	825	2
825	824	822	830	2
831	12237	824	833	2
832	835	822	834	2
826	849	820	827	2
4800	4805	4802	4799	2
4802	4803	4799	4808	2
4803	4810	4802	4804	2
4804	4801	4803	4809	2
4804	4811	4800	4801	2
4800	4799	4801	4807	2
4811	11469	4801	4813	2
4805	4795	4799	4806	2
4810	11763	4803	4812	2
4828	4834	4831	4829	2
4831	4828	4832	4837	2
4832	4839	4831	4833	2
4833	4832	4830	4838	2
4829	4840	4833	4830	2
4829	4830	4828	4836	2
4840	10733	4830	4842	2
4834	4824	4828	4835	2
4839	11777	4832	4841	2
852	863	856	853	2
856	853	855	861	2
854	862	856	855	2
854	851	855	860	2
851	857	854	852	2
852	853	851	859	2
857	880	851	858	2
863	866	853	865	2
862	4681	855	864	2
4860	4863	4858	4857	2
4860	4861	4857	4866	2
4861	4868	4862	4860	2
4862	4861	4859	4867	2
4858	4869	4862	4859	2
4858	4859	4857	4865	2
4869	11791	4859	4871	2
4863	4853	4857	4864	2
4868	10176	4861	4870	2
4872	4878	4875	4873	2
4875	4876	4872	4881	2
4876	4883	4877	4875	2
4877	4876	4874	4882	2
4874	4884	4877	4873	2
4873	4872	4874	4880	2
4884	11803	4874	4886	2
4878	4855	4872	4879	2
4883	11819	4876	4885	2
4901	4907	4902	4904	2
4902	4903	4901	4909	2
4903	4913	4902	4906	2
4906	4903	4905	4911	2
4904	4912	4906	4905	2
4904	4905	4901	4910	2
4912	11831	4905	4914	2
4907	4899	4901	4908	2
4913	9200	4903	4915	2
4930	4936	4933	4931	2
4933	4934	4930	4939	2
4935	4941	4933	4934	2
4935	4934	4932	4940	2
4935	4942	4931	4932	2
4931	4932	4930	4938	2
4942	11847	4932	4944	2
4936	4926	4930	4937	2
4941	11861	4934	4943	2
4959	4965	4960	4962	2
4960	4959	4961	4967	2
4961	4971	4960	4964	2
4964	4963	4961	4969	2
4962	4970	4964	4963	2
4962	4963	4959	4968	2
4970	11399	4963	4972	2
4965	4957	4959	4966	2
4971	5508	4961	4973	2
882	888	883	885	2
885	882	886	891	2
886	893	887	885	2
887	886	884	892	2
884	894	887	883	2
883	882	884	890	2
894	897	884	896	2
888	909	882	889	2
893	11217	886	895	2
4988	4994	4989	4991	2
4989	4988	4990	4996	2
4989	5000	4993	4990	2
4993	4990	4992	4998	2
4991	4999	4993	4992	2
4991	4988	4992	4997	2
4999	2741	4992	5001	2
4994	4986	4988	4995	2
5000	11873	4990	5002	2
914	919	916	913	2
916	917	913	922	2
917	924	918	916	2
918	915	917	923	2
918	925	914	915	2
914	913	915	921	2
925	928	915	927	2
919	942	913	920	2
924	12013	917	926	2
5004	5009	5006	5003	2
5004	5005	5003	5011	2
5005	5015	5004	5008	2
5008	5007	5005	5013	2
5006	5014	5008	5007	2
5006	5003	5007	5012	2
5014	2756	5007	5016	2
5009	754	5003	5010	2
5015	1999	5005	5017	2
5032	5038	5035	5033	2
5033	5034	5032	5040	2
5034	5044	5037	5033	2
5037	5036	5034	5042	2
5036	5043	5035	5037	2
5035	5036	5032	5041	2
5043	2388	5036	5045	2
5038	5028	5032	5039	2
5044	11887	5034	5046	2
944	950	947	945	2
945	946	944	952	2
945	956	949	946	2
949	946	948	954	2
948	955	947	949	2
947	948	944	953	2
955	12671	948	957	2
950	973	944	951	2
956	959	946	958	2
5061	5067	5062	5064	2
5062	5063	5061	5069	2
5063	5073	5062	5066	2
5066	5065	5063	5071	2
5066	5072	5064	5065	2
5064	5065	5061	5070	2
5072	7025	5065	5074	2
5067	5059	5061	5068	2
5073	9698	5063	5075	2
5077	5082	5079	5076	2
5077	5078	5076	5084	2
5078	5088	5081	5077	2
5081	5080	5078	5086	2
5080	5087	5081	5079	2
5079	5080	5076	5085	2
5087	7799	5080	5089	2
5082	2771	5076	5083	2
5088	11901	5078	5090	2
5106	5111	5108	5105	2
5106	5107	5105	5113	2
5107	5117	5110	5106	2
5110	5109	5107	5115	2
5110	5116	5108	5109	2
5108	5105	5109	5114	2
5116	2786	5109	5118	2
5111	5103	5105	5112	2
5117	11915	5107	5119	2
5137	5140	5135	5134	2
5135	5136	5134	5142	2
5139	5146	5135	5136	2
5139	5136	5138	5144	2
5138	5145	5137	5139	2
5137	5138	5134	5143	2
5145	11931	5138	5147	2
5140	5130	5134	5141	2
5146	11945	5136	5148	2
5163	5169	5164	5166	2
5166	5167	5163	5172	2
5167	5174	5166	5168	2
5168	5167	5165	5173	2
5168	5175	5164	5165	2
5164	5165	5163	5171	2
5175	11957	5165	5177	2
5169	5161	5163	5170	2
5174	11971	5167	5176	2
5193	5198	5195	5192	2
5195	5196	5192	5201	2
5196	5203	5195	5197	2
5197	5196	5194	5202	2
5197	5204	5193	5194	2
5193	5194	5192	5200	2
5204	6677	5194	5206	2
5198	5190	5192	5199	2
5203	8161	5196	5205	2
975	981	978	976	2
978	979	975	984	2
979	986	978	980	2
980	979	977	985	2
977	987	976	980	2
976	975	977	983	2
987	990	977	989	2
981	1002	975	982	2
986	13653	979	988	2
1006	1012	1009	1007	2
1007	1006	1008	1014	2
1007	1018	1011	1008	2
1011	1008	1010	1016	2
1009	1017	1011	1010	2
1009	1006	1010	1015	2
1017	13469	1010	1019	2
1012	1035	1006	1013	2
1018	1021	1008	1020	2
5221	5227	5222	5224	2
5224	5221	5225	5230	2
5224	5232	5226	5225	2
5226	5225	5223	5231	2
5222	5233	5226	5223	2
5222	5223	5221	5229	2
5233	11987	5223	5235	2
5227	5217	5221	5228	2
5232	12001	5225	5234	2
5253	5256	5251	5250	2
5253	5254	5250	5259	2
5254	5261	5253	5255	2
5255	5254	5252	5260	2
5252	5262	5251	5255	2
5251	5250	5252	5258	2
5262	11859	5252	5264	2
5256	5246	5250	5257	2
5261	2801	5254	5263	2
5282	5285	5280	5279	2
5280	5281	5279	5287	2
5280	5291	5284	5281	2
5284	5283	5281	5289	2
5284	5290	5282	5283	2
5282	5283	5279	5288	2
5290	570	5283	5292	2
5285	5277	5279	5286	2
5291	12015	5281	5293	2
5308	5314	5311	5309	2
5309	5310	5308	5316	2
5310	5320	5313	5309	2
5313	5312	5310	5318	2
5312	5319	5311	5313	2
5311	5312	5308	5317	2
5319	2816	5312	5321	2
5314	5306	5308	5315	2
5320	9534	5310	5322	2
5338	5343	5340	5337	2
5340	5337	5341	5346	2
5341	5348	5342	5340	2
5342	5341	5339	5347	2
5339	5349	5342	5338	2
5338	5337	5339	5345	2
5349	4594	5339	5351	2
5343	5333	5337	5344	2
5348	10002	5341	5350	2
5352	5358	5355	5353	2
5352	5356	5355	5361	2
5356	5363	5357	5355	2
5357	5356	5354	5362	2
5354	5364	5357	5353	2
5353	5352	5354	5360	2
5364	8090	5354	5366	2
5358	1905	5352	5359	2
5363	12027	5356	5365	2
5382	5387	5384	5381	2
5384	5381	5385	5390	2
5384	5392	5386	5385	2
5386	5385	5383	5391	2
5383	5393	5382	5386	2
5382	5381	5383	5389	2
5393	8835	5383	5395	2
5387	5377	5381	5388	2
5392	12043	5385	5394	2
5411	5416	5413	5410	2
5413	5414	5410	5419	2
5414	5421	5413	5415	2
5414	5412	5415	5420	2
5412	5422	5415	5411	2
5411	5412	5410	5418	2
5422	8559	5412	5424	2
5416	5408	5410	5417	2
5421	2831	5414	5423	2
5439	5445	5440	5442	2
5442	5443	5439	5448	2
5442	5450	5444	5443	2
5444	5441	5443	5449	2
5444	5451	5440	5441	2
5439	5440	5441	5447	2
5451	12055	5441	5453	2
5445	5437	5439	5446	2
5450	4187	5443	5452	2
5471	5474	5469	5468	2
5471	5468	5472	5477	2
5472	5479	5473	5471	2
5473	5472	5470	5478	2
5470	5480	5473	5469	2
5469	5468	5470	5476	2
5480	12069	5470	5482	2
5474	5466	5468	5475	2
5479	8486	5472	5481	2
5484	5489	5486	5483	2
5484	5483	5485	5491	2
5484	5495	5488	5485	2
5488	5487	5485	5493	2
5487	5494	5486	5488	2
5486	5487	5483	5492	2
5494	9595	5487	5496	2
5489	2846	5483	5490	2
5495	12083	5485	5497	2
5513	5518	5515	5512	2
5513	5512	5514	5520	2
5517	5524	5513	5514	2
5517	5516	5514	5522	2
5516	5523	5515	5517	2
5515	5512	5516	5521	2
5523	10149	5516	5525	2
5518	5510	5512	5519	2
5524	12099	5514	5526	2
5541	5547	5544	5542	2
5544	5545	5541	5550	2
5545	5552	5544	5546	2
5546	5545	5543	5551	2
5543	5553	5542	5546	2
5542	5541	5543	5549	2
5553	12113	5543	5555	2
5547	5539	5541	5548	2
5552	12125	5545	5554	2
1038	1043	1040	1037	2
1040	1037	1041	1046	2
1041	1048	1040	1042	2
1042	1039	1041	1047	2
1042	1049	1038	1039	2
1038	1039	1037	1045	2
1049	1052	1039	1051	2
1043	1066	1037	1044	2
1048	4316	1041	1050	2
5573	5576	5571	5570	2
5573	5570	5574	5579	2
5573	5581	5575	5574	2
5575	5574	5572	5580	2
5572	5582	5571	5575	2
5571	5570	5572	5578	2
5582	1095	5572	5584	2
5576	5568	5570	5577	2
5581	12139	5574	5583	2
5587	5597	5586	5590	2
5586	5585	5587	5593	2
5585	5591	5586	5588	2
5588	5589	5585	5594	2
5589	5596	5588	5590	2
5590	5587	5589	5595	2
5596	12153	5589	5598	2
5597	12169	5587	5599	2
5591	1349	5585	5592	2
5601	5606	5603	5600	2
5603	5604	5600	5609	2
5604	5611	5603	5605	2
5605	5602	5604	5610	2
5602	5612	5605	5601	2
5601	5602	5600	5608	2
5612	12181	5602	5614	2
5606	4127	5600	5607	2
5611	12197	5604	5613	2
5629	5635	5630	5632	2
5632	5629	5633	5638	2
5634	5640	5632	5633	2
5634	5631	5633	5639	2
5630	5641	5634	5631	2
5630	5631	5629	5637	2
5641	8455	5631	5643	2
5635	5625	5629	5636	2
5640	12209	5633	5642	2
1068	1074	1069	1071	2
1069	1068	1070	1076	2
1070	1080	1069	1073	2
1073	1070	1072	1078	2
1073	1079	1071	1072	2
1071	1072	1068	1077	2
1079	12349	1072	1081	2
1074	1097	1068	1075	2
1080	1083	1070	1082	2
5645	5650	5647	5644	2
5647	5644	5648	5653	2
5648	5655	5647	5649	2
5649	5646	5648	5654	2
5645	5656	5649	5646	2
5645	5644	5646	5652	2
5656	12223	5646	5658	2
5650	2861	5644	5651	2
5655	2876	5648	5657	2
1102	1105	1100	1099	2
1100	1101	1099	1107	2
1101	1111	1100	1104	2
1104	1103	1101	1109	2
1102	1110	1104	1103	2
1102	1103	1099	1108	2
1110	11039	1103	1112	2
1105	1126	1099	1106	2
1111	1114	1101	1113	2
5676	5679	5674	5673	2
5676	5673	5677	5682	2
5678	5684	5676	5677	2
5678	5675	5677	5683	2
5678	5685	5674	5675	2
5674	5675	5673	5681	2
5685	8808	5675	5687	2
5679	5669	5673	5680	2
5684	7610	5677	5686	2
1135	1142	1131	1132	2
1131	1130	1132	1138	2
1130	1136	1131	1133	2
1133	1134	1130	1139	2
1135	1141	1133	1134	2
1135	1132	1134	1140	2
1141	6748	1134	1143	2
1142	1145	1132	1144	2
1136	1157	1130	1137	2
5705	5713	5707	5706	2
5705	5706	5702	5711	2
5702	5708	5703	5705	2
5703	5704	5702	5710	2
5707	5714	5703	5704	2
5707	5706	5704	5712	2
5714	5700	5704	5716	2
5713	12239	5706	5715	2
5708	12251	5702	5709	2
5731	5737	5732	5734	2
5732	5733	5731	5739	2
5733	5743	5736	5732	2
5736	5735	5733	5741	2
5734	5742	5736	5735	2
5734	5731	5735	5740	2
5742	12111	5735	5744	2
5737	5729	5731	5738	2
5743	12267	5733	5745	2
5747	5752	5749	5746	2
5747	5748	5746	5754	2
5748	5758	5747	5751	2
5751	5750	5748	5756	2
5749	5757	5751	5750	2
5749	5746	5750	5755	2
5757	8705	5750	5759	2
5752	2891	5746	5753	2
5758	12279	5748	5760	2
1161	1167	1164	1162	2
1162	1161	1163	1169	2
1163	1173	1166	1162	2
1166	1165	1163	1171	2
1165	1172	1166	1164	2
1164	1161	1165	1170	2
1172	11707	1165	1174	2
1167	1064	1161	1168	2
1173	1176	1163	1175	2
5778	5781	5776	5775	2
5778	5775	5779	5784	2
5778	5786	5780	5779	2
5780	5779	5777	5785	2
5777	5787	5780	5776	2
5776	5775	5777	5783	2
5787	12295	5777	5789	2
5781	5771	5775	5782	2
5786	2906	5779	5788	2
1181	1184	1179	1178	2
1179	1180	1178	1186	2
1179	1190	1183	1180	2
1183	1180	1182	1188	2
1181	1189	1183	1182	2
1181	1182	1178	1187	2
1189	1626	1182	1191	2
1184	1205	1178	1185	2
1190	1193	1180	1192	2
1214	1221	1210	1211	2
1210	1209	1211	1217	2
1212	1215	1210	1209	2
1212	1209	1213	1218	2
1213	1220	1214	1212	2
1214	1211	1213	1219	2
1220	13147	1213	1222	2
1221	1224	1211	1223	2
1215	1236	1209	1216	2
5809	5815	5807	5808	2
5809	5806	5808	5814	2
5805	5816	5809	5806	2
5805	5806	5804	5812	2
5804	5810	5807	5805	2
5807	5804	5808	5813	2
5810	5800	5804	5811	2
5815	12307	5808	5817	2
5816	12321	5806	5818	2
5822	5825	5820	5819	2
5822	5819	5823	5828	2
5824	5830	5822	5823	2
5824	5823	5821	5829	2
5820	5831	5824	5821	2
5820	5819	5821	5827	2
5831	12335	5821	5833	2
5825	1207	5819	5826	2
5830	12351	5823	5832	2
5848	5854	5849	5851	2
5851	5852	5848	5857	2
5851	5859	5853	5852	2
5853	5850	5852	5858	2
5850	5860	5849	5853	2
5849	5848	5850	5856	2
5860	2921	5850	5862	2
5854	5846	5848	5855	2
5859	12363	5852	5861	2
5880	5883	5878	5877	2
5878	5877	5879	5885	2
5878	5889	5882	5879	2
5882	5879	5881	5887	2
5881	5888	5880	5882	2
5880	5881	5877	5886	2
5888	12379	5881	5890	2
5883	5873	5877	5884	2
5889	12391	5879	5891	2
5906	5912	5907	5909	2
5907	5908	5906	5914	2
5908	5918	5911	5907	2
5911	5908	5910	5916	2
5911	5917	5909	5910	2
5909	5910	5906	5915	2
5917	12407	5910	5919	2
5912	5902	5906	5913	2
5918	12225	5908	5920	2
5924	5927	5922	5921	2
5924	5925	5921	5930	2
5926	5932	5924	5925	2
5926	5925	5923	5931	2
5922	5933	5926	5923	2
5922	5921	5923	5929	2
5933	289	5923	5935	2
5927	539	5921	5928	2
5932	7127	5925	5934	2
5936	5942	5937	5939	2
5939	5936	5940	5945	2
5939	5947	5941	5940	2
5941	5938	5940	5946	2
5941	5948	5937	5938	2
5937	5936	5938	5944	2
5948	11593	5938	5950	2
5942	5875	5936	5943	2
5947	10790	5940	5949	2
1243	1253	1246	1242	2
1242	1241	1243	1249	2
1244	1247	1242	1241	2
1244	1245	1241	1250	2
1245	1252	1246	1244	2
1246	1245	1243	1251	2
1252	11889	1245	1254	2
1253	1256	1243	1255	2
1247	1270	1241	1248	2
5951	5957	5952	5954	2
5952	5951	5953	5959	2
5953	5963	5952	5956	2
5956	5953	5955	5961	2
5954	5962	5956	5955	2
5954	5955	5951	5960	2
5962	9929	5955	5964	2
5957	971	5951	5958	2
5963	12419	5953	5965	2
5983	5986	5980	5981	2
5983	5984	5980	5989	2
5983	5991	5985	5984	2
5985	5982	5984	5990	2
5981	5992	5985	5982	2
5980	5981	5982	5988	2
5992	12433	5982	5994	2
5986	5978	5980	5987	2
5991	9887	5984	5993	2
6009	6015	6012	6010	2
6012	6009	6013	6018	2
6013	6020	6014	6012	2
6014	6013	6011	6019	2
6011	6021	6014	6010	2
6010	6011	6009	6017	2
6021	2936	6011	6023	2
6015	6007	6009	6016	2
6020	12447	6013	6022	2
6027	6030	6025	6024	2
6027	6028	6024	6033	2
6029	6035	6027	6028	2
6029	6028	6026	6034	2
6029	6036	6025	6026	2
6025	6026	6024	6032	2
6036	12461	6026	6038	2
6030	4984	6024	6031	2
6035	12475	6028	6037	2
1275	1278	1273	1272	2
1273	1272	1274	1280	2
1273	1284	1277	1274	2
1277	1276	1274	1282	2
1276	1283	1277	1275	2
1275	1272	1276	1281	2
1283	13483	1276	1285	2
1278	1299	1272	1279	2
1284	1287	1274	1286	2
6053	6059	6056	6054	2
6056	6057	6053	6062	2
6056	6064	6058	6057	2
6058	6057	6055	6063	2
6055	6065	6058	6054	2
6054	6055	6053	6061	2
6065	8632	6055	6067	2
6059	6049	6053	6060	2
6064	2419	6057	6066	2
6085	6088	6083	6082	2
6085	6086	6082	6091	2
6086	6093	6085	6087	2
6087	6084	6086	6092	2
6083	6094	6087	6084	2
6083	6084	6082	6090	2
6094	12491	6084	6096	2
6088	6080	6082	6089	2
6093	4476	6086	6095	2
1307	1314	1306	1308	2
1308	1305	1307	1313	2
1305	1315	1308	1304	2
1304	1303	1305	1311	2
1304	1309	1306	1303	2
1306	1303	1307	1312	2
1309	13863	1303	1310	2
1314	785	1307	1316	2
1315	1318	1305	1317	2
6116	6122	6114	6115	2
6116	6113	6115	6121	2
6113	6123	6112	6116	2
6112	6111	6113	6119	2
6112	6117	6114	6111	2
6114	6111	6115	6120	2
6117	353	6111	6118	2
6122	6107	6115	6124	2
6123	12505	6113	6125	2
6143	6146	6141	6140	2
6143	6140	6144	6149	2
6143	6151	6145	6144	2
6145	6144	6142	6150	2
6145	6152	6141	6142	2
6141	6140	6142	6148	2
6152	723	6142	6154	2
6146	6138	6140	6147	2
6151	2092	6144	6153	2
6172	6175	6170	6169	2
6170	6171	6169	6177	2
6170	6181	6174	6171	2
6174	6173	6171	6179	2
6174	6180	6172	6173	2
6172	6169	6173	6178	2
6180	12519	6173	6182	2
6175	6165	6169	6176	2
6181	12293	6171	6183	2
6198	6204	6199	6201	2
6199	6200	6198	6206	2
6200	6210	6199	6203	2
6203	6200	6202	6208	2
6203	6209	6201	6202	2
6201	6198	6202	6207	2
6209	10527	6202	6211	2
6204	6194	6198	6205	2
6210	12531	6200	6212	2
6230	6233	6228	6227	2
6228	6229	6227	6235	2
6228	6239	6232	6229	2
6232	6231	6229	6237	2
6231	6238	6230	6232	2
6230	6231	6227	6236	2
6238	12547	6231	6240	2
6233	6223	6227	6234	2
6239	12561	6229	6241	2
6243	6248	6245	6242	2
6245	6246	6242	6251	2
6245	6253	6247	6246	2
6247	6246	6244	6252	2
6244	6254	6247	6243	2
6243	6244	6242	6250	2
6254	7462	6244	6256	2
6248	4621	6242	6249	2
6253	12573	6246	6255	2
6271	6277	6274	6272	2
6274	6271	6275	6280	2
6275	6282	6274	6276	2
6276	6273	6275	6281	2
6273	6283	6276	6272	2
6272	6273	6271	6279	2
6283	12587	6273	6285	2
6277	6269	6271	6278	2
6282	4042	6275	6284	2
6286	6292	6289	6287	2
6289	6286	6290	6295	2
6290	6297	6289	6291	2
6291	6288	6290	6296	2
6288	6298	6291	6287	2
6287	6286	6288	6294	2
6298	6005	6288	6300	2
6292	878	6286	6293	2
6297	11677	6290	6299	2
6318	6321	6316	6315	2
6318	6315	6319	6324	2
6318	6326	6320	6319	2
6320	6317	6319	6325	2
6317	6327	6320	6316	2
6316	6317	6315	6323	2
6327	12601	6317	6329	2
6321	6311	6315	6322	2
6326	12615	6319	6328	2
6330	6336	6333	6331	2
6333	6330	6334	6339	2
6334	6341	6333	6335	2
6335	6332	6334	6340	2
6335	6342	6331	6332	2
6331	6332	6330	6338	2
6342	192	6332	6344	2
6336	6078	6330	6337	2
6341	12629	6334	6343	2
6345	6351	6346	6348	2
6346	6345	6347	6353	2
6350	6357	6346	6347	2
6350	6347	6349	6355	2
6349	6356	6348	6350	2
6348	6345	6349	6354	2
6356	4739	6349	6358	2
6351	446	6345	6352	2
6357	12645	6347	6359	2
6374	6380	6377	6375	2
6375	6376	6374	6382	2
6376	6386	6375	6379	2
6379	6378	6376	6384	2
6378	6385	6379	6377	2
6377	6378	6374	6383	2
6385	7884	6378	6387	2
6380	6372	6374	6381	2
6386	5335	6376	6388	2
6406	6409	6404	6403	2
6406	6407	6403	6412	2
6407	6414	6408	6406	2
6408	6405	6407	6413	2
6408	6415	6404	6405	2
6404	6405	6403	6411	2
6415	12657	6405	6417	2
6409	6401	6403	6410	2
6414	1659	6407	6416	2
6435	6438	6433	6432	2
6435	6436	6432	6441	2
6436	6443	6437	6435	2
6437	6436	6434	6442	2
6434	6444	6433	6437	2
6433	6432	6434	6440	2
6444	12673	6434	6446	2
6438	6430	6432	6439	2
6443	7187	6436	6445	2
6464	6467	6462	6461	2
6464	6465	6461	6470	2
6464	6472	6466	6465	2
6466	6463	6465	6471	2
6463	6473	6462	6466	2
6462	6461	6463	6469	2
6473	7069	6463	6475	2
6467	6457	6461	6468	2
6472	12477	6465	6474	2
6495	6502	6491	6492	2
6491	6492	6490	6498	2
6490	6496	6493	6491	2
6493	6494	6490	6499	2
6493	6501	6495	6494	2
6495	6494	6492	6500	2
6501	6313	6494	6503	2
6502	12685	6492	6504	2
6496	6486	6490	6497	2
6522	6525	6520	6519	2
6522	6519	6523	6528	2
6523	6530	6522	6524	2
6524	6521	6523	6529	2
6521	6531	6524	6520	2
6520	6521	6519	6527	2
6531	12699	6521	6533	2
6525	6517	6519	6526	2
6530	12715	6523	6532	2
1322	1332	1321	1325	2
1321	1320	1322	1328	2
1320	1326	1321	1323	2
1323	1320	1324	1329	2
1324	1331	1323	1325	2
1325	1322	1324	1330	2
1331	10207	1324	1333	2
1332	1335	1322	1334	2
1326	1347	1320	1327	2
1356	1362	1354	1355	2
1356	1355	1353	1361	2
1356	1363	1352	1353	2
1352	1351	1353	1359	2
1354	1357	1352	1351	2
1354	1355	1351	1360	2
1357	13793	1351	1358	2
1362	1380	1355	1364	2
1363	1366	1353	1365	2
6549	6560	6553	6550	2
6549	6550	6548	6556	2
6548	6554	6549	6551	2
6551	6552	6548	6557	2
6552	6559	6553	6551	2
6553	6552	6550	6558	2
6559	2951	6552	6561	2
6560	6546	6550	6562	2
6554	9010	6548	6555	2
6564	6569	6566	6563	2
6564	6563	6565	6571	2
6564	6575	6568	6565	2
6568	6565	6567	6573	2
6566	6574	6568	6567	2
6566	6563	6567	6572	2
6574	6879	6567	6576	2
6569	2966	6563	6570	2
6575	2981	6565	6577	2
6592	6598	6595	6593	2
6593	6592	6594	6600	2
6593	6604	6597	6594	2
6597	6596	6594	6602	2
6595	6603	6597	6596	2
6595	6596	6592	6601	2
6603	12729	6596	6605	2
6598	6590	6592	6599	2
6604	11257	6594	6606	2
6621	6627	6624	6622	2
6622	6621	6623	6629	2
6622	6633	6626	6623	2
6626	6625	6623	6631	2
6626	6632	6624	6625	2
6624	6621	6625	6630	2
6632	12265	6625	6634	2
6627	6617	6621	6628	2
6633	12559	6623	6635	2
6650	6656	6653	6651	2
6651	6650	6652	6658	2
6655	6662	6651	6652	2
6655	6654	6652	6660	2
6654	6661	6653	6655	2
6653	6650	6654	6659	2
6661	12741	6654	6663	2
6656	6648	6650	6657	2
6662	12755	6652	6664	2
6682	6685	6680	6679	2
6682	6683	6679	6688	2
6684	6690	6682	6683	2
6684	6683	6681	6689	2
6680	6691	6684	6681	2
6680	6681	6679	6687	2
6691	2996	6681	6693	2
6685	6675	6679	6686	2
6690	10483	6683	6692	2
6713	6719	6711	6712	2
6713	6710	6712	6718	2
6713	6720	6709	6710	2
6709	6710	6708	6716	2
6709	6714	6711	6708	2
6711	6708	6712	6717	2
6714	6704	6708	6715	2
6719	12769	6712	6721	2
6720	6910	6710	6722	2
6723	6729	6724	6726	2
6724	6723	6725	6731	2
6728	6735	6724	6725	2
6728	6727	6725	6733	2
6727	6734	6728	6726	2
6726	6723	6727	6732	2
6734	11343	6727	6736	2
6729	3011	6723	6730	2
6735	12783	6725	6737	2
6755	6758	6753	6752	2
6753	6752	6754	6760	2
6753	6764	6757	6754	2
6757	6754	6756	6762	2
6757	6763	6755	6756	2
6755	6752	6756	6761	2
6763	1159	6756	6765	2
6758	6750	6752	6759	2
6764	12797	6754	6766	2
6782	6787	6784	6781	2
6782	6781	6783	6789	2
6782	6793	6786	6783	2
6786	6785	6783	6791	2
6786	6792	6784	6785	2
6784	6785	6781	6790	2
6792	1535	6785	6794	2
6787	6777	6781	6788	2
6793	12811	6783	6795	2
6797	6802	6799	6796	2
6797	6796	6798	6804	2
6797	6808	6801	6798	2
6801	6798	6800	6806	2
6799	6807	6801	6800	2
6799	6796	6800	6805	2
6807	160	6800	6809	2
6802	2359	6796	6803	2
6808	11287	6798	6810	2
6828	6831	6826	6825	2
6826	6827	6825	6833	2
6830	6837	6826	6827	2
6830	6827	6829	6835	2
6829	6836	6830	6828	2
6828	6829	6825	6834	2
6836	11327	6829	6838	2
6831	6821	6825	6832	2
6837	12659	6827	6839	2
6857	6860	6855	6854	2
6855	6856	6854	6862	2
6855	6866	6859	6856	2
6859	6858	6856	6864	2
6859	6865	6857	6858	2
6857	6858	6854	6863	2
6865	11761	6858	6867	2
6860	6850	6854	6861	2
6866	12785	6856	6868	2
6884	6889	6886	6883	2
6886	6883	6887	6892	2
6888	6894	6886	6887	2
6888	6887	6885	6893	2
6884	6895	6888	6885	2
6884	6885	6883	6891	2
6895	7260	6885	6897	2
6889	6881	6883	6890	2
6894	3955	6887	6896	2
1382	1388	1383	1385	2
1383	1382	1384	1390	2
1384	1394	1383	1387	2
1387	1386	1384	1392	2
1387	1393	1385	1386	2
1382	1386	1385	1391	2
1393	11943	1386	1395	2
1388	1409	1382	1389	2
1394	1397	1384	1396	2
1413	1419	1416	1414	2
1416	1417	1413	1422	2
1416	1424	1418	1417	2
1418	1415	1417	1423	2
1415	1425	1418	1414	2
1414	1413	1415	1421	2
1425	1428	1415	1427	2
1419	1442	1413	1420	2
1424	13007	1417	1426	2
6915	6918	6913	6912	2
6913	6914	6912	6920	2
6914	6924	6913	6917	2
6917	6914	6916	6922	2
6915	6923	6917	6916	2
6915	6912	6916	6921	2
6923	7828	6916	6925	2
6918	6908	6912	6919	2
6924	6136	6914	6926	2
6927	6933	6930	6928	2
6928	6927	6929	6935	2
6929	6939	6928	6932	2
6929	6931	6932	6937	2
6931	6938	6932	6930	2
6930	6931	6927	6936	2
6938	4447	6931	6940	2
6933	3026	6927	6934	2
6939	11875	6929	6941	2
6956	6962	6957	6959	2
6957	6958	6956	6964	2
6957	6968	6961	6958	2
6961	6958	6960	6966	2
6961	6967	6959	6960	2
6959	6956	6960	6965	2
6967	7988	6960	6969	2
6962	6954	6956	6963	2
6968	12827	6958	6970	2
6988	6996	6990	6989	2
6988	6985	6989	6994	2
6986	6991	6988	6985	2
6986	6985	6987	6993	2
6987	6997	6986	6990	2
6990	6987	6989	6995	2
6997	12839	6987	6999	2
6996	6981	6989	6998	2
6991	10836	6985	6992	2
1444	1450	1445	1447	2
1447	1448	1444	1453	2
1448	1455	1449	1447	2
1449	1448	1446	1454	2
1445	1456	1449	1446	2
1445	1444	1446	1452	2
1456	1459	1446	1458	2
1450	1473	1444	1451	2
1455	11453	1448	1457	2
7000	7006	7003	7001	2
7003	7004	7000	7009	2
7003	7011	7005	7004	2
7005	7004	7002	7010	2
7005	7012	7001	7002	2
7001	7002	7000	7008	2
7012	11483	7002	7014	2
7006	1471	7000	7007	2
7011	12855	7004	7013	2
1477	1487	1480	1476	2
1476	1477	1475	1483	2
1475	1481	1476	1478	2
1478	1479	1475	1484	2
1478	1486	1480	1479	2
1480	1479	1477	1485	2
1486	3806	1479	1488	2
1487	1490	1477	1489	2
1481	1502	1475	1482	2
7029	7035	7032	7030	2
7032	7033	7029	7038	2
7033	7040	7032	7034	2
7034	7031	7033	7039	2
7031	7041	7030	7034	2
7030	7029	7031	7037	2
7041	12337	7031	7043	2
7035	7027	7029	7036	2
7040	95	7033	7042	2
7046	7056	7045	7049	2
7045	7044	7046	7052	2
7044	7050	7047	7045	2
7047	7044	7048	7053	2
7049	7055	7047	7048	2
7049	7046	7048	7054	2
7055	1128	7048	7057	2
7056	12867	7046	7058	2
7050	3041	7044	7051	2
7073	7079	7074	7076	2
7074	7073	7075	7081	2
7074	7085	7078	7075	2
7078	7075	7077	7083	2
7077	7084	7078	7076	2
7076	7077	7073	7082	2
7084	12517	7077	7086	2
7079	7071	7073	7080	2
7085	12881	7075	7087	2
7102	7108	7105	7103	2
7103	7104	7102	7110	2
7104	7114	7103	7107	2
7107	7104	7106	7112	2
7107	7113	7105	7106	2
7105	7102	7106	7111	2
7113	12897	7106	7115	2
7108	7098	7102	7109	2
7114	11553	7104	7116	2
7131	7137	7132	7134	2
7134	7131	7135	7140	2
7135	7142	7134	7136	2
7136	7135	7133	7141	2
7132	7143	7136	7133	2
7132	7133	7131	7139	2
7143	5304	7133	7145	2
7137	7129	7131	7138	2
7142	4766	7135	7144	2
7160	7166	7161	7163	2
7163	7160	7164	7169	2
7164	7171	7163	7165	2
7165	7162	7164	7170	2
7165	7172	7161	7162	2
7161	7160	7162	7168	2
7172	8061	7162	7174	2
7166	7158	7160	7167	2
7171	12701	7164	7173	2
1507	1512	1509	1506	2
1507	1506	1508	1514	2
1507	1518	1511	1508	2
1511	1508	1510	1516	2
1510	1517	1509	1511	2
1509	1506	1510	1515	2
1517	12449	1510	1519	2
1512	1533	1506	1513	2
1518	1521	1508	1520	2
7194	7200	7192	7193	2
7194	7193	7191	7199	2
7194	7201	7190	7191	2
7190	7191	7189	7197	2
7189	7195	7192	7190	2
7192	7189	7193	7198	2
7195	12911	7189	7196	2
7200	7185	7193	7202	2
7201	12925	7191	7203	2
7223	7229	7221	7222	2
7221	7218	7222	7227	2
7219	7224	7221	7218	2
7219	7218	7220	7226	2
7220	7230	7223	7219	2
7223	7220	7222	7228	2
7230	10118	7220	7232	2
7229	12617	7222	7231	2
7224	7216	7218	7225	2
73	76	75	74	2
75	70	74	84	2
70	68	75	71	2
71	70	72	82	2
72	71	73	78	2
73	72	74	83	2
78	80	72	79	2
76	97	74	77	2
68	67	70	69	2
7233	7239	7236	7234	2
7234	7233	7235	7241	2
7238	7245	7234	7235	2
7238	7235	7237	7243	2
7237	7244	7238	7236	2
7236	7233	7237	7242	2
7244	1378	7237	7246	2
7239	6051	7233	7240	2
7245	11567	7235	7247	2
7265	7268	7263	7262	2
7263	7262	7264	7270	2
7264	7274	7267	7263	2
7267	7264	7266	7272	2
7265	7273	7267	7266	2
7265	7262	7266	7271	2
7273	5802	7266	7275	2
7268	7258	7262	7269	2
7274	12309	7264	7276	2
7294	7297	7292	7291	2
7294	7295	7291	7300	2
7296	7302	7294	7295	2
7295	7296	7293	7301	2
7293	7303	7296	7292	2
7292	7293	7291	7299	2
7303	12029	7293	7305	2
7297	7289	7291	7298	2
7302	12939	7295	7304	2
7320	7326	7321	7323	2
7323	7320	7324	7329	2
7324	7331	7325	7323	2
7325	7324	7322	7330	2
7322	7332	7321	7325	2
7321	7320	7322	7328	2
7332	12743	7322	7334	2
7326	7316	7320	7327	2
7331	3056	7324	7333	2
7349	7355	7352	7350	2
7350	7349	7351	7357	2
7354	7361	7350	7351	2
7354	7351	7353	7359	2
7353	7360	7354	7352	2
7352	7353	7349	7358	2
7360	12953	7353	7362	2
7355	7347	7349	7356	2
7361	4272	7351	7363	2
1539	1549	1538	1542	2
1538	1537	1539	1545	2
1540	1543	1538	1537	2
1540	1537	1541	1546	2
1542	1548	1540	1541	2
1542	1541	1539	1547	2
1548	13723	1541	1550	2
1549	1552	1539	1551	2
1543	1566	1537	1544	2
1571	1574	1569	1568	2
1571	1572	1568	1577	2
1572	1579	1571	1573	2
1573	1570	1572	1578	2
1569	1580	1573	1570	2
1569	1570	1568	1576	2
1580	1583	1570	1582	2
1574	1597	1568	1575	2
1579	5698	1572	1581	2
7378	7384	7381	7379	2
7379	7380	7378	7386	2
7379	7390	7383	7380	2
7383	7382	7380	7388	2
7383	7389	7381	7382	2
7381	7378	7382	7387	2
7389	4565	7382	7391	2
7384	7376	7378	7385	2
7390	5219	7380	7392	2
1602	1605	1600	1599	2
1600	1601	1599	1607	2
1601	1611	1600	1604	2
1604	1601	1603	1609	2
1602	1610	1604	1603	2
1602	1603	1599	1608	2
1610	13805	1603	1612	2
1605	1628	1599	1606	2
1611	1614	1601	1613	2
1631	1642	1635	1632	2
1631	1630	1632	1638	2
1630	1636	1633	1631	2
1633	1630	1634	1639	2
1635	1641	1633	1634	2
1635	1632	1634	1640	2
1641	13791	1634	1643	2
1642	1645	1632	1644	2
1636	1657	1630	1637	2
7393	7399	7394	7396	2
7396	7397	7393	7402	2
7396	7404	7398	7397	2
7398	7395	7397	7403	2
7395	7405	7398	7394	2
7394	7393	7395	7401	2
7405	12967	7395	7407	2
7399	2545	7393	7400	2
7404	12979	7397	7406	2
104	105	103	110	2
105	106	104	115	2
106	108	107	105	2
107	106	102	116	2
102	100	103	107	2
103	104	102	114	2
100	99	102	101	2
110	112	104	111	2
108	127	106	109	2
7409	7414	7411	7408	2
7411	7412	7408	7417	2
7413	7419	7411	7412	2
7413	7410	7412	7418	2
7410	7420	7413	7409	2
7409	7410	7408	7416	2
7420	12995	7410	7422	2
7414	6196	7408	7415	2
7419	12923	7412	7421	2
7437	7443	7438	7440	2
7440	7437	7441	7446	2
7440	7448	7442	7441	2
7442	7441	7439	7447	2
7439	7449	7438	7442	2
7438	7437	7439	7445	2
7449	3071	7439	7451	2
7443	7433	7437	7444	2
7448	13009	7441	7450	2
7467	7472	7469	7466	2
7469	7466	7470	7475	2
7469	7477	7471	7470	2
7471	7470	7468	7476	2
7471	7478	7467	7468	2
7467	7466	7468	7474	2
7478	3086	7468	7480	2
7472	7464	7466	7473	2
7477	11245	7470	7479	2
7495	7501	7498	7496	2
7498	7495	7499	7504	2
7500	7506	7498	7499	2
7500	7499	7497	7505	2
7497	7507	7496	7500	2
7496	7495	7497	7503	2
7507	12713	7497	7509	2
7501	7493	7495	7502	2
7506	1301	7499	7508	2
7513	7516	7511	7510	2
7511	7510	7512	7518	2
7512	7522	7511	7515	2
7515	7514	7512	7520	2
7514	7521	7513	7515	2
7513	7510	7514	7519	2
7521	13023	7514	7523	2
7516	3897	7510	7517	2
7522	11427	7512	7524	2
7539	7545	7542	7540	2
7542	7539	7543	7548	2
7544	7550	7542	7543	2
7544	7541	7543	7549	2
7541	7551	7540	7544	2
7540	7539	7541	7547	2
7551	13035	7541	7553	2
7545	7535	7539	7546	2
7550	4708	7543	7552	2
1661	1667	1664	1662	2
1664	1661	1665	1670	2
1664	1672	1666	1665	2
1666	1663	1665	1671	2
1666	1673	1662	1663	2
1662	1663	1661	1669	2
1673	1676	1663	1675	2
1667	1690	1661	1668	2
1672	13861	1665	1674	2
7569	7574	7571	7568	2
7571	7572	7568	7577	2
7572	7579	7571	7573	2
7573	7570	7572	7578	2
7570	7580	7573	7569	2
7569	7568	7570	7576	2
7580	12575	7570	7582	2
7574	7566	7568	7575	2
7579	11635	7572	7581	2
7586	7589	7584	7583	2
7584	7585	7583	7591	2
7584	7595	7588	7585	2
7588	7585	7587	7593	2
7587	7594	7588	7586	2
7586	7587	7583	7592	2
7594	6109	7587	7596	2
7589	3101	7583	7590	2
7595	12503	7585	7597	2
7617	7623	7615	7616	2
7617	7614	7616	7622	2
7614	7624	7617	7613	2
7613	7614	7612	7620	2
7612	7618	7613	7615	2
7615	7616	7612	7621	2
7618	13051	7612	7619	2
7623	7608	7616	7625	2
7624	13065	7614	7626	2
7641	7647	7642	7644	2
7644	7641	7645	7650	2
7645	7652	7644	7646	2
7646	7643	7645	7651	2
7643	7653	7646	7642	2
7642	7643	7641	7649	2
7653	4069	7643	7655	2
7647	7639	7641	7648	2
7652	13077	7645	7654	2
1692	1698	1695	1693	2
1695	1696	1692	1701	2
1696	1703	1697	1695	2
1697	1694	1696	1702	2
1694	1704	1693	1697	2
1693	1692	1694	1700	2
1704	1707	1694	1706	2
1698	1719	1692	1699	2
1703	12813	1696	1705	2
7659	7662	7657	7656	2
7659	7656	7660	7665	2
7661	7667	7659	7660	2
7661	7660	7658	7666	2
7661	7668	7657	7658	2
7657	7656	7658	7664	2
7668	11439	7658	7670	2
7662	3116	7656	7663	2
7667	13091	7660	7669	2
7686	7691	7688	7685	2
7688	7685	7689	7694	2
7690	7696	7688	7689	2
7690	7687	7689	7695	2
7687	7697	7690	7686	2
7686	7685	7687	7693	2
7697	10863	7687	7699	2
7691	7683	7685	7692	2
7696	7942	7689	7698	2
7715	7720	7717	7714	2
7717	7718	7714	7723	2
7718	7725	7717	7719	2
7719	7718	7716	7724	2
7719	7726	7715	7716	2
7715	7716	7714	7722	2
7726	320	7716	7728	2
7720	7712	7714	7721	2
7725	13107	7718	7727	2
1723	1729	1724	1726	2
1724	1723	1725	1731	2
1728	1735	1724	1725	2
1728	1725	1727	1733	2
1727	1734	1728	1726	2
1726	1727	1723	1732	2
1734	12253	1727	1736	2
1729	1750	1723	1730	2
1735	1738	1725	1737	2
7747	7754	7746	7748	2
7748	7747	7745	7753	2
7744	7755	7748	7745	2
7744	7745	7743	7751	2
7744	7749	7746	7743	2
7746	7747	7743	7752	2
7749	7741	7743	7750	2
7754	6399	7747	7756	2
7755	5188	7745	7757	2
7772	7778	7773	7775	2
7773	7774	7772	7780	2
7774	7784	7773	7777	2
7777	7776	7774	7782	2
7775	7783	7777	7776	2
7775	7772	7776	7781	2
7783	4156	7776	7785	2
7778	7768	7772	7779	2
7784	10338	7774	7786	2
7804	7807	7802	7801	2
7802	7803	7801	7809	2
7803	7813	7802	7806	2
7806	7805	7803	7811	2
7806	7812	7804	7805	2
7804	7805	7801	7810	2
7812	13119	7805	7814	2
7807	7797	7801	7808	2
7813	5671	7803	7815	2
1754	1760	1755	1757	2
1755	1754	1756	1762	2
1756	1766	1759	1755	2
1759	1758	1756	1764	2
1758	1765	1759	1757	2
1757	1758	1754	1763	2
1765	13779	1758	1767	2
1760	1781	1754	1761	2
1766	1769	1756	1768	2
7830	7836	7831	7833	2
7832	7831	7830	7838	2
7832	7842	7831	7835	2
7835	7834	7832	7840	2
7835	7841	7833	7834	2
7833	7830	7834	7839	2
7841	12085	7834	7843	2
7836	7826	7830	7837	2
7842	3131	7832	7844	2
7860	7865	7862	7859	2
7860	7861	7859	7867	2
7860	7871	7864	7861	2
7864	7863	7861	7869	2
7862	7870	7864	7863	2
7862	7863	7859	7868	2
7870	13135	7863	7872	2
7865	7857	7859	7866	2
7871	11369	7861	7873	2
7891	7894	7889	7888	2
7889	7890	7888	7896	2
7890	7900	7889	7893	2
7893	7890	7892	7898	2
7893	7899	7891	7892	2
7891	7892	7888	7897	2
7899	13149	7892	7901	2
7894	7886	7888	7895	2
7900	1721	7890	7902	2
7917	7923	7918	7920	2
7918	7917	7919	7925	2
7919	7929	7918	7922	2
7922	7921	7919	7927	2
7920	7928	7922	7921	2
7920	7921	7917	7926	2
7928	13161	7921	7930	2
7923	7915	7917	7924	2
7929	10615	7919	7931	2
7946	7952	7947	7949	2
7949	7950	7946	7955	2
7950	7957	7951	7949	2
7951	7948	7950	7956	2
7951	7958	7947	7948	2
7947	7946	7948	7954	2
7958	7681	7948	7960	2
7952	7944	7946	7953	2
7957	13177	7950	7959	2
1786	1791	1788	1785	2
1786	1787	1785	1793	2
1790	1797	1786	1787	2
1790	1789	1787	1795	2
1789	1796	1790	1788	2
1788	1789	1785	1794	2
1796	6459	1789	1798	2
1791	1812	1785	1792	2
1797	1800	1787	1799	2
7962	7967	7964	7961	2
7962	7961	7963	7969	2
7963	7973	7966	7962	2
7966	7965	7963	7971	2
7966	7972	7964	7965	2
7964	7965	7961	7970	2
7972	9507	7965	7974	2
7967	7855	7961	7968	2
7973	4214	7963	7975	2
7991	7996	7993	7990	2
7991	7990	7992	7998	2
7995	8002	7991	7992	2
7995	7992	7994	8000	2
7995	8001	7993	7994	2
7993	7994	7990	7999	2
8001	3984	7994	8003	2
7996	7986	7990	7997	2
8002	13191	7992	8004	2
8020	8025	8022	8019	2
8022	8019	8023	8028	2
8023	8030	8022	8024	2
8024	8023	8021	8029	2
8021	8031	8020	8024	2
8020	8021	8019	8027	2
8031	12951	8021	8033	2
8025	8017	8019	8026	2
8030	5976	8023	8032	2
8035	8040	8037	8034	2
8037	8038	8034	8043	2
8039	8045	8037	8038	2
8039	8036	8038	8044	2
8036	8046	8039	8035	2
8035	8036	8034	8042	2
8046	13203	8036	8048	2
8040	1752	8034	8041	2
8045	10307	8038	8047	2
8066	8069	8064	8063	2
8064	8063	8065	8071	2
8064	8075	8068	8065	2
8068	8065	8067	8073	2
8068	8074	8066	8067	2
8066	8067	8063	8072	2
8074	12057	8067	8076	2
8069	8059	8063	8070	2
8075	6515	8065	8077	2
8092	8098	8095	8093	2
8093	8092	8094	8100	2
8097	8104	8093	8094	2
8097	8094	8096	8102	2
8096	8103	8095	8097	2
8095	8092	8096	8101	2
8103	3146	8096	8105	2
8098	8088	8092	8099	2
8104	12589	8094	8106	2
1821	1827	1819	1820	2
1819	1820	1816	1825	2
1816	1822	1819	1817	2
1817	1818	1816	1824	2
1818	1828	1817	1821	2
1821	1818	1820	1826	2
1828	1831	1818	1830	2
1827	1845	1820	1829	2
1822	12631	1816	1823	2
8107	8113	8108	8110	2
8108	8107	8109	8115	2
8109	8119	8108	8112	2
8112	8111	8109	8117	2
8112	8118	8110	8111	2
8110	8107	8111	8116	2
8118	3161	8111	8120	2
8113	6588	8107	8114	2
8119	8132	8109	8121	2
8136	8142	8137	8139	2
8137	8136	8138	8144	2
8138	8148	8141	8137	2
8141	8138	8140	8146	2
8141	8147	8139	8140	2
8139	8136	8140	8145	2
8147	13217	8140	8149	2
8142	8134	8136	8143	2
8148	3176	8138	8150	2
8165	8171	8166	8168	2
8168	8169	8165	8174	2
8169	8176	8168	8170	2
8170	8169	8167	8175	2
8170	8177	8166	8167	2
8166	8165	8167	8173	2
8177	12727	8167	8179	2
8171	8163	8165	8172	2
8176	13233	8169	8178	2
8194	8200	8195	8197	2
8197	8194	8198	8203	2
8199	8205	8197	8198	2
8199	8198	8196	8204	2
8199	8206	8195	8196	2
8195	8194	8196	8202	2
8206	13247	8196	8208	2
8200	8192	8194	8201	2
8205	13259	8198	8207	2
8212	8215	8210	8209	2
8212	8213	8209	8218	2
8212	8220	8214	8213	2
8214	8213	8211	8219	2
8211	8221	8214	8210	2
8210	8211	8209	8217	2
8221	13273	8211	8223	2
8215	2450	8209	8216	2
8220	13289	8213	8222	2
8224	8230	8225	8227	2
8225	8226	8224	8232	2
8229	8236	8225	8226	2
8229	8228	8226	8234	2
8228	8235	8229	8227	2
8227	8228	8224	8233	2
8235	4650	8228	8237	2
8230	940	8224	8231	2
8236	1595	8226	8238	2
8255	8265	8254	8258	2
8254	8253	8255	8261	2
8256	8259	8254	8253	2
8256	8257	8253	8262	2
8258	8264	8256	8257	2
8258	8255	8257	8263	2
8264	13303	8257	8266	2
8265	13317	8255	8267	2
8259	8251	8253	8260	2
1847	1853	1850	1848	2
1848	1849	1847	1855	2
1852	1859	1848	1849	2
1852	1851	1849	1857	2
1850	1858	1852	1851	2
1850	1851	1847	1856	2
1858	9975	1851	1860	2
1853	1874	1847	1854	2
1859	1862	1849	1861	2
1881	1884	1879	1878	2
1879	1878	1880	1886	2
1880	1890	1879	1883	2
1883	1882	1880	1888	2
1883	1889	1881	1882	2
1881	1882	1878	1887	2
1889	13301	1882	1891	2
1884	1907	1878	1885	2
1890	1893	1880	1892	2
8269	8274	8271	8268	2
8269	8270	8268	8276	2
8270	8280	8269	8273	2
8273	8272	8270	8278	2
8272	8279	8273	8271	2
8271	8268	8272	8277	2
8279	13329	8272	8281	2
8274	5275	8268	8275	2
8280	5904	8270	8282	2
1910	1921	1914	1911	2
1910	1911	1909	1917	2
1912	1915	1910	1909	2
1912	1909	1913	1918	2
1912	1920	1914	1913	2
1914	1913	1911	1919	2
1920	13847	1913	1922	2
1921	1924	1911	1923	2
1915	1936	1909	1916	2
1940	1946	1943	1941	2
1943	1944	1940	1949	2
1944	1951	1943	1945	2
1945	1942	1944	1950	2
1945	1952	1941	1942	2
1941	1942	1940	1948	2
1952	1955	1942	1954	2
1946	1967	1940	1947	2
1951	13835	1944	1953	2
134	142	136	135	2
134	131	135	140	2
131	137	134	132	2
132	131	133	139	2
132	143	136	133	2
136	133	135	141	2
143	148	133	145	2
142	146	135	144	2
137	162	131	138	2
169	170	168	175	2
170	171	169	180	2
170	173	172	171	2
172	167	171	181	2
172	165	168	167	2
168	169	167	179	2
165	164	167	166	2
175	177	169	176	2
173	194	171	174	2
1975	1978	1973	1972	2
1973	1974	1972	1980	2
1974	1984	1973	1977	2
1977	1974	1976	1982	2
1975	1983	1977	1976	2
1975	1976	1972	1981	2
1983	13821	1976	1985	2
1978	2001	1972	1979	2
1984	1987	1974	1986	2
2008	2015	2004	2005	2
2004	2003	2005	2011	2
2003	2009	2006	2004	2
2006	2007	2003	2012	2
2007	2014	2006	2008	2
2008	2007	2005	2013	2
2014	6952	2007	2016	2
2015	2018	2005	2017	2
2009	2032	2003	2010	2
8283	8289	8286	8284	2
8284	8283	8285	8291	2
8285	8295	8288	8284	2
8288	8287	8285	8293	2
8287	8294	8288	8286	2
8286	8287	8283	8292	2
8294	12195	8287	8296	2
8289	384	8283	8290	2
8295	13345	8285	8297	2
8315	8318	8313	8312	2
8313	8314	8312	8320	2
8317	8324	8313	8314	2
8317	8316	8314	8322	2
8317	8323	8315	8316	2
8315	8316	8312	8321	2
8323	13205	8316	8325	2
8318	8308	8312	8319	2
8324	13357	8314	8326	2
8328	8333	8330	8327	2
8328	8329	8327	8335	2
8328	8339	8332	8329	2
8332	8331	8329	8337	2
8330	8338	8332	8331	2
8330	8331	8327	8336	2
8338	11231	8331	8340	2
8333	7491	8327	8334	2
8339	11749	8329	8341	2
8357	8362	8359	8356	2
8357	8356	8358	8364	2
8361	8368	8357	8358	2
8361	8360	8358	8366	2
8359	8367	8361	8360	2
8359	8356	8360	8365	2
8367	6706	8360	8369	2
8362	8352	8356	8363	2
8368	11735	8358	8370	2
8371	8377	8372	8374	2
8374	8371	8375	8380	2
8374	8382	8376	8375	2
8376	8375	8373	8381	2
8372	8383	8376	8373	2
8372	8371	8373	8379	2
8383	13373	8373	8385	2
8377	224	8371	8378	2
8382	5057	8375	8384	2
8387	8392	8389	8386	2
8389	8390	8386	8395	2
8390	8397	8391	8389	2
8391	8390	8388	8396	2
8391	8398	8387	8388	2
8387	8386	8388	8394	2
8398	13387	8388	8400	2
8392	3191	8386	8393	2
8397	9478	8390	8399	2
8415	8421	8418	8416	2
8416	8415	8417	8423	2
8416	8427	8420	8417	2
8420	8419	8417	8425	2
8419	8426	8420	8418	2
8418	8419	8415	8424	2
8426	13399	8419	8428	2
8421	8413	8415	8422	2
8427	13415	8417	8429	2
8431	8436	8433	8430	2
8431	8430	8432	8438	2
8432	8442	8431	8435	2
8432	8435	8434	8440	2
8433	8441	8435	8434	2
8433	8430	8434	8439	2
8441	3206	8434	8443	2
8436	2235	8430	8437	2
8442	13427	8432	8444	2
2035	2046	2039	2036	2
2035	2036	2034	2042	2
2034	2040	2037	2035	2
2037	2034	2038	2043	2
2039	2045	2037	2038	2
2039	2036	2038	2044	2
2045	11959	2038	2047	2
2046	2049	2036	2048	2
2040	2063	2034	2041	2
8462	8465	8460	8459	2
8460	8461	8459	8467	2
8460	8471	8464	8461	2
8464	8461	8463	8469	2
8462	8470	8464	8463	2
8462	8459	8463	8468	2
8470	9798	8463	8472	2
8465	8457	8459	8466	2
8471	2483	8461	8473	2
2070	2077	2066	2067	2
2066	2065	2067	2073	2
2065	2071	2066	2068	2
2068	2065	2069	2074	2
2069	2076	2070	2068	2
2070	2069	2067	2075	2
2076	3791	2069	2078	2
2077	2080	2067	2079	2
2071	2094	2065	2072	2
2101	2108	2097	2098	2
2097	2096	2098	2104	2
2096	2102	2097	2099	2
2099	2096	2100	2105	2
2100	2107	2099	2101	2
2101	2098	2100	2106	2
2107	11271	2100	2109	2
2108	2111	2098	2110	2
2102	2125	2096	2103	2
199	197	200	204	2
200	201	199	211	2
201	200	202	207	2
202	201	203	212	2
203	205	204	202	2
204	199	203	213	2
205	226	203	206	2
197	196	199	198	2
207	209	201	208	2
8489	8494	8491	8488	2
8491	8492	8488	8497	2
8491	8499	8493	8492	2
8493	8492	8490	8498	2
8489	8500	8493	8490	2
8489	8490	8488	8496	2
8500	12463	8490	8502	2
8494	8484	8488	8495	2
8499	13413	8492	8501	2
8503	8509	8504	8506	2
8504	8503	8505	8511	2
8505	8515	8508	8504	2
8508	8505	8507	8513	2
8507	8514	8508	8506	2
8506	8507	8503	8512	2
8514	12757	8507	8516	2
8509	7318	8503	8510	2
8515	11497	8505	8517	2
8532	8538	8533	8535	2
8534	8533	8532	8540	2
8537	8544	8533	8534	2
8537	8536	8534	8542	2
8536	8543	8535	8537	2
8535	8532	8536	8541	2
8543	8966	8536	8545	2
8538	8528	8532	8539	2
8544	4507	8534	8546	2
8564	8567	8562	8561	2
8562	8561	8563	8569	2
8566	8573	8562	8563	2
8566	8563	8565	8571	2
8565	8572	8566	8564	2
8564	8561	8565	8570	2
8572	3221	8565	8574	2
8567	8557	8561	8568	2
8573	13219	8563	8575	2
2130	2133	2128	2127	2
2128	2127	2129	2135	2
2129	2139	2132	2128	2
2132	2131	2129	2137	2
2131	2138	2130	2132	2
2130	2127	2131	2136	2
2138	11973	2131	2140	2
2133	2156	2127	2134	2
2139	2142	2129	2141	2
8578	8588	8581	8577	2
8577	8578	8576	8584	2
8579	8582	8577	8576	2
8579	8576	8580	8585	2
8580	8587	8579	8581	2
8581	8578	8580	8586	2
8587	13429	8580	8589	2
8588	3236	8578	8590	2
8582	3251	8576	8583	2
8608	8611	8606	8605	2
8606	8605	8607	8613	2
8607	8617	8610	8606	2
8610	8607	8609	8615	2
8609	8616	8608	8610	2
8608	8605	8609	8614	2
8616	7156	8609	8618	2
8611	8603	8605	8612	2
8617	13371	8607	8619	2
8635	8640	8637	8634	2
8637	8634	8638	8643	2
8637	8645	8639	8638	2
8639	8638	8636	8644	2
8639	8646	8635	8636	2
8635	8634	8636	8642	2
8646	13189	8636	8648	2
8640	8630	8634	8641	2
8645	1783	8638	8647	2
8652	8655	8650	8649	2
8650	8649	8651	8657	2
8654	8661	8650	8651	2
8654	8653	8651	8659	2
8652	8660	8654	8653	2
8652	8653	8649	8658	2
8660	13443	8653	8662	2
8655	4345	8649	8656	2
8661	12377	8651	8663	2
8678	8684	8681	8679	2
8679	8678	8680	8686	2
8680	8690	8679	8683	2
8683	8682	8680	8688	2
8683	8689	8681	8682	2
8681	8678	8682	8687	2
8689	5537	8682	8691	2
8684	8676	8678	8685	2
8690	13457	8680	8692	2
8707	8713	8710	8708	2
8710	8707	8711	8716	2
8712	8718	8710	8711	2
8712	8711	8709	8717	2
8709	8719	8708	8712	2
8708	8707	8709	8715	2
8719	11903	8709	8721	2
8713	8703	8707	8714	2
8718	12981	8711	8720	2
8739	8742	8737	8736	2
8739	8740	8736	8745	2
8740	8747	8741	8739	2
8741	8738	8740	8746	2
8738	8748	8737	8741	2
8737	8736	8738	8744	2
8748	9856	8738	8750	2
8742	8732	8736	8743	2
8747	7345	8740	8749	2
8752	8757	8754	8751	2
8754	8755	8751	8760	2
8755	8762	8756	8754	2
8756	8753	8755	8761	2
8752	8763	8756	8753	2
8752	8753	8751	8759	2
8763	11693	8753	8765	2
8757	1440	8751	8758	2
8762	3266	8755	8764	2
8766	8772	8769	8767	2
8769	8770	8766	8775	2
8770	8777	8769	8771	2
8771	8770	8768	8776	2
8768	8778	8767	8771	2
8767	8768	8766	8774	2
8778	11999	8768	8780	2
8772	5844	8766	8773	2
8777	12365	8770	8779	2
8784	8787	8782	8781	2
8784	8785	8781	8790	2
8786	8792	8784	8785	2
8786	8783	8785	8791	2
8786	8793	8782	8783	2
8782	8783	8781	8789	2
8793	10089	8783	8795	2
8787	256	8781	8788	2
8792	12869	8785	8794	2
8811	8816	8813	8810	2
8811	8810	8812	8818	2
8812	8822	8811	8815	2
8815	8812	8814	8820	2
8815	8821	8813	8814	2
8813	8814	8810	8819	2
8821	12909	8814	8823	2
8816	8806	8810	8817	2
8822	13471	8812	8824	2
8842	8845	8840	8839	2
8840	8839	8841	8847	2
8841	8851	8840	8844	2
8844	8841	8843	8849	2
8843	8850	8844	8842	2
8842	8839	8843	8848	2
8850	13485	8843	8852	2
8845	8837	8839	8846	2
8851	13497	8841	8853	2
8873	8880	8869	8870	2
8869	8868	8870	8876	2
8868	8874	8871	8869	2
8871	8872	8868	8877	2
8872	8879	8871	8873	2
8873	8872	8870	8878	2
8879	13133	8872	8881	2
8880	8864	8870	8882	2
8874	12993	8868	8875	2
8898	8903	8900	8897	2
8900	8901	8897	8906	2
8901	8908	8900	8902	2
8902	8899	8901	8907	2
8899	8909	8898	8902	2
8898	8897	8899	8905	2
8909	3281	8899	8911	2
8903	8895	8897	8904	2
8908	10234	8901	8910	2
8912	8918	8913	8915	2
8913	8914	8912	8920	2
8914	8924	8917	8913	2
8917	8916	8914	8922	2
8916	8923	8917	8915	2
8915	8916	8912	8921	2
8923	13079	8916	8925	2
8918	3296	8912	8919	2
8924	3311	8914	8926	2
8941	8947	8942	8944	2
8944	8941	8945	8950	2
8944	8952	8946	8945	2
8946	8945	8943	8951	2
8943	8953	8942	8946	2
8942	8943	8941	8949	2
8953	4534	8943	8955	2
8947	8937	8941	8948	2
8952	6646	8945	8954	2
8970	8976	8971	8973	2
8973	8970	8974	8979	2
8974	8981	8973	8975	2
8975	8972	8974	8980	2
8972	8982	8971	8975	2
8971	8972	8970	8978	2
8982	11817	8972	8984	2
8976	8968	8970	8977	2
8981	11805	8974	8983	2
8988	8991	8986	8985	2
8988	8985	8989	8994	2
8989	8996	8988	8990	2
8989	8990	8987	8995	2
8990	8997	8986	8987	2
8986	8985	8987	8993	2
8997	13511	8987	8999	2
8991	3326	8985	8992	2
8996	13525	8989	8998	2
9014	9020	9015	9017	2
9015	9014	9016	9022	2
9016	9026	9019	9015	2
9019	9018	9016	9024	2
9018	9025	9017	9019	2
9017	9018	9014	9023	2
9025	13401	9018	9027	2
9020	9012	9014	9021	2
9026	13539	9016	9028	2
9029	9035	9030	9032	2
9030	9029	9031	9037	2
9031	9041	9034	9030	2
9034	9031	9033	9039	2
9033	9040	9034	9032	2
9032	9033	9029	9038	2
9040	13555	9033	9042	2
9035	3341	9029	9036	2
9041	4098	9031	9043	2
9058	9064	9061	9059	2
9059	9060	9058	9066	2
9060	9070	9063	9059	2
9063	9060	9062	9068	2
9063	9069	9061	9062	2
9061	9058	9062	9067	2
9069	7374	9062	9071	2
9064	9056	9058	9065	2
9070	10907	9060	9072	2
9073	9079	9074	9076	2
9076	9073	9077	9082	2
9078	9084	9076	9077	2
9078	9077	9075	9083	2
9078	9085	9074	9075	2
9074	9075	9073	9081	2
9085	3356	9075	9087	2
9079	2123	9073	9080	2
9084	13569	9077	9086	2
9089	9094	9091	9088	2
9089	9090	9088	9096	2
9093	9100	9089	9090	2
9093	9092	9090	9098	2
9092	9099	9091	9093	2
9091	9088	9092	9097	2
9099	12603	9092	9101	2
9094	3371	9088	9095	2
9100	3386	9090	9102	2
2158	2164	2159	2161	2
2159	2158	2160	2166	2
2163	2170	2159	2160	2
2163	2160	2162	2168	2
2163	2169	2161	2162	2
2161	2162	2158	2167	2
2169	12211	2162	2171	2
2164	2187	2158	2165	2
2170	2173	2160	2172	2
2190	2195	2192	2189	2
2192	2193	2189	2198	2
2193	2200	2194	2192	2
2194	2193	2191	2199	2
2190	2201	2194	2191	2
2190	2189	2191	2197	2
2201	2204	2191	2203	2
2195	661	2189	2196	2
2200	12421	2193	2202	2
9118	9123	9120	9117	2
9118	9119	9117	9125	2
9118	9129	9122	9119	2
9122	9121	9119	9127	2
9121	9128	9120	9122	2
9120	9121	9117	9126	2
9128	3401	9121	9130	2
9123	9113	9117	9124	2
9129	13527	9119	9131	2
9150	9157	9149	9151	2
9149	9146	9150	9155	2
9149	9152	9147	9146	2
9147	9148	9146	9154	2
9151	9158	9147	9148	2
9151	9148	9150	9156	2
9158	13581	9148	9160	2
9157	13343	9150	9159	2
9152	9144	9146	9153	2
9178	9181	9176	9175	2
9178	9175	9179	9184	2
9180	9186	9178	9179	2
9180	9179	9177	9185	2
9177	9187	9180	9176	2
9176	9175	9177	9183	2
9187	9374	9177	9189	2
9181	9173	9175	9182	2
9186	3416	9179	9188	2
2207	2212	2209	2206	2
2207	2206	2208	2214	2
2207	2218	2211	2208	2
2211	2210	2208	2216	2
2210	2217	2211	2209	2
2209	2210	2206	2215	2
2217	13849	2210	2219	2
2212	2233	2206	2213	2
2218	2221	2208	2220	2
9204	9210	9207	9205	2
9207	9208	9204	9213	2
9208	9215	9209	9207	2
9209	9208	9206	9214	2
9206	9216	9205	9209	2
9205	9206	9204	9212	2
9216	911	9206	9218	2
9210	9202	9204	9211	2
9215	1876	9208	9217	2
9234	9239	9236	9233	2
9236	9233	9237	9242	2
9237	9244	9236	9238	2
9238	9237	9235	9243	2
9238	9245	9234	9235	2
9234	9235	9233	9241	2
9245	13315	9235	9247	2
9239	9231	9233	9240	2
9244	13175	9237	9246	2
9265	9268	9263	9262	2
9265	9262	9266	9271	2
9266	9273	9267	9265	2
9267	9264	9266	9272	2
9263	9274	9267	9264	2
9263	9262	9264	9270	2
9274	3924	9264	9276	2
9268	9260	9262	9269	2
9273	2154	9266	9275	2
9296	9302	9294	9295	2
9294	9291	9295	9300	2
9291	9297	9292	9294	2
9292	9293	9291	9299	2
9292	9303	9296	9293	2
9296	9293	9295	9301	2
9303	13541	9293	9305	2
9302	9287	9295	9304	2
9297	13121	9291	9298	2
9321	9326	9323	9320	2
9323	9324	9320	9329	2
9324	9331	9323	9325	2
9325	9324	9322	9330	2
9322	9332	9325	9321	2
9321	9322	9320	9328	2
9332	13037	9322	9334	2
9326	9318	9320	9327	2
9331	5132	9324	9333	2
9349	9355	9352	9350	2
9350	9349	9351	9357	2
9351	9361	9354	9350	2
9353	9354	9351	9359	2
9353	9360	9352	9354	2
9352	9353	9349	9358	2
9360	11833	9353	9362	2
9355	9347	9349	9356	2
9361	8674	9351	9363	2
9378	9384	9381	9379	2
9379	9378	9380	9386	2
9380	9390	9383	9379	2
9383	9380	9382	9388	2
9382	9389	9381	9383	2
9378	9381	9382	9387	2
9389	12435	9382	9391	2
9384	9376	9378	9385	2
9390	12883	9380	9392	2
9408	9413	9410	9407	2
9410	9411	9407	9416	2
9410	9418	9412	9411	2
9412	9409	9411	9417	2
9409	9419	9412	9408	2
9408	9409	9407	9415	2
9419	7435	9409	9421	2
9413	9405	9407	9414	2
9418	13595	9411	9420	2
9437	9442	9439	9436	2
9439	9440	9436	9445	2
9441	9447	9439	9440	2
9441	9438	9440	9446	2
9437	9448	9441	9438	2
9437	9436	9438	9444	2
9448	12841	9438	9450	2
9442	9434	9436	9443	2
9447	12167	9440	9449	2
2240	2243	2238	2237	2
2238	2237	2239	2245	2
2238	2249	2242	2239	2
2242	2239	2241	2247	2
2241	2248	2242	2240	2
2240	2241	2237	2246	2
2248	13737	2241	2250	2
2243	2264	2237	2244	2
2249	2252	2239	2251	2
9452	9457	9454	9451	2
9454	9451	9455	9460	2
9455	9462	9454	9456	2
9456	9453	9455	9461	2
9453	9463	9456	9452	2
9452	9451	9453	9459	2
9463	3431	9453	9465	2
9457	8530	9451	9458	2
9462	3446	9455	9464	2
9480	9486	9483	9481	2
9483	9484	9480	9489	2
9483	9491	9485	9484	2
9485	9482	9484	9490	2
9485	9492	9481	9482	2
9481	9482	9480	9488	2
9492	9142	9482	9494	2
9486	9476	9480	9487	2
9491	13583	9484	9493	2
9509	9515	9510	9512	2
9510	9509	9511	9517	2
9510	9521	9514	9511	2
9514	9513	9511	9519	2
9513	9520	9514	9512	2
9512	9513	9509	9518	2
9520	13021	9513	9522	2
9515	9505	9509	9516	2
9521	11385	9511	9523	2
9539	9544	9541	9538	2
9541	9542	9538	9547	2
9543	9549	9541	9542	2
9543	9542	9540	9548	2
9540	9550	9543	9539	2
9539	9540	9538	9546	2
9550	10646	9540	9552	2
9544	9536	9538	9545	2
9549	3461	9542	9551	2
9553	9559	9554	9556	2
9554	9555	9553	9561	2
9554	9565	9558	9555	2
9558	9555	9557	9563	2
9558	9564	9556	9557	2
9556	9557	9553	9562	2
9564	12041	9557	9566	2
9559	8190	9553	9560	2
9565	3476	9555	9567	2
2272	2279	2271	2273	2
2273	2270	2272	2278	2
2273	2280	2269	2270	2
2269	2268	2270	2276	2
2268	2274	2271	2269	2
2271	2272	2268	2277	2
2274	4826	2268	2275	2
2279	2295	2272	2281	2
2280	2283	2270	2282	2
9568	9574	9569	9571	2
9569	9568	9570	9576	2
9570	9580	9573	9569	2
9573	9572	9570	9578	2
9573	9579	9571	9572	2
9571	9568	9572	9577	2
9579	13231	9572	9581	2
9574	2266	9568	9575	2
9580	4797	9570	9582	2
9598	9603	9600	9597	2
9598	9597	9599	9605	2
9602	9609	9598	9599	2
9602	9601	9599	9607	2
9601	9608	9602	9600	2
9600	9597	9601	9606	2
9608	3491	9601	9610	2
9603	9593	9597	9604	2
9609	3506	9599	9611	2
9626	9632	9627	9629	2
9627	9626	9628	9634	2
9628	9638	9631	9627	2
9631	9628	9630	9636	2
9630	9637	9631	9629	2
9629	9626	9630	9635	2
9637	6428	9630	9639	2
9632	9624	9626	9633	2
9638	13049	9628	9640	2
9641	9647	9644	9642	2
9644	9645	9641	9650	2
9644	9652	9646	9645	2
9646	9645	9643	9651	2
9643	9653	9642	9646	2
9642	9641	9643	9649	2
9653	12183	9643	9655	2
9647	8893	9641	9648	2
9652	12155	9645	9654	2
9657	9662	9659	9656	2
9659	9660	9656	9665	2
9661	9667	9659	9660	2
9661	9658	9660	9666	2
9658	9668	9661	9657	2
9657	9658	9656	9664	2
9668	3521	9658	9670	2
9662	2297	9656	9663	2
9667	13609	9660	9669	2
9671	9677	9672	9674	2
9672	9673	9671	9679	2
9673	9683	9676	9672	2
9676	9673	9675	9681	2
9675	9682	9674	9676	2
9674	9671	9675	9680	2
9682	13441	9675	9684	2
9677	7287	9671	9678	2
9683	13261	9673	9685	2
9702	9712	9705	9701	2
9701	9700	9702	9708	2
9700	9706	9701	9703	2
9703	9704	9700	9709	2
9703	9711	9705	9704	2
9705	9704	9702	9710	2
9711	1004	9704	9713	2
9712	9696	9702	9714	2
9706	8354	9700	9707	2
9729	9735	9732	9730	2
9730	9731	9729	9737	2
9730	9741	9734	9731	2
9734	9731	9733	9739	2
9733	9740	9734	9732	2
9732	9729	9733	9738	2
9740	7537	9733	9742	2
9735	9725	9729	9736	2
9741	5464	9731	9743	2
9761	9764	9759	9758	2
9759	9758	9760	9766	2
9763	9770	9759	9760	2
9763	9760	9762	9768	2
9761	9769	9763	9762	2
9761	9758	9762	9767	2
9769	6544	9762	9771	2
9764	9756	9758	9765	2
9770	12281	9760	9772	2
9774	9779	9776	9773	2
9774	9773	9775	9781	2
9775	9785	9778	9774	2
9778	9775	9777	9783	2
9778	9784	9776	9777	2
9776	9777	9773	9782	2
9784	3536	9777	9786	2
9779	6619	9773	9780	2
9785	3551	9775	9787	2
2299	2305	2300	2302	2
2300	2301	2299	2307	2
2300	2311	2304	2301	2
2304	2303	2301	2309	2
2302	2310	2304	2303	2
2302	2303	2299	2308	2
2310	11985	2303	2312	2
2305	2328	2299	2306	2
2311	2314	2301	2313	2
2335	2342	2331	2332	2
2331	2330	2332	2338	2
2331	2336	2333	2330	2
2333	2330	2334	2339	2
2334	2341	2335	2333	2
2335	2334	2332	2340	2
2341	13245	2334	2343	2
2342	2345	2332	2344	2
2336	2357	2330	2337	2
236	229	232	231	2
232	231	233	243	2
233	234	232	239	2
234	233	235	244	2
235	237	234	236	2
236	235	231	245	2
237	258	235	238	2
229	228	231	230	2
239	241	233	240	2
9803	9808	9805	9802	2
9805	9806	9802	9811	2
9805	9813	9807	9806	2
9807	9806	9804	9812	2
9804	9814	9807	9803	2
9803	9804	9802	9810	2
9814	9754	9804	9816	2
9808	9800	9802	9809	2
9813	12545	9806	9815	2
9832	9837	9834	9831	2
9832	9833	9831	9839	2
9832	9843	9836	9833	2
9836	9833	9835	9841	2
9835	9842	9834	9836	2
9834	9831	9835	9840	2
9842	13499	9835	9844	2
9837	9829	9831	9838	2
9843	1688	9833	9845	2
9863	9866	9861	9860	2
9862	9860	9861	9868	2
9865	9872	9862	9861	2
9862	9864	9865	9870	2
9864	9871	9863	9865	2
9863	9864	9860	9869	2
9871	5773	9864	9873	2
9866	9858	9860	9867	2
9872	13623	9862	9874	2
9892	9895	9890	9889	2
9892	9889	9893	9898	2
9894	9900	9892	9893	2
9894	9891	9893	9899	2
9891	9901	9894	9890	2
9890	9891	9889	9897	2
9901	13637	9891	9903	2
9895	9885	9889	9896	2
9900	11523	9893	9902	2
9904	9910	9905	9907	2
9907	9904	9908	9913	2
9909	9915	9907	9908	2
9909	9908	9906	9914	2
9906	9916	9905	9909	2
9905	9906	9904	9912	2
9916	13651	9906	9918	2
9910	9258	9904	9911	2
9915	12097	9908	9917	2
2361	2367	2364	2362	2
2362	2363	2361	2369	2
2363	2373	2366	2362	2
2366	2365	2363	2371	2
2366	2372	2364	2365	2
2364	2361	2365	2370	2
2372	11719	2365	2374	2
2367	2390	2361	2368	2
2373	2376	2363	2375	2
9936	9939	9934	9933	2
9934	9935	9933	9941	2
9938	9945	9934	9935	2
9938	9935	9937	9943	2
9937	9944	9938	9936	2
9936	9933	9937	9942	2
9944	3566	9937	9946	2
9939	9931	9933	9940	2
9945	11539	9935	9947	2
9948	9954	9949	9951	2
9951	9948	9952	9957	2
9951	9959	9953	9952	2
9953	9952	9950	9958	2
9949	9960	9953	9950	2
9949	9948	9950	9956	2
9960	8249	9950	9962	2
9954	508	9948	9955	2
9959	8866	9952	9961	2
261	266	263	260	2
263	260	264	269	2
265	271	263	264	2
265	264	262	270	2
262	272	261	265	2
261	262	260	268	2
272	277	262	274	2
266	291	260	267	2
271	275	264	273	2
9978	9983	9980	9977	2
9977	9978	9979	9985	2
9982	9989	9978	9979	2
9982	9981	9979	9987	2
9982	9988	9980	9981	2
9980	9981	9977	9986	2
9988	13667	9981	9990	2
9983	9973	9977	9984	2
9989	7770	9979	9991	2
10007	10012	10009	10006	2
10007	10008	10006	10014	2
10008	10018	10011	10007	2
10011	10008	10010	10016	2
10011	10017	10009	10010	2
10009	10006	10010	10015	2
10017	12965	10010	10019	2
10012	10004	10006	10013	2
10018	11621	10008	10020	2
10038	10041	10036	10035	2
10038	10039	10035	10044	2
10040	10046	10038	10039	2
10040	10037	10039	10045	2
10040	10047	10036	10037	2
10036	10035	10037	10043	2
10047	11929	10037	10049	2
10041	10033	10035	10042	2
10046	3581	10039	10048	2
10067	10070	10065	10064	2
10067	10068	10064	10073	2
10067	10075	10069	10068	2
10069	10068	10066	10074	2
10066	10076	10065	10069	2
10065	10064	10066	10072	2
10076	5379	10066	10078	2
10070	10062	10064	10071	2
10075	12393	10068	10077	2
10098	10105	10094	10095	2
10094	10095	10093	10101	2
10096	10099	10094	10093	2
10096	10097	10093	10102	2
10097	10104	10096	10098	2
10098	10097	10095	10103	2
10104	13679	10097	10106	2
10105	10091	10095	10107	2
10099	6779	10093	10100	2
10122	10128	10123	10125	2
10123	10122	10124	10130	2
10124	10134	10123	10127	2
10127	10126	10124	10132	2
10125	10133	10127	10126	2
10125	10122	10126	10131	2
10133	13611	10126	10135	2
10128	10120	10122	10129	2
10134	5248	10124	10136	2
10154	10162	10156	10155	2
10156	10153	10155	10161	2
10153	10163	10152	10156	2
10152	10153	10151	10159	2
10151	10157	10152	10154	2
10154	10155	10151	10160	2
10157	12323	10151	10158	2
10162	10147	10155	10164	2
10163	13695	10153	10165	2
10180	10186	10183	10181	2
10181	10180	10182	10188	2
10182	10192	10185	10181	2
10185	10184	10182	10190	2
10183	10191	10185	10184	2
10183	10184	10180	10189	2
10191	9289	10184	10193	2
10186	10178	10180	10187	2
10192	8411	10182	10194	2
10209	10215	10212	10210	2
10210	10209	10211	10217	2
10211	10221	10214	10210	2
10214	10213	10211	10219	2
10214	10220	10212	10213	2
10212	10209	10213	10218	2
10220	9171	10213	10222	2
10215	10205	10209	10216	2
10221	9403	10211	10223	2
10238	10244	10239	10241	2
10239	10240	10238	10246	2
10240	10250	10239	10243	2
10243	10242	10240	10248	2
10241	10249	10243	10242	2
10241	10242	10238	10247	2
10249	9727	10242	10251	2
10244	10236	10238	10245	2
10250	6370	10240	10252	2
10267	10273	10270	10268	2
10270	10267	10271	10276	2
10272	10278	10270	10271	2
10272	10271	10269	10277	2
10269	10279	10272	10268	2
10268	10269	10267	10275	2
10279	11355	10269	10281	2
10273	10265	10267	10274	2
10278	13063	10271	10280	2
10283	10288	10285	10282	2
10285	10282	10286	10291	2
10287	10293	10285	10286	2
10284	10286	10287	10292	2
10283	10294	10284	10287	2
10284	10283	10282	10290	2
10294	6823	10284	10296	2
10288	8939	10282	10289	2
10293	11789	10286	10295	2
10311	10317	10314	10312	2
10312	10313	10311	10319	2
10316	10323	10312	10313	2
10316	10315	10313	10321	2
10315	10322	10316	10314	2
10314	10311	10315	10320	2
10322	13331	10315	10324	2
10317	10309	10311	10318	2
10323	12405	10313	10325	2
10341	10346	10343	10340	2
10341	10342	10340	10348	2
10342	10352	10341	10345	2
10345	10344	10342	10350	2
10345	10351	10343	10344	2
10343	10340	10344	10349	2
10351	4897	10344	10353	2
10346	10336	10340	10347	2
10352	13665	10342	10354	2
10369	10375	10370	10372	2
10370	10371	10369	10377	2
10370	10381	10374	10371	2
10374	10373	10371	10379	2
10374	10380	10372	10373	2
10372	10369	10373	10378	2
10380	12895	10373	10382	2
10375	10365	10369	10376	2
10381	10967	10371	10383	2
2392	2398	2395	2393	2
2393	2392	2394	2400	2
2394	2404	2397	2393	2
2397	2396	2394	2402	2
2396	2403	2395	2397	2
2395	2392	2396	2401	2
2403	3821	2396	2405	2
2398	2421	2392	2399	2
2404	2407	2394	2406	2
10384	10390	10387	10385	2
10385	10386	10384	10392	2
10386	10396	10389	10385	2
10389	10386	10388	10394	2
10389	10395	10387	10388	2
10387	10384	10388	10393	2
10395	12799	10388	10397	2
10390	9827	10384	10391	2
10396	4245	10386	10398	2
10402	10405	10400	10399	2
10400	10401	10399	10407	2
10400	10411	10404	10401	2
10404	10401	10403	10409	2
10404	10410	10402	10403	2
10402	10403	10399	10408	2
10410	1814	10403	10412	2
10405	6167	10399	10406	2
10411	12071	10401	10413	2
10415	10420	10417	10414	2
10417	10418	10414	10423	2
10417	10425	10419	10418	2
10419	10416	10418	10424	2
10416	10426	10419	10415	2
10415	10414	10416	10422	2
10426	11411	10416	10428	2
10420	1504	10414	10421	2
10425	1033	10418	10427	2
10443	10449	10444	10446	2
10446	10447	10443	10452	2
10447	10454	10446	10448	2
10448	10445	10447	10453	2
10444	10455	10448	10445	2
10444	10445	10443	10451	2
10455	11313	10445	10457	2
10449	10439	10443	10450	2
10454	9115	10447	10456	2
10459	10464	10461	10458	2
10461	10458	10462	10467	2
10463	10469	10461	10462	2
10463	10460	10462	10468	2
10463	10470	10459	10460	2
10459	10460	10458	10466	2
10470	1268	10460	10472	2
10464	601	10458	10465	2
10469	5030	10462	10471	2
10492	10498	10490	10491	2
10492	10489	10491	10497	2
10492	10499	10488	10489	2
10488	10487	10489	10495	2
10487	10493	10490	10488	2
10490	10491	10487	10496	2
10493	13455	10487	10494	2
10498	10485	10491	10500	2
10499	5101	10489	10501	2
10502	10508	10505	10503	2
10505	10502	10506	10511	2
10506	10513	10505	10507	2
10507	10506	10504	10512	2
10507	10514	10503	10504	2
10503	10504	10502	10510	2
10514	13707	10504	10516	2
10508	5406	10502	10509	2
10513	3596	10506	10515	2
10531	10537	10534	10532	2
10532	10533	10531	10539	2
10536	10543	10532	10533	2
10536	10533	10535	10541	2
10535	10542	10534	10536	2
10534	10531	10535	10540	2
10542	12533	10535	10544	2
10537	10529	10531	10538	2
10543	12937	10533	10545	2
10547	10552	10549	10546	2
10547	10548	10546	10554	2
10551	10558	10547	10548	2
10551	10550	10548	10556	2
10551	10557	10549	10550	2
10549	10550	10546	10555	2
10557	13681	10550	10559	2
10552	694	10546	10553	2
10558	13625	10548	10560	2
2424	2429	2426	2423	2
2424	2423	2425	2431	2
2425	2435	2424	2428	2
2428	2427	2425	2433	2
2426	2434	2428	2427	2
2426	2427	2423	2432	2
2434	13693	2427	2436	2
2429	2452	2423	2430	2
2435	2438	2425	2437	2
10561	10567	10564	10562	2
10562	10561	10563	10569	2
10566	10573	10562	10563	2
10566	10563	10565	10571	2
10564	10572	10566	10565	2
10564	10561	10565	10570	2
10572	12127	10565	10574	2
10567	7710	10561	10568	2
10573	11917	10563	10575	2
2454	2460	2455	2457	2
2455	2456	2454	2462	2
2455	2466	2459	2456	2
2459	2456	2458	2464	2
2457	2465	2459	2458	2
2457	2454	2458	2463	2
2465	5627	2458	2467	2
2460	2481	2454	2461	2
2466	2469	2456	2468	2
10590	10596	10591	10593	2
10591	10590	10592	10598	2
10591	10602	10595	10592	2
10595	10594	10592	10600	2
10594	10601	10595	10593	2
10593	10590	10594	10599	2
10601	11775	10594	10603	2
10596	10586	10590	10597	2
10602	9229	10592	10604	2
2488	2491	2486	2485	2
2486	2485	2487	2493	2
2487	2497	2486	2490	2
2490	2489	2487	2495	2
2488	2496	2490	2489	2
2488	2485	2489	2494	2
2496	13163	2489	2498	2
2491	2514	2485	2492	2
2497	2500	2487	2499	2
10621	10631	10620	10624	2
10620	10619	10621	10627	2
10620	10625	10622	10619	2
10622	10623	10619	10628	2
10622	10630	10624	10623	2
10624	10623	10621	10629	2
10630	13721	10623	10632	2
10631	13735	10621	10633	2
10625	10617	10619	10626	2
10649	10654	10651	10648	2
10651	10652	10648	10657	2
10653	10659	10651	10652	2
10653	10652	10650	10658	2
10650	10660	10649	10653	2
10649	10650	10648	10656	2
10660	13567	10650	10662	2
10654	10644	10648	10655	2
10659	3611	10652	10661	2
10677	10683	10678	10680	2
10678	10679	10677	10685	2
10678	10689	10682	10679	2
10682	10679	10681	10687	2
10681	10688	10680	10682	2
10680	10677	10681	10686	2
10688	5435	10681	10690	2
10683	10675	10677	10684	2
10689	13749	10679	10691	2
2518	2528	2521	2517	2
2517	2516	2518	2524	2
2517	2522	2519	2516	2
2519	2516	2520	2525	2
2519	2527	2521	2520	2
2521	2518	2520	2526	2
2527	12825	2520	2529	2
2528	2531	2518	2530	2
2522	2543	2516	2523	2
2548	2553	2550	2547	2
2548	2549	2547	2555	2
2549	2559	2552	2548	2
2552	2549	2551	2557	2
2552	2558	2550	2551	2
2550	2547	2551	2556	2
2558	12771	2551	2560	2
2553	65	2547	2554	2
2559	2562	2549	2561	2
10706	10712	10707	10709	2
10707	10708	10706	10714	2
10707	10718	10711	10708	2
10711	10710	10708	10716	2
10709	10717	10711	10710	2
10709	10706	10710	10715	2
10717	12853	10710	10719	2
10712	10702	10706	10713	2
10718	13597	10708	10720	2
10735	10741	10736	10738	2
10738	10735	10739	10744	2
10738	10746	10740	10739	2
10740	10737	10739	10745	2
10740	10747	10736	10737	2
10736	10737	10735	10743	2
10747	12643	10737	10749	2
10741	10731	10735	10742	2
10746	13093	10739	10748	2
10754	10761	10755	10753	2
10755	10754	10752	10760	2
10751	10762	10755	10752	2
10750	10751	10752	10758	2
10750	10756	10753	10751	2
10753	10754	10750	10759	2
10756	3626	10750	10757	2
10761	1938	10754	10763	2
10762	2061	10752	10764	2
10766	10771	10768	10765	2
10768	10765	10769	10774	2
10769	10776	10770	10768	2
10770	10769	10767	10775	2
10766	10777	10770	10767	2
10766	10767	10765	10773	2
10777	4013	10767	10779	2
10771	3851	10765	10772	2
10776	13275	10769	10778	2
10794	10800	10797	10795	2
10797	10798	10794	10803	2
10799	10805	10797	10798	2
10799	10796	10798	10804	2
10796	10806	10799	10795	2
10795	10794	10796	10802	2
10806	2326	10796	10808	2
10800	10792	10794	10801	2
10805	3641	10798	10807	2
10809	10815	10810	10812	2
10810	10809	10811	10817	2
10814	10821	10810	10811	2
10814	10813	10811	10819	2
10813	10820	10814	10812	2
10812	10813	10809	10818	2
10820	13105	10813	10822	2
10815	10263	10809	10816	2
10821	3656	10811	10823	2
10838	10844	10841	10839	2
10839	10838	10840	10846	2
10843	10850	10839	10840	2
10843	10840	10842	10848	2
10842	10849	10841	10843	2
10841	10838	10842	10847	2
10849	9432	10842	10851	2
10844	10834	10838	10845	2
10850	13553	10840	10852	2
10867	10873	10868	10870	2
10870	10867	10871	10876	2
10870	10878	10872	10871	2
10872	10869	10871	10877	2
10872	10879	10868	10869	2
10868	10869	10867	10875	2
10879	12687	10869	10881	2
10873	10865	10867	10874	2
10878	13287	10871	10880	2
10882	10888	10885	10883	2
10885	10882	10886	10891	2
10887	10893	10885	10886	2
10887	10884	10886	10892	2
10887	10894	10883	10884	2
10883	10884	10882	10890	2
10894	10673	10884	10896	2
10888	5566	10882	10889	2
10893	13751	10886	10895	2
10914	10917	10912	10911	2
10912	10913	10911	10919	2
10913	10923	10912	10916	2
10916	10915	10913	10921	2
10915	10922	10914	10916	2
10914	10915	10911	10920	2
10922	10938	10915	10924	2
10917	10909	10911	10918	2
10923	9054	10913	10925	2
10940	10946	10941	10943	2
10941	10940	10942	10948	2
10945	10952	10941	10942	2
10945	10942	10944	10950	2
10944	10951	10943	10945	2
10943	10944	10940	10949	2
10951	13765	10944	10953	2
10946	10936	10940	10947	2
10952	13513	10942	10954	2
10970	10975	10972	10969	2
10970	10969	10971	10977	2
10971	10981	10970	10974	2
10974	10973	10971	10979	2
10973	10980	10972	10974	2
10972	10969	10973	10978	2
10980	3671	10973	10982	2
10975	10965	10969	10976	2
10981	7214	10971	10983	2
10985	10990	10987	10984	2
10987	10988	10984	10993	2
10989	10995	10987	10988	2
10989	10988	10986	10994	2
10986	10996	10989	10985	2
10985	10986	10984	10992	2
10996	3686	10986	10998	2
10990	7637	10984	10991	2
10995	12489	10988	10997	2
10999	11005	11000	11002	2
11002	10999	11003	11008	2
11004	11010	11002	11003	2
11004	11003	11001	11009	2
11000	11011	11004	11001	2
11000	10999	11001	11007	2
11011	4420	11001	11013	2
11005	3701	10999	11006	2
11010	3716	11003	11012	2
11014	11020	11017	11015	2
11017	11018	11014	11023	2
11018	11025	11019	11017	2
11019	11016	11018	11024	2
11015	11026	11019	11016	2
11014	11015	11016	11022	2
11026	11649	11016	11028	2
11020	3731	11014	11021	2
11025	6225	11018	11027	2
11044	11049	11046	11043	2
11044	11045	11043	11051	2
11045	11055	11044	11048	2
11048	11047	11045	11053	2
11047	11054	11046	11048	2
11046	11047	11043	11052	2
11054	13639	11047	11056	2
11049	11041	11043	11050	2
11055	13709	11045	11057	2
11058	11064	11059	11061	2
11061	11062	11058	11067	2
11062	11069	11063	11061	2
11063	11062	11060	11068	2
11059	11070	11063	11060	2
11059	11058	11060	11066	2
11070	11845	11060	11072	2
11064	10588	11058	11065	2
11069	12141	11062	11071	2
2564	2570	2567	2565	2
2567	2564	2568	2573	2
2567	2575	2569	2568	2
2569	2568	2566	2574	2
2569	2576	2565	2566	2
2565	2564	2566	2572	2
2576	2579	2566	2578	2
2570	2591	2564	2571	2
2575	11115	2568	2577	2
11074	11079	11076	11073	2
11074	11075	11073	11081	2
11078	11085	11074	11075	2
11078	11075	11077	11083	2
11078	11084	11076	11077	2
11076	11077	11073	11082	2
11084	4955	11077	11086	2
11079	10060	11073	11080	2
11085	10441	11075	11087	2
11088	11094	11091	11089	2
11089	11090	11088	11096	2
11089	11100	11093	11090	2
11093	11092	11090	11098	2
11092	11099	11093	11091	2
11091	11088	11092	11097	2
11099	415	11092	11101	2
11094	8310	11088	11095	2
11100	13763	11090	11102	2
11117	11123	11120	11118	2
11118	11117	11119	11125	2
11122	11129	11118	11119	2
11122	11121	11119	11127	2
11120	11128	11122	11121	2
11120	11121	11117	11126	2
11128	13777	11121	11130	2
11123	11113	11117	11124	2
11129	4376	11119	11131	2
11149	11152	11147	11146	2
11147	11148	11146	11154	2
11147	11158	11151	11148	2
11151	11148	11150	11156	2
11151	11157	11149	11150	2
11149	11150	11146	11155	2
11157	11609	11150	11159	2
11152	11142	11146	11153	2
11158	11299	11148	11160	2
2598	2601	2596	2595	2
2596	2595	2597	2603	2
2596	2607	2600	2597	2
2600	2597	2599	2605	2
2598	2606	2600	2599	2
2598	2599	2595	2604	2
2606	8601	2599	2608	2
2601	2624	2595	2602	2
2607	2610	2597	2609	2
11162	11167	11164	11161	2
11162	11163	11161	11169	2
11163	11173	11162	11166	2
11166	11163	11165	11171	2
11166	11172	11164	11165	2
11164	11165	11161	11170	2
11172	3746	11165	11174	2
11167	6983	11161	11168	2
11173	3761	11163	11175	2
11177	11182	11179	11176	2
11179	11176	11180	11185	2
11181	11187	11179	11180	2
11181	11180	11178	11186	2
11181	11188	11177	11178	2
11177	11178	11176	11184	2
11188	7100	11178	11190	2
11182	129	11176	11183	2
11187	3776	11180	11189	2


[ moleculetype ]
; Name	nrexcl
MOL2	3

[ atoms ]
;nr	type	resnr	residue	atom	cgnr	charge	mass
1	CB	1	TMC1	C1	1	0.0862	12.011
2	CB	1	TMC1	C2	1	-0.15	12.011
3	CB	1	TMC1	C3	1	0.0862	12.011
4	CB	1	TMC1	C4	1	-0.15	12.011
5	CB	1	TMC1	C5	1	0.0862	12.011
6	CB	1	TMC1	C6	1	-0.15	12.011
7	C=O	1	TMC1	C	1	0.5438	12.011
8	O=C	1	TMC1	O	1	-0.57	15.9994
9	HCMM	1	TMC1	H	1	0.15	1.0079
10	HCMM	1	TMC1	H1	1	0.15	1.0079
11	HCMM	1	TMC1	H2	1	0.15	1.0079
12	C=O	1	TMC1	C7	1	0.6338	12.011
13	C=O	1	TMC1	C8	1	0.6338	12.011
14	O=C	1	TMC1	O1	1	-0.57	15.9994
15	O=C	1	TMC1	O2	1	-0.57	15.9994
16	OR	1	TMC1	O3	1	-0.65	15.9994
17	HOCO	1	TMC1	H3	1	0.5	1.0079
18	OR	1	TMC1	O5	1	-0.65	15.9994
19	HOCO	1	TMC1	H5	1	0.5	1.0079
20	CB	2	MPD2	C	1	-0.15	12.011
21	CB	2	MPD2	C1	1	0.117	12.011
22	CB	2	MPD2	C2	1	-0.15	12.011
23	CB	2	MPD2	C3	1	0.117	12.011
24	CB	2	MPD2	C4	1	-0.15	12.011
25	CB	2	MPD2	C5	1	-0.15	12.011
26	HCMM	2	MPD2	H	1	0.15	1.0079
27	HCMM	2	MPD2	H1	1	0.15	1.0079
28	HCMM	2	MPD2	H2	1	0.15	1.0079
29	HCMM	2	MPD2	H3	1	0.15	1.0079
30	NC=O	2	MPD2	N	1	-0.547	14.0067
31	HNCO	2	MPD2	H5	1	0.37	1.0079
32	NC=O	2	MPD2	N1	1	-0.547	14.0067
33	HNCO	2	MPD2	H7	1	0.37	1.0079
34	CB	3	TMC2	C1	1	0.0862	12.011
35	CB	3	TMC2	C2	1	-0.15	12.011
36	CB	3	TMC2	C3	1	0.0862	12.011
37	CB	3	TMC2	C4	1	-0.15	12.011
38	CB	3	TMC2	C5	1	0.0862	12.011
39	CB	3	TMC2	C6	1	-0.15	12.011
40	C=O	3	TMC2	C	1	0.5438	12.011
41	O=C	3	TMC2	O	1	-0.57	15.9994
42	HCMM	3	TMC2	H	1	0.15	1.0079
43	HCMM	3	TMC2	H1	1	0.15	1.0079
44	HCMM	3	TMC2	H2	1	0.15	1.0079
45	C=O	3	TMC2	C7	1	0.5438	12.011
46	C=O	3	TMC2	C8	1	0.6338	12.011
47	O=C	3	TMC2	O1	1	-0.57	15.9994
48	O=C	3	TMC2	O2	1	-0.57	15.9994
49	OR	3	TMC2	O5	1	-0.65	15.9994
50	HOCO	3	TMC2	H5	1	0.5	1.0079
51	CB	4	TMC2	C1	1	0.0862	12.011
52	CB	4	TMC2	C2	1	-0.15	12.011
53	CB	4	TMC2	C3	1	0.0862	12.011
54	CB	4	TMC2	C4	1	-0.15	12.011
55	CB	4	TMC2	C5	1	0.0862	12.011
56	CB	4	TMC2	C6	1	-0.15	12.011
57	C=O	4	TMC2	C	1	0.5438	12.011
58	O=C	4	TMC2	O	1	-0.57	15.9994
59	HCMM	4	TMC2	H	1	0.15	1.0079
60	HCMM	4	TMC2	H1	1	0.15	1.0079
61	HCMM	4	TMC2	H2	1	0.15	1.0079
62	C=O	4	TMC2	C7	1	0.5438	12.011
63	C=O	4	TMC2	C8	1	0.6338	12.011
64	O=C	4	TMC2	O1	1	-0.57	15.9994
65	O=C	4	TMC2	O2	1	-0.57	15.9994
66	OR	4	TMC2	O5	1	-0.65	15.9994
67	HOCO	4	TMC2	H5	1	0.5	1.0079
68	CB	5	MPD2	C	1	-0.15	12.011
69	CB	5	MPD2	C1	1	0.117	12.011
70	CB	5	MPD2	C2	1	-0.15	12.011
71	CB	5	MPD2	C3	1	0.117	12.011
72	CB	5	MPD2	C4	1	-0.15	12.011
73	CB	5	MPD2	C5	1	-0.15	12.011
74	HCMM	5	MPD2	H	1	0.15	1.0079
75	HCMM	5	MPD2	H1	1	0.15	1.0079
76	HCMM	5	MPD2	H2	1	0.15	1.0079
77	HCMM	5	MPD2	H3	1	0.15	1.0079
78	NC=O	5	MPD2	N	1	-0.547	14.0067
79	HNCO	5	MPD2	H5	1	0.37	1.0079
80	NC=O	5	MPD2	N1	1	-0.547	14.0067
81	HNCO	5	MPD2	H7	1	0.37	1.0079
82	CB	6	MPD1	C	1	-0.15	12.011
83	CB	6	MPD1	C1	1	0.1	12.011
84	CB	6	MPD1	C2	1	-0.15	12.011
85	CB	6	MPD1	C3	1	0.117	12.011
86	CB	6	MPD1	C4	1	-0.15	12.011
87	CB	6	MPD1	C5	1	-0.15	12.011
88	HCMM	6	MPD1	H	1	0.15	1.0079
89	HCMM	6	MPD1	H1	1	0.15	1.0079
90	HCMM	6	MPD1	H2	1	0.15	1.0079
91	HCMM	6	MPD1	H3	1	0.15	1.0079
92	NC=O	6	MPD1	N	1	-0.547	14.0067
93	HNCO	6	MPD1	H5	1	0.37	1.0079
94	NC=C	6	MPD1	N1	1	-0.9	14.0067
95	HNCO	6	MPD1	H6	1	0.4	1.0079
96	HNCO	6	MPD1	H7	1	0.4	1.0079
97	CB	7	MPD2	C	1	-0.15	12.011
98	CB	7	MPD2	C1	1	0.117	12.011
99	CB	7	MPD2	C2	1	-0.15	12.011
100	CB	7	MPD2	C3	1	0.117	12.011
101	CB	7	MPD2	C4	1	-0.15	12.011
102	CB	7	MPD2	C5	1	-0.15	12.011
103	HCMM	7	MPD2	H	1	0.15	1.0079
104	HCMM	7	MPD2	H1	1	0.15	1.0079
105	HCMM	7	MPD2	H2	1	0.15	1.0079
106	HCMM	7	MPD2	H3	1	0.15	1.0079
107	NC=O	7	MPD2	N	1	-0.547	14.0067
108	HNCO	7	MPD2	H5	1	0.37	1.0079
109	NC=O	7	MPD2	N1	1	-0.547	14.0067
110	HNCO	7	MPD2	H7	1	0.37	1.0079
111	CB	8	TMC3	C1	1	0.0862	12.011
112	CB	8	TMC3	C2	1	-0.15	12.011
113	CB	8	TMC3	C3	1	0.0862	12.011
114	CB	8	TMC3	C4	1	-0.15	12.011
115	CB	8	TMC3	C5	1	0.0862	12.011
116	CB	8	TMC3	C6	1	-0.15	12.011
117	C=O	8	TMC3	C	1	0.5438	12.011
118	O=C	8	TMC3	O	1	-0.57	15.9994
119	HCMM	8	TMC3	H	1	0.15	1.0079
120	HCMM	8	TMC3	H1	1	0.15	1.0079
121	HCMM	8	TMC3	H2	1	0.15	1.0079
122	C=O	8	TMC3	C7	1	0.5438	12.011
123	C=O	8	TMC3	C8	1	0.5438	12.011
124	O=C	8	TMC3	O1	1	-0.57	15.9994
125	O=C	8	TMC3	O2	1	-0.57	15.9994
126	CB	9	TMC3	C1	1	0.0862	12.011
127	CB	9	TMC3	C2	1	-0.15	12.011
128	CB	9	TMC3	C3	1	0.0862	12.011
129	CB	9	TMC3	C4	1	-0.15	12.011
130	CB	9	TMC3	C5	1	0.0862	12.011
131	CB	9	TMC3	C6	1	-0.15	12.011
132	C=O	9	TMC3	C	1	0.5438	12.011
133	O=C	9	TMC3	O	1	-0.57	15.9994
134	HCMM	9	TMC3	H	1	0.15	1.0079
135	HCMM	9	TMC3	H1	1	0.15	1.0079
136	HCMM	9	TMC3	H2	1	0.15	1.0079
137	C=O	9	TMC3	C7	1	0.5438	12.011
138	C=O	9	TMC3	C8	1	0.5438	12.011
139	O=C	9	TMC3	O1	1	-0.57	15.9994
140	O=C	9	TMC3	O2	1	-0.57	15.9994
141	CB	10	MPD2	C	1	-0.15	12.011
142	CB	10	MPD2	C1	1	0.117	12.011
143	CB	10	MPD2	C2	1	-0.15	12.011
144	CB	10	MPD2	C3	1	0.117	12.011
145	CB	10	MPD2	C4	1	-0.15	12.011
146	CB	10	MPD2	C5	1	-0.15	12.011
147	HCMM	10	MPD2	H	1	0.15	1.0079
148	HCMM	10	MPD2	H1	1	0.15	1.0079
149	HCMM	10	MPD2	H2	1	0.15	1.0079
150	HCMM	10	MPD2	H3	1	0.15	1.0079
151	NC=O	10	MPD2	N	1	-0.547	14.0067
152	HNCO	10	MPD2	H5	1	0.37	1.0079
153	NC=O	10	MPD2	N1	1	-0.547	14.0067
154	HNCO	10	MPD2	H7	1	0.37	1.0079
155	CB	11	MPD2	C	1	-0.15	12.011
156	CB	11	MPD2	C1	1	0.117	12.011
157	CB	11	MPD2	C2	1	-0.15	12.011
158	CB	11	MPD2	C3	1	0.117	12.011
159	CB	11	MPD2	C4	1	-0.15	12.011
160	CB	11	MPD2	C5	1	-0.15	12.011
161	HCMM	11	MPD2	H	1	0.15	1.0079
162	HCMM	11	MPD2	H1	1	0.15	1.0079
163	HCMM	11	MPD2	H2	1	0.15	1.0079
164	HCMM	11	MPD2	H3	1	0.15	1.0079
165	NC=O	11	MPD2	N	1	-0.547	14.0067
166	HNCO	11	MPD2	H5	1	0.37	1.0079
167	NC=O	11	MPD2	N1	1	-0.547	14.0067
168	HNCO	11	MPD2	H7	1	0.37	1.0079

[ bonds ]
142	153	1
153	154	1
153	122	1
144	151	1
151	152	1
151	138	1
142	143	1
141	142	1
143	144	1
144	145	1
143	147	1
141	146	1
141	149	1
145	146	1
145	148	1
146	150	1
71	78	1
78	79	1
57	78	1
69	80	1
80	81	1
80	123	1
70	71	1
71	72	1
69	70	1
68	69	1
70	74	1
72	73	1
72	75	1
68	73	1
68	76	1
73	77	1
21	32	1
32	33	1
40	32	1
23	30	1
30	31	1
7	30	1
21	22	1
20	21	1
22	23	1
23	24	1
22	26	1
20	25	1
20	28	1
24	25	1
24	27	1
25	29	1
156	167	1
167	168	1
45	167	1
158	165	1
165	166	1
62	165	1
156	157	1
155	156	1
157	158	1
158	159	1
157	161	1
155	160	1
155	163	1
159	160	1
159	162	1
160	164	1
98	109	1
109	110	1
109	137	1
100	107	1
107	108	1
107	117	1
98	99	1
97	98	1
99	100	1
100	101	1
99	103	1
97	102	1
97	105	1
101	102	1
101	104	1
102	106	1
83	94	1
94	95	1
94	96	1
85	92	1
92	93	1
92	132	1
83	84	1
82	83	1
84	85	1
85	86	1
84	88	1
82	87	1
82	90	1
86	87	1
86	89	1
87	91	1
51	52	1
51	54	1
51	57	1
52	53	1
52	59	1
53	56	1
53	63	1
55	56	1
56	61	1
54	55	1
55	62	1
54	60	1
62	64	1
57	58	1
63	65	1
63	66	1
66	67	1
35	36	1
36	39	1
36	46	1
34	35	1
35	42	1
34	37	1
34	40	1
37	38	1
37	43	1
38	39	1
38	45	1
39	44	1
45	47	1
46	48	1
46	49	1
40	41	1
49	50	1
126	129	1
126	127	1
126	132	1
129	130	1
129	135	1
130	131	1
130	137	1
128	131	1
131	136	1
127	128	1
128	138	1
127	134	1
138	140	1
132	133	1
137	139	1
111	112	1
111	114	1
111	117	1
112	113	1
112	119	1
113	116	1
113	123	1
115	116	1
116	121	1
114	115	1
115	122	1
114	120	1
122	124	1
117	118	1
123	125	1
2	3	1
3	6	1
3	13	1
1	2	1
2	9	1
1	4	1
1	7	1
4	5	1
4	10	1
5	6	1
5	12	1
6	11	1
12	14	1
12	16	1
13	15	1
13	18	1
7	8	1
16	17	1
18	19	1

[ angles ]
143	142	153	1
141	142	153	1
153	122	115	1
153	122	124	1
143	144	151	1
145	144	151	1
151	138	128	1
151	138	140	1
142	153	154	1
142	153	122	1
142	143	144	1
142	143	147	1
142	141	146	1
142	141	149	1
144	151	152	1
144	151	138	1
144	143	147	1
144	145	146	1
144	145	148	1
141	142	143	1
143	144	145	1
141	146	145	1
141	146	150	1
145	146	150	1
146	141	149	1
146	145	148	1
154	153	122	1
152	151	138	1
70	71	78	1
72	71	78	1
51	57	78	1
58	57	78	1
70	69	80	1
68	69	80	1
80	123	113	1
80	123	125	1
71	78	79	1
57	78	71	1
69	70	71	1
71	70	74	1
71	72	73	1
71	72	75	1
69	80	81	1
69	80	123	1
69	70	74	1
69	68	73	1
69	68	76	1
70	71	72	1
68	69	70	1
68	73	72	1
72	73	77	1
68	73	77	1
73	72	75	1
73	68	76	1
57	78	79	1
81	80	123	1
22	21	32	1
20	21	32	1
34	40	32	1
41	40	32	1
22	23	30	1
24	23	30	1
1	7	30	1
8	7	30	1
21	32	33	1
40	32	21	1
21	22	23	1
21	22	26	1
21	20	25	1
21	20	28	1
23	30	31	1
7	30	23	1
23	22	26	1
23	24	25	1
23	24	27	1
20	21	22	1
22	23	24	1
20	25	24	1
20	25	29	1
24	25	29	1
25	20	28	1
25	24	27	1
40	32	33	1
7	30	31	1
157	156	167	1
155	156	167	1
38	45	167	1
47	45	167	1
157	158	165	1
159	158	165	1
55	62	165	1
64	62	165	1
156	167	168	1
45	167	156	1
156	157	158	1
156	157	161	1
156	155	160	1
156	155	163	1
158	165	166	1
62	165	158	1
158	157	161	1
158	159	160	1
158	159	162	1
155	156	157	1
157	158	159	1
155	160	159	1
155	160	164	1
159	160	164	1
160	155	163	1
160	159	162	1
45	167	168	1
62	165	166	1
99	98	109	1
97	98	109	1
109	137	130	1
109	137	139	1
99	100	107	1
101	100	107	1
107	117	111	1
107	117	118	1
98	109	110	1
98	109	137	1
98	99	100	1
98	99	103	1
98	97	102	1
98	97	105	1
100	107	108	1
100	107	117	1
100	99	103	1
100	101	102	1
100	101	104	1
97	98	99	1
99	100	101	1
97	102	101	1
97	102	106	1
101	102	106	1
102	97	105	1
102	101	104	1
110	109	137	1
108	107	117	1
84	83	94	1
82	83	94	1
84	85	92	1
86	85	92	1
92	132	126	1
92	132	133	1
83	94	95	1
83	94	96	1
83	84	85	1
83	84	88	1
83	82	87	1
83	82	90	1
85	92	93	1
85	92	132	1
85	84	88	1
85	86	87	1
85	86	89	1
82	83	84	1
84	85	86	1
82	87	86	1
82	87	91	1
86	87	91	1
87	82	90	1
87	86	89	1
95	94	96	1
93	92	132	1
51	52	53	1
51	52	59	1
51	54	55	1
51	54	60	1
51	57	58	1
52	53	56	1
52	53	63	1
52	51	54	1
52	51	57	1
53	52	59	1
53	56	55	1
53	56	61	1
53	63	65	1
53	63	66	1
56	53	63	1
54	55	56	1
56	55	62	1
55	56	61	1
55	54	60	1
55	62	64	1
54	55	62	1
54	51	57	1
63	66	67	1
65	63	66	1
34	35	36	1
36	35	42	1
36	39	38	1
36	39	44	1
36	46	48	1
36	46	49	1
35	34	37	1
35	34	40	1
35	36	39	1
35	36	46	1
34	35	42	1
34	37	38	1
34	37	43	1
34	40	41	1
37	34	40	1
37	38	39	1
37	38	45	1
38	37	43	1
38	39	44	1
38	45	47	1
39	38	45	1
39	36	46	1
46	49	50	1
48	46	49	1
126	129	130	1
126	129	135	1
126	127	128	1
126	127	134	1
126	132	133	1
129	130	131	1
129	130	137	1
127	126	129	1
129	126	132	1
130	129	135	1
128	131	130	1
130	131	136	1
130	137	139	1
131	130	137	1
127	128	131	1
131	128	138	1
128	131	136	1
128	127	134	1
128	138	140	1
127	128	138	1
127	126	132	1
111	112	113	1
111	112	119	1
111	114	115	1
111	114	120	1
111	117	118	1
112	113	116	1
112	113	123	1
112	111	114	1
112	111	117	1
113	112	119	1
113	116	115	1
113	116	121	1
113	123	125	1
116	113	123	1
114	115	116	1
116	115	122	1
115	116	121	1
115	114	120	1
115	122	124	1
114	115	122	1
114	111	117	1
1	2	3	1
3	2	9	1
5	6	3	1
3	6	11	1
3	13	15	1
3	13	18	1
4	1	2	1
2	1	7	1
2	3	6	1
2	3	13	1
1	2	9	1
1	4	5	1
1	4	10	1
1	7	8	1
4	1	7	1
4	5	6	1
4	5	12	1
5	4	10	1
5	6	11	1
5	12	14	1
5	12	16	1
6	5	12	1
6	3	13	1
12	16	17	1
13	18	19	1
14	12	16	1
15	13	18	1

[ dihedrals ]
144	143	142	153	9
147	143	142	153	9
146	141	142	153	9
149	141	142	153	9
153	122	115	116	9
153	122	115	114	9
142	143	144	151	9
147	143	144	151	9
146	145	144	151	9
148	145	144	151	9
151	138	128	131	9
151	138	128	127	9
142	153	122	115	9
142	153	122	124	9
142	143	144	145	9
142	141	146	145	9
142	141	146	150	9
144	151	138	128	9
144	151	138	140	9
141	142	143	144	9
141	146	145	144	9
144	145	146	150	9
143	142	153	154	9
143	142	153	122	9
143	142	141	146	9
143	142	141	149	9
143	144	151	152	9
143	144	151	138	9
143	144	145	146	9
143	144	145	148	9
141	142	153	154	9
141	142	153	122	9
141	142	143	147	9
141	146	145	148	9
145	144	151	152	9
145	144	151	138	9
145	144	143	147	9
145	146	141	149	9
149	141	146	150	9
148	145	146	150	9
154	153	122	115	9
154	153	122	124	9
152	151	138	128	9
152	151	138	140	9
69	70	71	78	9
74	70	71	78	9
73	72	71	78	9
75	72	71	78	9
52	51	57	78	9
54	51	57	78	9
71	70	69	80	9
74	70	69	80	9
73	68	69	80	9
76	68	69	80	9
80	123	113	112	9
80	123	113	116	9
51	57	78	71	9
58	57	78	71	9
68	69	70	71	9
68	73	72	71	9
71	72	73	77	9
69	80	123	113	9
69	80	123	125	9
69	70	71	72	9
69	68	73	72	9
69	68	73	77	9
70	71	78	79	9
57	78	71	70	9
70	71	72	73	9
70	71	72	75	9
70	69	80	81	9
70	69	80	123	9
70	69	68	73	9
70	69	68	76	9
72	71	78	79	9
57	78	71	72	9
72	71	70	74	9
72	73	68	76	9
68	69	80	81	9
68	69	80	123	9
68	69	70	74	9
68	73	72	75	9
75	72	73	77	9
76	68	73	77	9
51	57	78	79	9
58	57	78	79	9
81	80	123	113	9
81	80	123	125	9
23	22	21	32	9
26	22	21	32	9
25	20	21	32	9
28	20	21	32	9
35	34	40	32	9
37	34	40	32	9
21	22	23	30	9
26	22	23	30	9
25	24	23	30	9
27	24	23	30	9
2	1	7	30	9
4	1	7	30	9
34	40	32	21	9
41	40	32	21	9
21	22	23	24	9
21	20	25	24	9
21	20	25	29	9
1	7	30	23	9
8	7	30	23	9
20	21	22	23	9
20	25	24	23	9
23	24	25	29	9
22	21	32	33	9
40	32	21	22	9
22	21	20	25	9
22	21	20	28	9
22	23	30	31	9
7	30	23	22	9
22	23	24	25	9
22	23	24	27	9
20	21	32	33	9
40	32	21	20	9
20	21	22	26	9
20	25	24	27	9
24	23	30	31	9
7	30	23	24	9
24	23	22	26	9
24	25	20	28	9
28	20	25	29	9
27	24	25	29	9
34	40	32	33	9
41	40	32	33	9
1	7	30	31	9
8	7	30	31	9
158	157	156	167	9
161	157	156	167	9
160	155	156	167	9
163	155	156	167	9
37	38	45	167	9
39	38	45	167	9
156	157	158	165	9
161	157	158	165	9
160	159	158	165	9
162	159	158	165	9
56	55	62	165	9
54	55	62	165	9
38	45	167	156	9
47	45	167	156	9
156	157	158	159	9
156	155	160	159	9
156	155	160	164	9
55	62	165	158	9
64	62	165	158	9
155	156	157	158	9
155	160	159	158	9
158	159	160	164	9
157	156	167	168	9
45	167	156	157	9
157	156	155	160	9
157	156	155	163	9
157	158	165	166	9
62	165	158	157	9
157	158	159	160	9
157	158	159	162	9
155	156	167	168	9
45	167	156	155	9
155	156	157	161	9
155	160	159	162	9
159	158	165	166	9
62	165	158	159	9
159	158	157	161	9
159	160	155	163	9
163	155	160	164	9
162	159	160	164	9
38	45	167	168	9
47	45	167	168	9
55	62	165	166	9
64	62	165	166	9
100	99	98	109	9
103	99	98	109	9
102	97	98	109	9
105	97	98	109	9
109	137	130	129	9
109	137	130	131	9
98	99	100	107	9
103	99	100	107	9
102	101	100	107	9
104	101	100	107	9
107	117	111	112	9
107	117	111	114	9
98	109	137	130	9
98	109	137	139	9
98	99	100	101	9
98	97	102	101	9
98	97	102	106	9
100	107	117	111	9
100	107	117	118	9
97	98	99	100	9
97	102	101	100	9
100	101	102	106	9
99	98	109	110	9
99	98	109	137	9
99	98	97	102	9
99	98	97	105	9
99	100	107	108	9
99	100	107	117	9
99	100	101	102	9
99	100	101	104	9
97	98	109	110	9
97	98	109	137	9
97	98	99	103	9
97	102	101	104	9
101	100	107	108	9
101	100	107	117	9
101	100	99	103	9
101	102	97	105	9
105	97	102	106	9
104	101	102	106	9
110	109	137	130	9
110	109	137	139	9
108	107	117	111	9
108	107	117	118	9
85	84	83	94	9
88	84	83	94	9
87	82	83	94	9
90	82	83	94	9
83	84	85	92	9
88	84	85	92	9
87	86	85	92	9
89	86	85	92	9
92	132	126	129	9
92	132	126	127	9
83	84	85	86	9
83	82	87	86	9
83	82	87	91	9
85	92	132	126	9
85	92	132	133	9
82	83	84	85	9
82	87	86	85	9
85	86	87	91	9
84	83	94	95	9
84	83	94	96	9
84	83	82	87	9
84	83	82	90	9
84	85	92	93	9
84	85	92	132	9
84	85	86	87	9
84	85	86	89	9
82	83	94	95	9
82	83	94	96	9
82	83	84	88	9
82	87	86	89	9
86	85	92	93	9
86	85	92	132	9
86	85	84	88	9
86	87	82	90	9
90	82	87	91	9
89	86	87	91	9
93	92	132	126	9
93	92	132	133	9
51	52	53	56	9
51	52	53	63	9
51	54	55	56	9
51	54	55	62	9
52	53	56	55	9
52	53	56	61	9
52	53	63	65	9
52	53	63	66	9
52	51	54	55	9
52	51	54	60	9
52	51	57	58	9
53	52	51	54	9
53	52	51	57	9
53	56	55	54	9
53	56	55	62	9
53	63	66	67	9
56	53	52	59	9
56	53	63	65	9
56	53	63	66	9
56	55	54	60	9
56	55	62	64	9
55	56	53	63	9
55	54	51	57	9
54	55	56	61	9
54	55	62	64	9
54	51	52	59	9
54	51	57	58	9
61	56	55	62	9
60	54	55	62	9
57	51	52	59	9
57	51	54	60	9
59	52	53	63	9
61	56	53	63	9
65	63	66	67	9
36	35	34	37	9
36	35	34	40	9
36	39	38	37	9
36	39	38	45	9
36	46	49	50	9
35	34	37	38	9
35	34	37	43	9
35	34	40	41	9
35	36	39	38	9
35	36	39	44	9
35	36	46	48	9
35	36	46	49	9
34	35	36	39	9
34	35	36	46	9
34	37	38	39	9
34	37	38	45	9
37	34	35	42	9
37	34	40	41	9
37	38	39	44	9
37	38	45	47	9
38	37	34	40	9
38	39	36	46	9
39	38	37	43	9
39	38	45	47	9
39	36	35	42	9
39	36	46	48	9
39	36	46	49	9
43	37	38	45	9
44	39	38	45	9
42	35	36	46	9
44	39	36	46	9
40	34	35	42	9
40	34	37	43	9
48	46	49	50	9
126	129	130	131	9
126	129	130	137	9
126	127	128	131	9
126	127	128	138	9
128	131	130	129	9
129	130	131	136	9
129	130	137	139	9
128	127	126	129	9
129	126	127	134	9
129	126	132	133	9
127	126	129	130	9
130	129	126	132	9
127	128	131	130	9
130	131	128	138	9
131	130	129	135	9
131	130	137	139	9
131	128	127	134	9
131	128	138	140	9
128	131	130	137	9
128	127	126	132	9
127	128	131	136	9
127	128	138	140	9
127	126	129	135	9
127	126	132	133	9
136	131	128	138	9
134	127	128	138	9
132	126	129	135	9
132	126	127	134	9
135	129	130	137	9
136	131	130	137	9
111	112	113	116	9
111	112	113	123	9
111	114	115	116	9
111	114	115	122	9
112	113	116	115	9
112	113	116	121	9
112	113	123	125	9
112	111	114	115	9
112	111	114	120	9
112	111	117	118	9
113	112	111	114	9
113	112	111	117	9
113	116	115	114	9
113	116	115	122	9
116	113	112	119	9
116	113	123	125	9
116	115	114	120	9
116	115	122	124	9
115	116	113	123	9
115	114	111	117	9
114	115	116	121	9
114	115	122	124	9
114	111	112	119	9
114	111	117	118	9
121	116	115	122	9
120	114	115	122	9
117	111	112	119	9
117	111	114	120	9
119	112	113	123	9
121	116	113	123	9
4	1	2	3	9
3	2	1	7	9
4	5	6	3	9
3	6	5	12	9
3	13	18	19	9
5	4	1	2	9
2	1	4	10	9
2	1	7	8	9
5	6	3	2	9
2	3	6	11	9
2	3	13	15	9
2	3	13	18	9
1	2	3	6	9
1	2	3	13	9
1	4	5	6	9
1	4	5	12	9
4	1	2	9	9
4	1	7	8	9
4	5	6	11	9
4	5	12	14	9
4	5	12	16	9
5	4	1	7	9
5	6	3	13	9
5	12	16	17	9
6	5	4	10	9
6	5	12	14	9
6	5	12	16	9
6	3	2	9	9
6	3	13	15	9
6	3	13	18	9
10	4	5	12	9
11	6	5	12	9
9	2	3	13	9
11	6	3	13	9
7	1	2	9	9
7	1	4	10	9
14	12	16	17	9
15	13	18	19	9
154	122	142	153	2
152	138	144	151	2
143	141	153	142	2
144	145	151	143	2
143	142	144	147	2
141	146	142	149	2
145	146	144	148	2
146	145	141	150	2
79	57	71	78	2
81	123	69	80	2
72	70	78	71	2
70	68	80	69	2
70	71	69	74	2
72	71	73	75	2
68	69	73	76	2
73	72	68	77	2
33	40	21	32	2
31	7	23	30	2
20	22	32	21	2
24	22	30	23	2
22	21	23	26	2
20	25	21	28	2
24	25	23	27	2
25	24	20	29	2
168	45	156	167	2
166	62	158	165	2
155	157	167	156	2
157	159	165	158	2
157	156	158	161	2
155	160	156	163	2
159	160	158	162	2
160	159	155	164	2
110	137	98	109	2
108	117	100	107	2
98	97	109	99	2
99	101	107	100	2
99	98	100	103	2
97	102	98	105	2
101	102	100	104	2
102	97	101	106	2
96	83	95	94	2
93	132	85	92	2
84	82	94	83	2
85	86	92	84	2
84	83	85	88	2
82	87	83	90	2
86	87	85	89	2
87	86	82	91	2
54	57	52	51	2
52	53	51	59	2
53	63	56	52	2
56	55	53	61	2
54	62	56	55	2
54	51	55	60	2
62	165	55	64	2
57	78	51	58	2
63	66	53	65	2
35	46	39	36	2
35	34	36	42	2
35	40	37	34	2
37	34	38	43	2
39	45	37	38	2
39	36	38	44	2
45	167	38	47	2
46	49	36	48	2
40	32	34	41	2
129	132	127	126	2
129	126	130	135	2
130	137	129	131	2
131	128	130	136	2
131	138	127	128	2
127	128	126	134	2
138	151	128	140	2
132	92	126	133	2
137	109	130	139	2
111	117	112	114	2
112	113	111	119	2
113	123	116	112	2
116	115	113	121	2
116	122	114	115	2
114	111	115	120	2
122	153	115	124	2
117	107	111	118	2
123	80	113	125	2
2	13	6	3	2
2	3	1	9	2
1	7	2	4	2
4	5	1	10	2
5	12	4	6	2
6	5	3	11	2
12	16	5	14	2
13	18	3	15	2
7	30	1	8	2


[ moleculetype ]
; Name	nrexcl
MOL3	3

[ atoms ]
;nr	type	resnr	residue	atom	cgnr	charge	mass
1	CB	1	MPD1	C	1	-0.15	12.011
2	CB	1	MPD1	C1	1	0.1	12.011
3	CB	1	MPD1	C2	1	-0.15	12.011
4	CB	1	MPD1	C3	1	0.117	12.011
5	CB	1	MPD1	C4	1	-0.15	12.011
6	CB	1	MPD1	C5	1	-0.15	12.011
7	HCMM	1	MPD1	H	1	0.15	1.0079
8	HCMM	1	MPD1	H1	1	0.15	1.0079
9	HCMM	1	MPD1	H2	1	0.15	1.0079
10	HCMM	1	MPD1	H3	1	0.15	1.0079
11	NC=O	1	MPD1	N	1	-0.547	14.0067
12	HNCO	1	MPD1	H5	1	0.37	1.0079
13	NC=C	1	MPD1	N1	1	-0.9	14.0067
14	HNCO	1	MPD1	H6	1	0.4	1.0079
15	HNCO	1	MPD1	H7	1	0.4	1.0079
16	CB	2	MPD1	C	1	-0.15	12.011
17	CB	2	MPD1	C1	1	0.1	12.011
18	CB	2	MPD1	C2	1	-0.15	12.011
19	CB	2	MPD1	C3	1	0.117	12.011
20	CB	2	MPD1	C4	1	-0.15	12.011
21	CB	2	MPD1	C5	1	-0.15	12.011
22	HCMM	2	MPD1	H	1	0.15	1.0079
23	HCMM	2	MPD1	H1	1	0.15	1.0079
24	HCMM	2	MPD1	H2	1	0.15	1.0079
25	HCMM	2	MPD1	H3	1	0.15	1.0079
26	NC=O	2	MPD1	N	1	-0.547	14.0067
27	HNCO	2	MPD1	H5	1	0.37	1.0079
28	NC=C	2	MPD1	N1	1	-0.9	14.0067
29	HNCO	2	MPD1	H6	1	0.4	1.0079
30	HNCO	2	MPD1	H7	1	0.4	1.0079
31	CB	3	TMC3	C1	1	0.0862	12.011
32	CB	3	TMC3	C2	1	-0.15	12.011
33	CB	3	TMC3	C3	1	0.0862	12.011
34	CB	3	TMC3	C4	1	-0.15	12.011
35	CB	3	TMC3	C5	1	0.0862	12.011
36	CB	3	TMC3	C6	1	-0.15	12.011
37	C=O	3	TMC3	C	1	0.5438	12.011
38	O=C	3	TMC3	O	1	-0.57	15.9994
39	HCMM	3	TMC3	H	1	0.15	1.0079
40	HCMM	3	TMC3	H1	1	0.15	1.0079
41	HCMM	3	TMC3	H2	1	0.15	1.0079
42	C=O	3	TMC3	C7	1	0.5438	12.011
43	C=O	3	TMC3	C8	1	0.5438	12.011
44	O=C	3	TMC3	O1	1	-0.57	15.9994
45	O=C	3	TMC3	O2	1	-0.57	15.9994
46	CB	4	MPD1	C	1	-0.15	12.011
47	CB	4	MPD1	C1	1	0.1	12.011
48	CB	4	MPD1	C2	1	-0.15	12.011
49	CB	4	MPD1	C3	1	0.117	12.011
50	CB	4	MPD1	C4	1	-0.15	12.011
51	CB	4	MPD1	C5	1	-0.15	12.011
52	HCMM	4	MPD1	H	1	0.15	1.0079
53	HCMM	4	MPD1	H1	1	0.15	1.0079
54	HCMM	4	MPD1	H2	1	0.15	1.0079
55	HCMM	4	MPD1	H3	1	0.15	1.0079
56	NC=O	4	MPD1	N	1	-0.547	14.0067
57	HNCO	4	MPD1	H5	1	0.37	1.0079
58	NC=C	4	MPD1	N1	1	-0.9	14.0067
59	HNCO	4	MPD1	H6	1	0.4	1.0079
60	HNCO	4	MPD1	H7	1	0.4	1.0079

[ bonds ]
19	26	1
26	27	1
26	37	1
17	28	1
28	29	1
28	30	1
18	19	1
19	20	1
17	18	1
16	17	1
18	22	1
20	21	1
20	23	1
16	21	1
16	24	1
21	25	1
47	58	1
58	59	1
58	60	1
49	56	1
56	57	1
56	43	1
47	48	1
46	47	1
48	49	1
49	50	1
48	52	1
46	51	1
46	54	1
50	51	1
50	53	1
51	55	1
4	11	1
11	12	1
11	42	1
2	13	1
13	14	1
13	15	1
3	4	1
4	5	1
2	3	1
1	2	1
3	7	1
5	6	1
5	8	1
1	6	1
1	9	1
6	10	1
31	34	1
31	32	1
31	37	1
34	35	1
34	40	1
35	36	1
35	42	1
33	36	1
36	41	1
32	33	1
33	43	1
32	39	1
43	45	1
37	38	1
42	44	1

[ angles ]
18	19	26	1
20	19	26	1
26	37	31	1
26	37	38	1
18	17	28	1
16	17	28	1
19	26	27	1
19	26	37	1
17	18	19	1
19	18	22	1
19	20	21	1
19	20	23	1
17	28	29	1
17	28	30	1
17	18	22	1
17	16	21	1
17	16	24	1
18	19	20	1
16	17	18	1
16	21	20	1
20	21	25	1
16	21	25	1
21	20	23	1
21	16	24	1
27	26	37	1
29	28	30	1
48	47	58	1
46	47	58	1
48	49	56	1
50	49	56	1
56	43	33	1
56	43	45	1
47	58	59	1
47	58	60	1
47	48	49	1
47	48	52	1
47	46	51	1
47	46	54	1
49	56	57	1
49	56	43	1
49	48	52	1
49	50	51	1
49	50	53	1
46	47	48	1
48	49	50	1
46	51	50	1
46	51	55	1
50	51	55	1
51	46	54	1
51	50	53	1
59	58	60	1
57	56	43	1
3	4	11	1
5	4	11	1
11	42	35	1
11	42	44	1
3	2	13	1
1	2	13	1
4	11	12	1
4	11	42	1
2	3	4	1
4	3	7	1
4	5	6	1
4	5	8	1
2	13	14	1
2	13	15	1
2	3	7	1
2	1	6	1
2	1	9	1
3	4	5	1
1	2	3	1
1	6	5	1
5	6	10	1
1	6	10	1
6	5	8	1
6	1	9	1
12	11	42	1
14	13	15	1
31	34	35	1
31	34	40	1
31	32	33	1
31	32	39	1
31	37	38	1
34	35	36	1
34	35	42	1
32	31	34	1
34	31	37	1
35	34	40	1
33	36	35	1
35	36	41	1
35	42	44	1
36	35	42	1
32	33	36	1
36	33	43	1
33	36	41	1
33	32	39	1
33	43	45	1
32	33	43	1
32	31	37	1

[ dihedrals ]
17	18	19	26	9
22	18	19	26	9
21	20	19	26	9
23	20	19	26	9
26	37	31	34	9
26	37	31	32	9
19	18	17	28	9
22	18	17	28	9
21	16	17	28	9
24	16	17	28	9
19	26	37	31	9
19	26	37	38	9
16	17	18	19	9
16	21	20	19	9
19	20	21	25	9
17	18	19	20	9
17	16	21	20	9
17	16	21	25	9
18	19	26	27	9
18	19	26	37	9
18	19	20	21	9
18	19	20	23	9
18	17	28	29	9
18	17	28	30	9
18	17	16	21	9
18	17	16	24	9
20	19	26	27	9
20	19	26	37	9
20	19	18	22	9
20	21	16	24	9
16	17	28	29	9
16	17	28	30	9
16	17	18	22	9
16	21	20	23	9
23	20	21	25	9
24	16	21	25	9
27	26	37	31	9
27	26	37	38	9
49	48	47	58	9
52	48	47	58	9
51	46	47	58	9
54	46	47	58	9
47	48	49	56	9
52	48	49	56	9
51	50	49	56	9
53	50	49	56	9
56	43	33	36	9
56	43	33	32	9
47	48	49	50	9
47	46	51	50	9
47	46	51	55	9
49	56	43	33	9
49	56	43	45	9
46	47	48	49	9
46	51	50	49	9
49	50	51	55	9
48	47	58	59	9
48	47	58	60	9
48	47	46	51	9
48	47	46	54	9
48	49	56	57	9
48	49	56	43	9
48	49	50	51	9
48	49	50	53	9
46	47	58	59	9
46	47	58	60	9
46	47	48	52	9
46	51	50	53	9
50	49	56	57	9
50	49	56	43	9
50	49	48	52	9
50	51	46	54	9
54	46	51	55	9
53	50	51	55	9
57	56	43	33	9
57	56	43	45	9
2	3	4	11	9
7	3	4	11	9
6	5	4	11	9
8	5	4	11	9
11	42	35	34	9
11	42	35	36	9
4	3	2	13	9
7	3	2	13	9
6	1	2	13	9
9	1	2	13	9
4	11	42	35	9
4	11	42	44	9
1	2	3	4	9
1	6	5	4	9
4	5	6	10	9
2	3	4	5	9
2	1	6	5	9
2	1	6	10	9
3	4	11	12	9
3	4	11	42	9
3	4	5	6	9
3	4	5	8	9
3	2	13	14	9
3	2	13	15	9
3	2	1	6	9
3	2	1	9	9
5	4	11	12	9
5	4	11	42	9
5	4	3	7	9
5	6	1	9	9
1	2	13	14	9
1	2	13	15	9
1	2	3	7	9
1	6	5	8	9
8	5	6	10	9
9	1	6	10	9
12	11	42	35	9
12	11	42	44	9
31	34	35	36	9
31	34	35	42	9
31	32	33	36	9
31	32	33	43	9
33	36	35	34	9
34	35	36	41	9
34	35	42	44	9
33	32	31	34	9
34	31	32	39	9
34	31	37	38	9
32	31	34	35	9
35	34	31	37	9
32	33	36	35	9
35	36	33	43	9
36	35	34	40	9
36	35	42	44	9
36	33	32	39	9
36	33	43	45	9
33	36	35	42	9
33	32	31	37	9
32	33	36	41	9
32	33	43	45	9
32	31	34	40	9
32	31	37	38	9
41	36	33	43	9
39	32	33	43	9
37	31	34	40	9
37	31	32	39	9
40	34	35	42	9
41	36	35	42	9
27	37	19	26	2
29	17	30	28	2
19	18	26	20	2
16	18	28	17	2
18	19	17	22	2
20	19	21	23	2
16	17	21	24	2
21	20	16	25	2
60	47	59	58	2
57	43	49	56	2
46	48	58	47	2
50	48	56	49	2
48	49	47	52	2
46	51	47	54	2
50	51	49	53	2
51	50	46	55	2
12	42	4	11	2
15	2	14	13	2
4	5	11	3	2
3	1	13	2	2
3	4	2	7	2
5	6	4	8	2
1	2	6	9	2
6	5	1	10	2
31	37	32	34	2
34	35	31	40	2
35	42	34	36	2
36	33	35	41	2
32	43	36	33	2
32	33	31	39	2
43	56	33	45	2
37	26	31	38	2
42	11	35	44	2


[ moleculetype ]
; Name	nrexcl
MOL4	3

[ atoms ]
;nr	type	resnr	residue	atom	cgnr	charge	mass
1	OR	1	TCq1	O1	1	-0.65	15.9994
2	C=O	1	TCq1	C1	1	0.6338	12.011
3	O=C	1	TCq1	O2	1	-0.57	15.9994
4	CB	1	TCq1	C2	1	0.0862	12.011
5	CB	1	TCq1	C3	1	-0.15	12.011
6	CB	1	TCq1	C4	1	-0.179	12.011
7	CB	1	TCq1	C5	1	-0.15	12.011
8	CB	1	TCq1	C6	1	0.0862	12.011
9	CB	1	TCq1	C7	1	-0.15	12.011
10	C=O	1	TCq1	C8	1	0.5438	12.011
11	O=C	1	TCq1	O4	1	-0.57	15.9994
12	CO2M	1	TCq1	C9	1	0.979	12.011
13	O2CM	1	TCq1	O5	1	-0.9	15.9994
14	O2CM	1	TCq1	O6	1	-0.9	15.9994
15	HOCO	1	TCq1	H1	1	0.5	1.0079
16	HCMM	1	TCq1	H2	1	0.15	1.0079
17	HCMM	1	TCq1	H3	1	0.15	1.0079
18	HCMM	1	TCq1	H4	1	0.15	1.0079
19	CB	2	MPD1	C	1	-0.15	12.011
20	CB	2	MPD1	C1	1	0.1	12.011
21	CB	2	MPD1	C2	1	-0.15	12.011
22	CB	2	MPD1	C3	1	0.117	12.011
23	CB	2	MPD1	C4	1	-0.15	12.011
24	CB	2	MPD1	C5	1	-0.15	12.011
25	HCMM	2	MPD1	H	1	0.15	1.0079
26	HCMM	2	MPD1	H1	1	0.15	1.0079
27	HCMM	2	MPD1	H2	1	0.15	1.0079
28	HCMM	2	MPD1	H3	1	0.15	1.0079
29	NC=O	2	MPD1	N	1	-0.547	14.0067
30	HNCO	2	MPD1	H5	1	0.37	1.0079
31	NC=C	2	MPD1	N1	1	-0.9	14.0067
32	HNCO	2	MPD1	H6	1	0.4	1.0079
33	HNCO	2	MPD1	H7	1	0.4	1.0079

[ bonds ]
20	31	1
31	32	1
31	33	1
22	29	1
29	30	1
10	29	1
20	21	1
19	20	1
21	22	1
22	23	1
21	25	1
19	24	1
19	27	1
23	24	1
23	26	1
24	28	1
8	7	1
8	9	1
8	10	1
7	6	1
7	17	1
6	5	1
6	12	1
4	5	1
5	16	1
9	4	1
4	2	1
9	18	1
2	3	1
2	1	1
10	11	1
12	13	1
12	14	1
1	15	1

[ angles ]
21	20	31	1
19	20	31	1
21	22	29	1
23	22	29	1
8	10	29	1
11	10	29	1
20	31	32	1
20	31	33	1
20	21	22	1
20	21	25	1
20	19	24	1
20	19	27	1
22	29	30	1
10	29	22	1
22	21	25	1
22	23	24	1
22	23	26	1
19	20	21	1
21	22	23	1
19	24	23	1
19	24	28	1
23	24	28	1
24	19	27	1
24	23	26	1
32	31	33	1
10	29	30	1
8	7	6	1
8	7	17	1
8	9	4	1
8	9	18	1
8	10	11	1
7	6	5	1
7	6	12	1
7	8	9	1
7	8	10	1
6	7	17	1
6	5	4	1
6	5	16	1
6	12	13	1
6	12	14	1
5	6	12	1
9	4	5	1
5	4	2	1
4	5	16	1
4	9	18	1
4	2	3	1
4	2	1	1
9	4	2	1
9	8	10	1
2	1	15	1
3	2	1	1
13	12	14	1

[ dihedrals ]
22	21	20	31	9
25	21	20	31	9
24	19	20	31	9
27	19	20	31	9
20	21	22	29	9
25	21	22	29	9
24	23	22	29	9
26	23	22	29	9
7	8	10	29	9
9	8	10	29	9
20	21	22	23	9
20	19	24	23	9
20	19	24	28	9
8	10	29	22	9
11	10	29	22	9
19	20	21	22	9
19	24	23	22	9
22	23	24	28	9
21	20	31	32	9
21	20	31	33	9
21	20	19	24	9
21	20	19	27	9
21	22	29	30	9
10	29	22	21	9
21	22	23	24	9
21	22	23	26	9
19	20	31	32	9
19	20	31	33	9
19	20	21	25	9
19	24	23	26	9
23	22	29	30	9
10	29	22	23	9
23	22	21	25	9
23	24	19	27	9
27	19	24	28	9
26	23	24	28	9
8	10	29	30	9
11	10	29	30	9
8	7	6	5	9
8	7	6	12	9
8	9	4	5	9
8	9	4	2	9
7	6	5	4	9
7	6	5	16	9
7	6	12	13	9
7	6	12	14	9
7	8	9	4	9
7	8	9	18	9
7	8	10	11	9
6	7	8	9	9
6	7	8	10	9
6	5	4	9	9
6	5	4	2	9
5	6	7	17	9
5	6	12	13	9
5	6	12	14	9
5	4	9	18	9
5	4	2	3	9
5	4	2	1	9
4	5	6	12	9
4	9	8	10	9
4	2	1	15	9
9	4	5	16	9
9	4	2	3	9
9	4	2	1	9
9	8	7	17	9
9	8	10	11	9
16	5	4	2	9
18	9	4	2	9
10	8	7	17	9
10	8	9	18	9
17	7	6	12	9
16	5	6	12	9
3	2	1	15	9
33	20	32	31	2
30	10	22	29	2
19	21	31	20	2
23	21	29	22	2
21	22	20	25	2
19	24	20	27	2
23	22	24	26	2
24	23	19	28	2
7	10	9	8	2
7	8	6	17	2
7	5	6	12	2
4	6	5	16	2
9	2	5	4	2
9	4	8	18	2
2	1	4	3	2
10	29	8	11	2
12	14	6	13	2


[ moleculetype ]
; Name	nrexcl
MOL5	3

[ atoms ]
;nr	type	resnr	residue	atom	cgnr	charge	mass
1	CB	1	TMC1	C1	1	0.0862	12.011
2	CB	1	TMC1	C2	1	-0.15	12.011
3	CB	1	TMC1	C3	1	0.0862	12.011
4	CB	1	TMC1	C4	1	-0.15	12.011
5	CB	1	TMC1	C5	1	0.0862	12.011
6	CB	1	TMC1	C6	1	-0.15	12.011
7	C=O	1	TMC1	C	1	0.5438	12.011
8	O=C	1	TMC1	O	1	-0.57	15.9994
9	HCMM	1	TMC1	H	1	0.15	1.0079
10	HCMM	1	TMC1	H1	1	0.15	1.0079
11	HCMM	1	TMC1	H2	1	0.15	1.0079
12	C=O	1	TMC1	C7	1	0.6338	12.011
13	C=O	1	TMC1	C8	1	0.6338	12.011
14	O=C	1	TMC1	O1	1	-0.57	15.9994
15	O=C	1	TMC1	O2	1	-0.57	15.9994
16	OR	1	TMC1	O3	1	-0.65	15.9994
17	HOCO	1	TMC1	H3	1	0.5	1.0079
18	OR	1	TMC1	O5	1	-0.65	15.9994
19	HOCO	1	TMC1	H5	1	0.5	1.0079
20	CB	2	MPD1	C	1	-0.15	12.011
21	CB	2	MPD1	C1	1	0.1	12.011
22	CB	2	MPD1	C2	1	-0.15	12.011
23	CB	2	MPD1	C3	1	0.117	12.011
24	CB	2	MPD1	C4	1	-0.15	12.011
25	CB	2	MPD1	C5	1	-0.15	12.011
26	HCMM	2	MPD1	H	1	0.15	1.0079
27	HCMM	2	MPD1	H1	1	0.15	1.0079
28	HCMM	2	MPD1	H2	1	0.15	1.0079
29	HCMM	2	MPD1	H3	1	0.15	1.0079
30	NC=O	2	MPD1	N	1	-0.547	14.0067
31	HNCO	2	MPD1	H5	1	0.37	1.0079
32	NC=C	2	MPD1	N1	1	-0.9	14.0067
33	HNCO	2	MPD1	H6	1	0.4	1.0079
34	HNCO	2	MPD1	H7	1	0.4	1.0079

[ bonds ]
21	32	1
32	33	1
32	34	1
23	30	1
30	31	1
7	30	1
21	22	1
20	21	1
22	23	1
23	24	1
22	26	1
20	25	1
20	28	1
24	25	1
24	27	1
25	29	1
1	2	1
1	4	1
1	7	1
2	3	1
2	9	1
3	6	1
3	13	1
5	6	1
6	11	1
4	5	1
5	12	1
4	10	1
12	14	1
12	16	1
7	8	1
13	15	1
13	18	1
16	17	1
18	19	1

[ angles ]
22	21	32	1
20	21	32	1
22	23	30	1
24	23	30	1
1	7	30	1
8	7	30	1
21	32	33	1
21	32	34	1
21	22	23	1
21	22	26	1
21	20	25	1
21	20	28	1
23	30	31	1
7	30	23	1
23	22	26	1
23	24	25	1
23	24	27	1
20	21	22	1
22	23	24	1
20	25	24	1
20	25	29	1
24	25	29	1
25	20	28	1
25	24	27	1
33	32	34	1
7	30	31	1
1	2	3	1
1	2	9	1
1	4	5	1
1	4	10	1
1	7	8	1
2	3	6	1
2	3	13	1
2	1	4	1
2	1	7	1
3	2	9	1
3	6	5	1
3	6	11	1
3	13	15	1
3	13	18	1
6	3	13	1
4	5	6	1
6	5	12	1
5	6	11	1
5	4	10	1
5	12	14	1
5	12	16	1
4	5	12	1
4	1	7	1
12	16	17	1
13	18	19	1
14	12	16	1
15	13	18	1

[ dihedrals ]
23	22	21	32	9
26	22	21	32	9
25	20	21	32	9
28	20	21	32	9
21	22	23	30	9
26	22	23	30	9
25	24	23	30	9
27	24	23	30	9
2	1	7	30	9
4	1	7	30	9
21	22	23	24	9
21	20	25	24	9
21	20	25	29	9
1	7	30	23	9
8	7	30	23	9
20	21	22	23	9
20	25	24	23	9
23	24	25	29	9
22	21	32	33	9
22	21	32	34	9
22	21	20	25	9
22	21	20	28	9
22	23	30	31	9
7	30	23	22	9
22	23	24	25	9
22	23	24	27	9
20	21	32	33	9
20	21	32	34	9
20	21	22	26	9
20	25	24	27	9
24	23	30	31	9
7	30	23	24	9
24	23	22	26	9
24	25	20	28	9
28	20	25	29	9
27	24	25	29	9
1	7	30	31	9
8	7	30	31	9
1	2	3	6	9
1	2	3	13	9
1	4	5	6	9
1	4	5	12	9
2	3	6	5	9
2	3	6	11	9
2	3	13	15	9
2	3	13	18	9
2	1	4	5	9
2	1	4	10	9
2	1	7	8	9
3	2	1	4	9
3	2	1	7	9
3	6	5	4	9
3	6	5	12	9
3	13	18	19	9
6	3	2	9	9
6	3	13	15	9
6	3	13	18	9
6	5	4	10	9
6	5	12	14	9
6	5	12	16	9
5	6	3	13	9
5	4	1	7	9
5	12	16	17	9
4	5	6	11	9
4	5	12	14	9
4	5	12	16	9
4	1	2	9	9
4	1	7	8	9
11	6	5	12	9
10	4	5	12	9
7	1	2	9	9
7	1	4	10	9
9	2	3	13	9
11	6	3	13	9
14	12	16	17	9
15	13	18	19	9
33	21	34	32	2
31	7	23	30	2
22	20	32	21	2
24	22	30	23	2
22	21	23	26	2
20	21	25	28	2
24	25	23	27	2
25	20	24	29	2
1	7	2	4	2
2	1	3	9	2
2	13	6	3	2
6	5	3	11	2
6	12	4	5	2
4	1	5	10	2
12	16	5	14	2
7	30	1	8	2
13	18	3	15	2


[ moleculetype ]
; Name	nrexcl
MOL6	3

[ atoms ]
;nr	type	resnr	residue	atom	cgnr	charge	mass
1	CB	1	MPD1	C	1	-0.15	12.011
2	CB	1	MPD1	C1	1	0.1	12.011
3	CB	1	MPD1	C2	1	-0.15	12.011
4	CB	1	MPD1	C3	1	0.117	12.011
5	CB	1	MPD1	C4	1	-0.15	12.011
6	CB	1	MPD1	C5	1	-0.15	12.011
7	HCMM	1	MPD1	H	1	0.15	1.0079
8	HCMM	1	MPD1	H1	1	0.15	1.0079
9	HCMM	1	MPD1	H2	1	0.15	1.0079
10	HCMM	1	MPD1	H3	1	0.15	1.0079
11	NC=O	1	MPD1	N	1	-0.547	14.0067
12	HNCO	1	MPD1	H5	1	0.37	1.0079
13	NC=C	1	MPD1	N1	1	-0.9	14.0067
14	HNCO	1	MPD1	H6	1	0.4	1.0079
15	HNCO	1	MPD1	H7	1	0.4	1.0079
16	CB	2	MPD1	C	1	-0.15	12.011
17	CB	2	MPD1	C1	1	0.1	12.011
18	CB	2	MPD1	C2	1	-0.15	12.011
19	CB	2	MPD1	C3	1	0.117	12.011
20	CB	2	MPD1	C4	1	-0.15	12.011
21	CB	2	MPD1	C5	1	-0.15	12.011
22	HCMM	2	MPD1	H	1	0.15	1.0079
23	HCMM	2	MPD1	H1	1	0.15	1.0079
24	HCMM	2	MPD1	H2	1	0.15	1.0079
25	HCMM	2	MPD1	H3	1	0.15	1.0079
26	NC=O	2	MPD1	N	1	-0.547	14.0067
27	HNCO	2	MPD1	H5	1	0.37	1.0079
28	NC=C	2	MPD1	N1	1	-0.9	14.0067
29	HNCO	2	MPD1	H6	1	0.4	1.0079
30	HNCO	2	MPD1	H7	1	0.4	1.0079
31	CB	3	MPD1	C	1	-0.15	12.011
32	CB	3	MPD1	C1	1	0.1	12.011
33	CB	3	MPD1	C2	1	-0.15	12.011
34	CB	3	MPD1	C3	1	0.117	12.011
35	CB	3	MPD1	C4	1	-0.15	12.011
36	CB	3	MPD1	C5	1	-0.15	12.011
37	HCMM	3	MPD1	H	1	0.15	1.0079
38	HCMM	3	MPD1	H1	1	0.15	1.0079
39	HCMM	3	MPD1	H2	1	0.15	1.0079
40	HCMM	3	MPD1	H3	1	0.15	1.0079
41	NC=O	3	MPD1	N	1	-0.547	14.0067
42	HNCO	3	MPD1	H5	1	0.37	1.0079
43	NC=C	3	MPD1	N1	1	-0.9	14.0067
44	HNCO	3	MPD1	H6	1	0.4	1.0079
45	HNCO	3	MPD1	H7	1	0.4	1.0079
46	CB	4	MPD2	C	1	-0.15	12.011
47	CB	4	MPD2	C1	1	0.117	12.011
48	CB	4	MPD2	C2	1	-0.15	12.011
49	CB	4	MPD2	C3	1	0.117	12.011
50	CB	4	MPD2	C4	1	-0.15	12.011
51	CB	4	MPD2	C5	1	-0.15	12.011
52	HCMM	4	MPD2	H	1	0.15	1.0079
53	HCMM	4	MPD2	H1	1	0.15	1.0079
54	HCMM	4	MPD2	H2	1	0.15	1.0079
55	HCMM	4	MPD2	H3	1	0.15	1.0079
56	NC=O	4	MPD2	N	1	-0.547	14.0067
57	HNCO	4	MPD2	H5	1	0.37	1.0079
58	NC=O	4	MPD2	N1	1	-0.547	14.0067
59	HNCO	4	MPD2	H7	1	0.37	1.0079
60	CB	5	TMC3	C1	1	0.0862	12.011
61	CB	5	TMC3	C2	1	-0.15	12.011
62	CB	5	TMC3	C3	1	0.0862	12.011
63	CB	5	TMC3	C4	1	-0.15	12.011
64	CB	5	TMC3	C5	1	0.0862	12.011
65	CB	5	TMC3	C6	1	-0.15	12.011
66	C=O	5	TMC3	C	1	0.5438	12.011
67	O=C	5	TMC3	O	1	-0.57	15.9994
68	HCMM	5	TMC3	H	1	0.15	1.0079
69	HCMM	5	TMC3	H1	1	0.15	1.0079
70	HCMM	5	TMC3	H2	1	0.15	1.0079
71	C=O	5	TMC3	C7	1	0.5438	12.011
72	C=O	5	TMC3	C8	1	0.5438	12.011
73	O=C	5	TMC3	O1	1	-0.57	15.9994
74	O=C	5	TMC3	O2	1	-0.57	15.9994
75	CB	6	TMC3	C1	1	0.0862	12.011
76	CB	6	TMC3	C2	1	-0.15	12.011
77	CB	6	TMC3	C3	1	0.0862	12.011
78	CB	6	TMC3	C4	1	-0.15	12.011
79	CB	6	TMC3	C5	1	0.0862	12.011
80	CB	6	TMC3	C6	1	-0.15	12.011
81	C=O	6	TMC3	C	1	0.5438	12.011
82	O=C	6	TMC3	O	1	-0.57	15.9994
83	HCMM	6	TMC3	H	1	0.15	1.0079
84	HCMM	6	TMC3	H1	1	0.15	1.0079
85	HCMM	6	TMC3	H2	1	0.15	1.0079
86	C=O	6	TMC3	C7	1	0.5438	12.011
87	C=O	6	TMC3	C8	1	0.5438	12.011
88	O=C	6	TMC3	O1	1	-0.57	15.9994
89	O=C	6	TMC3	O2	1	-0.57	15.9994
90	CB	7	MPD2	C	1	-0.15	12.011
91	CB	7	MPD2	C1	1	0.117	12.011
92	CB	7	MPD2	C2	1	-0.15	12.011
93	CB	7	MPD2	C3	1	0.117	12.011
94	CB	7	MPD2	C4	1	-0.15	12.011
95	CB	7	MPD2	C5	1	-0.15	12.011
96	HCMM	7	MPD2	H	1	0.15	1.0079
97	HCMM	7	MPD2	H1	1	0.15	1.0079
98	HCMM	7	MPD2	H2	1	0.15	1.0079
99	HCMM	7	MPD2	H3	1	0.15	1.0079
100	NC=O	7	MPD2	N	1	-0.547	14.0067
101	HNCO	7	MPD2	H5	1	0.37	1.0079
102	NC=O	7	MPD2	N1	1	-0.547	14.0067
103	HNCO	7	MPD2	H7	1	0.37	1.0079
104	CB	8	TMC3	C1	1	0.0862	12.011
105	CB	8	TMC3	C2	1	-0.15	12.011
106	CB	8	TMC3	C3	1	0.0862	12.011
107	CB	8	TMC3	C4	1	-0.15	12.011
108	CB	8	TMC3	C5	1	0.0862	12.011
109	CB	8	TMC3	C6	1	-0.15	12.011
110	C=O	8	TMC3	C	1	0.5438	12.011
111	O=C	8	TMC3	O	1	-0.57	15.9994
112	HCMM	8	TMC3	H	1	0.15	1.0079
113	HCMM	8	TMC3	H1	1	0.15	1.0079
114	HCMM	8	TMC3	H2	1	0.15	1.0079
115	C=O	8	TMC3	C7	1	0.5438	12.011
116	C=O	8	TMC3	C8	1	0.5438	12.011
117	O=C	8	TMC3	O1	1	-0.57	15.9994
118	O=C	8	TMC3	O2	1	-0.57	15.9994
119	CB	9	MPD2	C	1	-0.15	12.011
120	CB	9	MPD2	C1	1	0.117	12.011
121	CB	9	MPD2	C2	1	-0.15	12.011
122	CB	9	MPD2	C3	1	0.117	12.011
123	CB	9	MPD2	C4	1	-0.15	12.011
124	CB	9	MPD2	C5	1	-0.15	12.011
125	HCMM	9	MPD2	H	1	0.15	1.0079
126	HCMM	9	MPD2	H1	1	0.15	1.0079
127	HCMM	9	MPD2	H2	1	0.15	1.0079
128	HCMM	9	MPD2	H3	1	0.15	1.0079
129	NC=O	9	MPD2	N	1	-0.547	14.0067
130	HNCO	9	MPD2	H5	1	0.37	1.0079
131	NC=O	9	MPD2	N1	1	-0.547	14.0067
132	HNCO	9	MPD2	H7	1	0.37	1.0079

[ bonds ]
17	28	1
28	30	1
28	29	1
19	26	1
26	27	1
26	81	1
17	18	1
16	17	1
18	19	1
19	20	1
18	22	1
16	21	1
16	24	1
20	21	1
20	23	1
21	25	1
120	131	1
131	132	1
131	116	1
122	129	1
129	130	1
129	86	1
120	121	1
119	120	1
121	122	1
122	123	1
121	125	1
119	124	1
119	127	1
123	124	1
123	126	1
124	128	1
34	41	1
41	42	1
41	87	1
32	43	1
43	44	1
43	45	1
33	34	1
34	35	1
32	33	1
31	32	1
33	37	1
35	36	1
35	38	1
31	36	1
31	39	1
36	40	1
47	58	1
58	59	1
58	66	1
49	56	1
56	57	1
56	115	1
47	48	1
46	47	1
48	49	1
49	50	1
48	52	1
46	51	1
46	54	1
50	51	1
50	53	1
51	55	1
91	102	1
102	103	1
102	110	1
93	100	1
100	101	1
100	71	1
91	92	1
90	91	1
92	93	1
93	94	1
92	96	1
90	95	1
90	98	1
94	95	1
94	97	1
95	99	1
2	13	1
13	15	1
13	14	1
4	11	1
11	12	1
11	72	1
2	3	1
1	2	1
3	4	1
4	5	1
3	7	1
1	6	1
1	9	1
5	6	1
5	8	1
6	10	1
104	107	1
104	105	1
104	110	1
107	108	1
107	113	1
108	109	1
108	115	1
106	109	1
109	114	1
105	106	1
106	116	1
105	112	1
116	118	1
110	111	1
115	117	1
60	63	1
60	61	1
60	66	1
63	64	1
63	69	1
64	65	1
64	71	1
62	65	1
65	70	1
61	62	1
62	72	1
61	68	1
72	74	1
66	67	1
71	73	1
75	76	1
75	78	1
75	81	1
76	77	1
76	83	1
77	80	1
77	87	1
79	80	1
80	85	1
78	79	1
79	86	1
78	84	1
86	88	1
81	82	1
87	89	1

[ angles ]
18	17	28	1
16	17	28	1
18	19	26	1
20	19	26	1
26	81	75	1
26	81	82	1
17	28	30	1
17	28	29	1
17	18	19	1
17	18	22	1
17	16	21	1
17	16	24	1
19	26	27	1
19	26	81	1
19	18	22	1
19	20	21	1
19	20	23	1
16	17	18	1
18	19	20	1
16	21	20	1
16	21	25	1
20	21	25	1
21	16	24	1
21	20	23	1
30	28	29	1
27	26	81	1
121	120	131	1
119	120	131	1
131	116	106	1
131	116	118	1
121	122	129	1
123	122	129	1
129	86	79	1
129	86	88	1
120	131	132	1
120	131	116	1
120	121	122	1
120	121	125	1
120	119	124	1
120	119	127	1
122	129	130	1
122	129	86	1
122	121	125	1
122	123	124	1
122	123	126	1
119	120	121	1
121	122	123	1
119	124	123	1
119	124	128	1
123	124	128	1
124	119	127	1
124	123	126	1
132	131	116	1
130	129	86	1
33	34	41	1
35	34	41	1
41	87	77	1
41	87	89	1
33	32	43	1
31	32	43	1
34	41	42	1
34	41	87	1
32	33	34	1
34	33	37	1
34	35	36	1
34	35	38	1
32	43	44	1
32	43	45	1
32	33	37	1
32	31	36	1
32	31	39	1
33	34	35	1
31	32	33	1
31	36	35	1
35	36	40	1
31	36	40	1
36	35	38	1
36	31	39	1
42	41	87	1
44	43	45	1
48	47	58	1
46	47	58	1
58	66	60	1
58	66	67	1
48	49	56	1
50	49	56	1
56	115	108	1
56	115	117	1
47	58	59	1
47	58	66	1
47	48	49	1
47	48	52	1
47	46	51	1
47	46	54	1
49	56	57	1
49	56	115	1
49	48	52	1
49	50	51	1
49	50	53	1
46	47	48	1
48	49	50	1
46	51	50	1
46	51	55	1
50	51	55	1
51	46	54	1
51	50	53	1
59	58	66	1
57	56	115	1
92	91	102	1
90	91	102	1
102	110	104	1
102	110	111	1
92	93	100	1
94	93	100	1
100	71	64	1
100	71	73	1
91	102	103	1
91	102	110	1
91	92	93	1
91	92	96	1
91	90	95	1
91	90	98	1
93	100	101	1
93	100	71	1
93	92	96	1
93	94	95	1
93	94	97	1
90	91	92	1
92	93	94	1
90	95	94	1
90	95	99	1
94	95	99	1
95	90	98	1
95	94	97	1
103	102	110	1
101	100	71	1
3	2	13	1
1	2	13	1
3	4	11	1
5	4	11	1
11	72	62	1
11	72	74	1
2	13	15	1
2	13	14	1
2	3	4	1
2	3	7	1
2	1	6	1
2	1	9	1
4	11	12	1
4	11	72	1
4	3	7	1
4	5	6	1
4	5	8	1
1	2	3	1
3	4	5	1
1	6	5	1
1	6	10	1
5	6	10	1
6	1	9	1
6	5	8	1
14	13	15	1
12	11	72	1
104	107	108	1
104	107	113	1
104	105	106	1
104	105	112	1
104	110	111	1
107	108	109	1
107	108	115	1
105	104	107	1
107	104	110	1
108	107	113	1
106	109	108	1
108	109	114	1
108	115	117	1
109	108	115	1
105	106	109	1
109	106	116	1
106	109	114	1
106	105	112	1
106	116	118	1
105	106	116	1
105	104	110	1
60	63	64	1
60	63	69	1
60	61	62	1
60	61	68	1
60	66	67	1
63	64	65	1
63	64	71	1
63	60	61	1
63	60	66	1
64	63	69	1
64	65	62	1
64	65	70	1
64	71	73	1
65	64	71	1
61	62	65	1
65	62	72	1
62	65	70	1
62	61	68	1
62	72	74	1
61	62	72	1
61	60	66	1
75	76	77	1
75	76	83	1
75	78	79	1
75	78	84	1
75	81	82	1
76	77	80	1
76	77	87	1
76	75	78	1
76	75	81	1
77	76	83	1
77	80	79	1
77	80	85	1
77	87	89	1
80	77	87	1
78	79	80	1
80	79	86	1
79	80	85	1
79	78	84	1
79	86	88	1
78	79	86	1
78	75	81	1

[ dihedrals ]
19	18	17	28	9
22	18	17	28	9
21	16	17	28	9
24	16	17	28	9
17	18	19	26	9
22	18	19	26	9
21	20	19	26	9
23	20	19	26	9
26	81	75	76	9
26	81	75	78	9
17	18	19	20	9
17	16	21	20	9
17	16	21	25	9
19	26	81	75	9
19	26	81	82	9
16	17	18	19	9
16	21	20	19	9
19	20	21	25	9
18	17	28	30	9
18	17	28	29	9
18	17	16	21	9
18	17	16	24	9
18	19	26	27	9
18	19	26	81	9
18	19	20	21	9
18	19	20	23	9
16	17	28	30	9
16	17	28	29	9
16	17	18	22	9
16	21	20	23	9
20	19	26	27	9
20	19	26	81	9
20	19	18	22	9
20	21	16	24	9
24	16	21	25	9
23	20	21	25	9
27	26	81	75	9
27	26	81	82	9
122	121	120	131	9
125	121	120	131	9
124	119	120	131	9
127	119	120	131	9
131	116	106	109	9
131	116	106	105	9
120	121	122	129	9
125	121	122	129	9
124	123	122	129	9
126	123	122	129	9
129	86	79	80	9
129	86	79	78	9
120	131	116	106	9
120	131	116	118	9
120	121	122	123	9
120	119	124	123	9
120	119	124	128	9
122	129	86	79	9
122	129	86	88	9
119	120	121	122	9
119	124	123	122	9
122	123	124	128	9
121	120	131	132	9
121	120	131	116	9
121	120	119	124	9
121	120	119	127	9
121	122	129	130	9
121	122	129	86	9
121	122	123	124	9
121	122	123	126	9
119	120	131	132	9
119	120	131	116	9
119	120	121	125	9
119	124	123	126	9
123	122	129	130	9
123	122	129	86	9
123	122	121	125	9
123	124	119	127	9
127	119	124	128	9
126	123	124	128	9
132	131	116	106	9
132	131	116	118	9
130	129	86	79	9
130	129	86	88	9
32	33	34	41	9
37	33	34	41	9
36	35	34	41	9
38	35	34	41	9
41	87	77	76	9
41	87	77	80	9
34	33	32	43	9
37	33	32	43	9
36	31	32	43	9
39	31	32	43	9
34	41	87	77	9
34	41	87	89	9
31	32	33	34	9
31	36	35	34	9
34	35	36	40	9
32	33	34	35	9
32	31	36	35	9
32	31	36	40	9
33	34	41	42	9
33	34	41	87	9
33	34	35	36	9
33	34	35	38	9
33	32	43	44	9
33	32	43	45	9
33	32	31	36	9
33	32	31	39	9
35	34	41	42	9
35	34	41	87	9
35	34	33	37	9
35	36	31	39	9
31	32	43	44	9
31	32	43	45	9
31	32	33	37	9
31	36	35	38	9
38	35	36	40	9
39	31	36	40	9
42	41	87	77	9
42	41	87	89	9
49	48	47	58	9
52	48	47	58	9
51	46	47	58	9
54	46	47	58	9
58	66	60	63	9
58	66	60	61	9
47	48	49	56	9
52	48	49	56	9
51	50	49	56	9
53	50	49	56	9
56	115	108	107	9
56	115	108	109	9
47	58	66	60	9
47	58	66	67	9
47	48	49	50	9
47	46	51	50	9
47	46	51	55	9
49	56	115	108	9
49	56	115	117	9
46	47	48	49	9
46	51	50	49	9
49	50	51	55	9
48	47	58	59	9
48	47	58	66	9
48	47	46	51	9
48	47	46	54	9
48	49	56	57	9
48	49	56	115	9
48	49	50	51	9
48	49	50	53	9
46	47	58	59	9
46	47	58	66	9
46	47	48	52	9
46	51	50	53	9
50	49	56	57	9
50	49	56	115	9
50	49	48	52	9
50	51	46	54	9
54	46	51	55	9
53	50	51	55	9
59	58	66	60	9
59	58	66	67	9
57	56	115	108	9
57	56	115	117	9
93	92	91	102	9
96	92	91	102	9
95	90	91	102	9
98	90	91	102	9
102	110	104	107	9
102	110	104	105	9
91	92	93	100	9
96	92	93	100	9
95	94	93	100	9
97	94	93	100	9
100	71	64	63	9
100	71	64	65	9
91	102	110	104	9
91	102	110	111	9
91	92	93	94	9
91	90	95	94	9
91	90	95	99	9
93	100	71	64	9
93	100	71	73	9
90	91	92	93	9
90	95	94	93	9
93	94	95	99	9
92	91	102	103	9
92	91	102	110	9
92	91	90	95	9
92	91	90	98	9
92	93	100	101	9
92	93	100	71	9
92	93	94	95	9
92	93	94	97	9
90	91	102	103	9
90	91	102	110	9
90	91	92	96	9
90	95	94	97	9
94	93	100	101	9
94	93	100	71	9
94	93	92	96	9
94	95	90	98	9
98	90	95	99	9
97	94	95	99	9
103	102	110	104	9
103	102	110	111	9
101	100	71	64	9
101	100	71	73	9
4	3	2	13	9
7	3	2	13	9
6	1	2	13	9
9	1	2	13	9
2	3	4	11	9
7	3	4	11	9
6	5	4	11	9
8	5	4	11	9
11	72	62	65	9
11	72	62	61	9
2	3	4	5	9
2	1	6	5	9
2	1	6	10	9
4	11	72	62	9
4	11	72	74	9
1	2	3	4	9
1	6	5	4	9
4	5	6	10	9
3	2	13	15	9
3	2	13	14	9
3	2	1	6	9
3	2	1	9	9
3	4	11	12	9
3	4	11	72	9
3	4	5	6	9
3	4	5	8	9
1	2	13	15	9
1	2	13	14	9
1	2	3	7	9
1	6	5	8	9
5	4	11	12	9
5	4	11	72	9
5	4	3	7	9
5	6	1	9	9
9	1	6	10	9
8	5	6	10	9
12	11	72	62	9
12	11	72	74	9
104	107	108	109	9
104	107	108	115	9
104	105	106	109	9
104	105	106	116	9
106	109	108	107	9
107	108	109	114	9
107	108	115	117	9
106	105	104	107	9
107	104	105	112	9
107	104	110	111	9
105	104	107	108	9
108	107	104	110	9
105	106	109	108	9
108	109	106	116	9
109	108	107	113	9
109	108	115	117	9
109	106	105	112	9
109	106	116	118	9
106	109	108	115	9
106	105	104	110	9
105	106	109	114	9
105	106	116	118	9
105	104	107	113	9
105	104	110	111	9
114	109	106	116	9
112	105	106	116	9
110	104	107	113	9
110	104	105	112	9
113	107	108	115	9
114	109	108	115	9
60	63	64	65	9
60	63	64	71	9
60	61	62	65	9
60	61	62	72	9
63	64	65	62	9
63	64	65	70	9
63	64	71	73	9
63	60	61	62	9
63	60	61	68	9
63	60	66	67	9
64	63	60	61	9
64	63	60	66	9
64	65	62	61	9
64	65	62	72	9
65	64	63	69	9
65	64	71	73	9
65	62	61	68	9
65	62	72	74	9
62	65	64	71	9
62	61	60	66	9
61	62	65	70	9
61	62	72	74	9
61	60	63	69	9
61	60	66	67	9
70	65	62	72	9
68	61	62	72	9
66	60	63	69	9
66	60	61	68	9
69	63	64	71	9
70	65	64	71	9
75	76	77	80	9
75	76	77	87	9
75	78	79	80	9
75	78	79	86	9
76	77	80	79	9
76	77	80	85	9
76	77	87	89	9
76	75	78	79	9
76	75	78	84	9
76	75	81	82	9
77	76	75	78	9
77	76	75	81	9
77	80	79	78	9
77	80	79	86	9
80	77	76	83	9
80	77	87	89	9
80	79	78	84	9
80	79	86	88	9
79	80	77	87	9
79	78	75	81	9
78	79	80	85	9
78	79	86	88	9
78	75	76	83	9
78	75	81	82	9
85	80	79	86	9
84	78	79	86	9
81	75	76	83	9
81	75	78	84	9
83	76	77	87	9
85	80	77	87	9
30	17	29	28	2
27	81	19	26	2
17	18	28	16	2
19	20	26	18	2
18	17	19	22	2
16	17	21	24	2
20	19	21	23	2
21	20	16	25	2
132	116	120	131	2
130	86	122	129	2
121	119	131	120	2
121	123	129	122	2
121	120	122	125	2
119	120	124	127	2
122	123	124	126	2
119	124	123	128	2
42	87	34	41	2
45	32	44	43	2
33	35	41	34	2
31	33	43	32	2
33	34	32	37	2
35	34	36	38	2
31	32	36	39	2
35	31	36	40	2
59	66	47	58	2
57	115	49	56	2
47	46	58	48	2
48	50	56	49	2
48	49	47	52	2
46	51	47	54	2
50	49	51	53	2
51	50	46	55	2
103	110	91	102	2
101	71	93	100	2
92	90	102	91	2
92	94	100	93	2
92	91	93	96	2
90	95	91	98	2
95	94	93	97	2
95	90	94	99	2
14	2	15	13	2
12	72	4	11	2
2	3	13	1	2
4	5	11	3	2
3	2	4	7	2
1	6	2	9	2
6	4	5	8	2
6	1	5	10	2
104	110	105	107	2
107	108	104	113	2
109	115	107	108	2
109	106	108	114	2
105	116	109	106	2
105	106	104	112	2
116	131	106	118	2
110	102	104	111	2
115	56	108	117	2
61	66	63	60	2
63	60	64	69	2
64	71	63	65	2
65	64	62	70	2
65	72	61	62	2
61	60	62	68	2
72	11	62	74	2
66	58	60	67	2
71	100	64	73	2
78	81	76	75	2
76	77	75	83	2
77	87	80	76	2
80	79	77	85	2
78	86	80	79	2
78	79	75	84	2
86	129	79	88	2
81	26	75	82	2
87	41	77	89	2


[ moleculetype ]
; Name	nrexcl
MOL7	3

[ atoms ]
;nr	type	resnr	residue	atom	cgnr	charge	mass
1	CB	1	MPD1	C	1	-0.15	12.011
2	CB	1	MPD1	C1	1	0.1	12.011
3	CB	1	MPD1	C2	1	-0.15	12.011
4	CB	1	MPD1	C3	1	0.117	12.011
5	CB	1	MPD1	C4	1	-0.15	12.011
6	CB	1	MPD1	C5	1	-0.15	12.011
7	HCMM	1	MPD1	H	1	0.15	1.0079
8	HCMM	1	MPD1	H1	1	0.15	1.0079
9	HCMM	1	MPD1	H2	1	0.15	1.0079
10	HCMM	1	MPD1	H3	1	0.15	1.0079
11	NC=O	1	MPD1	N	1	-0.547	14.0067
12	HNCO	1	MPD1	H5	1	0.37	1.0079
13	NC=C	1	MPD1	N1	1	-0.9	14.0067
14	HNCO	1	MPD1	H6	1	0.4	1.0079
15	HNCO	1	MPD1	H7	1	0.4	1.0079
16	CB	2	TMC2	C1	1	0.0862	12.011
17	CB	2	TMC2	C2	1	-0.15	12.011
18	CB	2	TMC2	C3	1	0.0862	12.011
19	CB	2	TMC2	C4	1	-0.15	12.011
20	CB	2	TMC2	C5	1	0.0862	12.011
21	CB	2	TMC2	C6	1	-0.15	12.011
22	C=O	2	TMC2	C	1	0.5438	12.011
23	O=C	2	TMC2	O	1	-0.57	15.9994
24	HCMM	2	TMC2	H	1	0.15	1.0079
25	HCMM	2	TMC2	H1	1	0.15	1.0079
26	HCMM	2	TMC2	H2	1	0.15	1.0079
27	C=O	2	TMC2	C7	1	0.5438	12.011
28	C=O	2	TMC2	C8	1	0.6338	12.011
29	O=C	2	TMC2	O1	1	-0.57	15.9994
30	O=C	2	TMC2	O2	1	-0.57	15.9994
31	OR	2	TMC2	O5	1	-0.65	15.9994
32	HOCO	2	TMC2	H5	1	0.5	1.0079
33	CB	3	MPD1	C	1	-0.15	12.011
34	CB	3	MPD1	C1	1	0.1	12.011
35	CB	3	MPD1	C2	1	-0.15	12.011
36	CB	3	MPD1	C3	1	0.117	12.011
37	CB	3	MPD1	C4	1	-0.15	12.011
38	CB	3	MPD1	C5	1	-0.15	12.011
39	HCMM	3	MPD1	H	1	0.15	1.0079
40	HCMM	3	MPD1	H1	1	0.15	1.0079
41	HCMM	3	MPD1	H2	1	0.15	1.0079
42	HCMM	3	MPD1	H3	1	0.15	1.0079
43	NC=O	3	MPD1	N	1	-0.547	14.0067
44	HNCO	3	MPD1	H5	1	0.37	1.0079
45	NC=C	3	MPD1	N1	1	-0.9	14.0067
46	HNCO	3	MPD1	H6	1	0.4	1.0079
47	HNCO	3	MPD1	H7	1	0.4	1.0079

[ bonds ]
34	45	1
45	46	1
45	47	1
36	43	1
43	44	1
22	43	1
34	35	1
33	34	1
35	36	1
36	37	1
35	39	1
33	38	1
33	41	1
37	38	1
37	40	1
38	42	1
2	13	1
13	15	1
13	14	1
4	11	1
11	12	1
27	11	1
2	3	1
1	2	1
3	4	1
4	5	1
3	7	1
1	6	1
1	9	1
5	6	1
5	8	1
6	10	1
16	17	1
16	19	1
16	22	1
17	18	1
17	24	1
18	21	1
18	28	1
20	21	1
21	26	1
19	20	1
20	27	1
19	25	1
27	29	1
22	23	1
28	30	1
28	31	1
31	32	1

[ angles ]
35	34	45	1
33	34	45	1
35	36	43	1
37	36	43	1
16	22	43	1
23	22	43	1
34	45	46	1
34	45	47	1
34	35	36	1
34	35	39	1
34	33	38	1
34	33	41	1
36	43	44	1
22	43	36	1
36	35	39	1
36	37	38	1
36	37	40	1
33	34	35	1
35	36	37	1
33	38	37	1
33	38	42	1
37	38	42	1
38	33	41	1
38	37	40	1
46	45	47	1
22	43	44	1
3	2	13	1
1	2	13	1
3	4	11	1
5	4	11	1
20	27	11	1
29	27	11	1
2	13	15	1
2	13	14	1
2	3	4	1
2	3	7	1
2	1	6	1
2	1	9	1
4	11	12	1
27	11	4	1
4	3	7	1
4	5	6	1
4	5	8	1
1	2	3	1
3	4	5	1
1	6	5	1
1	6	10	1
5	6	10	1
6	1	9	1
6	5	8	1
15	13	14	1
27	11	12	1
16	17	18	1
16	17	24	1
16	19	20	1
16	19	25	1
16	22	23	1
17	18	21	1
17	18	28	1
17	16	19	1
17	16	22	1
18	17	24	1
18	21	20	1
18	21	26	1
18	28	30	1
18	28	31	1
21	18	28	1
19	20	21	1
21	20	27	1
20	21	26	1
20	19	25	1
20	27	29	1
19	20	27	1
19	16	22	1
28	31	32	1
30	28	31	1

[ dihedrals ]
36	35	34	45	9
39	35	34	45	9
38	33	34	45	9
41	33	34	45	9
34	35	36	43	9
39	35	36	43	9
38	37	36	43	9
40	37	36	43	9
17	16	22	43	9
19	16	22	43	9
34	35	36	37	9
34	33	38	37	9
34	33	38	42	9
16	22	43	36	9
23	22	43	36	9
33	34	35	36	9
33	38	37	36	9
36	37	38	42	9
35	34	45	46	9
35	34	45	47	9
35	34	33	38	9
35	34	33	41	9
35	36	43	44	9
22	43	36	35	9
35	36	37	38	9
35	36	37	40	9
33	34	45	46	9
33	34	45	47	9
33	34	35	39	9
33	38	37	40	9
37	36	43	44	9
22	43	36	37	9
37	36	35	39	9
37	38	33	41	9
41	33	38	42	9
40	37	38	42	9
16	22	43	44	9
23	22	43	44	9
4	3	2	13	9
7	3	2	13	9
6	1	2	13	9
9	1	2	13	9
2	3	4	11	9
7	3	4	11	9
6	5	4	11	9
8	5	4	11	9
21	20	27	11	9
19	20	27	11	9
2	3	4	5	9
2	1	6	5	9
2	1	6	10	9
20	27	11	4	9
29	27	11	4	9
1	2	3	4	9
1	6	5	4	9
4	5	6	10	9
3	2	13	15	9
3	2	13	14	9
3	2	1	6	9
3	2	1	9	9
3	4	11	12	9
27	11	4	3	9
3	4	5	6	9
3	4	5	8	9
1	2	13	15	9
1	2	13	14	9
1	2	3	7	9
1	6	5	8	9
5	4	11	12	9
27	11	4	5	9
5	4	3	7	9
5	6	1	9	9
9	1	6	10	9
8	5	6	10	9
20	27	11	12	9
29	27	11	12	9
16	17	18	21	9
16	17	18	28	9
16	19	20	21	9
16	19	20	27	9
17	18	21	20	9
17	18	21	26	9
17	18	28	30	9
17	18	28	31	9
17	16	19	20	9
17	16	19	25	9
17	16	22	23	9
18	17	16	19	9
18	17	16	22	9
18	21	20	19	9
18	21	20	27	9
18	28	31	32	9
21	18	17	24	9
21	18	28	30	9
21	18	28	31	9
21	20	19	25	9
21	20	27	29	9
20	21	18	28	9
20	19	16	22	9
19	20	21	26	9
19	20	27	29	9
19	16	17	24	9
19	16	22	23	9
26	21	20	27	9
25	19	20	27	9
22	16	17	24	9
22	16	19	25	9
24	17	18	28	9
26	21	18	28	9
30	28	31	32	9
47	34	46	45	2
44	22	36	43	2
33	35	45	34	2
37	35	43	36	2
35	34	36	39	2
33	38	34	41	2
37	36	38	40	2
38	33	37	42	2
15	2	14	13	2
12	27	4	11	2
3	1	13	2	2
4	5	11	3	2
3	2	4	7	2
1	6	2	9	2
5	6	4	8	2
6	5	1	10	2
19	22	17	16	2
17	18	16	24	2
21	28	17	18	2
21	18	20	26	2
21	27	19	20	2
19	20	16	25	2
27	11	20	29	2
22	43	16	23	2
28	31	18	30	2


[ moleculetype ]
; Name	nrexcl
MOL8	3

[ atoms ]
;nr	type	resnr	residue	atom	cgnr	charge	mass
1	CB	1	TMC1	C1	1	0.0862	12.011
2	CB	1	TMC1	C2	1	-0.15	12.011
3	CB	1	TMC1	C3	1	0.0862	12.011
4	CB	1	TMC1	C4	1	-0.15	12.011
5	CB	1	TMC1	C5	1	0.0862	12.011
6	CB	1	TMC1	C6	1	-0.15	12.011
7	C=O	1	TMC1	C	1	0.5438	12.011
8	O=C	1	TMC1	O	1	-0.57	15.9994
9	HCMM	1	TMC1	H	1	0.15	1.0079
10	HCMM	1	TMC1	H1	1	0.15	1.0079
11	HCMM	1	TMC1	H2	1	0.15	1.0079
12	C=O	1	TMC1	C7	1	0.6338	12.011
13	C=O	1	TMC1	C8	1	0.6338	12.011
14	O=C	1	TMC1	O1	1	-0.57	15.9994
15	O=C	1	TMC1	O2	1	-0.57	15.9994
16	OR	1	TMC1	O3	1	-0.65	15.9994
17	HOCO	1	TMC1	H3	1	0.5	1.0079
18	OR	1	TMC1	O5	1	-0.65	15.9994
19	HOCO	1	TMC1	H5	1	0.5	1.0079
20	CB	2	MPD2	C	1	-0.15	12.011
21	CB	2	MPD2	C1	1	0.117	12.011
22	CB	2	MPD2	C2	1	-0.15	12.011
23	CB	2	MPD2	C3	1	0.117	12.011
24	CB	2	MPD2	C4	1	-0.15	12.011
25	CB	2	MPD2	C5	1	-0.15	12.011
26	HCMM	2	MPD2	H	1	0.15	1.0079
27	HCMM	2	MPD2	H1	1	0.15	1.0079
28	HCMM	2	MPD2	H2	1	0.15	1.0079
29	HCMM	2	MPD2	H3	1	0.15	1.0079
30	NC=O	2	MPD2	N	1	-0.547	14.0067
31	HNCO	2	MPD2	H5	1	0.37	1.0079
32	NC=O	2	MPD2	N1	1	-0.547	14.0067
33	HNCO	2	MPD2	H7	1	0.37	1.0079
34	OR	3	TCq1	O1	1	-0.65	15.9994
35	C=O	3	TCq1	C1	1	0.6338	12.011
36	O=C	3	TCq1	O2	1	-0.57	15.9994
37	CB	3	TCq1	C2	1	0.0862	12.011
38	CB	3	TCq1	C3	1	-0.15	12.011
39	CB	3	TCq1	C4	1	-0.179	12.011
40	CB	3	TCq1	C5	1	-0.15	12.011
41	CB	3	TCq1	C6	1	0.0862	12.011
42	CB	3	TCq1	C7	1	-0.15	12.011
43	C=O	3	TCq1	C8	1	0.5438	12.011
44	O=C	3	TCq1	O4	1	-0.57	15.9994
45	CO2M	3	TCq1	C9	1	0.979	12.011
46	O2CM	3	TCq1	O5	1	-0.9	15.9994
47	O2CM	3	TCq1	O6	1	-0.9	15.9994
48	HOCO	3	TCq1	H1	1	0.5	1.0079
49	HCMM	3	TCq1	H2	1	0.15	1.0079
50	HCMM	3	TCq1	H3	1	0.15	1.0079
51	HCMM	3	TCq1	H4	1	0.15	1.0079

[ bonds ]
21	32	1
32	33	1
7	32	1
23	30	1
30	31	1
43	30	1
21	22	1
20	21	1
22	23	1
23	24	1
22	26	1
20	25	1
20	28	1
24	25	1
24	27	1
25	29	1
40	39	1
39	38	1
39	45	1
41	40	1
40	50	1
41	42	1
41	43	1
42	37	1
42	51	1
37	38	1
37	35	1
38	49	1
35	36	1
35	34	1
45	46	1
45	47	1
43	44	1
34	48	1
4	5	1
5	6	1
5	12	1
1	4	1
4	10	1
1	2	1
1	7	1
2	3	1
2	9	1
3	6	1
3	13	1
6	11	1
13	15	1
13	18	1
12	14	1
12	16	1
7	8	1
18	19	1
16	17	1

[ angles ]
22	21	32	1
20	21	32	1
1	7	32	1
8	7	32	1
22	23	30	1
24	23	30	1
41	43	30	1
44	43	30	1
21	32	33	1
7	32	21	1
21	22	23	1
21	22	26	1
21	20	25	1
21	20	28	1
23	30	31	1
43	30	23	1
23	22	26	1
23	24	25	1
23	24	27	1
20	21	22	1
22	23	24	1
20	25	24	1
20	25	29	1
24	25	29	1
25	20	28	1
25	24	27	1
7	32	33	1
43	30	31	1
41	40	39	1
39	40	50	1
39	38	37	1
39	38	49	1
39	45	46	1
39	45	47	1
40	41	42	1
40	41	43	1
40	39	38	1
40	39	45	1
41	40	50	1
41	42	37	1
41	42	51	1
41	43	44	1
42	41	43	1
42	37	38	1
42	37	35	1
37	42	51	1
37	38	49	1
37	35	36	1
37	35	34	1
38	37	35	1
38	39	45	1
35	34	48	1
36	35	34	1
46	45	47	1
1	4	5	1
5	4	10	1
3	6	5	1
5	6	11	1
5	12	14	1
5	12	16	1
2	1	4	1
4	1	7	1
4	5	6	1
4	5	12	1
1	4	10	1
1	2	3	1
1	2	9	1
1	7	8	1
2	1	7	1
2	3	6	1
2	3	13	1
3	2	9	1
3	6	11	1
3	13	15	1
3	13	18	1
6	3	13	1
6	5	12	1
13	18	19	1
12	16	17	1
15	13	18	1
14	12	16	1

[ dihedrals ]
23	22	21	32	9
26	22	21	32	9
25	20	21	32	9
28	20	21	32	9
4	1	7	32	9
2	1	7	32	9
21	22	23	30	9
26	22	23	30	9
25	24	23	30	9
27	24	23	30	9
40	41	43	30	9
42	41	43	30	9
1	7	32	21	9
8	7	32	21	9
21	22	23	24	9
21	20	25	24	9
21	20	25	29	9
41	43	30	23	9
44	43	30	23	9
20	21	22	23	9
20	25	24	23	9
23	24	25	29	9
22	21	32	33	9
7	32	21	22	9
22	21	20	25	9
22	21	20	28	9
22	23	30	31	9
43	30	23	22	9
22	23	24	25	9
22	23	24	27	9
20	21	32	33	9
7	32	21	20	9
20	21	22	26	9
20	25	24	27	9
24	23	30	31	9
43	30	23	24	9
24	23	22	26	9
24	25	20	28	9
28	20	25	29	9
27	24	25	29	9
1	7	32	33	9
8	7	32	33	9
41	43	30	31	9
44	43	30	31	9
39	40	41	42	9
39	40	41	43	9
39	38	37	42	9
39	38	37	35	9
40	41	42	37	9
40	41	42	51	9
40	41	43	44	9
40	39	38	37	9
40	39	38	49	9
40	39	45	46	9
40	39	45	47	9
41	40	39	38	9
41	40	39	45	9
41	42	37	38	9
41	42	37	35	9
42	41	40	50	9
42	41	43	44	9
42	37	38	49	9
42	37	35	36	9
42	37	35	34	9
37	42	41	43	9
37	38	39	45	9
37	35	34	48	9
38	37	42	51	9
38	37	35	36	9
38	37	35	34	9
38	39	40	50	9
38	39	45	46	9
38	39	45	47	9
51	42	37	35	9
49	38	37	35	9
50	40	39	45	9
49	38	39	45	9
43	41	40	50	9
43	41	42	51	9
36	35	34	48	9
2	1	4	5	9
5	4	1	7	9
2	3	6	5	9
5	6	3	13	9
5	12	16	17	9
3	2	1	4	9
4	1	2	9	9
4	1	7	8	9
3	6	5	4	9
4	5	6	11	9
4	5	12	14	9
4	5	12	16	9
1	4	5	6	9
1	4	5	12	9
1	2	3	6	9
1	2	3	13	9
2	1	4	10	9
2	1	7	8	9
2	3	6	11	9
2	3	13	15	9
2	3	13	18	9
3	2	1	7	9
3	6	5	12	9
3	13	18	19	9
6	3	2	9	9
6	3	13	15	9
6	3	13	18	9
6	5	4	10	9
6	5	12	14	9
6	5	12	16	9
9	2	3	13	9
11	6	3	13	9
10	4	5	12	9
11	6	5	12	9
7	1	4	10	9
7	1	2	9	9
15	13	18	19	9
14	12	16	17	9
33	7	21	32	2
31	43	23	30	2
20	22	32	21	2
23	24	30	22	2
22	21	23	26	2
20	21	25	28	2
24	23	25	27	2
25	20	24	29	2
39	38	40	45	2
40	41	39	50	2
41	43	42	40	2
42	41	37	51	2
37	35	38	42	2
38	37	39	49	2
35	34	37	36	2
45	47	39	46	2
43	30	41	44	2
4	12	6	5	2
4	5	1	10	2
1	7	2	4	2
2	1	3	9	2
3	13	2	6	2
6	3	5	11	2
13	18	3	15	2
12	16	5	14	2
7	32	1	8	2


[ moleculetype ]
; Name	nrexcl
MOL9	3

[ atoms ]
;nr	type	resnr	residue	atom	cgnr	charge	mass
1	CB	1	MPD2	C	1	-0.15	12.011
2	CB	1	MPD2	C1	1	0.117	12.011
3	CB	1	MPD2	C2	1	-0.15	12.011
4	CB	1	MPD2	C3	1	0.117	12.011
5	CB	1	MPD2	C4	1	-0.15	12.011
6	CB	1	MPD2	C5	1	-0.15	12.011
7	HCMM	1	MPD2	H	1	0.15	1.0079
8	HCMM	1	MPD2	H1	1	0.15	1.0079
9	HCMM	1	MPD2	H2	1	0.15	1.0079
10	HCMM	1	MPD2	H3	1	0.15	1.0079
11	NC=O	1	MPD2	N	1	-0.547	14.0067
12	HNCO	1	MPD2	H5	1	0.37	1.0079
13	NC=O	1	MPD2	N1	1	-0.547	14.0067
14	HNCO	1	MPD2	H7	1	0.37	1.0079
15	CB	2	TMC3	C1	1	0.0862	12.011
16	CB	2	TMC3	C2	1	-0.15	12.011
17	CB	2	TMC3	C3	1	0.0862	12.011
18	CB	2	TMC3	C4	1	-0.15	12.011
19	CB	2	TMC3	C5	1	0.0862	12.011
20	CB	2	TMC3	C6	1	-0.15	12.011
21	C=O	2	TMC3	C	1	0.5438	12.011
22	O=C	2	TMC3	O	1	-0.57	15.9994
23	HCMM	2	TMC3	H	1	0.15	1.0079
24	HCMM	2	TMC3	H1	1	0.15	1.0079
25	HCMM	2	TMC3	H2	1	0.15	1.0079
26	C=O	2	TMC3	C7	1	0.5438	12.011
27	C=O	2	TMC3	C8	1	0.5438	12.011
28	O=C	2	TMC3	O1	1	-0.57	15.9994
29	O=C	2	TMC3	O2	1	-0.57	15.9994
30	OR	3	TCq1	O1	1	-0.65	15.9994
31	C=O	3	TCq1	C1	1	0.6338	12.011
32	O=C	3	TCq1	O2	1	-0.57	15.9994
33	CB	3	TCq1	C2	1	0.0862	12.011
34	CB	3	TCq1	C3	1	-0.15	12.011
35	CB	3	TCq1	C4	1	-0.179	12.011
36	CB	3	TCq1	C5	1	-0.15	12.011
37	CB	3	TCq1	C6	1	0.0862	12.011
38	CB	3	TCq1	C7	1	-0.15	12.011
39	C=O	3	TCq1	C8	1	0.5438	12.011
40	O=C	3	TCq1	O4	1	-0.57	15.9994
41	CO2M	3	TCq1	C9	1	0.979	12.011
42	O2CM	3	TCq1	O5	1	-0.9	15.9994
43	O2CM	3	TCq1	O6	1	-0.9	15.9994
44	HOCO	3	TCq1	H1	1	0.5	1.0079
45	HCMM	3	TCq1	H2	1	0.15	1.0079
46	HCMM	3	TCq1	H3	1	0.15	1.0079
47	HCMM	3	TCq1	H4	1	0.15	1.0079
48	CB	4	MPD2	C	1	-0.15	12.011
49	CB	4	MPD2	C1	1	0.117	12.011
50	CB	4	MPD2	C2	1	-0.15	12.011
51	CB	4	MPD2	C3	1	0.117	12.011
52	CB	4	MPD2	C4	1	-0.15	12.011
53	CB	4	MPD2	C5	1	-0.15	12.011
54	HCMM	4	MPD2	H	1	0.15	1.0079
55	HCMM	4	MPD2	H1	1	0.15	1.0079
56	HCMM	4	MPD2	H2	1	0.15	1.0079
57	HCMM	4	MPD2	H3	1	0.15	1.0079
58	NC=O	4	MPD2	N	1	-0.547	14.0067
59	HNCO	4	MPD2	H5	1	0.37	1.0079
60	NC=O	4	MPD2	N1	1	-0.547	14.0067
61	HNCO	4	MPD2	H7	1	0.37	1.0079
62	CB	5	TMC2	C1	1	0.0862	12.011
63	CB	5	TMC2	C2	1	-0.15	12.011
64	CB	5	TMC2	C3	1	0.0862	12.011
65	CB	5	TMC2	C4	1	-0.15	12.011
66	CB	5	TMC2	C5	1	0.0862	12.011
67	CB	5	TMC2	C6	1	-0.15	12.011
68	C=O	5	TMC2	C	1	0.5438	12.011
69	O=C	5	TMC2	O	1	-0.57	15.9994
70	HCMM	5	TMC2	H	1	0.15	1.0079
71	HCMM	5	TMC2	H1	1	0.15	1.0079
72	HCMM	5	TMC2	H2	1	0.15	1.0079
73	C=O	5	TMC2	C7	1	0.5438	12.011
74	C=O	5	TMC2	C8	1	0.6338	12.011
75	O=C	5	TMC2	O1	1	-0.57	15.9994
76	O=C	5	TMC2	O2	1	-0.57	15.9994
77	OR	5	TMC2	O5	1	-0.65	15.9994
78	HOCO	5	TMC2	H5	1	0.5	1.0079
79	CB	6	MPD2	C	1	-0.15	12.011
80	CB	6	MPD2	C1	1	0.117	12.011
81	CB	6	MPD2	C2	1	-0.15	12.011
82	CB	6	MPD2	C3	1	0.117	12.011
83	CB	6	MPD2	C4	1	-0.15	12.011
84	CB	6	MPD2	C5	1	-0.15	12.011
85	HCMM	6	MPD2	H	1	0.15	1.0079
86	HCMM	6	MPD2	H1	1	0.15	1.0079
87	HCMM	6	MPD2	H2	1	0.15	1.0079
88	HCMM	6	MPD2	H3	1	0.15	1.0079
89	NC=O	6	MPD2	N	1	-0.547	14.0067
90	HNCO	6	MPD2	H5	1	0.37	1.0079
91	NC=O	6	MPD2	N1	1	-0.547	14.0067
92	HNCO	6	MPD2	H7	1	0.37	1.0079

[ bonds ]
2	13	1
13	14	1
13	21	1
4	11	1
11	12	1
73	11	1
2	3	1
1	2	1
3	4	1
4	5	1
3	7	1
1	6	1
1	9	1
5	6	1
5	8	1
6	10	1
82	89	1
89	90	1
68	89	1
80	91	1
91	92	1
91	27	1
82	81	1
83	82	1
81	80	1
80	79	1
81	85	1
83	84	1
83	86	1
79	84	1
79	87	1
84	88	1
49	60	1
60	61	1
39	60	1
51	58	1
58	59	1
58	26	1
49	50	1
48	49	1
50	51	1
51	52	1
50	54	1
48	53	1
48	56	1
52	53	1
52	55	1
53	57	1
36	35	1
35	34	1
35	41	1
37	36	1
36	46	1
37	38	1
37	39	1
38	33	1
38	47	1
33	34	1
33	31	1
34	45	1
31	32	1
31	30	1
41	42	1
41	43	1
39	40	1
30	44	1
66	67	1
65	66	1
66	73	1
64	67	1
67	72	1
63	64	1
64	74	1
62	63	1
63	70	1
62	65	1
62	68	1
65	71	1
68	69	1
73	75	1
74	76	1
74	77	1
77	78	1
15	16	1
15	18	1
15	21	1
16	17	1
16	23	1
17	20	1
17	27	1
19	20	1
20	25	1
18	19	1
19	26	1
18	24	1
26	28	1
21	22	1
27	29	1

[ angles ]
3	2	13	1
1	2	13	1
13	21	15	1
13	21	22	1
3	4	11	1
5	4	11	1
66	73	11	1
75	73	11	1
2	13	14	1
2	13	21	1
2	3	4	1
2	3	7	1
2	1	6	1
2	1	9	1
4	11	12	1
73	11	4	1
4	3	7	1
4	5	6	1
4	5	8	1
1	2	3	1
3	4	5	1
1	6	5	1
1	6	10	1
5	6	10	1
6	1	9	1
6	5	8	1
14	13	21	1
73	11	12	1
81	82	89	1
83	82	89	1
62	68	89	1
69	68	89	1
81	80	91	1
79	80	91	1
91	27	17	1
91	27	29	1
82	89	90	1
68	89	82	1
82	81	80	1
82	81	85	1
82	83	84	1
82	83	86	1
80	91	92	1
80	91	27	1
80	81	85	1
80	79	84	1
80	79	87	1
83	82	81	1
81	80	79	1
83	84	79	1
83	84	88	1
79	84	88	1
84	83	86	1
84	79	87	1
68	89	90	1
92	91	27	1
50	49	60	1
48	49	60	1
37	39	60	1
40	39	60	1
50	51	58	1
52	51	58	1
58	26	19	1
58	26	28	1
49	60	61	1
39	60	49	1
49	50	51	1
49	50	54	1
49	48	53	1
49	48	56	1
51	58	59	1
51	58	26	1
51	50	54	1
51	52	53	1
51	52	55	1
48	49	50	1
50	51	52	1
48	53	52	1
48	53	57	1
52	53	57	1
53	48	56	1
53	52	55	1
39	60	61	1
59	58	26	1
37	36	35	1
35	36	46	1
35	34	33	1
35	34	45	1
35	41	42	1
35	41	43	1
36	37	38	1
36	37	39	1
36	35	34	1
36	35	41	1
37	36	46	1
37	38	33	1
37	38	47	1
37	39	40	1
38	37	39	1
38	33	34	1
38	33	31	1
33	38	47	1
33	34	45	1
33	31	32	1
33	31	30	1
34	33	31	1
34	35	41	1
31	30	44	1
32	31	30	1
42	41	43	1
64	67	66	1
66	67	72	1
62	65	66	1
66	65	71	1
66	73	75	1
63	64	67	1
67	64	74	1
65	66	67	1
67	66	73	1
64	67	72	1
62	63	64	1
64	63	70	1
64	74	76	1
64	74	77	1
63	64	74	1
63	62	65	1
63	62	68	1
62	63	70	1
62	65	71	1
62	68	69	1
65	62	68	1
65	66	73	1
74	77	78	1
76	74	77	1
15	16	17	1
15	16	23	1
15	18	19	1
15	18	24	1
15	21	22	1
16	17	20	1
16	17	27	1
16	15	18	1
16	15	21	1
17	16	23	1
17	20	19	1
17	20	25	1
17	27	29	1
20	17	27	1
18	19	20	1
20	19	26	1
19	20	25	1
19	18	24	1
19	26	28	1
18	19	26	1
18	15	21	1

[ dihedrals ]
4	3	2	13	9
7	3	2	13	9
6	1	2	13	9
9	1	2	13	9
13	21	15	16	9
13	21	15	18	9
2	3	4	11	9
7	3	4	11	9
6	5	4	11	9
8	5	4	11	9
67	66	73	11	9
65	66	73	11	9
2	13	21	15	9
2	13	21	22	9
2	3	4	5	9
2	1	6	5	9
2	1	6	10	9
66	73	11	4	9
75	73	11	4	9
1	2	3	4	9
1	6	5	4	9
4	5	6	10	9
3	2	13	14	9
3	2	13	21	9
3	2	1	6	9
3	2	1	9	9
3	4	11	12	9
73	11	4	3	9
3	4	5	6	9
3	4	5	8	9
1	2	13	14	9
1	2	13	21	9
1	2	3	7	9
1	6	5	8	9
5	4	11	12	9
73	11	4	5	9
5	4	3	7	9
5	6	1	9	9
9	1	6	10	9
8	5	6	10	9
14	13	21	15	9
14	13	21	22	9
66	73	11	12	9
75	73	11	12	9
80	81	82	89	9
85	81	82	89	9
84	83	82	89	9
86	83	82	89	9
63	62	68	89	9
65	62	68	89	9
82	81	80	91	9
85	81	80	91	9
84	79	80	91	9
87	79	80	91	9
91	27	17	16	9
91	27	17	20	9
62	68	89	82	9
69	68	89	82	9
82	81	80	79	9
82	83	84	79	9
82	83	84	88	9
80	91	27	17	9
80	91	27	29	9
83	82	81	80	9
83	84	79	80	9
80	79	84	88	9
81	82	89	90	9
68	89	82	81	9
81	82	83	84	9
81	82	83	86	9
81	80	91	92	9
81	80	91	27	9
81	80	79	84	9
81	80	79	87	9
83	82	89	90	9
68	89	82	83	9
83	82	81	85	9
83	84	79	87	9
79	80	91	92	9
79	80	91	27	9
79	80	81	85	9
79	84	83	86	9
86	83	84	88	9
87	79	84	88	9
62	68	89	90	9
69	68	89	90	9
92	91	27	17	9
92	91	27	29	9
51	50	49	60	9
54	50	49	60	9
53	48	49	60	9
56	48	49	60	9
36	37	39	60	9
38	37	39	60	9
49	50	51	58	9
54	50	51	58	9
53	52	51	58	9
55	52	51	58	9
58	26	19	20	9
58	26	19	18	9
37	39	60	49	9
40	39	60	49	9
49	50	51	52	9
49	48	53	52	9
49	48	53	57	9
51	58	26	19	9
51	58	26	28	9
48	49	50	51	9
48	53	52	51	9
51	52	53	57	9
50	49	60	61	9
39	60	49	50	9
50	49	48	53	9
50	49	48	56	9
50	51	58	59	9
50	51	58	26	9
50	51	52	53	9
50	51	52	55	9
48	49	60	61	9
39	60	49	48	9
48	49	50	54	9
48	53	52	55	9
52	51	58	59	9
52	51	58	26	9
52	51	50	54	9
52	53	48	56	9
56	48	53	57	9
55	52	53	57	9
37	39	60	61	9
40	39	60	61	9
59	58	26	19	9
59	58	26	28	9
35	36	37	38	9
35	36	37	39	9
35	34	33	38	9
35	34	33	31	9
36	37	38	33	9
36	37	38	47	9
36	37	39	40	9
36	35	34	33	9
36	35	34	45	9
36	35	41	42	9
36	35	41	43	9
37	36	35	34	9
37	36	35	41	9
37	38	33	34	9
37	38	33	31	9
38	37	36	46	9
38	37	39	40	9
38	33	34	45	9
38	33	31	32	9
38	33	31	30	9
33	38	37	39	9
33	34	35	41	9
33	31	30	44	9
34	33	38	47	9
34	33	31	32	9
34	33	31	30	9
34	35	36	46	9
34	35	41	42	9
34	35	41	43	9
47	38	33	31	9
45	34	33	31	9
46	36	35	41	9
45	34	35	41	9
39	37	36	46	9
39	37	38	47	9
32	31	30	44	9
63	64	67	66	9
66	67	64	74	9
63	62	65	66	9
66	65	62	68	9
62	63	64	67	9
67	64	63	70	9
67	64	74	76	9
67	64	74	77	9
62	65	66	67	9
67	66	65	71	9
67	66	73	75	9
64	67	66	65	9
64	67	66	73	9
64	63	62	65	9
64	63	62	68	9
64	74	77	78	9
63	64	67	72	9
63	64	74	76	9
63	64	74	77	9
63	62	65	71	9
63	62	68	69	9
62	63	64	74	9
62	65	66	73	9
65	62	63	70	9
65	62	68	69	9
65	66	67	72	9
65	66	73	75	9
68	62	63	70	9
68	62	65	71	9
72	67	66	73	9
71	65	66	73	9
72	67	64	74	9
70	63	64	74	9
76	74	77	78	9
15	16	17	20	9
15	16	17	27	9
15	18	19	20	9
15	18	19	26	9
16	17	20	19	9
16	17	20	25	9
16	17	27	29	9
16	15	18	19	9
16	15	18	24	9
16	15	21	22	9
17	16	15	18	9
17	16	15	21	9
17	20	19	18	9
17	20	19	26	9
20	17	16	23	9
20	17	27	29	9
20	19	18	24	9
20	19	26	28	9
19	20	17	27	9
19	18	15	21	9
18	19	20	25	9
18	19	26	28	9
18	15	16	23	9
18	15	21	22	9
25	20	19	26	9
24	18	19	26	9
21	15	16	23	9
21	15	18	24	9
23	16	17	27	9
25	20	17	27	9
14	21	2	13	2
12	73	4	11	2
2	1	13	3	2
3	5	11	4	2
3	2	4	7	2
1	6	2	9	2
5	4	6	8	2
6	1	5	10	2
90	68	82	89	2
92	27	80	91	2
82	81	89	83	2
79	81	91	80	2
81	82	80	85	2
83	82	84	86	2
79	84	80	87	2
84	79	83	88	2
61	39	49	60	2
59	26	51	58	2
50	48	60	49	2
50	52	58	51	2
50	49	51	54	2
48	53	49	56	2
52	51	53	55	2
53	48	52	57	2
35	34	36	41	2
36	37	35	46	2
36	39	38	37	2
38	37	33	47	2
38	31	34	33	2
34	35	33	45	2
31	30	33	32	2
41	43	35	42	2
39	60	37	40	2
65	73	67	66	2
67	64	66	72	2
63	74	67	64	2
63	62	64	70	2
65	68	63	62	2
65	66	62	71	2
68	89	62	69	2
73	11	66	75	2
74	77	64	76	2
15	21	16	18	2
16	17	15	23	2
16	27	20	17	2
20	17	19	25	2
18	26	20	19	2
18	19	15	24	2
26	58	19	28	2
21	13	15	22	2
27	91	17	29	2

#include "ligand.itp"
#include "tip3p.itp"

[ system ]
Membrane in water


[ molecules ]
MOL1	1
MOL2	1
MOL3	1
MOL4	1
MOL5	1
MOL6	1
MOL7	1
MOL8	1
MOL9	1
LIG    1
NA    8
SOL              8618
