System
40347
    1TMC1    C1    1   1.392   2.321  11.669
    1TMC1    C2    2   1.267   2.369  11.615
    1TMC1    C3    3   1.260   2.507  11.602
    1TMC1    C4    4   1.494   2.409  11.699
    1TMC1    C5    5   1.470   2.540  11.674
    1TMC1    C6    6   1.354   2.589  11.630
    1TMC1     C    7   1.407   2.180  11.700
    1TMC1     O    8   1.307   2.112  11.718
    1TMC1     H    9   1.189   2.302  11.580
    1TMC1    H1   10   1.592   2.379  11.736
    1TMC1    H2   11   1.340   2.695  11.611
    1TMC1    C7   12   1.584   2.628  11.702
    1TMC1    C8   13   1.146   2.565  11.528
    1TMC1    O1   14   1.684   2.582  11.758
    1TMC1    O2   15   1.161   2.672  11.467
    1TMC1    O3   16   1.598   2.690  11.583
    1TMC1    H3   17   1.519   2.722  11.536
    1TMC1    O5   18   1.029   2.532  11.591
    1TMC1    H5   19   1.029   2.449  11.642
    2MPD2     C   20   1.730   1.800  11.854
    2MPD2    C1   21   1.594   1.796  11.845
    2MPD2    C2   22   1.526   1.905  11.775
    2MPD2    C3   23   1.596   2.014  11.746
    2MPD2    C4   24   1.731   2.022  11.757
    2MPD2    C5   25   1.795   1.912  11.805
    2MPD2     H   26   1.419   1.910  11.759
    2MPD2    H1   27   1.787   2.098  11.704
    2MPD2    H2   28   1.785   1.718  11.898
    2MPD2    H3   29   1.902   1.908  11.793
    2MPD2     N   30   1.543   2.141  11.706
    2MPD2    H5   31   1.615   2.208  11.682
    2MPD2    N1   32   1.511   1.694  11.899
    2MPD2    H7   33   1.411   1.707  11.888
    3TMC1    C1   34   1.018   3.021  10.872
    3TMC1    C2   35   0.985   3.091  10.759
    3TMC1    C3   36   1.082   3.116  10.666
    3TMC1    C4   37   1.142   2.967  10.885
    3TMC1    C5   38   1.235   2.989  10.789
    3TMC1    C6   39   1.207   3.068  10.678
    3TMC1     C   40   0.917   2.945  10.935
    3TMC1     O   41   0.941   2.832  10.967
    3TMC1     H   42   0.889   3.143  10.757
    3TMC1    H1   43   1.171   2.914  10.975
    3TMC1    H2   44   1.287   3.093  10.610
    3TMC1    C7   45   1.362   3.020  10.851
    3TMC1    C8   46   1.068   3.228  10.579
    3TMC1    O1   47   1.390   3.038  10.966
    3TMC1    O2   48   0.992   3.320  10.604
    3TMC1    O3   49   1.450   2.978  10.762
    3TMC1    H3   50   1.411   2.950  10.676
    3TMC1    O5   51   1.131   3.203  10.459
    3TMC1    H5   52   1.144   3.107  10.442
    4MPD2     C   53   0.448   2.911  11.167
    4MPD2    C1   54   0.495   3.039  11.162
    4MPD2    C2   55   0.609   3.062  11.087
    4MPD2    C3   56   0.687   2.968  11.026
    4MPD2    C4   57   0.661   2.837  11.059
    4MPD2    C5   58   0.538   2.812  11.126
    4MPD2     H   59   0.643   3.165  11.090
    4MPD2    H1   60   0.708   2.755  11.006
    4MPD2    H2   61   0.367   2.877  11.230
    4MPD2    H3   62   0.494   2.712  11.126
    4MPD2     N   63   0.802   3.021  10.959
    4MPD2    H5   64   0.815   3.121  10.971
    4MPD2    N1   65   0.441   3.139  11.241
    4MPD2    H7   66   0.495   3.225  11.247
    5TCq1    O1   67   2.026   4.434  12.569
    5TCq1    C1   68   1.992   4.387  12.448
    5TCq1    O2   69   2.073   4.347  12.363
    5TCq1    C2   70   1.866   4.449  12.413
    5TCq1    C3   71   1.762   4.450  12.502
    5TCq1    C4   72   1.661   4.530  12.464
    5TCq1    C5   73   1.652   4.601  12.349
    5TCq1    C6   74   1.755   4.585  12.265
    5TCq1    C7   75   1.863   4.506  12.290
    5TCq1    C8   76   1.750   4.629  12.122
    5TCq1    O4   77   1.816   4.568  12.038
    5TCq1    C9   78   1.555   4.540  12.566
    5TCq1    O5   79   1.578   4.524  12.686
    5TCq1    O6   80   1.437   4.567  12.508
    5TCq1    H1   81   1.958   4.483  12.619
    5TCq1    H2   82   1.768   4.408  12.602
    5TCq1    H3   83   1.575   4.672  12.321
    5TCq1    H4   84   1.945   4.500  12.220
    6MPD2     C   85   1.557   0.104  11.976
    6MPD2    C1   86   1.620   4.784  11.974
    6MPD2    C2   87   1.615   4.708  11.858
    6MPD2    C3   88   1.556   4.764  11.738
    6MPD2    C4   89   1.503   0.085  11.744
    6MPD2    C5   90   1.509   0.159  11.863
    6MPD2     H   91   1.646   4.606  11.871
    6MPD2    H1   92   1.481   0.138  11.652
    6MPD2    H2   93   1.569   0.161  12.068
    6MPD2    H3   94   1.483   0.264  11.859
    6MPD2     N   95   1.545   4.683  11.628
    6MPD2    H5   96   1.595   4.595  11.636
    6MPD2    N1   97   1.662   4.736  12.098
    6MPD2    H7   98   1.624   4.788  12.177
    7TCq1    O1   99   3.656   4.030  13.550
    7TCq1    C1  100   3.524   4.011  13.580
    7TCq1    O2  101   3.443   4.101  13.590
    7TCq1    C2  102   3.478   3.872  13.611
    7TCq1    C3  103   3.351   3.854  13.651
    7TCq1    C4  104   3.298   3.728  13.661
    7TCq1    C5  105   3.376   3.614  13.628
    7TCq1    C6  106   3.494   3.633  13.571
    7TCq1    C7  107   3.547   3.762  13.574
    7TCq1    C8  108   3.583   3.520  13.534
    7TCq1    O4  109   3.534   3.408  13.540
    7TCq1    C9  110   3.152   3.730  13.669
    7TCq1    O5  111   3.085   3.829  13.655
    7TCq1    O6  112   3.113   3.614  13.720
    7TCq1    H1  113   3.706   3.963  13.601
    7TCq1    H2  114   3.290   3.943  13.657
    7TCq1    H3  115   3.339   3.512  13.630
    7TCq1    H4  116   3.650   3.776  13.542
    8MPD2     C  117   4.059   3.344  13.562
    8MPD2    C1  118   3.946   3.283  13.605
    8MPD2    C2  119   3.830   3.358  13.580
    8MPD2    C3  120   3.832   3.485  13.517
    8MPD2    C4  121   3.956   3.543  13.494
    8MPD2    C5  122   4.062   3.467  13.525
    8MPD2     H  123   3.738   3.304  13.601
    8MPD2    H1  124   3.965   3.650  13.474
    8MPD2    H2  125   4.155   3.299  13.588
    8MPD2    H3  126   4.158   3.516  13.515
    8MPD2     N  127   3.714   3.564  13.506
    8MPD2    H5  128   3.722   3.665  13.502
    8MPD2    N1  129   3.950   3.157  13.661
    8MPD2    H7  130   4.042   3.122  13.686
    9TMC1    C1  131   1.400   3.143  11.473
    9TMC1    C2  132   1.280   3.117  11.412
    9TMC1    C3  133   1.266   3.154  11.283
    9TMC1    C4  134   1.510   3.216  11.415
    9TMC1    C5  135   1.497   3.232  11.279
    9TMC1    C6  136   1.373   3.213  11.219
    9TMC1     C  137   1.426   3.069  11.594
    9TMC1     O  138   1.531   3.093  11.644
    9TMC1     H  139   1.203   3.050  11.448
    9TMC1    H1  140   1.609   3.219  11.459
    9TMC1    H2  141   1.353   3.251  11.120
    9TMC1    C7  142   1.609   3.258  11.195
    9TMC1    C8  143   1.146   3.118  11.203
    9TMC1    O1  144   1.716   3.285  11.241
    9TMC1    O2  145   1.090   3.007  11.207
    9TMC1    O3  146   1.595   3.153  11.111
    9TMC1    H3  147   1.502   3.129  11.087
    9TMC1    O5  148   1.108   3.221  11.124
    9TMC1    H5  149   1.157   3.302  11.150
   10MPD2     C  150   1.445   2.923  11.852
   10MPD2    C1  151   1.334   2.924  11.768
   10MPD2    C2  152   1.225   2.845  11.800
   10MPD2    C3  153   1.219   2.764  11.906
   10MPD2    C4  154   1.334   2.755  11.980
   10MPD2    C5  155   1.442   2.825  11.946
   10MPD2     H  156   1.139   2.838  11.735
   10MPD2    H1  157   1.339   2.685  12.062
   10MPD2    H2  158   1.538   2.978  11.846
   10MPD2    H3  159   1.526   2.803  12.012
   10MPD2     N  160   1.112   2.676  11.939
   10MPD2    H5  161   1.134   2.599  12.002
   10MPD2    N1  162   1.331   2.989  11.639
   10MPD2    H7  163   1.242   2.993  11.590
   11TCq1    O1  164   2.658   2.265  14.567
   11TCq1    C1  165   2.535   2.219  14.552
   11TCq1    O2  166   2.498   2.135  14.468
   11TCq1    C2  167   2.442   2.270  14.652
   11TCq1    C3  168   2.502   2.314  14.774
   11TCq1    C4  169   2.409   2.343  14.878
   11TCq1    C5  170   2.275   2.337  14.864
   11TCq1    C6  171   2.223   2.286  14.747
   11TCq1    C7  172   2.305   2.250  14.642
   11TCq1    C8  173   2.087   2.236  14.748
   11TCq1    O4  174   2.012   2.280  14.837
   11TCq1    C9  175   2.464   2.377  15.007
   11TCq1    O5  176   2.569   2.446  15.016
   11TCq1    O6  177   2.430   2.270  15.081
   11TCq1    H1  178   2.649   2.349  14.616
   11TCq1    H2  179   2.605   2.291  14.796
   11TCq1    H3  180   2.215   2.352  14.953
   11TCq1    H4  181   2.279   2.208  14.545
   12MPD2     C  182   1.827   2.155  14.648
   12MPD2    C1  183   1.942   2.100  14.599
   12MPD2    C2  184   1.932   2.003  14.500
   12MPD2    C3  185   1.808   1.969  14.450
   12MPD2    C4  186   1.695   2.027  14.500
   12MPD2    C5  187   1.708   2.114  14.598
   12MPD2     H  188   2.025   1.964  14.459
   12MPD2    H1  189   1.599   1.999  14.460
   12MPD2    H2  190   1.827   2.228  14.728
   12MPD2    H3  191   1.613   2.160  14.622
   12MPD2     N  192   1.786   1.869  14.350
   12MPD2    H5  193   1.694   1.860  14.307
   12MPD2    N1  194   2.070   2.138  14.643
   12MPD2    H7  195   2.149   2.095  14.595
   13TCq1    O1  196   1.801   3.051  11.691
   13TCq1    C1  197   1.899   3.035  11.598
   13TCq1    O2  198   2.019   3.030  11.619
   13TCq1    C2  199   1.853   3.027  11.459
   13TCq1    C3  200   1.943   3.059  11.364
   13TCq1    C4  201   1.909   3.029  11.237
   13TCq1    C5  202   1.794   2.966  11.201
   13TCq1    C6  203   1.705   2.935  11.300
   13TCq1    C7  204   1.733   2.966  11.430
   13TCq1    C8  205   1.581   2.867  11.276
   13TCq1    O4  206   1.512   2.839  11.378
   13TCq1    C9  207   1.986   3.102  11.135
   13TCq1    O5  208   2.109   3.127  11.146
   13TCq1    O6  209   1.888   3.166  11.062
   13TCq1    H1  210   1.710   3.060  11.655
   13TCq1    H2  211   2.043   3.087  11.395
   13TCq1    H3  212   1.776   2.928  11.101
   13TCq1    H4  213   1.684   2.919  11.515
   14MPD2     C  214   1.460   2.714  10.972
   14MPD2    C1  215   1.448   2.758  11.099
   14MPD2    C2  216   1.332   2.745  11.168
   14MPD2    C3  217   1.224   2.678  11.104
   14MPD2    C4  218   1.237   2.625  10.974
   14MPD2    C5  219   1.360   2.636  10.916
   14MPD2     H  220   1.328   2.785  11.268
   14MPD2    H1  221   1.152   2.573  10.930
   14MPD2    H2  222   1.544   2.733  10.907
   14MPD2    H3  223   1.375   2.612  10.811
   14MPD2     N  224   1.111   2.672  11.185
   14MPD2    H5  225   1.117   2.710  11.279
   14MPD2    N1  226   1.556   2.833  11.147
   14MPD2    H7  227   1.616   2.863  11.071
   15TCq1    O1  228   3.123   0.357  19.552
   15TCq1    C1  229   3.064   0.474  19.574
   15TCq1    O2  230   3.064   0.518  19.691
   15TCq1    C2  231   3.004   0.541  19.459
   15TCq1    C3  232   2.934   0.656  19.485
   15TCq1    C4  233   2.918   0.757  19.389
   15TCq1    C5  234   2.954   0.730  19.259
   15TCq1    C6  235   3.011   0.605  19.234
   15TCq1    C7  236   3.040   0.511  19.330
   15TCq1    C8  237   3.095   0.599  19.118
   15TCq1    O4  238   3.126   0.711  19.073
   15TCq1    C9  239   2.841   0.882  19.415
   15TCq1    O5  240   2.824   0.961  19.325
   15TCq1    O6  241   2.848   0.923  19.547
   15TCq1    H1  242   3.114   0.311  19.466
   15TCq1    H2  243   2.915   0.659  19.592
   15TCq1    H3  244   2.937   0.803  19.181
   15TCq1    H4  245   3.096   0.421  19.308
   16MPD2     C  246   3.154   0.344  18.864
   16MPD2    C1  247   3.190   0.451  18.942
   16MPD2    C2  248   3.310   0.524  18.915
   16MPD2    C3  249   3.374   0.489  18.800
   16MPD2    C4  250   3.343   0.376  18.731
   16MPD2    C5  251   3.238   0.294  18.768
   16MPD2     H  252   3.335   0.616  18.966
   16MPD2    H1  253   3.411   0.344  18.652
   16MPD2    H2  254   3.066   0.287  18.893
   16MPD2    H3  255   3.198   0.206  18.719
   16MPD2     N  256   3.477   0.577  18.760
   16MPD2    H5  257   3.511   0.648  18.825
   16MPD2    N1  258   3.108   0.476  19.053
   16MPD2    H7  259   3.049   0.401  19.086
   17TMC1    C1  260   1.282   1.994  11.351
   17TMC1    C2  261   1.350   1.914  11.440
   17TMC1    C3  262   1.328   1.774  11.418
   17TMC1    C4  263   1.229   1.941  11.235
   17TMC1    C5  264   1.238   1.811  11.208
   17TMC1    C6  265   1.285   1.721  11.299
   17TMC1     C  266   1.328   2.134  11.324
   17TMC1     O  267   1.237   2.219  11.317
   17TMC1     H  268   1.392   1.959  11.529
   17TMC1    H1  269   1.181   2.010  11.167
   17TMC1    H2  270   1.273   1.616  11.275
   17TMC1    C7  271   1.155   1.772  11.092
   17TMC1    C8  272   1.397   1.683  11.511
   17TMC1    O1  273   1.082   1.674  11.091
   17TMC1    O2  274   1.363   1.666  11.625
   17TMC1    O3  275   1.229   1.823  10.988
   17TMC1    H3  276   1.313   1.867  11.014
   17TMC1    O5  277   1.448   1.592  11.427
   17TMC1    H5  278   1.474   1.609  11.334
   18MPD2     C  279   1.474   2.391  11.313
   18MPD2    C1  280   1.530   2.273  11.339
   18MPD2    C2  281   1.665   2.263  11.373
   18MPD2    C3  282   1.746   2.372  11.375
   18MPD2    C4  283   1.686   2.495  11.355
   18MPD2    C5  284   1.557   2.501  11.320
   18MPD2     H  285   1.707   2.163  11.380
   18MPD2    H1  286   1.733   2.592  11.359
   18MPD2    H2  287   1.374   2.402  11.273
   18MPD2    H3  288   1.514   2.599  11.302
   18MPD2     N  289   1.886   2.365  11.391
   18MPD2    H5  290   1.938   2.451  11.378
   18MPD2    N1  291   1.454   2.158  11.346
   18MPD2    H7  292   1.508   2.074  11.364
   19TMC2    C1  293   3.092   2.100  14.222
   19TMC2    C2  294   3.021   2.216  14.197
   19TMC2    C3  295   2.886   2.223  14.220
   19TMC2    C4  296   3.025   1.989  14.258
   19TMC2    C5  297   2.884   1.996  14.280
   19TMC2    C6  298   2.816   2.116  14.263
   19TMC2     C  299   3.240   2.110  14.201
   19TMC2     O  300   3.282   2.198  14.132
   19TMC2     H  301   3.079   2.306  14.181
   19TMC2    H1  302   3.082   1.897  14.265
   19TMC2    H2  303   2.712   2.135  14.287
   19TMC2    C7  304   2.806   1.892  14.343
   19TMC2    C8  305   2.813   2.344  14.235
   19TMC2    O1  306   2.879   1.805  14.383
   19TMC2    O2  307   2.697   2.351  14.192
   19TMC2    O5  308   2.899   2.442  14.284
   19TMC2    H5  309   2.968   2.418  14.350
   20MPD2     C  310   3.537   2.085  14.220
   20MPD2    C1  311   3.450   1.999  14.283
   20MPD2    C2  312   3.501   1.905  14.367
   20MPD2    C3  313   3.640   1.901  14.387
   20MPD2    C4  314   3.721   1.991  14.331
   20MPD2    C5  315   3.672   2.084  14.241
   20MPD2     H  316   3.429   1.843  14.418
   20MPD2    H1  317   3.828   1.980  14.343
   20MPD2    H2  318   3.514   2.168  14.155
   20MPD2    H3  319   3.740   2.148  14.187
   20MPD2     N  320   3.698   1.805  14.472
   20MPD2    H5  321   3.796   1.813  14.497
   20MPD2    N1  322   3.314   2.015  14.278
   20MPD2    H7  323   3.257   1.945  14.325
   21TMC2    C1  324   0.377   2.286  14.373
   21TMC2    C2  325   0.483   2.200  14.354
   21TMC2    C3  326   0.537   2.140  14.462
   21TMC2    C4  327   0.303   2.286  14.485
   21TMC2    C5  328   0.346   2.218  14.593
   21TMC2    C6  329   0.465   2.144  14.585
   21TMC2     C  330   0.359   2.377  14.269
   21TMC2     O  331   0.368   2.332  14.156
   21TMC2     H  332   0.550   2.204  14.269
   21TMC2    H1  333   0.224   2.359  14.495
   21TMC2    H2  334   0.508   2.102  14.675
   21TMC2    C7  335   0.329   2.281  14.725
   21TMC2    C8  336   0.619   2.022  14.446
   21TMC2    O1  337   0.408   2.245  14.813
   21TMC2    O2  338   0.672   1.960  14.539
   21TMC2    O5  339   0.571   1.957  14.337
   21TMC2    H5  340   0.493   1.986  14.285
   22MPD2     C  341   0.419   2.729  14.621
   22MPD2    C1  342   0.499   2.626  14.590
   22MPD2    C2  343   0.463   2.559  14.477
   22MPD2    C3  344   0.349   2.582  14.406
   22MPD2    C4  345   0.264   2.684  14.442
   22MPD2    C5  346   0.301   2.755  14.561
   22MPD2     H  347   0.518   2.475  14.437
   22MPD2    H1  348   0.176   2.714  14.387
   22MPD2    H2  349   0.439   2.792  14.708
   22MPD2    H3  350   0.246   2.837  14.604
   22MPD2     N  351   0.305   2.494  14.300
   22MPD2    H5  352   0.243   2.544  14.237
   22MPD2    N1  353   0.608   2.576  14.668
   22MPD2    H7  354   0.649   2.491  14.630
   23TMC2    C1  355   1.540   3.643  14.453
   23TMC2    C2  356   1.568   3.781  14.454
   23TMC2    C3  357   1.462   3.865  14.442
   23TMC2    C4  358   1.415   3.598  14.445
   23TMC2    C5  359   1.317   3.685  14.414
   23TMC2    C6  360   1.334   3.818  14.427
   23TMC2     C  361   1.621   3.555  14.532
   23TMC2     O  362   1.564   3.463  14.586
   23TMC2     H  363   1.662   3.832  14.473
   23TMC2    H1  364   1.399   3.492  14.430
   23TMC2    H2  365   1.250   3.881  14.400
   23TMC2    C7  366   1.181   3.628  14.420
   23TMC2    C8  367   1.486   4.006  14.443
   23TMC2    O1  368   1.182   3.517  14.468
   23TMC2    O2  369   1.592   4.064  14.411
   23TMC2    O5  370   1.443   4.021  14.577
   23TMC2    H5  371   1.369   3.962  14.600
   24MPD2     C  372   2.087   3.403  14.675
   24MPD2    C1  373   1.970   3.401  14.753
   24MPD2    C2  374   1.856   3.464  14.699
   24MPD2    C3  375   1.868   3.518  14.573
   24MPD2    C4  376   1.982   3.512  14.501
   24MPD2    C5  377   2.096   3.454  14.548
   24MPD2     H  378   1.761   3.464  14.750
   24MPD2    H1  379   1.985   3.558  14.402
   24MPD2    H2  380   2.173   3.351  14.716
   24MPD2    H3  381   2.182   3.446  14.482
   24MPD2     N  382   1.754   3.580  14.506
   24MPD2    H5  383   1.780   3.637  14.427
   24MPD2    N1  384   1.955   3.336  14.874
   24MPD2    H7  385   1.880   3.370  14.934
   25TMC2    C1  386   0.975   0.945  12.202
   25TMC2    C2  387   1.044   0.981  12.311
   25TMC2    C3  388   1.017   1.104  12.370
   25TMC2    C4  389   0.878   1.022  12.146
   25TMC2    C5  390   0.851   1.132  12.218
   25TMC2    C6  391   0.917   1.177  12.325
   25TMC2     C  392   1.023   0.834  12.122
   25TMC2     O  393   1.135   0.794  12.150
   25TMC2     H  394   1.130   0.917  12.329
   25TMC2    H1  395   0.826   1.004  12.053
   25TMC2    H2  396   0.882   1.273  12.363
   25TMC2    C7  397   0.799   1.240  12.134
   25TMC2    C8  398   1.068   1.136  12.496
   25TMC2    O1  399   0.861   1.346  12.148
   25TMC2    O2  400   1.099   1.248  12.529
   25TMC2    O5  401   1.108   1.021  12.550
   25TMC2    H5  402   1.054   0.950  12.509
   26MPD2     C  403   1.013   0.457  11.804
   26MPD2    C1  404   0.884   0.463  11.848
   26MPD2    C2  405   0.852   0.567  11.939
   26MPD2    C3  406   0.949   0.668  11.972
   26MPD2    C4  407   1.070   0.656  11.922
   26MPD2    C5  408   1.104   0.555  11.842
   26MPD2     H  409   0.750   0.579  11.973
   26MPD2    H1  410   1.146   0.732  11.938
   26MPD2    H2  411   1.043   0.379  11.734
   26MPD2    H3  412   1.207   0.551  11.808
   26MPD2     N  413   0.919   0.775  12.058
   26MPD2    H5  414   0.824   0.803  12.082
   26MPD2    N1  415   0.791   0.367  11.803
   26MPD2    H7  416   0.819   0.301  11.731
   27TMC2    C1  417   4.549   3.180  12.480
   27TMC2    C2  418   4.475   3.287  12.444
   27TMC2    C3  419   4.533   3.374  12.352
   27TMC2    C4  420   4.677   3.163  12.426
   27TMC2    C5  421   4.735   3.255  12.340
   27TMC2    C6  422   4.656   3.359  12.304
   27TMC2     C  423   4.513   3.101  12.594
   27TMC2     O  424   4.572   2.998  12.625
   27TMC2     H  425   4.371   3.312  12.463
   27TMC2    H1  426   4.742   3.096  12.481
   27TMC2    H2  427   4.692   3.431  12.232
   27TMC2    C7  428   0.063   3.291  12.378
   27TMC2    C8  429   4.461   3.491  12.311
   27TMC2    O1  430   0.135   3.209  12.430
   27TMC2    O2  431   4.490   3.569  12.216
   27TMC2    O5  432   4.414   3.540  12.431
   27TMC2    H5  433   4.443   3.488  12.509
   28MPD2     C  434   4.123   2.933  12.878
   28MPD2    C1  435   4.108   3.071  12.866
   28MPD2    C2  436   4.200   3.147  12.789
   28MPD2    C3  437   4.311   3.084  12.735
   28MPD2    C4  438   4.332   2.954  12.769
   28MPD2    C5  439   4.238   2.881  12.834
   28MPD2     H  440   4.171   3.250  12.772
   28MPD2    H1  441   4.424   2.904  12.741
   28MPD2    H2  442   4.051   2.872  12.931
   28MPD2    H3  443   4.263   2.780  12.863
   28MPD2     N  444   4.394   3.153  12.646
   28MPD2    H5  445   4.370   3.249  12.622
   28MPD2    N1  446   3.982   3.115  12.909
   28MPD2    H7  447   3.925   3.049  12.962
   29TMC2    C1  448   3.765   0.799  14.625
   29TMC2    C2  449   3.757   0.798  14.763
   29TMC2    C3  450   3.805   0.909  14.824
   29TMC2    C4  451   3.810   0.907  14.553
   29TMC2    C5  452   3.861   1.013  14.628
   29TMC2    C6  453   3.857   1.015  14.761
   29TMC2     C  454   3.756   0.679  14.552
   29TMC2     O  455   3.790   0.579  14.618
   29TMC2     H  456   3.709   0.722  14.824
   29TMC2    H1  457   3.819   0.906  14.445
   29TMC2    H2  458   3.894   1.101  14.816
   29TMC2    C7  459   3.928   1.117  14.556
   29TMC2    C8  460   3.817   0.910  14.963
   29TMC2    O1  461   3.896   1.135  14.439
   29TMC2    O2  462   3.823   0.804  15.024
   29TMC2    O5  463   3.789   1.032  15.022
   29TMC2    H5  464   3.769   1.100  14.954
   30MPD2     C  465   3.603   0.417  14.132
   30MPD2    C1  466   3.703   0.388  14.221
   30MPD2    C2  467   3.727   0.475  14.326
   30MPD2    C3  468   3.662   0.594  14.343
   30MPD2    C4  469   3.564   0.624  14.254
   30MPD2    C5  470   3.528   0.530  14.159
   30MPD2     H  471   3.816   0.451  14.385
   30MPD2    H1  472   3.505   0.715  14.251
   30MPD2    H2  473   3.563   0.349  14.057
   30MPD2    H3  474   3.449   0.566  14.093
   30MPD2     N  475   3.692   0.693  14.434
   30MPD2    H5  476   3.657   0.787  14.413
   30MPD2    N1  477   3.779   0.268  14.216
   30MPD2    H7  478   3.855   0.273  14.284
   31TMC2    C1  479   1.445   4.229  15.685
   31TMC2    C2  480   1.315   4.250  15.709
   31TMC2    C3  481   1.276   4.289  15.832
   31TMC2    C4  482   1.534   4.244  15.785
   31TMC2    C5  483   1.489   4.282  15.910
   31TMC2    C6  484   1.361   4.292  15.942
   31TMC2     C  485   1.484   4.228  15.547
   31TMC2     O  486   1.401   4.263  15.460
   31TMC2     H  487   1.241   4.239  15.631
   31TMC2    H1  488   1.640   4.246  15.765
   31TMC2    H2  489   1.335   4.326  16.042
   31TMC2    C7  490   1.586   4.278  16.015
   31TMC2    C8  491   1.138   4.285  15.864
   31TMC2    O1  492   1.687   4.212  15.998
   31TMC2    O2  493   1.100   4.220  15.961
   31TMC2    O5  494   1.068   4.387  15.802
   31TMC2    H5  495   1.114   4.429  15.726
   32MPD2     C  496   1.894   4.325  15.252
   32MPD2    C1  497   1.768   4.360  15.232
   32MPD2    C2  498   1.658   4.304  15.307
   32MPD2    C3  499   1.694   4.215  15.413
   32MPD2    C4  500   1.825   4.176  15.425
   32MPD2    C5  501   1.918   4.226  15.342
   32MPD2     H  502   1.556   4.332  15.285
   32MPD2    H1  503   1.860   4.106  15.499
   32MPD2    H2  504   1.980   4.367  15.201
   32MPD2    H3  505   2.023   4.200  15.354
   32MPD2     N  506   1.610   4.179  15.528
   32MPD2    H5  507   1.649   4.119  15.600
   32MPD2    N1  508   1.760   4.447  15.120
   32MPD2    H7  509   1.837   4.481  15.064
   33TMC2    C1  510   1.909   2.333  10.459
   33TMC2    C2  511   1.790   2.265  10.463
   33TMC2    C3  512   1.672   2.319  10.411
   33TMC2    C4  513   1.912   2.461  10.409
   33TMC2    C5  514   1.800   2.521  10.373
   33TMC2    C6  515   1.674   2.452  10.361
   33TMC2     C  516   1.995   2.319  10.580
   33TMC2     O  517   1.950   2.289  10.690
   33TMC2     H  518   1.786   2.162  10.498
   33TMC2    H1  519   2.002   2.520  10.392
   33TMC2    H2  520   1.582   2.500  10.332
   33TMC2    C7  521   1.802   2.663  10.330
   33TMC2    C8  522   1.579   2.220  10.363
   33TMC2    O1  523   1.891   2.728  10.376
   33TMC2    O2  524   1.502   2.247  10.274
   33TMC2    O5  525   1.560   2.119  10.457
   33TMC2    H5  526   1.606   2.152  10.537
   34MPD2     C  527   2.461   2.379  10.807
   34MPD2    C1  528   2.335   2.371  10.856
   34MPD2    C2  529   2.223   2.376  10.772
   34MPD2    C3  530   2.234   2.377  10.637
   34MPD2    C4  531   2.364   2.389  10.580
   34MPD2    C5  532   2.473   2.394  10.672
   34MPD2     H  533   2.123   2.379  10.813
   34MPD2    H1  534   2.379   2.382  10.473
   34MPD2    H2  535   2.549   2.372  10.869
   34MPD2    H3  536   2.573   2.397  10.630
   34MPD2     N  537   2.125   2.361  10.549
   34MPD2    H5  538   2.153   2.356  10.452
   34MPD2    N1  539   2.321   2.343  10.995
   34MPD2    H7  540   2.404   2.332  11.052
   35TMC2    C1  541   2.897   3.752  11.941
   35TMC2    C2  542   2.795   3.843  11.909
   35TMC2    C3  543   2.661   3.801  11.931
   35TMC2    C4  544   2.872   3.639  12.013
   35TMC2    C5  545   2.744   3.614  12.051
   35TMC2    C6  546   2.637   3.690  12.010
   35TMC2     C  547   3.029   3.783  11.889
   35TMC2     O  548   3.033   3.871  11.808
   35TMC2     H  549   2.814   3.938  11.860
   35TMC2    H1  550   2.947   3.569  12.047
   35TMC2    H2  551   2.537   3.670  12.047
   35TMC2    C7  552   2.722   3.473  12.065
   35TMC2    C8  553   2.562   3.886  11.868
   35TMC2    O1  554   2.614   3.428  12.031
   35TMC2    O2  555   2.598   3.982  11.805
   35TMC2    O5  556   2.462   3.802  11.840
   35TMC2    H5  557   2.434   3.720  11.887
   36MPD2     C  558   3.541   3.804  11.924
   36MPD2    C1  559   3.493   3.709  12.018
   36MPD2    C2  560   3.357   3.683  12.027
   36MPD2    C3  561   3.271   3.758  11.953
   36MPD2    C4  562   3.321   3.857  11.865
   36MPD2    C5  563   3.461   3.869  11.841
   36MPD2     H  564   3.319   3.596  12.078
   36MPD2    H1  565   3.253   3.920  11.809
   36MPD2    H2  566   3.648   3.821  11.916
   36MPD2    H3  567   3.496   3.930  11.759
   36MPD2     N  568   3.132   3.722  11.954
   36MPD2    H5  569   3.106   3.644  12.013
   36MPD2    N1  570   3.590   3.627  12.093
   36MPD2    H7  571   3.686   3.623  12.061
   37TMC2    C1  572   0.879   3.188  12.422
   37TMC2    C2  573   0.777   3.106  12.380
   37TMC2    C3  574   0.769   3.089  12.248
   37TMC2    C4  575   0.955   3.272  12.336
   37TMC2    C5  576   0.923   3.265  12.200
   37TMC2    C6  577   0.837   3.167  12.152
   37TMC2     C  578   0.865   3.227  12.554
   37TMC2     O  579   0.755   3.222  12.599
   37TMC2     H  580   0.717   3.041  12.442
   37TMC2    H1  581   1.015   3.346  12.388
   37TMC2    H2  582   0.789   3.179  12.056
   37TMC2    C7  583   0.985   3.353  12.103
   37TMC2    C8  584   0.701   2.971  12.205
   37TMC2    O1  585   1.036   3.459  12.149
   37TMC2    O2  586   0.616   2.914  12.270
   37TMC2    O5  587   0.741   2.931  12.088
   37TMC2    H5  588   0.817   2.986  12.060
   38MPD2     C  589   0.986   3.391  13.022
   38MPD2    C1  590   1.108   3.387  12.949
   38MPD2    C2  591   1.098   3.346  12.815
   38MPD2    C3  592   0.980   3.301  12.764
   38MPD2    C4  593   0.873   3.306  12.838
   38MPD2    C5  594   0.871   3.351  12.967
   38MPD2     H  595   1.182   3.338  12.747
   38MPD2    H1  596   0.776   3.261  12.817
   38MPD2    H2  597   0.995   3.401  13.129
   38MPD2    H3  598   0.776   3.368  13.016
   38MPD2     N  599   0.977   3.252  12.626
   38MPD2    H5  600   1.061   3.251  12.570
   38MPD2    N1  601   1.231   3.399  13.015
   38MPD2    H7  602   1.316   3.361  12.974
   39TMC2    C1  603   3.594   0.623  19.246
   39TMC2    C2  604   3.523   0.742  19.230
   39TMC2    C3  605   3.591   0.861  19.213
   39TMC2    C4  606   3.732   0.617  19.246
   39TMC2    C5  607   3.799   0.734  19.210
   39TMC2    C6  608   3.729   0.854  19.199
   39TMC2     C  609   3.509   0.500  19.265
   39TMC2     O  610   3.391   0.512  19.300
   39TMC2     H  611   3.415   0.745  19.231
   39TMC2    H1  612   3.787   0.526  19.269
   39TMC2    H2  613   3.773   0.942  19.154
   39TMC2    C7  614   3.923   0.746  19.299
   39TMC2    C8  615   3.517   0.986  19.200
   39TMC2    O1  616   3.925   0.669  19.396
   39TMC2    O2  617   3.410   0.998  19.138
   39TMC2    O5  618   3.603   1.085  19.242
   39TMC2    H5  619   3.680   1.038  19.279
   40MPD2     C  620   3.567   0.226  19.026
   40MPD2    C1  621   3.500   0.290  19.128
   40MPD2    C2  622   3.384   0.225  19.185
   40MPD2    C3  623   3.332   0.108  19.132
   40MPD2    C4  624   3.411   0.049  19.027
   40MPD2    C5  625   3.517   0.116  18.967
   40MPD2     H  626   3.327   0.282  19.257
   40MPD2    H1  627   3.369   4.769  18.974
   40MPD2    H2  628   3.652   0.266  18.971
   40MPD2    H3  629   3.578   0.072  18.889
   40MPD2     N  630   3.211   0.041  19.175
   40MPD2    H5  631   3.195   4.751  19.143
   40MPD2    N1  632   3.559   0.413  19.176
   40MPD2    H7  633   3.651   0.436  19.140
   41TMC2    C1  634   2.595   3.676  13.957
   41TMC2    C2  635   2.505   3.751  14.025
   41TMC2    C3  636   2.463   3.872  13.974
   41TMC2    C4  637   2.654   3.711  13.838
   41TMC2    C5  638   2.607   3.827  13.792
   41TMC2    C6  639   2.517   3.909  13.853
   41TMC2     C  640   2.641   3.553  14.020
   41TMC2     O  641   2.710   3.483  13.951
   41TMC2     H  642   2.456   3.721  14.117
   41TMC2    H1  643   2.733   3.651  13.795
   41TMC2    H2  644   2.487   4.004  13.810
   41TMC2    C7  645   2.682   3.897  13.695
   41TMC2    C8  646   2.323   3.899  14.002
   41TMC2    O1  647   2.730   4.006  13.727
   41TMC2    O2  648   2.233   3.817  14.015
   41TMC2    O5  649   2.309   4.037  14.019
   41TMC2    H5  650   2.396   4.082  14.006
   42MPD2     C  651   2.690   3.319  14.188
   42MPD2    C1  652   2.624   3.436  14.234
   42MPD2    C2  653   2.586   3.433  14.368
   42MPD2    C3  654   2.601   3.319  14.450
   42MPD2    C4  655   2.672   3.206  14.399
   42MPD2    C5  656   2.718   3.212  14.273
   42MPD2     H  657   2.538   3.519  14.413
   42MPD2    H1  658   2.680   3.111  14.451
   42MPD2    H2  659   2.744   3.317  14.094
   42MPD2    H3  660   2.780   3.135  14.229
   42MPD2     N  661   2.560   3.307  14.588
   42MPD2    H5  662   2.585   3.219  14.631
   42MPD2    N1  663   2.601   3.549  14.151
   42MPD2    H7  664   2.555   3.630  14.192
   43TMC2    C1  665   3.876   1.877  19.230
   43TMC2    C2  666   3.744   1.918  19.221
   43TMC2    C3  667   3.705   2.027  19.304
   43TMC2    C4  668   3.953   1.945  19.321
   43TMC2    C5  669   3.908   2.046  19.401
   43TMC2    C6  670   3.780   2.086  19.398
   43TMC2     C  671   3.946   1.797  19.125
   43TMC2     O  672   4.071   1.790  19.123
   43TMC2     H  673   3.675   1.870  19.153
   43TMC2    H1  674   4.058   1.916  19.322
   43TMC2    H2  675   3.745   2.174  19.450
   43TMC2    C7  676   4.004   2.124  19.482
   43TMC2    C8  677   3.577   2.080  19.265
   43TMC2    O1  678   4.122   2.129  19.446
   43TMC2    O2  679   3.542   2.062  19.153
   43TMC2    O5  680   3.505   2.115  19.368
   43TMC2    H5  681   3.557   2.132  19.449
   44MPD2     C  682   3.997   1.569  18.681
   44MPD2    C1  683   4.072   1.672  18.729
   44MPD2    C2  684   4.027   1.735  18.845
   44MPD2    C3  685   3.906   1.704  18.906
   44MPD2    C4  686   3.828   1.606  18.851
   44MPD2    C5  687   3.873   1.537  18.739
   44MPD2     H  688   4.089   1.813  18.889
   44MPD2    H1  689   3.727   1.586  18.885
   44MPD2    H2  690   4.017   1.507  18.595
   44MPD2    H3  691   3.827   1.457  18.683
   44MPD2     N  692   3.860   1.751  19.028
   44MPD2    H5  693   3.761   1.737  19.050
   44MPD2    N1  694   4.194   1.717  18.669
   44MPD2    H7  695   4.242   1.798  18.707
   45TMC2    C1  696   0.247   3.669   9.852
   45TMC2    C2  697   0.351   3.668   9.763
   45TMC2    C3  698   0.454   3.763   9.771
   45TMC2    C4  699   0.243   3.759   9.958
   45TMC2    C5  700   0.353   3.841   9.968
   45TMC2    C6  701   0.458   3.846   9.874
   45TMC2     C  702   0.133   3.580   9.822
   45TMC2     O  703   0.162   3.493   9.746
   45TMC2     H  704   0.353   3.599   9.679
   45TMC2    H1  705   0.156   3.760  10.023
   45TMC2    H2  706   0.534   3.922   9.892
   45TMC2    C7  707   0.339   3.968  10.036
   45TMC2    C8  708   0.553   3.767   9.667
   45TMC2    O1  709   0.266   3.967  10.136
   45TMC2    O2  710   0.630   3.860   9.650
   45TMC2    O5  711   0.571   3.638   9.622
   45TMC2    H5  712   0.529   3.570   9.679
   46MPD2     C  713   4.684   3.442   9.870
   46MPD2    C1  714   4.695   3.579   9.842
   46MPD2    C2  715   4.583   3.647   9.797
   46MPD2    C3  716   4.464   3.587   9.768
   46MPD2    C4  717   4.454   3.454   9.788
   46MPD2    C5  718   4.555   3.391   9.847
   46MPD2     H  719   4.601   3.754   9.792
   46MPD2    H1  720   4.368   3.393   9.764
   46MPD2    H2  721   4.773   3.390   9.902
   46MPD2    H3  722   4.547   3.284   9.862
   46MPD2     N  723   4.352   3.677   9.736
   46MPD2    H5  724   4.379   3.775   9.737
   46MPD2    N1  725   0.013   3.644   9.854
   46MPD2    H7  726   0.017   3.744   9.874
   47TMC2    C1  727   1.658   0.075   9.218
   47TMC2    C2  728   1.716   0.010   9.116
   47TMC2    C3  729   1.647   4.727   9.045
   47TMC2    C4  730   1.525   0.068   9.238
   47TMC2    C5  731   1.453   4.781   9.171
   47TMC2    C6  732   1.514   4.703   9.074
   47TMC2     C  733   1.738   0.119   9.330
   47TMC2     O  734   1.691   0.198   9.415
   47TMC2     H  735   1.818   0.027   9.082
   47TMC2    H1  736   1.480   0.120   9.322
   47TMC2    H2  737   1.467   4.617   9.028
   47TMC2    C7  738   1.312   4.781   9.184
   47TMC2    C8  739   1.721   4.632   8.968
   47TMC2    O1  740   1.255   4.680   9.142
   47TMC2    O2  741   1.843   4.618   8.981
   47TMC2    O5  742   1.660   4.634   8.849
   47TMC2    H5  743   1.567   4.664   8.857
   48MPD2     C  744   1.984   0.168   9.495
   48MPD2    C1  745   1.953   0.051   9.436
   48MPD2    C2  746   2.037   4.748   9.469
   48MPD2    C3  747   2.145   4.751   9.552
   48MPD2    C4  748   2.171   0.067   9.613
   48MPD2    C5  749   2.088   0.174   9.585
   48MPD2     H  750   2.002   4.651   9.436
   48MPD2    H1  751   2.254   0.081   9.681
   48MPD2    H2  752   1.925   0.258   9.481
   48MPD2    H3  753   2.105   0.275   9.623
   48MPD2     N  754   2.226   4.636   9.570
   48MPD2    H5  755   2.221   4.565   9.498
   48MPD2    N1  756   1.846   0.034   9.349
   48MPD2    H7  757   1.854   4.761   9.285
   49TMC2    C1  758   0.904   2.017  10.680
   49TMC2    C2  759   0.982   2.081  10.582
   49TMC2    C3  760   0.950   2.061  10.451
   49TMC2    C4  761   0.795   1.936  10.653
   49TMC2    C5  762   0.764   1.928  10.520
   49TMC2    C6  763   0.839   1.986  10.414
   49TMC2     C  764   0.933   2.051  10.817
   49TMC2     O  765   0.993   2.156  10.836
   49TMC2     H  766   1.063   2.148  10.608
   49TMC2    H1  767   0.723   1.911  10.730
   49TMC2    H2  768   0.810   1.970  10.311
   49TMC2    C7  769   0.638   1.856  10.484
   49TMC2    C8  770   1.014   2.138  10.349
   49TMC2    O1  771   0.599   1.874  10.369
   49TMC2    O2  772   0.947   2.197  10.267
   49TMC2    O5  773   1.125   2.192  10.405
   49TMC2    H5  774   1.176   2.115  10.439
   50MPD2     C  775   0.913   2.110  11.121
   50MPD2    C1  776   0.876   1.994  11.051
   50MPD2    C2  777   0.829   1.885  11.133
   50MPD2    C3  778   0.811   1.903  11.268
   50MPD2    C4  779   0.845   2.017  11.331
   50MPD2    C5  780   0.902   2.118  11.260
   50MPD2     H  781   0.807   1.789  11.089
   50MPD2    H1  782   0.827   2.022  11.438
   50MPD2    H2  783   0.948   2.198  11.068
   50MPD2    H3  784   0.933   2.206  11.314
   50MPD2     N  785   0.764   1.806  11.363
   50MPD2    H5  786   0.768   1.832  11.461
   50MPD2    N1  787   0.873   1.965  10.909
   50MPD2    H7  788   0.836   1.876  10.877
   51TMC2    C1  789   0.955   0.606  19.527
   51TMC2    C2  790   1.019   0.700  19.603
   51TMC2    C3  791   0.974   0.830  19.595
   51TMC2    C4  792   0.854   0.644  19.440
   51TMC2    C5  793   0.821   0.774  19.430
   51TMC2    C6  794   0.875   0.874  19.506
   51TMC2     C  795   1.018   0.472  19.522
   51TMC2     O  796   1.101   0.437  19.605
   51TMC2     H  797   1.114   0.674  19.648
   51TMC2    H1  798   0.809   0.572  19.373
   51TMC2    H2  799   0.848   0.977  19.484
   51TMC2    C7  800   0.735   0.828  19.319
   51TMC2    C8  801   1.014   0.925  19.694
   51TMC2    O1  802   0.672   0.932  19.347
   51TMC2    O2  803   0.981   1.043  19.675
   51TMC2    O5  804   1.008   0.866  19.809
   51TMC2    H5  805   1.016   0.768  19.812
   52MPD2     C  806   1.113   0.037  19.284
   52MPD2    C1  807   1.150   0.075  19.410
   52MPD2    C2  808   1.110   0.198  19.451
   52MPD2    C3  809   1.029   0.280  19.368
   52MPD2    C4  810   0.993   0.240  19.239
   52MPD2    C5  811   1.042   0.121  19.195
   52MPD2     H  812   1.147   0.230  19.547
   52MPD2    H1  813   0.949   0.307  19.167
   52MPD2    H2  814   1.136   4.745  19.242
   52MPD2    H3  815   1.022   0.095  19.092
   52MPD2     N  816   0.987   0.412  19.410
   52MPD2    H5  817   0.940   0.466  19.338
   52MPD2    N1  818   1.228   4.804  19.499
   52MPD2    H7  819   1.220   0.040  19.592
   53TMC2    C1  820   1.267   3.892  11.685
   53TMC2    C2  821   1.245   3.995  11.598
   53TMC2    C3  822   1.291   4.113  11.640
   53TMC2    C4  823   1.345   3.906  11.802
   53TMC2    C5  824   1.394   4.026  11.839
   53TMC2    C6  825   1.366   4.132  11.756
   53TMC2     C  826   1.228   3.758  11.647
   53TMC2     O  827   1.211   3.730  11.529
   53TMC2     H  828   1.175   3.984  11.516
   53TMC2    H1  829   1.355   3.815  11.860
   53TMC2    H2  830   1.397   4.232  11.782
   53TMC2    C7  831   1.353   4.044  11.979
   53TMC2    C8  832   1.288   4.212  11.543
   53TMC2    O1  833   1.236   4.043  12.003
   53TMC2    O2  834   1.329   4.328  11.561
   53TMC2    O5  835   1.307   4.156  11.420
   53TMC2    H5  836   1.304   4.058  11.427
   54MPD2     C  837   1.117   3.492  11.615
   54MPD2    C1  838   1.138   3.554  11.739
   54MPD2    C2  839   1.099   3.496  11.859
   54MPD2    C3  840   1.038   3.372  11.860
   54MPD2    C4  841   1.027   3.304  11.743
   54MPD2    C5  842   1.072   3.362  11.626
   54MPD2     H  843   1.113   3.554  11.949
   54MPD2    H1  844   0.987   3.203  11.739
   54MPD2    H2  845   1.140   3.538  11.519
   54MPD2    H3  846   1.046   3.313  11.533
   54MPD2     N  847   0.981   3.306  11.972
   54MPD2    H5  848   0.958   3.208  11.962
   54MPD2    N1  849   1.201   3.678  11.758
   54MPD2    H7  850   1.193   3.718  11.850
   55TMC2    C1  851   2.348   1.324  18.142
   55TMC2    C2  852   2.330   1.308  18.004
   55TMC2    C3  853   2.307   1.177  17.961
   55TMC2    C4  854   2.333   1.222  18.231
   55TMC2    C5  855   2.301   1.096  18.190
   55TMC2    C6  856   2.289   1.071  18.051
   55TMC2     C  857   2.305   1.449  18.208
   55TMC2     O  858   2.268   1.440  18.322
   55TMC2     H  859   2.356   1.395  17.945
   55TMC2    H1  860   2.364   1.237  18.333
   55TMC2    H2  861   2.269   0.978  18.001
   55TMC2    C7  862   2.190   1.030  18.257
   55TMC2    C8  863   2.294   1.135  17.822
   55TMC2    O1  864   2.109   0.963  18.190
   55TMC2    O2  865   2.364   1.049  17.777
   55TMC2    O5  866   2.270   1.251  17.762
   55TMC2    H5  867   2.206   1.301  17.818
   56MPD2     C  868   2.280   1.804  18.086
   56MPD2    C1  869   2.252   1.688  18.161
   56MPD2    C2  870   2.161   1.704  18.267
   56MPD2    C3  871   2.107   1.824  18.304
   56MPD2    C4  872   2.143   1.937  18.230
   56MPD2    C5  873   2.230   1.925  18.123
   56MPD2     H  874   2.119   1.611  18.305
   56MPD2    H1  875   2.113   2.040  18.243
   56MPD2    H2  876   2.358   1.795  18.011
   56MPD2    H3  877   2.249   2.015  18.065
   56MPD2     N  878   2.013   1.829  18.409
   56MPD2    H5  879   1.985   1.746  18.460
   56MPD2    N1  880   2.312   1.565  18.133
   56MPD2    H7  881   2.376   1.553  18.055
   57TMC2    C1  882   1.463   2.356  13.913
   57TMC2    C2  883   1.507   2.249  13.993
   57TMC2    C3  884   1.640   2.219  13.964
   57TMC2    C4  885   1.533   2.420  13.819
   57TMC2    C5  886   1.659   2.375  13.798
   57TMC2    C6  887   1.715   2.271  13.867
   57TMC2     C  888   1.318   2.388  13.938
   57TMC2     O  889   1.277   2.502  13.924
   57TMC2     H  890   1.449   2.190  14.062
   57TMC2    H1  891   1.489   2.487  13.746
   57TMC2    H2  892   1.810   2.221  13.853
   57TMC2    C7  893   1.737   2.408  13.682
   57TMC2    C8  894   1.710   2.120  14.044
   57TMC2    O1  895   1.730   2.523  13.640
   57TMC2    O2  896   1.770   2.032  13.989
   57TMC2    O5  897   1.649   2.108  14.165
   57TMC2    H5  898   1.615   2.197  14.190
   58MPD2     C  899   0.896   2.279  14.205
   58MPD2    C1  900   0.961   2.405  14.191
   58MPD2    C2  901   1.079   2.410  14.116
   58MPD2    C3  902   1.132   2.287  14.060
   58MPD2    C4  903   1.066   2.169  14.091
   58MPD2    C5  904   0.949   2.164  14.162
   58MPD2     H  905   1.110   2.510  14.088
   58MPD2    H1  906   1.103   2.072  14.059
   58MPD2    H2  907   0.815   2.257  14.274
   58MPD2    H3  908   0.896   2.071  14.182
   58MPD2     N  909   1.256   2.286  13.990
   58MPD2    H5  910   1.291   2.195  13.964
   58MPD2    N1  911   0.890   2.522  14.226
   58MPD2    H7  912   0.943   2.608  14.216
   59TMC2    C1  913   3.720   2.693  12.983
   59TMC2    C2  914   3.704   2.568  13.049
   59TMC2    C3  915   3.626   2.471  12.978
   59TMC2    C4  916   3.657   2.718  12.865
   59TMC2    C5  917   3.575   2.623  12.811
   59TMC2    C6  918   3.557   2.499  12.864
   59TMC2     C  919   3.798   2.802  13.031
   59TMC2     O  920   3.814   2.899  12.965
   59TMC2     H  921   3.739   2.563  13.152
   59TMC2    H1  922   3.678   2.812  12.814
   59TMC2    H2  923   3.483   2.429  12.827
   59TMC2    C7  924   3.503   2.646  12.685
   59TMC2    C8  925   3.603   2.345  13.038
   59TMC2    O1  926   3.478   2.543  12.622
   59TMC2    O2  927   3.514   2.272  13.001
   59TMC2    O5  928   3.716   2.297  13.094
   59TMC2    H5  929   3.784   2.367  13.097
   60MPD2     C  930   3.905   3.002  13.220
   60MPD2    C1  931   3.947   2.869  13.221
   60MPD2    C2  932   4.041   2.822  13.309
   60MPD2    C3  933   4.108   2.913  13.380
   60MPD2    C4  934   4.077   3.052  13.375
   60MPD2    C5  935   3.974   3.100  13.294
   60MPD2     H  936   4.060   2.716  13.322
   60MPD2    H1  937   4.131   3.121  13.437
   60MPD2    H2  938   3.809   3.032  13.180
   60MPD2    H3  939   3.935   3.201  13.298
   60MPD2     N  940   4.216   2.875  13.467
   60MPD2    H5  941   4.260   2.949  13.521
   60MPD2    N1  942   3.873   2.772  13.140
   60MPD2    H7  943   3.893   2.674  13.161
   61TMC2    C1  944   3.001   3.708  15.251
   61TMC2    C2  945   3.051   3.604  15.326
   61TMC2    C3  946   3.109   3.631  15.449
   61TMC2    C4  947   3.017   3.840  15.297
   61TMC2    C5  948   3.077   3.861  15.420
   61TMC2    C6  949   3.129   3.754  15.489
   61TMC2     C  950   2.940   3.682  15.120
   61TMC2     O  951   2.944   3.564  15.081
   61TMC2     H  952   3.047   3.501  15.293
   61TMC2    H1  953   2.972   3.927  15.250
   61TMC2    H2  954   3.202   3.770  15.569
   61TMC2    C7  955   3.086   3.997  15.470
   61TMC2    C8  956   3.215   3.536  15.495
   61TMC2    O1  957   3.043   4.090  15.402
   61TMC2    O2  958   3.229   3.494  15.610
   61TMC2    O5  959   3.315   3.599  15.427
   61TMC2    H5  960   3.295   3.618  15.332
   62MPD2     C  961   2.781   3.700  14.866
   62MPD2    C1  962   2.843   3.801  14.930
   62MPD2    C2  963   2.830   3.930  14.886
   62MPD2    C3  964   2.752   3.969  14.775
   62MPD2    C4  965   2.698   3.855  14.709
   62MPD2    C5  966   2.712   3.725  14.750
   62MPD2     H  967   2.877   4.008  14.944
   62MPD2    H1  968   2.645   3.872  14.616
   62MPD2    H2  969   2.788   3.598  14.903
   62MPD2    H3  970   2.666   3.643  14.696
   62MPD2     N  971   2.737   4.103  14.713
   62MPD2    H5  972   2.685   4.114  14.627
   62MPD2    N1  973   2.900   3.795  15.057
   62MPD2    H7  974   2.906   3.884  15.105
   63TMC2    C1  975   2.172   4.775  10.706
   63TMC2    C2  976   2.287   4.702  10.691
   63TMC2    C3  977   2.338   4.667  10.568
   63TMC2    C4  978   2.105   0.018  10.597
   63TMC2    C5  979   2.165   4.795  10.473
   63TMC2    C6  980   2.277   4.715  10.456
   63TMC2     C  981   2.093   4.735  10.817
   63TMC2     O  982   1.996   4.794  10.857
   63TMC2     H  983   2.348   4.693  10.780
   63TMC2    H1  984   2.013   0.073  10.611
   63TMC2    H2  985   2.289   4.665  10.360
   63TMC2    C7  986   2.079   0.016  10.358
   63TMC2    C8  987   2.466   4.608  10.559
   63TMC2    O1  988   1.959   0.013  10.383
   63TMC2    O2  989   2.521   4.550  10.652
   63TMC2    O5  990   2.538   4.674  10.463
   63TMC2    H5  991   2.481   4.719  10.397
   64MPD2     C  992   1.914   4.338  11.061
   64MPD2    C1  993   2.046   4.303  11.021
   64MPD2    C2  994   2.122   4.401  10.965
   64MPD2    C3  995   2.064   4.529  10.945
   64MPD2    C4  996   1.941   4.561  11.004
   64MPD2    C5  997   1.869   4.470  11.067
   64MPD2     H  998   2.217   4.379  10.916
   64MPD2    H1  999   1.894   4.659  11.000
   64MPD2    H2 1000   1.844   4.262  11.095
   64MPD2    H3 1001   1.766   4.492  11.092
   64MPD2     N 1002   2.135   4.614  10.857
   64MPD2    H5 1003   2.218   4.580  10.809
   64MPD2    N1 1004   2.095   4.169  11.020
   64MPD2    H7 1005   2.190   4.152  10.989
   65TMC2    C1 1006   3.967   3.557  15.750
   65TMC2    C2 1007   4.018   3.543  15.623
   65TMC2    C3 1008   3.968   3.639  15.540
   65TMC2    C4 1009   3.882   3.661  15.790
   65TMC2    C5 1010   3.839   3.754  15.695
   65TMC2    C6 1011   3.883   3.737  15.570
   65TMC2     C 1012   3.965   3.449  15.842
   65TMC2     O 1013   3.945   3.474  15.963
   65TMC2     H 1014   4.074   3.455  15.593
   65TMC2    H1 1015   3.844   3.657  15.891
   65TMC2    H2 1016   3.845   3.811  15.501
   65TMC2    C7 1017   3.809   3.886  15.732
   65TMC2    C8 1018   3.998   3.626  15.395
   65TMC2    O1 1019   3.821   3.972  15.646
   65TMC2    O2 1020   4.050   3.523  15.361
   65TMC2    O5 1021   4.039   3.745  15.343
   65TMC2    H5 1022   4.026   3.828  15.394
   66MPD2     C 1023   3.908   3.203  16.006
   66MPD2    C1 1024   3.933   3.208  15.869
   66MPD2    C2 1025   3.939   3.086  15.811
   66MPD2    C3 1026   3.912   2.967  15.875
   66MPD2    C4 1027   3.892   2.964  16.008
   66MPD2    C5 1028   3.884   3.082  16.070
   66MPD2     H 1029   3.975   3.092  15.708
   66MPD2    H1 1030   3.882   2.871  16.063
   66MPD2    H2 1031   3.886   3.292  16.063
   66MPD2    H3 1032   3.851   3.081  16.174
   66MPD2     N 1033   3.917   2.835  15.818
   66MPD2    H5 1034   3.881   2.757  15.872
   66MPD2    N1 1035   3.950   3.323  15.789
   66MPD2    H7 1036   3.948   3.306  15.689
   67TMC2    C1 1037   4.105   2.807  14.617
   67TMC2    C2 1038   4.036   2.921  14.647
   67TMC2    C3 1039   4.085   2.998  14.755
   67TMC2    C4 1040   4.227   2.784  14.666
   67TMC2    C5 1041   4.271   2.860  14.772
   67TMC2    C6 1042   4.196   2.960  14.821
   67TMC2     C 1043   4.050   2.702  14.540
   67TMC2     O 1044   4.114   2.600  14.537
   67TMC2     H 1045   3.947   2.952  14.593
   67TMC2    H1 1046   4.287   2.702  14.629
   67TMC2    H2 1047   4.243   3.014  14.903
   67TMC2    C7 1048   4.387   2.804  14.849
   67TMC2    C8 1049   4.023   3.125  14.789
   67TMC2    O1 1050   4.467   2.728  14.795
   67TMC2    O2 1051   3.942   3.195  14.731
   67TMC2    O5 1052   4.027   3.126  14.926
   67TMC2    H5 1053   4.047   3.037  14.963
   68MPD2     C 1054   3.862   2.518  14.399
   68MPD2    C1 1055   3.823   2.639  14.461
   68MPD2    C2 1056   3.683   2.681  14.459
   68MPD2    C3 1057   3.585   2.605  14.391
   68MPD2    C4 1058   3.626   2.497  14.319
   68MPD2    C5 1059   3.759   2.448  14.333
   68MPD2     H 1060   3.654   2.778  14.498
   68MPD2    H1 1061   3.555   2.451  14.252
   68MPD2    H2 1062   3.962   2.476  14.399
   68MPD2    H3 1063   3.792   2.351  14.297
   68MPD2     N 1064   3.450   2.650  14.375
   68MPD2    H5 1065   3.395   2.619  14.295
   68MPD2    N1 1066   3.918   2.730  14.507
   68MPD2    H7 1067   3.884   2.818  14.547
   69TMC2    C1 1068   1.312   4.159  12.862
   69TMC2    C2 1069   1.188   4.117  12.830
   69TMC2    C3 1070   1.145   4.124  12.700
   69TMC2    C4 1071   1.405   4.171  12.765
   69TMC2    C5 1072   1.360   4.170  12.634
   69TMC2    C6 1073   1.228   4.150  12.600
   69TMC2     C 1074   1.359   4.092  12.984
   69TMC2     O 1075   1.298   3.996  13.030
   69TMC2     H 1076   1.119   4.100  12.912
   69TMC2    H1 1077   1.512   4.167  12.786
   69TMC2    H2 1078   1.201   4.141  12.495
   69TMC2    C7 1079   1.464   4.206  12.544
   69TMC2    C8 1080   1.023   4.046  12.672
   69TMC2    O1 1081   1.582   4.171  12.555
   69TMC2    O2 1082   0.992   3.970  12.764
   69TMC2    O5 1083   0.974   4.072  12.548
   69TMC2    H5 1084   1.026   4.146  12.510
   70MPD2     C 1085   1.662   4.210  13.178
   70MPD2    C1 1086   1.548   4.134  13.143
   70MPD2    C2 1087   1.517   4.031  13.227
   70MPD2    C3 1088   1.594   4.002  13.336
   70MPD2    C4 1089   1.702   4.073  13.363
   70MPD2    C5 1090   1.740   4.177  13.282
   70MPD2     H 1091   1.434   3.967  13.198
   70MPD2    H1 1092   1.760   4.052  13.453
   70MPD2    H2 1093   1.695   4.292  13.115
   70MPD2    H3 1094   1.831   4.235  13.292
   70MPD2     N 1095   1.559   3.901  13.434
   70MPD2    H5 1096   1.619   3.892  13.515
   70MPD2    N1 1097   1.473   4.156  13.025
   70MPD2    H7 1098   1.503   4.232  12.965
   71TMC2    C1 1099   3.101   4.237  19.370
   71TMC2    C2 1100   3.121   4.340  19.466
   71TMC2    C3 1101   3.015   4.386  19.536
   71TMC2    C4 1102   2.969   4.199  19.343
   71TMC2    C5 1103   2.861   4.257  19.411
   71TMC2    C6 1104   2.887   4.346  19.514
   71TMC2     C 1105   3.208   4.226  19.269
   71TMC2     O 1106   3.170   4.227  19.150
   71TMC2     H 1107   3.221   4.380  19.483
   71TMC2    H1 1108   2.955   4.134  19.257
   71TMC2    H2 1109   2.814   4.359  19.593
   71TMC2    C7 1110   2.721   4.200  19.431
   71TMC2    C8 1111   3.039   4.499  19.624
   71TMC2    O1 1112   2.700   4.093  19.387
   71TMC2    O2 1113   3.151   4.532  19.657
   71TMC2    O5 1114   2.944   4.593  19.605
   71TMC2    H5 1115   2.877   4.556  19.544
   72MPD2     C 1116   3.680   4.368  19.139
   72MPD2    C1 1117   3.568   4.369  19.063
   72MPD2    C2 1118   3.447   4.315  19.115
   72MPD2    C3 1119   3.443   4.274  19.248
   72MPD2    C4 1120   3.556   4.289  19.321
   72MPD2    C5 1121   3.670   4.329  19.272
   72MPD2     H 1122   3.355   4.316  19.057
   72MPD2    H1 1123   3.558   4.279  19.428
   72MPD2    H2 1124   3.774   4.411  19.104
   72MPD2    H3 1125   3.757   4.335  19.337
   72MPD2     N 1126   3.331   4.241  19.320
   72MPD2    H5 1127   3.348   4.236  19.420
   72MPD2    N1 1128   3.552   4.443  18.941
   72MPD2    H7 1129   3.459   4.441  18.901
   73TMC2    C1 1130   3.076   1.383  14.266
   73TMC2    C2 1131   3.025   1.448  14.377
   73TMC2    C3 1132   3.076   1.414  14.499
   73TMC2    C4 1133   3.188   1.300  14.274
   73TMC2    C5 1134   3.250   1.287  14.394
   73TMC2    C6 1135   3.188   1.337  14.506
   73TMC2     C 1136   3.076   1.473  14.158
   73TMC2     O 1137   3.191   1.472  14.110
   73TMC2     H 1138   2.955   1.531  14.370
   73TMC2    H1 1139   3.234   1.256  14.187
   73TMC2    H2 1140   3.249   1.334  14.596
   73TMC2    C7 1141   3.390   1.311  14.380
   73TMC2    C8 1142   3.072   1.523  14.597
   73TMC2    O1 1143   3.462   1.289  14.478
   73TMC2    O2 1144   3.173   1.566  14.656
   73TMC2    O5 1145   2.954   1.585  14.588
   73TMC2    H5 1146   2.883   1.537  14.540
   74MPD2     C 1147   2.896   1.842  13.880
   74MPD2    C1 1148   3.021   1.796  13.902
   74MPD2    C2 1149   3.037   1.678  13.968
   74MPD2    C3 1150   2.933   1.624  14.035
   74MPD2    C4 1151   2.807   1.671  14.018
   74MPD2    C5 1152   2.790   1.783  13.943
   74MPD2     H 1153   3.134   1.630  13.964
   74MPD2    H1 1154   2.721   1.624  14.064
   74MPD2    H2 1155   2.884   1.939  13.833
   74MPD2    H3 1156   2.689   1.817  13.923
   74MPD2     N 1157   2.946   1.516  14.115
   74MPD2    H5 1158   2.865   1.477  14.162
   74MPD2    N1 1159   3.125   1.863  13.836
   74MPD2    H7 1160   3.102   1.951  13.791
   75TMC2    C1 1161   3.245   2.738  14.436
   75TMC2    C2 1162   3.162   2.783  14.534
   75TMC2    C3 1163   3.069   2.869  14.501
   75TMC2    C4 1164   3.225   2.769  14.300
   75TMC2    C5 1165   3.127   2.860  14.273
   75TMC2    C6 1166   3.051   2.914  14.373
   75TMC2     C 1167   3.385   2.712  14.474
   75TMC2     O 1168   3.414   2.736  14.591
   75TMC2     H 1169   3.179   2.752  14.636
   75TMC2    H1 1170   3.298   2.743  14.225
   75TMC2    H2 1171   2.968   2.980  14.352
   75TMC2    C7 1172   3.098   2.900  14.138
   75TMC2    C8 1173   3.005   2.938  14.601
   75TMC2    O1 1174   3.129   2.817  14.048
   75TMC2    O2 1175   2.956   3.049  14.583
   75TMC2    O5 1176   2.962   2.837  14.687
   75TMC2    H5 1177   2.987   2.746  14.660
   76TMC2    C1 1178   2.281   3.203  12.293
   76TMC2    C2 1179   2.181   3.128  12.235
   76TMC2    C3 1180   2.209   3.000  12.213
   76TMC2    C4 1181   2.400   3.143  12.322
   76TMC2    C5 1182   2.414   3.011  12.296
   76TMC2    C6 1183   2.319   2.932  12.242
   76TMC2     C 1184   2.267   3.348  12.276
   76TMC2     O 1185   2.161   3.391  12.226
   76TMC2     H 1186   2.088   3.177  12.208
   76TMC2    H1 1187   2.481   3.197  12.371
   76TMC2    H2 1188   2.337   2.827  12.223
   76TMC2    C7 1189   2.528   2.937  12.347
   76TMC2    C8 1190   2.099   2.913  12.171
   76TMC2    O1 1191   2.557   2.830  12.299
   76TMC2    O2 1192   2.093   2.792  12.189
   76TMC2    O5 1193   2.015   2.993  12.105
   76TMC2    H5 1194   2.049   3.085  12.097
   77MPD2     C 1195   2.456   3.830  12.264
   77MPD2    C1 1196   2.336   3.781  12.215
   77MPD2    C2 1197   2.303   3.650  12.224
   77MPD2    C3 1198   2.392   3.563  12.287
   77MPD2    C4 1199   2.512   3.609  12.335
   77MPD2    C5 1200   2.541   3.743  12.327
   77MPD2     H 1201   2.208   3.612  12.187
   77MPD2    H1 1202   2.585   3.546  12.385
   77MPD2    H2 1203   2.497   3.930  12.261
   77MPD2    H3 1204   2.629   3.784  12.374
   77MPD2     N 1205   2.377   3.420  12.299
   77MPD2    H5 1206   2.456   3.365  12.332
   77MPD2    N1 1207   2.241   3.872  12.162
   77MPD2    H7 1208   2.149   3.833  12.146
   78TMC2    C1 1209   3.734   3.961  19.455
   78TMC2    C2 1210   3.810   3.907  19.558
   78TMC2    C3 1211   3.942   3.932  19.551
   78TMC2    C4 1212   3.789   4.011  19.336
   78TMC2    C5 1213   3.927   4.020  19.329
   78TMC2    C6 1214   4.006   3.991  19.440
   78TMC2     C 1215   3.588   3.942  19.475
   78TMC2     O 1216   3.515   3.917  19.383
   78TMC2     H 1217   3.787   3.845  19.644
   78TMC2    H1 1218   3.728   4.025  19.248
   78TMC2    H2 1219   4.112   4.015  19.439
   78TMC2    C7 1220   3.986   4.107  19.228
   78TMC2    C8 1221   4.025   3.853  19.648
   78TMC2    O1 1222   3.913   4.173  19.154
   78TMC2    O2 1223   3.983   3.763  19.715
   78TMC2    O5 1224   4.127   3.932  19.682
   78TMC2    H5 1225   4.115   4.029  19.669
   79MPD1     C 1226   3.246   3.805  19.839
   79MPD1    C1 1227   3.248   3.778  19.703
   79MPD1    C2 1228   3.344   3.829  19.622
   79MPD1    C3 1229   3.450   3.886  19.683
   79MPD1    C4 1230   3.455   3.906  19.826
   79MPD1    C5 1231   3.352   3.870  19.905
   79MPD1     H 1232   3.351   3.821  19.514
   79MPD1    H1 1233   3.545   3.952  19.864
   79MPD1    H2 1234   3.165   3.762  19.897
   79MPD1    H3 1235   3.343   3.890  20.011
   79MPD1     N 1236   3.570   3.931  19.616
   79MPD1    H5 1237   3.647   3.970  19.669
   79MPD1    N1 1238   3.135   3.724  19.650
   79MPD1    H6 1239   3.142   3.679  19.559
   79MPD1    H7 1240   3.104   3.648  19.711
   80TMC2    C1 1241   1.504   2.990  12.308
   80TMC2    C2 1242   1.523   3.090  12.215
   80TMC2    C3 1243   1.404   3.139  12.156
   80TMC2    C4 1244   1.387   2.945  12.350
   80TMC2    C5 1245   1.273   2.996  12.291
   80TMC2    C6 1246   1.278   3.095  12.199
   80TMC2     C 1247   1.620   2.976  12.398
   80TMC2     O 1248   1.731   2.980  12.347
   80TMC2     H 1249   1.611   3.152  12.203
   80TMC2    H1 1250   1.376   2.867  12.425
   80TMC2    H2 1251   1.193   3.155  12.171
   80TMC2    C7 1252   1.143   2.931  12.315
   80TMC2    C8 1253   1.397   3.262  12.087
   80TMC2    O1 1254   1.064   2.943  12.224
   80TMC2    O2 1255   1.336   3.359  12.124
   80TMC2    O5 1256   1.474   3.253  11.975
   80TMC2    H5 1257   1.536   3.177  11.981
   81MPD2     C 1258   1.796   2.953  12.634
   81MPD2    C1 1259   1.664   2.995  12.638
   81MPD2    C2 1260   1.619   3.061  12.744
   81MPD2    C3 1261   1.697   3.070  12.855
   81MPD2    C4 1262   1.821   3.015  12.862
   81MPD2    C5 1263   1.874   2.961  12.748
   81MPD2     H 1264   1.518   3.100  12.750
   81MPD2    H1 1265   1.880   3.021  12.953
   81MPD2    H2 1266   1.841   2.904  12.549
   81MPD2    H3 1267   1.975   2.923  12.748
   81MPD2     N 1268   1.658   3.125  12.974
   81MPD2    H5 1269   1.727   3.128  13.048
   81MPD2    N1 1270   1.578   2.978  12.530
   81MPD2    H7 1271   1.483   2.982  12.565
   82TMC2    C1 1272   4.208   2.629  11.381
   82TMC2    C2 1273   4.294   2.706  11.451
   82TMC2    C3 1274   4.373   2.631  11.541
   82TMC2    C4 1275   4.182   2.502  11.406
   82TMC2    C5 1276   4.254   2.445  11.503
   82TMC2    C6 1277   4.341   2.509  11.577
   82TMC2     C 1278   4.115   2.711  11.305
   82TMC2     O 1279   4.030   2.650  11.241
   82TMC2     H 1280   4.342   2.786  11.396
   82TMC2    H1 1281   4.112   2.445  11.346
   82TMC2    H2 1282   4.404   2.460  11.651
   82TMC2    C7 1283   4.215   2.308  11.555
   82TMC2    C8 1284   4.511   2.666  11.574
   82TMC2    O1 1285   4.243   2.286  11.672
   82TMC2    O2 1286   4.601   2.580  11.587
   82TMC2    O5 1287   4.538   2.796  11.582
   82TMC2    H5 1288   4.463   2.856  11.600
   83MPD2     C 1289   3.779   3.090  11.353
   83MPD2    C1 1290   3.804   3.004  11.251
   83MPD2    C2 1291   3.923   2.931  11.249
   83MPD2    C3 1292   4.000   2.919  11.367
   83MPD2    C4 1293   3.972   2.998  11.476
   83MPD2    C5 1294   3.857   3.083  11.471
   83MPD2     H 1295   3.954   2.874  11.161
   83MPD2    H1 1296   4.037   2.996  11.562
   83MPD2    H2 1297   3.696   3.159  11.349
   83MPD2    H3 1298   3.832   3.148  11.554
   83MPD2     N 1299   4.106   2.828  11.375
   83MPD2    H5 1300   4.164   2.840  11.457
   83MPD2    N1 1301   3.715   2.997  11.149
   83MPD2    H7 1302   3.636   3.061  11.148
   84TMC2    C1 1303   0.474   1.524  11.540
   84TMC2    C2 1304   0.536   1.507  11.658
   84TMC2    C3 1305   0.667   1.537  11.662
   84TMC2    C4 1306   0.538   1.574  11.431
   84TMC2    C5 1307   0.670   1.620  11.449
   84TMC2    C6 1308   0.736   1.605  11.569
   84TMC2     C 1309   0.339   1.577  11.553
   84TMC2     O 1310   0.305   1.609  11.663
   84TMC2     H 1311   0.483   1.448  11.731
   84TMC2    H1 1312   0.479   1.612  11.347
   84TMC2    H2 1313   0.838   1.640  11.580
   84TMC2    C7 1314   0.727   1.682  11.332
   84TMC2    C8 1315   0.729   1.549  11.789
   84TMC2    O1 1316   0.700   1.627  11.225
   84TMC2    O2 1317   0.734   1.465  11.875
   84TMC2    O5 1318   0.760   1.681  11.801
   84TMC2    H5 1319   0.715   1.743  11.741
   85TMC2    C1 1320   1.209   4.705  15.990
   85TMC2    C2 1321   1.073   4.741  15.983
   85TMC2    C3 1322   1.041   0.028  15.890
   85TMC2    C4 1323   1.303   4.742  15.900
   85TMC2    C5 1324   1.261   0.033  15.816
   85TMC2    C6 1325   1.135   0.084  15.809
   85TMC2     C 1326   1.239   4.600  16.088
   85TMC2     O 1327   1.357   4.574  16.096
   85TMC2     H 1328   1.002   4.720  16.062
   85TMC2    H1 1329   1.405   4.716  15.925
   85TMC2    H2 1330   1.101   0.151  15.730
   85TMC2    C7 1331   1.360   0.085  15.731
   85TMC2    C8 1332   0.922   0.104  15.919
   85TMC2    O1 1333   1.463   0.025  15.729
   85TMC2    O2 1334   0.903   0.215  15.878
   85TMC2    O5 1335   0.833   0.005  15.932
   85TMC2    H5 1336   0.868   4.719  15.925
   86MPD2     C 1337   1.141   4.217  16.434
   86MPD2    C1 1338   1.035   4.227  16.353
   86MPD2    C2 1339   1.031   4.325  16.261
   86MPD2    C3 1340   1.138   4.416  16.235
   86MPD2    C4 1341   1.239   4.412  16.328
   86MPD2    C5 1342   1.244   4.313  16.423
   86MPD2     H 1343   0.945   4.328  16.196
   86MPD2    H1 1344   1.310   4.493  16.316
   86MPD2    H2 1345   1.160   4.148  16.516
   86MPD2    H3 1346   1.332   4.308  16.487
   86MPD2     N 1347   1.131   4.513  16.127
   86MPD2    H5 1348   1.045   4.512  16.074
   86MPD2    N1 1349   0.928   4.131  16.359
   86MPD2    H7 1350   0.859   4.140  16.285
   87TMC2    C1 1351   3.510   2.570  18.918
   87TMC2    C2 1352   3.592   2.585  19.030
   87TMC2    C3 1353   3.574   2.684  19.124
   87TMC2    C4 1354   3.420   2.669  18.886
   87TMC2    C5 1355   3.407   2.765  18.988
   87TMC2    C6 1356   3.483   2.781  19.100
   87TMC2     C 1357   3.569   2.492  18.810
   87TMC2     O 1358   3.576   2.538  18.697
   87TMC2     H 1359   3.675   2.517  19.048
   87TMC2    H1 1360   3.358   2.660  18.797
   87TMC2    H2 1361   3.466   2.866  19.166
   87TMC2    C7 1362   3.284   2.844  18.982
   87TMC2    C8 1363   3.706   2.730  19.167
   87TMC2    O1 1364   3.286   2.945  19.055
   87TMC2    O2 1365   3.807   2.710  19.100
   87TMC2    O5 1366   3.679   2.843  19.245
   87TMC2    H5 1367   3.585   2.848  19.273
   88MPD2     C 1368   2.944   2.756  18.933
   88MPD2    C1 1369   3.052   2.838  18.940
   88MPD2    C2 1370   3.037   2.971  18.918
   88MPD2    C3 1371   2.916   3.030  18.891
   88MPD2    C4 1372   2.804   2.954  18.888
   88MPD2    C5 1373   2.822   2.817  18.904
   88MPD2     H 1374   3.127   3.029  18.904
   88MPD2    H1 1375   2.708   2.994  18.861
   88MPD2    H2 1376   2.959   2.648  18.936
   88MPD2    H3 1377   2.737   2.750  18.896
   88MPD2     N 1378   2.900   3.168  18.878
   88MPD2    H5 1379   2.808   3.206  18.860
   88MPD2    N1 1380   3.180   2.775  18.938
   88MPD2    H7 1381   3.184   2.677  18.914
   89TMC2    C1 1382   4.604   1.309  19.283
   89TMC2    C2 1383   4.522   1.414  19.239
   89TMC2    C3 1384   4.580   1.529  19.209
   89TMC2    C4 1385   4.741   1.331  19.292
   89TMC2    C5 1386   4.795   1.444  19.237
   89TMC2    C6 1387   4.715   1.548  19.208
   89TMC2     C 1388   4.537   1.186  19.335
   89TMC2     O 1389   4.617   1.122  19.400
   89TMC2     H 1390   4.415   1.401  19.242
   89TMC2    H1 1391   0.004   1.250  19.318
   89TMC2    H2 1392   4.755   1.645  19.179
   89TMC2    C7 1393   0.138   1.476  19.256
   89TMC2    C8 1394   4.489   1.641  19.167
   89TMC2    O1 1395   0.198   1.422  19.349
   89TMC2    O2 1396   4.388   1.666  19.227
   89TMC2    O5 1397   4.524   1.670  19.042
   89TMC2    H5 1398   4.617   1.653  19.017
   90MPD2     C 1399   4.188   0.808  19.424
   90MPD2    C1 1400   4.133   0.891  19.325
   90MPD2    C2 1401   4.204   1.007  19.286
   90MPD2    C3 1402   4.329   1.039  19.346
   90MPD2    C4 1403   4.373   0.950  19.441
   90MPD2    C5 1404   4.305   0.838  19.484
   90MPD2     H 1405   4.147   1.075  19.225
   90MPD2    H1 1406   4.468   0.962  19.492
   90MPD2    H2 1407   4.137   0.716  19.451
   90MPD2    H3 1408   4.358   0.780  19.558
   90MPD2     N 1409   4.408   1.150  19.294
   90MPD2    H5 1410   4.376   1.202  19.213
   90MPD2    N1 1411   4.007   0.852  19.266
   90MPD2    H7 1412   3.978   0.911  19.189
   91TMC2    C1 1413   1.022   0.648  16.542
   91TMC2    C2 1414   1.068   0.705  16.652
   91TMC2    C3 1415   0.977   0.708  16.761
   91TMC2    C4 1416   0.893   0.600  16.531
   91TMC2    C5 1417   0.823   0.590  16.650
   91TMC2    C6 1418   0.859   0.640  16.773
   91TMC2     C 1419   1.108   0.631  16.423
   91TMC2     O 1420   1.058   0.580  16.324
   91TMC2     H 1421   1.171   0.734  16.673
   91TMC2    H1 1422   0.856   0.561  16.437
   91TMC2    H2 1423   0.792   0.644  16.858
   91TMC2    C7 1424   0.707   0.500  16.652
   91TMC2    C8 1425   1.008   0.794  16.879
   91TMC2    O1 1426   0.670   0.462  16.762
   91TMC2    O2 1427   0.947   0.797  16.986
   91TMC2    O5 1428   1.078   0.894  16.823
   91TMC2    H5 1429   1.115   0.867  16.736
   92MPD2     C 1430   1.317   0.601  16.218
   92MPD2    C1 1431   1.338   0.649  16.348
   92MPD2    C2 1432   1.464   0.685  16.384
   92MPD2    C3 1433   1.569   0.655  16.297
   92MPD2    C4 1434   1.539   0.613  16.174
   92MPD2    C5 1435   1.417   0.586  16.128
   92MPD2     H 1436   1.481   0.730  16.482
   92MPD2    H1 1437   1.618   0.597  16.102
   92MPD2    H2 1438   1.224   0.559  16.183
   92MPD2    H3 1439   1.397   0.546  16.029
   92MPD2     N 1440   1.700   0.696  16.337
   92MPD2    H5 1441   1.706   0.762  16.413
   92MPD2    N1 1442   1.234   0.666  16.443
   92MPD2    H7 1443   1.256   0.721  16.526
   93TMC2    C1 1444   3.235   0.939  14.128
   93TMC2    C2 1445   3.222   0.901  14.261
   93TMC2    C3 1446   3.332   0.924  14.340
   93TMC2    C4 1447   3.354   0.999  14.089
   93TMC2    C5 1448   3.458   1.016  14.171
   93TMC2    C6 1449   3.454   0.973  14.296
   93TMC2     C 1450   3.151   0.876  14.028
   93TMC2     O 1451   3.211   0.867  13.922
   93TMC2     H 1452   3.135   0.854  14.305
   93TMC2    H1 1453   3.370   1.015  13.983
   93TMC2    H2 1454   3.531   0.989  14.371
   93TMC2    C7 1455   3.593   1.030  14.123
   93TMC2    C8 1456   3.330   0.876  14.475
   93TMC2    O1 1457   3.678   0.954  14.171
   93TMC2    O2 1458   3.435   0.867  14.537
   93TMC2    O5 1459   3.221   0.923  14.537
   93TMC2    H5 1460   3.144   0.939  14.478
   94MPD2     C 1461   2.945   0.804  13.842
   94MPD2    C1 1462   2.918   0.809  13.974
   94MPD2    C2 1463   2.783   0.781  14.021
   94MPD2    C3 1464   2.679   0.746  13.932
   94MPD2    C4 1465   2.716   0.745  13.800
   94MPD2    C5 1466   2.844   0.764  13.754
   94MPD2     H 1467   2.752   0.793  14.125
   94MPD2    H1 1468   2.644   0.718  13.723
   94MPD2    H2 1469   3.034   0.832  13.788
   94MPD2    H3 1470   2.865   0.759  13.648
   94MPD2     N 1471   2.545   0.726  13.958
   94MPD2    H5 1472   2.487   0.679  13.889
   94MPD2    N1 1473   3.020   0.838  14.064
   94MPD2    H7 1474   2.983   0.851  14.158
   95TMC2    C1 1475   3.138   2.812  15.884
   95TMC2    C2 1476   3.166   2.933  15.930
   95TMC2    C3 1477   3.088   3.034  15.885
   95TMC2    C4 1478   3.036   2.784  15.795
   95TMC2    C5 1479   2.956   2.887  15.753
   95TMC2    C6 1480   2.974   3.011  15.809
   95TMC2     C 1481   3.251   2.717  15.901
   95TMC2     O 1482   3.358   2.769  15.914
   95TMC2     H 1483   3.244   2.936  16.005
   95TMC2    H1 1484   3.035   2.686  15.749
   95TMC2    H2 1485   2.920   3.099  15.776
   95TMC2    C7 1486   2.865   2.874  15.651
   95TMC2    C8 1487   3.119   3.170  15.919
   95TMC2    O1 1488   2.813   2.977  15.608
   95TMC2    O2 1489   3.027   3.253  15.920
   95TMC2    O5 1490   3.243   3.170  15.981
   95TMC2    H5 1491   3.287   3.086  15.956
   96MPD2     C 1492   3.425   2.253  15.909
   96MPD2    C1 1493   3.494   2.370  15.903
   96MPD2    C2 1494   3.426   2.488  15.917
   96MPD2    C3 1495   3.285   2.483  15.921
   96MPD2    C4 1496   3.223   2.361  15.933
   96MPD2    C5 1497   3.294   2.248  15.937
   96MPD2     H 1498   3.483   2.579  15.904
   96MPD2    H1 1499   3.115   2.366  15.942
   96MPD2    H2 1500   3.471   2.159  15.880
   96MPD2    H3 1501   3.262   2.144  15.940
   96MPD2     N 1502   3.204   2.591  15.911
   96MPD2    H5 1503   3.105   2.572  15.902
   96MPD2    N1 1504   3.631   2.367  15.851
   96MPD2    H7 1505   3.676   2.279  15.829
   97TMC2    C1 1506   0.191   0.344  18.407
   97TMC2    C2 1507   0.154   0.268  18.295
   97TMC2    C3 1508   0.166   0.327  18.171
   97TMC2    C4 1509   0.226   0.476  18.389
   97TMC2    C5 1510   0.234   0.530  18.267
   97TMC2    C6 1511   0.204   0.456  18.153
   97TMC2     C 1512   0.218   0.284  18.541
   97TMC2     O 1513   0.261   0.367  18.623
   97TMC2     H 1514   0.124   0.163  18.297
   97TMC2    H1 1515   0.266   0.540  18.466
   97TMC2    H2 1516   0.197   0.495  18.052
   97TMC2    C7 1517   0.307   0.659  18.254
   97TMC2    C8 1518   0.152   0.260  18.049
   97TMC2    O1 1519   0.358   0.713  18.350
   97TMC2    O2 1520   0.087   0.305  17.957
   97TMC2    O5 1521   0.270   0.196  18.044
   97TMC2    H5 1522   0.309   0.175  18.132
   98MPD2     C 1523   0.246   4.693  18.865
   98MPD2    C1 1524   0.278   0.020  18.885
   98MPD2    C2 1525   0.277   0.107  18.777
   98MPD2    C3 1526   0.210   0.064  18.660
   98MPD2    C4 1527   0.166   4.743  18.646
   98MPD2    C5 1528   0.183   4.657  18.746
   98MPD2     H 1529   0.315   0.208  18.772
   98MPD2    H1 1530   0.126   4.702  18.554
   98MPD2    H2 1531   0.278   4.612  18.928
   98MPD2    H3 1532   0.163   4.554  18.721
   98MPD2     N 1533   0.193   0.147  18.549
   98MPD2    H5 1534   0.163   0.095  18.468
   98MPD2    N1 1535   0.340   0.044  19.010
   98MPD2    H7 1536   0.334   4.776  19.080
   99TMC2    C1 1537   3.766   2.754  19.985
   99TMC2    C2 1538   3.794   2.859  20.064
   99TMC2    C3 1539   3.694   2.947  20.103
   99TMC2    C4 1540   3.645   2.738  19.921
   99TMC2    C5 1541   3.552   2.837  19.955
   99TMC2    C6 1542   3.571   2.936  20.045
   99TMC2     C 1543   3.885   2.684  19.938
   99TMC2     O 1544   3.991   2.739  19.950
   99TMC2     H 1545   3.894   2.874  20.103
   99TMC2    H1 1546   3.623   2.658  19.851
   99TMC2    H2 1547   3.487   3.003  20.064
   99TMC2    C7 1548   3.422   2.834  19.888
   99TMC2    C8 1549   3.713   2.983  20.242
   99TMC2    O1 1550   3.359   2.935  19.887
   99TMC2    O2 1551   3.813   2.960  20.309
   99TMC2    O5 1552   3.600   3.017  20.302
   99TMC2    H5 1553   3.525   3.033  20.240
  100MPD2     C 1554   4.081   2.523  19.794
  100MPD2    C1 1555   3.953   2.485  19.805
  100MPD2    C2 1556   3.908   2.377  19.732
  100MPD2    C3 1557   3.991   2.322  19.636
  100MPD2    C4 1558   4.113   2.370  19.616
  100MPD2    C5 1559   4.159   2.470  19.700
  100MPD2     H 1560   3.811   2.335  19.758
  100MPD2    H1 1561   4.185   2.344  19.539
  100MPD2    H2 1562   4.127   2.612  19.836
  100MPD2    H3 1563   4.254   2.520  19.685
  100MPD2     N 1564   3.944   2.205  19.578
  100MPD2    H5 1565   3.850   2.179  19.607
  100MPD2    N1 1566   3.860   2.559  19.883
  100MPD2    H7 1567   3.766   2.523  19.885
  101TMC2    C1 1568   0.045   3.561  13.138
  101TMC2    C2 1569   4.755   3.659  13.144
  101TMC2    C3 1570   4.788   3.780  13.111
  101TMC2    C4 1571   0.174   3.587  13.111
  101TMC2    C5 1572   0.212   3.714  13.088
  101TMC2    C6 1573   0.112   3.809  13.077
  101TMC2     C 1574   0.002   3.427  13.164
  101TMC2     O 1575   4.698   3.407  13.223
  101TMC2     H 1576   4.656   3.632  13.181
  101TMC2    H1 1577   0.249   3.513  13.086
  101TMC2    H2 1578   0.135   3.913  13.057
  101TMC2    C7 1579   0.339   3.732  13.040
  101TMC2    C8 1580   4.685   3.865  13.072
  101TMC2    O1 1581   0.424   3.653  13.071
  101TMC2    O2 1582   4.574   3.861  13.128
  101TMC2    O5 1583   4.711   3.917  12.952
  101TMC2    H5 1584   4.792   3.901  12.899
  102MPD2     C 1585   0.173   3.113  13.087
  102MPD2    C1 1586   0.082   3.192  13.148
  102MPD2    C2 1587   4.800   3.139  13.247
  102MPD2    C3 1588   0.005   3.010  13.290
  102MPD2    C4 1589   0.103   2.930  13.233
  102MPD2    C5 1590   0.186   2.983  13.136
  102MPD2     H 1591   4.736   3.202  13.308
  102MPD2    H1 1592   0.130   2.838  13.283
  102MPD2    H2 1593   0.243   3.142  13.010
  102MPD2    H3 1594   0.269   2.925  13.099
  102MPD2     N 1595   4.731   2.963  13.395
  102MPD2    H5 1596   4.667   3.030  13.436
  102MPD2    N1 1597   0.092   3.334  13.121
  102MPD2    H7 1598   0.165   3.363  13.056
  103TMC2    C1 1599   2.963   3.357  12.883
  103TMC2    C2 1600   3.093   3.386  12.846
  103TMC2    C3 1601   3.147   3.492  12.913
  103TMC2    C4 1602   2.886   3.430  12.963
  103TMC2    C5 1603   2.942   3.536  13.021
  103TMC2    C6 1604   3.074   3.570  12.999
  103TMC2     C 1605   2.893   3.279  12.782
  103TMC2     O 1606   2.784   3.326  12.757
  103TMC2     H 1607   3.149   3.333  12.770
  103TMC2    H1 1608   2.783   3.403  12.986
  103TMC2    H2 1609   3.125   3.643  13.062
  103TMC2    C7 1610   2.866   3.607  13.124
  103TMC2    C8 1611   3.288   3.517  12.889
  103TMC2    O1 1612   2.768   3.546  13.168
  103TMC2    O2 1613   3.365   3.427  12.853
  103TMC2    O5 1614   3.307   3.650  12.916
  103TMC2    H5 1615   3.232   3.713  12.910
  104MPD2     C 1616   2.949   2.933  12.656
  104MPD2    C1 1617   2.888   3.059  12.663
  104MPD2    C2 1618   2.763   3.075  12.605
  104MPD2    C3 1619   2.708   2.977  12.518
  104MPD2    C4 1620   2.770   2.857  12.509
  104MPD2    C5 1621   2.889   2.836  12.580
  104MPD2     H 1622   2.714   3.172  12.603
  104MPD2    H1 1623   2.725   2.777  12.452
  104MPD2    H2 1624   3.046   2.913  12.701
  104MPD2    H3 1625   2.944   2.742  12.582
  104MPD2     N 1626   2.594   3.012  12.435
  104MPD2    H5 1627   2.552   3.101  12.461
  104MPD2    N1 1628   2.958   3.163  12.733
  104MPD2    H7 1629   3.046   3.142  12.779
  105TMC2    C1 1630   4.186   2.379  18.137
  105TMC2    C2 1631   4.104   2.481  18.083
  105TMC2    C3 1632   3.975   2.477  18.117
  105TMC2    C4 1633   4.140   2.283  18.220
  105TMC2    C5 1634   4.012   2.299  18.265
  105TMC2    C6 1635   3.930   2.392  18.210
  105TMC2     C 1636   4.328   2.365  18.109
  105TMC2     O 1637   4.382   2.258  18.132
  105TMC2     H 1638   4.139   2.554  18.010
  105TMC2    H1 1639   4.205   2.214  18.273
  105TMC2    H2 1640   3.826   2.405  18.237
  105TMC2    C7 1641   3.976   2.217  18.380
  105TMC2    C8 1642   3.890   2.593  18.088
  105TMC2    O1 1643   4.035   2.111  18.398
  105TMC2    O2 1644   3.798   2.625  18.162
  105TMC2    O5 1645   3.931   2.652  17.974
  105TMC2    H5 1646   4.005   2.605  17.930
  106MPD2     C 1647   4.762   2.521  17.905
  106MPD2    C1 1648   4.664   2.614  17.877
  106MPD2    C2 1649   4.536   2.597  17.924
  106MPD2    C3 1650   4.505   2.483  17.995
  106MPD2    C4 1651   4.610   2.401  18.029
  106MPD2    C5 1652   4.739   2.419  17.990
  106MPD2     H 1653   4.455   2.666  17.903
  106MPD2    H1 1654   4.593   2.307  18.080
  106MPD2    H2 1655   0.056   2.528  17.861
  106MPD2    H3 1656   0.002   2.337  18.011
  106MPD2     N 1657   4.371   2.471  18.032
  106MPD2    H5 1658   4.316   2.556  18.021
  106MPD2    N1 1659   4.669   2.716  17.779
  106MPD2    H7 1660   4.586   2.770  17.760
  107TMC2    C1 1661   0.021   2.295  11.671
  107TMC2    C2 1662   0.028   2.406  11.583
  107TMC2    C3 1663   4.786   2.387  11.455
  107TMC2    C4 1664   4.756   2.188  11.635
  107TMC2    C5 1665   4.715   2.173  11.507
  107TMC2    C6 1666   4.710   2.280  11.423
  107TMC2     C 1667   0.026   2.347  11.810
  107TMC2     O 1668   0.050   2.265  11.899
  107TMC2     H 1669   0.092   2.492  11.600
  107TMC2    H1 1670   4.742   2.109  11.708
  107TMC2    H2 1671   4.692   2.257  11.318
  107TMC2    C7 1672   4.700   2.045  11.442
  107TMC2    C8 1673   0.039   2.468  11.357
  107TMC2    O1 1674   4.611   2.028  11.358
  107TMC2    O2 1675   0.150   2.519  11.370
  107TMC2    O5 1676   4.728   2.540  11.313
  107TMC2    H5 1677   4.652   2.481  11.296
  108MPD2     C 1678   4.674   2.671  11.901
  108MPD2    C1 1679   4.730   2.545  11.927
  108MPD2    C2 1680   4.721   2.498  12.059
  108MPD2    C3 1681   4.675   2.583  12.165
  108MPD2    C4 1682   4.628   2.710  12.136
  108MPD2    C5 1683   4.622   2.748  12.006
  108MPD2     H 1684   4.746   2.395  12.082
  108MPD2    H1 1685   4.581   2.776  12.208
  108MPD2    H2 1686   4.690   2.709  11.801
  108MPD2    H3 1687   4.573   2.843  11.986
  108MPD2     N 1688   4.658   2.541  12.300
  108MPD2    H5 1689   4.632   2.614  12.365
  108MPD2    N1 1690   4.773   2.467  11.811
  108MPD2    H7 1691   4.758   2.508  11.720
  109TMC2    C1 1692   4.613   4.695  19.378
  109TMC2    C2 1693   4.729   4.674  19.303
  109TMC2    C3 1694   0.027   4.611  19.357
  109TMC2    C4 1695   4.601   4.646  19.508
  109TMC2    C5 1696   4.710   4.581  19.560
  109TMC2    C6 1697   0.015   4.555  19.481
  109TMC2     C 1698   4.513   4.797  19.341
  109TMC2     O 1699   4.517   0.030  19.222
  109TMC2     H 1700   4.724   4.702  19.198
  109TMC2    H1 1701   4.515   4.672  19.568
  109TMC2    H2 1702   0.103   4.525  19.535
  109TMC2    C7 1703   4.728   4.575  19.705
  109TMC2    C8 1704   0.157   4.582  19.286
  109TMC2    O1 1705   4.764   4.474  19.760
  109TMC2    O2 1706   0.263   4.534  19.337
  109TMC2    O5 1707   0.153   4.652  19.167
  109TMC2    H5 1708   0.066   4.683  19.135
  110MPD2     C 1709   4.031   0.159  19.337
  110MPD2    C1 1710   4.056   0.069  19.436
  110MPD2    C2 1711   4.184   0.052  19.483
  110MPD2    C3 1712   4.287   0.082  19.394
  110MPD2    C4 1713   4.260   0.157  19.278
  110MPD2    C5 1714   4.132   0.208  19.258
  110MPD2     H 1715   4.209   4.791  19.566
  110MPD2    H1 1716   4.339   0.193  19.213
  110MPD2    H2 1717   3.929   0.166  19.301
  110MPD2    H3 1718   4.110   0.258  19.165
  110MPD2     N 1719   4.405   0.009  19.424
  110MPD2    H5 1720   4.405   4.770  19.515
  110MPD2    N1 1721   3.948   4.795  19.472
  110MPD2    H7 1722   3.853   0.023  19.460
  111TMC2    C1 1723   0.031   4.027  12.029
  111TMC2    C2 1724   4.799   4.083  12.153
  111TMC2    C3 1725   0.069   4.045  12.266
  111TMC2    C4 1726   0.153   3.955  12.006
  111TMC2    C5 1727   0.214   3.923  12.121
  111TMC2    C6 1728   0.173   3.957  12.249
  111TMC2     C 1729   4.744   4.046  11.911
  111TMC2     O 1730   4.781   4.027  11.797
  111TMC2     H 1731   4.714   4.147  12.173
  111TMC2    H1 1732   0.186   3.905  11.916
  111TMC2    H2 1733   0.214   3.912  12.339
  111TMC2    C7 1734   0.317   3.825  12.123
  111TMC2    C8 1735   4.801   4.044  12.391
  111TMC2    O1 1736   0.327   3.757  12.226
  111TMC2    O2 1737   4.680   4.070  12.406
  111TMC2    O5 1738   0.089   4.054  12.487
  111TMC2    H5 1739   0.183   4.066  12.462
  112MPD2     C 1740   4.258   4.054  11.733
  112MPD2    C1 1741   4.378   4.067  11.664
  112MPD2    C2 1742   4.497   4.076  11.735
  112MPD2    C3 1743   4.501   4.081  11.875
  112MPD2    C4 1744   4.377   4.076  11.941
  112MPD2    C5 1745   4.259   4.062  11.869
  112MPD2     H 1746   4.586   4.094  11.676
  112MPD2    H1 1747   4.364   4.067  12.048
  112MPD2    H2 1748   4.165   4.030  11.683
  112MPD2    H3 1749   4.169   4.057  11.929
  112MPD2     N 1750   4.614   4.068  11.954
  112MPD2    H5 1751   4.607   4.090  12.052
  112MPD2    N1 1752   4.378   4.065  11.518
  112MPD2    H7 1753   4.469   4.085  11.478
  113TMC2    C1 1754   2.783   1.647  18.573
  113TMC2    C2 1755   2.739   1.699  18.450
  113TMC2    C3 1756   2.682   1.610  18.363
  113TMC2    C4 1757   2.762   1.515  18.608
  113TMC2    C5 1758   2.705   1.429  18.517
  113TMC2    C6 1759   2.656   1.474  18.395
  113TMC2     C 1760   2.845   1.747  18.661
  113TMC2     O 1761   2.883   1.858  18.625
  113TMC2     H 1762   2.771   1.796  18.413
  113TMC2    H1 1763   2.814   1.473  18.693
  113TMC2    H2 1764   2.618   1.400  18.326
  113TMC2    C7 1765   2.676   1.288  18.548
  113TMC2    C8 1766   2.673   1.640  18.216
  113TMC2    O1 1767   2.665   1.206  18.459
  113TMC2    O2 1768   2.662   1.553  18.133
  113TMC2    O5 1769   2.682   1.767  18.181
  113TMC2    H5 1770   2.647   1.829  18.248
  114MPD2     C 1771   3.027   1.821  19.129
  114MPD2    C1 1772   3.007   1.913  19.031
  114MPD2    C2 1773   2.954   1.875  18.911
  114MPD2    C3 1774   2.921   1.744  18.896
  114MPD2    C4 1775   2.930   1.655  19.002
  114MPD2    C5 1776   2.989   1.694  19.118
  114MPD2     H 1777   2.934   1.943  18.829
  114MPD2    H1 1778   2.892   1.554  18.995
  114MPD2    H2 1779   3.062   1.839  19.229
  114MPD2    H3 1780   2.997   1.632  19.207
  114MPD2     N 1781   2.871   1.688  18.779
  114MPD2    H5 1782   2.838   1.592  18.785
  114MPD2    N1 1783   3.025   2.046  19.063
  114MPD2    H7 1784   2.980   2.112  19.001
  115TMC2    C1 1785   3.662   4.486  17.841
  115TMC2    C2 1786   3.791   4.447  17.873
  115TMC2    C3 1787   3.891   4.540  17.865
  115TMC2    C4 1788   3.626   4.609  17.801
  115TMC2    C5 1789   3.730   4.697  17.790
  115TMC2    C6 1790   3.858   4.665  17.826
  115TMC2     C 1791   3.581   4.395  17.772
  115TMC2     O 1792   3.624   4.334  17.679
  115TMC2     H 1793   3.811   4.343  17.895
  115TMC2    H1 1794   3.527   4.628  17.763
  115TMC2    H2 1795   3.937   4.740  17.836
  115TMC2    C7 1796   3.688   0.028  17.791
  115TMC2    C8 1797   4.020   4.506  17.924
  115TMC2    O1 1798   3.565   0.038  17.797
  115TMC2    O2 1799   4.088   4.577  18.003
  115TMC2    O5 1800   4.047   4.381  17.879
  115TMC2    H5 1801   4.005   4.358  17.793
  116MPD2     C 1802   3.108   4.212  17.649
  116MPD2    C1 1803   3.238   4.171  17.611
  116MPD2    C2 1804   3.352   4.221  17.671
  116MPD2    C3 1805   3.337   4.324  17.762
  116MPD2    C4 1806   3.208   4.367  17.801
  116MPD2    C5 1807   3.101   4.309  17.745
  116MPD2     H 1808   3.450   4.184  17.644
  116MPD2    H1 1809   3.190   4.450  17.868
  116MPD2    H2 1810   3.026   4.178  17.586
  116MPD2    H3 1811   3.002   4.352  17.758
  116MPD2     N 1812   3.447   4.390  17.816
  116MPD2    H5 1813   3.420   4.445  17.897
  116MPD2    N1 1814   3.234   4.059  17.524
  116MPD2    H7 1815   3.143   4.040  17.482
  117TMC2    C1 1816   2.528   1.045  14.413
  117TMC2    C2 1817   2.643   0.970  14.404
  117TMC2    C3 1818   2.759   1.042  14.411
  117TMC2    C4 1819   2.522   1.177  14.454
  117TMC2    C5 1820   2.645   1.240  14.460
  117TMC2    C6 1821   2.766   1.175  14.440
  117TMC2     C 1822   2.406   0.975  14.420
  117TMC2     O 1823   2.392   0.893  14.512
  117TMC2     H 1824   2.653   0.862  14.398
  117TMC2    H1 1825   2.424   1.223  14.465
  117TMC2    H2 1826   2.850   1.241  14.422
  117TMC2    C7 1827   2.642   1.386  14.457
  117TMC2    C8 1828   2.881   0.968  14.390
  117TMC2    O1 1829   2.751   1.442  14.484
  117TMC2    O2 1830   2.873   0.872  14.314
  117TMC2    O5 1831   2.993   1.035  14.421
  117TMC2    H5 1832   2.987   1.109  14.486
  118MPD2     C 1833   2.389   1.594  14.291
  118MPD2    C1 1834   2.514   1.561  14.346
  118MPD2    C2 1835   2.612   1.663  14.349
  118MPD2    C3 1836   2.580   1.791  14.311
  118MPD2    C4 1837   2.449   1.819  14.280
  118MPD2    C5 1838   2.354   1.720  14.268
  118MPD2     H 1839   2.711   1.634  14.383
  118MPD2    H1 1840   2.425   1.924  14.269
  118MPD2    H2 1841   2.307   1.523  14.295
  118MPD2    H3 1842   2.251   1.739  14.240
  118MPD2     N 1843   2.674   1.898  14.309
  118MPD2    H5 1844   2.642   1.988  14.275
  118MPD2    N1 1845   2.532   1.428  14.386
  118MPD2    H7 1846   2.456   1.365  14.363
  119TMC2    C1 1847   0.888   2.494  13.797
  119TMC2    C2 1848   0.996   2.454  13.722
  119TMC2    C3 1849   0.976   2.362  13.622
  119TMC2    C4 1850   0.765   2.432  13.781
  119TMC2    C5 1851   0.754   2.324  13.692
  119TMC2    C6 1852   0.858   2.293  13.605
  119TMC2     C 1853   0.894   2.602  13.892
  119TMC2     O 1854   0.790   2.637  13.949
  119TMC2     H 1855   1.100   2.482  13.732
  119TMC2    H1 1856   0.677   2.465  13.835
  119TMC2    H2 1857   0.853   2.224  13.521
  119TMC2    C7 1858   0.626   2.305  13.634
  119TMC2    C8 1859   1.093   2.334  13.538
  119TMC2    O1 1860   0.624   2.288  13.509
  119TMC2    O2 1861   1.170   2.419  13.490
  119TMC2    O5 1862   1.112   2.206  13.558
  119TMC2    H5 1863   1.040   2.163  13.608
  120MPD2     C 1864   1.139   2.981  14.151
  120MPD2    C1 1865   1.003   2.949  14.149
  120MPD2    C2 1866   0.962   2.847  14.060
  120MPD2    C3 1867   1.051   2.783  13.973
  120MPD2    C4 1868   1.187   2.820  13.978
  120MPD2    C5 1869   1.225   2.916  14.068
  120MPD2     H 1870   0.855   2.835  14.041
  120MPD2    H1 1871   1.262   2.775  13.914
  120MPD2    H2 1872   1.184   3.066  14.203
  120MPD2    H3 1873   1.326   2.955  14.067
  120MPD2     N 1874   1.017   2.669  13.895
  120MPD2    H5 1875   1.085   2.634  13.828
  120MPD2    N1 1876   0.925   3.027  14.244
  120MPD2    H7 1877   0.968   3.114  14.272
  121TMC2    C1 1878   2.047   4.380  14.452
  121TMC2    C2 1879   2.048   4.255  14.499
  121TMC2    C3 1880   1.925   4.200  14.526
  121TMC2    C4 1881   1.936   4.456  14.434
  121TMC2    C5 1882   1.816   4.399  14.484
  121TMC2    C6 1883   1.808   4.264  14.517
  121TMC2     C 1884   2.180   4.426  14.416
  121TMC2     O 1885   2.269   4.364  14.471
  121TMC2     H 1886   2.135   4.192  14.515
  121TMC2    H1 1887   1.936   4.554  14.389
  121TMC2    H2 1888   1.711   4.224  14.545
  121TMC2    C7 1889   1.707   4.462  14.417
  121TMC2    C8 1890   1.935   4.055  14.565
  121TMC2    O1 1891   1.709   4.582  14.383
  121TMC2    O2 1892   2.036   3.995  14.599
  121TMC2    O5 1893   1.815   4.000  14.552
  121TMC2    H5 1894   1.744   4.046  14.502
  122MPD2     C 1895   2.425   4.568  14.329
  122MPD2    C1 1896   2.304   4.599  14.278
  122MPD2    C2 1897   2.286   4.710  14.192
  122MPD2    C3 1898   2.393   4.781  14.149
  122MPD2    C4 1899   2.506   4.762  14.215
  122MPD2    C5 1900   2.521   4.660  14.301
  122MPD2     H 1901   2.187   4.728  14.153
  122MPD2    H1 1902   2.598   0.008  14.189
  122MPD2    H2 1903   2.431   4.502  14.415
  122MPD2    H3 1904   2.613   4.644  14.355
  122MPD2     N 1905   2.398   0.068  14.041
  122MPD2    H5 1906   2.482   0.118  14.014
  122MPD2    N1 1907   2.186   4.526  14.320
  122MPD2    H7 1908   2.101   4.556  14.273
  123TMC2    C1 1909   0.764   3.081  10.198
  123TMC2    C2 1910   0.889   3.127  10.167
  123TMC2    C3 1911   0.918   3.142  10.036
  123TMC2    C4 1912   0.672   3.060  10.094
  123TMC2    C5 1913   0.706   3.084   9.962
  123TMC2    C6 1914   0.836   3.109   9.928
  123TMC2     C 1915   0.740   3.046  10.337
  123TMC2     O 1916   0.819   3.097  10.418
  123TMC2     H 1917   0.964   3.130  10.246
  123TMC2    H1 1918   0.568   3.050  10.125
  123TMC2    H2 1919   0.875   3.121   9.828
  123TMC2    C7 1920   0.609   3.080   9.855
  123TMC2    C8 1921   1.044   3.203  10.005
  123TMC2    O1 1922   0.625   3.176   9.780
  123TMC2    O2 1923   1.081   3.219   9.889
  123TMC2    O5 1924   1.053   3.301  10.094
  123TMC2    H5 1925   1.012   3.284  10.182
  124MPD2     C 1926   0.531   2.733  10.688
  124MPD2    C1 1927   0.508   2.680  10.560
  124MPD2    C2 1928   0.561   2.748  10.451
  124MPD2    C3 1929   0.627   2.868  10.465
  124MPD2    C4 1930   0.656   2.919  10.592
  124MPD2    C5 1931   0.609   2.846  10.701
  124MPD2     H 1932   0.534   2.711  10.353
  124MPD2    H1 1933   0.694   3.019  10.609
  124MPD2    H2 1934   0.483   2.698  10.778
  124MPD2    H3 1935   0.606   2.896  10.798
  124MPD2     N 1936   0.661   2.930  10.335
  124MPD2    H5 1937   0.644   2.881  10.248
  124MPD2    N1 1938   0.425   2.564  10.547
  124MPD2    H7 1939   0.383   2.537  10.635
  125TMC2    C1 1940   0.529   4.391   9.474
  125TMC2    C2 1941   0.621   4.288   9.462
  125TMC2    C3 1942   0.753   4.322   9.466
  125TMC2    C4 1943   0.564   4.517   9.497
  125TMC2    C5 1944   0.696   4.548   9.498
  125TMC2    C6 1945   0.787   4.452   9.497
  125TMC2     C 1946   0.396   4.367   9.514
  125TMC2     O 1947   0.341   4.445   9.589
  125TMC2     H 1948   0.587   4.186   9.452
  125TMC2    H1 1949   0.492   4.599   9.497
  125TMC2    H2 1950   0.892   4.479   9.500
  125TMC2    C7 1951   0.730   4.682   9.460
  125TMC2    C8 1952   0.850   4.214   9.464
  125TMC2    O1 1953   0.652   4.773   9.485
  125TMC2    O2 1954   0.831   4.115   9.389
  125TMC2    O5 1955   0.909   4.207   9.587
  125TMC2    H5 1956   0.882   4.287   9.637
  126MPD1     C 1957   4.752   4.146   9.392
  126MPD1    C1 1958   0.035   4.128   9.291
  126MPD1    C2 1959   0.167   4.149   9.316
  126MPD1    C3 1960   0.208   4.228   9.425
  126MPD1    C4 1961   0.113   4.255   9.529
  126MPD1    C5 1962   4.791   4.198   9.515
  126MPD1     H 1963   0.247   4.111   9.254
  126MPD1    H1 1964   0.138   4.308   9.621
  126MPD1    H2 1965   4.647   4.123   9.379
  126MPD1    H3 1966   4.722   4.201   9.599
  126MPD1     N 1967   0.336   4.277   9.419
  126MPD1    H5 1968   0.393   4.251   9.339
  126MPD1    N1 1969   0.002   4.051   9.179
  126MPD1    H6 1970   0.063   4.065   9.099
  126MPD1    H7 1971   4.707   4.056   9.158
  127TMC2    C1 1972   2.124   3.515  10.132
  127TMC2    C2 1973   2.205   3.478  10.236
  127TMC2    C3 1974   2.167   3.368  10.303
  127TMC2    C4 1975   2.005   3.460  10.105
  127TMC2    C5 1976   1.962   3.367  10.190
  127TMC2    C6 1977   2.039   3.323  10.286
  127TMC2     C 1978   2.178   3.625  10.049
  127TMC2     O 1979   2.249   3.708  10.110
  127TMC2     H 1980   2.297   3.532  10.255
  127TMC2    H1 1981   1.942   3.503  10.028
  127TMC2    H2 1982   1.991   3.261  10.361
  127TMC2    C7 1983   1.840   3.296  10.162
  127TMC2    C8 1984   2.243   3.343  10.425
  127TMC2    O1 1985   1.764   3.342  10.076
  127TMC2    O2 1986   2.344   3.401  10.447
  127TMC2    O5 1987   2.214   3.226  10.480
  127TMC2    H5 1988   2.158   3.174  10.418
  128MPD2     C 1989   2.133   3.663   9.687
  128MPD2    C1 1990   2.170   3.700   9.810
  128MPD2    C2 1991   2.243   3.819   9.824
  128MPD2    C3 1992   2.261   3.900   9.710
  128MPD2    C4 1993   2.231   3.849   9.589
  128MPD2    C5 1994   2.173   3.727   9.575
  128MPD2     H 1995   2.257   3.856   9.925
  128MPD2    H1 1996   2.255   3.906   9.500
  128MPD2    H2 1997   2.095   3.562   9.675
  128MPD2    H3 1998   2.141   3.680   9.483
  128MPD2     N 1999   2.302   4.037   9.732
  128MPD2    H5 2000   2.334   4.054   9.827
  128MPD2    N1 2001   2.138   3.613   9.919
  128MPD2    H7 2002   2.071   3.541   9.894
  129TMC2    C1 2003   0.390   4.144  19.447
  129TMC2    C2 2004   0.317   4.221  19.529
  129TMC2    C3 2005   0.286   4.177  19.657
  129TMC2    C4 2006   0.412   4.013  19.481
  129TMC2    C5 2007   0.371   3.966  19.607
  129TMC2    C6 2008   0.314   4.052  19.702
  129TMC2     C 2009   0.457   4.201  19.334
  129TMC2     O 2010   0.403   4.270  19.252
  129TMC2     H 2011   0.302   4.323  19.496
  129TMC2    H1 2012   0.459   3.941  19.415
  129TMC2    H2 2013   0.292   4.019  19.803
  129TMC2    C7 2014   0.352   3.819  19.622
  129TMC2    C8 2015   0.253   4.293  19.745
  129TMC2    O1 2016   0.367   3.751  19.522
  129TMC2    O2 2017   0.317   4.400  19.722
  129TMC2    O5 2018   0.246   4.244  19.871
  129TMC2    H5 2019   0.191   4.163  19.881
  130MPD2     C 2020   0.658   4.218  19.115
  130MPD2    C1 2021   0.688   4.210  19.252
  130MPD2    C2 2022   0.821   4.254  19.286
  130MPD2    C3 2023   0.911   4.295  19.190
  130MPD2    C4 2024   0.877   4.294  19.055
  130MPD2    C5 2025   0.744   4.269  19.019
  130MPD2     H 2026   0.848   4.254  19.391
  130MPD2    H1 2027   0.948   4.330  18.981
  130MPD2    H2 2028   0.563   4.184  19.078
  130MPD2    H3 2029   0.709   4.262  18.917
  130MPD2     N 2030   1.041   4.342  19.230
  130MPD2    H5 2031   1.060   4.357  19.328
  130MPD2    N1 2032   0.589   4.173  19.348
  130MPD2    H7 2033   0.616   4.155  19.444
  131TMC2    C1 2034   0.310   3.217  10.322
  131TMC2    C2 2035   0.301   3.279  10.444
  131TMC2    C3 2036   0.343   3.412  10.452
  131TMC2    C4 2037   0.380   3.275  10.225
  131TMC2    C5 2038   0.450   3.394  10.249
  131TMC2    C6 2039   0.421   3.473  10.359
  131TMC2     C 2040   0.283   3.083  10.311
  131TMC2     O 2041   0.316   3.016  10.407
  131TMC2     H 2042   0.258   3.223  10.526
  131TMC2    H1 2043   0.388   3.223  10.131
  131TMC2    H2 2044   0.488   3.551  10.394
  131TMC2    C7 2045   0.554   3.431  10.154
  131TMC2    C8 2046   0.338   3.482  10.580
  131TMC2    O1 2047   0.576   3.355  10.061
  131TMC2    O2 2048   0.387   3.593  10.611
  131TMC2    O5 2049   0.233   3.437  10.645
  131TMC2    H5 2050   0.177   3.381  10.588
  132MPD2     C 2051   0.074   2.931  10.049
  132MPD2    C1 2052   0.156   2.929  10.155
  132MPD2    C2 2053   0.172   2.811  10.227
  132MPD2    C3 2054   0.100   2.697  10.198
  132MPD2    C4 2055   0.011   2.703  10.094
  132MPD2    C5 2056   4.801   2.822  10.025
  132MPD2     H 2057   0.240   2.811  10.311
  132MPD2    H1 2058   4.756   2.617  10.067
  132MPD2    H2 2059   0.063   3.021   9.990
  132MPD2    H3 2060   4.720   2.812   9.953
  132MPD2     N 2061   0.123   2.578  10.271
  132MPD2    H5 2062   0.211   2.562  10.319
  132MPD2    N1 2063   0.221   3.052  10.186
  132MPD2    H7 2064   0.187   3.134  10.137
  133TMC2    C1 2065   4.594   4.479   9.261
  133TMC2    C2 2066   4.698   4.510   9.353
  133TMC2    C3 2067   0.011   4.554   9.299
  133TMC2    C4 2068   4.599   4.512   9.129
  133TMC2    C5 2069   4.719   4.563   9.086
  133TMC2    C6 2070   0.024   4.589   9.162
  133TMC2     C 2071   4.474   4.425   9.319
  133TMC2     O 2072   4.489   4.369   9.425
  133TMC2     H 2073   4.693   4.470   9.453
  133TMC2    H1 2074   4.520   4.480   9.062
  133TMC2    H2 2075   0.109   4.639   9.118
  133TMC2    C7 2076   4.749   4.557   8.937
  133TMC2    C8 2077   0.132   4.570   9.379
  133TMC2    O1 2078   0.057   4.534   8.904
  133TMC2    O2 2079   0.234   4.615   9.325
  133TMC2    O5 2080   0.102   4.595   9.507
  133TMC2    H5 2081   0.023   4.549   9.543
  134MPD2     C 2082   4.125   4.512   9.244
  134MPD2    C1 2083   4.226   4.433   9.296
  134MPD2    C2 2084   4.201   4.316   9.370
  134MPD2    C3 2085   4.070   4.272   9.392
  134MPD2    C4 2086   3.971   4.360   9.347
  134MPD2    C5 2087   4.001   4.479   9.282
  134MPD2     H 2088   4.281   4.253   9.407
  134MPD2    H1 2089   3.869   4.345   9.382
  134MPD2    H2 2090   4.147   4.602   9.187
  134MPD2    H3 2091   3.917   4.542   9.257
  134MPD2     N 2092   4.036   4.147   9.459
  134MPD2    H5 2093   3.939   4.138   9.488
  134MPD2    N1 2094   4.357   4.468   9.261
  134MPD2    H7 2095   4.357   4.539   9.189
  135TMC2    C1 2096   1.746   0.895  10.193
  135TMC2    C2 2097   1.665   0.994  10.246
  135TMC2    C3 2098   1.545   0.944  10.299
  135TMC2    C4 2099   1.711   0.762  10.172
  135TMC2    C5 2100   1.589   0.724  10.221
  135TMC2    C6 2101   1.512   0.810  10.297
  135TMC2     C 2102   1.869   0.945  10.141
  135TMC2     O 2103   1.921   1.036  10.203
  135TMC2     H 2104   1.702   1.096  10.251
  135TMC2    H1 2105   1.782   0.688  10.137
  135TMC2    H2 2106   1.411   0.778  10.320
  135TMC2    C7 2107   1.564   0.584  10.216
  135TMC2    C8 2108   1.445   1.037  10.335
  135TMC2    O1 2109   1.624   0.515  10.133
  135TMC2    O2 2110   1.367   1.012  10.425
  135TMC2    O5 2111   1.442   1.145  10.251
  135TMC2    H5 2112   1.483   1.115  10.167
  136MPD2     C 2113   2.139   0.956   9.995
  136MPD2    C1 2114   2.031   0.877   9.960
  136MPD2    C2 2115   2.040   0.790   9.855
  136MPD2    C3 2116   2.155   0.777   9.785
  136MPD2    C4 2117   2.265   0.843   9.827
  136MPD2    C5 2118   2.253   0.935   9.923
  136MPD2     H 2119   1.958   0.722   9.836
  136MPD2    H1 2120   2.363   0.834   9.780
  136MPD2    H2 2121   2.158   1.032  10.070
  136MPD2    H3 2122   2.341   0.994   9.944
  136MPD2     N 2123   2.174   0.699   9.668
  136MPD2    H5 2124   2.264   0.699   9.621
  136MPD2    N1 2125   1.907   0.873  10.027
  136MPD2    H7 2126   1.838   0.807   9.993
  137TMC2    C1 2127   1.592   4.373   9.682
  137TMC2    C2 2128   1.661   4.351   9.565
  137TMC2    C3 2129   1.638   4.430   9.464
  137TMC2    C4 2130   1.488   4.456   9.689
  137TMC2    C5 2131   1.471   4.543   9.588
  137TMC2    C6 2132   1.542   4.527   9.472
  137TMC2     C 2133   1.600   4.266   9.783
  137TMC2     O 2134   1.591   4.298   9.901
  137TMC2     H 2135   1.748   4.285   9.561
  137TMC2    H1 2136   1.450   4.477   9.789
  137TMC2    H2 2137   1.514   4.596   9.393
  137TMC2    C7 2138   1.380   4.649   9.606
  137TMC2    C8 2139   1.722   4.430   9.344
  137TMC2    O1 2140   1.402   4.757   9.550
  137TMC2    O2 2141   1.680   4.464   9.235
  137TMC2    O5 2142   1.853   4.441   9.384
  137TMC2    H5 2143   1.869   4.429   9.480
  138MPD2     C 2144   1.533   3.912   9.706
  138MPD2    C1 2145   1.553   4.026   9.783
  138MPD2    C2 2146   1.548   4.004   9.925
  138MPD2    C3 2147   1.519   3.883   9.983
  138MPD2    C4 2148   1.484   3.783   9.903
  138MPD2    C5 2149   1.484   3.800   9.769
  138MPD2     H 2150   1.581   4.089   9.983
  138MPD2    H1 2151   1.464   3.683   9.939
  138MPD2    H2 2152   1.540   3.915   9.598
  138MPD2    H3 2153   1.467   3.706   9.718
  138MPD2     N 2154   1.525   3.881  10.121
  138MPD2    H5 2155   1.570   3.961  10.166
  138MPD2    N1 2156   1.589   4.148   9.724
  138MPD2    H7 2157   1.579   4.151   9.623
  139TMC2    C1 2158   2.331   2.148  13.730
  139TMC2    C2 2159   2.407   2.212  13.634
  139TMC2    C3 2160   2.358   2.330  13.596
  139TMC2    C4 2161   2.220   2.191  13.787
  139TMC2    C5 2162   2.187   2.319  13.754
  139TMC2    C6 2163   2.248   2.381  13.652
  139TMC2     C 2164   2.371   2.015  13.750
  139TMC2     O 2165   2.459   1.977  13.677
  139TMC2     H 2166   2.495   2.171  13.586
  139TMC2    H1 2167   2.168   2.127  13.857
  139TMC2    H2 2168   2.233   2.488  13.644
  139TMC2    C7 2169   2.091   2.388  13.839
  139TMC2    C8 2170   2.433   2.403  13.500
  139TMC2    O1 2171   2.056   2.505  13.810
  139TMC2    O2 2172   2.555   2.382  13.481
  139TMC2    O5 2173   2.356   2.502  13.454
  139TMC2    H5 2174   2.412   2.569  13.410
  140MPD2     C 2175   2.207   1.718  13.890
  140MPD2    C1 2176   2.309   1.789  13.843
  140MPD2    C2 2177   2.433   1.733  13.830
  140MPD2    C3 2178   2.458   1.600  13.874
  140MPD2    C4 2179   2.355   1.528  13.931
  140MPD2    C5 2180   2.230   1.586  13.941
  140MPD2     H 2181   2.513   1.799  13.800
  140MPD2    H1 2182   2.355   1.426  13.966
  140MPD2    H2 2183   2.112   1.771  13.895
  140MPD2    H3 2184   2.147   1.521  13.966
  140MPD2     N 2185   2.577   1.537  13.832
  140MPD2    H5 2186   2.621   1.571  13.747
  140MPD2    N1 2187   2.280   1.928  13.809
  140MPD2    H7 2188   2.187   1.959  13.833
  141TMC2    C1 2189   2.460   3.352  14.798
  141TMC2    C2 2190   2.466   3.218  14.821
  141TMC2    C3 2191   2.457   3.174  14.950
  141TMC2    C4 2192   2.431   3.447  14.893
  141TMC2    C5 2193   2.423   3.400  15.024
  141TMC2    C6 2194   2.441   3.263  15.053
  141TMC2     C 2195   2.495   3.400  14.667
  141TMC2     O 2196   2.465   3.516  14.646
  141TMC2     H 2197   2.477   3.147  14.740
  141TMC2    H1 2198   2.427   3.553  14.869
  141TMC2    H2 2199   2.417   3.237  15.156
  141TMC2    C7 2200   2.469   3.475  15.137
  141TMC2    C8 2201   2.460   3.036  14.986
  141TMC2    O1 2202   2.497   3.418  15.244
  141TMC2    O2 2203   2.406   3.015  15.095
  141TMC2    O5 2204   2.581   2.988  14.945
  141TMC2    H5 2205   2.620   3.035  14.869
  142TMC2    C1 2206   0.824   2.437  10.467
  142TMC2    C2 2207   0.912   2.504  10.538
  142TMC2    C3 2208   0.964   2.615  10.480
  142TMC2    C4 2209   0.792   2.477  10.339
  142TMC2    C5 2210   0.857   2.584  10.281
  142TMC2    C6 2211   0.946   2.657  10.352
  142TMC2     C 2212   0.728   2.341  10.532
  142TMC2     O 2213   0.662   2.272  10.454
  142TMC2     H 2214   0.938   2.486  10.642
  142TMC2    H1 2215   0.722   2.422  10.277
  142TMC2    H2 2216   0.999   2.732  10.294
  142TMC2    C7 2217   0.805   2.646  10.154
  142TMC2    C8 2218   1.044   2.711  10.553
  142TMC2    O1 2219   0.866   2.736  10.103
  142TMC2    O2 2220   1.125   2.786  10.498
  142TMC2    O5 2221   0.969   2.750  10.655
  142TMC2    H5 2222   0.906   2.683  10.691
  143MPD2     C 2223   0.496   2.111  10.928
  143MPD2    C1 2224   0.471   2.085  10.794
  143MPD2    C2 2225   0.541   2.163  10.708
  143MPD2    C3 2226   0.643   2.261  10.754
  143MPD2    C4 2227   0.661   2.278  10.884
  143MPD2    C5 2228   0.580   2.209  10.973
  143MPD2     H 2229   0.524   2.140  10.603
  143MPD2    H1 2230   0.732   2.352  10.918
  143MPD2    H2 2231   0.437   2.057  11.001
  143MPD2    H3 2232   0.601   2.218  11.079
  143MPD2     N 2233   0.716   2.354  10.675
  143MPD2    H5 2234   0.786   2.411  10.721
  143MPD2    N1 2235   0.383   1.978  10.768
  143MPD2    H7 2236   0.362   1.920  10.848
  144TMC2    C1 2237   3.593   1.277  18.882
  144TMC2    C2 2238   3.700   1.201  18.851
  144TMC2    C3 2239   3.806   1.192  18.938
  144TMC2    C4 2240   3.588   1.349  19.001
  144TMC2    C5 2241   3.697   1.339  19.085
  144TMC2    C6 2242   3.810   1.268  19.051
  144TMC2     C 2243   3.476   1.259  18.799
  144TMC2     O 2244   3.453   1.156  18.737
  144TMC2     H 2245   3.675   1.130  18.774
  144TMC2    H1 2246   3.496   1.389  19.043
  144TMC2    H2 2247   3.902   1.271  19.110
  144TMC2    C7 2248   3.734   1.444  19.182
  144TMC2    C8 2249   3.897   1.072  18.938
  144TMC2    O1 2250   3.852   1.471  19.186
  144TMC2    O2 2251   3.952   1.039  19.042
  144TMC2    O5 2252   3.827   0.983  18.858
  144TMC2    H5 2253   3.840   1.017  18.767
  145MPD2     C 2254   3.127   1.514  18.524
  145MPD2    C1 2255   3.143   1.377  18.526
  145MPD2    C2 2256   3.238   1.330  18.612
  145MPD2    C3 2257   3.309   1.422  18.692
  145MPD2    C4 2258   3.295   1.560  18.686
  145MPD2    C5 2259   3.194   1.607  18.606
  145MPD2     H 2260   3.255   1.223  18.619
  145MPD2    H1 2261   3.348   1.634  18.745
  145MPD2    H2 2262   3.055   1.555  18.454
  145MPD2    H3 2263   3.179   1.714  18.612
  145MPD2     N 2264   3.419   1.387  18.784
  145MPD2    H5 2265   3.468   1.461  18.832
  145MPD2    N1 2266   3.072   1.289  18.436
  145MPD2    H7 2267   3.081   1.190  18.452
  146TMC2    C1 2268   4.339   4.560  12.377
  146TMC2    C2 2269   4.225   4.515  12.323
  146TMC2    C3 2270   4.236   4.448  12.200
  146TMC2    C4 2271   4.464   4.522  12.335
  146TMC2    C5 2272   4.464   4.440  12.219
  146TMC2    C6 2273   4.353   4.407  12.146
  146TMC2     C 2274   4.335   4.633  12.502
  146TMC2     O 2275   4.237   4.702  12.516
  146TMC2     H 2276   4.132   4.545  12.369
  146TMC2    H1 2277   4.550   4.577  12.373
  146TMC2    H2 2278   4.369   4.382  12.041
  146TMC2    C7 2279   4.597   4.395  12.176
  146TMC2    C8 2280   4.110   4.428  12.134
  146TMC2    O1 2281   4.610   4.343  12.070
  146TMC2    O2 2282   4.013   4.463  12.202
  146TMC2    O5 2283   4.109   4.415  11.999
  146TMC2    H5 2284   4.195   4.417  11.950
  147MPD2     C 2285   0.301   4.394  12.280
  147MPD2    C1 2286   0.228   4.418  12.394
  147MPD2    C2 2287   0.092   4.429  12.379
  147MPD2    C3 2288   0.021   4.411  12.264
  147MPD2    C4 2289   0.090   4.392  12.151
  147MPD2    C5 2290   0.230   4.378  12.164
  147MPD2     H 2291   0.028   4.459  12.462
  147MPD2    H1 2292   0.044   4.383  12.054
  147MPD2    H2 2293   0.408   4.381  12.293
  147MPD2    H3 2294   0.291   4.347  12.079
  147MPD2     N 2295   4.685   4.424  12.271
  147MPD2    H5 2296   4.646   4.447  12.362
  147MPD2    N1 2297   0.291   4.410  12.519
  147MPD2    H7 2298   0.390   4.393  12.505
  148TMC2    C1 2299   4.551   3.435  11.096
  148TMC2    C2 2300   4.611   3.536  11.159
  148TMC2    C3 2301   4.747   3.529  11.190
  148TMC2    C4 2302   4.611   3.320  11.083
  148TMC2    C5 2303   4.746   3.310  11.114
  148TMC2    C6 2304   0.014   3.416  11.165
  148TMC2     C 2305   4.409   3.461  11.059
  148TMC2     O 2306   4.355   3.566  11.088
  148TMC2     H 2307   4.556   3.628  11.178
  148TMC2    H1 2308   4.564   3.232  11.041
  148TMC2    H2 2309   0.114   3.397  11.202
  148TMC2    C7 2310   0.012   3.208  11.041
  148TMC2    C8 2311   0.006   3.632  11.255
  148TMC2    O1 2312   4.752   3.115  10.992
  148TMC2    O2 2313   0.130   3.633  11.278
  148TMC2    O5 2314   4.723   3.706  11.324
  148TMC2    H5 2315   4.634   3.675  11.296
  149MPD2     C 2316   4.151   3.474  10.891
  149MPD2    C1 2317   4.252   3.378  10.876
  149MPD2    C2 2318   4.241   3.299  10.759
  149MPD2    C3 2319   4.131   3.315  10.672
  149MPD2    C4 2320   4.039   3.411  10.695
  149MPD2    C5 2321   4.046   3.488  10.802
  149MPD2     H 2322   4.317   3.228  10.727
  149MPD2    H1 2323   3.962   3.431  10.622
  149MPD2    H2 2324   4.153   3.540  10.977
  149MPD2    H3 2325   3.972   3.566  10.810
  149MPD2     N 2326   4.113   3.235  10.555
  149MPD2    H5 2327   4.032   3.266  10.503
  149MPD2    N1 2328   4.366   3.369  10.965
  149MPD2    H7 2329   4.447   3.313  10.939
  150TMC2    C1 2330   1.769   2.535  12.503
  150TMC2    C2 2331   1.791   2.481  12.381
  150TMC2    C3 2332   1.902   2.521  12.314
  150TMC2    C4 2333   1.855   2.615  12.570
  150TMC2    C5 2334   1.969   2.645  12.503
  150TMC2    C6 2335   1.998   2.598  12.375
  150TMC2     C 2336   1.639   2.523  12.566
  150TMC2     O 2337   1.649   2.498  12.684
  150TMC2     H 2338   1.715   2.421  12.331
  150TMC2    H1 2339   1.841   2.653  12.670
  150TMC2    H2 2340   2.094   2.616  12.329
  150TMC2    C7 2341   2.064   2.728  12.566
  150TMC2    C8 2342   1.924   2.462  12.180
  150TMC2    O1 2343   2.079   2.836  12.513
  150TMC2    O2 2344   1.852   2.377  12.129
  150TMC2    O5 2345   1.981   2.559  12.102
  150TMC2    H5 2346   2.008   2.639  12.152
  151MPD2     C 2347   1.146   2.382  12.555
  151MPD2    C1 2348   1.187   2.419  12.433
  151MPD2    C2 2349   1.316   2.459  12.404
  151MPD2    C3 2350   1.404   2.485  12.511
  151MPD2    C4 2351   1.360   2.467  12.640
  151MPD2    C5 2352   1.230   2.417  12.655
  151MPD2     H 2353   1.348   2.482  12.303
  151MPD2    H1 2354   1.426   2.491  12.723
  151MPD2    H2 2355   1.048   2.344  12.580
  151MPD2    H3 2356   1.196   2.401  12.757
  151MPD2     N 2357   1.535   2.518  12.480
  151MPD2    H5 2358   1.551   2.545  12.383
  151MPD2    N1 2359   1.085   2.399  12.329
  151MPD2    H7 2360   0.997   2.355  12.356
  152TMC2    C1 2361   1.767   2.291  13.214
  152TMC2    C2 2362   1.846   2.184  13.182
  152TMC2    C3 2363   1.961   2.199  13.110
  152TMC2    C4 2364   1.795   2.416  13.167
  152TMC2    C5 2365   1.909   2.426  13.094
  152TMC2    C6 2366   2.002   2.327  13.066
  152TMC2     C 2367   1.626   2.273  13.248
  152TMC2     O 2368   1.562   2.377  13.276
  152TMC2     H 2369   1.829   2.080  13.207
  152TMC2    H1 2370   1.726   2.497  13.186
  152TMC2    H2 2371   2.091   2.336  13.006
  152TMC2    C7 2372   1.944   2.566  13.057
  152TMC2    C8 2373   2.064   2.101  13.081
  152TMC2    O1 2374   1.847   2.631  13.023
  152TMC2    O2 2375   2.185   2.126  13.080
  152TMC2    O5 2376   2.010   1.979  13.084
  152TMC2    H5 2377   1.913   1.973  13.072
  153MPD2     C 2378   1.401   1.975  13.275
  153MPD2    C1 2379   1.431   2.108  13.262
  153MPD2    C2 2380   1.331   2.195  13.231
  153MPD2    C3 2381   1.201   2.154  13.208
  153MPD2    C4 2382   1.174   2.018  13.229
  153MPD2    C5 2383   1.272   1.929  13.268
  153MPD2     H 2384   1.347   2.302  13.230
  153MPD2    H1 2385   1.075   1.981  13.203
  153MPD2    H2 2386   1.480   1.901  13.281
  153MPD2    H3 2387   1.244   1.826  13.288
  153MPD2     N 2388   1.109   2.254  13.163
  153MPD2    H5 2389   1.138   2.351  13.170
  153MPD2    N1 2390   1.577   2.145  13.261
  153MPD2    H7 2391   1.645   2.069  13.263
  154TMC2    C1 2392   3.297   2.009  18.286
  154TMC2    C2 2393   3.309   1.948  18.406
  154TMC2    C3 2394   3.440   1.933  18.461
  154TMC2    C4 2395   3.403   2.072  18.224
  154TMC2    C5 2396   3.530   2.065  18.288
  154TMC2    C6 2397   3.550   1.994  18.406
  154TMC2     C 2398   3.167   2.064  18.253
  154TMC2     O 2399   3.078   2.077  18.336
  154TMC2     H 2400   3.214   1.912  18.445
  154TMC2    H1 2401   3.390   2.117  18.126
  154TMC2    H2 2402   3.651   2.001  18.446
  154TMC2    C7 2403   3.645   2.097  18.202
  154TMC2    C8 2404   3.461   1.902  18.602
  154TMC2    O1 2405   3.741   2.023  18.217
  154TMC2    O2 2406   3.369   1.906  18.683
  154TMC2    O5 2407   3.565   1.821  18.625
  154TMC2    H5 2408   3.630   1.803  18.553
  155MPD2     C 2409   3.023   2.142  17.927
  155MPD2    C1 2410   3.048   2.161  18.060
  155MPD2    C2 2411   2.973   2.253  18.138
  155MPD2    C3 2412   2.853   2.300  18.085
  155MPD2    C4 2413   2.828   2.276  17.951
  155MPD2    C5 2414   2.914   2.206  17.871
  155MPD2     H 2415   2.999   2.275  18.240
  155MPD2    H1 2416   2.741   2.316  17.901
  155MPD2    H2 2417   3.093   2.094  17.859
  155MPD2    H3 2418   2.899   2.203  17.764
  155MPD2     N 2419   2.768   2.378  18.170
  155MPD2    H5 2420   2.788   2.392  18.269
  155MPD2    N1 2421   3.154   2.085  18.112
  155MPD2    H7 2422   3.215   2.036  18.049
  156TMC2    C1 2423   1.831   0.386  11.909
  156TMC2    C2 2424   1.865   0.291  11.810
  156TMC2    C3 2425   1.831   0.305  11.679
  156TMC2    C4 2426   1.770   0.500  11.867
  156TMC2    C5 2427   1.748   0.518  11.732
  156TMC2    C6 2428   1.778   0.425  11.637
  156TMC2     C 2429   1.877   0.393  12.044
  156TMC2     O 2430   1.828   0.483  12.113
  156TMC2     H 2431   1.915   0.199  11.840
  156TMC2    H1 2432   1.735   0.573  11.939
  156TMC2    H2 2433   1.749   0.443  11.534
  156TMC2    C7 2434   1.679   0.634  11.681
  156TMC2    C8 2435   1.851   0.191  11.592
  156TMC2    O1 2436   1.694   0.677  11.565
  156TMC2    O2 2437   1.910   0.092  11.635
  156TMC2    O5 2438   1.733   0.176  11.523
  156TMC2    H5 2439   1.675   0.252  11.503
  157MPD2     C 2440   2.162   0.230  12.198
  157MPD2    C1 2441   2.065   0.327  12.190
  157MPD2    C2 2442   2.058   0.432  12.285
  157MPD2    C3 2443   2.128   0.423  12.405
  157MPD2    C4 2444   2.220   0.321  12.421
  157MPD2    C5 2445   2.236   0.229  12.314
  157MPD2     H 2446   1.990   0.516  12.282
  157MPD2    H1 2447   2.289   0.312  12.505
  157MPD2    H2 2448   2.180   0.149  12.129
  157MPD2    H3 2449   2.312   0.156  12.336
  157MPD2     N 2450   2.103   0.517  12.505
  157MPD2    H5 2451   2.041   0.594  12.478
  157MPD2    N1 2452   1.987   0.320  12.074
  157MPD2    H7 2453   2.016   0.248  12.008
  158TMC2    C1 2454   2.253   3.528  13.748
  158TMC2    C2 2455   2.295   3.636  13.674
  158TMC2    C3 2456   2.205   3.727  13.637
  158TMC2    C4 2457   2.118   3.501  13.770
  158TMC2    C5 2458   2.029   3.600  13.721
  158TMC2    C6 2459   2.069   3.710  13.663
  158TMC2     C 2460   2.356   3.431  13.767
  158TMC2     O 2461   2.439   3.425  13.678
  158TMC2     H 2462   2.402   3.646  13.655
  158TMC2    H1 2463   2.092   3.408  13.818
  158TMC2    H2 2464   1.996   3.786  13.638
  158TMC2    C7 2465   1.899   3.612  13.788
  158TMC2    C8 2466   2.245   3.867  13.616
  158TMC2    O1 2467   1.824   3.704  13.758
  158TMC2    O2 2468   2.180   3.965  13.659
  158TMC2    O5 2469   2.367   3.863  13.562
  158TMC2    H5 2470   2.391   3.783  13.511
  159MPD2     C 2471   2.150   3.333  14.244
  159MPD2    C1 2472   2.219   3.224  14.194
  159MPD2    C2 2473   2.285   3.228  14.069
  159MPD2    C3 2474   2.280   3.344  13.995
  159MPD2    C4 2475   2.213   3.451  14.052
  159MPD2    C5 2476   2.144   3.452  14.175
  159MPD2     H 2477   2.331   3.141  14.022
  159MPD2    H1 2478   2.212   3.543  13.995
  159MPD2    H2 2479   2.088   3.326  14.333
  159MPD2    H3 2480   2.094   3.536  14.220
  159MPD2     N 2481   2.338   3.333  13.867
  159MPD2    H5 2482   2.402   3.256  13.854
  159MPD2    N1 2483   2.216   3.108  14.269
  159MPD2    H7 2484   2.160   3.113  14.353
  160TMC2    C1 2485   2.052   1.858  19.589
  160TMC2    C2 2486   1.984   1.780  19.677
  160TMC2    C3 2487   1.940   1.663  19.627
  160TMC2    C4 2488   2.071   1.832  19.455
  160TMC2    C5 2489   2.024   1.712  19.411
  160TMC2    C6 2490   1.961   1.620  19.495
  160TMC2     C 2491   2.074   1.985  19.641
  160TMC2     O 2492   2.125   1.985  19.755
  160TMC2     H 2493   1.973   1.811  19.781
  160TMC2    H1 2494   2.131   1.905  19.403
  160TMC2    H2 2495   1.908   1.533  19.459
  160TMC2    C7 2496   2.031   1.678  19.274
  160TMC2    C8 2497   1.903   1.569  19.725
  160TMC2    O1 2498   2.029   1.562  19.241
  160TMC2    O2 2499   1.939   1.454  19.711
  160TMC2    O5 2500   1.826   1.617  19.827
  160TMC2    H5 2501   1.797   1.707  19.799
  161MPD2     C 2502   2.075   2.269  19.718
  161MPD2    C1 2503   1.994   2.215  19.621
  161MPD2    C2 2504   1.889   2.290  19.566
  161MPD2    C3 2505   1.872   2.415  19.609
  161MPD2    C4 2506   1.961   2.474  19.697
  161MPD2    C5 2507   2.059   2.401  19.754
  161MPD2     H 2508   1.825   2.249  19.489
  161MPD2    H1 2509   1.937   2.569  19.745
  161MPD2    H2 2510   2.139   2.203  19.776
  161MPD2    H3 2511   2.120   2.435  19.836
  161MPD2     N 2512   1.761   2.506  19.574
  161MPD2    H5 2513   1.770   2.604  19.598
  161MPD2    N1 2514   2.017   2.082  19.573
  161MPD2    H7 2515   1.953   2.054  19.500
  162TMC2    C1 2516   4.423   3.955  18.788
  162TMC2    C2 2517   4.437   4.066  18.711
  162TMC2    C3 2518   4.551   4.086  18.654
  162TMC2    C4 2519   4.529   3.879  18.826
  162TMC2    C5 2520   4.649   3.897  18.750
  162TMC2    C6 2521   4.653   3.994  18.655
  162TMC2     C 2522   4.314   3.865  18.741
  162TMC2     O 2523   4.327   3.748  18.774
  162TMC2     H 2524   4.356   4.136  18.698
  162TMC2    H1 2525   4.507   3.798  18.895
  162TMC2    H2 2526   4.752   4.018  18.619
  162TMC2    C7 2527   4.769   3.828  18.781
  162TMC2    C8 2528   4.589   4.215  18.596
  162TMC2    O1 2529   0.051   3.849  18.699
  162TMC2    O2 2530   4.524   4.315  18.623
  162TMC2    O5 2531   4.645   4.185  18.477
  162TMC2    H5 2532   4.667   4.094  18.448
  163MPD2     C 2533   4.102   3.770  18.281
  163MPD2    C1 2534   4.196   3.700  18.353
  163MPD2    C2 2535   4.222   3.737  18.486
  163MPD2    C3 2536   4.179   3.855  18.538
  163MPD2    C4 2537   4.084   3.923  18.466
  163MPD2    C5 2538   4.038   3.875  18.346
  163MPD2     H 2539   4.299   3.689  18.545
  163MPD2    H1 2540   4.036   4.014  18.500
  163MPD2    H2 2541   4.071   3.748  18.180
  163MPD2    H3 2542   3.948   3.925  18.314
  163MPD2     N 2543   4.220   3.917  18.657
  163MPD2    H5 2544   4.180   4.009  18.674
  163MPD2    N1 2545   4.254   3.583  18.294
  163MPD2    H7 2546   4.238   3.553  18.198
  164TMC2    C1 2547   0.301   3.255  11.387
  164TMC2    C2 2548   0.395   3.352  11.400
  164TMC2    C3 2549   0.369   3.463  11.476
  164TMC2    C4 2550   0.177   3.272  11.445
  164TMC2    C5 2551   0.155   3.381  11.526
  164TMC2    C6 2552   0.247   3.480  11.537
  164TMC2     C 2553   0.318   3.135  11.301
  164TMC2     O 2554   0.225   3.062  11.277
  164TMC2     H 2555   0.487   3.350  11.343
  164TMC2    H1 2556   0.102   3.194  11.438
  164TMC2    H2 2557   0.224   3.575  11.584
  164TMC2    C7 2558   0.017   3.412  11.560
  164TMC2    C8 2559   0.444   3.586  11.456
  164TMC2    O1 2560   4.731   3.385  11.483
  164TMC2    O2 2561   0.496   3.626  11.352
  164TMC2    O5 2562   0.490   3.609  11.578
  164TMC2    H5 2563   0.479   3.528  11.632
  165TMC2    C1 2564   1.359   0.636  19.222
  165TMC2    C2 2565   1.360   0.499  19.235
  165TMC2    C3 2566   1.461   0.443  19.313
  165TMC2    C4 2567   1.433   0.716  19.298
  165TMC2    C5 2568   1.524   0.658  19.379
  165TMC2    C6 2569   1.546   0.525  19.377
  165TMC2     C 2570   1.232   0.698  19.187
  165TMC2     O 2571   1.194   0.783  19.260
  165TMC2     H 2572   1.282   0.436  19.194
  165TMC2    H1 2573   1.436   0.823  19.279
  165TMC2    H2 2574   1.627   0.484  19.436
  165TMC2    C7 2575   1.639   0.731  19.425
  165TMC2    C8 2576   1.464   0.299  19.332
  165TMC2    O1 2577   1.739   0.668  19.452
  165TMC2    O2 2578   1.486   0.224  19.237
  165TMC2    O5 2579   1.511   0.288  19.462
  165TMC2    H5 2580   1.476   0.369  19.505
  166MPD2     C 2581   0.754   0.566  19.060
  166MPD2    C1 2582   0.800   0.664  19.153
  166MPD2    C2 2583   0.940   0.681  19.157
  166MPD2    C3 2584   1.029   0.605  19.076
  166MPD2    C4 2585   0.978   0.510  18.990
  166MPD2    C5 2586   0.841   0.489  18.981
  166MPD2     H 2587   0.981   0.758  19.221
  166MPD2    H1 2588   1.039   0.460  18.916
  166MPD2    H2 2589   0.647   0.550  19.058
  166MPD2    H3 2590   0.803   0.411  18.916
  166MPD2     N 2591   1.168   0.611  19.094
  166MPD2    H5 2592   1.231   0.550  19.042
  166MPD2    N1 2593   0.700   0.735  19.223
  166MPD2    H7 2594   0.610   0.735  19.175
  167TMC2    C1 2595   4.547   3.249  12.996
  167TMC2    C2 2596   4.471   3.264  13.106
  167TMC2    C3 2597   4.431   3.160  13.189
  167TMC2    C4 2598   4.573   3.125  12.953
  167TMC2    C5 2599   4.537   3.019  13.038
  167TMC2    C6 2600   4.460   3.036  13.151
  167TMC2     C 2601   4.589   3.369  12.921
  167TMC2     O 2602   4.530   3.478  12.941
  167TMC2     H 2603   4.464   3.364  13.147
  167TMC2    H1 2604   4.623   3.102  12.860
  167TMC2    H2 2605   4.428   2.954  13.214
  167TMC2    C7 2606   4.570   2.881  13.006
  167TMC2    C8 2607   4.428   3.181  13.331
  167TMC2    O1 2608   4.553   2.806  13.104
  167TMC2    O2 2609   4.478   3.110  13.415
  167TMC2    O5 2610   4.344   3.286  13.357
  167TMC2    H5 2611   4.302   3.314  13.273
  168MPD2     C 2612   4.722   3.577  12.757
  168MPD2    C1 2613   4.734   3.440  12.740
  168MPD2    C2 2614   0.006   3.391  12.634
  168MPD2    C3 2615   0.034   3.478  12.534
  168MPD2    C4 2616   0.008   3.610  12.535
  168MPD2    C5 2617   4.756   3.657  12.646
  168MPD2     H 2618   0.025   3.285  12.628
  168MPD2    H1 2619   0.021   3.679  12.452
  168MPD2    H2 2620   4.672   3.628  12.839
  168MPD2    H3 2621   4.735   3.763  12.642
  168MPD2     N 2622   0.068   3.423  12.408
  168MPD2    H5 2623   0.064   3.484  12.327
  168MPD2    N1 2624   4.681   3.343  12.827
  168MPD2    H7 2625   4.722   3.253  12.807
  169MPD1     C 2626   2.003   3.635   9.056
  169MPD1    C1 2627   1.955   3.701   9.167
  169MPD1    C2 2628   1.895   3.626   9.271
  169MPD1    C3 2629   1.881   3.488   9.257
  169MPD1    C4 2630   1.908   3.424   9.136
  169MPD1    C5 2631   1.973   3.501   9.042
  169MPD1     H 2632   1.873   3.674   9.365
  169MPD1    H1 2633   1.888   3.318   9.125
  169MPD1    H2 2634   2.058   3.687   8.979
  169MPD1    H3 2635   2.015   3.453   8.954
  169MPD1     N 2636   1.835   3.422   9.372
  169MPD1    H5 2637   1.816   3.480   9.453
  169MPD1    N1 2638   1.997   3.834   9.187
  169MPD1    H6 2639   2.007   3.883   9.098
  169MPD1    H7 2640   1.928   3.882   9.244
  170MPD1     C 2641   0.891   0.632  13.167
  170MPD1    C1 2642   0.953   0.742  13.229
  170MPD1    C2 2643   0.892   0.794  13.347
  170MPD1    C3 2644   0.775   0.732  13.400
  170MPD1    C4 2645   0.715   0.633  13.324
  170MPD1    C5 2646   0.776   0.585  13.210
  170MPD1     H 2647   0.946   0.877  13.391
  170MPD1    H1 2648   0.620   0.586  13.344
  170MPD1    H2 2649   0.945   0.594  13.081
  170MPD1    H3 2650   0.733   0.497  13.164
  170MPD1     N 2651   0.729   0.785  13.520
  170MPD1    H5 2652   0.781   0.865  13.555
  170MPD1    N1 2653   1.080   0.782  13.185
  170MPD1    H6 2654   1.091   0.774  13.084
  170MPD1    H7 2655   1.101   0.879  13.206
  171MPD1     C 2656   4.051   1.952  15.559
  171MPD1    C1 2657   4.024   1.821  15.527
  171MPD1    C2 2658   4.075   1.721  15.607
  171MPD1    C3 2659   4.165   1.751  15.715
  171MPD1    C4 2660   4.177   1.885  15.741
  171MPD1    C5 2661   4.120   1.986  15.670
  171MPD1     H 2662   4.054   1.615  15.597
  171MPD1    H1 2663   4.237   1.906  15.829
  171MPD1    H2 2664   4.015   2.035  15.499
  171MPD1    H3 2665   4.123   2.087  15.709
  171MPD1     N 2666   4.219   1.655  15.800
  171MPD1    H5 2667   4.266   1.691  15.882
  171MPD1    N1 2668   3.943   1.787  15.413
  171MPD1    H6 2669   3.924   1.862  15.346
  171MPD1    H7 2670   3.929   1.695  15.373
  172MPD1     C 2671   3.432   0.788  17.768
  172MPD1    C1 2672   3.459   0.918  17.738
  172MPD1    C2 2673   3.441   1.016  17.839
  172MPD1    C3 2674   3.405   0.982  17.971
  172MPD1    C4 2675   3.382   0.847  17.996
  172MPD1    C5 2676   3.397   0.756  17.899
  172MPD1     H 2677   3.446   1.117  17.801
  172MPD1    H1 2678   3.362   0.810  18.096
  172MPD1    H2 2679   3.436   0.701  17.703
  172MPD1    H3 2680   3.388   0.651  17.927
  172MPD1     N 2681   3.358   1.072  18.068
  172MPD1    H5 2682   3.340   1.029  18.159
  172MPD1    N1 2683   3.453   0.963  17.605
  172MPD1    H6 2684   3.499   1.053  17.599
  172MPD1    H7 2685   3.499   0.895  17.545
  173MPD1     C 2686   4.531   1.437  14.417
  173MPD1    C1 2687   4.401   1.422  14.372
  173MPD1    C2 2688   4.345   1.294  14.363
  173MPD1    C3 2689   4.404   1.193  14.434
  173MPD1    C4 2690   4.526   1.208  14.502
  173MPD1    C5 2691   4.588   1.333  14.485
  173MPD1     H 2692   4.247   1.277  14.320
  173MPD1    H1 2693   4.590   1.130  14.542
  173MPD1    H2 2694   4.593   1.525  14.402
  173MPD1    H3 2695   4.689   1.339  14.524
  173MPD1     N 2696   4.340   1.069  14.422
  173MPD1    H5 2697   4.244   1.074  14.389
  173MPD1    N1 2698   4.349   1.519  14.289
  173MPD1    H6 2699   4.363   1.608  14.337
  173MPD1    H7 2700   4.249   1.504  14.279
  174MPD1     C 2701   0.111   0.555  14.657
  174MPD1    C1 2702   4.803   0.485  14.702
  174MPD1    C2 2703   4.698   0.482  14.620
  174MPD1    C3 2704   4.687   0.541  14.497
  174MPD1    C4 2705   4.792   0.617  14.459
  174MPD1    C5 2706   0.097   0.631  14.539
  174MPD1     H 2707   4.615   0.415  14.637
  174MPD1    H1 2708   4.786   0.671  14.365
  174MPD1    H2 2709   0.197   0.575  14.720
  174MPD1    H3 2710   0.178   0.701  14.517
  174MPD1     N 2711   4.567   0.552  14.424
  174MPD1    H5 2712   4.567   0.625  14.353
  174MPD1    N1 2713   0.005   0.396  14.812
  174MPD1    H6 2714   0.073   0.420  14.884
  174MPD1    H7 2715   4.716   0.380  14.848
  175MPD1     C 2716   3.156   1.785  15.674
  175MPD1    C1 2717   3.022   1.801  15.685
  175MPD1    C2 2718   2.974   1.842  15.806
  175MPD1    C3 2719   3.049   1.843  15.922
  175MPD1    C4 2720   3.183   1.814  15.913
  175MPD1    C5 2721   3.231   1.788  15.789
  175MPD1     H 2722   2.871   1.873  15.817
  175MPD1    H1 2723   3.254   1.813  15.995
  175MPD1    H2 2724   3.207   1.788  15.578
  175MPD1    H3 2725   3.338   1.773  15.785
  175MPD1     N 2726   2.999   1.860  16.055
  175MPD1    H5 2727   3.067   1.885  16.127
  175MPD1    N1 2728   2.947   1.826  15.573
  175MPD1    H6 2729   2.848   1.814  15.595
  175MPD1    H7 2730   2.972   1.770  15.491
  176MPD1     C 2731   4.689   3.383  17.302
  176MPD1    C1 2732   4.729   3.468  17.202
  176MPD1    C2 2733   4.712   3.601  17.227
  176MPD1    C3 2734   4.643   3.646  17.340
  176MPD1    C4 2735   4.606   3.558  17.442
  176MPD1    C5 2736   4.625   3.425  17.415
  176MPD1     H 2737   4.738   3.677  17.154
  176MPD1    H1 2738   4.553   3.586  17.532
  176MPD1    H2 2739   4.704   3.277  17.289
  176MPD1    H3 2740   4.599   3.356  17.494
  176MPD1     N 2741   4.631   3.780  17.349
  176MPD1    H5 2742   4.659   3.829  17.264
  176MPD1    N1 2743   0.012   3.429  17.099
  176MPD1    H6 2744   0.018   3.503  17.029
  176MPD1    H7 2745   4.781   3.345  17.053
  177MPD1     C 2746   2.916   4.144  10.285
  177MPD1    C1 2747   2.782   4.113  10.302
  177MPD1    C2 2748   2.689   4.148  10.207
  177MPD1    C3 2749   2.723   4.232  10.102
  177MPD1    C4 2750   2.853   4.272  10.091
  177MPD1    C5 2751   2.946   4.230  10.180
  177MPD1     H 2752   2.594   4.096  10.208
  177MPD1    H1 2753   2.878   4.337  10.008
  177MPD1    H2 2754   2.992   4.101  10.349
  177MPD1    H3 2755   3.047   4.269  10.169
  177MPD1     N 2756   2.625   4.267  10.003
  177MPD1    H5 2757   2.541   4.211  10.000
  177MPD1    N1 2758   2.746   3.995  10.376
  177MPD1    H6 2759   2.648   3.979  10.396
  177MPD1    H7 2760   2.799   3.982  10.462
  178MPD1     C 2761   0.760   0.062  18.006
  178MPD1    C1 2762   0.647   0.019  17.940
  178MPD1    C2 2763   0.656   4.736  17.834
  178MPD1    C3 2764   0.780   4.682  17.795
  178MPD1    C4 2765   0.887   4.718  17.873
  178MPD1    C5 2766   0.880   0.003  17.977
  178MPD1     H 2767   0.568   4.729  17.771
  178MPD1    H1 2768   0.987   4.680  17.854
  178MPD1    H2 2769   0.747   0.131  18.089
  178MPD1    H3 2770   0.964   0.042  18.032
  178MPD1     N 2771   0.797   4.619  17.671
  178MPD1    H5 2772   0.896   4.614  17.646
  178MPD1    N1 2773   0.521   0.075  17.966
  178MPD1    H6 2774   0.501   0.122  18.054
  178MPD1    H7 2775   0.439   0.018  17.945
  179MPD1     C 2776   0.602   2.998  15.827
  179MPD1    C1 2777   0.479   2.963  15.772
  179MPD1    C2 2778   0.438   2.835  15.790
  179MPD1    C3 2779   0.522   2.740  15.852
  179MPD1    C4 2780   0.650   2.776  15.894
  179MPD1    C5 2781   0.690   2.904  15.877
  179MPD1     H 2782   0.339   2.808  15.756
  179MPD1    H1 2783   0.710   2.697  15.938
  179MPD1    H2 2784   0.644   3.098  15.829
  179MPD1    H3 2785   0.793   2.924  15.903
  179MPD1     N 2786   0.475   2.612  15.885
  179MPD1    H5 2787   0.545   2.550  15.923
  179MPD1    N1 2788   0.385   3.056  15.734
  179MPD1    H6 2789   0.342   3.021  15.649
  179MPD1    H7 2790   0.433   3.142  15.710
  180MPD1     C 2791   0.207   4.122  14.822
  180MPD1    C1 2792   0.243   4.181  14.701
  180MPD1    C2 2793   0.146   4.233  14.618
  180MPD1    C3 2794   0.011   4.222  14.646
  180MPD1    C4 2795   4.776   4.166  14.769
  180MPD1    C5 2796   0.070   4.122  14.853
  180MPD1     H 2797   0.175   4.292  14.532
  180MPD1    H1 2798   4.672   4.166  14.801
  180MPD1    H2 2799   0.270   4.088  14.903
  180MPD1    H3 2800   0.040   4.082  14.950
  180MPD1     N 2801   4.731   4.281  14.549
  180MPD1    H5 2802   4.778   4.313  14.465
  180MPD1    N1 2803   0.380   4.173  14.660
  180MPD1    H6 2804   0.416   4.247  14.600
  180MPD1    H7 2805   0.443   4.149  14.737
  181MPD1     C 2806   1.804   1.435   9.752
  181MPD1    C1 2807   1.731   1.505   9.846
  181MPD1    C2 2808   1.758   1.492   9.978
  181MPD1    C3 2809   1.838   1.384  10.016
  181MPD1    C4 2810   1.902   1.302   9.927
  181MPD1    C5 2811   1.879   1.326   9.793
  181MPD1     H 2812   1.709   1.563  10.044
  181MPD1    H1 2813   1.973   1.223   9.949
  181MPD1    H2 2814   1.800   1.456   9.646
  181MPD1    H3 2815   1.934   1.270   9.718
  181MPD1     N 2816   1.869   1.361  10.155
  181MPD1    H5 2817   1.936   1.288  10.179
  181MPD1    N1 2818   1.645   1.615   9.809
  181MPD1    H6 2819   1.569   1.620   9.876
  181MPD1    H7 2820   1.600   1.611   9.718
  182MPD1     C 2821   2.322   0.298  19.401
  182MPD1    C1 2822   2.358   0.166  19.375
  182MPD1    C2 2823   2.379   0.139  19.240
  182MPD1    C3 2824   2.367   0.230  19.137
  182MPD1    C4 2825   2.320   0.350  19.171
  182MPD1    C5 2826   2.291   0.387  19.302
  182MPD1     H 2827   2.408   0.036  19.223
  182MPD1    H1 2828   2.310   0.425  19.093
  182MPD1    H2 2829   2.324   0.343  19.500
  182MPD1    H3 2830   2.255   0.488  19.320
  182MPD1     N 2831   2.405   0.204  19.004
  182MPD1    H5 2832   2.377   0.271  18.933
  182MPD1    N1 2833   2.377   0.059  19.474
  182MPD1    H6 2834   2.320   0.095  19.550
  182MPD1    H7 2835   2.354   4.770  19.442
  183MPD1     C 2836   2.845   0.671   8.992
  183MPD1    C1 2837   2.955   0.667   9.067
  183MPD1    C2 2838   2.977   0.756   9.172
  183MPD1    C3 2839   2.877   0.847   9.201
  183MPD1    C4 2840   2.753   0.834   9.139
  183MPD1    C5 2841   2.745   0.739   9.041
  183MPD1     H 2842   3.076   0.771   9.213
  183MPD1    H1 2843   2.664   0.892   9.160
  183MPD1    H2 2844   2.832   0.613   8.901
  183MPD1    H3 2845   2.648   0.732   8.993
  183MPD1     N 2846   2.905   0.948   9.301
  183MPD1    H5 2847   3.002   0.956   9.331
  183MPD1    N1 2848   3.066   0.590   9.022
  183MPD1    H6 2849   3.146   0.583   9.084
  183MPD1    H7 2850   3.037   0.500   8.985
  184MPD1     C 2851   1.818   3.609  10.516
  184MPD1    C1 2852   1.757   3.576  10.397
  184MPD1    C2 2853   1.803   3.642  10.288
  184MPD1    C3 2854   1.885   3.747  10.289
  184MPD1    C4 2855   1.939   3.789  10.411
  184MPD1    C5 2856   1.905   3.714  10.524
  184MPD1     H 2857   1.758   3.613  10.194
  184MPD1    H1 2858   1.999   3.878  10.425
  184MPD1    H2 2859   1.784   3.564  10.608
  184MPD1    H3 2860   1.946   3.745  10.620
  184MPD1     N 2861   1.920   3.825  10.180
  184MPD1    H5 2862   1.972   3.911  10.195
  184MPD1    N1 2863   1.681   3.461  10.390
  184MPD1    H6 2864   1.617   3.454  10.469
  184MPD1    H7 2865   1.621   3.467  10.308
  185MPD1     C 2866   1.806   4.131   9.128
  185MPD1    C1 2867   1.736   4.032   9.192
  185MPD1    C2 2868   1.761   4.014   9.334
  185MPD1    C3 2869   1.880   4.076   9.381
  185MPD1    C4 2870   1.957   4.150   9.303
  185MPD1    C5 2871   1.922   4.180   9.171
  185MPD1     H 2872   1.696   3.958   9.400
  185MPD1    H1 2873   2.054   4.191   9.328
  185MPD1    H2 2874   1.778   4.165   9.029
  185MPD1    H3 2875   1.986   4.245   9.112
  185MPD1     N 2876   1.931   4.059   9.513
  185MPD1    H5 2877   2.003   4.123   9.544
  185MPD1    N1 2878   1.619   3.980   9.131
  185MPD1    H6 2879   1.628   3.973   9.030
  185MPD1    H7 2880   1.577   3.899   9.176
  186MPD1     C 2881   0.956   2.454  16.036
  186MPD1    C1 2882   0.983   2.580  15.982
  186MPD1    C2 2883   0.960   2.687  16.061
  186MPD1    C3 2884   0.921   2.673  16.192
  186MPD1    C4 2885   0.902   2.546  16.245
  186MPD1    C5 2886   0.919   2.440  16.166
  186MPD1     H 2887   0.974   2.786  16.018
  186MPD1    H1 2888   0.870   2.534  16.348
  186MPD1    H2 2889   0.957   2.359  15.984
  186MPD1    H3 2890   0.909   2.340  16.207
  186MPD1     N 2891   0.866   2.784  16.260
  186MPD1    H5 2892   0.809   2.755  16.339
  186MPD1    N1 2893   1.006   2.597  15.846
  186MPD1    H6 2894   1.054   2.685  15.830
  186MPD1    H7 2895   1.048   2.513  15.807
  187MPD1     C 2896   4.426   0.387  18.311
  187MPD1    C1 2897   4.424   0.266  18.255
  187MPD1    C2 2898   4.489   0.244  18.135
  187MPD1    C3 2899   4.530   0.346  18.058
  187MPD1    C4 2900   4.522   0.470  18.116
  187MPD1    C5 2901   4.467   0.491  18.234
  187MPD1     H 2902   4.505   0.140  18.110
  187MPD1    H1 2903   4.579   0.551  18.072
  187MPD1    H2 2904   4.388   0.410  18.410
  187MPD1    H3 2905   4.467   0.593  18.271
  187MPD1     N 2906   4.592   0.336  17.929
  187MPD1    H5 2907   4.624   0.424  17.889
  187MPD1    N1 2908   4.385   0.162  18.330
  187MPD1    H6 2909   4.294   0.176  18.372
  187MPD1    H7 2910   4.374   0.075  18.278
  188MPD1     C 2911   4.785   0.144   9.117
  188MPD1    C1 2912   4.661   0.088   9.109
  188MPD1    C2 2913   4.585   0.065   9.216
  188MPD1    C3 2914   4.638   0.080   9.343
  188MPD1    C4 2915   4.772   0.119   9.361
  188MPD1    C5 2916   0.032   0.150   9.239
  188MPD1     H 2917   4.479   0.049   9.201
  188MPD1    H1 2918   0.009   0.142   9.459
  188MPD1    H2 2919   0.035   0.180   9.031
  188MPD1    H3 2920   0.134   0.181   9.258
  188MPD1     N 2921   4.555   0.047   9.450
  188MPD1    H5 2922   4.600   0.045   9.541
  188MPD1    N1 2923   4.608   0.076   8.984
  188MPD1    H6 2924   4.672   0.048   8.910
  188MPD1    H7 2925   4.522   0.022   8.978
  189MPD1     C 2926   1.482   0.749  18.786
  189MPD1    C1 2927   1.499   0.884  18.786
  189MPD1    C2 2928   1.413   0.964  18.710
  189MPD1    C3 2929   1.300   0.908  18.647
  189MPD1    C4 2930   1.284   0.771  18.663
  189MPD1    C5 2931   1.375   0.695  18.719
  189MPD1     H 2932   1.431   1.070  18.710
  189MPD1    H1 2933   1.199   0.721  18.619
  189MPD1    H2 2934   1.544   0.675  18.835
  189MPD1    H3 2935   1.360   0.588  18.723
  189MPD1     N 2936   1.204   0.989  18.578
  189MPD1    H5 2937   1.225   1.088  18.566
  189MPD1    N1 2938   1.612   0.938  18.845
  189MPD1    H6 2939   1.666   0.878  18.907
  189MPD1    H7 2940   1.631   1.033  18.878
  190MPD1     C 2941   4.793   3.839  15.545
  190MPD1    C1 2942   4.793   3.852  15.685
  190MPD1    C2 2943   0.099   3.911  15.745
  190MPD1    C3 2944   0.203   3.966  15.672
  190MPD1    C4 2945   0.198   3.944  15.535
  190MPD1    C5 2946   0.087   3.890  15.475
  190MPD1     H 2947   0.092   3.927  15.852
  190MPD1    H1 2948   0.287   3.963  15.476
  190MPD1    H2 2949   4.721   3.786  15.485
  190MPD1    H3 2950   0.088   3.878  15.367
  190MPD1     N 2951   0.313   4.022  15.743
  190MPD1    H5 2952   0.307   4.018  15.844
  190MPD1    N1 2953   4.691   3.782  15.748
  190MPD1    H6 2954   4.606   3.781  15.692
  190MPD1    H7 2955   4.679   3.829  15.838
  191MPD1     C 2956   0.084   1.051  13.046
  191MPD1    C1 2957   4.774   0.976  13.028
  191MPD1    C2 2958   4.698   0.989  12.916
  191MPD1    C3 2959   4.751   1.075  12.817
  191MPD1    C4 2960   0.057   1.153  12.835
  191MPD1    C5 2961   0.128   1.134  12.949
  191MPD1     H 2962   4.608   0.931  12.898
  191MPD1    H1 2963   0.089   1.236  12.773
  191MPD1    H2 2964   0.150   1.051  13.133
  191MPD1    H3 2965   0.221   1.189  12.964
  191MPD1     N 2966   4.670   1.093  12.701
  191MPD1    H5 2967   4.591   1.029  12.698
  191MPD1    N1 2968   4.722   0.903  13.136
  191MPD1    H6 2969   4.792   0.878  13.205
  191MPD1    H7 2970   4.667   0.822  13.106
  192MPD1     C 2971   4.093   1.794  12.648
  192MPD1    C1 2972   4.091   1.743  12.518
  192MPD1    C2 2973   4.196   1.663  12.476
  192MPD1    C3 2974   4.286   1.610  12.567
  192MPD1    C4 2975   4.276   1.645  12.701
  192MPD1    C5 2976   4.191   1.751  12.735
  192MPD1     H 2977   4.185   1.632  12.373
  192MPD1    H1 2978   4.347   1.605  12.772
  192MPD1    H2 2979   4.019   1.870  12.671
  192MPD1    H3 2980   4.189   1.792  12.835
  192MPD1     N 2981   4.381   1.512  12.527
  192MPD1    H5 2982   4.459   1.489  12.588
  192MPD1    N1 2983   4.005   1.806  12.426
  192MPD1    H6 2984   3.915   1.833  12.466
  192MPD1    H7 2985   3.988   1.739  12.351
  193MPD1     C 2986   4.056   1.243  16.304
  193MPD1    C1 2987   4.041   1.377  16.337
  193MPD1    C2 2988   4.121   1.447  16.430
  193MPD1    C3 2989   4.195   1.373  16.513
  193MPD1    C4 2990   4.197   1.236  16.498
  193MPD1    C5 2991   4.130   1.177  16.400
  193MPD1     H 2992   4.122   1.555  16.434
  193MPD1    H1 2993   4.252   1.175  16.570
  193MPD1    H2 2994   4.010   1.179  16.230
  193MPD1    H3 2995   4.126   1.069  16.405
  193MPD1     N 2996   4.267   1.431  16.617
  193MPD1    H5 2997   4.332   1.363  16.653
  193MPD1    N1 2998   3.967   1.454  16.244
  193MPD1    H6 2999   3.897   1.398  16.195
  193MPD1    H7 3000   3.912   1.522  16.298
  194MPD1     C 3001   1.868   4.197  17.036
  194MPD1    C1 3002   1.805   4.094  16.977
  194MPD1    C2 3003   1.855   3.970  16.995
  194MPD1    C3 3004   1.981   3.954  17.060
  194MPD1    C4 3005   2.050   4.062  17.112
  194MPD1    C5 3006   1.993   4.185  17.100
  194MPD1     H 3007   1.795   3.882  16.972
  194MPD1    H1 3008   2.146   4.048  17.159
  194MPD1    H2 3009   1.824   4.296  17.026
  194MPD1    H3 3010   2.047   4.274  17.131
  194MPD1     N 3011   2.040   3.826  17.065
  194MPD1    H5 3012   2.124   3.813  17.120
  194MPD1    N1 3013   1.672   4.120  16.941
  194MPD1    H6 3014   1.662   4.210  16.893
  194MPD1    H7 3015   1.633   4.057  16.872
  195MPD1     C 3016   4.286   0.991  18.105
  195MPD1    C1 3017   4.163   0.944  18.144
  195MPD1    C2 3018   4.127   0.813  18.110
  195MPD1    C3 3019   4.214   0.731  18.038
  195MPD1    C4 3020   4.331   0.787  17.993
  195MPD1    C5 3021   4.371   0.915  18.031
  195MPD1     H 3022   4.025   0.781  18.131
  195MPD1    H1 3023   4.390   0.726  17.925
  195MPD1    H2 3024   4.311   1.095  18.122
  195MPD1    H3 3025   4.464   0.965  18.006
  195MPD1     N 3026   4.189   0.591  18.005
  195MPD1    H5 3027   4.258   0.543  17.948
  195MPD1    N1 3028   4.082   1.020  18.232
  195MPD1    H6 3029   3.986   0.987  18.231
  195MPD1    H7 3030   4.076   1.121  18.219
  196MPD1     C 3031   3.006   4.164  18.383
  196MPD1    C1 3032   3.044   4.273  18.311
  196MPD1    C2 3033   3.137   4.362  18.363
  196MPD1    C3 3034   3.191   4.345  18.488
  196MPD1    C4 3035   3.149   4.236  18.558
  196MPD1    C5 3036   3.062   4.143  18.505
  196MPD1     H 3037   3.162   4.448  18.303
  196MPD1    H1 3038   3.199   4.212  18.651
  196MPD1    H2 3039   2.928   4.097  18.347
  196MPD1    H3 3040   3.057   4.047  18.555
  196MPD1     N 3041   3.284   4.428  18.552
  196MPD1    H5 3042   3.298   4.406  18.650
  196MPD1    N1 3043   2.999   4.292  18.176
  196MPD1    H6 3044   2.913   4.245  18.151
  196MPD1    H7 3045   2.995   4.384  18.135
  197MPD1     C 3046   3.272   2.495  17.962
  197MPD1    C1 3047   3.230   2.624  17.925
  197MPD1    C2 3048   3.192   2.636  17.794
  197MPD1    C3 3049   3.195   2.526  17.705
  197MPD1    C4 3050   3.222   2.400  17.744
  197MPD1    C5 3051   3.265   2.384  17.876
  197MPD1     H 3052   3.162   2.737  17.766
  197MPD1    H1 3053   3.219   2.318  17.673
  197MPD1    H2 3054   3.288   2.468  18.065
  197MPD1    H3 3055   3.280   2.285  17.917
  197MPD1     N 3056   3.143   2.545  17.571
  197MPD1    H5 3057   3.117   2.463  17.518
  197MPD1    N1 3058   3.187   2.713  18.019
  197MPD1    H6 3059   3.239   2.716  18.107
  197MPD1    H7 3060   3.198   2.807  17.982
  198MPD1     C 3061   0.470   0.048  15.307
  198MPD1    C1 3062   0.463   0.184  15.351
  198MPD1    C2 3063   0.384   0.212  15.457
  198MPD1    C3 3064   0.328   0.110  15.529
  198MPD1    C4 3065   0.342   4.783  15.493
  198MPD1    C5 3066   0.416   4.752  15.387
  198MPD1     H 3067   0.365   0.313  15.491
  198MPD1    H1 3068   0.302   4.703  15.555
  198MPD1    H2 3069   0.514   0.029  15.211
  198MPD1    H3 3070   0.435   4.647  15.368
  198MPD1     N 3071   0.240   0.151  15.640
  198MPD1    H5 3072   0.231   0.251  15.654
  198MPD1    N1 3073   0.515   0.283  15.272
  198MPD1    H6 3074   0.526   0.366  15.330
  198MPD1    H7 3075   0.602   0.256  15.228
  199MPD1     C 3076   2.288   1.650  10.153
  199MPD1    C1 3077   2.266   1.751  10.244
  199MPD1    C2 3078   2.148   1.827  10.236
  199MPD1    C3 3079   2.052   1.810  10.130
  199MPD1    C4 3080   2.074   1.706  10.040
  199MPD1    C5 3081   2.190   1.631  10.051
  199MPD1     H 3082   2.128   1.895  10.318
  199MPD1    H1 3083   2.005   1.680   9.960
  199MPD1    H2 3084   2.375   1.586  10.153
  199MPD1    H3 3085   2.211   1.547   9.986
  199MPD1     N 3086   1.948   1.900  10.106
  199MPD1    H5 3087   1.889   1.876  10.027
  199MPD1    N1 3088   2.346   1.760  10.357
  199MPD1    H6 3089   2.349   1.856  10.389
  199MPD1    H7 3090   2.441   1.724  10.344
  200MPD1     C 3091   0.773   1.709  15.304
  200MPD1    C1 3092   0.811   1.687  15.172
  200MPD1    C2 3093   0.944   1.716  15.141
  200MPD1    C3 3094   1.041   1.751  15.235
  200MPD1    C4 3095   1.003   1.744  15.368
  200MPD1    C5 3096   0.868   1.735  15.395
  200MPD1     H 3097   0.964   1.697  15.036
  200MPD1    H1 3098   1.081   1.761  15.441
  200MPD1    H2 3099   0.674   1.708  15.349
  200MPD1    H3 3100   0.835   1.727  15.498
  200MPD1     N 3101   1.174   1.741  15.184
  200MPD1    H5 3102   1.180   1.720  15.085
  200MPD1    N1 3103   0.713   1.674  15.070
  200MPD1    H6 3104   0.633   1.615  15.093
  200MPD1    H7 3105   0.763   1.645  14.986
  201MPD1     C 3106   3.460   1.195  13.659
  201MPD1    C1 3107   3.354   1.108  13.638
  201MPD1    C2 3108   3.381   0.978  13.681
  201MPD1    C3 3109   3.504   0.938  13.730
  201MPD1    C4 3110   3.607   1.028  13.744
  201MPD1    C5 3111   3.584   1.156  13.707
  201MPD1     H 3112   3.298   0.909  13.675
  201MPD1    H1 3113   3.698   1.003  13.797
  201MPD1    H2 3114   3.451   1.302  13.646
  201MPD1    H3 3115   3.658   1.229  13.740
  201MPD1     N 3116   3.519   0.799  13.752
  201MPD1    H5 3117   3.437   0.741  13.733
  201MPD1    N1 3118   3.228   1.151  13.608
  201MPD1    H6 3119   3.170   1.085  13.557
  201MPD1    H7 3120   3.229   1.235  13.549
  202MPD1     C 3121   2.887   0.079   9.282
  202MPD1    C1 3122   2.975   4.784   9.316
  202MPD1    C2 3123   3.062   0.006   9.421
  202MPD1    C3 3124   3.059   0.128   9.493
  202MPD1    C4 3125   2.967   0.220   9.460
  202MPD1    C5 3126   2.880   0.192   9.362
  202MPD1     H 3127   3.138   4.735   9.437
  202MPD1    H1 3128   2.949   0.312   9.514
  202MPD1    H2 3129   2.827   0.067   9.193
  202MPD1    H3 3130   2.811   0.268   9.329
  202MPD1     N 3131   3.137   0.157   9.608
  202MPD1    H5 3132   3.139   0.249   9.651
  202MPD1    N1 3133   3.000   4.671   9.235
  202MPD1    H6 3134   3.038   4.590   9.283
  202MPD1    H7 3135   2.920   4.651   9.176
  203MPD1     C 3136   2.424   1.377  12.801
  203MPD1    C1 3137   2.500   1.297  12.711
  203MPD1    C2 3138   2.535   1.168  12.745
  203MPD1    C3 3139   2.506   1.119  12.874
  203MPD1    C4 3140   2.438   1.200  12.963
  203MPD1    C5 3141   2.400   1.327  12.924
  203MPD1     H 3142   2.591   1.111  12.672
  203MPD1    H1 3143   2.403   1.161  13.058
  203MPD1    H2 3144   2.384   1.472  12.769
  203MPD1    H3 3145   2.338   1.387  12.989
  203MPD1     N 3146   2.546   0.987  12.903
  203MPD1    H5 3147   2.588   0.930  12.830
  203MPD1    N1 3148   2.516   1.337  12.579
  203MPD1    H6 3149   2.605   1.317  12.534
  203MPD1    H7 3150   2.507   1.439  12.570
  204MPD1     C 3151   1.728   2.296  18.356
  204MPD1    C1 3152   1.822   2.320  18.261
  204MPD1    C2 3153   1.862   2.213  18.180
  204MPD1    C3 3154   1.803   2.088  18.192
  204MPD1    C4 3155   1.702   2.062  18.288
  204MPD1    C5 3156   1.674   2.175  18.374
  204MPD1     H 3157   1.945   2.219  18.110
  204MPD1    H1 3158   1.643   1.971  18.299
  204MPD1    H2 3159   1.678   2.376  18.410
  204MPD1    H3 3160   1.581   2.178  18.429
  204MPD1     N 3161   1.846   1.983  18.102
  204MPD1    H5 3162   1.925   2.004  18.042
  204MPD1    N1 3163   1.896   2.434  18.261
  204MPD1    H6 3164   1.926   2.462  18.168
  204MPD1    H7 3165   1.849   2.513  18.304
  205MPD1     C 3166   2.230   0.894  16.901
  205MPD1    C1 3167   2.262   0.777  16.964
  205MPD1    C2 3168   2.200   0.758  17.089
  205MPD1    C3 3169   2.108   0.849  17.142
  205MPD1    C4 3170   2.074   0.958  17.074
  205MPD1    C5 3171   2.139   0.981  16.956
  205MPD1     H 3172   2.223   0.675  17.154
  205MPD1    H1 3173   1.992   1.020  17.107
  205MPD1    H2 3174   2.264   0.916  16.801
  205MPD1    H3 3175   2.116   1.065  16.893
  205MPD1     N 3176   2.054   0.829  17.266
  205MPD1    H5 3177   2.006   0.911  17.302
  205MPD1    N1 3178   2.313   0.664  16.899
  205MPD1    H6 3179   2.382   0.687  16.828
  205MPD1    H7 3180   2.364   0.605  16.965
  206MPD1     C 3181   2.610   4.127  17.067
  206MPD1    C1 3182   2.620   4.018  16.978
  206MPD1    C2 3183   2.501   3.967  16.923
  206MPD1    C3 3184   2.377   4.032  16.936
  206MPD1    C4 3185   2.375   4.145  17.013
  206MPD1    C5 3186   2.488   4.190  17.081
  206MPD1     H 3187   2.508   3.877  16.862
  206MPD1    H1 3188   2.290   4.211  17.021
  206MPD1    H2 3189   2.693   4.151  17.132
  206MPD1    H3 3190   2.482   4.272  17.152
  206MPD1     N 3191   2.260   3.980  16.881
  206MPD1    H5 3192   2.180   4.037  16.902
  206MPD1    N1 3193   2.738   3.952  16.966
  206MPD1    H6 3194   2.744   3.892  16.884
  206MPD1    H7 3195   2.819   4.014  16.959
  207MPD1     C 3196   4.285   1.595  10.292
  207MPD1    C1 3197   4.378   1.677  10.237
  207MPD1    C2 3198   4.501   1.696  10.295
  207MPD1    C3 3199   4.534   1.617  10.398
  207MPD1    C4 3200   4.433   1.534  10.462
  207MPD1    C5 3201   4.319   1.523  10.404
  207MPD1     H 3202   4.582   1.747  10.244
  207MPD1    H1 3203   4.448   1.473  10.550
  207MPD1    H2 3204   4.187   1.578  10.249
  207MPD1    H3 3205   4.247   1.450  10.438
  207MPD1     N 3206   4.650   1.638  10.482
  207MPD1    H5 3207   4.642   1.597  10.575
  207MPD1    N1 3208   4.353   1.742  10.110
  207MPD1    H6 3209   4.429   1.807  10.090
  207MPD1    H7 3210   4.259   1.766  10.079
  208MPD1     C 3211   2.702   0.231  17.372
  208MPD1    C1 3212   2.708   0.223  17.510
  208MPD1    C2 3213   2.621   0.140  17.573
  208MPD1    C3 3214   2.538   0.051  17.503
  208MPD1    C4 3215   2.531   0.058  17.366
  208MPD1    C5 3216   2.619   0.145  17.304
  208MPD1     H 3217   2.608   0.147  17.680
  208MPD1    H1 3218   2.476   4.791  17.306
  208MPD1    H2 3219   2.755   0.294  17.302
  208MPD1    H3 3220   2.626   0.142  17.196
  208MPD1     N 3221   2.457   4.766  17.585
  208MPD1    H5 3222   2.480   4.769  17.684
  208MPD1    N1 3223   2.774   0.326  17.581
  208MPD1    H6 3224   2.805   0.301  17.675
  208MPD1    H7 3225   2.851   0.377  17.539
  209MPD1     C 3226   0.151   0.367  11.523
  209MPD1    C1 3227   0.193   0.400  11.393
  209MPD1    C2 3228   0.257   0.522  11.379
  209MPD1    C3 3229   0.286   0.601  11.485
  209MPD1    C4 3230   0.269   0.546  11.612
  209MPD1    C5 3231   0.202   0.436  11.631
  209MPD1     H 3232   0.272   0.563  11.279
  209MPD1    H1 3233   0.309   0.589  11.703
  209MPD1    H2 3234   0.107   0.273  11.551
  209MPD1    H3 3235   0.193   0.392  11.730
  209MPD1     N 3236   0.339   0.733  11.461
  209MPD1    H5 3237   0.352   0.754  11.362
  209MPD1    N1 3238   0.147   0.327  11.280
  209MPD1    H6 3239   0.130   0.229  11.304
  209MPD1    H7 3240   0.207   0.330  11.198
  210MPD1     C 3241   1.120   1.451  11.498
  210MPD1    C1 3242   1.081   1.388  11.613
  210MPD1    C2 3243   0.956   1.327  11.613
  210MPD1    C3 3244   0.883   1.327  11.497
  210MPD1    C4 3245   0.926   1.395  11.384
  210MPD1    C5 3246   1.045   1.452  11.385
  210MPD1     H 3247   0.920   1.286  11.706
  210MPD1    H1 3248   0.880   1.392  11.286
  210MPD1    H2 3249   1.222   1.489  11.491
  210MPD1    H3 3250   1.082   1.490  11.290
  210MPD1     N 3251   0.762   1.252  11.474
  210MPD1    H5 3252   0.722   1.247  11.381
  210MPD1    N1 3253   1.174   1.389  11.718
  210MPD1    H6 3254   1.264   1.390  11.671
  210MPD1    H7 3255   1.159   1.296  11.755
  211MPD1     C 3256   2.615   0.351  16.772
  211MPD1    C1 3257   2.653   0.477  16.725
  211MPD1    C2 3258   2.561   0.555  16.660
  211MPD1    C3 3259   2.429   0.502  16.637
  211MPD1    C4 3260   2.404   0.370  16.670
  211MPD1    C5 3261   2.493   0.300  16.738
  211MPD1     H 3262   2.588   0.654  16.625
  211MPD1    H1 3263   2.309   0.319  16.654
  211MPD1    H2 3264   2.686   0.297  16.834
  211MPD1    H3 3265   2.478   0.195  16.762
  211MPD1     N 3266   2.338   0.571  16.550
  211MPD1    H5 3267   2.371   0.658  16.509
  211MPD1    N1 3268   2.778   0.535  16.763
  211MPD1    H6 3269   2.853   0.468  16.779
  211MPD1    H7 3270   2.802   0.598  16.686
  212MPD1     C 3271   1.568   3.952  16.679
  212MPD1    C1 3272   1.468   4.033  16.720
  212MPD1    C2 3273   1.372   3.980  16.801
  212MPD1    C3 3274   1.384   3.857  16.857
  212MPD1    C4 3275   1.489   3.779  16.826
  212MPD1    C5 3276   1.584   3.832  16.739
  212MPD1     H 3277   1.288   4.042  16.830
  212MPD1    H1 3278   1.516   3.683  16.868
  212MPD1    H2 3279   1.651   3.977  16.614
  212MPD1    H3 3280   1.670   3.773  16.709
  212MPD1     N 3281   1.288   3.794  16.946
  212MPD1    H5 3282   1.322   3.709  16.992
  212MPD1    N1 3283   1.452   4.156  16.650
  212MPD1    H6 3284   1.369   4.209  16.676
  212MPD1    H7 3285   1.537   4.212  16.656
  213MPD1     C 3286   4.792   4.253  15.671
  213MPD1    C1 3287   0.017   4.347  15.577
  213MPD1    C2 3288   4.715   4.417  15.521
  213MPD1    C3 3289   4.582   4.391  15.550
  213MPD1    C4 3290   4.552   4.295  15.643
  213MPD1    C5 3291   4.655   4.225  15.705
  213MPD1     H 3292   4.730   4.506  15.461
  213MPD1    H1 3293   4.448   4.272  15.667
  213MPD1    H2 3294   0.069   4.198  15.715
  213MPD1    H3 3295   4.635   4.139  15.769
  213MPD1     N 3296   4.479   4.459  15.470
  213MPD1    H5 3297   4.519   4.515  15.395
  213MPD1    N1 3298   0.145   4.395  15.574
  213MPD1    H6 3299   0.148   4.458  15.494
  213MPD1    H7 3300   0.210   4.322  15.547
  214MPD1     C 3301   3.468   4.214  15.499
  214MPD1    C1 3302   3.517   4.214  15.370
  214MPD1    C2 3303   3.641   4.279  15.344
  214MPD1    C3 3304   3.708   4.347  15.443
  214MPD1    C4 3305   3.654   4.347  15.574
  214MPD1    C5 3306   3.531   4.289  15.599
  214MPD1     H 3307   3.683   4.280  15.244
  214MPD1    H1 3308   3.718   4.405  15.640
  214MPD1    H2 3309   3.377   4.161  15.523
  214MPD1    H3 3310   3.497   4.303  15.701
  214MPD1     N 3311   3.840   4.401  15.422
  214MPD1    H5 3312   3.892   4.439  15.501
  214MPD1    N1 3313   3.462   4.120  15.278
  214MPD1    H6 3314   3.362   4.110  15.290
  214MPD1    H7 3315   3.484   4.138  15.180
  215MPD1     C 3316   4.485   0.098  11.067
  215MPD1    C1 3317   4.587   0.087  11.148
  215MPD1    C2 3318   4.649   0.199  11.199
  215MPD1    C3 3319   4.595   0.324  11.177
  215MPD1    C4 3320   4.481   0.331  11.102
  215MPD1    C5 3321   4.422   0.217  11.045
  215MPD1     H 3322   4.744   0.185  11.251
  215MPD1    H1 3323   4.447   0.429  11.071
  215MPD1    H2 3324   4.442   0.015  11.011
  215MPD1    H3 3325   4.340   0.228  10.975
  215MPD1     N 3326   4.661   0.439  11.234
  215MPD1    H5 3327   4.758   0.424  11.260
  215MPD1    N1 3328   4.647   4.762  11.149
  215MPD1    H6 3329   4.585   4.686  11.121
  215MPD1    H7 3330   4.681   4.726  11.238
  216MPD1     C 3331   1.411   3.773  17.267
  216MPD1    C1 3332   1.461   3.643  17.240
  216MPD1    C2 3333   1.408   3.538  17.304
  216MPD1    C3 3334   1.307   3.550  17.400
  216MPD1    C4 3335   1.267   3.675  17.437
  216MPD1    C5 3336   1.321   3.788  17.370
  216MPD1     H 3337   1.447   3.441  17.274
  216MPD1    H1 3338   1.200   3.690  17.520
  216MPD1    H2 3339   1.437   3.858  17.205
  216MPD1    H3 3340   1.288   3.885  17.405
  216MPD1     N 3341   1.258   3.429  17.462
  216MPD1    H5 3342   1.289   3.343  17.418
  216MPD1    N1 3343   1.540   3.619  17.123
  216MPD1    H6 3344   1.584   3.528  17.114
  216MPD1    H7 3345   1.616   3.687  17.122
  217MPD1     C 3346   1.669   0.265   8.800
  217MPD1    C1 3347   1.621   0.297   8.926
  217MPD1    C2 3348   1.716   0.328   9.020
  217MPD1    C3 3349   1.852   0.327   8.993
  217MPD1    C4 3350   1.899   0.289   8.871
  217MPD1    C5 3351   1.803   0.258   8.777
  217MPD1     H 3352   1.685   0.363   9.117
  217MPD1    H1 3353   2.005   0.278   8.851
  217MPD1    H2 3354   1.591   0.249   8.726
  217MPD1    H3 3355   1.846   0.226   8.682
  217MPD1     N 3356   1.956   0.364   9.086
  217MPD1    H5 3357   2.054   0.357   9.060
  217MPD1    N1 3358   1.491   0.346   8.942
  217MPD1    H6 3359   1.423   0.286   8.894
  217MPD1    H7 3360   1.464   0.356   9.039
  218MPD1     C 3361   3.810   1.496  13.056
  218MPD1    C1 3362   3.920   1.529  12.972
  218MPD1    C2 3363   3.986   1.424  12.911
  218MPD1    C3 3364   3.948   1.290  12.925
  218MPD1    C4 3365   3.840   1.268  13.010
  218MPD1    C5 3366   3.778   1.369  13.074
  218MPD1     H 3367   4.069   1.455  12.848
  218MPD1    H1 3368   3.812   1.170  13.049
  218MPD1    H2 3369   3.749   1.569  13.108
  218MPD1    H3 3370   3.709   1.340  13.152
  218MPD1     N 3371   4.024   1.195  12.863
  218MPD1    H5 3372   4.094   1.234  12.801
  218MPD1    N1 3373   3.986   1.655  12.975
  218MPD1    H6 3374   4.022   1.682  12.884
  218MPD1    H7 3375   3.920   1.725  13.009
  219MPD1     C 3376   4.434   1.070  11.988
  219MPD1    C1 3377   4.376   1.175  12.055
  219MPD1    C2 3378   4.315   1.131  12.174
  219MPD1    C3 3379   4.321   1.004  12.225
  219MPD1    C4 3380   4.392   0.911  12.159
  219MPD1    C5 3381   4.445   0.944  12.038
  219MPD1     H 3382   4.261   1.206  12.231
  219MPD1    H1 3383   4.400   0.808  12.195
  219MPD1    H2 3384   4.469   1.083  11.887
  219MPD1    H3 3385   4.490   0.866  11.979
  219MPD1     N 3386   4.269   0.975  12.357
  219MPD1    H5 3387   4.287   0.882  12.394
  219MPD1    N1 3388   4.349   1.302  12.001
  219MPD1    H6 3389   4.331   1.370  12.075
  219MPD1    H7 3390   4.422   1.333  11.937
  220MPD1     C 3391   4.045   2.071  10.303
  220MPD1    C1 3392   4.060   2.085  10.442
  220MPD1    C2 3393   4.077   1.977  10.522
  220MPD1    C3 3394   4.046   1.848  10.474
  220MPD1    C4 3395   4.015   1.829  10.342
  220MPD1    C5 3396   4.015   1.939  10.263
  220MPD1     H 3397   4.095   1.987  10.629
  220MPD1    H1 3398   4.001   1.728  10.306
  220MPD1    H2 3399   4.050   2.149  10.228
  220MPD1    H3 3400   4.009   1.918  10.157
  220MPD1     N 3401   4.049   1.749  10.571
  220MPD1    H5 3402   4.072   1.780  10.665
  220MPD1    N1 3403   4.084   2.215  10.485
  220MPD1    H6 3404   4.046   2.286  10.424
  220MPD1    H7 3405   4.058   2.227  10.583
  221MPD1     C 3406   1.433   0.049  16.504
  221MPD1    C1 3407   1.522   0.070  16.608
  221MPD1    C2 3408   1.652   0.029  16.589
  221MPD1    C3 3409   1.694   4.794  16.462
  221MPD1    C4 3410   1.601   4.789  16.359
  221MPD1    C5 3411   1.473   0.016  16.378
  221MPD1     H 3412   1.722   0.049  16.670
  221MPD1    H1 3413   1.631   4.764  16.258
  221MPD1    H2 3414   1.325   0.055  16.505
  221MPD1    H3 3415   1.404   0.021  16.295
  221MPD1     N 3416   1.819   4.736  16.433
  221MPD1    H5 3417   1.840   4.709  16.338
  221MPD1    N1 3418   1.467   0.114  16.729
  221MPD1    H6 3419   1.539   0.169  16.775
  221MPD1    H7 3420   1.378   0.163  16.733
  222MPD1     C 3421   0.690   3.467  17.885
  222MPD1    C1 3422   0.764   3.526  17.782
  222MPD1    C2 3423   0.785   3.662  17.797
  222MPD1    C3 3424   0.749   3.732  17.917
  222MPD1    C4 3425   0.676   3.663  18.014
  222MPD1    C5 3426   0.652   3.528  18.003
  222MPD1     H 3427   0.834   3.711  17.713
  222MPD1    H1 3428   0.645   3.718  18.103
  222MPD1    H2 3429   0.663   3.363  17.869
  222MPD1    H3 3430   0.604   3.467  18.078
  222MPD1     N 3431   0.751   3.871  17.926
  222MPD1    H5 3432   0.691   3.909  17.999
  222MPD1    N1 3433   0.781   3.462  17.656
  222MPD1    H6 3434   0.859   3.503  17.604
  222MPD1    H7 3435   0.780   3.360  17.655
  223MPD1     C 3436   0.183   4.660  18.088
  223MPD1    C1 3437   0.278   4.650  18.185
  223MPD1    C2 3438   0.395   4.580  18.157
  223MPD1    C3 3439   0.416   4.512  18.040
  223MPD1    C4 3440   0.321   4.531  17.940
  223MPD1    C5 3441   0.203   4.592  17.971
  223MPD1     H 3442   0.473   4.577  18.232
  223MPD1    H1 3443   0.330   4.492  17.840
  223MPD1    H2 3444   0.091   4.716  18.089
  223MPD1    H3 3445   0.133   4.594  17.888
  223MPD1     N 3446   0.534   4.435  18.018
  223MPD1    H5 3447   0.606   4.436  18.090
  223MPD1    N1 3448   0.259   4.724  18.303
  223MPD1    H6 3449   0.159   4.737  18.312
  223MPD1    H7 3450   0.297   4.675  18.383
  224MPD1     C 3451   2.275   0.747   9.151
  224MPD1    C1 3452   2.258   0.863   9.224
  224MPD1    C2 3453   2.336   0.877   9.338
  224MPD1    C3 3454   2.439   0.787   9.377
  224MPD1    C4 3455   2.462   0.678   9.293
  224MPD1    C5 3456   2.373   0.661   9.185
  224MPD1     H 3457   2.300   0.959   9.399
  224MPD1    H1 3458   2.534   0.600   9.312
  224MPD1    H2 3459   2.217   0.715   9.066
  224MPD1    H3 3460   2.389   0.570   9.128
  224MPD1     N 3461   2.515   0.801   9.494
  224MPD1    H5 3462   2.585   0.736   9.527
  224MPD1    N1 3463   2.155   0.950   9.187
  224MPD1    H6 3464   2.158   0.951   9.085
  224MPD1    H7 3465   2.178   1.046   9.212
  225MPD1     C 3466   4.212   2.160  12.981
  225MPD1    C1 3467   4.139   2.085  13.069
  225MPD1    C2 3468   4.011   2.039  13.037
  225MPD1    C3 3469   3.962   2.069  12.910
  225MPD1    C4 3470   4.029   2.156  12.825
  225MPD1    C5 3471   4.155   2.192  12.863
  225MPD1     H 3472   3.961   1.972  13.106
  225MPD1    H1 3473   3.984   2.172  12.728
  225MPD1    H2 3474   4.313   2.191  13.002
  225MPD1    H3 3475   4.207   2.264  12.801
  225MPD1     N 3476   3.839   2.013  12.868
  225MPD1    H5 3477   3.795   2.044  12.782
  225MPD1    N1 3478   4.213   2.033  13.174
  225MPD1    H6 3479   4.145   1.997  13.241
  225MPD1    H7 3480   4.267   2.094  13.235
  226MPD1     C 3481   1.973   1.292   9.244
  226MPD1    C1 3482   2.012   1.266   9.377
  226MPD1    C2 3483   2.019   1.375   9.465
  226MPD1    C3 3484   2.002   1.506   9.417
  226MPD1    C4 3485   1.968   1.531   9.285
  226MPD1    C5 3486   1.948   1.422   9.205
  226MPD1     H 3487   2.041   1.362   9.570
  226MPD1    H1 3488   1.955   1.630   9.244
  226MPD1    H2 3489   1.971   1.209   9.174
  226MPD1    H3 3490   1.906   1.430   9.105
  226MPD1     N 3491   2.022   1.613   9.507
  226MPD1    H5 3492   2.069   1.582   9.591
  226MPD1    N1 3493   2.025   1.135   9.433
  226MPD1    H6 3494   2.052   1.065   9.364
  226MPD1    H7 3495   2.076   1.119   9.520
  227MPD1     C 3496   1.644   2.536   9.584
  227MPD1    C1 3497   1.576   2.418   9.596
  227MPD1    C2 3498   1.646   2.304   9.625
  227MPD1    C3 3499   1.779   2.304   9.663
  227MPD1    C4 3500   1.836   2.430   9.677
  227MPD1    C5 3501   1.770   2.543   9.631
  227MPD1     H 3502   1.598   2.207   9.623
  227MPD1    H1 3503   1.928   2.452   9.730
  227MPD1    H2 3504   1.588   2.626   9.563
  227MPD1    H3 3505   1.816   2.641   9.643
  227MPD1     N 3506   1.843   2.181   9.695
  227MPD1    H5 3507   1.790   2.095   9.687
  227MPD1    N1 3508   1.440   2.403   9.558
  227MPD1    H6 3509   1.397   2.330   9.613
  227MPD1    H7 3510   1.382   2.483   9.584
  228MPD1     C 3511   1.100   4.576  12.675
  228MPD1    C1 3512   0.992   4.646  12.617
  228MPD1    C2 3513   0.865   4.599  12.640
  228MPD1    C3 3514   0.838   4.503  12.745
  228MPD1    C4 3515   0.947   4.433  12.803
  228MPD1    C5 3516   1.074   4.475  12.769
  228MPD1     H 3517   0.783   4.654  12.596
  228MPD1    H1 3518   0.937   4.360  12.883
  228MPD1    H2 3519   1.201   4.606  12.648
  228MPD1    H3 3520   1.158   4.427  12.818
  228MPD1     N 3521   0.703   4.487  12.774
  228MPD1    H5 3522   0.639   4.548  12.725
  228MPD1    N1 3523   1.022   4.743  12.517
  228MPD1    H6 3524   1.111   4.786  12.539
  228MPD1    H7 3525   0.949   0.008  12.504
  229MPD1     C 3526   0.428   3.192  14.602
  229MPD1    C1 3527   0.343   3.107  14.669
  229MPD1    C2 3528   0.375   3.081  14.799
  229MPD1    C3 3529   0.501   3.112  14.855
  229MPD1    C4 3530   0.590   3.181  14.777
  229MPD1    C5 3531   0.556   3.218  14.651
  229MPD1     H 3532   0.300   3.030  14.858
  229MPD1    H1 3533   0.691   3.202  14.811
  229MPD1    H2 3534   0.400   3.223  14.502
  229MPD1    H3 3535   0.621   3.276  14.587
  229MPD1     N 3536   0.543   3.066  14.982
  229MPD1    H5 3537   0.635   3.096  15.013
  229MPD1    N1 3538   0.207   3.090  14.620
  229MPD1    H6 3539   0.212   3.084  14.518
  229MPD1    H7 3540   0.163   3.003  14.648
  230MPD1     C 3541   1.087   3.076  15.799
  230MPD1    C1 3542   1.101   2.949  15.760
  230MPD1    C2 3543   1.007   2.893  15.678
  230MPD1    C3 3544   0.908   2.976  15.623
  230MPD1    C4 3545   0.902   3.111  15.657
  230MPD1    C5 3546   0.987   3.159  15.753
  230MPD1     H 3547   1.016   2.788  15.652
  230MPD1    H1 3548   0.834   3.176  15.603
  230MPD1    H2 3549   1.156   3.117  15.872
  230MPD1    H3 3550   0.995   3.266  15.772
  230MPD1     N 3551   0.831   2.917  15.514
  230MPD1    H5 3552   0.824   2.816  15.504
  230MPD1    N1 3553   1.194   2.865  15.824
  230MPD1    H6 3554   1.277   2.911  15.861
  230MPD1    H7 3555   1.221   2.782  15.772
  231MPD1     C 3556   3.500   4.624  15.972
  231MPD1    C1 3557   3.413   4.667  15.881
  231MPD1    C2 3558   3.448   4.670  15.747
  231MPD1    C3 3559   3.585   4.669  15.712
  231MPD1    C4 3560   3.670   4.635  15.811
  231MPD1    C5 3561   3.632   4.614  15.939
  231MPD1     H 3562   3.374   4.702  15.674
  231MPD1    H1 3563   3.777   4.648  15.798
  231MPD1    H2 3564   3.458   4.605  16.070
  231MPD1    H3 3565   3.714   4.598  16.008
  231MPD1     N 3566   3.631   4.704  15.584
  231MPD1    H5 3567   3.562   4.735  15.516
  231MPD1    N1 3568   3.273   4.673  15.914
  231MPD1    H6 3569   3.264   4.684  16.014
  231MPD1    H7 3570   3.219   4.744  15.864
  232MPD1     C 3571   0.607   2.694  18.427
  232MPD1    C1 3572   0.562   2.608  18.328
  232MPD1    C2 3573   0.499   2.495  18.370
  232MPD1    C3 3574   0.486   2.478  18.508
  232MPD1    C4 3575   0.531   2.564  18.604
  232MPD1    C5 3576   0.592   2.674  18.558
  232MPD1     H 3577   0.470   2.407  18.314
  232MPD1    H1 3578   0.517   2.542  18.709
  232MPD1    H2 3579   0.673   2.776  18.401
  232MPD1    H3 3580   0.637   2.740  18.631
  232MPD1     N 3581   0.418   2.359  18.545
  232MPD1    H5 3582   0.382   2.301  18.470
  232MPD1    N1 3583   0.616   2.607  18.203
  232MPD1    H6 3584   0.553   2.563  18.136
  232MPD1    H7 3585   0.630   2.701  18.165
  233MPD1     C 3586   1.919   0.265  17.963
  233MPD1    C1 3587   1.810   0.249  18.050
  233MPD1    C2 3588   1.807   0.321  18.170
  233MPD1    C3 3589   1.915   0.392  18.205
  233MPD1    C4 3590   2.034   0.392  18.128
  233MPD1    C5 3591   2.029   0.331  18.010
  233MPD1     H 3592   1.720   0.334  18.234
  233MPD1    H1 3593   2.123   0.447  18.155
  233MPD1    H2 3594   1.923   0.227  17.861
  233MPD1    H3 3595   2.109   0.322  17.938
  233MPD1     N 3596   1.919   0.479  18.312
  233MPD1    H5 3597   2.009   0.524  18.328
  233MPD1    N1 3598   1.692   0.192  18.004
  233MPD1    H6 3599   1.655   0.129  18.075
  233MPD1    H7 3600   1.717   0.135  17.923
  234MPD1     C 3601   3.142   4.000   9.719
  234MPD1    C1 3602   3.081   4.059   9.614
  234MPD1    C2 3603   3.060   4.194   9.623
  234MPD1    C3 3604   3.075   4.271   9.740
  234MPD1    C4 3605   3.120   4.204   9.853
  234MPD1    C5 3606   3.163   4.075   9.831
  234MPD1     H 3607   3.020   4.237   9.532
  234MPD1    H1 3608   3.127   4.231   9.958
  234MPD1    H2 3609   3.167   3.895   9.722
  234MPD1    H3 3610   3.199   4.033   9.924
  234MPD1     N 3611   3.029   4.405   9.749
  234MPD1    H5 3612   2.988   4.453   9.669
  234MPD1    N1 3613   3.066   3.999   9.486
  234MPD1    H6 3614   3.004   4.052   9.425
  234MPD1    H7 3615   3.024   3.908   9.504
  235MPD1     C 3616   4.632   1.866  10.924
  235MPD1    C1 3617   4.573   1.897  10.805
  235MPD1    C2 3618   4.629   1.996  10.731
  235MPD1    C3 3619   4.755   2.052  10.763
  235MPD1    C4 3620   0.024   1.998  10.871
  235MPD1    C5 3621   4.759   1.919  10.956
  235MPD1     H 3622   4.580   2.029  10.640
  235MPD1    H1 3623   0.128   2.020  10.891
  235MPD1    H2 3624   4.591   1.795  10.994
  235MPD1    H3 3625   0.016   1.893  11.042
  235MPD1     N 3626   4.797   2.154  10.675
  235MPD1    H5 3627   4.730   2.186  10.606
  235MPD1    N1 3628   4.438   1.855  10.765
  235MPD1    H6 3629   4.416   1.764  10.806
  235MPD1    H7 3630   4.415   1.854  10.666
  236MPD1     C 3631   3.618   3.501  10.051
  236MPD1    C1 3632   3.604   3.369  10.008
  236MPD1    C2 3633   3.709   3.283  10.041
  236MPD1    C3 3634   3.829   3.332  10.082
  236MPD1    C4 3635   3.841   3.465  10.118
  236MPD1    C5 3636   3.741   3.550  10.096
  236MPD1     H 3637   3.700   3.176  10.025
  236MPD1    H1 3638   3.936   3.510  10.146
  236MPD1    H2 3639   3.530   3.564  10.046
  236MPD1    H3 3640   3.762   3.655  10.115
  236MPD1     N 3641   3.943   3.257  10.113
  236MPD1    H5 3642   4.008   3.308  10.172
  236MPD1    N1 3643   3.472   3.319   9.979
  236MPD1    H6 3644   3.469   3.227   9.937
  236MPD1    H7 3645   3.405   3.381   9.935
  237MPD1     C 3646   4.269   1.067  15.318
  237MPD1    C1 3647   4.195   1.130  15.420
  237MPD1    C2 3648   4.062   1.096  15.441
  237MPD1    C3 3649   3.998   1.014  15.352
  237MPD1    C4 3650   4.068   0.973  15.237
  237MPD1    C5 3651   4.204   1.002  15.212
  237MPD1     H 3652   4.019   1.120  15.538
  237MPD1    H1 3653   4.020   0.910  15.163
  237MPD1    H2 3654   4.375   1.085  15.310
  237MPD1    H3 3655   4.259   0.955  15.132
  237MPD1     N 3656   3.861   0.977  15.370
  237MPD1    H5 3657   3.823   0.910  15.305
  237MPD1    N1 3658   4.263   1.206  15.512
  237MPD1    H6 3659   4.350   1.242  15.472
  237MPD1    H7 3660   4.202   1.277  15.552
  238MPD1     C 3661   0.905   0.189  14.978
  238MPD1    C1 3662   0.824   0.114  15.057
  238MPD1    C2 3663   0.727   0.038  14.998
  238MPD1    C3 3664   0.701   0.039  14.858
  238MPD1    C4 3665   0.779   0.124  14.783
  238MPD1    C5 3666   0.880   0.197  14.841
  238MPD1     H 3667   0.666   4.782  15.064
  238MPD1    H1 3668   0.751   0.135  14.679
  238MPD1    H2 3669   0.976   0.250  15.033
  238MPD1    H3 3670   0.938   0.264  14.779
  238MPD1     N 3671   0.596   4.778  14.788
  238MPD1    H5 3672   0.575   0.001  14.692
  238MPD1    N1 3673   0.856   0.102  15.196
  238MPD1    H6 3674   0.900   0.184  15.238
  238MPD1    H7 3675   0.780   0.074  15.257
  239MPD1     C 3676   0.830   0.462  15.149
  239MPD1    C1 3677   0.949   0.529  15.112
  239MPD1    C2 3678   0.935   0.631  15.018
  239MPD1    C3 3679   0.810   0.688  14.988
  239MPD1    C4 3680   0.695   0.630  15.042
  239MPD1    C5 3681   0.703   0.510  15.100
  239MPD1     H 3682   1.019   0.665  14.959
  239MPD1    H1 3683   0.597   0.674  15.028
  239MPD1    H2 3684   0.840   0.369  15.203
  239MPD1    H3 3685   0.611   0.453  15.108
  239MPD1     N 3686   0.790   0.793  14.885
  239MPD1    H5 3687   0.699   0.788  14.842
  239MPD1    N1 3688   1.065   0.456  15.143
  239MPD1    H6 3689   1.052   0.405  15.230
  239MPD1    H7 3690   1.152   0.509  15.149
  240MPD1     C 3691   4.679   0.907  13.703
  240MPD1    C1 3692   4.586   0.810  13.734
  240MPD1    C2 3693   4.616   0.696  13.814
  240MPD1    C3 3694   4.741   0.690  13.864
  240MPD1    C4 3695   0.029   0.785  13.834
  240MPD1    C5 3696   4.802   0.887  13.751
  240MPD1     H 3697   4.540   0.620  13.830
  240MPD1    H1 3698   0.125   0.792  13.883
  240MPD1    H2 3699   4.651   1.000  13.656
  240MPD1    H3 3700   0.079   0.957  13.737
  240MPD1     N 3701   4.778   0.583  13.952
  240MPD1    H5 3702   4.705   0.518  13.980
  240MPD1    N1 3703   4.454   0.830  13.685
  240MPD1    H6 3704   4.394   0.761  13.731
  240MPD1    H7 3705   4.429   0.926  13.709
  241MPD1     C 3706   0.508   0.311  14.870
  241MPD1    C1 3707   0.542   0.399  14.767
  241MPD1    C2 3708   0.458   0.397  14.659
  241MPD1    C3 3709   0.351   0.315  14.645
  241MPD1    C4 3710   0.311   0.237  14.757
  241MPD1    C5 3711   0.397   0.233  14.859
  241MPD1     H 3712   0.473   0.478  14.588
  241MPD1    H1 3713   0.223   0.174  14.754
  241MPD1    H2 3714   0.577   0.300  14.953
  241MPD1    H3 3715   0.374   0.168  14.943
  241MPD1     N 3716   0.261   0.321  14.533
  241MPD1    H5 3717   0.169   0.280  14.531
  241MPD1    N1 3718   0.638   0.502  14.778
  241MPD1    H6 3719   0.709   0.477  14.847
  241MPD1    H7 3720   0.683   0.509  14.687
  242MPD1     C 3721   4.632   3.408  16.218
  242MPD1    C1 3722   4.761   3.369  16.195
  242MPD1    C2 3723   0.028   3.417  16.088
  242MPD1    C3 3724   4.770   3.493  15.991
  242MPD1    C4 3725   4.644   3.535  16.012
  242MPD1    C5 3726   4.574   3.488  16.124
  242MPD1     H 3727   0.130   3.383  16.069
  242MPD1    H1 3728   4.593   3.598  15.940
  242MPD1    H2 3729   4.569   3.365  16.295
  242MPD1    H3 3730   4.468   3.508  16.135
  242MPD1     N 3731   0.030   3.538  15.873
  242MPD1    H5 3732   4.785   3.595  15.805
  242MPD1    N1 3733   0.030   3.299  16.295
  242MPD1    H6 3734   0.111   3.245  16.265
  242MPD1    H7 3735   4.780   3.236  16.353
  243MPD1     C 3736   1.167   2.318  18.430
  243MPD1    C1 3737   1.152   2.210  18.350
  243MPD1    C2 3738   1.251   2.181  18.252
  243MPD1    C3 3739   1.349   2.270  18.227
  243MPD1    C4 3740   1.356   2.386  18.309
  243MPD1    C5 3741   1.271   2.407  18.412
  243MPD1     H 3742   1.247   2.085  18.201
  243MPD1    H1 3743   1.436   2.459  18.296
  243MPD1    H2 3744   1.091   2.324  18.507
  243MPD1    H3 3745   1.283   2.490  18.481
  243MPD1     N 3746   1.427   2.238  18.117
  243MPD1    H5 3747   1.414   2.149  18.070
  243MPD1    N1 3748   1.054   2.117  18.386
  243MPD1    H6 3749   1.033   2.057  18.306
  243MPD1    H7 3750   0.976   2.163  18.432
  244MPD1     C 3751   1.600   1.450  17.953
  244MPD1    C1 3752   1.497   1.521  18.010
  244MPD1    C2 3753   1.495   1.653  17.984
  244MPD1    C3 3754   1.574   1.716  17.890
  244MPD1    C4 3755   1.665   1.640  17.821
  244MPD1    C5 3756   1.672   1.503  17.855
  244MPD1     H 3757   1.438   1.723  18.044
  244MPD1    H1 3758   1.736   1.675  17.747
  244MPD1    H2 3759   1.626   1.349  17.983
  244MPD1    H3 3760   1.747   1.447  17.802
  244MPD1     N 3761   1.569   1.859  17.875
  244MPD1    H5 3762   1.501   1.914  17.928
  244MPD1    N1 3763   1.433   1.464  18.118
  244MPD1    H6 3764   1.338   1.495  18.140
  244MPD1    H7 3765   1.426   1.366  18.091
  245MPD1     C 3766   3.923   2.107  13.468
  245MPD1    C1 3767   3.936   2.123  13.604
  245MPD1    C2 3768   3.904   2.238  13.664
  245MPD1    C3 3769   3.870   2.354  13.593
  245MPD1    C4 3770   3.859   2.341  13.456
  245MPD1    C5 3771   3.883   2.218  13.399
  245MPD1     H 3772   3.888   2.231  13.771
  245MPD1    H1 3773   3.839   2.425  13.390
  245MPD1    H2 3774   3.941   2.013  13.416
  245MPD1    H3 3775   3.886   2.199  13.292
  245MPD1     N 3776   3.852   2.477  13.662
  245MPD1    H5 3777   3.879   2.473  13.760
  245MPD1    N1 3778   3.941   2.004  13.677
  245MPD1    H6 3779   3.972   2.013  13.773
  245MPD1    H7 3780   4.009   1.943  13.632
  246MPD1     C 3781   4.603   4.627   8.465
  246MPD1    C1 3782   4.484   4.620   8.544
  246MPD1    C2 3783   4.495   4.622   8.681
  246MPD1    C3 3784   4.622   4.602   8.729
  246MPD1    C4 3785   4.735   4.603   8.650
  246MPD1    C5 3786   4.727   4.620   8.519
  246MPD1     H 3787   4.410   4.647   8.744
  246MPD1    H1 3788   0.035   4.603   8.678
  246MPD1    H2 3789   4.596   4.626   8.356
  246MPD1    H3 3790   0.007   4.616   8.452
  246MPD1     N 3791   4.639   4.592   8.872
  246MPD1    H5 3792   4.560   4.595   8.936
  246MPD1    N1 3793   4.362   4.628   8.482
  246MPD1    H6 3794   4.361   4.592   8.387
  246MPD1    H7 3795   4.288   4.580   8.532
  247MPD1     C 3796   2.527   2.609  15.360
  247MPD1    C1 3797   2.581   2.742  15.348
  247MPD1    C2 3798   2.678   2.782  15.438
  247MPD1    C3 3799   2.720   2.704  15.541
  247MPD1    C4 3800   2.668   2.578  15.553
  247MPD1    C5 3801   2.569   2.534  15.466
  247MPD1     H 3802   2.729   2.874  15.412
  247MPD1    H1 3803   2.702   2.525  15.641
  247MPD1    H2 3804   2.450   2.574  15.292
  247MPD1    H3 3805   2.527   2.436  15.488
  247MPD1     N 3806   2.818   2.739  15.637
  247MPD1    H5 3807   2.850   2.659  15.692
  247MPD1    N1 3808   2.564   2.826  15.240
  247MPD1    H6 3809   2.469   2.815  15.206
  247MPD1    H7 3810   2.581   2.926  15.249
  248MPD1     C 3811   3.848   2.329  17.809
  248MPD1    C1 3812   3.743   2.410  17.842
  248MPD1    C2 3813   3.671   2.354  17.944
  248MPD1    C3 3814   3.710   2.255  18.029
  248MPD1    C4 3815   3.826   2.193  17.999
  248MPD1    C5 3816   3.891   2.228  17.883
  248MPD1     H 3817   3.578   2.406  17.965
  248MPD1    H1 3818   3.855   2.106  18.057
  248MPD1    H2 3819   3.910   2.361  17.725
  248MPD1    H3 3820   3.976   2.172  17.848
  248MPD1     N 3821   3.625   2.215  18.135
  248MPD1    H5 3822   3.537   2.262  18.154
  248MPD1    N1 3823   3.692   2.505  17.753
  248MPD1    H6 3824   3.764   2.544  17.693
  248MPD1    H7 3825   3.650   2.582  17.806
  249MPD1     C 3826   0.357   1.434  10.539
  249MPD1    C1 3827   0.462   1.429  10.630
  249MPD1    C2 3828   0.546   1.538  10.635
  249MPD1    C3 3829   0.536   1.643  10.550
  249MPD1    C4 3830   0.434   1.632  10.461
  249MPD1    C5 3831   0.340   1.538  10.450
  249MPD1     H 3832   0.627   1.538  10.706
  249MPD1    H1 3833   0.422   1.714  10.391
  249MPD1    H2 3834   0.282   1.357  10.533
  249MPD1    H3 3835   0.255   1.552  10.384
  249MPD1     N 3836   0.628   1.745  10.567
  249MPD1    H5 3837   0.694   1.740  10.644
  249MPD1    N1 3838   0.471   1.329  10.725
  249MPD1    H6 3839   0.397   1.352  10.791
  249MPD1    H7 3840   0.558   1.324  10.777
  250MPD2     C 3841   2.239   1.120  13.243
  250MPD2    C1 3842   2.138   1.212  13.264
  250MPD2    C2 3843   2.009   1.183  13.222
  250MPD2    C3 3844   1.978   1.054  13.169
  250MPD2    C4 3845   2.078   0.963  13.156
  250MPD2    C5 3846   2.209   0.999  13.193
  250MPD2     H 3847   1.929   1.256  13.227
  250MPD2    H1 3848   2.054   0.861  13.129
  250MPD2    H2 3849   2.341   1.135  13.277
  250MPD2    H3 3850   2.285   0.922  13.186
  250MPD2     N 3851   1.855   1.023  13.120
  250MPD2    H5 3852   1.847   0.930  13.080
  250MPD2    N1 3853   2.175   1.330  13.339
  250MPD2    H7 3854   2.274   1.348  13.355
  251TMC3    C1 3855   2.151   1.547  13.443
  251TMC3    C2 3856   2.079   1.663  13.429
  251TMC3    C3 3857   2.152   1.778  13.446
  251TMC3    C4 3858   2.277   1.549  13.481
  251TMC3    C5 3859   2.350   1.658  13.503
  251TMC3    C6 3860   2.289   1.779  13.468
  251TMC3     C 3861   2.091   1.434  13.376
  251TMC3     O 3862   1.973   1.439  13.359
  251TMC3     H 3863   1.970   1.663  13.426
  251TMC3    H1 3864   2.315   1.453  13.513
  251TMC3    H2 3865   2.341   1.874  13.477
  251TMC3    C7 3866   2.493   1.642  13.516
  251TMC3    C8 3867   2.069   1.892  13.462
  251TMC3    O1 3868   2.540   1.528  13.516
  251TMC3    O2 3869   1.954   1.872  13.501
  252TMC3    C1 3870   1.787   3.251   9.517
  252TMC3    C2 3871   1.891   3.277   9.595
  252TMC3    C3 3872   1.902   3.205   9.715
  252TMC3    C4 3873   1.702   3.156   9.549
  252TMC3    C5 3874   1.725   3.081   9.658
  252TMC3    C6 3875   1.822   3.101   9.745
  252TMC3     C 3876   1.798   3.291   9.378
  252TMC3     O 3877   1.770   3.209   9.290
  252TMC3     H 3878   1.955   3.358   9.563
  252TMC3    H1 3879   1.624   3.134   9.477
  252TMC3    H2 3880   1.832   3.046   9.837
  252TMC3    C7 3881   1.622   2.995   9.693
  252TMC3    C8 3882   2.016   3.248   9.790
  252TMC3    O1 3883   1.510   3.014   9.648
  252TMC3    O2 3884   2.057   3.362   9.765
  253MPD2     C 3885   3.113   1.260  15.477
  253MPD2    C1 3886   2.984   1.306  15.509
  253MPD2    C2 3887   2.959   1.357  15.632
  253MPD2    C3 3888   3.067   1.374  15.715
  253MPD2    C4 3889   3.194   1.335  15.682
  253MPD2    C5 3890   3.217   1.284  15.567
  253MPD2     H 3891   2.858   1.384  15.659
  253MPD2    H1 3892   3.275   1.348  15.753
  253MPD2    H2 3893   3.139   1.222  15.379
  253MPD2    H3 3894   3.320   1.266  15.537
  253MPD2     N 3895   3.048   1.427  15.849
  253MPD2    H5 3896   3.128   1.420  15.911
  253MPD2    N1 3897   2.875   1.310  15.411
  253MPD2    H7 3898   2.781   1.319  15.448
  254TMC3    C1 3899   2.928   1.491  16.046
  254TMC3    C2 3900   2.804   1.525  16.096
  254TMC3    C3 3901   2.788   1.511  16.231
  254TMC3    C4 3902   3.029   1.436  16.126
  254TMC3    C5 3903   3.004   1.422  16.261
  254TMC3    C6 3904   2.883   1.450  16.310
  254TMC3     C 3905   2.927   1.472  15.902
  254TMC3     O 3906   2.825   1.514  15.845
  254TMC3     H 3907   2.725   1.565  16.034
  254TMC3    H1 3908   3.122   1.394  16.090
  254TMC3    H2 3909   2.868   1.425  16.415
  254TMC3    C7 3910   3.088   1.343  16.347
  254TMC3    C8 3911   2.677   1.579  16.296
  254TMC3    O1 3912   3.035   1.283  16.437
  254TMC3    O2 3913   2.689   1.578  16.420
  255MPD2     C 3914   0.980   4.188  10.733
  255MPD2    C1 3915   1.106   4.230  10.744
  255MPD2    C2 3916   1.210   4.136  10.725
  255MPD2    C3 3917   1.183   4.008  10.675
  255MPD2    C4 3918   1.051   3.972  10.662
  255MPD2    C5 3919   0.952   4.058  10.701
  255MPD2     H 3920   1.316   4.157  10.737
  255MPD2    H1 3921   1.018   3.880  10.615
  255MPD2    H2 3922   0.896   4.253  10.757
  255MPD2    H3 3923   0.851   4.020  10.685
  255MPD2     N 3924   1.295   3.917  10.648
  255MPD2    H5 3925   1.388   3.951  10.669
  255MPD2    N1 3926   1.124   4.365  10.793
  255MPD2    H7 3927   1.043   4.424  10.809
  256TMC3    C1 3928   1.232   4.580  10.810
  256TMC3    C2 3929   1.313   4.656  10.727
  256TMC3    C3 3930   1.267   4.775  10.689
  256TMC3    C4 3931   1.112   4.619  10.857
  256TMC3    C5 3932   1.064   4.739  10.813
  256TMC3    C6 3933   1.142   0.011  10.734
  256TMC3     C 3934   1.244   4.432  10.789
  256TMC3     O 3935   1.353   4.388  10.753
  256TMC3     H 3936   1.410   4.621  10.692
  256TMC3    H1 3937   1.057   4.560  10.928
  256TMC3    H2 3938   1.103   0.098  10.683
  256TMC3    C7 3939   0.925   4.714  10.780
  256TMC3    C8 3940   1.315   0.009  10.557
  256TMC3    O1 3941   0.884   4.599  10.773
  256TMC3    O2 3942   1.358   4.724  10.486
  257MPD2     C 3943   0.662   1.572  13.394
  257MPD2    C1 3944   0.606   1.473  13.314
  257MPD2    C2 3945   0.561   1.351  13.369
  257MPD2    C3 3946   0.556   1.338  13.505
  257MPD2    C4 3947   0.605   1.441  13.585
  257MPD2    C5 3948   0.657   1.551  13.527
  257MPD2     H 3949   0.533   1.273  13.300
  257MPD2    H1 3950   0.606   1.437  13.693
  257MPD2    H2 3951   0.718   1.658  13.358
  257MPD2    H3 3952   0.706   1.625  13.589
  257MPD2     N 3953   0.507   1.214  13.566
  257MPD2    H5 3954   0.471   1.152  13.494
  257MPD2    N1 3955   0.623   1.495  13.176
  257MPD2    H7 3956   0.658   1.586  13.145
  258TMC3    C1 3957   0.477   1.043  13.726
  258TMC3    C2 3958   0.551   0.961  13.642
  258TMC3    C3 3959   0.558   0.831  13.679
  258TMC3    C4 3960   0.437   0.999  13.855
  258TMC3    C5 3961   0.464   0.868  13.886
  258TMC3    C6 3962   0.517   0.778  13.799
  258TMC3     C 3963   0.488   1.186  13.696
  258TMC3     O 3964   0.496   1.265  13.792
  258TMC3     H 3965   0.591   0.993  13.546
  258TMC3    H1 3966   0.405   1.077  13.923
  258TMC3    H2 3967   0.515   0.671  13.816
  258TMC3    C7 3968   0.449   0.837  14.028
  258TMC3    C8 3969   0.623   0.738  13.585
  258TMC3    O1 3970   0.362   0.887  14.096
  258TMC3    O2 3971   0.572   0.629  13.566
  259MPD2     C 3972   4.054   2.560  18.565
  259MPD2    C1 3973   4.134   2.457  18.619
  259MPD2    C2 3974   4.263   2.445  18.576
  259MPD2    C3 3975   4.310   2.539  18.482
  259MPD2    C4 3976   4.216   2.619  18.415
  259MPD2    C5 3977   4.090   2.633  18.458
  259MPD2     H 3978   4.329   2.380  18.631
  259MPD2    H1 3979   4.254   2.687  18.340
  259MPD2    H2 3980   3.956   2.574  18.609
  259MPD2    H3 3981   4.025   2.707  18.411
  259MPD2     N 3982   4.446   2.547  18.460
  259MPD2    H5 3983   4.508   2.496  18.522
  259MPD2    N1 3984   4.086   2.386  18.733
  259MPD2    H7 3985   4.006   2.429  18.778
  260TMC3    C1 3986   4.651   2.641  18.414
  260TMC3    C2 3987   4.749   2.662  18.322
  260TMC3    C3 3988   0.078   2.656  18.356
  260TMC3    C4 3989   4.688   2.623  18.545
  260TMC3    C5 3990   0.012   2.604  18.584
  260TMC3    C6 3991   0.109   2.620  18.488
  260TMC3     C 3992   4.515   2.636  18.381
  260TMC3     O 3993   4.472   2.711  18.293
  260TMC3     H 3994   4.723   2.666  18.217
  260TMC3    H1 3995   4.611   2.626  18.621
  260TMC3    H2 3996   0.208   2.583  18.513
  260TMC3    C7 3997   0.032   2.474  18.651
  260TMC3    C8 3998   0.150   2.577  18.258
  260TMC3    O1 3999   0.109   2.394  18.592
  260TMC3    O2 4000   0.183   2.625  18.150
  261MPD2     C 4001   1.414   0.903  12.517
  261MPD2    C1 4002   1.450   1.006  12.605
  261MPD2    C2 4003   1.444   1.134  12.549
  261MPD2    C3 4004   1.405   1.153  12.417
  261MPD2    C4 4005   1.372   1.046  12.337
  261MPD2    C5 4006   1.375   0.921  12.393
  261MPD2     H 4007   1.467   1.221  12.610
  261MPD2    H1 4008   1.328   1.068  12.241
  261MPD2    H2 4009   1.425   0.800  12.547
  261MPD2    H3 4010   1.324   0.848  12.331
  261MPD2     N 4011   1.385   1.284  12.360
  261MPD2    H5 4012   1.432   1.363  12.404
  261MPD2    N1 4013   1.491   0.990  12.739
  261MPD2    H7 4014   1.537   1.068  12.785
  262TMC3    C1 4015   1.306   1.458  12.232
  262TMC3    C2 4016   1.186   1.493  12.163
  262TMC3    C3 4017   1.197   1.532  12.030
  262TMC3    C4 4018   1.425   1.481  12.170
  262TMC3    C5 4019   1.431   1.527  12.041
  262TMC3    C6 4020   1.317   1.540  11.961
  262TMC3     C 4021   1.298   1.319  12.259
  262TMC3     O 4022   1.201   1.264  12.208
  262TMC3     H 4023   1.087   1.470  12.202
  262TMC3    H1 4024   1.518   1.467  12.225
  262TMC3    H2 4025   1.326   1.561  11.855
  262TMC3    C7 4026   1.546   1.602  11.997
  262TMC3    C8 4027   1.108   1.634  11.995
  262TMC3    O1 4028   1.646   1.608  12.070
  262TMC3    O2 4029   1.054   1.690  12.088
  263MPD2     C 4030   2.292   0.832  12.192
  263MPD2    C1 4031   2.384   0.835  12.088
  263MPD2    C2 4032   2.381   0.937  11.988
  263MPD2    C3 4033   2.279   1.026  12.000
  263MPD2    C4 4034   2.179   1.017  12.092
  263MPD2    C5 4035   2.189   0.920  12.193
  263MPD2     H 4036   2.445   0.946  11.901
  263MPD2    H1 4037   2.092   1.081  12.091
  263MPD2    H2 4038   2.310   0.766  12.277
  263MPD2    H3 4039   2.118   0.925  12.275
  263MPD2     N 4040   2.267   1.115  11.892
  263MPD2    H5 4041   2.330   1.095  11.815
  263MPD2    N1 4042   2.479   0.734  12.079
  263MPD2    H7 4043   2.481   0.664  12.152
  264TMC3    C1 4044   2.215   1.290  11.767
  264TMC3    C2 4045   2.210   1.426  11.757
  264TMC3    C3 4046   2.236   1.479  11.638
  264TMC3    C4 4047   2.247   1.210  11.655
  264TMC3    C5 4048   2.276   1.278  11.536
  264TMC3    C6 4049   2.259   1.407  11.525
  264TMC3     C 4050   2.185   1.225  11.887
  264TMC3     O 4051   2.135   1.286  11.980
  264TMC3     H 4052   2.162   1.468  11.845
  264TMC3    H1 4053   2.224   1.104  11.649
  264TMC3    H2 4054   2.286   1.457  11.433
  264TMC3    C7 4055   2.388   1.224  11.461
  264TMC3    C8 4056   2.344   1.578  11.648
  264TMC3    O1 4057   2.425   1.277  11.355
  264TMC3    O2 4058   2.432   1.565  11.567
  265MPD2     C 4059   4.298   0.770  15.815
  265MPD2    C1 4060   4.317   0.886  15.741
  265MPD2    C2 4061   4.355   0.864  15.614
  265MPD2    C3 4062   4.381   0.739  15.563
  265MPD2    C4 4063   4.366   0.631  15.642
  265MPD2    C5 4064   4.327   0.650  15.768
  265MPD2     H 4065   4.378   0.953  15.557
  265MPD2    H1 4066   4.385   0.529  15.609
  265MPD2    H2 4067   4.274   0.784  15.920
  265MPD2    H3 4068   4.292   0.567  15.830
  265MPD2     N 4069   4.439   0.725  15.434
  265MPD2    H5 4070   4.425   0.635  15.390
  265MPD2    N1 4071   4.292   1.024  15.786
  265MPD2    H7 4072   4.311   1.102  15.725
  266TMC3    C1 4073   4.294   1.202  15.944
  266TMC3    C2 4074   4.333   1.238  16.068
  266TMC3    C3 4075   4.343   1.369  16.094
  266TMC3    C4 4076   4.258   1.296  15.851
  266TMC3    C5 4077   4.261   1.429  15.882
  266TMC3    C6 4078   4.291   1.464  16.011
  266TMC3     C 4079   4.269   1.057  15.917
  266TMC3     O 4080   4.244   0.987  16.014
  266TMC3     H 4081   4.359   1.165  16.143
  266TMC3    H1 4082   4.200   1.267  15.764
  266TMC3    H2 4083   4.282   1.570  16.033
  266TMC3    C7 4084   4.220   1.521  15.775
  266TMC3    C8 4085   4.437   1.401  16.200
  266TMC3    O1 4086   4.184   1.470  15.671
  266TMC3    O2 4087   4.527   1.319  16.217
  267MPD2     C 4088   1.300   2.783  18.221
  267MPD2    C1 4089   1.357   2.892  18.161
  267MPD2    C2 4090   1.272   2.958  18.068
  267MPD2    C3 4091   1.145   2.915  18.040
  267MPD2    C4 4092   1.097   2.801  18.090
  267MPD2    C5 4093   1.176   2.733  18.182
  267MPD2     H 4094   1.308   3.043  18.010
  267MPD2    H1 4095   1.006   2.760  18.047
  267MPD2    H2 4096   1.358   2.717  18.285
  267MPD2    H3 4097   1.138   2.640  18.225
  267MPD2     N 4098   1.066   2.973  17.937
  267MPD2    H5 4099   0.990   2.921  17.894
  267MPD2    N1 4100   1.489   2.931  18.182
  267MPD2    H7 4101   1.539   2.864  18.239
  268TMC3    C1 4102   1.689   3.039  18.176
  268TMC3    C2 4103   1.779   3.085  18.090
  268TMC3    C3 4104   1.913   3.056  18.111
  268TMC3    C4 4105   1.720   2.970  18.294
  268TMC3    C5 4106   1.855   2.955  18.319
  268TMC3    C6 4107   1.950   3.001  18.234
  268TMC3     C 4108   1.557   3.035  18.133
  268TMC3     O 4109   1.518   3.128  18.063
  268TMC3     H 4110   1.747   3.136  18.000
  268TMC3    H1 4111   1.643   2.954  18.368
  268TMC3    H2 4112   2.052   2.966  18.250
  268TMC3    C7 4113   1.901   2.882  18.439
  268TMC3    C8 4114   2.015   3.136  18.053
  268TMC3    O1 4115   2.015   2.835  18.436
  268TMC3    O2 4116   2.104   3.149  18.135
  269MPD2     C 4117   2.144   1.551  15.844
  269MPD2    C1 4118   2.042   1.618  15.915
  269MPD2    C2 4119   2.018   1.755  15.884
  269MPD2    C3 4120   2.099   1.815  15.790
  269MPD2    C4 4121   2.201   1.750  15.727
  269MPD2    C5 4122   2.229   1.620  15.759
  269MPD2     H 4123   1.939   1.808  15.936
  269MPD2    H1 4124   2.272   1.805  15.667
  269MPD2    H2 4125   2.177   1.449  15.862
  269MPD2    H3 4126   2.311   1.570  15.707
  269MPD2     N 4127   2.062   1.951  15.769
  269MPD2    H5 4128   1.980   1.994  15.810
  269MPD2    N1 4129   1.977   1.553  16.015
  269MPD2    H7 4130   2.006   1.457  16.029
  270TMC3    C1 4131   1.815   1.492  16.178
  270TMC3    C2 4132   1.686   1.460  16.168
  270TMC3    C3 4133   1.656   1.331  16.208
  270TMC3    C4 4134   1.901   1.416  16.246
  270TMC3    C5 4135   1.871   1.293  16.290
  270TMC3    C6 4136   1.739   1.252  16.287
  270TMC3     C 4137   1.866   1.605  16.091
  270TMC3     O 4138   1.804   1.705  16.088
  270TMC3     H 4139   1.618   1.510  16.099
  270TMC3    H1 4140   2.006   1.441  16.240
  270TMC3    H2 4141   1.711   1.152  16.315
  270TMC3    C7 4142   1.962   1.194  16.231
  270TMC3    C8 4143   1.587   1.242  16.117
  270TMC3    O1 4144   2.082   1.205  16.252
  270TMC3    O2 4145   1.629   1.126  16.113
  271MPD2     C 4146   1.350   1.522  14.350
  271MPD2    C1 4147   1.258   1.489  14.448
  271MPD2    C2 4148   1.128   1.533  14.434
  271MPD2    C3 4149   1.091   1.616  14.327
  271MPD2    C4 4150   1.185   1.635  14.224
  271MPD2    C5 4151   1.314   1.594  14.243
  271MPD2     H 4152   1.060   1.497  14.510
  271MPD2    H1 4153   1.152   1.684  14.133
  271MPD2    H2 4154   1.458   1.513  14.359
  271MPD2    H3 4155   1.391   1.602  14.167
  271MPD2     N 4156   0.962   1.668  14.301
  271MPD2    H5 4157   0.941   1.724  14.219
  271MPD2    N1 4158   1.284   1.397  14.548
  271MPD2    H7 4159   1.203   1.380  14.607
  272TMC3    C1 4160   1.376   1.199  14.636
  272TMC3    C2 4161   1.493   1.129  14.669
  272TMC3    C3 4162   1.496   1.048  14.773
  272TMC3    C4 4163   1.267   1.181  14.712
  272TMC3    C5 4164   1.271   1.095  14.820
  272TMC3    C6 4165   1.389   1.027  14.858
  272TMC3     C 4166   1.388   1.308  14.551
  272TMC3     O 4167   1.494   1.310  14.486
  272TMC3     H 4168   1.587   1.133  14.616
  272TMC3    H1 4169   1.170   1.221  14.688
  272TMC3    H2 4170   1.392   0.955  14.939
  272TMC3    C7 4171   1.179   1.130  14.926
  272TMC3    C8 4172   1.592   0.937  14.764
  272TMC3    O1 4173   1.079   1.192  14.896
  272TMC3    O2 4174   1.642   0.917  14.654
  273MPD2     C 4175   2.538   4.439  11.894
  273MPD2    C1 4176   2.659   4.486  11.854
  273MPD2    C2 4177   2.687   4.473  11.723
  273MPD2    C3 4178   2.598   4.424  11.627
  273MPD2    C4 4179   2.466   4.403  11.665
  273MPD2    C5 4180   2.438   4.411  11.799
  273MPD2     H 4181   2.776   4.522  11.688
  273MPD2    H1 4182   2.387   4.361  11.603
  273MPD2    H2 4183   2.510   4.427  11.998
  273MPD2    H3 4184   2.341   4.384  11.839
  273MPD2     N 4185   2.634   4.416  11.488
  273MPD2    H5 4186   2.561   4.413  11.417
  273MPD2    N1 4187   2.753   4.545  11.944
  273MPD2    H7 4188   2.745   4.519  12.042
  274TMC3    C1 4189   2.793   4.514  11.326
  274TMC3    C2 4190   2.683   4.561  11.253
  274TMC3    C3 4191   2.707   4.685  11.192
  274TMC3    C4 4192   2.900   4.601  11.350
  274TMC3    C5 4193   2.891   4.732  11.311
  274TMC3    C6 4194   2.803   4.772  11.212
  274TMC3     C 4195   2.765   4.430  11.449
  274TMC3     O 4196   2.866   4.401  11.511
  274TMC3     H 4197   2.600   4.504  11.213
  274TMC3    H1 4198   2.973   4.568  11.423
  274TMC3    H2 4199   2.790   0.071  11.183
  274TMC3    C7 4200   2.926   0.033  11.397
  274TMC3    C8 4201   2.620   4.717  11.086
  274TMC3    O1 4202   2.854   0.130  11.390
  274TMC3    O2 4203   2.505   4.672  11.095
  275MPD2     C 4204   2.753   1.986  14.769
  275MPD2    C1 4205   2.690   2.034  14.884
  275MPD2    C2 4206   2.556   2.002  14.908
  275MPD2    C3 4207   2.486   1.924  14.814
  275MPD2    C4 4208   2.554   1.863  14.708
  275MPD2    C5 4209   2.687   1.894  14.694
  275MPD2     H 4210   2.513   2.022  15.005
  275MPD2    H1 4211   2.514   1.800  14.630
  275MPD2    H2 4212   2.857   2.016  14.758
  275MPD2    H3 4213   2.744   1.856  14.610
  275MPD2     N 4214   2.349   1.891  14.834
  275MPD2    H5 4215   2.308   1.816  14.780
  275MPD2    N1 4216   2.749   2.137  14.970
  275MPD2    H7 4217   2.681   2.173  15.036
  276TMC3    C1 4218   2.892   2.272  15.087
  276TMC3    C2 4219   2.799   2.252  15.188
  276TMC3    C3 4220   2.838   2.289  15.315
  276TMC3    C4 4221   3.025   2.317  15.110
  276TMC3    C5 4222   3.064   2.323  15.240
  276TMC3    C6 4223   2.969   2.318  15.339
  276TMC3     C 4224   2.874   2.189  14.965
  276TMC3     O 4225   2.958   2.180  14.878
  276TMC3     H 4226   2.696   2.220  15.174
  276TMC3    H1 4227   3.093   2.332  15.027
  276TMC3    H2 4228   2.999   2.330  15.443
  276TMC3    C7 4229   3.204   2.318  15.272
  276TMC3    C8 4230   2.773   2.209  15.413
  276TMC3    O1 4231   3.228   2.355  15.386
  276TMC3    O2 4232   2.780   2.243  15.530
  277MPD2     C 4233   0.072   1.403  13.581
  277MPD2    C1 4234   4.740   1.394  13.577
  277MPD2    C2 4235   4.672   1.325  13.678
  277MPD2    C3 4236   4.736   1.261  13.780
  277MPD2    C4 4237   0.071   1.266  13.784
  277MPD2    C5 4238   0.139   1.332  13.682
  277MPD2     H 4239   4.565   1.309  13.685
  277MPD2    H1 4240   0.125   1.236  13.872
  277MPD2    H2 4241   0.130   1.458  13.507
  277MPD2    H3 4242   0.247   1.341  13.686
  277MPD2     N 4243   4.654   1.208  13.871
  277MPD2    H5 4244   4.554   1.218  13.857
  277MPD2    N1 4245   4.675   1.457  13.471
  277MPD2    H7 4246   4.729   1.530  13.425
  278TMC3    C1 4247   4.572   1.118  14.067
  278TMC3    C2 4248   4.556   0.983  14.099
  278TMC3    C3 4249   4.429   0.928  14.083
  278TMC3    C4 4250   4.465   1.191  14.033
  278TMC3    C5 4251   4.345   1.137  14.043
  278TMC3    C6 4252   4.318   1.003  14.054
  278TMC3     C 4253   4.692   1.157  13.996
  278TMC3     O 4254   4.800   1.099  14.027
  278TMC3     H 4255   4.639   0.914  14.112
  278TMC3    H1 4256   4.484   1.295  14.010
  278TMC3    H2 4257   4.218   0.961  14.049
  278TMC3    C7 4258   4.228   1.223  14.004
  278TMC3    C8 4259   4.440   0.781  14.072
  278TMC3    O1 4260   4.244   1.319  13.929
  278TMC3    O2 4261   4.529   0.716  14.120
  279MPD2     C 4262   3.649   0.881  18.273
  279MPD2    C1 4263   3.686   1.013  18.264
  279MPD2    C2 4264   3.762   1.059  18.155
  279MPD2    C3 4265   3.806   0.974  18.055
  279MPD2    C4 4266   3.765   0.836  18.067
  279MPD2    C5 4267   3.698   0.793  18.180
  279MPD2     H 4268   3.800   1.161  18.153
  279MPD2    H1 4269   3.788   0.772  17.983
  279MPD2    H2 4270   3.595   0.844  18.359
  279MPD2    H3 4271   3.674   0.687  18.186
  279MPD2     N 4272   3.867   1.015  17.937
  279MPD2    H5 4273   3.850   0.953  17.858
  279MPD2    N1 4274   3.621   1.088  18.358
  279MPD2    H7 4275   3.549   1.039  18.410
  280TMC3    C1 4276   3.499   1.288  18.376
  280TMC3    C2 4277   3.414   1.216  18.289
  280TMC3    C3 4278   3.346   1.279  18.190
  280TMC3    C4 4279   3.507   1.422  18.367
  280TMC3    C5 4280   3.430   1.481  18.275
  280TMC3    C6 4281   3.350   1.411  18.189
  280TMC3     C 4282   3.634   1.228  18.374
  280TMC3     O 4283   3.723   1.304  18.345
  280TMC3     H 4284   3.410   1.108  18.298
  280TMC3    H1 4285   3.578   1.467  18.436
  280TMC3    H2 4286   3.304   1.451  18.100
  280TMC3    C7 4287   3.491   1.594  18.209
  280TMC3    C8 4288   3.366   1.204  18.057
  280TMC3    O1 4289   3.600   1.637  18.252
  280TMC3    O2 4290   3.380   1.271  17.958
  281TMC3    C1 4291   2.725   1.361  13.784
  281TMC3    C2 4292   2.805   1.439  13.701
  281TMC3    C3 4293   2.850   1.387  13.579
  281TMC3    C4 4294   2.684   1.234  13.741
  281TMC3    C5 4295   2.726   1.187  13.618
  281TMC3    C6 4296   2.811   1.261  13.535
  281TMC3     C 4297   2.626   1.415  13.879
  281TMC3     O 4298   2.569   1.335  13.949
  281TMC3     H 4299   2.838   1.535  13.741
  281TMC3    H1 4300   2.607   1.182  13.796
  281TMC3    H2 4301   2.862   1.215  13.451
  281TMC3    C7 4302   2.650   1.080  13.551
  281TMC3    C8 4303   2.979   1.435  13.516
  281TMC3    O1 4304   2.706   1.015  13.466
  281TMC3    O2 4305   3.055   1.349  13.472
  282MPD2     C 4306   4.617   2.723  15.303
  282MPD2    C1 4307   4.501   2.794  15.326
  282MPD2    C2 4308   4.425   2.836  15.216
  282MPD2    C3 4309   4.464   2.810  15.087
  282MPD2    C4 4310   4.574   2.732  15.067
  282MPD2    C5 4311   4.650   2.694  15.171
  282MPD2     H 4312   4.330   2.885  15.229
  282MPD2    H1 4313   4.618   2.707  14.971
  282MPD2    H2 4314   4.684   2.675  15.374
  282MPD2    H3 4315   4.734   2.627  15.153
  282MPD2     N 4316   4.374   2.838  14.983
  282MPD2    H5 4317   4.281   2.872  15.007
  282MPD2    N1 4318   4.448   2.823  15.457
  282MPD2    H7 4319   4.379   2.897  15.465
  283TMC3    C1 4320   4.406   2.784  15.691
  283TMC3    C2 4321   4.391   2.915  15.723
  283TMC3    C3 4322   4.326   2.953  15.834
  283TMC3    C4 4323   4.349   2.686  15.767
  283TMC3    C5 4324   4.284   2.729  15.879
  283TMC3    C6 4325   4.276   2.859  15.916
  283TMC3     C 4326   4.473   2.748  15.571
  283TMC3     O 4327   4.528   2.640  15.565
  283TMC3     H 4328   4.432   2.992  15.659
  283TMC3    H1 4329   4.368   2.585  15.733
  283TMC3    H2 4330   4.221   2.888  16.005
  283TMC3    C7 4331   4.190   2.646  15.951
  283TMC3    C8 4332   4.295   3.092  15.863
  283TMC3    O1 4333   4.113   2.695  16.033
  283TMC3    O2 4334   4.232   3.109  15.968
  284MPD2     C 4335   2.236   2.373  12.097
  284MPD2    C1 4336   2.360   2.411  12.132
  284MPD2    C2 4337   2.437   2.338  12.221
  284MPD2    C3 4338   2.381   2.226  12.281
  284MPD2    C4 4339   2.254   2.184  12.241
  284MPD2    C5 4340   2.184   2.256  12.151
  284MPD2     H 4341   2.533   2.382  12.245
  284MPD2    H1 4342   2.212   2.090  12.276
  284MPD2    H2 4343   2.178   2.430  12.025
  284MPD2    H3 4344   2.090   2.226  12.107
  284MPD2     N 4345   2.461   2.130  12.349
  284MPD2    H5 4346   2.427   2.035  12.362
  284MPD2    N1 4347   2.425   2.524  12.080
  284MPD2    H7 4348   2.524   2.518  12.101
  285TMC3    C1 4349   2.489   2.681  11.934
  285TMC3    C2 4350   2.580   2.605  11.875
  285TMC3    C3 4351   2.692   2.661  11.818
  285TMC3    C4 4352   2.487   2.814  11.928
  285TMC3    C5 4353   2.600   2.868  11.872
  285TMC3    C6 4354   2.698   2.799  11.804
  285TMC3     C 4355   2.378   2.609  11.983
  285TMC3     O 4356   2.264   2.634  11.938
  285TMC3     H 4357   2.570   2.497  11.883
  285TMC3    H1 4358   2.412   2.873  11.979
  285TMC3    H2 4359   2.781   2.856  11.766
  285TMC3    C7 4360   2.638   2.984  11.949
  285TMC3    C8 4361   2.777   2.580  11.736
  285TMC3    O1 4362   2.569   3.083  11.929
  285TMC3    O2 4363   2.719   2.483  11.689
  286MPD2     C 4364   2.612   0.619  19.665
  286MPD2    C1 4365   2.582   0.617  19.533
  286MPD2    C2 4366   2.626   0.505  19.460
  286MPD2    C3 4367   2.675   0.387  19.528
  286MPD2    C4 4368   2.686   0.391  19.668
  286MPD2    C5 4369   2.679   0.515  19.727
  286MPD2     H 4370   2.610   0.498  19.353
  286MPD2    H1 4371   2.708   0.299  19.721
  286MPD2    H2 4372   2.606   0.708  19.727
  286MPD2    H3 4373   2.714   0.521  19.829
  286MPD2     N 4374   2.716   0.266  19.465
  286MPD2    H5 4375   2.745   0.193  19.528
  286MPD2    N1 4376   2.533   0.729  19.453
  286MPD2    H7 4377   2.523   0.722  19.352
  287TMC3    C1 4378   2.796   0.135  19.288
  287TMC3    C2 4379   2.760   0.078  19.169
  287TMC3    C3 4380   2.824   4.772  19.131
  287TMC3    C4 4381   2.909   0.097  19.356
  287TMC3    C5 4382   2.995   0.007  19.294
  287TMC3    C6 4383   2.943   4.730  19.194
  287TMC3     C 4384   2.728   0.257  19.326
  287TMC3     O 4385   2.704   0.336  19.240
  287TMC3     H 4386   2.671   0.114  19.118
  287TMC3    H1 4387   2.938   0.149  19.447
  287TMC3    H2 4388   2.993   4.650  19.141
  287TMC3    C7 4389   3.116   0.091  19.270
  287TMC3    C8 4390   2.823   4.736  18.990
  287TMC3    O1 4391   3.128   0.194  19.339
  287TMC3    O2 4392   2.838   4.619  18.959
  288TMC3    C1 4393   4.351   0.605  14.477
  288TMC3    C2 4394   4.251   0.589  14.567
  288TMC3    C3 4395   4.185   0.704  14.603
  288TMC3    C4 4396   4.386   0.726  14.421
  288TMC3    C5 4397   4.312   0.833  14.453
  288TMC3    C6 4398   4.213   0.826  14.546
  288TMC3     C 4399   4.451   0.502  14.467
  288TMC3     O 4400   4.426   0.396  14.525
  288TMC3     H 4401   4.246   0.493  14.616
  288TMC3    H1 4402   4.464   0.747  14.348
  288TMC3    H2 4403   4.160   0.916  14.577
  288TMC3    C7 4404   4.401   0.953  14.452
  288TMC3    C8 4405   4.137   0.712  14.744
  288TMC3    O1 4406   4.521   0.937  14.481
  288TMC3    O2 4407   4.116   0.818  14.792
  289MPD2     C 4408   4.607   4.771  14.518
  289MPD2    C1 4409   4.576   0.049  14.406
  289MPD2    C2 4410   4.459   0.033  14.337
  289MPD2    C3 4411   4.369   4.741  14.376
  289MPD2    C4 4412   4.402   4.650  14.474
  289MPD2    C5 4413   4.520   4.667  14.548
  289MPD2     H 4414   4.428   0.112  14.271
  289MPD2    H1 4415   4.338   4.567  14.503
  289MPD2    H2 4416   4.691   4.793  14.583
  289MPD2    H3 4417   4.541   4.595  14.626
  289MPD2     N 4418   4.243   4.713  14.314
  289MPD2    H5 4419   4.187   4.638  14.352
  289MPD2    N1 4420   4.662   0.156  14.373
  289MPD2    H7 4421   4.739   0.161  14.438
  290TMC3    C1 4422   4.041   4.759  14.202
  290TMC3    C2 4423   3.958   0.059  14.188
  290TMC3    C3 4424   3.828   0.038  14.161
  290TMC3    C4 4425   4.001   4.630  14.185
  290TMC3    C5 4426   3.870   4.611  14.154
  290TMC3    C6 4427   3.784   4.718  14.138
  290TMC3     C 4428   4.183   4.792  14.221
  290TMC3     O 4429   4.218   0.098  14.181
  290TMC3     H 4430   3.995   0.160  14.202
  290TMC3    H1 4431   4.077   4.553  14.186
  290TMC3    H2 4432   3.680   4.703  14.110
  290TMC3    C7 4433   3.808   4.480  14.161
  290TMC3    C8 4434   3.744   0.155  14.148
  290TMC3    O1 4435   3.703   4.478  14.092
  290TMC3    O2 4436   3.649   0.131  14.069
  291MPD2     C 4437   3.480   4.710  18.146
  291MPD2    C1 4438   3.593   4.635  18.174
  291MPD2    C2 4439   3.711   4.707  18.171
  291MPD2    C3 4440   3.707   0.045  18.154
  291MPD2    C4 4441   3.592   0.114  18.129
  291MPD2    C5 4442   3.481   0.039  18.114
  291MPD2     H 4443   3.804   4.652  18.183
  291MPD2    H1 4444   3.588   0.221  18.110
  291MPD2    H2 4445   3.378   4.673  18.140
  291MPD2    H3 4446   3.389   0.094  18.100
  291MPD2     N 4447   3.829   0.122  18.153
  291MPD2    H5 4448   3.826   0.224  18.145
  291MPD2    N1 4449   3.596   4.495  18.174
  291MPD2    H7 4450   3.684   4.453  18.204
  292TMC3    C1 4451   3.498   4.290  18.209
  292TMC3    C2 4452   3.537   4.274  18.337
  292TMC3    C3 4453   3.567   4.148  18.376
  292TMC3    C4 4454   3.472   4.186  18.121
  292TMC3    C5 4455   3.516   4.057  18.164
  292TMC3    C6 4456   3.560   4.040  18.291
  292TMC3     C 4457   3.475   4.423  18.154
  292TMC3     O 4458   3.379   4.441  18.071
  292TMC3     H 4459   3.541   4.353  18.412
  292TMC3    H1 4460   3.436   4.205  18.021
  292TMC3    H2 4461   3.599   3.943  18.320
  292TMC3    C7 4462   3.517   3.942  18.067
  292TMC3    C8 4463   3.562   4.114  18.515
  292TMC3    O1 4464   3.587   3.846  18.095
  292TMC3    O2 4465   3.616   4.196  18.590
  293MPD2     C 4466   0.802   1.163  12.731
  293MPD2    C1 4467   0.714   1.098  12.823
  293MPD2    C2 4468   0.734   1.116  12.960
  293MPD2    C3 4469   0.841   1.186  13.018
  293MPD2    C4 4470   0.929   1.242  12.927
  293MPD2    C5 4471   0.906   1.232  12.792
  293MPD2     H 4472   0.664   1.060  13.021
  293MPD2    H1 4473   1.017   1.297  12.959
  293MPD2    H2 4474   0.784   1.168  12.625
  293MPD2    H3 4475   0.967   1.281  12.716
  293MPD2     N 4476   0.859   1.193  13.161
  293MPD2    H5 4477   0.789   1.154  13.223
  293MPD2    N1 4478   0.604   1.020  12.762
  293MPD2    H7 4479   0.608   1.029  12.661
  294TMC3    C1 4480   0.377   0.946  12.752
  294TMC3    C2 4481   0.291   0.857  12.806
  294TMC3    C3 4482   0.193   0.802  12.731
  294TMC3    C4 4483   0.377   0.974  12.619
  294TMC3    C5 4484   0.287   0.906  12.542
  294TMC3    C6 4485   0.187   0.822  12.595
  294TMC3     C 4486   0.499   0.968  12.835
  294TMC3     O 4487   0.492   0.950  12.955
  294TMC3     H 4488   0.312   0.820  12.906
  294TMC3    H1 4489   0.446   1.049  12.581
  294TMC3    H2 4490   0.113   0.779  12.530
  294TMC3    C7 4491   0.286   0.939  12.403
  294TMC3    C8 4492   0.133   0.682  12.783
  294TMC3    O1 4493   0.192   0.903  12.340
  294TMC3    O2 4494   0.144   0.652  12.903
  295MPD2     C 4495   1.827   4.688  18.650
  295MPD2    C1 4496   1.706   4.746  18.662
  295MPD2    C2 4497   1.632   4.732  18.781
  295MPD2    C3 4498   1.668   4.631  18.871
  295MPD2    C4 4499   1.779   4.558  18.848
  295MPD2    C5 4500   1.855   4.582  18.737
  295MPD2     H 4501   1.536   4.783  18.790
  295MPD2    H1 4502   1.809   4.472  18.905
  295MPD2    H2 4503   1.879   4.688  18.555
  295MPD2    H3 4504   1.946   4.529  18.711
  295MPD2     N 4505   1.594   4.602  18.980
  295MPD2    H5 4506   1.619   4.514  19.023
  295MPD2    N1 4507   1.649   0.034  18.562
  295MPD2    H7 4508   1.552   0.063  18.570
  296TMC3    C1 4509   1.435   4.604  19.155
  296TMC3    C2 4510   1.398   4.687  19.256
  296TMC3    C3 4511   1.316   4.626  19.347
  296TMC3    C4 4512   1.361   4.489  19.128
  296TMC3    C5 4513   1.259   4.447  19.210
  296TMC3    C6 4514   1.240   4.508  19.335
  296TMC3     C 4515   1.479   4.673  19.033
  296TMC3     O 4516   1.429   4.783  19.006
  296TMC3     H 4517   1.447   4.779  19.282
  296TMC3    H1 4518   1.374   4.438  19.033
  296TMC3    H2 4519   1.172   4.469  19.410
  296TMC3    C7 4520   1.146   4.375  19.148
  296TMC3    C8 4521   1.296   4.684  19.481
  296TMC3    O1 4522   1.157   4.362  19.026
  296TMC3    O2 4523   1.353   4.615  19.562
  297MPD2     C 4524   3.297   1.728  16.636
  297MPD2    C1 4525   3.272   1.824  16.528
  297MPD2    C2 4526   3.374   1.902  16.492
  297MPD2    C3 4527   3.500   1.881  16.538
  297MPD2    C4 4528   3.521   1.782  16.634
  297MPD2    C5 4529   3.419   1.711  16.686
  297MPD2     H 4530   3.361   1.976  16.414
  297MPD2    H1 4531   3.614   1.776  16.689
  297MPD2    H2 4532   3.222   1.658  16.671
  297MPD2    H3 4533   3.428   1.631  16.758
  297MPD2     N 4534   3.599   1.982  16.503
  297MPD2    H5 4535   3.568   2.071  16.465
  297MPD2    N1 4536   3.146   1.846  16.479
  297MPD2    H7 4537   3.147   1.909  16.400
  298TMC3    C1 4538   2.926   1.839  16.441
  298TMC3    C2 4539   2.952   1.831  16.307
  298TMC3    C3 4540   2.845   1.868  16.231
  298TMC3    C4 4541   2.821   1.895  16.498
  298TMC3    C5 4542   2.718   1.940  16.416
  298TMC3    C6 4543   2.723   1.927  16.277
  298TMC3     C 4544   3.031   1.794  16.527
  298TMC3     O 4545   3.008   1.749  16.640
  298TMC3     H 4546   3.036   1.768  16.280
  298TMC3    H1 4547   2.817   1.911  16.605
  298TMC3    H2 4548   2.651   1.972  16.211
  298TMC3    C7 4549   2.597   1.993  16.488
  298TMC3    C8 4550   2.867   1.875  16.088
  298TMC3    O1 4551   2.605   1.994  16.611
  298TMC3    O2 4552   2.776   1.902  16.015
  299MPD2     C 4553   3.908   1.603  11.185
  299MPD2    C1 4554   3.923   1.675  11.068
  299MPD2    C2 4555   3.840   1.653  10.962
  299MPD2    C3 4556   3.727   1.572  10.978
  299MPD2    C4 4557   3.713   1.497  11.091
  299MPD2    C5 4558   3.799   1.516  11.194
  299MPD2     H 4559   3.857   1.701  10.866
  299MPD2    H1 4560   3.627   1.438  11.119
  299MPD2    H2 4561   3.981   1.605  11.265
  299MPD2    H3 4562   3.782   1.459  11.285
  299MPD2     N 4563   3.627   1.561  10.880
  299MPD2    H5 4564   3.558   1.494  10.913
  299MPD2    N1 4565   4.032   1.761  11.058
  299MPD2    H7 4566   4.095   1.767  11.138
  300TMC3    C1 4567   3.503   1.595  10.672
  300TMC3    C2 4568   3.484   1.685  10.567
  300TMC3    C3 4569   3.361   1.696  10.514
  300TMC3    C4 4570   3.406   1.514  10.718
  300TMC3    C5 4571   3.286   1.525  10.649
  300TMC3    C6 4572   3.261   1.613  10.552
  300TMC3     C 4573   3.617   1.629  10.758
  300TMC3     O 4574   3.681   1.725  10.718
  300TMC3     H 4575   3.559   1.759  10.540
  300TMC3    H1 4576   3.407   1.437  10.795
  300TMC3    H2 4577   3.169   1.606  10.495
  300TMC3    C7 4578   3.177   1.466  10.724
  300TMC3    C8 4579   3.327   1.832  10.491
  300TMC3    O1 4580   3.106   1.380  10.677
  300TMC3    O2 4581   3.414   1.915  10.470
  301MPD2     C 4582   1.440   3.144  18.919
  301MPD2    C1 4583   1.468   3.201  19.038
  301MPD2    C2 4584   1.515   3.119  19.136
  301MPD2    C3 4585   1.538   2.981  19.114
  301MPD2    C4 4586   1.527   2.935  18.985
  301MPD2    C5 4587   1.480   3.015  18.889
  301MPD2     H 4588   1.521   3.168  19.233
  301MPD2    H1 4589   1.560   2.835  18.958
  301MPD2    H2 4590   1.418   3.205  18.831
  301MPD2    H3 4591   1.458   2.973  18.792
  301MPD2     N 4592   1.566   2.892  19.220
  301MPD2    H5 4593   1.592   2.796  19.198
  301MPD2    N1 4594   1.449   3.338  19.072
  301MPD2    H7 4595   1.483   3.365  19.164
  302TMC3    C1 4596   1.501   2.783  19.419
  302TMC3    C2 4597   1.595   2.685  19.445
  302TMC3    C3 4598   1.549   2.571  19.511
  302TMC3    C4 4599   1.366   2.751  19.445
  302TMC3    C5 4600   1.326   2.643  19.521
  302TMC3    C6 4601   1.427   2.563  19.567
  302TMC3     C 4602   1.525   2.914  19.351
  302TMC3     O 4603   1.472   3.013  19.400
  302TMC3     H 4604   1.699   2.695  19.416
  302TMC3    H1 4605   1.298   2.834  19.427
  302TMC3    H2 4606   1.403   2.474  19.624
  302TMC3    C7 4607   1.229   2.557  19.451
  302TMC3    C8 4608   1.644   2.464  19.516
  302TMC3    O1 4609   1.262   2.440  19.434
  302TMC3    O2 4610   1.599   2.349  19.517
  303MPD2     C 4611   1.583   1.344  10.919
  303MPD2    C1 4612   1.454   1.298  10.963
  303MPD2    C2 4613   1.356   1.307  10.869
  303MPD2    C3 4614   1.373   1.341  10.738
  303MPD2    C4 4615   1.495   1.400  10.702
  303MPD2    C5 4616   1.590   1.402  10.793
  303MPD2     H 4617   1.259   1.260  10.879
  303MPD2    H1 4618   1.511   1.439  10.602
  303MPD2    H2 4619   1.674   1.332  10.978
  303MPD2    H3 4620   1.689   1.433  10.760
  303MPD2     N 4621   1.284   1.322  10.634
  303MPD2    H5 4622   1.305   1.369  10.547
  303MPD2    N1 4623   1.441   1.234  11.091
  303MPD2    H7 4624   1.520   1.195  11.141
  304TMC3    C1 4625   1.314   1.132  11.266
  304TMC3    C2 4626   1.199   1.147  11.333
  304TMC3    C3 4627   1.170   1.051  11.422
  304TMC3    C4 4628   1.397   1.018  11.279
  304TMC3    C5 4629   1.363   0.926  11.371
  304TMC3    C6 4630   1.250   0.944  11.450
  304TMC3     C 4631   1.316   1.203  11.138
  304TMC3     O 4632   1.208   1.250  11.108
  304TMC3     H 4633   1.127   1.227  11.320
  304TMC3    H1 4634   1.459   1.003  11.192
  304TMC3    H2 4635   1.218   0.871  11.524
  304TMC3    C7 4636   1.384   0.785  11.346
  304TMC3    C8 4637   1.030   1.015  11.415
  304TMC3    O1 4638   1.416   0.753  11.232
  304TMC3    O2 4639   0.995   1.007  11.296
  305MPD2     C 4640   4.597   3.346  14.162
  305MPD2    C1 4641   4.549   3.219  14.191
  305MPD2    C2 4642   4.522   3.135  14.086
  305MPD2    C3 4643   4.553   3.177  13.960
  305MPD2    C4 4644   4.600   3.302  13.926
  305MPD2    C5 4645   4.619   3.385  14.034
  305MPD2     H 4646   4.469   3.040  14.091
  305MPD2    H1 4647   4.623   3.339  13.828
  305MPD2    H2 4648   4.619   3.421  14.238
  305MPD2    H3 4649   4.668   3.475  13.999
  305MPD2     N 4650   4.543   3.091  13.850
  305MPD2    H5 4651   4.568   3.130  13.760
  305MPD2    N1 4652   4.545   3.180  14.330
  305MPD2    H7 4653   4.568   3.257  14.392
  306TMC3    C1 4654   4.583   3.047  14.520
  306TMC3    C2 4655   4.646   2.938  14.556
  306TMC3    C3 4656   4.704   2.937  14.684
  306TMC3    C4 4657   4.555   3.151  14.613
  306TMC3    C5 4658   4.612   3.135  14.741
  306TMC3    C6 4659   4.694   3.037  14.771
  306TMC3     C 4660   4.542   3.052  14.380
  306TMC3     O 4661   4.498   2.951  14.328
  306TMC3     H 4662   4.661   2.856  14.486
  306TMC3    H1 4663   4.487   3.233  14.594
  306TMC3    H2 4664   4.723   3.012  14.872
  306TMC3    C7 4665   4.541   3.189  14.854
  306TMC3    C8 4666   4.769   2.807  14.713
  306TMC3    O1 4667   4.419   3.192  14.855
  306TMC3    O2 4668   4.747   2.710  14.639
  307MPD2     C 4669   1.934   1.040  18.416
  307MPD2    C1 4670   2.049   1.083  18.464
  307MPD2    C2 4671   2.059   1.129  18.595
  307MPD2    C3 4672   1.950   1.140  18.672
  307MPD2    C4 4673   1.829   1.098  18.620
  307MPD2    C5 4674   1.825   1.058  18.490
  307MPD2     H 4675   2.149   1.169  18.640
  307MPD2    H1 4676   1.732   1.107  18.669
  307MPD2    H2 4677   1.916   1.004  18.315
  307MPD2    H3 4678   1.731   1.035  18.440
  307MPD2     N 4679   1.961   1.188  18.807
  307MPD2    H5 4680   2.052   1.176  18.849
  307MPD2    N1 4681   2.168   1.084  18.389
  307MPD2    H7 4682   2.243   1.132  18.437
  308TMC3    C1 4683   1.771   1.163  19.208
  308TMC3    C2 4684   1.746   1.283  19.249
  308TMC3    C3 4685   1.783   1.390  19.170
  308TMC3    C4 4686   1.845   1.149  19.100
  308TMC3    C5 4687   1.884   1.250  19.020
  308TMC3    C6 4688   1.844   1.376  19.048
  308TMC3     C 4689   1.651   1.084  19.186
  308TMC3     O 4690   1.661   0.969  19.155
  308TMC3     H 4691   1.696   1.295  19.344
  308TMC3    H1 4692   1.858   1.048  19.061
  308TMC3    H2 4693   1.862   1.469  18.995
  308TMC3    C7 4694   1.853   1.223  18.889
  308TMC3    C8 4695   1.698   1.510  19.198
  308TMC3    O1 4696   1.735   1.244  18.864
  308TMC3    O2 4697   1.608   1.496  19.281
  309MPD2     C 4698   1.317   1.320  17.614
  309MPD2    C1 4699   1.280   1.414  17.516
  309MPD2    C2 4700   1.178   1.507  17.542
  309MPD2    C3 4701   1.101   1.489  17.656
  309MPD2    C4 4702   1.136   1.388  17.743
  309MPD2    C5 4703   1.240   1.308  17.727
  309MPD2     H 4704   1.152   1.579  17.466
  309MPD2    H1 4705   1.072   1.376  17.830
  309MPD2    H2 4706   1.402   1.253  17.606
  309MPD2    H3 4707   1.280   1.229  17.788
  309MPD2     N 4708   0.975   1.557  17.669
  309MPD2    H5 4709   0.915   1.528  17.745
  309MPD2    N1 4710   1.339   1.427  17.384
  309MPD2    H7 4711   1.287   1.482  17.317
  310TMC3    C1 4712   1.485   1.385  17.203
  310TMC3    C2 4713   1.430   1.490  17.135
  310TMC3    C3 4714   1.481   1.529  17.011
  310TMC3    C4 4715   1.598   1.319  17.155
  310TMC3    C5 4716   1.660   1.378  17.047
  310TMC3    C6 4717   1.600   1.478  16.968
  310TMC3     C 4718   1.444   1.352  17.335
  310TMC3     O 4719   1.514   1.268  17.393
  310TMC3     H 4720   1.333   1.530  17.162
  310TMC3    H1 4721   1.656   1.250  17.216
  310TMC3    H2 4722   1.638   1.505  16.870
  310TMC3    C7 4723   1.747   1.293  16.978
  310TMC3    C8 4724   1.402   1.618  16.936
  310TMC3    O1 4725   1.753   1.171  16.995
  310TMC3    O2 4726   1.287   1.649  16.974
  311MPD2     C 4727   3.337   2.820  12.992
  311MPD2    C1 4728   3.326   2.928  13.075
  311MPD2    C2 4729   3.229   2.920  13.174
  311MPD2    C3 4730   3.151   2.810  13.191
  311MPD2    C4 4731   3.169   2.703  13.110
  311MPD2    C5 4732   3.254   2.708  13.005
  311MPD2     H 4733   3.216   3.004  13.241
  311MPD2    H1 4734   3.119   2.609  13.129
  311MPD2    H2 4735   3.412   2.823  12.913
  311MPD2    H3 4736   3.257   2.625  12.936
  311MPD2     N 4737   3.049   2.813  13.294
  311MPD2    H5 4738   3.041   2.901  13.344
  311MPD2    N1 4739   3.408   3.048  13.064
  311MPD2    H7 4740   3.400   3.112  13.143
  312TMC3    C1 4741   2.853   2.751  13.397
  312TMC3    C2 4742   2.729   2.717  13.336
  312TMC3    C3 4743   2.633   2.814  13.349
  312TMC3    C4 4744   2.866   2.860  13.476
  312TMC3    C5 4745   2.758   2.938  13.499
  312TMC3    C6 4746   2.645   2.927  13.421
  312TMC3     C 4747   2.963   2.707  13.320
  312TMC3     O 4748   2.954   2.593  13.279
  312TMC3     H 4749   2.730   2.626  13.277
  312TMC3    H1 4750   2.957   2.883  13.530
  312TMC3    H2 4751   2.567   3.000  13.439
  312TMC3    C7 4752   2.782   3.049  13.589
  312TMC3    C8 4753   2.503   2.775  13.297
  312TMC3    O1 4754   2.732   3.156  13.565
  312TMC3    O2 4755   2.486   2.655  13.291
  313MPD2     C 4756   2.465   2.155  11.606
  313MPD2    C1 4757   2.503   2.253  11.512
  313MPD2    C2 4758   2.599   2.231  11.414
  313MPD2    C3 4759   2.652   2.105  11.403
  313MPD2    C4 4760   2.622   2.010  11.496
  313MPD2    C5 4761   2.527   2.034  11.588
  313MPD2     H 4762   2.616   2.308  11.339
  313MPD2    H1 4763   2.665   1.911  11.483
  313MPD2    H2 4764   2.392   2.158  11.686
  313MPD2    H3 4765   2.494   1.954  11.653
  313MPD2     N 4766   2.711   2.082  11.276
  313MPD2    H5 4767   2.685   2.143  11.200
  313MPD2    N1 4768   2.448   2.385  11.505
  313MPD2    H7 4769   2.482   2.442  11.428
  314TMC3    C1 4770   2.309   2.572  11.554
  314TMC3    C2 4771   2.409   2.653  11.543
  314TMC3    C3 4772   2.381   2.781  11.505
  314TMC3    C4 4773   2.181   2.599  11.519
  314TMC3    C5 4774   2.158   2.726  11.466
  314TMC3    C6 4775   2.257   2.810  11.459
  314TMC3     C 4776   2.340   2.433  11.580
  314TMC3     O 4777   2.254   2.378  11.649
  314TMC3     H 4778   2.506   2.611  11.565
  314TMC3    H1 4779   2.096   2.532  11.526
  314TMC3    H2 4780   2.235   2.913  11.436
  314TMC3    C7 4781   2.066   2.718  11.353
  314TMC3    C8 4782   2.474   2.890  11.517
  314TMC3    O1 4783   1.975   2.636  11.359
  314TMC3    O2 4784   2.431   3.006  11.530
  315MPD2     C 4785   2.597   1.327  17.736
  315MPD2    C1 4786   2.704   1.365  17.819
  315MPD2    C2 4787   2.762   1.482  17.798
  315MPD2    C3 4788   2.729   1.562  17.689
  315MPD2    C4 4789   2.630   1.526  17.602
  315MPD2    C5 4790   2.558   1.409  17.627
  315MPD2     H 4791   2.846   1.513  17.859
  315MPD2    H1 4792   2.608   1.578  17.510
  315MPD2    H2 4793   2.540   1.237  17.758
  315MPD2    H3 4794   2.469   1.388  17.569
  315MPD2     N 4795   2.796   1.686  17.672
  315MPD2    H5 4796   2.880   1.706  17.726
  315MPD2    N1 4797   2.739   1.284  17.931
  315MPD2    H7 4798   2.814   1.320  17.990
  316TMC3    C1 4799   2.868   1.894  17.587
  316TMC3    C2 4800   2.996   1.872  17.627
  316TMC3    C3 4801   3.091   1.959  17.584
  316TMC3    C4 4802   2.835   1.990  17.496
  316TMC3    C5 4803   2.931   2.082  17.461
  316TMC3    C6 4804   3.059   2.063  17.506
  316TMC3     C 4805   2.768   1.786  17.587
  316TMC3     O 4806   2.671   1.800  17.511
  316TMC3     H 4807   3.021   1.780  17.678
  316TMC3    H1 4808   2.733   2.001  17.460
  316TMC3    H2 4809   3.139   2.133  17.490
  316TMC3    C7 4810   2.886   2.217  17.458
  316TMC3    C8 4811   3.208   1.975  17.668
  316TMC3    O1 4812   2.948   2.300  17.526
  316TMC3    O2 4813   3.276   2.073  17.649
  317MPD2     C 4814   4.404   4.803  12.722
  317MPD2    C1 4815   4.453   4.671  12.711
  317MPD2    C2 4816   4.523   4.621  12.817
  317MPD2    C3 4817   4.568   4.699  12.925
  317MPD2    C4 4818   4.519   0.021  12.931
  317MPD2    C5 4819   4.435   0.071  12.832
  317MPD2     H 4820   4.564   4.521  12.812
  317MPD2    H1 4821   4.533   0.087  13.017
  317MPD2    H2 4822   4.355   0.046  12.638
  317MPD2    H3 4823   4.403   0.174  12.847
  317MPD2     N 4824   4.648   4.637  13.022
  317MPD2    H5 4825   4.656   4.536  13.010
  317MPD2    N1 4826   4.434   4.604  12.588
  317MPD2    H7 4827   4.495   4.524  12.572
  318TMC3    C1 4828   4.747   4.603  13.229
  318TMC3    C2 4829   4.665   4.501  13.247
  318TMC3    C3 4830   4.703   4.396  13.333
  318TMC3    C4 4831   0.060   4.616  13.300
  318TMC3    C5 4832   0.098   4.512  13.383
  318TMC3    C6 4833   0.018   4.400  13.400
  318TMC3     C 4834   4.710   4.697  13.129
  318TMC3     O 4835   4.759   0.003  13.145
  318TMC3     H 4836   4.563   4.512  13.211
  318TMC3    H1 4837   0.120   4.706  13.293
  318TMC3    H2 4838   0.032   4.326  13.478
  318TMC3    C7 4839   0.221   4.536  13.462
  318TMC3    C8 4840   4.620   4.276  13.348
  318TMC3    O1 4841   0.239   4.654  13.482
  318TMC3    O2 4842   4.671   4.164  13.357
  319MPD2     C 4843   0.790   0.967  16.587
  319MPD2    C1 4844   0.676   0.954  16.664
  319MPD2    C2 4845   0.568   0.887  16.606
  319MPD2    C3 4846   0.568   0.837  16.480
  319MPD2    C4 4847   0.683   0.852  16.405
  319MPD2    C5 4848   0.791   0.914  16.461
  319MPD2     H 4849   0.475   0.887  16.662
  319MPD2    H1 4850   0.692   0.819  16.302
  319MPD2    H2 4851   0.882   1.009  16.623
  319MPD2    H3 4852   0.877   0.932  16.398
  319MPD2     N 4853   0.458   0.776  16.417
  319MPD2    H5 4854   0.456   0.782  16.315
  319MPD2    N1 4855   0.661   1.011  16.791
  319MPD2    H7 4856   0.572   0.997  16.838
  320TMC3    C1 4857   0.238   0.705  16.412
  320TMC3    C2 4858   0.208   0.804  16.316
  320TMC3    C3 4859   0.085   0.796  16.249
  320TMC3    C4 4860   0.151   0.601  16.443
  320TMC3    C5 4861   0.031   0.602  16.381
  320TMC3    C6 4862   4.804   0.692  16.281
  320TMC3     C 4863   0.359   0.719  16.489
  320TMC3     O 4864   0.348   0.707  16.609
  320TMC3     H 4865   0.268   0.894  16.306
  320TMC3    H1 4866   0.189   0.531  16.516
  320TMC3    H2 4867   4.704   0.688  16.239
  320TMC3    C7 4868   4.745   0.487  16.406
  320TMC3    C8 4869   0.050   0.910  16.165
  320TMC3    O1 4870   4.660   0.462  16.324
  320TMC3    O2 4871   0.117   1.012  16.178
  321TMC3    C1 4872   0.732   1.103  16.996
  321TMC3    C2 4873   0.653   1.017  17.059
  321TMC3    C3 4874   0.552   1.061  17.142
  321TMC3    C4 4875   0.746   1.236  17.038
  321TMC3    C5 4876   0.650   1.276  17.132
  321TMC3    C6 4877   0.552   1.191  17.174
  321TMC3     C 4878   0.764   1.077  16.859
  321TMC3     O 4879   0.853   1.144  16.809
  321TMC3     H 4880   0.667   0.913  17.031
  321TMC3    H1 4881   0.815   1.306  16.993
  321TMC3    H2 4882   0.479   1.233  17.242
  321TMC3    C7 4883   0.717   1.326  17.251
  321TMC3    C8 4884   0.527   0.987  17.260
  321TMC3    O1 4885   0.828   1.281  17.271
  321TMC3    O2 4886   0.524   1.062  17.355
  322MPD2     C 4887   4.206   2.497  13.761
  322MPD2    C1 4888   4.244   2.426  13.874
  322MPD2    C2 4889   4.282   2.297  13.864
  322MPD2    C3 4890   4.284   2.233  13.739
  322MPD2    C4 4891   4.249   2.306  13.625
  322MPD2    C5 4892   4.204   2.434  13.641
  322MPD2     H 4893   4.309   2.236  13.950
  322MPD2    H1 4894   4.256   2.250  13.532
  322MPD2    H2 4895   4.175   2.601  13.759
  322MPD2    H3 4896   4.167   2.482  13.552
  322MPD2     N 4897   4.341   2.109  13.742
  322MPD2    H5 4898   4.357   2.061  13.830
  322MPD2    N1 4899   4.256   2.502  13.992
  322MPD2    H7 4900   4.243   2.603  13.985
  323TMC3    C1 4901   4.329   2.538  14.216
  323TMC3    C2 4902   4.433   2.621  14.176
  323TMC3    C3 4903   4.532   2.644  14.274
  323TMC3    C4 4904   4.322   2.497  14.347
  323TMC3    C5 4905   4.414   2.540  14.441
  323TMC3    C6 4906   4.523   2.610  14.409
  323TMC3     C 4907   4.283   2.447  14.116
  323TMC3     O 4908   4.288   2.335  14.162
  323TMC3     H 4909   4.433   2.668  14.079
  323TMC3    H1 4910   4.233   2.441  14.375
  323TMC3    H2 4911   4.613   2.607  14.469
  323TMC3    C7 4912   4.452   2.434  14.538
  323TMC3    C8 4913   4.667   2.684  14.220
  323TMC3    O1 4914   4.413   2.323  14.507
  323TMC3    O2 4915   4.760   2.670  14.300
  324MPD2     C 4916   0.901   3.577  14.460
  324MPD2    C1 4917   0.953   3.663  14.361
  324MPD2    C2 4918   0.864   3.693  14.263
  324MPD2    C3 4919   0.728   3.646  14.271
  324MPD2    C4 4920   0.680   3.563  14.375
  324MPD2    C5 4921   0.777   3.525  14.468
  324MPD2     H 4922   0.894   3.750  14.176
  324MPD2    H1 4923   0.578   3.527  14.380
  324MPD2    H2 4924   0.963   3.533  14.538
  324MPD2    H3 4925   0.736   3.461  14.546
  324MPD2     N 4926   0.626   3.684  14.173
  324MPD2    H5 4927   0.532   3.650  14.193
  324MPD2    N1 4928   1.090   3.694  14.353
  324MPD2    H7 4929   1.122   3.765  14.288
  325TMC3    C1 4930   0.524   3.748  13.957
  325TMC3    C2 4931   0.419   3.677  13.991
  325TMC3    C3 4932   0.299   3.691  13.925
  325TMC3    C4 4933   0.510   3.856  13.872
  325TMC3    C5 4934   0.396   3.866  13.796
  325TMC3    C6 4935   0.285   3.791  13.831
  325TMC3     C 4936   0.636   3.757  14.055
  325TMC3     O 4937   0.742   3.806  14.013
  325TMC3     H 4938   0.432   3.590  14.054
  325TMC3    H1 4939   0.591   3.927  13.866
  325TMC3    H2 4940   0.193   3.810  13.776
  325TMC3    C7 4941   0.377   4.007  13.772
  325TMC3    C8 4942   0.200   3.584  13.937
  325TMC3    O1 4943   0.472   4.070  13.735
  325TMC3    O2 4944   0.209   3.501  14.027
  326MPD2     C 4945   2.405   0.640  11.319
  326MPD2    C1 4946   2.412   0.550  11.212
  326MPD2    C2 4947   2.534   0.495  11.174
  326MPD2    C3 4948   2.645   0.528  11.236
  326MPD2    C4 4949   2.641   0.614  11.342
  326MPD2    C5 4950   2.520   0.668  11.384
  326MPD2     H 4951   2.526   0.432  11.086
  326MPD2    H1 4952   2.729   0.650  11.394
  326MPD2    H2 4953   2.312   0.691  11.340
  326MPD2    H3 4954   2.529   0.731  11.472
  326MPD2     N 4955   2.778   0.480  11.203
  326MPD2    H5 4956   2.863   0.515  11.246
  326MPD2    N1 4957   2.307   0.522  11.121
  326MPD2    H7 4958   2.329   0.454  11.049
  327TMC3    C1 4959   2.098   0.507  11.013
  327TMC3    C2 4960   2.011   0.587  10.943
  327TMC3    C3 4961   2.006   0.579  10.811
  327TMC3    C4 4962   2.139   0.389  10.951
  327TMC3    C5 4963   2.127   0.384  10.816
  327TMC3    C6 4964   2.058   0.474  10.741
  327TMC3     C 4965   2.183   0.575  11.117
  327TMC3     O 4966   2.150   0.675  11.177
  327TMC3     H 4967   1.964   0.669  10.996
  327TMC3    H1 4968   2.186   0.308  11.006
  327TMC3    H2 4969   2.048   0.484  10.634
  327TMC3    C7 4970   2.231   0.310  10.744
  327TMC3    C8 4971   1.897   0.664  10.755
  327TMC3    O1 4972   2.241   0.322  10.622
  327TMC3    O2 4973   1.898   0.702  10.638
  328MPD2     C 4974   0.081   4.582  17.496
  328MPD2    C1 4975   0.031   4.507  17.396
  328MPD2    C2 4976   4.802   4.567  17.273
  328MPD2    C3 4977   0.002   4.702  17.261
  328MPD2    C4 4978   0.058   4.775  17.363
  328MPD2    C5 4979   0.096   4.712  17.478
  328MPD2     H 4980   4.766   4.505  17.192
  328MPD2    H1 4981   0.061   0.079  17.364
  328MPD2    H2 4982   0.101   4.549  17.597
  328MPD2    H3 4983   0.135   4.781  17.552
  328MPD2     N 4984   4.742   4.774  17.161
  328MPD2    H5 4985   4.750   0.070  17.174
  328MPD2    N1 4986   4.802   4.378  17.421
  328MPD2    H7 4987   0.012   4.349  17.517
  329TMC3    C1 4988   4.683   4.185  17.434
  329TMC3    C2 4989   4.590   4.241  17.522
  329TMC3    C3 4990   4.477   4.180  17.557
  329TMC3    C4 4991   4.662   4.059  17.384
  329TMC3    C5 4992   4.544   3.995  17.424
  329TMC3    C6 4993   4.460   4.050  17.515
  329TMC3     C 4994   4.752   4.278  17.345
  329TMC3     O 4995   4.720   4.265  17.227
  329TMC3     H 4996   4.604   4.341  17.562
  329TMC3    H1 4997   4.737   4.022  17.315
  329TMC3    H2 4998   4.368   3.996  17.531
  329TMC3    C7 4999   4.556   3.851  17.449
  329TMC3    C8 5000   4.354   4.249  17.591
  329TMC3    O1 5001   4.502   3.809  17.551
  329TMC3    O2 5002   4.254   4.207  17.537
  330TMC3    C1 5003   2.389   4.497   9.680
  330TMC3    C2 5004   2.321   4.383   9.638
  330TMC3    C3 5005   2.354   4.261   9.700
  330TMC3    C4 5006   2.491   4.487   9.767
  330TMC3    C5 5007   2.520   4.373   9.827
  330TMC3    C6 5008   2.456   4.257   9.789
  330TMC3     C 5009   2.336   4.629   9.659
  330TMC3     O 5010   2.365   4.705   9.749
  330TMC3     H 5011   2.236   4.391   9.572
  330TMC3    H1 5012   2.554   4.576   9.766
  330TMC3    H2 5013   2.496   4.160   9.816
  330TMC3    C7 5014   2.641   4.365   9.905
  330TMC3    C8 5015   2.302   4.136   9.642
  330TMC3    O1 5016   2.724   4.454   9.905
  330TMC3    O2 5017   2.250   4.136   9.533
  331MPD2     C 5018   1.087   2.983  13.598
  331MPD2    C1 5019   1.151   2.983  13.475
  331MPD2    C2 5020   1.103   2.899  13.375
  331MPD2    C3 5021   1.004   2.814  13.402
  331MPD2    C4 5022   0.956   2.793  13.535
  331MPD2    C5 5023   0.993   2.887  13.631
  331MPD2     H 5024   1.148   2.892  13.277
  331MPD2    H1 5025   0.871   2.731  13.562
  331MPD2    H2 5026   1.119   3.057  13.671
  331MPD2    H3 5027   0.956   2.875  13.733
  331MPD2     N 5028   0.951   2.734  13.293
  331MPD2    H5 5029   1.000   2.750  13.205
  331MPD2    N1 5030   1.253   3.081  13.447
  331MPD2    H7 5031   1.255   3.165  13.503
  332TMC3    C1 5032   0.849   2.553  13.182
  332TMC3    C2 5033   0.882   2.625  13.073
  332TMC3    C3 5034   0.935   2.548  12.974
  332TMC3    C4 5035   0.853   2.417  13.190
  332TMC3    C5 5036   0.909   2.345  13.092
  332TMC3    C6 5037   0.950   2.408  12.980
  332TMC3     C 5038   0.869   2.618  13.304
  332TMC3     O 5039   0.837   2.563  13.409
  332TMC3     H 5040   0.880   2.733  13.058
  332TMC3    H1 5041   0.828   2.366  13.283
  332TMC3    H2 5042   1.000   2.347  12.906
  332TMC3    C7 5043   0.977   2.228  13.131
  332TMC3    C8 5044   0.987   2.612  12.865
  332TMC3    O1 5045   0.920   2.122  13.104
  332TMC3    O2 5046   1.060   2.708  12.875
  333MPD2     C 5047   0.786   3.408  11.442
  333MPD2    C1 5048   0.819   3.351  11.313
  333MPD2    C2 5049   0.823   3.217  11.306
  333MPD2    C3 5050   0.779   3.135  11.403
  333MPD2    C4 5051   0.739   3.190  11.526
  333MPD2    C5 5052   0.746   3.326  11.552
  333MPD2     H 5053   0.856   3.161  11.219
  333MPD2    H1 5054   0.709   3.128  11.610
  333MPD2    H2 5055   0.793   3.514  11.459
  333MPD2    H3 5056   0.712   3.365  11.647
  333MPD2     N 5057   0.781   3.002  11.368
  333MPD2    H5 5058   0.821   2.976  11.278
  333MPD2    N1 5059   0.861   3.438  11.213
  333MPD2    H7 5060   0.905   3.526  11.238
  334TMC3    C1 5061   0.942   3.509  11.003
  334TMC3    C2 5062   1.021   3.465  10.904
  334TMC3    C3 5063   1.131   3.543  10.857
  334TMC3    C4 5064   0.939   3.643  11.044
  334TMC3    C5 5065   1.038   3.718  10.990
  334TMC3    C6 5066   1.134   3.671  10.902
  334TMC3     C 5067   0.874   3.403  11.078
  334TMC3     O 5068   0.832   3.304  11.021
  334TMC3     H 5069   1.023   3.360  10.877
  334TMC3    H1 5070   0.869   3.684  11.115
  334TMC3    H2 5071   1.216   3.737  10.874
  334TMC3    C7 5072   1.058   3.852  11.054
  334TMC3    C8 5073   1.257   3.472  10.829
  334TMC3    O1 5074   1.174   3.882  11.090
  334TMC3    O2 5075   1.246   3.352  10.790
  335TMC3    C1 5076   0.765   4.547  17.448
  335TMC3    C2 5077   0.709   4.453  17.369
  335TMC3    C3 5078   0.762   4.432  17.248
  335TMC3    C4 5079   0.874   4.628  17.412
  335TMC3    C5 5080   0.927   4.599  17.288
  335TMC3    C6 5081   0.871   4.508  17.206
  335TMC3     C 5082   0.703   4.576  17.579
  335TMC3     O 5083   0.586   4.546  17.598
  335TMC3     H 5084   0.630   4.389  17.407
  335TMC3    H1 5085   0.926   4.695  17.480
  335TMC3    H2 5086   0.907   4.477  17.109
  335TMC3    C7 5087   1.057   4.639  17.245
  335TMC3    C8 5088   0.686   4.365  17.146
  335TMC3    O1 5089   1.100   4.585  17.144
  335TMC3    O2 5090   0.705   4.400  17.029
  336MPD2     C 5091   0.502   2.105  16.471
  336MPD2    C1 5092   0.488   2.046  16.342
  336MPD2    C2 5093   0.503   1.912  16.325
  336MPD2    C3 5094   0.542   1.826  16.426
  336MPD2    C4 5095   0.569   1.885  16.555
  336MPD2    C5 5096   0.545   2.020  16.577
  336MPD2     H 5097   0.469   1.886  16.225
  336MPD2    H1 5098   0.592   1.821  16.639
  336MPD2    H2 5099   0.482   2.209  16.493
  336MPD2    H3 5100   0.555   2.061  16.677
  336MPD2     N 5101   0.555   1.685  16.410
  336MPD2    H5 5102   0.574   1.639  16.499
  336MPD2    N1 5103   0.439   2.119  16.229
  336MPD2    H7 5104   0.412   2.064  16.148
  337TMC3    C1 5105   0.353   2.277  16.097
  337TMC3    C2 5106   0.249   2.200  16.048
  337TMC3    C3 5107   0.185   2.238  15.930
  337TMC3    C4 5108   0.395   2.384  16.024
  337TMC3    C5 5109   0.338   2.413  15.904
  337TMC3    C6 5110   0.227   2.349  15.862
  337TMC3     C 5111   0.417   2.252  16.224
  337TMC3     O 5112   0.469   2.339  16.291
  337TMC3     H 5113   0.200   2.126  16.111
  337TMC3    H1 5114   0.463   2.456  16.069
  337TMC3    H2 5115   0.177   2.391  15.775
  337TMC3    C7 5116   0.347   2.554  15.865
  337TMC3    C8 5117   0.075   2.164  15.875
  337TMC3    O1 5118   0.250   2.598  15.802
  337TMC3    O2 5119   0.051   2.052  15.927
  338MPD2     C 5120   1.163   1.962  19.079
  338MPD2    C1 5121   1.058   1.940  18.983
  338MPD2    C2 5122   0.942   2.019  19.000
  338MPD2    C3 5123   0.925   2.105  19.103
  338MPD2    C4 5124   1.025   2.121  19.196
  338MPD2    C5 5125   1.138   2.048  19.183
  338MPD2     H 5126   0.872   2.014  18.917
  338MPD2    H1 5127   1.016   2.203  19.266
  338MPD2    H2 5128   1.262   1.919  19.073
  338MPD2    H3 5129   1.212   2.067  19.259
  338MPD2     N 5130   0.799   2.174  19.095
  338MPD2    H5 5131   0.735   2.147  19.021
  338MPD2    N1 5132   1.071   1.861  18.866
  338MPD2    H7 5133   0.984   1.845  18.817
  339TMC3    C1 5134   0.608   2.268  19.162
  339TMC3    C2 5135   0.575   2.211  19.044
  339TMC3    C3 5136   0.494   2.099  19.052
  339TMC3    C4 5137   0.538   2.236  19.279
  339TMC3    C5 5138   0.445   2.128  19.278
  339TMC3    C6 5139   0.424   2.060  19.165
  339TMC3     C 5140   0.756   2.270  19.178
  339TMC3     O 5141   0.806   2.305  19.282
  339TMC3     H 5142   0.616   2.252  18.952
  339TMC3    H1 5143   0.567   2.281  19.373
  339TMC3    H2 5144   0.355   1.977  19.163
  339TMC3    C7 5145   0.396   2.098  19.412
  339TMC3    C8 5146   0.505   2.014  18.937
  339TMC3    O1 5147   0.469   2.118  19.503
  339TMC3    O2 5148   0.538   2.078  18.838
  340MPD2     C 5149   0.641   0.053  10.366
  340MPD2    C1 5150   0.692   4.730  10.404
  340MPD2    C2 5151   0.751   4.711  10.531
  340MPD2    C3 5152   0.786   0.020  10.601
  340MPD2    C4 5153   0.732   0.138  10.561
  340MPD2    C5 5154   0.654   0.147  10.451
  340MPD2     H 5155   0.798   4.620  10.567
  340MPD2    H1 5156   0.759   0.227  10.616
  340MPD2    H2 5157   0.569   0.061  10.286
  340MPD2    H3 5158   0.612   0.244  10.429
  340MPD2     N 5159   0.873   0.018  10.714
  340MPD2    H5 5160   0.914   0.106  10.744
  340MPD2    N1 5161   0.672   4.624  10.314
  340MPD2    H7 5162   0.630   4.645  10.223
  341TMC3    C1 5163   0.708   4.416  10.206
  341TMC3    C2 5164   0.702   4.280  10.219
  341TMC3    C3 5165   0.721   4.204  10.107
  341TMC3    C4 5166   0.723   4.483  10.084
  341TMC3    C5 5167   0.729   4.404   9.972
  341TMC3    C6 5168   0.730   4.266   9.984
  341TMC3     C 5169   0.704   4.491  10.335
  341TMC3     O 5170   0.743   4.440  10.437
  341TMC3     H 5171   0.698   4.235  10.318
  341TMC3    H1 5172   0.725   4.591  10.074
  341TMC3    H2 5173   0.719   4.206   9.894
  341TMC3    C7 5174   0.813   4.465   9.862
  341TMC3    C8 5175   0.696   4.058  10.122
  341TMC3    O1 5176   0.872   4.381   9.796
  341TMC3    O2 5177   0.616   4.030  10.211
  342MPD2     C 5178   3.426   2.605  17.336
  342MPD2    C1 5179   3.493   2.591  17.453
  342MPD2    C2 5180   3.531   2.699  17.523
  342MPD2    C3 5181   3.491   2.827  17.474
  342MPD2    C4 5182   3.410   2.843  17.364
  342MPD2    C5 5183   3.384   2.731  17.290
  342MPD2     H 5184   3.579   2.700  17.620
  342MPD2    H1 5185   3.384   2.939  17.321
  342MPD2    H2 5186   3.397   2.520  17.277
  342MPD2    H3 5187   3.320   2.735  17.203
  342MPD2     N 5188   3.528   2.948  17.537
  342MPD2    H5 5189   3.473   3.031  17.516
  342MPD2    N1 5190   3.524   2.458  17.504
  342MPD2    H7 5191   3.576   2.453  17.591
  343TMC3    C1 5192   3.587   2.231  17.481
  343TMC3    C2 5193   3.723   2.257  17.483
  343TMC3    C3 5194   3.807   2.145  17.455
  343TMC3    C4 5195   3.536   2.106  17.444
  343TMC3    C5 5196   3.623   2.001  17.444
  343TMC3    C6 5197   3.754   2.015  17.449
  343TMC3     C 5198   3.493   2.337  17.446
  343TMC3     O 5199   3.425   2.310  17.347
  343TMC3     H 5200   3.761   2.357  17.500
  343TMC3    H1 5201   3.429   2.088  17.449
  343TMC3    H2 5202   3.822   1.931  17.439
  343TMC3    C7 5203   3.560   1.880  17.494
  343TMC3    C8 5204   3.951   2.170  17.421
  343TMC3    O1 5205   3.464   1.835  17.442
  343TMC3    O2 5206   4.002   2.262  17.485
  344MPD2     C 5207   4.217   2.526  11.008
  344MPD2    C1 5208   4.316   2.442  10.955
  344MPD2    C2 5209   4.398   2.494  10.852
  344MPD2    C3 5210   4.398   2.623  10.821
  344MPD2    C4 5211   4.302   2.712  10.881
  344MPD2    C5 5212   4.208   2.656  10.965
  344MPD2     H 5213   4.460   2.418  10.806
  344MPD2    H1 5214   4.301   2.819  10.862
  344MPD2    H2 5215   4.136   2.493  11.072
  344MPD2    H3 5216   4.133   2.721  11.007
  344MPD2     N 5217   4.493   2.677  10.732
  344MPD2    H5 5218   4.486   2.775  10.706
  344MPD2    N1 5219   4.301   2.301  10.970
  344MPD2    H7 5220   4.349   2.245  10.900
  345TMC3    C1 5221   4.689   2.696  10.607
  345TMC3    C2 5222   0.020   2.686  10.623
  345TMC3    C3 5223   0.087   2.800  10.606
  345TMC3    C4 5224   4.636   2.787  10.523
  345TMC3    C5 5225   4.714   2.893  10.485
  345TMC3    C6 5226   0.038   2.905  10.527
  345TMC3     C 5227   4.610   2.616  10.693
  345TMC3     O 5228   4.662   2.528  10.752
  345TMC3     H 5229   0.051   2.606  10.688
  345TMC3    H1 5230   4.527   2.791  10.522
  345TMC3    H2 5231   0.086   3.001  10.510
  345TMC3    C7 5232   4.657   2.994  10.400
  345TMC3    C8 5233   0.159   2.844  10.717
  345TMC3    O1 5234   4.718   3.096  10.379
  345TMC3    O2 5235   0.132   2.813  10.833
  346MPD2     C 5236   4.268   3.669  13.971
  346MPD2    C1 5237   4.369   3.750  13.923
  346MPD2    C2 5238   4.407   3.865  13.991
  346MPD2    C3 5239   4.332   3.908  14.094
  346MPD2    C4 5240   4.215   3.840  14.127
  346MPD2    C5 5241   4.191   3.714  14.075
  346MPD2     H 5242   4.497   3.916  13.959
  346MPD2    H1 5243   4.164   3.874  14.216
  346MPD2    H2 5244   4.250   3.571  13.928
  346MPD2    H3 5245   4.102   3.660  14.106
  346MPD2     N 5246   4.374   4.022  14.159
  346MPD2    H5 5247   4.456   4.069  14.123
  346MPD2    N1 5248   4.443   3.720  13.810
  346MPD2    H7 5249   4.519   3.782  13.781
  347TMC3    C1 5250   4.364   4.220  14.274
  347TMC3    C2 5251   4.444   4.244  14.165
  347TMC3    C3 5252   4.563   4.299  14.188
  347TMC3    C4 5253   4.404   4.242  14.405
  347TMC3    C5 5254   4.534   4.291  14.418
  347TMC3    C6 5255   4.616   4.314  14.317
  347TMC3     C 5256   4.305   4.090  14.262
  347TMC3     O 5257   4.223   4.050  14.345
  347TMC3     H 5258   4.405   4.222  14.066
  347TMC3    H1 5259   4.340   4.218  14.489
  347TMC3    H2 5260   4.719   4.346  14.328
  347TMC3    C7 5261   4.597   4.272  14.549
  347TMC3    C8 5262   4.652   4.244  14.093
  347TMC3    O1 5263   4.519   4.250  14.644
  347TMC3    O2 5264   4.627   4.136  14.043
  348MPD2     C 5265   3.026   3.898  12.376
  348MPD2    C1 5266   3.142   3.889  12.303
  348MPD2    C2 5267   3.145   3.967  12.182
  348MPD2    C3 5268   3.035   4.044  12.141
  348MPD2    C4 5269   2.923   4.047  12.219
  348MPD2    C5 5270   2.928   3.981  12.336
  348MPD2     H 5271   3.228   3.962  12.111
  348MPD2    H1 5272   2.838   4.110  12.194
  348MPD2    H2 5273   2.990   3.844  12.463
  348MPD2    H3 5274   2.838   3.980  12.397
  348MPD2     N 5275   3.043   4.101  12.006
  348MPD2    H5 5276   3.120   4.070  11.948
  348MPD2    N1 5277   3.243   3.794  12.342
  348MPD2    H7 5278   3.322   3.773  12.283
  349TMC3    C1 5279   3.328   3.603  12.436
  349TMC3    C2 5280   3.279   3.479  12.475
  349TMC3    C3 5281   3.316   3.373  12.405
  349TMC3    C4 5282   3.416   3.615  12.332
  349TMC3    C5 5283   3.451   3.505  12.262
  349TMC3    C6 5284   3.403   3.385  12.300
  349TMC3     C 5285   3.220   3.700  12.438
  349TMC3     O 5286   3.127   3.673  12.515
  349TMC3     H 5287   3.207   3.464  12.554
  349TMC3    H1 5288   3.472   3.708  12.326
  349TMC3    H2 5289   3.436   3.295  12.249
  349TMC3    C7 5290   3.566   3.514  12.170
  349TMC3    C8 5291   3.310   3.242  12.471
  349TMC3    O1 5292   3.645   3.424  12.195
  349TMC3    O2 5293   3.315   3.234  12.595
  350MPD2     C 5294   2.110   1.900  10.792
  350MPD2    C1 5295   2.199   1.853  10.696
  350MPD2    C2 5296   2.327   1.900  10.696
  350MPD2    C3 5297   2.373   1.984  10.786
  350MPD2    C4 5298   2.277   2.026  10.885
  350MPD2    C5 5299   2.146   1.988  10.890
  350MPD2     H 5300   2.407   1.862  10.633
  350MPD2    H1 5301   2.298   2.099  10.962
  350MPD2    H2 5302   2.006   1.872  10.805
  350MPD2    H3 5303   2.084   2.021  10.972
  350MPD2     N 5304   2.509   2.033  10.771
  350MPD2    H5 5305   2.554   1.993  10.689
  350MPD2    N1 5306   2.172   1.756  10.596
  350MPD2    H7 5307   2.247   1.727  10.534
  351TMC3    C1 5308   2.055   1.574  10.501
  351TMC3    C2 5309   2.171   1.505  10.476
  351TMC3    C3 5310   2.168   1.404  10.384
  351TMC3    C4 5311   1.931   1.541  10.446
  351TMC3    C5 5312   1.934   1.433  10.363
  351TMC3    C6 5313   2.057   1.362  10.324
  351TMC3     C 5314   2.052   1.691  10.583
  351TMC3     O 5315   1.944   1.734  10.624
  351TMC3     H 5316   2.265   1.549  10.505
  351TMC3    H1 5317   1.843   1.601  10.466
  351TMC3    H2 5318   2.059   1.271  10.265
  351TMC3    C7 5319   1.829   1.442  10.259
  351TMC3    C8 5320   2.289   1.364  10.314
  351TMC3    O1 5321   1.742   1.525  10.274
  351TMC3    O2 5322   2.281   1.317  10.196
  352MPD2     C 5323   0.741   3.913  18.700
  352MPD2    C1 5324   0.711   3.896  18.831
  352MPD2    C2 5325   0.813   3.856  18.915
  352MPD2    C3 5326   0.934   3.815  18.870
  352MPD2    C4 5327   0.953   3.825  18.732
  352MPD2    C5 5328   0.864   3.883  18.651
  352MPD2     H 5329   0.789   3.849  19.020
  352MPD2    H1 5330   1.047   3.791  18.690
  352MPD2    H2 5331   0.666   3.944  18.628
  352MPD2    H3 5332   0.892   3.896  18.547
  352MPD2     N 5333   1.036   3.764  18.949
  352MPD2    H5 5334   1.112   3.722  18.898
  352MPD2    N1 5335   0.583   3.920  18.879
  352MPD2    H7 5336   0.514   3.966  18.821
  353TMC3    C1 5337   1.159   3.673  19.143
  353TMC3    C2 5338   1.252   3.617  19.061
  353TMC3    C3 5339   1.304   3.501  19.102
  353TMC3    C4 5340   1.129   3.622  19.268
  353TMC3    C5 5341   1.159   3.487  19.285
  353TMC3    C6 5342   1.251   3.431  19.204
  353TMC3     C 5343   1.041   3.752  19.087
  353TMC3     O 5344   0.954   3.780  19.170
  353TMC3     H 5345   1.290   3.666  18.972
  353TMC3    H1 5346   1.058   3.662  19.340
  353TMC3    H2 5347   1.271   3.324  19.205
  353TMC3    C7 5348   1.037   3.405  19.279
  353TMC3    C8 5349   1.370   3.421  19.004
  353TMC3    O1 5350   1.022   3.334  19.180
  353TMC3    O2 5351   1.327   3.424  18.889
  354TMC3    C1 5352   2.371   0.143  13.829
  354TMC3    C2 5353   2.473   0.232  13.855
  354TMC3    C3 5354   2.585   0.238  13.778
  354TMC3    C4 5355   2.380   0.062  13.719
  354TMC3    C5 5356   2.499   0.058  13.642
  354TMC3    C6 5357   2.601   0.146  13.676
  354TMC3     C 5358   2.308   0.072  13.943
  354TMC3     O 5359   2.209   0.003  13.928
  354TMC3     H 5360   2.466   0.304  13.936
  354TMC3    H1 5361   2.305   4.797  13.682
  354TMC3    H2 5362   2.689   0.165  13.616
  354TMC3    C7 5363   2.487   0.028  13.503
  354TMC3    C8 5364   2.646   0.366  13.749
  354TMC3    O1 5365   2.376   0.042  13.455
  354TMC3    O2 5366   2.567   0.454  13.726
  355MPD2     C 5367   2.631   1.064  12.158
  355MPD2    C1 5368   2.722   0.990  12.080
  355MPD2    C2 5369   2.814   0.912  12.144
  355MPD2    C3 5370   2.805   0.892  12.281
  355MPD2    C4 5371   2.704   0.956  12.350
  355MPD2    C5 5372   2.626   1.050  12.293
  355MPD2     H 5373   2.904   0.877  12.094
  355MPD2    H1 5374   2.701   0.935  12.456
  355MPD2    H2 5375   2.562   1.136  12.116
  355MPD2    H3 5376   2.559   1.113  12.351
  355MPD2     N 5377   2.913   0.841  12.352
  355MPD2    H5 5378   2.926   0.871  12.448
  355MPD2    N1 5379   2.737   1.028  11.943
  355MPD2    H7 5380   2.694   1.115  11.913
  356TMC3    C1 5381   3.138   0.833  12.328
  356TMC3    C2 5382   3.212   0.883  12.231
  356TMC3    C3 5383   3.272   1.001  12.258
  356TMC3    C4 5384   3.149   0.870  12.460
  356TMC3    C5 5385   3.207   0.990  12.484
  356TMC3    C6 5386   3.279   1.051  12.383
  356TMC3     C 5387   3.018   0.771  12.293
  356TMC3     O 5388   3.015   0.693  12.198
  356TMC3     H 5389   3.202   0.828  12.138
  356TMC3    H1 5390   3.098   0.811  12.535
  356TMC3    H2 5391   3.320   1.148  12.409
  356TMC3    C7 5392   3.248   1.020  12.624
  356TMC3    C8 5393   3.327   1.057  12.133
  356TMC3    O1 5394   3.260   0.922  12.702
  356TMC3    O2 5395   3.269   1.018  12.032
  357MPD2     C 5396   2.563   0.561  18.324
  357MPD2    C1 5397   2.525   0.534  18.451
  357MPD2    C2 5398   2.412   0.596  18.496
  357MPD2    C3 5399   2.335   0.678  18.405
  357MPD2    C4 5400   2.370   0.693  18.274
  357MPD2    C5 5401   2.482   0.629  18.234
  357MPD2     H 5402   2.375   0.583  18.597
  357MPD2    H1 5403   2.315   0.764  18.212
  357MPD2    H2 5404   2.654   0.512  18.293
  357MPD2    H3 5405   2.521   0.649  18.135
  357MPD2     N 5406   2.219   0.742  18.437
  357MPD2    H5 5407   2.163   0.784  18.363
  357MPD2    N1 5408   2.590   0.423  18.513
  357MPD2    H7 5409   2.654   0.367  18.458
  358TMC3    C1 5410   2.569   0.250  18.664
  358TMC3    C2 5411   2.544   0.166  18.561
  358TMC3    C3 5412   2.477   0.054  18.599
  358TMC3    C4 5413   2.539   0.226  18.794
  358TMC3    C5 5414   2.493   0.100  18.823
  358TMC3    C6 5415   2.448   0.019  18.729
  358TMC3     C 5416   2.568   0.396  18.643
  358TMC3     O 5417   2.523   0.468  18.733
  358TMC3     H 5418   2.573   0.179  18.458
  358TMC3    H1 5419   2.579   0.289  18.873
  358TMC3    H2 5420   2.408   4.728  18.762
  358TMC3    C7 5421   2.455   0.085  18.961
  358TMC3    C8 5422   2.446   4.766  18.485
  358TMC3    O1 5423   2.482   4.777  19.011
  358TMC3    O2 5424   2.514   4.778  18.386
  359MPD2     C 5425   2.745   4.715  12.633
  359MPD2    C1 5426   2.729   4.631  12.526
  359MPD2    C2 5427   2.633   4.527  12.526
  359MPD2    C3 5428   2.550   4.520  12.639
  359MPD2    C4 5429   2.563   4.612  12.740
  359MPD2    C5 5430   2.656   4.705  12.743
  359MPD2     H 5431   2.620   4.470  12.435
  359MPD2    H1 5432   2.483   4.618  12.813
  359MPD2    H2 5433   2.822   4.791  12.631
  359MPD2    H3 5434   2.655   4.790  12.810
  359MPD2     N 5435   2.458   4.415  12.660
  359MPD2    H5 5436   2.424   4.408  12.756
  359MPD2    N1 5437   2.801   4.643  12.405
  359MPD2    H7 5438   2.762   4.595  12.325
  360TMC3    C1 5439   2.948   4.726  12.254
  360TMC3    C2 5440   3.082   4.758  12.240
  360TMC3    C3 5441   3.125   4.754  12.110
  360TMC3    C4 5442   2.880   4.666  12.152
  360TMC3    C5 5443   2.939   4.638  12.035
  360TMC3    C6 5444   3.063   4.689  12.010
  360TMC3     C 5445   2.906   4.725  12.389
  360TMC3     O 5446   2.978   4.785  12.470
  360TMC3     H 5447   3.134   0.023  12.304
  360TMC3    H1 5448   2.772   4.659  12.163
  360TMC3    H2 5449   3.119   4.686  11.917
  360TMC3    C7 5450   2.869   4.604  11.911
  360TMC3    C8 5451   3.253   0.016  12.087
  360TMC3    O1 5452   2.921   4.640  11.810
  360TMC3    O2 5453   3.262   0.127  12.131
  361MPD2     C 5454   4.486   2.813  16.811
  361MPD2    C1 5455   4.511   2.910  16.899
  361MPD2    C2 5456   4.615   2.909  16.990
  361MPD2    C3 5457   4.710   2.804  16.984
  361MPD2    C4 5458   4.700   2.709  16.884
  361MPD2    C5 5459   4.586   2.715  16.808
  361MPD2     H 5460   4.616   2.983  17.070
  361MPD2    H1 5461   4.765   2.622  16.882
  361MPD2    H2 5462   4.404   2.815  16.740
  361MPD2    H3 5463   4.564   2.641  16.731
  361MPD2     N 5464   0.013   2.794  17.068
  361MPD2    H5 5465   0.072   2.713  17.054
  361MPD2    N1 5466   4.412   3.011  16.918
  361MPD2    H7 5467   4.417   3.065  17.004
  362TMC3    C1 5468   4.228   3.157  16.863
  362TMC3    C2 5469   4.184   3.155  16.992
  362TMC3    C3 5470   4.093   3.247  17.025
  362TMC3    C4 5471   4.183   3.238  16.765
  362TMC3    C5 5472   4.102   3.335  16.806
  362TMC3    C6 5473   4.055   3.337  16.934
  362TMC3     C 5474   4.320   3.051  16.824
  362TMC3     O 5475   4.322   3.037  16.702
  362TMC3     H 5476   4.215   3.080  17.064
  362TMC3    H1 5477   4.225   3.244  16.666
  362TMC3    H2 5478   3.987   3.417  16.962
  362TMC3    C7 5479   4.027   3.423  16.714
  362TMC3    C8 5480   4.003   3.222  17.133
  362TMC3    O1 5481   3.973   3.521  16.759
  362TMC3    O2 5482   4.043   3.143  17.218
  363TMC3    C1 5483   2.856   1.086   9.486
  363TMC3    C2 5484   2.979   1.065   9.541
  363TMC3    C3 5485   3.006   1.141   9.652
  363TMC3    C4 5486   2.760   1.172   9.536
  363TMC3    C5 5487   2.796   1.249   9.648
  363TMC3    C6 5488   2.916   1.222   9.709
  363TMC3     C 5489   2.813   1.032   9.356
  363TMC3     O 5490   2.707   1.073   9.314
  363TMC3     H 5491   3.061   1.013   9.492
  363TMC3    H1 5492   2.667   1.195   9.484
  363TMC3    H2 5493   2.939   1.270   9.803
  363TMC3    C7 5494   2.710   1.361   9.675
  363TMC3    C8 5495   3.113   1.099   9.740
  363TMC3    O1 5496   2.598   1.359   9.634
  363TMC3    O2 5497   3.162   1.183   9.814
  364MPD2     C 5498   1.517   1.000  10.827
  364MPD2    C1 5499   1.633   1.004  10.750
  364MPD2    C2 5500   1.718   0.900  10.749
  364MPD2    C3 5501   1.706   0.791  10.833
  364MPD2    C4 5502   1.605   0.792  10.923
  364MPD2    C5 5503   1.508   0.897  10.922
  364MPD2     H 5504   1.815   0.910  10.701
  364MPD2    H1 5505   1.585   0.707  10.988
  364MPD2    H2 5506   1.431   1.065  10.819
  364MPD2    H3 5507   1.418   0.896  10.981
  364MPD2     N 5508   1.796   0.693  10.847
  364MPD2    H5 5509   1.792   0.636  10.931
  364MPD2    N1 5510   1.641   1.108  10.654
  364MPD2    H7 5511   1.564   1.173  10.647
  365TMC3    C1 5512   1.868   1.104  10.581
  365TMC3    C2 5513   1.935   1.016  10.504
  365TMC3    C3 5514   2.070   1.007  10.515
  365TMC3    C4 5515   1.931   1.182  10.666
  365TMC3    C5 5516   2.067   1.190  10.657
  365TMC3    C6 5517   2.143   1.094  10.590
  365TMC3     C 5518   1.731   1.140  10.555
  365TMC3     O 5519   1.709   1.236  10.479
  365TMC3     H 5520   1.881   0.965  10.425
  365TMC3    H1 5521   1.873   1.256  10.720
  365TMC3    H2 5522   2.251   1.093  10.592
  365TMC3    C7 5523   2.132   1.285  10.739
  365TMC3    C8 5524   2.130   0.912  10.422
  365TMC3    O1 5525   2.237   1.336  10.702
  365TMC3    O2 5526   2.236   0.938  10.369
  366MPD2     C 5527   0.137   1.079  15.500
  366MPD2    C1 5528   0.231   1.176  15.526
  366MPD2    C2 5529   0.364   1.155  15.503
  366MPD2    C3 5530   0.406   1.045  15.425
  366MPD2    C4 5531   0.307   0.949  15.392
  366MPD2    C5 5532   0.180   0.970  15.429
  366MPD2     H 5533   0.429   1.236  15.533
  366MPD2    H1 5534   0.342   0.864  15.334
  366MPD2    H2 5535   0.032   1.093  15.521
  366MPD2    H3 5536   0.104   0.903  15.392
  366MPD2     N 5537   0.538   1.056  15.363
  366MPD2    H5 5538   0.592   1.125  15.415
  366MPD2    N1 5539   0.186   1.296  15.580
  366MPD2    H7 5540   0.258   1.356  15.618
  367TMC3    C1 5541   0.059   1.493  15.611
  367TMC3    C2 5542   0.158   1.537  15.700
  367TMC3    C3 5543   0.185   1.671  15.698
  367TMC3    C4 5544   4.800   1.579  15.535
  367TMC3    C5 5545   0.004   1.712  15.554
  367TMC3    C6 5546   0.109   1.760  15.625
  367TMC3     C 5547   0.058   1.355  15.560
  367TMC3     O 5548   4.768   1.323  15.501
  367TMC3     H 5549   0.206   1.466  15.767
  367TMC3    H1 5550   4.728   1.536  15.467
  367TMC3    H2 5551   0.130   1.864  15.648
  367TMC3    C7 5552   4.721   1.808  15.487
  367TMC3    C8 5553   0.298   1.713  15.787
  367TMC3    O1 5554   4.764   1.918  15.490
  367TMC3    O2 5555   0.336   1.636  15.871
  368MPD2     C 5556   1.838   3.176  13.749
  368MPD2    C1 5557   1.820   3.275  13.655
  368MPD2    C2 5558   1.932   3.303  13.576
  368MPD2    C3 5559   2.054   3.248  13.600
  368MPD2    C4 5560   2.075   3.163  13.712
  368MPD2    C5 5561   1.961   3.126  13.780
  368MPD2     H 5562   1.910   3.374  13.497
  368MPD2    H1 5563   2.169   3.113  13.734
  368MPD2    H2 5564   1.756   3.146  13.813
  368MPD2    H3 5565   1.970   3.046  13.854
  368MPD2     N 5566   2.157   3.275  13.513
  368MPD2    H5 5567   2.252   3.245  13.530
  368MPD2    N1 5568   1.699   3.344  13.648
  368MPD2    H7 5569   1.623   3.313  13.709
  369TMC3    C1 5570   1.559   3.519  13.585
  369TMC3    C2 5571   1.559   3.645  13.529
  369TMC3    C3 5572   1.435   3.707  13.506
  369TMC3    C4 5573   1.443   3.454  13.617
  369TMC3    C5 5574   1.320   3.516  13.582
  369TMC3    C6 5575   1.311   3.644  13.530
  369TMC3     C 5576   1.683   3.454  13.564
  369TMC3     O 5577   1.749   3.500  13.470
  369TMC3     H 5578   1.655   3.695  13.520
  369TMC3    H1 5579   1.444   3.351  13.652
  369TMC3    H2 5580   1.219   3.694  13.503
  369TMC3    C7 5581   1.193   3.438  13.586
  369TMC3    C8 5582   1.441   3.823  13.421
  369TMC3    O1 5583   1.208   3.322  13.622
  369TMC3    O2 5584   1.343   3.845  13.357
  370TMC3    C1 5585   0.824   3.938  16.387
  370TMC3    C2 5586   0.759   3.862  16.475
  370TMC3    C3 5587   0.746   3.729  16.443
  370TMC3    C4 5588   0.873   3.889  16.275
  370TMC3    C5 5589   0.857   3.759  16.242
  370TMC3    C6 5590   0.798   3.672  16.331
  370TMC3     C 5591   0.906   4.034  16.452
  370TMC3     O 5592   0.943   4.029  16.566
  370TMC3     H 5593   0.730   3.908  16.569
  370TMC3    H1 5594   0.940   3.952  16.217
  370TMC3    H2 5595   0.782   3.565  16.318
  370TMC3    C7 5596   0.936   3.709  16.122
  370TMC3    C8 5597   0.727   3.641  16.554
  370TMC3    O1 5598   0.964   3.787  16.033
  370TMC3    O2 5599   0.732   3.518  16.541
  371TMC3    C1 5600   2.120   2.175  15.727
  371TMC3    C2 5601   2.095   2.200  15.858
  371TMC3    C3 5602   2.106   2.331  15.892
  371TMC3    C4 5603   2.148   2.269  15.631
  371TMC3    C5 5604   2.160   2.395  15.678
  371TMC3    C6 5605   2.140   2.425  15.805
  371TMC3     C 5606   2.127   2.035  15.685
  371TMC3     O 5607   2.176   2.006  15.575
  371TMC3     H 5608   2.073   2.122  15.931
  371TMC3    H1 5609   2.162   2.242  15.527
  371TMC3    H2 5610   2.121   2.525  15.842
  371TMC3    C7 5611   2.219   2.495  15.592
  371TMC3    C8 5612   2.106   2.372  16.025
  371TMC3    O1 5613   2.186   2.489  15.477
  371TMC3    O2 5614   2.171   2.302  16.103
  372MPD2     C 5615   1.644   3.555  13.952
  372MPD2    C1 5616   1.765   3.481  13.959
  372MPD2    C2 5617   1.756   3.366  14.041
  372MPD2    C3 5618   1.638   3.323  14.099
  372MPD2    C4 5619   1.521   3.396  14.077
  372MPD2    C5 5620   1.527   3.517  14.014
  372MPD2     H 5621   1.846   3.304  14.041
  372MPD2    H1 5622   1.426   3.365  14.120
  372MPD2    H2 5623   1.636   3.647  13.896
  372MPD2    H3 5624   1.437   3.578  14.004
  372MPD2     N 5625   1.648   3.192  14.146
  372MPD2    H5 5626   1.728   3.136  14.120
  372MPD2    N1 5627   1.888   3.511  13.888
  372MPD2    H7 5628   1.967   3.450  13.909
  373TMC3    C1 5629   1.575   2.990  14.252
  373TMC3    C2 5630   1.488   2.949  14.345
  373TMC3    C3 5631   1.466   2.818  14.365
  373TMC3    C4 5632   1.632   2.905  14.162
  373TMC3    C5 5633   1.607   2.770  14.176
  373TMC3    C6 5634   1.529   2.728  14.280
  373TMC3     C 5635   1.549   3.133  14.221
  373TMC3     O 5636   1.464   3.199  14.281
  373TMC3     H 5637   1.447   3.031  14.403
  373TMC3    H1 5638   1.687   2.947  14.079
  373TMC3    H2 5639   1.516   2.622  14.300
  373TMC3    C7 5640   1.702   2.684  14.105
  373TMC3    C8 5641   1.422   2.773  14.491
  373TMC3    O1 5642   1.751   2.721  13.999
  373TMC3    O2 5643   1.336   2.686  14.495
  374TMC3    C1 5644   1.917   3.915   9.955
  374TMC3    C2 5645   1.969   4.034   9.996
  374TMC3    C3 5646   1.994   4.125   9.902
  374TMC3    C4 5647   1.888   3.890   9.822
  374TMC3    C5 5648   1.934   3.985   9.732
  374TMC3    C6 5649   1.983   4.110   9.768
  374TMC3     C 5650   1.870   3.818  10.052
  374TMC3     O 5651   1.800   3.730  10.000
  374TMC3     H 5652   1.985   4.060  10.100
  374TMC3    H1 5653   1.865   3.791   9.786
  374TMC3    H2 5654   2.006   4.193   9.702
  374TMC3    C7 5655   1.898   3.957   9.599
  374TMC3    C8 5656   2.072   4.249   9.933
  374TMC3    O1 5657   1.836   3.851   9.574
  374TMC3    O2 5658   2.043   4.350   9.870
  375MPD2     C 5659   2.303   4.486  16.868
  375MPD2    C1 5660   2.185   4.440  16.809
  375MPD2    C2 5661   2.198   4.356  16.701
  375MPD2    C3 5662   2.328   4.321  16.651
  375MPD2    C4 5663   2.440   4.356  16.722
  375MPD2    C5 5664   2.431   4.446  16.827
  375MPD2     H 5665   2.108   4.324  16.650
  375MPD2    H1 5666   2.536   4.317  16.691
  375MPD2    H2 5667   2.286   4.551  16.954
  375MPD2    H3 5668   2.521   4.480  16.878
  375MPD2     N 5669   2.340   4.226  16.550
  375MPD2    H5 5670   2.429   4.176  16.545
  375MPD2    N1 5671   2.055   4.471  16.855
  375MPD2    H7 5672   1.987   4.419  16.802
  376TMC3    C1 5673   2.259   4.086  16.383
  376TMC3    C2 5674   2.337   3.985  16.440
  376TMC3    C3 5675   2.387   3.882  16.361
  376TMC3    C4 5676   2.229   4.082  16.255
  376TMC3    C5 5677   2.283   3.984  16.179
  376TMC3    C6 5678   2.362   3.880  16.229
  376TMC3     C 5679   2.249   4.212  16.449
  376TMC3     O 5680   2.143   4.275  16.432
  376TMC3     H 5681   2.369   3.993  16.543
  376TMC3    H1 5682   2.174   4.167  16.218
  376TMC3    H2 5683   2.433   3.824  16.170
  376TMC3    C7 5684   2.287   4.018  16.039
  376TMC3    C8 5685   2.526   3.856  16.391
  376TMC3    O1 5686   2.258   4.133  16.014
  376TMC3    O2 5687   2.608   3.873  16.305
  377MPD2     C 5688   0.654   3.982  12.730
  377MPD2    C1 5689   0.671   3.865  12.798
  377MPD2    C2 5690   0.571   3.822  12.880
  377MPD2    C3 5691   0.457   3.899  12.902
  377MPD2    C4 5692   0.445   4.020  12.839
  377MPD2    C5 5693   0.544   4.064  12.750
  377MPD2     H 5694   0.575   3.720  12.917
  377MPD2    H1 5695   0.349   4.070  12.842
  377MPD2    H2 5696   0.737   4.014  12.668
  377MPD2    H3 5697   0.541   4.153  12.687
  377MPD2     N 5698   0.338   3.839  12.957
  377MPD2    H5 5699   0.250   3.886  12.938
  377MPD2    N1 5700   0.787   3.790  12.771
  377MPD2    H7 5701   0.868   3.834  12.729
  378TMC3    C1 5702   0.891   3.587  12.433
  378TMC3    C2 5703   0.826   3.576  12.553
  378TMC3    C3 5704   0.896   3.615  12.663
  378TMC3    C4 5705   1.003   3.659  12.423
  378TMC3    C5 5706   1.065   3.701  12.536
  378TMC3    C6 5707   1.017   3.679  12.667
  378TMC3     C 5708   0.789   3.649  12.348
  378TMC3     O 5709   0.692   3.702  12.400
  378TMC3     H 5710   0.737   3.514  12.556
  378TMC3    H1 5711   1.044   3.683  12.325
  378TMC3    H2 5712   1.064   3.706  12.761
  378TMC3    C7 5713   1.188   3.772  12.536
  378TMC3    C8 5714   0.790   3.659  12.757
  378TMC3    O1 5715   1.261   3.766  12.637
  378TMC3    O2 5716   0.697   3.581  12.778
  379MPD2     C 5717   1.374   1.878  16.489
  379MPD2    C1 5718   1.276   1.802  16.552
  379MPD2    C2 5719   1.311   1.742  16.677
  379MPD2    C3 5720   1.434   1.754  16.733
  379MPD2    C4 5721   1.522   1.836  16.668
  379MPD2    C5 5722   1.499   1.892  16.547
  379MPD2     H 5723   1.237   1.682  16.729
  379MPD2    H1 5724   1.609   1.869  16.724
  379MPD2    H2 5725   1.348   1.922  16.393
  379MPD2    H3 5726   1.575   1.952  16.498
  379MPD2     N 5727   1.480   1.686  16.849
  379MPD2    H5 5728   1.580   1.694  16.865
  379MPD2    N1 5729   1.152   1.786  16.481
  379MPD2    H7 5730   1.153   1.842  16.397
  380TMC3    C1 5731   0.977   1.666  16.390
  380TMC3    C2 5732   0.996   1.555  16.312
  380TMC3    C3 5733   0.958   1.558  16.180
  380TMC3    C4 5734   0.905   1.772  16.346
  380TMC3    C5 5735   0.853   1.762  16.222
  380TMC3    C6 5736   0.873   1.656  16.140
  380TMC3     C 5737   1.069   1.676  16.502
  380TMC3     O 5738   1.077   1.583  16.574
  380TMC3     H 5739   1.048   1.473  16.359
  380TMC3    H1 5740   0.897   1.868  16.397
  380TMC3    H2 5741   0.871   1.659  16.031
  380TMC3    C7 5742   0.808   1.884  16.160
  380TMC3    C8 5743   1.069   1.543  16.088
  380TMC3    O1 5744   0.824   1.998  16.196
  380TMC3    O2 5745   1.043   1.529  15.974
  381TMC3    C1 5746   0.818   3.019  16.310
  381TMC3    C2 5747   0.889   3.134  16.320
  381TMC3    C3 5748   0.885   3.208  16.438
  381TMC3    C4 5749   0.765   2.971  16.424
  381TMC3    C5 5750   0.762   3.047  16.540
  381TMC3    C6 5751   0.807   3.178  16.545
  381TMC3     C 5752   0.877   2.915  16.221
  381TMC3     O 5753   0.943   2.970  16.137
  381TMC3     H 5754   0.940   3.170  16.232
  381TMC3    H1 5755   0.709   2.878  16.428
  381TMC3    H2 5756   0.805   3.232  16.639
  381TMC3    C7 5757   0.697   2.994  16.659
  381TMC3    C8 5758   1.012   3.275  16.459
  381TMC3    O1 5759   0.712   2.872  16.682
  381TMC3    O2 5760   1.103   3.213  16.403
  382MPD2     C 5761   0.184   0.826  17.182
  382MPD2    C1 5762   0.125   0.852  17.301
  382MPD2    C2 5763   0.071   0.742  17.374
  382MPD2    C3 5764   0.094   0.612  17.324
  382MPD2    C4 5765   0.167   0.589  17.208
  382MPD2    C5 5766   0.212   0.698  17.134
  382MPD2     H 5767   0.035   0.765  17.474
  382MPD2    H1 5768   0.187   0.491  17.166
  382MPD2    H2 5769   0.222   0.901  17.113
  382MPD2    H3 5770   0.272   0.678  17.046
  382MPD2     N 5771   0.037   0.498  17.392
  382MPD2    H5 5772   0.038   0.411  17.340
  382MPD2    N1 5773   0.104   0.981  17.353
  382MPD2    H7 5774   0.065   0.994  17.445
  383TMC3    C1 5775   4.715   0.382  17.562
  383TMC3    C2 5776   4.651   0.308  17.466
  383TMC3    C3 5777   4.585   0.195  17.510
  383TMC3    C4 5778   4.720   0.346  17.692
  383TMC3    C5 5779   4.651   0.235  17.725
  383TMC3    C6 5780   4.587   0.151  17.639
  383TMC3     C 5781   4.789   0.505  17.520
  383TMC3     O 5782   0.011   0.590  17.603
  383TMC3     H 5783   4.638   0.345  17.365
  383TMC3    H1 5784   4.779   0.403  17.763
  383TMC3    H2 5785   4.510   0.088  17.681
  383TMC3    C7 5786   4.600   0.217  17.861
  383TMC3    C8 5787   4.493   0.130  17.419
  383TMC3    O1 5788   4.575   0.099  17.890
  383TMC3    O2 5789   4.441   0.191  17.329
  384MPD2     C 5790   1.657   2.111  12.255
  384MPD2    C1 5791   1.692   2.092  12.384
  384MPD2    C2 5792   1.808   2.018  12.410
  384MPD2    C3 5793   1.878   1.957  12.300
  384MPD2    C4 5794   1.832   1.976  12.173
  384MPD2    C5 5795   1.726   2.060  12.147
  384MPD2     H 5796   1.835   2.000  12.513
  384MPD2    H1 5797   1.876   1.933  12.084
  384MPD2    H2 5798   1.574   2.177  12.230
  384MPD2    H3 5799   1.686   2.085  12.050
  384MPD2     N 5800   1.979   1.860  12.319
  384MPD2    H5 5801   2.015   1.808  12.239
  384MPD2    N1 5802   1.610   2.153  12.481
  384MPD2    H7 5803   1.517   2.180  12.453
  385TMC3    C1 5804   2.064   1.719  12.478
  385TMC3    C2 5805   2.001   1.620  12.413
  385TMC3    C3 5806   1.969   1.509  12.486
  385TMC3    C4 5807   2.091   1.707  12.611
  385TMC3    C5 5808   2.058   1.590  12.685
  385TMC3    C6 5809   1.995   1.488  12.620
  385TMC3     C 5810   2.047   1.850  12.436
  385TMC3     O 5811   2.067   1.931  12.524
  385TMC3     H 5812   1.978   1.636  12.309
  385TMC3    H1 5813   2.146   1.788  12.657
  385TMC3    H2 5814   1.979   1.393  12.670
  385TMC3    C7 5815   2.009   1.627  12.822
  385TMC3    C8 5816   1.902   1.394  12.419
  385TMC3    O1 5817   2.014   1.746  12.841
  385TMC3    O2 5818   1.862   1.304  12.493
  386TMC3    C1 5819   2.161   4.063  12.034
  386TMC3    C2 5820   2.186   4.140  11.920
  386TMC3    C3 5821   2.097   4.243  11.894
  386TMC3    C4 5822   2.052   4.082  12.107
  386TMC3    C5 5823   1.962   4.178  12.061
  386TMC3    C6 5824   1.982   4.270  11.960
  386TMC3     C 5825   2.272   3.993  12.097
  386TMC3     O 5826   2.386   4.029  12.068
  386TMC3     H 5827   2.283   4.139  11.870
  386TMC3    H1 5828   2.029   4.022  12.194
  386TMC3    H2 5829   1.907   4.341  11.926
  386TMC3    C7 5830   1.847   4.206  12.156
  386TMC3    C8 5831   2.087   4.281  11.756
  386TMC3    O1 5832   1.856   4.168  12.271
  386TMC3    O2 5833   2.049   4.389  11.725
  387MPD2     C 5834   3.953   4.299   9.788
  387MPD2    C1 5835   4.084   4.272   9.766
  387MPD2    C2 5836   4.137   4.152   9.806
  387MPD2    C3 5837   4.064   4.067   9.882
  387MPD2    C4 5838   3.930   4.095   9.907
  387MPD2    C5 5839   3.877   4.211   9.863
  387MPD2     H 5840   4.244   4.146   9.793
  387MPD2    H1 5841   3.874   4.027   9.969
  387MPD2    H2 5842   3.901   4.386   9.749
  387MPD2    H3 5843   3.775   4.229   9.896
  387MPD2     N 5844   4.137   3.965   9.941
  387MPD2    H5 5845   4.236   3.969   9.922
  387MPD2    N1 5846   4.165   4.361   9.690
  387MPD2    H7 5847   4.256   4.321   9.670
  388TMC3    C1 5848   4.275   4.557   9.668
  388TMC3    C2 5849   4.294   4.654   9.572
  388TMC3    C3 5850   4.411   4.721   9.570
  388TMC3    C4 5851   4.376   4.514   9.753
  388TMC3    C5 5852   4.500   4.563   9.724
  388TMC3    C6 5853   4.524   4.665   9.629
  388TMC3     C 5854   4.151   4.500   9.678
  388TMC3     O 5855   4.046   4.561   9.652
  388TMC3     H 5856   4.207   4.687   9.517
  388TMC3    H1 5857   4.350   4.447   9.834
  388TMC3    H2 5858   4.627   4.696   9.615
  388TMC3    C7 5859   4.617   4.484   9.762
  388TMC3    C8 5860   4.431   4.798   9.448
  388TMC3    O1 5861   4.718   4.489   9.688
  388TMC3    O2 5862   4.350   4.781   9.360
  389MPD2     C 5863   3.667   2.675  11.366
  389MPD2    C1 5864   3.599   2.562  11.337
  389MPD2    C2 5865   3.601   2.458  11.432
  389MPD2    C3 5866   3.683   2.472  11.541
  389MPD2    C4 5867   3.757   2.588  11.568
  389MPD2    C5 5868   3.748   2.690  11.478
  389MPD2     H 5869   3.548   2.367  11.410
  389MPD2    H1 5870   3.831   2.604  11.645
  389MPD2    H2 5871   3.677   2.764  11.305
  389MPD2    H3 5872   3.808   2.773  11.514
  389MPD2     N 5873   3.710   2.360  11.628
  389MPD2    H5 5874   3.784   2.371  11.696
  389MPD2    N1 5875   3.552   2.556  11.206
  389MPD2    H7 5876   3.567   2.639  11.149
  390TMC3    C1 5877   3.666   2.156  11.741
  390TMC3    C2 5878   3.605   2.036  11.740
  390TMC3    C3 5879   3.546   1.988  11.854
  390TMC3    C4 5880   3.689   2.223  11.856
  390TMC3    C5 5881   3.623   2.178  11.968
  390TMC3    C6 5882   3.547   2.057  11.973
  390TMC3     C 5883   3.653   2.232  11.621
  390TMC3     O 5884   3.580   2.183  11.536
  390TMC3     H 5885   3.592   1.979  11.649
  390TMC3    H1 5886   3.734   2.321  11.867
  390TMC3    H2 5887   3.508   2.020  12.068
  390TMC3    C7 5888   3.624   2.266  12.082
  390TMC3    C8 5889   3.452   1.883  11.846
  390TMC3    O1 5890   3.730   2.303  12.123
  390TMC3    O2 5891   3.448   1.818  11.739
  391MPD2     C 5892   2.494   4.094  11.464
  391MPD2    C1 5893   2.624   4.086  11.416
  391MPD2    C2 5894   2.653   4.117  11.287
  391MPD2    C3 5895   2.553   4.156  11.204
  391MPD2    C4 5896   2.422   4.165  11.255
  391MPD2    C5 5897   2.391   4.144  11.388
  391MPD2     H 5898   2.752   4.104  11.245
  391MPD2    H1 5899   2.342   4.207  11.196
  391MPD2    H2 5900   2.471   4.081  11.569
  391MPD2    H3 5901   2.293   4.147  11.432
  391MPD2     N 5902   2.584   4.193  11.077
  391MPD2    H5 5903   2.682   4.203  11.053
  391MPD2    N1 5904   2.728   4.056  11.510
  391MPD2    H7 5905   2.707   4.013  11.600
  392TMC3    C1 5906   2.559   4.200  10.832
  392TMC3    C2 5907   2.476   4.224  10.728
  392TMC3    C3 5908   2.533   4.266  10.609
  392TMC3    C4 5909   2.697   4.202  10.820
  392TMC3    C5 5910   2.748   4.231  10.696
  392TMC3    C6 5911   2.666   4.268  10.591
  392TMC3     C 5912   2.494   4.197  10.964
  392TMC3     O 5913   2.375   4.200  10.968
  392TMC3     H 5914   2.368   4.212  10.733
  392TMC3    H1 5915   2.762   4.187  10.905
  392TMC3    H2 5916   2.701   4.280  10.489
  392TMC3    C7 5917   2.887   4.272  10.693
  392TMC3    C8 5918   2.454   4.258  10.488
  392TMC3    O1 5919   2.947   4.273  10.798
  392TMC3    O2 5920   2.343   4.203  10.498
  393TMC3    C1 5921   2.230   2.307  11.199
  393TMC3    C2 5922   2.138   2.351  11.291
  393TMC3    C3 5923   2.097   2.261  11.395
  393TMC3    C4 5924   2.298   2.191  11.221
  393TMC3    C5 5925   2.248   2.107  11.316
  393TMC3    C6 5926   2.155   2.140  11.406
  393TMC3     C 5927   2.202   2.341  11.063
  393TMC3     O 5928   2.081   2.366  11.035
  393TMC3     H 5929   2.084   2.441  11.265
  393TMC3    H1 5930   2.382   2.169  11.156
  393TMC3    H2 5931   2.133   2.074  11.488
  393TMC3    C7 5932   2.308   1.971  11.327
  393TMC3    C8 5933   1.959   2.252  11.421
  393TMC3    O1 5934   2.255   1.898  11.414
  393TMC3    O2 5935   1.918   2.143  11.456
  394TMC3    C1 5936   3.421   2.497  11.025
  394TMC3    C2 5937   3.301   2.445  10.988
  394TMC3    C3 5938   3.277   2.444  10.853
  394TMC3    C4 5939   3.518   2.537  10.939
  394TMC3    C5 5940   3.492   2.532  10.806
  394TMC3    C6 5941   3.374   2.479  10.760
  394TMC3     C 5942   3.467   2.458  11.162
  394TMC3     O 5943   3.402   2.380  11.225
  394TMC3     H 5944   3.221   2.402  11.048
  394TMC3    H1 5945   3.616   2.579  10.955
  394TMC3    H2 5946   3.344   2.480  10.656
  394TMC3    C7 5947   3.581   2.592  10.709
  394TMC3    C8 5948   3.170   2.357  10.810
  394TMC3    O1 5949   3.660   2.675  10.751
  394TMC3    O2 5950   3.088   2.334  10.897
  395TMC3    C1 5951   2.816   4.232  14.904
  395TMC3    C2 5952   2.718   4.232  14.989
  395TMC3    C3 5953   2.742   4.273  15.119
  395TMC3    C4 5954   2.945   4.263  14.934
  395TMC3    C5 5955   2.965   4.312  15.059
  395TMC3    C6 5956   2.864   4.322  15.155
  395TMC3     C 5957   2.779   4.226  14.766
  395TMC3     O 5958   2.771   4.335  14.715
  395TMC3     H 5959   2.614   4.221  14.959
  395TMC3    H1 5960   3.023   4.249  14.861
  395TMC3    H2 5961   2.889   4.363  15.252
  395TMC3    C7 5962   3.099   4.360  15.105
  395TMC3    C8 5963   2.675   4.179  15.211
  395TMC3    O1 5964   3.092   4.462  15.173
  395TMC3    O2 5965   2.706   4.200  15.326
  396MPD2     C 5966   2.957   0.134  16.999
  396MPD2    C1 5967   3.005   0.184  17.112
  396MPD2    C2 5968   3.065   0.307  17.112
  396MPD2    C3 5969   3.078   0.380  16.996
  396MPD2    C4 5970   3.023   0.327  16.888
  396MPD2    C5 5971   2.966   0.205  16.884
  396MPD2     H 5972   3.120   0.348  17.197
  396MPD2    H1 5973   3.030   0.371  16.789
  396MPD2    H2 5974   2.908   0.037  17.002
  396MPD2    H3 5975   2.928   0.163  16.791
  396MPD2     N 5976   3.142   0.504  16.996
  396MPD2    H5 5977   3.173   0.547  17.083
  396MPD2    N1 5978   2.983   0.107  17.230
  396MPD2    H7 5979   2.943   0.015  17.215
  397TMC3    C1 5980   3.043   0.031  17.450
  397TMC3    C2 5981   3.171   4.799  17.440
  397TMC3    C3 5982   3.208   4.674  17.408
  397TMC3    C4 5983   2.943   4.745  17.437
  397TMC3    C5 5984   2.976   4.617  17.408
  397TMC3    C6 5985   3.107   4.584  17.382
  397TMC3     C 5986   3.038   0.141  17.354
  397TMC3     O 5987   3.109   0.233  17.390
  397TMC3     H 5988   3.253   0.065  17.442
  397TMC3    H1 5989   2.842   4.780  17.456
  397TMC3    H2 5990   3.137   4.481  17.362
  397TMC3    C7 5991   2.880   4.506  17.430
  397TMC3    C8 5992   3.320   4.664  17.314
  397TMC3    O1 5993   2.906   4.393  17.393
  397TMC3    O2 5994   3.307   4.578  17.227
  398MPD2     C 5995   1.136   1.652  18.296
  398MPD2    C1 5996   1.197   1.547  18.365
  398MPD2    C2 5997   1.318   1.581  18.434
  398MPD2    C3 5998   1.363   1.718  18.437
  398MPD2    C4 5999   1.289   1.815  18.374
  398MPD2    C5 6000   1.181   1.782  18.300
  398MPD2     H 6001   1.381   1.504  18.474
  398MPD2    H1 6002   1.331   1.915  18.373
  398MPD2    H2 6003   1.040   1.642  18.248
  398MPD2    H3 6004   1.125   1.863  18.254
  398MPD2     N 6005   1.478   1.744  18.510
  398MPD2    H5 6006   1.517   1.666  18.561
  398MPD2    N1 6007   1.149   1.415  18.359
  398MPD2    H7 6008   1.198   1.357  18.426
  399TMC3    C1 6009   0.991   1.234  18.323
  399TMC3    C2 6010   1.065   1.150  18.403
  399TMC3    C3 6011   1.000   1.062  18.488
  399TMC3    C4 6012   0.852   1.220  18.316
  399TMC3    C5 6013   0.790   1.122  18.397
  399TMC3    C6 6014   0.862   1.043  18.484
  399TMC3     C 6015   1.033   1.371  18.299
  399TMC3     O 6016   0.963   1.434  18.224
  399TMC3     H 6017   1.172   1.171  18.401
  399TMC3    H1 6018   0.796   1.283  18.248
  399TMC3    H2 6019   0.812   0.965  18.540
  399TMC3    C7 6020   0.680   1.046  18.346
  399TMC3    C8 6021   1.074   0.952  18.540
  399TMC3    O1 6022   0.641   0.959  18.419
  399TMC3    O2 6023   1.012   0.850  18.562
  400TMC3    C1 6024   4.581   0.019  16.989
  400TMC3    C2 6025   4.515   4.785  16.877
  400TMC3    C3 6026   4.452   0.064  16.794
  400TMC3    C4 6027   4.593   0.152  17.021
  400TMC3    C5 6028   4.559   0.236  16.915
  400TMC3    C6 6029   4.477   0.196  16.814
  400TMC3     C 6030   4.665   4.720  17.065
  400TMC3     O 6031   4.667   4.610  17.012
  400TMC3     H 6032   4.511   4.678  16.860
  400TMC3    H1 6033   4.669   0.190  17.087
  400TMC3    H2 6034   4.448   0.261  16.731
  400TMC3    C7 6035   4.593   0.376  16.934
  400TMC3    C8 6036   4.318   0.040  16.737
  400TMC3    O1 6037   4.609   0.446  16.834
  400TMC3    O2 6038   4.225   0.120  16.742
  401MPD2     C 6039   2.529   3.334  18.326
  401MPD2    C1 6040   2.623   3.267  18.401
  401MPD2    C2 6041   2.613   3.128  18.398
  401MPD2    C3 6042   2.530   3.057  18.316
  401MPD2    C4 6043   2.445   3.131  18.231
  401MPD2    C5 6044   2.447   3.263  18.241
  401MPD2     H 6045   2.680   3.066  18.456
  401MPD2    H1 6046   2.369   3.082  18.172
  401MPD2    H2 6047   2.527   3.442  18.326
  401MPD2    H3 6048   2.379   3.316  18.174
  401MPD2     N 6049   2.521   2.917  18.342
  401MPD2    H5 6050   2.579   2.885  18.418
  401MPD2    N1 6051   2.716   3.328  18.484
  401MPD2    H7 6052   2.778   3.269  18.539
  402TMC3    C1 6053   2.470   2.695  18.293
  402TMC3    C2 6054   2.489   2.658  18.428
  402TMC3    C3 6055   2.545   2.539  18.452
  402TMC3    C4 6056   2.489   2.609  18.186
  402TMC3    C5 6057   2.557   2.494  18.213
  402TMC3    C6 6058   2.589   2.465  18.345
  402TMC3     C 6059   2.458   2.829  18.259
  402TMC3     O 6060   2.410   2.850  18.150
  402TMC3     H 6061   2.460   2.729  18.505
  402TMC3    H1 6062   2.501   2.651  18.087
  402TMC3    H2 6063   2.646   2.374  18.362
  402TMC3    C7 6064   2.650   2.439  18.117
  402TMC3    C8 6065   2.584   2.491  18.588
  402TMC3    O1 6066   2.616   2.474  18.004
  402TMC3    O2 6067   2.689   2.429  18.596
  403MPD2     C 6068   1.449   1.596  13.452
  403MPD2    C1 6069   1.384   1.532  13.557
  403MPD2    C2 6070   1.443   1.524  13.682
  403MPD2    C3 6071   1.564   1.589  13.702
  403MPD2    C4 6072   1.619   1.665  13.604
  403MPD2    C5 6073   1.564   1.661  13.481
  403MPD2     H 6074   1.404   1.448  13.748
  403MPD2    H1 6075   1.719   1.704  13.622
  403MPD2    H2 6076   1.404   1.595  13.353
  403MPD2    H3 6077   1.609   1.705  13.392
  403MPD2     N 6078   1.626   1.586  13.829
  403MPD2    H5 6079   1.595   1.513  13.893
  403MPD2    N1 6080   1.260   1.469  13.514
  403MPD2    H7 6081   1.240   1.478  13.415
  404TMC3    C1 6082   1.040   1.400  13.548
  404TMC3    C2 6083   0.963   1.339  13.633
  404TMC3    C3 6084   0.892   1.232  13.573
  404TMC3    C4 6085   1.021   1.403  13.414
  404TMC3    C5 6086   0.952   1.292  13.358
  404TMC3    C6 6087   0.878   1.207  13.435
  404TMC3     C 6088   1.167   1.429  13.605
  404TMC3     O 6089   1.179   1.436  13.727
  404TMC3     H 6090   0.984   1.344  13.739
  404TMC3    H1 6091   1.073   1.472  13.349
  404TMC3    H2 6092   0.822   1.119  13.405
  404TMC3    C7 6093   0.957   1.275  13.210
  404TMC3    C8 6094   0.858   1.118  13.656
  404TMC3    O1 6095   1.041   1.344  13.157
  404TMC3    O2 6096   0.862   1.006  13.608
  405MPD2     C 6097   1.518   2.366  15.176
  405MPD2    C1 6098   1.470   2.271  15.092
  405MPD2    C2 6099   1.346   2.282  15.033
  405MPD2    C3 6100   1.263   2.387  15.067
  405MPD2    C4 6101   1.319   2.492  15.136
  405MPD2    C5 6102   1.448   2.485  15.182
  405MPD2     H 6103   1.299   2.205  14.973
  405MPD2    H1 6104   1.274   2.589  15.153
  405MPD2    H2 6105   1.615   2.350  15.223
  405MPD2    H3 6106   1.481   2.572  15.237
  405MPD2     N 6107   1.128   2.386  15.014
  405MPD2    H5 6108   1.120   2.322  14.936
  405MPD2    N1 6109   1.534   2.146  15.083
  405MPD2    H7 6110   1.603   2.116  15.151
  406TMC3    C1 6111   0.713   2.488  14.847
  406TMC3    C2 6112   0.709   2.367  14.784
  406TMC3    C3 6113   0.812   2.284  14.800
  406TMC3    C4 6114   0.801   2.516  14.946
  406TMC3    C5 6115   0.911   2.430  14.959
  406TMC3    C6 6116   0.912   2.316  14.889
  406TMC3     C 6117   0.629   2.596  14.801
  406TMC3     O 6118   0.599   2.693  14.870
  406TMC3     H 6119   0.621   2.333  14.731
  406TMC3    H1 6120   0.798   2.615  14.990
  406TMC3    H2 6121   0.999   2.251  14.893
  406TMC3    C7 6122   1.025   2.467  15.042
  406TMC3    C8 6123   0.838   2.202  14.683
  406TMC3    O1 6124   1.015   2.559  15.123
  406TMC3    O2 6125   0.808   2.244  14.565
  407MPD2     C 6126   3.513   3.810   9.861
  407MPD2    C1 6127   3.639   3.827   9.916
  407MPD2    C2 6128   3.650   3.872  10.043
  407MPD2    C3 6129   3.539   3.903  10.114
  407MPD2    C4 6130   3.413   3.896  10.062
  407MPD2    C5 6131   3.400   3.847   9.930
  407MPD2     H 6132   3.750   3.884  10.083
  407MPD2    H1 6133   3.328   3.932  10.119
  407MPD2    H2 6134   3.499   3.793   9.755
  407MPD2    H3 6135   3.304   3.847   9.881
  407MPD2     N 6136   3.547   3.957  10.246
  407MPD2    H5 6137   3.469   4.017  10.274
  407MPD2    N1 6138   3.760   3.798   9.845
  407MPD2    H7 6139   3.849   3.802   9.894
  408TMC3    C1 6140   3.908   3.817   9.675
  408TMC3    C2 6141   4.008   3.719   9.706
  408TMC3    C3 6142   4.139   3.749   9.681
  408TMC3    C4 6143   3.943   3.921   9.595
  408TMC3    C5 6144   4.072   3.936   9.550
  408TMC3    C6 6145   4.174   3.853   9.594
  408TMC3     C 6146   3.775   3.791   9.706
  408TMC3     O 6147   3.694   3.803   9.616
  408TMC3     H 6148   3.983   3.634   9.769
  408TMC3    H1 6149   3.869   3.999   9.583
  408TMC3    H2 6150   4.268   3.838   9.542
  408TMC3    C7 6151   4.127   4.049   9.478
  408TMC3    C8 6152   4.225   3.638   9.703
  408TMC3    O1 6153   4.250   4.045   9.469
  408TMC3    O2 6154   4.173   3.528   9.703
  409MPD2     C 6155   3.376   4.164  16.825
  409MPD2    C1 6156   3.428   4.166  16.946
  409MPD2    C2 6157   3.520   4.266  16.982
  409MPD2    C3 6158   3.568   4.353  16.881
  409MPD2    C4 6159   3.509   4.344  16.754
  409MPD2    C5 6160   3.421   4.247  16.727
  409MPD2     H 6161   3.569   4.276  17.078
  409MPD2    H1 6162   3.531   4.411  16.672
  409MPD2    H2 6163   3.317   4.080  16.789
  409MPD2    H3 6164   3.382   4.238  16.626
  409MPD2     N 6165   3.662   4.456  16.900
  409MPD2    H5 6166   3.664   4.524  16.825
  409MPD2    N1 6167   3.398   4.067  17.049
  409MPD2    H7 6168   3.436   4.078  17.142
  410TMC3    C1 6169   3.775   4.611  17.009
  410TMC3    C2 6170   3.904   4.629  17.051
  410TMC3    C3 6171   3.967   4.742  17.003
  410TMC3    C4 6172   3.722   4.701  16.915
  410TMC3    C5 6173   3.794   0.002  16.871
  410TMC3    C6 6174   3.923   0.029  16.914
  410TMC3     C 6175   3.722   4.481  17.018
  410TMC3     O 6176   3.741   4.409  17.120
  410TMC3     H 6177   3.937   4.586  17.145
  410TMC3    H1 6178   3.622   4.680  16.879
  410TMC3    H2 6179   3.990   0.100  16.868
  410TMC3    C7 6180   3.758   0.058  16.741
  410TMC3    C8 6181   4.089   4.774  17.071
  410TMC3    O1 6182   3.669   0.004  16.677
  410TMC3    O2 6183   4.125   0.083  17.091
  411MPD2     C 6184   3.725   0.209  14.588
  411MPD2    C1 6185   3.663   0.230  14.710
  411MPD2    C2 6186   3.577   0.131  14.757
  411MPD2    C3 6187   3.542   0.028  14.681
  411MPD2    C4 6188   3.608   0.000  14.566
  411MPD2    C5 6189   3.710   0.085  14.527
  411MPD2     H 6190   3.533   0.137  14.856
  411MPD2    H1 6191   3.594   4.707  14.522
  411MPD2    H2 6192   3.782   0.292  14.548
  411MPD2    H3 6193   3.774   0.051  14.446
  411MPD2     N 6194   3.448   4.732  14.716
  411MPD2    H5 6195   3.433   4.655  14.652
  411MPD2    N1 6196   3.677   0.359  14.768
  411MPD2    H7 6197   3.727   0.427  14.712
  412TMC3    C1 6198   3.265   4.630  14.816
  412TMC3    C2 6199   3.142   4.668  14.858
  412TMC3    C3 6200   3.030   4.613  14.805
  412TMC3    C4 6201   3.276   4.541  14.707
  412TMC3    C5 6202   3.164   4.482  14.666
  412TMC3    C6 6203   3.043   4.516  14.716
  412TMC3     C 6204   3.364   4.730  14.832
  412TMC3     O 6205   3.343   0.016  14.907
  412TMC3     H 6206   3.133   4.729  14.947
  412TMC3    H1 6207   3.372   4.496  14.684
  412TMC3    H2 6208   2.956   4.485  14.658
  412TMC3    C7 6209   3.173   4.381  14.558
  412TMC3    C8 6210   2.904   4.678  14.854
  412TMC3    O1 6211   3.086   4.294  14.568
  412TMC3    O2 6212   2.926   4.797  14.883
  413MPD2     C 6213   0.797   3.647  15.653
  413MPD2    C1 6214   0.716   3.556  15.588
  413MPD2    C2 6215   0.769   3.467  15.501
  413MPD2    C3 6216   0.905   3.462  15.473
  413MPD2    C4 6217   0.982   3.546  15.556
  413MPD2    C5 6218   0.930   3.637  15.643
  413MPD2     H 6219   0.716   3.399  15.436
  413MPD2    H1 6220   1.088   3.527  15.564
  413MPD2    H2 6221   0.761   3.730  15.713
  413MPD2    H3 6222   1.001   3.705  15.688
  413MPD2     N 6223   0.949   3.358  15.386
  413MPD2    H5 6224   0.876   3.304  15.341
  413MPD2    N1 6225   0.577   3.578  15.591
  413MPD2    H7 6226   0.549   3.642  15.666
  414TMC3    C1 6227   1.085   3.188  15.300
  414TMC3    C2 6228   1.151   3.084  15.355
  414TMC3    C3 6229   1.144   2.960  15.297
  414TMC3    C4 6230   1.030   3.184  15.177
  414TMC3    C5 6231   1.033   3.057  15.111
  414TMC3    C6 6232   1.074   2.951  15.180
  414TMC3     C 6233   1.081   3.312  15.375
  414TMC3     O 6234   1.180   3.346  15.439
  414TMC3     H 6235   1.208   3.106  15.445
  414TMC3    H1 6236   0.995   3.263  15.113
  414TMC3    H2 6237   1.065   2.850  15.140
  414TMC3    C7 6238   0.941   3.059  14.994
  414TMC3    C8 6239   1.204   2.840  15.349
  414TMC3    O1 6240   0.853   3.141  15.001
  414TMC3    O2 6241   1.157   2.732  15.318
  415TMC3    C1 6242   1.105   1.244  10.499
  415TMC3    C2 6243   1.154   1.324  10.397
  415TMC3    C3 6244   1.131   1.276  10.271
  415TMC3    C4 6245   1.032   1.132  10.481
  415TMC3    C5 6246   1.035   1.069  10.356
  415TMC3    C6 6247   1.083   1.147  10.251
  415TMC3     C 6248   1.157   1.261  10.628
  415TMC3     O 6249   1.101   1.203  10.723
  415TMC3     H 6250   1.204   1.417  10.419
  415TMC3    H1 6251   1.020   1.069  10.568
  415TMC3    H2 6252   1.088   1.110  10.148
  415TMC3    C7 6253   1.057   0.923  10.345
  415TMC3    C8 6254   1.138   1.363  10.156
  415TMC3    O1 6255   1.088   0.888  10.233
  415TMC3    O2 6256   1.052   1.339  10.069
  416MPD2     C 6257   3.155   0.196  11.832
  416MPD2    C1 6258   3.021   0.217  11.786
  416MPD2    C2 6259   2.978   0.156  11.669
  416MPD2    C3 6260   3.055   0.060  11.611
  416MPD2    C4 6261   3.176   0.021  11.668
  416MPD2    C5 6262   3.226   0.093  11.776
  416MPD2     H 6263   2.879   0.172  11.629
  416MPD2    H1 6264   3.241   4.750  11.626
  416MPD2    H2 6265   3.187   0.249  11.921
  416MPD2    H3 6266   3.324   0.072  11.817
  416MPD2     N 6267   3.022   4.800  11.488
  416MPD2    H5 6268   3.072   4.718  11.455
  416MPD2    N1 6269   2.946   0.313  11.864
  416MPD2    H7 6270   2.992   0.354  11.944
  417TMC3    C1 6271   2.759   0.417  11.954
  417TMC3    C2 6272   2.786   0.383  12.091
  417TMC3    C3 6273   2.754   0.485  12.179
  417TMC3    C4 6274   2.676   0.515  11.911
  417TMC3    C5 6275   2.639   0.604  12.007
  417TMC3    C6 6276   2.691   0.603  12.136
  417TMC3     C 6277   2.814   0.339  11.845
  417TMC3     O 6278   2.729   0.291  11.777
  417TMC3     H 6279   2.854   0.303  12.118
  417TMC3    H1 6280   2.659   0.531  11.805
  417TMC3    H2 6281   2.650   0.664  12.216
  417TMC3    C7 6282   2.547   0.707  11.965
  417TMC3    C8 6283   2.729   0.450  12.315
  417TMC3    O1 6284   2.534   0.738  11.846
  417TMC3    O2 6285   2.732   0.537  12.401
  418TMC3    C1 6286   1.875   1.923  18.572
  418TMC3    C2 6287   1.765   1.844  18.545
  418TMC3    C3 6288   1.651   1.864  18.622
  418TMC3    C4 6289   1.876   1.997  18.684
  418TMC3    C5 6290   1.773   1.998  18.768
  418TMC3    C6 6291   1.655   1.945  18.734
  418TMC3     C 6292   1.974   1.952  18.470
  418TMC3     O 6293   2.029   2.064  18.480
  418TMC3     H 6294   1.771   1.778  18.459
  418TMC3    H1 6295   1.947   2.078  18.695
  418TMC3    H2 6296   1.567   1.972  18.790
  418TMC3    C7 6297   1.784   2.084  18.883
  418TMC3    C8 6298   1.517   1.868  18.553
  418TMC3    O1 6299   1.874   2.165  18.876
  418TMC3    O2 6300   1.452   1.972  18.549
  419MPD2     C 6301   0.501   4.774  12.936
  419MPD2    C1 6302   0.369   4.784  12.889
  419MPD2    C2 6303   0.263   0.032  12.969
  419MPD2    C3 6304   0.292   0.078  13.098
  419MPD2    C4 6305   0.424   0.066  13.143
  419MPD2    C5 6306   0.524   0.009  13.062
  419MPD2     H 6307   0.162   0.044  12.932
  419MPD2    H1 6308   0.456   0.110  13.237
  419MPD2    H2 6309   0.580   4.748  12.866
  419MPD2    H3 6310   0.630   0.003  13.087
  419MPD2     N 6311   0.191   0.153  13.167
  419MPD2    H5 6312   0.108   0.173  13.112
  419MPD2    N1 6313   0.328   4.757  12.755
  419MPD2    H7 6314   0.229   4.777  12.741
  420TMC3    C1 6315   0.080   0.285  13.333
  420TMC3    C2 6316   4.781   0.310  13.238
  420TMC3    C3 6317   4.736   0.439  13.226
  420TMC3    C4 6318   0.126   0.391  13.409
  420TMC3    C5 6319   0.048   0.500  13.420
  420TMC3    C6 6320   4.771   0.536  13.318
  420TMC3     C 6321   0.195   0.206  13.292
  420TMC3     O 6322   0.286   0.207  13.372
  420TMC3     H 6323   4.749   0.228  13.175
  420TMC3    H1 6324   0.207   0.380  13.481
  420TMC3    H2 6325   4.713   0.627  13.306
  420TMC3    C7 6326   4.775   0.488  13.535
  420TMC3    C8 6327   4.617   0.477  13.144
  420TMC3    O1 6328   0.003   0.412  13.625
  420TMC3    O2 6329   4.603   0.595  13.123
  421TMC3    C1 6330   1.769   1.617  14.009
  421TMC3    C2 6331   1.779   1.708  14.112
  421TMC3    C3 6332   1.821   1.674  14.230
  421TMC3    C4 6333   1.808   1.490  14.016
  421TMC3    C5 6334   1.876   1.460  14.131
  421TMC3    C6 6335   1.871   1.539  14.240
  421TMC3     C 6336   1.727   1.663  13.879
  421TMC3     O 6337   1.767   1.772  13.837
  421TMC3     H 6338   1.745   1.810  14.098
  421TMC3    H1 6339   1.804   1.421  13.933
  421TMC3    H2 6340   1.923   1.516  14.332
  421TMC3    C7 6341   1.915   1.317  14.148
  421TMC3    C8 6342   1.881   1.777  14.305
  421TMC3    O1 6343   1.970   1.262  14.057
  421TMC3    O2 6344   1.984   1.756  14.366
  422TMC3    C1 6345   3.809   3.265  12.974
  422TMC3    C2 6346   3.778   3.378  13.047
  422TMC3    C3 6347   3.650   3.391  13.094
  422TMC3    C4 6348   3.711   3.177  12.927
  422TMC3    C5 6349   3.584   3.188  12.978
  422TMC3    C6 6350   3.554   3.296  13.058
  422TMC3     C 6351   3.949   3.251  12.922
  422TMC3     O 6352   4.021   3.351  12.912
  422TMC3     H 6353   3.853   3.453  13.067
  422TMC3    H1 6354   3.735   3.094  12.861
  422TMC3    H2 6355   3.452   3.299  13.094
  422TMC3    C7 6356   3.502   3.071  12.962
  422TMC3    C8 6357   3.607   3.524  13.136
  422TMC3    O1 6358   3.529   3.003  12.864
  422TMC3    O2 6359   3.689   3.618  13.117
  423MPD2     C 6360   0.151   4.272  18.544
  423MPD2    C1 6361   0.195   4.142  18.554
  423MPD2    C2 6362   0.228   4.062  18.448
  423MPD2    C3 6363   0.177   4.097  18.327
  423MPD2    C4 6364   0.129   4.225  18.307
  423MPD2    C5 6365   0.129   4.314  18.416
  423MPD2     H 6366   0.270   3.965  18.469
  423MPD2    H1 6367   0.079   4.261  18.218
  423MPD2    H2 6368   0.119   4.339  18.623
  423MPD2    H3 6369   0.104   4.415  18.385
  423MPD2     N 6370   0.187   4.013  18.212
  423MPD2    H5 6371   0.176   4.047  18.117
  423MPD2    N1 6372   0.228   4.094  18.681
  423MPD2    H7 6373   0.287   4.012  18.693
  424TMC3    C1 6374   0.215   4.055  18.902
  424TMC3    C2 6375   0.349   4.024  18.902
  424TMC3    C3 6376   0.391   3.954  19.010
  424TMC3    C4 6377   0.132   4.044  19.012
  424TMC3    C5 6378   0.185   3.980  19.119
  424TMC3    C6 6379   0.305   3.921  19.118
  424TMC3     C 6380   0.162   4.138  18.798
  424TMC3     O 6381   0.050   4.185  18.807
  424TMC3     H 6382   0.413   4.074  18.831
  424TMC3    H1 6383   0.025   4.065  19.009
  424TMC3    H2 6384   0.341   3.879  19.212
  424TMC3    C7 6385   0.126   3.999  19.248
  424TMC3    C8 6386   0.530   3.898  19.006
  424TMC3    O1 6387   0.160   3.928  19.337
  424TMC3    O2 6388   0.569   3.842  19.107
  425MPD2     C 6389   4.442   3.336  17.713
  425MPD2    C1 6390   4.406   3.239  17.625
  425MPD2    C2 6391   4.272   3.228  17.587
  425MPD2    C3 6392   4.179   3.307  17.656
  425MPD2    C4 6393   4.219   3.403  17.748
  425MPD2    C5 6394   4.354   3.416  17.781
  425MPD2     H 6395   4.243   3.150  17.518
  425MPD2    H1 6396   4.150   3.456  17.814
  425MPD2    H2 6397   4.544   3.347  17.751
  425MPD2    H3 6398   4.377   3.491  17.856
  425MPD2     N 6399   4.040   3.275  17.639
  425MPD2    H5 6400   4.022   3.186  17.594
  425MPD2    N1 6401   4.503   3.141  17.588
  425MPD2    H7 6402   4.588   3.148  17.643
  426TMC3    C1 6403   4.585   2.949  17.471
  426TMC3    C2 6404   4.565   2.858  17.365
  426TMC3    C3 6405   4.633   2.737  17.379
  426TMC3    C4 6406   4.659   2.917  17.581
  426TMC3    C5 6407   4.735   2.801  17.578
  426TMC3    C6 6408   4.718   2.706  17.481
  426TMC3     C 6409   4.490   3.050  17.479
  426TMC3     O 6410   4.406   3.041  17.392
  426TMC3     H 6411   4.520   2.887  17.271
  426TMC3    H1 6412   4.649   2.971  17.674
  426TMC3    H2 6413   4.780   2.617  17.475
  426TMC3    C7 6414   4.774   2.743  17.701
  426TMC3    C8 6415   4.585   2.627  17.299
  426TMC3    O1 6416   0.078   2.683  17.681
  426TMC3    O2 6417   4.659   2.531  17.294
  427MPD2     C 6418   2.655   0.177  15.117
  427MPD2    C1 6419   2.676   0.220  15.246
  427MPD2    C2 6420   2.593   0.313  15.302
  427MPD2    C3 6421   2.483   0.352  15.229
  427MPD2    C4 6422   2.460   0.307  15.100
  427MPD2    C5 6423   2.556   0.223  15.040
  427MPD2     H 6424   2.617   0.356  15.399
  427MPD2    H1 6425   2.369   0.338  15.049
  427MPD2    H2 6426   2.723   0.106  15.071
  427MPD2    H3 6427   2.544   0.197  14.936
  427MPD2     N 6428   2.384   0.447  15.279
  427MPD2    H5 6429   2.301   0.450  15.221
  427MPD2    N1 6430   2.779   0.163  15.326
  427MPD2    H7 6431   2.797   0.210  15.414
  428TMC3    C1 6432   2.911   0.005  15.428
  428TMC3    C2 6433   2.910   4.686  15.477
  428TMC3    C3 6434   3.005   4.651  15.571
  428TMC3    C4 6435   3.008   0.101  15.472
  428TMC3    C5 6436   3.090   0.069  15.579
  428TMC3    C6 6437   3.093   4.746  15.617
  428TMC3     C 6438   2.847   0.044  15.301
  428TMC3     O 6439   2.840   4.774  15.204
  428TMC3     H 6440   2.836   4.613  15.443
  428TMC3    H1 6441   3.025   0.193  15.417
  428TMC3    H2 6442   3.163   4.723  15.696
  428TMC3    C7 6443   3.206   0.145  15.614
  428TMC3    C8 6444   3.026   4.510  15.602
  428TMC3    O1 6445   3.247   0.129  15.728
  428TMC3    O2 6446   2.962   4.438  15.528
  429MPD2     C 6447   3.621   0.307  17.840
  429MPD2    C1 6448   3.744   0.268  17.793
  429MPD2    C2 6449   3.847   0.360  17.762
  429MPD2    C3 6450   3.825   0.493  17.761
  429MPD2    C4 6451   3.702   0.538  17.811
  429MPD2    C5 6452   3.603   0.445  17.840
  429MPD2     H 6453   3.943   0.323  17.728
  429MPD2    H1 6454   3.684   0.644  17.818
  429MPD2    H2 6455   3.548   0.234  17.872
  429MPD2    H3 6456   3.507   0.478  17.877
  429MPD2     N 6457   3.926   0.576  17.703
  429MPD2    H5 6458   4.002   0.531  17.654
  429MPD2    N1 6459   3.777   0.127  17.780
  429MPD2    H7 6460   3.875   0.108  17.762
  430TMC3    C1 6461   4.015   0.760  17.593
  430TMC3    C2 6462   3.978   0.864  17.515
  430TMC3    C3 6463   4.079   0.925  17.440
  430TMC3    C4 6464   4.144   0.719  17.600
  430TMC3    C5 6465   4.233   0.770  17.513
  430TMC3    C6 6466   4.202   0.876  17.430
  430TMC3     C 6467   3.914   0.707  17.685
  430TMC3     O 6468   3.825   0.782  17.714
  430TMC3     H 6469   3.877   0.901  17.504
  430TMC3    H1 6470   4.161   0.639  17.672
  430TMC3    H2 6471   4.263   0.909  17.347
  430TMC3    C7 6472   4.348   0.699  17.465
  430TMC3    C8 6473   4.030   0.966  17.307
  430TMC3    O1 6474   4.358   0.586  17.517
  430TMC3    O2 6475   3.941   0.898  17.260
  431MPD2     C 6476   4.760   0.442  12.772
  431MPD2    C1 6477   0.044   0.474  12.677
  431MPD2    C2 6478   0.059   0.393  12.568
  431MPD2    C3 6479   4.793   0.271  12.570
  431MPD2    C4 6480   4.693   0.246  12.661
  431MPD2    C5 6481   4.674   0.334  12.763
  431MPD2     H 6482   0.130   0.410  12.488
  431MPD2    H1 6483   4.634   0.155  12.656
  431MPD2    H2 6484   4.748   0.511  12.855
  431MPD2    H3 6485   4.596   0.300  12.830
  431MPD2     N 6486   0.019   0.162  12.481
  431MPD2    H5 6487   4.796   0.071  12.516
  431MPD2    N1 6488   0.120   0.596  12.677
  431MPD2    H7 6489   0.166   0.624  12.591
  432TMC3    C1 6490   0.194   0.036  12.380
  432TMC3    C2 6491   0.276   0.025  12.273
  432TMC3    C3 6492   0.400   4.787  12.298
  432TMC3    C4 6493   0.228   4.790  12.507
  432TMC3    C5 6494   0.357   4.740  12.524
  432TMC3    C6 6495   0.444   4.745  12.423
  432TMC3     C 6496   0.121   0.165  12.383
  432TMC3     O 6497   0.160   0.255  12.312
  432TMC3     H 6498   0.246   0.062  12.176
  432TMC3    H1 6499   0.165   4.805  12.595
  432TMC3    H2 6500   0.545   4.715  12.446
  432TMC3    C7 6501   0.417   4.733  12.651
  432TMC3    C8 6502   0.482   4.758  12.182
  432TMC3    O1 6503   0.536   4.709  12.656
  432TMC3    O2 6504   0.432   4.711  12.082
  433MPD2     C 6505   3.697   4.170  11.044
  433MPD2    C1 6506   3.658   4.080  11.141
  433MPD2    C2 6507   3.699   4.105  11.271
  433MPD2    C3 6508   3.770   4.217  11.306
  433MPD2    C4 6509   3.794   4.309  11.206
  433MPD2    C5 6510   3.755   4.290  11.080
  433MPD2     H 6511   3.679   4.036  11.352
  433MPD2    H1 6512   3.842   4.403  11.232
  433MPD2    H2 6513   3.662   4.155  10.943
  433MPD2    H3 6514   3.786   4.363  11.007
  433MPD2     N 6515   3.801   4.235  11.440
  433MPD2    H5 6516   3.765   4.174  11.512
  433MPD2    N1 6517   3.589   3.956  11.106
  433MPD2    H7 6518   3.592   3.929  11.008
  434TMC3    C1 6519   3.529   3.733  11.136
  434TMC3    C2 6520   3.591   3.645  11.217
  434TMC3    C3 6521   3.663   3.537  11.158
  434TMC3    C4 6522   3.518   3.716  11.002
  434TMC3    C5 6523   3.592   3.613  10.939
  434TMC3    C6 6524   3.661   3.517  11.019
  434TMC3     C 6525   3.541   3.865  11.195
  434TMC3     O 6526   3.509   3.880  11.310
  434TMC3     H 6527   3.610   3.670  11.321
  434TMC3    H1 6528   3.450   3.774  10.941
  434TMC3    H2 6529   3.736   3.448  10.982
  434TMC3    C7 6530   3.570   3.586  10.797
  434TMC3    C8 6531   3.750   3.452  11.239
  434TMC3    O1 6532   3.521   3.673  10.724
  434TMC3    O2 6533   3.733   3.463  11.362
  435MPD2     C 6534   1.179   3.939  15.624
  435MPD2    C1 6535   1.131   3.920  15.746
  435MPD2    C2 6536   1.224   3.868  15.842
  435MPD2    C3 6537   1.356   3.828  15.803
  435MPD2    C4 6538   1.392   3.853  15.672
  435MPD2    C5 6539   1.304   3.913  15.584
  435MPD2     H 6540   1.198   3.840  15.943
  435MPD2    H1 6541   1.494   3.847  15.637
  435MPD2    H2 6542   1.123   4.004  15.558
  435MPD2    H3 6543   1.334   3.947  15.486
  435MPD2     N 6544   1.441   3.772  15.897
  435MPD2    H5 6545   1.403   3.749  15.989
  435MPD2    N1 6546   1.004   3.957  15.795
  435MPD2    H7 6547   0.999   3.923  15.890
  436TMC3    C1 6548   0.651   4.094  15.976
  436TMC3    C2 6549   0.772   4.058  15.928
  436TMC3    C3 6550   0.777   4.034  15.794
  436TMC3    C4 6551   0.529   4.086  15.906
  436TMC3    C5 6552   0.542   4.070  15.772
  436TMC3    C6 6553   0.663   4.043  15.716
  436TMC3     C 6554   0.651   4.137  16.118
  436TMC3     O 6555   0.761   4.154  16.167
  436TMC3     H 6556   0.864   4.052  15.985
  436TMC3    H1 6557   0.434   4.112  15.952
  436TMC3    H2 6558   0.670   4.020  15.611
  436TMC3    C7 6559   0.430   4.059  15.678
  436TMC3    C8 6560   0.904   4.016  15.723
  436TMC3    O1 6561   0.460   4.092  15.561
  436TMC3    O2 6562   0.904   4.055  15.604
  437TMC3    C1 6563   4.613   1.175  12.483
  437TMC3    C2 6564   4.537   1.283  12.506
  437TMC3    C3 6565   4.516   1.365  12.401
  437TMC3    C4 6566   4.679   1.158  12.366
  437TMC3    C5 6567   4.664   1.250  12.269
  437TMC3    C6 6568   4.570   1.347  12.274
  437TMC3     C 6569   4.714   1.157  12.586
  437TMC3     O 6570   0.025   1.202  12.560
  437TMC3     H 6571   4.495   1.312  12.601
  437TMC3    H1 6572   4.751   1.077  12.354
  437TMC3    H2 6573   4.558   1.416  12.192
  437TMC3    C7 6574   4.775   1.294  12.203
  437TMC3    C8 6575   4.392   1.452  12.401
  437TMC3    O1 6576   4.758   1.368  12.109
  437TMC3    O2 6577   4.332   1.468  12.297
  438MPD2     C 6578   2.054   2.055  17.283
  438MPD2    C1 6579   2.089   1.920  17.304
  438MPD2    C2 6580   2.088   1.875  17.430
  438MPD2    C3 6581   2.059   1.954  17.537
  438MPD2    C4 6582   2.036   2.086  17.516
  438MPD2    C5 6583   2.030   2.135  17.392
  438MPD2     H 6584   2.121   1.772  17.438
  438MPD2    H1 6585   2.005   2.153  17.597
  438MPD2    H2 6586   2.045   2.102  17.185
  438MPD2    H3 6587   2.018   2.240  17.371
  438MPD2     N 6588   2.064   1.906  17.667
  438MPD2    H5 6589   2.059   1.978  17.738
  438MPD2    N1 6590   2.137   1.835  17.192
  438MPD2    H7 6591   2.161   1.739  17.214
  439TMC3    C1 6592   2.241   1.780  16.995
  439TMC3    C2 6593   2.228   1.750  16.861
  439TMC3    C3 6594   2.296   1.644  16.807
  439TMC3    C4 6595   2.333   1.706  17.072
  439TMC3    C5 6596   2.390   1.597  17.014
  439TMC3    C6 6597   2.361   1.554  16.885
  439TMC3     C 6598   2.150   1.871  17.059
  439TMC3     O 6599   2.095   1.960  16.996
  439TMC3     H 6600   2.178   1.822  16.797
  439TMC3    H1 6601   2.357   1.734  17.174
  439TMC3    H2 6602   2.421   1.471  16.848
  439TMC3    C7 6603   2.480   1.512  17.085
  439TMC3    C8 6604   2.333   1.639  16.667
  439TMC3    O1 6605   2.564   1.576  17.148
  439TMC3    O2 6606   2.424   1.563  16.644
  440MPD2     C 6607   0.637   2.268  15.243
  440MPD2    C1 6608   0.735   2.358  15.286
  440MPD2    C2 6609   0.858   2.311  15.323
  440MPD2    C3 6610   0.891   2.175  15.322
  440MPD2    C4 6611   0.790   2.093  15.283
  440MPD2    C5 6612   0.667   2.137  15.230
  440MPD2     H 6613   0.928   2.388  15.355
  440MPD2    H1 6614   0.805   1.985  15.279
  440MPD2    H2 6615   0.535   2.298  15.222
  440MPD2    H3 6616   0.589   2.072  15.192
  440MPD2     N 6617   1.018   2.120  15.363
  440MPD2    H5 6618   1.022   2.019  15.359
  440MPD2    N1 6619   0.721   2.500  15.292
  440MPD2    H7 6620   0.806   2.545  15.323
  441TMC3    C1 6621   1.242   2.119  15.429
  441TMC3    C2 6622   1.346   2.194  15.430
  441TMC3    C3 6623   1.434   2.184  15.532
  441TMC3    C4 6624   1.218   2.033  15.531
  441TMC3    C5 6625   1.308   2.017  15.630
  441TMC3    C6 6626   1.417   2.096  15.639
  441TMC3     C 6627   1.125   2.193  15.392
  441TMC3     O 6628   1.135   2.310  15.415
  441TMC3     H 6629   1.353   2.268  15.351
  441TMC3    H1 6630   1.123   1.983  15.544
  441TMC3    H2 6631   1.486   2.089  15.723
  441TMC3    C7 6632   1.276   1.911  15.724
  441TMC3    C8 6633   1.489   2.308  15.576
  441TMC3    O1 6634   1.161   1.861  15.710
  441TMC3    O2 6635   1.575   2.305  15.661
  442MPD2     C 6636   4.040   2.821  16.793
  442MPD2    C1 6637   3.913   2.804  16.740
  442MPD2    C2 6638   3.889   2.689  16.664
  442MPD2    C3 6639   3.986   2.587  16.651
  442MPD2    C4 6640   4.097   2.602  16.725
  442MPD2    C5 6641   4.133   2.719  16.784
  442MPD2     H 6642   3.791   2.678  16.619
  442MPD2    H1 6643   4.160   2.515  16.715
  442MPD2    H2 6644   4.067   2.915  16.840
  442MPD2    H3 6645   4.233   2.730  16.826
  442MPD2     N 6646   3.964   2.462  16.591
  442MPD2    H5 6647   4.053   2.413  16.591
  442MPD2    N1 6648   3.823   2.913  16.738
  442MPD2    H7 6649   3.735   2.906  16.689
  443TMC3    C1 6650   3.732   3.109  16.804
  443TMC3    C2 6651   3.691   3.143  16.685
  443TMC3    C3 6652   3.571   3.211  16.675
  443TMC3    C4 6653   3.658   3.133  16.918
  443TMC3    C5 6654   3.533   3.200  16.910
  443TMC3    C6 6655   3.489   3.230  16.784
  443TMC3     C 6656   3.841   3.022  16.816
  443TMC3     O 6657   3.902   3.026  16.923
  443TMC3     H 6658   3.758   3.136  16.600
  443TMC3    H1 6659   3.693   3.091  17.011
  443TMC3    H2 6660   3.386   3.260  16.768
  443TMC3    C7 6661   3.434   3.173  17.015
  443TMC3    C8 6662   3.513   3.185  16.544
  443TMC3    O1 6663   3.434   3.066  17.073
  443TMC3    O2 6664   3.590   3.138  16.460
  444MPD2     C 6665   4.226   2.176  17.320
  444MPD2    C1 6666   4.128   2.088  17.270
  444MPD2    C2 6667   4.161   1.985  17.175
  444MPD2    C3 6668   4.289   1.972  17.135
  444MPD2    C4 6669   4.378   2.074  17.174
  444MPD2    C5 6670   4.349   2.162  17.269
  444MPD2     H 6671   4.081   1.920  17.143
  444MPD2    H1 6672   4.474   2.092  17.127
  444MPD2    H2 6673   4.216   2.250  17.398
  444MPD2    H3 6674   4.422   2.232  17.307
  444MPD2     N 6675   4.327   1.867  17.035
  444MPD2    H5 6676   4.247   1.808  17.015
  444MPD2    N1 6677   3.996   2.089  17.319
  444MPD2    H7 6678   3.932   2.035  17.261
  445TMC3    C1 6679   4.465   1.705  16.935
  445TMC3    C2 6680   4.355   1.693  16.849
  445TMC3    C3 6681   4.371   1.602  16.748
  445TMC3    C4 6682   4.574   1.624  16.928
  445TMC3    C5 6683   4.581   1.527  16.831
  445TMC3    C6 6684   4.489   1.527  16.727
  445TMC3     C 6685   4.457   1.822  17.018
  445TMC3     O 6686   4.566   1.865  17.054
  445TMC3     H 6687   4.267   1.755  16.846
  445TMC3    H1 6688   4.657   1.636  16.997
  445TMC3    H2 6689   4.497   1.460  16.642
  445TMC3    C7 6690   4.710   1.463  16.810
  445TMC3    C8 6691   4.256   1.565  16.669
  445TMC3    O1 6692   0.008   1.489  16.875
  445TMC3    O2 6693   4.166   1.646  16.656
  446MPD2     C 6694   3.525   3.411  11.832
  446MPD2    C1 6695   3.476   3.501  11.738
  446MPD2    C2 6696   3.570   3.575  11.667
  446MPD2    C3 6697   3.704   3.569  11.692
  446MPD2    C4 6698   3.746   3.478  11.783
  446MPD2    C5 6699   3.659   3.401  11.849
  446MPD2     H 6700   3.527   3.646  11.597
  446MPD2    H1 6701   3.851   3.461  11.804
  446MPD2    H2 6702   3.456   3.349  11.890
  446MPD2    H3 6703   3.697   3.328  11.921
  446MPD2     N 6704   3.788   3.652  11.614
  446MPD2    H5 6705   3.739   3.721  11.558
  446MPD2    N1 6706   3.340   3.526  11.712
  446MPD2    H7 6707   3.329   3.588  11.633
  447TMC3    C1 6708   4.000   3.744  11.531
  447TMC3    C2 6709   3.962   3.740  11.397
  447TMC3    C3 6710   4.058   3.731  11.301
  447TMC3    C4 6711   4.136   3.751  11.565
  447TMC3    C5 6712   4.228   3.733  11.464
  447TMC3    C6 6713   4.189   3.742  11.332
  447TMC3     C 6714   3.925   3.658  11.621
  447TMC3     O 6715   4.002   3.589  11.687
  447TMC3     H 6716   3.860   3.711  11.375
  447TMC3    H1 6717   4.155   3.746  11.672
  447TMC3    H2 6718   4.264   3.717  11.257
  447TMC3    C7 6719   4.366   3.697  11.503
  447TMC3    C8 6720   4.017   3.735  11.162
  447TMC3    O1 6721   4.438   3.653  11.413
  447TMC3    O2 6722   3.898   3.749  11.142
  448TMC3    C1 6723   2.041   3.594  17.110
  448TMC3    C2 6724   2.032   3.473  17.060
  448TMC3    C3 6725   2.060   3.363  17.141
  448TMC3    C4 6726   2.097   3.612  17.235
  448TMC3    C5 6727   2.126   3.501  17.312
  448TMC3    C6 6728   2.109   3.375  17.260
  448TMC3     C 6729   1.978   3.705  17.037
  448TMC3     O 6730   1.882   3.681  16.963
  448TMC3     H 6731   2.012   3.459  16.954
  448TMC3    H1 6732   2.101   3.706  17.288
  448TMC3    H2 6733   2.127   3.282  17.313
  448TMC3    C7 6734   2.190   3.506  17.442
  448TMC3    C8 6735   2.047   3.228  17.087
  448TMC3    O1 6736   2.236   3.614  17.468
  448TMC3    O2 6737   2.125   3.138  17.119
  449MPD2     C 6738   3.738   1.608  14.146
  449MPD2    C1 6739   3.607   1.631  14.093
  449MPD2    C2 6740   3.500   1.558  14.128
  449MPD2    C3 6741   3.523   1.458  14.226
  449MPD2    C4 6742   3.642   1.438  14.292
  449MPD2    C5 6743   3.748   1.513  14.245
  449MPD2     H 6744   3.406   1.588  14.084
  449MPD2    H1 6745   3.655   1.362  14.367
  449MPD2    H2 6746   3.824   1.665  14.114
  449MPD2    H3 6747   3.845   1.478  14.281
  449MPD2     N 6748   3.401   1.394  14.271
  449MPD2    H5 6749   3.318   1.414  14.217
  449MPD2    N1 6750   3.562   1.746  14.017
  449MPD2    H7 6751   3.469   1.752  13.976
  450TMC3    C1 6752   3.577   1.937  13.890
  450TMC3    C2 6753   3.620   1.937  13.761
  450TMC3    C3 6754   3.522   1.938  13.665
  450TMC3    C4 6755   3.448   1.957  13.916
  450TMC3    C5 6756   3.351   1.940  13.824
  450TMC3    C6 6757   3.394   1.929  13.695
  450TMC3     C 6758   3.648   1.836  13.971
  450TMC3     O 6759   3.771   1.855  13.989
  450TMC3     H 6760   3.720   1.899  13.745
  450TMC3    H1 6761   3.417   1.944  14.019
  450TMC3    H2 6762   3.323   1.933  13.614
  450TMC3    C7 6763   3.260   1.834  13.862
  450TMC3    C8 6764   3.546   1.847  13.554
  450TMC3    O1 6765   3.316   1.736  13.899
  450TMC3    O2 6766   3.453   1.795  13.495
  451MPD2     C 6767   0.370   0.897  19.609
  451MPD2    C1 6768   0.338   0.863  19.478
  451MPD2    C2 6769   0.396   0.748  19.437
  451MPD2    C3 6770   0.484   0.668  19.512
  451MPD2    C4 6771   0.515   0.705  19.640
  451MPD2    C5 6772   0.467   0.825  19.682
  451MPD2     H 6773   0.362   0.716  19.339
  451MPD2    H1 6774   0.588   0.650  19.700
  451MPD2    H2 6775   0.328   0.984  19.658
  451MPD2    H3 6776   0.488   0.850  19.786
  451MPD2     N 6777   0.515   0.542  19.467
  451MPD2    H5 6778   0.552   0.481  19.539
  451MPD2    N1 6779   0.247   0.946  19.404
  451MPD2    H7 6780   0.201   1.021  19.457
  452TMC3    C1 6781   0.466   0.356  19.335
  452TMC3    C2 6782   0.396   0.294  19.434
  452TMC3    C3 6783   0.330   0.178  19.402
  452TMC3    C4 6784   0.480   0.302  19.210
  452TMC3    C5 6785   0.417   0.188  19.187
  452TMC3    C6 6786   0.347   0.112  19.278
  452TMC3     C 6787   0.482   0.497  19.343
  452TMC3     O 6788   0.463   0.553  19.234
  452TMC3     H 6789   0.376   0.351  19.525
  452TMC3    H1 6790   0.533   0.353  19.131
  452TMC3    H2 6791   0.262   0.053  19.247
  452TMC3    C7 6792   0.397   0.167  19.045
  452TMC3    C8 6793   0.232   0.118  19.491
  452TMC3    O1 6794   0.410   0.270  18.976
  452TMC3    O2 6795   0.223   4.798  19.495
  453TMC3    C1 6796   0.963   2.439  12.130
  453TMC3    C2 6797   0.938   2.328  12.055
  453TMC3    C3 6798   0.910   2.357  11.925
  453TMC3    C4 6799   0.944   2.566  12.093
  453TMC3    C5 6800   0.899   2.595  11.965
  453TMC3    C6 6801   0.886   2.483  11.878
  453TMC3     C 6802   1.090   2.441  12.194
  453TMC3     O 6803   1.177   2.490  12.122
  453TMC3     H 6804   0.993   2.243  12.094
  453TMC3    H1 6805   0.989   2.642  12.156
  453TMC3    H2 6806   0.859   2.493  11.773
  453TMC3    C7 6807   0.982   2.690  11.896
  453TMC3    C8 6808   0.964   2.266  11.825
  453TMC3    O1 6809   0.944   2.773  11.815
  453TMC3    O2 6810   0.995   2.308  11.717
  454MPD2     C 6811   0.247   1.709  16.438
  454MPD2    C1 6812   0.188   1.806  16.356
  454MPD2    C2 6813   0.154   1.927  16.409
  454MPD2    C3 6814   0.159   1.947  16.547
  454MPD2    C4 6815   0.204   1.844  16.629
  454MPD2    C5 6816   0.249   1.727  16.575
  454MPD2     H 6817   0.115   2.000  16.339
  454MPD2    H1 6818   0.208   1.848  16.738
  454MPD2    H2 6819   0.284   1.616  16.395
  454MPD2    H3 6820   0.277   1.645  16.640
  454MPD2     N 6821   0.099   2.067  16.614
  454MPD2    H5 6822   0.075   2.070  16.712
  454MPD2    N1 6823   0.177   1.785  16.218
  454MPD2    H7 6824   0.130   1.861  16.169
  455TMC3    C1 6825   4.724   2.207  16.590
  455TMC3    C2 6826   4.699   2.217  16.727
  455TMC3    C3 6827   4.585   2.177  16.777
  455TMC3    C4 6828   4.626   2.159  16.513
  455TMC3    C5 6829   4.510   2.114  16.571
  455TMC3    C6 6830   4.483   2.124  16.701
  455TMC3     C 6831   0.058   2.174  16.543
  455TMC3     O 6832   0.080   2.209  16.428
  455TMC3     H 6833   4.783   2.244  16.789
  455TMC3    H1 6834   4.638   2.141  16.406
  455TMC3    H2 6835   4.409   2.057  16.744
  455TMC3    C7 6836   4.465   1.985  16.527
  455TMC3    C8 6837   4.550   2.256  16.892
  455TMC3    O1 6838   4.349   1.955  16.506
  455TMC3    O2 6839   4.648   2.298  16.951
  456MPD2     C 6840   2.259   2.049  16.350
  456MPD2    C1 6841   2.358   2.054  16.446
  456MPD2    C2 6842   2.330   2.081  16.576
  456MPD2    C3 6843   2.202   2.126  16.602
  456MPD2    C4 6844   2.101   2.123  16.504
  456MPD2    C5 6845   2.130   2.071  16.380
  456MPD2     H 6846   2.406   2.079  16.654
  456MPD2    H1 6847   1.997   2.152  16.516
  456MPD2    H2 6848   2.277   2.016  16.249
  456MPD2    H3 6849   2.055   2.076  16.301
  456MPD2     N 6850   2.174   2.191  16.726
  456MPD2    H5 6851   2.251   2.186  16.792
  456MPD2    N1 6852   2.487   2.012  16.411
  456MPD2    H7 6853   2.502   1.996  16.312
  457TMC3    C1 6854   2.081   2.341  16.882
  457TMC3    C2 6855   2.042   2.475  16.867
  457TMC3    C3 6856   2.115   2.570  16.940
  457TMC3    C4 6857   2.181   2.297  16.966
  457TMC3    C5 6858   2.233   2.392  17.050
  457TMC3    C6 6859   2.206   2.527  17.036
  457TMC3     C 6860   2.055   2.256  16.763
  457TMC3     O 6861   1.949   2.272  16.700
  457TMC3     H 6862   1.966   2.500  16.794
  457TMC3    H1 6863   2.187   2.190  16.983
  457TMC3    H2 6864   2.253   2.596  17.105
  457TMC3    C7 6865   2.332   2.343  17.149
  457TMC3    C8 6866   2.076   2.702  16.950
  457TMC3    O1 6867   2.371   2.229  17.142
  457TMC3    O2 6868   2.157   2.772  17.006
  458MPD2     C 6869   0.454   1.451  12.259
  458MPD2    C1 6870   0.405   1.388  12.372
  458MPD2    C2 6871   0.277   1.329  12.381
  458MPD2    C3 6872   0.199   1.325  12.270
  458MPD2    C4 6873   0.247   1.378  12.147
  458MPD2    C5 6874   0.370   1.438  12.149
  458MPD2     H 6875   0.234   1.274  12.464
  458MPD2    H1 6876   0.191   1.376  12.055
  458MPD2    H2 6877   0.554   1.492  12.247
  458MPD2    H3 6878   0.410   1.472  12.054
  458MPD2     N 6879   0.077   1.261  12.279
  458MPD2    H5 6880   0.060   1.220  12.371
  458MPD2    N1 6881   0.489   1.407  12.486
  458MPD2    H7 6882   0.577   1.456  12.471
  459TMC3    C1 6883   0.561   1.406  12.709
  459TMC3    C2 6884   0.661   1.497  12.679
  459TMC3    C3 6885   0.733   1.560  12.781
  459TMC3    C4 6886   0.530   1.381  12.842
  459TMC3    C5 6887   0.607   1.447  12.940
  459TMC3    C6 6888   0.707   1.537  12.913
  459TMC3     C 6889   0.457   1.369  12.613
  459TMC3     O 6890   0.363   1.305  12.655
  459TMC3     H 6891   0.692   1.525  12.578
  459TMC3    H1 6892   0.434   1.337  12.865
  459TMC3    H2 6893   0.770   1.579  12.991
  459TMC3    C7 6894   0.561   1.419  13.079
  459TMC3    C8 6895   0.829   1.670  12.760
  459TMC3    O1 6896   0.484   1.326  13.093
  459TMC3    O2 6897   0.921   1.683  12.838
  460MPD2     C 6898   4.251   3.849  10.909
  460MPD2    C1 6899   4.127   3.824  10.961
  460MPD2    C2 6900   4.016   3.879  10.899
  460MPD2    C3 6901   4.031   3.967  10.797
  460MPD2    C4 6902   4.158   3.998  10.759
  460MPD2    C5 6903   4.264   3.936  10.812
  460MPD2     H 6904   3.918   3.864  10.943
  460MPD2    H1 6905   4.186   4.077  10.691
  460MPD2    H2 6906   4.338   3.798  10.948
  460MPD2    H3 6907   4.360   3.969  10.774
  460MPD2     N 6908   3.920   4.027  10.739
  460MPD2    H5 6909   3.831   3.984  10.764
  460MPD2    N1 6910   4.126   3.752  11.083
  460MPD2    H7 6911   4.211   3.707  11.115
  461TMC3    C1 6912   3.785   4.143  10.593
  461TMC3    C2 6913   3.743   4.031  10.522
  461TMC3    C3 6914   3.630   4.042  10.437
  461TMC3    C4 6915   3.736   4.266  10.569
  461TMC3    C5 6916   3.626   4.278  10.483
  461TMC3    C6 6917   3.581   4.167  10.415
  461TMC3     C 6918   3.915   4.130  10.649
  461TMC3     O 6919   4.004   4.207  10.611
  461TMC3     H 6920   3.786   3.935  10.546
  461TMC3    H1 6921   3.781   4.350  10.621
  461TMC3    H2 6922   3.489   4.180  10.361
  461TMC3    C7 6923   3.599   4.408  10.424
  461TMC3    C8 6924   3.658   3.957  10.322
  461TMC3    O1 6925   3.518   4.411  10.337
  461TMC3    O2 6926   3.771   3.911  10.300
  462TMC3    C1 6927   4.099   0.376  18.036
  462TMC3    C2 6928   4.183   0.318  17.947
  462TMC3    C3 6929   4.202   0.181  17.958
  462TMC3    C4 6930   4.027   0.304  18.126
  462TMC3    C5 6931   4.055   0.169  18.136
  462TMC3    C6 6932   4.146   0.104  18.056
  462TMC3     C 6933   4.081   0.521  18.045
  462TMC3     O 6934   3.978   0.563  18.100
  462TMC3     H 6935   4.214   0.375  17.860
  462TMC3    H1 6936   3.945   0.353  18.178
  462TMC3    H2 6937   4.152   4.801  18.061
  462TMC3    C7 6938   3.948   0.080  18.186
  462TMC3    C8 6939   4.211   0.121  17.823
  462TMC3    O1 6940   3.990   4.773  18.225
  462TMC3    O2 6941   4.156   0.176  17.732
  463MPD2     C 6942   0.251   3.368  19.857
  463MPD2    C1 6943   0.222   3.409  19.726
  463MPD2    C2 6944   0.257   3.540  19.705
  463MPD2    C3 6945   0.304   3.632  19.791
  463MPD2    C4 6946   0.341   3.592  19.919
  463MPD2    C5 6947   0.312   3.456  19.951
  463MPD2     H 6948   0.239   3.577  19.605
  463MPD2    H1 6949   0.388   3.643  20.002
  463MPD2    H2 6950   0.239   3.263  19.884
  463MPD2    H3 6951   0.340   3.421  20.049
  463MPD2     N 6952   0.323   3.769  19.750
  463MPD2    H5 6953   0.341   3.840  19.820
  463MPD2    N1 6954   0.180   3.332  19.609
  463MPD2    H7 6955   0.167   3.390  19.527
  464TMC3    C1 6956   0.069   3.165  19.472
  464TMC3    C2 6957   0.066   3.258  19.370
  464TMC3    C3 6958   0.003   3.200  19.255
  464TMC3    C4 6959   0.042   3.032  19.446
  464TMC3    C5 6960   4.788   2.986  19.328
  464TMC3    C6 6961   4.765   3.071  19.230
  464TMC3     C 6962   0.131   3.207  19.599
  464TMC3     O 6963   0.141   3.119  19.685
  464TMC3     H 6964   0.070   3.365  19.383
  464TMC3    H1 6965   0.074   2.951  19.510
  464TMC3    H2 6966   4.733   3.042  19.130
  464TMC3    C7 6967   0.010   2.858  19.274
  464TMC3    C8 6968   4.801   3.278  19.135
  464TMC3    O1 6969   0.131   2.834  19.250
  464TMC3    O2 6970   4.694   3.302  19.084
  465MPD2     C 6971   1.837   2.524  17.389
  465MPD2    C1 6972   1.774   2.397  17.390
  465MPD2    C2 6973   1.723   2.349  17.269
  465MPD2    C3 6974   1.738   2.426  17.153
  465MPD2    C4 6975   1.794   2.551  17.157
  465MPD2    C5 6976   1.844   2.598  17.274
  465MPD2     H 6977   1.680   2.250  17.262
  465MPD2    H1 6978   1.809   2.608  17.066
  465MPD2    H2 6979   1.875   2.565  17.483
  465MPD2    H3 6980   1.870   2.703  17.281
  465MPD2     N 6981   1.688   2.363  17.031
  465MPD2    H5 6982   1.639   2.274  17.038
  465MPD2    N1 6983   1.742   2.330  17.510
  465MPD2    H7 6984   1.676   2.254  17.502
  466TMC3    C1 6985   1.489   2.174  16.757
  466TMC3    C2 6986   1.448   2.243  16.643
  466TMC3    C3 6987   1.530   2.346  16.609
  466TMC3    C4 6988   1.589   2.224  16.845
  466TMC3    C5 6989   1.652   2.340  16.802
  466TMC3    C6 6990   1.627   2.404  16.682
  466TMC3     C 6991   1.380   2.122  16.828
  466TMC3     O 6992   1.405   2.122  16.948
  466TMC3     H 6993   1.350   2.232  16.599
  466TMC3    H1 6994   1.612   2.170  16.936
  466TMC3    H2 6995   1.688   2.490  16.654
  466TMC3    C7 6996   1.696   2.427  16.905
  466TMC3    C8 6997   1.470   2.426  16.508
  466TMC3    O1 6998   1.735   2.535  16.866
  466TMC3    O2 6999   1.491   2.394  16.393
  467TMC3    C1 7000   2.339   0.736  14.067
  467TMC3    C2 7001   2.280   0.732  13.944
  467TMC3    C3 7002   2.147   0.766  13.936
  467TMC3    C4 7003   2.270   0.746  14.183
  467TMC3    C5 7004   2.137   0.766  14.174
  467TMC3    C6 7005   2.075   0.783  14.053
  467TMC3     C 7006   2.484   0.737  14.083
  467TMC3     O 7007   2.534   0.766  14.192
  467TMC3     H 7008   2.335   0.733  13.851
  467TMC3    H1 7009   2.325   0.747  14.276
  467TMC3    H2 7010   1.979   0.831  14.046
  467TMC3    C7 7011   2.061   0.678  14.260
  467TMC3    C8 7012   2.114   0.853  13.827
  467TMC3    O1 7013   2.133   0.618  14.341
  467TMC3    O2 7014   2.118   0.971  13.860
  468MPD2     C 7015   0.924   4.328  11.165
  468MPD2    C1 7016   1.038   4.254  11.192
  468MPD2    C2 7017   1.048   4.124  11.162
  468MPD2    C3 7018   0.942   4.059  11.096
  468MPD2    C4 7019   0.827   4.129  11.071
  468MPD2    C5 7020   0.821   4.259  11.109
  468MPD2     H 7021   1.136   4.069  11.191
  468MPD2    H1 7022   0.741   4.079  11.029
  468MPD2    H2 7023   0.913   4.432  11.191
  468MPD2    H3 7024   0.726   4.309  11.094
  468MPD2     N 7025   0.953   3.929  11.043
  468MPD2    H5 7026   0.868   3.893  11.000
  468MPD2    N1 7027   1.153   4.322  11.243
  468MPD2    H7 7028   1.236   4.267  11.266
  469TMC3    C1 7029   1.312   4.485  11.289
  469TMC3    C2 7030   1.417   4.404  11.256
  469TMC3    C3 7031   1.539   4.431  11.308
  469TMC3    C4 7032   1.328   4.596  11.366
  469TMC3    C5 7033   1.451   4.612  11.420
  469TMC3    C6 7034   1.558   4.534  11.391
  469TMC3     C 7035   1.174   4.456  11.259
  469TMC3     O 7036   1.098   4.549  11.275
  469TMC3     H 7037   1.404   4.319  11.191
  469TMC3    H1 7038   1.245   4.663  11.386
  469TMC3    H2 7039   1.656   4.541  11.438
  469TMC3    C7 7040   1.462   4.718  11.523
  469TMC3    C8 7041   1.626   4.309  11.322
  469TMC3    O1 7042   1.379   0.001  11.513
  469TMC3    O2 7043   1.611   4.219  11.241
  470TMC3    C1 7044   3.454   4.587  18.573
  470TMC3    C2 7045   3.524   4.692  18.519
  470TMC3    C3 7046   3.638   4.734  18.579
  470TMC3    C4 7047   3.493   4.520  18.687
  470TMC3    C5 7048   3.604   4.576  18.749
  470TMC3    C6 7049   3.676   4.677  18.701
  470TMC3     C 7050   3.351   4.528  18.494
  470TMC3     O 7051   3.334   4.566  18.378
  470TMC3     H 7052   3.495   4.741  18.426
  470TMC3    H1 7053   3.450   4.427  18.721
  470TMC3    H2 7054   3.766   4.709  18.752
  470TMC3    C7 7055   3.653   4.513  18.876
  470TMC3    C8 7056   3.721   0.023  18.510
  470TMC3    O1 7057   3.771   4.530  18.901
  470TMC3    O2 7058   3.659   0.118  18.461
  471MPD2     C 7059   4.038   1.292  16.907
  471MPD2    C1 7060   3.988   1.167  16.920
  471MPD2    C2 7061   3.993   1.104  17.039
  471MPD2    C3 7062   4.045   1.161  17.156
  471MPD2    C4 7063   4.093   1.287  17.139
  471MPD2    C5 7064   4.087   1.353  17.015
  471MPD2     H 7065   3.955   1.003  17.035
  471MPD2    H1 7066   4.141   1.339  17.221
  471MPD2    H2 7067   4.045   1.334  16.807
  471MPD2    H3 7068   4.133   1.452  17.010
  471MPD2     N 7069   4.079   1.091  17.277
  471MPD2    H5 7070   4.119   1.149  17.350
  471MPD2    N1 7071   3.957   1.092  16.805
  471MPD2    H7 7072   3.931   0.996  16.825
  472TMC3    C1 7073   3.888   1.031  16.592
  472TMC3    C2 7074   3.816   1.072  16.486
  472TMC3    C3 7075   3.791   0.979  16.390
  472TMC3    C4 7076   3.943   0.908  16.610
  472TMC3    C5 7077   3.918   0.817  16.514
  472TMC3    C6 7078   3.832   0.849  16.416
  472TMC3     C 7079   3.920   1.145  16.683
  472TMC3     O 7080   3.899   1.258  16.649
  472TMC3     H 7081   3.761   1.165  16.487
  472TMC3    H1 7082   4.007   0.883  16.694
  472TMC3    H2 7083   3.827   0.786  16.328
  472TMC3    C7 7084   3.907   0.677  16.560
  472TMC3    C8 7085   3.656   0.977  16.349
  472TMC3    O1 7086   3.891   0.659  16.682
  472TMC3    O2 7087   3.636   1.052  16.256
  473MPD2     C 7088   3.792   2.952  14.294
  473MPD2    C1 7089   3.882   3.004  14.200
  473MPD2    C2 7090   3.942   3.122  14.242
  473MPD2    C3 7091   3.903   3.199  14.352
  473MPD2    C4 7092   3.811   3.155  14.440
  473MPD2    C5 7093   3.762   3.027  14.407
  473MPD2     H 7094   4.022   3.155  14.176
  473MPD2    H1 7095   3.767   3.210  14.522
  473MPD2    H2 7096   3.749   2.854  14.275
  473MPD2    H3 7097   3.680   2.986  14.466
  473MPD2     N 7098   3.956   3.330  14.376
  473MPD2    H5 7099   3.897   3.379  14.442
  473MPD2    N1 7100   3.933   2.931  14.084
  473MPD2    H7 7101   4.023   2.959  14.045
  474TMC3    C1 7102   4.096   3.507  14.388
  474TMC3    C2 7103   3.999   3.593  14.419
  474TMC3    C3 7104   4.038   3.721  14.451
  474TMC3    C4 7105   4.224   3.549  14.372
  474TMC3    C5 7106   4.264   3.678  14.397
  474TMC3    C6 7107   4.171   3.754  14.458
  474TMC3     C 7108   4.073   3.380  14.335
  474TMC3     O 7109   4.164   3.324  14.276
  474TMC3     H 7110   3.896   3.561  14.422
  474TMC3    H1 7111   4.303   3.481  14.343
  474TMC3    H2 7112   4.200   3.857  14.477
  474TMC3    C7 7113   4.402   3.697  14.427
  474TMC3    C8 7114   3.930   3.817  14.468
  474TMC3    O1 7115   4.482   3.657  14.345
  474TMC3    O2 7116   3.820   3.765  14.486
  475MPD2     C 7117   2.531   1.554  11.137
  475MPD2    C1 7118   2.561   1.654  11.045
  475MPD2    C2 7119   2.519   1.780  11.075
  475MPD2    C3 7120   2.444   1.811  11.190
  475MPD2    C4 7121   2.426   1.709  11.279
  475MPD2    C5 7122   2.465   1.583  11.248
  475MPD2     H 7123   2.532   1.856  10.998
  475MPD2    H1 7124   2.382   1.718  11.378
  475MPD2    H2 7125   2.563   1.452  11.122
  475MPD2    H3 7126   2.448   1.508  11.326
  475MPD2     N 7127   2.401   1.942  11.220
  475MPD2    H5 7128   2.420   2.020  11.157
  475MPD2    N1 7129   2.627   1.609  10.934
  475MPD2    H7 7130   2.619   1.511  10.909
  476TMC3    C1 7131   2.766   1.816  10.896
  476TMC3    C2 7132   2.734   1.923  10.821
  476TMC3    C3 7133   2.715   2.044  10.882
  476TMC3    C4 7134   2.791   1.830  11.031
  476TMC3    C5 7135   2.794   1.956  11.087
  476TMC3    C6 7136   2.751   2.060  11.014
  476TMC3     C 7137   2.707   1.693  10.850
  476TMC3     O 7138   2.746   1.660  10.736
  476TMC3     H 7139   2.720   1.916  10.714
  476TMC3    H1 7140   2.815   1.745  11.094
  476TMC3    H2 7141   2.758   2.161  11.055
  476TMC3    C7 7142   2.769   1.962  11.236
  476TMC3    C8 7143   2.576   2.086  10.877
  476TMC3    O1 7144   2.789   1.860  11.300
  476TMC3    O2 7145   2.527   2.122  10.985
  477MPD2     C 7146   0.057   3.292  11.975
  477MPD2    C1 7147   4.752   3.219  12.010
  477MPD2    C2 7148   4.774   3.097  12.067
  477MPD2    C3 7149   0.098   3.056  12.096
  477MPD2    C4 7150   0.204   3.138  12.064
  477MPD2    C5 7151   0.184   3.257  12.007
  477MPD2     H 7152   4.695   3.028  12.098
  477MPD2    H1 7153   0.304   3.100  12.086
  477MPD2    H2 7154   0.059   3.389  11.927
  477MPD2    H3 7155   0.266   3.316  11.968
  477MPD2     N 7156   0.112   2.934  12.157
  477MPD2    H5 7157   0.031   2.877  12.177
  477MPD2    N1 7158   4.628   3.278  11.985
  477MPD2    H7 7159   4.621   3.361  11.926
  478TMC3    C1 7160   4.387   3.297  11.977
  478TMC3    C2 7161   4.280   3.313  12.053
  478TMC3    C3 7162   4.162   3.353  11.986
  478TMC3    C4 7163   4.389   3.326  11.843
  478TMC3    C5 7164   4.267   3.350  11.782
  478TMC3    C6 7165   4.156   3.365  11.854
  478TMC3     C 7166   4.506   3.236  12.040
  478TMC3     O 7167   4.479   3.161  12.134
  478TMC3     H 7168   4.288   3.304  12.161
  478TMC3    H1 7169   4.471   3.286  11.785
  478TMC3    H2 7170   4.057   3.381  11.812
  478TMC3    C7 7171   4.261   3.318  11.642
  478TMC3    C8 7172   4.071   3.434  12.062
  478TMC3    O1 7173   4.354   3.254  11.592
  478TMC3    O2 7174   4.101   3.422  12.184
  479MPD2     C 7175   3.453   0.267  15.371
  479MPD2    C1 7176   3.410   0.231  15.498
  479MPD2    C2 7177   3.503   0.219  15.602
  479MPD2    C3 7178   3.633   0.257  15.586
  479MPD2    C4 7179   3.672   0.312  15.463
  479MPD2    C5 7180   3.586   0.301  15.358
  479MPD2     H 7181   3.457   0.183  15.692
  479MPD2    H1 7182   3.770   0.351  15.440
  479MPD2    H2 7183   3.391   0.280  15.283
  479MPD2    H3 7184   3.622   0.324  15.259
  479MPD2     N 7185   3.738   0.257  15.684
  479MPD2    H5 7186   3.830   0.269  15.645
  479MPD2    N1 7187   3.277   0.186  15.506
  479MPD2    H7 7188   3.229   0.181  15.417
  480TMC3    C1 7189   3.482   0.232  16.084
  480TMC3    C2 7190   3.401   0.332  16.037
  480TMC3    C3 7191   3.452   0.405  15.933
  480TMC3    C4 7192   3.575   0.178  15.998
  480TMC3    C5 7193   3.613   0.242  15.882
  480TMC3    C6 7194   3.557   0.364  15.862
  480TMC3     C 7195   3.426   0.120  16.162
  480TMC3     O 7196   3.508   0.034  16.195
  480TMC3     H 7197   3.321   0.381  16.092
  480TMC3    H1 7198   3.637   0.092  16.022
  480TMC3    H2 7199   3.606   0.438  15.799
  480TMC3    C7 7200   3.730   0.203  15.814
  480TMC3    C8 7201   3.358   0.499  15.875
  480TMC3    O1 7202   3.814   0.154  15.891
  480TMC3    O2 7203   3.254   0.516  15.935
  481MPD2     C 7204   0.160   0.105  14.040
  481MPD2    C1 7205   0.079   0.009  14.092
  481MPD2    C2 7206   0.118   4.757  14.211
  481MPD2    C3 7207   0.241   4.782  14.275
  481MPD2    C4 7208   0.323   0.073  14.215
  481MPD2    C5 7209   0.281   0.135  14.102
  481MPD2     H 7210   0.061   4.670  14.243
  481MPD2    H1 7211   0.425   0.094  14.246
  481MPD2    H2 7212   0.137   0.154  13.946
  481MPD2    H3 7213   0.362   0.195  14.061
  481MPD2     N 7214   0.284   4.719  14.396
  481MPD2    H5 7215   0.371   4.747  14.441
  481MPD2    N1 7216   4.762   4.795  14.022
  481MPD2    H7 7217   4.750   0.050  13.940
  482TMC3    C1 7218   4.563   4.692  13.954
  482TMC3    C2 7219   4.513   4.567  13.928
  482TMC3    C3 7220   4.389   4.550  13.879
  482TMC3    C4 7221   4.500   0.000  13.915
  482TMC3    C5 7222   4.372   4.789  13.866
  482TMC3    C6 7223   4.318   4.663  13.845
  482TMC3     C 7224   4.669   4.703  14.055
  482TMC3     O 7225   4.687   4.599  14.118
  482TMC3     H 7226   4.576   4.481  13.948
  482TMC3    H1 7227   4.539   0.097  13.944
  482TMC3    H2 7228   4.228   4.654  13.785
  482TMC3    C7 7229   4.313   0.094  13.787
  482TMC3    C8 7230   4.360   4.426  13.805
  482TMC3    O1 7231   4.201   0.087  13.743
  482TMC3    O2 7232   4.451   4.343  13.816
  483TMC3    C1 7233   2.815   3.474  18.635
  483TMC3    C2 7234   2.883   3.593  18.642
  483TMC3    C3 7235   2.986   3.606  18.731
  483TMC3    C4 7236   2.866   3.360  18.690
  483TMC3    C5 7237   2.970   3.375  18.776
  483TMC3    C6 7238   3.030   3.496  18.799
  483TMC3     C 7239   2.725   3.457  18.529
  483TMC3     O 7240   2.667   3.548  18.477
  483TMC3     H 7241   2.837   3.680  18.597
  483TMC3    H1 7242   2.818   3.263  18.686
  483TMC3    H2 7243   3.123   3.502  18.855
  483TMC3    C7 7244   3.005   3.264  18.866
  483TMC3    C8 7245   3.071   3.720  18.706
  483TMC3    O1 7246   3.108   3.265  18.928
  483TMC3    O2 7247   3.064   3.752  18.585
  484MPD2     C 7248   0.832   1.890  12.455
  484MPD2    C1 7249   0.871   1.845  12.578
  484MPD2    C2 7250   0.996   1.887  12.630
  484MPD2    C3 7251   1.074   1.979  12.565
  484MPD2    C4 7252   1.036   2.031  12.444
  484MPD2    C5 7253   0.911   1.992  12.398
  484MPD2     H 7254   1.029   1.852  12.727
  484MPD2    H1 7255   1.087   2.111  12.390
  484MPD2    H2 7256   0.743   1.856  12.405
  484MPD2    H3 7257   0.873   2.023  12.302
  484MPD2     N 7258   1.195   2.022  12.619
  484MPD2    H5 7259   1.265   2.063  12.558
  484MPD2    N1 7260   0.803   1.736  12.638
  484MPD2    H7 7261   0.713   1.710  12.597
  485TMC3    C1 7262   1.359   2.073  12.785
  485TMC3    C2 7263   1.419   2.026  12.903
  485TMC3    C3 7264   1.550   2.054  12.921
  485TMC3    C4 7265   1.426   2.146  12.695
  485TMC3    C5 7266   1.557   2.174  12.721
  485TMC3    C6 7267   1.614   2.139  12.834
  485TMC3     C 7268   1.226   2.025  12.755
  485TMC3     O 7269   1.165   1.990  12.854
  485TMC3     H 7270   1.373   1.961  12.976
  485TMC3    H1 7271   1.382   2.186  12.604
  485TMC3    H2 7272   1.714   2.165  12.867
  485TMC3    C7 7273   1.659   2.181  12.609
  485TMC3    C8 7274   1.641   1.951  12.979
  485TMC3    O1 7275   1.773   2.188  12.651
  485TMC3    O2 7276   1.759   1.979  12.959
  486MPD2     C 7277   3.426   0.751  13.318
  486MPD2    C1 7278   3.326   0.707  13.234
  486MPD2    C2 7279   3.252   0.795  13.157
  486MPD2    C3 7280   3.262   0.932  13.179
  486MPD2    C4 7281   3.351   0.972  13.262
  486MPD2    C5 7282   3.432   0.887  13.330
  486MPD2     H 7283   3.185   0.754  13.082
  486MPD2    H1 7284   3.385   1.072  13.284
  486MPD2    H2 7285   3.485   0.691  13.386
  486MPD2    H3 7286   3.499   0.927  13.404
  486MPD2     N 7287   3.190   1.032  13.097
  486MPD2    H5 7288   3.123   0.999  13.029
  486MPD2    N1 7289   3.318   0.566  13.235
  486MPD2    H7 7290   3.367   0.526  13.314
  487TMC3    C1 7291   3.219   0.352  13.219
  487TMC3    C2 7292   3.161   0.255  13.138
  487TMC3    C3 7293   3.168   0.127  13.187
  487TMC3    C4 7294   3.261   0.333  13.350
  487TMC3    C5 7295   3.256   0.202  13.388
  487TMC3    C6 7296   3.233   0.096  13.304
  487TMC3     C 7297   3.239   0.490  13.157
  487TMC3     O 7298   3.200   0.509  13.043
  487TMC3     H 7299   3.132   0.276  13.036
  487TMC3    H1 7300   3.279   0.411  13.423
  487TMC3    H2 7301   3.250   4.798  13.334
  487TMC3    C7 7302   3.208   0.190  13.521
  487TMC3    C8 7303   3.046   0.061  13.190
  487TMC3    O1 7304   3.265   0.256  13.606
  487TMC3    O2 7305   3.033   4.778  13.268
  488MPD2     C 7306   3.276   2.196  16.663
  488MPD2    C1 7307   3.282   2.334  16.641
  488MPD2    C2 7308   3.238   2.414  16.746
  488MPD2    C3 7309   3.192   2.361  16.866
  488MPD2    C4 7310   3.189   2.224  16.882
  488MPD2    C5 7311   3.240   2.145  16.782
  488MPD2     H 7312   3.233   2.521  16.729
  488MPD2    H1 7313   3.151   2.177  16.971
  488MPD2    H2 7314   3.278   2.134  16.574
  488MPD2    H3 7315   3.221   2.039  16.797
  488MPD2     N 7316   3.136   2.441  16.965
  488MPD2    H5 7317   3.134   2.541  16.950
  488MPD2    N1 7318   3.332   2.387  16.523
  488MPD2    H7 7319   3.300   2.483  16.509
  489TMC3    C1 7320   3.050   2.523  17.175
  489TMC3    C2 7321   3.003   2.642  17.109
  489TMC3    C3 7322   2.997   2.752  17.184
  489TMC3    C4 7323   3.060   2.523  17.309
  489TMC3    C5 7324   3.057   2.644  17.375
  489TMC3    C6 7325   3.026   2.762  17.315
  489TMC3     C 7326   3.094   2.403  17.098
  489TMC3     O 7327   3.112   2.295  17.150
  489TMC3     H 7328   2.977   2.644  17.003
  489TMC3    H1 7329   3.094   2.427  17.347
  489TMC3    H2 7330   3.027   2.859  17.363
  489TMC3    C7 7331   3.115   2.660  17.502
  489TMC3    C8 7332   3.022   2.871  17.106
  489TMC3    O1 7333   3.121   2.777  17.540
  489TMC3    O2 7334   3.083   2.859  17.004
  490MPD2     C 7335   4.143   1.766  17.569
  490MPD2    C1 7336   4.136   1.700  17.687
  490MPD2    C2 7337   4.197   1.753  17.798
  490MPD2    C3 7338   4.268   1.872  17.786
  490MPD2    C4 7339   4.276   1.931  17.664
  490MPD2    C5 7340   4.218   1.881  17.552
  490MPD2     H 7341   4.190   1.698  17.892
  490MPD2    H1 7342   4.336   2.020  17.650
  490MPD2    H2 7343   4.101   1.720  17.480
  490MPD2    H3 7344   4.226   1.929  17.455
  490MPD2     N 7345   4.339   1.939  17.884
  490MPD2    H5 7346   4.391   2.024  17.863
  490MPD2    N1 7347   4.071   1.574  17.706
  490MPD2    H7 7348   4.049   1.536  17.798
  491TMC3    C1 7349   3.956   1.367  17.634
  491TMC3    C2 7350   3.971   1.306  17.760
  491TMC3    C3 7351   3.900   1.190  17.783
  491TMC3    C4 7352   3.895   1.294  17.526
  491TMC3    C5 7353   3.834   1.175  17.555
  491TMC3    C6 7354   3.836   1.120  17.683
  491TMC3     C 7355   4.034   1.493  17.602
  491TMC3     O 7356   4.056   1.511  17.482
  491TMC3     H 7357   4.029   1.348  17.841
  491TMC3    H1 7358   3.898   1.341  17.428
  491TMC3    H2 7359   3.766   1.039  17.698
  491TMC3    C7 7360   3.714   1.141  17.478
  491TMC3    C8 7361   3.912   1.143  17.917
  491TMC3    O1 7362   3.704   1.028  17.434
  491TMC3    O2 7363   3.953   1.225  17.997
  492MPD2     C 7364   4.426   1.953  11.654
  492MPD2    C1 7365   4.354   1.862  11.579
  492MPD2    C2 7366   4.278   1.768  11.639
  492MPD2    C3 7367   4.273   1.759  11.779
  492MPD2    C4 7368   4.338   1.852  11.856
  492MPD2    C5 7369   4.412   1.951  11.796
  492MPD2     H 7370   4.219   1.703  11.575
  492MPD2    H1 7371   4.323   1.851  11.964
  492MPD2    H2 7372   4.480   2.032  11.602
  492MPD2    H3 7373   4.464   2.025  11.855
  492MPD2     N 7374   4.209   1.654  11.849
  492MPD2    H5 7375   4.211   1.650  11.950
  492MPD2    N1 7376   4.355   1.897  11.440
  492MPD2    H7 7377   4.410   1.980  11.420
  493TMC3    C1 7378   4.303   1.899  11.212
  493TMC3    C2 7379   4.327   2.038  11.205
  493TMC3    C3 7380   4.285   2.100  11.088
  493TMC3    C4 7381   4.248   1.826  11.109
  493TMC3    C5 7382   4.202   1.894  10.998
  493TMC3    C6 7383   4.217   2.030  10.990
  493TMC3     C 7384   4.300   1.823  11.340
  493TMC3     O 7385   4.229   1.723  11.342
  493TMC3     H 7386   4.347   2.105  11.287
  493TMC3    H1 7387   4.268   1.720  11.111
  493TMC3    H2 7388   4.187   2.084  10.901
  493TMC3    C7 7389   4.069   1.841  10.960
  493TMC3    C8 7390   4.259   2.241  11.089
  493TMC3    O1 7391   4.031   1.851  10.843
  493TMC3    O2 7392   4.244   2.300  11.195
  494TMC3    C1 7393   4.407   3.404  18.290
  494TMC3    C2 7394   4.483   3.316  18.360
  494TMC3    C3 7395   4.603   3.273  18.316
  494TMC3    C4 7396   4.455   3.451  18.173
  494TMC3    C5 7397   4.585   3.413  18.136
  494TMC3    C6 7398   4.657   3.326  18.205
  494TMC3     C 7399   4.318   3.489  18.371
  494TMC3     O 7400   4.321   3.473  18.492
  494TMC3     H 7401   4.460   3.296  18.465
  494TMC3    H1 7402   4.386   3.502  18.107
  494TMC3    H2 7403   4.762   3.312  18.182
  494TMC3    C7 7404   4.643   3.457  18.011
  494TMC3    C8 7405   4.694   3.207  18.410
  494TMC3    O1 7406   4.722   3.384  17.951
  494TMC3    O2 7407   0.011   3.221  18.391
  495TMC3    C1 7408   3.581   0.527  14.907
  495TMC3    C2 7409   3.494   0.577  14.816
  495TMC3    C3 7410   3.378   0.641  14.870
  495TMC3    C4 7411   3.574   0.557  15.038
  495TMC3    C5 7412   3.476   0.643  15.085
  495TMC3    C6 7413   3.374   0.685  14.997
  495TMC3     C 7414   3.622   0.391  14.891
  495TMC3     O 7415   3.606   0.319  14.989
  495TMC3     H 7416   3.479   0.520  14.726
  495TMC3    H1 7417   3.657   0.524  15.100
  495TMC3    H2 7418   3.291   0.747  15.027
  495TMC3    C7 7419   3.453   0.635  15.224
  495TMC3    C8 7420   3.254   0.653  14.800
  495TMC3    O1 7421   3.556   0.610  15.286
  495TMC3    O2 7422   3.158   0.714  14.850
  496MPD2     C 7423   0.443   0.892  15.740
  496MPD2    C1 7424   0.445   0.769  15.680
  496MPD2    C2 7425   0.361   0.670  15.713
  496MPD2    C3 7426   0.258   0.703  15.804
  496MPD2    C4 7427   0.249   0.820  15.865
  496MPD2    C5 7428   0.339   0.916  15.832
  496MPD2     H 7429   0.360   0.573  15.665
  496MPD2    H1 7430   0.176   0.836  15.943
  496MPD2    H2 7431   0.526   0.957  15.718
  496MPD2    H3 7432   0.324   1.020  15.861
  496MPD2     N 7433   0.167   0.604  15.849
  496MPD2    H5 7434   0.094   0.633  15.912
  496MPD2    N1 7435   0.551   0.752  15.581
  496MPD2    H7 7436   0.627   0.818  15.592
  497TMC3    C1 7437   0.092   0.388  15.882
  497TMC3    C2 7438   0.082   0.275  15.805
  497TMC3    C3 7439   0.128   0.150  15.841
  497TMC3    C4 7440   0.148   0.372  16.005
  497TMC3    C5 7441   0.190   0.249  16.040
  497TMC3    C6 7442   0.182   0.133  15.964
  497TMC3     C 7443   0.167   0.475  15.799
  497TMC3     O 7444   0.202   0.431  15.691
  497TMC3     H 7445   0.042   0.287  15.705
  497TMC3    H1 7446   0.153   0.458  16.071
  497TMC3    H2 7447   0.211   0.034  15.996
  497TMC3    C7 7448   0.240   0.232  16.170
  497TMC3    C8 7449   0.182   0.069  15.737
  497TMC3    O1 7450   0.217   0.123  16.217
  497TMC3    O2 7451   0.192   4.751  15.751
  498MPD2     C 7452   1.298   1.777   9.892
  498MPD2    C1 7453   1.381   1.764  10.006
  498MPD2    C2 7454   1.366   1.650  10.076
  498MPD2    C3 7455   1.274   1.553  10.051
  498MPD2    C4 7456   1.193   1.571   9.937
  498MPD2    C5 7457   1.205   1.683   9.865
  498MPD2     H 7458   1.411   1.655  10.175
  498MPD2    H1 7459   1.127   1.492   9.903
  498MPD2    H2 7460   1.291   1.863   9.827
  498MPD2    H3 7461   1.144   1.695   9.776
  498MPD2     N 7462   1.239   1.453  10.152
  498MPD2    H5 7463   1.309   1.439  10.225
  498MPD2    N1 7464   1.475   1.865  10.043
  498MPD2    H7 7465   1.542   1.846  10.117
  499TMC3    C1 7466   1.602   2.058  10.035
  499TMC3    C2 7467   1.704   1.995  10.105
  499TMC3    C3 7468   1.812   2.075  10.137
  499TMC3    C4 7469   1.603   2.188   9.993
  499TMC3    C5 7470   1.713   2.267  10.030
  499TMC3    C6 7471   1.809   2.209  10.096
  499TMC3     C 7472   1.482   1.988   9.986
  499TMC3     O 7473   1.393   2.048   9.928
  499TMC3     H 7474   1.697   1.890  10.132
  499TMC3    H1 7475   1.527   2.224   9.923
  499TMC3    H2 7476   1.896   2.270  10.116
  499TMC3    C7 7477   1.717   2.418  10.022
  499TMC3    C8 7478   1.926   2.013  10.180
  499TMC3    O1 7479   1.827   2.475  10.032
  499TMC3    O2 7480   1.990   2.064  10.271
  500MPD2     C 7481   3.015   2.759  11.067
  500MPD2    C1 7482   3.039   2.793  10.939
  500MPD2    C2 7483   2.939   2.788  10.847
  500MPD2    C3 7484   2.806   2.773  10.879
  500MPD2    C4 7485   2.776   2.759  11.011
  500MPD2    C5 7486   2.881   2.744  11.106
  500MPD2     H 7487   2.972   2.796  10.744
  500MPD2    H1 7488   2.671   2.754  11.036
  500MPD2    H2 7489   3.095   2.744  11.138
  500MPD2    H3 7490   2.866   2.712  11.209
  500MPD2     N 7491   2.699   2.765  10.783
  500MPD2    H5 7492   2.605   2.781  10.817
  500MPD2    N1 7493   3.165   2.827  10.885
  500MPD2    H7 7494   3.171   2.848  10.786
  501TMC3    C1 7495   3.397   2.890  10.896
  501TMC3    C2 7496   3.400   2.930  10.765
  501TMC3    C3 7497   3.528   2.959  10.720
  501TMC3    C4 7498   3.506   2.903  10.977
  501TMC3    C5 7499   3.626   2.953  10.927
  501TMC3    C6 7500   3.646   2.976  10.792
  501TMC3     C 7501   3.265   2.863  10.961
  501TMC3     O 7502   3.270   2.874  11.084
  501TMC3     H 7503   3.313   2.915  10.703
  501TMC3    H1 7504   3.503   2.857  11.076
  501TMC3    H2 7505   3.742   2.995  10.747
  501TMC3    C7 7506   3.741   2.953  11.018
  501TMC3    C8 7507   3.542   2.954  10.575
  501TMC3    O1 7508   3.849   2.918  10.968
  501TMC3    O2 7509   3.470   2.869  10.522
  502TMC3    C1 7510   2.738   1.270  15.234
  502TMC3    C2 7511   2.712   1.391  15.172
  502TMC3    C3 7512   2.601   1.458  15.212
  502TMC3    C4 7513   2.649   1.209  15.318
  502TMC3    C5 7514   2.543   1.289  15.356
  502TMC3    C6 7515   2.507   1.404  15.296
  502TMC3     C 7516   2.878   1.269  15.279
  502TMC3     O 7517   2.974   1.252  15.200
  502TMC3     H 7518   2.788   1.431  15.106
  502TMC3    H1 7519   2.680   1.121  15.373
  502TMC3    H2 7520   2.414   1.454  15.323
  502TMC3    C7 7521   2.475   1.247  15.482
  502TMC3    C8 7522   2.633   1.599  15.234
  502TMC3    O1 7523   2.552   1.180  15.553
  502TMC3    O2 7524   2.708   1.650  15.153
  503MPD2     C 7525   0.425   2.267  17.150
  503MPD2    C1 7526   0.427   2.311  17.284
  503MPD2    C2 7527   0.445   2.216  17.388
  503MPD2    C3 7528   0.468   2.083  17.364
  503MPD2    C4 7529   0.460   2.042  17.233
  503MPD2    C5 7530   0.452   2.134  17.132
  503MPD2     H 7531   0.434   2.251  17.490
  503MPD2    H1 7532   0.467   1.940  17.196
  503MPD2    H2 7533   0.415   2.326  17.059
  503MPD2    H3 7534   0.444   2.087  17.034
  503MPD2     N 7535   0.495   1.996  17.474
  503MPD2    H5 7536   0.521   2.035  17.564
  503MPD2    N1 7537   0.403   2.445  17.316
  503MPD2    H7 7538   0.397   2.469  17.415
  504TMC3    C1 7539   0.603   1.810  17.557
  504TMC3    C2 7540   0.557   1.815  17.685
  504TMC3    C3 7541   0.642   1.764  17.780
  504TMC3    C4 7542   0.722   1.747  17.521
  504TMC3    C5 7543   0.805   1.715  17.620
  504TMC3    C6 7544   0.764   1.718  17.751
  504TMC3     C 7545   0.527   1.864  17.455
  504TMC3     O 7546   0.531   1.797  17.347
  504TMC3     H 7547   0.466   1.866  17.715
  504TMC3    H1 7548   0.746   1.741  17.415
  504TMC3    H2 7549   0.835   1.677  17.822
  504TMC3    C7 7550   0.924   1.652  17.579
  504TMC3    C8 7551   0.576   1.727  17.897
  504TMC3    O1 7552   0.963   1.704  17.476
  504TMC3    O2 7553   0.462   1.691  17.886
  505MPD2     C 7554   0.682   0.655  11.547
  505MPD2    C1 7555   0.736   0.678  11.426
  505MPD2    C2 7556   0.824   0.791  11.412
  505MPD2    C3 7557   0.871   0.854  11.528
  505MPD2    C4 7558   0.808   0.830  11.646
  505MPD2    C5 7559   0.711   0.733  11.653
  505MPD2     H 7560   0.870   0.820  11.318
  505MPD2    H1 7561   0.828   0.880  11.740
  505MPD2    H2 7562   0.615   0.571  11.554
  505MPD2    H3 7563   0.672   0.711  11.751
  505MPD2     N 7564   0.982   0.950  11.529
  505MPD2    H5 7565   1.016   0.979  11.620
  505MPD2    N1 7566   0.703   0.594  11.313
  505MPD2    H7 7567   0.662   0.504  11.334
  506TMC3    C1 7568   0.776   0.485  11.130
  506TMC3    C2 7569   0.811   0.486  10.998
  506TMC3    C3 7570   0.897   0.388  10.948
  506TMC3    C4 7571   0.844   0.396  11.214
  506TMC3    C5 7572   0.928   0.300  11.160
  506TMC3    C6 7573   0.953   0.296  11.028
  506TMC3     C 7574   0.750   0.613  11.189
  506TMC3     O 7575   0.799   0.711  11.137
  506TMC3     H 7576   0.776   0.569  10.937
  506TMC3    H1 7577   0.845   0.399  11.322
  506TMC3    H2 7578   1.031   0.228  10.995
  506TMC3    C7 7579   1.031   0.263  11.257
  506TMC3    C8 7580   0.927   0.375  10.803
  506TMC3    O1 7581   1.016   0.170  11.331
  506TMC3    O2 7582   0.969   0.269  10.760
  507TMC3    C1 7583   1.402   1.765  15.147
  507TMC3    C2 7584   1.370   1.688  15.036
  507TMC3    C3 7585   1.399   1.731  14.911
  507TMC3    C4 7586   1.465   1.881  15.126
  507TMC3    C5 7587   1.511   1.915  15.004
  507TMC3    C6 7588   1.477   1.841  14.892
  507TMC3     C 7589   1.293   1.772  15.247
  507TMC3     O 7590   1.320   1.806  15.364
  507TMC3     H 7591   1.329   1.592  15.063
  507TMC3    H1 7592   1.477   1.944  15.214
  507TMC3    H2 7593   1.513   1.881  14.798
  507TMC3    C7 7594   1.509   2.060  14.976
  507TMC3    C8 7595   1.275   1.750  14.834
  507TMC3    O1 7596   1.464   2.084  14.866
  507TMC3    O2 7597   1.172   1.739  14.898
  508MPD2     C 7598   2.340   3.820  15.735
  508MPD2    C1 7599   2.347   3.927  15.820
  508MPD2    C2 7600   2.373   4.052  15.765
  508MPD2    C3 7601   2.379   4.072  15.634
  508MPD2    C4 7602   2.374   3.963  15.550
  508MPD2    C5 7603   2.357   3.840  15.601
  508MPD2     H 7604   2.376   4.144  15.823
  508MPD2    H1 7605   2.398   3.972  15.444
  508MPD2    H2 7606   2.315   3.722  15.773
  508MPD2    H3 7607   2.357   3.752  15.538
  508MPD2     N 7608   2.392   4.207  15.583
  508MPD2    H5 7609   2.399   4.281  15.652
  508MPD2    N1 7610   2.323   3.919  15.958
  508MPD2    H7 7611   2.315   3.826  15.998
  509TMC3    C1 7612   2.254   4.575  15.471
  509TMC3    C2 7613   2.362   4.638  15.533
  509TMC3    C3 7614   2.475   4.566  15.541
  509TMC3    C4 7615   2.259   4.444  15.419
  509TMC3    C5 7616   2.376   4.378  15.433
  509TMC3    C6 7617   2.485   4.435  15.496
  509TMC3     C 7618   2.121   4.635  15.493
  509TMC3     O 7619   2.024   4.578  15.457
  509TMC3     H 7620   2.356   4.734  15.583
  509TMC3    H1 7621   2.171   4.396  15.378
  509TMC3    H2 7622   2.576   4.378  15.506
  509TMC3    C7 7623   2.352   4.239  15.457
  509TMC3    C8 7624   2.581   4.604  15.632
  509TMC3    O1 7625   2.297   4.165  15.375
  509TMC3    O2 7626   2.655   4.522  15.685
  510MPD2     C 7627   0.007   0.959  14.620
  510MPD2    C1 7628   0.065   0.939  14.745
  510MPD2    C2 7629   0.204   0.943  14.756
  510MPD2    C3 7630   0.280   0.980  14.647
  510MPD2    C4 7631   0.216   1.010  14.529
  510MPD2    C5 7632   0.080   1.000  14.512
  510MPD2     H 7633   0.242   0.926  14.855
  510MPD2    H1 7634   0.264   1.032  14.434
  510MPD2    H2 7635   4.704   0.948  14.624
  510MPD2    H3 7636   0.032   1.025  14.418
  510MPD2     N 7637   0.422   0.980  14.659
  510MPD2    H5 7638   0.463   0.922  14.731
  510MPD2    N1 7639   4.786   0.917  14.855
  510MPD2    H7 7640   4.691   0.884  14.840
  511TMC3    C1 7641   4.701   0.837  15.051
  511TMC3    C2 7642   4.677   0.854  15.181
  511TMC3    C3 7643   4.566   0.791  15.235
  511TMC3    C4 7644   4.640   0.737  14.975
  511TMC3    C5 7645   4.537   0.668  15.036
  511TMC3    C6 7646   4.494   0.690  15.168
  511TMC3     C 7647   0.017   0.895  14.987
  511TMC3     O 7648   0.121   0.911  15.049
  511TMC3     H 7649   4.736   0.920  15.244
  511TMC3    H1 7650   4.686   0.706  14.881
  511TMC3    H2 7651   4.392   0.665  15.196
  511TMC3    C7 7652   4.466   0.566  14.951
  511TMC3    C8 7653   4.528   0.818  15.370
  511TMC3    O1 7654   4.488   0.587  14.832
  511TMC3    O2 7655   4.572   0.922  15.418
  512TMC3    C1 7656   3.623   0.589  13.774
  512TMC3    C2 7657   3.724   0.523  13.830
  512TMC3    C3 7658   3.772   0.405  13.781
  512TMC3    C4 7659   3.568   0.537  13.656
  512TMC3    C5 7660   3.619   0.421  13.597
  512TMC3    C6 7661   3.728   0.361  13.656
  512TMC3     C 7662   3.634   0.731  13.783
  512TMC3     O 7663   3.742   0.778  13.802
  512TMC3     H 7664   3.774   0.564  13.917
  512TMC3    H1 7665   3.494   0.586  13.594
  512TMC3    H2 7666   3.774   0.269  13.622
  512TMC3    C7 7667   3.569   0.383  13.469
  512TMC3    C8 7668   3.889   0.349  13.843
  512TMC3    O1 7669   3.521   0.468  13.397
  512TMC3    O2 7670   3.894   0.230  13.881
  513MPD2     C 7671   0.707   4.534  13.272
  513MPD2    C1 7672   0.841   4.514  13.261
  513MPD2    C2 7673   0.920   4.582  13.351
  513MPD2    C3 7674   0.867   4.688  13.434
  513MPD2    C4 7675   0.730   4.710  13.436
  513MPD2    C5 7676   0.652   4.623  13.364
  513MPD2     H 7677   1.027   4.571  13.364
  513MPD2    H1 7678   0.686   4.777  13.509
  513MPD2    H2 7679   0.638   4.485  13.204
  513MPD2    H3 7680   0.545   4.636  13.368
  513MPD2     N 7681   0.954   4.770  13.505
  513MPD2    H5 7682   1.051   4.753  13.483
  513MPD2    N1 7683   0.899   4.426  13.165
  513MPD2    H7 7684   0.836   4.365  13.113
  514TMC3    C1 7685   1.127   4.516  13.141
  514TMC3    C2 7686   1.093   4.638  13.093
  514TMC3    C3 7687   1.198   4.723  13.051
  514TMC3    C4 7688   1.263   4.472  13.139
  514TMC3    C5 7689   1.357   4.564  13.105
  514TMC3    C6 7690   1.324   4.693  13.070
  514TMC3     C 7691   1.033   4.405  13.132
  514TMC3     O 7692   1.081   4.300  13.088
  514TMC3     H 7693   0.991   4.665  13.068
  514TMC3    H1 7694   1.287   4.373  13.176
  514TMC3    H2 7695   1.405   4.764  13.059
  514TMC3    C7 7696   1.482   4.510  13.069
  514TMC3    C8 7697   1.166   0.056  13.037
  514TMC3    O1 7698   1.467   4.418  12.988
  514TMC3    O2 7699   1.070   0.102  13.097
  515MPD2     C 7700   3.765   1.943  15.156
  515MPD2    C1 7701   3.870   1.940  15.069
  515MPD2    C2 7702   3.973   2.028  15.084
  515MPD2    C3 7703   3.970   2.125  15.182
  515MPD2    C4 7704   3.865   2.116  15.272
  515MPD2    C5 7705   3.768   2.026  15.257
  515MPD2     H 7706   4.048   2.023  15.006
  515MPD2    H1 7707   3.854   2.193  15.347
  515MPD2    H2 7708   3.675   1.882  15.152
  515MPD2    H3 7709   3.681   2.036  15.320
  515MPD2     N 7710   4.059   2.237  15.192
  515MPD2    H5 7711   4.056   2.281  15.283
  515MPD2    N1 7712   3.870   1.851  14.962
  515MPD2    H7 7713   3.940   1.871  14.891
  516TMC3    C1 7714   3.819   1.661  14.831
  516TMC3    C2 7715   3.774   1.721  14.714
  516TMC3    C3 7716   3.713   1.636  14.623
  516TMC3    C4 7717   3.802   1.527  14.856
  516TMC3    C5 7718   3.741   1.447  14.764
  516TMC3    C6 7719   3.684   1.508  14.652
  516TMC3     C 7720   3.791   1.742  14.953
  516TMC3     O 7721   3.714   1.698  15.035
  516TMC3     H 7722   3.781   1.829  14.720
  516TMC3    H1 7723   3.830   1.493  14.955
  516TMC3    H2 7724   3.650   1.439  14.576
  516TMC3    C7 7725   3.688   1.319  14.815
  516TMC3    C8 7726   3.629   1.699  14.528
  516TMC3    O1 7727   3.748   1.256  14.903
  516TMC3    O2 7728   3.520   1.655  14.505
  517MPD2     C 7729   3.279   3.647  17.719
  517MPD2    C1 7730   3.405   3.635  17.777
  517MPD2    C2 7731   3.451   3.735  17.862
  517MPD2    C3 7732   3.368   3.844  17.888
  517MPD2    C4 7733   3.245   3.857  17.825
  517MPD2    C5 7734   3.202   3.758  17.743
  517MPD2     H 7735   3.554   3.721  17.893
  517MPD2    H1 7736   3.190   3.950  17.835
  517MPD2    H2 7737   3.251   3.575  17.644
  517MPD2    H3 7738   3.113   3.774  17.683
  517MPD2     N 7739   3.410   3.946  17.985
  517MPD2    H5 7740   3.344   4.022  18.001
  517MPD2    N1 7741   3.484   3.515  17.761
  517MPD2    H7 7742   3.568   3.513  17.818
  518TMC3    C1 7743   3.566   3.312  17.669
  518TMC3    C2 7744   3.544   3.175  17.662
  518TMC3    C3 7745   3.659   3.096  17.649
  518TMC3    C4 7746   3.696   3.372  17.664
  518TMC3    C5 7747   3.803   3.288  17.650
  518TMC3    C6 7748   3.786   3.151  17.646
  518TMC3     C 7749   3.453   3.397  17.700
  518TMC3     O 7750   3.341   3.357  17.668
  518TMC3     H 7751   3.448   3.129  17.681
  518TMC3    H1 7752   3.716   3.477  17.648
  518TMC3    H2 7753   3.868   3.083  17.625
  518TMC3    C7 7754   3.933   3.344  17.676
  518TMC3    C8 7755   3.651   2.959  17.597
  518TMC3    O1 7756   3.926   3.462  17.708
  518TMC3    O2 7757   3.751   2.888  17.598
  519MPD2     C 7758   0.106   1.999  14.704
  519MPD2    C1 7759   0.120   2.000  14.566
  519MPD2    C2 7760   0.216   1.911  14.509
  519MPD2    C3 7761   0.301   1.835  14.592
  519MPD2    C4 7762   0.290   1.846  14.730
  519MPD2    C5 7763   0.189   1.926  14.780
  519MPD2     H 7764   0.213   1.897  14.401
  519MPD2    H1 7765   0.350   1.787  14.798
  519MPD2    H2 7766   0.042   2.078  14.742
  519MPD2    H3 7767   0.167   1.934  14.886
  519MPD2     N 7768   0.397   1.742  14.542
  519MPD2    H5 7769   0.457   1.696  14.610
  519MPD2    N1 7770   0.035   2.081  14.481
  519MPD2    H7 7771   4.759   2.122  14.526
  520TMC3    C1 7772   0.503   1.609  14.374
  520TMC3    C2 7773   0.483   1.574  14.239
  520TMC3    C3 7774   0.590   1.594  14.159
  520TMC3    C4 7775   0.622   1.658  14.425
  520TMC3    C5 7776   0.724   1.667  14.335
  520TMC3    C6 7777   0.716   1.629  14.203
  520TMC3     C 7778   0.395   1.693  14.414
  520TMC3     O 7779   0.317   1.716  14.322
  520TMC3     H 7780   0.384   1.549  14.202
  520TMC3    H1 7781   0.638   1.676  14.531
  520TMC3    H2 7782   0.798   1.636  14.133
  520TMC3    C7 7783   0.855   1.652  14.391
  520TMC3    C8 7784   0.560   1.615  14.018
  520TMC3    O1 7785   0.861   1.610  14.507
  520TMC3    O2 7786   0.654   1.646  13.950
  521MPD2     C 7787   1.254   0.106  17.384
  521MPD2    C1 7788   1.227   4.804  17.303
  521MPD2    C2 7789   1.329   4.763  17.222
  521MPD2    C3 7790   1.451   0.021  17.214
  521MPD2    C4 7791   1.475   0.135  17.286
  521MPD2    C5 7792   1.373   0.174  17.372
  521MPD2     H 7793   1.320   4.668  17.171
  521MPD2    H1 7794   1.573   0.181  17.294
  521MPD2    H2 7795   1.184   0.138  17.460
  521MPD2    H3 7796   1.402   0.251  17.443
  521MPD2     N 7797   1.553   4.759  17.148
  521MPD2    H5 7798   1.534   4.665  17.114
  521MPD2    N1 7799   1.105   4.740  17.318
  521MPD2    H7 7800   1.037   4.773  17.385
  522TMC3    C1 7801   1.730   4.759  17.002
  522TMC3    C2 7802   1.852   4.704  17.025
  522TMC3    C3 7803   1.882   4.588  16.960
  522TMC3    C4 7804   1.643   4.698  16.921
  522TMC3    C5 7805   1.680   4.585  16.849
  522TMC3    C6 7806   1.798   4.529  16.872
  522TMC3     C 7807   1.670   0.021  17.115
  522TMC3     O 7808   1.707   0.139  17.137
  522TMC3     H 7809   1.916   4.740  17.106
  522TMC3    H1 7810   1.545   4.741  16.906
  522TMC3    H2 7811   1.819   4.426  16.845
  522TMC3    C7 7812   1.572   4.495  16.810
  522TMC3    C8 7813   2.026   4.557  16.956
  522TMC3    O1 7814   1.596   4.377  16.841
  522TMC3    O2 7815   2.094   4.601  17.048
  523MPD2     C 7816   3.774   4.723  10.469
  523MPD2    C1 7817   3.689   4.634  10.412
  523MPD2    C2 7818   3.611   4.675  10.304
  523MPD2    C3 7819   3.604   0.007  10.264
  523MPD2    C4 7820   3.676   0.095  10.334
  523MPD2    C5 7821   3.763   0.051  10.429
  523MPD2     H 7822   3.550   4.612  10.240
  523MPD2    H1 7823   3.693   0.199  10.307
  523MPD2    H2 7824   3.845   4.697  10.546
  523MPD2    H3 7825   3.831   0.122  10.475
  523MPD2     N 7826   3.535   0.060  10.151
  523MPD2    H5 7827   3.531   0.160  10.136
  523MPD2    N1 7828   3.693   4.500  10.461
  523MPD2    H7 7829   3.757   4.486  10.539
  524TMC3    C1 7830   3.394   0.089   9.976
  524TMC3    C2 7831   3.371   0.051   9.850
  524TMC3    C3 7832   3.312   0.139   9.764
  524TMC3    C4 7833   3.379   0.222  10.019
  524TMC3    C5 7834   3.305   0.304   9.939
  524TMC3    C6 7835   3.278   0.266   9.812
  524TMC3     C 7836   3.461   4.798  10.062
  524TMC3     O 7837   3.468   4.680  10.034
  524TMC3     H 7838   3.394   4.754   9.821
  524TMC3    H1 7839   3.365   0.240  10.125
  524TMC3    H2 7840   3.256   0.342   9.737
  524TMC3    C7 7841   3.344   0.446   9.968
  524TMC3    C8 7842   3.235   0.077   9.663
  524TMC3    O1 7843   3.416   0.460  10.067
  524TMC3    O2 7844   3.253   4.763   9.647
  525MPD2     C 7845   1.565   1.294  14.969
  525MPD2    C1 7846   1.687   1.292  15.015
  525MPD2    C2 7847   1.777   1.392  14.975
  525MPD2    C3 7848   1.740   1.484  14.872
  525MPD2    C4 7849   1.610   1.476  14.835
  525MPD2    C5 7850   1.521   1.392  14.891
  525MPD2     H 7851   1.880   1.387  15.008
  525MPD2    H1 7852   1.573   1.542  14.758
  525MPD2    H2 7853   1.495   1.216  14.998
  525MPD2    H3 7854   1.425   1.378  14.841
  525MPD2     N 7855   1.811   1.596  14.836
  525MPD2    H5 7856   1.762   1.667  14.783
  525MPD2    N1 7857   1.732   1.197  15.108
  525MPD2    H7 7858   1.818   1.216  15.158
  526TMC3    C1 7859   1.726   1.024  15.267
  526TMC3    C2 7860   1.646   0.988  15.376
  526TMC3    C3 7861   1.707   0.953  15.493
  526TMC3    C4 7862   1.859   1.022  15.270
  526TMC3    C5 7863   1.914   0.991  15.391
  526TMC3    C6 7864   1.841   0.960  15.500
  526TMC3     C 7865   1.663   1.079  15.148
  526TMC3     O 7866   1.559   1.035  15.109
  526TMC3     H 7867   1.540   0.985  15.357
  526TMC3    H1 7868   1.915   1.032  15.178
  526TMC3    H2 7869   1.884   0.930  15.595
  526TMC3    C7 7870   2.061   0.981  15.401
  526TMC3    C8 7871   1.643   0.978  15.625
  526TMC3    O1 7872   2.104   0.958  15.518
  526TMC3    O2 7873   1.701   0.946  15.725
  527MPD2     C 7874   4.610   4.241  19.558
  527MPD2    C1 7875   4.577   4.281  19.436
  527MPD2    C2 7876   4.662   4.247  19.333
  527MPD2    C3 7877   4.764   4.153  19.358
  527MPD2    C4 7878   4.784   4.109  19.488
  527MPD2    C5 7879   4.723   4.179  19.591
  527MPD2     H 7880   4.648   4.278  19.230
  527MPD2    H1 7881   0.069   4.052  19.513
  527MPD2    H2 7882   4.569   4.283  19.650
  527MPD2    H3 7883   4.734   4.163  19.697
  527MPD2     N 7884   0.042   4.106  19.244
  527MPD2    H5 7885   0.032   4.155  19.156
  527MPD2    N1 7886   4.465   4.356  19.405
  527MPD2    H7 7887   4.460   4.375  19.305
  528TMC3    C1 7888   4.268   4.492  19.414
  528TMC3    C2 7889   4.162   4.539  19.483
  528TMC3    C3 7890   4.060   4.593  19.418
  528TMC3    C4 7891   4.279   4.505  19.278
  528TMC3    C5 7892   4.164   4.548  19.209
  528TMC3    C6 7893   4.054   4.597  19.282
  528TMC3     C 7894   4.370   4.412  19.488
  528TMC3     O 7895   4.352   4.392  19.606
  528TMC3     H 7896   4.153   4.538  19.591
  528TMC3    H1 7897   4.367   4.470  19.225
  528TMC3    H2 7898   3.961   4.624  19.233
  528TMC3    C7 7899   4.175   4.575  19.064
  528TMC3    C8 7900   3.961   4.661  19.504
  528TMC3    O1 7901   4.125   4.678  19.016
  528TMC3    O2 7902   3.898   4.597  19.589
  529MPD2     C 7903   1.937   2.758  18.920
  529MPD2    C1 7904   1.976   2.685  18.809
  529MPD2    C2 7905   1.937   2.729  18.684
  529MPD2    C3 7906   1.854   2.836  18.672
  529MPD2    C4 7907   1.803   2.897  18.788
  529MPD2    C5 7908   1.842   2.856  18.913
  529MPD2     H 7909   1.964   2.678  18.592
  529MPD2    H1 7910   1.742   2.986  18.784
  529MPD2    H2 7911   1.963   2.734  19.022
  529MPD2    H3 7912   1.819   2.907  19.006
  529MPD2     N 7913   1.820   2.891  18.546
  529MPD2    H5 7914   1.758   2.971  18.546
  529MPD2    N1 7915   2.067   2.575  18.818
  529MPD2    H7 7916   2.124   2.556  18.737
  530TMC3    C1 7917   2.171   2.391  18.925
  530TMC3    C2 7918   2.255   2.367  19.029
  530TMC3    C3 7919   2.350   2.269  19.014
  530TMC3    C4 7920   2.184   2.326  18.809
  530TMC3    C5 7921   2.285   2.237  18.795
  530TMC3    C6 7922   2.369   2.210  18.895
  530TMC3     C 7923   2.083   2.503  18.940
  530TMC3     O 7924   2.040   2.524  19.053
  530TMC3     H 7925   2.233   2.408  19.127
  530TMC3    H1 7926   2.107   2.329  18.733
  530TMC3    H2 7927   2.446   2.135  18.879
  530TMC3    C7 7928   2.246   2.112  18.755
  530TMC3    C8 7929   2.345   2.172  19.127
  530TMC3    O1 7930   2.331   2.041  18.706
  530TMC3    O2 7931   2.242   2.161  19.196
  531MPD2     C 7932   1.687   0.101  13.340
  531MPD2    C1 7933   1.573   0.032  13.360
  531MPD2    C2 7934   1.544   4.721  13.289
  531MPD2    C3 7935   1.626   4.690  13.185
  531MPD2    C4 7936   1.748   4.756  13.163
  531MPD2    C5 7937   1.772   0.057  13.249
  531MPD2     H 7938   1.458   4.662  13.320
  531MPD2    H1 7939   1.806   4.744  13.072
  531MPD2    H2 7940   1.709   0.194  13.390
  531MPD2    H3 7941   1.856   0.121  13.223
  531MPD2     N 7942   1.597   4.594  13.090
  531MPD2    H5 7943   1.676   4.589  13.026
  531MPD2    N1 7944   1.487   0.077  13.460
  531MPD2    H7 7945   1.516   0.143  13.532
  532TMC3    C1 7946   1.270   0.111  13.553
  532TMC3    C2 7947   1.137   0.126  13.513
  532TMC3    C3 7948   1.053   0.139  13.618
  532TMC3    C4 7949   1.315   0.107  13.679
  532TMC3    C5 7950   1.219   0.128  13.771
  532TMC3    C6 7951   1.088   0.140  13.748
  532TMC3     C 7952   1.351   0.046  13.449
  532TMC3     O 7953   1.288   4.785  13.368
  532TMC3     H 7954   1.106   0.130  13.409
  532TMC3    H1 7955   1.419   0.086  13.704
  532TMC3    H2 7956   1.024   0.166  13.831
  532TMC3    C7 7957   1.263   0.159  13.904
  532TMC3    C8 7958   0.926   0.073  13.585
  532TMC3    O1 7959   1.209   0.248  13.962
  532TMC3    O2 7960   0.816   0.100  13.634
  533TMC3    C1 7961   1.980   1.753  14.824
  533TMC3    C2 7962   2.104   1.789  14.854
  533TMC3    C3 7963   2.132   1.908  14.915
  533TMC3    C4 7964   1.885   1.848  14.857
  533TMC3    C5 7965   1.917   1.956  14.940
  533TMC3    C6 7966   2.040   1.994  14.966
  533TMC3     C 7967   1.946   1.622  14.862
  533TMC3     O 7968   2.028   1.550  14.912
  533TMC3     H 7969   2.179   1.712  14.843
  533TMC3    H1 7970   1.781   1.832  14.829
  533TMC3    H2 7971   2.069   2.084  15.019
  533TMC3    C7 7972   1.832   1.939  15.056
  533TMC3    C8 7973   2.274   1.950  14.930
  533TMC3    O1 7974   1.790   1.824  15.072
  533TMC3    O2 7975   2.294   2.060  14.985
  534MPD2     C 7976   0.022   2.583  19.186
  534MPD2    C1 7977   4.710   2.651  19.220
  534MPD2    C2 7978   4.587   2.590  19.204
  534MPD2    C3 7979   4.578   2.450  19.184
  534MPD2    C4 7980   4.692   2.379  19.171
  534MPD2    C5 7981   0.004   2.449  19.152
  534MPD2     H 7982   4.498   2.643  19.235
  534MPD2    H1 7983   4.694   2.272  19.155
  534MPD2    H2 7984   0.124   2.619  19.191
  534MPD2    H3 7985   0.095   2.391  19.142
  534MPD2     N 7986   4.451   2.383  19.161
  534MPD2    H5 7987   4.450   2.282  19.153
  534MPD2    N1 7988   4.702   2.780  19.264
  534MPD2    H7 7989   4.613   2.820  19.290
  535TMC3    C1 7990   4.227   2.345  19.136
  535TMC3    C2 7991   4.108   2.357  19.192
  535TMC3    C3 7992   4.000   2.338  19.114
  535TMC3    C4 7993   4.243   2.300  19.006
  535TMC3    C5 7994   4.131   2.286  18.935
  535TMC3    C6 7995   4.013   2.313  18.982
  535TMC3     C 7996   4.330   2.430  19.189
  535TMC3     O 7997   4.300   2.528  19.254
  535TMC3     H 7998   4.113   2.395  19.293
  535TMC3    H1 7999   4.336   2.303  18.950
  535TMC3    H2 8000   3.924   2.313  18.921
  535TMC3    C7 8001   4.153   2.282  18.792
  535TMC3    C8 8002   3.871   2.364  19.168
  535TMC3    O1 8003   4.241   2.210  18.744
  535TMC3    O2 8004   3.779   2.312  19.104
  536MPD2     C 8005   3.507   1.260  16.606
  536MPD2    C1 8006   3.398   1.176  16.589
  536MPD2    C2 8007   3.293   1.201  16.495
  536MPD2    C3 8008   3.314   1.320  16.422
  536MPD2    C4 8009   3.433   1.395  16.432
  536MPD2    C5 8010   3.524   1.370  16.525
  536MPD2     H 8011   3.199   1.148  16.483
  536MPD2    H1 8012   3.453   1.481  16.369
  536MPD2    H2 8013   3.580   1.234  16.681
  536MPD2    H3 8014   3.615   1.427  16.539
  536MPD2     N 8015   3.220   1.368  16.326
  536MPD2    H5 8016   3.243   1.455  16.280
  536MPD2    N1 8017   3.375   1.077  16.683
  536MPD2    H7 8018   3.446   1.069  16.756
  537TMC3    C1 8019   3.263   0.911  16.806
  537TMC3    C2 8020   3.270   0.978  16.927
  537TMC3    C3 8021   3.268   0.897  17.043
  537TMC3    C4 8022   3.219   0.783  16.795
  537TMC3    C5 8023   3.227   0.704  16.905
  537TMC3    C6 8024   3.250   0.759  17.027
  537TMC3     C 8025   3.280   0.982  16.679
  537TMC3     O 8026   3.190   0.958  16.600
  537TMC3     H 8027   3.274   1.086  16.927
  537TMC3    H1 8028   3.179   0.745  16.702
  537TMC3    H2 8029   3.286   0.701  17.112
  537TMC3    C7 8030   3.174   0.573  16.880
  537TMC3    C8 8031   3.315   0.962  17.166
  537TMC3    O1 8032   3.167   0.527  16.768
  537TMC3    O2 8033   3.377   0.889  17.237
  538TMC3    C1 8034   4.305   4.095  11.294
  538TMC3    C2 8035   4.413   4.028  11.243
  538TMC3    C3 8036   4.442   4.055  11.114
  538TMC3    C4 8037   4.222   4.166  11.219
  538TMC3    C5 8038   4.260   4.192  11.087
  538TMC3    C6 8039   4.372   4.142  11.029
  538TMC3     C 8040   4.275   4.091  11.434
  538TMC3     O 8041   4.165   4.127  11.462
  538TMC3     H 8042   4.456   3.939  11.289
  538TMC3    H1 8043   4.138   4.223  11.257
  538TMC3    H2 8044   4.386   4.159  10.923
  538TMC3    C7 8045   4.191   4.300  11.022
  538TMC3    C8 8046   4.550   3.985  11.054
  538TMC3    O1 8047   4.085   4.325  11.075
  538TMC3    O2 8048   4.569   3.867  11.084
  539MPD2     C 8049   3.921   3.652  12.206
  539MPD2    C1 8050   3.950   3.652  12.068
  539MPD2    C2 8051   3.926   3.760  11.988
  539MPD2    C3 8052   3.886   3.874  12.046
  539MPD2    C4 8053   3.863   3.883  12.184
  539MPD2    C5 8054   3.879   3.768  12.264
  539MPD2     H 8055   3.945   3.750  11.882
  539MPD2    H1 8056   3.822   3.975  12.226
  539MPD2    H2 8057   3.935   3.572  12.277
  539MPD2    H3 8058   3.864   3.778  12.371
  539MPD2     N 8059   3.882   3.998  11.966
  539MPD2    H5 8060   3.862   4.081  12.020
  539MPD2    N1 8061   4.009   3.541  12.005
  539MPD2    H7 8062   4.036   3.558  11.909
  540TMC3    C1 8063   3.923   4.157  11.793
  540TMC3    C2 8064   3.939   4.181  11.660
  540TMC3    C3 8065   3.924   4.312  11.617
  540TMC3    C4 8066   3.882   4.259  11.871
  540TMC3    C5 8067   3.845   4.384  11.817
  540TMC3    C6 8068   3.864   4.411  11.683
  540TMC3     C 8069   3.926   4.020  11.842
  540TMC3     O 8070   3.959   3.937  11.759
  540TMC3     H 8071   3.958   4.104  11.587
  540TMC3    H1 8072   3.876   4.255  11.979
  540TMC3    H2 8073   3.834   4.504  11.637
  540TMC3    C7 8074   3.756   4.468  11.892
  540TMC3    C8 8075   3.892   4.327  11.485
  540TMC3    O1 8076   3.664   4.406  11.949
  540TMC3    O2 8077   3.963   4.406  11.425
  541MPD2     C 8078   2.978   0.471  13.639
  541MPD2    C1 8079   2.843   0.446  13.635
  541MPD2    C2 8080   2.771   0.487  13.524
  541MPD2    C3 8081   2.838   0.554  13.423
  541MPD2    C4 8082   2.968   0.588  13.433
  541MPD2    C5 8083   3.042   0.542  13.541
  541MPD2     H 8084   2.666   0.471  13.507
  541MPD2    H1 8085   3.001   0.656  13.355
  541MPD2    H2 8086   3.031   0.433  13.726
  541MPD2    H3 8087   3.150   0.545  13.550
  541MPD2     N 8088   2.780   0.582  13.299
  541MPD2    H5 8089   2.820   0.662  13.252
  541MPD2    N1 8090   2.782   0.363  13.728
  541MPD2    H7 8091   2.841   0.291  13.767
  542TMC3    C1 8092   2.613   0.584  13.134
  542TMC3    C2 8093   2.553   0.507  13.040
  542TMC3    C3 8094   2.500   0.570  12.927
  542TMC3    C4 8095   2.610   0.720  13.135
  542TMC3    C5 8096   2.552   0.780  13.025
  542TMC3    C6 8097   2.506   0.704  12.917
  542TMC3     C 8098   2.664   0.524  13.255
  542TMC3     O 8099   2.611   0.418  13.295
  542TMC3     H 8100   2.554   0.398  13.048
  542TMC3    H1 8101   2.651   0.779  13.217
  542TMC3    H2 8102   2.459   0.753  12.832
  542TMC3    C7 8103   2.535   0.927  13.030
  542TMC3    C8 8104   2.553   0.503  12.805
  542TMC3    O1 8105   2.504   0.981  13.136
  542TMC3    O2 8106   2.642   0.566  12.746
  543TMC3    C1 8107   2.039   1.750  17.845
  543TMC3    C2 8108   2.079   1.626  17.889
  543TMC3    C3 8109   2.018   1.565  17.990
  543TMC3    C4 8110   1.948   1.831  17.910
  543TMC3    C5 8111   1.900   1.771  18.027
  543TMC3    C6 8112   1.931   1.641  18.058
  543TMC3     C 8113   2.074   1.775  17.711
  543TMC3     O 8114   2.105   1.680  17.642
  543TMC3     H 8115   2.162   1.574  17.843
  543TMC3    H1 8116   1.906   1.926  17.879
  543TMC3    H2 8117   1.891   1.591  18.145
  543TMC3    C7 8118   1.811   1.848  18.111
  543TMC3    C8 8119   2.000   1.424  17.972
  543TMC3    O1 8120   1.741   1.790  18.194
  543TMC3    O2 8121   2.071   1.369  17.891
  544MPD2     C 8122   1.740   0.987  18.057
  544MPD2    C1 8123   1.827   1.022  17.960
  544MPD2    C2 8124   1.892   1.145  17.957
  544MPD2    C3 8125   1.856   1.236  18.055
  544MPD2    C4 8126   1.763   1.207  18.157
  544MPD2    C5 8127   1.714   1.078  18.160
  544MPD2     H 8128   1.964   1.173  17.881
  544MPD2    H1 8129   1.735   1.279  18.233
  544MPD2    H2 8130   1.680   0.897  18.051
  544MPD2    H3 8131   1.637   1.054  18.232
  544MPD2     N 8132   1.901   1.374  18.053
  544MPD2    H5 8133   1.844   1.433  18.114
  544MPD2    N1 8134   1.845   0.925  17.865
  544MPD2    H7 8135   1.798   0.837  17.887
  545TMC3    C1 8136   1.884   0.835  17.644
  545TMC3    C2 8137   1.969   0.837  17.534
  545TMC3    C3 8138   1.976   0.720  17.457
  545TMC3    C4 8139   1.799   0.726  17.672
  545TMC3    C5 8140   1.799   0.623  17.582
  545TMC3    C6 8141   1.884   0.617  17.477
  545TMC3     C 8142   1.909   0.942  17.742
  545TMC3     O 8143   1.985   1.033  17.707
  545TMC3     H 8144   2.026   0.927  17.514
  545TMC3    H1 8145   1.731   0.728  17.756
  545TMC3    H2 8146   1.879   0.535  17.406
  545TMC3    C7 8147   1.730   0.507  17.621
  545TMC3    C8 8148   2.046   0.709  17.332
  545TMC3    O1 8149   1.633   0.525  17.693
  545TMC3    O2 8150   2.061   0.597  17.279
  546MPD2     C 8151   3.548   1.492  17.819
  546MPD2    C1 8152   3.445   1.548  17.750
  546MPD2    C2 8153   3.469   1.659  17.671
  546MPD2    C3 8154   3.595   1.718  17.675
  546MPD2    C4 8155   3.700   1.652  17.738
  546MPD2    C5 8156   3.675   1.546  17.815
  546MPD2     H 8157   3.385   1.707  17.623
  546MPD2    H1 8158   3.798   1.699  17.730
  546MPD2    H2 8159   3.539   1.401  17.878
  546MPD2    H3 8160   3.752   1.506  17.880
  546MPD2     N 8161   3.634   1.826  17.591
  546MPD2    H5 8162   3.720   1.872  17.617
  546MPD2    N1 8163   3.322   1.472  17.745
  546MPD2    H7 8164   3.325   1.391  17.806
  547TMC3    C1 8165   3.114   1.389  17.668
  547TMC3    C2 8166   3.029   1.397  17.560
  547TMC3    C3 8167   2.952   1.283  17.544
  547TMC3    C4 8168   3.130   1.283  17.757
  547TMC3    C5 8169   3.053   1.176  17.730
  547TMC3    C6 8170   2.963   1.170  17.622
  547TMC3     C 8171   3.204   1.503  17.680
  547TMC3     O 8172   3.171   1.596  17.617
  547TMC3     H 8173   3.026   1.478  17.487
  547TMC3    H1 8174   3.177   1.286  17.854
  547TMC3    H2 8175   2.888   1.092  17.621
  547TMC3    C7 8176   3.044   1.077  17.833
  547TMC3    C8 8177   2.854   1.299  17.437
  547TMC3    O1 8178   3.050   1.117  17.948
  547TMC3    O2 8179   2.858   1.405  17.375
  548MPD2     C 8180   3.047   2.490  12.801
  548MPD2    C1 8181   3.025   2.390  12.897
  548MPD2    C2 8182   3.115   2.284  12.890
  548MPD2    C3 8183   3.212   2.269  12.788
  548MPD2    C4 8184   3.226   2.369  12.697
  548MPD2    C5 8185   3.150   2.487  12.708
  548MPD2     H 8186   3.110   2.215  12.973
  548MPD2    H1 8187   3.307   2.380  12.627
  548MPD2    H2 8188   2.983   2.577  12.788
  548MPD2    H3 8189   3.171   2.560  12.631
  548MPD2     N 8190   3.287   2.148  12.790
  548MPD2    H5 8191   3.264   2.088  12.869
  548MPD2    N1 8192   2.914   2.399  12.988
  548MPD2    H7 8193   2.853   2.476  12.963
  549TMC3    C1 8194   2.740   2.298  13.123
  549TMC3    C2 8195   2.653   2.372  13.057
  549TMC3    C3 8196   2.525   2.373  13.099
  549TMC3    C4 8197   2.701   2.206  13.216
  549TMC3    C5 8198   2.566   2.198  13.240
  549TMC3    C6 8199   2.472   2.282  13.188
  549TMC3     C 8200   2.883   2.309  13.086
  549TMC3     O 8201   2.955   2.222  13.135
  549TMC3     H 8202   2.682   2.438  12.977
  549TMC3    H1 8203   2.771   2.137  13.262
  549TMC3    H2 8204   2.365   2.268  13.199
  549TMC3    C7 8205   2.519   2.065  13.263
  549TMC3    C8 8206   2.430   2.453  13.019
  549TMC3    O1 8207   2.416   2.056  13.324
  549TMC3    O2 8208   2.317   2.413  12.999
  550TMC3    C1 8209   2.102   0.634  12.711
  550TMC3    C2 8210   2.050   0.595  12.830
  550TMC3    C3 8211   1.937   0.665  12.870
  550TMC3    C4 8212   2.049   0.732  12.635
  550TMC3    C5 8213   1.937   0.797  12.685
  550TMC3    C6 8214   1.879   0.760  12.800
  550TMC3     C 8215   2.158   0.520  12.634
  550TMC3     O 8216   2.221   0.434  12.691
  550TMC3     H 8217   2.092   0.519  12.895
  550TMC3    H1 8218   2.104   0.776  12.552
  550TMC3    H2 8219   1.785   0.804  12.830
  550TMC3    C7 8220   1.827   0.783  12.587
  550TMC3    C8 8221   1.876   0.649  13.004
  550TMC3    O1 8222   1.738   0.702  12.617
  550TMC3    O2 8223   1.846   0.750  13.065
  551TMC3    C1 8224   4.392   2.761  13.552
  551TMC3    C2 8225   4.505   2.756  13.475
  551TMC3    C3 8226   4.613   2.824  13.520
  551TMC3    C4 8227   4.385   2.834  13.666
  551TMC3    C5 8228   4.485   2.915  13.695
  551TMC3    C6 8229   4.600   2.907  13.629
  551TMC3     C 8230   4.273   2.757  13.466
  551TMC3     O 8231   4.265   2.661  13.390
  551TMC3     H 8232   4.516   2.705  13.380
  551TMC3    H1 8233   4.293   2.835  13.723
  551TMC3    H2 8234   4.684   2.960  13.673
  551TMC3    C7 8235   4.498   2.956  13.838
  551TMC3    C8 8236   4.722   2.834  13.430
  551TMC3    O1 8237   4.427   2.885  13.915
  551TMC3    O2 8238   4.747   2.729  13.373
  552MPD2     C 8239   1.246   0.053  14.262
  552MPD2    C1 8240   1.234   4.728  14.300
  552MPD2    C2 8241   1.301   4.676  14.405
  552MPD2    C3 8242   1.401   4.756  14.457
  552MPD2    C4 8243   1.428   0.076  14.398
  552MPD2    C5 8244   1.345   0.130  14.309
  552MPD2     H 8245   1.288   4.573  14.435
  552MPD2    H1 8246   1.516   0.131  14.429
  552MPD2    H2 8247   1.189   0.091  14.178
  552MPD2    H3 8248   1.373   0.224  14.263
  552MPD2     N 8249   1.473   4.726  14.574
  552MPD2    H5 8250   1.552   4.785  14.600
  552MPD2    N1 8251   1.147   4.642  14.230
  552MPD2    H7 8252   1.155   4.541  14.244
  553TMC3    C1 8253   0.986   4.556  14.063
  553TMC3    C2 8254   0.984   4.578  13.927
  553TMC3    C3 8255   1.013   4.475  13.837
  553TMC3    C4 8256   1.033   4.433  14.102
  553TMC3    C5 8257   1.052   4.329  14.011
  553TMC3    C6 8258   1.043   4.352  13.876
  553TMC3     C 8259   1.047   4.674  14.136
  553TMC3     O 8260   1.002   4.783  14.101
  553TMC3     H 8261   0.954   4.677  13.896
  553TMC3    H1 8262   1.042   4.410  14.207
  553TMC3    H2 8263   1.093   4.284  13.807
  553TMC3    C7 8264   1.121   4.212  14.058
  553TMC3    C8 8265   1.108   4.520  13.737
  553TMC3    O1 8266   1.070   4.108  14.026
  553TMC3    O2 8267   1.182   4.601  13.792
  554TMC3    C1 8268   2.986   4.187  11.801
  554TMC3    C2 8269   2.898   4.144  11.706
  554TMC3    C3 8270   2.946   4.069  11.606
  554TMC3    C4 8271   3.115   4.180  11.783
  554TMC3    C5 8272   3.167   4.113  11.676
  554TMC3    C6 8273   3.079   4.056  11.587
  554TMC3     C 8274   2.946   4.168  11.939
  554TMC3     O 8275   2.840   4.211  11.979
  554TMC3     H 8276   2.795   4.166  11.732
  554TMC3    H1 8277   3.178   4.228  11.857
  554TMC3    H2 8278   3.112   4.025  11.488
  554TMC3    C7 8279   3.288   4.169  11.619
  554TMC3    C8 8280   2.865   4.079  11.484
  554TMC3    O1 8281   3.319   4.110  11.518
  554TMC3    O2 8282   2.923   4.121  11.380
  555TMC3    C1 8283   2.053   3.235  15.065
  555TMC3    C2 8284   2.027   3.343  15.143
  555TMC3    C3 8285   2.064   3.325  15.272
  555TMC3    C4 8286   2.107   3.116  15.113
  555TMC3    C5 8287   2.130   3.104  15.246
  555TMC3    C6 8288   2.110   3.208  15.337
  555TMC3     C 8289   2.045   3.245  14.926
  555TMC3     O 8290   2.119   3.169  14.865
  555TMC3     H 8291   1.995   3.437  15.101
  555TMC3    H1 8292   2.121   3.026  15.053
  555TMC3    H2 8293   2.108   3.190  15.444
  555TMC3    C7 8294   2.177   2.978  15.304
  555TMC3    C8 8295   2.055   3.442  15.359
  555TMC3    O1 8296   2.153   2.866  15.261
  555TMC3    O2 8297   1.969   3.526  15.339
  556MPD2     C 8298   0.459   0.326  11.131
  556MPD2    C1 8299   0.453   0.201  11.186
  556MPD2    C2 8300   0.410   0.101  11.103
  556MPD2    C3 8301   0.400   0.116  10.968
  556MPD2    C4 8302   0.396   0.245  10.917
  556MPD2    C5 8303   0.435   0.346  11.000
  556MPD2     H 8304   0.405   0.003  11.149
  556MPD2    H1 8305   0.376   0.272  10.814
  556MPD2    H2 8306   0.471   0.418  11.187
  556MPD2    H3 8307   0.442   0.448  10.963
  556MPD2     N 8308   0.382   0.000  10.889
  556MPD2    H5 8309   0.396   4.713  10.930
  556MPD2    N1 8310   0.468   0.175  11.323
  556MPD2    H7 8311   0.445   0.082  11.356
  557TMC3    C1 8312   0.343   4.672  10.700
  557TMC3    C2 8313   0.379   4.658  10.572
  557TMC3    C3 8314   0.340   4.541  10.510
  557TMC3    C4 8315   0.273   4.580  10.771
  557TMC3    C5 8316   0.235   4.467  10.705
  557TMC3    C6 8317   0.260   4.450  10.574
  557TMC3     C 8318   0.369   4.804  10.751
  557TMC3     O 8319   0.355   0.087  10.672
  557TMC3     H 8320   0.439   4.731  10.520
  557TMC3    H1 8321   0.253   4.593  10.877
  557TMC3    H2 8322   0.196   4.383  10.518
  557TMC3    C7 8323   0.175   4.357  10.782
  557TMC3    C8 8324   0.337   4.543  10.366
  557TMC3    O1 8325   0.140   4.391  10.892
  557TMC3    O2 8326   0.350   4.654  10.308
  558TMC3    C1 8327   2.582   2.790  10.584
  558TMC3    C2 8328   2.465   2.749  10.647
  558TMC3    C3 8329   2.348   2.766  10.579
  558TMC3    C4 8330   2.582   2.852  10.460
  558TMC3    C5 8331   2.460   2.876  10.405
  558TMC3    C6 8332   2.340   2.832  10.461
  558TMC3     C 8333   2.713   2.784  10.649
  558TMC3     O 8334   2.815   2.772  10.578
  558TMC3     H 8335   2.468   2.681  10.732
  558TMC3    H1 8336   2.677   2.878  10.413
  558TMC3    H2 8337   2.246   2.877  10.431
  558TMC3    C7 8338   2.452   2.987  10.312
  558TMC3    C8 8339   2.222   2.756  10.650
  558TMC3    O1 8340   2.557   3.054  10.307
  558TMC3    O2 8341   2.108   2.760  10.601
  559MPD2     C 8342   2.725   3.857  11.022
  559MPD2    C1 8343   2.626   3.808  11.109
  559MPD2    C2 8344   2.664   3.769  11.236
  559MPD2    C3 8345   2.801   3.779  11.265
  559MPD2    C4 8346   2.893   3.841  11.184
  559MPD2    C5 8347   2.855   3.880  11.062
  559MPD2     H 8348   2.591   3.739  11.310
  559MPD2    H1 8349   2.997   3.853  11.213
  559MPD2    H2 8350   2.707   3.886  10.919
  559MPD2    H3 8351   2.921   3.922  10.986
  559MPD2     N 8352   2.840   3.722  11.389
  559MPD2    H5 8353   2.765   3.687  11.448
  559MPD2    N1 8354   2.491   3.807  11.064
  559MPD2    H7 8355   2.481   3.846  10.970
  560TMC3    C1 8356   2.968   3.627  11.564
  560TMC3    C2 8357   2.862   3.539  11.587
  560TMC3    C3 8358   2.881   3.438  11.673
  560TMC3    C4 8359   3.094   3.611  11.626
  560TMC3    C5 8360   3.105   3.499  11.709
  560TMC3    C6 8361   3.002   3.414  11.731
  560TMC3     C 8362   2.969   3.720  11.446
  560TMC3     O 8363   3.068   3.785  11.420
  560TMC3     H 8364   2.767   3.541  11.535
  560TMC3    H1 8365   3.168   3.689  11.613
  560TMC3    H2 8366   3.023   3.327  11.793
  560TMC3    C7 8367   3.236   3.452  11.758
  560TMC3    C8 8368   2.809   3.324  11.628
  560TMC3    O1 8369   3.233   3.362  11.841
  560TMC3    O2 8370   2.693   3.330  11.594
  561TMC3    C1 8371   0.884   2.626  11.245
  561TMC3    C2 8372   0.801   2.517  11.277
  561TMC3    C3 8373   0.708   2.545  11.366
  561TMC3    C4 8374   0.868   2.751  11.291
  561TMC3    C5 8375   0.765   2.770  11.378
  561TMC3    C6 8376   0.691   2.665  11.429
  561TMC3     C 8377   1.002   2.586  11.172
  561TMC3     O 8378   0.994   2.487  11.097
  561TMC3     H 8379   0.812   2.416  11.240
  561TMC3    H1 8380   0.932   2.829  11.252
  561TMC3    H2 8381   0.607   2.677  11.496
  561TMC3    C7 8382   0.732   2.899  11.434
  561TMC3    C8 8383   0.670   2.432  11.449
  561TMC3    O1 8384   0.693   2.895  11.550
  561TMC3    O2 8385   0.720   2.327  11.417
  562TMC3    C1 8386   2.115   3.887  16.723
  562TMC3    C2 8387   2.056   4.006  16.695
  562TMC3    C3 8388   1.950   4.005  16.609
  562TMC3    C4 8389   2.066   3.767  16.671
  562TMC3    C5 8390   1.947   3.769  16.601
  562TMC3    C6 8391   1.888   3.887  16.566
  562TMC3     C 8392   2.240   3.871  16.799
  562TMC3     O 8393   2.326   3.784  16.769
  562TMC3     H 8394   2.086   4.097  16.745
  562TMC3    H1 8395   2.118   3.679  16.705
  562TMC3    H2 8396   1.806   3.881  16.495
  562TMC3    C7 8397   1.893   3.648  16.543
  562TMC3    C8 8398   1.891   4.136  16.590
  562TMC3    O1 8399   1.816   3.662  16.451
  562TMC3    O2 8400   1.863   4.199  16.690
  563MPD2     C 8401   4.179   0.155  15.713
  563MPD2    C1 8402   4.216   0.186  15.842
  563MPD2    C2 8403   4.335   0.138  15.894
  563MPD2    C3 8404   4.407   0.043  15.822
  563MPD2    C4 8405   4.366   0.010  15.696
  563MPD2    C5 8406   4.254   0.063  15.642
  563MPD2     H 8407   4.368   0.163  15.994
  563MPD2    H1 8408   4.414   4.735  15.639
  563MPD2    H2 8409   4.076   0.167  15.682
  563MPD2    H3 8410   4.212   0.024  15.550
  563MPD2     N 8411   4.520   4.798  15.884
  563MPD2    H5 8412   4.522   0.020  15.982
  563MPD2    N1 8413   4.120   0.256  15.924
  563MPD2    H7 8414   4.026   0.271  15.888
  564TMC3    C1 8415   4.102   0.291  16.145
  564TMC3    C2 8416   3.986   0.223  16.144
  564TMC3    C3 8417   3.971   0.129  16.243
  564TMC3    C4 8418   4.194   0.278  16.245
  564TMC3    C5 8419   4.172   0.178  16.336
  564TMC3    C6 8420   4.053   0.112  16.349
  564TMC3     C 8421   4.159   0.345  16.019
  564TMC3     O 8422   4.270   0.395  16.029
  564TMC3     H 8423   3.912   0.237  16.066
  564TMC3    H1 8424   4.288   0.329  16.228
  564TMC3    H2 8425   4.049   0.022  16.409
  564TMC3    C7 8426   4.280   0.080  16.348
  564TMC3    C8 8427   3.930   4.803  16.196
  564TMC3    O1 8428   4.360   0.088  16.438
  564TMC3    O2 8429   3.886   4.714  16.273
  565TMC3    C1 8430   0.238   1.840  10.650
  565TMC3    C2 8431   0.251   1.748  10.755
  565TMC3    C3 8432   0.155   1.650  10.754
  565TMC3    C4 8433   0.139   1.841  10.554
  565TMC3    C5 8434   0.050   1.738  10.560
  565TMC3    C6 8435   0.058   1.640  10.657
  565TMC3     C 8436   0.312   1.959  10.651
  565TMC3     O 8437   0.315   2.020  10.546
  565TMC3     H 8438   0.319   1.748  10.839
  565TMC3    H1 8439   0.125   1.912  10.473
  565TMC3    H2 8440   4.787   1.563  10.668
  565TMC3    C7 8441   4.766   1.707  10.447
  565TMC3    C8 8442   0.173   1.536  10.851
  565TMC3    O1 8443   4.797   1.759  10.346
  565TMC3    O2 8444   0.227   1.560  10.959
  566MPD2     C 8445   1.804   3.021  14.720
  566MPD2    C1 8446   1.803   2.924  14.619
  566MPD2    C2 8447   1.685   2.877  14.578
  566MPD2    C3 8448   1.567   2.926  14.635
  566MPD2    C4 8449   1.566   3.011  14.739
  566MPD2    C5 8450   1.688   3.063  14.771
  566MPD2     H 8451   1.684   2.795  14.507
  566MPD2    H1 8452   1.475   3.056  14.777
  566MPD2    H2 8453   1.895   3.065  14.759
  566MPD2    H3 8454   1.674   3.136  14.850
  566MPD2     N 8455   1.440   2.870  14.590
  566MPD2    H5 8456   1.368   2.874  14.662
  566MPD2    N1 8457   1.920   2.882  14.561
  566MPD2    H7 8458   2.008   2.931  14.577
  567TMC3    C1 8459   2.032   2.761  14.385
  567TMC3    C2 8460   2.091   2.876  14.347
  567TMC3    C3 8461   2.221   2.879  14.318
  567TMC3    C4 8462   2.123   2.656  14.403
  567TMC3    C5 8463   2.258   2.661  14.391
  567TMC3    C6 8464   2.308   2.777  14.347
  567TMC3     C 8465   1.923   2.775  14.474
  567TMC3     O 8466   1.869   2.668  14.492
  567TMC3     H 8467   2.025   2.960  14.331
  567TMC3    H1 8468   2.081   2.558  14.421
  567TMC3    H2 8469   2.413   2.801  14.334
  567TMC3    C7 8470   2.327   2.629  14.509
  567TMC3    C8 8471   2.282   2.989  14.244
  567TMC3    O1 8472   2.440   2.669  14.518
  567TMC3    O2 8473   2.366   2.963  14.158
  568MPD2     C 8474   3.889   3.333  16.391
  568MPD2    C1 8475   3.945   3.420  16.483
  568MPD2    C2 8476   3.951   3.553  16.454
  568MPD2    C3 8477   3.905   3.610  16.347
  568MPD2    C4 8478   3.833   3.530  16.257
  568MPD2    C5 8479   3.825   3.391  16.285
  568MPD2     H 8480   3.998   3.610  16.533
  568MPD2    H1 8481   3.781   3.568  16.170
  568MPD2    H2 8482   3.879   3.227  16.413
  568MPD2    H3 8483   3.777   3.333  16.207
  568MPD2     N 8484   3.942   3.747  16.331
  568MPD2    H5 8485   4.013   3.787  16.391
  568MPD2    N1 8486   4.010   3.364  16.594
  568MPD2    H7 8487   4.034   3.266  16.592
  569TMC3    C1 8488   3.949   3.956  16.229
  569TMC3    C2 8489   3.966   4.010  16.354
  569TMC3    C3 8490   4.059   4.113  16.368
  569TMC3    C4 8491   4.021   3.994  16.118
  569TMC3    C5 8492   4.102   4.099  16.134
  569TMC3    C6 8493   4.111   4.168  16.254
  569TMC3     C 8494   3.900   3.821  16.226
  569TMC3     O 8495   3.835   3.791  16.129
  569TMC3     H 8496   3.898   3.977  16.433
  569TMC3    H1 8497   4.022   3.930  16.031
  569TMC3    H2 8498   4.174   4.255  16.270
  569TMC3    C7 8499   4.106   4.184  16.019
  569TMC3    C8 8500   4.020   4.224  16.453
  569TMC3    O1 8501   4.126   4.135  15.908
  569TMC3    O2 8502   3.901   4.227  16.490
  570TMC3    C1 8503   3.441   2.394  16.309
  570TMC3    C2 8504   3.560   2.357  16.256
  570TMC3    C3 8505   3.646   2.456  16.227
  570TMC3    C4 8506   3.402   2.527  16.310
  570TMC3    C5 8507   3.475   2.620  16.249
  570TMC3    C6 8508   3.606   2.587  16.224
  570TMC3     C 8509   3.398   2.312  16.427
  570TMC3     O 8510   3.440   2.197  16.434
  570TMC3     H 8511   3.594   2.255  16.250
  570TMC3    H1 8512   3.312   2.558  16.362
  570TMC3    H2 8513   3.676   2.661  16.186
  570TMC3    C7 8514   3.451   2.755  16.276
  570TMC3    C8 8515   3.789   2.438  16.200
  570TMC3    O1 8516   3.548   2.828  16.300
  570TMC3    O2 8517   3.863   2.521  16.251
  571MPD2     C 8518   1.364   4.344  17.740
  571MPD2    C1 8519   1.271   4.405  17.823
  571MPD2    C2 8520   1.310   4.512  17.904
  571MPD2    C3 8521   1.441   4.547  17.919
  571MPD2    C4 8522   1.536   4.480  17.847
  571MPD2    C5 8523   1.497   4.374  17.763
  571MPD2     H 8524   1.230   4.573  17.944
  571MPD2    H1 8525   1.644   4.487  17.859
  571MPD2    H2 8526   1.344   4.264  17.669
  571MPD2    H3 8527   1.569   4.320  17.703
  571MPD2     N 8528   1.476   4.645  18.010
  571MPD2    H5 8529   1.576   4.648  18.025
  571MPD2    N1 8530   1.137   4.355  17.822
  571MPD2    H7 8531   1.125   4.283  17.751
  572TMC3    C1 8532   1.459   0.040  18.144
  572TMC3    C2 8533   1.558   0.010  18.237
  572TMC3    C3 8534   1.585   0.090  18.348
  572TMC3    C4 8535   1.384   0.152  18.171
  572TMC3    C5 8536   1.409   0.228  18.279
  572TMC3    C6 8537   1.505   0.197  18.370
  572TMC3     C 8538   1.395   4.748  18.055
  572TMC3     O 8539   1.279   4.772  18.018
  572TMC3     H 8540   1.613   4.722  18.238
  572TMC3    H1 8541   1.308   0.186  18.101
  572TMC3    H2 8542   1.526   0.270  18.447
  572TMC3    C7 8543   1.343   0.365  18.286
  572TMC3    C8 8544   1.699   0.061  18.434
  572TMC3    O1 8545   1.229   0.367  18.238
  572TMC3    O2 8546   1.799   0.012  18.381
  573MPD2     C 8547   2.204   4.492  18.482
  573MPD2    C1 8548   2.304   4.568  18.430
  573MPD2    C2 8549   2.327   4.568  18.294
  573MPD2    C3 8550   2.247   4.480  18.215
  573MPD2    C4 8551   2.161   4.388  18.280
  573MPD2    C5 8552   2.146   4.392  18.413
  573MPD2     H 8553   2.392   4.642  18.249
  573MPD2    H1 8554   2.113   4.303  18.232
  573MPD2    H2 8555   2.178   4.484  18.587
  573MPD2    H3 8556   2.084   4.320  18.465
  573MPD2     N 8557   2.256   4.467  18.076
  573MPD2    H5 8558   2.202   4.389  18.041
  573MPD2    N1 8559   2.354   4.668  18.517
  573MPD2    H7 8560   2.309   4.685  18.606
  574TMC3    C1 8561   2.271   4.545  17.857
  574TMC3    C2 8562   2.133   4.543  17.838
  574TMC3    C3 8563   2.078   4.578  17.716
  574TMC3    C4 8564   2.351   4.597  17.757
  574TMC3    C5 8565   2.292   4.618  17.635
  574TMC3    C6 8566   2.160   4.602  17.610
  574TMC3     C 8567   2.312   4.561  17.992
  574TMC3     O 8568   2.388   4.652  18.024
  574TMC3     H 8569   2.064   4.537  17.921
  574TMC3    H1 8570   2.459   4.593  17.756
  574TMC3    H2 8571   2.129   4.648  17.516
  574TMC3    C7 8572   2.360   4.693  17.535
  574TMC3    C8 8573   1.939   4.626  17.724
  574TMC3    O1 8574   2.320   4.688  17.419
  574TMC3    O2 8575   1.863   4.578  17.811
  575TMC3    C1 8576   0.562   1.136  11.523
  575TMC3    C2 8577   0.515   1.019  11.571
  575TMC3    C3 8578   0.425   0.947  11.504
  575TMC3    C4 8579   0.511   1.187  11.404
  575TMC3    C5 8580   0.416   1.116  11.338
  575TMC3    C6 8581   0.365   0.995  11.388
  575TMC3     C 8582   0.695   1.177  11.569
  575TMC3     O 8583   0.727   1.150  11.682
  575TMC3     H 8584   0.572   0.969  11.648
  575TMC3    H1 8585   0.548   1.277  11.357
  575TMC3    H2 8586   0.279   0.941  11.351
  575TMC3    C7 8587   0.340   1.189  11.246
  575TMC3    C8 8588   0.373   0.828  11.559
  575TMC3    O1 8589   0.328   1.310  11.261
  575TMC3    O2 8590   0.370   0.822  11.681
  576MPD2     C 8591   0.026   2.519  12.776
  576MPD2    C1 8592   0.011   2.630  12.688
  576MPD2    C2 8593   4.748   2.738  12.740
  576MPD2    C3 8594   4.686   2.740  12.858
  576MPD2    C4 8595   4.696   2.635  12.939
  576MPD2    C5 8596   4.775   2.526  12.899
  576MPD2     H 8597   4.737   2.826  12.677
  576MPD2    H1 8598   4.643   2.617  13.032
  576MPD2    H2 8599   0.064   2.425  12.738
  576MPD2    H3 8600   4.784   2.442  12.967
  576MPD2     N 8601   4.632   2.861  12.894
  576MPD2    H5 8602   4.632   2.938  12.828
  576MPD2    N1 8603   0.070   2.641  12.557
  576MPD2    H7 8604   0.060   2.729  12.509
  577TMC3    C1 8605   0.196   2.589  12.371
  577TMC3    C2 8606   0.217   2.478  12.289
  577TMC3    C3 8607   0.257   2.497  12.161
  577TMC3    C4 8608   0.186   2.711  12.321
  577TMC3    C5 8609   0.224   2.727  12.193
  577TMC3    C6 8610   0.265   2.622  12.115
  577TMC3     C 8611   0.161   2.552  12.507
  577TMC3     O 8612   0.204   2.443  12.543
  577TMC3     H 8613   0.216   2.377  12.329
  577TMC3    H1 8614   0.181   2.799  12.384
  577TMC3    H2 8615   0.304   2.656  12.020
  577TMC3    C7 8616   0.226   2.858  12.139
  577TMC3    C8 8617   0.337   2.395  12.096
  577TMC3    O1 8618   0.327   2.873  12.072
  577TMC3    O2 8619   0.376   2.307  12.169
  578MPD2     C 8620   2.439   2.629  18.898
  578MPD2    C1 8621   2.522   2.550  18.821
  578MPD2    C2 8622   2.642   2.503  18.880
  578MPD2    C3 8623   2.668   2.527  19.014
  578MPD2    C4 8624   2.576   2.600  19.088
  578MPD2    C5 8625   2.465   2.647  19.029
  578MPD2     H 8626   2.713   2.442  18.826
  578MPD2    H1 8627   2.583   2.614  19.195
  578MPD2    H2 8628   2.350   2.673  18.856
  578MPD2    H3 8629   2.407   2.704  19.101
  578MPD2     N 8630   2.785   2.474  19.061
  578MPD2    H5 8631   2.831   2.412  18.996
  578MPD2    N1 8632   2.504   2.547  18.680
  578MPD2    H7 8633   2.417   2.594  18.658
  579TMC3    C1 8634   2.963   2.431  19.208
  579TMC3    C2 8635   3.059   2.493  19.280
  579TMC3    C3 8636   3.170   2.422  19.315
  579TMC3    C4 8637   2.970   2.295  19.172
  579TMC3    C5 8638   3.076   2.222  19.222
  579TMC3    C6 8639   3.179   2.287  19.289
  579TMC3     C 8640   2.841   2.499  19.188
  579TMC3     O 8641   2.824   2.598  19.255
  579TMC3     H 8642   3.068   2.600  19.295
  579TMC3    H1 8643   2.888   2.237  19.131
  579TMC3    H2 8644   3.263   2.226  19.319
  579TMC3    C7 8645   3.104   2.091  19.170
  579TMC3    C8 8646   3.281   2.494  19.362
  579TMC3    O1 8647   3.197   2.028  19.220
  579TMC3    O2 8648   3.269   2.606  19.404
  580TMC3    C1 8649   2.678   2.050  12.395
  580TMC3    C2 8650   2.799   2.075  12.331
  580TMC3    C3 8651   2.863   1.975  12.270
  580TMC3    C4 8652   2.638   1.916  12.405
  580TMC3    C5 8653   2.713   1.821  12.343
  580TMC3    C6 8654   2.812   1.849  12.260
  580TMC3     C 8655   2.586   2.161  12.397
  580TMC3     O 8656   2.648   2.268  12.406
  580TMC3     H 8657   2.821   2.179  12.310
  580TMC3    H1 8658   2.547   1.903  12.462
  580TMC3    H2 8659   2.853   1.778  12.188
  580TMC3    C7 8660   2.728   1.695  12.411
  580TMC3    C8 8661   2.956   2.020  12.158
  580TMC3    O1 8662   2.679   1.675  12.524
  580TMC3    O2 8663   2.931   1.969  12.052
  581MPD2     C 8664   0.505   1.386  14.733
  581MPD2    C1 8665   0.479   1.404  14.865
  581MPD2    C2 8666   0.352   1.447  14.906
  581MPD2    C3 8667   0.268   1.495  14.811
  581MPD2    C4 8668   0.297   1.475  14.679
  581MPD2    C5 8669   0.412   1.424  14.643
  581MPD2     H 8670   0.328   1.452  15.011
  581MPD2    H1 8671   0.231   1.499  14.597
  581MPD2    H2 8672   0.599   1.359  14.685
  581MPD2    H3 8673   0.440   1.418  14.538
  581MPD2     N 8674   0.144   1.538  14.855
  581MPD2    H5 8675   0.140   1.553  14.955
  581MPD2    N1 8676   0.576   1.360  14.950
  581MPD2    H7 8677   0.654   1.307  14.912
  582TMC3    C1 8678   0.676   1.300  15.156
  582TMC3    C2 8679   0.718   1.342  15.273
  582TMC3    C3 8680   0.766   1.243  15.347
  582TMC3    C4 8681   0.665   1.171  15.118
  582TMC3    C5 8682   0.698   1.074  15.207
  582TMC3    C6 8683   0.770   1.110  15.317
  582TMC3     C 8684   0.576   1.376  15.086
  582TMC3     O 8685   0.518   1.460  15.146
  582TMC3     H 8686   0.703   1.447  15.297
  582TMC3    H1 8687   0.607   1.129  15.036
  582TMC3    H2 8688   0.804   1.042  15.394
  582TMC3    C7 8689   0.578   1.004  15.243
  582TMC3    C8 8690   0.794   1.285  15.481
  582TMC3    O1 8691   0.515   0.933  15.163
  582TMC3    O2 8692   0.719   1.365  15.526
  583MPD2     C 8693   0.582   2.942  16.919
  583MPD2    C1 8694   0.561   3.061  16.852
  583MPD2    C2 8695   0.494   3.168  16.919
  583MPD2    C3 8696   0.458   3.156  17.046
  583MPD2    C4 8697   0.471   3.038  17.114
  583MPD2    C5 8698   0.534   2.939  17.046
  583MPD2     H 8699   0.496   3.266  16.872
  583MPD2    H1 8700   0.436   3.017  17.214
  583MPD2    H2 8701   0.624   2.849  16.883
  583MPD2    H3 8702   0.567   2.850  17.098
  583MPD2     N 8703   0.395   3.262  17.107
  583MPD2    H5 8704   0.370   3.342  17.049
  583MPD2    N1 8705   0.614   3.081  16.720
  583MPD2    H7 8706   0.597   3.169  16.671
  584TMC3    C1 8707   0.315   3.407  17.274
  584TMC3    C2 8708   0.335   3.510  17.191
  584TMC3    C3 8709   0.306   3.634  17.236
  584TMC3    C4 8710   0.255   3.428  17.396
  584TMC3    C5 8711   0.211   3.550  17.432
  584TMC3    C6 8712   0.232   3.653  17.348
  584TMC3     C 8713   0.357   3.274  17.240
  584TMC3     O 8714   0.338   3.192  17.326
  584TMC3     H 8715   0.388   3.500  17.096
  584TMC3    H1 8716   0.245   3.345  17.464
  584TMC3    H2 8717   0.180   3.747  17.360
  584TMC3    C7 8718   0.123   3.552  17.558
  584TMC3    C8 8719   0.308   3.740  17.140
  584TMC3    O1 8720   0.118   3.445  17.618
  584TMC3    O2 8721   0.293   3.719  17.019
  585MPD2     C 8722   4.597   2.258  18.824
  585MPD2    C1 8723   4.679   2.306  18.726
  585MPD2    C2 8724   4.679   2.241  18.606
  585MPD2    C3 8725   4.599   2.133  18.584
  585MPD2    C4 8726   4.526   2.081  18.685
  585MPD2    C5 8727   4.528   2.141  18.806
  585MPD2     H 8728   4.734   2.274  18.518
  585MPD2    H1 8729   4.470   1.990  18.664
  585MPD2    H2 8730   4.583   2.319  18.913
  585MPD2    H3 8731   4.452   2.116  18.880
  585MPD2     N 8732   4.577   2.079  18.452
  585MPD2    H5 8733   4.515   1.998  18.453
  585MPD2    N1 8734   4.741   2.433  18.738
  585MPD2    H7 8735   4.693   2.503  18.793
  586TMC3    C1 8736   4.611   2.028  18.218
  586TMC3    C2 8737   4.707   2.046  18.132
  586TMC3    C3 8738   4.708   1.994  18.009
  586TMC3    C4 8739   4.488   1.968  18.186
  586TMC3    C5 8740   4.487   1.925  18.056
  586TMC3    C6 8741   4.587   1.932  17.970
  586TMC3     C 8742   4.620   2.122  18.330
  586TMC3     O 8743   4.689   2.224  18.308
  586TMC3     H 8744   4.795   2.101  18.163
  586TMC3    H1 8745   4.405   1.957  18.255
  586TMC3    H2 8746   4.583   1.883  17.873
  586TMC3    C7 8747   4.364   1.876  18.002
  586TMC3    C8 8748   0.031   1.948  17.949
  586TMC3    O1 8749   4.289   1.808  18.073
  586TMC3    O2 8750   0.088   1.845  17.986
  587TMC3    C1 8751   1.932   0.689  16.360
  587TMC3    C2 8752   1.938   0.812  16.411
  587TMC3    C3 8753   2.057   0.844  16.474
  587TMC3    C4 8754   2.038   0.602  16.368
  587TMC3    C5 8755   2.152   0.639  16.426
  587TMC3    C6 8756   2.161   0.760  16.486
  587TMC3     C 8757   1.811   0.634  16.297
  587TMC3     O 8758   1.822   0.530  16.232
  587TMC3     H 8759   1.859   0.885  16.418
  587TMC3    H1 8760   2.034   0.500  16.332
  587TMC3    H2 8761   2.251   0.784  16.542
  587TMC3    C7 8762   2.214   0.531  16.508
  587TMC3    C8 8763   2.089   0.978  16.505
  587TMC3    O1 8764   2.136   0.438  16.530
  587TMC3    O2 8765   2.206   1.012  16.488
  588TMC3    C1 8766   4.191   3.788  10.089
  588TMC3    C2 8767   4.182   3.650  10.087
  588TMC3    C3 8768   4.297   3.577  10.096
  588TMC3    C4 8769   4.309   3.858  10.105
  588TMC3    C5 8770   4.425   3.779  10.114
  588TMC3    C6 8771   4.419   3.634  10.114
  588TMC3     C 8772   4.089   3.860  10.016
  588TMC3     O 8773   3.979   3.806  10.015
  588TMC3     H 8774   4.090   3.609  10.047
  588TMC3    H1 8775   4.293   3.962  10.131
  588TMC3    H2 8776   4.508   3.589  10.073
  588TMC3    C7 8777   4.547   3.853  10.108
  588TMC3    C8 8778   4.283   3.432  10.071
  588TMC3    O1 8779   4.647   3.786  10.104
  588TMC3    O2 8780   4.186   3.396  10.003
  589TMC3    C1 8781   3.656   0.660  18.625
  589TMC3    C2 8782   3.723   0.685  18.751
  589TMC3    C3 8783   3.860   0.678  18.746
  589TMC3    C4 8784   3.724   0.642  18.513
  589TMC3    C5 8785   3.860   0.624  18.516
  589TMC3    C6 8786   3.936   0.641  18.633
  589TMC3     C 8787   3.537   0.578  18.633
  589TMC3     O 8788   3.504   0.518  18.534
  589TMC3     H 8789   3.682   0.705  18.849
  589TMC3    H1 8790   3.680   0.604  18.422
  589TMC3    H2 8791   4.044   0.644  18.636
  589TMC3    C7 8792   3.899   0.511  18.436
  589TMC3    C8 8793   3.918   0.663  18.873
  589TMC3    O1 8794   3.816   0.458  18.366
  589TMC3    O2 8795   3.857   0.583  18.943
  590MPD2     C 8796   2.701   3.716  16.682
  590MPD2    C1 8797   2.673   3.811  16.585
  590MPD2    C2 8798   2.773   3.887  16.539
  590MPD2    C3 8799   2.900   3.878  16.598
  590MPD2    C4 8800   2.927   3.800  16.701
  590MPD2    C5 8801   2.828   3.712  16.740
  590MPD2     H 8802   2.747   3.959  16.463
  590MPD2    H1 8803   3.012   3.810  16.767
  590MPD2    H2 8804   2.626   3.651  16.726
  590MPD2    H3 8805   2.846   3.642  16.821
  590MPD2     N 8806   2.995   3.966  16.551
  590MPD2    H5 8807   2.965   4.035  16.483
  590MPD2    N1 8808   2.542   3.816  16.522
  590MPD2    H7 8809   2.459   3.787  16.573
  591TMC3    C1 8810   3.204   4.057  16.510
  591TMC3    C2 8811   3.313   4.014  16.435
  591TMC3    C3 8812   3.347   4.106  16.343
  591TMC3    C4 8813   3.133   4.176  16.491
  591TMC3    C5 8814   3.189   4.269  16.409
  591TMC3    C6 8815   3.294   4.231  16.329
  591TMC3     C 8816   3.128   3.960  16.582
  591TMC3     O 8817   3.190   3.867  16.631
  591TMC3     H 8818   3.363   3.919  16.449
  591TMC3    H1 8819   3.051   4.208  16.554
  591TMC3    H2 8820   3.310   4.279  16.233
  591TMC3    C7 8821   3.115   4.385  16.378
  591TMC3    C8 8822   3.447   4.062  16.249
  591TMC3    O1 8823   2.998   4.388  16.407
  591TMC3    O2 8824   3.466   3.940  16.230
  592MPD2     C 8825   3.572   1.418  11.854
  592MPD2    C1 8826   3.569   1.461  11.983
  592MPD2    C2 8827   3.524   1.380  12.092
  592MPD2    C3 8828   3.462   1.260  12.058
  592MPD2    C4 8829   3.459   1.227  11.926
  592MPD2    C5 8830   3.512   1.301  11.824
  592MPD2     H 8831   3.532   1.412  12.195
  592MPD2    H1 8832   3.416   1.133  11.894
  592MPD2    H2 8833   3.612   1.467  11.766
  592MPD2    H3 8834   3.522   1.268  11.721
  592MPD2     N 8835   3.398   1.179  12.159
  592MPD2    H5 8836   3.419   1.200  12.256
  592MPD2    N1 8837   3.622   1.593  11.995
  592MPD2    H7 8838   3.664   1.626  11.908
  593TMC3    C1 8839   3.725   1.772  12.098
  593TMC3    C2 8840   3.723   1.856  12.209
  593TMC3    C3 8841   3.814   1.958  12.209
  593TMC3    C4 8842   3.822   1.786  11.993
  593TMC3    C5 8843   3.903   1.897  12.001
  593TMC3    C6 8844   3.899   1.985  12.106
  593TMC3     C 8845   3.636   1.659  12.117
  593TMC3     O 8846   3.588   1.634  12.225
  593TMC3     H 8847   3.655   1.848  12.293
  593TMC3    H1 8848   3.828   1.711  11.916
  593TMC3    H2 8849   3.941   2.084  12.101
  593TMC3    C7 8850   3.973   1.951  11.885
  593TMC3    C8 8851   3.792   2.058  12.305
  593TMC3    O1 8852   4.046   2.051  11.906
  593TMC3    O2 8853   3.685   2.060  12.367
  594MPD2     C 8854   2.001   0.041  14.418
  594MPD2    C1 8855   2.007   0.049  14.556
  594MPD2    C2 8856   2.091   0.134  14.628
  594MPD2    C3 8857   2.167   0.222  14.555
  594MPD2    C4 8858   2.162   0.215  14.416
  594MPD2    C5 8859   2.094   0.114  14.349
  594MPD2     H 8860   2.101   0.141  14.735
  594MPD2    H1 8861   2.211   0.285  14.349
  594MPD2    H2 8862   1.933   4.777  14.371
  594MPD2    H3 8863   2.098   0.100  14.242
  594MPD2     N 8864   2.263   0.300  14.623
  594MPD2    H5 8865   2.261   0.297  14.725
  594MPD2    N1 8866   1.922   4.769  14.614
  594MPD2    H7 8867   1.869   4.705  14.555
  595TMC3    C1 8868   2.594   0.633  14.661
  595TMC3    C2 8869   2.534   0.534  14.589
  595TMC3    C3 8870   2.441   0.457  14.650
  595TMC3    C4 8871   2.555   0.648  14.791
  595TMC3    C5 8872   2.452   0.577  14.852
  595TMC3    C6 8873   2.395   0.479  14.782
  595TMC3     C 8874   2.731   0.663  14.637
  595TMC3     O 8875   2.773   0.751  14.711
  595TMC3     H 8876   2.562   0.510  14.487
  595TMC3    H1 8877   2.601   0.730  14.845
  595TMC3    H2 8878   2.306   0.431  14.819
  595TMC3    C7 8879   2.383   0.637  14.969
  595TMC3    C8 8880   2.371   0.360  14.563
  595TMC3    O1 8881   2.261   0.631  14.981
  595TMC3    O2 8882   2.413   0.334  14.450
  596MPD2     C 8883   1.231   3.120  17.107
  596MPD2    C1 8884   1.238   3.224  17.016
  596MPD2    C2 8885   1.289   3.196  16.886
  596MPD2    C3 8886   1.325   3.063  16.856
  596MPD2    C4 8887   1.322   2.964  16.957
  596MPD2    C5 8888   1.269   2.989  17.082
  596MPD2     H 8889   1.299   3.279  16.818
  596MPD2    H1 8890   1.364   2.868  16.928
  596MPD2    H2 8891   1.193   3.144  17.206
  596MPD2    H3 8892   1.281   2.913  17.159
  596MPD2     N 8893   1.376   3.033  16.725
  596MPD2    H5 8894   1.385   2.935  16.703
  596MPD2    N1 8895   1.195   3.357  17.039
  596MPD2    H7 8896   1.218   3.414  16.958
  597TMC3    C1 8897   1.071   3.533  17.140
  597TMC3    C2 8898   1.142   3.626  17.073
  597TMC3    C3 8899   1.101   3.753  17.071
  597TMC3    C4 8900   0.962   3.569  17.215
  597TMC3    C5 8901   0.935   3.703  17.216
  597TMC3    C6 8902   0.996   3.798  17.145
  597TMC3     C 8903   1.109   3.396  17.141
  597TMC3     O 8904   1.057   3.329  17.232
  597TMC3     H 8905   1.234   3.590  17.029
  597TMC3    H1 8906   0.889   3.503  17.261
  597TMC3    H2 8907   0.959   3.900  17.138
  597TMC3    C7 8908   0.845   3.738  17.330
  597TMC3    C8 8909   1.171   3.841  16.982
  597TMC3    O1 8910   0.784   3.645  17.385
  597TMC3    O2 8911   1.115   3.944  16.943
  598TMC3    C1 8912   4.247   4.507  15.398
  598TMC3    C2 8913   4.123   4.448  15.403
  598TMC3    C3 8914   4.041   4.475  15.298
  598TMC3    C4 8915   4.289   4.593  15.294
  598TMC3    C5 8916   4.191   4.619  15.199
  598TMC3    C6 8917   4.068   4.560  15.193
  598TMC3     C 8918   4.342   4.444  15.493
  598TMC3     O 8919   4.281   4.398  15.589
  598TMC3     H 8920   4.083   4.389  15.485
  598TMC3    H1 8921   4.388   4.638  15.292
  598TMC3    H2 8922   4.002   4.565  15.108
  598TMC3    C7 8923   4.215   4.707  15.080
  598TMC3    C8 8924   3.907   4.418  15.301
  598TMC3    O1 8925   4.160   4.674  14.975
  598TMC3    O2 8926   3.864   4.395  15.188
  599MPD2     C 8927   4.598   2.238  16.115
  599MPD2    C1 8928   4.537   2.113  16.118
  599MPD2    C2 8929   4.416   2.094  16.182
  599MPD2    C3 8930   4.357   2.209  16.242
  599MPD2    C4 8931   4.418   2.335  16.233
  599MPD2    C5 8932   4.540   2.343  16.173
  599MPD2     H 8933   4.359   2.002  16.178
  599MPD2    H1 8934   4.381   2.423  16.283
  599MPD2    H2 8935   4.694   2.249  16.066
  599MPD2    H3 8936   4.577   2.444  16.157
  599MPD2     N 8937   4.232   2.204  16.309
  599MPD2    H5 8938   4.209   2.293  16.351
  599MPD2    N1 8939   4.604   2.008  16.049
  599MPD2    H7 8940   4.695   2.030  16.011
  600TMC3    C1 8941   4.020   2.127  16.387
  600TMC3    C2 8942   3.930   2.028  16.408
  600TMC3    C3 8943   3.812   2.061  16.469
  600TMC3    C4 8944   3.989   2.255  16.421
  600TMC3    C5 8945   3.865   2.285  16.473
  600TMC3    C6 8946   3.770   2.188  16.495
  600TMC3     C 8947   4.144   2.096  16.319
  600TMC3     O 8948   4.148   1.987  16.262
  600TMC3     H 8949   3.960   1.924  16.403
  600TMC3    H1 8950   4.053   2.335  16.388
  600TMC3    H2 8951   3.674   2.199  16.545
  600TMC3    C7 8952   3.847   2.409  16.545
  600TMC3    C8 8953   3.733   1.951  16.520
  600TMC3    O1 8954   3.733   2.443  16.572
  600TMC3    O2 8955   3.789   1.845  16.548
  601MPD2     C 8956   1.346   0.880  18.275
  601MPD2    C1 8957   1.256   0.787  18.224
  601MPD2    C2 8958   1.281   0.661  18.246
  601MPD2    C3 8959   1.388   0.609  18.314
  601MPD2    C4 8960   1.471   0.699  18.374
  601MPD2    C5 8961   1.458   0.835  18.343
  601MPD2     H 8962   1.214   0.591  18.198
  601MPD2    H1 8963   1.561   0.674  18.429
  601MPD2    H2 8964   1.336   0.987  18.265
  601MPD2    H3 8965   1.519   0.911  18.391
  601MPD2     N 8966   1.427   0.467  18.323
  601MPD2    H5 8967   1.520   0.450  18.361
  601MPD2    N1 8968   1.141   0.831  18.149
  601MPD2    H7 8969   1.081   0.752  18.124
  602TMC3    C1 8970   0.981   0.951  18.030
  602TMC3    C2 8971   0.929   1.074  18.005
  602TMC3    C3 8972   0.820   1.088  17.924
  602TMC3    C4 8973   0.922   0.842  17.983
  602TMC3    C5 8974   0.813   0.863  17.902
  602TMC3    C6 8975   0.757   0.980  17.869
  602TMC3     C 8976   1.104   0.955  18.105
  602TMC3     O 8977   1.155   1.068  18.124
  602TMC3     H 8978   0.985   1.164  18.023
  602TMC3    H1 8979   0.965   0.742  17.990
  602TMC3    H2 8980   0.661   0.990  17.820
  602TMC3    C7 8981   0.788   0.753  17.803
  602TMC3    C8 8982   0.778   1.223  17.891
  602TMC3    O1 8983   0.813   0.636  17.828
  602TMC3    O2 8984   0.723   1.291  17.977
  603TMC3    C1 8985   4.696   0.653  11.320
  603TMC3    C2 8986   4.738   0.622  11.450
  603TMC3    C3 8987   4.781   0.727  11.536
  603TMC3    C4 8988   4.694   0.780  11.272
  603TMC3    C5 8989   4.736   0.880  11.350
  603TMC3    C6 8990   4.784   0.856  11.480
  603TMC3     C 8991   4.600   0.560  11.259
  603TMC3     O 8992   4.496   0.611  11.214
  603TMC3     H 8993   4.727   0.520  11.484
  603TMC3    H1 8994   4.663   0.800  11.170
  603TMC3    H2 8995   0.031   0.931  11.539
  603TMC3    C7 8996   4.726   1.009  11.291
  603TMC3    C8 8997   4.787   0.701  11.674
  603TMC3    O1 8998   0.007   1.083  11.339
  603TMC3    O2 8999   4.752   0.587  11.706
  604MPD2     C 9000   0.448   4.250  16.583
  604MPD2    C1 9001   0.348   4.212  16.499
  604MPD2    C2 9002   0.373   4.193  16.357
  604MPD2    C3 9003   0.501   4.189  16.312
  604MPD2    C4 9004   0.599   4.231  16.401
  604MPD2    C5 9005   0.568   4.267  16.529
  604MPD2     H 9006   0.289   4.179  16.290
  604MPD2    H1 9007   0.702   4.247  16.369
  604MPD2    H2 9008   0.429   4.272  16.688
  604MPD2    H3 9009   0.647   4.314  16.586
  604MPD2     N 9010   0.525   4.149  16.177
  604MPD2    H5 9011   0.439   4.124  16.130
  604MPD2    N1 9012   0.222   4.213  16.554
  604MPD2    H7 9013   0.217   4.253  16.647
  605TMC3    C1 9014   4.796   4.192  16.597
  605TMC3    C2 9015   0.054   4.219  16.718
  605TMC3    C3 9016   0.015   4.341  16.776
  605TMC3    C4 9017   4.691   4.266  16.543
  605TMC3    C5 9018   4.664   4.389  16.594
  605TMC3    C6 9019   4.733   4.422  16.713
  605TMC3     C 9020   0.101   4.169  16.499
  605TMC3     O 9021   0.074   4.109  16.396
  605TMC3     H 9022   0.130   4.153  16.755
  605TMC3    H1 9023   4.657   4.222  16.450
  605TMC3    H2 9024   4.749   4.527  16.734
  605TMC3    C7 9025   4.565   4.469  16.539
  605TMC3    C8 9026   0.131   4.398  16.849
  605TMC3    O1 9027   4.546   4.582  16.584
  605TMC3    O2 9028   0.230   4.330  16.833
  606TMC3    C1 9029   1.136   3.285  17.596
  606TMC3    C2 9030   1.075   3.260  17.717
  606TMC3    C3 9031   1.051   3.134  17.754
  606TMC3    C4 9032   1.156   3.178  17.510
  606TMC3    C5 9033   1.107   3.052  17.544
  606TMC3    C6 9034   1.053   3.024  17.667
  606TMC3     C 9035   1.170   3.420  17.566
  606TMC3     O 9036   1.118   3.513  17.636
  606TMC3     H 9037   1.064   3.340  17.790
  606TMC3    H1 9038   1.195   3.183  17.410
  606TMC3    H2 9039   1.039   2.924  17.706
  606TMC3    C7 9040   1.152   2.937  17.469
  606TMC3    C8 9041   1.088   3.100  17.890
  606TMC3    O1 9042   1.251   2.960  17.404
  606TMC3    O2 9043   1.149   3.193  17.943
  607MPD2     C 9044   3.641   0.940  11.918
  607MPD2    C1 9045   3.712   1.012  12.018
  607MPD2    C2 9046   3.696   0.972  12.150
  607MPD2    C3 9047   3.613   0.868  12.185
  607MPD2    C4 9048   3.529   0.812  12.089
  607MPD2    C5 9049   3.551   0.841  11.949
  607MPD2     H 9050   3.767   1.011  12.222
  607MPD2    H1 9051   3.457   0.733  12.109
  607MPD2    H2 9052   3.665   0.951  11.813
  607MPD2    H3 9053   3.486   0.793  11.877
  607MPD2     N 9054   3.619   0.841  12.323
  607MPD2    H5 9055   3.701   0.871  12.374
  607MPD2    N1 9056   3.795   1.127  11.993
  607MPD2    H7 9057   3.841   1.163  12.075
  608TMC3    C1 9058   3.903   1.312  11.926
  608TMC3    C2 9059   3.884   1.364  12.049
  608TMC3    C3 9060   3.952   1.467  12.089
  608TMC3    C4 9061   3.994   1.364  11.837
  608TMC3    C5 9062   4.075   1.473  11.886
  608TMC3    C6 9063   4.046   1.528  12.012
  608TMC3     C 9064   3.823   1.196  11.880
  608TMC3     O 9065   3.817   1.173  11.757
  608TMC3     H 9066   3.809   1.322  12.116
  608TMC3    H1 9067   4.014   1.326  11.738
  608TMC3    H2 9068   4.096   1.615  12.052
  608TMC3    C7 9069   4.154   1.546  11.791
  608TMC3    C8 9070   3.944   1.509  12.226
  608TMC3    O1 9071   4.150   1.509  11.672
  608TMC3    O2 9072   3.930   1.635  12.240
  609TMC3    C1 9073   2.125   0.572   9.482
  609TMC3    C2 9074   2.033   0.555   9.387
  609TMC3    C3 9075   2.056   0.464   9.286
  609TMC3    C4 9076   2.234   0.493   9.491
  609TMC3    C5 9077   2.256   0.398   9.391
  609TMC3    C6 9078   2.158   0.379   9.297
  609TMC3     C 9079   2.074   0.626   9.607
  609TMC3     O 9080   1.949   0.616   9.615
  609TMC3     H 9081   1.940   0.611   9.387
  609TMC3    H1 9082   2.288   0.495   9.585
  609TMC3    H2 9083   2.170   0.303   9.222
  609TMC3    C7 9084   2.373   0.305   9.403
  609TMC3    C8 9085   1.931   0.416   9.210
  609TMC3    O1 9086   2.446   0.336   9.501
  609TMC3    O2 9087   1.830   0.469   9.245
  610TMC3    C1 9088   4.082   0.998  12.782
  610TMC3    C2 9089   4.119   1.068  12.673
  610TMC3    C3 9090   4.202   1.009  12.581
  610TMC3    C4 9091   4.124   0.867  12.808
  610TMC3    C5 9092   4.210   0.811  12.718
  610TMC3    C6 9093   4.259   0.886  12.614
  610TMC3     C 9094   4.009   1.063  12.880
  610TMC3     O 9095   3.938   0.992  12.954
  610TMC3     H 9096   4.059   1.152  12.640
  610TMC3    H1 9097   4.090   0.815  12.897
  610TMC3    H2 9098   4.333   0.835  12.554
  610TMC3    C7 9099   4.298   0.700  12.772
  610TMC3    C8 9100   4.215   1.068  12.447
  610TMC3    O1 9101   4.419   0.718  12.763
  610TMC3    O2 9102   4.169   1.176  12.431
  611MPD2     C 9103   3.570   1.071  11.218
  611MPD2    C1 9104   3.527   1.133  11.102
  611MPD2    C2 9105   3.619   1.182  11.009
  611MPD2    C3 9106   3.749   1.174  11.046
  611MPD2    C4 9107   3.784   1.113  11.168
  611MPD2    C5 9108   3.701   1.059  11.258
  611MPD2     H 9109   3.597   1.215  10.908
  611MPD2    H1 9110   3.887   1.111  11.199
  611MPD2    H2 9111   3.495   1.040  11.290
  611MPD2    H3 9112   3.732   1.004  11.346
  611MPD2     N 9113   3.858   1.217  10.962
  611MPD2    H5 9114   3.949   1.205  11.007
  611MPD2    N1 9115   3.384   1.136  11.086
  611MPD2    H7 9116   3.331   1.078  11.150
  612TMC3    C1 9117   3.952   1.372  10.811
  612TMC3    C2 9118   4.060   1.388  10.894
  612TMC3    C3 9119   4.155   1.482  10.852
  612TMC3    C4 9120   3.939   1.446  10.698
  612TMC3    C5 9121   4.033   1.541  10.670
  612TMC3    C6 9122   4.140   1.564  10.746
  612TMC3     C 9123   3.841   1.293  10.849
  612TMC3     O 9124   3.741   1.314  10.781
  612TMC3     H 9125   4.057   1.355  10.998
  612TMC3    H1 9126   3.856   1.438  10.629
  612TMC3    H2 9127   4.220   1.624  10.705
  612TMC3    C7 9128   4.015   1.617  10.550
  612TMC3    C8 9129   4.286   1.485  10.919
  612TMC3    O1 9130   3.980   1.558  10.452
  612TMC3    O2 9131   4.348   1.592  10.900
  613MPD2     C 9132   2.889   3.338  16.643
  613MPD2    C1 9133   2.764   3.340  16.591
  613MPD2    C2 9134   2.659   3.268  16.643
  613MPD2    C3 9135   2.683   3.173  16.739
  613MPD2    C4 9136   2.809   3.177  16.799
  613MPD2    C5 9137   2.910   3.259  16.754
  613MPD2     H 9138   2.559   3.276  16.600
  613MPD2    H1 9139   2.826   3.101  16.875
  613MPD2    H2 9140   2.973   3.395  16.607
  613MPD2    H3 9141   3.009   3.254  16.797
  613MPD2     N 9142   2.597   3.062  16.770
  613MPD2    H5 9143   2.641   2.988  16.824
  613MPD2    N1 9144   2.756   3.411  16.467
  613MPD2    H7 9145   2.840   3.434  16.415
  614TMC3    C1 9146   2.635   3.426  16.265
  614TMC3    C2 9147   2.679   3.302  16.219
  614TMC3    C3 9148   2.613   3.242  16.112
  614TMC3    C4 9149   2.534   3.486  16.195
  614TMC3    C5 9150   2.486   3.432  16.079
  614TMC3    C6 9151   2.520   3.307  16.037
  614TMC3     C 9152   2.636   3.432  16.410
  614TMC3     O 9153   2.531   3.461  16.463
  614TMC3     H 9154   2.744   3.243  16.283
  614TMC3    H1 9155   2.495   3.582  16.227
  614TMC3    H2 9156   2.482   3.258  15.948
  614TMC3    C7 9157   2.376   3.500  16.019
  614TMC3    C8 9158   2.616   3.094  16.115
  614TMC3    O1 9159   2.318   3.588  16.081
  614TMC3    O2 9160   2.720   3.042  16.155
  615MPD2     C 9161   2.116   4.374  15.889
  615MPD2    C1 9162   2.009   4.439  15.949
  615MPD2    C2 9163   1.895   4.475  15.869
  615MPD2    C3 9164   1.889   4.437  15.740
  615MPD2    C4 9165   1.982   4.367  15.689
  615MPD2    C5 9166   2.099   4.342  15.759
  615MPD2     H 9167   1.816   4.537  15.909
  615MPD2    H1 9168   1.977   4.329  15.588
  615MPD2    H2 9169   2.198   4.325  15.940
  615MPD2    H3 9170   2.175   4.283  15.709
  615MPD2     N 9171   1.779   4.470  15.650
  615MPD2    H5 9172   1.789   4.440  15.554
  615MPD2    N1 9173   2.034   4.496  16.080
  615MPD2    H7 9174   1.974   4.568  16.118
  616TMC3    C1 9175   2.153   4.584  16.274
  616TMC3    C2 9176   2.279   4.608  16.330
  616TMC3    C3 9177   2.292   4.674  16.445
  616TMC3    C4 9178   2.038   4.610  16.339
  616TMC3    C5 9179   2.045   4.663  16.463
  616TMC3    C6 9180   2.173   4.694  16.514
  616TMC3     C 9181   2.157   4.501  16.153
  616TMC3     O 9182   2.264   4.449  16.128
  616TMC3     H 9183   2.363   4.603  16.262
  616TMC3    H1 9184   1.948   4.569  16.295
  616TMC3    H2 9185   2.182   4.752  16.605
  616TMC3    C7 9186   1.927   4.721  16.521
  616TMC3    C8 9187   2.342   0.002  16.427
  616TMC3    O1 9188   1.933   4.739  16.640
  616TMC3    O2 9189   2.254   0.090  16.436
  617MPD2     C 9190   0.221   2.700  13.848
  617MPD2    C1 9191   0.229   2.737  13.981
  617MPD2    C2 9192   0.113   2.755  14.052
  617MPD2    C3 9193   4.795   2.713  13.999
  617MPD2    C4 9194   4.784   2.680  13.863
  617MPD2    C5 9195   0.095   2.678  13.787
  617MPD2     H 9196   0.109   2.788  14.156
  617MPD2    H1 9197   4.688   2.663  13.817
  617MPD2    H2 9198   0.310   2.706  13.787
  617MPD2    H3 9199   0.085   2.660  13.681
  617MPD2     N 9200   4.678   2.707  14.080
  617MPD2    H5 9201   4.589   2.685  14.035
  617MPD2    N1 9202   0.358   2.761  14.036
  617MPD2    H7 9203   0.445   2.737  13.988
  618TMC3    C1 9204   0.515   2.799  14.188
  618TMC3    C2 9205   0.574   2.671  14.183
  618TMC3    C3 9206   0.695   2.653  14.243
  618TMC3    C4 9207   0.587   2.909  14.223
  618TMC3    C5 9208   0.721   2.889  14.253
  618TMC3    C6 9209   0.768   2.759  14.281
  618TMC3     C 9210   0.378   2.816  14.154
  618TMC3     O 9211   0.299   2.888  14.210
  618TMC3     H 9212   0.522   2.584  14.145
  618TMC3    H1 9213   0.543   3.008  14.218
  618TMC3    H2 9214   0.867   2.741  14.321
  618TMC3    C7 9215   0.798   3.000  14.304
  618TMC3    C8 9216   0.751   2.520  14.235
  618TMC3    O1 9217   0.736   3.069  14.382
  618TMC3    O2 9218   0.672   2.431  14.227
  619MPD2     C 9219   1.575   3.996  14.066
  619MPD2    C1 9220   1.546   4.088  13.963
  619MPD2    C2 9221   1.446   4.047  13.878
  619MPD2    C3 9222   1.367   3.932  13.889
  619MPD2    C4 9223   1.396   3.850  13.998
  619MPD2    C5 9224   1.504   3.881  14.079
  619MPD2     H 9225   1.428   4.126  13.805
  619MPD2    H1 9226   1.349   3.753  14.000
  619MPD2    H2 9227   1.657   4.009  14.136
  619MPD2    H3 9228   1.516   3.806  14.157
  619MPD2     N 9229   1.263   3.898  13.801
  619MPD2    H5 9230   1.203   3.822  13.830
  619MPD2    N1 9231   1.617   4.205  13.925
  619MPD2    H7 9232   1.606   4.240  13.831
  620TMC3    C1 9233   1.754   4.393  13.949
  620TMC3    C2 9234   1.717   4.442  13.823
  620TMC3    C3 9235   1.726   4.573  13.789
  620TMC3    C4 9236   1.791   4.481  14.044
  620TMC3    C5 9237   1.791   4.611  14.011
  620TMC3    C6 9238   1.760   4.661  13.886
  620TMC3     C 9239   1.709   4.265  14.004
  620TMC3     O 9240   1.738   4.226  14.114
  620TMC3     H 9241   1.666   4.371  13.759
  620TMC3    H1 9242   1.813   4.442  14.143
  620TMC3    H2 9243   1.756   4.769  13.879
  620TMC3    C7 9244   1.866   4.695  14.104
  620TMC3    C8 9245   1.623   4.613  13.701
  620TMC3    O1 9246   1.965   4.648  14.153
  620TMC3    O2 9247   1.539   4.692  13.746
  621MPD2     C 9248   1.778   4.264  10.690
  621MPD2    C1 9249   1.687   4.255  10.589
  621MPD2    C2 9250   1.642   4.370  10.523
  621MPD2    C3 9251   1.692   4.493  10.557
  621MPD2    C4 9252   1.785   4.503  10.655
  621MPD2    C5 9253   1.819   4.392  10.719
  621MPD2     H 9254   1.561   4.375  10.452
  621MPD2    H1 9255   1.829   4.594  10.694
  621MPD2    H2 9256   1.825   4.180  10.739
  621MPD2    H3 9257   1.893   4.403  10.798
  621MPD2     N 9258   1.648   4.609  10.479
  621MPD2    H5 9259   1.598   4.589  10.393
  621MPD2    N1 9260   1.638   4.132  10.544
  621MPD2    H7 9261   1.579   4.138  10.462
  622TMC3    C1 9262   1.595   3.904  10.522
  622TMC3    C2 9263   1.516   3.832  10.608
  622TMC3    C3 9264   1.418   3.746  10.558
  622TMC3    C4 9265   1.572   3.910  10.388
  622TMC3    C5 9266   1.490   3.815  10.339
  622TMC3    C6 9267   1.420   3.732  10.424
  622TMC3     C 9268   1.669   4.008  10.593
  622TMC3     O 9269   1.743   3.976  10.685
  622TMC3     H 9270   1.524   3.850  10.715
  622TMC3    H1 9271   1.625   3.978  10.322
  622TMC3    H2 9272   1.335   3.688  10.373
  622TMC3    C7 9273   1.490   3.778  10.200
  622TMC3    C8 9274   1.288   3.796  10.586
  622TMC3    O1 9275   1.439   3.679  10.158
  622TMC3    O2 9276   1.190   3.726  10.561
  623MPD2     C 9277   0.452   4.460  15.750
  623MPD2    C1 9278   0.366   4.445  15.856
  623MPD2    C2 9279   0.430   4.438  15.981
  623MPD2    C3 9280   0.568   4.466  15.983
  623MPD2    C4 9281   0.649   4.479  15.873
  623MPD2    C5 9282   0.588   4.475  15.760
  623MPD2     H 9283   0.375   4.436  16.074
  623MPD2    H1 9284   0.758   4.479  15.875
  623MPD2    H2 9285   0.407   4.475  15.652
  623MPD2    H3 9286   0.649   4.476  15.671
  623MPD2     N 9287   0.622   4.490  16.116
  623MPD2    H5 9288   0.562   4.467  16.195
  623MPD2    N1 9289   0.223   4.448  15.846
  623MPD2    H7 9290   0.183   4.488  15.762
  624TMC3    C1 9291   0.868   4.667  16.464
  624TMC3    C2 9292   0.760   4.655  16.548
  624TMC3    C3 9293   0.633   4.626  16.494
  624TMC3    C4 9294   0.857   4.629  16.335
  624TMC3    C5 9295   0.740   4.595  16.280
  624TMC3    C6 9296   0.629   4.581  16.364
  624TMC3     C 9297   0.995   4.656  16.524
  624TMC3     O 9298   1.088   4.674  16.443
  624TMC3     H 9299   0.767   4.683  16.653
  624TMC3    H1 9300   0.945   4.638  16.271
  624TMC3    H2 9301   0.531   4.552  16.329
  624TMC3    C7 9302   0.741   4.548  16.149
  624TMC3    C8 9303   0.514   4.615  16.579
  624TMC3    O1 9304   0.841   4.556  16.081
  624TMC3    O2 9305   0.417   4.548  16.541
  625MPD2     C 9306   1.199   1.097  18.955
  625MPD2    C1 9307   1.240   1.223  18.976
  625MPD2    C2 9308   1.350   1.245  19.060
  625MPD2    C3 9309   1.420   1.135  19.105
  625MPD2    C4 9310   1.383   1.010  19.075
  625MPD2    C5 9311   1.269   0.990  18.996
  625MPD2     H 9312   1.385   1.348  19.057
  625MPD2    H1 9313   1.439   0.922  19.105
  625MPD2    H2 9314   1.116   1.076  18.889
  625MPD2    H3 9315   1.240   0.888  18.972
  625MPD2     N 9316   1.539   1.165  19.179
  625MPD2    H5 9317   1.551   1.265  19.195
  625MPD2    N1 9318   1.183   1.336  18.912
  625MPD2    H7 9319   1.204   1.424  18.957
  626TMC3    C1 9320   1.065   1.467  18.752
  626TMC3    C2 9321   0.980   1.486  18.649
  626TMC3    C3 9322   0.951   1.612  18.609
  626TMC3    C4 9323   1.147   1.570  18.794
  626TMC3    C5 9324   1.131   1.692  18.744
  626TMC3    C6 9325   1.028   1.724  18.653
  626TMC3     C 9326   1.097   1.334  18.805
  626TMC3     O 9327   1.036   1.242  18.754
  626TMC3     H 9328   0.940   1.404  18.590
  626TMC3    H1 9329   1.214   1.562  18.880
  626TMC3    H2 9330   1.036   1.819  18.603
  626TMC3    C7 9331   1.185   1.794  18.826
  626TMC3    C8 9332   0.870   1.643  18.492
  626TMC3    O1 9333   1.292   1.785  18.885
  626TMC3    O2 9334   0.887   1.759  18.441
  627MPD2     C 9335   4.147   1.574  14.566
  627MPD2    C1 9336   4.215   1.499  14.658
  627MPD2    C2 9337   4.177   1.368  14.670
  627MPD2    C3 9338   4.066   1.310  14.598
  627MPD2    C4 9339   3.996   1.396  14.510
  627MPD2    C5 9340   4.041   1.525  14.496
  627MPD2     H 9341   4.235   1.317  14.746
  627MPD2    H1 9342   3.914   1.360  14.449
  627MPD2    H2 9343   4.180   1.677  14.558
  627MPD2    H3 9344   3.984   1.595  14.436
  627MPD2     N 9345   4.027   1.174  14.626
  627MPD2    H5 9346   4.064   1.140  14.714
  627MPD2    N1 9347   4.330   1.545  14.739
  627MPD2    H7 9348   4.378   1.476  14.795
  628TMC3    C1 9349   4.498   1.675  14.824
  628TMC3    C2 9350   4.599   1.585  14.800
  628TMC3    C3 9351   4.725   1.615  14.847
  628TMC3    C4 9352   4.525   1.800  14.879
  628TMC3    C5 9353   4.650   1.820  14.921
  628TMC3    C6 9354   4.749   1.735  14.908
  628TMC3     C 9355   4.373   1.675  14.749
  628TMC3     O 9356   4.321   1.778  14.719
  628TMC3     H 9357   4.586   1.499  14.735
  628TMC3    H1 9358   4.448   1.872  14.900
  628TMC3    H2 9359   0.047   1.767  14.923
  628TMC3    C7 9360   4.681   1.959  14.949
  628TMC3    C8 9361   0.035   1.557  14.775
  628TMC3    O1 9362   4.770   1.977  15.033
  628TMC3    O2 9363   0.020   1.548  14.653
  629MPD2     C 9364   2.712   0.350  16.395
  629MPD2    C1 9365   2.768   0.228  16.432
  629MPD2    C2 9366   2.686   0.110  16.435
  629MPD2    C3 9367   2.549   0.125  16.416
  629MPD2    C4 9368   2.502   0.251  16.384
  629MPD2    C5 9369   2.582   0.366  16.367
  629MPD2     H 9370   2.729   0.012  16.452
  629MPD2    H1 9371   2.394   0.263  16.377
  629MPD2    H2 9372   2.767   0.443  16.389
  629MPD2    H3 9373   2.548   0.462  16.330
  629MPD2     N 9374   2.475   0.010  16.404
  629MPD2    H5 9375   2.520   4.723  16.404
  629MPD2    N1 9376   2.905   0.221  16.454
  629MPD2    H7 9377   2.957   0.306  16.433
  630TMC3    C1 9378   3.106   0.141  16.548
  630TMC3    C2 9379   3.171   0.245  16.483
  630TMC3    C3 9380   3.294   0.281  16.534
  630TMC3    C4 9381   3.163   0.082  16.660
  630TMC3    C5 9382   3.284   0.115  16.704
  630TMC3    C6 9383   3.352   0.216  16.637
  630TMC3     C 9384   2.963   0.122  16.528
  630TMC3     O 9385   2.913   0.028  16.586
  630TMC3     H 9386   3.127   0.292  16.396
  630TMC3    H1 9387   3.113   4.800  16.702
  630TMC3    H2 9388   3.455   0.244  16.658
  630TMC3    C7 9389   3.328   0.056  16.824
  630TMC3    C8 9390   3.350   0.419  16.514
  630TMC3    O1 9391   3.280   4.753  16.859
  630TMC3    O2 9392   3.449   0.448  16.576
  631MPD2     C 9393   0.810   0.020  15.585
  631MPD2    C1 9394   0.895   0.104  15.522
  631MPD2    C2 9395   1.010   0.051  15.465
  631MPD2    C3 9396   1.041   4.726  15.472
  631MPD2    C4 9397   0.948   4.633  15.522
  631MPD2    C5 9398   0.837   4.686  15.593
  631MPD2     H 9399   1.095   0.114  15.439
  631MPD2    H1 9400   0.974   4.528  15.524
  631MPD2    H2 9401   0.727   0.058  15.643
  631MPD2    H3 9402   0.781   4.619  15.657
  631MPD2     N 9403   1.173   4.692  15.430
  631MPD2    H5 9404   1.227   4.766  15.388
  631MPD2    N1 9405   0.865   0.240  15.518
  631MPD2    H7 9406   0.788   0.277  15.574
  632TMC3    C1 9407   0.884   0.469  15.478
  632TMC3    C2 9408   0.750   0.483  15.468
  632TMC3    C3 9409   0.702   0.611  15.452
  632TMC3    C4 9410   0.972   0.571  15.458
  632TMC3    C5 9411   0.922   0.688  15.417
  632TMC3    C6 9412   0.789   0.715  15.419
  632TMC3     C 9413   0.937   0.333  15.459
  632TMC3     O 9414   1.032   0.318  15.381
  632TMC3     H 9415   0.676   0.406  15.490
  632TMC3    H1 9416   1.076   0.541  15.449
  632TMC3    H2 9417   0.750   0.813  15.397
  632TMC3    C7 9418   1.005   0.774  15.333
  632TMC3    C8 9419   0.562   0.643  15.494
  632TMC3    O1 9420   0.950   0.847  15.254
  632TMC3    O2 9421   0.491   0.548  15.477
  633MPD2     C 9422   0.742   2.812  17.479
  633MPD2    C1 9423   0.767   2.747  17.359
  633MPD2    C2 9424   0.758   2.609  17.359
  633MPD2    C3 9425   0.736   2.535  17.474
  633MPD2    C4 9426   0.712   2.602  17.586
  633MPD2    C5 9427   0.721   2.739  17.586
  633MPD2     H 9428   0.762   2.559  17.263
  633MPD2    H1 9429   0.692   2.555  17.681
  633MPD2    H2 9430   0.762   2.919  17.485
  633MPD2    H3 9431   0.702   2.801  17.672
  633MPD2     N 9432   0.741   2.393  17.487
  633MPD2    H5 9433   0.717   2.366  17.582
  633MPD2    N1 9434   0.805   2.803  17.236
  633MPD2    H7 9435   0.839   2.745  17.160
  634TMC3    C1 9436   0.871   2.973  17.096
  634TMC3    C2 9437   0.900   2.881  16.994
  634TMC3    C3 9438   0.954   2.922  16.874
  634TMC3    C4 9439   0.872   3.100  17.062
  634TMC3    C5 9440   0.914   3.142  16.935
  634TMC3    C6 9441   0.968   3.056  16.842
  634TMC3     C 9442   0.829   2.937  17.229
  634TMC3     O 9443   0.809   3.025  17.306
  634TMC3     H 9444   0.895   2.773  17.001
  634TMC3    H1 9445   0.853   3.170  17.142
  634TMC3    H2 9446   1.020   3.101  16.759
  634TMC3    C7 9447   0.892   3.277  16.900
  634TMC3    C8 9448   1.042   2.829  16.801
  634TMC3    O1 9449   0.960   3.320  16.802
  634TMC3    O2 9450   1.080   2.732  16.866
  635TMC3    C1 9451   0.905   4.313  17.882
  635TMC3    C2 9452   0.922   4.182  17.855
  635TMC3    C3 9453   0.821   4.100  17.874
  635TMC3    C4 9454   0.787   4.364  17.925
  635TMC3    C5 9455   0.681   4.281  17.926
  635TMC3    C6 9456   0.698   4.148  17.894
  635TMC3     C 9457   1.026   4.396  17.899
  635TMC3     O 9458   1.022   4.468  17.994
  635TMC3     H 9459   1.017   4.136  17.828
  635TMC3    H1 9460   0.774   4.470  17.940
  635TMC3    H2 9461   0.611   4.083  17.893
  635TMC3    C7 9462   0.554   4.340  17.915
  635TMC3    C8 9463   0.838   3.953  17.852
  635TMC3    O1 9464   0.471   4.303  17.830
  635TMC3    O2 9465   0.927   3.914  17.775
  636MPD2     C 9466   1.805   3.357  16.484
  636MPD2    C1 9467   1.918   3.401  16.549
  636MPD2    C2 9468   2.009   3.304  16.590
  636MPD2    C3 9469   1.992   3.168  16.548
  636MPD2    C4 9470   1.874   3.130  16.478
  636MPD2    C5 9471   1.787   3.227  16.454
  636MPD2     H 9472   2.102   3.326  16.641
  636MPD2    H1 9473   1.860   3.026  16.450
  636MPD2    H2 9474   1.739   3.435  16.447
  636MPD2    H3 9475   1.695   3.200  16.402
  636MPD2     N 9476   2.087   3.076  16.599
  636MPD2    H5 9477   2.154   3.113  16.666
  636MPD2    N1 9478   1.951   3.534  16.594
  636MPD2    H7 9479   2.034   3.550  16.651
  637TMC3    C1 9480   2.203   2.878  16.631
  637TMC3    C2 9481   2.269   2.952  16.725
  637TMC3    C3 9482   2.400   2.926  16.745
  637TMC3    C4 9483   2.264   2.778  16.560
  637TMC3    C5 9484   2.393   2.753  16.586
  637TMC3    C6 9485   2.464   2.818  16.685
  637TMC3     C 9486   2.097   2.940  16.559
  637TMC3     O 9487   2.043   2.876  16.470
  637TMC3     H 9488   2.226   3.029  16.787
  637TMC3    H1 9489   2.204   2.720  16.491
  637TMC3    H2 9490   2.572   2.812  16.689
  637TMC3    C7 9491   2.473   2.720  16.468
  637TMC3    C8 9492   2.467   3.051  16.721
  637TMC3    O1 9493   2.589   2.752  16.467
  637TMC3    O2 9494   2.399   3.127  16.648
  638MPD2     C 9495   1.823   2.153  15.356
  638MPD2    C1 9496   1.793   2.047  15.274
  638MPD2    C2 9497   1.746   1.937  15.343
  638MPD2    C3 9498   1.726   1.936  15.476
  638MPD2    C4 9499   1.755   2.043  15.550
  638MPD2    C5 9500   1.804   2.155  15.492
  638MPD2     H 9501   1.714   1.848  15.290
  638MPD2    H1 9502   1.726   2.048  15.654
  638MPD2    H2 9503   1.856   2.246  15.313
  638MPD2    H3 9504   1.832   2.242  15.551
  638MPD2     N 9505   1.667   1.819  15.534
  638MPD2    H5 9506   1.665   1.737  15.474
  638MPD2    N1 9507   1.824   2.048  15.138
  638MPD2    H7 9508   1.863   2.133  15.100
  639TMC3    C1 9509   1.620   1.643  15.667
  639TMC3    C2 9510   1.564   1.584  15.558
  639TMC3    C3 9511   1.589   1.451  15.534
  639TMC3    C4 9512   1.693   1.564  15.751
  639TMC3    C5 9513   1.709   1.428  15.725
  639TMC3    C6 9514   1.672   1.380  15.605
  639TMC3     C 9515   1.646   1.789  15.662
  639TMC3     O 9516   1.680   1.858  15.761
  639TMC3     H 9517   1.491   1.640  15.502
  639TMC3    H1 9518   1.747   1.599  15.839
  639TMC3    H2 9519   1.681   1.273  15.588
  639TMC3    C7 9520   1.823   1.359  15.782
  639TMC3    C8 9521   1.525   1.383  15.428
  639TMC3    O1 9522   1.821   1.345  15.902
  639TMC3    O2 9523   1.568   1.275  15.390
  640MPD2     C 9524   2.784   1.258  10.296
  640MPD2    C1 9525   2.682   1.219  10.211
  640MPD2    C2 9526   2.553   1.258  10.241
  640MPD2    C3 9527   2.528   1.341  10.353
  640MPD2    C4 9528   2.628   1.379  10.435
  640MPD2    C5 9529   2.759   1.338  10.404
  640MPD2     H 9530   2.475   1.229  10.173
  640MPD2    H1 9531   2.616   1.436  10.526
  640MPD2    H2 9532   2.885   1.231  10.269
  640MPD2    H3 9533   2.848   1.369  10.457
  640MPD2     N 9534   2.398   1.385  10.392
  640MPD2    H5 9535   2.393   1.431  10.483
  640MPD2    N1 9536   2.711   1.144  10.094
  640MPD2    H7 9537   2.802   1.099  10.095
  641TMC3    C1 9538   2.654   1.021   9.896
  641TMC3    C2 9539   2.757   0.929   9.918
  641TMC3    C3 9540   2.785   0.838   9.814
  641TMC3    C4 9541   2.577   1.012   9.785
  641TMC3    C5 9542   2.600   0.917   9.687
  641TMC3    C6 9543   2.710   0.832   9.698
  641TMC3     C 9544   2.630   1.137   9.984
  641TMC3     O 9545   2.537   1.209   9.954
  641TMC3     H 9546   2.814   0.934  10.010
  641TMC3    H1 9547   2.499   1.086   9.770
  641TMC3    H2 9548   2.725   0.757   9.621
  641TMC3    C7 9549   2.500   0.915   9.584
  641TMC3    C8 9550   2.869   0.724   9.839
  641TMC3    O1 9551   2.415   1.002   9.583
  641TMC3    O2 9552   2.862   0.634   9.756
  642TMC3    C1 9553   3.456   1.992  12.769
  642TMC3    C2 9554   3.583   2.020  12.812
  642TMC3    C3 9555   3.630   1.914  12.881
  642TMC3    C4 9556   3.379   1.875  12.793
  642TMC3    C5 9557   3.446   1.774  12.851
  642TMC3    C6 9558   3.566   1.792  12.911
  642TMC3     C 9559   3.396   2.113  12.712
  642TMC3     O 9560   3.458   2.187  12.636
  642TMC3     H 9561   3.641   2.107  12.784
  642TMC3    H1 9562   3.294   1.867  12.726
  642TMC3    H2 9563   3.618   1.714  12.966
  642TMC3    C7 9564   3.393   1.645  12.812
  642TMC3    C8 9565   3.759   1.925  12.934
  642TMC3    O1 9566   3.323   1.636  12.712
  642TMC3    O2 9567   3.781   1.856  13.034
  643TMC3    C1 9568   2.919   1.214  18.259
  643TMC3    C2 9569   2.820   1.247  18.168
  643TMC3    C3 9570   2.745   1.148  18.108
  643TMC3    C4 9571   2.932   1.086  18.307
  643TMC3    C5 9572   2.854   0.988  18.245
  643TMC3    C6 9573   2.767   1.019  18.138
  643TMC3     C 9574   2.986   1.327  18.331
  643TMC3     O 9575   2.978   1.434  18.280
  643TMC3     H 9576   2.805   1.354  18.154
  643TMC3    H1 9577   3.011   1.057  18.375
  643TMC3    H2 9578   2.696   0.944  18.106
  643TMC3    C7 9579   2.879   0.855  18.290
  643TMC3    C8 9580   2.687   1.167  17.978
  643TMC3    O1 9581   2.921   0.835  18.403
  643TMC3    O2 9582   2.614   1.086  17.921
  644MPD2     C 9583   2.792   1.646   9.868
  644MPD2    C1 9584   2.704   1.566   9.805
  644MPD2    C2 9585   2.569   1.591   9.787
  644MPD2    C3 9586   2.528   1.721   9.826
  644MPD2    C4 9587   2.623   1.809   9.879
  644MPD2    C5 9588   2.748   1.771   9.908
  644MPD2     H 9589   2.500   1.520   9.743
  644MPD2    H1 9590   2.593   1.908   9.910
  644MPD2    H2 9591   2.892   1.612   9.891
  644MPD2    H3 9592   2.822   1.834   9.955
  644MPD2     N 9593   2.396   1.746   9.802
  644MPD2    H5 9594   2.335   1.672   9.768
  644MPD2    N1 9595   2.767   1.446   9.757
  644MPD2    H7 9596   2.862   1.431   9.791
  645TMC3    C1 9597   2.206   1.883   9.759
  645TMC3    C2 9598   2.138   1.994   9.785
  645TMC3    C3 9599   2.024   2.018   9.711
  645TMC3    C4 9600   2.167   1.789   9.665
  645TMC3    C5 9601   2.054   1.818   9.597
  645TMC3    C6 9602   1.985   1.937   9.612
  645TMC3     C 9603   2.343   1.872   9.810
  645TMC3     O 9604   2.391   1.979   9.843
  645TMC3     H 9605   2.181   2.063   9.857
  645TMC3    H1 9606   2.226   1.704   9.631
  645TMC3    H2 9607   1.899   1.956   9.548
  645TMC3    C7 9608   2.019   1.746   9.478
  645TMC3    C8 9609   1.982   2.159   9.716
  645TMC3    O1 9610   1.962   1.810   9.389
  645TMC3    O2 9611   2.068   2.243   9.733
  646MPD2     C 9612   1.929   0.589  14.923
  646MPD2    C1 9613   1.879   0.648  15.037
  646MPD2    C2 9614   1.776   0.747  15.031
  646MPD2    C3 9615   1.722   0.781  14.907
  646MPD2    C4 9616   1.770   0.709  14.799
  646MPD2    C5 9617   1.873   0.622  14.806
  646MPD2     H 9618   1.735   0.790  15.122
  646MPD2    H1 9619   1.733   0.725  14.698
  646MPD2    H2 9620   2.010   0.517  14.923
  646MPD2    H3 9621   1.920   0.577  14.719
  646MPD2     N 9622   1.621   0.882  14.889
  646MPD2    H5 9623   1.581   0.929  14.969
  646MPD2    N1 9624   1.952   0.613  15.151
  646MPD2    H7 9625   2.042   0.566  15.147
  647TMC3    C1 9626   2.034   0.614  15.375
  647TMC3    C2 9627   2.005   0.613  15.511
  647TMC3    C3 9628   2.108   0.579  15.594
  647TMC3    C4 9629   2.167   0.591  15.327
  647TMC3    C5 9630   2.274   0.592  15.422
  647TMC3    C6 9631   2.241   0.588  15.555
  647TMC3     C 9632   1.923   0.644  15.284
  647TMC3     O 9633   1.816   0.695  15.323
  647TMC3     H 9634   1.902   0.617  15.545
  647TMC3    H1 9635   2.188   0.595  15.220
  647TMC3    H2 9636   2.314   0.567  15.632
  647TMC3    C7 9637   2.396   0.531  15.386
  647TMC3    C8 9638   2.099   0.455  15.664
  647TMC3    O1 9639   2.487   0.550  15.462
  647TMC3    O2 9640   2.197   0.385  15.669
  648TMC3    C1 9641   1.418   3.053  16.504
  648TMC3    C2 9642   1.497   2.940  16.508
  648TMC3    C3 9643   1.545   2.899  16.391
  648TMC3    C4 9644   1.393   3.116  16.389
  648TMC3    C5 9645   1.422   3.068  16.267
  648TMC3    C6 9646   1.502   2.952  16.270
  648TMC3     C 9647   1.392   3.122  16.623
  648TMC3     O 9648   1.388   3.245  16.619
  648TMC3     H 9649   1.540   2.906  16.601
  648TMC3    H1 9650   1.322   3.198  16.391
  648TMC3    H2 9651   1.524   2.895  16.181
  648TMC3    C7 9652   1.384   3.129  16.143
  648TMC3    C8 9653   1.632   2.785  16.408
  648TMC3    O1 9654   1.457   3.118  16.043
  648TMC3    O2 9655   1.648   2.746  16.523
  649TMC3    C1 9656   0.311   4.385  12.751
  649TMC3    C2 9657   0.442   4.425  12.758
  649TMC3    C3 9658   0.513   4.406  12.871
  649TMC3    C4 9659   0.245   4.324  12.855
  649TMC3    C5 9660   0.323   4.307  12.971
  649TMC3    C6 9661   0.460   4.338  12.975
  649TMC3     C 9662   0.227   4.399  12.637
  649TMC3     O 9663   0.108   4.405  12.661
  649TMC3     H 9664   0.490   4.468  12.671
  649TMC3    H1 9665   0.146   4.281  12.857
  649TMC3    H2 9666   0.524   4.314  13.059
  649TMC3    C7 9667   0.253   4.230  13.074
  649TMC3    C8 9668   0.654   4.401  12.865
  649TMC3    O1 9669   0.128   4.232  13.078
  649TMC3    O2 9670   0.717   4.325  12.940
  650TMC3    C1 9671   3.050   1.225  13.074
  650TMC3    C2 9672   3.008   1.344  13.126
  650TMC3    C3 9673   2.894   1.400  13.067
  650TMC3    C4 9674   2.987   1.164  12.968
  650TMC3    C5 9675   2.878   1.226  12.911
  650TMC3    C6 9676   2.828   1.347  12.954
  650TMC3     C 9677   3.169   1.162  13.141
  650TMC3     O 9678   3.230   1.238  13.218
  650TMC3     H 9679   3.033   1.376  13.227
  650TMC3    H1 9680   3.028   1.075  12.921
  650TMC3    H2 9681   2.739   1.394  12.914
  650TMC3    C7 9682   2.868   1.199  12.770
  650TMC3    C8 9683   2.837   1.515  13.123
  650TMC3    O1 9684   2.907   1.090  12.730
  650TMC3    O2 9685   2.911   1.602  13.160
  651MPD2     C 9686   1.541   3.367  10.786
  651MPD2    C1 9687   1.507   3.493  10.835
  651MPD2    C2 9688   1.614   3.563  10.884
  651MPD2    C3 9689   1.744   3.524  10.872
  651MPD2    C4 9690   1.769   3.403  10.812
  651MPD2    C5 9691   1.669   3.326  10.771
  651MPD2     H 9692   1.591   3.660  10.927
  651MPD2    H1 9693   1.870   3.366  10.802
  651MPD2    H2 9694   1.461   3.306  10.745
  651MPD2    H3 9695   1.689   3.233  10.718
  651MPD2     N 9696   1.840   3.610  10.931
  651MPD2    H5 9697   1.801   3.690  10.980
  651MPD2    N1 9698   1.371   3.541  10.862
  651MPD2    H7 9699   1.368   3.632  10.907
  652TMC3    C1 9700   2.255   3.785  11.050
  652TMC3    C2 9701   2.181   3.673  11.025
  652TMC3    C3 9702   2.051   3.695  10.986
  652TMC3    C4 9703   2.218   3.914  11.034
  652TMC3    C5 9704   2.089   3.928  10.990
  652TMC3    C6 9705   2.007   3.820  10.972
  652TMC3     C 9706   2.378   3.747  11.123
  652TMC3     O 9707   2.366   3.668  11.215
  652TMC3     H 9708   2.223   3.574  11.043
  652TMC3    H1 9709   2.279   4.002  11.051
  652TMC3    H2 9710   1.916   3.838  10.915
  652TMC3    C7 9711   2.022   4.051  11.030
  652TMC3    C8 9712   1.977   3.589  10.920
  652TMC3    O1 9713   1.900   4.045  11.034
  652TMC3    O2 9714   2.046   3.492  10.885
  653MPD2     C 9715   0.394   3.200  17.951
  653MPD2    C1 9716   0.340   3.271  17.855
  653MPD2    C2 9717   0.330   3.206  17.731
  653MPD2    C3 9718   0.348   3.070  17.716
  653MPD2    C4 9719   0.388   2.999  17.825
  653MPD2    C5 9720   0.415   3.061  17.935
  653MPD2     H 9721   0.290   3.254  17.642
  653MPD2    H1 9722   0.389   2.891  17.829
  653MPD2    H2 9723   0.431   3.248  18.041
  653MPD2    H3 9724   0.439   3.006  18.026
  653MPD2     N 9725   0.325   3.013  17.589
  653MPD2    H5 9726   0.303   3.066  17.505
  653MPD2    N1 9727   0.295   3.404  17.869
  653MPD2    H7 9728   0.288   3.445  17.776
  654TMC3    C1 9729   0.295   2.824  17.439
  654TMC3    C2 9730   0.202   2.890  17.363
  654TMC3    C3 9731   0.159   2.828  17.244
  654TMC3    C4 9732   0.348   2.701  17.407
  654TMC3    C5 9733   0.318   2.662  17.280
  654TMC3    C6 9734   0.227   2.719  17.198
  654TMC3     C 9735   0.334   2.874  17.572
  654TMC3     O 9736   0.368   2.782  17.642
  654TMC3     H 9737   0.139   2.971  17.398
  654TMC3    H1 9738   0.424   2.648  17.465
  654TMC3    H2 9739   0.209   2.674  17.101
  654TMC3    C7 9740   0.385   2.546  17.224
  654TMC3    C8 9741   0.049   2.880  17.169
  654TMC3    O1 9742   0.410   2.547  17.106
  654TMC3    O2 9743   0.006   2.994  17.191
  655MPD2     C 9744   1.949   3.085  15.854
  655MPD2    C1 9745   1.856   3.157  15.783
  655MPD2    C2 9746   1.827   3.125  15.653
  655MPD2    C3 9747   1.880   3.009  15.598
  655MPD2    C4 9748   1.971   2.941  15.674
  655MPD2    C5 9749   2.014   2.984  15.791
  655MPD2     H 9750   1.749   3.177  15.599
  655MPD2    H1 9751   2.025   2.851  15.646
  655MPD2    H2 9752   1.979   3.100  15.957
  655MPD2    H3 9753   2.096   2.938  15.846
  655MPD2     N 9754   1.842   2.949  15.472
  655MPD2    H5 9755   1.872   2.853  15.459
  655MPD2    N1 9756   1.774   3.258  15.852
  655MPD2    H7 9757   1.704   3.295  15.789
  656TMC3    C1 9758   1.693   3.411  16.014
  656TMC3    C2 9759   1.644   3.421  16.144
  656TMC3    C3 9760   1.579   3.538  16.180
  656TMC3    C4 9761   1.678   3.504  15.918
  656TMC3    C5 9762   1.613   3.618  15.964
  656TMC3    C6 9763   1.563   3.637  16.091
  656TMC3     C 9764   1.773   3.294  15.986
  656TMC3     O 9765   1.837   3.246  16.076
  656TMC3     H 9766   1.653   3.342  16.217
  656TMC3    H1 9767   1.728   3.502  15.822
  656TMC3    H2 9768   1.545   3.738  16.127
  656TMC3    C7 9769   1.559   3.709  15.862
  656TMC3    C8 9770   1.478   3.516  16.285
  656TMC3    O1 9771   1.627   3.714  15.760
  656TMC3    O2 9772   1.483   3.404  16.337
  657TMC3    C1 9773   0.635   2.719  15.245
  657TMC3    C2 9774   0.728   2.784  15.318
  657TMC3    C3 9775   0.731   2.922  15.305
  657TMC3    C4 9776   0.552   2.787  15.163
  657TMC3    C5 9777   0.563   2.922  15.152
  657TMC3    C6 9778   0.655   2.997  15.214
  657TMC3     C 9779   0.617   2.576  15.253
  657TMC3     O 9780   0.509   2.531  15.208
  657TMC3     H 9781   0.766   2.722  15.399
  657TMC3    H1 9782   0.483   2.727  15.106
  657TMC3    H2 9783   0.656   3.106  15.210
  657TMC3    C7 9784   0.473   2.982  15.061
  657TMC3    C8 9785   0.784   2.998  15.418
  657TMC3    O1 9786   0.367   2.923  15.047
  657TMC3    O2 9787   0.770   3.118  15.411
  658MPD2     C 9788   2.269   2.734  15.004
  658MPD2    C1 9789   2.141   2.724  14.954
  658MPD2    C2 9790   2.138   2.684  14.819
  658MPD2    C3 9791   2.250   2.645  14.746
  658MPD2    C4 9792   2.378   2.654  14.804
  658MPD2    C5 9793   2.383   2.690  14.937
  658MPD2     H 9794   2.045   2.687  14.763
  658MPD2    H1 9795   2.469   2.628  14.751
  658MPD2    H2 9796   2.282   2.742  15.111
  658MPD2    H3 9797   2.478   2.678  14.988
  658MPD2     N 9798   2.233   2.614  14.610
  658MPD2    H5 9799   2.140   2.618  14.571
  658MPD2    N1 9800   2.031   2.754  15.037
  658MPD2    H7 9801   2.057   2.788  15.129
  659TMC3    C1 9802   1.802   2.784  15.091
  659TMC3    C2 9803   1.830   2.849  15.210
  659TMC3    C3 9804   1.735   2.929  15.264
  659TMC3    C4 9805   1.677   2.789  15.039
  659TMC3    C5 9806   1.580   2.869  15.103
  659TMC3    C6 9807   1.607   2.942  15.213
  659TMC3     C 9808   1.896   2.741  14.995
  659TMC3     O 9809   1.854   2.673  14.907
  659TMC3     H 9810   1.932   2.845  15.246
  659TMC3    H1 9811   1.653   2.758  14.938
  659TMC3    H2 9812   1.532   3.010  15.251
  659TMC3    C7 9813   1.447   2.892  15.038
  659TMC3    C8 9814   1.773   3.015  15.373
  659TMC3    O1 9815   1.384   2.985  15.089
  659TMC3    O2 9816   1.730   3.131  15.373
  660MPD2     C 9817   0.096   1.994  12.834
  660MPD2    C1 9818   4.779   2.049  12.865
  660MPD2    C2 9819   4.719   2.004  12.983
  660MPD2    C3 9820   4.772   1.903  13.058
  660MPD2    C4 9821   0.090   1.857  13.024
  660MPD2    C5 9822   0.153   1.897  12.917
  660MPD2     H 9823   4.618   2.035  13.006
  660MPD2    H1 9824   0.139   1.777  13.080
  660MPD2    H2 9825   0.147   2.014  12.741
  660MPD2    H3 9826   0.246   1.849  12.887
  660MPD2     N 9827   4.703   1.838  13.169
  660MPD2    H5 9828   4.755   1.763  13.215
  660MPD2    N1 9829   4.732   2.154  12.779
  660MPD2    H7 9830   4.777   2.181  12.692
  661TMC3    C1 9831   4.570   2.306  12.690
  661TMC3    C2 9832   4.629   2.313  12.567
  661TMC3    C3 9833   4.592   2.402  12.477
  661TMC3    C4 9834   4.482   2.407  12.727
  661TMC3    C5 9835   4.439   2.491  12.625
  661TMC3    C6 9836   4.497   2.489  12.503
  661TMC3     C 9837   4.616   2.223  12.803
  661TMC3     O 9838   4.557   2.244  12.907
  661TMC3     H 9839   4.704   2.241  12.536
  661TMC3    H1 9840   4.419   2.399  12.815
  661TMC3    H2 9841   4.454   2.545  12.421
  661TMC3    C7 9842   4.292   2.500  12.623
  661TMC3    C8 9843   4.665   2.415  12.353
  661TMC3    O1 9844   4.246   2.554  12.726
  661TMC3    O2 9845   4.733   2.317  12.317
  662MPD2     C 9846   0.189   1.869  17.460
  662MPD2    C1 9847   0.165   1.784  17.569
  662MPD2    C2 9848   0.137   1.832  17.699
  662MPD2    C3 9849   0.112   1.969  17.718
  662MPD2    C4 9850   0.128   2.053  17.602
  662MPD2    C5 9851   0.163   2.000  17.478
  662MPD2     H 9852   0.145   1.765  17.784
  662MPD2    H1 9853   0.115   2.160  17.611
  662MPD2    H2 9854   0.190   1.833  17.358
  662MPD2    H3 9855   0.170   2.067  17.393
  662MPD2     N 9856   0.050   2.018  17.831
  662MPD2    H5 9857   4.803   2.104  17.816
  662MPD2    N1 9858   0.159   1.638  17.559
  662MPD2    H7 9859   0.126   1.590  17.642
  663TMC3    C1 9860   0.119   1.440  17.454
  663TMC3    C2 9861   0.015   1.432  17.543
  663TMC3    C3 9862   4.770   1.307  17.566
  663TMC3    C4 9863   0.167   1.345  17.377
  663TMC3    C5 9864   0.116   1.214  17.407
  663TMC3    C6 9865   0.019   1.197  17.503
  663TMC3     C 9866   0.183   1.565  17.444
  663TMC3     O 9867   0.224   1.603  17.334
  663TMC3     H 9868   4.777   1.508  17.608
  663TMC3    H1 9869   0.237   1.359  17.295
  663TMC3    H2 9870   4.779   1.099  17.514
  663TMC3    C7 9871   0.149   1.108  17.305
  663TMC3    C8 9872   4.650   1.281  17.645
  663TMC3    O1 9873   0.213   1.134  17.203
  663TMC3    O2 9874   4.589   1.177  17.617
  664MPD2     C 9875   2.656   4.348  17.537
  664MPD2    C1 9876   2.718   4.452  17.604
  664MPD2    C2 9877   2.697   4.471  17.739
  664MPD2    C3 9878   2.605   4.391  17.814
  664MPD2    C4 9879   2.555   4.280  17.749
  664MPD2    C5 9880   2.573   4.267  17.612
  664MPD2     H 9881   2.760   4.541  17.793
  664MPD2    H1 9882   2.485   4.208  17.791
  664MPD2    H2 9883   2.677   4.330  17.432
  664MPD2    H3 9884   2.531   4.175  17.571
  664MPD2     N 9885   2.605   4.405  17.952
  664MPD2    H5 9886   2.636   4.495  17.988
  664MPD2    N1 9887   2.801   4.542  17.536
  664MPD2    H7 9888   2.836   4.623  17.585
  665TMC3    C1 9889   2.593   4.348  18.177
  665TMC3    C2 9890   2.542   4.265  18.277
  665TMC3    C3 9891   2.610   4.267  18.395
  665TMC3    C4 9892   2.707   4.425  18.202
  665TMC3    C5 9893   2.757   4.431  18.329
  665TMC3    C6 9894   2.711   4.348  18.424
  665TMC3     C 9895   2.568   4.304  18.041
  665TMC3     O 9896   2.513   4.196  18.019
  665TMC3     H 9897   2.450   4.209  18.267
  665TMC3    H1 9898   2.757   4.479  18.123
  665TMC3    H2 9899   2.756   4.343  18.522
  665TMC3    C7 9900   2.787   4.569  18.365
  665TMC3    C8 9901   2.523   4.255  18.512
  665TMC3    O1 9902   2.819   4.652  18.278
  665TMC3    O2 9903   2.557   4.322  18.611
  666TMC3    C1 9904   1.652   0.037  10.411
  666TMC3    C2 9905   1.635   4.799  10.286
  666TMC3    C3 9906   1.662   0.067  10.182
  666TMC3    C4 9907   1.700   0.162  10.433
  666TMC3    C5 9908   1.722   0.240  10.328
  666TMC3    C6 9909   1.703   0.199  10.197
  666TMC3     C 9910   1.680   4.742  10.512
  666TMC3     O 9911   1.714   4.787  10.617
  666TMC3     H 9912   1.603   4.699  10.261
  666TMC3    H1 9913   1.719   0.199  10.533
  666TMC3    H2 9914   1.722   0.268  10.116
  666TMC3    C7 9915   1.807   0.349  10.358
  666TMC3    C8 9916   1.655   0.006  10.049
  666TMC3    O1 9917   1.808   0.390  10.475
  666TMC3    O2 9918   1.549   4.753  10.025
  667MPD2     C 9919   3.577   4.422  14.982
  667MPD2    C1 9920   3.499   4.499  15.067
  667MPD2    C2 9921   3.373   4.450  15.083
  667MPD2    C3 9922   3.327   4.334  15.028
  667MPD2    C4 9923   3.407   4.264  14.939
  667MPD2    C5 9924   3.530   4.311  14.915
  667MPD2     H 9925   3.309   4.516  15.142
  667MPD2    H1 9926   3.365   4.174  14.894
  667MPD2    H2 9927   3.678   4.456  14.963
  667MPD2    H3 9928   3.582   4.269  14.829
  667MPD2     N 9929   3.197   4.292  15.050
  667MPD2    H5 9930   3.164   4.213  14.994
  667MPD2    N1 9931   3.535   4.630  15.115
  667MPD2    H7 9932   3.469   4.670  15.181
  668TMC3    C1 9933   3.673   4.791  15.199
  668TMC3    C2 9934   3.784   0.069  15.165
  668TMC3    C3 9935   3.885   0.084  15.262
  668TMC3    C4 9936   3.672   4.734  15.322
  668TMC3    C5 9937   3.779   4.739  15.402
  668TMC3    C6 9938   3.878   0.019  15.385
  668TMC3     C 9939   3.647   4.711  15.086
  668TMC3     O 9940   3.741   4.678  15.014
  668TMC3     H 9941   3.778   0.126  15.073
  668TMC3    H1 9942   3.600   4.655  15.341
  668TMC3    H2 9943   3.962   0.028  15.453
  668TMC3    C7 9944   3.764   4.695  15.544
  668TMC3    C8 9945   3.955   0.209  15.258
  668TMC3    O1 9946   3.871   4.646  15.592
  668TMC3    O2 9947   4.011   0.235  15.365
  669TMC3    C1 9948   1.653   4.552  14.936
  669TMC3    C2 9949   1.553   4.539  14.846
  669TMC3    C3 9950   1.573   4.593  14.724
  669TMC3    C4 9951   1.766   4.631  14.910
  669TMC3    C5 9952   1.789   4.666  14.780
  669TMC3    C6 9953   1.678   4.671  14.692
  669TMC3     C 9954   1.639   4.480  15.058
  669TMC3     O 9955   1.523   4.453  15.090
  669TMC3     H 9956   1.456   4.498  14.870
  669TMC3    H1 9957   1.844   4.642  14.985
  669TMC3    H2 9958   1.704   4.690  14.589
  669TMC3    C7 9959   1.889   4.768  14.751
  669TMC3    C8 9960   1.466   4.605  14.645
  669TMC3    O1 9961   1.917   0.040  14.840
  669TMC3    O2 9962   1.376   4.522  14.642
  670MPD2     C 9963   0.320   2.352  13.591
  670MPD2    C1 9964   0.381   2.323  13.708
  670MPD2    C2 9965   0.303   2.302  13.826
  670MPD2    C3 9966   0.165   2.298  13.811
  670MPD2    C4 9967   0.111   2.328  13.683
  670MPD2    C5 9968   0.186   2.360  13.578
  670MPD2     H 9969   0.350   2.275  13.920
  670MPD2    H1 9970   0.004   2.315  13.668
  670MPD2    H2 9971   0.384   2.375  13.506
  670MPD2    H3 9972   0.150   2.397  13.482
  670MPD2     N 9973   0.082   2.279  13.929
  670MPD2    H5 9974   0.137   2.252  14.011
  670MPD2    N1 9975   0.522   2.325  13.729
  670MPD2    H7 9976   0.547   2.303  13.825
  671TMC3    C1 9977   4.708   2.282  14.077
  671TMC3    C2 9978   4.801   2.258  14.179
  671TMC3    C3 9979   4.750   2.178  14.280
  671TMC3    C4 9980   4.580   2.238  14.074
  671TMC3    C5 9981   4.547   2.153  14.176
  671TMC3    C6 9982   4.624   2.124  14.280
  671TMC3     C 9983   4.755   2.306  13.938
  671TMC3     O 9984   4.679   2.356  13.853
  671TMC3     H 9985   0.103   2.278  14.174
  671TMC3    H1 9986   4.525   2.247  13.981
  671TMC3    H2 9987   4.603   2.049  14.356
  671TMC3    C7 9988   4.483   2.040  14.120
  671TMC3    C8 9989   0.046   2.095  14.346
  671TMC3    O1 9990   4.500   2.014  14.000
  671TMC3    O2 9991   0.137   2.060  14.275
  672MPD2     C 9992   0.533   3.324  19.402
  672MPD2    C1 9993   0.605   3.294  19.289
  672MPD2    C2 9994   0.733   3.332  19.270
  672MPD2    C3 9995   0.799   3.407  19.365
  672MPD2    C4 9996   0.728   3.441  19.478
  672MPD2    C5 9997   0.594   3.409  19.495
  672MPD2     H 9998   0.780   3.299  19.178
  672MPD2    H1 9999   0.778   3.495  19.557
  672MPD2    H210000   0.430   3.291  19.409
  672MPD2    H310001   0.527   3.444  19.573
  672MPD2     N10002   0.944   3.440  19.372
  672MPD2    H510003   0.978   3.511  19.436
  672MPD2    N110004   0.569   3.203  19.193
  672MPD2    H710005   0.643   3.166  19.134
  673TMC3    C110006   0.452   3.034  19.091
  673TMC3    C210007   0.571   2.971  19.088
  673TMC3    C310008   0.594   2.876  18.988
  673TMC3    C410009   0.359   3.040  18.989
  673TMC3    C510010   0.381   2.940  18.898
  673TMC3    C610011   0.494   2.858  18.897
  673TMC3     C10012   0.446   3.148  19.183
  673TMC3     O10013   0.331   3.177  19.219
  673TMC3     H10014   0.626   2.961  19.181
  673TMC3    H110015   0.260   3.082  19.000
  673TMC3    H210016   0.488   2.772  18.832
  673TMC3    C710017   0.260   2.885  18.847
  673TMC3    C810018   0.694   2.771  18.995
  673TMC3    O110019   0.229   2.765  18.876
  673TMC3    O210020   0.660   2.670  18.936
  674MPD2     C10021   0.333   2.116  18.148
  674MPD2    C110022   0.252   2.107  18.259
  674MPD2    C210023   0.191   2.219  18.308
  674MPD2    C310024   0.209   2.334  18.241
  674MPD2    C410025   0.291   2.342  18.127
  674MPD2    C510026   0.353   2.231  18.084
  674MPD2     H10027   0.123   2.215  18.392
  674MPD2    H110028   0.300   2.440  18.083
  674MPD2    H210029   0.378   2.027  18.106
  674MPD2    H310030   0.420   2.239  17.999
  674MPD2     N10031   0.159   2.449  18.309
  674MPD2    H510032   0.111   2.433  18.397
  674MPD2    N110033   0.226   1.981  18.310
  674MPD2    H710034   0.245   1.910  18.240
  675TMC3    C110035   0.193   2.035  18.555
  675TMC3    C210036   0.122   2.001  18.668
  675TMC3    C310037   0.139   2.079  18.779
  675TMC3    C410038   0.291   2.132  18.562
  675TMC3    C510039   0.316   2.190  18.683
  675TMC3    C610040   0.235   2.176  18.789
  675TMC3     C10041   0.162   1.948  18.432
  675TMC3     O10042   0.104   1.840  18.460
  675TMC3     H10043   0.041   1.930  18.661
  675TMC3    H110044   0.364   2.133  18.482
  675TMC3    H210045   0.262   2.223  18.882
  675TMC3    C710046   0.390   2.317  18.674
  675TMC3    C810047   0.060   2.039  18.888
  675TMC3    O110048   0.410   2.372  18.780
  675TMC3    O210049   0.022   1.920  18.885
  676MPD2     C10050   3.455   0.856  11.531
  676MPD2    C110051   3.318   0.833  11.524
  676MPD2    C210052   3.270   0.734  11.447
  676MPD2    C310053   3.352   0.657  11.367
  676MPD2    C410054   3.490   0.674  11.382
  676MPD2    C510055   3.541   0.781  11.453
  676MPD2     H10056   3.162   0.728  11.435
  676MPD2    H110057   3.558   0.610  11.326
  676MPD2    H210058   3.499   0.935  11.592
  676MPD2    H310059   3.649   0.795  11.458
  676MPD2     N10060   3.306   0.553  11.281
  676MPD2    H510061   3.383   0.504  11.237
  676MPD2    N110062   3.221   0.910  11.586
  676MPD2    H710063   3.129   0.869  11.577
  677TMC3    C110064   3.128   1.089  11.714
  677TMC3    C210065   3.009   1.012  11.717
  677TMC3    C310066   2.899   1.070  11.775
  677TMC3    C410067   3.141   1.207  11.775
  677TMC3    C510068   3.027   1.260  11.832
  677TMC3    C610069   2.902   1.198  11.826
  677TMC3     C10070   3.240   1.037  11.639
  677TMC3     O10071   3.339   1.103  11.617
  677TMC3     H10072   2.985   0.918  11.669
  677TMC3    H110073   3.237   1.256  11.778
  677TMC3    H210074   2.821   1.259  11.864
  677TMC3    C710075   3.034   1.383  11.906
  677TMC3    C810076   2.822   0.968  11.854
  677TMC3    O110077   2.940   1.403  11.982
  677TMC3    O210078   2.858   0.852  11.856
  678MPD2     C10079   4.336   0.646  19.175
  678MPD2    C110080   4.351   0.754  19.095
  678MPD2    C210081   4.249   0.777  19.007
  678MPD2    C310082   4.132   0.702  18.998
  678MPD2    C410083   4.122   0.591  19.078
  678MPD2    C510084   4.229   0.564  19.161
  678MPD2     H10085   4.260   0.869  18.950
  678MPD2    H110086   4.037   0.524  19.076
  678MPD2    H210087   4.413   0.607  19.241
  678MPD2    H310088   4.215   0.472  19.217
  678MPD2     N10089   4.041   0.731  18.890
  678MPD2    H510090   4.076   0.795  18.820
  678MPD2    N110091   4.464   0.843  19.091
  678MPD2    H710092   4.462   0.927  19.036
  679TMC3    C110093   0.094   0.987  19.236
  679TMC3    C210094   4.794   0.902  19.239
  679TMC3    C310095   4.679   0.922  19.165
  679TMC3    C410096   0.102   1.049  19.116
  679TMC3    C510097   4.800   1.066  19.036
  679TMC3    C610098   4.682   1.007  19.062
  679TMC3     C10099   0.210   0.922  19.276
  679TMC3     O10100   0.231   0.829  19.199
  679TMC3     H10101   4.804   0.827  19.317
  679TMC3    H110102   0.190   1.104  19.084
  679TMC3    H210103   4.602   1.017  18.990
  679TMC3    C710104   4.797   1.185  18.944
  679TMC3    C810105   4.575   0.827  19.177
  679TMC3    O110106   4.685   1.230  18.922
  679TMC3    O210107   4.598   0.737  19.258
  680MPD2     C10108   4.115   4.087  13.520
  680MPD2    C110109   4.249   4.095  13.553
  680MPD2    C210110   4.296   4.213  13.612
  680MPD2    C310111   4.205   4.307  13.658
  680MPD2    C410112   4.069   4.298  13.621
  680MPD2    C510113   4.023   4.186  13.558
  680MPD2     H10114   4.403   4.214  13.631
  680MPD2    H110115   3.991   4.366  13.654
  680MPD2    H210116   4.074   4.004  13.464
  680MPD2    H310117   3.919   4.172  13.533
  680MPD2     N10118   4.244   4.420  13.735
  680MPD2    H510119   4.171   4.483  13.764
  680MPD2    N110120   4.347   4.003  13.511
  680MPD2    H710121   4.445   4.022  13.531
  681TMC3    C110122   4.439   3.797  13.444
  681TMC3    C210123   4.424   3.678  13.504
  681TMC3    C310124   4.506   3.647  13.608
  681TMC3    C410125   4.555   3.872  13.457
  681TMC3    C510126   4.645   3.831  13.560
  681TMC3    C610127   4.622   3.714  13.633
  681TMC3     C10128   4.318   3.877  13.454
  681TMC3     O10129   4.214   3.812  13.463
  681TMC3     H10130   4.324   3.637  13.515
  681TMC3    H110131   4.560   3.961  13.395
  681TMC3    H210132   4.690   3.679  13.709
  681TMC3    C710133   4.787   3.863  13.547
  681TMC3    C810134   4.428   3.617  13.725
  681TMC3    O110135   0.053   3.792  13.616
  681TMC3    O210136   4.340   3.535  13.712
  682MPD2     C10137   2.164   1.507  10.938
  682MPD2    C110138   2.096   1.391  10.963
  682MPD2    C210139   2.027   1.375  11.078
  682MPD2    C310140   2.049   1.458  11.186
  682MPD2    C410141   2.127   1.568  11.164
  682MPD2    C510142   2.189   1.591  11.043
  682MPD2     H10143   1.953   1.296  11.076
  682MPD2    H110144   2.160   1.629  11.247
  682MPD2    H210145   2.187   1.539  10.837
  682MPD2    H310146   2.243   1.684  11.033
  682MPD2     N10147   1.984   1.439  11.309
  682MPD2    H510148   1.974   1.513  11.379
  682MPD2    N110149   2.067   1.291  10.866
  682MPD2    H710150   2.000   1.218  10.885
  683TMC3    C110151   1.764   1.487  11.633
  683TMC3    C210152   1.633   1.440  11.617
  683TMC3    C310153   1.600   1.353  11.516
  683TMC3    C410154   1.857   1.448  11.539
  683TMC3    C510155   1.822   1.358  11.443
  683TMC3    C610156   1.692   1.308  11.429
  683TMC3     C10157   1.813   1.466  11.769
  683TMC3     O10158   1.908   1.528  11.817
  683TMC3     H10159   1.558   1.467  11.690
  683TMC3    H110160   1.956   1.482  11.566
  683TMC3    H210161   1.656   1.253  11.343
  683TMC3    C710162   1.914   1.331  11.343
  683TMC3    C810163   1.491   1.263  11.555
  683TMC3    O110164   1.883   1.226  11.283
  683TMC3    O210165   1.400   1.316  11.616
  684MPD2     C10166   4.782   4.804  16.546
  684MPD2    C110167   4.741   0.060  16.428
  684MPD2    C210168   4.730   0.199  16.421
  684MPD2    C310169   4.768   0.282  16.531
  684MPD2    C410170   0.004   0.218  16.648
  684MPD2    C510171   0.012   0.077  16.655
  684MPD2     H10172   4.716   0.248  16.325
  684MPD2    H110173   0.042   0.274  16.733
  684MPD2    H210174   4.794   4.697  16.561
  684MPD2    H310175   0.048   0.030  16.746
  684MPD2     N10176   4.784   0.421  16.523
  684MPD2    H510177   0.021   0.470  16.601
  684MPD2    N110178   4.740   4.789  16.304
  684MPD2    H710179   4.717   0.037  16.220
  685TMC3    C110180   4.748   4.606  16.151
  685TMC3    C210181   4.687   4.693  16.062
  685TMC3    C310182   4.700   4.655  15.931
  685TMC3    C410183   0.002   4.492  16.118
  685TMC3    C510184   0.027   4.469  15.986
  685TMC3    C610185   4.785   4.552  15.887
  685TMC3     C10186   4.774   4.656  16.285
  685TMC3     O10187   4.805   4.570  16.364
  685TMC3     H10188   4.622   4.776  16.086
  685TMC3    H110189   0.065   4.445  16.193
  685TMC3    H210190   4.795   4.527  15.782
  685TMC3    C710191   0.142   4.391  15.944
  685TMC3    C810192   4.607   4.702  15.834
  685TMC3    O110193   0.176   4.306  16.024
  685TMC3    O210194   4.618   4.670  15.714
  686MPD2     C10195   1.327   0.331  15.460
  686MPD2    C110196   1.385   0.222  15.528
  686MPD2    C210197   1.485   0.155  15.462
  686MPD2    C310198   1.503   0.173  15.323
  686MPD2    C410199   1.442   0.276  15.258
  686MPD2    C510200   1.365   0.363  15.335
  686MPD2     H10201   1.537   0.082  15.522
  686MPD2    H110202   1.446   0.288  15.150
  686MPD2    H210203   1.251   0.391  15.508
  686MPD2    H310204   1.327   0.451  15.284
  686MPD2     N10205   1.578   0.088  15.239
  686MPD2    H510206   1.595   0.107  15.141
  686MPD2    N110207   1.321   0.187  15.647
  686MPD2    H710208   1.245   0.241  15.686
  687TMC3    C110209   1.576   4.684  15.373
  687TMC3    C210210   1.439   4.674  15.370
  687TMC3    C310211   1.381   4.608  15.479
  687TMC3    C410212   1.655   4.614  15.464
  687TMC3    C510213   1.587   4.559  15.571
  687TMC3    C610214   1.450   4.557  15.580
  687TMC3     C10215   1.652   4.786  15.294
  687TMC3     O10216   1.754   4.741  15.249
  687TMC3     H10217   1.384   4.724  15.292
  687TMC3    H110218   1.760   4.640  15.469
  687TMC3    H210219   1.399   4.515  15.666
  687TMC3    C710220   1.663   4.529  15.690
  687TMC3    C810221   1.241   4.585  15.496
  687TMC3    O110222   1.627   4.565  15.798
  687TMC3    O210223   1.198   4.508  15.581
  688MPD2     C10224   0.566   4.063  17.619
  688MPD2    C110225   0.568   3.928  17.623
  688MPD2    C210226   0.666   3.863  17.541
  688MPD2    C310227   0.750   3.934  17.460
  688MPD2    C410228   0.739   4.072  17.454
  688MPD2    C510229   0.650   4.134  17.539
  688MPD2     H10230   0.682   3.757  17.553
  688MPD2    H110231   0.800   4.138  17.393
  688MPD2    H210232   0.496   4.116  17.683
  688MPD2    H310233   0.634   4.241  17.536
  688MPD2     N10234   0.834   3.870  17.356
  688MPD2    H510235   0.907   3.931  17.321
  688MPD2    N110236   0.486   3.849  17.705
  688MPD2    H710237   0.511   3.751  17.702
  689TMC3    C110238   0.322   3.820  17.884
  689TMC3    C210239   0.259   3.888  17.983
  689TMC3    C310240   0.207   3.811  18.084
  689TMC3    C410241   0.313   3.689  17.863
  689TMC3    C510242   0.258   3.619  17.969
  689TMC3    C610243   0.223   3.680  18.083
  689TMC3     C10244   0.378   3.903  17.772
  689TMC3     O10245   0.331   4.018  17.775
  689TMC3     H10246   0.283   3.993  17.994
  689TMC3    H110247   0.366   3.633  17.787
  689TMC3    H210248   0.177   3.621  18.162
  689TMC3    C710249   0.283   3.474  17.985
  689TMC3    C810250   0.184   3.873  18.210
  689TMC3    O110251   0.319   3.442  18.098
  689TMC3    O210252   0.175   3.807  18.312
  690MPD2     C10253   3.005   1.035  16.072
  690MPD2    C110254   2.972   0.937  15.975
  690MPD2    C210255   3.059   0.908  15.873
  690MPD2    C310256   3.181   0.969  15.864
  690MPD2    C410257   3.216   1.061  15.959
  690MPD2    C510258   3.132   1.095  16.060
  690MPD2     H10259   3.036   0.833  15.798
  690MPD2    H110260   3.303   1.124  15.948
  690MPD2    H210261   2.944   1.048  16.160
  690MPD2    H310262   3.167   1.174  16.126
  690MPD2     N10263   3.265   0.942  15.752
  690MPD2    H510264   3.221   0.901  15.671
  690MPD2    N110265   2.858   0.856  15.981
  690MPD2    H710266   2.857   0.779  15.916
  691TMC3    C110267   2.663   0.752  16.053
  691TMC3    C210268   2.533   0.780  16.064
  691TMC3    C310269   2.449   0.667  16.070
  691TMC3    C410270   2.724   0.636  16.045
  691TMC3    C510271   2.642   0.527  16.049
  691TMC3    C610272   2.507   0.541  16.059
  691TMC3     C10273   2.755   0.862  16.068
  691TMC3     O10274   2.706   0.959  16.122
  691TMC3     H10275   2.496   0.881  16.061
  691TMC3    H110276   2.831   0.626  16.028
  691TMC3    H210277   2.440   0.455  16.054
  691TMC3    C710278   2.702   0.402  16.040
  691TMC3    C810279   2.309   0.675  16.067
  691TMC3    O110280   2.823   0.403  16.066
  691TMC3    O210281   2.251   0.569  16.038
  692TMC3    C110282   4.661   1.794  15.971
  692TMC3    C210283   4.778   1.800  16.035
  692TMC3    C310284   0.051   1.688  16.048
  692TMC3    C410285   4.610   1.687  15.909
  692TMC3    C510286   4.689   1.574  15.924
  692TMC3    C610287   4.800   1.570  15.999
  692TMC3     C10288   4.557   1.883  16.019
  692TMC3     O10289   4.444   1.838  16.023
  692TMC3     H10290   0.004   1.894  16.080
  692TMC3    H110291   4.532   1.690  15.834
  692TMC3    H210292   0.060   1.484  15.997
  692TMC3    C710293   4.640   1.446  15.863
  692TMC3    C810294   0.150   1.667  16.158
  692TMC3    O110295   4.566   1.461  15.765
  692TMC3    O210296   0.154   1.556  16.212
  693MPD2     C10297   4.145   4.761  10.838
  693MPD2    C110298   4.052   4.663  10.859
  693MPD2    C210299   4.093   4.532  10.889
  693MPD2    C310300   4.231   4.505  10.897
  693MPD2    C410301   4.322   4.599  10.853
  693MPD2    C510302   4.282   4.728  10.831
  693MPD2     H10303   4.031   4.444  10.877
  693MPD2    H110304   4.428   4.594  10.873
  693MPD2    H210305   4.111   0.059  10.829
  693MPD2    H310306   4.357   4.803  10.808
  693MPD2     N10307   4.276   4.375  10.939
  693MPD2    H510308   4.373   4.348  10.923
  693MPD2    N110309   3.920   4.693  10.849
  693MPD2    H710310   3.890   4.789  10.837
  694TMC3    C110311   3.690   4.645  10.882
  694TMC3    C210312   3.592   4.577  10.825
  694TMC3    C310313   3.483   4.537  10.906
  694TMC3    C410314   3.689   4.679  11.017
  694TMC3    C510315   3.594   4.622  11.098
  694TMC3    C610316   3.490   4.555  11.043
  694TMC3     C10317   3.821   4.597  10.842
  694TMC3     O10318   3.826   4.491  10.785
  694TMC3     H10319   3.593   4.571  10.716
  694TMC3    H110320   3.770   4.740  11.056
  694TMC3    H210321   3.405   4.513  11.097
  694TMC3    C710322   3.605   4.629  11.237
  694TMC3    C810323   3.366   4.479  10.847
  694TMC3    O110324   3.691   4.703  11.282
  694TMC3    O210325   3.313   4.394  10.915
  695MPD2     C10326   0.443   1.669  13.745
  695MPD2    C110327   0.369   1.644  13.858
  695MPD2    C210328   0.240   1.651  13.841
  695MPD2    C310329   0.175   1.675  13.720
  695MPD2    C410330   0.254   1.680  13.606
  695MPD2    C510331   0.385   1.691  13.621
  695MPD2     H10332   0.177   1.656  13.929
  695MPD2    H110333   0.207   1.687  13.509
  695MPD2    H210334   0.551   1.660  13.745
  695MPD2    H310335   0.444   1.705  13.531
  695MPD2     N10336   0.037   1.695  13.714
  695MPD2    H510337   4.796   1.693  13.805
  695MPD2    N110338   0.422   1.629  13.987
  695MPD2    H710339   0.358   1.616  14.064
  696TMC3    C110340   4.628   1.768  13.660
  696TMC3    C210341   4.568   1.686  13.744
  696TMC3    C310342   4.445   1.719  13.792
  696TMC3    C410343   4.571   1.888  13.620
  696TMC3    C510344   4.450   1.919  13.671
  696TMC3    C610345   4.382   1.834  13.752
  696TMC3     C10346   4.762   1.749  13.613
  696TMC3     O10347   4.787   1.798  13.501
  696TMC3     H10348   4.618   1.600  13.786
  696TMC3    H110349   4.619   1.958  13.553
  696TMC3    H210350   4.283   1.859  13.790
  696TMC3    C710351   4.389   2.044  13.629
  696TMC3    C810352   4.369   1.602  13.823
  696TMC3    O110353   4.411   2.088  13.518
  696TMC3    O210354   4.399   1.508  13.751
  697MPD2     C10355   4.336   3.383  15.877
  697MPD2    C110356   4.348   3.316  15.762
  697MPD2    C210357   4.377   3.387  15.646
  697MPD2    C310358   4.380   3.526  15.640
  697MPD2    C410359   4.353   3.589  15.756
  697MPD2    C510360   4.331   3.523  15.874
  697MPD2     H10361   4.392   3.335  15.552
  697MPD2    H110362   4.335   3.694  15.771
  697MPD2    H210363   4.325   3.335  15.974
  697MPD2    H310364   4.323   3.577  15.968
  697MPD2     N10365   4.391   3.596  15.519
  697MPD2    H510366   4.393   3.540  15.434
  697MPD2    N110367   4.337   3.174  15.759
  697MPD2    H710368   4.357   3.130  15.670
  698TMC3    C110369   4.427   3.788  15.379
  698TMC3    C210370   4.458   3.921  15.391
  698TMC3    C310371   4.548   3.990  15.307
  698TMC3    C410372   4.496   3.715  15.289
  698TMC3    C510373   4.571   3.787  15.200
  698TMC3    C610374   4.605   3.918  15.205
  698TMC3     C10375   4.413   3.732  15.516
  698TMC3     O10376   4.411   3.821  15.603
  698TMC3     H10377   4.398   3.978  15.461
  698TMC3    H110378   4.479   3.612  15.259
  698TMC3    H210379   4.668   3.964  15.130
  698TMC3    C710380   4.549   3.739  15.063
  698TMC3    C810381   4.500   4.117  15.261
  698TMC3    O110382   4.434   3.697  15.041
  698TMC3    O210383   4.387   4.149  15.291
  699TMC3    C110384   4.533   1.780  13.311
  699TMC3    C210385   4.585   1.655  13.312
  699TMC3    C310386   4.498   1.554  13.351
  699TMC3    C410387   4.400   1.810  13.332
  699TMC3    C510388   4.314   1.699  13.364
  699TMC3    C610389   4.362   1.572  13.368
  699TMC3     C10390   4.592   1.886  13.231
  699TMC3     O10391   4.522   1.988  13.209
  699TMC3     H10392   4.692   1.639  13.311
  699TMC3    H110393   4.369   1.913  13.339
  699TMC3    H210394   4.299   1.495  13.411
  699TMC3    C710395   4.172   1.727  13.391
  699TMC3    C810396   4.552   1.448  13.437
  699TMC3    O110397   4.142   1.844  13.406
  699TMC3    O210398   4.470   1.360  13.465
  700TMC3    C110399   3.304   3.888  17.153
  700TMC3    C210400   3.349   3.759  17.142
  700TMC3    C310401   3.393   3.701  17.259
  700TMC3    C410402   3.278   3.944  17.269
  700TMC3    C510403   3.311   3.884  17.388
  700TMC3    C610404   3.373   3.762  17.383
  700TMC3     C10405   3.321   3.959  17.031
  700TMC3     O10406   3.300   3.901  16.926
  700TMC3     H10407   3.364   3.718  17.043
  700TMC3    H110408   3.249   4.049  17.272
  700TMC3    H210409   3.410   3.723  17.477
  700TMC3    C710410   3.335   3.975  17.498
  700TMC3    C810411   3.508   3.620  17.251
  700TMC3    O110412   3.437   3.949  17.570
  700TMC3    O210413   3.575   3.655  17.157
  701TMC3    C110414   3.826   2.473  15.769
  701TMC3    C210415   3.809   2.431  15.641
  701TMC3    C310416   3.862   2.500  15.533
  701TMC3    C410417   3.906   2.578  15.789
  701TMC3    C510418   3.959   2.652  15.686
  701TMC3    C610419   3.938   2.610  15.560
  701TMC3     C10420   3.706   2.482  15.849
  701TMC3     O10421   3.694   2.593  15.901
  701TMC3     H10422   3.743   2.349  15.616
  701TMC3    H110423   3.917   2.609  15.892
  701TMC3    H210424   3.973   2.673  15.479
  701TMC3    C710425   3.967   2.801  15.697
  701TMC3    C810426   3.825   2.473  15.392
  701TMC3    O110427   3.996   2.871  15.598
  701TMC3    O210428   3.903   2.524  15.311
  702MPD2     C10429   3.181   0.594  10.594
  702MPD2    C110430   3.095   0.613  10.696
  702MPD2    C210431   3.040   0.736  10.715
  702MPD2    C310432   3.069   0.844  10.636
  702MPD2    C410433   3.148   0.819  10.527
  702MPD2    C510434   3.197   0.698  10.508
  702MPD2     H10435   2.969   0.756  10.794
  702MPD2    H110436   3.186   0.899  10.465
  702MPD2    H210437   3.225   0.497  10.573
  702MPD2    H310438   3.256   0.676  10.420
  702MPD2     N10439   3.037   0.973  10.674
  702MPD2    H510440   3.096   1.042  10.629
  702MPD2    N110441   3.068   0.518  10.796
  702MPD2    H710442   3.002   0.544  10.869
  703TMC3    C110443   2.999   1.081  10.879
  703TMC3    C210444   2.945   1.057  11.000
  703TMC3    C310445   3.014   1.094  11.115
  703TMC3    C410446   3.124   1.136  10.874
  703TMC3    C510447   3.185   1.166  10.992
  703TMC3    C610448   3.129   1.154  11.113
  703TMC3     C10449   2.949   1.002  10.772
  703TMC3     O10450   2.842   0.953  10.794
  703TMC3     H10451   2.854   1.001  11.016
  703TMC3    H110452   3.180   1.142  10.781
  703TMC3    H210453   3.183   1.178  11.204
  703TMC3    C710454   3.326   1.194  10.982
  703TMC3    C810455   2.971   1.049  11.244
  703TMC3    O110456   3.368   1.225  10.870
  703TMC3    O210457   3.056   1.030  11.331
  704TMC3    C110458   1.370   3.390  13.202
  704TMC3    C210459   1.469   3.374  13.116
  704TMC3    C310460   1.550   3.263  13.122
  704TMC3    C410461   1.345   3.307  13.305
  704TMC3    C510462   1.415   3.188  13.304
  704TMC3    C610463   1.521   3.166  13.221
  704TMC3     C10464   1.249   3.445  13.144
  704TMC3     O10465   1.177   3.507  13.221
  704TMC3     H10466   1.486   3.453  13.044
  704TMC3    H110467   1.247   3.313  13.352
  704TMC3    H210468   1.566   3.068  13.215
  704TMC3    C710469   1.337   3.070  13.340
  704TMC3    C810470   1.553   3.215  12.990
  704TMC3    O110471   1.359   2.974  13.266
  704TMC3    O210472   1.464   3.256  12.918
  705MPD2     C10473   0.150   1.116  16.515
  705MPD2    C110474   0.203   1.225  16.580
  705MPD2    C210475   0.115   1.311  16.652
  705MPD2    C310476   4.788   1.270  16.669
  705MPD2    C410477   4.738   1.174  16.585
  705MPD2    C510478   0.017   1.093  16.515
  705MPD2     H10479   0.158   1.395  16.705
  705MPD2    H110480   4.633   1.148  16.579
  705MPD2    H210481   0.204   1.042  16.458
  705MPD2    H310482   4.778   1.021  16.446
  705MPD2     N10483   4.686   1.349  16.735
  705MPD2    H510484   4.589   1.322  16.720
  705MPD2    N110485   0.334   1.266  16.563
  705MPD2    H710486   0.376   1.332  16.628
  706TMC3    C110487   0.632   1.271  16.231
  706TMC3    C210488   0.612   1.406  16.201
  706TMC3    C310489   0.559   1.478  16.308
  706TMC3    C410490   0.609   1.215  16.355
  706TMC3    C510491   0.538   1.284  16.445
  706TMC3    C610492   0.513   1.417  16.423
  706TMC3     C10493   0.714   1.191  16.136
  706TMC3     O10494   0.770   1.087  16.180
  706TMC3     H10495   0.631   1.452  16.105
  706TMC3    H110496   0.627   1.108  16.367
  706TMC3    H210497   0.463   1.482  16.494
  706TMC3    C710498   0.418   1.214  16.467
  706TMC3    C810499   0.538   1.616  16.291
  706TMC3    O110500   0.401   1.140  16.376
  706TMC3    O210501   0.528   1.662  16.177
  707TMC3    C110502   2.021   0.770  18.560
  707TMC3    C210503   1.960   0.775  18.682
  707TMC3    C310504   1.849   0.690  18.704
  707TMC3    C410505   1.966   0.688  18.455
  707TMC3    C510506   1.857   0.605  18.492
  707TMC3    C610507   1.798   0.610  18.610
  707TMC3     C10508   2.170   0.762  18.564
  707TMC3     O10509   2.216   0.750  18.679
  707TMC3     H10510   2.007   0.825  18.766
  707TMC3    H110511   2.013   0.686  18.358
  707TMC3    H210512   1.721   0.541  18.643
  707TMC3    C710513   1.818   0.501  18.403
  707TMC3    C810514   1.829   0.663  18.849
  707TMC3    O110515   1.711   0.448  18.422
  707TMC3    O210516   1.841   0.753  18.926
  708MPD2     C10517   3.389   4.729  14.252
  708MPD2    C110518   3.291   4.744  14.345
  708MPD2    C210519   3.243   4.630  14.413
  708MPD2    C310520   3.301   4.507  14.392
  708MPD2    C410521   3.403   4.500  14.302
  708MPD2    C510522   3.450   4.608  14.235
  708MPD2     H10523   3.152   4.643  14.471
  708MPD2    H110524   3.467   4.413  14.295
  708MPD2    H210525   3.421   0.012  14.196
  708MPD2    H310526   3.534   4.598  14.167
  708MPD2     N10527   3.269   4.387  14.458
  708MPD2    H510528   3.302   4.303  14.412
  708MPD2    N110529   3.245   0.070  14.365
  708MPD2    H710530   3.299   0.139  14.313
  709TMC3    C110531   3.064   0.219  14.382
  709TMC3    C210532   3.024   0.202  14.252
  709TMC3    C310533   2.886   0.210  14.225
  709TMC3    C410534   2.977   0.264  14.471
  709TMC3    C510535   2.839   0.271  14.448
  709TMC3    C610536   2.796   0.246  14.320
  709TMC3     C10537   3.136   0.103  14.436
  709TMC3     O10538   3.061   0.038  14.504
  709TMC3     H10539   3.104   0.175  14.184
  709TMC3    H110540   3.018   0.263  14.572
  709TMC3    H210541   2.689   0.254  14.306
  709TMC3    C710542   2.751   0.275  14.565
  709TMC3    C810543   2.846   0.173  14.085
  709TMC3    O110544   2.806   0.301  14.672
  709TMC3    O210545   2.729   0.167  14.055
  710TMC3    C110546   4.376   1.716  18.499
  710TMC3    C210547   4.400   1.707  18.369
  710TMC3    C310548   4.528   1.688  18.324
  710TMC3    C410549   4.476   1.715  18.592
  710TMC3    C510550   4.600   1.700  18.544
  710TMC3    C610551   4.632   1.691  18.409
  710TMC3     C10552   4.247   1.660  18.546
  710TMC3     O10553   4.182   1.603  18.457
  710TMC3     H10554   4.312   1.702  18.306
  710TMC3    H110555   4.454   1.710  18.698
  710TMC3    H210556   4.735   1.693  18.374
  710TMC3    C710557   4.680   1.620  18.639
  710TMC3    C810558   4.545   1.630  18.190
  710TMC3    O110559   4.632   1.586  18.745
  710TMC3    O210560   4.664   1.630  18.154
  711TMC3    C110561   4.241   2.376  15.148
  711TMC3    C210562   4.217   2.421  15.277
  711TMC3    C310563   4.324   2.448  15.359
  711TMC3    C410564   4.367   2.358  15.101
  711TMC3    C510565   4.466   2.380  15.191
  711TMC3    C610566   4.451   2.443  15.313
  711TMC3     C10567   4.154   2.271  15.100
  711TMC3     O10568   4.188   2.203  15.005
  711TMC3     H10569   4.116   2.438  15.311
  711TMC3    H110570   4.394   2.308  15.009
  711TMC3    H210571   4.534   2.457  15.380
  711TMC3    C710572   4.530   2.246  15.223
  711TMC3    C810573   4.306   2.377  15.479
  711TMC3    O110574   4.617   2.242  15.307
  711TMC3    O210575   4.210   2.296  15.493
  712MPD2     C10576   0.441   3.403  13.708
  712MPD2    C110577   0.562   3.409  13.772
  712MPD2    C210578   0.655   3.500  13.737
  712MPD2    C310579   0.636   3.592  13.634
  712MPD2    C410580   0.515   3.592  13.572
  712MPD2    C510581   0.424   3.492  13.600
  712MPD2     H10582   0.748   3.491  13.793
  712MPD2    H110583   0.493   3.661  13.491
  712MPD2    H210584   0.364   3.327  13.719
  712MPD2    H310585   0.332   3.484  13.544
  712MPD2     N10586   0.732   3.691  13.607
  712MPD2    H510587   0.709   3.758  13.534
  712MPD2    N110588   0.599   3.300  13.863
  712MPD2    H710589   0.698   3.281  13.874
  713TMC3    C110590   0.907   3.847  13.650
  713TMC3    C210591   1.036   3.846  13.672
  713TMC3    C310592   1.102   3.953  13.628
  713TMC3    C410593   0.834   3.948  13.594
  713TMC3    C510594   0.904   4.059  13.549
  713TMC3    C610595   1.038   4.063  13.570
  713TMC3     C10596   0.838   3.725  13.688
  713TMC3     O10597   0.896   3.665  13.779
  713TMC3     H10598   1.088   3.755  13.702
  713TMC3    H110599   0.725   3.946  13.595
  713TMC3    H210600   1.091   4.154  13.541
  713TMC3    C710601   0.844   4.188  13.570
  713TMC3    C810602   1.228   3.979  13.691
  713TMC3    O110603   0.919   4.279  13.589
  713TMC3    O210604   1.296   4.066  13.638
  714MPD2     C10605   2.543   1.811  19.429
  714MPD2    C110606   2.644   1.903  19.402
  714MPD2    C210607   2.606   1.995  19.306
  714MPD2    C310608   2.482   2.018  19.259
  714MPD2    C410609   2.385   1.925  19.294
  714MPD2    C510610   2.419   1.820  19.372
  714MPD2     H10611   2.687   2.049  19.257
  714MPD2    H110612   2.281   1.929  19.266
  714MPD2    H210613   2.557   1.723  19.491
  714MPD2    H310614   2.342   1.746  19.386
  714MPD2     N10615   2.462   2.103  19.147
  714MPD2    H510616   2.544   2.136  19.098
  714MPD2    N110617   2.771   1.900  19.460
  714MPD2    H710618   2.799   1.818  19.513
  715TMC3    C110619   2.969   2.002  19.536
  715TMC3    C210620   3.054   1.893  19.505
  715TMC3    C310621   3.184   1.918  19.536
  715TMC3    C410622   3.009   2.124  19.581
  715TMC3    C510623   3.140   2.141  19.598
  715TMC3    C610624   3.231   2.039  19.578
  715TMC3     C10625   2.847   2.011  19.459
  715TMC3     O10626   2.813   2.128  19.445
  715TMC3     H10627   3.022   1.794  19.474
  715TMC3    H110628   2.938   2.198  19.616
  715TMC3    H210629   3.337   2.063  19.580
  715TMC3    C710630   3.195   2.260  19.649
  715TMC3    C810631   3.279   1.831  19.467
  715TMC3    O110632   3.317   2.261  19.665
  715TMC3    O210633   3.239   1.760  19.382
  716MPD2     C10634   3.038   0.612  10.157
  716MPD2    C110635   2.964   0.607  10.039
  716MPD2    C210636   2.939   0.482   9.990
  716MPD2    C310637   2.989   0.367  10.049
  716MPD2    C410638   3.072   0.373  10.164
  716MPD2    C510639   3.091   0.492  10.220
  716MPD2     H10640   2.860   0.468   9.917
  716MPD2    H110641   3.123   0.292  10.216
  716MPD2    H210642   3.068   0.707  10.198
  716MPD2    H310643   3.142   0.506  10.314
  716MPD2     N10644   2.945   0.247   9.991
  716MPD2    H510645   2.895   0.264   9.904
  716MPD2    N110646   2.917   0.725   9.970
  716MPD2    H710647   2.931   0.817  10.011
  717TMC3    C110648   2.970   0.028   9.923
  717TMC3    C210649   2.855   0.045   9.849
  717TMC3    C310650   2.827   4.754   9.753
  717TMC3    C410651   3.045   4.715   9.927
  717TMC3    C510652   3.002   4.620   9.834
  717TMC3    C610653   2.890   4.629   9.746
  717TMC3     C10654   2.993   0.122  10.031
  717TMC3     O10655   3.081   0.093  10.114
  717TMC3     H10656   2.788   0.128   9.865
  717TMC3    H110657   3.138   4.701   9.980
  717TMC3    H210658   2.844   4.549   9.689
  717TMC3    C710659   3.056   4.490   9.855
  717TMC3    C810660   2.709   4.789   9.670
  717TMC3    O110661   3.126   4.471   9.951
  717TMC3    O210662   2.657   0.093   9.695
  718MPD2     C10663   2.456   4.103  13.069
  718MPD2    C110664   2.346   4.041  13.015
  718MPD2    C210665   2.311   3.917  13.058
  718MPD2    C310666   2.391   3.853  13.153
  718MPD2    C410667   2.504   3.916  13.206
  718MPD2    C510668   2.532   4.048  13.169
  718MPD2     H10669   2.225   3.867  13.015
  718MPD2    H110670   2.570   3.870  13.278
  718MPD2    H210671   2.483   4.203  13.038
  718MPD2    H310672   2.622   4.095  13.207
  718MPD2     N10673   2.350   3.730  13.187
  718MPD2    H510674   2.283   3.696  13.118
  718MPD2    N110675   2.284   4.125  12.920
  718MPD2    H710676   2.320   4.217  12.896
  719TMC3    C110677   2.153   4.152  12.730
  719TMC3    C210678   2.125   4.039  12.647
  719TMC3    C310679   2.211   4.003  12.549
  719TMC3    C410680   2.247   4.240  12.699
  719TMC3    C510681   2.334   4.208  12.597
  719TMC3    C610682   2.312   4.092  12.523
  719TMC3     C10683   2.160   4.093  12.863
  719TMC3     O10684   2.084   4.005  12.888
  719TMC3     H10685   2.051   3.962  12.666
  719TMC3    H110686   2.243   4.334  12.753
  719TMC3    H210687   2.394   4.051  12.464
  719TMC3    C710688   2.440   4.308  12.569
  719TMC3    C810689   2.265   3.871  12.565
  719TMC3    O110690   2.490   4.285  12.456
  719TMC3    O210691   2.364   3.868  12.636
  720MPD2     C10692   0.506   0.756  14.306
  720MPD2    C110693   0.590   0.732  14.203
  720MPD2    C210694   0.721   0.695  14.230
  720MPD2    C310695   0.761   0.683  14.361
  720MPD2    C410696   0.677   0.684  14.464
  720MPD2    C510697   0.546   0.727  14.432
  720MPD2     H10698   0.803   0.695  14.159
  720MPD2    H110699   0.693   0.662  14.569
  720MPD2    H210700   0.401   0.780  14.292
  720MPD2    H310701   0.465   0.736  14.504
  720MPD2     N10702   0.902   0.655  14.384
  720MPD2    H510703   0.969   0.688  14.315
  720MPD2    N110704   0.560   0.773  14.071
  720MPD2    H710705   0.628   0.749  13.999
  721TMC3    C110706   1.092   0.654  14.521
  721TMC3    C210707   1.127   0.681  14.652
  721TMC3    C310708   1.255   0.720  14.684
  721TMC3    C410709   1.180   0.663  14.417
  721TMC3    C510710   1.307   0.700  14.457
  721TMC3    C610711   1.348   0.724  14.583
  721TMC3     C10712   0.958   0.607  14.499
  721TMC3     O10713   0.896   0.554  14.588
  721TMC3     H10714   1.059   0.669  14.736
  721TMC3    H110715   1.146   0.627  14.321
  721TMC3    H210716   1.452   0.736  14.609
  721TMC3    C710717   1.416   0.661  14.371
  721TMC3    C810718   1.321   0.679  14.811
  721TMC3    O110719   1.432   0.707  14.257
  721TMC3    O210720   1.422   0.614  14.800
  722MPD2     C10721   4.420   4.121  13.212
  722MPD2    C110722   4.391   4.243  13.272
  722MPD2    C210723   4.261   4.284  13.265
  722MPD2    C310724   4.155   4.209  13.214
  722MPD2    C410725   4.192   4.085  13.169
  722MPD2    C510726   4.321   4.056  13.154
  722MPD2     H10727   4.226   4.384  13.289
  722MPD2    H110728   4.117   4.018  13.129
  722MPD2    H210729   4.518   4.075  13.214
  722MPD2    H310730   4.349   3.967  13.099
  722MPD2     N10731   4.022   4.258  13.214
  722MPD2    H510732   4.003   4.353  13.244
  722MPD2    N110733   4.489   4.321  13.326
  722MPD2    H710734   4.456   4.409  13.363
  723TMC3    C110735   3.789   4.246  13.202
  723TMC3    C210736   3.676   4.164  13.228
  723TMC3    C310737   3.560   4.217  13.189
  723TMC3    C410738   3.768   4.374  13.153
  723TMC3    C510739   3.648   4.424  13.138
  723TMC3    C610740   3.545   4.339  13.147
  723TMC3     C10741   3.912   4.176  13.197
  723TMC3     O10742   3.902   4.056  13.204
  723TMC3     H10743   3.686   4.064  13.268
  723TMC3    H110744   3.857   4.433  13.132
  723TMC3    H210745   3.443   4.374  13.133
  723TMC3    C710746   3.613   4.551  13.093
  723TMC3    C810747   3.444   4.143  13.215
  723TMC3    O110748   3.544   4.562  12.992
  723TMC3    O210749   3.356   4.201  13.271
  724TMC3    C110750   0.138   2.316  10.578
  724TMC3    C210751   0.053   2.318  10.473
  724TMC3    C310752   0.108   2.361  10.349
  724TMC3    C410753   0.266   2.351  10.566
  724TMC3    C510754   0.316   2.381  10.442
  724TMC3    C610755   0.243   2.375  10.328
  724TMC3     C10756   0.106   2.230  10.695
  724TMC3     O10757   0.188   2.224  10.788
  724TMC3     H10758   4.751   2.326  10.487
  724TMC3    H110759   0.338   2.326  10.643
  724TMC3    H210760   0.280   2.413  10.234
  724TMC3    C710761   0.411   2.489  10.433
  724TMC3    C810762   0.040   2.467  10.277
  724TMC3    O110763   0.458   2.517  10.324
  724TMC3    O210764   4.723   2.459  10.266
  725TMC3    C110765   1.625   1.012  13.098
  725TMC3    C210766   1.612   0.975  12.969
  725TMC3    C310767   1.528   0.874  12.939
  725TMC3    C410768   1.567   0.946  13.197
  725TMC3    C510769   1.489   0.841  13.173
  725TMC3    C610770   1.462   0.803  13.039
  725TMC3     C10771   1.739   1.092  13.134
  725TMC3     O10772   1.717   1.196  13.195
  725TMC3     H10773   1.667   1.030  12.893
  725TMC3    H110774   1.582   0.981  13.299
  725TMC3    H210775   1.387   0.728  13.017
  725TMC3    C710776   1.433   0.761  13.282
  725TMC3    C810777   1.477   0.865  12.803
  725TMC3    O110778   1.366   0.838  13.354
  725TMC3    O210779   1.406   0.766  12.780
  726MPD2     C10780   3.896   2.483  10.315
  726MPD2    C110781   3.892   2.600  10.395
  726MPD2    C210782   3.787   2.610  10.489
  726MPD2    C310783   3.696   2.511  10.502
  726MPD2    C410784   3.716   2.388  10.438
  726MPD2    C510785   3.817   2.375  10.342
  726MPD2     H10786   3.772   2.699  10.549
  726MPD2    H110787   3.648   2.304  10.442
  726MPD2    H210788   3.983   2.482  10.250
  726MPD2    H310789   3.825   2.287  10.279
  726MPD2     N10790   3.588   2.504  10.601
  726MPD2    H510791   3.530   2.421  10.606
  726MPD2    N110792   3.991   2.706  10.385
  726MPD2    H710793   3.987   2.771  10.463
  727TMC3    C110794   4.124   2.854  10.290
  727TMC3    C210795   4.155   2.909  10.405
  727TMC3    C310796   4.115   3.037  10.423
  727TMC3    C410797   4.067   2.929  10.185
  727TMC3    C510798   4.031   3.057  10.208
  727TMC3    C610799   4.049   3.113  10.329
  727TMC3     C10800   4.079   2.716  10.287
  727TMC3     O10801   4.083   2.663  10.178
  727TMC3     H10802   4.192   2.852  10.489
  727TMC3    H110803   4.042   2.883  10.090
  727TMC3    H210804   3.989   3.201  10.351
  727TMC3    C710805   3.940   3.118  10.108
  727TMC3    C810806   4.145   3.100  10.551
  727TMC3    O110807   3.872   3.034  10.053
  727TMC3    O210808   4.209   3.040  10.635
  728TMC3    C110809   3.453   0.966  15.611
  728TMC3    C210810   3.586   0.965  15.598
  728TMC3    C310811   3.646   0.961  15.476
  728TMC3    C410812   3.371   0.986  15.498
  728TMC3    C510813   3.437   0.992  15.377
  728TMC3    C610814   3.568   0.961  15.362
  728TMC3     C10815   3.396   0.966  15.751
  728TMC3     O10816   3.467   1.002  15.845
  728TMC3     H10817   3.639   0.960  15.692
  728TMC3    H110818   3.263   0.999  15.490
  728TMC3    H210819   3.611   0.943  15.264
  728TMC3    C710820   3.360   0.994  15.255
  728TMC3    C810821   3.785   1.001  15.488
  728TMC3    O110822   3.250   0.945  15.245
  728TMC3    O210823   3.817   1.030  15.604
  729MPD2     C10824   1.051   2.020  16.714
  729MPD2    C110825   1.149   2.054  16.804
  729MPD2    C210826   1.125   2.051  16.944
  729MPD2    C310827   1.000   2.007  16.981
  729MPD2    C410828   0.906   1.972  16.885
  729MPD2    C510829   0.926   1.989  16.753
  729MPD2     H10830   1.200   2.083  17.016
  729MPD2    H110831   0.809   1.932  16.914
  729MPD2    H210832   1.067   2.023  16.607
  729MPD2    H310833   0.844   1.952  16.692
  729MPD2     N10834   0.965   2.000  17.116
  729MPD2    H510835   0.875   1.959  17.136
  729MPD2    N110836   1.270   2.092  16.757
  729MPD2    H710837   1.277   2.097  16.656
  730TMC3    C110838   0.977   2.033  17.348
  730TMC3    C210839   1.057   2.042  17.454
  730TMC3    C310840   1.016   2.120  17.562
  730TMC3    C410841   0.852   2.091  17.333
  730TMC3    C510842   0.812   2.174  17.441
  730TMC3    C610843   0.897   2.189  17.546
  730TMC3     C10844   1.050   2.020  17.221
  730TMC3     O10845   1.176   2.025  17.221
  730TMC3     H10846   1.146   1.981  17.463
  730TMC3    H110847   0.784   2.080  17.250
  730TMC3    H210848   0.867   2.243  17.635
  730TMC3    C710849   0.771   2.301  17.386
  730TMC3    C810850   1.133   2.204  17.591
  730TMC3    O110851   0.788   2.327  17.267
  730TMC3    O210852   1.246   2.153  17.574
  731MPD2     C10853   1.135   0.437  12.707
  731MPD2    C110854   1.214   0.342  12.651
  731MPD2    C210855   1.247   0.240  12.731
  731MPD2    C310856   1.210   0.228  12.868
  731MPD2    C410857   1.135   0.327  12.923
  731MPD2    C510858   1.104   0.432  12.837
  731MPD2     H10859   1.302   0.157  12.689
  731MPD2    H110860   1.104   0.332  13.027
  731MPD2    H210861   1.101   0.521  12.647
  731MPD2    H310862   1.055   0.525  12.867
  731MPD2     N10863   1.236   0.108  12.930
  731MPD2    H510864   1.303   0.046  12.885
  731MPD2    N110865   1.255   0.347  12.516
  731MPD2    H710866   1.243   0.438  12.473
  732TMC3    C110867   1.322   0.289  12.292
  732TMC3    C210868   1.272   0.204  12.197
  732TMC3    C310869   1.259   0.259  12.079
  732TMC3    C410870   1.376   0.415  12.274
  732TMC3    C510871   1.364   0.456  12.145
  732TMC3    C610872   1.306   0.383  12.040
  732TMC3     C10873   1.298   0.244  12.435
  732TMC3     O10874   1.280   0.126  12.456
  732TMC3     H10875   1.234   0.105  12.220
  732TMC3    H110876   1.429   0.458  12.358
  732TMC3    H210877   1.297   0.425  11.940
  732TMC3    C710878   1.449   0.561  12.103
  732TMC3    C810879   1.160   0.195  11.993
  732TMC3    O110880   1.459   0.580  11.979
  732TMC3    O210881   1.188   0.156  11.883
  733TMC3    C110882   2.270   3.336  13.318
  733TMC3    C210883   2.360   3.434  13.357
  733TMC3    C310884   2.418   3.506  13.256
  733TMC3    C410885   2.239   3.298  13.189
  733TMC3    C510886   2.314   3.364  13.090
  733TMC3    C610887   2.402   3.471  13.124
  733TMC3     C10888   2.143   3.333  13.389
  733TMC3     O10889   2.042   3.351  13.323
  733TMC3     H10890   2.364   3.473  13.458
  733TMC3    H110891   2.173   3.213  13.175
  733TMC3    H210892   2.437   3.536  13.044
  733TMC3    C710893   2.254   3.357  12.957
  733TMC3    C810894   2.423   3.651  13.281
  733TMC3    O110895   2.197   3.258  12.920
  733TMC3    O210896   2.466   3.691  13.388
  734MPD2     C10897   3.718   1.372  12.671
  734MPD2    C110898   3.766   1.256  12.605
  734MPD2    C210899   3.824   1.271  12.480
  734MPD2    C310900   3.858   1.398  12.432
  734MPD2    C410901   3.831   1.506  12.507
  734MPD2    C510902   3.765   1.494  12.629
  734MPD2     H10903   3.860   1.189  12.419
  734MPD2    H110904   3.841   1.605  12.464
  734MPD2    H210905   3.665   1.363  12.766
  734MPD2    H310906   3.733   1.580  12.686
  734MPD2     N10907   3.925   1.404  12.307
  734MPD2    H510908   3.957   1.313  12.277
  734MPD2    N110909   3.737   1.133  12.668
  734MPD2    H710910   3.704   1.128  12.764
  735TMC3    C110911   3.688   0.907  12.666
  735TMC3    C210912   3.590   0.882  12.577
  735TMC3    C310913   3.571   0.753  12.538
  735TMC3    C410914   3.753   0.800  12.720
  735TMC3    C510915   3.728   0.671  12.677
  735TMC3    C610916   3.631   0.639  12.590
  735TMC3     C10917   3.750   1.013  12.603
  735TMC3     O10918   3.805   0.982  12.500
  735TMC3     H10919   3.526   0.962  12.543
  735TMC3    H110920   3.835   0.832  12.783
  735TMC3    H210921   3.620   0.552  12.526
  735TMC3    C710922   3.835   0.582  12.698
  735TMC3    C810923   3.546   0.746  12.396
  735TMC3    O110924   3.945   0.621  12.743
  735TMC3    O210925   3.461   0.667  12.353
  736MPD2     C10926   3.824   0.221  12.650
  736MPD2    C110927   3.879   0.343  12.651
  736MPD2    C210928   4.017   0.353  12.637
  736MPD2    C310929   4.087   0.246  12.600
  736MPD2    C410930   4.032   0.122  12.607
  736MPD2    C510931   3.897   0.104  12.634
  736MPD2     H10932   4.057   0.454  12.636
  736MPD2    H110933   4.088   0.031  12.586
  736MPD2    H210934   3.716   0.214  12.650
  736MPD2    H310935   3.855   0.004  12.631
  736MPD2     N10936   4.217   0.245  12.562
  736MPD2    H510937   4.254   0.156  12.528
  736MPD2    N110938   3.794   0.454  12.655
  736MPD2    H710939   3.697   0.437  12.631
  737TMC3    C110940   4.429   0.342  12.493
  737TMC3    C210941   4.470   0.463  12.449
  737TMC3    C310942   4.533   0.466  12.325
  737TMC3    C410943   4.442   0.233  12.410
  737TMC3    C510944   4.505   0.242  12.286
  737TMC3    C610945   4.553   0.357  12.236
  737TMC3     C10946   4.289   0.362  12.533
  737TMC3     O10947   4.246   0.471  12.506
  737TMC3     H10948   4.461   0.561  12.496
  737TMC3    H110949   4.435   0.136  12.458
  737TMC3    H210950   4.570   0.370  12.129
  737TMC3    C710951   4.562   0.120  12.235
  737TMC3    C810952   4.588   0.597  12.287
  737TMC3    O110953   4.517   0.010  12.273
  737TMC3    O210954   4.598   0.681  12.375
  738MPD2     C10955   4.445   4.316  15.056
  738MPD2    C110956   4.571   4.282  15.099
  738MPD2    C210957   4.676   4.353  15.048
  738MPD2    C310958   4.663   4.446  14.946
  738MPD2    C410959   4.535   4.475  14.913
  738MPD2    C510960   4.426   4.412  14.967
  738MPD2     H10961   4.775   4.319  15.076
  738MPD2    H110962   4.523   4.547  14.833
  738MPD2    H210963   4.363   4.260  15.099
  738MPD2    H310964   4.325   4.435  14.935
  738MPD2     N10965   4.776   4.505  14.883
  738MPD2    H510966   4.763   4.569  14.806
  738MPD2    N110967   4.596   4.182  15.191
  738MPD2    H710968   4.694   4.155  15.196
  739TMC3    C110969   0.191   4.526  14.806
  739TMC3    C210970   0.150   4.563  14.682
  739TMC3    C310971   0.246   4.616  14.599
  739TMC3    C410972   0.308   4.570  14.866
  739TMC3    C510973   0.395   4.638  14.783
  739TMC3    C610974   0.372   4.655  14.648
  739TMC3     C10975   0.104   4.474  14.908
  739TMC3     O10976   0.156   4.424  15.010
  739TMC3     H10977   0.059   4.519  14.642
  739TMC3    H110978   0.329   4.553  14.971
  739TMC3    H210979   0.453   4.684  14.582
  739TMC3    C710980   0.523   4.678  14.848
  739TMC3    C810981   0.214   4.616  14.459
  739TMC3    O110982   0.553   4.613  14.949
  739TMC3    O210983   0.110   4.566  14.424
  740TMC3    C110984   0.652   1.007  14.586
  740TMC3    C210985   0.700   0.948  14.700
  740TMC3    C310986   0.839   0.931  14.714
  740TMC3    C410987   0.730   1.013  14.474
  740TMC3    C510988   0.868   0.995  14.493
  740TMC3    C610989   0.923   0.951  14.610
  740TMC3     C10990   0.512   1.038  14.569
  740TMC3     O10991   0.481   1.120  14.487
  740TMC3     H10992   0.649   0.955  14.795
  740TMC3    H110993   0.692   1.046  14.378
  740TMC3    H210994   1.031   0.941  14.616
  740TMC3    C710995   0.944   0.978  14.372
  740TMC3    C810996   0.892   0.867  14.830
  740TMC3    O110997   1.047   0.915  14.396
  740TMC3    O210998   1.009   0.873  14.851
  741TMC3    C110999   0.069   0.491  14.141
  741TMC3    C211000   4.768   0.403  14.149
  741TMC3    C311001   4.776   0.311  14.245
  741TMC3    C411002   0.172   0.481  14.228
  741TMC3    C511003   0.180   0.373  14.318
  741TMC3    C611004   0.074   0.288  14.334
  741TMC3     C11005   0.090   0.564  14.017
  741TMC3     O11006   0.202   0.611  13.993
  741TMC3     H11007   4.690   0.419  14.075
  741TMC3    H111008   0.257   0.542  14.200
  741TMC3    H211009   0.094   0.192  14.381
  741TMC3    C711010   0.289   0.383  14.413
  741TMC3    C811011   4.656   0.229  14.261
  741TMC3    O111012   0.395   0.421  14.372
  741TMC3    O211013   4.576   0.238  14.168
  742TMC3    C111014   0.179   3.535  15.697
  742TMC3    C211015   0.084   3.502  15.599
  742TMC3    C311016   0.133   3.500  15.468
  742TMC3    C411017   0.312   3.553  15.661
  742TMC3    C511018   0.348   3.564  15.534
  742TMC3    C611019   0.260   3.536  15.430
  742TMC3     C11020   0.158   3.500  15.835
  742TMC3     O11021   0.239   3.431  15.888
  742TMC3     H11022   4.785   3.498  15.631
  742TMC3    H111023   0.379   3.577  15.743
  742TMC3    H211024   0.297   3.548  15.329
  742TMC3    C711025   0.483   3.524  15.500
  742TMC3    C811026   0.056   3.441  15.359
  742TMC3    O111027   0.503   3.452  15.402
  742TMC3    O211028   0.091   3.472  15.247
  743MPD2     C11029   2.224   4.235  19.481
  743MPD2    C111030   2.270   4.352  19.431
  743MPD2    C211031   2.405   4.385  19.446
  743MPD2    C311032   2.494   4.281  19.471
  743MPD2    C411033   2.448   4.162  19.517
  743MPD2    C511034   2.312   4.144  19.528
  743MPD2     H11035   2.444   4.470  19.390
  743MPD2    H111036   2.511   4.077  19.543
  743MPD2    H211037   2.118   4.211  19.480
  743MPD2    H311038   2.273   4.050  19.566
  743MPD2     N11039   2.637   4.299  19.452
  743MPD2    H511040   2.668   4.394  19.435
  743MPD2    N111041   2.175   4.434  19.360
  743MPD2    H711042   2.078   4.402  19.353
  744TMC3    C111043   2.107   4.593  19.199
  744TMC3    C211044   2.107   4.728  19.172
  744TMC3    C311045   2.110   4.766  19.042
  744TMC3    C411046   2.104   4.500  19.098
  744TMC3    C511047   2.110   4.544  18.970
  744TMC3    C611048   2.106   4.678  18.940
  744TMC3     C11049   2.202   4.555  19.304
  744TMC3     O11050   2.301   4.622  19.302
  744TMC3     H11051   2.133   4.794  19.253
  744TMC3    H111052   2.120   4.394  19.116
  744TMC3    H211053   2.113   4.705  18.836
  744TMC3    C711054   2.177   4.457  18.877
  744TMC3    C811055   2.073   0.097  19.010
  744TMC3    O111056   2.261   4.516  18.809
  744TMC3    O211057   2.092   0.131  18.893
  745TMC3    C111058   0.534   3.076  13.914
  745TMC3    C211059   0.404   3.028  13.892
  745TMC3    C311060   0.378   2.976  13.768
  745TMC3    C411061   0.626   3.047  13.824
  745TMC3    C511062   0.600   2.995  13.703
  745TMC3    C611063   0.470   2.958  13.670
  745TMC3     C11064   0.511   3.215  13.928
  745TMC3     O11065   0.400   3.250  13.960
  745TMC3     H11066   0.326   3.033  13.966
  745TMC3    H111067   0.724   3.070  13.864
  745TMC3    H211068   0.431   2.932  13.572
  745TMC3    C711069   0.649   3.071  13.588
  745TMC3    C811070   0.246   3.010  13.712
  745TMC3    O111071   0.594   3.046  13.478
  745TMC3    O211072   0.215   2.982  13.597
  746TMC3    C111073   3.147   0.416  11.168
  746TMC3    C211074   3.198   0.411  11.036
  746TMC3    C311075   3.112   0.360  10.944
  746TMC3    C411076   3.019   0.380  11.198
  746TMC3    C511077   2.937   0.336  11.099
  746TMC3    C611078   2.989   0.311  10.970
  746TMC3     C11079   3.174   0.538  11.239
  746TMC3     O11080   3.069   0.598  11.276
  746TMC3     H11081   3.296   0.454  11.016
  746TMC3    H111082   2.982   0.404  11.297
  746TMC3    H211083   2.929   0.284  10.884
  746TMC3    C711084   2.802   0.386  11.106
  746TMC3    C811085   3.138   0.403  10.816
  746TMC3    O111086   2.733   0.334  11.023
  746TMC3    O211087   3.239   0.362  10.759
  747TMC3    C111088   0.525   0.215  11.545
  747TMC3    C211089   0.438   0.125  11.588
  747TMC3    C311090   0.413   0.123  11.720
  747TMC3    C411091   0.600   0.289  11.630
  747TMC3    C511092   0.589   0.265  11.766
  747TMC3    C611093   0.489   0.191  11.816
  747TMC3     C11094   0.524   0.262  11.412
  747TMC3     O11095   0.588   0.363  11.388
  747TMC3     H11096   0.371   0.081  11.515
  747TMC3    H111097   0.669   0.363  11.590
  747TMC3    H211098   0.490   0.176  11.923
  747TMC3    C711099   0.669   0.341  11.858
  747TMC3    C811100   0.296   0.047  11.767
  747TMC3    O111101   0.613   0.397  11.953
  747TMC3    O211102   0.267   4.756  11.695
  748MPD2     C11103   1.636   1.071  19.566
  748MPD2    C111104   1.693   0.962  19.500
  748MPD2    C211105   1.824   0.957  19.471
  748MPD2    C311106   1.909   1.063  19.497
  748MPD2    C411107   1.852   1.178  19.556
  748MPD2    C511108   1.717   1.177  19.587
  748MPD2     H11109   1.871   0.874  19.419
  748MPD2    H111110   1.905   1.271  19.568
  748MPD2    H211111   1.529   1.064  19.583
  748MPD2    H311112   1.676   1.269  19.628
  748MPD2     N11113   2.038   1.047  19.463
  748MPD2    H511114   2.070   0.954  19.438
  748MPD2    N111115   1.605   0.859  19.451
  748MPD2    H711116   1.506   0.882  19.445
  749TMC3    C111117   2.259   1.091  19.411
  749TMC3    C211118   2.302   0.983  19.485
  749TMC3    C311119   2.403   0.919  19.425
  749TMC3    C411120   2.313   1.140  19.301
  749TMC3    C511121   2.429   1.081  19.264
  749TMC3    C611122   2.471   0.969  19.322
  749TMC3     C11123   2.132   1.152  19.446
  749TMC3     O11124   2.112   1.270  19.422
  749TMC3     H11125   2.260   0.948  19.579
  749TMC3    H111126   2.269   1.224  19.249
  749TMC3    H211127   2.568   0.929  19.294
  749TMC3    C711128   2.486   1.100  19.134
  749TMC3    C811129   2.477   0.837  19.518
  749TMC3    O111130   2.427   1.187  19.074
  749TMC3    O211131   2.467   0.868  19.635
  750MPD2     C11132   3.113   2.646  11.612
  750MPD2    C111133   3.006   2.564  11.650
  750MPD2    C211134   3.010   2.425  11.629
  750MPD2    C311135   3.114   2.360  11.561
  750MPD2    C411136   3.225   2.441  11.529
  750MPD2    C511137   3.212   2.582  11.542
  750MPD2     H11138   2.927   2.362  11.660
  750MPD2    H111139   3.316   2.411  11.478
  750MPD2    H211140   3.120   2.753  11.628
  750MPD2    H311141   3.293   2.645  11.508
  750MPD2     N11142   3.122   2.222  11.530
  750MPD2    H511143   3.193   2.186  11.468
  750MPD2    N111144   2.905   2.627  11.721
  750MPD2    H711145   2.939   2.717  11.753
  751TMC3    C111146   3.078   1.985  11.592
  751TMC3    C211147   3.022   1.908  11.692
  751TMC3    C311148   2.987   1.777  11.670
  751TMC3    C411149   3.080   1.933  11.464
  751TMC3    C511150   3.046   1.800  11.444
  751TMC3    C611151   3.001   1.713  11.544
  751TMC3     C11152   3.057   2.129  11.607
  751TMC3     O11153   2.982   2.155  11.701
  751TMC3     H11154   3.018   1.946  11.794
  751TMC3    H111155   3.110   1.992  11.378
  751TMC3    H211156   2.957   1.615  11.528
  751TMC3    C711157   3.079   1.748  11.309
  751TMC3    C811158   2.861   1.742  11.734
  751TMC3    O111159   3.179   1.787  11.255
  751TMC3    O211160   2.826   1.624  11.738
  752TMC3    C111161   1.694   2.277  17.735
  752TMC3    C211162   1.673   2.146  17.708
  752TMC3    C311163   1.630   2.067  17.816
  752TMC3    C411164   1.647   2.330  17.849
  752TMC3    C511165   1.588   2.250  17.951
  752TMC3    C611166   1.590   2.112  17.935
  752TMC3     C11167   1.759   2.369  17.642
  752TMC3     O11168   1.818   2.468  17.689
  752TMC3     H11169   1.703   2.108  17.611
  752TMC3    H111170   1.652   2.437  17.862
  752TMC3    H211171   1.557   2.053  18.020
  752TMC3    C711172   1.522   2.318  18.057
  752TMC3    C811173   1.647   1.926  17.789
  752TMC3    O111174   1.535   2.440  18.064
  752TMC3    O211175   1.727   1.890  17.702
  753TMC3    C111176   3.888   2.937  13.691
  753TMC3    C211177   3.919   2.938  13.822
  753TMC3    C311178   3.902   2.818  13.885
  753TMC3    C411179   3.837   2.834  13.618
  753TMC3    C511180   3.827   2.715  13.687
  753TMC3    C611181   3.869   2.703  13.815
  753TMC3     C11182   3.848   3.066  13.641
  753TMC3     O11183   3.748   3.086  13.577
  753TMC3     H11184   3.931   3.033  13.874
  753TMC3    H111185   3.802   2.847  13.516
  753TMC3    H211186   3.849   2.617  13.877
  753TMC3    C711187   3.812   2.595  13.604
  753TMC3    C811188   3.870   2.827  14.024
  753TMC3    O111189   3.775   2.610  13.489
  753TMC3    O211190   3.785   2.748  14.048
  754MPD2     C11191   2.974   1.796  13.502
  754MPD2    C111192   2.919   1.674  13.499
  754MPD2    C211193   2.785   1.664  13.491
  754MPD2    C311194   2.704   1.770  13.512
  754MPD2    C411195   2.756   1.892  13.520
  754MPD2    C511196   2.893   1.907  13.512
  754MPD2     H11197   2.735   1.571  13.466
  754MPD2    H111198   2.694   1.981  13.518
  754MPD2    H211199   3.079   1.821  13.492
  754MPD2    H311200   2.941   2.004  13.521
  754MPD2     N11201   2.566   1.758  13.523
  754MPD2    H511202   2.510   1.840  13.546
  754MPD2    N111203   3.000   1.568  13.505
  754MPD2    H711204   3.098   1.590  13.489
  755MPD2     C11205   1.947   2.398  13.474
  755MPD2    C111206   1.883   2.285  13.532
  755MPD2    C211207   1.951   2.164  13.526
  755MPD2    C311208   2.065   2.148  13.450
  755MPD2    C411209   2.119   2.254  13.383
  755MPD2    C511210   2.062   2.380  13.402
  755MPD2     H11211   1.913   2.077  13.578
  755MPD2    H111212   2.212   2.253  13.328
  755MPD2    H211213   1.905   2.496  13.496
  755MPD2    H311214   2.115   2.465  13.361
  755MPD2     N11215   2.127   2.013  13.421
  755MPD2    H511216   2.215   2.011  13.369
  755MPD2    N111217   1.778   2.289  13.626
  755MPD2    H711218   1.752   2.203  13.674
  756MPD2     C11219   2.407   3.194  10.114
  756MPD2    C111220   2.318   3.089  10.132
  756MPD2    C211221   2.206   3.077  10.057
  756MPD2    C311222   2.178   3.166   9.952
  756MPD2    C411223   2.278   3.260   9.927
  756MPD2    C511224   2.391   3.271  10.008
  756MPD2     H11225   2.140   2.996  10.085
  756MPD2    H111226   2.275   3.323   9.839
  756MPD2    H211227   2.489   3.219  10.180
  756MPD2    H311228   2.459   3.355  10.000
  756MPD2     N11229   2.055   3.156   9.879
  756MPD2    H511230   2.010   3.067   9.897
  756MPD2    N111231   2.347   2.984  10.225
  756MPD2    H711232   2.281   2.910  10.245
  757MPD2     C11233   1.415   2.590   9.927
  757MPD2    C111234   1.552   2.576   9.940
  757MPD2    C211235   1.639   2.674   9.884
  757MPD2    C311236   1.588   2.783   9.817
  757MPD2    C411237   1.447   2.793   9.812
  757MPD2    C511238   1.367   2.692   9.855
  757MPD2     H11239   1.747   2.669   9.884
  757MPD2    H111240   1.387   2.878   9.781
  757MPD2    H211241   1.351   2.519   9.978
  757MPD2    H311242   1.262   2.718   9.847
  757MPD2     N11243   1.671   2.886   9.763
  757MPD2    H511244   1.772   2.872   9.765
  757MPD2    N111245   1.591   2.454   9.995
  757MPD2    H711246   1.518   2.385  10.004
  758MPD2     C11247   2.354   1.693  16.161
  758MPD2    C111248   2.447   1.655  16.258
  758MPD2    C211249   2.420   1.670  16.388
  758MPD2    C311250   2.296   1.708  16.434
  758MPD2    C411251   2.208   1.755  16.339
  758MPD2    C511252   2.228   1.725  16.205
  758MPD2     H11253   2.493   1.656  16.468
  758MPD2    H111254   2.113   1.798  16.367
  758MPD2    H211255   2.368   1.683  16.054
  758MPD2    H311256   2.166   1.763  16.125
  758MPD2     N11257   2.255   1.709  16.570
  758MPD2    H511258   2.176   1.763  16.603
  758MPD2    N111259   2.575   1.621  16.211
  758MPD2    H711260   2.585   1.602  16.112
  759MPD2     C11261   1.317   0.139  10.278
  759MPD2    C111262   1.324   0.205  10.403
  759MPD2    C211263   1.371   0.337  10.405
  759MPD2    C311264   1.419   0.396  10.288
  759MPD2    C411265   1.412   0.332  10.170
  759MPD2    C511266   1.359   0.207  10.169
  759MPD2     H11267   1.380   0.396  10.495
  759MPD2    H111268   1.439   0.385  10.080
  759MPD2    H211269   1.270   0.042  10.266
  759MPD2    H311270   1.354   0.144  10.081
  759MPD2     N11271   1.465   0.530  10.297
  759MPD2    H511272   1.435   0.581  10.379
  759MPD2    N111273   1.303   0.143  10.527
  759MPD2    H711274   1.304   0.204  10.607
  760MPD2     C11275   1.020   2.019  11.669
  760MPD2    C111276   1.010   2.023  11.805
  760MPD2    C211277   1.036   1.898  11.869
  760MPD2    C311278   1.071   1.779  11.797
  760MPD2    C411279   1.079   1.784  11.661
  760MPD2    C511280   1.058   1.907  11.599
  760MPD2     H11281   1.032   1.897  11.977
  760MPD2    H111282   1.089   1.691  11.607
  760MPD2    H211283   1.016   2.112  11.615
  760MPD2    H311284   1.066   1.906  11.491
  760MPD2     N11285   1.107   1.663  11.857
  760MPD2    H511286   1.145   1.591  11.796
  760MPD2    N111287   0.967   2.136  11.879
  760MPD2    H711288   0.936   2.128  11.975
  761MPD2     C11289   2.393   1.849  11.890
  761MPD2    C111290   2.428   1.754  11.799
  761MPD2    C211291   2.565   1.746  11.771
  761MPD2    C311292   2.655   1.839  11.825
  761MPD2    C411293   2.605   1.934  11.910
  761MPD2    C511294   2.476   1.942  11.953
  761MPD2     H11295   2.598   1.677  11.694
  761MPD2    H111296   2.676   2.005  11.952
  761MPD2    H211297   2.290   1.849  11.925
  761MPD2    H311298   2.438   2.023  12.014
  761MPD2     N11299   2.795   1.838  11.803
  761MPD2    H511300   2.850   1.910  11.848
  761MPD2    N111301   2.332   1.662  11.756
  761MPD2    H711302   2.242   1.661  11.803
  762MPD2     C11303   2.612   0.951  11.583
  762MPD2    C111304   2.566   1.047  11.494
  762MPD2    C211305   2.644   1.073  11.386
  762MPD2    C311306   2.762   1.008  11.364
  762MPD2    C411307   2.813   0.917  11.454
  762MPD2    C511308   2.731   0.893  11.563
  762MPD2     H11309   2.614   1.151  11.317
  762MPD2    H111310   2.902   0.857  11.434
  762MPD2    H211311   2.566   0.933  11.679
  762MPD2    H311312   2.760   0.813  11.630
  762MPD2     N11313   2.835   1.043  11.251
  762MPD2    H511314   2.779   1.092  11.182
  762MPD2    N111315   2.443   1.114  11.523
  762MPD2    H711316   2.406   1.080  11.611
  763MPD2     C11317   4.633   1.528  16.372
  763MPD2    C111318   4.513   1.588  16.345
  763MPD2    C211319   4.489   1.719  16.395
  763MPD2    C311320   4.590   1.769  16.481
  763MPD2    C411321   4.704   1.703  16.517
  763MPD2    C511322   4.729   1.589  16.446
  763MPD2     H11323   4.397   1.768  16.364
  763MPD2    H111324   4.775   1.742  16.589
  763MPD2    H211325   4.662   1.436  16.321
  763MPD2    H311326   0.010   1.532  16.479
  763MPD2     N11327   4.580   1.906  16.525
  763MPD2    H511328   4.655   1.966  16.556
  763MPD2    N111329   4.421   1.527  16.260
  763MPD2    H711330   4.339   1.581  16.237
  764MPD2     C11331   2.243   3.455  17.726
  764MPD2    C111332   2.145   3.393  17.657
  764MPD2    C211333   2.070   3.292  17.722
  764MPD2    C311334   2.082   3.266  17.857
  764MPD2    C411335   2.194   3.324  17.918
  764MPD2    C511336   2.270   3.419  17.859
  764MPD2     H11337   1.998   3.236  17.664
  764MPD2    H111338   2.214   3.306  18.023
  764MPD2    H211339   2.300   3.536  17.681
  764MPD2    H311340   2.342   3.475  17.918
  764MPD2     N11341   1.992   3.183  17.923
  764MPD2    H511342   1.915   3.151  17.865
  764MPD2    N111343   2.121   3.415  17.518
  764MPD2    H711344   2.036   3.366  17.489
  765MPD2     C11345   1.857   0.908  16.036
  765MPD2    C111346   1.944   0.989  16.100
  765MPD2    C211347   2.078   0.958  16.112
  765MPD2    C311348   2.125   0.841  16.068
  765MPD2    C411349   2.039   0.761  15.998
  765MPD2    C511350   1.905   0.790  15.981
  765MPD2     H11351   2.148   1.026  16.161
  765MPD2    H111352   2.072   0.674  15.942
  765MPD2    H211353   1.750   0.925  16.029
  765MPD2    H311354   1.842   0.722  15.925
  765MPD2     N11355   2.263   0.806  16.090
  765MPD2    H511356   2.328   0.867  16.137
  765MPD2    N111357   1.891   1.104  16.162
  765MPD2    H711358   1.791   1.122  16.155
  766MPD2     C11359   1.349   1.330  15.847
  766MPD2    C111360   1.442   1.255  15.908
  766MPD2    C211361   1.505   1.161  15.830
  766MPD2    C311362   1.463   1.138  15.700
  766MPD2    C411363   1.360   1.208  15.639
  766MPD2    C511364   1.306   1.302  15.723
  766MPD2     H11365   1.588   1.106  15.872
  766MPD2    H111366   1.318   1.193  15.540
  766MPD2    H211367   1.300   1.417  15.888
  766MPD2    H311368   1.226   1.360  15.679
  766MPD2     N11369   1.535   1.060  15.605
  766MPD2    H511370   1.527   1.082  15.506
  766MPD2    N111371   1.491   1.303  16.037
  766MPD2    H711372   1.451   1.387  16.076
  767MPD2     C11373   1.173   1.435  15.324
  767MPD2    C111374   1.302   1.382  15.315
  767MPD2    C211375   1.323   1.275  15.225
  767MPD2    C311376   1.217   1.227  15.148
  767MPD2    C411377   1.089   1.279  15.168
  767MPD2    C511378   1.064   1.386  15.250
  767MPD2     H11379   1.423   1.235  15.213
  767MPD2    H111380   1.011   1.231  15.110
  767MPD2    H211381   1.151   1.518  15.390
  767MPD2    H311382   0.969   1.437  15.259
  767MPD2     N11383   1.246   1.133  15.048
  767MPD2    H511384   1.336   1.088  15.059
  767MPD2    N111385   1.399   1.439  15.399
  767MPD2    H711386   1.371   1.514  15.462
  768MPD2     C11387   2.507   0.192  10.676
  768MPD2    C111388   2.429   0.162  10.787
  768MPD2    C211389   2.488   0.076  10.877
  768MPD2    C311390   2.623   0.044  10.876
  768MPD2    C411391   2.701   0.086  10.772
  768MPD2    C511392   2.645   0.153  10.674
  768MPD2     H11393   2.433   0.054  10.967
  768MPD2    H111394   2.807   0.062  10.773
  768MPD2    H211395   2.468   0.267  10.608
  768MPD2    H311396   2.710   0.190  10.596
  768MPD2     N11397   2.688   4.784  10.987
  768MPD2    H511398   2.789   4.787  10.992
  768MPD2    N111399   2.307   0.228  10.828
  768MPD2    H711400   2.274   0.216  10.923
  769MPD2     C11401   3.494   2.273  15.040
  769MPD2    C111402   3.428   2.307  15.159
  769MPD2    C211403   3.497   2.353  15.267
  769MPD2    C311404   3.635   2.374  15.264
  769MPD2    C411405   3.696   2.352  15.147
  769MPD2    C511406   3.628   2.299  15.042
  769MPD2     H11407   3.447   2.365  15.362
  769MPD2    H111408   3.803   2.365  15.138
  769MPD2    H211409   3.448   2.219  14.958
  769MPD2    H311410   3.685   2.273  14.954
  769MPD2     N11411   3.695   2.429  15.379
  769MPD2    H511412   3.635   2.438  15.460
  769MPD2    N111413   3.289   2.292  15.164
  769MPD2    H711414   3.249   2.258  15.077
  770MPD2     C11415   2.507   1.803  15.518
  770MPD2    C111416   2.574   1.773  15.400
  770MPD2    C211417   2.659   1.870  15.351
  770MPD2    C311418   2.668   1.993  15.414
  770MPD2    C411419   2.586   2.025  15.521
  770MPD2    C511420   2.508   1.925  15.573
  770MPD2     H11421   2.718   1.845  15.263
  770MPD2    H111422   2.583   2.126  15.560
  770MPD2    H211423   2.445   1.726  15.563
  770MPD2    H311424   2.458   1.939  15.668
  770MPD2     N11425   2.754   2.086  15.356
  770MPD2    H511426   2.797   2.062  15.267
  770MPD2    N111427   2.558   1.642  15.347
  770MPD2    H711428   2.498   1.570  15.386
  771MPD2     C11429   4.340   0.488  14.051
  771MPD2    C111430   4.277   0.601  14.007
  771MPD2    C211431   4.146   0.586  13.953
  771MPD2    C311432   4.095   0.460  13.936
  771MPD2    C411433   4.164   0.345  13.979
  771MPD2    C511434   4.283   0.363  14.040
  771MPD2     H11435   4.091   0.668  13.907
  771MPD2    H111436   4.125   0.246  13.958
  771MPD2    H211437   4.437   0.495  14.099
  771MPD2    H311438   4.334   0.283  14.093
  771MPD2     N11439   3.976   0.457  13.859
  771MPD2    H511440   3.950   0.546  13.819
  771MPD2    N111441   4.325   0.735  14.014
  771MPD2    H711442   4.262   0.802  13.971
  772MPD2     C11443   3.971   1.339  13.935
  772MPD2    C111444   3.980   1.223  14.011
  772MPD2    C211445   3.862   1.151  14.045
  772MPD2    C311446   3.737   1.210  14.018
  772MPD2    C411447   3.735   1.336  13.966
  772MPD2    C511448   3.849   1.399  13.921
  772MPD2     H11449   3.864   1.046  14.072
  772MPD2    H111450   3.647   1.395  13.945
  772MPD2    H211451   4.056   1.402  13.910
  772MPD2    H311452   3.836   1.499  13.882
  772MPD2     N11453   3.613   1.146  14.050
  772MPD2    H511454   3.533   1.205  14.032
  772MPD2    N111455   4.106   1.167  14.048
  772MPD2    H711456   4.102   1.087  14.109
  773MPD2     C11457   3.436   1.973  17.858
  773MPD2    C111458   3.322   1.889  17.868
  773MPD2    C211459   3.315   1.789  17.959
  773MPD2    C311460   3.415   1.762  18.041
  773MPD2    C411461   3.530   1.840  18.033
  773MPD2    C511462   3.538   1.942  17.945
  773MPD2     H11463   3.227   1.724  17.964
  773MPD2    H111464   3.620   1.828  18.093
  773MPD2    H211465   3.454   2.065  17.804
  773MPD2    H311466   3.629   2.001  17.957
  773MPD2     N11467   3.396   1.653  18.127
  773MPD2    H511468   3.306   1.606  18.133
  773MPD2    N111469   3.213   1.894  17.777
  773MPD2    H711470   3.133   1.835  17.798
  774MPD2     C11471   2.268   0.738  13.513
  774MPD2    C111472   2.234   0.840  13.610
  774MPD2    C211473   2.309   0.957  13.623
  774MPD2    C311474   2.423   0.977  13.550
  774MPD2    C411475   2.458   0.881  13.460
  774MPD2    C511476   2.381   0.767  13.446
  774MPD2     H11477   2.285   1.031  13.699
  774MPD2    H111478   2.548   0.882  13.399
  774MPD2    H211479   2.205   0.653  13.491
  774MPD2    H311480   2.410   0.690  13.376
  774MPD2     N11481   2.514   1.079  13.587
  774MPD2    H511482   2.477   1.139  13.661
  774MPD2    N111483   2.144   0.796  13.708
  774MPD2    H711484   2.120   0.698  13.703
  775MPD2     C11485   3.990   2.180  16.043
  775MPD2    C111486   3.956   2.305  16.075
  775MPD2    C211487   4.028   2.418  16.035
  775MPD2    C311488   4.151   2.401  15.979
  775MPD2    C411489   4.194   2.272  15.947
  775MPD2    C511490   4.111   2.169  15.983
  775MPD2     H11491   3.991   2.514  16.067
  775MPD2    H111492   4.295   2.266  15.908
  775MPD2    H211493   3.947   2.085  16.075
  775MPD2    H311494   4.151   2.069  15.971
  775MPD2     N11495   4.226   2.515  15.937
  775MPD2    H511496   4.319   2.497  15.901
  775MPD2    N111497   3.829   2.315  16.140
  775MPD2    H711498   3.764   2.238  16.135
  776MPD2     C11499   2.893   3.020  12.198
  776MPD2    C111500   2.811   3.059  12.107
  776MPD2    C211501   2.790   3.193  12.073
  776MPD2    C311502   2.841   3.280  12.157
  776MPD2    C411503   2.926   3.241  12.251
  776MPD2    C511504   2.958   3.114  12.268
  776MPD2     H11505   2.715   3.219  11.999
  776MPD2    H111506   2.968   3.326  12.304
  776MPD2    H211507   2.898   2.920  12.241
  776MPD2    H311508   3.025   3.079  12.346
  776MPD2     N11509   2.822   3.414  12.137
  776MPD2    H511510   2.885   3.471  12.192
  776MPD2    N111511   2.740   2.962  12.037
  776MPD2    H711512   2.765   2.866  12.058
  777MPD2     C11513   2.884   0.145  18.701
  777MPD2    C111514   2.837   0.035  18.770
  777MPD2    C211515   2.797   4.726  18.703
  777MPD2    C311516   2.816   4.723  18.563
  777MPD2    C411517   2.873   0.019  18.492
  777MPD2    C511518   2.902   0.134  18.560
  777MPD2     H11519   2.750   4.648  18.762
  777MPD2    H111520   2.903   0.006  18.388
  777MPD2    H211521   2.910   0.235  18.755
  777MPD2    H311522   2.944   0.217  18.503
  777MPD2     N11523   2.766   4.604  18.493
  777MPD2    H511524   2.723   4.531  18.549
  777MPD2    N111525   2.827   0.042  18.910
  777MPD2    H711526   2.841   0.134  18.949
  778MPD2     C11527   4.064   0.487  15.201
  778MPD2    C111528   4.040   0.389  15.106
  778MPD2    C211529   4.055   0.421  14.970
  778MPD2    C311530   4.093   0.549  14.934
  778MPD2    C411531   4.137   0.634  15.029
  778MPD2    C511532   4.127   0.605  15.163
  778MPD2     H11533   4.039   0.336  14.905
  778MPD2    H111534   4.176   0.730  14.997
  778MPD2    H211535   4.049   0.465  15.306
  778MPD2    H311536   4.156   0.674  15.242
  778MPD2     N11537   4.114   0.586  14.795
  778MPD2    H511538   4.095   0.513  14.727
  778MPD2    N111539   3.974   0.261  15.133
  778MPD2    H711540   3.963   0.207  15.049
  779MPD2     C11541   3.734   4.016  14.349
  779MPD2    C111542   3.870   4.043  14.364
  779MPD2    C211543   3.917   4.176  14.332
  779MPD2    C311544   3.834   4.270  14.272
  779MPD2    C411545   3.704   4.230  14.246
  779MPD2    C511546   3.655   4.109  14.282
  779MPD2     H11547   4.024   4.193  14.331
  779MPD2    H111548   3.643   4.293  14.181
  779MPD2    H211549   3.685   3.921  14.365
  779MPD2    H311550   3.554   4.086  14.250
  779MPD2     N11551   3.885   4.389  14.226
  779MPD2    H511552   3.975   4.416  14.262
  779MPD2    N111553   3.963   3.943  14.418
  779MPD2    H711554   4.060   3.971  14.414
  780MPD2     C11555   3.312   3.902  18.905
  780MPD2    C111556   3.263   3.854  18.791
  780MPD2    C211557   3.312   3.897  18.667
  780MPD2    C311558   3.419   3.980  18.663
  780MPD2    C411559   3.467   4.034  18.782
  780MPD2    C511560   3.399   4.006  18.894
  780MPD2     H11561   3.278   3.849  18.576
  780MPD2    H111562   3.553   4.099  18.785
  780MPD2    H211563   3.279   3.866  19.002
  780MPD2    H311564   3.429   4.051  18.988
  780MPD2     N11565   3.468   4.022  18.535
  780MPD2    H511566   3.429   3.985  18.449
  780MPD2    N111567   3.163   3.753  18.805
  780MPD2    H711568   3.151   3.711  18.896
  781MPD2     C11569   0.347   1.017  12.121
  781MPD2    C111570   0.430   1.043  12.228
  781MPD2    C211571   0.550   1.111  12.206
  781MPD2    C311572   0.581   1.146  12.076
  781MPD2    C411573   0.492   1.127  11.970
  781MPD2    C511574   0.375   1.065  11.993
  781MPD2     H11575   0.605   1.146  12.293
  781MPD2    H111576   0.516   1.171  11.873
  781MPD2    H211577   0.249   0.976  12.143
  781MPD2    H311578   0.298   1.052  11.917
  781MPD2     N11579   0.697   1.213  12.041
  781MPD2    H511580   0.704   1.262  11.952
  781MPD2    N111581   0.400   1.008  12.362
  781MPD2    H711582   0.472   1.027  12.430
  782MPD2     C11583   2.989   1.961  10.562
  782MPD2    C111584   3.130   1.963  10.553
  782MPD2    C211585   3.203   2.062  10.613
  782MPD2    C311586   3.135   2.174  10.655
  782MPD2    C411587   2.997   2.184  10.647
  782MPD2    C511588   2.927   2.078  10.597
  782MPD2     H11589   3.309   2.054  10.631
  782MPD2    H111590   2.938   2.262  10.693
  782MPD2    H211591   2.930   1.875  10.532
  782MPD2    H311592   2.820   2.083  10.581
  782MPD2     N11593   3.213   2.270  10.720
  782MPD2    H511594   3.314   2.269  10.715
  782MPD2    N111595   3.194   1.849  10.507
  782MPD2    H711596   3.132   1.770  10.492
  783MPD2     C11597   2.892   1.462  11.147
  783MPD2    C111598   2.993   1.559  11.165
  783MPD2    C211599   3.085   1.574  11.062
  783MPD2    C311600   3.067   1.506  10.941
  783MPD2    C411601   2.963   1.419  10.925
  783MPD2    C511602   2.872   1.400  11.026
  783MPD2     H11603   3.169   1.639  11.077
  783MPD2    H111604   2.945   1.369  10.831
  783MPD2    H211605   2.817   1.438  11.222
  783MPD2    H311606   2.788   1.332  11.016
  783MPD2     N11607   3.168   1.529  10.845
  783MPD2    H511608   3.234   1.605  10.858
  783MPD2    N111609   2.998   1.635  11.280
  783MPD2    H711610   2.923   1.633  11.348
  784MPD2     C11611   1.076   2.481  19.199
  784MPD2    C111612   1.070   2.606  19.259
  784MPD2    C211613   0.992   2.710  19.213
  784MPD2    C311614   0.897   2.680  19.118
  784MPD2    C411615   0.902   2.560  19.043
  784MPD2    C511616   0.997   2.461  19.091
  784MPD2     H11617   0.985   2.806  19.263
  784MPD2    H111618   0.834   2.541  18.961
  784MPD2    H211619   1.136   2.397  19.232
  784MPD2    H311620   1.006   2.366  19.040
  784MPD2     N11621   0.797   2.785  19.082
  784MPD2    H511622   0.824   2.879  19.108
  784MPD2    N111623   1.150   2.638  19.369
  784MPD2    H711624   1.133   2.731  19.405
  785MPD2     C11625   1.356   0.496  11.571
  785MPD2    C111626   1.345   0.570  11.458
  785MPD2    C211627   1.261   0.521  11.354
  785MPD2    C311628   1.200   0.400  11.372
  785MPD2    C411629   1.211   0.325  11.492
  785MPD2    C511630   1.292   0.379  11.591
  785MPD2     H11631   1.235   0.580  11.267
  785MPD2    H111632   1.169   0.226  11.502
  785MPD2    H211633   1.413   0.528  11.656
  785MPD2    H311634   1.310   0.316  11.678
  785MPD2     N11635   1.119   0.370  11.262
  785MPD2    H511636   1.110   0.435  11.184
  785MPD2    N111637   1.395   0.701  11.459
  785MPD2    H711638   1.420   0.732  11.552
  786MPD2     C11639   4.478   3.177  15.141
  786MPD2    C111640   4.597   3.233  15.091
  786MPD2    C211641   4.694   3.279  15.178
  786MPD2    C311642   4.671   3.291  15.315
  786MPD2    C411643   4.560   3.232  15.369
  786MPD2    C511644   4.470   3.172  15.282
  786MPD2     H11645   4.787   3.306  15.129
  786MPD2    H111646   4.537   3.221  15.474
  786MPD2    H211647   4.400   3.124  15.089
  786MPD2    H311648   4.381   3.124  15.320
  786MPD2     N11649   4.764   3.352  15.401
  786MPD2    H511650   4.755   3.331  15.500
  786MPD2    N111651   4.629   3.219  14.952
  786MPD2    H711652   4.727   3.233  14.930
  787MPD2     C11653   0.173   2.693  14.988
  787MPD2    C111654   0.117   2.695  14.863
  787MPD2    C211655   0.152   2.596  14.776
  787MPD2    C311656   0.232   2.490  14.814
  787MPD2    C411657   0.282   2.480  14.945
  787MPD2    C511658   0.253   2.584  15.027
  787MPD2     H11659   0.135   2.596  14.669
  787MPD2    H111660   0.341   2.395  14.976
  787MPD2    H211661   0.163   2.767  15.066
  787MPD2    H311662   0.298   2.590  15.125
  787MPD2     N11663   0.241   2.380  14.718
  787MPD2    H511664   0.199   2.391  14.626
  787MPD2    N111665   0.039   2.807  14.825
  787MPD2    H711666   0.034   2.880  14.896
  788MPD2     C11667   1.541   1.768  19.192
  788MPD2    C111668   1.658   1.747  19.120
  788MPD2    C211669   1.697   1.846  19.031
  788MPD2    C311670   1.634   1.969  19.033
  788MPD2    C411671   1.531   1.993  19.115
  788MPD2    C511672   1.478   1.891  19.187
  788MPD2     H11673   1.787   1.832  18.972
  788MPD2    H111674   1.487   2.092  19.109
  788MPD2    H211675   1.488   1.697  19.254
  788MPD2    H311676   1.384   1.908  19.238
  788MPD2     N11677   1.680   2.085  18.966
  788MPD2    H511678   1.630   2.169  18.995
  788MPD2    N111679   1.724   1.622  19.118
  788MPD2    H711680   1.805   1.618  19.057
  789MPD2     C11681   2.067   1.264  16.589
  789MPD2    C111682   1.989   1.166  16.635
  789MPD2    C211683   1.910   1.196  16.747
  789MPD2    C311684   1.908   1.327  16.797
  789MPD2    C411685   1.979   1.428  16.741
  789MPD2    C511686   2.070   1.389  16.645
  789MPD2     H11687   1.854   1.110  16.782
  789MPD2    H111688   1.969   1.529  16.777
  789MPD2    H211689   2.140   1.248  16.509
  789MPD2    H311690   2.133   1.460  16.591
  789MPD2     N11691   1.835   1.370  16.909
  789MPD2    H511692   1.856   1.461  16.949
  789MPD2    N111693   1.999   1.031  16.589
  789MPD2    H711694   1.917   0.981  16.624
  790MPD2     C11695   3.008   3.223  14.017
  790MPD2    C111696   3.002   3.087  14.014
  790MPD2    C211697   2.939   3.012  13.911
  790MPD2    C311698   2.894   3.073  13.805
  790MPD2    C411699   2.906   3.211  13.797
  790MPD2    C511700   2.965   3.282  13.900
  790MPD2     H11701   2.932   2.904  13.909
  790MPD2    H111702   2.873   3.264  13.708
  790MPD2    H211703   3.067   3.283  14.085
  790MPD2    H311704   2.975   3.390  13.902
  790MPD2     N11705   2.837   3.002  13.702
  790MPD2    H511706   2.832   2.901  13.715
  790MPD2    N111707   3.056   3.029  14.129
  790MPD2    H711708   3.086   3.085  14.208
  791MPD2     C11709   2.281   2.951  13.060
  791MPD2    C111710   2.318   2.858  13.153
  791MPD2    C211711   2.241   2.744  13.168
  791MPD2    C311712   2.127   2.725  13.098
  791MPD2    C411713   2.084   2.823  13.007
  791MPD2    C511714   2.158   2.942  13.004
  791MPD2     H11715   2.265   2.667  13.241
  791MPD2    H111716   1.990   2.817  12.953
  791MPD2    H211717   2.353   3.028  13.035
  791MPD2    H311718   2.113   3.014  12.937
  791MPD2     N11719   2.065   2.601  13.110
  791MPD2    H511720   2.117   2.529  13.159
  791MPD2    N111721   2.438   2.876  13.224
  791MPD2    H711722   2.481   2.967  13.209
  792MPD2     C11723   2.968   3.031  11.495
  792MPD2    C111724   2.857   3.099  11.552
  792MPD2    C211725   2.734   3.037  11.557
  792MPD2    C311726   2.718   2.914  11.495
  792MPD2    C411727   2.825   2.853  11.447
  792MPD2    C511728   2.950   2.905  11.446
  792MPD2     H11729   2.648   3.088  11.598
  792MPD2    H111730   2.821   2.755  11.401
  792MPD2    H211731   3.068   3.069  11.478
  792MPD2    H311732   3.031   2.861  11.390
  792MPD2     N11733   2.602   2.838  11.493
  792MPD2    H511734   2.607   2.744  11.457
  792MPD2    N111735   2.895   3.227  11.598
  792MPD2    H711736   2.993   3.254  11.588
  793MPD2     C11737   2.024   2.660  10.855
  793MPD2    C111738   2.142   2.726  10.883
  793MPD2    C211739   2.175   2.762  11.013
  793MPD2    C311740   2.083   2.740  11.112
  793MPD2    C411741   1.960   2.681  11.080
  793MPD2    C511742   1.936   2.633  10.957
  793MPD2     H11743   2.263   2.814  11.050
  793MPD2    H111744   1.880   2.652  11.148
  793MPD2    H211745   1.991   2.637  10.755
  793MPD2    H311746   1.848   2.576  10.930
  793MPD2     N11747   2.119   2.777  11.244
  793MPD2    H511748   2.212   2.812  11.259
  793MPD2    N111749   2.238   2.763  10.787
  793MPD2    H711750   2.327   2.805  10.811
  794MPD2     C11751   2.719   2.461  17.463
  794MPD2    C111752   2.689   2.344  17.399
  794MPD2    C211753   2.573   2.334  17.325
  794MPD2    C311754   2.497   2.446  17.308
  794MPD2    C411755   2.537   2.561  17.365
  794MPD2    C511756   2.645   2.572  17.447
  794MPD2     H11757   2.557   2.243  17.269
  794MPD2    H111758   2.477   2.650  17.349
  794MPD2    H211759   2.806   2.466  17.527
  794MPD2    H311760   2.669   2.666  17.496
  794MPD2     N11761   2.383   2.448  17.220
  794MPD2    H511762   2.323   2.527  17.241
  794MPD2    N111763   2.766   2.228  17.393
  794MPD2    H711764   2.738   2.146  17.341
  795MPD2     C11765   0.471   4.527  13.618
  795MPD2    C111766   0.426   4.424  13.539
  795MPD2    C211767   0.503   4.311  13.515
  795MPD2    C311768   0.629   4.308  13.569
  795MPD2    C411769   0.671   4.403  13.655
  795MPD2    C511770   0.588   4.504  13.688
  795MPD2     H11771   0.474   4.234  13.445
  795MPD2    H111772   0.772   4.406  13.695
  795MPD2    H211773   0.417   4.619  13.638
  795MPD2    H311774   0.634   4.580  13.750
  795MPD2     N11775   0.708   4.200  13.539
  795MPD2    H511776   0.660   4.121  13.497
  795MPD2    N111777   0.303   4.428  13.472
  795MPD2    H711778   0.261   4.340  13.443
  796MPD2     C11779   4.674   0.933  15.850
  796MPD2    C111780   4.724   0.979  15.972
  796MPD2    C211781   4.729   1.112  15.996
  796MPD2    C311782   4.692   1.201  15.898
  796MPD2    C411783   4.641   1.153  15.781
  796MPD2    C511784   4.629   1.017  15.753
  796MPD2     H11785   4.755   1.147  16.095
  796MPD2    H111786   4.604   1.227  15.711
  796MPD2    H211787   4.673   0.825  15.840
  796MPD2    H311788   4.576   0.979  15.667
  796MPD2     N11789   4.696   1.341  15.929
  796MPD2    H511790   4.737   1.359  16.021
  796MPD2    N111791   4.758   0.880  16.065
  796MPD2    H711792   4.724   0.785  16.055
  797MPD2     C11793   0.671   0.613  17.565
  797MPD2    C111794   0.692   0.747  17.575
  797MPD2    C211795   0.656   0.828  17.471
  797MPD2    C311796   0.609   0.776  17.353
  797MPD2    C411797   0.609   0.641  17.334
  797MPD2    C511798   0.639   0.567  17.443
  797MPD2     H11799   0.654   0.936  17.487
  797MPD2    H111800   0.574   0.591  17.244
  797MPD2    H211801   0.689   0.542  17.644
  797MPD2    H311802   0.624   0.460  17.429
  797MPD2     N11803   0.563   0.858  17.248
  797MPD2    H511804   0.549   0.808  17.160
  797MPD2    N111805   0.754   0.812  17.684
  797MPD2    H711806   0.761   0.911  17.666
  798MPD2     C11807   0.539   1.483  17.524
  798MPD2    C111808   0.636   1.408  17.467
  798MPD2    C211809   0.709   1.318  17.548
  798MPD2    C311810   0.692   1.321  17.682
  798MPD2    C411811   0.602   1.409  17.741
  798MPD2    C511812   0.525   1.484  17.660
  798MPD2     H11813   0.788   1.255  17.510
  798MPD2    H111814   0.584   1.404  17.847
  798MPD2    H211815   0.473   1.541  17.460
  798MPD2    H311816   0.441   1.544  17.696
  798MPD2     N11817   0.774   1.234  17.755
  798MPD2    H511818   0.827   1.164  17.703
  798MPD2    N111819   0.641   1.408  17.322
  798MPD2    H711820   0.564   1.456  17.277
  799MPD2     C11821   4.713   2.264  14.948
  799MPD2    C111822   4.633   2.186  14.858
  799MPD2    C211823   4.573   2.253  14.752
  799MPD2    C311824   4.587   2.389  14.736
  799MPD2    C411825   4.661   2.458  14.831
  799MPD2    C511826   4.716   2.399  14.937
  799MPD2     H11827   4.525   2.190  14.678
  799MPD2    H111828   4.659   2.566  14.826
  799MPD2    H211829   4.767   2.217  15.029
  799MPD2    H311830   4.771   2.468  15.000
  799MPD2     N11831   4.531   2.472  14.643
  799MPD2    H511832   4.546   2.572  14.653
  799MPD2    N111833   4.615   2.046  14.863
  799MPD2    H711834   4.563   2.001  14.788
  800MPD2     C11835   0.040   3.465  13.640
  800MPD2    C111836   0.082   3.458  13.773
  800MPD2    C211837   0.112   3.333  13.820
  800MPD2    C311838   0.115   3.222  13.737
  800MPD2    C411839   0.057   3.232  13.611
  800MPD2    C511840   0.018   3.350  13.561
  800MPD2     H11841   0.161   3.321  13.916
  800MPD2    H111842   0.052   3.146  13.546
  800MPD2    H211843   0.025   3.563  13.594
  800MPD2    H311844   4.794   3.365  13.458
  800MPD2     N11845   0.195   3.115  13.785
  800MPD2    H511846   0.243   3.147  13.869
  800MPD2    N111847   0.129   3.578  13.822
  800MPD2    H711848   0.126   3.658  13.760
  801MPD2     C11849   0.283   4.275  13.830
  801MPD2    C111850   0.217   4.167  13.867
  801MPD2    C211851   0.097   4.187  13.939
  801MPD2    C311852   0.058   4.317  13.980
  801MPD2    C411853   0.132   4.426  13.947
  801MPD2    C511854   0.245   4.398  13.867
  801MPD2     H11855   0.041   4.101  13.973
  801MPD2    H111856   0.116   4.530  13.973
  801MPD2    H211857   0.367   4.279  13.762
  801MPD2    H311858   0.298   4.482  13.824
  801MPD2     N11859   4.747   4.333  14.059
  801MPD2    H511860   4.736   4.430  14.088
  801MPD2    N111861   0.261   4.039  13.834
  801MPD2    H711862   0.197   3.967  13.867
  802MPD2     C11863   4.146   4.716  17.615
  802MPD2    C111864   4.235   4.700  17.721
  802MPD2    C211865   4.296   4.576  17.742
  802MPD2    C311866   4.275   4.469  17.656
  802MPD2    C411867   4.187   4.487  17.556
  802MPD2    C511868   4.123   4.609  17.536
  802MPD2     H11869   4.361   4.561  17.827
  802MPD2    H111870   4.183   4.411  17.478
  802MPD2    H211871   4.084   0.001  17.604
  802MPD2    H311872   4.059   4.621  17.450
  802MPD2     N11873   4.363   4.358  17.669
  802MPD2    H511874   4.443   4.359  17.732
  802MPD2    N111875   4.259   4.799  17.824
  802MPD2    H711876   4.296   4.765  17.912
  803MPD2     C11877   0.916   2.755  12.388
  803MPD2    C111878   1.030   2.760  12.453
  803MPD2    C211879   1.041   2.687  12.575
  803MPD2    C311880   0.940   2.610  12.621
  803MPD2    C411881   0.846   2.571  12.524
  803MPD2    C511882   0.825   2.659  12.420
  803MPD2     H11883   1.126   2.720  12.633
  803MPD2    H111884   0.770   2.497  12.547
  803MPD2    H211885   0.904   2.807  12.293
  803MPD2    H311886   0.745   2.643  12.349
  803MPD2     N11887   0.935   2.554  12.753
  803MPD2    H511888   0.865   2.481  12.764
  803MPD2    N111889   1.131   2.852  12.424
  803MPD2    H711890   1.206   2.860  12.492
  804MPD2     C11891   0.376   3.989  16.988
  804MPD2    C111892   0.405   3.964  17.125
  804MPD2    C211893   0.486   4.054  17.194
  804MPD2    C311894   0.541   4.158  17.114
  804MPD2    C411895   0.523   4.172  16.977
  804MPD2    C511896   0.445   4.079  16.916
  804MPD2     H11897   0.506   4.047  17.301
  804MPD2    H111898   0.562   4.253  16.916
  804MPD2    H211899   0.311   3.919  16.936
  804MPD2    H311900   0.434   4.091  16.808
  804MPD2     N11901   0.608   4.258  17.191
  804MPD2    H511902   0.610   4.233  17.290
  804MPD2    N111903   0.366   3.851  17.197
  804MPD2    H711904   0.406   3.841  17.289
  805MPD2     C11905   4.427   2.151  15.630
  805MPD2    C111906   4.476   2.280  15.638
  805MPD2    C211907   4.593   2.306  15.694
  805MPD2    C311908   4.676   2.211  15.756
  805MPD2    C411909   4.629   2.084  15.745
  805MPD2    C511910   4.510   2.059  15.684
  805MPD2     H11911   4.631   2.407  15.686
  805MPD2    H111912   4.677   1.995  15.785
  805MPD2    H211913   4.338   2.118  15.578
  805MPD2    H311914   4.466   1.960  15.688
  805MPD2     N11915   4.797   2.248  15.803
  805MPD2    H511916   0.011   2.348  15.800
  805MPD2    N111917   4.409   2.388  15.569
  805MPD2    H711918   4.472   2.466  15.552
  806MPD2     C11919   0.058   1.947  19.381
  806MPD2    C111920   0.162   2.033  19.342
  806MPD2    C211921   0.144   2.115  19.232
  806MPD2    C311922   0.055   2.080  19.135
  806MPD2    C411923   4.757   1.990  19.174
  806MPD2    C511924   4.749   1.937  19.302
  806MPD2     H11925   0.213   2.198  19.216
  806MPD2    H111926   4.668   1.976  19.114
  806MPD2    H211927   0.062   1.902  19.479
  806MPD2    H311928   4.665   1.880  19.340
  806MPD2     N11929   0.062   2.122  19.001
  806MPD2    H511930   0.126   2.198  18.982
  806MPD2    N111931   0.274   2.028  19.430
  806MPD2    H711932   0.264   1.975  19.516
  807MPD2     C11933   0.538   1.794  19.153
  807MPD2    C111934   0.447   1.796  19.045
  807MPD2    C211935   0.343   1.698  19.050
  807MPD2    C311936   0.309   1.628  19.164
  807MPD2    C411937   0.399   1.629  19.267
  807MPD2    C511938   0.518   1.708  19.257
  807MPD2     H11939   0.282   1.698  18.960
  807MPD2    H111940   0.381   1.569  19.355
  807MPD2    H211941   0.626   1.857  19.153
  807MPD2    H311942   0.592   1.713  19.336
  807MPD2     N11943   0.186   1.560  19.155
  807MPD2    H511944   0.123   1.588  19.080
  807MPD2    N111945   0.453   1.886  18.939
  807MPD2    H711946   0.425   1.852  18.848
  808MPD2     C11947   0.758   3.572   9.984
  808MPD2    C111948   0.705   3.624  10.097
  808MPD2    C211949   0.705   3.763  10.118
  808MPD2    C311950   0.775   3.840  10.027
  808MPD2    C411951   0.848   3.786   9.924
  808MPD2    C511952   0.842   3.648   9.907
  808MPD2     H11953   0.637   3.801  10.193
  808MPD2    H111954   0.903   3.839   9.848
  808MPD2    H211955   0.754   3.467   9.957
  808MPD2    H311956   0.887   3.600   9.821
  808MPD2     N11957   0.761   3.982  10.026
  808MPD2    H511958   0.821   4.027   9.958
  808MPD2    N111959   0.618   3.555  10.184
  808MPD2    H711960   0.589   3.601  10.270
  809MPD2     C11961   1.119   0.008   9.675
  809MPD2    C111962   1.143   4.679   9.696
  809MPD2    C211963   1.045   4.605   9.749
  809MPD2    C311964   0.934   4.670   9.803
  809MPD2    C411965   0.917   0.005   9.789
  809MPD2    C511966   1.012   0.071   9.729
  809MPD2     H11967   1.053   4.498   9.769
  809MPD2    H111968   0.833   0.054   9.838
  809MPD2    H211969   1.189   0.074   9.625
  809MPD2    H311970   1.003   0.177   9.709
  809MPD2     N11971   0.832   4.602   9.871
  809MPD2    H511972   0.776   4.662   9.931
  809MPD2    N111973   1.262   4.606   9.668
  809MPD2    H711974   1.265   4.507   9.689
  810MPD2     C11975   0.412   3.112  10.745
  810MPD2    C111976   0.296   3.041  10.765
  810MPD2    C211977   0.215   3.090  10.864
  810MPD2    C311978   0.236   3.206  10.931
  810MPD2    C411979   0.351   3.274  10.901
  810MPD2    C511980   0.439   3.229  10.811
  810MPD2     H11981   0.130   3.028  10.890
  810MPD2    H111982   0.361   3.367  10.954
  810MPD2    H211983   0.489   3.080  10.676
  810MPD2    H311984   0.528   3.286  10.785
  810MPD2     N11985   0.141   3.258  11.018
  810MPD2    H511986   0.177   3.344  11.058
  810MPD2    N111987   0.250   2.938  10.680
  810MPD2    H711988   0.297   2.935  10.590
  811MPD2     C11989   4.420   2.946  10.126
  811MPD2    C111990   4.499   3.020  10.215
  811MPD2    C211991   4.485   3.159  10.216
  811MPD2    C311992   4.393   3.216  10.129
  811MPD2    C411993   4.318   3.143  10.037
  811MPD2    C511994   4.340   3.010  10.032
  811MPD2     H11995   4.541   3.216  10.289
  811MPD2    H111996   4.248   3.186   9.966
  811MPD2    H211997   4.427   2.839  10.136
  811MPD2    H311998   4.266   2.951   9.978
  811MPD2     N11999   4.383   3.358  10.138
  811MPD2    H512000   4.438   3.408  10.208
  811MPD2    N112001   4.561   2.948  10.315
  811MPD2    H712002   4.548   2.848  10.306
  812MPD2     C12003   3.266   2.906  12.315
  812MPD2    C112004   3.315   2.997  12.407
  812MPD2    C212005   3.384   2.957  12.518
  812MPD2    C312006   3.416   2.822  12.539
  812MPD2    C412007   3.373   2.731  12.439
  812MPD2    C512008   3.292   2.773  12.336
  812MPD2     H12009   3.431   3.031  12.581
  812MPD2    H112010   3.385   2.623  12.433
  812MPD2    H212011   3.204   2.921  12.228
  812MPD2    H312012   3.258   2.705  12.257
  812MPD2     N12013   3.478   2.779  12.654
  812MPD2    H512014   3.516   2.846  12.720
  812MPD2    N112015   3.295   3.134  12.383
  812MPD2    H712016   3.275   3.162  12.287
  813MPD2     C12017   2.717   0.127  13.062
  813MPD2    C112018   2.809   0.116  13.160
  813MPD2    C212019   2.770   0.077  13.286
  813MPD2    C312020   2.641   0.040  13.311
  813MPD2    C412021   2.549   0.052  13.212
  813MPD2    C512022   2.583   0.101  13.087
  813MPD2     H12023   2.844   0.062  13.363
  813MPD2    H112024   2.443   0.048  13.236
  813MPD2    H212025   2.745   0.160  12.962
  813MPD2    H312026   2.504   0.115  13.014
  813MPD2     N12027   2.608   0.015  13.445
  813MPD2    H512028   2.687   0.012  13.509
  813MPD2    N112029   2.944   0.126  13.127
  813MPD2    H712030   2.962   0.186  13.047
  814MPD2     C12031   3.392   1.138  12.862
  814MPD2    C112032   3.349   1.211  12.753
  814MPD2    C212033   3.364   1.351  12.760
  814MPD2    C312034   3.416   1.407  12.881
  814MPD2    C412035   3.459   1.324  12.982
  814MPD2    C512036   3.452   1.188  12.969
  814MPD2     H12037   3.333   1.407  12.672
  814MPD2    H112038   3.497   1.369  13.073
  814MPD2    H212039   3.374   1.032  12.863
  814MPD2    H312040   3.481   1.123  13.051
  814MPD2     N12041   3.437   1.545  12.897
  814MPD2    H512042   3.474   1.588  12.981
  814MPD2    N112043   3.283   1.154  12.642
  814MPD2    H712044   3.242   1.214  12.572
  815MPD2     C12045   3.761   0.013  11.954
  815MPD2    C112046   3.707   4.696  11.946
  815MPD2    C212047   3.575   4.674  11.976
  815MPD2    C312048   3.488   4.770  12.017
  815MPD2    C412049   3.542   0.091  12.026
  815MPD2    C512050   3.682   0.112  12.006
  815MPD2     H12051   3.529   4.580  11.946
  815MPD2    H112052   3.485   0.177  12.058
  815MPD2    H212053   3.866   0.026  11.929
  815MPD2    H312054   3.712   0.216  12.012
  815MPD2     N12055   3.350   4.733  12.035
  815MPD2    H512056   3.321   4.636  12.024
  815MPD2    N112057   3.790   4.600  11.887
  815MPD2    H712058   3.877   4.636  11.849
  816MPD2     C12059   3.549   3.265  17.334
  816MPD2    C112060   3.581   3.386  17.285
  816MPD2    C212061   3.703   3.399  17.226
  816MPD2    C312062   3.792   3.295  17.216
  816MPD2    C412063   3.752   3.175  17.260
  816MPD2    C512064   3.623   3.153  17.310
  816MPD2     H12065   3.734   3.498  17.196
  816MPD2    H112066   3.809   3.087  17.232
  816MPD2    H212067   3.453   3.253  17.381
  816MPD2    H312068   3.599   3.051  17.334
  816MPD2     N12069   3.911   3.320  17.155
  816MPD2    H512070   3.920   3.410  17.109
  816MPD2    N112071   3.493   3.497  17.305
  816MPD2    H712072   3.409   3.479  17.359
  817MPD2     C12073   3.381   0.737   9.992
  817MPD2    C112074   3.281   0.677   9.911
  817MPD2    C212075   3.199   0.754   9.831
  817MPD2    C312076   3.207   0.891   9.842
  817MPD2    C412077   3.297   0.948   9.931
  817MPD2    C512078   3.390   0.873   9.991
  817MPD2     H12079   3.131   0.716   9.755
  817MPD2    H112080   3.311   1.055   9.926
  817MPD2    H212081   3.452   0.681  10.051
  817MPD2    H312082   3.467   0.932  10.037
  817MPD2     N12083   3.128   0.962   9.749
  817MPD2    H512084   3.086   0.896   9.685
  817MPD2    N112085   3.273   0.533   9.892
  817MPD2    H712086   3.192   0.498   9.842
  818MPD2     C12087   2.149   0.701  10.202
  818MPD2    C112088   2.071   0.694  10.318
  818MPD2    C212089   1.989   0.588  10.337
  818MPD2    C312090   1.979   0.487  10.241
  818MPD2    C412091   2.053   0.491  10.123
  818MPD2    C512092   2.136   0.599  10.111
  818MPD2     H12093   1.926   0.585  10.425
  818MPD2    H112094   2.035   0.421  10.041
  818MPD2    H212095   2.205   0.790  10.176
  818MPD2    H312096   2.185   0.612  10.016
  818MPD2     N12097   1.892   0.381  10.255
  818MPD2    H512098   1.890   0.317  10.177
  818MPD2    N112099   2.061   0.798  10.414
  818MPD2    H712100   1.983   0.776  10.475
  819MPD2     C12101   0.461   2.046  15.809
  819MPD2    C112102   0.451   1.908  15.822
  819MPD2    C212103   0.535   1.842  15.915
  819MPD2    C312104   0.638   1.915  15.977
  819MPD2    C412105   0.651   2.052  15.961
  819MPD2    C512106   0.559   2.118  15.881
  819MPD2     H12107   0.531   1.736  15.938
  819MPD2    H112108   0.725   2.111  16.013
  819MPD2    H212109   0.396   2.103  15.744
  819MPD2    H312110   0.566   2.226  15.888
  819MPD2     N12111   0.714   1.839  16.068
  819MPD2    H512112   0.678   1.745  16.081
  819MPD2    N112113   0.346   1.842  15.753
  819MPD2    H712114   0.302   1.902  15.685
  820MPD2     C12115   4.352   1.933  15.141
  820MPD2    C112116   4.447   2.012  15.203
  820MPD2    C212117   4.536   1.956  15.287
  820MPD2    C312118   4.536   1.816  15.311
  820MPD2    C412119   4.426   1.739  15.264
  820MPD2    C512120   4.336   1.800  15.177
  820MPD2     H12121   4.617   2.017  15.324
  820MPD2    H112122   4.399   1.641  15.301
  820MPD2    H212123   4.291   1.979  15.064
  820MPD2    H312124   4.251   1.744  15.139
  820MPD2     N12125   4.622   1.756  15.405
  820MPD2    H512126   4.598   1.658  15.418
  820MPD2    N112127   4.446   2.150  15.173
  820MPD2    H712128   4.372   2.182  15.111
  821MPD2     C12129   0.754   3.277  13.406
  821MPD2    C112130   0.818   3.246  13.522
  821MPD2    C212131   0.936   3.308  13.555
  821MPD2    C312132   0.976   3.420  13.480
  821MPD2    C412133   0.911   3.450  13.364
  821MPD2    C512134   0.806   3.372  13.324
  821MPD2     H12135   0.990   3.283  13.645
  821MPD2    H112136   0.943   3.538  13.309
  821MPD2    H212137   0.659   3.231  13.379
  821MPD2    H312138   0.759   3.397  13.230
  821MPD2     N12139   1.089   3.493  13.514
  821MPD2    H512140   1.098   3.575  13.454
  821MPD2    N112141   0.770   3.135  13.609
  821MPD2    H712142   0.824   3.116  13.693
  822MPD2     C12143   1.272   3.352  15.957
  822MPD2    C112144   1.227   3.313  16.081
  822MPD2    C212145   1.125   3.391  16.137
  822MPD2    C312146   1.083   3.509  16.074
  822MPD2    C412147   1.142   3.549  15.958
  822MPD2    C512148   1.229   3.466  15.896
  822MPD2     H12149   1.075   3.364  16.229
  822MPD2    H112150   1.113   3.637  15.900
  822MPD2    H212151   1.342   3.296  15.896
  822MPD2    H312152   1.269   3.491  15.798
  822MPD2     N12153   0.991   3.585  16.148
  822MPD2    H512154   0.976   3.559  16.245
  822MPD2    N112155   1.268   3.200  16.156
  822MPD2    H712156   1.231   3.199  16.251
  823MPD2     C12157   0.656   3.716  16.910
  823MPD2    C112158   0.704   3.644  16.802
  823MPD2    C212159   0.735   3.513  16.829
  823MPD2    C312160   0.732   3.454  16.952
  823MPD2    C412161   0.669   3.520  17.054
  823MPD2    C512162   0.640   3.650  17.033
  823MPD2     H12163   0.790   3.461  16.751
  823MPD2    H112164   0.661   3.488  17.157
  823MPD2    H212165   0.636   3.822  16.902
  823MPD2    H312166   0.597   3.706  17.116
  823MPD2     N12167   0.794   3.336  16.981
  823MPD2    H512168   0.778   3.292  17.071
  823MPD2    N112169   0.698   3.707  16.672
  823MPD2    H712170   0.675   3.806  16.666
  824MPD2     C12171   1.860   2.598  16.413
  824MPD2    C112172   1.809   2.656  16.297
  824MPD2    C212173   1.868   2.620  16.174
  824MPD2    C312174   1.967   2.525  16.172
  824MPD2    C412175   2.016   2.471  16.292
  824MPD2    C512176   1.956   2.509  16.411
  824MPD2     H12177   1.831   2.671  16.085
  824MPD2    H112178   2.094   2.399  16.312
  824MPD2    H212179   1.816   2.604  16.512
  824MPD2    H312180   1.999   2.472  16.503
  824MPD2     N12181   2.016   2.481  16.047
  824MPD2    H512182   1.973   2.510  15.959
  824MPD2    N112183   1.704   2.749  16.296
  824MPD2    H712184   1.698   2.792  16.204
  825MPD2     C12185   2.429   2.773  15.711
  825MPD2    C112186   2.341   2.716  15.626
  825MPD2    C212187   2.295   2.787  15.516
  825MPD2    C312188   2.325   2.926  15.501
  825MPD2    C412189   2.419   2.976  15.591
  825MPD2    C512190   2.473   2.902  15.688
  825MPD2     H12191   2.222   2.742  15.450
  825MPD2    H112192   2.444   3.082  15.591
  825MPD2    H212193   2.456   2.710  15.795
  825MPD2    H312194   2.537   2.952  15.760
  825MPD2     N12195   2.261   3.015  15.404
  825MPD2    H512196   2.293   3.111  15.414
  825MPD2    N112197   2.294   2.587  15.668
  825MPD2    H712198   2.338   2.539  15.745
  826MPD2     C12199   1.996   2.263  14.168
  826MPD2    C112200   1.985   2.350  14.058
  826MPD2    C212201   1.901   2.461  14.067
  826MPD2    C312202   1.842   2.498  14.188
  826MPD2    C412203   1.867   2.416  14.297
  826MPD2    C512204   1.942   2.302  14.288
  826MPD2     H12205   1.879   2.521  13.979
  826MPD2    H112206   1.818   2.443  14.390
  826MPD2    H212207   2.054   2.173  14.153
  826MPD2    H312208   1.952   2.236  14.373
  826MPD2     N12209   1.744   2.599  14.201
  826MPD2    H512210   1.701   2.618  14.291
  826MPD2    N112211   2.061   2.307  13.945
  826MPD2    H712212   2.112   2.220  13.957
  827MPD2     C12213   2.448   4.491  10.205
  827MPD2    C112214   2.413   4.377  10.274
  827MPD2    C212215   2.319   4.291  10.219
  827MPD2    C312216   2.248   4.322  10.102
  827MPD2    C412217   2.269   4.445  10.051
  827MPD2    C512218   2.365   4.523  10.103
  827MPD2     H12219   2.299   4.195  10.266
  827MPD2    H112220   2.210   4.481   9.967
  827MPD2    H212221   2.540   4.548  10.217
  827MPD2    H312222   2.378   4.619  10.054
  827MPD2     N12223   2.156   4.227  10.042
  827MPD2    H512224   2.154   4.134  10.083
  827MPD2    N112225   2.491   4.349  10.393
  827MPD2    H712226   2.564   4.413  10.422
  828MPD2     C12227   1.444   3.867  12.440
  828MPD2    C112228   1.330   3.877  12.373
  828MPD2    C212229   1.335   3.929  12.247
  828MPD2    C312230   1.453   3.969  12.183
  828MPD2    C412231   1.568   3.949  12.250
  828MPD2    C512232   1.567   3.893  12.378
  828MPD2     H12233   1.240   3.937  12.195
  828MPD2    H112234   1.664   3.964  12.202
  828MPD2    H212235   1.457   3.832  12.542
  828MPD2    H312236   1.664   3.871  12.421
  828MPD2     N12237   1.463   4.019  12.053
  828MPD2    H512238   1.557   4.045  12.025
  828MPD2    N112239   1.202   3.843  12.426
  828MPD2    H712240   1.125   3.859  12.362
  829MPD2     C12241   0.598   3.771  11.889
  829MPD2    C112242   0.531   3.771  12.009
  829MPD2    C212243   0.605   3.736  12.119
  829MPD2    C312244   0.729   3.678  12.109
  829MPD2    C412245   0.788   3.663  11.981
  829MPD2    C512246   0.721   3.722  11.876
  829MPD2     H12247   0.560   3.751  12.216
  829MPD2    H112248   0.887   3.626  11.961
  829MPD2    H212249   0.548   3.815  11.803
  829MPD2    H312250   0.759   3.707  11.775
  829MPD2     N12251   0.818   3.632  12.212
  829MPD2    H512252   0.909   3.593  12.190
  829MPD2    N112253   0.404   3.841  12.021
  829MPD2    H712254   0.396   3.921  11.959
  830MPD2     C12255   1.390   1.691  16.187
  830MPD2    C112256   1.284   1.662  16.101
  830MPD2    C212257   1.280   1.715  15.972
  830MPD2    C312258   1.388   1.792  15.924
  830MPD2    C412259   1.491   1.821  16.006
  830MPD2    C512260   1.488   1.770  16.137
  830MPD2     H12261   1.193   1.691  15.912
  830MPD2    H112262   1.571   1.886  15.973
  830MPD2    H212263   1.395   1.658  16.291
  830MPD2    H312264   1.566   1.798  16.206
  830MPD2     N12265   1.383   1.876  15.811
  830MPD2    H512266   1.468   1.931  15.805
  830MPD2    N112267   1.185   1.577  16.154
  830MPD2    H712268   1.193   1.553  16.252
  831MPD2     C12269   1.250   3.738  16.458
  831MPD2    C112270   1.291   3.616  16.402
  831MPD2    C212271   1.217   3.505  16.424
  831MPD2    C312272   1.096   3.512  16.495
  831MPD2    C412273   1.061   3.630  16.558
  831MPD2    C512274   1.144   3.739  16.549
  831MPD2     H12275   1.242   3.415  16.369
  831MPD2    H112276   0.975   3.620  16.624
  831MPD2    H212277   1.307   3.827  16.435
  831MPD2    H312278   1.118   3.833  16.597
  831MPD2     N12279   0.997   3.409  16.491
  831MPD2    H512280   0.909   3.432  16.537
  831MPD2    N112281   1.396   3.621  16.312
  831MPD2    H712282   1.410   3.709  16.264
  832MPD2     C12283   4.459   4.583  17.354
  832MPD2    C112284   4.409   4.712  17.350
  832MPD2    C212285   4.306   4.736  17.262
  832MPD2    C312286   4.258   4.639  17.180
  832MPD2    C412287   4.310   4.512  17.182
  832MPD2    C512288   4.415   4.488  17.269
  832MPD2     H12289   4.268   0.032  17.249
  832MPD2    H112290   4.274   4.429  17.122
  832MPD2    H212291   4.544   4.564  17.418
  832MPD2    H312292   4.467   4.393  17.278
  832MPD2     N12293   4.165   4.658  17.079
  832MPD2    H512294   4.127   4.588  17.017
  832MPD2    N112295   4.468   4.800  17.441
  832MPD2    H712296   4.538   4.753  17.497
  833MPD2     C12297   1.573   1.607  13.097
  833MPD2    C112298   1.641   1.709  13.038
  833MPD2    C212299   1.763   1.681  12.983
  833MPD2    C312300   1.814   1.552  12.974
  833MPD2    C412301   1.747   1.451  13.036
  833MPD2    C512302   1.632   1.482  13.100
  833MPD2     H12303   1.811   1.761  12.928
  833MPD2    H112304   1.788   1.351  13.029
  833MPD2    H212305   1.475   1.618  13.143
  833MPD2    H312306   1.589   1.400  13.156
  833MPD2     N12307   1.926   1.533  12.890
  833MPD2    H512308   1.947   1.435  12.875
  833MPD2    N112309   1.576   1.828  13.020
  833MPD2    H712310   1.478   1.836  13.045
  834MPD2     C12311   1.642   1.223  12.000
  834MPD2    C112312   1.731   1.319  11.962
  834MPD2    C212313   1.821   1.364  12.058
  834MPD2    C312314   1.805   1.334  12.195
  834MPD2    C412315   1.697   1.263  12.234
  834MPD2    C512316   1.625   1.205  12.137
  834MPD2     H12317   1.906   1.418  12.017
  834MPD2    H112318   1.659   1.247  12.334
  834MPD2    H212319   1.580   1.168  11.931
  834MPD2    H312320   1.557   1.125  12.163
  834MPD2     N12321   1.898   1.405  12.285
  834MPD2    H512322   1.962   1.474  12.249
  834MPD2    N112323   1.732   1.365  11.821
  834MPD2    H712324   1.656   1.328  11.764
  835MPD2     C12325   1.860   4.110  11.339
  835MPD2    C112326   1.833   4.221  11.415
  835MPD2    C212327   1.923   4.244  11.524
  835MPD2    C312328   2.022   4.157  11.562
  835MPD2    C412329   2.050   4.047  11.483
  835MPD2    C512330   1.966   4.030  11.370
  835MPD2     H12331   1.906   4.341  11.569
  835MPD2    H112332   2.138   3.987  11.503
  835MPD2    H212333   1.804   4.086  11.250
  835MPD2    H312334   1.993   3.959  11.293
  835MPD2     N12335   2.102   4.176  11.672
  835MPD2    H512336   2.156   4.100  11.712
  835MPD2    N112337   1.730   4.315  11.409
  835MPD2    H712338   1.721   4.375  11.491
  836MPD2     C12339   1.527   4.342  12.060
  836MPD2    C112340   1.620   4.296  12.143
  836MPD2    C212341   1.581   4.260  12.271
  836MPD2    C312342   1.455   4.302  12.317
  836MPD2    C412343   1.367   4.364  12.238
  836MPD2    C512344   1.398   4.371  12.100
  836MPD2     H12345   1.655   4.219  12.339
  836MPD2    H112346   1.265   4.390  12.263
  836MPD2    H212347   1.557   4.377  11.962
  836MPD2    H312348   1.333   4.425  12.033
  836MPD2     N12349   1.403   4.275  12.450
  836MPD2    H512350   1.303   4.294  12.458
  836MPD2    N112351   1.745   4.264  12.089
  836MPD2    H712352   1.764   4.283  11.991
  837MPD2     C12353   4.751   4.044   9.977
  837MPD2    C112354   4.625   4.077  10.023
  837MPD2    C212355   4.583   4.205   9.989
  837MPD2    C312356   4.661   4.293   9.915
  837MPD2    C412357   4.787   4.262   9.878
  837MPD2    C512358   0.025   4.135   9.902
  837MPD2     H12359   4.479   4.222  10.011
  837MPD2    H112360   0.046   4.337   9.833
  837MPD2    H212361   4.789   3.945   9.999
  837MPD2    H312362   0.125   4.109   9.871
  837MPD2     N12363   4.598   4.413   9.879
  837MPD2    H512364   4.519   4.433   9.939
  837MPD2    N112365   4.536   3.991  10.090
  837MPD2    H712366   4.445   4.032  10.108
  838MPD2     C12367   3.349   2.278  11.963
  838MPD2    C112368   3.377   2.253  12.098
  838MPD2    C212369   3.275   2.193  12.172
  838MPD2    C312370   3.150   2.162  12.116
  838MPD2    C412371   3.135   2.174  11.982
  838MPD2    C512372   3.227   2.239  11.911
  838MPD2     H12373   3.286   2.180  12.279
  838MPD2    H112374   3.054   2.132  11.923
  838MPD2    H212375   3.414   2.335  11.898
  838MPD2    H312376   3.212   2.247  11.804
  838MPD2     N12377   3.051   2.109  12.198
  838MPD2    H512378   3.064   2.121  12.298
  838MPD2    N112379   3.508   2.269  12.154
  838MPD2    H712380   3.521   2.282  12.254
  839MPD2     C12381   3.135   1.567  12.097
  839MPD2    C112382   3.177   1.559  11.970
  839MPD2    C212383   3.256   1.662  11.914
  839MPD2    C312384   3.289   1.771  11.997
  839MPD2    C412385   3.245   1.771  12.130
  839MPD2    C512386   3.170   1.672  12.177
  839MPD2     H12387   3.300   1.657  11.815
  839MPD2    H112388   3.281   1.852  12.193
  839MPD2    H212389   3.089   1.479  12.140
  839MPD2    H312390   3.150   1.674  12.284
  839MPD2     N12391   3.370   1.878  11.950
  839MPD2    H512392   3.381   1.955  12.015
  839MPD2    N112393   3.140   1.458  11.879
  839MPD2    H712394   3.185   1.453  11.788
  840MPD2     C12395   3.064   4.445  10.435
  840MPD2    C112396   3.051   4.385  10.554
  840MPD2    C212397   3.143   4.413  10.648
  840MPD2    C312398   3.244   4.491  10.623
  840MPD2    C412399   3.244   4.560  10.508
  840MPD2    C512400   3.168   4.526  10.402
  840MPD2     H12401   3.138   4.367  10.745
  840MPD2    H112402   3.325   4.630  10.488
  840MPD2    H212403   2.983   4.443  10.362
  840MPD2    H312404   3.174   4.577  10.306
  840MPD2     N12405   3.338   4.532  10.722
  840MPD2    H512406   3.390   4.618  10.709
  840MPD2    N112407   2.929   4.320  10.572
  840MPD2    H712408   2.866   4.329  10.493
  841MPD2     C12409   2.613   3.678  15.311
  841MPD2    C112410   2.567   3.709  15.184
  841MPD2    C212411   2.560   3.834  15.134
  841MPD2    C312412   2.619   3.937  15.213
  841MPD2    C412413   2.651   3.911  15.341
  841MPD2    C512414   2.658   3.785  15.384
  841MPD2     H12415   2.535   3.851  15.030
  841MPD2    H112416   2.688   3.987  15.410
  841MPD2    H212417   2.611   3.585  15.366
  841MPD2    H312418   2.698   3.771  15.484
  841MPD2     N12419   2.639   4.066  15.146
  841MPD2    H512420   2.633   4.066  15.045
  841MPD2    N112421   2.504   3.607  15.106
  841MPD2    H712422   2.475   3.643  15.016
  842MPD2     C12423   3.591   0.187  17.034
  842MPD2    C112424   3.497   0.096  16.994
  842MPD2    C212425   3.446   0.005  17.089
  842MPD2    C312426   3.488   0.011  17.220
  842MPD2    C412427   3.589   0.100  17.256
  842MPD2    C512428   3.645   0.181  17.163
  842MPD2     H12429   3.362   4.748  17.059
  842MPD2    H112430   3.617   0.120  17.358
  842MPD2    H212431   3.633   0.258  16.964
  842MPD2    H312432   3.715   0.260  17.189
  842MPD2     N12433   3.420   4.754  17.328
  842MPD2    H512434   3.434   4.792  17.421
  842MPD2    N112435   3.438   0.119  16.873
  842MPD2    H712436   3.462   0.205  16.823
  843MPD2     C12437   0.357   0.881  17.976
  843MPD2    C112438   0.390   0.820  18.087
  843MPD2    C212439   0.488   0.879  18.168
  843MPD2    C312440   0.534   1.009  18.141
  843MPD2    C412441   0.481   1.077  18.035
  843MPD2    C512442   0.404   1.011  17.944
  843MPD2     H12443   0.532   0.818  18.247
  843MPD2    H112444   0.514   1.174  18.000
  843MPD2    H212445   0.283   0.840  17.908
  843MPD2    H312446   0.365   1.068  17.862
  843MPD2     N12447   0.638   1.075  18.219
  843MPD2    H512448   0.667   1.160  18.172
  843MPD2    N112449   0.318   0.704  18.122
  843MPD2    H712450   0.253   0.665  18.055
  844MPD2     C12451   3.971   4.501  16.553
  844MPD2    C112452   4.094   4.450  16.540
  844MPD2    C212453   4.206   4.518  16.585
  844MPD2    C312454   4.195   4.646  16.637
  844MPD2    C412455   4.066   4.700  16.647
  844MPD2    C512456   3.952   4.622  16.614
  844MPD2     H12457   4.299   4.462  16.583
  844MPD2    H112458   4.046   4.797  16.690
  844MPD2    H212459   3.885   4.449  16.514
  844MPD2    H312460   3.851   4.661  16.616
  844MPD2     N12461   4.314   4.717  16.674
  844MPD2    H512462   4.402   4.667  16.672
  844MPD2    N112463   4.114   4.321  16.484
  844MPD2    H712464   4.209   4.286  16.487
  845MPD2     C12465   4.600   0.798  17.220
  845MPD2    C112466   4.504   0.714  17.276
  845MPD2    C212467   4.496   0.582  17.233
  845MPD2    C312468   4.567   0.546  17.115
  845MPD2    C412469   4.660   0.628  17.062
  845MPD2    C512470   4.674   0.752  17.119
  845MPD2     H12471   4.425   0.516  17.282
  845MPD2    H112472   4.732   0.604  16.985
  845MPD2    H212473   4.610   0.900  17.256
  845MPD2    H312474   4.756   0.807  17.075
  845MPD2     N12475   4.539   0.421  17.055
  845MPD2    H512476   4.477   0.350  17.093
  845MPD2    N112477   4.437   0.768  17.391
  845MPD2    H712478   4.434   0.869  17.389
  846MPD2     C12479   1.007   0.960  13.864
  846MPD2    C112480   0.911   1.061  13.891
  846MPD2    C212481   0.881   1.084  14.023
  846MPD2    C312482   0.934   1.005  14.126
  846MPD2    C412483   1.012   0.899  14.094
  846MPD2    C512484   1.043   0.875  13.962
  846MPD2     H12485   0.805   1.160  14.037
  846MPD2    H112486   1.052   0.819  14.156
  846MPD2    H212487   1.045   0.942  13.764
  846MPD2    H312488   1.095   0.785  13.933
  846MPD2     N12489   0.893   1.037  14.258
  846MPD2    H512490   0.809   1.091  14.277
  846MPD2    N112491   0.857   1.146  13.790
  846MPD2    H712492   0.817   1.235  13.818
  847MPD2     C12493   1.018   2.042  14.513
  847MPD2    C112494   1.001   2.021  14.643
  847MPD2    C212495   1.086   1.941  14.702
  847MPD2    C312496   1.190   1.873  14.637
  847MPD2    C412497   1.206   1.894  14.510
  847MPD2    C512498   1.113   1.977  14.450
  847MPD2     H12499   1.085   1.936  14.810
  847MPD2    H112500   1.291   1.857  14.454
  847MPD2    H212501   0.956   2.107  14.451
  847MPD2    H312502   1.128   1.998  14.344
  847MPD2     N12503   1.289   1.803  14.705
  847MPD2    H512504   1.367   1.779  14.644
  847MPD2    N112505   0.913   2.095  14.726
  847MPD2    H712506   0.928   2.081  14.825
  848MPD2     C12507   3.731   0.202  16.478
  848MPD2    C112508   3.791   0.251  16.595
  848MPD2    C212509   3.840   0.380  16.591
  848MPD2    C312510   3.836   0.455  16.474
  848MPD2    C412511   3.780   0.400  16.363
  848MPD2    C512512   3.714   0.281  16.365
  848MPD2     H12513   3.886   0.422  16.680
  848MPD2    H112514   3.777   0.458  16.272
  848MPD2    H212515   3.688   0.103  16.469
  848MPD2    H312516   3.657   0.249  16.279
  848MPD2     N12517   3.879   0.593  16.456
  848MPD2    H512518   3.874   0.635  16.363
  848MPD2    N112519   3.812   0.181  16.710
  848MPD2    H712520   3.865   0.225  16.785
  849MPD2     C12521   2.490   0.021  14.582
  849MPD2    C112522   2.604   0.085  14.618
  849MPD2    C212523   2.693   0.025  14.705
  849MPD2    C312524   2.677   4.697  14.755
  849MPD2    C412525   2.557   4.637  14.717
  849MPD2    C512526   2.468   4.701  14.638
  849MPD2     H12527   2.792   0.070  14.710
  849MPD2    H112528   2.532   4.535  14.746
  849MPD2    H212529   2.421   0.065  14.511
  849MPD2    H312530   2.373   4.652  14.618
  849MPD2     N12531   2.787   4.622  14.799
  849MPD2    H512532   2.766   4.523  14.805
  849MPD2    N112533   2.638   0.203  14.541
  849MPD2    H712534   2.581   0.221  14.459
  850MPD2     C12535   1.011   2.752  14.814
  850MPD2    C112536   1.048   2.869  14.878
  850MPD2    C212537   1.181   2.892  14.902
  850MPD2    C312538   1.274   2.784  14.901
  850MPD2    C412539   1.235   2.667  14.847
  850MPD2    C512540   1.112   2.657  14.791
  850MPD2     H12541   1.205   2.989  14.944
  850MPD2    H112542   1.312   2.591  14.834
  850MPD2    H212543   0.907   2.738  14.786
  850MPD2    H312544   1.087   2.570  14.731
  850MPD2     N12545   1.404   2.791  14.960
  850MPD2    H512546   1.470   2.717  14.938
  850MPD2    N112547   0.945   2.958  14.902
  850MPD2    H712548   0.860   2.938  14.849
  851MPD2     C12549   1.517   2.820  15.541
  851MPD2    C112550   1.405   2.775  15.475
  851MPD2    C212551   1.375   2.638  15.469
  851MPD2    C312552   1.463   2.548  15.521
  851MPD2    C412553   1.584   2.594  15.563
  851MPD2    C512554   1.600   2.725  15.600
  851MPD2     H12555   1.286   2.588  15.432
  851MPD2    H112556   1.663   2.533  15.604
  851MPD2    H212557   1.531   2.925  15.560
  851MPD2    H312558   1.688   2.755  15.656
  851MPD2     N12559   1.419   2.411  15.524
  851MPD2    H512560   1.329   2.386  15.484
  851MPD2    N112561   1.316   2.867  15.425
  851MPD2    H712562   1.340   2.964  15.439
  852MPD2     C12563   1.021   0.437  10.517
  852MPD2    C112564   0.966   0.527  10.609
  852MPD2    C212565   0.970   0.662  10.589
  852MPD2    C312566   1.019   0.707  10.469
  852MPD2    C412567   1.064   0.620  10.372
  852MPD2    C512568   1.076   0.481  10.395
  852MPD2     H12569   0.917   0.732  10.653
  852MPD2    H112570   1.108   0.656  10.280
  852MPD2    H212571   1.012   0.329  10.528
  852MPD2    H312572   1.098   0.419  10.309
  852MPD2     N12573   1.014   0.848  10.451
  852MPD2    H512574   0.985   0.896  10.536
  852MPD2    N112575   0.918   0.494  10.737
  852MPD2    H712576   0.894   0.575  10.794
  853MPD2     C12577   2.481   0.180  12.658
  853MPD2    C112578   2.544   0.300  12.673
  853MPD2    C212579   2.623   0.347  12.566
  853MPD2    C312580   2.632   0.271  12.447
  853MPD2    C412581   2.570   0.150  12.441
  853MPD2    C512582   2.493   0.110  12.545
  853MPD2     H12583   2.663   0.447  12.580
  853MPD2    H112584   2.557   0.103  12.344
  853MPD2    H212585   2.412   0.137  12.729
  853MPD2    H312586   2.447   0.012  12.540
  853MPD2     N12587   2.695   0.316  12.333
  853MPD2    H512588   2.714   0.256  12.254
  853MPD2    N112589   2.519   0.370  12.794
  853MPD2    H712590   2.451   0.332  12.859
  854MPD2     C12591   4.167   0.399  12.936
  854MPD2    C112592   4.258   0.494  12.910
  854MPD2    C212593   4.387   0.491  12.963
  854MPD2    C312594   4.413   0.380  13.050
  854MPD2    C412595   4.321   0.279  13.065
  854MPD2    C512596   4.197   0.283  13.008
  854MPD2     H12597   4.470   0.558  12.947
  854MPD2    H112598   4.328   0.194  13.132
  854MPD2    H212599   4.069   0.407  12.891
  854MPD2    H312600   4.122   0.208  13.030
  854MPD2     N12601   4.536   0.373  13.122
  854MPD2    H512602   4.555   0.286  13.172
  854MPD2    N112603   4.216   0.603  12.827
  854MPD2    H712604   4.118   0.609  12.800
  855MPD2     C12605   4.288   0.361  13.637
  855MPD2    C112606   4.402   0.292  13.670
  855MPD2    C212607   4.525   0.349  13.632
  855MPD2    C312608   4.537   0.475  13.563
  855MPD2    C412609   4.416   0.532  13.535
  855MPD2    C512610   4.297   0.477  13.573
  855MPD2     H12611   4.619   0.297  13.651
  855MPD2    H112612   4.411   0.625  13.480
  855MPD2    H212613   4.195   0.325  13.680
  855MPD2    H312614   4.207   0.524  13.535
  855MPD2     N12615   4.649   0.542  13.522
  855MPD2    H512616   4.633   0.623  13.463
  855MPD2    N112617   4.417   0.174  13.744
  855MPD2    H712618   4.509   0.152  13.781
  856MPD2     C12619   2.095   0.952  14.440
  856MPD2    C112620   2.167   1.046  14.368
  856MPD2    C212621   2.092   1.148  14.303
  856MPD2    C312622   1.947   1.154  14.319
  856MPD2    C412623   1.879   1.061  14.401
  856MPD2    C512624   1.953   0.954  14.452
  856MPD2     H12625   2.144   1.224  14.245
  856MPD2    H112626   1.772   1.054  14.411
  856MPD2    H212627   2.154   0.878  14.492
  856MPD2    H312628   1.911   0.877  14.516
  856MPD2     N12629   1.876   1.259  14.267
  856MPD2    H512630   1.779   1.276  14.290
  856MPD2    N112631   2.308   1.055  14.358
  856MPD2    H712632   2.328   1.134  14.299
  857MPD2     C12633   3.279   3.645  13.281
  857MPD2    C112634   3.405   3.652  13.213
  857MPD2    C212635   3.461   3.773  13.176
  857MPD2    C312636   3.404   3.892  13.209
  857MPD2    C412637   3.287   3.893  13.287
  857MPD2    C512638   3.232   3.773  13.324
  857MPD2     H12639   3.543   3.785  13.106
  857MPD2    H112640   3.242   3.986  13.320
  857MPD2    H212641   3.242   3.552  13.323
  857MPD2    H312642   3.143   3.781  13.386
  857MPD2     N12643   3.472   4.009  13.174
  857MPD2    H512644   3.552   4.004  13.112
  857MPD2    N112645   3.476   3.534  13.182
  857MPD2    H712646   3.419   3.452  13.200
  858MPD2     C12647   4.238   2.409  17.007
  858MPD2    C112648   4.376   2.397  17.000
  858MPD2    C212649   4.455   2.478  17.084
  858MPD2    C312650   4.389   2.563  17.168
  858MPD2    C412651   4.254   2.578  17.166
  858MPD2    C512652   4.179   2.504  17.085
  858MPD2     H12653   4.563   2.467  17.082
  858MPD2    H112654   4.202   2.643  17.235
  858MPD2    H212655   4.161   2.357  16.950
  858MPD2    H312656   4.071   2.514  17.082
  858MPD2     N12657   4.458   2.640  17.258
  858MPD2    H512658   4.398   2.710  17.301
  858MPD2    N112659   4.420   2.297  16.905
  858MPD2    H712660   4.339   2.258  16.858
  859MPD2     C12661   3.240   4.321  15.834
  859MPD2    C112662   3.170   4.346  15.718
  859MPD2    C212663   3.137   4.245  15.631
  859MPD2    C312664   3.164   4.115  15.666
  859MPD2    C412665   3.233   4.094  15.786
  859MPD2    C512666   3.280   4.195  15.864
  859MPD2     H12667   3.096   4.274  15.536
  859MPD2    H112668   3.267   3.994  15.810
  859MPD2    H212669   3.273   4.403  15.897
  859MPD2    H312670   3.347   4.186  15.948
  859MPD2     N12671   3.143   4.001  15.594
  859MPD2    H512672   3.171   3.911  15.632
  859MPD2    N112673   3.115   4.481  15.703
  859MPD2    H712674   3.152   4.548  15.769
  860MPD2     C12675   0.915   0.045  11.916
  860MPD2    C112676   0.931   0.100  12.039
  860MPD2    C212677   0.824   0.089  12.135
  860MPD2    C312678   0.716   0.011  12.109
  860MPD2    C412679   0.709   4.750  11.986
  860MPD2    C512680   0.803   4.776  11.893
  860MPD2     H12681   0.835   0.123  12.238
  860MPD2    H112682   0.630   4.682  11.955
  860MPD2    H212683   0.978   0.058  11.829
  860MPD2    H312684   0.792   4.736  11.793
  860MPD2     N12685   0.608   0.001  12.199
  860MPD2    H512686   0.641   0.034  12.289
  860MPD2    N112687   1.045   0.173  12.075
  860MPD2    H712688   1.054   0.206  12.171
  861MPD2     C12689   4.189   3.216  11.371
  861MPD2    C112690   4.121   3.317  11.441
  861MPD2    C212691   4.015   3.377  11.375
  861MPD2    C312692   3.977   3.346  11.246
  861MPD2    C412693   4.054   3.255  11.172
  861MPD2    C512694   4.155   3.196  11.240
  861MPD2     H12695   3.959   3.453  11.429
  861MPD2    H112696   4.019   3.224  11.075
  861MPD2    H212697   4.269   3.157  11.414
  861MPD2    H312698   4.212   3.113  11.198
  861MPD2     N12699   3.860   3.397  11.176
  861MPD2    H512700   3.862   3.370  11.078
  861MPD2    N112701   4.144   3.351  11.579
  861MPD2    H712702   4.079   3.416  11.623
  862MPD2     C12703   3.674   3.464  10.547
  862MPD2    C112704   3.621   3.394  10.650
  862MPD2    C212705   3.609   3.256  10.639
  862MPD2    C312706   3.638   3.189  10.524
  862MPD2    C412707   3.695   3.262  10.421
  862MPD2    C512708   3.709   3.397  10.433
  862MPD2     H12709   3.563   3.198  10.719
  862MPD2    H112710   3.722   3.205  10.333
  862MPD2    H212711   3.674   3.572  10.555
  862MPD2    H312712   3.730   3.459  10.347
  862MPD2     N12713   3.620   3.052  10.506
  862MPD2    H512714   3.652   3.022  10.415
  862MPD2    N112715   3.574   3.452  10.772
  862MPD2    H712716   3.558   3.391  10.852
  863MPD2     C12717   2.458   1.154  17.146
  863MPD2    C112718   2.508   1.278  17.163
  863MPD2    C212719   2.616   1.287  17.249
  863MPD2    C312720   2.665   1.181  17.324
  863MPD2    C412721   2.619   1.057  17.296
  863MPD2    C512722   2.518   1.038  17.207
  863MPD2     H12723   2.656   1.386  17.267
  863MPD2    H112724   2.664   0.965  17.332
  863MPD2    H212725   2.372   1.134  17.083
  863MPD2    H312726   2.481   0.940  17.182
  863MPD2     N12727   2.772   1.187  17.420
  863MPD2    H512728   2.782   1.105  17.479
  863MPD2    N112729   2.452   1.380  17.079
  863MPD2    H712730   2.366   1.352  17.033
  864MPD2     C12731   2.957   3.224  17.176
  864MPD2    C112732   3.030   3.113  17.142
  864MPD2    C212733   3.158   3.128  17.091
  864MPD2    C312734   3.211   3.255  17.066
  864MPD2    C412735   3.136   3.362  17.096
  864MPD2    C512736   3.012   3.346  17.153
  864MPD2     H12737   3.214   3.037  17.071
  864MPD2    H112738   3.165   3.466  17.086
  864MPD2    H212739   2.860   3.221  17.224
  864MPD2    H312740   2.948   3.427  17.185
  864MPD2     N12741   3.338   3.272  17.014
  864MPD2    H512742   3.368   3.363  16.981
  864MPD2    N112743   2.977   2.985  17.170
  864MPD2    H712744   2.905   2.975  17.241
  865MPD2     C12745   3.145   2.969  16.276
  865MPD2    C112746   3.271   2.919  16.316
  865MPD2    C212747   3.344   2.993  16.410
  865MPD2    C312748   3.296   3.111  16.467
  865MPD2    C412749   3.169   3.140  16.438
  865MPD2    C512750   3.100   3.081  16.335
  865MPD2     H12751   3.444   2.961  16.435
  865MPD2    H112752   3.135   3.234  16.480
  865MPD2    H212753   3.085   2.929  16.195
  865MPD2    H312754   3.002   3.124  16.314
  865MPD2     N12755   3.377   3.198  16.540
  865MPD2    H512756   3.333   3.259  16.608
  865MPD2    N112757   3.320   2.797  16.266
  865MPD2    H712758   3.254   2.729  16.230
  866MPD2     C12759   4.747   3.619  11.852
  866MPD2    C112760   4.719   3.563  11.728
  866MPD2    C212761   4.601   3.591  11.651
  866MPD2    C312762   4.509   3.677  11.707
  866MPD2    C412763   4.535   3.734  11.829
  866MPD2    C512764   4.649   3.703  11.897
  866MPD2     H12765   4.576   3.545  11.556
  866MPD2    H112766   4.460   3.798  11.874
  866MPD2    H212767   0.034   3.613  11.910
  866MPD2    H312768   4.664   3.748  11.995
  866MPD2     N12769   4.395   3.715  11.637
  866MPD2    H512770   4.341   3.790  11.679
  866MPD2    N112771   0.018   3.485  11.679
  866MPD2    H712772   0.106   3.477  11.730
  867MPD2     C12773   1.802   2.898  16.791
  867MPD2    C112774   1.896   2.871  16.890
  867MPD2    C212775   1.940   2.973  16.964
  867MPD2    C312776   1.886   3.098  16.951
  867MPD2    C412777   1.799   3.121  16.843
  867MPD2    C512778   1.749   3.020  16.774
  867MPD2     H12779   2.018   2.959  17.037
  867MPD2    H112780   1.753   3.219  16.833
  867MPD2    H212781   1.774   2.833  16.709
  867MPD2    H312782   1.693   3.044  16.685
  867MPD2     N12783   1.933   3.209  17.017
  867MPD2    H512784   1.875   3.290  16.995
  867MPD2    N112785   1.954   2.739  16.889
  867MPD2    H712786   1.896   2.667  16.847
  868MPD2     C12787   3.880   1.501  13.378
  868MPD2    C112788   3.947   1.620  13.404
  868MPD2    C212789   3.878   1.731  13.438
  868MPD2    C312790   3.742   1.721  13.454
  868MPD2    C412791   3.672   1.605  13.432
  868MPD2    C512792   3.744   1.492  13.391
  868MPD2     H12793   3.934   1.820  13.462
  868MPD2    H112794   3.566   1.590  13.451
  868MPD2    H212795   3.935   1.408  13.377
  868MPD2    H312796   3.696   1.395  13.384
  868MPD2     N12797   3.676   1.835  13.513
  868MPD2    H512798   3.736   1.906  13.555
  868MPD2    N112799   4.082   1.621  13.380
  868MPD2    H712800   4.115   1.532  13.344
  869MPD2     C12801   4.593   0.111  19.748
  869MPD2    C112802   4.694   0.017  19.717
  869MPD2    C212803   0.002   0.045  19.654
  869MPD2    C312804   0.025   0.174  19.613
  869MPD2    C412805   4.728   0.268  19.636
  869MPD2    C512806   4.612   0.241  19.698
  869MPD2     H12807   0.084   4.778  19.653
  869MPD2    H112808   4.746   0.371  19.610
  869MPD2    H212809   4.497   0.077  19.784
  869MPD2    H312810   4.543   0.324  19.709
  869MPD2     N12811   0.143   0.214  19.550
  869MPD2    H512812   0.150   0.311  19.520
  869MPD2    N112813   4.670   4.691  19.759
  869MPD2    H712814   4.611   4.686  19.842
  870MPD2     C12815   0.259   3.499  19.023
  870MPD2    C112816   0.129   3.470  19.052
  870MPD2    C212817   0.027   3.550  19.004
  870MPD2    C312818   0.055   3.659  18.918
  870MPD2    C412819   0.187   3.681  18.880
  870MPD2    C512820   0.289   3.607  18.936
  870MPD2     H12821   4.729   3.532  19.032
  870MPD2    H112822   0.219   3.767  18.822
  870MPD2    H212823   0.332   3.428  19.056
  870MPD2    H312824   0.392   3.629  18.914
  870MPD2     N12825   4.760   3.746  18.884
  870MPD2    H512826   4.678   3.753  18.943
  870MPD2    N112827   0.108   3.349  19.125
  870MPD2    H712828   0.190   3.305  19.165
  871MPD2     C12829   1.143   2.822  16.454
  871MPD2    C112830   1.151   2.795  16.589
  871MPD2    C212831   1.226   2.682  16.629
  871MPD2    C312832   1.295   2.605  16.532
  871MPD2    C412833   1.290   2.637  16.398
  871MPD2    C512834   1.218   2.748  16.361
  871MPD2     H12835   1.238   2.668  16.736
  871MPD2    H112836   1.339   2.573  16.325
  871MPD2    H212837   1.083   2.899  16.407
  871MPD2    H312838   1.210   2.764  16.254
  871MPD2     N12839   1.384   2.505  16.579
  871MPD2    H512840   1.377   2.495  16.680
  871MPD2    N112841   1.067   2.866  16.676
  871MPD2    H712842   1.012   2.938  16.632
  872MPD2     C12843   1.892   0.475  14.382
  872MPD2    C112844   1.845   0.588  14.319
  872MPD2    C212845   1.707   0.624  14.325
  872MPD2    C312846   1.625   0.546  14.408
  872MPD2    C412847   1.674   0.435  14.467
  872MPD2    C512848   1.805   0.398  14.458
  872MPD2     H12849   1.665   0.706  14.269
  872MPD2    H112850   1.606   0.370  14.520
  872MPD2    H212851   1.995   0.444  14.368
  872MPD2    H312852   1.841   0.310  14.510
  872MPD2     N12853   1.491   0.566  14.430
  872MPD2    H512854   1.449   0.509  14.502
  872MPD2    N112855   1.924   0.675  14.244
  872MPD2    H712856   1.879   0.747  14.188
  873MPD2     C12857   4.160   0.294  18.545
  873MPD2    C112858   4.037   0.326  18.496
  873MPD2    C212859   3.935   0.229  18.486
  873MPD2    C312860   3.960   0.098  18.533
  873MPD2    C412861   4.084   0.064  18.577
  873MPD2    C512862   4.182   0.162  18.583
  873MPD2     H12863   3.839   0.253  18.442
  873MPD2    H112864   4.100   4.768  18.612
  873MPD2    H212865   4.230   0.375  18.562
  873MPD2    H312866   4.273   0.131  18.632
  873MPD2     N12867   3.857   0.006  18.547
  873MPD2    H512868   3.886   4.720  18.582
  873MPD2    N112869   4.015   0.461  18.480
  873MPD2    H712870   4.088   0.517  18.522
  874MPD2     C12871   3.266   0.667  16.251
  874MPD2    C112872   3.320   0.622  16.369
  874MPD2    C212873   3.420   0.704  16.416
  874MPD2    C312874   3.471   0.814  16.363
  874MPD2    C412875   3.410   0.853  16.242
  874MPD2    C512876   3.311   0.776  16.189
  874MPD2     H12877   3.463   0.675  16.511
  874MPD2    H112878   3.448   0.939  16.188
  874MPD2    H212879   3.187   0.612  16.201
  874MPD2    H312880   3.277   0.800  16.089
  874MPD2     N12881   3.586   0.874  16.411
  874MPD2    H512882   3.623   0.835  16.497
  874MPD2    N112883   3.285   0.492  16.421
  874MPD2    H712884   3.200   0.458  16.377
  875MPD2     C12885   4.657   3.786  14.574
  875MPD2    C112886   4.540   3.744  14.632
  875MPD2    C212887   4.534   3.732  14.768
  875MPD2    C312888   4.651   3.754  14.847
  875MPD2    C412889   4.761   3.799  14.782
  875MPD2    C512890   4.758   3.819  14.650
  875MPD2     H12891   4.442   3.705  14.818
  875MPD2    H112892   0.054   3.809  14.829
  875MPD2    H212893   4.666   3.811  14.469
  875MPD2    H312894   0.041   3.853  14.596
  875MPD2     N12895   4.657   3.755  14.984
  875MPD2    H512896   4.744   3.778  15.031
  875MPD2    N112897   4.416   3.712  14.563
  875MPD2    H712898   4.329   3.705  14.615
  876MPD2     C12899   3.068   0.053  16.208
  876MPD2    C112900   3.205   0.026  16.219
  876MPD2    C212901   3.244   4.710  16.265
  876MPD2    C312902   3.150   4.616  16.304
  876MPD2    C412903   3.017   4.651  16.310
  876MPD2    C512904   2.977   4.768  16.249
  876MPD2     H12905   3.346   4.677  16.254
  876MPD2    H112906   2.936   4.590  16.347
  876MPD2    H212907   3.039   0.145  16.158
  876MPD2    H312908   2.871   4.785  16.236
  876MPD2     N12909   3.198   4.485  16.333
  876MPD2    H512910   3.297   4.464  16.331
  876MPD2    N112911   3.291   0.124  16.168
  876MPD2    H712912   3.249   0.201  16.117
  877MPD2     C12913   3.178   0.620  15.665
  877MPD2    C112914   3.300   0.571  15.636
  877MPD2    C212915   3.347   0.578  15.504
  877MPD2    C312916   3.277   0.637  15.400
  877MPD2    C412917   3.145   0.679  15.432
  877MPD2    C512918   3.102   0.668  15.563
  877MPD2     H12919   3.449   0.544  15.486
  877MPD2    H112920   3.081   0.723  15.356
  877MPD2    H212921   3.140   0.613  15.766
  877MPD2    H312922   2.997   0.687  15.584
  877MPD2     N12923   3.322   0.648  15.264
  877MPD2    H512924   3.256   0.681  15.194
  877MPD2    N112925   3.378   0.500  15.738
  877MPD2    H712926   3.464   0.456  15.708
  878MPD2     C12927   2.949   4.752  13.635
  878MPD2    C112928   3.037   0.054  13.653
  878MPD2    C212929   3.041   0.130  13.769
  878MPD2    C312930   2.948   0.106  13.870
  878MPD2    C412931   2.856   0.002  13.848
  878MPD2    C512932   2.854   4.741  13.733
  878MPD2     H12933   3.109   0.213  13.775
  878MPD2    H112934   2.794   4.765  13.926
  878MPD2    H212935   2.958   4.689  13.547
  878MPD2    H312936   2.785   4.657  13.735
  878MPD2     N12937   2.952   0.178  13.997
  878MPD2    H512938   3.035   0.234  14.016
  878MPD2    N112939   3.115   0.086  13.534
  878MPD2    H712940   3.096   0.037  13.448
  879MPD2     C12941   3.455   1.386  17.418
  879MPD2    C112942   3.518   1.267  17.393
  879MPD2    C212943   3.464   1.166  17.315
  879MPD2    C312944   3.340   1.188  17.259
  879MPD2    C412945   3.269   1.302  17.286
  879MPD2    C512946   3.333   1.397  17.371
  879MPD2     H12947   3.522   1.078  17.291
  879MPD2    H112948   3.171   1.325  17.244
  879MPD2    H212949   3.480   1.461  17.492
  879MPD2    H312950   3.273   1.482  17.401
  879MPD2     N12951   3.280   1.093  17.178
  879MPD2    H512952   3.199   1.120  17.123
  879MPD2    N112953   3.631   1.249  17.470
  879MPD2    H712954   3.670   1.333  17.510
  880MPD2     C12955   4.593   2.950  18.671
  880MPD2    C112956   4.680   3.044  18.606
  880MPD2    C212957   0.006   3.047  18.645
  880MPD2    C312958   0.057   2.974  18.745
  880MPD2    C412959   4.774   2.889  18.820
  880MPD2    C512960   4.643   2.881  18.781
  880MPD2     H12961   0.068   3.120  18.596
  880MPD2    H112962   4.799   2.834  18.911
  880MPD2    H212963   4.489   2.940  18.642
  880MPD2    H312964   4.581   2.814  18.840
  880MPD2     N12965   0.185   2.982  18.778
  880MPD2    H512966   0.239   3.060  18.743
  880MPD2    N112967   4.623   3.125  18.504
  880MPD2    H712968   4.530   3.107  18.467
  881MPD2     C12969   4.797   3.858  17.721
  881MPD2    C112970   0.018   3.721  17.709
  881MPD2    C212971   4.767   3.635  17.804
  881MPD2    C312972   4.685   3.677  17.909
  881MPD2    C412973   4.661   3.813  17.909
  881MPD2    C512974   4.704   3.900  17.810
  881MPD2     H12975   4.777   3.529  17.787
  881MPD2    H112976   4.589   3.858  17.976
  881MPD2    H212977   0.031   3.932  17.652
  881MPD2    H312978   4.678   4.005  17.820
  881MPD2     N12979   4.619   3.592  17.999
  881MPD2    H512980   4.565   3.635  18.073
  881MPD2    N112981   0.090   3.682  17.596
  881MPD2    H712982   0.106   3.753  17.526
  882MPD2     C12983   3.195   0.569  14.450
  882MPD2    C112984   3.156   0.599  14.580
  882MPD2    C212985   3.022   0.627  14.607
  882MPD2    C312986   2.931   0.604  14.508
  882MPD2    C412987   2.976   0.569  14.384
  882MPD2    C512988   3.108   0.566  14.352
  882MPD2     H12989   2.996   0.648  14.710
  882MPD2    H112990   2.900   0.551  14.309
  882MPD2    H212991   3.299   0.549  14.426
  882MPD2    H312992   3.140   0.552  14.249
  882MPD2     N12993   2.793   0.609  14.527
  882MPD2    H512994   2.733   0.581  14.450
  882MPD2    N112995   3.265   0.607  14.674
  882MPD2    H712996   3.354   0.575  14.637
  883MPD2     C12997   0.316   0.237  16.441
  883MPD2    C112998   0.365   0.326  16.352
  883MPD2    C212999   0.471   0.406  16.387
  883MPD2    C313000   0.529   0.403  16.517
  883MPD2    C413001   0.478   0.306  16.602
  883MPD2    C513002   0.373   0.230  16.561
  883MPD2     H13003   0.519   0.471  16.315
  883MPD2    H113004   0.512   0.287  16.703
  883MPD2    H213005   0.222   0.185  16.429
  883MPD2    H313006   0.332   0.166  16.637
  883MPD2     N13007   0.639   0.487  16.536
  883MPD2    H513008   0.677   0.539  16.457
  883MPD2    N113009   0.315   0.340  16.224
  883MPD2    H713010   0.341   0.415  16.161
  884MPD2     C13011   2.294   1.184  15.707
  884MPD2    C113012   2.262   1.264  15.597
  884MPD2    C213013   2.140   1.322  15.597
  884MPD2    C313014   2.042   1.289  15.686
  884MPD2    C413015   2.069   1.203  15.786
  884MPD2    C513016   2.199   1.160  15.802
  884MPD2     H13017   2.114   1.391  15.517
  884MPD2    H113018   1.989   1.161  15.846
  884MPD2    H213019   2.395   1.147  15.722
  884MPD2    H313020   2.225   1.094  15.884
  884MPD2     N13021   1.910   1.337  15.677
  884MPD2    H513022   1.901   1.389  15.590
  884MPD2    N113023   2.344   1.288  15.489
  884MPD2    H713024   2.305   1.340  15.411
  885MPD2     C13025   0.601   1.446  18.324
  885MPD2    C113026   0.706   1.540  18.342
  885MPD2    C213027   0.717   1.632  18.240
  885MPD2    C313028   0.634   1.626  18.118
  885MPD2    C413029   0.535   1.528  18.113
  885MPD2    C513030   0.526   1.437  18.214
  885MPD2     H13031   0.791   1.711  18.242
  885MPD2    H113032   0.485   1.507  18.019
  885MPD2    H213033   0.584   1.371  18.400
  885MPD2    H313034   0.465   1.348  18.202
  885MPD2     N13035   0.654   1.708  18.006
  885MPD2    H513036   0.745   1.753  18.008
  885MPD2    N113037   0.792   1.540  18.453
  885MPD2    H713038   0.782   1.461  18.516
  886MPD2     C13039   1.902   0.002  15.605
  886MPD2    C113040   2.024   0.045  15.563
  886MPD2    C213041   2.045   0.181  15.560
  886MPD2    C313042   1.948   0.272  15.609
  886MPD2    C413043   1.821   0.226  15.630
  886MPD2    C513044   1.807   0.091  15.637
  886MPD2     H13045   2.138   0.221  15.521
  886MPD2    H113046   1.732   0.277  15.665
  886MPD2    H213047   1.884   4.701  15.623
  886MPD2    H313048   1.711   0.054  15.673
  886MPD2     N13049   1.975   0.405  15.645
  886MPD2    H513050   1.899   0.472  15.648
  886MPD2    N113051   2.132   4.769  15.509
  886MPD2    H713052   2.226   0.002  15.509
  887MPD2     C13053   2.763   4.733  15.843
  887MPD2    C113054   2.661   4.798  15.775
  887MPD2    C213055   2.626   0.122  15.812
  887MPD2    C313056   2.689   0.193  15.909
  887MPD2    C413057   2.793   0.124  15.967
  887MPD2    C513058   2.827   4.798  15.945
  887MPD2     H13059   2.556   0.177  15.751
  887MPD2    H113060   2.846   0.163  16.053
  887MPD2    H213061   2.794   4.629  15.832
  887MPD2    H313062   2.906   4.751  16.002
  887MPD2     N13063   2.634   0.312  15.968
  887MPD2    H513064   2.552   0.352  15.924
  887MPD2    N113065   2.576   4.737  15.678
  887MPD2    H713066   2.509   4.791  15.623
  888MPD2     C13067   4.320   0.083  14.876
  888MPD2    C113068   4.310   0.113  15.014
  888MPD2    C213069   4.350   0.236  15.065
  888MPD2    C313070   4.375   0.335  14.974
  888MPD2    C413071   4.368   0.311  14.839
  888MPD2    C513072   4.351   0.184  14.792
  888MPD2     H13073   4.344   0.262  15.170
  888MPD2    H113074   4.376   0.390  14.766
  888MPD2    H213075   4.307   4.786  14.840
  888MPD2    H313076   4.351   0.165  14.685
  888MPD2     N13077   4.428   0.454  15.028
  888MPD2    H513078   4.440   0.463  15.129
  888MPD2    N113079   4.290   0.008  15.109
  888MPD2    H713080   4.317   0.020  15.206
  889MPD2     C13081   3.568   0.048  13.088
  889MPD2    C113082   3.600   4.780  13.199
  889MPD2    C213083   3.605   0.042  13.317
  889MPD2    C313084   3.579   0.181  13.325
  889MPD2    C413085   3.554   0.252  13.207
  889MPD2    C513086   3.559   0.185  13.090
  889MPD2     H13087   3.632   4.794  13.408
  889MPD2    H113088   3.534   0.358  13.201
  889MPD2    H213089   3.564   4.802  12.993
  889MPD2    H313090   3.549   0.246  13.001
  889MPD2     N13091   3.579   0.248  13.453
  889MPD2    H513092   3.619   0.194  13.530
  889MPD2    N113093   3.645   4.645  13.186
  889MPD2    H713094   3.682   4.612  13.275
  890MPD2     C13095   3.379   1.128  14.760
  890MPD2    C113096   3.480   1.188  14.830
  890MPD2    C213097   3.490   1.158  14.966
  890MPD2    C313098   3.395   1.085  15.028
  890MPD2    C413099   3.296   1.029  14.963
  890MPD2    C513100   3.292   1.044  14.829
  890MPD2     H13101   3.575   1.194  15.022
  890MPD2    H113102   3.235   0.959  15.018
  890MPD2    H213103   3.374   1.140  14.653
  890MPD2    H313104   3.227   0.982  14.769
  890MPD2     N13105   3.432   1.056  15.157
  890MPD2    H513106   3.509   1.117  15.184
  890MPD2    N113107   3.565   1.275  14.763
  890MPD2    H713108   3.536   1.315  14.675
  891MPD2     C13109   1.076   4.392  16.757
  891MPD2    C113110   1.098   4.514  16.690
  891MPD2    C213111   1.223   4.571  16.703
  891MPD2    C313112   1.325   4.494  16.763
  891MPD2    C413113   1.304   4.371  16.817
  891MPD2    C513114   1.176   4.320  16.815
  891MPD2     H13115   1.253   4.666  16.661
  891MPD2    H113116   1.381   4.305  16.854
  891MPD2    H213117   0.974   4.356  16.756
  891MPD2    H313118   1.147   4.224  16.856
  891MPD2     N13119   1.454   4.552  16.769
  891MPD2    H513120   1.457   4.652  16.750
  891MPD2    N113121   0.987   4.581  16.637
  891MPD2    H713122   0.895   4.541  16.654
  892MPD2     C13123   2.346   0.934  15.366
  892MPD2    C113124   2.255   0.906  15.266
  892MPD2    C213125   2.302   0.837  15.154
  892MPD2    C313126   2.430   0.793  15.143
  892MPD2    C413127   2.519   0.827  15.238
  892MPD2    C513128   2.475   0.905  15.340
  892MPD2     H13129   2.231   0.822  15.073
  892MPD2    H113130   2.620   0.787  15.240
  892MPD2    H213131   2.320   0.996  15.451
  892MPD2    H313132   2.547   0.931  15.417
  892MPD2     N13133   2.470   0.704  15.044
  892MPD2    H513134   2.569   0.680  15.046
  892MPD2    N113135   2.122   0.953  15.279
  892MPD2    H713136   2.066   0.956  15.194
  893MPD2     C13137   4.398   4.286  19.015
  893MPD2    C113138   4.277   4.348  19.032
  893MPD2    C213139   4.170   4.280  19.083
  893MPD2    C313140   4.205   4.155  19.140
  893MPD2    C413141   4.334   4.107  19.141
  893MPD2    C513142   4.431   4.172  19.077
  893MPD2     H13143   4.071   4.323  19.079
  893MPD2    H113144   4.365   4.021  19.200
  893MPD2    H213145   4.476   4.337  18.958
  893MPD2    H313146   4.534   4.137  19.082
  893MPD2     N13147   4.118   4.074  19.210
  893MPD2    H513148   4.147   3.986  19.251
  893MPD2    N113149   4.262   4.485  18.995
  893MPD2    H713150   4.315   4.513  18.913
  894MPD2     C13151   2.108   1.687  18.993
  894MPD2    C113152   2.056   1.795  19.064
  894MPD2    C213153   2.056   1.922  19.005
  894MPD2    C313154   2.126   1.942  18.886
  894MPD2    C413155   2.171   1.830  18.809
  894MPD2    C513156   2.161   1.705  18.868
  894MPD2     H13157   2.007   2.000  19.061
  894MPD2    H113158   2.207   1.840  18.707
  894MPD2    H213159   2.137   1.594  19.042
  894MPD2    H313160   2.203   1.628  18.804
  894MPD2     N13161   2.154   2.077  18.844
  894MPD2    H513162   2.098   2.145  18.895
  894MPD2    N113163   2.018   1.782  19.199
  894MPD2    H713164   1.985   1.863  19.249
  895MPD2     C13165   1.486   0.266  14.048
  895MPD2    C113166   1.476   0.134  14.011
  895MPD2    C213167   1.576   0.042  14.053
  895MPD2    C313168   1.692   0.088  14.118
  895MPD2    C413169   1.700   0.217  14.154
  895MPD2    C513170   1.603   0.306  14.116
  895MPD2     H13171   1.578   4.745  14.017
  895MPD2    H113172   1.784   0.253  14.213
  895MPD2    H213173   1.421   0.340  14.002
  895MPD2    H313174   1.616   0.413  14.127
  895MPD2     N13175   1.814   0.018  14.138
  895MPD2    H513176   1.886   0.069  14.188
  895MPD2    N113177   1.372   0.089  13.931
  895MPD2    H713178   1.382   0.006  13.873
  896MPD2     C13179   3.774   2.535  19.480
  896MPD2    C113180   3.761   2.453  19.369
  896MPD2    C213181   3.637   2.416  19.335
  896MPD2    C313182   3.524   2.470  19.397
  896MPD2    C413183   3.539   2.546  19.509
  896MPD2    C513184   3.665   2.580  19.552
  896MPD2     H13185   3.615   2.351  19.251
  896MPD2    H113186   3.452   2.577  19.566
  896MPD2    H213187   3.875   2.558  19.514
  896MPD2    H313188   3.670   2.643  19.640
  896MPD2     N13189   3.402   2.432  19.348
  896MPD2    H513190   3.401   2.363  19.274
  896MPD2    N113191   3.874   2.420  19.293
  896MPD2    H713192   3.959   2.456  19.335
  897MPD2     C13193   0.159   3.989  10.746
  897MPD2    C113194   0.116   4.119  10.770
  897MPD2    C213195   0.002   4.143  10.845
  897MPD2    C313196   4.736   4.039  10.900
  897MPD2    C413197   4.770   3.910  10.873
  897MPD2    C513198   0.082   3.884  10.799
  897MPD2     H13199   4.775   4.244  10.866
  897MPD2    H113200   4.710   3.828  10.911
  897MPD2    H213201   0.240   3.958  10.681
  897MPD2    H313202   0.103   3.780  10.778
  897MPD2     N13203   4.614   4.069  10.973
  897MPD2    H513204   4.592   4.168  10.971
  897MPD2    N113205   0.187   4.235  10.723
  897MPD2    H713206   0.255   4.214  10.651
  898MPD2     C13207   1.713   4.801  17.697
  898MPD2    C113208   1.835   0.033  17.648
  898MPD2    C213209   1.862   0.163  17.614
  898MPD2    C313210   1.766   0.255  17.633
  898MPD2    C413211   1.639   0.217  17.678
  898MPD2    C513212   1.616   0.089  17.704
  898MPD2     H13213   1.958   0.190  17.572
  898MPD2    H113214   1.552   0.281  17.682
  898MPD2    H213215   1.695   4.697  17.722
  898MPD2    H313216   1.516   0.053  17.725
  898MPD2     N13217   1.805   0.390  17.600
  898MPD2    H513218   1.893   0.408  17.554
  898MPD2    N113219   1.935   4.744  17.639
  898MPD2    H713220   2.021   4.781  17.601
  899MPD2     C13221   2.907   0.738  17.789
  899MPD2    C113222   2.957   0.845  17.861
  899MPD2    C213223   2.956   0.847  17.998
  899MPD2    C313224   2.884   0.750  18.064
  899MPD2    C413225   2.841   0.637  17.994
  899MPD2    C513226   2.855   0.629  17.857
  899MPD2     H13227   3.006   0.928  18.049
  899MPD2    H113228   2.799   0.552  18.046
  899MPD2    H213229   2.911   0.740  17.681
  899MPD2    H313230   2.816   0.544  17.803
  899MPD2     N13231   2.865   0.753  18.200
  899MPD2    H513232   2.855   0.659  18.237
  899MPD2    N113233   2.999   0.959  17.785
  899MPD2    H713234   3.003   0.948  17.684
  900MPD2     C13235   2.487   2.767  12.841
  900MPD2    C113236   2.417   2.653  12.883
  900MPD2    C213237   2.295   2.623  12.829
  900MPD2    C313238   2.235   2.713  12.738
  900MPD2    C413239   2.298   2.834  12.700
  900MPD2    C513240   2.422   2.855  12.760
  900MPD2     H13241   2.241   2.529  12.835
  900MPD2    H113242   2.271   2.914  12.634
  900MPD2    H213243   2.588   2.786  12.876
  900MPD2    H313244   2.483   2.940  12.733
  900MPD2     N13245   2.118   2.666  12.674
  900MPD2    H513246   2.075   2.578  12.700
  900MPD2    N113247   2.488   2.566  12.974
  900MPD2    H713248   2.579   2.597  13.008
  901MPD2     C13249   2.488   1.566  13.162
  901MPD2    C113250   2.617   1.610  13.151
  901MPD2    C213251   2.658   1.741  13.165
  901MPD2    C313252   2.562   1.833  13.189
  901MPD2    C413253   2.426   1.792  13.190
  901MPD2    C513254   2.395   1.659  13.173
  901MPD2     H13255   2.759   1.781  13.172
  901MPD2    H113256   2.353   1.872  13.200
  901MPD2    H213257   2.470   1.459  13.161
  901MPD2    H313258   2.292   1.629  13.186
  901MPD2     N13259   2.604   1.967  13.210
  901MPD2    H513260   2.704   1.982  13.206
  901MPD2    N113261   2.704   1.503  13.136
  901MPD2    H713262   2.669   1.411  13.111
  902MPD2     C13263   1.474   0.400  13.183
  902MPD2    C113264   1.514   0.531  13.203
  902MPD2    C213265   1.638   0.572  13.159
  902MPD2    C313266   1.721   0.481  13.096
  902MPD2    C413267   1.681   0.349  13.082
  902MPD2    C513268   1.554   0.310  13.118
  902MPD2     H13269   1.667   0.675  13.171
  902MPD2    H113270   1.751   0.272  13.054
  902MPD2    H213271   1.377   0.372  13.224
  902MPD2    H313272   1.525   0.206  13.111
  902MPD2     N13273   1.838   0.521  13.026
  902MPD2    H513274   1.891   0.452  12.973
  902MPD2    N113275   1.420   0.623  13.263
  902MPD2    H713276   1.336   0.579  13.301
  903MPD2     C13277   1.812   0.918  12.245
  903MPD2    C113278   1.778   0.834  12.346
  903MPD2    C213279   1.690   0.735  12.326
  903MPD2    C313280   1.624   0.718  12.209
  903MPD2    C413281   1.646   0.805  12.105
  903MPD2    C513282   1.743   0.902  12.123
  903MPD2     H13283   1.666   0.657  12.397
  903MPD2    H113284   1.601   0.797  12.007
  903MPD2    H213285   1.876   1.004  12.257
  903MPD2    H313286   1.763   0.978  12.048
  903MPD2     N13287   1.527   0.616  12.205
  903MPD2    H513288   1.518   0.567  12.294
  903MPD2    N113289   1.855   0.850  12.471
  903MPD2    H713290   1.927   0.920  12.486
  904MPD2     C13291   1.338   4.420  14.067
  904MPD2    C113292   1.314   4.328  14.167
  904MPD2    C213293   1.403   4.328  14.270
  904MPD2    C313294   1.513   4.412  14.284
  904MPD2    C413295   1.520   4.512  14.195
  904MPD2    C513296   1.439   4.506  14.084
  904MPD2     H13297   1.385   4.259  14.351
  904MPD2    H113298   1.600   4.585  14.202
  904MPD2    H213299   1.282   4.432  13.975
  904MPD2    H313300   1.441   4.575  14.001
  904MPD2     N13301   1.604   4.378  14.388
  904MPD2    H513302   1.588   4.289  14.434
  904MPD2    N113303   1.211   4.238  14.163
  904MPD2    H713304   1.223   4.158  14.224
  905MPD2     C13305   1.265   4.355  13.452
  905MPD2    C113306   1.250   4.447  13.557
  905MPD2    C213307   1.364   4.511  13.598
  905MPD2    C313308   1.485   4.482  13.538
  905MPD2    C413309   1.487   4.397  13.433
  905MPD2    C513310   1.381   4.329  13.387
  905MPD2     H13311   1.363   4.576  13.684
  905MPD2    H113312   1.580   4.353  13.398
  905MPD2    H213313   1.180   4.294  13.424
  905MPD2    H313314   1.390   4.257  13.307
  905MPD2     N13315   1.608   4.533  13.589
  905MPD2    H513316   1.692   4.491  13.551
  905MPD2    N113317   1.129   4.444  13.627
  905MPD2    H713318   1.061   4.373  13.604
  906MPD2     C13319   3.547   4.615  11.520
  906MPD2    C113320   3.517   4.511  11.437
  906MPD2    C213321   3.457   4.392  11.480
  906MPD2    C313322   3.404   4.391  11.607
  906MPD2    C413323   3.430   4.497  11.691
  906MPD2    C513324   3.502   4.612  11.650
  906MPD2     H13325   3.442   4.313  11.407
  906MPD2    H113326   3.397   4.496  11.794
  906MPD2    H213327   3.594   4.704  11.480
  906MPD2    H313328   3.520   4.699  11.712
  906MPD2     N13329   3.320   4.296  11.663
  906MPD2    H513330   3.279   4.322  11.752
  906MPD2    N113331   3.543   4.526  11.298
  906MPD2    H713332   3.510   4.451  11.237
  907MPD2     C13333   2.030   3.544  15.634
  907MPD2    C113334   2.140   3.479  15.595
  907MPD2    C213335   2.242   3.445  15.684
  907MPD2    C313336   2.235   3.489  15.809
  907MPD2    C413337   2.132   3.567  15.849
  907MPD2    C513338   2.030   3.590  15.761
  907MPD2     H13339   2.324   3.385  15.647
  907MPD2    H113340   2.119   3.604  15.950
  907MPD2    H213341   1.936   3.558  15.582
  907MPD2    H313342   1.948   3.643  15.807
  907MPD2     N13343   2.348   3.455  15.889
  907MPD2    H513344   2.417   3.388  15.858
  907MPD2    N113345   2.148   3.429  15.460
  907MPD2    H713346   2.232   3.375  15.440
  908MPD2     C13347   0.379   4.310   9.911
  908MPD2    C113348   0.363   4.212  10.008
  908MPD2    C213349   0.334   4.248  10.138
  908MPD2    C313350   0.341   4.383  10.173
  908MPD2    C413351   0.354   4.476  10.079
  908MPD2    C513352   0.374   4.439   9.951
  908MPD2     H13353   0.327   4.177  10.220
  908MPD2    H113354   0.356   4.583  10.095
  908MPD2    H213355   0.380   4.296   9.804
  908MPD2    H313356   0.392   4.509   9.870
  908MPD2     N13357   0.337   4.416  10.313
  908MPD2    H513358   0.320   4.342  10.380
  908MPD2    N113359   0.372   4.078   9.965
  908MPD2    H713360   0.408   4.065   9.871
  909MPD2     C13361   0.635   2.270  11.696
  909MPD2    C113362   0.554   2.373  11.661
  909MPD2    C213363   0.461   2.421  11.748
  909MPD2    C313364   0.447   2.370  11.878
  909MPD2    C413365   0.538   2.274  11.912
  909MPD2    C513366   0.630   2.220  11.820
  909MPD2     H13367   0.403   2.511  11.732
  909MPD2    H113368   0.536   2.235  12.013
  909MPD2    H213369   0.712   2.231  11.630
  909MPD2    H313370   0.704   2.148  11.853
  909MPD2     N13371   0.358   2.431  11.964
  909MPD2    H513372   0.292   2.492  11.915
  909MPD2    N113373   0.567   2.446  11.540
  909MPD2    H713374   0.505   2.523  11.520
  910MPD2     C13375   1.707   4.351  16.510
  910MPD2    C113376   1.762   4.258  16.417
  910MPD2    C213377   1.716   4.255  16.288
  910MPD2    C313378   1.627   4.352  16.248
  910MPD2    C413379   1.591   4.448  16.333
  910MPD2    C513380   1.631   4.458  16.464
  910MPD2     H13381   1.742   4.171  16.225
  910MPD2    H113382   1.524   4.524  16.295
  910MPD2    H213383   1.731   4.361  16.616
  910MPD2    H313384   1.584   4.534  16.526
  910MPD2     N13385   1.560   4.357  16.123
  910MPD2    H513386   1.503   4.439  16.104
  910MPD2    N113387   1.845   4.153  16.459
  910MPD2    H713388   1.876   4.086  16.389
  911MPD2     C13389   4.409   4.412  16.203
  911MPD2    C113390   4.443   4.479  16.322
  911MPD2    C213391   4.416   4.612  16.330
  911MPD2    C313392   4.344   4.675  16.230
  911MPD2    C413393   4.329   4.606  16.116
  911MPD2    C513394   4.364   4.478  16.096
  911MPD2     H13395   4.442   4.669  16.418
  911MPD2    H113396   4.281   4.648  16.028
  911MPD2    H213397   4.434   4.308  16.186
  911MPD2    H313398   4.342   4.430  16.001
  911MPD2     N13399   4.276   4.798  16.240
  911MPD2    H513400   4.235   0.031  16.155
  911MPD2    N113401   4.515   4.410  16.425
  911MPD2    H713402   4.548   4.315  16.413
  912MPD2     C13403   4.024   4.671  15.869
  912MPD2    C113404   3.992   4.661  16.002
  912MPD2    C213405   3.990   4.535  16.059
  912MPD2    C313406   4.044   4.425  15.987
  912MPD2    C413407   4.098   4.440  15.854
  912MPD2    C513408   4.090   4.568  15.801
  912MPD2     H13409   3.953   4.513  16.158
  912MPD2    H113410   4.142   4.360  15.796
  912MPD2    H213411   4.018   4.768  15.822
  912MPD2    H313412   4.124   4.578  15.699
  912MPD2     N13413   4.057   4.307  16.066
  912MPD2    H513414   4.028   4.301  16.163
  912MPD2    N113415   3.963   4.788  16.068
  912MPD2    H713416   3.982   0.071  16.020
  913MPD2     C13417   0.140   1.037  10.975
  913MPD2    C113418   0.200   1.141  11.048
  913MPD2    C213419   0.187   1.273  11.005
  913MPD2    C313420   0.121   1.298  10.884
  913MPD2    C413421   0.069   1.188  10.817
  913MPD2    C513422   0.087   1.062  10.855
  913MPD2     H13423   0.233   1.354  11.061
  913MPD2    H113424   0.020   1.208  10.722
  913MPD2    H213425   0.140   0.932  11.001
  913MPD2    H313426   0.036   0.982  10.802
  913MPD2     N13427   0.114   1.417  10.810
  913MPD2    H513428   0.083   1.403  10.715
  913MPD2    N113429   0.284   1.104  11.156
  913MPD2    H713430   0.301   1.005  11.147
  914MPD2     C13431   2.861   1.368  12.289
  914MPD2    C113432   2.833   1.479  12.370
  914MPD2    C213433   2.855   1.456  12.503
  914MPD2    C313434   2.857   1.327  12.561
  914MPD2    C413435   2.872   1.217  12.476
  914MPD2    C513436   2.882   1.245  12.341
  914MPD2     H13437   2.845   1.532  12.579
  914MPD2    H113438   2.894   1.116  12.508
  914MPD2    H213439   2.862   1.378  12.181
  914MPD2    H313440   2.912   1.166  12.273
  914MPD2     N13441   2.849   1.310  12.701
  914MPD2    H513442   2.835   1.395  12.755
  914MPD2    N113443   2.783   1.602  12.319
  914MPD2    H713444   2.774   1.613  12.219
  915MPD2     C13445   1.016   1.141  15.739
  915MPD2    C113446   0.905   1.211  15.693
  915MPD2    C213447   0.811   1.256  15.782
  915MPD2    C313448   0.831   1.222  15.914
  915MPD2    C413449   0.944   1.152  15.953
  915MPD2    C513450   1.045   1.123  15.870
  915MPD2     H13451   0.712   1.292  15.758
  915MPD2    H113452   0.967   1.126  16.056
  915MPD2    H213453   1.086   1.092  15.672
  915MPD2    H313454   1.133   1.069  15.903
  915MPD2     N13455   0.723   1.248  16.008
  915MPD2    H513456   0.645   1.306  15.980
  915MPD2    N113457   0.894   1.216  15.547
  915MPD2    H713458   0.954   1.158  15.489
  916MPD2     C13459   3.657   4.273  16.042
  916MPD2    C113460   3.607   4.155  16.090
  916MPD2    C213461   3.639   4.035  16.027
  916MPD2    C313462   3.713   4.027  15.910
  916MPD2    C413463   3.749   4.148  15.855
  916MPD2    C513464   3.720   4.264  15.919
  916MPD2     H13465   3.623   3.936  16.068
  916MPD2    H113466   3.801   4.156  15.761
  916MPD2    H213467   3.636   4.369  16.089
  916MPD2    H313468   3.765   4.353  15.877
  916MPD2     N13469   3.752   3.904  15.853
  916MPD2    H513470   3.744   3.823  15.913
  916MPD2    N113471   3.520   4.164  16.200
  916MPD2    H713472   3.503   4.258  16.234
  917MPD2     C13473   3.917   1.877  11.529
  917MPD2    C113474   3.976   1.939  11.640
  917MPD2    C213475   4.058   2.051  11.621
  917MPD2    C313476   4.064   2.105  11.493
  917MPD2    C413477   4.000   2.048  11.382
  917MPD2    C513478   3.931   1.935  11.406
  917MPD2     H13479   4.097   2.110  11.703
  917MPD2    H113480   4.011   2.088  11.282
  917MPD2    H213481   3.855   1.789  11.541
  917MPD2    H313482   3.885   1.879  11.325
  917MPD2     N13483   4.146   2.229  11.465
  917MPD2    H513484   4.152   2.268  11.371
  917MPD2    N113485   3.927   1.903  11.766
  917MPD2    H713486   3.859   1.828  11.771
  918MPD2     C13487   3.995   2.429  12.599
  918MPD2    C113488   4.100   2.379  12.520
  918MPD2    C213489   4.057   2.278  12.434
  918MPD2    C313490   3.923   2.240  12.411
  918MPD2    C413491   3.834   2.283  12.506
  918MPD2    C513492   3.864   2.378  12.595
  918MPD2     H13493   4.127   2.226  12.370
  918MPD2    H113494   3.731   2.250  12.511
  918MPD2    H213495   4.024   2.491  12.683
  918MPD2    H313496   3.784   2.420  12.655
  918MPD2     N13497   3.902   2.134  12.319
  918MPD2    H513498   3.981   2.100  12.264
  918MPD2    N113499   4.232   2.424  12.525
  918MPD2    H713500   4.290   2.372  12.461
  919MPD2     C13501   4.750   0.812  12.170
  919MPD2    C113502   4.696   0.706  12.095
  919MPD2    C213503   4.711   0.705  11.962
  919MPD2    C313504   4.774   0.813  11.892
  919MPD2    C413505   0.003   0.922  11.969
  919MPD2    C513506   4.805   0.913  12.104
  919MPD2     H13507   4.672   0.623  11.902
  919MPD2    H113508   0.047   1.009  11.921
  919MPD2    H213509   4.756   0.824  12.278
  919MPD2    H313510   0.049   0.988  12.165
  919MPD2     N13511   4.795   0.811  11.755
  919MPD2    H513512   0.007   0.903  11.714
  919MPD2    N113513   4.623   0.604  12.153
  919MPD2    H713514   4.589   0.529  12.093
  920MPD2     C13515   4.551   1.428  11.052
  920MPD2    C113516   4.451   1.333  11.038
  920MPD2    C213517   4.477   1.202  11.087
  920MPD2    C313518   4.601   1.176  11.150
  920MPD2    C413519   4.692   1.277  11.160
  920MPD2    C513520   4.668   1.399  11.107
  920MPD2     H13521   4.397   1.128  11.087
  920MPD2    H113522   4.794   1.260  11.194
  920MPD2    H213523   4.534   1.531  11.022
  920MPD2    H313524   4.745   1.473  11.088
  920MPD2     N13525   4.622   1.044  11.208
  920MPD2    H513526   4.554   0.973  11.183
  920MPD2    N113527   4.325   1.367  10.977
  920MPD2    H713528   4.248   1.301  10.982
  921MPD2     C13529   0.427   0.001  16.875
  921MPD2    C113530   0.419   4.704  16.780
  921MPD2    C213531   0.317   4.606  16.799
  921MPD2    C313532   0.216   4.618  16.893
  921MPD2    C413533   0.216   4.738  16.962
  921MPD2    C513534   0.320   0.019  16.956
  921MPD2     H13535   0.308   4.520  16.733
  921MPD2    H113536   0.138   4.763  17.032
  921MPD2    H213537   0.504   0.078  16.883
  921MPD2    H313538   0.324   0.103  17.023
  921MPD2     N13539   0.109   4.523  16.896
  921MPD2    H513540   0.024   4.558  16.937
  921MPD2    N113541   0.520   4.693  16.688
  921MPD2    H713542   0.598   4.757  16.696
  922MPD2     C13543   1.306   2.677  17.446
  922MPD2    C113544   1.178   2.689  17.489
  922MPD2    C213545   1.115   2.580  17.534
  922MPD2    C313546   1.166   2.447  17.534
  922MPD2    C413547   1.288   2.434  17.469
  922MPD2    C513548   1.357   2.545  17.430
  922MPD2     H13549   1.017   2.594  17.579
  922MPD2    H113550   1.342   2.340  17.457
  922MPD2    H213551   1.364   2.756  17.402
  922MPD2    H313552   1.453   2.534  17.381
  922MPD2     N13553   1.093   2.339  17.586
  922MPD2    H513554   1.000   2.353  17.626
  922MPD2    N113555   1.103   2.814  17.507
  922MPD2    H713556   1.023   2.808  17.568
  923MPD2     C13557   2.430   4.781   9.238
  923MPD2    C113558   2.432   0.064   9.342
  923MPD2    C213559   2.515   0.045   9.453
  923MPD2    C313560   2.608   4.751   9.447
  923MPD2    C413561   2.608   4.667   9.335
  923MPD2    C513562   2.529   4.692   9.227
  923MPD2     H13563   2.507   0.116   9.535
  923MPD2    H113564   2.690   4.597   9.323
  923MPD2    H213565   2.360   4.796   9.156
  923MPD2    H313566   2.536   4.619   9.147
  923MPD2     N13567   2.700   4.718   9.551
  923MPD2    H513568   2.774   4.652   9.531
  923MPD2    N113569   2.346   0.175   9.342
  923MPD2    H713570   2.273   0.175   9.271
  924MPD2     C13571   2.310   2.673  16.152
  924MPD2    C113572   2.403   2.722  16.241
  924MPD2    C213573   2.471   2.833  16.203
  924MPD2    C313574   2.437   2.919  16.097
  924MPD2    C413575   2.341   2.872  16.014
  924MPD2    C513576   2.280   2.750  16.039
  924MPD2     H13577   2.542   2.877  16.273
  924MPD2    H113578   2.315   2.919  15.920
  924MPD2    H213579   2.250   2.587  16.182
  924MPD2    H313580   2.194   2.721  15.981
  924MPD2     N13581   2.502   3.044  16.065
  924MPD2    H513582   2.441   3.101  16.007
  924MPD2    N113583   2.402   2.664  16.373
  924MPD2    H713584   2.333   2.595  16.398
  925MPD2     C13585   1.428   0.691  15.094
  925MPD2    C113586   1.307   0.739  15.048
  925MPD2    C213587   1.218   0.793  15.139
  925MPD2    C313588   1.244   0.778  15.274
  925MPD2    C413589   1.364   0.727  15.316
  925MPD2    C513590   1.464   0.697  15.228
  925MPD2     H13591   1.125   0.831  15.097
  925MPD2    H113592   1.381   0.731  15.423
  925MPD2    H213593   1.497   0.643  15.026
  925MPD2    H313594   1.561   0.660  15.260
  925MPD2     N13595   1.141   0.772  15.367
  925MPD2    H513596   1.161   0.727  15.456
  925MPD2    N113597   1.258   0.737  14.919
  925MPD2    H713598   1.168   0.778  14.898
  926MPD2     C13599   0.255   3.882  13.450
  926MPD2    C113600   0.151   3.965  13.404
  926MPD2    C213601   0.181   4.060  13.312
  926MPD2    C313602   0.312   4.084  13.266
  926MPD2    C413603   0.411   4.017  13.326
  926MPD2    C513604   0.382   3.918  13.414
  926MPD2     H13605   0.100   4.114  13.263
  926MPD2    H113606   0.516   4.032  13.305
  926MPD2    H213607   0.243   3.791  13.508
  926MPD2    H313608   0.464   3.865  13.459
  926MPD2     N13609   0.344   4.174  13.162
  926MPD2    H513610   0.442   4.171  13.135
  926MPD2    N113611   0.015   3.952  13.449
  926MPD2    H713612   4.749   4.023  13.433
  927MPD2     C13613   4.319   1.407  18.017
  927MPD2    C113614   4.437   1.469  18.044
  927MPD2    C213615   4.539   1.453  17.956
  927MPD2    C313616   4.525   1.381  17.839
  927MPD2    C413617   4.404   1.313  17.817
  927MPD2    C513618   4.302   1.331  17.909
  927MPD2     H13619   4.634   1.501  17.980
  927MPD2    H113620   4.404   1.235  17.742
  927MPD2    H213621   4.236   1.419  18.086
  927MPD2    H313622   4.208   1.277  17.901
  927MPD2     N13623   4.632   1.372  17.746
  927MPD2    H513624   4.713   1.430  17.764
  927MPD2    N113625   4.450   1.535  18.162
  927MPD2    H713626   4.370   1.527  18.224
  928MPD2     C13627   2.097   4.115  18.771
  928MPD2    C113628   2.174   4.231  18.778
  928MPD2    C213629   2.294   4.245  18.702
  928MPD2    C313630   2.317   4.154  18.605
  928MPD2    C413631   2.237   4.042  18.594
  928MPD2    C513632   2.125   4.025  18.675
  928MPD2     H13633   2.356   4.333  18.718
  928MPD2    H113634   2.247   3.971  18.513
  928MPD2    H213635   2.008   4.111  18.833
  928MPD2    H313636   2.064   3.936  18.668
  928MPD2     N13637   2.417   4.167  18.500
  928MPD2    H513638   2.432   4.092  18.433
  928MPD2    N113639   2.122   4.336  18.866
  928MPD2    H713640   2.049   4.315  18.934
  929MPD2     C13641   2.155   0.117  10.022
  929MPD2    C113642   2.088   0.052  10.119
  929MPD2    C213643   1.952   0.024  10.092
  929MPD2    C313644   1.879   0.082   9.984
  929MPD2    C413645   1.952   0.160   9.893
  929MPD2    C513646   2.087   0.170   9.917
  929MPD2     H13647   1.892   4.769  10.160
  929MPD2    H113648   1.907   0.205   9.805
  929MPD2    H213649   2.258   0.145  10.038
  929MPD2    H313650   2.152   0.220   9.846
  929MPD2     N13651   1.744   0.056   9.957
  929MPD2    H513652   1.703   0.074   9.866
  929MPD2    N113653   2.155   0.036  10.247
  929MPD2    H713654   2.254   0.055  10.255
  930MPD2     C13655   4.156   1.889  14.208
  930MPD2    C113656   4.280   1.902  14.148
  930MPD2    C213657   4.321   1.802  14.058
  930MPD2    C313658   4.233   1.708  14.012
  930MPD2    C413659   4.114   1.700  14.080
  930MPD2    C513660   4.076   1.793  14.175
  930MPD2     H13661   4.428   1.798  14.044
  930MPD2    H113662   4.043   1.622  14.053
  930MPD2    H213663   4.113   1.964  14.274
  930MPD2    H313664   3.975   1.790  14.214
  930MPD2     N13665   4.270   1.610  13.916
  930MPD2    H513666   4.211   1.528  13.927
  930MPD2    N113667   4.375   1.996  14.198
  930MPD2    H713668   4.351   2.046  14.283
  931MPD2     C13669   0.230   1.503  18.615
  931MPD2    C113670   0.101   1.514  18.664
  931MPD2    C213671   0.057   1.430  18.769
  931MPD2    C313672   0.152   1.338  18.819
  931MPD2    C413673   0.284   1.339  18.776
  931MPD2    C513674   0.325   1.425  18.678
  931MPD2     H13675   4.758   1.418  18.798
  931MPD2    H113676   0.355   1.269  18.818
  931MPD2    H213677   0.257   1.557  18.524
  931MPD2    H313678   0.424   1.419  18.633
  931MPD2     N13679   0.118   1.227  18.904
  931MPD2    H513680   0.200   1.176  18.934
  931MPD2    N113681   0.007   1.603  18.599
  931MPD2    H713682   0.049   1.652  18.520
  932MPD2     C13683   1.390   1.068  11.750
  932MPD2    C113684   1.499   1.042  11.667
  932MPD2    C213685   1.565   0.920  11.670
  932MPD2    C313686   1.521   0.813  11.754
  932MPD2    C413687   1.413   0.849  11.840
  932MPD2    C513688   1.347   0.966  11.837
  932MPD2     H13689   1.646   0.899  11.600
  932MPD2    H113690   1.380   0.772  11.908
  932MPD2    H213691   1.344   1.165  11.767
  932MPD2    H313692   1.267   0.985  11.908
  932MPD2     N13693   1.575   0.682  11.758
  932MPD2    H513694   1.535   0.628  11.834
  932MPD2    N113695   1.546   1.140  11.575
  932MPD2    H713696   1.622   1.109  11.515
  933MPD2     C13697   1.894   0.328  19.223
  933MPD2    C113698   1.928   0.272  19.104
  933MPD2    C213699   1.902   0.341  18.986
  933MPD2    C313700   1.844   0.460  18.992
  933MPD2    C413701   1.797   0.514  19.114
  933MPD2    C513702   1.826   0.441  19.230
  933MPD2     H13703   1.945   0.312  18.891
  933MPD2    H113704   1.753   0.613  19.112
  933MPD2    H213705   1.935   0.286  19.314
  933MPD2    H313706   1.808   0.492  19.324
  933MPD2     N13707   1.843   0.526  18.868
  933MPD2    H513708   1.870   0.468  18.789
  933MPD2    N113709   2.000   0.154  19.112
  933MPD2    H713710   2.013   0.098  19.196
  934MPD2     C13711   3.186   2.773  19.718
  934MPD2    C113712   3.273   2.673  19.771
  934MPD2    C213713   3.249   2.543  19.741
  934MPD2    C313714   3.136   2.500  19.678
  934MPD2    C413715   3.040   2.594  19.652
  934MPD2    C513716   3.067   2.729  19.674
  934MPD2     H13717   3.317   2.465  19.774
  934MPD2    H113718   2.947   2.561  19.607
  934MPD2    H213719   3.211   2.878  19.728
  934MPD2    H313720   2.993   2.808  19.667
  934MPD2     N13721   3.106   2.365  19.641
  934MPD2    H513722   3.010   2.346  19.614
  934MPD2    N113723   3.393   2.706  19.837
  934MPD2    H713724   3.447   2.625  19.868
  935MPD2     C13725   3.746   1.642  19.402
  935MPD2    C113726   3.626   1.606  19.337
  935MPD2    C213727   3.517   1.682  19.379
  935MPD2    C313728   3.519   1.779  19.475
  935MPD2    C413729   3.635   1.803  19.540
  935MPD2    C513730   3.744   1.733  19.502
  935MPD2     H13731   3.428   1.673  19.317
  935MPD2    H113732   3.639   1.874  19.621
  935MPD2    H213733   3.834   1.582  19.383
  935MPD2    H313734   3.836   1.774  19.541
  935MPD2     N13735   3.407   1.849  19.510
  935MPD2    H513736   3.420   1.907  19.593
  935MPD2    N113737   3.622   1.510  19.235
  935MPD2    H713738   3.531   1.474  19.207
  936MPD2     C13739   2.104   3.417  12.712
  936MPD2    C113740   2.205   3.493  12.762
  936MPD2    C213741   2.231   3.614  12.693
  936MPD2    C313742   2.157   3.653  12.581
  936MPD2    C413743   2.058   3.576  12.536
  936MPD2    C513744   2.031   3.455  12.598
  936MPD2     H13745   2.305   3.682  12.733
  936MPD2    H113746   1.997   3.602  12.450
  936MPD2    H213747   2.068   3.327  12.760
  936MPD2    H313748   1.947   3.390  12.576
  936MPD2     N13749   2.175   3.777  12.523
  936MPD2    H513750   2.099   3.803  12.461
  936MPD2    N113751   2.277   3.467  12.881
  936MPD2    H713752   2.335   3.545  12.910
  937MPD2     C13753   4.699   4.721  12.054
  937MPD2    C113754   4.726   0.052  12.068
  937MPD2    C213755   0.037   0.101  12.010
  937MPD2    C313756   0.116   0.026  11.924
  937MPD2    C413757   0.079   4.703  11.895
  937MPD2    C513758   4.777   4.650  11.967
  937MPD2     H13759   0.055   0.207  12.019
  937MPD2    H113760   0.131   4.624  11.844
  937MPD2    H213761   4.609   4.680  12.097
  937MPD2    H313762   4.747   4.551  11.936
  937MPD2     N13763   0.230   0.096  11.871
  937MPD2    H513764   0.250   0.188  11.909
  937MPD2    N113765   4.652   0.146  12.135
  937MPD2    H713766   4.669   0.243  12.114
  938MPD2     C13767   2.754   1.045  18.696
  938MPD2    C113768   2.667   1.139  18.738
  938MPD2    C213769   2.616   1.141  18.862
  938MPD2    C313770   2.639   1.034  18.951
  938MPD2    C413771   2.727   0.933  18.906
  938MPD2    C513772   2.791   0.942  18.784
  938MPD2     H13773   2.552   1.224  18.888
  938MPD2    H113774   2.761   0.853  18.971
  938MPD2    H213775   2.795   1.056  18.597
  938MPD2    H313776   2.855   0.865  18.743
  938MPD2     N13777   2.596   1.027  19.089
  938MPD2    H513778   2.636   0.947  19.138
  938MPD2    N113779   2.652   1.262  18.677
  938MPD2    H713780   2.626   1.346  18.728
  939MPD2     C13781   3.714   2.154  18.816
  939MPD2    C113782   3.692   2.283  18.773
  939MPD2    C213783   3.753   2.328  18.656
  939MPD2    C313784   3.823   2.233  18.573
  939MPD2    C413785   3.836   2.103  18.616
  939MPD2    C513786   3.784   2.064  18.733
  939MPD2     H13787   3.746   2.432  18.629
  939MPD2    H113788   3.877   2.028  18.551
  939MPD2    H213789   3.677   2.119  18.911
  939MPD2    H313790   3.794   1.964  18.774
  939MPD2     N13791   3.880   2.280  18.453
  939MPD2    H513792   3.875   2.376  18.422
  939MPD2    N113793   3.615   2.370  18.855
  939MPD2    H713794   3.590   2.333  18.947
  940MPD2     C13795   2.845   3.986  13.465
  940MPD2    C113796   2.784   3.863  13.464
  940MPD2    C213797   2.810   3.775  13.362
  940MPD2    C313798   2.883   3.815  13.253
  940MPD2    C413799   2.936   3.948  13.252
  940MPD2    C513800   2.914   4.032  13.356
  940MPD2     H13801   2.754   3.682  13.352
  940MPD2    H113802   2.993   3.985  13.167
  940MPD2    H213803   2.831   4.065  13.538
  940MPD2    H313804   2.955   4.132  13.361
  940MPD2     N13805   2.906   3.738  13.144
  940MPD2    H513806   2.975   3.771  13.078
  940MPD2    N113807   2.704   3.831  13.576
  940MPD2    H713808   2.662   3.739  13.566
  941MPD2     C13809   1.619   3.093  10.121
  941MPD2    C113810   1.736   3.064  10.185
  941MPD2    C213811   1.757   2.937  10.228
  941MPD2    C313812   1.669   2.836  10.206
  941MPD2    C413813   1.551   2.868  10.145
  941MPD2    C513814   1.526   2.994  10.098
  941MPD2     H13815   1.847   2.919  10.286
  941MPD2    H113816   1.474   2.794  10.126
  941MPD2    H213817   1.593   3.190  10.080
  941MPD2    H313818   1.433   3.018  10.047
  941MPD2     N13819   1.687   2.707  10.268
  941MPD2    H513820   1.622   2.634  10.240
  941MPD2    N113821   1.834   3.168  10.215
  941MPD2    H713822   1.910   3.135  10.272
  942MPD2     C13823   0.870   0.139   9.399
  942MPD2    C113824   0.920   0.012   9.378
  942MPD2    C213825   1.044   4.804   9.310
  942MPD2    C313826   1.123   0.110   9.279
  942MPD2    C413827   1.077   0.230   9.316
  942MPD2    C513828   0.946   0.247   9.361
  942MPD2     H13829   1.091   4.706   9.313
  942MPD2    H113830   1.147   0.312   9.306
  942MPD2    H213831   0.780   0.154   9.458
  942MPD2    H313832   0.936   0.347   9.403
  942MPD2     N13833   1.256   0.092   9.239
  942MPD2    H513834   1.321   0.167   9.260
  942MPD2    N113835   0.851   4.691   9.403
  942MPD2    H713836   0.896   4.606   9.372
  943MPD2     C13837   0.453   2.611  10.027
  943MPD2    C113838   0.580   2.673  10.042
  943MPD2    C213839   0.600   2.794   9.975
  943MPD2    C313840   0.494   2.856   9.913
  943MPD2    C413841   0.377   2.788   9.895
  943MPD2    C513842   0.358   2.666   9.953
  943MPD2     H13843   0.694   2.846   9.989
  943MPD2    H113844   0.298   2.833   9.835
  943MPD2    H213845   0.442   2.515  10.076
  943MPD2    H313846   0.264   2.613   9.937
  943MPD2     N13847   0.502   2.989   9.857
  943MPD2    H513848   0.430   3.010   9.789
  943MPD2    N113849   0.674   2.605  10.129
  943MPD2    H713850   0.634   2.540  10.195
  944MPD2     C13851   0.044   1.555  11.350
  944MPD2    C113852   0.137   1.616  11.423
  944MPD2    C213853   0.104   1.743  11.472
  944MPD2    C313854   4.795   1.811  11.440
  944MPD2    C413855   4.702   1.741  11.357
  944MPD2    C513856   4.730   1.617  11.323
  944MPD2     H13857   0.175   1.795  11.536
  944MPD2    H113858   4.614   1.798  11.326
  944MPD2    H213859   0.063   1.456  11.309
  944MPD2    H313860   4.644   1.571  11.275
  944MPD2     N13861   4.783   1.947  11.488
  944MPD2    H513862   0.056   1.988  11.540
  944MPD2    N113863   0.260   1.554  11.444
  944MPD2    H713864   0.288   1.475  11.387
  945TMC1    C113865   3.666   2.508  14.773
  945TMC1    C213866   3.524   2.495  14.747
  945TMC1    C313867   3.487   2.371  14.694
  945TMC1    C413868   3.762   2.422  14.741
  945TMC1    C513869   3.721   2.305  14.684
  945TMC1    C613870   3.586   2.282  14.652
  945TMC1     C13871   3.708   2.628  14.851
  945TMC1     O13872   3.799   2.611  14.931
  945TMC1     H13873   3.442   2.562  14.773
  945TMC1    H113874   3.865   2.449  14.760
  945TMC1    H213875   3.552   2.192  14.604
  945TMC1    C713876   3.826   2.200  14.691
  945TMC1    C813877   3.354   2.339  14.654
  945TMC1    O113878   3.941   2.228  14.656
  945TMC1    O213879   3.348   2.278  14.548
  945TMC1    O313880   3.773   2.077  14.683
  945TMC1    H313881   3.682   2.073  14.719
  945TMC1    O513882   3.264   2.431  14.689
  945TMC1    H513883   3.290   2.462  14.778
  946MPD2     C13884   3.649   3.116  15.012
  946MPD2    C113885   3.572   3.097  14.904
  946MPD2    C213886   3.554   2.975  14.845
  946MPD2    C313887   3.635   2.866  14.889
  946MPD2    C413888   3.716   2.891  15.000
  946MPD2    C513889   3.723   3.014  15.056
  946MPD2     H13890   3.474   2.967  14.772
  946MPD2    H113891   3.787   2.820  15.041
  946MPD2    H213892   3.656   3.214  15.059
  946MPD2    H313893   3.793   3.020  15.139
  946MPD2     N13894   3.630   2.739  14.823
  946MPD2    H513895   3.561   2.740  14.748
  946MPD2    N113896   3.520   3.211  14.839
  946MPD2    H713897   3.509   3.292  14.899
  947TMC2    C113898   3.454   3.361  14.679
  947TMC2    C213899   3.547   3.452  14.719
  947TMC2    C313900   3.533   3.579  14.661
  947TMC2    C413901   3.360   3.374  14.574
  947TMC2    C513902   3.363   3.497  14.517
  947TMC2    C613903   3.440   3.601  14.563
  947TMC2     C13904   3.490   3.222  14.705
  947TMC2     O13905   3.492   3.142  14.613
  947TMC2     H13906   3.609   3.427  14.804
  947TMC2    H113907   3.297   3.291  14.546
  947TMC2    H213908   3.455   3.690  14.503
  947TMC2    C713909   3.268   3.508  14.415
  947TMC2    C813910   3.614   3.696  14.691
  947TMC2    O113911   3.159   3.459  14.448
  947TMC2    O213912   3.573   3.808  14.678
  947TMC2    O513913   3.728   3.661  14.752
  947TMC2    H513914   3.759   3.578  14.709
  948TMC2    C113915   3.392   4.314  13.922
  948TMC2    C213916   3.524   4.354  13.896
  948TMC2    C313917   3.617   4.257  13.886
  948TMC2    C413918   3.352   4.183  13.925
  948TMC2    C513919   3.459   4.092  13.922
  948TMC2    C613920   3.592   4.124  13.914
  948TMC2     C13921   3.298   4.415  13.939
  948TMC2     O13922   3.341   4.524  13.980
  948TMC2     H13923   3.551   4.457  13.874
  948TMC2    H113924   3.250   4.152  13.945
  948TMC2    H213925   3.661   4.042  13.899
  948TMC2    C713926   3.437   3.963  13.977
  948TMC2    C813927   3.760   4.292  13.877
  948TMC2    O113928   3.534   3.904  14.024
  948TMC2    O213929   3.855   4.230  13.921
  948TMC2    O513930   3.771   4.375  13.771
  948TMC2    H513931   3.684   4.383  13.726
  949MPD2     C13932   2.814   4.505  14.024
  949MPD2    C113933   2.822   4.433  13.907
  949MPD2    C213934   2.946   4.386  13.872
  949MPD2    C313935   3.055   4.429  13.943
  949MPD2    C413936   3.047   4.519  14.047
  949MPD2    C513937   2.925   4.554  14.092
  949MPD2     H13938   2.953   4.315  13.790
  949MPD2    H113939   3.127   4.556  14.111
  949MPD2    H213940   2.716   4.528  14.064
  949MPD2    H313941   2.918   4.627  14.171
  949MPD2     N13942   3.176   4.377  13.895
  949MPD2    H513943   3.182   4.302  13.827
  949MPD2    N113944   2.709   4.405  13.835
  949MPD2    H713945   2.620   4.415  13.883
  950MPD1     C13946   1.700   0.969  13.526
  950MPD1    C113947   1.831   0.940  13.484
  950MPD1    C213948   1.877   0.816  13.468
  950MPD1    C313949   1.792   0.710  13.484
  950MPD1    C413950   1.664   0.736  13.533
  950MPD1    C513951   1.624   0.863  13.561
  950MPD1     H13952   1.979   0.805  13.435
  950MPD1    H113953   1.593   0.663  13.572
  950MPD1    H213954   1.671   1.073  13.531
  950MPD1    H313955   1.524   0.882  13.599
  950MPD1     N13956   1.832   0.576  13.466
  950MPD1    H513957   1.765   0.507  13.497
  950MPD1    N113958   1.915   1.048  13.462
  950MPD1    H613959   1.857   1.124  13.428
  950MPD1    H713960   1.985   1.022  13.393
  951MPD2     C13961   1.904   4.718  13.551
  951MPD2    C113962   1.996   4.732  13.650
  951MPD2    C213963   2.070   4.622  13.691
  951MPD2    C313964   2.062   4.503  13.619
  951MPD2    C413965   1.970   4.491  13.509
  951MPD2    C513966   1.896   4.601  13.482
  951MPD2     H13967   2.137   4.630  13.777
  951MPD2    H113968   1.957   4.395  13.460
  951MPD2    H213969   1.839   4.799  13.521
  951MPD2    H313970   1.836   4.600  13.392
  951MPD2     N13971   2.144   4.394  13.640
  951MPD2    H513972   2.139   4.310  13.583
  951MPD2    N113973   2.018   0.043  13.722
  951MPD2    H713974   2.063   0.035  13.813
  952TMC3    C113975   2.357   4.284  13.670
  952TMC3    C213976   2.480   4.304  13.730
  952TMC3    C313977   2.587   4.323  13.648
  952TMC3    C413978   2.347   4.267  13.535
  952TMC3    C513979   2.462   4.286  13.454
  952TMC3    C613980   2.579   4.306  13.513
  952TMC3     C13981   2.249   4.377  13.726
  952TMC3     O13982   2.289   4.455  13.815
  952TMC3     H13983   2.487   4.326  13.836
  952TMC3    H113984   2.255   4.249  13.481
  952TMC3    H213985   2.661   4.316  13.443
  952TMC3    C713986   2.434   4.390  13.361
  952TMC3    C813987   2.712   4.363  13.704
  952TMC3    O113988   2.518   4.477  13.343
  952TMC3    O213989   2.797   4.363  13.620
  953TMC3    C113990   1.940   0.389  13.399
  953TMC3    C213991   2.017   0.339  13.307
  953TMC3    C313992   2.076   0.222  13.342
  953TMC3    C413993   1.935   0.339  13.522
  953TMC3    C513994   1.988   0.215  13.550
  953TMC3    C613995   2.075   0.157  13.463
  953TMC3     C13996   1.935   0.533  13.383
  953TMC3     O13997   2.016   0.593  13.315
  953TMC3     H13998   2.000   0.385  13.211
  953TMC3    H113999   1.870   0.381  13.598
  953TMC3    H214000   2.133   0.068  13.485
  953TMC3    C714001   1.975   0.170  13.689
  953TMC3    C814002   2.114   0.148  13.220
  953TMC3    O114003   1.975   0.261  13.771
  953TMC3    O214004   2.059   0.169  13.113
  954MPD2     C14005   2.141   4.455  13.139
  954MPD2    C114006   2.242   4.485  13.229
  954MPD2    C214007   2.266   4.618  13.253
  954MPD2    C314008   2.185   4.715  13.194
  954MPD2    C414009   2.081   4.685  13.109
  954MPD2    C514010   2.063   4.556  13.082
  954MPD2     H14011   2.353   4.640  13.314
  954MPD2    H114012   2.025   4.762  13.057
  954MPD2    H214013   2.124   4.354  13.104
  954MPD2    H314014   2.009   4.528  12.993
  954MPD2     N14015   2.195   0.038  13.253
  954MPD2    H514016   2.263   0.042  13.328
  954MPD2    N114017   2.310   4.376  13.302
  954MPD2    H714018   2.254   4.291  13.301
  955MPD2     C14019   3.100   3.636  14.208
  955MPD2    C114020   3.228   3.676  14.238
  955MPD2    C214021   3.294   3.770  14.160
  955MPD2    C314022   3.240   3.827  14.049
  955MPD2    C414023   3.114   3.790  14.026
  955MPD2    C514024   3.045   3.694  14.096
  955MPD2     H14025   3.392   3.796  14.199
  955MPD2    H114026   3.059   3.828  13.941
  955MPD2    H214027   3.048   3.552  14.252
  955MPD2    H314028   2.945   3.666  14.065
  955MPD2     N14029   3.303   3.926  13.973
  955MPD2    H514030   3.232   3.985  13.932
  955MPD2    N114031   3.308   3.610  14.332
  955MPD2    H714032   3.404   3.633  14.354
  956MPD1     C14033   0.435   4.762  17.438
  956MPD1    C114034   0.511   0.067  17.470
  956MPD1    C214035   0.583   0.129  17.372
  956MPD1    C314036   0.601   0.061  17.257
  956MPD1    C414037   0.536   4.747  17.227
  956MPD1    C514038   0.449   4.697  17.321
  956MPD1     H14039   0.624   0.228  17.386
  956MPD1    H114040   0.555   4.702  17.130
  956MPD1    H214041   0.383   4.712  17.519
  956MPD1    H314042   0.388   4.611  17.297
  956MPD1     N14043   0.689   0.099  17.161
  956MPD1    H514044   0.704   0.027  17.091
  956MPD1    N114045   0.492   0.132  17.592
  956MPD1    H614046   0.468   0.070  17.670
  956MPD1    H714047   0.573   0.183  17.625
  957MPD1     C14048   1.569   0.552  17.221
  957MPD1    C114049   1.451   0.569  17.288
  957MPD1    C214050   1.339   0.510  17.226
  957MPD1    C314051   1.349   0.418  17.125
  957MPD1    C414052   1.472   0.390  17.075
  957MPD1    C514053   1.576   0.463  17.118
  957MPD1     H14054   1.238   0.534  17.257
  957MPD1    H114055   1.493   0.314  17.001
  957MPD1    H214056   1.656   0.610  17.249
  957MPD1    H314057   1.669   0.446  17.064
  957MPD1     N14058   1.226   0.360  17.090
  957MPD1    H514059   1.143   0.403  17.131
  957MPD1    N114060   1.436   0.674  17.381
  957MPD1    H614061   1.514   0.687  17.445
  957MPD1    H714062   1.350   0.668  17.436
  958TMC3    C114063   1.065   0.253  16.962
  958TMC3    C214064   1.025   0.221  16.838
  958TMC3    C314065   0.893   0.195  16.820
  958TMC3    C414066   0.981   0.254  17.068
  958TMC3    C514067   0.854   0.206  17.046
  958TMC3    C614068   0.803   0.184  16.922
  958TMC3     C14069   1.205   0.282  16.979
  958TMC3     O14070   1.278   0.259  16.879
  958TMC3     H14071   1.092   0.177  16.765
  958TMC3    H114072   1.012   0.266  17.171
  958TMC3    H214073   0.695   0.178  16.924
  958TMC3    C714074   0.765   0.212  17.161
  958TMC3    C814075   0.836   0.173  16.687
  958TMC3    O114076   0.756   0.313  17.229
  958TMC3    O214077   0.719   0.134  16.688
  959MPD1     C14078   0.768   0.239  16.174
  959MPD1    C114079   0.892   0.296  16.208
  959MPD1    C214080   0.936   0.283  16.344
  959MPD1    C314081   0.861   0.222  16.446
  959MPD1    C414082   0.738   0.174  16.405
  959MPD1    C514083   0.702   0.175  16.274
  959MPD1     H14084   1.032   0.326  16.369
  959MPD1    H114085   0.664   0.128  16.470
  959MPD1    H214086   0.716   0.249  16.079
  959MPD1    H314087   0.607   0.129  16.252
  959MPD1     N14088   0.907   0.219  16.578
  959MPD1    H514089   1.001   0.257  16.591
  959MPD1    N114090   0.969   0.366  16.113
  959MPD1    H614091   1.065   0.380  16.143
  959MPD1    H714092   0.978   0.322  16.022
  960TCq1    O114093   2.528   4.737  12.135
  960TCq1    C114094   2.595   0.034  12.081
  960TCq1    O214095   2.685   0.094  12.140
  960TCq1    C214096   2.504   0.089  11.985
  960TCq1    C314097   2.459   0.007  11.886
  960TCq1    C414098   2.382   0.065  11.790
  960TCq1    C514099   2.346   0.194  11.779
  960TCq1    C614100   2.417   0.277  11.863
  960TCq1    C714101   2.482   0.229  11.975
  960TCq1    C814102   2.349   0.405  11.890
  960TCq1    O414103   2.351   0.449  12.005
  960TCq1    C914104   2.329   4.779  11.685
  960TCq1    O514105   2.210   4.783  11.653
  960TCq1    O614106   2.437   4.758  11.605
  960TCq1    H114107   2.439   4.721  12.096
  960TCq1    H214108   2.479   4.706  11.879
  960TCq1    H314109   2.271   0.212  11.704
  960TCq1    H414110   2.520   0.289  12.058
  961MPD1     C14111   1.990   0.748  11.720
  961MPD1    C114112   2.030   0.661  11.619
  961MPD1    C214113   2.132   0.568  11.637
  961MPD1    C314114   2.191   0.554  11.762
  961MPD1    C414115   2.135   0.620  11.871
  961MPD1    C514116   2.044   0.719  11.847
  961MPD1     H14117   2.174   0.514  11.553
  961MPD1    H114118   2.178   0.609  11.969
  961MPD1    H214119   1.918   0.827  11.706
  961MPD1    H314120   2.000   0.767  11.934
  961MPD1     N14121   2.295   0.457  11.768
  961MPD1    H514122   2.317   0.404  11.684
  961MPD1    N114123   1.985   0.682  11.489
  961MPD1    H614124   1.997   0.598  11.433
  961MPD1    H714125   1.887   0.706  11.476
  962TMC1    C114126   0.791   1.364  19.374
  962TMC1    C214127   0.764   1.432  19.259
  962TMC1    C314128   0.818   1.381  19.142
  962TMC1    C414129   0.885   1.262  19.374
  962TMC1    C514130   0.950   1.229  19.255
  962TMC1    C614131   0.914   1.276  19.130
  962TMC1     C14132   0.672   1.341  19.455
  962TMC1     O14133   0.572   1.399  19.422
  962TMC1     H14134   0.681   1.501  19.266
  962TMC1    H114135   0.924   1.232  19.470
  962TMC1    H214136   0.961   1.253  19.035
  962TMC1    C714137   1.064   1.139  19.265
  962TMC1    C814138   0.754   1.427  19.015
  962TMC1    O114139   1.145   1.163  19.353
  962TMC1    O214140   0.781   1.379  18.909
  962TMC1    O314141   1.000   1.026  19.256
  962TMC1    H314142   0.941   1.009  19.180
  962TMC1    O514143   0.736   1.558  19.042
  962TMC1    H514144   0.744   1.580  19.137
  963MPD1     C14145   0.448   1.138  19.872
  963MPD1    C114146   0.570   1.074  19.859
  963MPD1    C214147   0.660   1.124  19.759
  963MPD1    C314148   0.611   1.208  19.661
  963MPD1    C414149   0.478   1.246  19.666
  963MPD1    C514150   0.400   1.219  19.774
  963MPD1     H14151   0.764   1.094  19.763
  963MPD1    H114152   0.434   1.311  19.591
  963MPD1    H214153   0.381   1.122  19.956
  963MPD1    H314154   0.297   1.252  19.771
  963MPD1     N14155   0.697   1.242  19.555
  963MPD1    H514156   0.795   1.214  19.561
  963MPD1    N114157   0.618   0.995  19.967
  963MPD1    H614158   0.537   0.942  19.999
  963MPD1    H714159   0.685   0.933  19.922
  964MPD1     C14160   3.373   4.548  12.403
  964MPD1    C114161   3.484   4.542  12.318
  964MPD1    C214162   3.565   4.650  12.302
  964MPD1    C314163   3.534   4.764  12.372
  964MPD1    C414164   3.424   4.777  12.453
  964MPD1    C514165   3.347   4.664  12.468
  964MPD1     H14166   3.654   4.659  12.241
  964MPD1    H114167   3.384   0.062  12.498
  964MPD1    H214168   3.306   4.466  12.424
  964MPD1    H314169   3.255   4.675  12.525
  964MPD1     N14170   3.623   0.073  12.353
  964MPD1    H514171   3.705   0.045  12.299
  964MPD1    N114172   3.502   4.431  12.233
  964MPD1    H614173   3.473   4.342  12.274
  964MPD1    H714174   3.602   4.423  12.211
  965MPD1     C14175   3.124   0.670  11.841
  965MPD1    C114176   3.073   0.615  11.723
  965MPD1    C214177   3.140   0.517  11.654
  965MPD1    C314178   3.267   0.479  11.683
  965MPD1    C414179   3.320   0.535  11.797
  965MPD1    C514180   3.249   0.628  11.876
  965MPD1     H14181   3.096   0.471  11.566
  965MPD1    H114182   3.414   0.499  11.837
  965MPD1    H214183   3.077   0.748  11.900
  965MPD1    H314184   3.296   0.640  11.973
  965MPD1     N14185   3.334   0.374  11.613
  965MPD1    H514186   3.421   0.333  11.647
  965MPD1    N114187   2.950   0.658  11.664
  965MPD1    H614188   2.900   0.718  11.729
  965MPD1    H714189   2.891   0.586  11.625
  966MPD1     C14190   3.013   4.669  10.817
  966MPD1    C114191   3.018   4.610  10.943
  966MPD1    C214192   3.107   4.671  11.031
  966MPD1    C314193   3.200   4.768  11.007
  966MPD1    C414194   3.202   0.009  10.877
  966MPD1    C514195   3.106   4.771  10.787
  966MPD1     H14196   3.115   4.625  11.128
  966MPD1    H114197   3.274   0.086  10.851
  966MPD1    H214198   2.941   4.627  10.747
  966MPD1    H314199   3.107   0.004  10.686
  966MPD1     N14200   3.274   0.006  11.118
  966MPD1    H514201   3.250   4.771  11.208
  966MPD1    N114202   2.928   4.512  10.987
  966MPD1    H614203   2.911   4.446  10.911
  966MPD1    H714204   2.966   4.453  11.060
  967MPD2     C14205   3.726   0.603  11.782
  967MPD2    C114206   3.822   0.620  11.882
  967MPD2    C214207   3.955   0.660  11.845
  967MPD2    C314208   3.980   0.686  11.715
  967MPD2    C414209   3.890   0.668  11.617
  967MPD2    C514210   3.764   0.627  11.651
  967MPD2     H14211   4.036   0.663  11.916
  967MPD2    H114212   3.914   0.673  11.511
  967MPD2    H214213   3.627   0.568  11.808
  967MPD2    H314214   3.694   0.617  11.569
  967MPD2     N14215   4.110   0.709  11.668
  967MPD2    H514216   4.124   0.702  11.568
  967MPD2    N114217   3.787   0.592  12.017
  967MPD2    H714218   3.859   0.615  12.084
  968TMC3    C114219   3.711   0.501  12.207
  968TMC3    C214220   3.630   0.409  12.265
  968TMC3    C314221   3.688   0.302  12.327
  968TMC3    C414222   3.847   0.489  12.235
  968TMC3    C514223   3.902   0.368  12.279
  968TMC3    C614224   3.825   0.271  12.328
  968TMC3     C14225   3.686   0.515  12.063
  968TMC3     O14226   3.604   0.444  12.008
  968TMC3     H14227   3.532   0.401  12.218
  968TMC3    H114228   3.913   0.570  12.207
  968TMC3    H214229   3.860   0.186  12.386
  968TMC3    C714230   4.035   0.348  12.222
  968TMC3    C814231   3.592   0.205  12.380
  968TMC3    O114232   4.105   0.443  12.196
  968TMC3    O214233   3.489   0.251  12.430
  969TMC3    C114234   3.389   0.213  11.449
  969TMC3    C214235   3.341   0.145  11.339
  969TMC3    C314236   3.433   0.128  11.235
  969TMC3    C414237   3.517   0.264  11.451
  969TMC3    C514238   3.602   0.238  11.347
  969TMC3    C614239   3.566   0.166  11.238
  969TMC3     C14240   3.284   0.297  11.509
  969TMC3     O14241   3.172   0.296  11.462
  969TMC3     H14242   3.239   0.112  11.328
  969TMC3    H114243   3.557   0.318  11.536
  969TMC3    H214244   3.633   0.153  11.154
  969TMC3    C714245   3.742   0.263  11.365
  969TMC3    C814246   3.384   0.085  11.104
  969TMC3    O114247   3.782   0.355  11.434
  969TMC3    O214248   3.451   0.137  11.013
  970MPD2     C14249   4.366   0.066  11.951
  970MPD2    C114250   4.348   0.201  11.947
  970MPD2    C214251   4.245   0.255  12.029
  970MPD2    C314252   4.176   0.170  12.114
  970MPD2    C414253   4.207   0.036  12.120
  970MPD2    C514254   4.292   4.788  12.026
  970MPD2     H14255   4.222   0.361  12.024
  970MPD2    H114256   4.157   4.768  12.182
  970MPD2    H214257   4.443   0.012  11.897
  970MPD2    H314258   4.324   4.685  12.021
  970MPD2     N14259   4.064   0.214  12.197
  970MPD2    H514260   3.991   0.149  12.222
  970MPD2    N114261   4.429   0.280  11.859
  970MPD2    H714262   4.481   0.242  11.781
  971TMC3    C114263   4.419   0.496  11.755
  971TMC3    C214264   4.390   0.433  11.639
  971TMC3    C314265   4.345   0.511  11.543
  971TMC3    C414266   4.403   0.628  11.773
  971TMC3    C514267   4.337   0.702  11.684
  971TMC3    C614268   4.317   0.645  11.562
  971TMC3     C14269   4.433   0.412  11.875
  971TMC3     O14270   4.432   0.473  11.977
  971TMC3     H14271   4.381   0.325  11.637
  971TMC3    H114272   4.407   0.669  11.873
  971TMC3    H214273   4.300   0.708  11.475
  971TMC3    C714274   4.212   0.753  11.743
  971TMC3    C814275   4.237   0.456  11.465
  971TMC3    O114276   4.204   0.813  11.853
  971TMC3    O214277   4.142   0.532  11.443
  972MPD2     C14278   4.231   0.122  11.313
  972MPD2    C114279   4.181   0.236  11.371
  972MPD2    C214280   4.044   0.248  11.375
  972MPD2    C314281   3.967   0.150  11.317
  972MPD2    C414282   4.014   0.042  11.253
  972MPD2    C514283   4.150   0.023  11.253
  972MPD2     H14284   4.012   0.339  11.424
  972MPD2    H114285   3.954   4.772  11.203
  972MPD2    H214286   4.338   0.107  11.309
  972MPD2    H314287   4.209   4.749  11.207
  972MPD2     N14288   3.821   0.166  11.311
  972MPD2    H514289   3.771   0.084  11.279
  972MPD2    N114290   4.269   0.328  11.429
  972MPD2    H714291   4.370   0.314  11.439
  973MPD1     C14292   3.874   4.135  16.978
  973MPD1    C114293   3.859   4.166  16.841
  973MPD1    C214294   3.776   4.084  16.770
  973MPD1    C314295   3.697   3.993  16.832
  973MPD1    C414296   3.700   3.970  16.970
  973MPD1    C514297   3.797   4.036  17.042
  973MPD1     H14298   3.781   4.090  16.661
  973MPD1    H114299   3.633   3.898  17.015
  973MPD1    H214300   3.953   4.168  17.045
  973MPD1    H314301   3.814   4.021  17.148
  973MPD1     N14302   3.611   3.906  16.762
  973MPD1    H514303   3.556   3.837  16.812
  973MPD1    N114304   3.951   4.249  16.776
  973MPD1    H614305   3.923   4.262  16.679
  973MPD1    H714306   3.962   4.338  16.824
  974TMC2    C114307   3.466   3.615  16.430
  974TMC2    C214308   3.388   3.542  16.514
  974TMC2    C314309   3.363   3.601  16.631
  974TMC2    C414310   3.535   3.730  16.458
  974TMC2    C514311   3.519   3.784  16.588
  974TMC2    C614312   3.436   3.714  16.676
  974TMC2     C14313   3.488   3.556  16.297
  974TMC2     O14314   3.465   3.437  16.284
  974TMC2     H14315   3.321   3.465  16.477
  974TMC2    H114316   3.606   3.780  16.394
  974TMC2    H214317   3.399   3.754  16.769
  974TMC2    C714318   3.591   3.900  16.623
  974TMC2    C814319   3.273   3.526  16.714
  974TMC2    O114320   3.631   3.969  16.532
  974TMC2    O214321   3.241   3.411  16.687
  974TMC2    O514322   3.198   3.626  16.771
  974TMC2    H514323   3.226   3.715  16.740
  975MPD1     C14324   3.468   3.591  15.783
  975MPD1    C114325   3.480   3.720  15.834
  975MPD1    C214326   3.485   3.737  15.972
  975MPD1    C314327   3.503   3.631  16.061
  975MPD1    C414328   3.503   3.503  16.001
  975MPD1    C514329   3.470   3.487  15.871
  975MPD1     H14330   3.473   3.841  15.999
  975MPD1    H114331   3.519   3.415  16.063
  975MPD1    H214332   3.434   3.576  15.681
  975MPD1    H314333   3.443   3.387  15.836
  975MPD1     N14334   3.507   3.655  16.199
  975MPD1    H514335   3.516   3.753  16.225
  975MPD1    N114336   3.475   3.836  15.760
  975MPD1    H614337   3.545   3.908  15.776
  975MPD1    H714338   3.464   3.832  15.659
  976TMC1    C114339   1.604   2.772  13.375
  976TMC1    C214340   1.536   2.773  13.493
  976TMC1    C314341   1.405   2.733  13.489
  976TMC1    C414342   1.557   2.714  13.264
  976TMC1    C514343   1.429   2.657  13.269
  976TMC1    C614344   1.352   2.665  13.383
  976TMC1     C14345   1.726   2.845  13.369
  976TMC1     O14346   1.738   2.918  13.273
  976TMC1     H14347   1.561   2.832  13.580
  976TMC1    H114348   1.601   2.722  13.165
  976TMC1    H214349   1.246   2.645  13.376
  976TMC1    C714350   1.356   2.620  13.148
  976TMC1    C814351   1.325   2.753  13.607
  976TMC1    O114352   1.286   2.518  13.129
  976TMC1    O214353   1.375   2.821  13.691
  976TMC1    O314354   1.322   2.749  13.117
  976TMC1    H314355   1.374   2.817  13.164
  976TMC1    O514356   1.272   2.630  13.628
  976TMC1    H514357   1.258   2.585  13.542
  977MPD2     C14358   1.999   2.935  13.377
  977MPD2    C114359   1.940   2.871  13.483
  977MPD2    C214360   2.015   2.839  13.599
  977MPD2    C314361   2.149   2.870  13.604
  977MPD2    C414362   2.207   2.934  13.495
  977MPD2    C514363   2.135   2.965  13.382
  977MPD2     H14364   1.971   2.788  13.684
  977MPD2    H114365   2.309   2.971  13.489
  977MPD2    H214366   1.953   2.941  13.279
  977MPD2    H314367   2.182   3.024  13.304
  977MPD2     N14368   2.225   2.849  13.717
  977MPD2    H514369   2.178   2.808  13.797
  977MPD2    N114370   1.811   2.821  13.475
  977MPD2    H714371   1.772   2.766  13.551
  978TCq1    O114372   2.627   2.932  14.165
  978TCq1    C114373   2.686   2.833  14.089
  978TCq1    O214374   2.781   2.760  14.125
  978TCq1    C214375   2.585   2.777  14.004
  978TCq1    C314376   2.536   2.657  14.050
  978TCq1    C414377   2.415   2.629  13.994
  978TCq1    C514378   2.352   2.691  13.895
  978TCq1    C614379   2.416   2.802  13.846
  978TCq1    C714380   2.533   2.846  13.899
  978TCq1    C814381   2.359   2.875  13.731
  978TCq1    O414382   2.437   2.945  13.671
  978TCq1    C914383   2.343   2.527  14.062
  978TCq1    O514384   2.231   2.551  14.106
  978TCq1    O614385   2.421   2.422  14.091
  978TCq1    H114386   2.544   2.961  14.121
  978TCq1    H214387   2.580   2.609  14.137
  978TCq1    H314388   2.261   2.649  13.854
  978TCq1    H414389   2.574   2.943  13.871
  979MPD2     C14390   1.428   4.080  15.152
  979MPD2    C114391   1.321   3.996  15.140
  979MPD2    C214392   1.319   3.899  15.044
  979MPD2    C314393   1.430   3.886  14.958
  979MPD2    C414394   1.540   3.970  14.975
  979MPD2    C514395   1.534   4.065  15.068
  979MPD2     H14396   1.236   3.829  15.037
  979MPD2    H114397   1.634   3.951  14.925
  979MPD2    H214398   1.431   4.148  15.236
  979MPD2    H314399   1.630   4.110  15.092
  979MPD2     N14400   1.454   3.776  14.871
  979MPD2    H514401   1.549   3.763  14.837
  979MPD2    N114402   1.210   4.015  15.222
  979MPD2    H714403   1.192   4.108  15.260
  980TMC3    C114404   0.988   3.975  15.292
  980TMC3    C214405   0.901   3.871  15.329
  980TMC3    C314406   0.769   3.879  15.305
  980TMC3    C414407   0.938   4.086  15.232
  980TMC3    C514408   0.800   4.092  15.215
  980TMC3    C614409   0.719   3.997  15.263
  980TMC3     C14410   1.106   3.918  15.232
  980TMC3     O14411   1.103   3.795  15.223
  980TMC3     H14412   0.936   3.787  15.389
  980TMC3    H114413   1.002   4.172  15.213
  980TMC3    H214414   0.613   4.018  15.253
  980TMC3    C714415   0.744   4.179  15.116
  980TMC3    C814416   0.724   3.771  15.222
  980TMC3    O114417   0.622   4.190  15.096
  980TMC3    O214418   0.606   3.775  15.198
  981TCq1    O114419   1.143   0.322  14.478
  981TCq1    C114420   1.236   0.301  14.577
  981TCq1    O214421   1.338   0.373  14.600
  981TCq1    C214422   1.195   0.196  14.670
  981TCq1    C314423   1.286   0.178  14.775
  981TCq1    C414424   1.276   0.063  14.849
  981TCq1    C514425   1.200   4.764  14.807
  981TCq1    C614426   1.122   4.777  14.692
  981TCq1    C714427   1.122   0.088  14.626
  981TCq1    C814428   1.025   4.682  14.662
  981TCq1    O414429   0.995   4.666  14.542
  981TCq1    C914430   1.379   0.034  14.941
  981TCq1    O514431   1.488   0.081  14.922
  981TCq1    O614432   1.337   4.773  15.049
  981TCq1    H114433   1.069   0.257  14.473
  981TCq1    H214434   1.355   0.256  14.805
  981TCq1    H314435   1.222   4.673  14.861
  981TCq1    H414436   1.073   0.086  14.529
  982MPD2     C14437   0.816   4.466  14.697
  982MPD2    C114438   0.926   4.489  14.787
  982MPD2    C214439   0.935   4.410  14.901
  982MPD2    C314440   0.832   4.327  14.940
  982MPD2    C414441   0.739   4.289  14.842
  982MPD2    C514442   0.723   4.367  14.730
  982MPD2     H14443   1.016   4.434  14.969
  982MPD2    H114444   0.661   4.215  14.858
  982MPD2    H214445   0.787   4.529  14.614
  982MPD2    H314446   0.638   4.342  14.668
  982MPD2     N14447   0.842   4.252  15.058
  982MPD2    H514448   0.935   4.236  15.095
  982MPD2    N114449   1.014   4.601  14.769
  982MPD2    H714450   1.059   4.624  14.857
  983TMC2    C114451   1.289   3.375  14.896
  983TMC2    C214452   1.389   3.362  14.993
  983TMC2    C314453   1.499   3.437  14.988
  983TMC2    C414454   1.305   3.470  14.805
  983TMC2    C514455   1.403   3.563  14.817
  983TMC2    C614456   1.518   3.534  14.897
  983TMC2     C14457   1.170   3.399  14.973
  983TMC2     O14458   1.188   3.424  15.094
  983TMC2     H14459   1.370   3.301  15.081
  983TMC2    H114460   1.216   3.502  14.751
  983TMC2    H214461   1.613   3.581  14.876
  983TMC2    C714462   1.354   3.692  14.839
  983TMC2    C814463   1.621   3.395  15.054
  983TMC2    O114464   1.229   3.708  14.839
  983TMC2    O214465   1.730   3.439  15.016
  983TMC2    O514466   1.602   3.273  15.098
  983TMC2    H514467   1.528   3.267  15.162
  984MPD2     C14468   0.696   3.588  15.004
  984MPD2    C114469   0.814   3.608  15.068
  984MPD2    C214470   0.931   3.545  15.028
  984MPD2    C314471   0.939   3.459  14.924
  984MPD2    C414472   0.821   3.448  14.847
  984MPD2    C514473   0.703   3.511  14.892
  984MPD2     H14474   1.015   3.571  15.092
  984MPD2    H114475   0.832   3.403  14.748
  984MPD2    H214476   0.602   3.642  15.018
  984MPD2    H314477   0.614   3.507  14.829
  984MPD2     N14478   1.059   3.397  14.892
  984MPD2    H514479   1.060   3.360  14.798
  984MPD2    N114480   0.829   3.701  15.174
  984MPD2    H714481   0.923   3.719  15.209
  985NH3     N114482   2.490   2.510   0.974
  985NH3     H214483   2.592   2.508   0.979
  985NH3     H314484   2.459   2.568   1.051
  985NH3     H414485   2.459   2.415   0.995
  986NA      NA14486   3.352   3.582   5.836
  987NA      NA14487   1.325   3.265  11.802
  988NA      NA14488   3.820   2.488   7.655
  989NA      NA14489   4.101   0.828   4.633
  990NA      NA14490   4.334   0.277   2.740
  991NA      NA14491   2.535   3.023   2.570
  992NA      NA14492   4.311   1.253   0.465
  993NA      NA14493   1.874   2.182  16.851
  994SOL     OW14494   0.225   0.275   0.996
  994SOL    HW114495   0.260   0.258   1.088
  994SOL    HW214496   0.137   0.230   0.984
  995SOL     OW14497   0.019   0.368   0.647
  995SOL    HW114498  -0.063   0.411   0.686
  995SOL    HW214499  -0.009   0.295   0.584
  996SOL     OW14500   0.569   1.275   1.165
  996SOL    HW114501   0.476   1.268   1.128
  996SOL    HW214502   0.580   1.364   1.209
  997SOL     OW14503   1.555   1.511   0.703
  997SOL    HW114504   1.498   1.495   0.784
  997SOL    HW214505   1.496   1.521   0.623
  998SOL     OW14506   0.768   1.144   1.023
  998SOL    HW114507   0.690   1.161   1.083
  998SOL    HW214508   0.802   1.231   0.987
  999SOL     OW14509   0.685   1.012   0.665
  999SOL    HW114510   0.754   0.996   0.735
  999SOL    HW214511   0.612   1.069   0.703
 1000SOL     OW14512   0.335   1.435   1.061
 1000SOL    HW114513   0.257   1.404   1.008
 1000SOL    HW214514   0.393   1.493   1.004
 1001SOL     OW14515   1.603   0.447   0.737
 1001SOL    HW114516   1.529   0.493   0.687
 1001SOL    HW214517   1.654   0.515   0.790
 1002SOL     OW14518   0.231   1.713   0.483
 1002SOL    HW114519   0.265   1.790   0.537
 1002SOL    HW214520   0.275   1.713   0.393
 1003SOL     OW14521   1.127   1.341   1.690
 1003SOL    HW114522   1.174   1.341   1.778
 1003SOL    HW214523   1.079   1.254   1.679
 1004SOL     OW14524   0.122   0.643   0.563
 1004SOL    HW114525   0.077   0.555   0.580
 1004SOL    HW214526   0.121   0.697   0.647
 1005SOL     OW14527   0.113   0.737   1.597
 1005SOL    HW114528   0.201   0.724   1.642
 1005SOL    HW214529   0.100   0.834   1.575
 1006SOL     OW14530   0.613   1.365   0.726
 1006SOL    HW114531   0.564   1.278   0.735
 1006SOL    HW214532   0.590   1.408   0.639
 1007SOL     OW14533   1.293   1.228   1.423
 1007SOL    HW114534   1.330   1.155   1.365
 1007SOL    HW214535   1.345   1.233   1.508
 1008SOL     OW14536   0.809   0.004   0.502
 1008SOL    HW114537   0.849   0.095   0.493
 1008SOL    HW214538   0.709   0.012   0.508
 1009SOL     OW14539   1.187   1.792   1.616
 1009SOL    HW114540   1.211   1.852   1.540
 1009SOL    HW214541   1.194   1.697   1.586
 1010SOL     OW14542   0.317   0.251   1.801
 1010SOL    HW114543   0.388   0.322   1.807
 1010SOL    HW214544   0.229   0.290   1.829
 1011SOL     OW14545   1.281   0.345   0.944
 1011SOL    HW114546   1.195   0.295   0.931
 1011SOL    HW214547   1.343   0.291   1.000
 1012SOL     OW14548   1.576   1.662   0.307
 1012SOL    HW114549   1.665   1.708   0.310
 1012SOL    HW214550   1.555   1.638   0.212
 1013SOL     OW14551   1.394   0.469   1.674
 1013SOL    HW114552   1.374   0.512   1.762
 1013SOL    HW214553   1.472   0.407   1.683
 1014SOL     OW14554   1.041   0.701   0.429
 1014SOL    HW114555   1.067   0.697   0.525
 1014SOL    HW214556   0.956   0.650   0.415
 1015SOL     OW14557   0.076   0.811   0.789
 1015SOL    HW114558   0.175   0.799   0.798
 1015SOL    HW214559   0.052   0.906   0.810
 1016SOL     OW14560   0.865   0.348   0.195
 1016SOL    HW114561   0.924   0.411   0.146
 1016SOL    HW214562   0.884   0.254   0.166
 1017SOL     OW14563   1.719   0.585   1.831
 1017SOL    HW114564   1.693   0.674   1.795
 1017SOL    HW214565   1.717   0.517   1.758
 1018SOL     OW14566   1.227   1.550   1.506
 1018SOL    HW114567   1.233   1.473   1.570
 1018SOL    HW214568   1.175   1.524   1.426
 1019SOL     OW14569   0.464   1.743   0.323
 1019SOL    HW114570   0.497   1.782   0.409
 1019SOL    HW214571   0.540   1.736   0.258
 1020SOL     OW14572   0.940   1.698   0.904
 1020SOL    HW114573   1.020   1.641   0.925
 1020SOL    HW214574   0.891   1.658   0.827
 1021SOL     OW14575   1.547   0.222   1.729
 1021SOL    HW114576   1.542   0.259   1.821
 1021SOL    HW214577   1.475   0.153   1.717
 1022SOL     OW14578   0.781   0.264   1.749
 1022SOL    HW114579   0.848   0.203   1.792
 1022SOL    HW214580   0.708   0.283   1.814
 1023SOL     OW14581   0.539   0.064   0.512
 1023SOL    HW114582   0.458   0.065   0.570
 1023SOL    HW214583   0.542   0.147   0.457
 1024SOL     OW14584   1.434   1.188   0.041
 1024SOL    HW114585   1.466   1.112   0.098
 1024SOL    HW214586   1.342   1.215   0.071
 1025SOL     OW14587   0.935   0.236   0.480
 1025SOL    HW114588   0.887   0.277   0.402
 1025SOL    HW214589   1.034   0.234   0.461
 1026SOL     OW14590   0.459   1.152   0.741
 1026SOL    HW114591   0.388   1.125   0.806
 1026SOL    HW214592   0.433   1.124   0.648
 1027SOL     OW14593   0.078   0.556   1.386
 1027SOL    HW114594   0.170   0.555   1.345
 1027SOL    HW214595   0.072   0.630   1.453
 1028SOL     OW14596   0.866   0.454   0.642
 1028SOL    HW114597   0.834   0.526   0.580
 1028SOL    HW214598   0.890   0.373   0.589
 1029SOL     OW14599   1.017   0.039   0.753
 1029SOL    HW114600   0.945   0.044   0.684
 1029SOL    HW214601   0.993  -0.030   0.822
 1030SOL     OW14602   1.429   1.173   0.867
 1030SOL    HW114603   1.374   1.089   0.860
 1030SOL    HW214604   1.455   1.202   0.775
 1031SOL     OW14605   1.466   0.590   0.992
 1031SOL    HW114606   1.436   0.495   0.999
 1031SOL    HW214607   1.539   0.606   1.058
 1032SOL     OW14608   1.664   1.280   0.657
 1032SOL    HW114609   1.763   1.288   0.671
 1032SOL    HW214610   1.619   1.364   0.688
 1033SOL     OW14611   0.527   0.256   0.328
 1033SOL    HW114612   0.554   0.197   0.253
 1033SOL    HW214613   0.527   0.351   0.297
 1034SOL     OW14614   1.592   1.629   1.625
 1034SOL    HW114615   1.619   1.663   1.535
 1034SOL    HW214616   1.671   1.591   1.671
 1035SOL     OW14617   0.367   1.100   0.501
 1035SOL    HW114618   0.360   1.183   0.445
 1035SOL    HW214619   0.371   1.020   0.441
 1036SOL     OW14620   1.272   1.445   1.142
 1036SOL    HW114621   1.319   1.458   1.229
 1036SOL    HW214622   1.206   1.371   1.151
 1037SOL     OW14623   1.587   0.779   1.670
 1037SOL    HW114624   1.495   0.817   1.665
 1037SOL    HW214625   1.647   0.826   1.605
 1038SOL     OW14626   1.013   0.105   1.770
 1038SOL    HW114627   1.019   0.190   1.718
 1038SOL    HW214628   1.045   0.029   1.713
 1039SOL     OW14629   0.504   0.050   1.740
 1039SOL    HW114630   0.462  -0.007   1.670
 1039SOL    HW214631   0.438   0.119   1.772
 1040SOL     OW14632   0.573   0.870   1.029
 1040SOL    HW114633   0.617   0.959   1.020
 1040SOL    HW214634   0.510   0.870   1.106
 1041SOL     OW14635   1.728   0.935   1.854
 1041SOL    HW114636   1.682   0.928   1.765
 1041SOL    HW214637   1.666   0.979   1.920
 1042SOL     OW14638   0.980   1.573   1.700
 1042SOL    HW114639   0.960   1.617   1.612
 1042SOL    HW214640   1.019   1.482   1.684
 1043SOL     OW14641   1.303   0.838   0.042
 1043SOL    HW114642   1.337   0.745   0.057
 1043SOL    HW214643   1.321   0.865  -0.053
 1044SOL     OW14644   0.319   0.810   0.949
 1044SOL    HW114645   0.412   0.846   0.954
 1044SOL    HW214646   0.313   0.725   1.001
 1045SOL     OW14647   0.339   0.509   1.006
 1045SOL    HW114648   0.287   0.426   0.989
 1045SOL    HW214649   0.416   0.514   0.942
 1046SOL     OW14650   0.008   1.326   0.200
 1046SOL    HW114651  -0.085   1.347   0.169
 1046SOL    HW214652   0.018   1.227   0.213
 1047SOL     OW14653   0.504   1.568   0.910
 1047SOL    HW114654   0.570   1.642   0.919
 1047SOL    HW214655   0.548   1.489   0.868
 1048SOL     OW14656   0.040   0.544   1.114
 1048SOL    HW114657   0.125   0.511   1.073
 1048SOL    HW214658   0.053   0.559   1.212
 1049SOL     OW14659   0.189   0.520   1.722
 1049SOL    HW114660   0.248   0.480   1.652
 1049SOL    HW214661   0.131   0.591   1.681
 1050SOL     OW14662   1.369   0.950   1.660
 1050SOL    HW114663   1.408   1.039   1.680
 1050SOL    HW214664   1.379   0.930   1.563
 1051SOL     OW14665   0.815   0.572   0.325
 1051SOL    HW114666   0.822   0.483   0.279
 1051SOL    HW214667   0.721   0.606   0.317
 1052SOL     OW14668   0.252   1.564   1.744
 1052SOL    HW114669   0.222   1.621   1.820
 1052SOL    HW214670   0.245   1.467   1.770
 1053SOL     OW14671   0.930   1.678   1.465
 1053SOL    HW114672   0.906   1.660   1.370
 1053SOL    HW214673   0.960   1.772   1.475
 1054SOL     OW14674   1.252   1.731   1.128
 1054SOL    HW114675   1.336   1.736   1.074
 1054SOL    HW214676   1.229   1.635   1.146
 1055SOL     OW14677   0.688   1.662   1.716
 1055SOL    HW114678   0.632   1.743   1.725
 1055SOL    HW214679   0.740   1.666   1.630
 1056SOL     OW14680   0.130   1.794   1.851
 1056SOL    HW114681   0.089   1.720   1.904
 1056SOL    HW214682   0.194   1.845   1.909
 1057SOL     OW14683   1.650   1.720   1.394
 1057SOL    HW114684   1.703   1.730   1.310
 1057SOL    HW214685   1.623   1.810   1.428
 1058SOL     OW14686   1.194   1.612   0.031
 1058SOL    HW114687   1.200   1.519   0.068
 1058SOL    HW214688   1.135   1.612  -0.049
 1059SOL     OW14689   0.916   0.910   0.291
 1059SOL    HW114690   0.979   0.948   0.223
 1059SOL    HW214691   0.956   0.827   0.330
 1060SOL     OW14692   0.255   1.348   0.290
 1060SOL    HW114693   0.159   1.349   0.263
 1060SOL    HW214694   0.267   1.401   0.374
 1061SOL     OW14695   0.105   1.013   1.726
 1061SOL    HW114696   0.028   0.980   1.780
 1061SOL    HW214697   0.190   0.983   1.768
 1062SOL     OW14698   0.672   0.203   1.489
 1062SOL    HW114699   0.762   0.187   1.449
 1062SOL    HW214700   0.680   0.208   1.588
 1063SOL     OW14701   1.183   1.335   0.119
 1063SOL    HW114702   1.084   1.324   0.121
 1063SOL    HW214703   1.217   1.350   0.212
 1064SOL     OW14704   1.450   1.220   1.633
 1064SOL    HW114705   1.441   1.210   1.732
 1064SOL    HW214706   1.546   1.213   1.607
 1065SOL     OW14707   0.390   1.741   1.560
 1065SOL    HW114708   0.299   1.782   1.558
 1065SOL    HW214709   0.383   1.647   1.592
 1066SOL     OW14710   1.225   0.325   0.449
 1066SOL    HW114711   1.290   0.251   0.438
 1066SOL    HW214712   1.245   0.375   0.533
 1067SOL     OW14713   0.594   0.745   0.652
 1067SOL    HW114714   0.644   0.830   0.633
 1067SOL    HW214715   0.506   0.747   0.604
 1068SOL     OW14716   1.777   0.342   1.642
 1068SOL    HW114717   1.760   0.373   1.548
 1068SOL    HW214718   1.693   0.305   1.680
 1069SOL     OW14719   0.661   1.790   0.953
 1069SOL    HW114720   0.615   1.878   0.940
 1069SOL    HW214721   0.760   1.802   0.946
 1070SOL     OW14722   0.859   0.956   0.861
 1070SOL    HW114723   0.913   0.887   0.909
 1070SOL    HW214724   0.827   1.025   0.927
 1071SOL     OW14725   0.079   1.240   0.653
 1071SOL    HW114726   0.078   1.193   0.741
 1071SOL    HW214727   0.161   1.212   0.602
 1072SOL     OW14728   1.593   0.221   0.882
 1072SOL    HW114729   1.509   0.220   0.936
 1072SOL    HW214730   1.595   0.304   0.826
 1073SOL     OW14731   0.039   1.077   0.300
 1073SOL    HW114732   0.138   1.066   0.291
 1073SOL    HW214733  -0.001   0.991   0.332
 1074SOL     OW14734   0.230   0.628   1.975
 1074SOL    HW114735   0.137   0.626   2.012
 1074SOL    HW214736   0.231   0.589   1.883
 1075SOL     OW14737   0.225   0.275   2.858
 1075SOL    HW114738   0.260   0.258   2.950
 1075SOL    HW214739   0.137   0.230   2.846
 1076SOL     OW14740   0.019   0.368   2.509
 1076SOL    HW114741  -0.063   0.411   2.548
 1076SOL    HW214742  -0.009   0.295   2.446
 1077SOL     OW14743   0.569   1.275   3.027
 1077SOL    HW114744   0.476   1.268   2.990
 1077SOL    HW214745   0.580   1.364   3.071
 1078SOL     OW14746   1.555   1.511   2.565
 1078SOL    HW114747   1.498   1.495   2.646
 1078SOL    HW214748   1.496   1.521   2.485
 1079SOL     OW14749   1.135   0.703   2.579
 1079SOL    HW114750   1.192   0.781   2.554
 1079SOL    HW214751   1.075   0.729   2.655
 1080SOL     OW14752   1.755   0.607   2.093
 1080SOL    HW114753   1.743   0.594   1.994
 1080SOL    HW214754   1.725   0.526   2.142
 1081SOL     OW14755   0.768   1.144   2.885
 1081SOL    HW114756   0.690   1.161   2.945
 1081SOL    HW214757   0.802   1.231   2.849
 1082SOL     OW14758   0.850   0.798   3.685
 1082SOL    HW114759   0.846   0.874   3.750
 1082SOL    HW214760   0.872   0.834   3.594
 1083SOL     OW14761   0.685   1.012   2.527
 1083SOL    HW114762   0.754   0.996   2.597
 1083SOL    HW214763   0.612   1.069   2.565
 1084SOL     OW14764   0.686   1.161   3.665
 1084SOL    HW114765   0.746   1.240   3.679
 1084SOL    HW214766   0.600   1.192   3.624
 1085SOL     OW14767   0.335   1.435   2.923
 1085SOL    HW114768   0.257   1.404   2.870
 1085SOL    HW214769   0.393   1.493   2.866
 1086SOL     OW14770   1.460   1.505   3.201
 1086SOL    HW114771   1.484   1.599   3.227
 1086SOL    HW214772   1.444   1.451   3.283
 1087SOL     OW14773   0.438   0.392   3.361
 1087SOL    HW114774   0.520   0.336   3.370
 1087SOL    HW214775   0.357   0.334   3.365
 1088SOL     OW14776   1.603   0.447   2.599
 1088SOL    HW114777   1.529   0.493   2.549
 1088SOL    HW214778   1.654   0.515   2.652
 1089SOL     OW14779   0.231   1.713   2.345
 1089SOL    HW114780   0.265   1.790   2.399
 1089SOL    HW214781   0.275   1.713   2.255
 1090SOL     OW14782   1.127   1.341   3.552
 1090SOL    HW114783   1.174   1.341   3.640
 1090SOL    HW214784   1.079   1.254   3.541
 1091SOL     OW14785   0.230   1.434   2.400
 1091SOL    HW114786   0.204   1.530   2.400
 1091SOL    HW214787   0.159   1.380   2.445
 1092SOL     OW14788   0.240   1.091   2.748
 1092SOL    HW114789   0.254   1.007   2.800
 1092SOL    HW214790   0.185   1.155   2.803
 1093SOL     OW14791   0.620   1.786   3.301
 1093SOL    HW114792   0.528   1.769   3.336
 1093SOL    HW214793   0.648   1.878   3.327
 1094SOL     OW14794   1.594   0.114   3.342
 1094SOL    HW114795   1.576   0.181   3.270
 1094SOL    HW214796   1.591   0.160   3.431
 1095SOL     OW14797   0.122   0.643   2.425
 1095SOL    HW114798   0.077   0.555   2.442
 1095SOL    HW214799   0.121   0.697   2.509
 1096SOL     OW14800   1.842   1.767   2.221
 1096SOL    HW114801   1.896   1.738   2.301
 1096SOL    HW214802   1.872   1.857   2.192
 1097SOL     OW14803   0.027   1.596   1.979
 1097SOL    HW114804   0.008   1.500   2.000
 1097SOL    HW214805  -0.006   1.654   2.054
 1098SOL     OW14806   1.689   0.922   2.474
 1098SOL    HW114807   1.784   0.893   2.482
 1098SOL    HW214808   1.681   0.987   2.399
 1099SOL     OW14809   1.641   1.108   2.294
 1099SOL    HW114810   1.727   1.110   2.242
 1099SOL    HW214811   1.655   1.155   2.382
 1100SOL     OW14812   0.113   0.737   3.459
 1100SOL    HW114813   0.201   0.724   3.504
 1100SOL    HW214814   0.100   0.834   3.437
 1101SOL     OW14815   0.613   1.365   2.588
 1101SOL    HW114816   0.564   1.278   2.597
 1101SOL    HW214817   0.590   1.408   2.501
 1102SOL     OW14818   1.293   1.228   3.285
 1102SOL    HW114819   1.330   1.155   3.227
 1102SOL    HW214820   1.345   1.233   3.370
 1103SOL     OW14821   0.809   0.004   2.364
 1103SOL    HW114822   0.849   0.095   2.355
 1103SOL    HW214823   0.709   0.012   2.370
 1104SOL     OW14824   0.197   0.976   3.126
 1104SOL    HW114825   0.286   0.931   3.112
 1104SOL    HW214826   0.124   0.911   3.107
 1105SOL     OW14827   1.525   0.999   2.052
 1105SOL    HW114828   1.462   0.923   2.065
 1105SOL    HW214829   1.573   1.017   2.138
 1106SOL     OW14830   1.187   1.792   3.478
 1106SOL    HW114831   1.211   1.852   3.402
 1106SOL    HW214832   1.194   1.697   3.448
 1107SOL     OW14833   0.317   0.251   3.663
 1107SOL    HW114834   0.388   0.322   3.669
 1107SOL    HW214835   0.229   0.290   3.691
 1108SOL     OW14836   1.466   1.417   2.815
 1108SOL    HW114837   1.407   1.423   2.895
 1108SOL    HW214838   1.451   1.329   2.769
 1109SOL     OW14839   1.667   1.714   2.434
 1109SOL    HW114840   1.626   1.691   2.346
 1109SOL    HW214841   1.649   1.640   2.499
 1110SOL     OW14842   0.598   0.729   2.132
 1110SOL    HW114843   0.622   0.798   2.064
 1110SOL    HW214844   0.520   0.762   2.186
 1111SOL     OW14845   1.281   0.345   2.806
 1111SOL    HW114846   1.195   0.295   2.793
 1111SOL    HW214847   1.343   0.291   2.862
 1112SOL     OW14848   1.576   1.662   2.169
 1112SOL    HW114849   1.665   1.708   2.172
 1112SOL    HW214850   1.555   1.638   2.074
 1113SOL     OW14851   0.807   0.605   3.327
 1113SOL    HW114852   0.760   0.602   3.416
 1113SOL    HW214853   0.756   0.550   3.261
 1114SOL     OW14854   1.394   0.469   3.536
 1114SOL    HW114855   1.374   0.512   3.624
 1114SOL    HW214856   1.472   0.407   3.545
 1115SOL     OW14857   0.973   0.890   3.434
 1115SOL    HW114858   1.019   0.806   3.405
 1115SOL    HW214859   0.917   0.924   3.359
 1116SOL     OW14860   0.991   0.410   3.104
 1116SOL    HW114861   0.914   0.444   3.158
 1116SOL    HW214862   0.957   0.359   3.025
 1117SOL     OW14863   1.041   0.701   2.291
 1117SOL    HW114864   1.067   0.697   2.387
 1117SOL    HW214865   0.956   0.650   2.277
 1118SOL     OW14866   0.076   0.811   2.651
 1118SOL    HW114867   0.175   0.799   2.660
 1118SOL    HW214868   0.052   0.906   2.672
 1119SOL     OW14869   0.130   1.821   3.433
 1119SOL    HW114870   0.120   1.806   3.532
 1119SOL    HW214871   0.044   1.857   3.397
 1120SOL     OW14872   0.865   0.348   2.057
 1120SOL    HW114873   0.924   0.411   2.008
 1120SOL    HW214874   0.884   0.254   2.028
 1121SOL     OW14875   1.719   0.585   3.693
 1121SOL    HW114876   1.693   0.674   3.657
 1121SOL    HW214877   1.717   0.517   3.620
 1122SOL     OW14878   1.362   1.144   2.407
 1122SOL    HW114879   1.445   1.115   2.359
 1122SOL    HW214880   1.313   1.211   2.351
 1123SOL     OW14881   0.550   0.196   2.747
 1123SOL    HW114882   0.545   0.191   2.847
 1123SOL    HW214883   0.552   0.292   2.718
 1124SOL     OW14884   1.008   1.456   2.339
 1124SOL    HW114885   0.962   1.528   2.287
 1124SOL    HW214886   1.004   1.476   2.437
 1125SOL     OW14887   0.351   1.801   2.715
 1125SOL    HW114888   0.401   1.715   2.721
 1125SOL    HW214889   0.416   1.878   2.712
 1126SOL     OW14890   1.795   1.066   2.735
 1126SOL    HW114891   1.733   1.051   2.659
 1126SOL    HW214892   1.743   1.077   2.820
 1127SOL     OW14893   1.227   1.550   3.368
 1127SOL    HW114894   1.233   1.473   3.432
 1127SOL    HW214895   1.175   1.524   3.288
 1128SOL     OW14896   0.321   0.943   2.104
 1128SOL    HW114897   0.403   0.982   2.062
 1128SOL    HW214898   0.294   0.861   2.055
 1129SOL     OW14899   1.458   0.735   2.590
 1129SOL    HW114900   1.453   0.670   2.665
 1129SOL    HW214901   1.538   0.794   2.603
 1130SOL     OW14902   0.461   1.266   3.589
 1130SOL    HW114903   0.411   1.267   3.503
 1130SOL    HW214904   0.398   1.248   3.665
 1131SOL     OW14905   1.111   1.776   2.099
 1131SOL    HW114906   1.051   1.714   2.149
 1131SOL    HW214907   1.142   1.732   2.014
 1132SOL     OW14908   0.202   0.285   3.360
 1132SOL    HW114909   0.122   0.345   3.347
 1132SOL    HW214910   0.192   0.236   3.446
 1133SOL     OW14911   1.632   1.377   1.943
 1133SOL    HW114912   1.600   1.471   1.933
 1133SOL    HW214913   1.556   1.314   1.931
 1134SOL     OW14914   0.464   1.743   2.185
 1134SOL    HW114915   0.497   1.782   2.271
 1134SOL    HW214916   0.540   1.736   2.120
 1135SOL     OW14917   1.400   0.107   2.288
 1135SOL    HW114918   1.376   0.070   2.198
 1135SOL    HW214919   1.499   0.123   2.292
 1136SOL     OW14920   0.249   1.785   3.103
 1136SOL    HW114921   0.306   1.720   3.153
 1136SOL    HW214922   0.233   1.752   3.010
 1137SOL     OW14923   0.940   1.698   2.766
 1137SOL    HW114924   1.020   1.641   2.787
 1137SOL    HW214925   0.891   1.658   2.689
 1138SOL     OW14926   0.382   0.700   2.342
 1138SOL    HW114927   0.427   0.610   2.339
 1138SOL    HW214928   0.288   0.689   2.375
 1139SOL     OW14929   1.547   0.222   3.591
 1139SOL    HW114930   1.542   0.259   3.683
 1139SOL    HW214931   1.475   0.153   3.579
 1140SOL     OW14932   0.614   0.122   1.979
 1140SOL    HW114933   0.712   0.100   1.986
 1140SOL    HW214934   0.583   0.105   1.886
 1141SOL     OW14935   0.781   0.264   3.611
 1141SOL    HW114936   0.848   0.203   3.654
 1141SOL    HW214937   0.708   0.283   3.676
 1142SOL     OW14938   0.888   1.514   3.057
 1142SOL    HW114939   0.865   1.489   2.963
 1142SOL    HW214940   0.949   1.445   3.096
 1143SOL     OW14941   1.351   0.590   3.295
 1143SOL    HW114942   1.379   0.547   3.380
 1143SOL    HW214943   1.376   0.686   3.296
 1144SOL     OW14944   0.803   1.402   2.786
 1144SOL    HW114945   0.893   1.416   2.744
 1144SOL    HW214946   0.732   1.404   2.715
 1145SOL     OW14947   0.922   0.503   2.761
 1145SOL    HW114948   0.897   0.494   2.665
 1145SOL    HW214949   0.970   0.421   2.792
 1146SOL     OW14950   0.539   0.064   2.374
 1146SOL    HW114951   0.458   0.065   2.432
 1146SOL    HW214952   0.542   0.147   2.319
 1147SOL     OW14953   1.434   1.188   1.903
 1147SOL    HW114954   1.466   1.112   1.960
 1147SOL    HW214955   1.342   1.215   1.933
 1148SOL     OW14956   0.297   0.035   2.033
 1148SOL    HW114957   0.346   0.119   2.012
 1148SOL    HW214958   0.359  -0.030   2.078
 1149SOL     OW14959   0.935   0.236   2.342
 1149SOL    HW114960   0.887   0.277   2.264
 1149SOL    HW214961   1.034   0.234   2.323
 1150SOL     OW14962   1.076   0.683   3.326
 1150SOL    HW114963   0.996   0.622   3.329
 1150SOL    HW214964   1.157   0.630   3.302
 1151SOL     OW14965   1.227   1.570   2.655
 1151SOL    HW114966   1.248   1.644   2.590
 1151SOL    HW214967   1.295   1.570   2.728
 1152SOL     OW14968   0.459   1.152   2.603
 1152SOL    HW114969   0.388   1.125   2.668
 1152SOL    HW214970   0.433   1.124   2.510
 1153SOL     OW14971   1.271   1.797   2.453
 1153SOL    HW114972   1.315   1.861   2.389
 1153SOL    HW214973   1.221   1.849   2.523
 1154SOL     OW14974   1.032   0.549   1.878
 1154SOL    HW114975   0.991   0.631   1.839
 1154SOL    HW214976   1.096   0.575   1.951
 1155SOL     OW14977   0.078   0.556   3.248
 1155SOL    HW114978   0.170   0.555   3.207
 1155SOL    HW214979   0.072   0.630   3.315
 1156SOL     OW14980   0.561   0.222   3.009
 1156SOL    HW114981   0.599   0.138   3.046
 1156SOL    HW214982   0.473   0.241   3.053
 1157SOL     OW14983   0.866   0.454   2.504
 1157SOL    HW114984   0.834   0.526   2.442
 1157SOL    HW214985   0.890   0.373   2.451
 1158SOL     OW14986   1.017   0.039   2.615
 1158SOL    HW114987   0.945   0.044   2.546
 1158SOL    HW214988   0.993  -0.030   2.684
 1159SOL     OW14989   1.429   1.173   2.729
 1159SOL    HW114990   1.374   1.089   2.722
 1159SOL    HW214991   1.455   1.202   2.637
 1160SOL     OW14992   1.466   0.590   2.854
 1160SOL    HW114993   1.436   0.495   2.861
 1160SOL    HW214994   1.539   0.606   2.920
 1161SOL     OW14995   1.857   0.833   2.239
 1161SOL    HW114996   1.899   0.769   2.303
 1161SOL    HW214997   1.819   0.782   2.161
 1162SOL     OW14998   0.488   1.385   2.036
 1162SOL    HW114999   0.401   1.370   2.083
 1162SOL    HW215000   0.471   1.411   1.941
 1163SOL     OW15001   1.664   1.280   2.519
 1163SOL    HW115002   1.763   1.288   2.533
 1163SOL    HW215003   1.619   1.364   2.550
 1164SOL     OW15004   1.390   0.575   1.940
 1164SOL    HW115005   1.336   0.554   2.021
 1164SOL    HW215006   1.481   0.534   1.949
 1165SOL     OW15007   0.527   0.256   2.190
 1165SOL    HW115008   0.554   0.197   2.115
 1165SOL    HW215009   0.527   0.351   2.159
 1166SOL     OW15010   1.754   1.223   3.450
 1166SOL    HW115011   1.845   1.184   3.437
 1166SOL    HW215012   1.762   1.319   3.474
 1167SOL     OW15013   1.064   1.347   3.202
 1167SOL    HW115014   0.984   1.324   3.257
 1167SOL    HW215015   1.147   1.321   3.251
 1168SOL     OW15016   1.592   1.629   3.487
 1168SOL    HW115017   1.619   1.663   3.397
 1168SOL    HW215018   1.671   1.591   3.533
 1169SOL     OW15019   1.111   1.195   2.962
 1169SOL    HW115020   1.071   1.239   3.043
 1169SOL    HW215021   1.070   1.232   2.879
 1170SOL     OW15022   1.638   1.099   2.941
 1170SOL    HW115023   1.643   1.180   3.000
 1170SOL    HW215024   1.552   1.101   2.890
 1171SOL     OW15025   0.915   0.089   3.264
 1171SOL    HW115026   0.940   0.069   3.169
 1171SOL    HW215027   0.987   0.145   3.306
 1172SOL     OW15028   0.980   1.116   3.581
 1172SOL    HW115029   0.881   1.122   3.591
 1172SOL    HW215030   1.003   1.036   3.525
 1173SOL     OW15031   0.705   1.050   2.230
 1173SOL    HW115032   0.691   1.057   2.329
 1173SOL    HW215033   0.789   0.999   2.212
 1174SOL     OW15034   0.410   0.813   3.113
 1174SOL    HW115035   0.496   0.825   3.163
 1174SOL    HW215036   0.368   0.726   3.140
 1175SOL     OW15037   1.274   0.386   3.124
 1175SOL    HW115038   1.295   0.460   3.188
 1175SOL    HW215039   1.185   0.403   3.081
 1176SOL     OW15040   0.064   1.564   3.193
 1176SOL    HW115041   0.018   1.646   3.159
 1176SOL    HW215042   0.162   1.583   3.202
 1177SOL     OW15043   0.367   1.100   2.363
 1177SOL    HW115044   0.360   1.183   2.307
 1177SOL    HW215045   0.371   1.020   2.303
 1178SOL     OW15046   0.566   0.537   2.727
 1178SOL    HW115047   0.578   0.603   2.653
 1178SOL    HW215048   0.612   0.571   2.810
 1179SOL     OW15049   1.252   1.348   2.250
 1179SOL    HW115050   1.302   1.425   2.290
 1179SOL    HW215051   1.157   1.350   2.282
 1180SOL     OW15052   1.272   1.445   3.004
 1180SOL    HW115053   1.319   1.458   3.091
 1180SOL    HW215054   1.206   1.371   3.013
 1181SOL     OW15055   1.582   0.639   2.334
 1181SOL    HW115056   1.551   0.700   2.407
 1181SOL    HW215057   1.632   0.691   2.265
 1182SOL     OW15058   0.354   1.510   3.191
 1182SOL    HW115059   0.333   1.466   3.104
 1182SOL    HW215060   0.451   1.536   3.194
 1183SOL     OW15061   0.402   0.751   3.460
 1183SOL    HW115062   0.470   0.806   3.413
 1183SOL    HW215063   0.442   0.663   3.487
 1184SOL     OW15064   1.587   0.779   3.532
 1184SOL    HW115065   1.495   0.817   3.527
 1184SOL    HW215066   1.647   0.826   3.467
 1185SOL     OW15067   1.013   0.105   3.632
 1185SOL    HW115068   1.019   0.190   3.580
 1185SOL    HW215069   1.045   0.029   3.575
 1186SOL     OW15070   0.504   0.050   3.602
 1186SOL    HW115071   0.462  -0.007   3.532
 1186SOL    HW215072   0.438   0.119   3.634
 1187SOL     OW15073   0.573   0.870   2.891
 1187SOL    HW115074   0.617   0.959   2.882
 1187SOL    HW215075   0.510   0.870   2.968
 1188SOL     OW15076   1.360   0.862   2.907
 1188SOL    HW115077   1.285   0.862   2.841
 1188SOL    HW215078   1.397   0.770   2.916
 1189SOL     OW15079   1.209   0.525   2.137
 1189SOL    HW115080   1.222   0.441   2.191
 1189SOL    HW215081   1.180   0.599   2.197
 1190SOL     OW15082   0.307   0.213   3.093
 1190SOL    HW115083   0.284   0.250   3.183
 1190SOL    HW215084   0.277   0.118   3.087
 1191SOL     OW15085   0.037   1.310   3.144
 1191SOL    HW115086   0.090   1.261   3.212
 1191SOL    HW215087   0.059   1.408   3.149
 1192SOL     OW15088   0.732   0.634   2.926
 1192SOL    HW115089   0.791   0.608   2.850
 1192SOL    HW215090   0.704   0.730   2.915
 1193SOL     OW15091   1.728   0.935   3.716
 1193SOL    HW115092   1.682   0.928   3.627
 1193SOL    HW215093   1.666   0.979   3.782
 1194SOL     OW15094   0.307   0.063   2.480
 1194SOL    HW115095   0.296   0.157   2.513
 1194SOL    HW215096   0.302   0.000   2.557
 1195SOL     OW15097   1.622   0.367   2.236
 1195SOL    HW115098   1.624   0.291   2.300
 1195SOL    HW215099   1.574   0.444   2.276
 1196SOL     OW15100   1.023   0.766   2.828
 1196SOL    HW115101   1.038   0.787   2.924
 1196SOL    HW215102   0.993   0.671   2.819
 1197SOL     OW15103   0.980   1.573   3.562
 1197SOL    HW115104   0.960   1.617   3.474
 1197SOL    HW215105   1.019   1.482   3.546
 1198SOL     OW15106   1.859   1.518   3.467
 1198SOL    HW115107   1.873   1.545   3.372
 1198SOL    HW215108   1.942   1.540   3.520
 1199SOL     OW15109   0.350   0.898   3.666
 1199SOL    HW115110   0.426   0.942   3.714
 1199SOL    HW215111   0.385   0.851   3.584
 1200SOL     OW15112   1.540   0.274   1.987
 1200SOL    HW115113   1.479   0.199   2.010
 1200SOL    HW215114   1.562   0.326   2.070
 1201SOL     OW15115   1.303   0.838   1.904
 1201SOL    HW115116   1.337   0.745   1.919
 1201SOL    HW215117   1.321   0.865   1.809
 1202SOL     OW15118   1.068   1.333   2.711
 1202SOL    HW115119   1.075   1.249   2.656
 1202SOL    HW215120   1.130   1.402   2.675
 1203SOL     OW15121   0.319   0.810   2.811
 1203SOL    HW115122   0.412   0.846   2.816
 1203SOL    HW215123   0.313   0.725   2.863
 1204SOL     OW15124   0.339   0.509   2.868
 1204SOL    HW115125   0.287   0.426   2.851
 1204SOL    HW215126   0.416   0.514   2.804
 1205SOL     OW15127   1.138   0.380   3.540
 1205SOL    HW115128   1.093   0.443   3.604
 1205SOL    HW215129   1.231   0.411   3.523
 1206SOL     OW15130   1.160   0.207   3.339
 1206SOL    HW115131   1.160   0.271   3.416
 1206SOL    HW215132   1.188   0.255   3.256
 1207SOL     OW15133   0.008   1.326   2.062
 1207SOL    HW115134  -0.085   1.347   2.031
 1207SOL    HW215135   0.018   1.227   2.075
 1208SOL     OW15136   0.088   1.801   2.789
 1208SOL    HW115137   0.046   1.715   2.762
 1208SOL    HW215138   0.182   1.804   2.755
 1209SOL     OW15139   0.504   1.568   2.772
 1209SOL    HW115140   0.570   1.642   2.781
 1209SOL    HW215141   0.548   1.489   2.730
 1210SOL     OW15142   1.002   0.796   3.100
 1210SOL    HW115143   1.043   0.764   3.186
 1210SOL    HW215144   0.906   0.769   3.097
 1211SOL     OW15145   0.040   0.544   2.976
 1211SOL    HW115146   0.125   0.511   2.935
 1211SOL    HW215147   0.053   0.559   3.074
 1212SOL     OW15148   0.189   0.520   3.584
 1212SOL    HW115149   0.248   0.480   3.514
 1212SOL    HW215150   0.131   0.591   3.543
 1213SOL     OW15151   1.369   0.950   3.522
 1213SOL    HW115152   1.408   1.039   3.542
 1213SOL    HW215153   1.379   0.930   3.425
 1214SOL     OW15154   0.815   0.572   2.187
 1214SOL    HW115155   0.822   0.483   2.141
 1214SOL    HW215156   0.721   0.606   2.179
 1215SOL     OW15157   1.657   0.604   3.068
 1215SOL    HW115158   1.619   0.535   3.130
 1215SOL    HW215159   1.739   0.568   3.024
 1216SOL     OW15160   0.252   1.564   3.606
 1216SOL    HW115161   0.222   1.621   3.682
 1216SOL    HW215162   0.245   1.467   3.632
 1217SOL     OW15163   0.671   0.464   3.131
 1217SOL    HW115164   0.637   0.375   3.101
 1217SOL    HW215165   0.697   0.518   3.051
 1218SOL     OW15166   0.930   1.678   3.327
 1218SOL    HW115167   0.906   1.660   3.232
 1218SOL    HW215168   0.960   1.772   3.337
 1219SOL     OW15169   0.473   0.500   2.053
 1219SOL    HW115170   0.534   0.580   2.057
 1219SOL    HW215171   0.378   0.531   2.060
 1220SOL     OW15172   0.159   1.137   3.328
 1220SOL    HW115173   0.181   1.076   3.404
 1220SOL    HW215174   0.169   1.088   3.242
 1221SOL     OW15175   1.347   1.059   3.096
 1221SOL    HW115176   1.371   0.996   3.022
 1221SOL    HW215177   1.257   1.099   3.078
 1222SOL     OW15178   1.302   0.855   2.171
 1222SOL    HW115179   1.216   0.824   2.213
 1222SOL    HW215180   1.298   0.841   2.072
 1223SOL     OW15181   1.759   1.747   3.016
 1223SOL    HW115182   1.820   1.777   2.943
 1223SOL    HW215183   1.721   1.658   2.994
 1224SOL     OW15184   1.252   1.731   2.990
 1224SOL    HW115185   1.336   1.736   2.936
 1224SOL    HW215186   1.229   1.635   3.008
 1225SOL     OW15187   0.083   1.258   2.884
 1225SOL    HW115188   0.078   1.257   2.984
 1225SOL    HW215189   0.000   1.217   2.846
 1226SOL     OW15190   0.688   1.662   3.578
 1226SOL    HW115191   0.632   1.743   3.587
 1226SOL    HW215192   0.740   1.666   3.492
 1227SOL     OW15193   1.726   0.135   2.385
 1227SOL    HW115194   1.799   0.118   2.318
 1227SOL    HW215195   1.695   0.048   2.423
 1228SOL     OW15196   1.388   1.573   2.339
 1228SOL    HW115197   1.455   1.585   2.265
 1228SOL    HW215198   1.348   1.662   2.362
 1229SOL     OW15199   0.130   1.794   3.713
 1229SOL    HW115200   0.089   1.720   3.766
 1229SOL    HW215201   0.194   1.845   3.771
 1230SOL     OW15202   1.280   0.927   2.534
 1230SOL    HW115203   1.340   0.846   2.536
 1230SOL    HW215204   1.320   0.996   2.474
 1231SOL     OW15205   0.830   1.273   3.284
 1231SOL    HW115206   0.825   1.306   3.379
 1231SOL    HW215207   0.744   1.292   3.238
 1232SOL     OW15208   0.672   1.616   2.016
 1232SOL    HW115209   0.681   1.626   1.917
 1232SOL    HW215210   0.632   1.527   2.037
 1233SOL     OW15211   1.650   1.720   3.256
 1233SOL    HW115212   1.703   1.730   3.172
 1233SOL    HW215213   1.623   1.810   3.290
 1234SOL     OW15214   1.841   0.175   2.825
 1234SOL    HW115215   1.880   0.090   2.789
 1234SOL    HW215216   1.743   0.177   2.806
 1235SOL     OW15217   0.263   0.326   2.582
 1235SOL    HW115218   0.184   0.377   2.548
 1235SOL    HW215219   0.254   0.311   2.680
 1236SOL     OW15220   1.194   1.612   1.893
 1236SOL    HW115221   1.200   1.519   1.930
 1236SOL    HW215222   1.135   1.612   1.813
 1237SOL     OW15223   0.822   1.002   3.234
 1237SOL    HW115224   0.862   1.001   3.142
 1237SOL    HW215225   0.832   1.094   3.274
 1238SOL     OW15226   0.916   0.910   2.153
 1238SOL    HW115227   0.979   0.948   2.085
 1238SOL    HW215228   0.956   0.827   2.192
 1239SOL     OW15229   1.504   1.607   1.906
 1239SOL    HW115230   1.412   1.644   1.913
 1239SOL    HW215231   1.542   1.627   1.816
 1240SOL     OW15232   0.372   1.288   3.352
 1240SOL    HW115233   0.359   1.381   3.318
 1240SOL    HW215234   0.288   1.236   3.339
 1241SOL     OW15235   1.614   1.292   3.151
 1241SOL    HW115236   1.674   1.295   3.231
 1241SOL    HW215237   1.539   1.356   3.164
 1242SOL     OW15238   1.039   1.098   2.558
 1242SOL    HW115239   0.969   1.051   2.612
 1242SOL    HW215240   1.098   1.030   2.515
 1243SOL     OW15241   1.014   0.236   2.833
 1243SOL    HW115242   1.006   0.200   2.740
 1243SOL    HW215243   1.012   0.160   2.898
 1244SOL     OW15244   0.590   1.487   2.353
 1244SOL    HW115245   0.632   1.429   2.283
 1244SOL    HW215246   0.546   1.566   2.309
 1245SOL     OW15247   1.709   0.385   3.243
 1245SOL    HW115248   1.782   0.454   3.247
 1245SOL    HW215249   1.737   0.310   3.184
 1246SOL     OW15250   0.255   1.348   2.152
 1246SOL    HW115251   0.159   1.349   2.125
 1246SOL    HW215252   0.267   1.401   2.236
 1247SOL     OW15253   0.105   1.013   3.588
 1247SOL    HW115254   0.028   0.980   3.642
 1247SOL    HW215255   0.190   0.983   3.630
 1248SOL     OW15256   0.672   0.203   3.351
 1248SOL    HW115257   0.762   0.187   3.311
 1248SOL    HW215258   0.680   0.208   3.450
 1249SOL     OW15259   0.075   0.345   1.895
 1249SOL    HW115260  -0.017   0.317   1.866
 1249SOL    HW215261   0.106   0.422   1.839
 1250SOL     OW15262   1.440   0.856   3.260
 1250SOL    HW115263   1.383   0.908   3.197
 1250SOL    HW215264   1.536   0.868   3.236
 1251SOL     OW15265   0.072   0.166   2.180
 1251SOL    HW115266   0.055   0.249   2.126
 1251SOL    HW215267   0.162   0.129   2.158
 1252SOL     OW15268   1.183   1.335   1.981
 1252SOL    HW115269   1.084   1.324   1.983
 1252SOL    HW215270   1.217   1.350   2.074
 1253SOL     OW15271   0.613   0.842   3.293
 1253SOL    HW115272   0.669   0.923   3.276
 1253SOL    HW215273   0.672   0.762   3.296
 1254SOL     OW15274   1.493   1.767   2.821
 1254SOL    HW115275   1.526   1.831   2.752
 1254SOL    HW215276   1.559   1.761   2.896
 1255SOL     OW15277   0.716   0.565   3.570
 1255SOL    HW115278   0.735   0.630   3.644
 1255SOL    HW215279   0.776   0.485   3.579
 1256SOL     OW15280   1.450   1.220   3.495
 1256SOL    HW115281   1.441   1.210   3.594
 1256SOL    HW215282   1.546   1.213   3.469
 1257SOL     OW15283   0.390   1.741   3.422
 1257SOL    HW115284   0.299   1.782   3.420
 1257SOL    HW215285   0.383   1.647   3.454
 1258SOL     OW15286   1.674   0.883   3.116
 1258SOL    HW115287   1.647   0.794   3.079
 1258SOL    HW215288   1.675   0.951   3.043
 1259SOL     OW15289   1.225   0.325   2.311
 1259SOL    HW115290   1.290   0.251   2.300
 1259SOL    HW215291   1.245   0.375   2.395
 1260SOL     OW15292   0.594   0.745   2.514
 1260SOL    HW115293   0.644   0.830   2.495
 1260SOL    HW215294   0.506   0.747   2.466
 1261SOL     OW15295   1.777   0.342   3.504
 1261SOL    HW115296   1.760   0.373   3.410
 1261SOL    HW215297   1.693   0.305   3.542
 1262SOL     OW15298   1.730   0.934   3.379
 1262SOL    HW115299   1.768   1.025   3.394
 1262SOL    HW215300   1.722   0.917   3.280
 1263SOL     OW15301   0.859   1.374   1.878
 1263SOL    HW115302   0.813   1.389   1.966
 1263SOL    HW215303   0.903   1.459   1.848
 1264SOL     OW15304   0.661   1.790   2.815
 1264SOL    HW115305   0.615   1.878   2.802
 1264SOL    HW215306   0.760   1.802   2.808
 1265SOL     OW15307   0.859   0.956   2.723
 1265SOL    HW115308   0.913   0.887   2.771
 1265SOL    HW215309   0.827   1.025   2.789
 1266SOL     OW15310   1.083   0.984   1.949
 1266SOL    HW115311   1.060   1.037   1.867
 1266SOL    HW215312   1.164   0.928   1.930
 1267SOL     OW15313   1.861   1.569   2.713
 1267SOL    HW115314   1.790   1.557   2.643
 1267SOL    HW215315   1.862   1.490   2.773
 1268SOL     OW15316   0.221   1.314   3.706
 1268SOL    HW115317   0.156   1.241   3.685
 1268SOL    HW215318   0.225   1.328   3.804
 1269SOL     OW15319   0.079   1.240   2.515
 1269SOL    HW115320   0.078   1.193   2.603
 1269SOL    HW215321   0.161   1.212   2.464
 1270SOL     OW15322   0.672   1.391   3.486
 1270SOL    HW115323   0.594   1.341   3.524
 1270SOL    HW215324   0.669   1.486   3.517
 1271SOL     OW15325   1.824   0.192   3.089
 1271SOL    HW115326   1.820   0.102   3.133
 1271SOL    HW215327   1.827   0.181   2.990
 1272SOL     OW15328   0.428   0.424   2.382
 1272SOL    HW115329   0.458   0.352   2.320
 1272SOL    HW215330   0.389   0.384   2.465
 1273SOL     OW15331   1.705   1.487   2.966
 1273SOL    HW115332   1.612   1.462   2.939
 1273SOL    HW215333   1.731   1.437   3.048
 1274SOL     OW15334   0.317   0.547   3.142
 1274SOL    HW115335   0.355   0.488   3.214
 1274SOL    HW215336   0.357   0.521   3.054
 1275SOL     OW15337   0.812   1.586   2.549
 1275SOL    HW115338   0.844   1.596   2.455
 1275SOL    HW215339   0.733   1.524   2.551
 1276SOL     OW15340   1.424   0.214   2.974
 1276SOL    HW115341   1.476   0.149   3.029
 1276SOL    HW215342   1.375   0.277   3.035
 1277SOL     OW15343   1.001   0.034   3.016
 1277SOL    HW115344   0.938  -0.038   2.985
 1277SOL    HW215345   1.094  -0.002   3.016
 1278SOL     OW15346   0.770   1.330   2.163
 1278SOL    HW115347   0.724   1.243   2.180
 1278SOL    HW215348   0.861   1.327   2.204
 1279SOL     OW15349   0.618   1.567   3.146
 1279SOL    HW115350   0.613   1.649   3.203
 1279SOL    HW215351   0.707   1.564   3.101
 1280SOL     OW15352   1.352   0.052   2.030
 1280SOL    HW115353   1.387   0.011   1.946
 1280SOL    HW215354   1.262   0.014   2.050
 1281SOL     OW15355   1.300   0.453   2.553
 1281SOL    HW115356   1.241   0.533   2.557
 1281SOL    HW215357   1.315   0.418   2.646
 1282SOL     OW15358   1.593   0.221   2.744
 1282SOL    HW115359   1.509   0.220   2.798
 1282SOL    HW215360   1.595   0.304   2.688
 1283SOL     OW15361   0.039   1.077   2.162
 1283SOL    HW115362   0.138   1.066   2.153
 1283SOL    HW215363  -0.001   0.991   2.194
 1284SOL     OW15364   0.875   1.646   2.199
 1284SOL    HW115365   0.798   1.611   2.145
 1284SOL    HW215366   0.843   1.717   2.261
 1285SOL     OW15367   0.230   0.628   3.837
 1285SOL    HW115368   0.137   0.626   3.874
 1285SOL    HW215369   0.231   0.589   3.745
 1286SOL     OW15370   0.225   0.275   4.720
 1286SOL    HW115371   0.260   0.258   4.812
 1286SOL    HW215372   0.137   0.230   4.708
 1287SOL     OW15373   0.019   0.368   4.371
 1287SOL    HW115374  -0.063   0.411   4.410
 1287SOL    HW215375  -0.009   0.295   4.308
 1288SOL     OW15376   0.569   1.275   4.889
 1288SOL    HW115377   0.476   1.268   4.852
 1288SOL    HW215378   0.580   1.364   4.933
 1289SOL     OW15379   1.555   1.511   4.427
 1289SOL    HW115380   1.498   1.495   4.508
 1289SOL    HW215381   1.496   1.521   4.347
 1290SOL     OW15382   1.135   0.703   4.441
 1290SOL    HW115383   1.192   0.781   4.416
 1290SOL    HW215384   1.075   0.729   4.517
 1291SOL     OW15385   1.755   0.607   3.955
 1291SOL    HW115386   1.743   0.594   3.856
 1291SOL    HW215387   1.725   0.526   4.004
 1292SOL     OW15388   0.768   1.144   4.747
 1292SOL    HW115389   0.690   1.161   4.807
 1292SOL    HW215390   0.802   1.231   4.711
 1293SOL     OW15391   0.850   0.798   5.547
 1293SOL    HW115392   0.846   0.874   5.612
 1293SOL    HW215393   0.872   0.834   5.456
 1294SOL     OW15394   0.685   1.012   4.389
 1294SOL    HW115395   0.754   0.996   4.459
 1294SOL    HW215396   0.612   1.069   4.427
 1295SOL     OW15397   0.686   1.161   5.527
 1295SOL    HW115398   0.746   1.240   5.541
 1295SOL    HW215399   0.600   1.192   5.486
 1296SOL     OW15400   0.335   1.435   4.785
 1296SOL    HW115401   0.257   1.404   4.732
 1296SOL    HW215402   0.393   1.493   4.728
 1297SOL     OW15403   1.460   1.505   5.063
 1297SOL    HW115404   1.484   1.599   5.089
 1297SOL    HW215405   1.444   1.451   5.145
 1298SOL     OW15406   0.438   0.392   5.223
 1298SOL    HW115407   0.520   0.336   5.232
 1298SOL    HW215408   0.357   0.334   5.227
 1299SOL     OW15409   1.603   0.447   4.461
 1299SOL    HW115410   1.529   0.493   4.411
 1299SOL    HW215411   1.654   0.515   4.514
 1300SOL     OW15412   0.231   1.713   4.207
 1300SOL    HW115413   0.265   1.790   4.261
 1300SOL    HW215414   0.275   1.713   4.117
 1301SOL     OW15415   1.127   1.341   5.414
 1301SOL    HW115416   1.174   1.341   5.502
 1301SOL    HW215417   1.079   1.254   5.403
 1302SOL     OW15418   0.230   1.434   4.262
 1302SOL    HW115419   0.204   1.530   4.262
 1302SOL    HW215420   0.159   1.380   4.307
 1303SOL     OW15421   0.240   1.091   4.610
 1303SOL    HW115422   0.254   1.007   4.662
 1303SOL    HW215423   0.185   1.155   4.665
 1304SOL     OW15424   0.620   1.786   5.163
 1304SOL    HW115425   0.528   1.769   5.198
 1304SOL    HW215426   0.648   1.878   5.189
 1305SOL     OW15427   0.606   0.964   3.847
 1305SOL    HW115428   0.613   1.048   3.793
 1305SOL    HW215429   0.652   0.977   3.935
 1306SOL     OW15430   1.594   0.114   5.204
 1306SOL    HW115431   1.576   0.181   5.132
 1306SOL    HW215432   1.591   0.160   5.293
 1307SOL     OW15433   0.122   0.643   4.287
 1307SOL    HW115434   0.077   0.555   4.304
 1307SOL    HW215435   0.121   0.697   4.371
 1308SOL     OW15436   1.842   1.767   4.083
 1308SOL    HW115437   1.896   1.738   4.163
 1308SOL    HW215438   1.872   1.857   4.054
 1309SOL     OW15439   0.027   1.596   3.841
 1309SOL    HW115440   0.008   1.500   3.862
 1309SOL    HW215441  -0.006   1.654   3.916
 1310SOL     OW15442   1.689   0.922   4.336
 1310SOL    HW115443   1.784   0.893   4.344
 1310SOL    HW215444   1.681   0.987   4.261
 1311SOL     OW15445   1.641   1.108   4.156
 1311SOL    HW115446   1.727   1.110   4.104
 1311SOL    HW215447   1.655   1.155   4.244
 1312SOL     OW15448   0.113   0.737   5.321
 1312SOL    HW115449   0.201   0.724   5.366
 1312SOL    HW215450   0.100   0.834   5.299
 1313SOL     OW15451   0.613   1.365   4.450
 1313SOL    HW115452   0.564   1.278   4.459
 1313SOL    HW215453   0.590   1.408   4.363
 1314SOL     OW15454   1.293   1.228   5.147
 1314SOL    HW115455   1.330   1.155   5.089
 1314SOL    HW215456   1.345   1.233   5.232
 1315SOL     OW15457   0.809   0.004   4.226
 1315SOL    HW115458   0.849   0.095   4.217
 1315SOL    HW215459   0.709   0.012   4.232
 1316SOL     OW15460   0.197   0.976   4.988
 1316SOL    HW115461   0.286   0.931   4.974
 1316SOL    HW215462   0.124   0.911   4.969
 1317SOL     OW15463   1.525   0.999   3.914
 1317SOL    HW115464   1.462   0.923   3.927
 1317SOL    HW215465   1.573   1.017   4.000
 1318SOL     OW15466   1.187   1.792   5.340
 1318SOL    HW115467   1.211   1.852   5.264
 1318SOL    HW215468   1.194   1.697   5.310
 1319SOL     OW15469   0.317   0.251   5.525
 1319SOL    HW115470   0.388   0.322   5.531
 1319SOL    HW215471   0.229   0.290   5.553
 1320SOL     OW15472   1.466   1.417   4.677
 1320SOL    HW115473   1.407   1.423   4.757
 1320SOL    HW215474   1.451   1.329   4.631
 1321SOL     OW15475   1.667   1.714   4.296
 1321SOL    HW115476   1.626   1.691   4.208
 1321SOL    HW215477   1.649   1.640   4.361
 1322SOL     OW15478   0.598   0.729   3.994
 1322SOL    HW115479   0.622   0.798   3.926
 1322SOL    HW215480   0.520   0.762   4.048
 1323SOL     OW15481   1.281   0.345   4.668
 1323SOL    HW115482   1.195   0.295   4.655
 1323SOL    HW215483   1.343   0.291   4.724
 1324SOL     OW15484   1.576   1.662   4.031
 1324SOL    HW115485   1.665   1.708   4.034
 1324SOL    HW215486   1.555   1.638   3.936
 1325SOL     OW15487   0.807   0.605   5.189
 1325SOL    HW115488   0.760   0.602   5.278
 1325SOL    HW215489   0.756   0.550   5.123
 1326SOL     OW15490   1.394   0.469   5.398
 1326SOL    HW115491   1.374   0.512   5.486
 1326SOL    HW215492   1.472   0.407   5.407
 1327SOL     OW15493   0.973   0.890   5.296
 1327SOL    HW115494   1.019   0.806   5.267
 1327SOL    HW215495   0.917   0.924   5.221
 1328SOL     OW15496   0.991   0.410   4.966
 1328SOL    HW115497   0.914   0.444   5.020
 1328SOL    HW215498   0.957   0.359   4.887
 1329SOL     OW15499   1.041   0.701   4.153
 1329SOL    HW115500   1.067   0.697   4.249
 1329SOL    HW215501   0.956   0.650   4.139
 1330SOL     OW15502   0.076   0.811   4.513
 1330SOL    HW115503   0.175   0.799   4.522
 1330SOL    HW215504   0.052   0.906   4.534
 1331SOL     OW15505   0.130   1.821   5.295
 1331SOL    HW115506   0.120   1.806   5.394
 1331SOL    HW215507   0.044   1.857   5.259
 1332SOL     OW15508   0.865   0.348   3.919
 1332SOL    HW115509   0.924   0.411   3.870
 1332SOL    HW215510   0.884   0.254   3.890
 1333SOL     OW15511   1.719   0.585   5.555
 1333SOL    HW115512   1.693   0.674   5.519
 1333SOL    HW215513   1.717   0.517   5.482
 1334SOL     OW15514   1.362   1.144   4.269
 1334SOL    HW115515   1.445   1.115   4.221
 1334SOL    HW215516   1.313   1.211   4.213
 1335SOL     OW15517   0.550   0.196   4.609
 1335SOL    HW115518   0.545   0.191   4.709
 1335SOL    HW215519   0.552   0.292   4.580
 1336SOL     OW15520   1.008   1.456   4.201
 1336SOL    HW115521   0.962   1.528   4.149
 1336SOL    HW215522   1.004   1.476   4.299
 1337SOL     OW15523   0.351   1.801   4.577
 1337SOL    HW115524   0.401   1.715   4.583
 1337SOL    HW215525   0.416   1.878   4.574
 1338SOL     OW15526   1.795   1.066   4.597
 1338SOL    HW115527   1.733   1.051   4.521
 1338SOL    HW215528   1.743   1.077   4.682
 1339SOL     OW15529   1.227   1.550   5.230
 1339SOL    HW115530   1.233   1.473   5.294
 1339SOL    HW215531   1.175   1.524   5.150
 1340SOL     OW15532   0.321   0.943   3.966
 1340SOL    HW115533   0.403   0.982   3.924
 1340SOL    HW215534   0.294   0.861   3.917
 1341SOL     OW15535   1.458   0.735   4.452
 1341SOL    HW115536   1.453   0.670   4.527
 1341SOL    HW215537   1.538   0.794   4.465
 1342SOL     OW15538   0.461   1.266   5.451
 1342SOL    HW115539   0.411   1.267   5.365
 1342SOL    HW215540   0.398   1.248   5.527
 1343SOL     OW15541   1.111   1.776   3.961
 1343SOL    HW115542   1.051   1.714   4.011
 1343SOL    HW215543   1.142   1.732   3.876
 1344SOL     OW15544   0.202   0.285   5.222
 1344SOL    HW115545   0.122   0.345   5.209
 1344SOL    HW215546   0.192   0.236   5.308
 1345SOL     OW15547   1.632   1.377   3.805
 1345SOL    HW115548   1.600   1.471   3.795
 1345SOL    HW215549   1.556   1.314   3.793
 1346SOL     OW15550   0.464   1.743   4.047
 1346SOL    HW115551   0.497   1.782   4.133
 1346SOL    HW215552   0.540   1.736   3.982
 1347SOL     OW15553   1.400   0.107   4.150
 1347SOL    HW115554   1.376   0.070   4.060
 1347SOL    HW215555   1.499   0.123   4.154
 1348SOL     OW15556   0.249   1.785   4.965
 1348SOL    HW115557   0.306   1.720   5.015
 1348SOL    HW215558   0.233   1.752   4.872
 1349SOL     OW15559   0.940   1.698   4.628
 1349SOL    HW115560   1.020   1.641   4.649
 1349SOL    HW215561   0.891   1.658   4.551
 1350SOL     OW15562   0.382   0.700   4.204
 1350SOL    HW115563   0.427   0.610   4.201
 1350SOL    HW215564   0.288   0.689   4.237
 1351SOL     OW15565   1.547   0.222   5.453
 1351SOL    HW115566   1.542   0.259   5.545
 1351SOL    HW215567   1.475   0.153   5.441
 1352SOL     OW15568   0.614   0.122   3.841
 1352SOL    HW115569   0.712   0.100   3.848
 1352SOL    HW215570   0.583   0.105   3.748
 1353SOL     OW15571   0.781   0.264   5.473
 1353SOL    HW115572   0.848   0.203   5.516
 1353SOL    HW215573   0.708   0.283   5.538
 1354SOL     OW15574   0.888   1.514   4.919
 1354SOL    HW115575   0.865   1.489   4.825
 1354SOL    HW215576   0.949   1.445   4.958
 1355SOL     OW15577   1.351   0.590   5.157
 1355SOL    HW115578   1.379   0.547   5.242
 1355SOL    HW215579   1.376   0.686   5.158
 1356SOL     OW15580   0.803   1.402   4.648
 1356SOL    HW115581   0.893   1.416   4.606
 1356SOL    HW215582   0.732   1.404   4.577
 1357SOL     OW15583   0.922   0.503   4.623
 1357SOL    HW115584   0.897   0.494   4.527
 1357SOL    HW215585   0.970   0.421   4.654
 1358SOL     OW15586   0.539   0.064   4.236
 1358SOL    HW115587   0.458   0.065   4.294
 1358SOL    HW215588   0.542   0.147   4.181
 1359SOL     OW15589   1.434   1.188   3.765
 1359SOL    HW115590   1.466   1.112   3.822
 1359SOL    HW215591   1.342   1.215   3.795
 1360SOL     OW15592   0.297   0.035   3.895
 1360SOL    HW115593   0.346   0.119   3.874
 1360SOL    HW215594   0.359  -0.030   3.940
 1361SOL     OW15595   0.935   0.236   4.204
 1361SOL    HW115596   0.887   0.277   4.126
 1361SOL    HW215597   1.034   0.234   4.185
 1362SOL     OW15598   1.076   0.683   5.188
 1362SOL    HW115599   0.996   0.622   5.191
 1362SOL    HW215600   1.157   0.630   5.164
 1363SOL     OW15601   1.227   1.570   4.517
 1363SOL    HW115602   1.248   1.644   4.452
 1363SOL    HW215603   1.295   1.570   4.590
 1364SOL     OW15604   0.459   1.152   4.465
 1364SOL    HW115605   0.388   1.125   4.530
 1364SOL    HW215606   0.433   1.124   4.372
 1365SOL     OW15607   1.271   1.797   4.315
 1365SOL    HW115608   1.315   1.861   4.251
 1365SOL    HW215609   1.221   1.849   4.385
 1366SOL     OW15610   1.032   0.549   3.740
 1366SOL    HW115611   0.991   0.631   3.701
 1366SOL    HW215612   1.096   0.575   3.813
 1367SOL     OW15613   0.078   0.556   5.110
 1367SOL    HW115614   0.170   0.555   5.069
 1367SOL    HW215615   0.072   0.630   5.177
 1368SOL     OW15616   0.561   0.222   4.871
 1368SOL    HW115617   0.599   0.138   4.908
 1368SOL    HW215618   0.473   0.241   4.915
 1369SOL     OW15619   0.866   0.454   4.366
 1369SOL    HW115620   0.834   0.526   4.304
 1369SOL    HW215621   0.890   0.373   4.313
 1370SOL     OW15622   1.017   0.039   4.477
 1370SOL    HW115623   0.945   0.044   4.408
 1370SOL    HW215624   0.993  -0.030   4.546
 1371SOL     OW15625   1.429   1.173   4.591
 1371SOL    HW115626   1.374   1.089   4.584
 1371SOL    HW215627   1.455   1.202   4.499
 1372SOL     OW15628   1.466   0.590   4.716
 1372SOL    HW115629   1.436   0.495   4.723
 1372SOL    HW215630   1.539   0.606   4.782
 1373SOL     OW15631   1.857   0.833   4.101
 1373SOL    HW115632   1.899   0.769   4.165
 1373SOL    HW215633   1.819   0.782   4.023
 1374SOL     OW15634   0.488   1.385   3.898
 1374SOL    HW115635   0.401   1.370   3.945
 1374SOL    HW215636   0.471   1.411   3.803
 1375SOL     OW15637   1.664   1.280   4.381
 1375SOL    HW115638   1.763   1.288   4.395
 1375SOL    HW215639   1.619   1.364   4.412
 1376SOL     OW15640   1.390   0.575   3.802
 1376SOL    HW115641   1.336   0.554   3.883
 1376SOL    HW215642   1.481   0.534   3.811
 1377SOL     OW15643   0.527   0.256   4.052
 1377SOL    HW115644   0.554   0.197   3.977
 1377SOL    HW215645   0.527   0.351   4.021
 1378SOL     OW15646   1.754   1.223   5.312
 1378SOL    HW115647   1.845   1.184   5.299
 1378SOL    HW215648   1.762   1.319   5.336
 1379SOL     OW15649   1.064   1.347   5.064
 1379SOL    HW115650   0.984   1.324   5.119
 1379SOL    HW215651   1.147   1.321   5.113
 1380SOL     OW15652   1.592   1.629   5.349
 1380SOL    HW115653   1.619   1.663   5.259
 1380SOL    HW215654   1.671   1.591   5.395
 1381SOL     OW15655   1.111   1.195   4.824
 1381SOL    HW115656   1.071   1.239   4.905
 1381SOL    HW215657   1.070   1.232   4.741
 1382SOL     OW15658   1.638   1.099   4.803
 1382SOL    HW115659   1.643   1.180   4.862
 1382SOL    HW215660   1.552   1.101   4.752
 1383SOL     OW15661   0.915   0.089   5.126
 1383SOL    HW115662   0.940   0.069   5.031
 1383SOL    HW215663   0.987   0.145   5.168
 1384SOL     OW15664   0.980   1.116   5.443
 1384SOL    HW115665   0.881   1.122   5.453
 1384SOL    HW215666   1.003   1.036   5.387
 1385SOL     OW15667   0.705   1.050   4.092
 1385SOL    HW115668   0.691   1.057   4.191
 1385SOL    HW215669   0.789   0.999   4.074
 1386SOL     OW15670   0.410   0.813   4.975
 1386SOL    HW115671   0.496   0.825   5.025
 1386SOL    HW215672   0.368   0.726   5.002
 1387SOL     OW15673   1.274   0.386   4.986
 1387SOL    HW115674   1.295   0.460   5.050
 1387SOL    HW215675   1.185   0.403   4.943
 1388SOL     OW15676   0.064   1.564   5.055
 1388SOL    HW115677   0.018   1.646   5.021
 1388SOL    HW215678   0.162   1.583   5.064
 1389SOL     OW15679   0.367   1.100   4.225
 1389SOL    HW115680   0.360   1.183   4.169
 1389SOL    HW215681   0.371   1.020   4.165
 1390SOL     OW15682   0.566   0.537   4.589
 1390SOL    HW115683   0.578   0.603   4.515
 1390SOL    HW215684   0.612   0.571   4.672
 1391SOL     OW15685   1.252   1.348   4.112
 1391SOL    HW115686   1.302   1.425   4.152
 1391SOL    HW215687   1.157   1.350   4.144
 1392SOL     OW15688   1.272   1.445   4.866
 1392SOL    HW115689   1.319   1.458   4.953
 1392SOL    HW215690   1.206   1.371   4.875
 1393SOL     OW15691   1.582   0.639   4.196
 1393SOL    HW115692   1.551   0.700   4.269
 1393SOL    HW215693   1.632   0.691   4.127
 1394SOL     OW15694   0.354   1.510   5.053
 1394SOL    HW115695   0.333   1.466   4.966
 1394SOL    HW215696   0.451   1.536   5.056
 1395SOL     OW15697   0.402   0.751   5.322
 1395SOL    HW115698   0.470   0.806   5.275
 1395SOL    HW215699   0.442   0.663   5.349
 1396SOL     OW15700   1.587   0.779   5.394
 1396SOL    HW115701   1.495   0.817   5.389
 1396SOL    HW215702   1.647   0.826   5.329
 1397SOL     OW15703   1.013   0.105   5.494
 1397SOL    HW115704   1.019   0.190   5.442
 1397SOL    HW215705   1.045   0.029   5.437
 1398SOL     OW15706   0.504   0.050   5.464
 1398SOL    HW115707   0.462  -0.007   5.394
 1398SOL    HW215708   0.438   0.119   5.496
 1399SOL     OW15709   0.573   0.870   4.753
 1399SOL    HW115710   0.617   0.959   4.744
 1399SOL    HW215711   0.510   0.870   4.830
 1400SOL     OW15712   1.360   0.862   4.769
 1400SOL    HW115713   1.285   0.862   4.703
 1400SOL    HW215714   1.397   0.770   4.778
 1401SOL     OW15715   1.209   0.525   3.999
 1401SOL    HW115716   1.222   0.441   4.053
 1401SOL    HW215717   1.180   0.599   4.059
 1402SOL     OW15718   0.307   0.213   4.955
 1402SOL    HW115719   0.284   0.250   5.045
 1402SOL    HW215720   0.277   0.118   4.949
 1403SOL     OW15721   0.037   1.310   5.006
 1403SOL    HW115722   0.090   1.261   5.074
 1403SOL    HW215723   0.059   1.408   5.011
 1404SOL     OW15724   0.732   0.634   4.788
 1404SOL    HW115725   0.791   0.608   4.712
 1404SOL    HW215726   0.704   0.730   4.777
 1405SOL     OW15727   1.728   0.935   5.578
 1405SOL    HW115728   1.682   0.928   5.489
 1405SOL    HW215729   1.666   0.979   5.644
 1406SOL     OW15730   0.307   0.063   4.342
 1406SOL    HW115731   0.296   0.157   4.375
 1406SOL    HW215732   0.302   0.000   4.419
 1407SOL     OW15733   1.622   0.367   4.098
 1407SOL    HW115734   1.624   0.291   4.162
 1407SOL    HW215735   1.574   0.444   4.138
 1408SOL     OW15736   1.023   0.766   4.690
 1408SOL    HW115737   1.038   0.787   4.786
 1408SOL    HW215738   0.993   0.671   4.681
 1409SOL     OW15739   0.980   1.573   5.424
 1409SOL    HW115740   0.960   1.617   5.336
 1409SOL    HW215741   1.019   1.482   5.408
 1410SOL     OW15742   1.859   1.518   5.329
 1410SOL    HW115743   1.873   1.545   5.234
 1410SOL    HW215744   1.942   1.540   5.382
 1411SOL     OW15745   0.350   0.898   5.528
 1411SOL    HW115746   0.426   0.942   5.576
 1411SOL    HW215747   0.385   0.851   5.446
 1412SOL     OW15748   1.540   0.274   3.849
 1412SOL    HW115749   1.479   0.199   3.872
 1412SOL    HW215750   1.562   0.326   3.932
 1413SOL     OW15751   1.303   0.838   3.766
 1413SOL    HW115752   1.337   0.745   3.781
 1413SOL    HW215753   1.321   0.865   3.671
 1414SOL     OW15754   1.068   1.333   4.573
 1414SOL    HW115755   1.075   1.249   4.518
 1414SOL    HW215756   1.130   1.402   4.537
 1415SOL     OW15757   0.319   0.810   4.673
 1415SOL    HW115758   0.412   0.846   4.678
 1415SOL    HW215759   0.313   0.725   4.725
 1416SOL     OW15760   0.339   0.509   4.730
 1416SOL    HW115761   0.287   0.426   4.713
 1416SOL    HW215762   0.416   0.514   4.666
 1417SOL     OW15763   1.138   0.380   5.402
 1417SOL    HW115764   1.093   0.443   5.466
 1417SOL    HW215765   1.231   0.411   5.385
 1418SOL     OW15766   1.160   0.207   5.201
 1418SOL    HW115767   1.160   0.271   5.278
 1418SOL    HW215768   1.188   0.255   5.118
 1419SOL     OW15769   0.008   1.326   3.924
 1419SOL    HW115770  -0.085   1.347   3.893
 1419SOL    HW215771   0.018   1.227   3.937
 1420SOL     OW15772   0.088   1.801   4.651
 1420SOL    HW115773   0.046   1.715   4.624
 1420SOL    HW215774   0.182   1.804   4.617
 1421SOL     OW15775   0.504   1.568   4.634
 1421SOL    HW115776   0.570   1.642   4.643
 1421SOL    HW215777   0.548   1.489   4.592
 1422SOL     OW15778   1.002   0.796   4.962
 1422SOL    HW115779   1.043   0.764   5.048
 1422SOL    HW215780   0.906   0.769   4.959
 1423SOL     OW15781   0.040   0.544   4.838
 1423SOL    HW115782   0.125   0.511   4.797
 1423SOL    HW215783   0.053   0.559   4.936
 1424SOL     OW15784   0.189   0.520   5.446
 1424SOL    HW115785   0.248   0.480   5.376
 1424SOL    HW215786   0.131   0.591   5.405
 1425SOL     OW15787   1.369   0.950   5.384
 1425SOL    HW115788   1.408   1.039   5.404
 1425SOL    HW215789   1.379   0.930   5.287
 1426SOL     OW15790   0.815   0.572   4.049
 1426SOL    HW115791   0.822   0.483   4.003
 1426SOL    HW215792   0.721   0.606   4.041
 1427SOL     OW15793   1.657   0.604   4.930
 1427SOL    HW115794   1.619   0.535   4.992
 1427SOL    HW215795   1.739   0.568   4.886
 1428SOL     OW15796   0.252   1.564   5.468
 1428SOL    HW115797   0.222   1.621   5.544
 1428SOL    HW215798   0.245   1.467   5.494
 1429SOL     OW15799   0.671   0.464   4.993
 1429SOL    HW115800   0.637   0.375   4.963
 1429SOL    HW215801   0.697   0.518   4.913
 1430SOL     OW15802   0.930   1.678   5.189
 1430SOL    HW115803   0.906   1.660   5.094
 1430SOL    HW215804   0.960   1.772   5.199
 1431SOL     OW15805   0.473   0.500   3.915
 1431SOL    HW115806   0.534   0.580   3.919
 1431SOL    HW215807   0.378   0.531   3.922
 1432SOL     OW15808   0.159   1.137   5.190
 1432SOL    HW115809   0.181   1.076   5.266
 1432SOL    HW215810   0.169   1.088   5.104
 1433SOL     OW15811   1.347   1.059   4.958
 1433SOL    HW115812   1.371   0.996   4.884
 1433SOL    HW215813   1.257   1.099   4.940
 1434SOL     OW15814   1.302   0.855   4.033
 1434SOL    HW115815   1.216   0.824   4.075
 1434SOL    HW215816   1.298   0.841   3.934
 1435SOL     OW15817   1.759   1.747   4.878
 1435SOL    HW115818   1.820   1.777   4.805
 1435SOL    HW215819   1.721   1.658   4.856
 1436SOL     OW15820   1.252   1.731   4.852
 1436SOL    HW115821   1.336   1.736   4.798
 1436SOL    HW215822   1.229   1.635   4.870
 1437SOL     OW15823   0.083   1.258   4.746
 1437SOL    HW115824   0.078   1.257   4.846
 1437SOL    HW215825   0.000   1.217   4.708
 1438SOL     OW15826   0.688   1.662   5.440
 1438SOL    HW115827   0.632   1.743   5.449
 1438SOL    HW215828   0.740   1.666   5.354
 1439SOL     OW15829   1.726   0.135   4.247
 1439SOL    HW115830   1.799   0.118   4.180
 1439SOL    HW215831   1.695   0.048   4.285
 1440SOL     OW15832   1.388   1.573   4.201
 1440SOL    HW115833   1.455   1.585   4.127
 1440SOL    HW215834   1.348   1.662   4.224
 1441SOL     OW15835   0.130   1.794   5.575
 1441SOL    HW115836   0.089   1.720   5.628
 1441SOL    HW215837   0.194   1.845   5.633
 1442SOL     OW15838   1.280   0.927   4.396
 1442SOL    HW115839   1.340   0.846   4.398
 1442SOL    HW215840   1.320   0.996   4.336
 1443SOL     OW15841   0.830   1.273   5.146
 1443SOL    HW115842   0.825   1.306   5.241
 1443SOL    HW215843   0.744   1.292   5.100
 1444SOL     OW15844   0.672   1.616   3.878
 1444SOL    HW115845   0.681   1.626   3.779
 1444SOL    HW215846   0.632   1.527   3.899
 1445SOL     OW15847   1.650   1.720   5.118
 1445SOL    HW115848   1.703   1.730   5.034
 1445SOL    HW215849   1.623   1.810   5.152
 1446SOL     OW15850   1.841   0.175   4.687
 1446SOL    HW115851   1.880   0.090   4.651
 1446SOL    HW215852   1.743   0.177   4.668
 1447SOL     OW15853   0.263   0.326   4.444
 1447SOL    HW115854   0.184   0.377   4.410
 1447SOL    HW215855   0.254   0.311   4.542
 1448SOL     OW15856   1.194   1.612   3.755
 1448SOL    HW115857   1.200   1.519   3.792
 1448SOL    HW215858   1.135   1.612   3.675
 1449SOL     OW15859   0.822   1.002   5.096
 1449SOL    HW115860   0.862   1.001   5.004
 1449SOL    HW215861   0.832   1.094   5.136
 1450SOL     OW15862   0.916   0.910   4.015
 1450SOL    HW115863   0.979   0.948   3.947
 1450SOL    HW215864   0.956   0.827   4.054
 1451SOL     OW15865   1.504   1.607   3.768
 1451SOL    HW115866   1.412   1.644   3.775
 1451SOL    HW215867   1.542   1.627   3.678
 1452SOL     OW15868   0.372   1.288   5.214
 1452SOL    HW115869   0.359   1.381   5.180
 1452SOL    HW215870   0.288   1.236   5.201
 1453SOL     OW15871   1.614   1.292   5.013
 1453SOL    HW115872   1.674   1.295   5.093
 1453SOL    HW215873   1.539   1.356   5.026
 1454SOL     OW15874   1.039   1.098   4.420
 1454SOL    HW115875   0.969   1.051   4.474
 1454SOL    HW215876   1.098   1.030   4.377
 1455SOL     OW15877   1.014   0.236   4.695
 1455SOL    HW115878   1.006   0.200   4.602
 1455SOL    HW215879   1.012   0.160   4.760
 1456SOL     OW15880   0.590   1.487   4.215
 1456SOL    HW115881   0.632   1.429   4.145
 1456SOL    HW215882   0.546   1.566   4.171
 1457SOL     OW15883   1.709   0.385   5.105
 1457SOL    HW115884   1.782   0.454   5.109
 1457SOL    HW215885   1.737   0.310   5.046
 1458SOL     OW15886   0.255   1.348   4.014
 1458SOL    HW115887   0.159   1.349   3.987
 1458SOL    HW215888   0.267   1.401   4.098
 1459SOL     OW15889   0.105   1.013   5.450
 1459SOL    HW115890   0.028   0.980   5.504
 1459SOL    HW215891   0.190   0.983   5.492
 1460SOL     OW15892   0.672   0.203   5.213
 1460SOL    HW115893   0.762   0.187   5.173
 1460SOL    HW215894   0.680   0.208   5.312
 1461SOL     OW15895   0.075   0.345   3.757
 1461SOL    HW115896  -0.017   0.317   3.728
 1461SOL    HW215897   0.106   0.422   3.701
 1462SOL     OW15898   1.440   0.856   5.122
 1462SOL    HW115899   1.383   0.908   5.059
 1462SOL    HW215900   1.536   0.868   5.098
 1463SOL     OW15901   0.072   0.166   4.042
 1463SOL    HW115902   0.055   0.249   3.988
 1463SOL    HW215903   0.162   0.129   4.020
 1464SOL     OW15904   1.183   1.335   3.843
 1464SOL    HW115905   1.084   1.324   3.845
 1464SOL    HW215906   1.217   1.350   3.936
 1465SOL     OW15907   0.613   0.842   5.155
 1465SOL    HW115908   0.669   0.923   5.138
 1465SOL    HW215909   0.672   0.762   5.158
 1466SOL     OW15910   1.493   1.767   4.683
 1466SOL    HW115911   1.526   1.831   4.614
 1466SOL    HW215912   1.559   1.761   4.758
 1467SOL     OW15913   0.716   0.565   5.432
 1467SOL    HW115914   0.735   0.630   5.506
 1467SOL    HW215915   0.776   0.485   5.441
 1468SOL     OW15916   1.450   1.220   5.357
 1468SOL    HW115917   1.441   1.210   5.456
 1468SOL    HW215918   1.546   1.213   5.331
 1469SOL     OW15919   0.390   1.741   5.284
 1469SOL    HW115920   0.299   1.782   5.282
 1469SOL    HW215921   0.383   1.647   5.316
 1470SOL     OW15922   1.674   0.883   4.978
 1470SOL    HW115923   1.647   0.794   4.941
 1470SOL    HW215924   1.675   0.951   4.905
 1471SOL     OW15925   1.225   0.325   4.173
 1471SOL    HW115926   1.290   0.251   4.162
 1471SOL    HW215927   1.245   0.375   4.257
 1472SOL     OW15928   0.594   0.745   4.376
 1472SOL    HW115929   0.644   0.830   4.357
 1472SOL    HW215930   0.506   0.747   4.328
 1473SOL     OW15931   1.777   0.342   5.366
 1473SOL    HW115932   1.760   0.373   5.272
 1473SOL    HW215933   1.693   0.305   5.404
 1474SOL     OW15934   1.730   0.934   5.241
 1474SOL    HW115935   1.768   1.025   5.256
 1474SOL    HW215936   1.722   0.917   5.142
 1475SOL     OW15937   0.859   1.374   3.740
 1475SOL    HW115938   0.813   1.389   3.828
 1475SOL    HW215939   0.903   1.459   3.710
 1476SOL     OW15940   0.661   1.790   4.677
 1476SOL    HW115941   0.615   1.878   4.664
 1476SOL    HW215942   0.760   1.802   4.670
 1477SOL     OW15943   0.859   0.956   4.585
 1477SOL    HW115944   0.913   0.887   4.633
 1477SOL    HW215945   0.827   1.025   4.651
 1478SOL     OW15946   1.083   0.984   3.811
 1478SOL    HW115947   1.060   1.037   3.729
 1478SOL    HW215948   1.164   0.928   3.792
 1479SOL     OW15949   1.861   1.569   4.575
 1479SOL    HW115950   1.790   1.557   4.505
 1479SOL    HW215951   1.862   1.490   4.635
 1480SOL     OW15952   0.221   1.314   5.568
 1480SOL    HW115953   0.156   1.241   5.547
 1480SOL    HW215954   0.225   1.328   5.666
 1481SOL     OW15955   0.079   1.240   4.377
 1481SOL    HW115956   0.078   1.193   4.465
 1481SOL    HW215957   0.161   1.212   4.326
 1482SOL     OW15958   0.672   1.391   5.348
 1482SOL    HW115959   0.594   1.341   5.386
 1482SOL    HW215960   0.669   1.486   5.379
 1483SOL     OW15961   1.824   0.192   4.951
 1483SOL    HW115962   1.820   0.102   4.995
 1483SOL    HW215963   1.827   0.181   4.852
 1484SOL     OW15964   0.428   0.424   4.244
 1484SOL    HW115965   0.458   0.352   4.182
 1484SOL    HW215966   0.389   0.384   4.327
 1485SOL     OW15967   1.705   1.487   4.828
 1485SOL    HW115968   1.612   1.462   4.801
 1485SOL    HW215969   1.731   1.437   4.910
 1486SOL     OW15970   0.317   0.547   5.004
 1486SOL    HW115971   0.355   0.488   5.076
 1486SOL    HW215972   0.357   0.521   4.916
 1487SOL     OW15973   0.812   1.586   4.411
 1487SOL    HW115974   0.844   1.596   4.317
 1487SOL    HW215975   0.733   1.524   4.413
 1488SOL     OW15976   1.424   0.214   4.836
 1488SOL    HW115977   1.476   0.149   4.891
 1488SOL    HW215978   1.375   0.277   4.897
 1489SOL     OW15979   1.001   0.034   4.878
 1489SOL    HW115980   0.938  -0.038   4.847
 1489SOL    HW215981   1.094  -0.002   4.878
 1490SOL     OW15982   0.770   1.330   4.025
 1490SOL    HW115983   0.724   1.243   4.042
 1490SOL    HW215984   0.861   1.327   4.066
 1491SOL     OW15985   0.618   1.567   5.008
 1491SOL    HW115986   0.613   1.649   5.065
 1491SOL    HW215987   0.707   1.564   4.963
 1492SOL     OW15988   1.352   0.052   3.892
 1492SOL    HW115989   1.387   0.011   3.808
 1492SOL    HW215990   1.262   0.014   3.912
 1493SOL     OW15991   1.300   0.453   4.415
 1493SOL    HW115992   1.241   0.533   4.419
 1493SOL    HW215993   1.315   0.418   4.508
 1494SOL     OW15994   1.593   0.221   4.606
 1494SOL    HW115995   1.509   0.220   4.660
 1494SOL    HW215996   1.595   0.304   4.550
 1495SOL     OW15997   0.039   1.077   4.024
 1495SOL    HW115998   0.138   1.066   4.015
 1495SOL    HW215999  -0.001   0.991   4.056
 1496SOL     OW16000   0.875   1.646   4.061
 1496SOL    HW116001   0.798   1.611   4.007
 1496SOL    HW216002   0.843   1.717   4.123
 1497SOL     OW16003   0.230   0.628   5.699
 1497SOL    HW116004   0.137   0.626   5.736
 1497SOL    HW216005   0.231   0.589   5.607
 1498SOL     OW16006   0.225   0.275   6.582
 1498SOL    HW116007   0.260   0.258   6.674
 1498SOL    HW216008   0.137   0.230   6.570
 1499SOL     OW16009   0.019   0.368   6.233
 1499SOL    HW116010  -0.063   0.411   6.272
 1499SOL    HW216011  -0.009   0.295   6.170
 1500SOL     OW16012   0.569   1.275   6.751
 1500SOL    HW116013   0.476   1.268   6.714
 1500SOL    HW216014   0.580   1.364   6.795
 1501SOL     OW16015   1.555   1.511   6.289
 1501SOL    HW116016   1.498   1.495   6.370
 1501SOL    HW216017   1.496   1.521   6.209
 1502SOL     OW16018   1.135   0.703   6.303
 1502SOL    HW116019   1.192   0.781   6.278
 1502SOL    HW216020   1.075   0.729   6.379
 1503SOL     OW16021   1.755   0.607   5.817
 1503SOL    HW116022   1.743   0.594   5.718
 1503SOL    HW216023   1.725   0.526   5.866
 1504SOL     OW16024   0.768   1.144   6.609
 1504SOL    HW116025   0.690   1.161   6.669
 1504SOL    HW216026   0.802   1.231   6.573
 1505SOL     OW16027   0.850   0.798   7.409
 1505SOL    HW116028   0.846   0.874   7.474
 1505SOL    HW216029   0.872   0.834   7.318
 1506SOL     OW16030   0.685   1.012   6.251
 1506SOL    HW116031   0.754   0.996   6.321
 1506SOL    HW216032   0.612   1.069   6.289
 1507SOL     OW16033   0.686   1.161   7.389
 1507SOL    HW116034   0.746   1.240   7.403
 1507SOL    HW216035   0.600   1.192   7.348
 1508SOL     OW16036   0.335   1.435   6.647
 1508SOL    HW116037   0.257   1.404   6.594
 1508SOL    HW216038   0.393   1.493   6.590
 1509SOL     OW16039   1.460   1.505   6.925
 1509SOL    HW116040   1.484   1.599   6.951
 1509SOL    HW216041   1.444   1.451   7.007
 1510SOL     OW16042   0.438   0.392   7.085
 1510SOL    HW116043   0.520   0.336   7.094
 1510SOL    HW216044   0.357   0.334   7.089
 1511SOL     OW16045   1.603   0.447   6.323
 1511SOL    HW116046   1.529   0.493   6.273
 1511SOL    HW216047   1.654   0.515   6.376
 1512SOL     OW16048   0.231   1.713   6.069
 1512SOL    HW116049   0.265   1.790   6.123
 1512SOL    HW216050   0.275   1.713   5.979
 1513SOL     OW16051   1.127   1.341   7.276
 1513SOL    HW116052   1.174   1.341   7.364
 1513SOL    HW216053   1.079   1.254   7.265
 1514SOL     OW16054   0.230   1.434   6.124
 1514SOL    HW116055   0.204   1.530   6.124
 1514SOL    HW216056   0.159   1.380   6.169
 1515SOL     OW16057   0.240   1.091   6.472
 1515SOL    HW116058   0.254   1.007   6.524
 1515SOL    HW216059   0.185   1.155   6.527
 1516SOL     OW16060   0.620   1.786   7.025
 1516SOL    HW116061   0.528   1.769   7.060
 1516SOL    HW216062   0.648   1.878   7.051
 1517SOL     OW16063   0.606   0.964   5.709
 1517SOL    HW116064   0.613   1.048   5.655
 1517SOL    HW216065   0.652   0.977   5.797
 1518SOL     OW16066   1.594   0.114   7.066
 1518SOL    HW116067   1.576   0.181   6.994
 1518SOL    HW216068   1.591   0.160   7.155
 1519SOL     OW16069   0.122   0.643   6.149
 1519SOL    HW116070   0.077   0.555   6.166
 1519SOL    HW216071   0.121   0.697   6.233
 1520SOL     OW16072   1.842   1.767   5.945
 1520SOL    HW116073   1.896   1.738   6.025
 1520SOL    HW216074   1.872   1.857   5.916
 1521SOL     OW16075   0.027   1.596   5.703
 1521SOL    HW116076   0.008   1.500   5.724
 1521SOL    HW216077  -0.006   1.654   5.778
 1522SOL     OW16078   1.689   0.922   6.198
 1522SOL    HW116079   1.784   0.893   6.206
 1522SOL    HW216080   1.681   0.987   6.123
 1523SOL     OW16081   1.641   1.108   6.018
 1523SOL    HW116082   1.727   1.110   5.966
 1523SOL    HW216083   1.655   1.155   6.106
 1524SOL     OW16084   0.113   0.737   7.183
 1524SOL    HW116085   0.201   0.724   7.228
 1524SOL    HW216086   0.100   0.834   7.161
 1525SOL     OW16087   0.613   1.365   6.312
 1525SOL    HW116088   0.564   1.278   6.321
 1525SOL    HW216089   0.590   1.408   6.225
 1526SOL     OW16090   1.293   1.228   7.009
 1526SOL    HW116091   1.330   1.155   6.951
 1526SOL    HW216092   1.345   1.233   7.094
 1527SOL     OW16093   0.809   0.004   6.088
 1527SOL    HW116094   0.849   0.095   6.079
 1527SOL    HW216095   0.709   0.012   6.094
 1528SOL     OW16096   0.197   0.976   6.850
 1528SOL    HW116097   0.286   0.931   6.836
 1528SOL    HW216098   0.124   0.911   6.831
 1529SOL     OW16099   1.525   0.999   5.776
 1529SOL    HW116100   1.462   0.923   5.789
 1529SOL    HW216101   1.573   1.017   5.862
 1530SOL     OW16102   1.187   1.792   7.202
 1530SOL    HW116103   1.211   1.852   7.126
 1530SOL    HW216104   1.194   1.697   7.172
 1531SOL     OW16105   0.317   0.251   7.387
 1531SOL    HW116106   0.388   0.322   7.393
 1531SOL    HW216107   0.229   0.290   7.415
 1532SOL     OW16108   1.466   1.417   6.539
 1532SOL    HW116109   1.407   1.423   6.619
 1532SOL    HW216110   1.451   1.329   6.493
 1533SOL     OW16111   1.667   1.714   6.158
 1533SOL    HW116112   1.626   1.691   6.070
 1533SOL    HW216113   1.649   1.640   6.223
 1534SOL     OW16114   0.598   0.729   5.856
 1534SOL    HW116115   0.622   0.798   5.788
 1534SOL    HW216116   0.520   0.762   5.910
 1535SOL     OW16117   1.281   0.345   6.530
 1535SOL    HW116118   1.195   0.295   6.517
 1535SOL    HW216119   1.343   0.291   6.586
 1536SOL     OW16120   1.576   1.662   5.893
 1536SOL    HW116121   1.665   1.708   5.896
 1536SOL    HW216122   1.555   1.638   5.798
 1537SOL     OW16123   0.807   0.605   7.051
 1537SOL    HW116124   0.760   0.602   7.140
 1537SOL    HW216125   0.756   0.550   6.985
 1538SOL     OW16126   1.394   0.469   7.260
 1538SOL    HW116127   1.374   0.512   7.348
 1538SOL    HW216128   1.472   0.407   7.269
 1539SOL     OW16129   0.973   0.890   7.158
 1539SOL    HW116130   1.019   0.806   7.129
 1539SOL    HW216131   0.917   0.924   7.083
 1540SOL     OW16132   0.991   0.410   6.828
 1540SOL    HW116133   0.914   0.444   6.882
 1540SOL    HW216134   0.957   0.359   6.749
 1541SOL     OW16135   1.041   0.701   6.015
 1541SOL    HW116136   1.067   0.697   6.111
 1541SOL    HW216137   0.956   0.650   6.001
 1542SOL     OW16138   0.076   0.811   6.375
 1542SOL    HW116139   0.175   0.799   6.384
 1542SOL    HW216140   0.052   0.906   6.396
 1543SOL     OW16141   0.130   1.821   7.157
 1543SOL    HW116142   0.120   1.806   7.256
 1543SOL    HW216143   0.044   1.857   7.121
 1544SOL     OW16144   0.865   0.348   5.781
 1544SOL    HW116145   0.924   0.411   5.732
 1544SOL    HW216146   0.884   0.254   5.752
 1545SOL     OW16147   1.719   0.585   7.417
 1545SOL    HW116148   1.693   0.674   7.381
 1545SOL    HW216149   1.717   0.517   7.344
 1546SOL     OW16150   1.362   1.144   6.131
 1546SOL    HW116151   1.445   1.115   6.083
 1546SOL    HW216152   1.313   1.211   6.075
 1547SOL     OW16153   0.550   0.196   6.471
 1547SOL    HW116154   0.545   0.191   6.571
 1547SOL    HW216155   0.552   0.292   6.442
 1548SOL     OW16156   1.008   1.456   6.063
 1548SOL    HW116157   0.962   1.528   6.011
 1548SOL    HW216158   1.004   1.476   6.161
 1549SOL     OW16159   0.351   1.801   6.439
 1549SOL    HW116160   0.401   1.715   6.445
 1549SOL    HW216161   0.416   1.878   6.436
 1550SOL     OW16162   1.795   1.066   6.459
 1550SOL    HW116163   1.733   1.051   6.383
 1550SOL    HW216164   1.743   1.077   6.544
 1551SOL     OW16165   1.227   1.550   7.092
 1551SOL    HW116166   1.233   1.473   7.156
 1551SOL    HW216167   1.175   1.524   7.012
 1552SOL     OW16168   0.321   0.943   5.828
 1552SOL    HW116169   0.403   0.982   5.786
 1552SOL    HW216170   0.294   0.861   5.779
 1553SOL     OW16171   1.458   0.735   6.314
 1553SOL    HW116172   1.453   0.670   6.389
 1553SOL    HW216173   1.538   0.794   6.327
 1554SOL     OW16174   0.461   1.266   7.313
 1554SOL    HW116175   0.411   1.267   7.227
 1554SOL    HW216176   0.398   1.248   7.389
 1555SOL     OW16177   1.111   1.776   5.823
 1555SOL    HW116178   1.051   1.714   5.873
 1555SOL    HW216179   1.142   1.732   5.738
 1556SOL     OW16180   0.202   0.285   7.084
 1556SOL    HW116181   0.122   0.345   7.071
 1556SOL    HW216182   0.192   0.236   7.170
 1557SOL     OW16183   1.632   1.377   5.667
 1557SOL    HW116184   1.600   1.471   5.657
 1557SOL    HW216185   1.556   1.314   5.655
 1558SOL     OW16186   0.464   1.743   5.909
 1558SOL    HW116187   0.497   1.782   5.995
 1558SOL    HW216188   0.540   1.736   5.844
 1559SOL     OW16189   1.400   0.107   6.012
 1559SOL    HW116190   1.376   0.070   5.922
 1559SOL    HW216191   1.499   0.123   6.016
 1560SOL     OW16192   0.249   1.785   6.827
 1560SOL    HW116193   0.306   1.720   6.877
 1560SOL    HW216194   0.233   1.752   6.734
 1561SOL     OW16195   0.940   1.698   6.490
 1561SOL    HW116196   1.020   1.641   6.511
 1561SOL    HW216197   0.891   1.658   6.413
 1562SOL     OW16198   0.382   0.700   6.066
 1562SOL    HW116199   0.427   0.610   6.063
 1562SOL    HW216200   0.288   0.689   6.099
 1563SOL     OW16201   1.547   0.222   7.315
 1563SOL    HW116202   1.542   0.259   7.407
 1563SOL    HW216203   1.475   0.153   7.303
 1564SOL     OW16204   0.614   0.122   5.703
 1564SOL    HW116205   0.712   0.100   5.710
 1564SOL    HW216206   0.583   0.105   5.610
 1565SOL     OW16207   0.781   0.264   7.335
 1565SOL    HW116208   0.848   0.203   7.378
 1565SOL    HW216209   0.708   0.283   7.400
 1566SOL     OW16210   0.888   1.514   6.781
 1566SOL    HW116211   0.865   1.489   6.687
 1566SOL    HW216212   0.949   1.445   6.820
 1567SOL     OW16213   1.351   0.590   7.019
 1567SOL    HW116214   1.379   0.547   7.104
 1567SOL    HW216215   1.376   0.686   7.020
 1568SOL     OW16216   0.803   1.402   6.510
 1568SOL    HW116217   0.893   1.416   6.468
 1568SOL    HW216218   0.732   1.404   6.439
 1569SOL     OW16219   0.922   0.503   6.485
 1569SOL    HW116220   0.897   0.494   6.389
 1569SOL    HW216221   0.970   0.421   6.516
 1570SOL     OW16222   0.539   0.064   6.098
 1570SOL    HW116223   0.458   0.065   6.156
 1570SOL    HW216224   0.542   0.147   6.043
 1571SOL     OW16225   1.434   1.188   5.627
 1571SOL    HW116226   1.466   1.112   5.684
 1571SOL    HW216227   1.342   1.215   5.657
 1572SOL     OW16228   0.297   0.035   5.757
 1572SOL    HW116229   0.346   0.119   5.736
 1572SOL    HW216230   0.359  -0.030   5.802
 1573SOL     OW16231   0.935   0.236   6.066
 1573SOL    HW116232   0.887   0.277   5.988
 1573SOL    HW216233   1.034   0.234   6.047
 1574SOL     OW16234   1.076   0.683   7.050
 1574SOL    HW116235   0.996   0.622   7.053
 1574SOL    HW216236   1.157   0.630   7.026
 1575SOL     OW16237   1.227   1.570   6.379
 1575SOL    HW116238   1.248   1.644   6.314
 1575SOL    HW216239   1.295   1.570   6.452
 1576SOL     OW16240   0.459   1.152   6.327
 1576SOL    HW116241   0.388   1.125   6.392
 1576SOL    HW216242   0.433   1.124   6.234
 1577SOL     OW16243   1.271   1.797   6.177
 1577SOL    HW116244   1.315   1.861   6.113
 1577SOL    HW216245   1.221   1.849   6.247
 1578SOL     OW16246   1.032   0.549   5.602
 1578SOL    HW116247   0.991   0.631   5.563
 1578SOL    HW216248   1.096   0.575   5.675
 1579SOL     OW16249   0.078   0.556   6.972
 1579SOL    HW116250   0.170   0.555   6.931
 1579SOL    HW216251   0.072   0.630   7.039
 1580SOL     OW16252   0.561   0.222   6.733
 1580SOL    HW116253   0.599   0.138   6.770
 1580SOL    HW216254   0.473   0.241   6.777
 1581SOL     OW16255   0.866   0.454   6.228
 1581SOL    HW116256   0.834   0.526   6.166
 1581SOL    HW216257   0.890   0.373   6.175
 1582SOL     OW16258   1.017   0.039   6.339
 1582SOL    HW116259   0.945   0.044   6.270
 1582SOL    HW216260   0.993  -0.030   6.408
 1583SOL     OW16261   1.429   1.173   6.453
 1583SOL    HW116262   1.374   1.089   6.446
 1583SOL    HW216263   1.455   1.202   6.361
 1584SOL     OW16264   1.466   0.590   6.578
 1584SOL    HW116265   1.436   0.495   6.585
 1584SOL    HW216266   1.539   0.606   6.644
 1585SOL     OW16267   1.857   0.833   5.963
 1585SOL    HW116268   1.899   0.769   6.027
 1585SOL    HW216269   1.819   0.782   5.885
 1586SOL     OW16270   0.488   1.385   5.760
 1586SOL    HW116271   0.401   1.370   5.807
 1586SOL    HW216272   0.471   1.411   5.665
 1587SOL     OW16273   1.664   1.280   6.243
 1587SOL    HW116274   1.763   1.288   6.257
 1587SOL    HW216275   1.619   1.364   6.274
 1588SOL     OW16276   1.390   0.575   5.664
 1588SOL    HW116277   1.336   0.554   5.745
 1588SOL    HW216278   1.481   0.534   5.673
 1589SOL     OW16279   0.527   0.256   5.914
 1589SOL    HW116280   0.554   0.197   5.839
 1589SOL    HW216281   0.527   0.351   5.883
 1590SOL     OW16282   1.754   1.223   7.174
 1590SOL    HW116283   1.845   1.184   7.161
 1590SOL    HW216284   1.762   1.319   7.198
 1591SOL     OW16285   1.064   1.347   6.926
 1591SOL    HW116286   0.984   1.324   6.981
 1591SOL    HW216287   1.147   1.321   6.975
 1592SOL     OW16288   1.592   1.629   7.211
 1592SOL    HW116289   1.619   1.663   7.121
 1592SOL    HW216290   1.671   1.591   7.257
 1593SOL     OW16291   1.111   1.195   6.686
 1593SOL    HW116292   1.071   1.239   6.767
 1593SOL    HW216293   1.070   1.232   6.603
 1594SOL     OW16294   1.638   1.099   6.665
 1594SOL    HW116295   1.643   1.180   6.724
 1594SOL    HW216296   1.552   1.101   6.614
 1595SOL     OW16297   0.915   0.089   6.988
 1595SOL    HW116298   0.940   0.069   6.893
 1595SOL    HW216299   0.987   0.145   7.030
 1596SOL     OW16300   0.980   1.116   7.305
 1596SOL    HW116301   0.881   1.122   7.315
 1596SOL    HW216302   1.003   1.036   7.249
 1597SOL     OW16303   0.705   1.050   5.954
 1597SOL    HW116304   0.691   1.057   6.053
 1597SOL    HW216305   0.789   0.999   5.936
 1598SOL     OW16306   0.410   0.813   6.837
 1598SOL    HW116307   0.496   0.825   6.887
 1598SOL    HW216308   0.368   0.726   6.864
 1599SOL     OW16309   1.274   0.386   6.848
 1599SOL    HW116310   1.295   0.460   6.912
 1599SOL    HW216311   1.185   0.403   6.805
 1600SOL     OW16312   0.064   1.564   6.917
 1600SOL    HW116313   0.018   1.646   6.883
 1600SOL    HW216314   0.162   1.583   6.926
 1601SOL     OW16315   0.367   1.100   6.087
 1601SOL    HW116316   0.360   1.183   6.031
 1601SOL    HW216317   0.371   1.020   6.027
 1602SOL     OW16318   0.566   0.537   6.451
 1602SOL    HW116319   0.578   0.603   6.377
 1602SOL    HW216320   0.612   0.571   6.534
 1603SOL     OW16321   1.252   1.348   5.974
 1603SOL    HW116322   1.302   1.425   6.014
 1603SOL    HW216323   1.157   1.350   6.006
 1604SOL     OW16324   1.272   1.445   6.728
 1604SOL    HW116325   1.319   1.458   6.815
 1604SOL    HW216326   1.206   1.371   6.737
 1605SOL     OW16327   1.582   0.639   6.058
 1605SOL    HW116328   1.551   0.700   6.131
 1605SOL    HW216329   1.632   0.691   5.989
 1606SOL     OW16330   0.354   1.510   6.915
 1606SOL    HW116331   0.333   1.466   6.828
 1606SOL    HW216332   0.451   1.536   6.918
 1607SOL     OW16333   0.402   0.751   7.184
 1607SOL    HW116334   0.470   0.806   7.137
 1607SOL    HW216335   0.442   0.663   7.211
 1608SOL     OW16336   1.587   0.779   7.256
 1608SOL    HW116337   1.495   0.817   7.251
 1608SOL    HW216338   1.647   0.826   7.191
 1609SOL     OW16339   1.013   0.105   7.356
 1609SOL    HW116340   1.019   0.190   7.304
 1609SOL    HW216341   1.045   0.029   7.299
 1610SOL     OW16342   0.504   0.050   7.326
 1610SOL    HW116343   0.462  -0.007   7.256
 1610SOL    HW216344   0.438   0.119   7.358
 1611SOL     OW16345   0.573   0.870   6.615
 1611SOL    HW116346   0.617   0.959   6.606
 1611SOL    HW216347   0.510   0.870   6.692
 1612SOL     OW16348   1.360   0.862   6.631
 1612SOL    HW116349   1.285   0.862   6.565
 1612SOL    HW216350   1.397   0.770   6.640
 1613SOL     OW16351   1.209   0.525   5.861
 1613SOL    HW116352   1.222   0.441   5.915
 1613SOL    HW216353   1.180   0.599   5.921
 1614SOL     OW16354   0.307   0.213   6.817
 1614SOL    HW116355   0.284   0.250   6.907
 1614SOL    HW216356   0.277   0.118   6.811
 1615SOL     OW16357   0.037   1.310   6.868
 1615SOL    HW116358   0.090   1.261   6.936
 1615SOL    HW216359   0.059   1.408   6.873
 1616SOL     OW16360   0.732   0.634   6.650
 1616SOL    HW116361   0.791   0.608   6.574
 1616SOL    HW216362   0.704   0.730   6.639
 1617SOL     OW16363   1.728   0.935   7.440
 1617SOL    HW116364   1.682   0.928   7.351
 1617SOL    HW216365   1.666   0.979   7.506
 1618SOL     OW16366   0.307   0.063   6.204
 1618SOL    HW116367   0.296   0.157   6.237
 1618SOL    HW216368   0.302   0.000   6.281
 1619SOL     OW16369   1.622   0.367   5.960
 1619SOL    HW116370   1.624   0.291   6.024
 1619SOL    HW216371   1.574   0.444   6.000
 1620SOL     OW16372   1.023   0.766   6.552
 1620SOL    HW116373   1.038   0.787   6.648
 1620SOL    HW216374   0.993   0.671   6.543
 1621SOL     OW16375   0.980   1.573   7.286
 1621SOL    HW116376   0.960   1.617   7.198
 1621SOL    HW216377   1.019   1.482   7.270
 1622SOL     OW16378   1.859   1.518   7.191
 1622SOL    HW116379   1.873   1.545   7.096
 1622SOL    HW216380   1.942   1.540   7.244
 1623SOL     OW16381   0.350   0.898   7.390
 1623SOL    HW116382   0.426   0.942   7.438
 1623SOL    HW216383   0.385   0.851   7.308
 1624SOL     OW16384   1.540   0.274   5.711
 1624SOL    HW116385   1.479   0.199   5.734
 1624SOL    HW216386   1.562   0.326   5.794
 1625SOL     OW16387   1.303   0.838   5.628
 1625SOL    HW116388   1.337   0.745   5.643
 1625SOL    HW216389   1.321   0.865   5.533
 1626SOL     OW16390   1.068   1.333   6.435
 1626SOL    HW116391   1.075   1.249   6.380
 1626SOL    HW216392   1.130   1.402   6.399
 1627SOL     OW16393   0.319   0.810   6.535
 1627SOL    HW116394   0.412   0.846   6.540
 1627SOL    HW216395   0.313   0.725   6.587
 1628SOL     OW16396   0.339   0.509   6.592
 1628SOL    HW116397   0.287   0.426   6.575
 1628SOL    HW216398   0.416   0.514   6.528
 1629SOL     OW16399   1.138   0.380   7.264
 1629SOL    HW116400   1.093   0.443   7.328
 1629SOL    HW216401   1.231   0.411   7.247
 1630SOL     OW16402   1.160   0.207   7.063
 1630SOL    HW116403   1.160   0.271   7.140
 1630SOL    HW216404   1.188   0.255   6.980
 1631SOL     OW16405   0.008   1.326   5.786
 1631SOL    HW116406  -0.085   1.347   5.755
 1631SOL    HW216407   0.018   1.227   5.799
 1632SOL     OW16408   0.088   1.801   6.513
 1632SOL    HW116409   0.046   1.715   6.486
 1632SOL    HW216410   0.182   1.804   6.479
 1633SOL     OW16411   0.504   1.568   6.496
 1633SOL    HW116412   0.570   1.642   6.505
 1633SOL    HW216413   0.548   1.489   6.454
 1634SOL     OW16414   1.002   0.796   6.824
 1634SOL    HW116415   1.043   0.764   6.910
 1634SOL    HW216416   0.906   0.769   6.821
 1635SOL     OW16417   0.040   0.544   6.700
 1635SOL    HW116418   0.125   0.511   6.659
 1635SOL    HW216419   0.053   0.559   6.798
 1636SOL     OW16420   0.189   0.520   7.308
 1636SOL    HW116421   0.248   0.480   7.238
 1636SOL    HW216422   0.131   0.591   7.267
 1637SOL     OW16423   1.369   0.950   7.246
 1637SOL    HW116424   1.408   1.039   7.266
 1637SOL    HW216425   1.379   0.930   7.149
 1638SOL     OW16426   0.815   0.572   5.911
 1638SOL    HW116427   0.822   0.483   5.865
 1638SOL    HW216428   0.721   0.606   5.903
 1639SOL     OW16429   1.657   0.604   6.792
 1639SOL    HW116430   1.619   0.535   6.854
 1639SOL    HW216431   1.739   0.568   6.748
 1640SOL     OW16432   0.252   1.564   7.330
 1640SOL    HW116433   0.222   1.621   7.406
 1640SOL    HW216434   0.245   1.467   7.356
 1641SOL     OW16435   0.671   0.464   6.855
 1641SOL    HW116436   0.637   0.375   6.825
 1641SOL    HW216437   0.697   0.518   6.775
 1642SOL     OW16438   0.930   1.678   7.051
 1642SOL    HW116439   0.906   1.660   6.956
 1642SOL    HW216440   0.960   1.772   7.061
 1643SOL     OW16441   0.473   0.500   5.777
 1643SOL    HW116442   0.534   0.580   5.781
 1643SOL    HW216443   0.378   0.531   5.784
 1644SOL     OW16444   0.159   1.137   7.052
 1644SOL    HW116445   0.181   1.076   7.128
 1644SOL    HW216446   0.169   1.088   6.966
 1645SOL     OW16447   1.347   1.059   6.820
 1645SOL    HW116448   1.371   0.996   6.746
 1645SOL    HW216449   1.257   1.099   6.802
 1646SOL     OW16450   1.302   0.855   5.895
 1646SOL    HW116451   1.216   0.824   5.937
 1646SOL    HW216452   1.298   0.841   5.796
 1647SOL     OW16453   1.759   1.747   6.740
 1647SOL    HW116454   1.820   1.777   6.667
 1647SOL    HW216455   1.721   1.658   6.718
 1648SOL     OW16456   1.252   1.731   6.714
 1648SOL    HW116457   1.336   1.736   6.660
 1648SOL    HW216458   1.229   1.635   6.732
 1649SOL     OW16459   0.083   1.258   6.608
 1649SOL    HW116460   0.078   1.257   6.708
 1649SOL    HW216461   0.000   1.217   6.570
 1650SOL     OW16462   0.688   1.662   7.302
 1650SOL    HW116463   0.632   1.743   7.311
 1650SOL    HW216464   0.740   1.666   7.216
 1651SOL     OW16465   1.726   0.135   6.109
 1651SOL    HW116466   1.799   0.118   6.042
 1651SOL    HW216467   1.695   0.048   6.147
 1652SOL     OW16468   1.388   1.573   6.063
 1652SOL    HW116469   1.455   1.585   5.989
 1652SOL    HW216470   1.348   1.662   6.086
 1653SOL     OW16471   0.130   1.794   7.437
 1653SOL    HW116472   0.089   1.720   7.490
 1653SOL    HW216473   0.194   1.845   7.495
 1654SOL     OW16474   1.280   0.927   6.258
 1654SOL    HW116475   1.340   0.846   6.260
 1654SOL    HW216476   1.320   0.996   6.198
 1655SOL     OW16477   0.830   1.273   7.008
 1655SOL    HW116478   0.825   1.306   7.103
 1655SOL    HW216479   0.744   1.292   6.962
 1656SOL     OW16480   0.672   1.616   5.740
 1656SOL    HW116481   0.681   1.626   5.641
 1656SOL    HW216482   0.632   1.527   5.761
 1657SOL     OW16483   1.650   1.720   6.980
 1657SOL    HW116484   1.703   1.730   6.896
 1657SOL    HW216485   1.623   1.810   7.014
 1658SOL     OW16486   1.841   0.175   6.549
 1658SOL    HW116487   1.880   0.090   6.513
 1658SOL    HW216488   1.743   0.177   6.530
 1659SOL     OW16489   0.263   0.326   6.306
 1659SOL    HW116490   0.184   0.377   6.272
 1659SOL    HW216491   0.254   0.311   6.404
 1660SOL     OW16492   1.194   1.612   5.617
 1660SOL    HW116493   1.200   1.519   5.654
 1660SOL    HW216494   1.135   1.612   5.537
 1661SOL     OW16495   0.822   1.002   6.958
 1661SOL    HW116496   0.862   1.001   6.866
 1661SOL    HW216497   0.832   1.094   6.998
 1662SOL     OW16498   0.916   0.910   5.877
 1662SOL    HW116499   0.979   0.948   5.809
 1662SOL    HW216500   0.956   0.827   5.916
 1663SOL     OW16501   1.504   1.607   5.630
 1663SOL    HW116502   1.412   1.644   5.637
 1663SOL    HW216503   1.542   1.627   5.540
 1664SOL     OW16504   0.372   1.288   7.076
 1664SOL    HW116505   0.359   1.381   7.042
 1664SOL    HW216506   0.288   1.236   7.063
 1665SOL     OW16507   1.614   1.292   6.875
 1665SOL    HW116508   1.674   1.295   6.955
 1665SOL    HW216509   1.539   1.356   6.888
 1666SOL     OW16510   1.039   1.098   6.282
 1666SOL    HW116511   0.969   1.051   6.336
 1666SOL    HW216512   1.098   1.030   6.239
 1667SOL     OW16513   1.014   0.236   6.557
 1667SOL    HW116514   1.006   0.200   6.464
 1667SOL    HW216515   1.012   0.160   6.622
 1668SOL     OW16516   0.590   1.487   6.077
 1668SOL    HW116517   0.632   1.429   6.007
 1668SOL    HW216518   0.546   1.566   6.033
 1669SOL     OW16519   1.709   0.385   6.967
 1669SOL    HW116520   1.782   0.454   6.971
 1669SOL    HW216521   1.737   0.310   6.908
 1670SOL     OW16522   0.255   1.348   5.876
 1670SOL    HW116523   0.159   1.349   5.849
 1670SOL    HW216524   0.267   1.401   5.960
 1671SOL     OW16525   0.105   1.013   7.312
 1671SOL    HW116526   0.028   0.980   7.366
 1671SOL    HW216527   0.190   0.983   7.354
 1672SOL     OW16528   0.672   0.203   7.075
 1672SOL    HW116529   0.762   0.187   7.035
 1672SOL    HW216530   0.680   0.208   7.174
 1673SOL     OW16531   0.075   0.345   5.619
 1673SOL    HW116532  -0.017   0.317   5.590
 1673SOL    HW216533   0.106   0.422   5.563
 1674SOL     OW16534   1.440   0.856   6.984
 1674SOL    HW116535   1.383   0.908   6.921
 1674SOL    HW216536   1.536   0.868   6.960
 1675SOL     OW16537   0.072   0.166   5.904
 1675SOL    HW116538   0.055   0.249   5.850
 1675SOL    HW216539   0.162   0.129   5.882
 1676SOL     OW16540   1.183   1.335   5.705
 1676SOL    HW116541   1.084   1.324   5.707
 1676SOL    HW216542   1.217   1.350   5.798
 1677SOL     OW16543   0.613   0.842   7.017
 1677SOL    HW116544   0.669   0.923   7.000
 1677SOL    HW216545   0.672   0.762   7.020
 1678SOL     OW16546   1.493   1.767   6.545
 1678SOL    HW116547   1.526   1.831   6.476
 1678SOL    HW216548   1.559   1.761   6.620
 1679SOL     OW16549   0.716   0.565   7.294
 1679SOL    HW116550   0.735   0.630   7.368
 1679SOL    HW216551   0.776   0.485   7.303
 1680SOL     OW16552   1.450   1.220   7.219
 1680SOL    HW116553   1.441   1.210   7.318
 1680SOL    HW216554   1.546   1.213   7.193
 1681SOL     OW16555   0.390   1.741   7.146
 1681SOL    HW116556   0.299   1.782   7.144
 1681SOL    HW216557   0.383   1.647   7.178
 1682SOL     OW16558   1.674   0.883   6.840
 1682SOL    HW116559   1.647   0.794   6.803
 1682SOL    HW216560   1.675   0.951   6.767
 1683SOL     OW16561   1.225   0.325   6.035
 1683SOL    HW116562   1.290   0.251   6.024
 1683SOL    HW216563   1.245   0.375   6.119
 1684SOL     OW16564   0.594   0.745   6.238
 1684SOL    HW116565   0.644   0.830   6.219
 1684SOL    HW216566   0.506   0.747   6.190
 1685SOL     OW16567   1.777   0.342   7.228
 1685SOL    HW116568   1.760   0.373   7.134
 1685SOL    HW216569   1.693   0.305   7.266
 1686SOL     OW16570   1.730   0.934   7.103
 1686SOL    HW116571   1.768   1.025   7.118
 1686SOL    HW216572   1.722   0.917   7.004
 1687SOL     OW16573   0.859   1.374   5.602
 1687SOL    HW116574   0.813   1.389   5.690
 1687SOL    HW216575   0.903   1.459   5.572
 1688SOL     OW16576   0.661   1.790   6.539
 1688SOL    HW116577   0.615   1.878   6.526
 1688SOL    HW216578   0.760   1.802   6.532
 1689SOL     OW16579   0.859   0.956   6.447
 1689SOL    HW116580   0.913   0.887   6.495
 1689SOL    HW216581   0.827   1.025   6.513
 1690SOL     OW16582   1.083   0.984   5.673
 1690SOL    HW116583   1.060   1.037   5.591
 1690SOL    HW216584   1.164   0.928   5.654
 1691SOL     OW16585   1.861   1.569   6.437
 1691SOL    HW116586   1.790   1.557   6.367
 1691SOL    HW216587   1.862   1.490   6.497
 1692SOL     OW16588   0.221   1.314   7.430
 1692SOL    HW116589   0.156   1.241   7.409
 1692SOL    HW216590   0.225   1.328   7.528
 1693SOL     OW16591   0.079   1.240   6.239
 1693SOL    HW116592   0.078   1.193   6.327
 1693SOL    HW216593   0.161   1.212   6.188
 1694SOL     OW16594   0.672   1.391   7.210
 1694SOL    HW116595   0.594   1.341   7.248
 1694SOL    HW216596   0.669   1.486   7.241
 1695SOL     OW16597   1.824   0.192   6.813
 1695SOL    HW116598   1.820   0.102   6.857
 1695SOL    HW216599   1.827   0.181   6.714
 1696SOL     OW16600   0.428   0.424   6.106
 1696SOL    HW116601   0.458   0.352   6.044
 1696SOL    HW216602   0.389   0.384   6.189
 1697SOL     OW16603   1.705   1.487   6.690
 1697SOL    HW116604   1.612   1.462   6.663
 1697SOL    HW216605   1.731   1.437   6.772
 1698SOL     OW16606   0.317   0.547   6.866
 1698SOL    HW116607   0.355   0.488   6.938
 1698SOL    HW216608   0.357   0.521   6.778
 1699SOL     OW16609   0.812   1.586   6.273
 1699SOL    HW116610   0.844   1.596   6.179
 1699SOL    HW216611   0.733   1.524   6.275
 1700SOL     OW16612   1.424   0.214   6.698
 1700SOL    HW116613   1.476   0.149   6.753
 1700SOL    HW216614   1.375   0.277   6.759
 1701SOL     OW16615   1.001   0.034   6.740
 1701SOL    HW116616   0.938  -0.038   6.709
 1701SOL    HW216617   1.094  -0.002   6.740
 1702SOL     OW16618   0.770   1.330   5.887
 1702SOL    HW116619   0.724   1.243   5.904
 1702SOL    HW216620   0.861   1.327   5.928
 1703SOL     OW16621   0.618   1.567   6.870
 1703SOL    HW116622   0.613   1.649   6.927
 1703SOL    HW216623   0.707   1.564   6.825
 1704SOL     OW16624   1.352   0.052   5.754
 1704SOL    HW116625   1.387   0.011   5.670
 1704SOL    HW216626   1.262   0.014   5.774
 1705SOL     OW16627   1.300   0.453   6.277
 1705SOL    HW116628   1.241   0.533   6.281
 1705SOL    HW216629   1.315   0.418   6.370
 1706SOL     OW16630   1.593   0.221   6.468
 1706SOL    HW116631   1.509   0.220   6.522
 1706SOL    HW216632   1.595   0.304   6.412
 1707SOL     OW16633   0.039   1.077   5.886
 1707SOL    HW116634   0.138   1.066   5.877
 1707SOL    HW216635  -0.001   0.991   5.918
 1708SOL     OW16636   0.875   1.646   5.923
 1708SOL    HW116637   0.798   1.611   5.869
 1708SOL    HW216638   0.843   1.717   5.985
 1709SOL     OW16639   0.230   0.628   7.561
 1709SOL    HW116640   0.137   0.626   7.598
 1709SOL    HW216641   0.231   0.589   7.469
 1710SOL     OW16642   0.225   0.275   8.444
 1710SOL    HW116643   0.260   0.258   8.536
 1710SOL    HW216644   0.137   0.230   8.432
 1711SOL     OW16645   0.019   0.368   8.095
 1711SOL    HW116646  -0.063   0.411   8.134
 1711SOL    HW216647  -0.009   0.295   8.032
 1712SOL     OW16648   0.569   1.275   8.613
 1712SOL    HW116649   0.476   1.268   8.576
 1712SOL    HW216650   0.580   1.364   8.657
 1713SOL     OW16651   1.555   1.511   8.151
 1713SOL    HW116652   1.498   1.495   8.232
 1713SOL    HW216653   1.496   1.521   8.071
 1714SOL     OW16654   1.135   0.703   8.165
 1714SOL    HW116655   1.192   0.781   8.140
 1714SOL    HW216656   1.075   0.729   8.241
 1715SOL     OW16657   1.755   0.607   7.679
 1715SOL    HW116658   1.743   0.594   7.580
 1715SOL    HW216659   1.725   0.526   7.728
 1716SOL     OW16660   0.768   1.144   8.471
 1716SOL    HW116661   0.690   1.161   8.531
 1716SOL    HW216662   0.802   1.231   8.435
 1717SOL     OW16663   0.850   0.798   9.271
 1717SOL    HW116664   0.846   0.874   9.336
 1717SOL    HW216665   0.872   0.834   9.180
 1718SOL     OW16666   0.685   1.012   8.113
 1718SOL    HW116667   0.754   0.996   8.183
 1718SOL    HW216668   0.612   1.069   8.151
 1719SOL     OW16669   0.686   1.161   9.251
 1719SOL    HW116670   0.746   1.240   9.265
 1719SOL    HW216671   0.600   1.192   9.210
 1720SOL     OW16672   0.335   1.435   8.509
 1720SOL    HW116673   0.257   1.404   8.456
 1720SOL    HW216674   0.393   1.493   8.452
 1721SOL     OW16675   1.460   1.505   8.787
 1721SOL    HW116676   1.484   1.599   8.813
 1721SOL    HW216677   1.444   1.451   8.869
 1722SOL     OW16678   0.438   0.392   8.947
 1722SOL    HW116679   0.520   0.336   8.956
 1722SOL    HW216680   0.357   0.334   8.951
 1723SOL     OW16681   1.603   0.447   8.185
 1723SOL    HW116682   1.529   0.493   8.135
 1723SOL    HW216683   1.654   0.515   8.238
 1724SOL     OW16684   0.231   1.713   7.931
 1724SOL    HW116685   0.265   1.790   7.985
 1724SOL    HW216686   0.275   1.713   7.841
 1725SOL     OW16687   1.127   1.341   9.138
 1725SOL    HW116688   1.174   1.341   9.226
 1725SOL    HW216689   1.079   1.254   9.127
 1726SOL     OW16690   0.230   1.434   7.986
 1726SOL    HW116691   0.204   1.530   7.986
 1726SOL    HW216692   0.159   1.380   8.031
 1727SOL     OW16693   0.240   1.091   8.334
 1727SOL    HW116694   0.254   1.007   8.386
 1727SOL    HW216695   0.185   1.155   8.389
 1728SOL     OW16696   0.620   1.786   8.887
 1728SOL    HW116697   0.528   1.769   8.922
 1728SOL    HW216698   0.648   1.878   8.913
 1729SOL     OW16699   0.606   0.964   7.571
 1729SOL    HW116700   0.613   1.048   7.517
 1729SOL    HW216701   0.652   0.977   7.659
 1730SOL     OW16702   0.122   0.643   8.011
 1730SOL    HW116703   0.077   0.555   8.028
 1730SOL    HW216704   0.121   0.697   8.095
 1731SOL     OW16705   1.842   1.767   7.807
 1731SOL    HW116706   1.896   1.738   7.887
 1731SOL    HW216707   1.872   1.857   7.778
 1732SOL     OW16708   0.027   1.596   7.565
 1732SOL    HW116709   0.008   1.500   7.586
 1732SOL    HW216710  -0.006   1.654   7.640
 1733SOL     OW16711   1.689   0.922   8.060
 1733SOL    HW116712   1.784   0.893   8.068
 1733SOL    HW216713   1.681   0.987   7.985
 1734SOL     OW16714   1.641   1.108   7.880
 1734SOL    HW116715   1.727   1.110   7.828
 1734SOL    HW216716   1.655   1.155   7.968
 1735SOL     OW16717   0.113   0.737   9.045
 1735SOL    HW116718   0.201   0.724   9.090
 1735SOL    HW216719   0.100   0.834   9.023
 1736SOL     OW16720   0.613   1.365   8.174
 1736SOL    HW116721   0.564   1.278   8.183
 1736SOL    HW216722   0.590   1.408   8.087
 1737SOL     OW16723   1.293   1.228   8.871
 1737SOL    HW116724   1.330   1.155   8.813
 1737SOL    HW216725   1.345   1.233   8.956
 1738SOL     OW16726   0.809   0.004   7.950
 1738SOL    HW116727   0.849   0.095   7.941
 1738SOL    HW216728   0.709   0.012   7.956
 1739SOL     OW16729   0.197   0.976   8.712
 1739SOL    HW116730   0.286   0.931   8.698
 1739SOL    HW216731   0.124   0.911   8.693
 1740SOL     OW16732   1.525   0.999   7.638
 1740SOL    HW116733   1.462   0.923   7.651
 1740SOL    HW216734   1.573   1.017   7.724
 1741SOL     OW16735   1.187   1.792   9.064
 1741SOL    HW116736   1.211   1.852   8.988
 1741SOL    HW216737   1.194   1.697   9.034
 1742SOL     OW16738   0.317   0.251   9.249
 1742SOL    HW116739   0.388   0.322   9.255
 1742SOL    HW216740   0.229   0.290   9.277
 1743SOL     OW16741   1.466   1.417   8.401
 1743SOL    HW116742   1.407   1.423   8.481
 1743SOL    HW216743   1.451   1.329   8.355
 1744SOL     OW16744   1.667   1.714   8.020
 1744SOL    HW116745   1.626   1.691   7.932
 1744SOL    HW216746   1.649   1.640   8.085
 1745SOL     OW16747   0.598   0.729   7.718
 1745SOL    HW116748   0.622   0.798   7.650
 1745SOL    HW216749   0.520   0.762   7.772
 1746SOL     OW16750   1.281   0.345   8.392
 1746SOL    HW116751   1.195   0.295   8.379
 1746SOL    HW216752   1.343   0.291   8.448
 1747SOL     OW16753   1.576   1.662   7.755
 1747SOL    HW116754   1.665   1.708   7.758
 1747SOL    HW216755   1.555   1.638   7.660
 1748SOL     OW16756   0.807   0.605   8.913
 1748SOL    HW116757   0.760   0.602   9.002
 1748SOL    HW216758   0.756   0.550   8.847
 1749SOL     OW16759   0.973   0.890   9.020
 1749SOL    HW116760   1.019   0.806   8.991
 1749SOL    HW216761   0.917   0.924   8.945
 1750SOL     OW16762   0.991   0.410   8.690
 1750SOL    HW116763   0.914   0.444   8.744
 1750SOL    HW216764   0.957   0.359   8.611
 1751SOL     OW16765   1.041   0.701   7.877
 1751SOL    HW116766   1.067   0.697   7.973
 1751SOL    HW216767   0.956   0.650   7.863
 1752SOL     OW16768   0.076   0.811   8.237
 1752SOL    HW116769   0.175   0.799   8.246
 1752SOL    HW216770   0.052   0.906   8.258
 1753SOL     OW16771   0.130   1.821   9.019
 1753SOL    HW116772   0.120   1.806   9.118
 1753SOL    HW216773   0.044   1.857   8.983
 1754SOL     OW16774   0.865   0.348   7.643
 1754SOL    HW116775   0.924   0.411   7.594
 1754SOL    HW216776   0.884   0.254   7.614
 1755SOL     OW16777   1.362   1.144   7.993
 1755SOL    HW116778   1.445   1.115   7.945
 1755SOL    HW216779   1.313   1.211   7.937
 1756SOL     OW16780   0.550   0.196   8.333
 1756SOL    HW116781   0.545   0.191   8.433
 1756SOL    HW216782   0.552   0.292   8.304
 1757SOL     OW16783   1.008   1.456   7.925
 1757SOL    HW116784   0.962   1.528   7.873
 1757SOL    HW216785   1.004   1.476   8.023
 1758SOL     OW16786   0.351   1.801   8.301
 1758SOL    HW116787   0.401   1.715   8.307
 1758SOL    HW216788   0.416   1.878   8.298
 1759SOL     OW16789   1.795   1.066   8.321
 1759SOL    HW116790   1.733   1.051   8.245
 1759SOL    HW216791   1.743   1.077   8.406
 1760SOL     OW16792   1.227   1.550   8.954
 1760SOL    HW116793   1.233   1.473   9.018
 1760SOL    HW216794   1.175   1.524   8.874
 1761SOL     OW16795   0.321   0.943   7.690
 1761SOL    HW116796   0.403   0.982   7.648
 1761SOL    HW216797   0.294   0.861   7.641
 1762SOL     OW16798   1.458   0.735   8.176
 1762SOL    HW116799   1.453   0.670   8.251
 1762SOL    HW216800   1.538   0.794   8.189
 1763SOL     OW16801   0.461   1.266   9.175
 1763SOL    HW116802   0.411   1.267   9.089
 1763SOL    HW216803   0.398   1.248   9.251
 1764SOL     OW16804   1.111   1.776   7.685
 1764SOL    HW116805   1.051   1.714   7.735
 1764SOL    HW216806   1.142   1.732   7.600
 1765SOL     OW16807   0.202   0.285   8.946
 1765SOL    HW116808   0.122   0.345   8.933
 1765SOL    HW216809   0.192   0.236   9.032
 1766SOL     OW16810   1.632   1.377   7.529
 1766SOL    HW116811   1.600   1.471   7.519
 1766SOL    HW216812   1.556   1.314   7.517
 1767SOL     OW16813   0.464   1.743   7.771
 1767SOL    HW116814   0.497   1.782   7.857
 1767SOL    HW216815   0.540   1.736   7.706
 1768SOL     OW16816   1.400   0.107   7.874
 1768SOL    HW116817   1.376   0.070   7.784
 1768SOL    HW216818   1.499   0.123   7.878
 1769SOL     OW16819   0.249   1.785   8.689
 1769SOL    HW116820   0.306   1.720   8.739
 1769SOL    HW216821   0.233   1.752   8.596
 1770SOL     OW16822   0.940   1.698   8.352
 1770SOL    HW116823   1.020   1.641   8.373
 1770SOL    HW216824   0.891   1.658   8.275
 1771SOL     OW16825   0.382   0.700   7.928
 1771SOL    HW116826   0.427   0.610   7.925
 1771SOL    HW216827   0.288   0.689   7.961
 1772SOL     OW16828   0.614   0.122   7.565
 1772SOL    HW116829   0.712   0.100   7.572
 1772SOL    HW216830   0.583   0.105   7.472
 1773SOL     OW16831   0.888   1.514   8.643
 1773SOL    HW116832   0.865   1.489   8.549
 1773SOL    HW216833   0.949   1.445   8.682
 1774SOL     OW16834   1.351   0.590   8.881
 1774SOL    HW116835   1.379   0.547   8.966
 1774SOL    HW216836   1.376   0.686   8.882
 1775SOL     OW16837   0.803   1.402   8.372
 1775SOL    HW116838   0.893   1.416   8.330
 1775SOL    HW216839   0.732   1.404   8.301
 1776SOL     OW16840   0.922   0.503   8.347
 1776SOL    HW116841   0.897   0.494   8.251
 1776SOL    HW216842   0.970   0.421   8.378
 1777SOL     OW16843   0.539   0.064   7.960
 1777SOL    HW116844   0.458   0.065   8.018
 1777SOL    HW216845   0.542   0.147   7.905
 1778SOL     OW16846   1.434   1.188   7.489
 1778SOL    HW116847   1.466   1.112   7.546
 1778SOL    HW216848   1.342   1.215   7.519
 1779SOL     OW16849   0.297   0.035   7.619
 1779SOL    HW116850   0.346   0.119   7.598
 1779SOL    HW216851   0.359  -0.030   7.664
 1780SOL     OW16852   0.935   0.236   7.928
 1780SOL    HW116853   0.887   0.277   7.850
 1780SOL    HW216854   1.034   0.234   7.909
 1781SOL     OW16855   1.076   0.683   8.912
 1781SOL    HW116856   0.996   0.622   8.915
 1781SOL    HW216857   1.157   0.630   8.888
 1782SOL     OW16858   1.227   1.570   8.241
 1782SOL    HW116859   1.248   1.644   8.176
 1782SOL    HW216860   1.295   1.570   8.314
 1783SOL     OW16861   0.459   1.152   8.189
 1783SOL    HW116862   0.388   1.125   8.254
 1783SOL    HW216863   0.433   1.124   8.096
 1784SOL     OW16864   1.271   1.797   8.039
 1784SOL    HW116865   1.315   1.861   7.975
 1784SOL    HW216866   1.221   1.849   8.109
 1785SOL     OW16867   1.032   0.549   7.464
 1785SOL    HW116868   0.991   0.631   7.425
 1785SOL    HW216869   1.096   0.575   7.537
 1786SOL     OW16870   0.078   0.556   8.834
 1786SOL    HW116871   0.170   0.555   8.793
 1786SOL    HW216872   0.072   0.630   8.901
 1787SOL     OW16873   0.561   0.222   8.595
 1787SOL    HW116874   0.599   0.138   8.632
 1787SOL    HW216875   0.473   0.241   8.639
 1788SOL     OW16876   0.866   0.454   8.090
 1788SOL    HW116877   0.834   0.526   8.028
 1788SOL    HW216878   0.890   0.373   8.037
 1789SOL     OW16879   1.017   0.039   8.201
 1789SOL    HW116880   0.945   0.044   8.132
 1789SOL    HW216881   0.993  -0.030   8.270
 1790SOL     OW16882   1.429   1.173   8.315
 1790SOL    HW116883   1.374   1.089   8.308
 1790SOL    HW216884   1.455   1.202   8.223
 1791SOL     OW16885   1.466   0.590   8.440
 1791SOL    HW116886   1.436   0.495   8.447
 1791SOL    HW216887   1.539   0.606   8.506
 1792SOL     OW16888   1.857   0.833   7.825
 1792SOL    HW116889   1.899   0.769   7.889
 1792SOL    HW216890   1.819   0.782   7.747
 1793SOL     OW16891   0.488   1.385   7.622
 1793SOL    HW116892   0.401   1.370   7.669
 1793SOL    HW216893   0.471   1.411   7.527
 1794SOL     OW16894   1.664   1.280   8.105
 1794SOL    HW116895   1.763   1.288   8.119
 1794SOL    HW216896   1.619   1.364   8.136
 1795SOL     OW16897   1.390   0.575   7.526
 1795SOL    HW116898   1.336   0.554   7.607
 1795SOL    HW216899   1.481   0.534   7.535
 1796SOL     OW16900   0.527   0.256   7.776
 1796SOL    HW116901   0.554   0.197   7.701
 1796SOL    HW216902   0.527   0.351   7.745
 1797SOL     OW16903   1.754   1.223   9.036
 1797SOL    HW116904   1.845   1.184   9.023
 1797SOL    HW216905   1.762   1.319   9.060
 1798SOL     OW16906   1.064   1.347   8.788
 1798SOL    HW116907   0.984   1.324   8.843
 1798SOL    HW216908   1.147   1.321   8.837
 1799SOL     OW16909   1.592   1.629   9.073
 1799SOL    HW116910   1.619   1.663   8.983
 1799SOL    HW216911   1.671   1.591   9.119
 1800SOL     OW16912   1.111   1.195   8.548
 1800SOL    HW116913   1.071   1.239   8.629
 1800SOL    HW216914   1.070   1.232   8.465
 1801SOL     OW16915   1.638   1.099   8.527
 1801SOL    HW116916   1.643   1.180   8.586
 1801SOL    HW216917   1.552   1.101   8.476
 1802SOL     OW16918   0.915   0.089   8.850
 1802SOL    HW116919   0.940   0.069   8.755
 1802SOL    HW216920   0.987   0.145   8.892
 1803SOL     OW16921   0.980   1.116   9.167
 1803SOL    HW116922   0.881   1.122   9.177
 1803SOL    HW216923   1.003   1.036   9.111
 1804SOL     OW16924   0.705   1.050   7.816
 1804SOL    HW116925   0.691   1.057   7.915
 1804SOL    HW216926   0.789   0.999   7.798
 1805SOL     OW16927   0.410   0.813   8.699
 1805SOL    HW116928   0.496   0.825   8.749
 1805SOL    HW216929   0.368   0.726   8.726
 1806SOL     OW16930   1.274   0.386   8.710
 1806SOL    HW116931   1.295   0.460   8.774
 1806SOL    HW216932   1.185   0.403   8.667
 1807SOL     OW16933   0.064   1.564   8.779
 1807SOL    HW116934   0.018   1.646   8.745
 1807SOL    HW216935   0.162   1.583   8.788
 1808SOL     OW16936   0.367   1.100   7.949
 1808SOL    HW116937   0.360   1.183   7.893
 1808SOL    HW216938   0.371   1.020   7.889
 1809SOL     OW16939   0.566   0.537   8.313
 1809SOL    HW116940   0.578   0.603   8.239
 1809SOL    HW216941   0.612   0.571   8.396
 1810SOL     OW16942   1.252   1.348   7.836
 1810SOL    HW116943   1.302   1.425   7.876
 1810SOL    HW216944   1.157   1.350   7.868
 1811SOL     OW16945   1.272   1.445   8.590
 1811SOL    HW116946   1.319   1.458   8.677
 1811SOL    HW216947   1.206   1.371   8.599
 1812SOL     OW16948   1.582   0.639   7.920
 1812SOL    HW116949   1.551   0.700   7.993
 1812SOL    HW216950   1.632   0.691   7.851
 1813SOL     OW16951   0.354   1.510   8.777
 1813SOL    HW116952   0.333   1.466   8.690
 1813SOL    HW216953   0.451   1.536   8.780
 1814SOL     OW16954   0.402   0.751   9.046
 1814SOL    HW116955   0.470   0.806   8.999
 1814SOL    HW216956   0.442   0.663   9.073
 1815SOL     OW16957   1.587   0.779   9.118
 1815SOL    HW116958   1.495   0.817   9.113
 1815SOL    HW216959   1.647   0.826   9.053
 1816SOL     OW16960   0.504   0.050   9.188
 1816SOL    HW116961   0.462  -0.007   9.118
 1816SOL    HW216962   0.438   0.119   9.220
 1817SOL     OW16963   0.573   0.870   8.477
 1817SOL    HW116964   0.617   0.959   8.468
 1817SOL    HW216965   0.510   0.870   8.554
 1818SOL     OW16966   1.360   0.862   8.493
 1818SOL    HW116967   1.285   0.862   8.427
 1818SOL    HW216968   1.397   0.770   8.502
 1819SOL     OW16969   1.209   0.525   7.723
 1819SOL    HW116970   1.222   0.441   7.777
 1819SOL    HW216971   1.180   0.599   7.783
 1820SOL     OW16972   0.307   0.213   8.679
 1820SOL    HW116973   0.284   0.250   8.769
 1820SOL    HW216974   0.277   0.118   8.673
 1821SOL     OW16975   0.037   1.310   8.730
 1821SOL    HW116976   0.090   1.261   8.798
 1821SOL    HW216977   0.059   1.408   8.735
 1822SOL     OW16978   0.732   0.634   8.512
 1822SOL    HW116979   0.791   0.608   8.436
 1822SOL    HW216980   0.704   0.730   8.501
 1823SOL     OW16981   1.728   0.935   9.302
 1823SOL    HW116982   1.682   0.928   9.213
 1823SOL    HW216983   1.666   0.979   9.368
 1824SOL     OW16984   0.307   0.063   8.066
 1824SOL    HW116985   0.296   0.157   8.099
 1824SOL    HW216986   0.302   0.000   8.143
 1825SOL     OW16987   1.622   0.367   7.822
 1825SOL    HW116988   1.624   0.291   7.886
 1825SOL    HW216989   1.574   0.444   7.862
 1826SOL     OW16990   1.023   0.766   8.414
 1826SOL    HW116991   1.038   0.787   8.510
 1826SOL    HW216992   0.993   0.671   8.405
 1827SOL     OW16993   0.980   1.573   9.148
 1827SOL    HW116994   0.960   1.617   9.060
 1827SOL    HW216995   1.019   1.482   9.132
 1828SOL     OW16996   0.350   0.898   9.252
 1828SOL    HW116997   0.426   0.942   9.300
 1828SOL    HW216998   0.385   0.851   9.170
 1829SOL     OW16999   1.540   0.274   7.573
 1829SOL    HW117000   1.479   0.199   7.596
 1829SOL    HW217001   1.562   0.326   7.656
 1830SOL     OW17002   1.303   0.838   7.490
 1830SOL    HW117003   1.337   0.745   7.505
 1830SOL    HW217004   1.321   0.865   7.395
 1831SOL     OW17005   1.068   1.333   8.297
 1831SOL    HW117006   1.075   1.249   8.242
 1831SOL    HW217007   1.130   1.402   8.261
 1832SOL     OW17008   0.319   0.810   8.397
 1832SOL    HW117009   0.412   0.846   8.402
 1832SOL    HW217010   0.313   0.725   8.449
 1833SOL     OW17011   0.339   0.509   8.454
 1833SOL    HW117012   0.287   0.426   8.437
 1833SOL    HW217013   0.416   0.514   8.390
 1834SOL     OW17014   1.138   0.380   9.126
 1834SOL    HW117015   1.093   0.443   9.190
 1834SOL    HW217016   1.231   0.411   9.109
 1835SOL     OW17017   1.160   0.207   8.925
 1835SOL    HW117018   1.160   0.271   9.002
 1835SOL    HW217019   1.188   0.255   8.842
 1836SOL     OW17020   0.008   1.326   7.648
 1836SOL    HW117021  -0.085   1.347   7.617
 1836SOL    HW217022   0.018   1.227   7.661
 1837SOL     OW17023   0.088   1.801   8.375
 1837SOL    HW117024   0.046   1.715   8.348
 1837SOL    HW217025   0.182   1.804   8.341
 1838SOL     OW17026   0.504   1.568   8.358
 1838SOL    HW117027   0.570   1.642   8.367
 1838SOL    HW217028   0.548   1.489   8.316
 1839SOL     OW17029   1.002   0.796   8.686
 1839SOL    HW117030   1.043   0.764   8.772
 1839SOL    HW217031   0.906   0.769   8.683
 1840SOL     OW17032   0.040   0.544   8.562
 1840SOL    HW117033   0.125   0.511   8.521
 1840SOL    HW217034   0.053   0.559   8.660
 1841SOL     OW17035   0.189   0.520   9.170
 1841SOL    HW117036   0.248   0.480   9.100
 1841SOL    HW217037   0.131   0.591   9.129
 1842SOL     OW17038   1.369   0.950   9.108
 1842SOL    HW117039   1.408   1.039   9.128
 1842SOL    HW217040   1.379   0.930   9.011
 1843SOL     OW17041   0.815   0.572   7.773
 1843SOL    HW117042   0.822   0.483   7.727
 1843SOL    HW217043   0.721   0.606   7.765
 1844SOL     OW17044   1.657   0.604   8.654
 1844SOL    HW117045   1.619   0.535   8.716
 1844SOL    HW217046   1.739   0.568   8.610
 1845SOL     OW17047   0.252   1.564   9.192
 1845SOL    HW117048   0.222   1.621   9.268
 1845SOL    HW217049   0.245   1.467   9.218
 1846SOL     OW17050   0.671   0.464   8.717
 1846SOL    HW117051   0.637   0.375   8.687
 1846SOL    HW217052   0.697   0.518   8.637
 1847SOL     OW17053   0.930   1.678   8.913
 1847SOL    HW117054   0.906   1.660   8.818
 1847SOL    HW217055   0.960   1.772   8.923
 1848SOL     OW17056   0.473   0.500   7.639
 1848SOL    HW117057   0.534   0.580   7.643
 1848SOL    HW217058   0.378   0.531   7.646
 1849SOL     OW17059   0.159   1.137   8.914
 1849SOL    HW117060   0.181   1.076   8.990
 1849SOL    HW217061   0.169   1.088   8.828
 1850SOL     OW17062   1.347   1.059   8.682
 1850SOL    HW117063   1.371   0.996   8.608
 1850SOL    HW217064   1.257   1.099   8.664
 1851SOL     OW17065   1.302   0.855   7.757
 1851SOL    HW117066   1.216   0.824   7.799
 1851SOL    HW217067   1.298   0.841   7.658
 1852SOL     OW17068   1.759   1.747   8.602
 1852SOL    HW117069   1.820   1.777   8.529
 1852SOL    HW217070   1.721   1.658   8.580
 1853SOL     OW17071   1.252   1.731   8.576
 1853SOL    HW117072   1.336   1.736   8.522
 1853SOL    HW217073   1.229   1.635   8.594
 1854SOL     OW17074   0.083   1.258   8.470
 1854SOL    HW117075   0.078   1.257   8.570
 1854SOL    HW217076   0.000   1.217   8.432
 1855SOL     OW17077   0.688   1.662   9.164
 1855SOL    HW117078   0.632   1.743   9.173
 1855SOL    HW217079   0.740   1.666   9.078
 1856SOL     OW17080   1.726   0.135   7.971
 1856SOL    HW117081   1.799   0.118   7.904
 1856SOL    HW217082   1.695   0.048   8.009
 1857SOL     OW17083   1.388   1.573   7.925
 1857SOL    HW117084   1.455   1.585   7.851
 1857SOL    HW217085   1.348   1.662   7.948
 1858SOL     OW17086   0.130   1.794   9.299
 1858SOL    HW117087   0.089   1.720   9.352
 1858SOL    HW217088   0.194   1.845   9.357
 1859SOL     OW17089   1.280   0.927   8.120
 1859SOL    HW117090   1.340   0.846   8.122
 1859SOL    HW217091   1.320   0.996   8.060
 1860SOL     OW17092   0.830   1.273   8.870
 1860SOL    HW117093   0.825   1.306   8.965
 1860SOL    HW217094   0.744   1.292   8.824
 1861SOL     OW17095   0.672   1.616   7.602
 1861SOL    HW117096   0.681   1.626   7.503
 1861SOL    HW217097   0.632   1.527   7.623
 1862SOL     OW17098   1.650   1.720   8.842
 1862SOL    HW117099   1.703   1.730   8.758
 1862SOL    HW217100   1.623   1.810   8.876
 1863SOL     OW17101   1.841   0.175   8.411
 1863SOL    HW117102   1.880   0.090   8.375
 1863SOL    HW217103   1.743   0.177   8.392
 1864SOL     OW17104   0.263   0.326   8.168
 1864SOL    HW117105   0.184   0.377   8.134
 1864SOL    HW217106   0.254   0.311   8.266
 1865SOL     OW17107   1.194   1.612   7.479
 1865SOL    HW117108   1.200   1.519   7.516
 1865SOL    HW217109   1.135   1.612   7.399
 1866SOL     OW17110   0.822   1.002   8.820
 1866SOL    HW117111   0.862   1.001   8.728
 1866SOL    HW217112   0.832   1.094   8.860
 1867SOL     OW17113   0.916   0.910   7.739
 1867SOL    HW117114   0.979   0.948   7.671
 1867SOL    HW217115   0.956   0.827   7.778
 1868SOL     OW17116   1.504   1.607   7.492
 1868SOL    HW117117   1.412   1.644   7.499
 1868SOL    HW217118   1.542   1.627   7.402
 1869SOL     OW17119   0.372   1.288   8.938
 1869SOL    HW117120   0.359   1.381   8.904
 1869SOL    HW217121   0.288   1.236   8.925
 1870SOL     OW17122   1.614   1.292   8.737
 1870SOL    HW117123   1.674   1.295   8.817
 1870SOL    HW217124   1.539   1.356   8.750
 1871SOL     OW17125   1.039   1.098   8.144
 1871SOL    HW117126   0.969   1.051   8.198
 1871SOL    HW217127   1.098   1.030   8.101
 1872SOL     OW17128   1.014   0.236   8.419
 1872SOL    HW117129   1.006   0.200   8.326
 1872SOL    HW217130   1.012   0.160   8.484
 1873SOL     OW17131   0.590   1.487   7.939
 1873SOL    HW117132   0.632   1.429   7.869
 1873SOL    HW217133   0.546   1.566   7.895
 1874SOL     OW17134   0.255   1.348   7.738
 1874SOL    HW117135   0.159   1.349   7.711
 1874SOL    HW217136   0.267   1.401   7.822
 1875SOL     OW17137   0.105   1.013   9.174
 1875SOL    HW117138   0.028   0.980   9.228
 1875SOL    HW217139   0.190   0.983   9.216
 1876SOL     OW17140   0.672   0.203   8.937
 1876SOL    HW117141   0.762   0.187   8.897
 1876SOL    HW217142   0.680   0.208   9.036
 1877SOL     OW17143   0.075   0.345   7.481
 1877SOL    HW117144  -0.017   0.317   7.452
 1877SOL    HW217145   0.106   0.422   7.425
 1878SOL     OW17146   1.440   0.856   8.846
 1878SOL    HW117147   1.383   0.908   8.783
 1878SOL    HW217148   1.536   0.868   8.822
 1879SOL     OW17149   0.072   0.166   7.766
 1879SOL    HW117150   0.055   0.249   7.712
 1879SOL    HW217151   0.162   0.129   7.744
 1880SOL     OW17152   1.183   1.335   7.567
 1880SOL    HW117153   1.084   1.324   7.569
 1880SOL    HW217154   1.217   1.350   7.660
 1881SOL     OW17155   0.613   0.842   8.879
 1881SOL    HW117156   0.669   0.923   8.862
 1881SOL    HW217157   0.672   0.762   8.882
 1882SOL     OW17158   1.493   1.767   8.407
 1882SOL    HW117159   1.526   1.831   8.338
 1882SOL    HW217160   1.559   1.761   8.482
 1883SOL     OW17161   0.716   0.565   9.156
 1883SOL    HW117162   0.735   0.630   9.230
 1883SOL    HW217163   0.776   0.485   9.165
 1884SOL     OW17164   1.450   1.220   9.081
 1884SOL    HW117165   1.441   1.210   9.180
 1884SOL    HW217166   1.546   1.213   9.055
 1885SOL     OW17167   0.390   1.741   9.008
 1885SOL    HW117168   0.299   1.782   9.006
 1885SOL    HW217169   0.383   1.647   9.040
 1886SOL     OW17170   1.674   0.883   8.702
 1886SOL    HW117171   1.647   0.794   8.665
 1886SOL    HW217172   1.675   0.951   8.629
 1887SOL     OW17173   1.225   0.325   7.897
 1887SOL    HW117174   1.290   0.251   7.886
 1887SOL    HW217175   1.245   0.375   7.981
 1888SOL     OW17176   0.594   0.745   8.100
 1888SOL    HW117177   0.644   0.830   8.081
 1888SOL    HW217178   0.506   0.747   8.052
 1889SOL     OW17179   1.730   0.934   8.965
 1889SOL    HW117180   1.768   1.025   8.980
 1889SOL    HW217181   1.722   0.917   8.866
 1890SOL     OW17182   0.859   1.374   7.464
 1890SOL    HW117183   0.813   1.389   7.552
 1890SOL    HW217184   0.903   1.459   7.434
 1891SOL     OW17185   0.661   1.790   8.401
 1891SOL    HW117186   0.615   1.878   8.388
 1891SOL    HW217187   0.760   1.802   8.394
 1892SOL     OW17188   0.859   0.956   8.309
 1892SOL    HW117189   0.913   0.887   8.357
 1892SOL    HW217190   0.827   1.025   8.375
 1893SOL     OW17191   1.083   0.984   7.535
 1893SOL    HW117192   1.060   1.037   7.453
 1893SOL    HW217193   1.164   0.928   7.516
 1894SOL     OW17194   1.861   1.569   8.299
 1894SOL    HW117195   1.790   1.557   8.229
 1894SOL    HW217196   1.862   1.490   8.359
 1895SOL     OW17197   0.221   1.314   9.292
 1895SOL    HW117198   0.156   1.241   9.271
 1895SOL    HW217199   0.225   1.328   9.390
 1896SOL     OW17200   0.079   1.240   8.101
 1896SOL    HW117201   0.078   1.193   8.189
 1896SOL    HW217202   0.161   1.212   8.050
 1897SOL     OW17203   0.672   1.391   9.072
 1897SOL    HW117204   0.594   1.341   9.110
 1897SOL    HW217205   0.669   1.486   9.103
 1898SOL     OW17206   0.428   0.424   7.968
 1898SOL    HW117207   0.458   0.352   7.906
 1898SOL    HW217208   0.389   0.384   8.051
 1899SOL     OW17209   1.705   1.487   8.552
 1899SOL    HW117210   1.612   1.462   8.525
 1899SOL    HW217211   1.731   1.437   8.634
 1900SOL     OW17212   0.317   0.547   8.728
 1900SOL    HW117213   0.355   0.488   8.800
 1900SOL    HW217214   0.357   0.521   8.640
 1901SOL     OW17215   0.812   1.586   8.135
 1901SOL    HW117216   0.844   1.596   8.041
 1901SOL    HW217217   0.733   1.524   8.137
 1902SOL     OW17218   1.424   0.214   8.560
 1902SOL    HW117219   1.476   0.149   8.615
 1902SOL    HW217220   1.375   0.277   8.621
 1903SOL     OW17221   1.001   0.034   8.602
 1903SOL    HW117222   0.938  -0.038   8.571
 1903SOL    HW217223   1.094  -0.002   8.602
 1904SOL     OW17224   0.770   1.330   7.749
 1904SOL    HW117225   0.724   1.243   7.766
 1904SOL    HW217226   0.861   1.327   7.790
 1905SOL     OW17227   0.618   1.567   8.732
 1905SOL    HW117228   0.613   1.649   8.789
 1905SOL    HW217229   0.707   1.564   8.687
 1906SOL     OW17230   1.352   0.052   7.616
 1906SOL    HW117231   1.387   0.011   7.532
 1906SOL    HW217232   1.262   0.014   7.636
 1907SOL     OW17233   1.300   0.453   8.139
 1907SOL    HW117234   1.241   0.533   8.143
 1907SOL    HW217235   1.315   0.418   8.232
 1908SOL     OW17236   1.593   0.221   8.330
 1908SOL    HW117237   1.509   0.220   8.384
 1908SOL    HW217238   1.595   0.304   8.274
 1909SOL     OW17239   0.039   1.077   7.748
 1909SOL    HW117240   0.138   1.066   7.739
 1909SOL    HW217241  -0.001   0.991   7.780
 1910SOL     OW17242   0.875   1.646   7.785
 1910SOL    HW117243   0.798   1.611   7.731
 1910SOL    HW217244   0.843   1.717   7.847
 1911SOL     OW17245   0.230   0.628   9.423
 1911SOL    HW117246   0.137   0.626   9.460
 1911SOL    HW217247   0.231   0.589   9.331
 1912SOL     OW17248   0.225   0.275  10.306
 1912SOL    HW117249   0.260   0.258  10.398
 1912SOL    HW217250   0.137   0.230  10.294
 1913SOL     OW17251   0.019   0.368   9.957
 1913SOL    HW117252  -0.063   0.411   9.996
 1913SOL    HW217253  -0.009   0.295   9.894
 1914SOL     OW17254   0.569   1.275  10.475
 1914SOL    HW117255   0.476   1.268  10.438
 1914SOL    HW217256   0.580   1.364  10.519
 1915SOL     OW17257   1.135   0.703  10.027
 1915SOL    HW117258   1.192   0.781  10.002
 1915SOL    HW217259   1.075   0.729  10.103
 1916SOL     OW17260   1.755   0.607   9.541
 1916SOL    HW117261   1.743   0.594   9.442
 1916SOL    HW217262   1.725   0.526   9.590
 1917SOL     OW17263   0.768   1.144  10.333
 1917SOL    HW117264   0.690   1.161  10.393
 1917SOL    HW217265   0.802   1.231  10.297
 1918SOL     OW17266   0.685   1.012   9.975
 1918SOL    HW117267   0.754   0.996  10.045
 1918SOL    HW217268   0.612   1.069  10.013
 1919SOL     OW17269   0.686   1.161  11.113
 1919SOL    HW117270   0.746   1.240  11.127
 1919SOL    HW217271   0.600   1.192  11.072
 1920SOL     OW17272   0.231   1.713   9.793
 1920SOL    HW117273   0.265   1.790   9.847
 1920SOL    HW217274   0.275   1.713   9.703
 1921SOL     OW17275   0.230   1.434   9.848
 1921SOL    HW117276   0.204   1.530   9.848
 1921SOL    HW217277   0.159   1.380   9.893
 1922SOL     OW17278   0.240   1.091  10.196
 1922SOL    HW117279   0.254   1.007  10.248
 1922SOL    HW217280   0.185   1.155  10.251
 1923SOL     OW17281   0.606   0.964   9.433
 1923SOL    HW117282   0.613   1.048   9.379
 1923SOL    HW217283   0.652   0.977   9.521
 1924SOL     OW17284   1.594   0.114  10.790
 1924SOL    HW117285   1.576   0.181  10.718
 1924SOL    HW217286   1.591   0.160  10.879
 1925SOL     OW17287   0.122   0.643   9.873
 1925SOL    HW117288   0.077   0.555   9.890
 1925SOL    HW217289   0.121   0.697   9.957
 1926SOL     OW17290   0.027   1.596   9.427
 1926SOL    HW117291   0.008   1.500   9.448
 1926SOL    HW217292  -0.006   1.654   9.502
 1927SOL     OW17293   1.641   1.108   9.742
 1927SOL    HW117294   1.727   1.110   9.690
 1927SOL    HW217295   1.655   1.155   9.830
 1928SOL     OW17296   0.113   0.737  10.907
 1928SOL    HW117297   0.201   0.724  10.952
 1928SOL    HW217298   0.100   0.834  10.885
 1929SOL     OW17299   0.613   1.365  10.036
 1929SOL    HW117300   0.564   1.278  10.045
 1929SOL    HW217301   0.590   1.408   9.949
 1930SOL     OW17302   0.197   0.976  10.574
 1930SOL    HW117303   0.286   0.931  10.560
 1930SOL    HW217304   0.124   0.911  10.555
 1931SOL     OW17305   1.525   0.999   9.500
 1931SOL    HW117306   1.462   0.923   9.513
 1931SOL    HW217307   1.573   1.017   9.586
 1932SOL     OW17308   1.466   1.417  10.263
 1932SOL    HW117309   1.407   1.423  10.343
 1932SOL    HW217310   1.451   1.329  10.217
 1933SOL     OW17311   0.598   0.729   9.580
 1933SOL    HW117312   0.622   0.798   9.512
 1933SOL    HW217313   0.520   0.762   9.634
 1934SOL     OW17314   1.394   0.469  10.984
 1934SOL    HW117315   1.374   0.512  11.072
 1934SOL    HW217316   1.472   0.407  10.993
 1935SOL     OW17317   0.973   0.890  10.882
 1935SOL    HW117318   1.019   0.806  10.853
 1935SOL    HW217319   0.917   0.924  10.807
 1936SOL     OW17320   1.041   0.701   9.739
 1936SOL    HW117321   1.067   0.697   9.835
 1936SOL    HW217322   0.956   0.650   9.725
 1937SOL     OW17323   0.076   0.811  10.099
 1937SOL    HW117324   0.175   0.799  10.108
 1937SOL    HW217325   0.052   0.906  10.120
 1938SOL     OW17326   1.719   0.585  11.141
 1938SOL    HW117327   1.693   0.674  11.105
 1938SOL    HW217328   1.717   0.517  11.068
 1939SOL     OW17329   1.362   1.144   9.855
 1939SOL    HW117330   1.445   1.115   9.807
 1939SOL    HW217331   1.313   1.211   9.799
 1940SOL     OW17332   0.351   1.801  10.163
 1940SOL    HW117333   0.401   1.715  10.169
 1940SOL    HW217334   0.416   1.878  10.160
 1941SOL     OW17335   1.227   1.550  10.816
 1941SOL    HW117336   1.233   1.473  10.880
 1941SOL    HW217337   1.175   1.524  10.736
 1942SOL     OW17338   0.321   0.943   9.552
 1942SOL    HW117339   0.403   0.982   9.510
 1942SOL    HW217340   0.294   0.861   9.503
 1943SOL     OW17341   1.458   0.735  10.038
 1943SOL    HW117342   1.453   0.670  10.113
 1943SOL    HW217343   1.538   0.794  10.051
 1944SOL     OW17344   1.111   1.776   9.547
 1944SOL    HW117345   1.051   1.714   9.597
 1944SOL    HW217346   1.142   1.732   9.462
 1945SOL     OW17347   0.202   0.285  10.808
 1945SOL    HW117348   0.122   0.345  10.795
 1945SOL    HW217349   0.192   0.236  10.894
 1946SOL     OW17350   1.632   1.377   9.391
 1946SOL    HW117351   1.600   1.471   9.381
 1946SOL    HW217352   1.556   1.314   9.379
 1947SOL     OW17353   0.464   1.743   9.633
 1947SOL    HW117354   0.497   1.782   9.719
 1947SOL    HW217355   0.540   1.736   9.568
 1948SOL     OW17356   0.940   1.698  10.214
 1948SOL    HW117357   1.020   1.641  10.235
 1948SOL    HW217358   0.891   1.658  10.137
 1949SOL     OW17359   0.382   0.700   9.790
 1949SOL    HW117360   0.427   0.610   9.787
 1949SOL    HW217361   0.288   0.689   9.823
 1950SOL     OW17362   1.547   0.222  11.039
 1950SOL    HW117363   1.542   0.259  11.131
 1950SOL    HW217364   1.475   0.153  11.027
 1951SOL     OW17365   0.888   1.514  10.505
 1951SOL    HW117366   0.865   1.489  10.411
 1951SOL    HW217367   0.949   1.445  10.544
 1952SOL     OW17368   1.351   0.590  10.743
 1952SOL    HW117369   1.379   0.547  10.828
 1952SOL    HW217370   1.376   0.686  10.744
 1953SOL     OW17371   0.803   1.402  10.234
 1953SOL    HW117372   0.893   1.416  10.192
 1953SOL    HW217373   0.732   1.404  10.163
 1954SOL     OW17374   0.922   0.503  10.209
 1954SOL    HW117375   0.897   0.494  10.113
 1954SOL    HW217376   0.970   0.421  10.240
 1955SOL     OW17377   0.539   0.064   9.822
 1955SOL    HW117378   0.458   0.065   9.880
 1955SOL    HW217379   0.542   0.147   9.767
 1956SOL     OW17380   1.434   1.188   9.351
 1956SOL    HW117381   1.466   1.112   9.408
 1956SOL    HW217382   1.342   1.215   9.381
 1957SOL     OW17383   0.297   0.035   9.481
 1957SOL    HW117384   0.346   0.119   9.460
 1957SOL    HW217385   0.359  -0.030   9.526
 1958SOL     OW17386   0.459   1.152  10.051
 1958SOL    HW117387   0.388   1.125  10.116
 1958SOL    HW217388   0.433   1.124   9.958
 1959SOL     OW17389   1.032   0.549   9.326
 1959SOL    HW117390   0.991   0.631   9.287
 1959SOL    HW217391   1.096   0.575   9.399
 1960SOL     OW17392   0.078   0.556  10.696
 1960SOL    HW117393   0.170   0.555  10.655
 1960SOL    HW217394   0.072   0.630  10.763
 1961SOL     OW17395   0.866   0.454   9.952
 1961SOL    HW117396   0.834   0.526   9.890
 1961SOL    HW217397   0.890   0.373   9.899
 1962SOL     OW17398   1.017   0.039  10.063
 1962SOL    HW117399   0.945   0.044   9.994
 1962SOL    HW217400   0.993  -0.030  10.132
 1963SOL     OW17401   0.488   1.385   9.484
 1963SOL    HW117402   0.401   1.370   9.531
 1963SOL    HW217403   0.471   1.411   9.389
 1964SOL     OW17404   1.390   0.575   9.388
 1964SOL    HW117405   1.336   0.554   9.469
 1964SOL    HW217406   1.481   0.534   9.397
 1965SOL     OW17407   0.527   0.256   9.638
 1965SOL    HW117408   0.554   0.197   9.563
 1965SOL    HW217409   0.527   0.351   9.607
 1966SOL     OW17410   1.592   1.629  10.935
 1966SOL    HW117411   1.619   1.663  10.845
 1966SOL    HW217412   1.671   1.591  10.981
 1967SOL     OW17413   0.980   1.116  11.029
 1967SOL    HW117414   0.881   1.122  11.039
 1967SOL    HW217415   1.003   1.036  10.973
 1968SOL     OW17416   0.705   1.050   9.678
 1968SOL    HW117417   0.691   1.057   9.777
 1968SOL    HW217418   0.789   0.999   9.660
 1969SOL     OW17419   0.410   0.813  10.561
 1969SOL    HW117420   0.496   0.825  10.611
 1969SOL    HW217421   0.368   0.726  10.588
 1970SOL     OW17422   0.367   1.100   9.811
 1970SOL    HW117423   0.360   1.183   9.755
 1970SOL    HW217424   0.371   1.020   9.751
 1971SOL     OW17425   0.566   0.537  10.175
 1971SOL    HW117426   0.578   0.603  10.101
 1971SOL    HW217427   0.612   0.571  10.258
 1972SOL     OW17428   1.252   1.348   9.698
 1972SOL    HW117429   1.302   1.425   9.738
 1972SOL    HW217430   1.157   1.350   9.730
 1973SOL     OW17431   1.582   0.639   9.782
 1973SOL    HW117432   1.551   0.700   9.855
 1973SOL    HW217433   1.632   0.691   9.713
 1974SOL     OW17434   0.402   0.751  10.908
 1974SOL    HW117435   0.470   0.806  10.861
 1974SOL    HW217436   0.442   0.663  10.935
 1975SOL     OW17437   0.573   0.870  10.339
 1975SOL    HW117438   0.617   0.959  10.330
 1975SOL    HW217439   0.510   0.870  10.416
 1976SOL     OW17440   1.209   0.525   9.585
 1976SOL    HW117441   1.222   0.441   9.639
 1976SOL    HW217442   1.180   0.599   9.645
 1977SOL     OW17443   0.307   0.213  10.541
 1977SOL    HW117444   0.284   0.250  10.631
 1977SOL    HW217445   0.277   0.118  10.535
 1978SOL     OW17446   0.732   0.634  10.374
 1978SOL    HW117447   0.791   0.608  10.298
 1978SOL    HW217448   0.704   0.730  10.363
 1979SOL     OW17449   1.728   0.935  11.164
 1979SOL    HW117450   1.682   0.928  11.075
 1979SOL    HW217451   1.666   0.979  11.230
 1980SOL     OW17452   0.307   0.063   9.928
 1980SOL    HW117453   0.296   0.157   9.961
 1980SOL    HW217454   0.302   0.000  10.005
 1981SOL     OW17455   1.622   0.367   9.684
 1981SOL    HW117456   1.624   0.291   9.748
 1981SOL    HW217457   1.574   0.444   9.724
 1982SOL     OW17458   1.859   1.518  10.915
 1982SOL    HW117459   1.873   1.545  10.820
 1982SOL    HW217460   1.942   1.540  10.968
 1983SOL     OW17461   1.303   0.838   9.352
 1983SOL    HW117462   1.337   0.745   9.367
 1983SOL    HW217463   1.321   0.865   9.257
 1984SOL     OW17464   0.319   0.810  10.259
 1984SOL    HW117465   0.412   0.846  10.264
 1984SOL    HW217466   0.313   0.725  10.311
 1985SOL     OW17467   0.339   0.509  10.316
 1985SOL    HW117468   0.287   0.426  10.299
 1985SOL    HW217469   0.416   0.514  10.252
 1986SOL     OW17470   1.160   0.207  10.787
 1986SOL    HW117471   1.160   0.271  10.864
 1986SOL    HW217472   1.188   0.255  10.704
 1987SOL     OW17473   0.008   1.326   9.510
 1987SOL    HW117474  -0.085   1.347   9.479
 1987SOL    HW217475   0.018   1.227   9.523
 1988SOL     OW17476   0.504   1.568  10.220
 1988SOL    HW117477   0.570   1.642  10.229
 1988SOL    HW217478   0.548   1.489  10.178
 1989SOL     OW17479   0.040   0.544  10.424
 1989SOL    HW117480   0.125   0.511  10.383
 1989SOL    HW217481   0.053   0.559  10.522
 1990SOL     OW17482   0.189   0.520  11.032
 1990SOL    HW117483   0.248   0.480  10.962
 1990SOL    HW217484   0.131   0.591  10.991
 1991SOL     OW17485   0.815   0.572   9.635
 1991SOL    HW117486   0.822   0.483   9.589
 1991SOL    HW217487   0.721   0.606   9.627
 1992SOL     OW17488   1.657   0.604  10.516
 1992SOL    HW117489   1.619   0.535  10.578
 1992SOL    HW217490   1.739   0.568  10.472
 1993SOL     OW17491   0.671   0.464  10.579
 1993SOL    HW117492   0.637   0.375  10.549
 1993SOL    HW217493   0.697   0.518  10.499
 1994SOL     OW17494   0.930   1.678  10.775
 1994SOL    HW117495   0.906   1.660  10.680
 1994SOL    HW217496   0.960   1.772  10.785
 1995SOL     OW17497   0.473   0.500   9.501
 1995SOL    HW117498   0.534   0.580   9.505
 1995SOL    HW217499   0.378   0.531   9.508
 1996SOL     OW17500   1.302   0.855   9.619
 1996SOL    HW117501   1.216   0.824   9.661
 1996SOL    HW217502   1.298   0.841   9.520
 1997SOL     OW17503   1.252   1.731  10.438
 1997SOL    HW117504   1.336   1.736  10.384
 1997SOL    HW217505   1.229   1.635  10.456
 1998SOL     OW17506   0.083   1.258  10.332
 1998SOL    HW117507   0.078   1.257  10.432
 1998SOL    HW217508   0.000   1.217  10.294
 1999SOL     OW17509   0.688   1.662  11.026
 1999SOL    HW117510   0.632   1.743  11.035
 1999SOL    HW217511   0.740   1.666  10.940
 2000SOL     OW17512   0.130   1.794  11.161
 2000SOL    HW117513   0.089   1.720  11.214
 2000SOL    HW217514   0.194   1.845  11.219
 2001SOL     OW17515   1.280   0.927   9.982
 2001SOL    HW117516   1.340   0.846   9.984
 2001SOL    HW217517   1.320   0.996   9.922
 2002SOL     OW17518   0.830   1.273  10.732
 2002SOL    HW117519   0.825   1.306  10.827
 2002SOL    HW217520   0.744   1.292  10.686
 2003SOL     OW17521   0.672   1.616   9.464
 2003SOL    HW117522   0.681   1.626   9.365
 2003SOL    HW217523   0.632   1.527   9.485
 2004SOL     OW17524   1.650   1.720  10.704
 2004SOL    HW117525   1.703   1.730  10.620
 2004SOL    HW217526   1.623   1.810  10.738
 2005SOL     OW17527   0.263   0.326  10.030
 2005SOL    HW117528   0.184   0.377   9.996
 2005SOL    HW217529   0.254   0.311  10.128
 2006SOL     OW17530   1.194   1.612   9.341
 2006SOL    HW117531   1.200   1.519   9.378
 2006SOL    HW217532   1.135   1.612   9.261
 2007SOL     OW17533   0.822   1.002  10.682
 2007SOL    HW117534   0.862   1.001  10.590
 2007SOL    HW217535   0.832   1.094  10.722
 2008SOL     OW17536   0.916   0.910   9.601
 2008SOL    HW117537   0.979   0.948   9.533
 2008SOL    HW217538   0.956   0.827   9.640
 2009SOL     OW17539   1.504   1.607   9.354
 2009SOL    HW117540   1.412   1.644   9.361
 2009SOL    HW217541   1.542   1.627   9.264
 2010SOL     OW17542   1.014   0.236  10.281
 2010SOL    HW117543   1.006   0.200  10.188
 2010SOL    HW217544   1.012   0.160  10.346
 2011SOL     OW17545   0.590   1.487   9.801
 2011SOL    HW117546   0.632   1.429   9.731
 2011SOL    HW217547   0.546   1.566   9.757
 2012SOL     OW17548   1.709   0.385  10.691
 2012SOL    HW117549   1.782   0.454  10.695
 2012SOL    HW217550   1.737   0.310  10.632
 2013SOL     OW17551   0.255   1.348   9.600
 2013SOL    HW117552   0.159   1.349   9.573
 2013SOL    HW217553   0.267   1.401   9.684
 2014SOL     OW17554   0.672   0.203  10.799
 2014SOL    HW117555   0.762   0.187  10.759
 2014SOL    HW217556   0.680   0.208  10.898
 2015SOL     OW17557   0.075   0.345   9.343
 2015SOL    HW117558  -0.017   0.317   9.314
 2015SOL    HW217559   0.106   0.422   9.287
 2016SOL     OW17560   1.440   0.856  10.708
 2016SOL    HW117561   1.383   0.908  10.645
 2016SOL    HW217562   1.536   0.868  10.684
 2017SOL     OW17563   0.072   0.166   9.628
 2017SOL    HW117564   0.055   0.249   9.574
 2017SOL    HW217565   0.162   0.129   9.606
 2018SOL     OW17566   1.183   1.335   9.429
 2018SOL    HW117567   1.084   1.324   9.431
 2018SOL    HW217568   1.217   1.350   9.522
 2019SOL     OW17569   0.613   0.842  10.741
 2019SOL    HW117570   0.669   0.923  10.724
 2019SOL    HW217571   0.672   0.762  10.744
 2020SOL     OW17572   1.674   0.883  10.564
 2020SOL    HW117573   1.647   0.794  10.527
 2020SOL    HW217574   1.675   0.951  10.491
 2021SOL     OW17575   1.225   0.325   9.759
 2021SOL    HW117576   1.290   0.251   9.748
 2021SOL    HW217577   1.245   0.375   9.843
 2022SOL     OW17578   0.594   0.745   9.962
 2022SOL    HW117579   0.644   0.830   9.943
 2022SOL    HW217580   0.506   0.747   9.914
 2023SOL     OW17581   1.777   0.342  10.952
 2023SOL    HW117582   1.760   0.373  10.858
 2023SOL    HW217583   1.693   0.305  10.990
 2024SOL     OW17584   0.859   1.374   9.326
 2024SOL    HW117585   0.813   1.389   9.414
 2024SOL    HW217586   0.903   1.459   9.296
 2025SOL     OW17587   0.859   0.956  10.171
 2025SOL    HW117588   0.913   0.887  10.219
 2025SOL    HW217589   0.827   1.025  10.237
 2026SOL     OW17590   1.083   0.984   9.397
 2026SOL    HW117591   1.060   1.037   9.315
 2026SOL    HW217592   1.164   0.928   9.378
 2027SOL     OW17593   0.079   1.240   9.963
 2027SOL    HW117594   0.078   1.193  10.051
 2027SOL    HW217595   0.161   1.212   9.912
 2028SOL     OW17596   0.672   1.391  10.934
 2028SOL    HW117597   0.594   1.341  10.972
 2028SOL    HW217598   0.669   1.486  10.965
 2029SOL     OW17599   0.428   0.424   9.830
 2029SOL    HW117600   0.458   0.352   9.768
 2029SOL    HW217601   0.389   0.384   9.913
 2030SOL     OW17602   0.317   0.547  10.590
 2030SOL    HW117603   0.355   0.488  10.662
 2030SOL    HW217604   0.357   0.521  10.502
 2031SOL     OW17605   0.812   1.586   9.997
 2031SOL    HW117606   0.844   1.596   9.903
 2031SOL    HW217607   0.733   1.524   9.999
 2032SOL     OW17608   1.001   0.034  10.464
 2032SOL    HW117609   0.938  -0.038  10.433
 2032SOL    HW217610   1.094  -0.002  10.464
 2033SOL     OW17611   0.770   1.330   9.611
 2033SOL    HW117612   0.724   1.243   9.628
 2033SOL    HW217613   0.861   1.327   9.652
 2034SOL     OW17614   0.039   1.077   9.610
 2034SOL    HW117615   0.138   1.066   9.601
 2034SOL    HW217616  -0.001   0.991   9.642
 2035SOL     OW17617   0.875   1.646   9.647
 2035SOL    HW117618   0.798   1.611   9.593
 2035SOL    HW217619   0.843   1.717   9.709
 2036SOL     OW17620   0.019   0.368  11.819
 2036SOL    HW117621  -0.063   0.411  11.858
 2036SOL    HW217622  -0.009   0.295  11.756
 2037SOL     OW17623   0.850   0.798  12.995
 2037SOL    HW117624   0.846   0.874  13.060
 2037SOL    HW217625   0.872   0.834  12.904
 2038SOL     OW17626   1.460   1.505  12.511
 2038SOL    HW117627   1.484   1.599  12.537
 2038SOL    HW217628   1.444   1.451  12.593
 2039SOL     OW17629   0.438   0.392  12.671
 2039SOL    HW117630   0.520   0.336  12.680
 2039SOL    HW217631   0.357   0.334  12.675
 2040SOL     OW17632   0.606   0.964  11.295
 2040SOL    HW117633   0.613   1.048  11.241
 2040SOL    HW217634   0.652   0.977  11.383
 2041SOL     OW17635   1.594   0.114  12.652
 2041SOL    HW117636   1.576   0.181  12.580
 2041SOL    HW217637   1.591   0.160  12.741
 2042SOL     OW17638   1.842   1.767  11.531
 2042SOL    HW117639   1.896   1.738  11.611
 2042SOL    HW217640   1.872   1.857  11.502
 2043SOL     OW17641   1.187   1.792  12.788
 2043SOL    HW117642   1.211   1.852  12.712
 2043SOL    HW217643   1.194   1.697  12.758
 2044SOL     OW17644   0.317   0.251  12.973
 2044SOL    HW117645   0.388   0.322  12.979
 2044SOL    HW217646   0.229   0.290  13.001
 2045SOL     OW17647   0.807   0.605  12.637
 2045SOL    HW117648   0.760   0.602  12.726
 2045SOL    HW217649   0.756   0.550  12.571
 2046SOL     OW17650   1.394   0.469  12.846
 2046SOL    HW117651   1.374   0.512  12.934
 2046SOL    HW217652   1.472   0.407  12.855
 2047SOL     OW17653   0.973   0.890  12.744
 2047SOL    HW117654   1.019   0.806  12.715
 2047SOL    HW217655   0.917   0.924  12.669
 2048SOL     OW17656   0.991   0.410  12.414
 2048SOL    HW117657   0.914   0.444  12.468
 2048SOL    HW217658   0.957   0.359  12.335
 2049SOL     OW17659   1.041   0.701  11.601
 2049SOL    HW117660   1.067   0.697  11.697
 2049SOL    HW217661   0.956   0.650  11.587
 2050SOL     OW17662   0.351   1.801  12.025
 2050SOL    HW117663   0.401   1.715  12.031
 2050SOL    HW217664   0.416   1.878  12.022
 2051SOL     OW17665   1.227   1.550  12.678
 2051SOL    HW117666   1.233   1.473  12.742
 2051SOL    HW217667   1.175   1.524  12.598
 2052SOL     OW17668   0.249   1.785  12.413
 2052SOL    HW117669   0.306   1.720  12.463
 2052SOL    HW217670   0.233   1.752  12.320
 2053SOL     OW17671   0.781   0.264  12.921
 2053SOL    HW117672   0.848   0.203  12.964
 2053SOL    HW217673   0.708   0.283  12.986
 2054SOL     OW17674   0.888   1.514  12.367
 2054SOL    HW117675   0.865   1.489  12.273
 2054SOL    HW217676   0.949   1.445  12.406
 2055SOL     OW17677   1.351   0.590  12.605
 2055SOL    HW117678   1.379   0.547  12.690
 2055SOL    HW217679   1.376   0.686  12.606
 2056SOL     OW17680   1.754   1.223  12.760
 2056SOL    HW117681   1.845   1.184  12.747
 2056SOL    HW217682   1.762   1.319  12.784
 2057SOL     OW17683   1.592   1.629  12.797
 2057SOL    HW117684   1.619   1.663  12.707
 2057SOL    HW217685   1.671   1.591  12.843
 2058SOL     OW17686   0.064   1.564  12.503
 2058SOL    HW117687   0.018   1.646  12.469
 2058SOL    HW217688   0.162   1.583  12.512
 2059SOL     OW17689   0.573   0.870  12.201
 2059SOL    HW117690   0.617   0.959  12.192
 2059SOL    HW217691   0.510   0.870  12.278
 2060SOL     OW17692   0.732   0.634  12.236
 2060SOL    HW117693   0.791   0.608  12.160
 2060SOL    HW217694   0.704   0.730  12.225
 2061SOL     OW17695   1.540   0.274  11.297
 2061SOL    HW117696   1.479   0.199  11.320
 2061SOL    HW217697   1.562   0.326  11.380
 2062SOL     OW17698   0.319   0.810  12.121
 2062SOL    HW117699   0.412   0.846  12.126
 2062SOL    HW217700   0.313   0.725  12.173
 2063SOL     OW17701   0.339   0.509  12.178
 2063SOL    HW117702   0.287   0.426  12.161
 2063SOL    HW217703   0.416   0.514  12.114
 2064SOL     OW17704   0.088   1.801  12.099
 2064SOL    HW117705   0.046   1.715  12.072
 2064SOL    HW217706   0.182   1.804  12.065
 2065SOL     OW17707   1.002   0.796  12.410
 2065SOL    HW117708   1.043   0.764  12.496
 2065SOL    HW217709   0.906   0.769  12.407
 2066SOL     OW17710   0.040   0.544  12.286
 2066SOL    HW117711   0.125   0.511  12.245
 2066SOL    HW217712   0.053   0.559  12.384
 2067SOL     OW17713   0.252   1.564  12.916
 2067SOL    HW117714   0.222   1.621  12.992
 2067SOL    HW217715   0.245   1.467  12.942
 2068SOL     OW17716   0.671   0.464  12.441
 2068SOL    HW117717   0.637   0.375  12.411
 2068SOL    HW217718   0.697   0.518  12.361
 2069SOL     OW17719   1.759   1.747  12.326
 2069SOL    HW117720   1.820   1.777  12.253
 2069SOL    HW217721   1.721   1.658  12.304
 2070SOL     OW17722   1.252   1.731  12.300
 2070SOL    HW117723   1.336   1.736  12.246
 2070SOL    HW217724   1.229   1.635  12.318
 2071SOL     OW17725   1.650   1.720  12.566
 2071SOL    HW117726   1.703   1.730  12.482
 2071SOL    HW217727   1.623   1.810  12.600
 2072SOL     OW17728   1.841   0.175  12.135
 2072SOL    HW117729   1.880   0.090  12.099
 2072SOL    HW217730   1.743   0.177  12.116
 2073SOL     OW17731   1.039   1.098  11.868
 2073SOL    HW117732   0.969   1.051  11.922
 2073SOL    HW217733   1.098   1.030  11.825
 2074SOL     OW17734   1.709   0.385  12.553
 2074SOL    HW117735   1.782   0.454  12.557
 2074SOL    HW217736   1.737   0.310  12.494
 2075SOL     OW17737   0.672   0.203  12.661
 2075SOL    HW117738   0.762   0.187  12.621
 2075SOL    HW217739   0.680   0.208  12.760
 2076SOL     OW17740   0.613   0.842  12.603
 2076SOL    HW117741   0.669   0.923  12.586
 2076SOL    HW217742   0.672   0.762  12.606
 2077SOL     OW17743   1.493   1.767  12.131
 2077SOL    HW117744   1.526   1.831  12.062
 2077SOL    HW217745   1.559   1.761  12.206
 2078SOL     OW17746   0.716   0.565  12.880
 2078SOL    HW117747   0.735   0.630  12.954
 2078SOL    HW217748   0.776   0.485  12.889
 2079SOL     OW17749   1.450   1.220  12.805
 2079SOL    HW117750   1.441   1.210  12.904
 2079SOL    HW217751   1.546   1.213  12.779
 2080SOL     OW17752   0.390   1.741  12.732
 2080SOL    HW117753   0.299   1.782  12.730
 2080SOL    HW217754   0.383   1.647  12.764
 2081SOL     OW17755   1.777   0.342  12.814
 2081SOL    HW117756   1.760   0.373  12.720
 2081SOL    HW217757   1.693   0.305  12.852
 2082SOL     OW17758   1.730   0.934  12.689
 2082SOL    HW117759   1.768   1.025  12.704
 2082SOL    HW217760   1.722   0.917  12.590
 2083SOL     OW17761   0.661   1.790  12.125
 2083SOL    HW117762   0.615   1.878  12.112
 2083SOL    HW217763   0.760   1.802  12.118
 2084SOL     OW17764   0.079   1.240  11.825
 2084SOL    HW117765   0.078   1.193  11.913
 2084SOL    HW217766   0.161   1.212  11.774
 2085SOL     OW17767   1.824   0.192  12.399
 2085SOL    HW117768   1.820   0.102  12.443
 2085SOL    HW217769   1.827   0.181  12.300
 2086SOL     OW17770   0.317   0.547  12.452
 2086SOL    HW117771   0.355   0.488  12.524
 2086SOL    HW217772   0.357   0.521  12.364
 2087SOL     OW17773   1.001   0.034  12.326
 2087SOL    HW117774   0.938  -0.038  12.295
 2087SOL    HW217775   1.094  -0.002  12.326
 2088SOL     OW17776   1.352   0.052  11.340
 2088SOL    HW117777   1.387   0.011  11.256
 2088SOL    HW217778   1.262   0.014  11.360
 2089SOL     OW17779   0.230   0.628  13.147
 2089SOL    HW117780   0.137   0.626  13.184
 2089SOL    HW217781   0.231   0.589  13.055
 2090SOL     OW17782   0.569   1.275  14.199
 2090SOL    HW117783   0.476   1.268  14.162
 2090SOL    HW217784   0.580   1.364  14.243
 2091SOL     OW17785   1.603   0.447  13.771
 2091SOL    HW117786   1.529   0.493  13.721
 2091SOL    HW217787   1.654   0.515  13.824
 2092SOL     OW17788   0.240   1.091  13.920
 2092SOL    HW117789   0.254   1.007  13.972
 2092SOL    HW217790   0.185   1.155  13.975
 2093SOL     OW17791   0.197   0.976  14.298
 2093SOL    HW117792   0.286   0.931  14.284
 2093SOL    HW217793   0.124   0.911  14.279
 2094SOL     OW17794   1.466   1.417  13.987
 2094SOL    HW117795   1.407   1.423  14.067
 2094SOL    HW217796   1.451   1.329  13.941
 2095SOL     OW17797   0.991   0.410  14.276
 2095SOL    HW117798   0.914   0.444  14.330
 2095SOL    HW217799   0.957   0.359  14.197
 2096SOL     OW17800   1.041   0.701  13.463
 2096SOL    HW117801   1.067   0.697  13.559
 2096SOL    HW217802   0.956   0.650  13.449
 2097SOL     OW17803   0.865   0.348  13.229
 2097SOL    HW117804   0.924   0.411  13.180
 2097SOL    HW217805   0.884   0.254  13.200
 2098SOL     OW17806   1.362   1.144  13.579
 2098SOL    HW117807   1.445   1.115  13.531
 2098SOL    HW217808   1.313   1.211  13.523
 2099SOL     OW17809   0.550   0.196  13.919
 2099SOL    HW117810   0.545   0.191  14.019
 2099SOL    HW217811   0.552   0.292  13.890
 2100SOL     OW17812   1.795   1.066  13.907
 2100SOL    HW117813   1.733   1.051  13.831
 2100SOL    HW217814   1.743   1.077  13.992
 2101SOL     OW17815   0.321   0.943  13.276
 2101SOL    HW117816   0.403   0.982  13.234
 2101SOL    HW217817   0.294   0.861  13.227
 2102SOL     OW17818   1.458   0.735  13.762
 2102SOL    HW117819   1.453   0.670  13.837
 2102SOL    HW217820   1.538   0.794  13.775
 2103SOL     OW17821   0.940   1.698  13.938
 2103SOL    HW117822   1.020   1.641  13.959
 2103SOL    HW217823   0.891   1.658  13.861
 2104SOL     OW17824   0.382   0.700  13.514
 2104SOL    HW117825   0.427   0.610  13.511
 2104SOL    HW217826   0.288   0.689  13.547
 2105SOL     OW17827   1.547   0.222  14.763
 2105SOL    HW117828   1.542   0.259  14.855
 2105SOL    HW217829   1.475   0.153  14.751
 2106SOL     OW17830   0.888   1.514  14.229
 2106SOL    HW117831   0.865   1.489  14.135
 2106SOL    HW217832   0.949   1.445  14.268
 2107SOL     OW17833   0.803   1.402  13.958
 2107SOL    HW117834   0.893   1.416  13.916
 2107SOL    HW217835   0.732   1.404  13.887
 2108SOL     OW17836   0.922   0.503  13.933
 2108SOL    HW117837   0.897   0.494  13.837
 2108SOL    HW217838   0.970   0.421  13.964
 2109SOL     OW17839   0.539   0.064  13.546
 2109SOL    HW117840   0.458   0.065  13.604
 2109SOL    HW217841   0.542   0.147  13.491
 2110SOL     OW17842   1.434   1.188  13.075
 2110SOL    HW117843   1.466   1.112  13.132
 2110SOL    HW217844   1.342   1.215  13.105
 2111SOL     OW17845   1.227   1.570  13.827
 2111SOL    HW117846   1.248   1.644  13.762
 2111SOL    HW217847   1.295   1.570  13.900
 2112SOL     OW17848   1.271   1.797  13.625
 2112SOL    HW117849   1.315   1.861  13.561
 2112SOL    HW217850   1.221   1.849  13.695
 2113SOL     OW17851   0.561   0.222  14.181
 2113SOL    HW117852   0.599   0.138  14.218
 2113SOL    HW217853   0.473   0.241  14.225
 2114SOL     OW17854   0.866   0.454  13.676
 2114SOL    HW117855   0.834   0.526  13.614
 2114SOL    HW217856   0.890   0.373  13.623
 2115SOL     OW17857   1.429   1.173  13.901
 2115SOL    HW117858   1.374   1.089  13.894
 2115SOL    HW217859   1.455   1.202  13.809
 2116SOL     OW17860   1.466   0.590  14.026
 2116SOL    HW117861   1.436   0.495  14.033
 2116SOL    HW217862   1.539   0.606  14.092
 2117SOL     OW17863   1.664   1.280  13.691
 2117SOL    HW117864   1.763   1.288  13.705
 2117SOL    HW217865   1.619   1.364  13.722
 2118SOL     OW17866   0.527   0.256  13.362
 2118SOL    HW117867   0.554   0.197  13.287
 2118SOL    HW217868   0.527   0.351  13.331
 2119SOL     OW17869   1.754   1.223  14.622
 2119SOL    HW117870   1.845   1.184  14.609
 2119SOL    HW217871   1.762   1.319  14.646
 2120SOL     OW17872   1.064   1.347  14.374
 2120SOL    HW117873   0.984   1.324  14.429
 2120SOL    HW217874   1.147   1.321  14.423
 2121SOL     OW17875   1.111   1.195  14.134
 2121SOL    HW117876   1.071   1.239  14.215
 2121SOL    HW217877   1.070   1.232  14.051
 2122SOL     OW17878   1.638   1.099  14.113
 2122SOL    HW117879   1.643   1.180  14.172
 2122SOL    HW217880   1.552   1.101  14.062
 2123SOL     OW17881   1.274   0.386  14.296
 2123SOL    HW117882   1.295   0.460  14.360
 2123SOL    HW217883   1.185   0.403  14.253
 2124SOL     OW17884   0.064   1.564  14.365
 2124SOL    HW117885   0.018   1.646  14.331
 2124SOL    HW217886   0.162   1.583  14.374
 2125SOL     OW17887   1.360   0.862  14.079
 2125SOL    HW117888   1.285   0.862  14.013
 2125SOL    HW217889   1.397   0.770  14.088
 2126SOL     OW17890   0.037   1.310  14.316
 2126SOL    HW117891   0.090   1.261  14.384
 2126SOL    HW217892   0.059   1.408  14.321
 2127SOL     OW17893   0.307   0.063  13.652
 2127SOL    HW117894   0.296   0.157  13.685
 2127SOL    HW217895   0.302   0.000  13.729
 2128SOL     OW17896   1.622   0.367  13.408
 2128SOL    HW117897   1.624   0.291  13.472
 2128SOL    HW217898   1.574   0.444  13.448
 2129SOL     OW17899   0.980   1.573  14.734
 2129SOL    HW117900   0.960   1.617  14.646
 2129SOL    HW217901   1.019   1.482  14.718
 2130SOL     OW17902   1.859   1.518  14.639
 2130SOL    HW117903   1.873   1.545  14.544
 2130SOL    HW217904   1.942   1.540  14.692
 2131SOL     OW17905   0.339   0.509  14.040
 2131SOL    HW117906   0.287   0.426  14.023
 2131SOL    HW217907   0.416   0.514  13.976
 2132SOL     OW17908   0.008   1.326  13.234
 2132SOL    HW117909  -0.085   1.347  13.203
 2132SOL    HW217910   0.018   1.227  13.247
 2133SOL     OW17911   0.088   1.801  13.961
 2133SOL    HW117912   0.046   1.715  13.934
 2133SOL    HW217913   0.182   1.804  13.927
 2134SOL     OW17914   0.671   0.464  14.303
 2134SOL    HW117915   0.637   0.375  14.273
 2134SOL    HW217916   0.697   0.518  14.223
 2135SOL     OW17917   0.473   0.500  13.225
 2135SOL    HW117918   0.534   0.580  13.229
 2135SOL    HW217919   0.378   0.531  13.232
 2136SOL     OW17920   1.347   1.059  14.268
 2136SOL    HW117921   1.371   0.996  14.194
 2136SOL    HW217922   1.257   1.099  14.250
 2137SOL     OW17923   0.688   1.662  14.750
 2137SOL    HW117924   0.632   1.743  14.759
 2137SOL    HW217925   0.740   1.666  14.664
 2138SOL     OW17926   1.280   0.927  13.706
 2138SOL    HW117927   1.340   0.846  13.708
 2138SOL    HW217928   1.320   0.996  13.646
 2139SOL     OW17929   0.830   1.273  14.456
 2139SOL    HW117930   0.825   1.306  14.551
 2139SOL    HW217931   0.744   1.292  14.410
 2140SOL     OW17932   1.841   0.175  13.997
 2140SOL    HW117933   1.880   0.090  13.961
 2140SOL    HW217934   1.743   0.177  13.978
 2141SOL     OW17935   0.263   0.326  13.754
 2141SOL    HW117936   0.184   0.377  13.720
 2141SOL    HW217937   0.254   0.311  13.852
 2142SOL     OW17938   1.194   1.612  13.065
 2142SOL    HW117939   1.200   1.519  13.102
 2142SOL    HW217940   1.135   1.612  12.985
 2143SOL     OW17941   1.614   1.292  14.323
 2143SOL    HW117942   1.674   1.295  14.403
 2143SOL    HW217943   1.539   1.356  14.336
 2144SOL     OW17944   0.255   1.348  13.324
 2144SOL    HW117945   0.159   1.349  13.297
 2144SOL    HW217946   0.267   1.401  13.408
 2145SOL     OW17947   0.075   0.345  13.067
 2145SOL    HW117948  -0.017   0.317  13.038
 2145SOL    HW217949   0.106   0.422  13.011
 2146SOL     OW17950   1.440   0.856  14.432
 2146SOL    HW117951   1.383   0.908  14.369
 2146SOL    HW217952   1.536   0.868  14.408
 2147SOL     OW17953   1.493   1.767  13.993
 2147SOL    HW117954   1.526   1.831  13.924
 2147SOL    HW217955   1.559   1.761  14.068
 2148SOL     OW17956   0.859   1.374  13.050
 2148SOL    HW117957   0.813   1.389  13.138
 2148SOL    HW217958   0.903   1.459  13.020
 2149SOL     OW17959   0.221   1.314  14.878
 2149SOL    HW117960   0.156   1.241  14.857
 2149SOL    HW217961   0.225   1.328  14.976
 2150SOL     OW17962   0.428   0.424  13.554
 2150SOL    HW117963   0.458   0.352  13.492
 2150SOL    HW217964   0.389   0.384  13.637
 2151SOL     OW17965   0.812   1.586  13.721
 2151SOL    HW117966   0.844   1.596  13.627
 2151SOL    HW217967   0.733   1.524  13.723
 2152SOL     OW17968   1.300   0.453  13.725
 2152SOL    HW117969   1.241   0.533  13.729
 2152SOL    HW217970   1.315   0.418  13.818
 2153SOL     OW17971   0.039   1.077  13.334
 2153SOL    HW117972   0.138   1.066  13.325
 2153SOL    HW217973  -0.001   0.991  13.366
 2154SOL     OW17974   0.230   0.628  15.009
 2154SOL    HW117975   0.137   0.626  15.046
 2154SOL    HW217976   0.231   0.589  14.917
 2155SOL     OW17977   0.019   0.368  15.543
 2155SOL    HW117978  -0.063   0.411  15.582
 2155SOL    HW217979  -0.009   0.295  15.480
 2156SOL     OW17980   1.135   0.703  15.613
 2156SOL    HW117981   1.192   0.781  15.588
 2156SOL    HW217982   1.075   0.729  15.689
 2157SOL     OW17983   0.685   1.012  15.561
 2157SOL    HW117984   0.754   0.996  15.631
 2157SOL    HW217985   0.612   1.069  15.599
 2158SOL     OW17986   0.686   1.161  16.700
 2158SOL    HW117987   0.746   1.240  16.714
 2158SOL    HW217988   0.600   1.192  16.659
 2159SOL     OW17989   0.335   1.435  15.958
 2159SOL    HW117990   0.257   1.404  15.905
 2159SOL    HW217991   0.393   1.493  15.901
 2160SOL     OW17992   1.603   0.447  15.633
 2160SOL    HW117993   1.529   0.493  15.583
 2160SOL    HW217994   1.654   0.515  15.686
 2161SOL     OW17995   0.231   1.713  15.379
 2161SOL    HW117996   0.265   1.790  15.433
 2161SOL    HW217997   0.275   1.713  15.289
 2162SOL     OW17998   1.127   1.341  16.587
 2162SOL    HW117999   1.174   1.341  16.675
 2162SOL    HW218000   1.079   1.254  16.576
 2163SOL     OW18001   0.122   0.643  15.459
 2163SOL    HW118002   0.077   0.555  15.476
 2163SOL    HW218003   0.121   0.697  15.543
 2164SOL     OW18004   1.842   1.767  15.255
 2164SOL    HW118005   1.896   1.738  15.335
 2164SOL    HW218006   1.872   1.857  15.226
 2165SOL     OW18007   1.293   1.228  16.320
 2165SOL    HW118008   1.330   1.155  16.262
 2165SOL    HW218009   1.345   1.233  16.405
 2166SOL     OW18010   1.281   0.345  15.841
 2166SOL    HW118011   1.195   0.295  15.828
 2166SOL    HW218012   1.343   0.291  15.897
 2167SOL     OW18013   1.576   1.662  15.203
 2167SOL    HW118014   1.665   1.708  15.206
 2167SOL    HW218015   1.555   1.638  15.108
 2168SOL     OW18016   1.394   0.469  16.571
 2168SOL    HW118017   1.374   0.512  16.659
 2168SOL    HW218018   1.472   0.407  16.580
 2169SOL     OW18019   0.076   0.811  15.685
 2169SOL    HW118020   0.175   0.799  15.694
 2169SOL    HW218021   0.052   0.906  15.706
 2170SOL     OW18022   1.719   0.585  16.728
 2170SOL    HW118023   1.693   0.674  16.692
 2170SOL    HW218024   1.717   0.517  16.655
 2171SOL     OW18025   0.550   0.196  15.781
 2171SOL    HW118026   0.545   0.191  15.881
 2171SOL    HW218027   0.552   0.292  15.752
 2172SOL     OW18028   1.458   0.735  15.624
 2172SOL    HW118029   1.453   0.670  15.699
 2172SOL    HW218030   1.538   0.794  15.637
 2173SOL     OW18031   0.464   1.743  15.219
 2173SOL    HW118032   0.497   1.782  15.305
 2173SOL    HW218033   0.540   1.736  15.154
 2174SOL     OW18034   0.940   1.698  15.800
 2174SOL    HW118035   1.020   1.641  15.821
 2174SOL    HW218036   0.891   1.658  15.723
 2175SOL     OW18037   0.922   0.503  15.795
 2175SOL    HW118038   0.897   0.494  15.699
 2175SOL    HW218039   0.970   0.421  15.826
 2176SOL     OW18040   1.227   1.570  15.689
 2176SOL    HW118041   1.248   1.644  15.624
 2176SOL    HW218042   1.295   1.570  15.762
 2177SOL     OW18043   0.561   0.222  16.044
 2177SOL    HW118044   0.599   0.138  16.081
 2177SOL    HW218045   0.473   0.241  16.088
 2178SOL     OW18046   1.466   0.590  15.889
 2178SOL    HW118047   1.436   0.495  15.896
 2178SOL    HW218048   1.539   0.606  15.955
 2179SOL     OW18049   1.754   1.223  16.485
 2179SOL    HW118050   1.845   1.184  16.472
 2179SOL    HW218051   1.762   1.319  16.509
 2180SOL     OW18052   1.064   1.347  16.237
 2180SOL    HW118053   0.984   1.324  16.292
 2180SOL    HW218054   1.147   1.321  16.286
 2181SOL     OW18055   1.592   1.629  16.522
 2181SOL    HW118056   1.619   1.663  16.432
 2181SOL    HW218057   1.671   1.591  16.568
 2182SOL     OW18058   0.566   0.537  15.761
 2182SOL    HW118059   0.578   0.603  15.687
 2182SOL    HW218060   0.612   0.571  15.844
 2183SOL     OW18061   1.272   1.445  16.039
 2183SOL    HW118062   1.319   1.458  16.126
 2183SOL    HW218063   1.206   1.371  16.048
 2184SOL     OW18064   0.573   0.870  15.926
 2184SOL    HW118065   0.617   0.959  15.917
 2184SOL    HW218066   0.510   0.870  16.003
 2185SOL     OW18067   1.360   0.862  15.942
 2185SOL    HW118068   1.285   0.862  15.876
 2185SOL    HW218069   1.397   0.770  15.951
 2186SOL     OW18070   0.037   1.310  16.179
 2186SOL    HW118071   0.090   1.261  16.247
 2186SOL    HW218072   0.059   1.408  16.184
 2187SOL     OW18073   0.732   0.634  15.961
 2187SOL    HW118074   0.791   0.608  15.885
 2187SOL    HW218075   0.704   0.730  15.950
 2188SOL     OW18076   1.728   0.935  16.751
 2188SOL    HW118077   1.682   0.928  16.662
 2188SOL    HW218078   1.666   0.979  16.817
 2189SOL     OW18079   1.622   0.367  15.270
 2189SOL    HW118080   1.624   0.291  15.334
 2189SOL    HW218081   1.574   0.444  15.310
 2190SOL     OW18082   1.023   0.766  15.863
 2190SOL    HW118083   1.038   0.787  15.959
 2190SOL    HW218084   0.993   0.671  15.854
 2191SOL     OW18085   1.859   1.518  16.502
 2191SOL    HW118086   1.873   1.545  16.407
 2191SOL    HW218087   1.942   1.540  16.555
 2192SOL     OW18088   1.138   0.380  16.575
 2192SOL    HW118089   1.093   0.443  16.639
 2192SOL    HW218090   1.231   0.411  16.558
 2193SOL     OW18091   1.160   0.207  16.374
 2193SOL    HW118092   1.160   0.271  16.451
 2193SOL    HW218093   1.188   0.255  16.291
 2194SOL     OW18094   0.008   1.326  15.096
 2194SOL    HW118095  -0.085   1.347  15.065
 2194SOL    HW218096   0.018   1.227  15.109
 2195SOL     OW18097   0.504   1.568  15.806
 2195SOL    HW118098   0.570   1.642  15.815
 2195SOL    HW218099   0.548   1.489  15.764
 2196SOL     OW18100   1.002   0.796  16.135
 2196SOL    HW118101   1.043   0.764  16.221
 2196SOL    HW218102   0.906   0.769  16.132
 2197SOL     OW18103   1.369   0.950  16.557
 2197SOL    HW118104   1.408   1.039  16.577
 2197SOL    HW218105   1.379   0.930  16.460
 2198SOL     OW18106   0.671   0.464  16.166
 2198SOL    HW118107   0.637   0.375  16.136
 2198SOL    HW218108   0.697   0.518  16.086
 2199SOL     OW18109   1.347   1.059  16.131
 2199SOL    HW118110   1.371   0.996  16.057
 2199SOL    HW218111   1.257   1.099  16.113
 2200SOL     OW18112   1.726   0.135  15.419
 2200SOL    HW118113   1.799   0.118  15.352
 2200SOL    HW218114   1.695   0.048  15.457
 2201SOL     OW18115   1.280   0.927  15.568
 2201SOL    HW118116   1.340   0.846  15.570
 2201SOL    HW218117   1.320   0.996  15.508
 2202SOL     OW18118   1.841   0.175  15.860
 2202SOL    HW118119   1.880   0.090  15.824
 2202SOL    HW218120   1.743   0.177  15.841
 2203SOL     OW18121   0.255   1.348  15.186
 2203SOL    HW118122   0.159   1.349  15.159
 2203SOL    HW218123   0.267   1.401  15.270
 2204SOL     OW18124   1.440   0.856  16.295
 2204SOL    HW118125   1.383   0.908  16.232
 2204SOL    HW218126   1.536   0.868  16.271
 2205SOL     OW18127   0.072   0.166  15.214
 2205SOL    HW118128   0.055   0.249  15.160
 2205SOL    HW218129   0.162   0.129  15.192
 2206SOL     OW18130   1.450   1.220  16.530
 2206SOL    HW118131   1.441   1.210  16.629
 2206SOL    HW218132   1.546   1.213  16.504
 2207SOL     OW18133   1.777   0.342  16.539
 2207SOL    HW118134   1.760   0.373  16.445
 2207SOL    HW218135   1.693   0.305  16.577
 2208SOL     OW18136   0.859   1.374  14.912
 2208SOL    HW118137   0.813   1.389  15.000
 2208SOL    HW218138   0.903   1.459  14.882
 2209SOL     OW18139   0.859   0.956  15.757
 2209SOL    HW118140   0.913   0.887  15.805
 2209SOL    HW218141   0.827   1.025  15.823
 2210SOL     OW18142   1.824   0.192  16.124
 2210SOL    HW118143   1.820   0.102  16.168
 2210SOL    HW218144   1.827   0.181  16.025
 2211SOL     OW18145   1.424   0.214  16.009
 2211SOL    HW118146   1.476   0.149  16.064
 2211SOL    HW218147   1.375   0.277  16.070
 2212SOL     OW18148   1.593   0.221  15.778
 2212SOL    HW118149   1.509   0.220  15.832
 2212SOL    HW218150   1.595   0.304  15.722
 2213SOL     OW18151   0.230   0.628  16.872
 2213SOL    HW118152   0.137   0.626  16.909
 2213SOL    HW218153   0.231   0.589  16.780
 2214SOL     OW18154   0.225   0.275  17.755
 2214SOL    HW118155   0.260   0.258  17.847
 2214SOL    HW218156   0.137   0.230  17.743
 2215SOL     OW18157   1.555   1.511  17.462
 2215SOL    HW118158   1.498   1.495  17.543
 2215SOL    HW218159   1.496   1.521  17.382
 2216SOL     OW18160   1.135   0.703  17.476
 2216SOL    HW118161   1.192   0.781  17.451
 2216SOL    HW218162   1.075   0.729  17.552
 2217SOL     OW18163   0.240   1.091  17.645
 2217SOL    HW118164   0.254   1.007  17.697
 2217SOL    HW218165   0.185   1.155  17.700
 2218SOL     OW18166   1.842   1.767  17.118
 2218SOL    HW118167   1.896   1.738  17.198
 2218SOL    HW218168   1.872   1.857  17.089
 2219SOL     OW18169   1.689   0.922  17.371
 2219SOL    HW118170   1.784   0.893  17.379
 2219SOL    HW218171   1.681   0.987  17.296
 2220SOL     OW18172   1.525   0.999  16.949
 2220SOL    HW118173   1.462   0.923  16.962
 2220SOL    HW218174   1.573   1.017  17.035
 2221SOL     OW18175   1.667   1.714  17.331
 2221SOL    HW118176   1.626   1.691  17.243
 2221SOL    HW218177   1.649   1.640  17.396
 2222SOL     OW18178   1.281   0.345  17.703
 2222SOL    HW118179   1.195   0.295  17.690
 2222SOL    HW218180   1.343   0.291  17.759
 2223SOL     OW18181   1.041   0.701  17.188
 2223SOL    HW118182   1.067   0.697  17.284
 2223SOL    HW218183   0.956   0.650  17.174
 2224SOL     OW18184   1.362   1.144  17.304
 2224SOL    HW118185   1.445   1.115  17.256
 2224SOL    HW218186   1.313   1.211  17.248
 2225SOL     OW18187   1.008   1.456  17.236
 2225SOL    HW118188   0.962   1.528  17.184
 2225SOL    HW218189   1.004   1.476  17.334
 2226SOL     OW18190   1.795   1.066  17.632
 2226SOL    HW118191   1.733   1.051  17.556
 2226SOL    HW218192   1.743   1.077  17.717
 2227SOL     OW18193   0.321   0.943  17.001
 2227SOL    HW118194   0.403   0.982  16.959
 2227SOL    HW218195   0.294   0.861  16.952
 2228SOL     OW18196   1.111   1.776  16.996
 2228SOL    HW118197   1.051   1.714  17.046
 2228SOL    HW218198   1.142   1.732  16.911
 2229SOL     OW18199   0.464   1.743  17.082
 2229SOL    HW118200   0.497   1.782  17.168
 2229SOL    HW218201   0.540   1.736  17.017
 2230SOL     OW18202   0.922   0.503  17.658
 2230SOL    HW118203   0.897   0.494  17.562
 2230SOL    HW218204   0.970   0.421  17.689
 2231SOL     OW18205   1.434   1.188  16.800
 2231SOL    HW118206   1.466   1.112  16.857
 2231SOL    HW218207   1.342   1.215  16.830
 2232SOL     OW18208   1.271   1.797  17.350
 2232SOL    HW118209   1.315   1.861  17.286
 2232SOL    HW218210   1.221   1.849  17.420
 2233SOL     OW18211   0.866   0.454  17.401
 2233SOL    HW118212   0.834   0.526  17.339
 2233SOL    HW218213   0.890   0.373  17.348
 2234SOL     OW18214   1.466   0.590  17.751
 2234SOL    HW118215   1.436   0.495  17.758
 2234SOL    HW218216   1.539   0.606  17.817
 2235SOL     OW18217   1.857   0.833  17.136
 2235SOL    HW118218   1.899   0.769  17.200
 2235SOL    HW218219   1.819   0.782  17.058
 2236SOL     OW18220   0.488   1.385  16.933
 2236SOL    HW118221   0.401   1.370  16.980
 2236SOL    HW218222   0.471   1.411  16.838
 2237SOL     OW18223   1.390   0.575  16.837
 2237SOL    HW118224   1.336   0.554  16.918
 2237SOL    HW218225   1.481   0.534  16.846
 2238SOL     OW18226   0.527   0.256  17.087
 2238SOL    HW118227   0.554   0.197  17.012
 2238SOL    HW218228   0.527   0.351  17.056
 2239SOL     OW18229   1.111   1.195  17.859
 2239SOL    HW118230   1.071   1.239  17.940
 2239SOL    HW218231   1.070   1.232  17.776
 2240SOL     OW18232   1.638   1.099  17.838
 2240SOL    HW118233   1.643   1.180  17.897
 2240SOL    HW218234   1.552   1.101  17.787
 2241SOL     OW18235   1.272   1.445  17.901
 2241SOL    HW118236   1.319   1.458  17.988
 2241SOL    HW218237   1.206   1.371  17.910
 2242SOL     OW18238   1.023   0.766  17.725
 2242SOL    HW118239   1.038   0.787  17.821
 2242SOL    HW218240   0.993   0.671  17.716
 2243SOL     OW18241   1.303   0.838  16.801
 2243SOL    HW118242   1.337   0.745  16.816
 2243SOL    HW218243   1.321   0.865  16.706
 2244SOL     OW18244   0.319   0.810  17.708
 2244SOL    HW118245   0.412   0.846  17.713
 2244SOL    HW218246   0.313   0.725  17.760
 2245SOL     OW18247   0.339   0.509  17.765
 2245SOL    HW118248   0.287   0.426  17.748
 2245SOL    HW218249   0.416   0.514  17.701
 2246SOL     OW18250   0.008   1.326  16.959
 2246SOL    HW118251  -0.085   1.347  16.928
 2246SOL    HW218252   0.018   1.227  16.972
 2247SOL     OW18253   0.040   0.544  17.873
 2247SOL    HW118254   0.125   0.511  17.832
 2247SOL    HW218255   0.053   0.559  17.971
 2248SOL     OW18256   0.815   0.572  17.084
 2248SOL    HW118257   0.822   0.483  17.038
 2248SOL    HW218258   0.721   0.606  17.076
 2249SOL     OW18259   1.657   0.604  17.965
 2249SOL    HW118260   1.619   0.535  18.027
 2249SOL    HW218261   1.739   0.568  17.921
 2250SOL     OW18262   0.671   0.464  18.028
 2250SOL    HW118263   0.637   0.375  17.998
 2250SOL    HW218264   0.697   0.518  17.948
 2251SOL     OW18265   0.473   0.500  16.950
 2251SOL    HW118266   0.534   0.580  16.954
 2251SOL    HW218267   0.378   0.531  16.957
 2252SOL     OW18268   1.302   0.855  17.068
 2252SOL    HW118269   1.216   0.824  17.110
 2252SOL    HW218270   1.298   0.841  16.969
 2253SOL     OW18271   0.083   1.258  17.781
 2253SOL    HW118272   0.078   1.257  17.881
 2253SOL    HW218273   0.000   1.217  17.743
 2254SOL     OW18274   1.280   0.927  17.431
 2254SOL    HW118275   1.340   0.846  17.433
 2254SOL    HW218276   1.320   0.996  17.371
 2255SOL     OW18277   0.672   1.616  16.913
 2255SOL    HW118278   0.681   1.626  16.814
 2255SOL    HW218279   0.632   1.527  16.934
 2256SOL     OW18280   0.263   0.326  17.479
 2256SOL    HW118281   0.184   0.377  17.445
 2256SOL    HW218282   0.254   0.311  17.577
 2257SOL     OW18283   1.039   1.098  17.455
 2257SOL    HW118284   0.969   1.051  17.509
 2257SOL    HW218285   1.098   1.030  17.412
 2258SOL     OW18286   1.014   0.236  17.730
 2258SOL    HW118287   1.006   0.200  17.637
 2258SOL    HW218288   1.012   0.160  17.795
 2259SOL     OW18289   0.255   1.348  17.049
 2259SOL    HW118290   0.159   1.349  17.022
 2259SOL    HW218291   0.267   1.401  17.133
 2260SOL     OW18292   0.072   0.166  17.077
 2260SOL    HW118293   0.055   0.249  17.023
 2260SOL    HW218294   0.162   0.129  17.055
 2261SOL     OW18295   1.183   1.335  16.878
 2261SOL    HW118296   1.084   1.324  16.880
 2261SOL    HW218297   1.217   1.350  16.971
 2262SOL     OW18298   0.859   1.374  16.775
 2262SOL    HW118299   0.813   1.389  16.863
 2262SOL    HW218300   0.903   1.459  16.745
 2263SOL     OW18301   1.861   1.569  17.610
 2263SOL    HW118302   1.790   1.557  17.540
 2263SOL    HW218303   1.862   1.490  17.670
 2264SOL     OW18304   0.428   0.424  17.279
 2264SOL    HW118305   0.458   0.352  17.217
 2264SOL    HW218306   0.389   0.384  17.362
 2265SOL     OW18307   1.424   0.214  17.871
 2265SOL    HW118308   1.476   0.149  17.926
 2265SOL    HW218309   1.375   0.277  17.932
 2266SOL     OW18310   1.352   0.052  16.927
 2266SOL    HW118311   1.387   0.011  16.843
 2266SOL    HW218312   1.262   0.014  16.947
 2267SOL     OW18313   1.300   0.453  17.450
 2267SOL    HW118314   1.241   0.533  17.454
 2267SOL    HW218315   1.315   0.418  17.543
 2268SOL     OW18316   0.039   1.077  17.059
 2268SOL    HW118317   0.138   1.066  17.050
 2268SOL    HW218318  -0.001   0.991  17.091
 2269SOL     OW18319   0.875   1.646  17.096
 2269SOL    HW118320   0.798   1.611  17.042
 2269SOL    HW218321   0.843   1.717  17.158
 2270SOL     OW18322   1.555   3.373   0.703
 2270SOL    HW118323   1.498   3.357   0.784
 2270SOL    HW218324   1.496   3.383   0.623
 2271SOL     OW18325   1.135   2.565   0.717
 2271SOL    HW118326   1.192   2.643   0.692
 2271SOL    HW218327   1.075   2.591   0.793
 2272SOL     OW18328   0.850   2.660   1.823
 2272SOL    HW118329   0.846   2.736   1.888
 2272SOL    HW218330   0.872   2.696   1.732
 2273SOL     OW18331   0.686   3.023   1.803
 2273SOL    HW118332   0.746   3.102   1.817
 2273SOL    HW218333   0.600   3.054   1.762
 2274SOL     OW18334   1.460   3.367   1.339
 2274SOL    HW118335   1.484   3.461   1.365
 2274SOL    HW218336   1.444   3.313   1.421
 2275SOL     OW18337   1.603   2.309   0.737
 2275SOL    HW118338   1.529   2.355   0.687
 2275SOL    HW218339   1.654   2.377   0.790
 2276SOL     OW18340   0.231   3.575   0.483
 2276SOL    HW118341   0.265   3.652   0.537
 2276SOL    HW218342   0.275   3.575   0.393
 2277SOL     OW18343   1.127   3.203   1.690
 2277SOL    HW118344   1.174   3.203   1.778
 2277SOL    HW218345   1.079   3.116   1.679
 2278SOL     OW18346   0.230   3.296   0.538
 2278SOL    HW118347   0.204   3.392   0.538
 2278SOL    HW218348   0.159   3.242   0.583
 2279SOL     OW18349   0.620   3.648   1.439
 2279SOL    HW118350   0.528   3.631   1.474
 2279SOL    HW218351   0.648   3.740   1.465
 2280SOL     OW18352   1.594   1.976   1.480
 2280SOL    HW118353   1.576   2.043   1.408
 2280SOL    HW218354   1.591   2.022   1.569
 2281SOL     OW18355   1.842   3.629   0.359
 2281SOL    HW118356   1.896   3.600   0.439
 2281SOL    HW218357   1.872   3.719   0.330
 2282SOL     OW18358   0.113   2.599   1.597
 2282SOL    HW118359   0.201   2.586   1.642
 2282SOL    HW218360   0.100   2.696   1.575
 2283SOL     OW18361   0.613   3.227   0.726
 2283SOL    HW118362   0.564   3.140   0.735
 2283SOL    HW218363   0.590   3.270   0.639
 2284SOL     OW18364   1.187   3.654   1.616
 2284SOL    HW118365   1.211   3.714   1.540
 2284SOL    HW218366   1.194   3.559   1.586
 2285SOL     OW18367   0.317   2.113   1.801
 2285SOL    HW118368   0.388   2.184   1.807
 2285SOL    HW218369   0.229   2.152   1.829
 2286SOL     OW18370   1.667   3.576   0.572
 2286SOL    HW118371   1.626   3.553   0.484
 2286SOL    HW218372   1.649   3.502   0.637
 2287SOL     OW18373   1.281   2.207   0.944
 2287SOL    HW118374   1.195   2.157   0.931
 2287SOL    HW218375   1.343   2.153   1.000
 2288SOL     OW18376   1.576   3.524   0.307
 2288SOL    HW118377   1.665   3.570   0.310
 2288SOL    HW218378   1.555   3.500   0.212
 2289SOL     OW18379   0.807   2.467   1.465
 2289SOL    HW118380   0.760   2.464   1.554
 2289SOL    HW218381   0.756   2.412   1.399
 2290SOL     OW18382   0.973   2.752   1.572
 2290SOL    HW118383   1.019   2.668   1.543
 2290SOL    HW218384   0.917   2.786   1.497
 2291SOL     OW18385   1.041   2.563   0.429
 2291SOL    HW118386   1.067   2.559   0.525
 2291SOL    HW218387   0.956   2.512   0.415
 2292SOL     OW18388   0.130   3.683   1.571
 2292SOL    HW118389   0.120   3.668   1.670
 2292SOL    HW218390   0.044   3.719   1.535
 2293SOL     OW18391   0.865   2.210   0.195
 2293SOL    HW118392   0.924   2.273   0.146
 2293SOL    HW218393   0.884   2.116   0.166
 2294SOL     OW18394   1.719   2.447   1.831
 2294SOL    HW118395   1.693   2.536   1.795
 2294SOL    HW218396   1.717   2.379   1.758
 2295SOL     OW18397   1.362   3.006   0.545
 2295SOL    HW118398   1.445   2.977   0.497
 2295SOL    HW218399   1.313   3.073   0.489
 2296SOL     OW18400   1.008   3.318   0.477
 2296SOL    HW118401   0.962   3.390   0.425
 2296SOL    HW218402   1.004   3.338   0.575
 2297SOL     OW18403   1.227   3.412   1.506
 2297SOL    HW118404   1.233   3.335   1.570
 2297SOL    HW218405   1.175   3.386   1.426
 2298SOL     OW18406   1.458   2.597   0.728
 2298SOL    HW118407   1.453   2.532   0.803
 2298SOL    HW218408   1.538   2.656   0.741
 2299SOL     OW18409   0.461   3.128   1.727
 2299SOL    HW118410   0.411   3.129   1.641
 2299SOL    HW218411   0.398   3.110   1.803
 2300SOL     OW18412   1.111   3.638   0.237
 2300SOL    HW118413   1.051   3.576   0.287
 2300SOL    HW218414   1.142   3.594   0.152
 2301SOL     OW18415   0.464   3.605   0.323
 2301SOL    HW118416   0.497   3.644   0.409
 2301SOL    HW218417   0.540   3.598   0.258
 2302SOL     OW18418   0.249   3.647   1.241
 2302SOL    HW118419   0.306   3.582   1.291
 2302SOL    HW218420   0.233   3.614   1.148
 2303SOL     OW18421   0.940   3.560   0.904
 2303SOL    HW118422   1.020   3.503   0.925
 2303SOL    HW218423   0.891   3.520   0.827
 2304SOL     OW18424   1.547   2.084   1.729
 2304SOL    HW118425   1.542   2.121   1.821
 2304SOL    HW218426   1.475   2.015   1.717
 2305SOL     OW18427   0.614   1.984   0.117
 2305SOL    HW118428   0.712   1.962   0.124
 2305SOL    HW218429   0.583   1.967   0.024
 2306SOL     OW18430   0.781   2.126   1.749
 2306SOL    HW118431   0.848   2.065   1.792
 2306SOL    HW218432   0.708   2.145   1.814
 2307SOL     OW18433   0.803   3.264   0.924
 2307SOL    HW118434   0.893   3.278   0.882
 2307SOL    HW218435   0.732   3.266   0.853
 2308SOL     OW18436   0.922   2.365   0.899
 2308SOL    HW118437   0.897   2.356   0.803
 2308SOL    HW218438   0.970   2.283   0.930
 2309SOL     OW18439   0.539   1.926   0.512
 2309SOL    HW118440   0.458   1.927   0.570
 2309SOL    HW218441   0.542   2.009   0.457
 2310SOL     OW18442   1.271   3.659   0.591
 2310SOL    HW118443   1.315   3.723   0.527
 2310SOL    HW218444   1.221   3.711   0.661
 2311SOL     OW18445   1.032   2.411   0.016
 2311SOL    HW118446   0.991   2.493  -0.023
 2311SOL    HW218447   1.096   2.437   0.089
 2312SOL     OW18448   0.078   2.418   1.386
 2312SOL    HW118449   0.170   2.417   1.345
 2312SOL    HW218450   0.072   2.492   1.453
 2313SOL     OW18451   0.866   2.316   0.642
 2313SOL    HW118452   0.834   2.388   0.580
 2313SOL    HW218453   0.890   2.235   0.589
 2314SOL     OW18454   1.466   2.452   0.992
 2314SOL    HW118455   1.436   2.357   0.999
 2314SOL    HW218456   1.539   2.468   1.058
 2315SOL     OW18457   1.664   3.142   0.657
 2315SOL    HW118458   1.763   3.150   0.671
 2315SOL    HW218459   1.619   3.226   0.688
 2316SOL     OW18460   0.527   2.118   0.328
 2316SOL    HW118461   0.554   2.059   0.253
 2316SOL    HW218462   0.527   2.213   0.297
 2317SOL     OW18463   1.754   3.085   1.588
 2317SOL    HW118464   1.845   3.046   1.575
 2317SOL    HW218465   1.762   3.181   1.612
 2318SOL     OW18466   1.064   3.209   1.340
 2318SOL    HW118467   0.984   3.186   1.395
 2318SOL    HW218468   1.147   3.183   1.389
 2319SOL     OW18469   1.592   3.491   1.625
 2319SOL    HW118470   1.619   3.525   1.535
 2319SOL    HW218471   1.671   3.453   1.671
 2320SOL     OW18472   1.111   3.057   1.100
 2320SOL    HW118473   1.071   3.101   1.181
 2320SOL    HW218474   1.070   3.094   1.017
 2321SOL     OW18475   0.915   1.951   1.402
 2321SOL    HW118476   0.940   1.931   1.307
 2321SOL    HW218477   0.987   2.007   1.444
 2322SOL     OW18478   0.980   2.978   1.719
 2322SOL    HW118479   0.881   2.984   1.729
 2322SOL    HW218480   1.003   2.898   1.663
 2323SOL     OW18481   0.410   2.675   1.251
 2323SOL    HW118482   0.496   2.687   1.301
 2323SOL    HW218483   0.368   2.588   1.278
 2324SOL     OW18484   1.274   2.248   1.262
 2324SOL    HW118485   1.295   2.322   1.326
 2324SOL    HW218486   1.185   2.265   1.219
 2325SOL     OW18487   0.367   2.962   0.501
 2325SOL    HW118488   0.360   3.045   0.445
 2325SOL    HW218489   0.371   2.882   0.441
 2326SOL     OW18490   1.252   3.210   0.388
 2326SOL    HW118491   1.302   3.287   0.428
 2326SOL    HW218492   1.157   3.212   0.420
 2327SOL     OW18493   1.582   2.501   0.472
 2327SOL    HW118494   1.551   2.562   0.545
 2327SOL    HW218495   1.632   2.553   0.403
 2328SOL     OW18496   0.402   2.613   1.598
 2328SOL    HW118497   0.470   2.668   1.551
 2328SOL    HW218498   0.442   2.525   1.625
 2329SOL     OW18499   1.013   1.967   1.770
 2329SOL    HW118500   1.019   2.052   1.718
 2329SOL    HW218501   1.045   1.891   1.713
 2330SOL     OW18502   0.504   1.912   1.740
 2330SOL    HW118503   0.462   1.855   1.670
 2330SOL    HW218504   0.438   1.981   1.772
 2331SOL     OW18505   1.360   2.724   1.045
 2331SOL    HW118506   1.285   2.724   0.979
 2331SOL    HW218507   1.397   2.632   1.054
 2332SOL     OW18508   1.728   2.797   1.854
 2332SOL    HW118509   1.682   2.790   1.765
 2332SOL    HW218510   1.666   2.841   1.920
 2333SOL     OW18511   0.980   3.435   1.700
 2333SOL    HW118512   0.960   3.479   1.612
 2333SOL    HW218513   1.019   3.344   1.684
 2334SOL     OW18514   1.859   3.380   1.605
 2334SOL    HW118515   1.873   3.407   1.510
 2334SOL    HW218516   1.942   3.402   1.658
 2335SOL     OW18517   0.350   2.760   1.804
 2335SOL    HW118518   0.426   2.804   1.852
 2335SOL    HW218519   0.385   2.713   1.722
 2336SOL     OW18520   1.303   2.700   0.042
 2336SOL    HW118521   1.337   2.607   0.057
 2336SOL    HW218522   1.321   2.727  -0.053
 2337SOL     OW18523   1.068   3.195   0.849
 2337SOL    HW118524   1.075   3.111   0.794
 2337SOL    HW218525   1.130   3.264   0.813
 2338SOL     OW18526   1.138   2.242   1.678
 2338SOL    HW118527   1.093   2.305   1.742
 2338SOL    HW218528   1.231   2.273   1.661
 2339SOL     OW18529   1.160   2.069   1.477
 2339SOL    HW118530   1.160   2.133   1.554
 2339SOL    HW218531   1.188   2.117   1.394
 2340SOL     OW18532   0.504   3.430   0.910
 2340SOL    HW118533   0.570   3.504   0.919
 2340SOL    HW218534   0.548   3.351   0.868
 2341SOL     OW18535   0.189   2.382   1.722
 2341SOL    HW118536   0.248   2.342   1.652
 2341SOL    HW218537   0.131   2.453   1.681
 2342SOL     OW18538   0.815   2.434   0.325
 2342SOL    HW118539   0.822   2.345   0.279
 2342SOL    HW218540   0.721   2.468   0.317
 2343SOL     OW18541   1.657   2.466   1.206
 2343SOL    HW118542   1.619   2.397   1.268
 2343SOL    HW218543   1.739   2.430   1.162
 2344SOL     OW18544   1.347   2.921   1.234
 2344SOL    HW118545   1.371   2.858   1.160
 2344SOL    HW218546   1.257   2.961   1.216
 2345SOL     OW18547   1.759   3.609   1.154
 2345SOL    HW118548   1.820   3.639   1.081
 2345SOL    HW218549   1.721   3.520   1.132
 2346SOL     OW18550   0.083   3.120   1.022
 2346SOL    HW118551   0.078   3.119   1.122
 2346SOL    HW218552   0.000   3.079   0.984
 2347SOL     OW18553   0.903   1.948   0.133
 2347SOL    HW118554   0.954   1.949   0.047
 2347SOL    HW218555   0.959   1.906   0.204
 2348SOL     OW18556   1.388   3.435   0.477
 2348SOL    HW118557   1.455   3.447   0.403
 2348SOL    HW218558   1.348   3.524   0.500
 2349SOL     OW18559   0.130   3.656   1.851
 2349SOL    HW118560   0.089   3.582   1.904
 2349SOL    HW218561   0.194   3.707   1.909
 2350SOL     OW18562   1.280   2.789   0.672
 2350SOL    HW118563   1.340   2.708   0.674
 2350SOL    HW218564   1.320   2.858   0.612
 2351SOL     OW18565   0.830   3.135   1.422
 2351SOL    HW118566   0.825   3.168   1.517
 2351SOL    HW218567   0.744   3.154   1.376
 2352SOL     OW18568   1.650   3.582   1.394
 2352SOL    HW118569   1.703   3.592   1.310
 2352SOL    HW218570   1.623   3.672   1.428
 2353SOL     OW18571   1.194   3.474   0.031
 2353SOL    HW118572   1.200   3.381   0.068
 2353SOL    HW218573   1.135   3.474  -0.049
 2354SOL     OW18574   0.916   2.772   0.291
 2354SOL    HW118575   0.979   2.810   0.223
 2354SOL    HW218576   0.956   2.689   0.330
 2355SOL     OW18577   1.504   3.469   0.044
 2355SOL    HW118578   1.412   3.506   0.051
 2355SOL    HW218579   1.542   3.489  -0.046
 2356SOL     OW18580   1.039   2.960   0.696
 2356SOL    HW118581   0.969   2.913   0.750
 2356SOL    HW218582   1.098   2.892   0.653
 2357SOL     OW18583   0.590   3.349   0.491
 2357SOL    HW118584   0.632   3.291   0.421
 2357SOL    HW218585   0.546   3.428   0.447
 2358SOL     OW18586   0.255   3.210   0.290
 2358SOL    HW118587   0.159   3.211   0.263
 2358SOL    HW218588   0.267   3.263   0.374
 2359SOL     OW18589   0.105   2.875   1.726
 2359SOL    HW118590   0.028   2.842   1.780
 2359SOL    HW218591   0.190   2.845   1.768
 2360SOL     OW18592   0.672   2.065   1.489
 2360SOL    HW118593   0.762   2.049   1.449
 2360SOL    HW218594   0.680   2.070   1.588
 2361SOL     OW18595   1.183   3.197   0.119
 2361SOL    HW118596   1.084   3.186   0.121
 2361SOL    HW218597   1.217   3.212   0.212
 2362SOL     OW18598   0.613   2.704   1.431
 2362SOL    HW118599   0.669   2.785   1.414
 2362SOL    HW218600   0.672   2.624   1.434
 2363SOL     OW18601   1.493   3.629   0.959
 2363SOL    HW118602   1.526   3.693   0.890
 2363SOL    HW218603   1.559   3.623   1.034
 2364SOL     OW18604   0.716   2.427   1.708
 2364SOL    HW118605   0.735   2.492   1.782
 2364SOL    HW218606   0.776   2.347   1.717
 2365SOL     OW18607   1.450   3.082   1.633
 2365SOL    HW118608   1.441   3.072   1.732
 2365SOL    HW218609   1.546   3.075   1.607
 2366SOL     OW18610   0.859   3.236   0.016
 2366SOL    HW118611   0.813   3.251   0.104
 2366SOL    HW218612   0.903   3.321  -0.014
 2367SOL     OW18613   0.661   3.652   0.953
 2367SOL    HW118614   0.615   3.740   0.940
 2367SOL    HW218615   0.760   3.664   0.946
 2368SOL     OW18616   0.859   2.818   0.861
 2368SOL    HW118617   0.913   2.749   0.909
 2368SOL    HW218618   0.827   2.887   0.927
 2369SOL     OW18619   1.861   3.431   0.851
 2369SOL    HW118620   1.790   3.419   0.781
 2369SOL    HW218621   1.862   3.352   0.911
 2370SOL     OW18622   0.672   3.253   1.624
 2370SOL    HW118623   0.594   3.203   1.662
 2370SOL    HW218624   0.669   3.348   1.655
 2371SOL     OW18625   1.824   2.054   1.227
 2371SOL    HW118626   1.820   1.964   1.271
 2371SOL    HW218627   1.827   2.043   1.128
 2372SOL     OW18628   1.705   3.349   1.104
 2372SOL    HW118629   1.612   3.324   1.077
 2372SOL    HW218630   1.731   3.299   1.186
 2373SOL     OW18631   0.317   2.409   1.280
 2373SOL    HW118632   0.355   2.350   1.352
 2373SOL    HW218633   0.357   2.383   1.192
 2374SOL     OW18634   0.812   3.448   0.687
 2374SOL    HW118635   0.844   3.458   0.593
 2374SOL    HW218636   0.733   3.386   0.689
 2375SOL     OW18637   0.770   3.192   0.301
 2375SOL    HW118638   0.724   3.105   0.318
 2375SOL    HW218639   0.861   3.189   0.342
 2376SOL     OW18640   1.352   1.914   0.168
 2376SOL    HW118641   1.387   1.873   0.084
 2376SOL    HW218642   1.262   1.876   0.188
 2377SOL     OW18643   1.300   2.315   0.691
 2377SOL    HW118644   1.241   2.395   0.695
 2377SOL    HW218645   1.315   2.280   0.784
 2378SOL     OW18646   0.039   2.939   0.300
 2378SOL    HW118647   0.138   2.928   0.291
 2378SOL    HW218648  -0.001   2.853   0.332
 2379SOL     OW18649   0.875   3.508   0.337
 2379SOL    HW118650   0.798   3.473   0.283
 2379SOL    HW218651   0.843   3.579   0.399
 2380SOL     OW18652   0.230   2.490   1.975
 2380SOL    HW118653   0.137   2.488   2.012
 2380SOL    HW218654   0.231   2.451   1.883
 2381SOL     OW18655   0.225   2.137   2.858
 2381SOL    HW118656   0.260   2.120   2.950
 2381SOL    HW218657   0.137   2.092   2.846
 2382SOL     OW18658   0.019   2.230   2.509
 2382SOL    HW118659  -0.063   2.273   2.548
 2382SOL    HW218660  -0.009   2.157   2.446
 2383SOL     OW18661   0.569   3.137   3.027
 2383SOL    HW118662   0.476   3.130   2.990
 2383SOL    HW218663   0.580   3.226   3.071
 2384SOL     OW18664   1.555   3.373   2.565
 2384SOL    HW118665   1.498   3.357   2.646
 2384SOL    HW218666   1.496   3.383   2.485
 2385SOL     OW18667   1.135   2.565   2.579
 2385SOL    HW118668   1.192   2.643   2.554
 2385SOL    HW218669   1.075   2.591   2.655
 2386SOL     OW18670   1.755   2.469   2.093
 2386SOL    HW118671   1.743   2.456   1.994
 2386SOL    HW218672   1.725   2.388   2.142
 2387SOL     OW18673   0.768   3.006   2.885
 2387SOL    HW118674   0.690   3.023   2.945
 2387SOL    HW218675   0.802   3.093   2.849
 2388SOL     OW18676   0.850   2.660   3.685
 2388SOL    HW118677   0.846   2.736   3.750
 2388SOL    HW218678   0.872   2.696   3.594
 2389SOL     OW18679   0.685   2.874   2.527
 2389SOL    HW118680   0.754   2.858   2.597
 2389SOL    HW218681   0.612   2.931   2.565
 2390SOL     OW18682   0.686   3.023   3.665
 2390SOL    HW118683   0.746   3.102   3.679
 2390SOL    HW218684   0.600   3.054   3.624
 2391SOL     OW18685   0.335   3.297   2.923
 2391SOL    HW118686   0.257   3.266   2.870
 2391SOL    HW218687   0.393   3.355   2.866
 2392SOL     OW18688   1.460   3.367   3.201
 2392SOL    HW118689   1.484   3.461   3.227
 2392SOL    HW218690   1.444   3.313   3.283
 2393SOL     OW18691   0.438   2.254   3.361
 2393SOL    HW118692   0.520   2.198   3.370
 2393SOL    HW218693   0.357   2.196   3.365
 2394SOL     OW18694   1.603   2.309   2.599
 2394SOL    HW118695   1.529   2.355   2.549
 2394SOL    HW218696   1.654   2.377   2.652
 2395SOL     OW18697   0.231   3.575   2.345
 2395SOL    HW118698   0.265   3.652   2.399
 2395SOL    HW218699   0.275   3.575   2.255
 2396SOL     OW18700   1.127   3.203   3.552
 2396SOL    HW118701   1.174   3.203   3.640
 2396SOL    HW218702   1.079   3.116   3.541
 2397SOL     OW18703   0.230   3.296   2.400
 2397SOL    HW118704   0.204   3.392   2.400
 2397SOL    HW218705   0.159   3.242   2.445
 2398SOL     OW18706   0.240   2.953   2.748
 2398SOL    HW118707   0.254   2.869   2.800
 2398SOL    HW218708   0.185   3.017   2.803
 2399SOL     OW18709   0.620   3.648   3.301
 2399SOL    HW118710   0.528   3.631   3.336
 2399SOL    HW218711   0.648   3.740   3.327
 2400SOL     OW18712   0.606   2.826   1.985
 2400SOL    HW118713   0.613   2.910   1.931
 2400SOL    HW218714   0.652   2.839   2.073
 2401SOL     OW18715   1.594   1.976   3.342
 2401SOL    HW118716   1.576   2.043   3.270
 2401SOL    HW218717   1.591   2.022   3.431
 2402SOL     OW18718   0.122   2.505   2.425
 2402SOL    HW118719   0.077   2.417   2.442
 2402SOL    HW218720   0.121   2.559   2.509
 2403SOL     OW18721   1.842   3.629   2.221
 2403SOL    HW118722   1.896   3.600   2.301
 2403SOL    HW218723   1.872   3.719   2.192
 2404SOL     OW18724   0.027   3.458   1.979
 2404SOL    HW118725   0.008   3.362   2.000
 2404SOL    HW218726  -0.006   3.516   2.054
 2405SOL     OW18727   1.689   2.784   2.474
 2405SOL    HW118728   1.784   2.755   2.482
 2405SOL    HW218729   1.681   2.849   2.399
 2406SOL     OW18730   1.641   2.970   2.294
 2406SOL    HW118731   1.727   2.972   2.242
 2406SOL    HW218732   1.655   3.017   2.382
 2407SOL     OW18733   0.113   2.599   3.459
 2407SOL    HW118734   0.201   2.586   3.504
 2407SOL    HW218735   0.100   2.696   3.437
 2408SOL     OW18736   0.613   3.227   2.588
 2408SOL    HW118737   0.564   3.140   2.597
 2408SOL    HW218738   0.590   3.270   2.501
 2409SOL     OW18739   1.293   3.090   3.285
 2409SOL    HW118740   1.330   3.017   3.227
 2409SOL    HW218741   1.345   3.095   3.370
 2410SOL     OW18742   0.809   1.866   2.364
 2410SOL    HW118743   0.849   1.957   2.355
 2410SOL    HW218744   0.709   1.874   2.370
 2411SOL     OW18745   0.197   2.838   3.126
 2411SOL    HW118746   0.286   2.793   3.112
 2411SOL    HW218747   0.124   2.773   3.107
 2412SOL     OW18748   1.525   2.861   2.052
 2412SOL    HW118749   1.462   2.785   2.065
 2412SOL    HW218750   1.573   2.879   2.138
 2413SOL     OW18751   1.187   3.654   3.478
 2413SOL    HW118752   1.211   3.714   3.402
 2413SOL    HW218753   1.194   3.559   3.448
 2414SOL     OW18754   0.317   2.113   3.663
 2414SOL    HW118755   0.388   2.184   3.669
 2414SOL    HW218756   0.229   2.152   3.691
 2415SOL     OW18757   1.466   3.279   2.815
 2415SOL    HW118758   1.407   3.285   2.895
 2415SOL    HW218759   1.451   3.191   2.769
 2416SOL     OW18760   1.667   3.576   2.434
 2416SOL    HW118761   1.626   3.553   2.346
 2416SOL    HW218762   1.649   3.502   2.499
 2417SOL     OW18763   0.598   2.591   2.132
 2417SOL    HW118764   0.622   2.660   2.064
 2417SOL    HW218765   0.520   2.624   2.186
 2418SOL     OW18766   1.281   2.207   2.806
 2418SOL    HW118767   1.195   2.157   2.793
 2418SOL    HW218768   1.343   2.153   2.862
 2419SOL     OW18769   1.576   3.524   2.169
 2419SOL    HW118770   1.665   3.570   2.172
 2419SOL    HW218771   1.555   3.500   2.074
 2420SOL     OW18772   0.807   2.467   3.327
 2420SOL    HW118773   0.760   2.464   3.416
 2420SOL    HW218774   0.756   2.412   3.261
 2421SOL     OW18775   1.394   2.331   3.536
 2421SOL    HW118776   1.374   2.374   3.624
 2421SOL    HW218777   1.472   2.269   3.545
 2422SOL     OW18778   0.973   2.752   3.434
 2422SOL    HW118779   1.019   2.668   3.405
 2422SOL    HW218780   0.917   2.786   3.359
 2423SOL     OW18781   0.991   2.272   3.104
 2423SOL    HW118782   0.914   2.306   3.158
 2423SOL    HW218783   0.957   2.221   3.025
 2424SOL     OW18784   1.041   2.563   2.291
 2424SOL    HW118785   1.067   2.559   2.387
 2424SOL    HW218786   0.956   2.512   2.277
 2425SOL     OW18787   0.076   2.673   2.651
 2425SOL    HW118788   0.175   2.661   2.660
 2425SOL    HW218789   0.052   2.768   2.672
 2426SOL     OW18790   0.130   3.683   3.433
 2426SOL    HW118791   0.120   3.668   3.532
 2426SOL    HW218792   0.044   3.719   3.397
 2427SOL     OW18793   0.865   2.210   2.057
 2427SOL    HW118794   0.924   2.273   2.008
 2427SOL    HW218795   0.884   2.116   2.028
 2428SOL     OW18796   1.719   2.447   3.693
 2428SOL    HW118797   1.693   2.536   3.657
 2428SOL    HW218798   1.717   2.379   3.620
 2429SOL     OW18799   1.362   3.006   2.407
 2429SOL    HW118800   1.445   2.977   2.359
 2429SOL    HW218801   1.313   3.073   2.351
 2430SOL     OW18802   0.550   2.058   2.747
 2430SOL    HW118803   0.545   2.053   2.847
 2430SOL    HW218804   0.552   2.154   2.718
 2431SOL     OW18805   1.008   3.318   2.339
 2431SOL    HW118806   0.962   3.390   2.287
 2431SOL    HW218807   1.004   3.338   2.437
 2432SOL     OW18808   0.351   3.663   2.715
 2432SOL    HW118809   0.401   3.577   2.721
 2432SOL    HW218810   0.416   3.740   2.712
 2433SOL     OW18811   1.795   2.928   2.735
 2433SOL    HW118812   1.733   2.913   2.659
 2433SOL    HW218813   1.743   2.939   2.820
 2434SOL     OW18814   1.227   3.412   3.368
 2434SOL    HW118815   1.233   3.335   3.432
 2434SOL    HW218816   1.175   3.386   3.288
 2435SOL     OW18817   0.321   2.805   2.104
 2435SOL    HW118818   0.403   2.844   2.062
 2435SOL    HW218819   0.294   2.723   2.055
 2436SOL     OW18820   1.458   2.597   2.590
 2436SOL    HW118821   1.453   2.532   2.665
 2436SOL    HW218822   1.538   2.656   2.603
 2437SOL     OW18823   0.461   3.128   3.589
 2437SOL    HW118824   0.411   3.129   3.503
 2437SOL    HW218825   0.398   3.110   3.665
 2438SOL     OW18826   1.111   3.638   2.099
 2438SOL    HW118827   1.051   3.576   2.149
 2438SOL    HW218828   1.142   3.594   2.014
 2439SOL     OW18829   0.202   2.147   3.360
 2439SOL    HW118830   0.122   2.207   3.347
 2439SOL    HW218831   0.192   2.098   3.446
 2440SOL     OW18832   1.632   3.239   1.943
 2440SOL    HW118833   1.600   3.333   1.933
 2440SOL    HW218834   1.556   3.176   1.931
 2441SOL     OW18835   0.464   3.605   2.185
 2441SOL    HW118836   0.497   3.644   2.271
 2441SOL    HW218837   0.540   3.598   2.120
 2442SOL     OW18838   1.400   1.969   2.288
 2442SOL    HW118839   1.376   1.932   2.198
 2442SOL    HW218840   1.499   1.985   2.292
 2443SOL     OW18841   0.249   3.647   3.103
 2443SOL    HW118842   0.306   3.582   3.153
 2443SOL    HW218843   0.233   3.614   3.010
 2444SOL     OW18844   0.940   3.560   2.766
 2444SOL    HW118845   1.020   3.503   2.787
 2444SOL    HW218846   0.891   3.520   2.689
 2445SOL     OW18847   0.382   2.562   2.342
 2445SOL    HW118848   0.427   2.472   2.339
 2445SOL    HW218849   0.288   2.551   2.375
 2446SOL     OW18850   1.547   2.084   3.591
 2446SOL    HW118851   1.542   2.121   3.683
 2446SOL    HW218852   1.475   2.015   3.579
 2447SOL     OW18853   0.614   1.984   1.979
 2447SOL    HW118854   0.712   1.962   1.986
 2447SOL    HW218855   0.583   1.967   1.886
 2448SOL     OW18856   0.781   2.126   3.611
 2448SOL    HW118857   0.848   2.065   3.654
 2448SOL    HW218858   0.708   2.145   3.676
 2449SOL     OW18859   0.888   3.376   3.057
 2449SOL    HW118860   0.865   3.351   2.963
 2449SOL    HW218861   0.949   3.307   3.096
 2450SOL     OW18862   1.351   2.452   3.295
 2450SOL    HW118863   1.379   2.409   3.380
 2450SOL    HW218864   1.376   2.548   3.296
 2451SOL     OW18865   0.803   3.264   2.786
 2451SOL    HW118866   0.893   3.278   2.744
 2451SOL    HW218867   0.732   3.266   2.715
 2452SOL     OW18868   0.922   2.365   2.761
 2452SOL    HW118869   0.897   2.356   2.665
 2452SOL    HW218870   0.970   2.283   2.792
 2453SOL     OW18871   0.539   1.926   2.374
 2453SOL    HW118872   0.458   1.927   2.432
 2453SOL    HW218873   0.542   2.009   2.319
 2454SOL     OW18874   1.434   3.050   1.903
 2454SOL    HW118875   1.466   2.974   1.960
 2454SOL    HW218876   1.342   3.077   1.933
 2455SOL     OW18877   0.297   1.897   2.033
 2455SOL    HW118878   0.346   1.981   2.012
 2455SOL    HW218879   0.359   1.832   2.078
 2456SOL     OW18880   0.935   2.098   2.342
 2456SOL    HW118881   0.887   2.139   2.264
 2456SOL    HW218882   1.034   2.096   2.323
 2457SOL     OW18883   1.076   2.545   3.326
 2457SOL    HW118884   0.996   2.484   3.329
 2457SOL    HW218885   1.157   2.492   3.302
 2458SOL     OW18886   1.227   3.432   2.655
 2458SOL    HW118887   1.248   3.506   2.590
 2458SOL    HW218888   1.295   3.432   2.728
 2459SOL     OW18889   0.459   3.014   2.603
 2459SOL    HW118890   0.388   2.987   2.668
 2459SOL    HW218891   0.433   2.986   2.510
 2460SOL     OW18892   1.271   3.659   2.453
 2460SOL    HW118893   1.315   3.723   2.389
 2460SOL    HW218894   1.221   3.711   2.523
 2461SOL     OW18895   1.032   2.411   1.878
 2461SOL    HW118896   0.991   2.493   1.839
 2461SOL    HW218897   1.096   2.437   1.951
 2462SOL     OW18898   0.078   2.418   3.248
 2462SOL    HW118899   0.170   2.417   3.207
 2462SOL    HW218900   0.072   2.492   3.315
 2463SOL     OW18901   0.561   2.084   3.009
 2463SOL    HW118902   0.599   2.000   3.046
 2463SOL    HW218903   0.473   2.103   3.053
 2464SOL     OW18904   0.866   2.316   2.504
 2464SOL    HW118905   0.834   2.388   2.442
 2464SOL    HW218906   0.890   2.235   2.451
 2465SOL     OW18907   1.017   1.901   2.615
 2465SOL    HW118908   0.945   1.906   2.546
 2465SOL    HW218909   0.993   1.832   2.684
 2466SOL     OW18910   1.429   3.035   2.729
 2466SOL    HW118911   1.374   2.951   2.722
 2466SOL    HW218912   1.455   3.064   2.637
 2467SOL     OW18913   1.466   2.452   2.854
 2467SOL    HW118914   1.436   2.357   2.861
 2467SOL    HW218915   1.539   2.468   2.920
 2468SOL     OW18916   1.857   2.695   2.239
 2468SOL    HW118917   1.899   2.631   2.303
 2468SOL    HW218918   1.819   2.644   2.161
 2469SOL     OW18919   0.488   3.247   2.036
 2469SOL    HW118920   0.401   3.232   2.083
 2469SOL    HW218921   0.471   3.273   1.941
 2470SOL     OW18922   1.664   3.142   2.519
 2470SOL    HW118923   1.763   3.150   2.533
 2470SOL    HW218924   1.619   3.226   2.550
 2471SOL     OW18925   1.390   2.437   1.940
 2471SOL    HW118926   1.336   2.416   2.021
 2471SOL    HW218927   1.481   2.396   1.949
 2472SOL     OW18928   0.527   2.118   2.190
 2472SOL    HW118929   0.554   2.059   2.115
 2472SOL    HW218930   0.527   2.213   2.159
 2473SOL     OW18931   1.754   3.085   3.450
 2473SOL    HW118932   1.845   3.046   3.437
 2473SOL    HW218933   1.762   3.181   3.474
 2474SOL     OW18934   1.064   3.209   3.202
 2474SOL    HW118935   0.984   3.186   3.257
 2474SOL    HW218936   1.147   3.183   3.251
 2475SOL     OW18937   1.592   3.491   3.487
 2475SOL    HW118938   1.619   3.525   3.397
 2475SOL    HW218939   1.671   3.453   3.533
 2476SOL     OW18940   1.111   3.057   2.962
 2476SOL    HW118941   1.071   3.101   3.043
 2476SOL    HW218942   1.070   3.094   2.879
 2477SOL     OW18943   1.638   2.961   2.941
 2477SOL    HW118944   1.643   3.042   3.000
 2477SOL    HW218945   1.552   2.963   2.890
 2478SOL     OW18946   0.915   1.951   3.264
 2478SOL    HW118947   0.940   1.931   3.169
 2478SOL    HW218948   0.987   2.007   3.306
 2479SOL     OW18949   0.980   2.978   3.581
 2479SOL    HW118950   0.881   2.984   3.591
 2479SOL    HW218951   1.003   2.898   3.525
 2480SOL     OW18952   0.705   2.912   2.230
 2480SOL    HW118953   0.691   2.919   2.329
 2480SOL    HW218954   0.789   2.861   2.212
 2481SOL     OW18955   0.410   2.675   3.113
 2481SOL    HW118956   0.496   2.687   3.163
 2481SOL    HW218957   0.368   2.588   3.140
 2482SOL     OW18958   1.274   2.248   3.124
 2482SOL    HW118959   1.295   2.322   3.188
 2482SOL    HW218960   1.185   2.265   3.081
 2483SOL     OW18961   0.064   3.426   3.193
 2483SOL    HW118962   0.018   3.508   3.159
 2483SOL    HW218963   0.162   3.445   3.202
 2484SOL     OW18964   0.367   2.962   2.363
 2484SOL    HW118965   0.360   3.045   2.307
 2484SOL    HW218966   0.371   2.882   2.303
 2485SOL     OW18967   0.566   2.399   2.727
 2485SOL    HW118968   0.578   2.465   2.653
 2485SOL    HW218969   0.612   2.433   2.810
 2486SOL     OW18970   1.252   3.210   2.250
 2486SOL    HW118971   1.302   3.287   2.290
 2486SOL    HW218972   1.157   3.212   2.282
 2487SOL     OW18973   1.272   3.307   3.004
 2487SOL    HW118974   1.319   3.320   3.091
 2487SOL    HW218975   1.206   3.233   3.013
 2488SOL     OW18976   1.582   2.501   2.334
 2488SOL    HW118977   1.551   2.562   2.407
 2488SOL    HW218978   1.632   2.553   2.265
 2489SOL     OW18979   0.354   3.372   3.191
 2489SOL    HW118980   0.333   3.328   3.104
 2489SOL    HW218981   0.451   3.398   3.194
 2490SOL     OW18982   0.402   2.613   3.460
 2490SOL    HW118983   0.470   2.668   3.413
 2490SOL    HW218984   0.442   2.525   3.487
 2491SOL     OW18985   1.587   2.641   3.532
 2491SOL    HW118986   1.495   2.679   3.527
 2491SOL    HW218987   1.647   2.688   3.467
 2492SOL     OW18988   1.013   1.967   3.632
 2492SOL    HW118989   1.019   2.052   3.580
 2492SOL    HW218990   1.045   1.891   3.575
 2493SOL     OW18991   0.504   1.912   3.602
 2493SOL    HW118992   0.462   1.855   3.532
 2493SOL    HW218993   0.438   1.981   3.634
 2494SOL     OW18994   0.573   2.732   2.891
 2494SOL    HW118995   0.617   2.821   2.882
 2494SOL    HW218996   0.510   2.732   2.968
 2495SOL     OW18997   1.360   2.724   2.907
 2495SOL    HW118998   1.285   2.724   2.841
 2495SOL    HW218999   1.397   2.632   2.916
 2496SOL     OW19000   1.209   2.387   2.137
 2496SOL    HW119001   1.222   2.303   2.191
 2496SOL    HW219002   1.180   2.461   2.197
 2497SOL     OW19003   0.307   2.075   3.093
 2497SOL    HW119004   0.284   2.112   3.183
 2497SOL    HW219005   0.277   1.980   3.087
 2498SOL     OW19006   0.037   3.172   3.144
 2498SOL    HW119007   0.090   3.123   3.212
 2498SOL    HW219008   0.059   3.270   3.149
 2499SOL     OW19009   0.732   2.496   2.926
 2499SOL    HW119010   0.791   2.470   2.850
 2499SOL    HW219011   0.704   2.592   2.915
 2500SOL     OW19012   1.728   2.797   3.716
 2500SOL    HW119013   1.682   2.790   3.627
 2500SOL    HW219014   1.666   2.841   3.782
 2501SOL     OW19015   0.307   1.925   2.480
 2501SOL    HW119016   0.296   2.019   2.513
 2501SOL    HW219017   0.302   1.862   2.557
 2502SOL     OW19018   1.622   2.229   2.236
 2502SOL    HW119019   1.624   2.153   2.300
 2502SOL    HW219020   1.574   2.306   2.276
 2503SOL     OW19021   1.023   2.628   2.828
 2503SOL    HW119022   1.038   2.649   2.924
 2503SOL    HW219023   0.993   2.533   2.819
 2504SOL     OW19024   0.980   3.435   3.562
 2504SOL    HW119025   0.960   3.479   3.474
 2504SOL    HW219026   1.019   3.344   3.546
 2505SOL     OW19027   1.859   3.380   3.467
 2505SOL    HW119028   1.873   3.407   3.372
 2505SOL    HW219029   1.942   3.402   3.520
 2506SOL     OW19030   0.350   2.760   3.666
 2506SOL    HW119031   0.426   2.804   3.714
 2506SOL    HW219032   0.385   2.713   3.584
 2507SOL     OW19033   1.540   2.136   1.987
 2507SOL    HW119034   1.479   2.061   2.010
 2507SOL    HW219035   1.562   2.188   2.070
 2508SOL     OW19036   1.303   2.700   1.904
 2508SOL    HW119037   1.337   2.607   1.919
 2508SOL    HW219038   1.321   2.727   1.809
 2509SOL     OW19039   1.068   3.195   2.711
 2509SOL    HW119040   1.075   3.111   2.656
 2509SOL    HW219041   1.130   3.264   2.675
 2510SOL     OW19042   0.319   2.672   2.811
 2510SOL    HW119043   0.412   2.708   2.816
 2510SOL    HW219044   0.313   2.587   2.863
 2511SOL     OW19045   0.339   2.371   2.868
 2511SOL    HW119046   0.287   2.288   2.851
 2511SOL    HW219047   0.416   2.376   2.804
 2512SOL     OW19048   1.138   2.242   3.540
 2512SOL    HW119049   1.093   2.305   3.604
 2512SOL    HW219050   1.231   2.273   3.523
 2513SOL     OW19051   1.160   2.069   3.339
 2513SOL    HW119052   1.160   2.133   3.416
 2513SOL    HW219053   1.188   2.117   3.256
 2514SOL     OW19054   0.008   3.188   2.062
 2514SOL    HW119055  -0.085   3.209   2.031
 2514SOL    HW219056   0.018   3.089   2.075
 2515SOL     OW19057   0.088   3.663   2.789
 2515SOL    HW119058   0.046   3.577   2.762
 2515SOL    HW219059   0.182   3.666   2.755
 2516SOL     OW19060   0.504   3.430   2.772
 2516SOL    HW119061   0.570   3.504   2.781
 2516SOL    HW219062   0.548   3.351   2.730
 2517SOL     OW19063   1.002   2.658   3.100
 2517SOL    HW119064   1.043   2.626   3.186
 2517SOL    HW219065   0.906   2.631   3.097
 2518SOL     OW19066   0.040   2.406   2.976
 2518SOL    HW119067   0.125   2.373   2.935
 2518SOL    HW219068   0.053   2.421   3.074
 2519SOL     OW19069   0.189   2.382   3.584
 2519SOL    HW119070   0.248   2.342   3.514
 2519SOL    HW219071   0.131   2.453   3.543
 2520SOL     OW19072   1.369   2.812   3.522
 2520SOL    HW119073   1.408   2.901   3.542
 2520SOL    HW219074   1.379   2.792   3.425
 2521SOL     OW19075   0.815   2.434   2.187
 2521SOL    HW119076   0.822   2.345   2.141
 2521SOL    HW219077   0.721   2.468   2.179
 2522SOL     OW19078   1.657   2.466   3.068
 2522SOL    HW119079   1.619   2.397   3.130
 2522SOL    HW219080   1.739   2.430   3.024
 2523SOL     OW19081   0.252   3.426   3.606
 2523SOL    HW119082   0.222   3.483   3.682
 2523SOL    HW219083   0.245   3.329   3.632
 2524SOL     OW19084   0.671   2.326   3.131
 2524SOL    HW119085   0.637   2.237   3.101
 2524SOL    HW219086   0.697   2.380   3.051
 2525SOL     OW19087   0.930   3.540   3.327
 2525SOL    HW119088   0.906   3.522   3.232
 2525SOL    HW219089   0.960   3.634   3.337
 2526SOL     OW19090   0.473   2.362   2.053
 2526SOL    HW119091   0.534   2.442   2.057
 2526SOL    HW219092   0.378   2.393   2.060
 2527SOL     OW19093   0.159   2.999   3.328
 2527SOL    HW119094   0.181   2.938   3.404
 2527SOL    HW219095   0.169   2.950   3.242
 2528SOL     OW19096   1.347   2.921   3.096
 2528SOL    HW119097   1.371   2.858   3.022
 2528SOL    HW219098   1.257   2.961   3.078
 2529SOL     OW19099   1.302   2.717   2.171
 2529SOL    HW119100   1.216   2.686   2.213
 2529SOL    HW219101   1.298   2.703   2.072
 2530SOL     OW19102   1.759   3.609   3.016
 2530SOL    HW119103   1.820   3.639   2.943
 2530SOL    HW219104   1.721   3.520   2.994
 2531SOL     OW19105   1.252   3.593   2.990
 2531SOL    HW119106   1.336   3.598   2.936
 2531SOL    HW219107   1.229   3.497   3.008
 2532SOL     OW19108   0.083   3.120   2.884
 2532SOL    HW119109   0.078   3.119   2.984
 2532SOL    HW219110   0.000   3.079   2.846
 2533SOL     OW19111   0.688   3.524   3.578
 2533SOL    HW119112   0.632   3.605   3.587
 2533SOL    HW219113   0.740   3.528   3.492
 2534SOL     OW19114   1.726   1.997   2.385
 2534SOL    HW119115   1.799   1.980   2.318
 2534SOL    HW219116   1.695   1.910   2.423
 2535SOL     OW19117   1.388   3.435   2.339
 2535SOL    HW119118   1.455   3.447   2.265
 2535SOL    HW219119   1.348   3.524   2.362
 2536SOL     OW19120   0.130   3.656   3.713
 2536SOL    HW119121   0.089   3.582   3.766
 2536SOL    HW219122   0.194   3.707   3.771
 2537SOL     OW19123   1.280   2.789   2.534
 2537SOL    HW119124   1.340   2.708   2.536
 2537SOL    HW219125   1.320   2.858   2.474
 2538SOL     OW19126   0.830   3.135   3.284
 2538SOL    HW119127   0.825   3.168   3.379
 2538SOL    HW219128   0.744   3.154   3.238
 2539SOL     OW19129   0.672   3.478   2.016
 2539SOL    HW119130   0.681   3.488   1.917
 2539SOL    HW219131   0.632   3.389   2.037
 2540SOL     OW19132   1.650   3.582   3.256
 2540SOL    HW119133   1.703   3.592   3.172
 2540SOL    HW219134   1.623   3.672   3.290
 2541SOL     OW19135   1.841   2.037   2.825
 2541SOL    HW119136   1.880   1.952   2.789
 2541SOL    HW219137   1.743   2.039   2.806
 2542SOL     OW19138   0.263   2.188   2.582
 2542SOL    HW119139   0.184   2.239   2.548
 2542SOL    HW219140   0.254   2.173   2.680
 2543SOL     OW19141   1.194   3.474   1.893
 2543SOL    HW119142   1.200   3.381   1.930
 2543SOL    HW219143   1.135   3.474   1.813
 2544SOL     OW19144   0.822   2.864   3.234
 2544SOL    HW119145   0.862   2.863   3.142
 2544SOL    HW219146   0.832   2.956   3.274
 2545SOL     OW19147   0.916   2.772   2.153
 2545SOL    HW119148   0.979   2.810   2.085
 2545SOL    HW219149   0.956   2.689   2.192
 2546SOL     OW19150   1.504   3.469   1.906
 2546SOL    HW119151   1.412   3.506   1.913
 2546SOL    HW219152   1.542   3.489   1.816
 2547SOL     OW19153   0.372   3.150   3.352
 2547SOL    HW119154   0.359   3.243   3.318
 2547SOL    HW219155   0.288   3.098   3.339
 2548SOL     OW19156   1.614   3.154   3.151
 2548SOL    HW119157   1.674   3.157   3.231
 2548SOL    HW219158   1.539   3.218   3.164
 2549SOL     OW19159   1.039   2.960   2.558
 2549SOL    HW119160   0.969   2.913   2.612
 2549SOL    HW219161   1.098   2.892   2.515
 2550SOL     OW19162   1.014   2.098   2.833
 2550SOL    HW119163   1.006   2.062   2.740
 2550SOL    HW219164   1.012   2.022   2.898
 2551SOL     OW19165   0.590   3.349   2.353
 2551SOL    HW119166   0.632   3.291   2.283
 2551SOL    HW219167   0.546   3.428   2.309
 2552SOL     OW19168   1.709   2.247   3.243
 2552SOL    HW119169   1.782   2.316   3.247
 2552SOL    HW219170   1.737   2.172   3.184
 2553SOL     OW19171   0.255   3.210   2.152
 2553SOL    HW119172   0.159   3.211   2.125
 2553SOL    HW219173   0.267   3.263   2.236
 2554SOL     OW19174   0.105   2.875   3.588
 2554SOL    HW119175   0.028   2.842   3.642
 2554SOL    HW219176   0.190   2.845   3.630
 2555SOL     OW19177   0.672   2.065   3.351
 2555SOL    HW119178   0.762   2.049   3.311
 2555SOL    HW219179   0.680   2.070   3.450
 2556SOL     OW19180   0.075   2.207   1.895
 2556SOL    HW119181  -0.017   2.179   1.866
 2556SOL    HW219182   0.106   2.284   1.839
 2557SOL     OW19183   1.440   2.718   3.260
 2557SOL    HW119184   1.383   2.770   3.197
 2557SOL    HW219185   1.536   2.730   3.236
 2558SOL     OW19186   0.072   2.028   2.180
 2558SOL    HW119187   0.055   2.111   2.126
 2558SOL    HW219188   0.162   1.991   2.158
 2559SOL     OW19189   1.183   3.197   1.981
 2559SOL    HW119190   1.084   3.186   1.983
 2559SOL    HW219191   1.217   3.212   2.074
 2560SOL     OW19192   0.613   2.704   3.293
 2560SOL    HW119193   0.669   2.785   3.276
 2560SOL    HW219194   0.672   2.624   3.296
 2561SOL     OW19195   1.493   3.629   2.821
 2561SOL    HW119196   1.526   3.693   2.752
 2561SOL    HW219197   1.559   3.623   2.896
 2562SOL     OW19198   0.716   2.427   3.570
 2562SOL    HW119199   0.735   2.492   3.644
 2562SOL    HW219200   0.776   2.347   3.579
 2563SOL     OW19201   1.450   3.082   3.495
 2563SOL    HW119202   1.441   3.072   3.594
 2563SOL    HW219203   1.546   3.075   3.469
 2564SOL     OW19204   0.390   3.603   3.422
 2564SOL    HW119205   0.299   3.644   3.420
 2564SOL    HW219206   0.383   3.509   3.454
 2565SOL     OW19207   1.674   2.745   3.116
 2565SOL    HW119208   1.647   2.656   3.079
 2565SOL    HW219209   1.675   2.813   3.043
 2566SOL     OW19210   1.225   2.187   2.311
 2566SOL    HW119211   1.290   2.113   2.300
 2566SOL    HW219212   1.245   2.237   2.395
 2567SOL     OW19213   0.594   2.607   2.514
 2567SOL    HW119214   0.644   2.692   2.495
 2567SOL    HW219215   0.506   2.609   2.466
 2568SOL     OW19216   1.777   2.204   3.504
 2568SOL    HW119217   1.760   2.235   3.410
 2568SOL    HW219218   1.693   2.167   3.542
 2569SOL     OW19219   1.730   2.796   3.379
 2569SOL    HW119220   1.768   2.887   3.394
 2569SOL    HW219221   1.722   2.779   3.280
 2570SOL     OW19222   0.859   3.236   1.878
 2570SOL    HW119223   0.813   3.251   1.966
 2570SOL    HW219224   0.903   3.321   1.848
 2571SOL     OW19225   0.661   3.652   2.815
 2571SOL    HW119226   0.615   3.740   2.802
 2571SOL    HW219227   0.760   3.664   2.808
 2572SOL     OW19228   0.859   2.818   2.723
 2572SOL    HW119229   0.913   2.749   2.771
 2572SOL    HW219230   0.827   2.887   2.789
 2573SOL     OW19231   1.083   2.846   1.949
 2573SOL    HW119232   1.060   2.899   1.867
 2573SOL    HW219233   1.164   2.790   1.930
 2574SOL     OW19234   1.861   3.431   2.713
 2574SOL    HW119235   1.790   3.419   2.643
 2574SOL    HW219236   1.862   3.352   2.773
 2575SOL     OW19237   0.221   3.176   3.706
 2575SOL    HW119238   0.156   3.103   3.685
 2575SOL    HW219239   0.225   3.190   3.804
 2576SOL     OW19240   0.079   3.102   2.515
 2576SOL    HW119241   0.078   3.055   2.603
 2576SOL    HW219242   0.161   3.074   2.464
 2577SOL     OW19243   0.672   3.253   3.486
 2577SOL    HW119244   0.594   3.203   3.524
 2577SOL    HW219245   0.669   3.348   3.517
 2578SOL     OW19246   1.824   2.054   3.089
 2578SOL    HW119247   1.820   1.964   3.133
 2578SOL    HW219248   1.827   2.043   2.990
 2579SOL     OW19249   0.428   2.286   2.382
 2579SOL    HW119250   0.458   2.214   2.320
 2579SOL    HW219251   0.389   2.246   2.465
 2580SOL     OW19252   1.705   3.349   2.966
 2580SOL    HW119253   1.612   3.324   2.939
 2580SOL    HW219254   1.731   3.299   3.048
 2581SOL     OW19255   0.317   2.409   3.142
 2581SOL    HW119256   0.355   2.350   3.214
 2581SOL    HW219257   0.357   2.383   3.054
 2582SOL     OW19258   0.812   3.448   2.549
 2582SOL    HW119259   0.844   3.458   2.455
 2582SOL    HW219260   0.733   3.386   2.551
 2583SOL     OW19261   1.424   2.076   2.974
 2583SOL    HW119262   1.476   2.011   3.029
 2583SOL    HW219263   1.375   2.139   3.035
 2584SOL     OW19264   1.001   1.896   3.016
 2584SOL    HW119265   0.938   1.824   2.985
 2584SOL    HW219266   1.094   1.860   3.016
 2585SOL     OW19267   0.770   3.192   2.163
 2585SOL    HW119268   0.724   3.105   2.180
 2585SOL    HW219269   0.861   3.189   2.204
 2586SOL     OW19270   0.618   3.429   3.146
 2586SOL    HW119271   0.613   3.511   3.203
 2586SOL    HW219272   0.707   3.426   3.101
 2587SOL     OW19273   1.352   1.914   2.030
 2587SOL    HW119274   1.387   1.873   1.946
 2587SOL    HW219275   1.262   1.876   2.050
 2588SOL     OW19276   1.300   2.315   2.553
 2588SOL    HW119277   1.241   2.395   2.557
 2588SOL    HW219278   1.315   2.280   2.646
 2589SOL     OW19279   1.593   2.083   2.744
 2589SOL    HW119280   1.509   2.082   2.798
 2589SOL    HW219281   1.595   2.166   2.688
 2590SOL     OW19282   0.039   2.939   2.162
 2590SOL    HW119283   0.138   2.928   2.153
 2590SOL    HW219284  -0.001   2.853   2.194
 2591SOL     OW19285   0.875   3.508   2.199
 2591SOL    HW119286   0.798   3.473   2.145
 2591SOL    HW219287   0.843   3.579   2.261
 2592SOL     OW19288   0.230   2.490   3.837
 2592SOL    HW119289   0.137   2.488   3.874
 2592SOL    HW219290   0.231   2.451   3.745
 2593SOL     OW19291   0.225   2.137   4.720
 2593SOL    HW119292   0.260   2.120   4.812
 2593SOL    HW219293   0.137   2.092   4.708
 2594SOL     OW19294   0.019   2.230   4.371
 2594SOL    HW119295  -0.063   2.273   4.410
 2594SOL    HW219296  -0.009   2.157   4.308
 2595SOL     OW19297   0.569   3.137   4.889
 2595SOL    HW119298   0.476   3.130   4.852
 2595SOL    HW219299   0.580   3.226   4.933
 2596SOL     OW19300   1.555   3.373   4.427
 2596SOL    HW119301   1.498   3.357   4.508
 2596SOL    HW219302   1.496   3.383   4.347
 2597SOL     OW19303   1.135   2.565   4.441
 2597SOL    HW119304   1.192   2.643   4.416
 2597SOL    HW219305   1.075   2.591   4.517
 2598SOL     OW19306   1.755   2.469   3.955
 2598SOL    HW119307   1.743   2.456   3.856
 2598SOL    HW219308   1.725   2.388   4.004
 2599SOL     OW19309   0.768   3.006   4.747
 2599SOL    HW119310   0.690   3.023   4.807
 2599SOL    HW219311   0.802   3.093   4.711
 2600SOL     OW19312   0.850   2.660   5.547
 2600SOL    HW119313   0.846   2.736   5.612
 2600SOL    HW219314   0.872   2.696   5.456
 2601SOL     OW19315   0.685   2.874   4.389
 2601SOL    HW119316   0.754   2.858   4.459
 2601SOL    HW219317   0.612   2.931   4.427
 2602SOL     OW19318   0.686   3.023   5.527
 2602SOL    HW119319   0.746   3.102   5.541
 2602SOL    HW219320   0.600   3.054   5.486
 2603SOL     OW19321   0.335   3.297   4.785
 2603SOL    HW119322   0.257   3.266   4.732
 2603SOL    HW219323   0.393   3.355   4.728
 2604SOL     OW19324   1.460   3.367   5.063
 2604SOL    HW119325   1.484   3.461   5.089
 2604SOL    HW219326   1.444   3.313   5.145
 2605SOL     OW19327   0.438   2.254   5.223
 2605SOL    HW119328   0.520   2.198   5.232
 2605SOL    HW219329   0.357   2.196   5.227
 2606SOL     OW19330   1.603   2.309   4.461
 2606SOL    HW119331   1.529   2.355   4.411
 2606SOL    HW219332   1.654   2.377   4.514
 2607SOL     OW19333   0.231   3.575   4.207
 2607SOL    HW119334   0.265   3.652   4.261
 2607SOL    HW219335   0.275   3.575   4.117
 2608SOL     OW19336   1.127   3.203   5.414
 2608SOL    HW119337   1.174   3.203   5.502
 2608SOL    HW219338   1.079   3.116   5.403
 2609SOL     OW19339   0.230   3.296   4.262
 2609SOL    HW119340   0.204   3.392   4.262
 2609SOL    HW219341   0.159   3.242   4.307
 2610SOL     OW19342   0.240   2.953   4.610
 2610SOL    HW119343   0.254   2.869   4.662
 2610SOL    HW219344   0.185   3.017   4.665
 2611SOL     OW19345   0.620   3.648   5.163
 2611SOL    HW119346   0.528   3.631   5.198
 2611SOL    HW219347   0.648   3.740   5.189
 2612SOL     OW19348   0.606   2.826   3.847
 2612SOL    HW119349   0.613   2.910   3.793
 2612SOL    HW219350   0.652   2.839   3.935
 2613SOL     OW19351   1.594   1.976   5.204
 2613SOL    HW119352   1.576   2.043   5.132
 2613SOL    HW219353   1.591   2.022   5.293
 2614SOL     OW19354   0.122   2.505   4.287
 2614SOL    HW119355   0.077   2.417   4.304
 2614SOL    HW219356   0.121   2.559   4.371
 2615SOL     OW19357   1.842   3.629   4.083
 2615SOL    HW119358   1.896   3.600   4.163
 2615SOL    HW219359   1.872   3.719   4.054
 2616SOL     OW19360   0.027   3.458   3.841
 2616SOL    HW119361   0.008   3.362   3.862
 2616SOL    HW219362  -0.006   3.516   3.916
 2617SOL     OW19363   1.689   2.784   4.336
 2617SOL    HW119364   1.784   2.755   4.344
 2617SOL    HW219365   1.681   2.849   4.261
 2618SOL     OW19366   1.641   2.970   4.156
 2618SOL    HW119367   1.727   2.972   4.104
 2618SOL    HW219368   1.655   3.017   4.244
 2619SOL     OW19369   0.113   2.599   5.321
 2619SOL    HW119370   0.201   2.586   5.366
 2619SOL    HW219371   0.100   2.696   5.299
 2620SOL     OW19372   0.613   3.227   4.450
 2620SOL    HW119373   0.564   3.140   4.459
 2620SOL    HW219374   0.590   3.270   4.363
 2621SOL     OW19375   1.293   3.090   5.147
 2621SOL    HW119376   1.330   3.017   5.089
 2621SOL    HW219377   1.345   3.095   5.232
 2622SOL     OW19378   0.809   1.866   4.226
 2622SOL    HW119379   0.849   1.957   4.217
 2622SOL    HW219380   0.709   1.874   4.232
 2623SOL     OW19381   0.197   2.838   4.988
 2623SOL    HW119382   0.286   2.793   4.974
 2623SOL    HW219383   0.124   2.773   4.969
 2624SOL     OW19384   1.525   2.861   3.914
 2624SOL    HW119385   1.462   2.785   3.927
 2624SOL    HW219386   1.573   2.879   4.000
 2625SOL     OW19387   1.187   3.654   5.340
 2625SOL    HW119388   1.211   3.714   5.264
 2625SOL    HW219389   1.194   3.559   5.310
 2626SOL     OW19390   0.317   2.113   5.525
 2626SOL    HW119391   0.388   2.184   5.531
 2626SOL    HW219392   0.229   2.152   5.553
 2627SOL     OW19393   1.466   3.279   4.677
 2627SOL    HW119394   1.407   3.285   4.757
 2627SOL    HW219395   1.451   3.191   4.631
 2628SOL     OW19396   1.667   3.576   4.296
 2628SOL    HW119397   1.626   3.553   4.208
 2628SOL    HW219398   1.649   3.502   4.361
 2629SOL     OW19399   0.598   2.591   3.994
 2629SOL    HW119400   0.622   2.660   3.926
 2629SOL    HW219401   0.520   2.624   4.048
 2630SOL     OW19402   1.281   2.207   4.668
 2630SOL    HW119403   1.195   2.157   4.655
 2630SOL    HW219404   1.343   2.153   4.724
 2631SOL     OW19405   1.576   3.524   4.031
 2631SOL    HW119406   1.665   3.570   4.034
 2631SOL    HW219407   1.555   3.500   3.936
 2632SOL     OW19408   0.807   2.467   5.189
 2632SOL    HW119409   0.760   2.464   5.278
 2632SOL    HW219410   0.756   2.412   5.123
 2633SOL     OW19411   1.394   2.331   5.398
 2633SOL    HW119412   1.374   2.374   5.486
 2633SOL    HW219413   1.472   2.269   5.407
 2634SOL     OW19414   0.973   2.752   5.296
 2634SOL    HW119415   1.019   2.668   5.267
 2634SOL    HW219416   0.917   2.786   5.221
 2635SOL     OW19417   0.991   2.272   4.966
 2635SOL    HW119418   0.914   2.306   5.020
 2635SOL    HW219419   0.957   2.221   4.887
 2636SOL     OW19420   1.041   2.563   4.153
 2636SOL    HW119421   1.067   2.559   4.249
 2636SOL    HW219422   0.956   2.512   4.139
 2637SOL     OW19423   0.076   2.673   4.513
 2637SOL    HW119424   0.175   2.661   4.522
 2637SOL    HW219425   0.052   2.768   4.534
 2638SOL     OW19426   0.130   3.683   5.295
 2638SOL    HW119427   0.120   3.668   5.394
 2638SOL    HW219428   0.044   3.719   5.259
 2639SOL     OW19429   0.865   2.210   3.919
 2639SOL    HW119430   0.924   2.273   3.870
 2639SOL    HW219431   0.884   2.116   3.890
 2640SOL     OW19432   1.719   2.447   5.555
 2640SOL    HW119433   1.693   2.536   5.519
 2640SOL    HW219434   1.717   2.379   5.482
 2641SOL     OW19435   1.362   3.006   4.269
 2641SOL    HW119436   1.445   2.977   4.221
 2641SOL    HW219437   1.313   3.073   4.213
 2642SOL     OW19438   0.550   2.058   4.609
 2642SOL    HW119439   0.545   2.053   4.709
 2642SOL    HW219440   0.552   2.154   4.580
 2643SOL     OW19441   1.008   3.318   4.201
 2643SOL    HW119442   0.962   3.390   4.149
 2643SOL    HW219443   1.004   3.338   4.299
 2644SOL     OW19444   0.351   3.663   4.577
 2644SOL    HW119445   0.401   3.577   4.583
 2644SOL    HW219446   0.416   3.740   4.574
 2645SOL     OW19447   1.795   2.928   4.597
 2645SOL    HW119448   1.733   2.913   4.521
 2645SOL    HW219449   1.743   2.939   4.682
 2646SOL     OW19450   1.227   3.412   5.230
 2646SOL    HW119451   1.233   3.335   5.294
 2646SOL    HW219452   1.175   3.386   5.150
 2647SOL     OW19453   0.321   2.805   3.966
 2647SOL    HW119454   0.403   2.844   3.924
 2647SOL    HW219455   0.294   2.723   3.917
 2648SOL     OW19456   1.458   2.597   4.452
 2648SOL    HW119457   1.453   2.532   4.527
 2648SOL    HW219458   1.538   2.656   4.465
 2649SOL     OW19459   0.461   3.128   5.451
 2649SOL    HW119460   0.411   3.129   5.365
 2649SOL    HW219461   0.398   3.110   5.527
 2650SOL     OW19462   1.111   3.638   3.961
 2650SOL    HW119463   1.051   3.576   4.011
 2650SOL    HW219464   1.142   3.594   3.876
 2651SOL     OW19465   0.202   2.147   5.222
 2651SOL    HW119466   0.122   2.207   5.209
 2651SOL    HW219467   0.192   2.098   5.308
 2652SOL     OW19468   1.632   3.239   3.805
 2652SOL    HW119469   1.600   3.333   3.795
 2652SOL    HW219470   1.556   3.176   3.793
 2653SOL     OW19471   0.464   3.605   4.047
 2653SOL    HW119472   0.497   3.644   4.133
 2653SOL    HW219473   0.540   3.598   3.982
 2654SOL     OW19474   1.400   1.969   4.150
 2654SOL    HW119475   1.376   1.932   4.060
 2654SOL    HW219476   1.499   1.985   4.154
 2655SOL     OW19477   0.249   3.647   4.965
 2655SOL    HW119478   0.306   3.582   5.015
 2655SOL    HW219479   0.233   3.614   4.872
 2656SOL     OW19480   0.940   3.560   4.628
 2656SOL    HW119481   1.020   3.503   4.649
 2656SOL    HW219482   0.891   3.520   4.551
 2657SOL     OW19483   0.382   2.562   4.204
 2657SOL    HW119484   0.427   2.472   4.201
 2657SOL    HW219485   0.288   2.551   4.237
 2658SOL     OW19486   1.547   2.084   5.453
 2658SOL    HW119487   1.542   2.121   5.545
 2658SOL    HW219488   1.475   2.015   5.441
 2659SOL     OW19489   0.614   1.984   3.841
 2659SOL    HW119490   0.712   1.962   3.848
 2659SOL    HW219491   0.583   1.967   3.748
 2660SOL     OW19492   0.781   2.126   5.473
 2660SOL    HW119493   0.848   2.065   5.516
 2660SOL    HW219494   0.708   2.145   5.538
 2661SOL     OW19495   0.888   3.376   4.919
 2661SOL    HW119496   0.865   3.351   4.825
 2661SOL    HW219497   0.949   3.307   4.958
 2662SOL     OW19498   1.351   2.452   5.157
 2662SOL    HW119499   1.379   2.409   5.242
 2662SOL    HW219500   1.376   2.548   5.158
 2663SOL     OW19501   0.803   3.264   4.648
 2663SOL    HW119502   0.893   3.278   4.606
 2663SOL    HW219503   0.732   3.266   4.577
 2664SOL     OW19504   0.922   2.365   4.623
 2664SOL    HW119505   0.897   2.356   4.527
 2664SOL    HW219506   0.970   2.283   4.654
 2665SOL     OW19507   0.539   1.926   4.236
 2665SOL    HW119508   0.458   1.927   4.294
 2665SOL    HW219509   0.542   2.009   4.181
 2666SOL     OW19510   1.434   3.050   3.765
 2666SOL    HW119511   1.466   2.974   3.822
 2666SOL    HW219512   1.342   3.077   3.795
 2667SOL     OW19513   0.297   1.897   3.895
 2667SOL    HW119514   0.346   1.981   3.874
 2667SOL    HW219515   0.359   1.832   3.940
 2668SOL     OW19516   0.935   2.098   4.204
 2668SOL    HW119517   0.887   2.139   4.126
 2668SOL    HW219518   1.034   2.096   4.185
 2669SOL     OW19519   1.076   2.545   5.188
 2669SOL    HW119520   0.996   2.484   5.191
 2669SOL    HW219521   1.157   2.492   5.164
 2670SOL     OW19522   1.227   3.432   4.517
 2670SOL    HW119523   1.248   3.506   4.452
 2670SOL    HW219524   1.295   3.432   4.590
 2671SOL     OW19525   0.459   3.014   4.465
 2671SOL    HW119526   0.388   2.987   4.530
 2671SOL    HW219527   0.433   2.986   4.372
 2672SOL     OW19528   1.271   3.659   4.315
 2672SOL    HW119529   1.315   3.723   4.251
 2672SOL    HW219530   1.221   3.711   4.385
 2673SOL     OW19531   1.032   2.411   3.740
 2673SOL    HW119532   0.991   2.493   3.701
 2673SOL    HW219533   1.096   2.437   3.813
 2674SOL     OW19534   0.078   2.418   5.110
 2674SOL    HW119535   0.170   2.417   5.069
 2674SOL    HW219536   0.072   2.492   5.177
 2675SOL     OW19537   0.561   2.084   4.871
 2675SOL    HW119538   0.599   2.000   4.908
 2675SOL    HW219539   0.473   2.103   4.915
 2676SOL     OW19540   0.866   2.316   4.366
 2676SOL    HW119541   0.834   2.388   4.304
 2676SOL    HW219542   0.890   2.235   4.313
 2677SOL     OW19543   1.017   1.901   4.477
 2677SOL    HW119544   0.945   1.906   4.408
 2677SOL    HW219545   0.993   1.832   4.546
 2678SOL     OW19546   1.429   3.035   4.591
 2678SOL    HW119547   1.374   2.951   4.584
 2678SOL    HW219548   1.455   3.064   4.499
 2679SOL     OW19549   1.466   2.452   4.716
 2679SOL    HW119550   1.436   2.357   4.723
 2679SOL    HW219551   1.539   2.468   4.782
 2680SOL     OW19552   1.857   2.695   4.101
 2680SOL    HW119553   1.899   2.631   4.165
 2680SOL    HW219554   1.819   2.644   4.023
 2681SOL     OW19555   0.488   3.247   3.898
 2681SOL    HW119556   0.401   3.232   3.945
 2681SOL    HW219557   0.471   3.273   3.803
 2682SOL     OW19558   1.664   3.142   4.381
 2682SOL    HW119559   1.763   3.150   4.395
 2682SOL    HW219560   1.619   3.226   4.412
 2683SOL     OW19561   1.390   2.437   3.802
 2683SOL    HW119562   1.336   2.416   3.883
 2683SOL    HW219563   1.481   2.396   3.811
 2684SOL     OW19564   0.527   2.118   4.052
 2684SOL    HW119565   0.554   2.059   3.977
 2684SOL    HW219566   0.527   2.213   4.021
 2685SOL     OW19567   1.754   3.085   5.312
 2685SOL    HW119568   1.845   3.046   5.299
 2685SOL    HW219569   1.762   3.181   5.336
 2686SOL     OW19570   1.064   3.209   5.064
 2686SOL    HW119571   0.984   3.186   5.119
 2686SOL    HW219572   1.147   3.183   5.113
 2687SOL     OW19573   1.592   3.491   5.349
 2687SOL    HW119574   1.619   3.525   5.259
 2687SOL    HW219575   1.671   3.453   5.395
 2688SOL     OW19576   1.111   3.057   4.824
 2688SOL    HW119577   1.071   3.101   4.905
 2688SOL    HW219578   1.070   3.094   4.741
 2689SOL     OW19579   1.638   2.961   4.803
 2689SOL    HW119580   1.643   3.042   4.862
 2689SOL    HW219581   1.552   2.963   4.752
 2690SOL     OW19582   0.915   1.951   5.126
 2690SOL    HW119583   0.940   1.931   5.031
 2690SOL    HW219584   0.987   2.007   5.168
 2691SOL     OW19585   0.980   2.978   5.443
 2691SOL    HW119586   0.881   2.984   5.453
 2691SOL    HW219587   1.003   2.898   5.387
 2692SOL     OW19588   0.705   2.912   4.092
 2692SOL    HW119589   0.691   2.919   4.191
 2692SOL    HW219590   0.789   2.861   4.074
 2693SOL     OW19591   0.410   2.675   4.975
 2693SOL    HW119592   0.496   2.687   5.025
 2693SOL    HW219593   0.368   2.588   5.002
 2694SOL     OW19594   1.274   2.248   4.986
 2694SOL    HW119595   1.295   2.322   5.050
 2694SOL    HW219596   1.185   2.265   4.943
 2695SOL     OW19597   0.064   3.426   5.055
 2695SOL    HW119598   0.018   3.508   5.021
 2695SOL    HW219599   0.162   3.445   5.064
 2696SOL     OW19600   0.367   2.962   4.225
 2696SOL    HW119601   0.360   3.045   4.169
 2696SOL    HW219602   0.371   2.882   4.165
 2697SOL     OW19603   0.566   2.399   4.589
 2697SOL    HW119604   0.578   2.465   4.515
 2697SOL    HW219605   0.612   2.433   4.672
 2698SOL     OW19606   1.252   3.210   4.112
 2698SOL    HW119607   1.302   3.287   4.152
 2698SOL    HW219608   1.157   3.212   4.144
 2699SOL     OW19609   1.272   3.307   4.866
 2699SOL    HW119610   1.319   3.320   4.953
 2699SOL    HW219611   1.206   3.233   4.875
 2700SOL     OW19612   1.582   2.501   4.196
 2700SOL    HW119613   1.551   2.562   4.269
 2700SOL    HW219614   1.632   2.553   4.127
 2701SOL     OW19615   0.354   3.372   5.053
 2701SOL    HW119616   0.333   3.328   4.966
 2701SOL    HW219617   0.451   3.398   5.056
 2702SOL     OW19618   0.402   2.613   5.322
 2702SOL    HW119619   0.470   2.668   5.275
 2702SOL    HW219620   0.442   2.525   5.349
 2703SOL     OW19621   1.587   2.641   5.394
 2703SOL    HW119622   1.495   2.679   5.389
 2703SOL    HW219623   1.647   2.688   5.329
 2704SOL     OW19624   1.013   1.967   5.494
 2704SOL    HW119625   1.019   2.052   5.442
 2704SOL    HW219626   1.045   1.891   5.437
 2705SOL     OW19627   0.504   1.912   5.464
 2705SOL    HW119628   0.462   1.855   5.394
 2705SOL    HW219629   0.438   1.981   5.496
 2706SOL     OW19630   0.573   2.732   4.753
 2706SOL    HW119631   0.617   2.821   4.744
 2706SOL    HW219632   0.510   2.732   4.830
 2707SOL     OW19633   1.360   2.724   4.769
 2707SOL    HW119634   1.285   2.724   4.703
 2707SOL    HW219635   1.397   2.632   4.778
 2708SOL     OW19636   1.209   2.387   3.999
 2708SOL    HW119637   1.222   2.303   4.053
 2708SOL    HW219638   1.180   2.461   4.059
 2709SOL     OW19639   0.307   2.075   4.955
 2709SOL    HW119640   0.284   2.112   5.045
 2709SOL    HW219641   0.277   1.980   4.949
 2710SOL     OW19642   0.037   3.172   5.006
 2710SOL    HW119643   0.090   3.123   5.074
 2710SOL    HW219644   0.059   3.270   5.011
 2711SOL     OW19645   0.732   2.496   4.788
 2711SOL    HW119646   0.791   2.470   4.712
 2711SOL    HW219647   0.704   2.592   4.777
 2712SOL     OW19648   1.728   2.797   5.578
 2712SOL    HW119649   1.682   2.790   5.489
 2712SOL    HW219650   1.666   2.841   5.644
 2713SOL     OW19651   0.307   1.925   4.342
 2713SOL    HW119652   0.296   2.019   4.375
 2713SOL    HW219653   0.302   1.862   4.419
 2714SOL     OW19654   1.622   2.229   4.098
 2714SOL    HW119655   1.624   2.153   4.162
 2714SOL    HW219656   1.574   2.306   4.138
 2715SOL     OW19657   1.023   2.628   4.690
 2715SOL    HW119658   1.038   2.649   4.786
 2715SOL    HW219659   0.993   2.533   4.681
 2716SOL     OW19660   0.980   3.435   5.424
 2716SOL    HW119661   0.960   3.479   5.336
 2716SOL    HW219662   1.019   3.344   5.408
 2717SOL     OW19663   1.859   3.380   5.329
 2717SOL    HW119664   1.873   3.407   5.234
 2717SOL    HW219665   1.942   3.402   5.382
 2718SOL     OW19666   0.350   2.760   5.528
 2718SOL    HW119667   0.426   2.804   5.576
 2718SOL    HW219668   0.385   2.713   5.446
 2719SOL     OW19669   1.540   2.136   3.849
 2719SOL    HW119670   1.479   2.061   3.872
 2719SOL    HW219671   1.562   2.188   3.932
 2720SOL     OW19672   1.303   2.700   3.766
 2720SOL    HW119673   1.337   2.607   3.781
 2720SOL    HW219674   1.321   2.727   3.671
 2721SOL     OW19675   1.068   3.195   4.573
 2721SOL    HW119676   1.075   3.111   4.518
 2721SOL    HW219677   1.130   3.264   4.537
 2722SOL     OW19678   0.319   2.672   4.673
 2722SOL    HW119679   0.412   2.708   4.678
 2722SOL    HW219680   0.313   2.587   4.725
 2723SOL     OW19681   0.339   2.371   4.730
 2723SOL    HW119682   0.287   2.288   4.713
 2723SOL    HW219683   0.416   2.376   4.666
 2724SOL     OW19684   1.138   2.242   5.402
 2724SOL    HW119685   1.093   2.305   5.466
 2724SOL    HW219686   1.231   2.273   5.385
 2725SOL     OW19687   1.160   2.069   5.201
 2725SOL    HW119688   1.160   2.133   5.278
 2725SOL    HW219689   1.188   2.117   5.118
 2726SOL     OW19690   0.008   3.188   3.924
 2726SOL    HW119691  -0.085   3.209   3.893
 2726SOL    HW219692   0.018   3.089   3.937
 2727SOL     OW19693   0.088   3.663   4.651
 2727SOL    HW119694   0.046   3.577   4.624
 2727SOL    HW219695   0.182   3.666   4.617
 2728SOL     OW19696   0.504   3.430   4.634
 2728SOL    HW119697   0.570   3.504   4.643
 2728SOL    HW219698   0.548   3.351   4.592
 2729SOL     OW19699   1.002   2.658   4.962
 2729SOL    HW119700   1.043   2.626   5.048
 2729SOL    HW219701   0.906   2.631   4.959
 2730SOL     OW19702   0.040   2.406   4.838
 2730SOL    HW119703   0.125   2.373   4.797
 2730SOL    HW219704   0.053   2.421   4.936
 2731SOL     OW19705   0.189   2.382   5.446
 2731SOL    HW119706   0.248   2.342   5.376
 2731SOL    HW219707   0.131   2.453   5.405
 2732SOL     OW19708   1.369   2.812   5.384
 2732SOL    HW119709   1.408   2.901   5.404
 2732SOL    HW219710   1.379   2.792   5.287
 2733SOL     OW19711   0.815   2.434   4.049
 2733SOL    HW119712   0.822   2.345   4.003
 2733SOL    HW219713   0.721   2.468   4.041
 2734SOL     OW19714   1.657   2.466   4.930
 2734SOL    HW119715   1.619   2.397   4.992
 2734SOL    HW219716   1.739   2.430   4.886
 2735SOL     OW19717   0.252   3.426   5.468
 2735SOL    HW119718   0.222   3.483   5.544
 2735SOL    HW219719   0.245   3.329   5.494
 2736SOL     OW19720   0.671   2.326   4.993
 2736SOL    HW119721   0.637   2.237   4.963
 2736SOL    HW219722   0.697   2.380   4.913
 2737SOL     OW19723   0.930   3.540   5.189
 2737SOL    HW119724   0.906   3.522   5.094
 2737SOL    HW219725   0.960   3.634   5.199
 2738SOL     OW19726   0.473   2.362   3.915
 2738SOL    HW119727   0.534   2.442   3.919
 2738SOL    HW219728   0.378   2.393   3.922
 2739SOL     OW19729   0.159   2.999   5.190
 2739SOL    HW119730   0.181   2.938   5.266
 2739SOL    HW219731   0.169   2.950   5.104
 2740SOL     OW19732   1.347   2.921   4.958
 2740SOL    HW119733   1.371   2.858   4.884
 2740SOL    HW219734   1.257   2.961   4.940
 2741SOL     OW19735   1.302   2.717   4.033
 2741SOL    HW119736   1.216   2.686   4.075
 2741SOL    HW219737   1.298   2.703   3.934
 2742SOL     OW19738   1.759   3.609   4.878
 2742SOL    HW119739   1.820   3.639   4.805
 2742SOL    HW219740   1.721   3.520   4.856
 2743SOL     OW19741   1.252   3.593   4.852
 2743SOL    HW119742   1.336   3.598   4.798
 2743SOL    HW219743   1.229   3.497   4.870
 2744SOL     OW19744   0.083   3.120   4.746
 2744SOL    HW119745   0.078   3.119   4.846
 2744SOL    HW219746   0.000   3.079   4.708
 2745SOL     OW19747   0.688   3.524   5.440
 2745SOL    HW119748   0.632   3.605   5.449
 2745SOL    HW219749   0.740   3.528   5.354
 2746SOL     OW19750   1.726   1.997   4.247
 2746SOL    HW119751   1.799   1.980   4.180
 2746SOL    HW219752   1.695   1.910   4.285
 2747SOL     OW19753   1.388   3.435   4.201
 2747SOL    HW119754   1.455   3.447   4.127
 2747SOL    HW219755   1.348   3.524   4.224
 2748SOL     OW19756   0.130   3.656   5.575
 2748SOL    HW119757   0.089   3.582   5.628
 2748SOL    HW219758   0.194   3.707   5.633
 2749SOL     OW19759   1.280   2.789   4.396
 2749SOL    HW119760   1.340   2.708   4.398
 2749SOL    HW219761   1.320   2.858   4.336
 2750SOL     OW19762   0.830   3.135   5.146
 2750SOL    HW119763   0.825   3.168   5.241
 2750SOL    HW219764   0.744   3.154   5.100
 2751SOL     OW19765   0.672   3.478   3.878
 2751SOL    HW119766   0.681   3.488   3.779
 2751SOL    HW219767   0.632   3.389   3.899
 2752SOL     OW19768   1.650   3.582   5.118
 2752SOL    HW119769   1.703   3.592   5.034
 2752SOL    HW219770   1.623   3.672   5.152
 2753SOL     OW19771   1.841   2.037   4.687
 2753SOL    HW119772   1.880   1.952   4.651
 2753SOL    HW219773   1.743   2.039   4.668
 2754SOL     OW19774   0.263   2.188   4.444
 2754SOL    HW119775   0.184   2.239   4.410
 2754SOL    HW219776   0.254   2.173   4.542
 2755SOL     OW19777   1.194   3.474   3.755
 2755SOL    HW119778   1.200   3.381   3.792
 2755SOL    HW219779   1.135   3.474   3.675
 2756SOL     OW19780   0.822   2.864   5.096
 2756SOL    HW119781   0.862   2.863   5.004
 2756SOL    HW219782   0.832   2.956   5.136
 2757SOL     OW19783   0.916   2.772   4.015
 2757SOL    HW119784   0.979   2.810   3.947
 2757SOL    HW219785   0.956   2.689   4.054
 2758SOL     OW19786   1.504   3.469   3.768
 2758SOL    HW119787   1.412   3.506   3.775
 2758SOL    HW219788   1.542   3.489   3.678
 2759SOL     OW19789   0.372   3.150   5.214
 2759SOL    HW119790   0.359   3.243   5.180
 2759SOL    HW219791   0.288   3.098   5.201
 2760SOL     OW19792   1.614   3.154   5.013
 2760SOL    HW119793   1.674   3.157   5.093
 2760SOL    HW219794   1.539   3.218   5.026
 2761SOL     OW19795   1.039   2.960   4.420
 2761SOL    HW119796   0.969   2.913   4.474
 2761SOL    HW219797   1.098   2.892   4.377
 2762SOL     OW19798   1.014   2.098   4.695
 2762SOL    HW119799   1.006   2.062   4.602
 2762SOL    HW219800   1.012   2.022   4.760
 2763SOL     OW19801   0.590   3.349   4.215
 2763SOL    HW119802   0.632   3.291   4.145
 2763SOL    HW219803   0.546   3.428   4.171
 2764SOL     OW19804   1.709   2.247   5.105
 2764SOL    HW119805   1.782   2.316   5.109
 2764SOL    HW219806   1.737   2.172   5.046
 2765SOL     OW19807   0.255   3.210   4.014
 2765SOL    HW119808   0.159   3.211   3.987
 2765SOL    HW219809   0.267   3.263   4.098
 2766SOL     OW19810   0.105   2.875   5.450
 2766SOL    HW119811   0.028   2.842   5.504
 2766SOL    HW219812   0.190   2.845   5.492
 2767SOL     OW19813   0.672   2.065   5.213
 2767SOL    HW119814   0.762   2.049   5.173
 2767SOL    HW219815   0.680   2.070   5.312
 2768SOL     OW19816   0.075   2.207   3.757
 2768SOL    HW119817  -0.017   2.179   3.728
 2768SOL    HW219818   0.106   2.284   3.701
 2769SOL     OW19819   1.440   2.718   5.122
 2769SOL    HW119820   1.383   2.770   5.059
 2769SOL    HW219821   1.536   2.730   5.098
 2770SOL     OW19822   0.072   2.028   4.042
 2770SOL    HW119823   0.055   2.111   3.988
 2770SOL    HW219824   0.162   1.991   4.020
 2771SOL     OW19825   1.183   3.197   3.843
 2771SOL    HW119826   1.084   3.186   3.845
 2771SOL    HW219827   1.217   3.212   3.936
 2772SOL     OW19828   0.613   2.704   5.155
 2772SOL    HW119829   0.669   2.785   5.138
 2772SOL    HW219830   0.672   2.624   5.158
 2773SOL     OW19831   1.493   3.629   4.683
 2773SOL    HW119832   1.526   3.693   4.614
 2773SOL    HW219833   1.559   3.623   4.758
 2774SOL     OW19834   0.716   2.427   5.432
 2774SOL    HW119835   0.735   2.492   5.506
 2774SOL    HW219836   0.776   2.347   5.441
 2775SOL     OW19837   1.450   3.082   5.357
 2775SOL    HW119838   1.441   3.072   5.456
 2775SOL    HW219839   1.546   3.075   5.331
 2776SOL     OW19840   0.390   3.603   5.284
 2776SOL    HW119841   0.299   3.644   5.282
 2776SOL    HW219842   0.383   3.509   5.316
 2777SOL     OW19843   1.674   2.745   4.978
 2777SOL    HW119844   1.647   2.656   4.941
 2777SOL    HW219845   1.675   2.813   4.905
 2778SOL     OW19846   1.225   2.187   4.173
 2778SOL    HW119847   1.290   2.113   4.162
 2778SOL    HW219848   1.245   2.237   4.257
 2779SOL     OW19849   0.594   2.607   4.376
 2779SOL    HW119850   0.644   2.692   4.357
 2779SOL    HW219851   0.506   2.609   4.328
 2780SOL     OW19852   1.777   2.204   5.366
 2780SOL    HW119853   1.760   2.235   5.272
 2780SOL    HW219854   1.693   2.167   5.404
 2781SOL     OW19855   1.730   2.796   5.241
 2781SOL    HW119856   1.768   2.887   5.256
 2781SOL    HW219857   1.722   2.779   5.142
 2782SOL     OW19858   0.859   3.236   3.740
 2782SOL    HW119859   0.813   3.251   3.828
 2782SOL    HW219860   0.903   3.321   3.710
 2783SOL     OW19861   0.661   3.652   4.677
 2783SOL    HW119862   0.615   3.740   4.664
 2783SOL    HW219863   0.760   3.664   4.670
 2784SOL     OW19864   0.859   2.818   4.585
 2784SOL    HW119865   0.913   2.749   4.633
 2784SOL    HW219866   0.827   2.887   4.651
 2785SOL     OW19867   1.083   2.846   3.811
 2785SOL    HW119868   1.060   2.899   3.729
 2785SOL    HW219869   1.164   2.790   3.792
 2786SOL     OW19870   1.861   3.431   4.575
 2786SOL    HW119871   1.790   3.419   4.505
 2786SOL    HW219872   1.862   3.352   4.635
 2787SOL     OW19873   0.221   3.176   5.568
 2787SOL    HW119874   0.156   3.103   5.547
 2787SOL    HW219875   0.225   3.190   5.666
 2788SOL     OW19876   0.079   3.102   4.377
 2788SOL    HW119877   0.078   3.055   4.465
 2788SOL    HW219878   0.161   3.074   4.326
 2789SOL     OW19879   0.672   3.253   5.348
 2789SOL    HW119880   0.594   3.203   5.386
 2789SOL    HW219881   0.669   3.348   5.379
 2790SOL     OW19882   1.824   2.054   4.951
 2790SOL    HW119883   1.820   1.964   4.995
 2790SOL    HW219884   1.827   2.043   4.852
 2791SOL     OW19885   0.428   2.286   4.244
 2791SOL    HW119886   0.458   2.214   4.182
 2791SOL    HW219887   0.389   2.246   4.327
 2792SOL     OW19888   1.705   3.349   4.828
 2792SOL    HW119889   1.612   3.324   4.801
 2792SOL    HW219890   1.731   3.299   4.910
 2793SOL     OW19891   0.317   2.409   5.004
 2793SOL    HW119892   0.355   2.350   5.076
 2793SOL    HW219893   0.357   2.383   4.916
 2794SOL     OW19894   0.812   3.448   4.411
 2794SOL    HW119895   0.844   3.458   4.317
 2794SOL    HW219896   0.733   3.386   4.413
 2795SOL     OW19897   1.424   2.076   4.836
 2795SOL    HW119898   1.476   2.011   4.891
 2795SOL    HW219899   1.375   2.139   4.897
 2796SOL     OW19900   1.001   1.896   4.878
 2796SOL    HW119901   0.938   1.824   4.847
 2796SOL    HW219902   1.094   1.860   4.878
 2797SOL     OW19903   0.770   3.192   4.025
 2797SOL    HW119904   0.724   3.105   4.042
 2797SOL    HW219905   0.861   3.189   4.066
 2798SOL     OW19906   0.618   3.429   5.008
 2798SOL    HW119907   0.613   3.511   5.065
 2798SOL    HW219908   0.707   3.426   4.963
 2799SOL     OW19909   1.352   1.914   3.892
 2799SOL    HW119910   1.387   1.873   3.808
 2799SOL    HW219911   1.262   1.876   3.912
 2800SOL     OW19912   1.300   2.315   4.415
 2800SOL    HW119913   1.241   2.395   4.419
 2800SOL    HW219914   1.315   2.280   4.508
 2801SOL     OW19915   1.593   2.083   4.606
 2801SOL    HW119916   1.509   2.082   4.660
 2801SOL    HW219917   1.595   2.166   4.550
 2802SOL     OW19918   0.039   2.939   4.024
 2802SOL    HW119919   0.138   2.928   4.015
 2802SOL    HW219920  -0.001   2.853   4.056
 2803SOL     OW19921   0.875   3.508   4.061
 2803SOL    HW119922   0.798   3.473   4.007
 2803SOL    HW219923   0.843   3.579   4.123
 2804SOL     OW19924   0.230   2.490   5.699
 2804SOL    HW119925   0.137   2.488   5.736
 2804SOL    HW219926   0.231   2.451   5.607
 2805SOL     OW19927   0.225   2.137   6.582
 2805SOL    HW119928   0.260   2.120   6.674
 2805SOL    HW219929   0.137   2.092   6.570
 2806SOL     OW19930   0.019   2.230   6.233
 2806SOL    HW119931  -0.063   2.273   6.272
 2806SOL    HW219932  -0.009   2.157   6.170
 2807SOL     OW19933   0.569   3.137   6.751
 2807SOL    HW119934   0.476   3.130   6.714
 2807SOL    HW219935   0.580   3.226   6.795
 2808SOL     OW19936   1.555   3.373   6.289
 2808SOL    HW119937   1.498   3.357   6.370
 2808SOL    HW219938   1.496   3.383   6.209
 2809SOL     OW19939   1.135   2.565   6.303
 2809SOL    HW119940   1.192   2.643   6.278
 2809SOL    HW219941   1.075   2.591   6.379
 2810SOL     OW19942   1.755   2.469   5.817
 2810SOL    HW119943   1.743   2.456   5.718
 2810SOL    HW219944   1.725   2.388   5.866
 2811SOL     OW19945   0.768   3.006   6.609
 2811SOL    HW119946   0.690   3.023   6.669
 2811SOL    HW219947   0.802   3.093   6.573
 2812SOL     OW19948   0.850   2.660   7.409
 2812SOL    HW119949   0.846   2.736   7.474
 2812SOL    HW219950   0.872   2.696   7.318
 2813SOL     OW19951   0.685   2.874   6.251
 2813SOL    HW119952   0.754   2.858   6.321
 2813SOL    HW219953   0.612   2.931   6.289
 2814SOL     OW19954   0.686   3.023   7.389
 2814SOL    HW119955   0.746   3.102   7.403
 2814SOL    HW219956   0.600   3.054   7.348
 2815SOL     OW19957   0.335   3.297   6.647
 2815SOL    HW119958   0.257   3.266   6.594
 2815SOL    HW219959   0.393   3.355   6.590
 2816SOL     OW19960   1.460   3.367   6.925
 2816SOL    HW119961   1.484   3.461   6.951
 2816SOL    HW219962   1.444   3.313   7.007
 2817SOL     OW19963   0.438   2.254   7.085
 2817SOL    HW119964   0.520   2.198   7.094
 2817SOL    HW219965   0.357   2.196   7.089
 2818SOL     OW19966   1.603   2.309   6.323
 2818SOL    HW119967   1.529   2.355   6.273
 2818SOL    HW219968   1.654   2.377   6.376
 2819SOL     OW19969   0.231   3.575   6.069
 2819SOL    HW119970   0.265   3.652   6.123
 2819SOL    HW219971   0.275   3.575   5.979
 2820SOL     OW19972   1.127   3.203   7.276
 2820SOL    HW119973   1.174   3.203   7.364
 2820SOL    HW219974   1.079   3.116   7.265
 2821SOL     OW19975   0.230   3.296   6.124
 2821SOL    HW119976   0.204   3.392   6.124
 2821SOL    HW219977   0.159   3.242   6.169
 2822SOL     OW19978   0.240   2.953   6.472
 2822SOL    HW119979   0.254   2.869   6.524
 2822SOL    HW219980   0.185   3.017   6.527
 2823SOL     OW19981   0.620   3.648   7.025
 2823SOL    HW119982   0.528   3.631   7.060
 2823SOL    HW219983   0.648   3.740   7.051
 2824SOL     OW19984   0.606   2.826   5.709
 2824SOL    HW119985   0.613   2.910   5.655
 2824SOL    HW219986   0.652   2.839   5.797
 2825SOL     OW19987   1.594   1.976   7.066
 2825SOL    HW119988   1.576   2.043   6.994
 2825SOL    HW219989   1.591   2.022   7.155
 2826SOL     OW19990   0.122   2.505   6.149
 2826SOL    HW119991   0.077   2.417   6.166
 2826SOL    HW219992   0.121   2.559   6.233
 2827SOL     OW19993   1.842   3.629   5.945
 2827SOL    HW119994   1.896   3.600   6.025
 2827SOL    HW219995   1.872   3.719   5.916
 2828SOL     OW19996   0.027   3.458   5.703
 2828SOL    HW119997   0.008   3.362   5.724
 2828SOL    HW219998  -0.006   3.516   5.778
 2829SOL     OW19999   1.689   2.784   6.198
 2829SOL    HW120000   1.784   2.755   6.206
 2829SOL    HW220001   1.681   2.849   6.123
 2830SOL     OW20002   1.641   2.970   6.018
 2830SOL    HW120003   1.727   2.972   5.966
 2830SOL    HW220004   1.655   3.017   6.106
 2831SOL     OW20005   0.113   2.599   7.183
 2831SOL    HW120006   0.201   2.586   7.228
 2831SOL    HW220007   0.100   2.696   7.161
 2832SOL     OW20008   0.613   3.227   6.312
 2832SOL    HW120009   0.564   3.140   6.321
 2832SOL    HW220010   0.590   3.270   6.225
 2833SOL     OW20011   1.293   3.090   7.009
 2833SOL    HW120012   1.330   3.017   6.951
 2833SOL    HW220013   1.345   3.095   7.094
 2834SOL     OW20014   0.809   1.866   6.088
 2834SOL    HW120015   0.849   1.957   6.079
 2834SOL    HW220016   0.709   1.874   6.094
 2835SOL     OW20017   0.197   2.838   6.850
 2835SOL    HW120018   0.286   2.793   6.836
 2835SOL    HW220019   0.124   2.773   6.831
 2836SOL     OW20020   1.525   2.861   5.776
 2836SOL    HW120021   1.462   2.785   5.789
 2836SOL    HW220022   1.573   2.879   5.862
 2837SOL     OW20023   1.187   3.654   7.202
 2837SOL    HW120024   1.211   3.714   7.126
 2837SOL    HW220025   1.194   3.559   7.172
 2838SOL     OW20026   0.317   2.113   7.387
 2838SOL    HW120027   0.388   2.184   7.393
 2838SOL    HW220028   0.229   2.152   7.415
 2839SOL     OW20029   1.466   3.279   6.539
 2839SOL    HW120030   1.407   3.285   6.619
 2839SOL    HW220031   1.451   3.191   6.493
 2840SOL     OW20032   1.667   3.576   6.158
 2840SOL    HW120033   1.626   3.553   6.070
 2840SOL    HW220034   1.649   3.502   6.223
 2841SOL     OW20035   0.598   2.591   5.856
 2841SOL    HW120036   0.622   2.660   5.788
 2841SOL    HW220037   0.520   2.624   5.910
 2842SOL     OW20038   1.281   2.207   6.530
 2842SOL    HW120039   1.195   2.157   6.517
 2842SOL    HW220040   1.343   2.153   6.586
 2843SOL     OW20041   1.576   3.524   5.893
 2843SOL    HW120042   1.665   3.570   5.896
 2843SOL    HW220043   1.555   3.500   5.798
 2844SOL     OW20044   0.807   2.467   7.051
 2844SOL    HW120045   0.760   2.464   7.140
 2844SOL    HW220046   0.756   2.412   6.985
 2845SOL     OW20047   1.394   2.331   7.260
 2845SOL    HW120048   1.374   2.374   7.348
 2845SOL    HW220049   1.472   2.269   7.269
 2846SOL     OW20050   0.973   2.752   7.158
 2846SOL    HW120051   1.019   2.668   7.129
 2846SOL    HW220052   0.917   2.786   7.083
 2847SOL     OW20053   0.991   2.272   6.828
 2847SOL    HW120054   0.914   2.306   6.882
 2847SOL    HW220055   0.957   2.221   6.749
 2848SOL     OW20056   1.041   2.563   6.015
 2848SOL    HW120057   1.067   2.559   6.111
 2848SOL    HW220058   0.956   2.512   6.001
 2849SOL     OW20059   0.076   2.673   6.375
 2849SOL    HW120060   0.175   2.661   6.384
 2849SOL    HW220061   0.052   2.768   6.396
 2850SOL     OW20062   0.130   3.683   7.157
 2850SOL    HW120063   0.120   3.668   7.256
 2850SOL    HW220064   0.044   3.719   7.121
 2851SOL     OW20065   0.865   2.210   5.781
 2851SOL    HW120066   0.924   2.273   5.732
 2851SOL    HW220067   0.884   2.116   5.752
 2852SOL     OW20068   1.719   2.447   7.417
 2852SOL    HW120069   1.693   2.536   7.381
 2852SOL    HW220070   1.717   2.379   7.344
 2853SOL     OW20071   1.362   3.006   6.131
 2853SOL    HW120072   1.445   2.977   6.083
 2853SOL    HW220073   1.313   3.073   6.075
 2854SOL     OW20074   0.550   2.058   6.471
 2854SOL    HW120075   0.545   2.053   6.571
 2854SOL    HW220076   0.552   2.154   6.442
 2855SOL     OW20077   1.008   3.318   6.063
 2855SOL    HW120078   0.962   3.390   6.011
 2855SOL    HW220079   1.004   3.338   6.161
 2856SOL     OW20080   0.351   3.663   6.439
 2856SOL    HW120081   0.401   3.577   6.445
 2856SOL    HW220082   0.416   3.740   6.436
 2857SOL     OW20083   1.795   2.928   6.459
 2857SOL    HW120084   1.733   2.913   6.383
 2857SOL    HW220085   1.743   2.939   6.544
 2858SOL     OW20086   1.227   3.412   7.092
 2858SOL    HW120087   1.233   3.335   7.156
 2858SOL    HW220088   1.175   3.386   7.012
 2859SOL     OW20089   0.321   2.805   5.828
 2859SOL    HW120090   0.403   2.844   5.786
 2859SOL    HW220091   0.294   2.723   5.779
 2860SOL     OW20092   1.458   2.597   6.314
 2860SOL    HW120093   1.453   2.532   6.389
 2860SOL    HW220094   1.538   2.656   6.327
 2861SOL     OW20095   0.461   3.128   7.313
 2861SOL    HW120096   0.411   3.129   7.227
 2861SOL    HW220097   0.398   3.110   7.389
 2862SOL     OW20098   1.111   3.638   5.823
 2862SOL    HW120099   1.051   3.576   5.873
 2862SOL    HW220100   1.142   3.594   5.738
 2863SOL     OW20101   0.202   2.147   7.084
 2863SOL    HW120102   0.122   2.207   7.071
 2863SOL    HW220103   0.192   2.098   7.170
 2864SOL     OW20104   1.632   3.239   5.667
 2864SOL    HW120105   1.600   3.333   5.657
 2864SOL    HW220106   1.556   3.176   5.655
 2865SOL     OW20107   0.464   3.605   5.909
 2865SOL    HW120108   0.497   3.644   5.995
 2865SOL    HW220109   0.540   3.598   5.844
 2866SOL     OW20110   1.400   1.969   6.012
 2866SOL    HW120111   1.376   1.932   5.922
 2866SOL    HW220112   1.499   1.985   6.016
 2867SOL     OW20113   0.249   3.647   6.827
 2867SOL    HW120114   0.306   3.582   6.877
 2867SOL    HW220115   0.233   3.614   6.734
 2868SOL     OW20116   0.940   3.560   6.490
 2868SOL    HW120117   1.020   3.503   6.511
 2868SOL    HW220118   0.891   3.520   6.413
 2869SOL     OW20119   0.382   2.562   6.066
 2869SOL    HW120120   0.427   2.472   6.063
 2869SOL    HW220121   0.288   2.551   6.099
 2870SOL     OW20122   1.547   2.084   7.315
 2870SOL    HW120123   1.542   2.121   7.407
 2870SOL    HW220124   1.475   2.015   7.303
 2871SOL     OW20125   0.614   1.984   5.703
 2871SOL    HW120126   0.712   1.962   5.710
 2871SOL    HW220127   0.583   1.967   5.610
 2872SOL     OW20128   0.781   2.126   7.335
 2872SOL    HW120129   0.848   2.065   7.378
 2872SOL    HW220130   0.708   2.145   7.400
 2873SOL     OW20131   0.888   3.376   6.781
 2873SOL    HW120132   0.865   3.351   6.687
 2873SOL    HW220133   0.949   3.307   6.820
 2874SOL     OW20134   1.351   2.452   7.019
 2874SOL    HW120135   1.379   2.409   7.104
 2874SOL    HW220136   1.376   2.548   7.020
 2875SOL     OW20137   0.803   3.264   6.510
 2875SOL    HW120138   0.893   3.278   6.468
 2875SOL    HW220139   0.732   3.266   6.439
 2876SOL     OW20140   0.922   2.365   6.485
 2876SOL    HW120141   0.897   2.356   6.389
 2876SOL    HW220142   0.970   2.283   6.516
 2877SOL     OW20143   0.539   1.926   6.098
 2877SOL    HW120144   0.458   1.927   6.156
 2877SOL    HW220145   0.542   2.009   6.043
 2878SOL     OW20146   1.434   3.050   5.627
 2878SOL    HW120147   1.466   2.974   5.684
 2878SOL    HW220148   1.342   3.077   5.657
 2879SOL     OW20149   0.297   1.897   5.757
 2879SOL    HW120150   0.346   1.981   5.736
 2879SOL    HW220151   0.359   1.832   5.802
 2880SOL     OW20152   0.935   2.098   6.066
 2880SOL    HW120153   0.887   2.139   5.988
 2880SOL    HW220154   1.034   2.096   6.047
 2881SOL     OW20155   1.076   2.545   7.050
 2881SOL    HW120156   0.996   2.484   7.053
 2881SOL    HW220157   1.157   2.492   7.026
 2882SOL     OW20158   1.227   3.432   6.379
 2882SOL    HW120159   1.248   3.506   6.314
 2882SOL    HW220160   1.295   3.432   6.452
 2883SOL     OW20161   0.459   3.014   6.327
 2883SOL    HW120162   0.388   2.987   6.392
 2883SOL    HW220163   0.433   2.986   6.234
 2884SOL     OW20164   1.271   3.659   6.177
 2884SOL    HW120165   1.315   3.723   6.113
 2884SOL    HW220166   1.221   3.711   6.247
 2885SOL     OW20167   1.032   2.411   5.602
 2885SOL    HW120168   0.991   2.493   5.563
 2885SOL    HW220169   1.096   2.437   5.675
 2886SOL     OW20170   0.078   2.418   6.972
 2886SOL    HW120171   0.170   2.417   6.931
 2886SOL    HW220172   0.072   2.492   7.039
 2887SOL     OW20173   0.561   2.084   6.733
 2887SOL    HW120174   0.599   2.000   6.770
 2887SOL    HW220175   0.473   2.103   6.777
 2888SOL     OW20176   0.866   2.316   6.228
 2888SOL    HW120177   0.834   2.388   6.166
 2888SOL    HW220178   0.890   2.235   6.175
 2889SOL     OW20179   1.017   1.901   6.339
 2889SOL    HW120180   0.945   1.906   6.270
 2889SOL    HW220181   0.993   1.832   6.408
 2890SOL     OW20182   1.429   3.035   6.453
 2890SOL    HW120183   1.374   2.951   6.446
 2890SOL    HW220184   1.455   3.064   6.361
 2891SOL     OW20185   1.466   2.452   6.578
 2891SOL    HW120186   1.436   2.357   6.585
 2891SOL    HW220187   1.539   2.468   6.644
 2892SOL     OW20188   1.857   2.695   5.963
 2892SOL    HW120189   1.899   2.631   6.027
 2892SOL    HW220190   1.819   2.644   5.885
 2893SOL     OW20191   0.488   3.247   5.760
 2893SOL    HW120192   0.401   3.232   5.807
 2893SOL    HW220193   0.471   3.273   5.665
 2894SOL     OW20194   1.664   3.142   6.243
 2894SOL    HW120195   1.763   3.150   6.257
 2894SOL    HW220196   1.619   3.226   6.274
 2895SOL     OW20197   1.390   2.437   5.664
 2895SOL    HW120198   1.336   2.416   5.745
 2895SOL    HW220199   1.481   2.396   5.673
 2896SOL     OW20200   0.527   2.118   5.914
 2896SOL    HW120201   0.554   2.059   5.839
 2896SOL    HW220202   0.527   2.213   5.883
 2897SOL     OW20203   1.754   3.085   7.174
 2897SOL    HW120204   1.845   3.046   7.161
 2897SOL    HW220205   1.762   3.181   7.198
 2898SOL     OW20206   1.064   3.209   6.926
 2898SOL    HW120207   0.984   3.186   6.981
 2898SOL    HW220208   1.147   3.183   6.975
 2899SOL     OW20209   1.592   3.491   7.211
 2899SOL    HW120210   1.619   3.525   7.121
 2899SOL    HW220211   1.671   3.453   7.257
 2900SOL     OW20212   1.111   3.057   6.686
 2900SOL    HW120213   1.071   3.101   6.767
 2900SOL    HW220214   1.070   3.094   6.603
 2901SOL     OW20215   1.638   2.961   6.665
 2901SOL    HW120216   1.643   3.042   6.724
 2901SOL    HW220217   1.552   2.963   6.614
 2902SOL     OW20218   0.915   1.951   6.988
 2902SOL    HW120219   0.940   1.931   6.893
 2902SOL    HW220220   0.987   2.007   7.030
 2903SOL     OW20221   0.980   2.978   7.305
 2903SOL    HW120222   0.881   2.984   7.315
 2903SOL    HW220223   1.003   2.898   7.249
 2904SOL     OW20224   0.705   2.912   5.954
 2904SOL    HW120225   0.691   2.919   6.053
 2904SOL    HW220226   0.789   2.861   5.936
 2905SOL     OW20227   0.410   2.675   6.837
 2905SOL    HW120228   0.496   2.687   6.887
 2905SOL    HW220229   0.368   2.588   6.864
 2906SOL     OW20230   1.274   2.248   6.848
 2906SOL    HW120231   1.295   2.322   6.912
 2906SOL    HW220232   1.185   2.265   6.805
 2907SOL     OW20233   0.064   3.426   6.917
 2907SOL    HW120234   0.018   3.508   6.883
 2907SOL    HW220235   0.162   3.445   6.926
 2908SOL     OW20236   0.367   2.962   6.087
 2908SOL    HW120237   0.360   3.045   6.031
 2908SOL    HW220238   0.371   2.882   6.027
 2909SOL     OW20239   0.566   2.399   6.451
 2909SOL    HW120240   0.578   2.465   6.377
 2909SOL    HW220241   0.612   2.433   6.534
 2910SOL     OW20242   1.252   3.210   5.974
 2910SOL    HW120243   1.302   3.287   6.014
 2910SOL    HW220244   1.157   3.212   6.006
 2911SOL     OW20245   1.272   3.307   6.728
 2911SOL    HW120246   1.319   3.320   6.815
 2911SOL    HW220247   1.206   3.233   6.737
 2912SOL     OW20248   1.582   2.501   6.058
 2912SOL    HW120249   1.551   2.562   6.131
 2912SOL    HW220250   1.632   2.553   5.989
 2913SOL     OW20251   0.354   3.372   6.915
 2913SOL    HW120252   0.333   3.328   6.828
 2913SOL    HW220253   0.451   3.398   6.918
 2914SOL     OW20254   0.402   2.613   7.184
 2914SOL    HW120255   0.470   2.668   7.137
 2914SOL    HW220256   0.442   2.525   7.211
 2915SOL     OW20257   1.587   2.641   7.256
 2915SOL    HW120258   1.495   2.679   7.251
 2915SOL    HW220259   1.647   2.688   7.191
 2916SOL     OW20260   1.013   1.967   7.356
 2916SOL    HW120261   1.019   2.052   7.304
 2916SOL    HW220262   1.045   1.891   7.299
 2917SOL     OW20263   0.504   1.912   7.326
 2917SOL    HW120264   0.462   1.855   7.256
 2917SOL    HW220265   0.438   1.981   7.358
 2918SOL     OW20266   0.573   2.732   6.615
 2918SOL    HW120267   0.617   2.821   6.606
 2918SOL    HW220268   0.510   2.732   6.692
 2919SOL     OW20269   1.360   2.724   6.631
 2919SOL    HW120270   1.285   2.724   6.565
 2919SOL    HW220271   1.397   2.632   6.640
 2920SOL     OW20272   1.209   2.387   5.861
 2920SOL    HW120273   1.222   2.303   5.915
 2920SOL    HW220274   1.180   2.461   5.921
 2921SOL     OW20275   0.307   2.075   6.817
 2921SOL    HW120276   0.284   2.112   6.907
 2921SOL    HW220277   0.277   1.980   6.811
 2922SOL     OW20278   0.037   3.172   6.868
 2922SOL    HW120279   0.090   3.123   6.936
 2922SOL    HW220280   0.059   3.270   6.873
 2923SOL     OW20281   0.732   2.496   6.650
 2923SOL    HW120282   0.791   2.470   6.574
 2923SOL    HW220283   0.704   2.592   6.639
 2924SOL     OW20284   1.728   2.797   7.440
 2924SOL    HW120285   1.682   2.790   7.351
 2924SOL    HW220286   1.666   2.841   7.506
 2925SOL     OW20287   0.307   1.925   6.204
 2925SOL    HW120288   0.296   2.019   6.237
 2925SOL    HW220289   0.302   1.862   6.281
 2926SOL     OW20290   1.622   2.229   5.960
 2926SOL    HW120291   1.624   2.153   6.024
 2926SOL    HW220292   1.574   2.306   6.000
 2927SOL     OW20293   1.023   2.628   6.552
 2927SOL    HW120294   1.038   2.649   6.648
 2927SOL    HW220295   0.993   2.533   6.543
 2928SOL     OW20296   0.980   3.435   7.286
 2928SOL    HW120297   0.960   3.479   7.198
 2928SOL    HW220298   1.019   3.344   7.270
 2929SOL     OW20299   1.859   3.380   7.191
 2929SOL    HW120300   1.873   3.407   7.096
 2929SOL    HW220301   1.942   3.402   7.244
 2930SOL     OW20302   0.350   2.760   7.390
 2930SOL    HW120303   0.426   2.804   7.438
 2930SOL    HW220304   0.385   2.713   7.308
 2931SOL     OW20305   1.540   2.136   5.711
 2931SOL    HW120306   1.479   2.061   5.734
 2931SOL    HW220307   1.562   2.188   5.794
 2932SOL     OW20308   1.303   2.700   5.628
 2932SOL    HW120309   1.337   2.607   5.643
 2932SOL    HW220310   1.321   2.727   5.533
 2933SOL     OW20311   1.068   3.195   6.435
 2933SOL    HW120312   1.075   3.111   6.380
 2933SOL    HW220313   1.130   3.264   6.399
 2934SOL     OW20314   0.319   2.672   6.535
 2934SOL    HW120315   0.412   2.708   6.540
 2934SOL    HW220316   0.313   2.587   6.587
 2935SOL     OW20317   0.339   2.371   6.592
 2935SOL    HW120318   0.287   2.288   6.575
 2935SOL    HW220319   0.416   2.376   6.528
 2936SOL     OW20320   1.138   2.242   7.264
 2936SOL    HW120321   1.093   2.305   7.328
 2936SOL    HW220322   1.231   2.273   7.247
 2937SOL     OW20323   1.160   2.069   7.063
 2937SOL    HW120324   1.160   2.133   7.140
 2937SOL    HW220325   1.188   2.117   6.980
 2938SOL     OW20326   0.008   3.188   5.786
 2938SOL    HW120327  -0.085   3.209   5.755
 2938SOL    HW220328   0.018   3.089   5.799
 2939SOL     OW20329   0.088   3.663   6.513
 2939SOL    HW120330   0.046   3.577   6.486
 2939SOL    HW220331   0.182   3.666   6.479
 2940SOL     OW20332   0.504   3.430   6.496
 2940SOL    HW120333   0.570   3.504   6.505
 2940SOL    HW220334   0.548   3.351   6.454
 2941SOL     OW20335   1.002   2.658   6.824
 2941SOL    HW120336   1.043   2.626   6.910
 2941SOL    HW220337   0.906   2.631   6.821
 2942SOL     OW20338   0.040   2.406   6.700
 2942SOL    HW120339   0.125   2.373   6.659
 2942SOL    HW220340   0.053   2.421   6.798
 2943SOL     OW20341   0.189   2.382   7.308
 2943SOL    HW120342   0.248   2.342   7.238
 2943SOL    HW220343   0.131   2.453   7.267
 2944SOL     OW20344   1.369   2.812   7.246
 2944SOL    HW120345   1.408   2.901   7.266
 2944SOL    HW220346   1.379   2.792   7.149
 2945SOL     OW20347   0.815   2.434   5.911
 2945SOL    HW120348   0.822   2.345   5.865
 2945SOL    HW220349   0.721   2.468   5.903
 2946SOL     OW20350   1.657   2.466   6.792
 2946SOL    HW120351   1.619   2.397   6.854
 2946SOL    HW220352   1.739   2.430   6.748
 2947SOL     OW20353   0.252   3.426   7.330
 2947SOL    HW120354   0.222   3.483   7.406
 2947SOL    HW220355   0.245   3.329   7.356
 2948SOL     OW20356   0.671   2.326   6.855
 2948SOL    HW120357   0.637   2.237   6.825
 2948SOL    HW220358   0.697   2.380   6.775
 2949SOL     OW20359   0.930   3.540   7.051
 2949SOL    HW120360   0.906   3.522   6.956
 2949SOL    HW220361   0.960   3.634   7.061
 2950SOL     OW20362   0.473   2.362   5.777
 2950SOL    HW120363   0.534   2.442   5.781
 2950SOL    HW220364   0.378   2.393   5.784
 2951SOL     OW20365   0.159   2.999   7.052
 2951SOL    HW120366   0.181   2.938   7.128
 2951SOL    HW220367   0.169   2.950   6.966
 2952SOL     OW20368   1.347   2.921   6.820
 2952SOL    HW120369   1.371   2.858   6.746
 2952SOL    HW220370   1.257   2.961   6.802
 2953SOL     OW20371   1.302   2.717   5.895
 2953SOL    HW120372   1.216   2.686   5.937
 2953SOL    HW220373   1.298   2.703   5.796
 2954SOL     OW20374   1.759   3.609   6.740
 2954SOL    HW120375   1.820   3.639   6.667
 2954SOL    HW220376   1.721   3.520   6.718
 2955SOL     OW20377   1.252   3.593   6.714
 2955SOL    HW120378   1.336   3.598   6.660
 2955SOL    HW220379   1.229   3.497   6.732
 2956SOL     OW20380   0.083   3.120   6.608
 2956SOL    HW120381   0.078   3.119   6.708
 2956SOL    HW220382   0.000   3.079   6.570
 2957SOL     OW20383   0.688   3.524   7.302
 2957SOL    HW120384   0.632   3.605   7.311
 2957SOL    HW220385   0.740   3.528   7.216
 2958SOL     OW20386   1.726   1.997   6.109
 2958SOL    HW120387   1.799   1.980   6.042
 2958SOL    HW220388   1.695   1.910   6.147
 2959SOL     OW20389   1.388   3.435   6.063
 2959SOL    HW120390   1.455   3.447   5.989
 2959SOL    HW220391   1.348   3.524   6.086
 2960SOL     OW20392   0.130   3.656   7.437
 2960SOL    HW120393   0.089   3.582   7.490
 2960SOL    HW220394   0.194   3.707   7.495
 2961SOL     OW20395   1.280   2.789   6.258
 2961SOL    HW120396   1.340   2.708   6.260
 2961SOL    HW220397   1.320   2.858   6.198
 2962SOL     OW20398   0.830   3.135   7.008
 2962SOL    HW120399   0.825   3.168   7.103
 2962SOL    HW220400   0.744   3.154   6.962
 2963SOL     OW20401   0.672   3.478   5.740
 2963SOL    HW120402   0.681   3.488   5.641
 2963SOL    HW220403   0.632   3.389   5.761
 2964SOL     OW20404   1.650   3.582   6.980
 2964SOL    HW120405   1.703   3.592   6.896
 2964SOL    HW220406   1.623   3.672   7.014
 2965SOL     OW20407   1.841   2.037   6.549
 2965SOL    HW120408   1.880   1.952   6.513
 2965SOL    HW220409   1.743   2.039   6.530
 2966SOL     OW20410   0.263   2.188   6.306
 2966SOL    HW120411   0.184   2.239   6.272
 2966SOL    HW220412   0.254   2.173   6.404
 2967SOL     OW20413   1.194   3.474   5.617
 2967SOL    HW120414   1.200   3.381   5.654
 2967SOL    HW220415   1.135   3.474   5.537
 2968SOL     OW20416   0.822   2.864   6.958
 2968SOL    HW120417   0.862   2.863   6.866
 2968SOL    HW220418   0.832   2.956   6.998
 2969SOL     OW20419   0.916   2.772   5.877
 2969SOL    HW120420   0.979   2.810   5.809
 2969SOL    HW220421   0.956   2.689   5.916
 2970SOL     OW20422   1.504   3.469   5.630
 2970SOL    HW120423   1.412   3.506   5.637
 2970SOL    HW220424   1.542   3.489   5.540
 2971SOL     OW20425   0.372   3.150   7.076
 2971SOL    HW120426   0.359   3.243   7.042
 2971SOL    HW220427   0.288   3.098   7.063
 2972SOL     OW20428   1.614   3.154   6.875
 2972SOL    HW120429   1.674   3.157   6.955
 2972SOL    HW220430   1.539   3.218   6.888
 2973SOL     OW20431   1.039   2.960   6.282
 2973SOL    HW120432   0.969   2.913   6.336
 2973SOL    HW220433   1.098   2.892   6.239
 2974SOL     OW20434   1.014   2.098   6.557
 2974SOL    HW120435   1.006   2.062   6.464
 2974SOL    HW220436   1.012   2.022   6.622
 2975SOL     OW20437   0.590   3.349   6.077
 2975SOL    HW120438   0.632   3.291   6.007
 2975SOL    HW220439   0.546   3.428   6.033
 2976SOL     OW20440   1.709   2.247   6.967
 2976SOL    HW120441   1.782   2.316   6.971
 2976SOL    HW220442   1.737   2.172   6.908
 2977SOL     OW20443   0.255   3.210   5.876
 2977SOL    HW120444   0.159   3.211   5.849
 2977SOL    HW220445   0.267   3.263   5.960
 2978SOL     OW20446   0.105   2.875   7.312
 2978SOL    HW120447   0.028   2.842   7.366
 2978SOL    HW220448   0.190   2.845   7.354
 2979SOL     OW20449   0.672   2.065   7.075
 2979SOL    HW120450   0.762   2.049   7.035
 2979SOL    HW220451   0.680   2.070   7.174
 2980SOL     OW20452   0.075   2.207   5.619
 2980SOL    HW120453  -0.017   2.179   5.590
 2980SOL    HW220454   0.106   2.284   5.563
 2981SOL     OW20455   1.440   2.718   6.984
 2981SOL    HW120456   1.383   2.770   6.921
 2981SOL    HW220457   1.536   2.730   6.960
 2982SOL     OW20458   0.072   2.028   5.904
 2982SOL    HW120459   0.055   2.111   5.850
 2982SOL    HW220460   0.162   1.991   5.882
 2983SOL     OW20461   1.183   3.197   5.705
 2983SOL    HW120462   1.084   3.186   5.707
 2983SOL    HW220463   1.217   3.212   5.798
 2984SOL     OW20464   0.613   2.704   7.017
 2984SOL    HW120465   0.669   2.785   7.000
 2984SOL    HW220466   0.672   2.624   7.020
 2985SOL     OW20467   1.493   3.629   6.545
 2985SOL    HW120468   1.526   3.693   6.476
 2985SOL    HW220469   1.559   3.623   6.620
 2986SOL     OW20470   0.716   2.427   7.294
 2986SOL    HW120471   0.735   2.492   7.368
 2986SOL    HW220472   0.776   2.347   7.303
 2987SOL     OW20473   1.450   3.082   7.219
 2987SOL    HW120474   1.441   3.072   7.318
 2987SOL    HW220475   1.546   3.075   7.193
 2988SOL     OW20476   0.390   3.603   7.146
 2988SOL    HW120477   0.299   3.644   7.144
 2988SOL    HW220478   0.383   3.509   7.178
 2989SOL     OW20479   1.674   2.745   6.840
 2989SOL    HW120480   1.647   2.656   6.803
 2989SOL    HW220481   1.675   2.813   6.767
 2990SOL     OW20482   1.225   2.187   6.035
 2990SOL    HW120483   1.290   2.113   6.024
 2990SOL    HW220484   1.245   2.237   6.119
 2991SOL     OW20485   0.594   2.607   6.238
 2991SOL    HW120486   0.644   2.692   6.219
 2991SOL    HW220487   0.506   2.609   6.190
 2992SOL     OW20488   1.777   2.204   7.228
 2992SOL    HW120489   1.760   2.235   7.134
 2992SOL    HW220490   1.693   2.167   7.266
 2993SOL     OW20491   1.730   2.796   7.103
 2993SOL    HW120492   1.768   2.887   7.118
 2993SOL    HW220493   1.722   2.779   7.004
 2994SOL     OW20494   0.859   3.236   5.602
 2994SOL    HW120495   0.813   3.251   5.690
 2994SOL    HW220496   0.903   3.321   5.572
 2995SOL     OW20497   0.661   3.652   6.539
 2995SOL    HW120498   0.615   3.740   6.526
 2995SOL    HW220499   0.760   3.664   6.532
 2996SOL     OW20500   0.859   2.818   6.447
 2996SOL    HW120501   0.913   2.749   6.495
 2996SOL    HW220502   0.827   2.887   6.513
 2997SOL     OW20503   1.083   2.846   5.673
 2997SOL    HW120504   1.060   2.899   5.591
 2997SOL    HW220505   1.164   2.790   5.654
 2998SOL     OW20506   1.861   3.431   6.437
 2998SOL    HW120507   1.790   3.419   6.367
 2998SOL    HW220508   1.862   3.352   6.497
 2999SOL     OW20509   0.221   3.176   7.430
 2999SOL    HW120510   0.156   3.103   7.409
 2999SOL    HW220511   0.225   3.190   7.528
 3000SOL     OW20512   0.079   3.102   6.239
 3000SOL    HW120513   0.078   3.055   6.327
 3000SOL    HW220514   0.161   3.074   6.188
 3001SOL     OW20515   0.672   3.253   7.210
 3001SOL    HW120516   0.594   3.203   7.248
 3001SOL    HW220517   0.669   3.348   7.241
 3002SOL     OW20518   1.824   2.054   6.813
 3002SOL    HW120519   1.820   1.964   6.857
 3002SOL    HW220520   1.827   2.043   6.714
 3003SOL     OW20521   0.428   2.286   6.106
 3003SOL    HW120522   0.458   2.214   6.044
 3003SOL    HW220523   0.389   2.246   6.189
 3004SOL     OW20524   1.705   3.349   6.690
 3004SOL    HW120525   1.612   3.324   6.663
 3004SOL    HW220526   1.731   3.299   6.772
 3005SOL     OW20527   0.317   2.409   6.866
 3005SOL    HW120528   0.355   2.350   6.938
 3005SOL    HW220529   0.357   2.383   6.778
 3006SOL     OW20530   0.812   3.448   6.273
 3006SOL    HW120531   0.844   3.458   6.179
 3006SOL    HW220532   0.733   3.386   6.275
 3007SOL     OW20533   1.424   2.076   6.698
 3007SOL    HW120534   1.476   2.011   6.753
 3007SOL    HW220535   1.375   2.139   6.759
 3008SOL     OW20536   1.001   1.896   6.740
 3008SOL    HW120537   0.938   1.824   6.709
 3008SOL    HW220538   1.094   1.860   6.740
 3009SOL     OW20539   0.770   3.192   5.887
 3009SOL    HW120540   0.724   3.105   5.904
 3009SOL    HW220541   0.861   3.189   5.928
 3010SOL     OW20542   0.618   3.429   6.870
 3010SOL    HW120543   0.613   3.511   6.927
 3010SOL    HW220544   0.707   3.426   6.825
 3011SOL     OW20545   1.352   1.914   5.754
 3011SOL    HW120546   1.387   1.873   5.670
 3011SOL    HW220547   1.262   1.876   5.774
 3012SOL     OW20548   1.300   2.315   6.277
 3012SOL    HW120549   1.241   2.395   6.281
 3012SOL    HW220550   1.315   2.280   6.370
 3013SOL     OW20551   1.593   2.083   6.468
 3013SOL    HW120552   1.509   2.082   6.522
 3013SOL    HW220553   1.595   2.166   6.412
 3014SOL     OW20554   0.039   2.939   5.886
 3014SOL    HW120555   0.138   2.928   5.877
 3014SOL    HW220556  -0.001   2.853   5.918
 3015SOL     OW20557   0.875   3.508   5.923
 3015SOL    HW120558   0.798   3.473   5.869
 3015SOL    HW220559   0.843   3.579   5.985
 3016SOL     OW20560   0.230   2.490   7.561
 3016SOL    HW120561   0.137   2.488   7.598
 3016SOL    HW220562   0.231   2.451   7.469
 3017SOL     OW20563   0.225   2.137   8.444
 3017SOL    HW120564   0.260   2.120   8.536
 3017SOL    HW220565   0.137   2.092   8.432
 3018SOL     OW20566   0.019   2.230   8.095
 3018SOL    HW120567  -0.063   2.273   8.134
 3018SOL    HW220568  -0.009   2.157   8.032
 3019SOL     OW20569   0.569   3.137   8.613
 3019SOL    HW120570   0.476   3.130   8.576
 3019SOL    HW220571   0.580   3.226   8.657
 3020SOL     OW20572   1.555   3.373   8.151
 3020SOL    HW120573   1.498   3.357   8.232
 3020SOL    HW220574   1.496   3.383   8.071
 3021SOL     OW20575   1.135   2.565   8.165
 3021SOL    HW120576   1.192   2.643   8.140
 3021SOL    HW220577   1.075   2.591   8.241
 3022SOL     OW20578   1.755   2.469   7.679
 3022SOL    HW120579   1.743   2.456   7.580
 3022SOL    HW220580   1.725   2.388   7.728
 3023SOL     OW20581   0.768   3.006   8.471
 3023SOL    HW120582   0.690   3.023   8.531
 3023SOL    HW220583   0.802   3.093   8.435
 3024SOL     OW20584   0.850   2.660   9.271
 3024SOL    HW120585   0.846   2.736   9.336
 3024SOL    HW220586   0.872   2.696   9.180
 3025SOL     OW20587   0.685   2.874   8.113
 3025SOL    HW120588   0.754   2.858   8.183
 3025SOL    HW220589   0.612   2.931   8.151
 3026SOL     OW20590   0.686   3.023   9.251
 3026SOL    HW120591   0.746   3.102   9.265
 3026SOL    HW220592   0.600   3.054   9.210
 3027SOL     OW20593   0.335   3.297   8.509
 3027SOL    HW120594   0.257   3.266   8.456
 3027SOL    HW220595   0.393   3.355   8.452
 3028SOL     OW20596   1.460   3.367   8.787
 3028SOL    HW120597   1.484   3.461   8.813
 3028SOL    HW220598   1.444   3.313   8.869
 3029SOL     OW20599   0.438   2.254   8.947
 3029SOL    HW120600   0.520   2.198   8.956
 3029SOL    HW220601   0.357   2.196   8.951
 3030SOL     OW20602   1.603   2.309   8.185
 3030SOL    HW120603   1.529   2.355   8.135
 3030SOL    HW220604   1.654   2.377   8.238
 3031SOL     OW20605   0.231   3.575   7.931
 3031SOL    HW120606   0.265   3.652   7.985
 3031SOL    HW220607   0.275   3.575   7.841
 3032SOL     OW20608   1.127   3.203   9.138
 3032SOL    HW120609   1.174   3.203   9.226
 3032SOL    HW220610   1.079   3.116   9.127
 3033SOL     OW20611   0.230   3.296   7.986
 3033SOL    HW120612   0.204   3.392   7.986
 3033SOL    HW220613   0.159   3.242   8.031
 3034SOL     OW20614   0.240   2.953   8.334
 3034SOL    HW120615   0.254   2.869   8.386
 3034SOL    HW220616   0.185   3.017   8.389
 3035SOL     OW20617   0.620   3.648   8.887
 3035SOL    HW120618   0.528   3.631   8.922
 3035SOL    HW220619   0.648   3.740   8.913
 3036SOL     OW20620   0.606   2.826   7.571
 3036SOL    HW120621   0.613   2.910   7.517
 3036SOL    HW220622   0.652   2.839   7.659
 3037SOL     OW20623   1.594   1.976   8.928
 3037SOL    HW120624   1.576   2.043   8.856
 3037SOL    HW220625   1.591   2.022   9.017
 3038SOL     OW20626   0.122   2.505   8.011
 3038SOL    HW120627   0.077   2.417   8.028
 3038SOL    HW220628   0.121   2.559   8.095
 3039SOL     OW20629   1.842   3.629   7.807
 3039SOL    HW120630   1.896   3.600   7.887
 3039SOL    HW220631   1.872   3.719   7.778
 3040SOL     OW20632   0.027   3.458   7.565
 3040SOL    HW120633   0.008   3.362   7.586
 3040SOL    HW220634  -0.006   3.516   7.640
 3041SOL     OW20635   1.689   2.784   8.060
 3041SOL    HW120636   1.784   2.755   8.068
 3041SOL    HW220637   1.681   2.849   7.985
 3042SOL     OW20638   1.641   2.970   7.880
 3042SOL    HW120639   1.727   2.972   7.828
 3042SOL    HW220640   1.655   3.017   7.968
 3043SOL     OW20641   0.113   2.599   9.045
 3043SOL    HW120642   0.201   2.586   9.090
 3043SOL    HW220643   0.100   2.696   9.023
 3044SOL     OW20644   0.613   3.227   8.174
 3044SOL    HW120645   0.564   3.140   8.183
 3044SOL    HW220646   0.590   3.270   8.087
 3045SOL     OW20647   1.293   3.090   8.871
 3045SOL    HW120648   1.330   3.017   8.813
 3045SOL    HW220649   1.345   3.095   8.956
 3046SOL     OW20650   0.809   1.866   7.950
 3046SOL    HW120651   0.849   1.957   7.941
 3046SOL    HW220652   0.709   1.874   7.956
 3047SOL     OW20653   0.197   2.838   8.712
 3047SOL    HW120654   0.286   2.793   8.698
 3047SOL    HW220655   0.124   2.773   8.693
 3048SOL     OW20656   1.525   2.861   7.638
 3048SOL    HW120657   1.462   2.785   7.651
 3048SOL    HW220658   1.573   2.879   7.724
 3049SOL     OW20659   1.187   3.654   9.064
 3049SOL    HW120660   1.211   3.714   8.988
 3049SOL    HW220661   1.194   3.559   9.034
 3050SOL     OW20662   0.317   2.113   9.249
 3050SOL    HW120663   0.388   2.184   9.255
 3050SOL    HW220664   0.229   2.152   9.277
 3051SOL     OW20665   1.466   3.279   8.401
 3051SOL    HW120666   1.407   3.285   8.481
 3051SOL    HW220667   1.451   3.191   8.355
 3052SOL     OW20668   1.667   3.576   8.020
 3052SOL    HW120669   1.626   3.553   7.932
 3052SOL    HW220670   1.649   3.502   8.085
 3053SOL     OW20671   0.598   2.591   7.718
 3053SOL    HW120672   0.622   2.660   7.650
 3053SOL    HW220673   0.520   2.624   7.772
 3054SOL     OW20674   1.281   2.207   8.392
 3054SOL    HW120675   1.195   2.157   8.379
 3054SOL    HW220676   1.343   2.153   8.448
 3055SOL     OW20677   1.576   3.524   7.755
 3055SOL    HW120678   1.665   3.570   7.758
 3055SOL    HW220679   1.555   3.500   7.660
 3056SOL     OW20680   0.807   2.467   8.913
 3056SOL    HW120681   0.760   2.464   9.002
 3056SOL    HW220682   0.756   2.412   8.847
 3057SOL     OW20683   1.394   2.331   9.122
 3057SOL    HW120684   1.374   2.374   9.210
 3057SOL    HW220685   1.472   2.269   9.131
 3058SOL     OW20686   0.973   2.752   9.020
 3058SOL    HW120687   1.019   2.668   8.991
 3058SOL    HW220688   0.917   2.786   8.945
 3059SOL     OW20689   0.991   2.272   8.690
 3059SOL    HW120690   0.914   2.306   8.744
 3059SOL    HW220691   0.957   2.221   8.611
 3060SOL     OW20692   1.041   2.563   7.877
 3060SOL    HW120693   1.067   2.559   7.973
 3060SOL    HW220694   0.956   2.512   7.863
 3061SOL     OW20695   0.076   2.673   8.237
 3061SOL    HW120696   0.175   2.661   8.246
 3061SOL    HW220697   0.052   2.768   8.258
 3062SOL     OW20698   0.130   3.683   9.019
 3062SOL    HW120699   0.120   3.668   9.118
 3062SOL    HW220700   0.044   3.719   8.983
 3063SOL     OW20701   0.865   2.210   7.643
 3063SOL    HW120702   0.924   2.273   7.594
 3063SOL    HW220703   0.884   2.116   7.614
 3064SOL     OW20704   1.719   2.447   9.279
 3064SOL    HW120705   1.693   2.536   9.243
 3064SOL    HW220706   1.717   2.379   9.206
 3065SOL     OW20707   1.362   3.006   7.993
 3065SOL    HW120708   1.445   2.977   7.945
 3065SOL    HW220709   1.313   3.073   7.937
 3066SOL     OW20710   0.550   2.058   8.333
 3066SOL    HW120711   0.545   2.053   8.433
 3066SOL    HW220712   0.552   2.154   8.304
 3067SOL     OW20713   1.008   3.318   7.925
 3067SOL    HW120714   0.962   3.390   7.873
 3067SOL    HW220715   1.004   3.338   8.023
 3068SOL     OW20716   0.351   3.663   8.301
 3068SOL    HW120717   0.401   3.577   8.307
 3068SOL    HW220718   0.416   3.740   8.298
 3069SOL     OW20719   1.795   2.928   8.321
 3069SOL    HW120720   1.733   2.913   8.245
 3069SOL    HW220721   1.743   2.939   8.406
 3070SOL     OW20722   1.227   3.412   8.954
 3070SOL    HW120723   1.233   3.335   9.018
 3070SOL    HW220724   1.175   3.386   8.874
 3071SOL     OW20725   0.321   2.805   7.690
 3071SOL    HW120726   0.403   2.844   7.648
 3071SOL    HW220727   0.294   2.723   7.641
 3072SOL     OW20728   1.458   2.597   8.176
 3072SOL    HW120729   1.453   2.532   8.251
 3072SOL    HW220730   1.538   2.656   8.189
 3073SOL     OW20731   0.461   3.128   9.175
 3073SOL    HW120732   0.411   3.129   9.089
 3073SOL    HW220733   0.398   3.110   9.251
 3074SOL     OW20734   1.111   3.638   7.685
 3074SOL    HW120735   1.051   3.576   7.735
 3074SOL    HW220736   1.142   3.594   7.600
 3075SOL     OW20737   0.202   2.147   8.946
 3075SOL    HW120738   0.122   2.207   8.933
 3075SOL    HW220739   0.192   2.098   9.032
 3076SOL     OW20740   1.632   3.239   7.529
 3076SOL    HW120741   1.600   3.333   7.519
 3076SOL    HW220742   1.556   3.176   7.517
 3077SOL     OW20743   0.464   3.605   7.771
 3077SOL    HW120744   0.497   3.644   7.857
 3077SOL    HW220745   0.540   3.598   7.706
 3078SOL     OW20746   1.400   1.969   7.874
 3078SOL    HW120747   1.376   1.932   7.784
 3078SOL    HW220748   1.499   1.985   7.878
 3079SOL     OW20749   0.249   3.647   8.689
 3079SOL    HW120750   0.306   3.582   8.739
 3079SOL    HW220751   0.233   3.614   8.596
 3080SOL     OW20752   0.940   3.560   8.352
 3080SOL    HW120753   1.020   3.503   8.373
 3080SOL    HW220754   0.891   3.520   8.275
 3081SOL     OW20755   0.382   2.562   7.928
 3081SOL    HW120756   0.427   2.472   7.925
 3081SOL    HW220757   0.288   2.551   7.961
 3082SOL     OW20758   1.547   2.084   9.177
 3082SOL    HW120759   1.542   2.121   9.269
 3082SOL    HW220760   1.475   2.015   9.165
 3083SOL     OW20761   0.614   1.984   7.565
 3083SOL    HW120762   0.712   1.962   7.572
 3083SOL    HW220763   0.583   1.967   7.472
 3084SOL     OW20764   0.781   2.126   9.197
 3084SOL    HW120765   0.848   2.065   9.240
 3084SOL    HW220766   0.708   2.145   9.262
 3085SOL     OW20767   0.888   3.376   8.643
 3085SOL    HW120768   0.865   3.351   8.549
 3085SOL    HW220769   0.949   3.307   8.682
 3086SOL     OW20770   1.351   2.452   8.881
 3086SOL    HW120771   1.379   2.409   8.966
 3086SOL    HW220772   1.376   2.548   8.882
 3087SOL     OW20773   0.803   3.264   8.372
 3087SOL    HW120774   0.893   3.278   8.330
 3087SOL    HW220775   0.732   3.266   8.301
 3088SOL     OW20776   0.922   2.365   8.347
 3088SOL    HW120777   0.897   2.356   8.251
 3088SOL    HW220778   0.970   2.283   8.378
 3089SOL     OW20779   0.539   1.926   7.960
 3089SOL    HW120780   0.458   1.927   8.018
 3089SOL    HW220781   0.542   2.009   7.905
 3090SOL     OW20782   1.434   3.050   7.489
 3090SOL    HW120783   1.466   2.974   7.546
 3090SOL    HW220784   1.342   3.077   7.519
 3091SOL     OW20785   0.297   1.897   7.619
 3091SOL    HW120786   0.346   1.981   7.598
 3091SOL    HW220787   0.359   1.832   7.664
 3092SOL     OW20788   0.935   2.098   7.928
 3092SOL    HW120789   0.887   2.139   7.850
 3092SOL    HW220790   1.034   2.096   7.909
 3093SOL     OW20791   1.076   2.545   8.912
 3093SOL    HW120792   0.996   2.484   8.915
 3093SOL    HW220793   1.157   2.492   8.888
 3094SOL     OW20794   1.227   3.432   8.241
 3094SOL    HW120795   1.248   3.506   8.176
 3094SOL    HW220796   1.295   3.432   8.314
 3095SOL     OW20797   0.459   3.014   8.189
 3095SOL    HW120798   0.388   2.987   8.254
 3095SOL    HW220799   0.433   2.986   8.096
 3096SOL     OW20800   1.271   3.659   8.039
 3096SOL    HW120801   1.315   3.723   7.975
 3096SOL    HW220802   1.221   3.711   8.109
 3097SOL     OW20803   1.032   2.411   7.464
 3097SOL    HW120804   0.991   2.493   7.425
 3097SOL    HW220805   1.096   2.437   7.537
 3098SOL     OW20806   0.078   2.418   8.834
 3098SOL    HW120807   0.170   2.417   8.793
 3098SOL    HW220808   0.072   2.492   8.901
 3099SOL     OW20809   0.561   2.084   8.595
 3099SOL    HW120810   0.599   2.000   8.632
 3099SOL    HW220811   0.473   2.103   8.639
 3100SOL     OW20812   0.866   2.316   8.090
 3100SOL    HW120813   0.834   2.388   8.028
 3100SOL    HW220814   0.890   2.235   8.037
 3101SOL     OW20815   1.017   1.901   8.201
 3101SOL    HW120816   0.945   1.906   8.132
 3101SOL    HW220817   0.993   1.832   8.270
 3102SOL     OW20818   1.429   3.035   8.315
 3102SOL    HW120819   1.374   2.951   8.308
 3102SOL    HW220820   1.455   3.064   8.223
 3103SOL     OW20821   1.466   2.452   8.440
 3103SOL    HW120822   1.436   2.357   8.447
 3103SOL    HW220823   1.539   2.468   8.506
 3104SOL     OW20824   1.857   2.695   7.825
 3104SOL    HW120825   1.899   2.631   7.889
 3104SOL    HW220826   1.819   2.644   7.747
 3105SOL     OW20827   0.488   3.247   7.622
 3105SOL    HW120828   0.401   3.232   7.669
 3105SOL    HW220829   0.471   3.273   7.527
 3106SOL     OW20830   1.664   3.142   8.105
 3106SOL    HW120831   1.763   3.150   8.119
 3106SOL    HW220832   1.619   3.226   8.136
 3107SOL     OW20833   1.390   2.437   7.526
 3107SOL    HW120834   1.336   2.416   7.607
 3107SOL    HW220835   1.481   2.396   7.535
 3108SOL     OW20836   0.527   2.118   7.776
 3108SOL    HW120837   0.554   2.059   7.701
 3108SOL    HW220838   0.527   2.213   7.745
 3109SOL     OW20839   1.754   3.085   9.036
 3109SOL    HW120840   1.845   3.046   9.023
 3109SOL    HW220841   1.762   3.181   9.060
 3110SOL     OW20842   1.064   3.209   8.788
 3110SOL    HW120843   0.984   3.186   8.843
 3110SOL    HW220844   1.147   3.183   8.837
 3111SOL     OW20845   1.592   3.491   9.073
 3111SOL    HW120846   1.619   3.525   8.983
 3111SOL    HW220847   1.671   3.453   9.119
 3112SOL     OW20848   1.111   3.057   8.548
 3112SOL    HW120849   1.071   3.101   8.629
 3112SOL    HW220850   1.070   3.094   8.465
 3113SOL     OW20851   1.638   2.961   8.527
 3113SOL    HW120852   1.643   3.042   8.586
 3113SOL    HW220853   1.552   2.963   8.476
 3114SOL     OW20854   0.915   1.951   8.850
 3114SOL    HW120855   0.940   1.931   8.755
 3114SOL    HW220856   0.987   2.007   8.892
 3115SOL     OW20857   0.980   2.978   9.167
 3115SOL    HW120858   0.881   2.984   9.177
 3115SOL    HW220859   1.003   2.898   9.111
 3116SOL     OW20860   0.705   2.912   7.816
 3116SOL    HW120861   0.691   2.919   7.915
 3116SOL    HW220862   0.789   2.861   7.798
 3117SOL     OW20863   0.410   2.675   8.699
 3117SOL    HW120864   0.496   2.687   8.749
 3117SOL    HW220865   0.368   2.588   8.726
 3118SOL     OW20866   1.274   2.248   8.710
 3118SOL    HW120867   1.295   2.322   8.774
 3118SOL    HW220868   1.185   2.265   8.667
 3119SOL     OW20869   0.064   3.426   8.779
 3119SOL    HW120870   0.018   3.508   8.745
 3119SOL    HW220871   0.162   3.445   8.788
 3120SOL     OW20872   0.367   2.962   7.949
 3120SOL    HW120873   0.360   3.045   7.893
 3120SOL    HW220874   0.371   2.882   7.889
 3121SOL     OW20875   0.566   2.399   8.313
 3121SOL    HW120876   0.578   2.465   8.239
 3121SOL    HW220877   0.612   2.433   8.396
 3122SOL     OW20878   1.252   3.210   7.836
 3122SOL    HW120879   1.302   3.287   7.876
 3122SOL    HW220880   1.157   3.212   7.868
 3123SOL     OW20881   1.272   3.307   8.590
 3123SOL    HW120882   1.319   3.320   8.677
 3123SOL    HW220883   1.206   3.233   8.599
 3124SOL     OW20884   1.582   2.501   7.920
 3124SOL    HW120885   1.551   2.562   7.993
 3124SOL    HW220886   1.632   2.553   7.851
 3125SOL     OW20887   0.354   3.372   8.777
 3125SOL    HW120888   0.333   3.328   8.690
 3125SOL    HW220889   0.451   3.398   8.780
 3126SOL     OW20890   0.402   2.613   9.046
 3126SOL    HW120891   0.470   2.668   8.999
 3126SOL    HW220892   0.442   2.525   9.073
 3127SOL     OW20893   1.587   2.641   9.118
 3127SOL    HW120894   1.495   2.679   9.113
 3127SOL    HW220895   1.647   2.688   9.053
 3128SOL     OW20896   1.013   1.967   9.218
 3128SOL    HW120897   1.019   2.052   9.166
 3128SOL    HW220898   1.045   1.891   9.161
 3129SOL     OW20899   0.504   1.912   9.188
 3129SOL    HW120900   0.462   1.855   9.118
 3129SOL    HW220901   0.438   1.981   9.220
 3130SOL     OW20902   0.573   2.732   8.477
 3130SOL    HW120903   0.617   2.821   8.468
 3130SOL    HW220904   0.510   2.732   8.554
 3131SOL     OW20905   1.360   2.724   8.493
 3131SOL    HW120906   1.285   2.724   8.427
 3131SOL    HW220907   1.397   2.632   8.502
 3132SOL     OW20908   1.209   2.387   7.723
 3132SOL    HW120909   1.222   2.303   7.777
 3132SOL    HW220910   1.180   2.461   7.783
 3133SOL     OW20911   0.307   2.075   8.679
 3133SOL    HW120912   0.284   2.112   8.769
 3133SOL    HW220913   0.277   1.980   8.673
 3134SOL     OW20914   0.037   3.172   8.730
 3134SOL    HW120915   0.090   3.123   8.798
 3134SOL    HW220916   0.059   3.270   8.735
 3135SOL     OW20917   0.732   2.496   8.512
 3135SOL    HW120918   0.791   2.470   8.436
 3135SOL    HW220919   0.704   2.592   8.501
 3136SOL     OW20920   1.728   2.797   9.302
 3136SOL    HW120921   1.682   2.790   9.213
 3136SOL    HW220922   1.666   2.841   9.368
 3137SOL     OW20923   0.307   1.925   8.066
 3137SOL    HW120924   0.296   2.019   8.099
 3137SOL    HW220925   0.302   1.862   8.143
 3138SOL     OW20926   1.622   2.229   7.822
 3138SOL    HW120927   1.624   2.153   7.886
 3138SOL    HW220928   1.574   2.306   7.862
 3139SOL     OW20929   1.023   2.628   8.414
 3139SOL    HW120930   1.038   2.649   8.510
 3139SOL    HW220931   0.993   2.533   8.405
 3140SOL     OW20932   0.980   3.435   9.148
 3140SOL    HW120933   0.960   3.479   9.060
 3140SOL    HW220934   1.019   3.344   9.132
 3141SOL     OW20935   0.350   2.760   9.252
 3141SOL    HW120936   0.426   2.804   9.300
 3141SOL    HW220937   0.385   2.713   9.170
 3142SOL     OW20938   1.540   2.136   7.573
 3142SOL    HW120939   1.479   2.061   7.596
 3142SOL    HW220940   1.562   2.188   7.656
 3143SOL     OW20941   1.303   2.700   7.490
 3143SOL    HW120942   1.337   2.607   7.505
 3143SOL    HW220943   1.321   2.727   7.395
 3144SOL     OW20944   1.068   3.195   8.297
 3144SOL    HW120945   1.075   3.111   8.242
 3144SOL    HW220946   1.130   3.264   8.261
 3145SOL     OW20947   0.319   2.672   8.397
 3145SOL    HW120948   0.412   2.708   8.402
 3145SOL    HW220949   0.313   2.587   8.449
 3146SOL     OW20950   0.339   2.371   8.454
 3146SOL    HW120951   0.287   2.288   8.437
 3146SOL    HW220952   0.416   2.376   8.390
 3147SOL     OW20953   1.138   2.242   9.126
 3147SOL    HW120954   1.093   2.305   9.190
 3147SOL    HW220955   1.231   2.273   9.109
 3148SOL     OW20956   1.160   2.069   8.925
 3148SOL    HW120957   1.160   2.133   9.002
 3148SOL    HW220958   1.188   2.117   8.842
 3149SOL     OW20959   0.008   3.188   7.648
 3149SOL    HW120960  -0.085   3.209   7.617
 3149SOL    HW220961   0.018   3.089   7.661
 3150SOL     OW20962   0.088   3.663   8.375
 3150SOL    HW120963   0.046   3.577   8.348
 3150SOL    HW220964   0.182   3.666   8.341
 3151SOL     OW20965   0.504   3.430   8.358
 3151SOL    HW120966   0.570   3.504   8.367
 3151SOL    HW220967   0.548   3.351   8.316
 3152SOL     OW20968   1.002   2.658   8.686
 3152SOL    HW120969   1.043   2.626   8.772
 3152SOL    HW220970   0.906   2.631   8.683
 3153SOL     OW20971   0.040   2.406   8.562
 3153SOL    HW120972   0.125   2.373   8.521
 3153SOL    HW220973   0.053   2.421   8.660
 3154SOL     OW20974   0.189   2.382   9.170
 3154SOL    HW120975   0.248   2.342   9.100
 3154SOL    HW220976   0.131   2.453   9.129
 3155SOL     OW20977   1.369   2.812   9.108
 3155SOL    HW120978   1.408   2.901   9.128
 3155SOL    HW220979   1.379   2.792   9.011
 3156SOL     OW20980   0.815   2.434   7.773
 3156SOL    HW120981   0.822   2.345   7.727
 3156SOL    HW220982   0.721   2.468   7.765
 3157SOL     OW20983   1.657   2.466   8.654
 3157SOL    HW120984   1.619   2.397   8.716
 3157SOL    HW220985   1.739   2.430   8.610
 3158SOL     OW20986   0.252   3.426   9.192
 3158SOL    HW120987   0.222   3.483   9.268
 3158SOL    HW220988   0.245   3.329   9.218
 3159SOL     OW20989   0.671   2.326   8.717
 3159SOL    HW120990   0.637   2.237   8.687
 3159SOL    HW220991   0.697   2.380   8.637
 3160SOL     OW20992   0.930   3.540   8.913
 3160SOL    HW120993   0.906   3.522   8.818
 3160SOL    HW220994   0.960   3.634   8.923
 3161SOL     OW20995   0.473   2.362   7.639
 3161SOL    HW120996   0.534   2.442   7.643
 3161SOL    HW220997   0.378   2.393   7.646
 3162SOL     OW20998   0.159   2.999   8.914
 3162SOL    HW120999   0.181   2.938   8.990
 3162SOL    HW221000   0.169   2.950   8.828
 3163SOL     OW21001   1.347   2.921   8.682
 3163SOL    HW121002   1.371   2.858   8.608
 3163SOL    HW221003   1.257   2.961   8.664
 3164SOL     OW21004   1.302   2.717   7.757
 3164SOL    HW121005   1.216   2.686   7.799
 3164SOL    HW221006   1.298   2.703   7.658
 3165SOL     OW21007   1.759   3.609   8.602
 3165SOL    HW121008   1.820   3.639   8.529
 3165SOL    HW221009   1.721   3.520   8.580
 3166SOL     OW21010   1.252   3.593   8.576
 3166SOL    HW121011   1.336   3.598   8.522
 3166SOL    HW221012   1.229   3.497   8.594
 3167SOL     OW21013   0.083   3.120   8.470
 3167SOL    HW121014   0.078   3.119   8.570
 3167SOL    HW221015   0.000   3.079   8.432
 3168SOL     OW21016   0.688   3.524   9.164
 3168SOL    HW121017   0.632   3.605   9.173
 3168SOL    HW221018   0.740   3.528   9.078
 3169SOL     OW21019   1.726   1.997   7.971
 3169SOL    HW121020   1.799   1.980   7.904
 3169SOL    HW221021   1.695   1.910   8.009
 3170SOL     OW21022   1.388   3.435   7.925
 3170SOL    HW121023   1.455   3.447   7.851
 3170SOL    HW221024   1.348   3.524   7.948
 3171SOL     OW21025   0.130   3.656   9.299
 3171SOL    HW121026   0.089   3.582   9.352
 3171SOL    HW221027   0.194   3.707   9.357
 3172SOL     OW21028   1.280   2.789   8.120
 3172SOL    HW121029   1.340   2.708   8.122
 3172SOL    HW221030   1.320   2.858   8.060
 3173SOL     OW21031   0.830   3.135   8.870
 3173SOL    HW121032   0.825   3.168   8.965
 3173SOL    HW221033   0.744   3.154   8.824
 3174SOL     OW21034   0.672   3.478   7.602
 3174SOL    HW121035   0.681   3.488   7.503
 3174SOL    HW221036   0.632   3.389   7.623
 3175SOL     OW21037   1.650   3.582   8.842
 3175SOL    HW121038   1.703   3.592   8.758
 3175SOL    HW221039   1.623   3.672   8.876
 3176SOL     OW21040   1.841   2.037   8.411
 3176SOL    HW121041   1.880   1.952   8.375
 3176SOL    HW221042   1.743   2.039   8.392
 3177SOL     OW21043   0.263   2.188   8.168
 3177SOL    HW121044   0.184   2.239   8.134
 3177SOL    HW221045   0.254   2.173   8.266
 3178SOL     OW21046   1.194   3.474   7.479
 3178SOL    HW121047   1.200   3.381   7.516
 3178SOL    HW221048   1.135   3.474   7.399
 3179SOL     OW21049   0.822   2.864   8.820
 3179SOL    HW121050   0.862   2.863   8.728
 3179SOL    HW221051   0.832   2.956   8.860
 3180SOL     OW21052   0.916   2.772   7.739
 3180SOL    HW121053   0.979   2.810   7.671
 3180SOL    HW221054   0.956   2.689   7.778
 3181SOL     OW21055   1.504   3.469   7.492
 3181SOL    HW121056   1.412   3.506   7.499
 3181SOL    HW221057   1.542   3.489   7.402
 3182SOL     OW21058   0.372   3.150   8.938
 3182SOL    HW121059   0.359   3.243   8.904
 3182SOL    HW221060   0.288   3.098   8.925
 3183SOL     OW21061   1.614   3.154   8.737
 3183SOL    HW121062   1.674   3.157   8.817
 3183SOL    HW221063   1.539   3.218   8.750
 3184SOL     OW21064   1.039   2.960   8.144
 3184SOL    HW121065   0.969   2.913   8.198
 3184SOL    HW221066   1.098   2.892   8.101
 3185SOL     OW21067   1.014   2.098   8.419
 3185SOL    HW121068   1.006   2.062   8.326
 3185SOL    HW221069   1.012   2.022   8.484
 3186SOL     OW21070   0.590   3.349   7.939
 3186SOL    HW121071   0.632   3.291   7.869
 3186SOL    HW221072   0.546   3.428   7.895
 3187SOL     OW21073   1.709   2.247   8.829
 3187SOL    HW121074   1.782   2.316   8.833
 3187SOL    HW221075   1.737   2.172   8.770
 3188SOL     OW21076   0.255   3.210   7.738
 3188SOL    HW121077   0.159   3.211   7.711
 3188SOL    HW221078   0.267   3.263   7.822
 3189SOL     OW21079   0.105   2.875   9.174
 3189SOL    HW121080   0.028   2.842   9.228
 3189SOL    HW221081   0.190   2.845   9.216
 3190SOL     OW21082   0.672   2.065   8.937
 3190SOL    HW121083   0.762   2.049   8.897
 3190SOL    HW221084   0.680   2.070   9.036
 3191SOL     OW21085   0.075   2.207   7.481
 3191SOL    HW121086  -0.017   2.179   7.452
 3191SOL    HW221087   0.106   2.284   7.425
 3192SOL     OW21088   1.440   2.718   8.846
 3192SOL    HW121089   1.383   2.770   8.783
 3192SOL    HW221090   1.536   2.730   8.822
 3193SOL     OW21091   0.072   2.028   7.766
 3193SOL    HW121092   0.055   2.111   7.712
 3193SOL    HW221093   0.162   1.991   7.744
 3194SOL     OW21094   1.183   3.197   7.567
 3194SOL    HW121095   1.084   3.186   7.569
 3194SOL    HW221096   1.217   3.212   7.660
 3195SOL     OW21097   0.613   2.704   8.879
 3195SOL    HW121098   0.669   2.785   8.862
 3195SOL    HW221099   0.672   2.624   8.882
 3196SOL     OW21100   1.493   3.629   8.407
 3196SOL    HW121101   1.526   3.693   8.338
 3196SOL    HW221102   1.559   3.623   8.482
 3197SOL     OW21103   0.716   2.427   9.156
 3197SOL    HW121104   0.735   2.492   9.230
 3197SOL    HW221105   0.776   2.347   9.165
 3198SOL     OW21106   1.450   3.082   9.081
 3198SOL    HW121107   1.441   3.072   9.180
 3198SOL    HW221108   1.546   3.075   9.055
 3199SOL     OW21109   0.390   3.603   9.008
 3199SOL    HW121110   0.299   3.644   9.006
 3199SOL    HW221111   0.383   3.509   9.040
 3200SOL     OW21112   1.674   2.745   8.702
 3200SOL    HW121113   1.647   2.656   8.665
 3200SOL    HW221114   1.675   2.813   8.629
 3201SOL     OW21115   1.225   2.187   7.897
 3201SOL    HW121116   1.290   2.113   7.886
 3201SOL    HW221117   1.245   2.237   7.981
 3202SOL     OW21118   0.594   2.607   8.100
 3202SOL    HW121119   0.644   2.692   8.081
 3202SOL    HW221120   0.506   2.609   8.052
 3203SOL     OW21121   1.777   2.204   9.090
 3203SOL    HW121122   1.760   2.235   8.996
 3203SOL    HW221123   1.693   2.167   9.128
 3204SOL     OW21124   1.730   2.796   8.965
 3204SOL    HW121125   1.768   2.887   8.980
 3204SOL    HW221126   1.722   2.779   8.866
 3205SOL     OW21127   0.859   3.236   7.464
 3205SOL    HW121128   0.813   3.251   7.552
 3205SOL    HW221129   0.903   3.321   7.434
 3206SOL     OW21130   0.661   3.652   8.401
 3206SOL    HW121131   0.615   3.740   8.388
 3206SOL    HW221132   0.760   3.664   8.394
 3207SOL     OW21133   0.859   2.818   8.309
 3207SOL    HW121134   0.913   2.749   8.357
 3207SOL    HW221135   0.827   2.887   8.375
 3208SOL     OW21136   1.083   2.846   7.535
 3208SOL    HW121137   1.060   2.899   7.453
 3208SOL    HW221138   1.164   2.790   7.516
 3209SOL     OW21139   1.861   3.431   8.299
 3209SOL    HW121140   1.790   3.419   8.229
 3209SOL    HW221141   1.862   3.352   8.359
 3210SOL     OW21142   0.221   3.176   9.292
 3210SOL    HW121143   0.156   3.103   9.271
 3210SOL    HW221144   0.225   3.190   9.390
 3211SOL     OW21145   0.079   3.102   8.101
 3211SOL    HW121146   0.078   3.055   8.189
 3211SOL    HW221147   0.161   3.074   8.050
 3212SOL     OW21148   0.672   3.253   9.072
 3212SOL    HW121149   0.594   3.203   9.110
 3212SOL    HW221150   0.669   3.348   9.103
 3213SOL     OW21151   1.824   2.054   8.675
 3213SOL    HW121152   1.820   1.964   8.719
 3213SOL    HW221153   1.827   2.043   8.576
 3214SOL     OW21154   0.428   2.286   7.968
 3214SOL    HW121155   0.458   2.214   7.906
 3214SOL    HW221156   0.389   2.246   8.051
 3215SOL     OW21157   1.705   3.349   8.552
 3215SOL    HW121158   1.612   3.324   8.525
 3215SOL    HW221159   1.731   3.299   8.634
 3216SOL     OW21160   0.317   2.409   8.728
 3216SOL    HW121161   0.355   2.350   8.800
 3216SOL    HW221162   0.357   2.383   8.640
 3217SOL     OW21163   0.812   3.448   8.135
 3217SOL    HW121164   0.844   3.458   8.041
 3217SOL    HW221165   0.733   3.386   8.137
 3218SOL     OW21166   1.424   2.076   8.560
 3218SOL    HW121167   1.476   2.011   8.615
 3218SOL    HW221168   1.375   2.139   8.621
 3219SOL     OW21169   1.001   1.896   8.602
 3219SOL    HW121170   0.938   1.824   8.571
 3219SOL    HW221171   1.094   1.860   8.602
 3220SOL     OW21172   0.770   3.192   7.749
 3220SOL    HW121173   0.724   3.105   7.766
 3220SOL    HW221174   0.861   3.189   7.790
 3221SOL     OW21175   0.618   3.429   8.732
 3221SOL    HW121176   0.613   3.511   8.789
 3221SOL    HW221177   0.707   3.426   8.687
 3222SOL     OW21178   1.352   1.914   7.616
 3222SOL    HW121179   1.387   1.873   7.532
 3222SOL    HW221180   1.262   1.876   7.636
 3223SOL     OW21181   1.300   2.315   8.139
 3223SOL    HW121182   1.241   2.395   8.143
 3223SOL    HW221183   1.315   2.280   8.232
 3224SOL     OW21184   1.593   2.083   8.330
 3224SOL    HW121185   1.509   2.082   8.384
 3224SOL    HW221186   1.595   2.166   8.274
 3225SOL     OW21187   0.039   2.939   7.748
 3225SOL    HW121188   0.138   2.928   7.739
 3225SOL    HW221189  -0.001   2.853   7.780
 3226SOL     OW21190   0.875   3.508   7.785
 3226SOL    HW121191   0.798   3.473   7.731
 3226SOL    HW221192   0.843   3.579   7.847
 3227SOL     OW21193   0.230   2.490   9.423
 3227SOL    HW121194   0.137   2.488   9.460
 3227SOL    HW221195   0.231   2.451   9.331
 3228SOL     OW21196   0.225   2.137  10.306
 3228SOL    HW121197   0.260   2.120  10.398
 3228SOL    HW221198   0.137   2.092  10.294
 3229SOL     OW21199   0.019   2.230   9.957
 3229SOL    HW121200  -0.063   2.273   9.996
 3229SOL    HW221201  -0.009   2.157   9.894
 3230SOL     OW21202   0.569   3.137  10.475
 3230SOL    HW121203   0.476   3.130  10.438
 3230SOL    HW221204   0.580   3.226  10.519
 3231SOL     OW21205   1.555   3.373  10.013
 3231SOL    HW121206   1.498   3.357  10.094
 3231SOL    HW221207   1.496   3.383   9.933
 3232SOL     OW21208   1.135   2.565  10.027
 3232SOL    HW121209   1.192   2.643  10.002
 3232SOL    HW221210   1.075   2.591  10.103
 3233SOL     OW21211   0.620   3.648  10.749
 3233SOL    HW121212   0.528   3.631  10.784
 3233SOL    HW221213   0.648   3.740  10.775
 3234SOL     OW21214   0.606   2.826   9.433
 3234SOL    HW121215   0.613   2.910   9.379
 3234SOL    HW221216   0.652   2.839   9.521
 3235SOL     OW21217   1.594   1.976  10.790
 3235SOL    HW121218   1.576   2.043  10.718
 3235SOL    HW221219   1.591   2.022  10.879
 3236SOL     OW21220   0.122   2.505   9.873
 3236SOL    HW121221   0.077   2.417   9.890
 3236SOL    HW221222   0.121   2.559   9.957
 3237SOL     OW21223   0.027   3.458   9.427
 3237SOL    HW121224   0.008   3.362   9.448
 3237SOL    HW221225  -0.006   3.516   9.502
 3238SOL     OW21226   0.809   1.866   9.812
 3238SOL    HW121227   0.849   1.957   9.803
 3238SOL    HW221228   0.709   1.874   9.818
 3239SOL     OW21229   0.317   2.113  11.111
 3239SOL    HW121230   0.388   2.184  11.117
 3239SOL    HW221231   0.229   2.152  11.139
 3240SOL     OW21232   1.466   3.279  10.263
 3240SOL    HW121233   1.407   3.285  10.343
 3240SOL    HW221234   1.451   3.191  10.217
 3241SOL     OW21235   1.667   3.576   9.882
 3241SOL    HW121236   1.626   3.553   9.794
 3241SOL    HW221237   1.649   3.502   9.947
 3242SOL     OW21238   0.598   2.591   9.580
 3242SOL    HW121239   0.622   2.660   9.512
 3242SOL    HW221240   0.520   2.624   9.634
 3243SOL     OW21241   1.281   2.207  10.254
 3243SOL    HW121242   1.195   2.157  10.241
 3243SOL    HW221243   1.343   2.153  10.310
 3244SOL     OW21244   1.576   3.524   9.617
 3244SOL    HW121245   1.665   3.570   9.620
 3244SOL    HW221246   1.555   3.500   9.522
 3245SOL     OW21247   1.394   2.331  10.984
 3245SOL    HW121248   1.374   2.374  11.072
 3245SOL    HW221249   1.472   2.269  10.993
 3246SOL     OW21250   1.041   2.563   9.739
 3246SOL    HW121251   1.067   2.559   9.835
 3246SOL    HW221252   0.956   2.512   9.725
 3247SOL     OW21253   0.865   2.210   9.505
 3247SOL    HW121254   0.924   2.273   9.456
 3247SOL    HW221255   0.884   2.116   9.476
 3248SOL     OW21256   1.719   2.447  11.141
 3248SOL    HW121257   1.693   2.536  11.105
 3248SOL    HW221258   1.717   2.379  11.068
 3249SOL     OW21259   0.550   2.058  10.195
 3249SOL    HW121260   0.545   2.053  10.295
 3249SOL    HW221261   0.552   2.154  10.166
 3250SOL     OW21262   0.351   3.663  10.163
 3250SOL    HW121263   0.401   3.577  10.169
 3250SOL    HW221264   0.416   3.740  10.160
 3251SOL     OW21265   0.321   2.805   9.552
 3251SOL    HW121266   0.403   2.844   9.510
 3251SOL    HW221267   0.294   2.723   9.503
 3252SOL     OW21268   1.111   3.638   9.547
 3252SOL    HW121269   1.051   3.576   9.597
 3252SOL    HW221270   1.142   3.594   9.462
 3253SOL     OW21271   1.400   1.969   9.736
 3253SOL    HW121272   1.376   1.932   9.646
 3253SOL    HW221273   1.499   1.985   9.740
 3254SOL     OW21274   0.940   3.560  10.214
 3254SOL    HW121275   1.020   3.503  10.235
 3254SOL    HW221276   0.891   3.520  10.137
 3255SOL     OW21277   1.547   2.084  11.039
 3255SOL    HW121278   1.542   2.121  11.131
 3255SOL    HW221279   1.475   2.015  11.027
 3256SOL     OW21280   0.614   1.984   9.427
 3256SOL    HW121281   0.712   1.962   9.434
 3256SOL    HW221282   0.583   1.967   9.334
 3257SOL     OW21283   0.539   1.926   9.822
 3257SOL    HW121284   0.458   1.927   9.880
 3257SOL    HW221285   0.542   2.009   9.767
 3258SOL     OW21286   1.434   3.050   9.351
 3258SOL    HW121287   1.466   2.974   9.408
 3258SOL    HW221288   1.342   3.077   9.381
 3259SOL     OW21289   0.297   1.897   9.481
 3259SOL    HW121290   0.346   1.981   9.460
 3259SOL    HW221291   0.359   1.832   9.526
 3260SOL     OW21292   0.935   2.098   9.790
 3260SOL    HW121293   0.887   2.139   9.712
 3260SOL    HW221294   1.034   2.096   9.771
 3261SOL     OW21295   1.076   2.545  10.774
 3261SOL    HW121296   0.996   2.484  10.777
 3261SOL    HW221297   1.157   2.492  10.750
 3262SOL     OW21298   1.227   3.432  10.103
 3262SOL    HW121299   1.248   3.506  10.038
 3262SOL    HW221300   1.295   3.432  10.176
 3263SOL     OW21301   1.271   3.659   9.901
 3263SOL    HW121302   1.315   3.723   9.837
 3263SOL    HW221303   1.221   3.711   9.971
 3264SOL     OW21304   1.032   2.411   9.326
 3264SOL    HW121305   0.991   2.493   9.287
 3264SOL    HW221306   1.096   2.437   9.399
 3265SOL     OW21307   0.866   2.316   9.952
 3265SOL    HW121308   0.834   2.388   9.890
 3265SOL    HW221309   0.890   2.235   9.899
 3266SOL     OW21310   1.017   1.901  10.063
 3266SOL    HW121311   0.945   1.906   9.994
 3266SOL    HW221312   0.993   1.832  10.132
 3267SOL     OW21313   0.488   3.247   9.484
 3267SOL    HW121314   0.401   3.232   9.531
 3267SOL    HW221315   0.471   3.273   9.389
 3268SOL     OW21316   0.527   2.118   9.638
 3268SOL    HW121317   0.554   2.059   9.563
 3268SOL    HW221318   0.527   2.213   9.607
 3269SOL     OW21319   1.754   3.085  10.898
 3269SOL    HW121320   1.845   3.046  10.885
 3269SOL    HW221321   1.762   3.181  10.922
 3270SOL     OW21322   1.638   2.961  10.389
 3270SOL    HW121323   1.643   3.042  10.448
 3270SOL    HW221324   1.552   2.963  10.338
 3271SOL     OW21325   0.705   2.912   9.678
 3271SOL    HW121326   0.691   2.919   9.777
 3271SOL    HW221327   0.789   2.861   9.660
 3272SOL     OW21328   1.274   2.248  10.572
 3272SOL    HW121329   1.295   2.322  10.636
 3272SOL    HW221330   1.185   2.265  10.529
 3273SOL     OW21331   1.252   3.210   9.698
 3273SOL    HW121332   1.302   3.287   9.738
 3273SOL    HW221333   1.157   3.212   9.730
 3274SOL     OW21334   1.360   2.724  10.355
 3274SOL    HW121335   1.285   2.724  10.289
 3274SOL    HW221336   1.397   2.632  10.364
 3275SOL     OW21337   1.209   2.387   9.585
 3275SOL    HW121338   1.222   2.303   9.639
 3275SOL    HW221339   1.180   2.461   9.645
 3276SOL     OW21340   0.037   3.172  10.592
 3276SOL    HW121341   0.090   3.123  10.660
 3276SOL    HW221342   0.059   3.270  10.597
 3277SOL     OW21343   0.307   1.925   9.928
 3277SOL    HW121344   0.296   2.019   9.961
 3277SOL    HW221345   0.302   1.862  10.005
 3278SOL     OW21346   1.303   2.700   9.352
 3278SOL    HW121347   1.337   2.607   9.367
 3278SOL    HW221348   1.321   2.727   9.257
 3279SOL     OW21349   1.138   2.242  10.988
 3279SOL    HW121350   1.093   2.305  11.052
 3279SOL    HW221351   1.231   2.273  10.971
 3280SOL     OW21352   1.160   2.069  10.787
 3280SOL    HW121353   1.160   2.133  10.864
 3280SOL    HW221354   1.188   2.117  10.704
 3281SOL     OW21355   0.008   3.188   9.510
 3281SOL    HW121356  -0.085   3.209   9.479
 3281SOL    HW221357   0.018   3.089   9.523
 3282SOL     OW21358   0.088   3.663  10.237
 3282SOL    HW121359   0.046   3.577  10.210
 3282SOL    HW221360   0.182   3.666  10.203
 3283SOL     OW21361   0.189   2.382  11.032
 3283SOL    HW121362   0.248   2.342  10.962
 3283SOL    HW221363   0.131   2.453  10.991
 3284SOL     OW21364   0.815   2.434   9.635
 3284SOL    HW121365   0.822   2.345   9.589
 3284SOL    HW221366   0.721   2.468   9.627
 3285SOL     OW21367   0.473   2.362   9.501
 3285SOL    HW121368   0.534   2.442   9.505
 3285SOL    HW221369   0.378   2.393   9.508
 3286SOL     OW21370   1.302   2.717   9.619
 3286SOL    HW121371   1.216   2.686   9.661
 3286SOL    HW221372   1.298   2.703   9.520
 3287SOL     OW21373   0.688   3.524  11.026
 3287SOL    HW121374   0.632   3.605  11.035
 3287SOL    HW221375   0.740   3.528  10.940
 3288SOL     OW21376   1.726   1.997   9.833
 3288SOL    HW121377   1.799   1.980   9.766
 3288SOL    HW221378   1.695   1.910   9.871
 3289SOL     OW21379   1.388   3.435   9.787
 3289SOL    HW121380   1.455   3.447   9.713
 3289SOL    HW221381   1.348   3.524   9.810
 3290SOL     OW21382   0.672   3.478   9.464
 3290SOL    HW121383   0.681   3.488   9.365
 3290SOL    HW221384   0.632   3.389   9.485
 3291SOL     OW21385   0.263   2.188  10.030
 3291SOL    HW121386   0.184   2.239   9.996
 3291SOL    HW221387   0.254   2.173  10.128
 3292SOL     OW21388   1.194   3.474   9.341
 3292SOL    HW121389   1.200   3.381   9.378
 3292SOL    HW221390   1.135   3.474   9.261
 3293SOL     OW21391   0.822   2.864  10.682
 3293SOL    HW121392   0.862   2.863  10.590
 3293SOL    HW221393   0.832   2.956  10.722
 3294SOL     OW21394   0.916   2.772   9.601
 3294SOL    HW121395   0.979   2.810   9.533
 3294SOL    HW221396   0.956   2.689   9.640
 3295SOL     OW21397   1.504   3.469   9.354
 3295SOL    HW121398   1.412   3.506   9.361
 3295SOL    HW221399   1.542   3.489   9.264
 3296SOL     OW21400   1.039   2.960  10.006
 3296SOL    HW121401   0.969   2.913  10.060
 3296SOL    HW221402   1.098   2.892   9.963
 3297SOL     OW21403   1.709   2.247  10.691
 3297SOL    HW121404   1.782   2.316  10.695
 3297SOL    HW221405   1.737   2.172  10.632
 3298SOL     OW21406   0.255   3.210   9.600
 3298SOL    HW121407   0.159   3.211   9.573
 3298SOL    HW221408   0.267   3.263   9.684
 3299SOL     OW21409   0.105   2.875  11.036
 3299SOL    HW121410   0.028   2.842  11.090
 3299SOL    HW221411   0.190   2.845  11.078
 3300SOL     OW21412   0.075   2.207   9.343
 3300SOL    HW121413  -0.017   2.179   9.314
 3300SOL    HW221414   0.106   2.284   9.287
 3301SOL     OW21415   1.440   2.718  10.708
 3301SOL    HW121416   1.383   2.770  10.645
 3301SOL    HW221417   1.536   2.730  10.684
 3302SOL     OW21418   0.072   2.028   9.628
 3302SOL    HW121419   0.055   2.111   9.574
 3302SOL    HW221420   0.162   1.991   9.606
 3303SOL     OW21421   1.183   3.197   9.429
 3303SOL    HW121422   1.084   3.186   9.431
 3303SOL    HW221423   1.217   3.212   9.522
 3304SOL     OW21424   0.390   3.603  10.870
 3304SOL    HW121425   0.299   3.644  10.868
 3304SOL    HW221426   0.383   3.509  10.902
 3305SOL     OW21427   1.674   2.745  10.564
 3305SOL    HW121428   1.647   2.656  10.527
 3305SOL    HW221429   1.675   2.813  10.491
 3306SOL     OW21430   1.225   2.187   9.759
 3306SOL    HW121431   1.290   2.113   9.748
 3306SOL    HW221432   1.245   2.237   9.843
 3307SOL     OW21433   1.777   2.204  10.952
 3307SOL    HW121434   1.760   2.235  10.858
 3307SOL    HW221435   1.693   2.167  10.990
 3308SOL     OW21436   1.730   2.796  10.827
 3308SOL    HW121437   1.768   2.887  10.842
 3308SOL    HW221438   1.722   2.779  10.728
 3309SOL     OW21439   0.859   3.236   9.326
 3309SOL    HW121440   0.813   3.251   9.414
 3309SOL    HW221441   0.903   3.321   9.296
 3310SOL     OW21442   1.083   2.846   9.397
 3310SOL    HW121443   1.060   2.899   9.315
 3310SOL    HW221444   1.164   2.790   9.378
 3311SOL     OW21445   0.428   2.286   9.830
 3311SOL    HW121446   0.458   2.214   9.768
 3311SOL    HW221447   0.389   2.246   9.913
 3312SOL     OW21448   0.770   3.192   9.611
 3312SOL    HW121449   0.724   3.105   9.628
 3312SOL    HW221450   0.861   3.189   9.652
 3313SOL     OW21451   0.618   3.429  10.594
 3313SOL    HW121452   0.613   3.511  10.651
 3313SOL    HW221453   0.707   3.426  10.549
 3314SOL     OW21454   1.352   1.914   9.478
 3314SOL    HW121455   1.387   1.873   9.394
 3314SOL    HW221456   1.262   1.876   9.498
 3315SOL     OW21457   1.300   2.315  10.001
 3315SOL    HW121458   1.241   2.395  10.005
 3315SOL    HW221459   1.315   2.280  10.094
 3316SOL     OW21460   0.039   2.939   9.610
 3316SOL    HW121461   0.138   2.928   9.601
 3316SOL    HW221462  -0.001   2.853   9.642
 3317SOL     OW21463   0.225   2.137  12.168
 3317SOL    HW121464   0.260   2.120  12.260
 3317SOL    HW221465   0.137   2.092  12.156
 3318SOL     OW21466   0.569   3.137  12.337
 3318SOL    HW121467   0.476   3.130  12.300
 3318SOL    HW221468   0.580   3.226  12.381
 3319SOL     OW21469   0.685   2.874  11.837
 3319SOL    HW121470   0.754   2.858  11.907
 3319SOL    HW221471   0.612   2.931  11.875
 3320SOL     OW21472   0.686   3.023  12.975
 3320SOL    HW121473   0.746   3.102  12.989
 3320SOL    HW221474   0.600   3.054  12.934
 3321SOL     OW21475   0.335   3.297  12.233
 3321SOL    HW121476   0.257   3.266  12.180
 3321SOL    HW221477   0.393   3.355  12.176
 3322SOL     OW21478   1.460   3.367  12.511
 3322SOL    HW121479   1.484   3.461  12.537
 3322SOL    HW221480   1.444   3.313  12.593
 3323SOL     OW21481   0.438   2.254  12.671
 3323SOL    HW121482   0.520   2.198  12.680
 3323SOL    HW221483   0.357   2.196  12.675
 3324SOL     OW21484   1.603   2.309  11.909
 3324SOL    HW121485   1.529   2.355  11.859
 3324SOL    HW221486   1.654   2.377  11.962
 3325SOL     OW21487   0.620   3.648  12.611
 3325SOL    HW121488   0.528   3.631  12.646
 3325SOL    HW221489   0.648   3.740  12.637
 3326SOL     OW21490   1.842   3.629  11.531
 3326SOL    HW121491   1.896   3.600  11.611
 3326SOL    HW221492   1.872   3.719  11.502
 3327SOL     OW21493   1.689   2.784  11.784
 3327SOL    HW121494   1.784   2.755  11.792
 3327SOL    HW221495   1.681   2.849  11.709
 3328SOL     OW21496   0.613   3.227  11.898
 3328SOL    HW121497   0.564   3.140  11.907
 3328SOL    HW221498   0.590   3.270  11.811
 3329SOL     OW21499   1.293   3.090  12.595
 3329SOL    HW121500   1.330   3.017  12.537
 3329SOL    HW221501   1.345   3.095  12.680
 3330SOL     OW21502   0.809   1.866  11.674
 3330SOL    HW121503   0.849   1.957  11.665
 3330SOL    HW221504   0.709   1.874  11.680
 3331SOL     OW21505   0.317   2.113  12.973
 3331SOL    HW121506   0.388   2.184  12.979
 3331SOL    HW221507   0.229   2.152  13.001
 3332SOL     OW21508   1.667   3.576  11.744
 3332SOL    HW121509   1.626   3.553  11.656
 3332SOL    HW221510   1.649   3.502  11.809
 3333SOL     OW21511   1.281   2.207  12.116
 3333SOL    HW121512   1.195   2.157  12.103
 3333SOL    HW221513   1.343   2.153  12.172
 3334SOL     OW21514   1.576   3.524  11.479
 3334SOL    HW121515   1.665   3.570  11.482
 3334SOL    HW221516   1.555   3.500  11.384
 3335SOL     OW21517   1.394   2.331  12.846
 3335SOL    HW121518   1.374   2.374  12.934
 3335SOL    HW221519   1.472   2.269  12.855
 3336SOL     OW21520   0.076   2.673  11.961
 3336SOL    HW121521   0.175   2.661  11.970
 3336SOL    HW221522   0.052   2.768  11.982
 3337SOL     OW21523   1.795   2.928  12.045
 3337SOL    HW121524   1.733   2.913  11.969
 3337SOL    HW221525   1.743   2.939  12.130
 3338SOL     OW21526   0.321   2.805  11.414
 3338SOL    HW121527   0.403   2.844  11.372
 3338SOL    HW221528   0.294   2.723  11.365
 3339SOL     OW21529   1.458   2.597  11.900
 3339SOL    HW121530   1.453   2.532  11.975
 3339SOL    HW221531   1.538   2.656  11.913
 3340SOL     OW21532   0.461   3.128  12.899
 3340SOL    HW121533   0.411   3.129  12.813
 3340SOL    HW221534   0.398   3.110  12.975
 3341SOL     OW21535   0.249   3.647  12.413
 3341SOL    HW121536   0.306   3.582  12.463
 3341SOL    HW221537   0.233   3.614  12.320
 3342SOL     OW21538   0.781   2.126  12.921
 3342SOL    HW121539   0.848   2.065  12.964
 3342SOL    HW221540   0.708   2.145  12.986
 3343SOL     OW21541   0.539   1.926  11.684
 3343SOL    HW121542   0.458   1.927  11.742
 3343SOL    HW221543   0.542   2.009  11.629
 3344SOL     OW21544   0.297   1.897  11.343
 3344SOL    HW121545   0.346   1.981  11.322
 3344SOL    HW221546   0.359   1.832  11.388
 3345SOL     OW21547   0.459   3.014  11.913
 3345SOL    HW121548   0.388   2.987  11.978
 3345SOL    HW221549   0.433   2.986  11.820
 3346SOL     OW21550   0.561   2.084  12.319
 3346SOL    HW121551   0.599   2.000  12.356
 3346SOL    HW221552   0.473   2.103  12.363
 3347SOL     OW21553   1.466   2.452  12.164
 3347SOL    HW121554   1.436   2.357  12.171
 3347SOL    HW221555   1.539   2.468  12.230
 3348SOL     OW21556   1.857   2.695  11.549
 3348SOL    HW121557   1.899   2.631  11.613
 3348SOL    HW221558   1.819   2.644  11.471
 3349SOL     OW21559   1.664   3.142  11.829
 3349SOL    HW121560   1.763   3.150  11.843
 3349SOL    HW221561   1.619   3.226  11.860
 3350SOL     OW21562   0.527   2.118  11.500
 3350SOL    HW121563   0.554   2.059  11.425
 3350SOL    HW221564   0.527   2.213  11.469
 3351SOL     OW21565   1.592   3.491  12.797
 3351SOL    HW121566   1.619   3.525  12.707
 3351SOL    HW221567   1.671   3.453  12.843
 3352SOL     OW21568   0.980   2.978  12.891
 3352SOL    HW121569   0.881   2.984  12.901
 3352SOL    HW221570   1.003   2.898  12.835
 3353SOL     OW21571   0.410   2.675  12.423
 3353SOL    HW121572   0.496   2.687  12.473
 3353SOL    HW221573   0.368   2.588  12.450
 3354SOL     OW21574   0.367   2.962  11.673
 3354SOL    HW121575   0.360   3.045  11.617
 3354SOL    HW221576   0.371   2.882  11.613
 3355SOL     OW21577   1.272   3.307  12.314
 3355SOL    HW121578   1.319   3.320  12.401
 3355SOL    HW221579   1.206   3.233  12.323
 3356SOL     OW21580   0.354   3.372  12.501
 3356SOL    HW121581   0.333   3.328  12.414
 3356SOL    HW221582   0.451   3.398  12.504
 3357SOL     OW21583   0.402   2.613  12.770
 3357SOL    HW121584   0.470   2.668  12.723
 3357SOL    HW221585   0.442   2.525  12.797
 3358SOL     OW21586   1.587   2.641  12.842
 3358SOL    HW121587   1.495   2.679  12.837
 3358SOL    HW221588   1.647   2.688  12.777
 3359SOL     OW21589   1.013   1.967  12.942
 3359SOL    HW121590   1.019   2.052  12.890
 3359SOL    HW221591   1.045   1.891  12.885
 3360SOL     OW21592   0.504   1.912  12.912
 3360SOL    HW121593   0.462   1.855  12.842
 3360SOL    HW221594   0.438   1.981  12.944
 3361SOL     OW21595   0.307   2.075  12.403
 3361SOL    HW121596   0.284   2.112  12.493
 3361SOL    HW221597   0.277   1.980  12.397
 3362SOL     OW21598   0.732   2.496  12.236
 3362SOL    HW121599   0.791   2.470  12.160
 3362SOL    HW221600   0.704   2.592  12.225
 3363SOL     OW21601   1.728   2.797  13.026
 3363SOL    HW121602   1.682   2.790  12.937
 3363SOL    HW221603   1.666   2.841  13.092
 3364SOL     OW21604   0.307   1.925  11.790
 3364SOL    HW121605   0.296   2.019  11.823
 3364SOL    HW221606   0.302   1.862  11.867
 3365SOL     OW21607   0.350   2.760  12.976
 3365SOL    HW121608   0.426   2.804  13.024
 3365SOL    HW221609   0.385   2.713  12.894
 3366SOL     OW21610   0.088   3.663  12.099
 3366SOL    HW121611   0.046   3.577  12.072
 3366SOL    HW221612   0.182   3.666  12.065
 3367SOL     OW21613   0.504   3.430  12.082
 3367SOL    HW121614   0.570   3.504  12.091
 3367SOL    HW221615   0.548   3.351  12.040
 3368SOL     OW21616   1.369   2.812  12.832
 3368SOL    HW121617   1.408   2.901  12.852
 3368SOL    HW221618   1.379   2.792  12.735
 3369SOL     OW21619   0.671   2.326  12.441
 3369SOL    HW121620   0.637   2.237  12.411
 3369SOL    HW221621   0.697   2.380  12.361
 3370SOL     OW21622   0.159   2.999  12.638
 3370SOL    HW121623   0.181   2.938  12.714
 3370SOL    HW221624   0.169   2.950  12.552
 3371SOL     OW21625   1.759   3.609  12.326
 3371SOL    HW121626   1.820   3.639  12.253
 3371SOL    HW221627   1.721   3.520  12.304
 3372SOL     OW21628   1.252   3.593  12.300
 3372SOL    HW121629   1.336   3.598  12.246
 3372SOL    HW221630   1.229   3.497  12.318
 3373SOL     OW21631   1.388   3.435  11.649
 3373SOL    HW121632   1.455   3.447  11.575
 3373SOL    HW221633   1.348   3.524  11.672
 3374SOL     OW21634   1.650   3.582  12.566
 3374SOL    HW121635   1.703   3.592  12.482
 3374SOL    HW221636   1.623   3.672  12.600
 3375SOL     OW21637   1.504   3.469  11.216
 3375SOL    HW121638   1.412   3.506  11.223
 3375SOL    HW221639   1.542   3.489  11.126
 3376SOL     OW21640   0.372   3.150  12.662
 3376SOL    HW121641   0.359   3.243  12.628
 3376SOL    HW221642   0.288   3.098  12.649
 3377SOL     OW21643   1.614   3.154  12.461
 3377SOL    HW121644   1.674   3.157  12.541
 3377SOL    HW221645   1.539   3.218  12.474
 3378SOL     OW21646   0.105   2.875  12.898
 3378SOL    HW121647   0.028   2.842  12.952
 3378SOL    HW221648   0.190   2.845  12.940
 3379SOL     OW21649   0.672   2.065  12.661
 3379SOL    HW121650   0.762   2.049  12.621
 3379SOL    HW221651   0.680   2.070  12.760
 3380SOL     OW21652   0.075   2.207  11.205
 3380SOL    HW121653  -0.017   2.179  11.176
 3380SOL    HW221654   0.106   2.284  11.149
 3381SOL     OW21655   0.613   2.704  12.603
 3381SOL    HW121656   0.669   2.785  12.586
 3381SOL    HW221657   0.672   2.624  12.606
 3382SOL     OW21658   1.493   3.629  12.131
 3382SOL    HW121659   1.526   3.693  12.062
 3382SOL    HW221660   1.559   3.623  12.206
 3383SOL     OW21661   0.716   2.427  12.880
 3383SOL    HW121662   0.735   2.492  12.954
 3383SOL    HW221663   0.776   2.347  12.889
 3384SOL     OW21664   0.390   3.603  12.732
 3384SOL    HW121665   0.299   3.644  12.730
 3384SOL    HW221666   0.383   3.509  12.764
 3385SOL     OW21667   1.674   2.745  12.426
 3385SOL    HW121668   1.647   2.656  12.389
 3385SOL    HW221669   1.675   2.813  12.353
 3386SOL     OW21670   0.594   2.607  11.824
 3386SOL    HW121671   0.644   2.692  11.805
 3386SOL    HW221672   0.506   2.609  11.776
 3387SOL     OW21673   1.861   3.431  12.023
 3387SOL    HW121674   1.790   3.419  11.953
 3387SOL    HW221675   1.862   3.352  12.083
 3388SOL     OW21676   0.079   3.102  11.825
 3388SOL    HW121677   0.078   3.055  11.913
 3388SOL    HW221678   0.161   3.074  11.774
 3389SOL     OW21679   1.705   3.349  12.276
 3389SOL    HW121680   1.612   3.324  12.249
 3389SOL    HW221681   1.731   3.299  12.358
 3390SOL     OW21682   0.812   3.448  11.859
 3390SOL    HW121683   0.844   3.458  11.765
 3390SOL    HW221684   0.733   3.386  11.861
 3391SOL     OW21685   1.424   2.076  12.284
 3391SOL    HW121686   1.476   2.011  12.339
 3391SOL    HW221687   1.375   2.139  12.345
 3392SOL     OW21688   1.300   2.315  11.863
 3392SOL    HW121689   1.241   2.395  11.867
 3392SOL    HW221690   1.315   2.280  11.956
 3393SOL     OW21691   0.039   2.939  11.472
 3393SOL    HW121692   0.138   2.928  11.463
 3393SOL    HW221693  -0.001   2.853  11.504
 3394SOL     OW21694   0.230   2.490  13.147
 3394SOL    HW121695   0.137   2.488  13.184
 3394SOL    HW221696   0.231   2.451  13.055
 3395SOL     OW21697   0.768   3.006  14.057
 3395SOL    HW121698   0.690   3.023  14.117
 3395SOL    HW221699   0.802   3.093  14.021
 3396SOL     OW21700   1.127   3.203  14.724
 3396SOL    HW121701   1.174   3.203  14.812
 3396SOL    HW221702   1.079   3.116  14.713
 3397SOL     OW21703   0.606   2.826  13.157
 3397SOL    HW121704   0.613   2.910  13.103
 3397SOL    HW221705   0.652   2.839  13.245
 3398SOL     OW21706   1.842   3.629  13.393
 3398SOL    HW121707   1.896   3.600  13.473
 3398SOL    HW221708   1.872   3.719  13.364
 3399SOL     OW21709   0.809   1.866  13.536
 3399SOL    HW121710   0.849   1.957  13.527
 3399SOL    HW221711   0.709   1.874  13.542
 3400SOL     OW21712   1.187   3.654  14.650
 3400SOL    HW121713   1.211   3.714  14.574
 3400SOL    HW221714   1.194   3.559  14.620
 3401SOL     OW21715   0.598   2.591  13.304
 3401SOL    HW121716   0.622   2.660  13.236
 3401SOL    HW221717   0.520   2.624  13.358
 3402SOL     OW21718   1.576   3.524  13.341
 3402SOL    HW121719   1.665   3.570  13.344
 3402SOL    HW221720   1.555   3.500  13.246
 3403SOL     OW21721   1.394   2.331  14.708
 3403SOL    HW121722   1.374   2.374  14.796
 3403SOL    HW221723   1.472   2.269  14.717
 3404SOL     OW21724   0.973   2.752  14.606
 3404SOL    HW121725   1.019   2.668  14.577
 3404SOL    HW221726   0.917   2.786  14.531
 3405SOL     OW21727   1.719   2.447  14.865
 3405SOL    HW121728   1.693   2.536  14.829
 3405SOL    HW221729   1.717   2.379  14.792
 3406SOL     OW21730   0.550   2.058  13.919
 3406SOL    HW121731   0.545   2.053  14.019
 3406SOL    HW221732   0.552   2.154  13.890
 3407SOL     OW21733   0.321   2.805  13.276
 3407SOL    HW121734   0.403   2.844  13.234
 3407SOL    HW221735   0.294   2.723  13.227
 3408SOL     OW21736   0.249   3.647  14.275
 3408SOL    HW121737   0.306   3.582  14.325
 3408SOL    HW221738   0.233   3.614  14.182
 3409SOL     OW21739   0.940   3.560  13.938
 3409SOL    HW121740   1.020   3.503  13.959
 3409SOL    HW221741   0.891   3.520  13.861
 3410SOL     OW21742   0.614   1.984  13.151
 3410SOL    HW121743   0.712   1.962  13.158
 3410SOL    HW221744   0.583   1.967  13.058
 3411SOL     OW21745   0.888   3.376  14.229
 3411SOL    HW121746   0.865   3.351  14.135
 3411SOL    HW221747   0.949   3.307  14.268
 3412SOL     OW21748   0.539   1.926  13.546
 3412SOL    HW121749   0.458   1.927  13.604
 3412SOL    HW221750   0.542   2.009  13.491
 3413SOL     OW21751   1.434   3.050  13.075
 3413SOL    HW121752   1.466   2.974  13.132
 3413SOL    HW221753   1.342   3.077  13.105
 3414SOL     OW21754   0.297   1.897  13.205
 3414SOL    HW121755   0.346   1.981  13.184
 3414SOL    HW221756   0.359   1.832  13.250
 3415SOL     OW21757   1.076   2.545  14.498
 3415SOL    HW121758   0.996   2.484  14.501
 3415SOL    HW221759   1.157   2.492  14.474
 3416SOL     OW21760   1.227   3.432  13.827
 3416SOL    HW121761   1.248   3.506  13.762
 3416SOL    HW221762   1.295   3.432  13.900
 3417SOL     OW21763   0.078   2.418  14.420
 3417SOL    HW121764   0.170   2.417  14.379
 3417SOL    HW221765   0.072   2.492  14.487
 3418SOL     OW21766   1.017   1.901  13.787
 3418SOL    HW121767   0.945   1.906  13.718
 3418SOL    HW221768   0.993   1.832  13.856
 3419SOL     OW21769   1.429   3.035  13.901
 3419SOL    HW121770   1.374   2.951  13.894
 3419SOL    HW221771   1.455   3.064  13.809
 3420SOL     OW21772   0.488   3.247  13.208
 3420SOL    HW121773   0.401   3.232  13.255
 3420SOL    HW221774   0.471   3.273  13.113
 3421SOL     OW21775   0.527   2.118  13.362
 3421SOL    HW121776   0.554   2.059  13.287
 3421SOL    HW221777   0.527   2.213  13.331
 3422SOL     OW21778   1.064   3.209  14.374
 3422SOL    HW121779   0.984   3.186  14.429
 3422SOL    HW221780   1.147   3.183  14.423
 3423SOL     OW21781   0.705   2.912  13.402
 3423SOL    HW121782   0.691   2.919  13.501
 3423SOL    HW221783   0.789   2.861  13.384
 3424SOL     OW21784   1.274   2.248  14.296
 3424SOL    HW121785   1.295   2.322  14.360
 3424SOL    HW221786   1.185   2.265  14.253
 3425SOL     OW21787   0.064   3.426  14.365
 3425SOL    HW121788   0.018   3.508  14.331
 3425SOL    HW221789   0.162   3.445  14.374
 3426SOL     OW21790   1.272   3.307  14.176
 3426SOL    HW121791   1.319   3.320  14.263
 3426SOL    HW221792   1.206   3.233  14.185
 3427SOL     OW21793   1.582   2.501  13.506
 3427SOL    HW121794   1.551   2.562  13.579
 3427SOL    HW221795   1.632   2.553  13.437
 3428SOL     OW21796   0.354   3.372  14.363
 3428SOL    HW121797   0.333   3.328  14.276
 3428SOL    HW221798   0.451   3.398  14.366
 3429SOL     OW21799   1.587   2.641  14.704
 3429SOL    HW121800   1.495   2.679  14.699
 3429SOL    HW221801   1.647   2.688  14.639
 3430SOL     OW21802   0.504   1.912  14.774
 3430SOL    HW121803   0.462   1.855  14.704
 3430SOL    HW221804   0.438   1.981  14.806
 3431SOL     OW21805   0.037   3.172  14.316
 3431SOL    HW121806   0.090   3.123  14.384
 3431SOL    HW221807   0.059   3.270  14.321
 3432SOL     OW21808   0.307   1.925  13.652
 3432SOL    HW121809   0.296   2.019  13.685
 3432SOL    HW221810   0.302   1.862  13.729
 3433SOL     OW21811   1.068   3.195  13.883
 3433SOL    HW121812   1.075   3.111  13.828
 3433SOL    HW221813   1.130   3.264  13.847
 3434SOL     OW21814   1.138   2.242  14.712
 3434SOL    HW121815   1.093   2.305  14.776
 3434SOL    HW221816   1.231   2.273  14.695
 3435SOL     OW21817   0.252   3.426  14.778
 3435SOL    HW121818   0.222   3.483  14.854
 3435SOL    HW221819   0.245   3.329  14.804
 3436SOL     OW21820   0.473   2.362  13.225
 3436SOL    HW121821   0.534   2.442  13.229
 3436SOL    HW221822   0.378   2.393  13.232
 3437SOL     OW21823   1.759   3.609  14.188
 3437SOL    HW121824   1.820   3.639  14.115
 3437SOL    HW221825   1.721   3.520  14.166
 3438SOL     OW21826   1.252   3.593  14.162
 3438SOL    HW121827   1.336   3.598  14.108
 3438SOL    HW221828   1.229   3.497  14.180
 3439SOL     OW21829   0.083   3.120  14.056
 3439SOL    HW121830   0.078   3.119  14.156
 3439SOL    HW221831   0.000   3.079  14.018
 3440SOL     OW21832   1.726   1.997  13.557
 3440SOL    HW121833   1.799   1.980  13.490
 3440SOL    HW221834   1.695   1.910  13.595
 3441SOL     OW21835   0.130   3.656  14.885
 3441SOL    HW121836   0.089   3.582  14.938
 3441SOL    HW221837   0.194   3.707  14.943
 3442SOL     OW21838   0.255   3.210  13.324
 3442SOL    HW121839   0.159   3.211  13.297
 3442SOL    HW221840   0.267   3.263  13.408
 3443SOL     OW21841   0.075   2.207  13.067
 3443SOL    HW121842  -0.017   2.179  13.038
 3443SOL    HW221843   0.106   2.284  13.011
 3444SOL     OW21844   0.072   2.028  13.352
 3444SOL    HW121845   0.055   2.111  13.298
 3444SOL    HW221846   0.162   1.991  13.330
 3445SOL     OW21847   1.183   3.197  13.153
 3445SOL    HW121848   1.084   3.186  13.155
 3445SOL    HW221849   1.217   3.212  13.246
 3446SOL     OW21850   0.613   2.704  14.465
 3446SOL    HW121851   0.669   2.785  14.448
 3446SOL    HW221852   0.672   2.624  14.468
 3447SOL     OW21853   0.390   3.603  14.594
 3447SOL    HW121854   0.299   3.644  14.592
 3447SOL    HW221855   0.383   3.509  14.626
 3448SOL     OW21856   0.594   2.607  13.686
 3448SOL    HW121857   0.644   2.692  13.667
 3448SOL    HW221858   0.506   2.609  13.638
 3449SOL     OW21859   0.221   3.176  14.878
 3449SOL    HW121860   0.156   3.103  14.857
 3449SOL    HW221861   0.225   3.190  14.976
 3450SOL     OW21862   0.019   2.230  15.543
 3450SOL    HW121863  -0.063   2.273  15.582
 3450SOL    HW221864  -0.009   2.157  15.480
 3451SOL     OW21865   0.569   3.137  16.062
 3451SOL    HW121866   0.476   3.130  16.025
 3451SOL    HW221867   0.580   3.226  16.106
 3452SOL     OW21868   1.555   3.373  15.599
 3452SOL    HW121869   1.498   3.357  15.680
 3452SOL    HW221870   1.496   3.383  15.519
 3453SOL     OW21871   1.135   2.565  15.613
 3453SOL    HW121872   1.192   2.643  15.588
 3453SOL    HW221873   1.075   2.591  15.689
 3454SOL     OW21874   0.850   2.660  16.720
 3454SOL    HW121875   0.846   2.736  16.785
 3454SOL    HW221876   0.872   2.696  16.629
 3455SOL     OW21877   0.335   3.297  15.958
 3455SOL    HW121878   0.257   3.266  15.905
 3455SOL    HW221879   0.393   3.355  15.901
 3456SOL     OW21880   1.127   3.203  16.587
 3456SOL    HW121881   1.174   3.203  16.675
 3456SOL    HW221882   1.079   3.116  16.576
 3457SOL     OW21883   0.122   2.505  15.459
 3457SOL    HW121884   0.077   2.417  15.476
 3457SOL    HW221885   0.121   2.559  15.543
 3458SOL     OW21886   0.113   2.599  16.494
 3458SOL    HW121887   0.201   2.586  16.539
 3458SOL    HW221888   0.100   2.696  16.472
 3459SOL     OW21889   0.613   3.227  15.622
 3459SOL    HW121890   0.564   3.140  15.631
 3459SOL    HW221891   0.590   3.270  15.535
 3460SOL     OW21892   0.197   2.838  16.161
 3460SOL    HW121893   0.286   2.793  16.147
 3460SOL    HW221894   0.124   2.773  16.142
 3461SOL     OW21895   0.317   2.113  16.698
 3461SOL    HW121896   0.388   2.184  16.704
 3461SOL    HW221897   0.229   2.152  16.726
 3462SOL     OW21898   1.667   3.576  15.468
 3462SOL    HW121899   1.626   3.553  15.380
 3462SOL    HW221900   1.649   3.502  15.533
 3463SOL     OW21901   1.281   2.207  15.841
 3463SOL    HW121902   1.195   2.157  15.828
 3463SOL    HW221903   1.343   2.153  15.897
 3464SOL     OW21904   0.130   3.683  16.468
 3464SOL    HW121905   0.120   3.668  16.567
 3464SOL    HW221906   0.044   3.719  16.432
 3465SOL     OW21907   1.795   2.928  15.769
 3465SOL    HW121908   1.733   2.913  15.693
 3465SOL    HW221909   1.743   2.939  15.854
 3466SOL     OW21910   0.464   3.605  15.219
 3466SOL    HW121911   0.497   3.644  15.305
 3466SOL    HW221912   0.540   3.598  15.154
 3467SOL     OW21913   0.249   3.647  16.138
 3467SOL    HW121914   0.306   3.582  16.188
 3467SOL    HW221915   0.233   3.614  16.045
 3468SOL     OW21916   0.382   2.562  15.376
 3468SOL    HW121917   0.427   2.472  15.373
 3468SOL    HW221918   0.288   2.551  15.409
 3469SOL     OW21919   0.614   1.984  15.013
 3469SOL    HW121920   0.712   1.962  15.020
 3469SOL    HW221921   0.583   1.967  14.920
 3470SOL     OW21922   0.888   3.376  16.092
 3470SOL    HW121923   0.865   3.351  15.998
 3470SOL    HW221924   0.949   3.307  16.131
 3471SOL     OW21925   0.922   2.365  15.795
 3471SOL    HW121926   0.897   2.356  15.699
 3471SOL    HW221927   0.970   2.283  15.826
 3472SOL     OW21928   0.539   1.926  15.408
 3472SOL    HW121929   0.458   1.927  15.466
 3472SOL    HW221930   0.542   2.009  15.353
 3473SOL     OW21931   0.297   1.897  15.067
 3473SOL    HW121932   0.346   1.981  15.046
 3473SOL    HW221933   0.359   1.832  15.112
 3474SOL     OW21934   1.271   3.659  15.487
 3474SOL    HW121935   1.315   3.723  15.423
 3474SOL    HW221936   1.221   3.711  15.557
 3475SOL     OW21937   0.078   2.418  16.283
 3475SOL    HW121938   0.170   2.417  16.242
 3475SOL    HW221939   0.072   2.492  16.350
 3476SOL     OW21940   0.866   2.316  15.538
 3476SOL    HW121941   0.834   2.388  15.476
 3476SOL    HW221942   0.890   2.235  15.485
 3477SOL     OW21943   1.429   3.035  15.763
 3477SOL    HW121944   1.374   2.951  15.756
 3477SOL    HW221945   1.455   3.064  15.671
 3478SOL     OW21946   1.466   2.452  15.889
 3478SOL    HW121947   1.436   2.357  15.896
 3478SOL    HW221948   1.539   2.468  15.955
 3479SOL     OW21949   0.488   3.247  15.070
 3479SOL    HW121950   0.401   3.232  15.117
 3479SOL    HW221951   0.471   3.273  14.975
 3480SOL     OW21952   1.592   3.491  16.522
 3480SOL    HW121953   1.619   3.525  16.432
 3480SOL    HW221954   1.671   3.453  16.568
 3481SOL     OW21955   1.638   2.961  15.976
 3481SOL    HW121956   1.643   3.042  16.035
 3481SOL    HW221957   1.552   2.963  15.925
 3482SOL     OW21958   0.410   2.675  16.148
 3482SOL    HW121959   0.496   2.687  16.198
 3482SOL    HW221960   0.368   2.588  16.175
 3483SOL     OW21961   1.274   2.248  16.159
 3483SOL    HW121962   1.295   2.322  16.223
 3483SOL    HW221963   1.185   2.265  16.116
 3484SOL     OW21964   0.367   2.962  15.397
 3484SOL    HW121965   0.360   3.045  15.341
 3484SOL    HW221966   0.371   2.882  15.337
 3485SOL     OW21967   0.566   2.399  15.761
 3485SOL    HW121968   0.578   2.465  15.687
 3485SOL    HW221969   0.612   2.433  15.844
 3486SOL     OW21970   0.354   3.372  16.226
 3486SOL    HW121971   0.333   3.328  16.139
 3486SOL    HW221972   0.451   3.398  16.229
 3487SOL     OW21973   0.402   2.613  16.495
 3487SOL    HW121974   0.470   2.668  16.448
 3487SOL    HW221975   0.442   2.525  16.522
 3488SOL     OW21976   0.350   2.760  16.701
 3488SOL    HW121977   0.426   2.804  16.749
 3488SOL    HW221978   0.385   2.713  16.619
 3489SOL     OW21979   1.160   2.069  16.374
 3489SOL    HW121980   1.160   2.133  16.451
 3489SOL    HW221981   1.188   2.117  16.291
 3490SOL     OW21982   0.504   3.430  15.806
 3490SOL    HW121983   0.570   3.504  15.815
 3490SOL    HW221984   0.548   3.351  15.764
 3491SOL     OW21985   0.189   2.382  16.619
 3491SOL    HW121986   0.248   2.342  16.549
 3491SOL    HW221987   0.131   2.453  16.578
 3492SOL     OW21988   1.657   2.466  16.103
 3492SOL    HW121989   1.619   2.397  16.165
 3492SOL    HW221990   1.739   2.430  16.059
 3493SOL     OW21991   0.252   3.426  16.641
 3493SOL    HW121992   0.222   3.483  16.717
 3493SOL    HW221993   0.245   3.329  16.667
 3494SOL     OW21994   0.671   2.326  16.166
 3494SOL    HW121995   0.637   2.237  16.136
 3494SOL    HW221996   0.697   2.380  16.086
 3495SOL     OW21997   0.159   2.999  16.363
 3495SOL    HW121998   0.181   2.938  16.439
 3495SOL    HW221999   0.169   2.950  16.277
 3496SOL     OW22000   1.347   2.921  16.131
 3496SOL    HW122001   1.371   2.858  16.057
 3496SOL    HW222002   1.257   2.961  16.113
 3497SOL     OW22003   0.083   3.120  15.919
 3497SOL    HW122004   0.078   3.119  16.019
 3497SOL    HW222005   0.000   3.079  15.881
 3498SOL     OW22006   1.388   3.435  15.373
 3498SOL    HW122007   1.455   3.447  15.299
 3498SOL    HW222008   1.348   3.524  15.396
 3499SOL     OW22009   0.130   3.656  16.748
 3499SOL    HW122010   0.089   3.582  16.801
 3499SOL    HW222011   0.194   3.707  16.806
 3500SOL     OW22012   0.263   2.188  15.616
 3500SOL    HW122013   0.184   2.239  15.582
 3500SOL    HW222014   0.254   2.173  15.714
 3501SOL     OW22015   0.372   3.150  16.387
 3501SOL    HW122016   0.359   3.243  16.353
 3501SOL    HW222017   0.288   3.098  16.374
 3502SOL     OW22018   1.614   3.154  16.186
 3502SOL    HW122019   1.674   3.157  16.266
 3502SOL    HW222020   1.539   3.218  16.199
 3503SOL     OW22021   1.014   2.098  15.868
 3503SOL    HW122022   1.006   2.062  15.775
 3503SOL    HW222023   1.012   2.022  15.933
 3504SOL     OW22024   1.709   2.247  16.278
 3504SOL    HW122025   1.782   2.316  16.282
 3504SOL    HW222026   1.737   2.172  16.219
 3505SOL     OW22027   0.255   3.210  15.186
 3505SOL    HW122028   0.159   3.211  15.159
 3505SOL    HW222029   0.267   3.263  15.270
 3506SOL     OW22030   0.105   2.875  16.623
 3506SOL    HW122031   0.028   2.842  16.677
 3506SOL    HW222032   0.190   2.845  16.665
 3507SOL     OW22033   0.672   2.065  16.386
 3507SOL    HW122034   0.762   2.049  16.346
 3507SOL    HW222035   0.680   2.070  16.485
 3508SOL     OW22036   1.440   2.718  16.295
 3508SOL    HW122037   1.383   2.770  16.232
 3508SOL    HW222038   1.536   2.730  16.271
 3509SOL     OW22039   0.072   2.028  15.214
 3509SOL    HW122040   0.055   2.111  15.160
 3509SOL    HW222041   0.162   1.991  15.192
 3510SOL     OW22042   1.183   3.197  15.015
 3510SOL    HW122043   1.084   3.186  15.017
 3510SOL    HW222044   1.217   3.212  15.108
 3511SOL     OW22045   0.613   2.704  16.328
 3511SOL    HW122046   0.669   2.785  16.311
 3511SOL    HW222047   0.672   2.624  16.331
 3512SOL     OW22048   0.716   2.427  16.605
 3512SOL    HW122049   0.735   2.492  16.679
 3512SOL    HW222050   0.776   2.347  16.614
 3513SOL     OW22051   0.390   3.603  16.457
 3513SOL    HW122052   0.299   3.644  16.455
 3513SOL    HW222053   0.383   3.509  16.489
 3514SOL     OW22054   0.594   2.607  15.548
 3514SOL    HW122055   0.644   2.692  15.529
 3514SOL    HW222056   0.506   2.609  15.500
 3515SOL     OW22057   1.777   2.204  16.539
 3515SOL    HW122058   1.760   2.235  16.445
 3515SOL    HW222059   1.693   2.167  16.577
 3516SOL     OW22060   0.661   3.652  15.850
 3516SOL    HW122061   0.615   3.740  15.837
 3516SOL    HW222062   0.760   3.664  15.843
 3517SOL     OW22063   0.221   3.176  16.741
 3517SOL    HW122064   0.156   3.103  16.720
 3517SOL    HW222065   0.225   3.190  16.839
 3518SOL     OW22066   0.079   3.102  15.549
 3518SOL    HW122067   0.078   3.055  15.637
 3518SOL    HW222068   0.161   3.074  15.498
 3519SOL     OW22069   1.824   2.054  16.124
 3519SOL    HW122070   1.820   1.964  16.168
 3519SOL    HW222071   1.827   2.043  16.025
 3520SOL     OW22072   0.428   2.286  15.416
 3520SOL    HW122073   0.458   2.214  15.354
 3520SOL    HW222074   0.389   2.246  15.499
 3521SOL     OW22075   1.424   2.076  16.009
 3521SOL    HW122076   1.476   2.011  16.064
 3521SOL    HW222077   1.375   2.139  16.070
 3522SOL     OW22078   1.001   1.896  16.051
 3522SOL    HW122079   0.938   1.824  16.020
 3522SOL    HW222080   1.094   1.860  16.051
 3523SOL     OW22081   0.618   3.429  16.181
 3523SOL    HW122082   0.613   3.511  16.238
 3523SOL    HW222083   0.707   3.426  16.136
 3524SOL     OW22084   0.039   2.939  15.196
 3524SOL    HW122085   0.138   2.928  15.187
 3524SOL    HW222086  -0.001   2.853  15.228
 3525SOL     OW22087   0.875   3.508  15.233
 3525SOL    HW122088   0.798   3.473  15.179
 3525SOL    HW222089   0.843   3.579  15.295
 3526SOL     OW22090   0.230   2.490  16.872
 3526SOL    HW122091   0.137   2.488  16.909
 3526SOL    HW222092   0.231   2.451  16.780
 3527SOL     OW22093   0.019   2.230  17.406
 3527SOL    HW122094  -0.063   2.273  17.445
 3527SOL    HW222095  -0.009   2.157  17.343
 3528SOL     OW22096   0.768   3.006  17.782
 3528SOL    HW122097   0.690   3.023  17.842
 3528SOL    HW222098   0.802   3.093  17.746
 3529SOL     OW22099   0.122   2.505  17.322
 3529SOL    HW122100   0.077   2.417  17.339
 3529SOL    HW222101   0.121   2.559  17.406
 3530SOL     OW22102   1.689   2.784  17.371
 3530SOL    HW122103   1.784   2.755  17.379
 3530SOL    HW222104   1.681   2.849  17.296
 3531SOL     OW22105   1.641   2.970  17.191
 3531SOL    HW122106   1.727   2.972  17.139
 3531SOL    HW222107   1.655   3.017  17.279
 3532SOL     OW22108   0.613   3.227  17.485
 3532SOL    HW122109   0.564   3.140  17.494
 3532SOL    HW222110   0.590   3.270  17.398
 3533SOL     OW22111   0.197   2.838  18.023
 3533SOL    HW122112   0.286   2.793  18.009
 3533SOL    HW222113   0.124   2.773  18.004
 3534SOL     OW22114   1.466   3.279  17.712
 3534SOL    HW122115   1.407   3.285  17.792
 3534SOL    HW222116   1.451   3.191  17.666
 3535SOL     OW22117   1.667   3.576  17.331
 3535SOL    HW122118   1.626   3.553  17.243
 3535SOL    HW222119   1.649   3.502  17.396
 3536SOL     OW22120   1.041   2.563  17.188
 3536SOL    HW122121   1.067   2.559  17.284
 3536SOL    HW222122   0.956   2.512  17.174
 3537SOL     OW22123   1.795   2.928  17.632
 3537SOL    HW122124   1.733   2.913  17.556
 3537SOL    HW222125   1.743   2.939  17.717
 3538SOL     OW22126   0.321   2.805  17.001
 3538SOL    HW122127   0.403   2.844  16.959
 3538SOL    HW222128   0.294   2.723  16.952
 3539SOL     OW22129   1.400   1.969  17.185
 3539SOL    HW122130   1.376   1.932  17.095
 3539SOL    HW222131   1.499   1.985  17.189
 3540SOL     OW22132   0.297   1.897  16.930
 3540SOL    HW122133   0.346   1.981  16.909
 3540SOL    HW222134   0.359   1.832  16.975
 3541SOL     OW22135   1.032   2.411  16.775
 3541SOL    HW122136   0.991   2.493  16.736
 3541SOL    HW222137   1.096   2.437  16.848
 3542SOL     OW22138   1.429   3.035  17.626
 3542SOL    HW122139   1.374   2.951  17.619
 3542SOL    HW222140   1.455   3.064  17.534
 3543SOL     OW22141   1.664   3.142  17.416
 3543SOL    HW122142   1.763   3.150  17.430
 3543SOL    HW222143   1.619   3.226  17.447
 3544SOL     OW22144   1.390   2.437  16.837
 3544SOL    HW122145   1.336   2.416  16.918
 3544SOL    HW222146   1.481   2.396  16.846
 3545SOL     OW22147   1.638   2.961  17.838
 3545SOL    HW122148   1.643   3.042  17.897
 3545SOL    HW222149   1.552   2.963  17.787
 3546SOL     OW22150   0.410   2.675  18.010
 3546SOL    HW122151   0.496   2.687  18.060
 3546SOL    HW222152   0.368   2.588  18.037
 3547SOL     OW22153   0.566   2.399  17.624
 3547SOL    HW122154   0.578   2.465  17.550
 3547SOL    HW222155   0.612   2.433  17.707
 3548SOL     OW22156   0.573   2.732  17.788
 3548SOL    HW122157   0.617   2.821  17.779
 3548SOL    HW222158   0.510   2.732  17.865
 3549SOL     OW22159   1.209   2.387  17.034
 3549SOL    HW122160   1.222   2.303  17.088
 3549SOL    HW222161   1.180   2.461  17.094
 3550SOL     OW22162   0.339   2.371  17.765
 3550SOL    HW122163   0.287   2.288  17.748
 3550SOL    HW222164   0.416   2.376  17.701
 3551SOL     OW22165   0.008   3.188  16.959
 3551SOL    HW122166  -0.085   3.209  16.928
 3551SOL    HW222167   0.018   3.089  16.972
 3552SOL     OW22168   0.504   3.430  17.669
 3552SOL    HW122169   0.570   3.504  17.678
 3552SOL    HW222170   0.548   3.351  17.627
 3553SOL     OW22171   0.815   2.434  17.084
 3553SOL    HW122172   0.822   2.345  17.038
 3553SOL    HW222173   0.721   2.468  17.076
 3554SOL     OW22174   0.671   2.326  18.028
 3554SOL    HW122175   0.637   2.237  17.998
 3554SOL    HW222176   0.697   2.380  17.948
 3555SOL     OW22177   1.302   2.717  17.068
 3555SOL    HW122178   1.216   2.686  17.110
 3555SOL    HW222179   1.298   2.703  16.969
 3556SOL     OW22180   1.759   3.609  17.913
 3556SOL    HW122181   1.820   3.639  17.840
 3556SOL    HW222182   1.721   3.520  17.891
 3557SOL     OW22183   0.083   3.120  17.781
 3557SOL    HW122184   0.078   3.119  17.881
 3557SOL    HW222185   0.000   3.079  17.743
 3558SOL     OW22186   1.726   1.997  17.282
 3558SOL    HW122187   1.799   1.980  17.215
 3558SOL    HW222188   1.695   1.910  17.320
 3559SOL     OW22189   0.263   2.188  17.479
 3559SOL    HW122190   0.184   2.239  17.445
 3559SOL    HW222191   0.254   2.173  17.577
 3560SOL     OW22192   0.822   2.864  18.131
 3560SOL    HW122193   0.862   2.863  18.039
 3560SOL    HW222194   0.832   2.956  18.171
 3561SOL     OW22195   1.504   3.469  16.803
 3561SOL    HW122196   1.412   3.506  16.810
 3561SOL    HW222197   1.542   3.489  16.713
 3562SOL     OW22198   0.590   3.349  17.250
 3562SOL    HW122199   0.632   3.291  17.180
 3562SOL    HW222200   0.546   3.428  17.206
 3563SOL     OW22201   0.072   2.028  17.077
 3563SOL    HW122202   0.055   2.111  17.023
 3563SOL    HW222203   0.162   1.991  17.055
 3564SOL     OW22204   1.493   3.629  17.718
 3564SOL    HW122205   1.526   3.693  17.649
 3564SOL    HW222206   1.559   3.623  17.793
 3565SOL     OW22207   1.674   2.745  18.013
 3565SOL    HW122208   1.647   2.656  17.976
 3565SOL    HW222209   1.675   2.813  17.940
 3566SOL     OW22210   1.861   3.431  17.610
 3566SOL    HW122211   1.790   3.419  17.540
 3566SOL    HW222212   1.862   3.352  17.670
 3567SOL     OW22213   1.705   3.349  17.863
 3567SOL    HW122214   1.612   3.324  17.836
 3567SOL    HW222215   1.731   3.299  17.945
 3568SOL     OW22216   1.352   1.914  16.927
 3568SOL    HW122217   1.387   1.873  16.843
 3568SOL    HW222218   1.262   1.876  16.947
 3569SOL     OW22219   1.135   4.427   0.717
 3569SOL    HW122220   1.192   4.505   0.692
 3569SOL    HW222221   1.075   4.453   0.793
 3570SOL     OW22222   1.755   4.331   0.231
 3570SOL    HW122223   1.743   4.318   0.132
 3570SOL    HW222224   1.725   4.250   0.280
 3571SOL     OW22225   0.768   4.868   1.023
 3571SOL    HW122226   0.690   4.885   1.083
 3571SOL    HW222227   0.802   4.955   0.987
 3572SOL     OW22228   0.850   4.522   1.823
 3572SOL    HW122229   0.846   4.598   1.888
 3572SOL    HW222230   0.872   4.558   1.732
 3573SOL     OW22231   0.685   4.736   0.665
 3573SOL    HW122232   0.754   4.720   0.735
 3573SOL    HW222233   0.612   4.793   0.703
 3574SOL     OW22234   1.603   4.171   0.737
 3574SOL    HW122235   1.529   4.217   0.687
 3574SOL    HW222236   1.654   4.239   0.790
 3575SOL     OW22237   1.594   3.838   1.480
 3575SOL    HW122238   1.576   3.905   1.408
 3575SOL    HW222239   1.591   3.884   1.569
 3576SOL     OW22240   0.598   4.453   0.270
 3576SOL    HW122241   0.622   4.522   0.202
 3576SOL    HW222242   0.520   4.486   0.324
 3577SOL     OW22243   1.281   4.069   0.944
 3577SOL    HW122244   1.195   4.019   0.931
 3577SOL    HW222245   1.343   4.015   1.000
 3578SOL     OW22246   1.394   4.193   1.674
 3578SOL    HW122247   1.374   4.236   1.762
 3578SOL    HW222248   1.472   4.131   1.683
 3579SOL     OW22249   0.973   4.614   1.572
 3579SOL    HW122250   1.019   4.530   1.543
 3579SOL    HW222251   0.917   4.648   1.497
 3580SOL     OW22252   1.041   4.425   0.429
 3580SOL    HW122253   1.067   4.421   0.525
 3580SOL    HW222254   0.956   4.374   0.415
 3581SOL     OW22255   0.865   4.072   0.195
 3581SOL    HW122256   0.924   4.135   0.146
 3581SOL    HW222257   0.884   3.978   0.166
 3582SOL     OW22258   1.719   4.309   1.831
 3582SOL    HW122259   1.693   4.398   1.795
 3582SOL    HW222260   1.717   4.241   1.758
 3583SOL     OW22261   1.458   4.459   0.728
 3583SOL    HW122262   1.453   4.394   0.803
 3583SOL    HW222263   1.538   4.518   0.741
 3584SOL     OW22264   1.400   3.831   0.426
 3584SOL    HW122265   1.376   3.794   0.336
 3584SOL    HW222266   1.499   3.847   0.430
 3585SOL     OW22267   0.382   4.424   0.480
 3585SOL    HW122268   0.427   4.334   0.477
 3585SOL    HW222269   0.288   4.413   0.513
 3586SOL     OW22270   1.547   3.946   1.729
 3586SOL    HW122271   1.542   3.983   1.821
 3586SOL    HW222272   1.475   3.877   1.717
 3587SOL     OW22273   0.781   3.988   1.749
 3587SOL    HW122274   0.848   3.927   1.792
 3587SOL    HW222275   0.708   4.007   1.814
 3588SOL     OW22276   1.351   4.314   1.433
 3588SOL    HW122277   1.379   4.271   1.518
 3588SOL    HW222278   1.376   4.410   1.434
 3589SOL     OW22279   0.539   3.788   0.512
 3589SOL    HW122280   0.458   3.789   0.570
 3589SOL    HW222281   0.542   3.871   0.457
 3590SOL     OW22282   0.866   4.178   0.642
 3590SOL    HW122283   0.834   4.250   0.580
 3590SOL    HW222284   0.890   4.097   0.589
 3591SOL     OW22285   1.429   4.897   0.867
 3591SOL    HW122286   1.374   4.813   0.860
 3591SOL    HW222287   1.455   4.926   0.775
 3592SOL     OW22288   1.466   4.314   0.992
 3592SOL    HW122289   1.436   4.219   0.999
 3592SOL    HW222290   1.539   4.330   1.058
 3593SOL     OW22291   1.857   4.557   0.377
 3593SOL    HW122292   1.899   4.493   0.441
 3593SOL    HW222293   1.819   4.506   0.299
 3594SOL     OW22294   1.390   4.299   0.078
 3594SOL    HW122295   1.336   4.278   0.159
 3594SOL    HW222296   1.481   4.258   0.087
 3595SOL     OW22297   0.527   3.980   0.328
 3595SOL    HW122298   0.554   3.921   0.253
 3595SOL    HW222299   0.527   4.075   0.297
 3596SOL     OW22300   1.274   4.110   1.262
 3596SOL    HW122301   1.295   4.184   1.326
 3596SOL    HW222302   1.185   4.127   1.219
 3597SOL     OW22303   1.582   4.363   0.472
 3597SOL    HW122304   1.551   4.424   0.545
 3597SOL    HW222305   1.632   4.415   0.403
 3598SOL     OW22306   1.587   4.503   1.670
 3598SOL    HW122307   1.495   4.541   1.665
 3598SOL    HW222308   1.647   4.550   1.605
 3599SOL     OW22309   1.013   3.829   1.770
 3599SOL    HW122310   1.019   3.914   1.718
 3599SOL    HW222311   1.045   3.753   1.713
 3600SOL     OW22312   0.573   4.594   1.029
 3600SOL    HW122313   0.617   4.683   1.020
 3600SOL    HW222314   0.510   4.594   1.106
 3601SOL     OW22315   1.209   4.249   0.275
 3601SOL    HW122316   1.222   4.165   0.329
 3601SOL    HW222317   1.180   4.323   0.335
 3602SOL     OW22318   0.037   5.034   1.282
 3602SOL    HW122319   0.090   4.985   1.350
 3602SOL    HW222320   0.059   5.132   1.287
 3603SOL     OW22321   1.728   4.659   1.854
 3603SOL    HW122322   1.682   4.652   1.765
 3603SOL    HW222323   1.666   4.703   1.920
 3604SOL     OW22324   0.307   3.787   0.618
 3604SOL    HW122325   0.296   3.881   0.651
 3604SOL    HW222326   0.302   3.724   0.695
 3605SOL     OW22327   1.622   4.091   0.374
 3605SOL    HW122328   1.624   4.015   0.438
 3605SOL    HW222329   1.574   4.168   0.414
 3606SOL     OW22330   0.350   4.622   1.804
 3606SOL    HW122331   0.426   4.666   1.852
 3606SOL    HW222332   0.385   4.575   1.722
 3607SOL     OW22333   1.540   3.998   0.125
 3607SOL    HW122334   1.479   3.923   0.148
 3607SOL    HW222335   1.562   4.050   0.208
 3608SOL     OW22336   1.138   4.104   1.678
 3608SOL    HW122337   1.093   4.167   1.742
 3608SOL    HW222338   1.231   4.135   1.661
 3609SOL     OW22339   1.160   3.931   1.477
 3609SOL    HW122340   1.160   3.995   1.554
 3609SOL    HW222341   1.188   3.979   1.394
 3610SOL     OW22342   0.815   4.296   0.325
 3610SOL    HW122343   0.822   4.207   0.279
 3610SOL    HW222344   0.721   4.330   0.317
 3611SOL     OW22345   1.657   4.328   1.206
 3611SOL    HW122346   1.619   4.259   1.268
 3611SOL    HW222347   1.739   4.292   1.162
 3612SOL     OW22348   0.473   4.224   0.191
 3612SOL    HW122349   0.534   4.304   0.195
 3612SOL    HW222350   0.378   4.255   0.198
 3613SOL     OW22351   1.302   4.579   0.309
 3613SOL    HW122352   1.216   4.548   0.351
 3613SOL    HW222353   1.298   4.565   0.210
 3614SOL     OW22354   0.903   3.810   0.133
 3614SOL    HW122355   0.954   3.811   0.047
 3614SOL    HW222356   0.959   3.768   0.204
 3615SOL     OW22357   1.726   3.859   0.523
 3615SOL    HW122358   1.799   3.842   0.456
 3615SOL    HW222359   1.695   3.772   0.561
 3616SOL     OW22360   1.280   4.651   0.672
 3616SOL    HW122361   1.340   4.570   0.674
 3616SOL    HW222362   1.320   4.720   0.612
 3617SOL     OW22363   1.841   3.899   0.963
 3617SOL    HW122364   1.880   3.814   0.927
 3617SOL    HW222365   1.743   3.901   0.944
 3618SOL     OW22366   0.916   4.634   0.291
 3618SOL    HW122367   0.979   4.672   0.223
 3618SOL    HW222368   0.956   4.551   0.330
 3619SOL     OW22369   1.709   4.109   1.381
 3619SOL    HW122370   1.782   4.178   1.385
 3619SOL    HW222371   1.737   4.034   1.322
 3620SOL     OW22372   0.672   3.927   1.489
 3620SOL    HW122373   0.762   3.911   1.449
 3620SOL    HW222374   0.680   3.932   1.588
 3621SOL     OW22375   0.613   4.566   1.431
 3621SOL    HW122376   0.669   4.647   1.414
 3621SOL    HW222377   0.672   4.486   1.434
 3622SOL     OW22378   0.716   4.289   1.708
 3622SOL    HW122379   0.735   4.354   1.782
 3622SOL    HW222380   0.776   4.209   1.717
 3623SOL     OW22381   1.674   4.607   1.254
 3623SOL    HW122382   1.647   4.518   1.217
 3623SOL    HW222383   1.675   4.675   1.181
 3624SOL     OW22384   1.225   4.049   0.449
 3624SOL    HW122385   1.290   3.975   0.438
 3624SOL    HW222386   1.245   4.099   0.533
 3625SOL     OW22387   0.594   4.469   0.652
 3625SOL    HW122388   0.644   4.554   0.633
 3625SOL    HW222389   0.506   4.471   0.604
 3626SOL     OW22390   1.777   4.066   1.642
 3626SOL    HW122391   1.760   4.097   1.548
 3626SOL    HW222392   1.693   4.029   1.680
 3627SOL     OW22393   1.730   4.658   1.517
 3627SOL    HW122394   1.768   4.749   1.532
 3627SOL    HW222395   1.722   4.641   1.418
 3628SOL     OW22396   0.859   4.680   0.861
 3628SOL    HW122397   0.913   4.611   0.909
 3628SOL    HW222398   0.827   4.749   0.927
 3629SOL     OW22399   1.824   3.916   1.227
 3629SOL    HW122400   1.820   3.826   1.271
 3629SOL    HW222401   1.827   3.905   1.128
 3630SOL     OW22402   0.428   4.148   0.520
 3630SOL    HW122403   0.458   4.076   0.458
 3630SOL    HW222404   0.389   4.108   0.603
 3631SOL     OW22405   1.424   3.938   1.112
 3631SOL    HW122406   1.476   3.873   1.167
 3631SOL    HW222407   1.375   4.001   1.173
 3632SOL     OW22408   1.352   3.776   0.168
 3632SOL    HW122409   1.387   3.735   0.084
 3632SOL    HW222410   1.262   3.738   0.188
 3633SOL     OW22411   1.300   4.177   0.691
 3633SOL    HW122412   1.241   4.257   0.695
 3633SOL    HW222413   1.315   4.142   0.784
 3634SOL     OW22414   1.593   3.945   0.882
 3634SOL    HW122415   1.509   3.944   0.936
 3634SOL    HW222416   1.595   4.028   0.826
 3635SOL     OW22417   0.225   3.999   2.858
 3635SOL    HW122418   0.260   3.982   2.950
 3635SOL    HW222419   0.137   3.954   2.846
 3636SOL     OW22420   0.019   4.092   2.509
 3636SOL    HW122421  -0.063   4.135   2.548
 3636SOL    HW222422  -0.009   4.019   2.446
 3637SOL     OW22423   1.135   4.427   2.579
 3637SOL    HW122424   1.192   4.505   2.554
 3637SOL    HW222425   1.075   4.453   2.655
 3638SOL     OW22426   1.755   4.331   2.093
 3638SOL    HW122427   1.743   4.318   1.994
 3638SOL    HW222428   1.725   4.250   2.142
 3639SOL     OW22429   0.768   4.868   2.885
 3639SOL    HW122430   0.690   4.885   2.945
 3639SOL    HW222431   0.802   4.955   2.849
 3640SOL     OW22432   0.850   4.522   3.685
 3640SOL    HW122433   0.846   4.598   3.750
 3640SOL    HW222434   0.872   4.558   3.594
 3641SOL     OW22435   0.685   4.736   2.527
 3641SOL    HW122436   0.754   4.720   2.597
 3641SOL    HW222437   0.612   4.793   2.565
 3642SOL     OW22438   0.438   4.116   3.361
 3642SOL    HW122439   0.520   4.060   3.370
 3642SOL    HW222440   0.357   4.058   3.365
 3643SOL     OW22441   1.603   4.171   2.599
 3643SOL    HW122442   1.529   4.217   2.549
 3643SOL    HW222443   1.654   4.239   2.652
 3644SOL     OW22444   0.240   4.815   2.748
 3644SOL    HW122445   0.254   4.731   2.800
 3644SOL    HW222446   0.185   4.879   2.803
 3645SOL     OW22447   0.606   4.688   1.985
 3645SOL    HW122448   0.613   4.772   1.931
 3645SOL    HW222449   0.652   4.701   2.073
 3646SOL     OW22450   1.594   3.838   3.342
 3646SOL    HW122451   1.576   3.905   3.270
 3646SOL    HW222452   1.591   3.884   3.431
 3647SOL     OW22453   0.122   4.367   2.425
 3647SOL    HW122454   0.077   4.279   2.442
 3647SOL    HW222455   0.121   4.421   2.509
 3648SOL     OW22456   1.689   4.646   2.474
 3648SOL    HW122457   1.784   4.617   2.482
 3648SOL    HW222458   1.681   4.711   2.399
 3649SOL     OW22459   0.113   4.461   3.459
 3649SOL    HW122460   0.201   4.448   3.504
 3649SOL    HW222461   0.100   4.558   3.437
 3650SOL     OW22462   0.809   3.728   2.364
 3650SOL    HW122463   0.849   3.819   2.355
 3650SOL    HW222464   0.709   3.736   2.370
 3651SOL     OW22465   0.197   4.700   3.126
 3651SOL    HW122466   0.286   4.655   3.112
 3651SOL    HW222467   0.124   4.635   3.107
 3652SOL     OW22468   1.525   4.723   2.052
 3652SOL    HW122469   1.462   4.647   2.065
 3652SOL    HW222470   1.573   4.741   2.138
 3653SOL     OW22471   0.317   3.975   3.663
 3653SOL    HW122472   0.388   4.046   3.669
 3653SOL    HW222473   0.229   4.014   3.691
 3654SOL     OW22474   0.598   4.453   2.132
 3654SOL    HW122475   0.622   4.522   2.064
 3654SOL    HW222476   0.520   4.486   2.186
 3655SOL     OW22477   1.281   4.069   2.806
 3655SOL    HW122478   1.195   4.019   2.793
 3655SOL    HW222479   1.343   4.015   2.862
 3656SOL     OW22480   0.807   4.329   3.327
 3656SOL    HW122481   0.760   4.326   3.416
 3656SOL    HW222482   0.756   4.274   3.261
 3657SOL     OW22483   1.394   4.193   3.536
 3657SOL    HW122484   1.374   4.236   3.624
 3657SOL    HW222485   1.472   4.131   3.545
 3658SOL     OW22486   0.973   4.614   3.434
 3658SOL    HW122487   1.019   4.530   3.405
 3658SOL    HW222488   0.917   4.648   3.359
 3659SOL     OW22489   0.991   4.134   3.104
 3659SOL    HW122490   0.914   4.168   3.158
 3659SOL    HW222491   0.957   4.083   3.025
 3660SOL     OW22492   1.041   4.425   2.291
 3660SOL    HW122493   1.067   4.421   2.387
 3660SOL    HW222494   0.956   4.374   2.277
 3661SOL     OW22495   0.076   4.535   2.651
 3661SOL    HW122496   0.175   4.523   2.660
 3661SOL    HW222497   0.052   4.630   2.672
 3662SOL     OW22498   0.865   4.072   2.057
 3662SOL    HW122499   0.924   4.135   2.008
 3662SOL    HW222500   0.884   3.978   2.028
 3663SOL     OW22501   1.719   4.309   3.693
 3663SOL    HW122502   1.693   4.398   3.657
 3663SOL    HW222503   1.717   4.241   3.620
 3664SOL     OW22504   0.550   3.920   2.747
 3664SOL    HW122505   0.545   3.915   2.847
 3664SOL    HW222506   0.552   4.016   2.718
 3665SOL     OW22507   1.458   4.459   2.590
 3665SOL    HW122508   1.453   4.394   2.665
 3665SOL    HW222509   1.538   4.518   2.603
 3666SOL     OW22510   0.202   4.009   3.360
 3666SOL    HW122511   0.122   4.069   3.347
 3666SOL    HW222512   0.192   3.960   3.446
 3667SOL     OW22513   1.400   3.831   2.288
 3667SOL    HW122514   1.376   3.794   2.198
 3667SOL    HW222515   1.499   3.847   2.292
 3668SOL     OW22516   0.382   4.424   2.342
 3668SOL    HW122517   0.427   4.334   2.339
 3668SOL    HW222518   0.288   4.413   2.375
 3669SOL     OW22519   1.547   3.946   3.591
 3669SOL    HW122520   1.542   3.983   3.683
 3669SOL    HW222521   1.475   3.877   3.579
 3670SOL     OW22522   0.614   3.846   1.979
 3670SOL    HW122523   0.712   3.824   1.986
 3670SOL    HW222524   0.583   3.829   1.886
 3671SOL     OW22525   0.781   3.988   3.611
 3671SOL    HW122526   0.848   3.927   3.654
 3671SOL    HW222527   0.708   4.007   3.676
 3672SOL     OW22528   1.351   4.314   3.295
 3672SOL    HW122529   1.379   4.271   3.380
 3672SOL    HW222530   1.376   4.410   3.296
 3673SOL     OW22531   0.922   4.227   2.761
 3673SOL    HW122532   0.897   4.218   2.665
 3673SOL    HW222533   0.970   4.145   2.792
 3674SOL     OW22534   0.539   3.788   2.374
 3674SOL    HW122535   0.458   3.789   2.432
 3674SOL    HW222536   0.542   3.871   2.319
 3675SOL     OW22537   0.935   3.960   2.342
 3675SOL    HW122538   0.887   4.001   2.264
 3675SOL    HW222539   1.034   3.958   2.323
 3676SOL     OW22540   1.076   4.407   3.326
 3676SOL    HW122541   0.996   4.346   3.329
 3676SOL    HW222542   1.157   4.354   3.302
 3677SOL     OW22543   1.032   4.273   1.878
 3677SOL    HW122544   0.991   4.355   1.839
 3677SOL    HW222545   1.096   4.299   1.951
 3678SOL     OW22546   0.078   4.280   3.248
 3678SOL    HW122547   0.170   4.279   3.207
 3678SOL    HW222548   0.072   4.354   3.315
 3679SOL     OW22549   0.561   3.946   3.009
 3679SOL    HW122550   0.599   3.862   3.046
 3679SOL    HW222551   0.473   3.965   3.053
 3680SOL     OW22552   0.866   4.178   2.504
 3680SOL    HW122553   0.834   4.250   2.442
 3680SOL    HW222554   0.890   4.097   2.451
 3681SOL     OW22555   1.017   3.763   2.615
 3681SOL    HW122556   0.945   3.768   2.546
 3681SOL    HW222557   0.993   3.694   2.684
 3682SOL     OW22558   1.429   4.897   2.729
 3682SOL    HW122559   1.374   4.813   2.722
 3682SOL    HW222560   1.455   4.926   2.637
 3683SOL     OW22561   1.466   4.314   2.854
 3683SOL    HW122562   1.436   4.219   2.861
 3683SOL    HW222563   1.539   4.330   2.920
 3684SOL     OW22564   1.857   4.557   2.239
 3684SOL    HW122565   1.899   4.493   2.303
 3684SOL    HW222566   1.819   4.506   2.161
 3685SOL     OW22567   1.390   4.299   1.940
 3685SOL    HW122568   1.336   4.278   2.021
 3685SOL    HW222569   1.481   4.258   1.949
 3686SOL     OW22570   0.527   3.980   2.190
 3686SOL    HW122571   0.554   3.921   2.115
 3686SOL    HW222572   0.527   4.075   2.159
 3687SOL     OW22573   1.638   4.823   2.941
 3687SOL    HW122574   1.643   4.904   3.000
 3687SOL    HW222575   1.552   4.825   2.890
 3688SOL     OW22576   0.915   3.813   3.264
 3688SOL    HW122577   0.940   3.793   3.169
 3688SOL    HW222578   0.987   3.869   3.306
 3689SOL     OW22579   0.410   4.537   3.113
 3689SOL    HW122580   0.496   4.549   3.163
 3689SOL    HW222581   0.368   4.450   3.140
 3690SOL     OW22582   1.274   4.110   3.124
 3690SOL    HW122583   1.295   4.184   3.188
 3690SOL    HW222584   1.185   4.127   3.081
 3691SOL     OW22585   0.566   4.261   2.727
 3691SOL    HW122586   0.578   4.327   2.653
 3691SOL    HW222587   0.612   4.295   2.810
 3692SOL     OW22588   1.582   4.363   2.334
 3692SOL    HW122589   1.551   4.424   2.407
 3692SOL    HW222590   1.632   4.415   2.265
 3693SOL     OW22591   0.402   4.475   3.460
 3693SOL    HW122592   0.470   4.530   3.413
 3693SOL    HW222593   0.442   4.387   3.487
 3694SOL     OW22594   1.587   4.503   3.532
 3694SOL    HW122595   1.495   4.541   3.527
 3694SOL    HW222596   1.647   4.550   3.467
 3695SOL     OW22597   1.013   3.829   3.632
 3695SOL    HW122598   1.019   3.914   3.580
 3695SOL    HW222599   1.045   3.753   3.575
 3696SOL     OW22600   0.504   3.774   3.602
 3696SOL    HW122601   0.462   3.717   3.532
 3696SOL    HW222602   0.438   3.843   3.634
 3697SOL     OW22603   0.573   4.594   2.891
 3697SOL    HW122604   0.617   4.683   2.882
 3697SOL    HW222605   0.510   4.594   2.968
 3698SOL     OW22606   1.360   4.586   2.907
 3698SOL    HW122607   1.285   4.586   2.841
 3698SOL    HW222608   1.397   4.494   2.916
 3699SOL     OW22609   1.209   4.249   2.137
 3699SOL    HW122610   1.222   4.165   2.191
 3699SOL    HW222611   1.180   4.323   2.197
 3700SOL     OW22612   0.307   3.937   3.093
 3700SOL    HW122613   0.284   3.974   3.183
 3700SOL    HW222614   0.277   3.842   3.087
 3701SOL     OW22615   0.037   5.034   3.144
 3701SOL    HW122616   0.090   4.985   3.212
 3701SOL    HW222617   0.059   5.132   3.149
 3702SOL     OW22618   0.732   4.358   2.926
 3702SOL    HW122619   0.791   4.332   2.850
 3702SOL    HW222620   0.704   4.454   2.915
 3703SOL     OW22621   1.728   4.659   3.716
 3703SOL    HW122622   1.682   4.652   3.627
 3703SOL    HW222623   1.666   4.703   3.782
 3704SOL     OW22624   0.307   3.787   2.480
 3704SOL    HW122625   0.296   3.881   2.513
 3704SOL    HW222626   0.302   3.724   2.557
 3705SOL     OW22627   1.622   4.091   2.236
 3705SOL    HW122628   1.624   4.015   2.300
 3705SOL    HW222629   1.574   4.168   2.276
 3706SOL     OW22630   1.023   4.490   2.828
 3706SOL    HW122631   1.038   4.511   2.924
 3706SOL    HW222632   0.993   4.395   2.819
 3707SOL     OW22633   0.350   4.622   3.666
 3707SOL    HW122634   0.426   4.666   3.714
 3707SOL    HW222635   0.385   4.575   3.584
 3708SOL     OW22636   1.540   3.998   1.987
 3708SOL    HW122637   1.479   3.923   2.010
 3708SOL    HW222638   1.562   4.050   2.070
 3709SOL     OW22639   1.303   4.562   1.904
 3709SOL    HW122640   1.337   4.469   1.919
 3709SOL    HW222641   1.321   4.589   1.809
 3710SOL     OW22642   0.319   4.534   2.811
 3710SOL    HW122643   0.412   4.570   2.816
 3710SOL    HW222644   0.313   4.449   2.863
 3711SOL     OW22645   0.339   4.233   2.868
 3711SOL    HW122646   0.287   4.150   2.851
 3711SOL    HW222647   0.416   4.238   2.804
 3712SOL     OW22648   1.138   4.104   3.540
 3712SOL    HW122649   1.093   4.167   3.604
 3712SOL    HW222650   1.231   4.135   3.523
 3713SOL     OW22651   1.160   3.931   3.339
 3713SOL    HW122652   1.160   3.995   3.416
 3713SOL    HW222653   1.188   3.979   3.256
 3714SOL     OW22654   1.002   4.520   3.100
 3714SOL    HW122655   1.043   4.488   3.186
 3714SOL    HW222656   0.906   4.493   3.097
 3715SOL     OW22657   0.040   4.268   2.976
 3715SOL    HW122658   0.125   4.235   2.935
 3715SOL    HW222659   0.053   4.283   3.074
 3716SOL     OW22660   0.189   4.244   3.584
 3716SOL    HW122661   0.248   4.204   3.514
 3716SOL    HW222662   0.131   4.315   3.543
 3717SOL     OW22663   1.369   4.674   3.522
 3717SOL    HW122664   1.408   4.763   3.542
 3717SOL    HW222665   1.379   4.654   3.425
 3718SOL     OW22666   0.815   4.296   2.187
 3718SOL    HW122667   0.822   4.207   2.141
 3718SOL    HW222668   0.721   4.330   2.179
 3719SOL     OW22669   1.657   4.328   3.068
 3719SOL    HW122670   1.619   4.259   3.130
 3719SOL    HW222671   1.739   4.292   3.024
 3720SOL     OW22672   0.671   4.188   3.131
 3720SOL    HW122673   0.637   4.099   3.101
 3720SOL    HW222674   0.697   4.242   3.051
 3721SOL     OW22675   0.473   4.224   2.053
 3721SOL    HW122676   0.534   4.304   2.057
 3721SOL    HW222677   0.378   4.255   2.060
 3722SOL     OW22678   0.159   4.861   3.328
 3722SOL    HW122679   0.181   4.800   3.404
 3722SOL    HW222680   0.169   4.812   3.242
 3723SOL     OW22681   1.347   4.783   3.096
 3723SOL    HW122682   1.371   4.720   3.022
 3723SOL    HW222683   1.257   4.823   3.078
 3724SOL     OW22684   1.302   4.579   2.171
 3724SOL    HW122685   1.216   4.548   2.213
 3724SOL    HW222686   1.298   4.565   2.072
 3725SOL     OW22687   1.726   3.859   2.385
 3725SOL    HW122688   1.799   3.842   2.318
 3725SOL    HW222689   1.695   3.772   2.423
 3726SOL     OW22690   1.280   4.651   2.534
 3726SOL    HW122691   1.340   4.570   2.536
 3726SOL    HW222692   1.320   4.720   2.474
 3727SOL     OW22693   1.841   3.899   2.825
 3727SOL    HW122694   1.880   3.814   2.789
 3727SOL    HW222695   1.743   3.901   2.806
 3728SOL     OW22696   0.263   4.050   2.582
 3728SOL    HW122697   0.184   4.101   2.548
 3728SOL    HW222698   0.254   4.035   2.680
 3729SOL     OW22699   0.916   4.634   2.153
 3729SOL    HW122700   0.979   4.672   2.085
 3729SOL    HW222701   0.956   4.551   2.192
 3730SOL     OW22702   1.014   3.960   2.833
 3730SOL    HW122703   1.006   3.924   2.740
 3730SOL    HW222704   1.012   3.884   2.898
 3731SOL     OW22705   1.709   4.109   3.243
 3731SOL    HW122706   1.782   4.178   3.247
 3731SOL    HW222707   1.737   4.034   3.184
 3732SOL     OW22708   0.105   4.737   3.588
 3732SOL    HW122709   0.028   4.704   3.642
 3732SOL    HW222710   0.190   4.707   3.630
 3733SOL     OW22711   0.672   3.927   3.351
 3733SOL    HW122712   0.762   3.911   3.311
 3733SOL    HW222713   0.680   3.932   3.450
 3734SOL     OW22714   1.440   4.580   3.260
 3734SOL    HW122715   1.383   4.632   3.197
 3734SOL    HW222716   1.536   4.592   3.236
 3735SOL     OW22717   0.072   3.890   2.180
 3735SOL    HW122718   0.055   3.973   2.126
 3735SOL    HW222719   0.162   3.853   2.158
 3736SOL     OW22720   1.183   5.059   1.981
 3736SOL    HW122721   1.084   5.048   1.983
 3736SOL    HW222722   1.217   5.074   2.074
 3737SOL     OW22723   0.613   4.566   3.293
 3737SOL    HW122724   0.669   4.647   3.276
 3737SOL    HW222725   0.672   4.486   3.296
 3738SOL     OW22726   0.716   4.289   3.570
 3738SOL    HW122727   0.735   4.354   3.644
 3738SOL    HW222728   0.776   4.209   3.579
 3739SOL     OW22729   1.674   4.607   3.116
 3739SOL    HW122730   1.647   4.518   3.079
 3739SOL    HW222731   1.675   4.675   3.043
 3740SOL     OW22732   1.225   4.049   2.311
 3740SOL    HW122733   1.290   3.975   2.300
 3740SOL    HW222734   1.245   4.099   2.395
 3741SOL     OW22735   0.594   4.469   2.514
 3741SOL    HW122736   0.644   4.554   2.495
 3741SOL    HW222737   0.506   4.471   2.466
 3742SOL     OW22738   1.777   4.066   3.504
 3742SOL    HW122739   1.760   4.097   3.410
 3742SOL    HW222740   1.693   4.029   3.542
 3743SOL     OW22741   1.730   4.658   3.379
 3743SOL    HW122742   1.768   4.749   3.394
 3743SOL    HW222743   1.722   4.641   3.280
 3744SOL     OW22744   0.859   4.680   2.723
 3744SOL    HW122745   0.913   4.611   2.771
 3744SOL    HW222746   0.827   4.749   2.789
 3745SOL     OW22747   1.083   4.708   1.949
 3745SOL    HW122748   1.060   4.761   1.867
 3745SOL    HW222749   1.164   4.652   1.930
 3746SOL     OW22750   0.079   4.964   2.515
 3746SOL    HW122751   0.078   4.917   2.603
 3746SOL    HW222752   0.161   4.936   2.464
 3747SOL     OW22753   1.824   3.916   3.089
 3747SOL    HW122754   1.820   3.826   3.133
 3747SOL    HW222755   1.827   3.905   2.990
 3748SOL     OW22756   0.428   4.148   2.382
 3748SOL    HW122757   0.458   4.076   2.320
 3748SOL    HW222758   0.389   4.108   2.465
 3749SOL     OW22759   0.317   4.271   3.142
 3749SOL    HW122760   0.355   4.212   3.214
 3749SOL    HW222761   0.357   4.245   3.054
 3750SOL     OW22762   1.424   3.938   2.974
 3750SOL    HW122763   1.476   3.873   3.029
 3750SOL    HW222764   1.375   4.001   3.035
 3751SOL     OW22765   1.001   3.758   3.016
 3751SOL    HW122766   0.938   3.686   2.985
 3751SOL    HW222767   1.094   3.722   3.016
 3752SOL     OW22768   1.352   3.776   2.030
 3752SOL    HW122769   1.387   3.735   1.946
 3752SOL    HW222770   1.262   3.738   2.050
 3753SOL     OW22771   1.300   4.177   2.553
 3753SOL    HW122772   1.241   4.257   2.557
 3753SOL    HW222773   1.315   4.142   2.646
 3754SOL     OW22774   1.593   3.945   2.744
 3754SOL    HW122775   1.509   3.944   2.798
 3754SOL    HW222776   1.595   4.028   2.688
 3755SOL     OW22777   0.039   4.801   2.162
 3755SOL    HW122778   0.138   4.790   2.153
 3755SOL    HW222779  -0.001   4.715   2.194
 3756SOL     OW22780   0.230   4.352   3.837
 3756SOL    HW122781   0.137   4.350   3.874
 3756SOL    HW222782   0.231   4.313   3.745
 3757SOL     OW22783   0.225   3.999   4.720
 3757SOL    HW122784   0.260   3.982   4.812
 3757SOL    HW222785   0.137   3.954   4.708
 3758SOL     OW22786   0.019   4.092   4.371
 3758SOL    HW122787  -0.063   4.135   4.410
 3758SOL    HW222788  -0.009   4.019   4.308
 3759SOL     OW22789   1.135   4.427   4.441
 3759SOL    HW122790   1.192   4.505   4.416
 3759SOL    HW222791   1.075   4.453   4.517
 3760SOL     OW22792   1.755   4.331   3.955
 3760SOL    HW122793   1.743   4.318   3.856
 3760SOL    HW222794   1.725   4.250   4.004
 3761SOL     OW22795   0.768   4.868   4.747
 3761SOL    HW122796   0.690   4.885   4.807
 3761SOL    HW222797   0.802   4.955   4.711
 3762SOL     OW22798   0.850   4.522   5.547
 3762SOL    HW122799   0.846   4.598   5.612
 3762SOL    HW222800   0.872   4.558   5.456
 3763SOL     OW22801   0.685   4.736   4.389
 3763SOL    HW122802   0.754   4.720   4.459
 3763SOL    HW222803   0.612   4.793   4.427
 3764SOL     OW22804   0.438   4.116   5.223
 3764SOL    HW122805   0.520   4.060   5.232
 3764SOL    HW222806   0.357   4.058   5.227
 3765SOL     OW22807   1.603   4.171   4.461
 3765SOL    HW122808   1.529   4.217   4.411
 3765SOL    HW222809   1.654   4.239   4.514
 3766SOL     OW22810   0.240   4.815   4.610
 3766SOL    HW122811   0.254   4.731   4.662
 3766SOL    HW222812   0.185   4.879   4.665
 3767SOL     OW22813   0.606   4.688   3.847
 3767SOL    HW122814   0.613   4.772   3.793
 3767SOL    HW222815   0.652   4.701   3.935
 3768SOL     OW22816   1.594   3.838   5.204
 3768SOL    HW122817   1.576   3.905   5.132
 3768SOL    HW222818   1.591   3.884   5.293
 3769SOL     OW22819   0.122   4.367   4.287
 3769SOL    HW122820   0.077   4.279   4.304
 3769SOL    HW222821   0.121   4.421   4.371
 3770SOL     OW22822   1.689   4.646   4.336
 3770SOL    HW122823   1.784   4.617   4.344
 3770SOL    HW222824   1.681   4.711   4.261
 3771SOL     OW22825   0.113   4.461   5.321
 3771SOL    HW122826   0.201   4.448   5.366
 3771SOL    HW222827   0.100   4.558   5.299
 3772SOL     OW22828   0.809   3.728   4.226
 3772SOL    HW122829   0.849   3.819   4.217
 3772SOL    HW222830   0.709   3.736   4.232
 3773SOL     OW22831   0.197   4.700   4.988
 3773SOL    HW122832   0.286   4.655   4.974
 3773SOL    HW222833   0.124   4.635   4.969
 3774SOL     OW22834   1.525   4.723   3.914
 3774SOL    HW122835   1.462   4.647   3.927
 3774SOL    HW222836   1.573   4.741   4.000
 3775SOL     OW22837   0.317   3.975   5.525
 3775SOL    HW122838   0.388   4.046   5.531
 3775SOL    HW222839   0.229   4.014   5.553
 3776SOL     OW22840   0.598   4.453   3.994
 3776SOL    HW122841   0.622   4.522   3.926
 3776SOL    HW222842   0.520   4.486   4.048
 3777SOL     OW22843   1.281   4.069   4.668
 3777SOL    HW122844   1.195   4.019   4.655
 3777SOL    HW222845   1.343   4.015   4.724
 3778SOL     OW22846   0.807   4.329   5.189
 3778SOL    HW122847   0.760   4.326   5.278
 3778SOL    HW222848   0.756   4.274   5.123
 3779SOL     OW22849   1.394   4.193   5.398
 3779SOL    HW122850   1.374   4.236   5.486
 3779SOL    HW222851   1.472   4.131   5.407
 3780SOL     OW22852   0.973   4.614   5.296
 3780SOL    HW122853   1.019   4.530   5.267
 3780SOL    HW222854   0.917   4.648   5.221
 3781SOL     OW22855   0.991   4.134   4.966
 3781SOL    HW122856   0.914   4.168   5.020
 3781SOL    HW222857   0.957   4.083   4.887
 3782SOL     OW22858   1.041   4.425   4.153
 3782SOL    HW122859   1.067   4.421   4.249
 3782SOL    HW222860   0.956   4.374   4.139
 3783SOL     OW22861   0.076   4.535   4.513
 3783SOL    HW122862   0.175   4.523   4.522
 3783SOL    HW222863   0.052   4.630   4.534
 3784SOL     OW22864   0.865   4.072   3.919
 3784SOL    HW122865   0.924   4.135   3.870
 3784SOL    HW222866   0.884   3.978   3.890
 3785SOL     OW22867   1.719   4.309   5.555
 3785SOL    HW122868   1.693   4.398   5.519
 3785SOL    HW222869   1.717   4.241   5.482
 3786SOL     OW22870   0.550   3.920   4.609
 3786SOL    HW122871   0.545   3.915   4.709
 3786SOL    HW222872   0.552   4.016   4.580
 3787SOL     OW22873   1.458   4.459   4.452
 3787SOL    HW122874   1.453   4.394   4.527
 3787SOL    HW222875   1.538   4.518   4.465
 3788SOL     OW22876   0.202   4.009   5.222
 3788SOL    HW122877   0.122   4.069   5.209
 3788SOL    HW222878   0.192   3.960   5.308
 3789SOL     OW22879   1.400   3.831   4.150
 3789SOL    HW122880   1.376   3.794   4.060
 3789SOL    HW222881   1.499   3.847   4.154
 3790SOL     OW22882   0.382   4.424   4.204
 3790SOL    HW122883   0.427   4.334   4.201
 3790SOL    HW222884   0.288   4.413   4.237
 3791SOL     OW22885   1.547   3.946   5.453
 3791SOL    HW122886   1.542   3.983   5.545
 3791SOL    HW222887   1.475   3.877   5.441
 3792SOL     OW22888   0.614   3.846   3.841
 3792SOL    HW122889   0.712   3.824   3.848
 3792SOL    HW222890   0.583   3.829   3.748
 3793SOL     OW22891   0.781   3.988   5.473
 3793SOL    HW122892   0.848   3.927   5.516
 3793SOL    HW222893   0.708   4.007   5.538
 3794SOL     OW22894   1.351   4.314   5.157
 3794SOL    HW122895   1.379   4.271   5.242
 3794SOL    HW222896   1.376   4.410   5.158
 3795SOL     OW22897   0.922   4.227   4.623
 3795SOL    HW122898   0.897   4.218   4.527
 3795SOL    HW222899   0.970   4.145   4.654
 3796SOL     OW22900   0.539   3.788   4.236
 3796SOL    HW122901   0.458   3.789   4.294
 3796SOL    HW222902   0.542   3.871   4.181
 3797SOL     OW22903   0.297   3.759   3.895
 3797SOL    HW122904   0.346   3.843   3.874
 3797SOL    HW222905   0.359   3.694   3.940
 3798SOL     OW22906   0.935   3.960   4.204
 3798SOL    HW122907   0.887   4.001   4.126
 3798SOL    HW222908   1.034   3.958   4.185
 3799SOL     OW22909   1.076   4.407   5.188
 3799SOL    HW122910   0.996   4.346   5.191
 3799SOL    HW222911   1.157   4.354   5.164
 3800SOL     OW22912   1.032   4.273   3.740
 3800SOL    HW122913   0.991   4.355   3.701
 3800SOL    HW222914   1.096   4.299   3.813
 3801SOL     OW22915   0.078   4.280   5.110
 3801SOL    HW122916   0.170   4.279   5.069
 3801SOL    HW222917   0.072   4.354   5.177
 3802SOL     OW22918   0.561   3.946   4.871
 3802SOL    HW122919   0.599   3.862   4.908
 3802SOL    HW222920   0.473   3.965   4.915
 3803SOL     OW22921   0.866   4.178   4.366
 3803SOL    HW122922   0.834   4.250   4.304
 3803SOL    HW222923   0.890   4.097   4.313
 3804SOL     OW22924   1.017   3.763   4.477
 3804SOL    HW122925   0.945   3.768   4.408
 3804SOL    HW222926   0.993   3.694   4.546
 3805SOL     OW22927   1.429   4.897   4.591
 3805SOL    HW122928   1.374   4.813   4.584
 3805SOL    HW222929   1.455   4.926   4.499
 3806SOL     OW22930   1.466   4.314   4.716
 3806SOL    HW122931   1.436   4.219   4.723
 3806SOL    HW222932   1.539   4.330   4.782
 3807SOL     OW22933   1.857   4.557   4.101
 3807SOL    HW122934   1.899   4.493   4.165
 3807SOL    HW222935   1.819   4.506   4.023
 3808SOL     OW22936   1.390   4.299   3.802
 3808SOL    HW122937   1.336   4.278   3.883
 3808SOL    HW222938   1.481   4.258   3.811
 3809SOL     OW22939   0.527   3.980   4.052
 3809SOL    HW122940   0.554   3.921   3.977
 3809SOL    HW222941   0.527   4.075   4.021
 3810SOL     OW22942   1.638   4.823   4.803
 3810SOL    HW122943   1.643   4.904   4.862
 3810SOL    HW222944   1.552   4.825   4.752
 3811SOL     OW22945   0.915   3.813   5.126
 3811SOL    HW122946   0.940   3.793   5.031
 3811SOL    HW222947   0.987   3.869   5.168
 3812SOL     OW22948   0.410   4.537   4.975
 3812SOL    HW122949   0.496   4.549   5.025
 3812SOL    HW222950   0.368   4.450   5.002
 3813SOL     OW22951   1.274   4.110   4.986
 3813SOL    HW122952   1.295   4.184   5.050
 3813SOL    HW222953   1.185   4.127   4.943
 3814SOL     OW22954   0.566   4.261   4.589
 3814SOL    HW122955   0.578   4.327   4.515
 3814SOL    HW222956   0.612   4.295   4.672
 3815SOL     OW22957   1.582   4.363   4.196
 3815SOL    HW122958   1.551   4.424   4.269
 3815SOL    HW222959   1.632   4.415   4.127
 3816SOL     OW22960   0.402   4.475   5.322
 3816SOL    HW122961   0.470   4.530   5.275
 3816SOL    HW222962   0.442   4.387   5.349
 3817SOL     OW22963   1.587   4.503   5.394
 3817SOL    HW122964   1.495   4.541   5.389
 3817SOL    HW222965   1.647   4.550   5.329
 3818SOL     OW22966   1.013   3.829   5.494
 3818SOL    HW122967   1.019   3.914   5.442
 3818SOL    HW222968   1.045   3.753   5.437
 3819SOL     OW22969   0.504   3.774   5.464
 3819SOL    HW122970   0.462   3.717   5.394
 3819SOL    HW222971   0.438   3.843   5.496
 3820SOL     OW22972   0.573   4.594   4.753
 3820SOL    HW122973   0.617   4.683   4.744
 3820SOL    HW222974   0.510   4.594   4.830
 3821SOL     OW22975   1.360   4.586   4.769
 3821SOL    HW122976   1.285   4.586   4.703
 3821SOL    HW222977   1.397   4.494   4.778
 3822SOL     OW22978   1.209   4.249   3.999
 3822SOL    HW122979   1.222   4.165   4.053
 3822SOL    HW222980   1.180   4.323   4.059
 3823SOL     OW22981   0.307   3.937   4.955
 3823SOL    HW122982   0.284   3.974   5.045
 3823SOL    HW222983   0.277   3.842   4.949
 3824SOL     OW22984   0.037   5.034   5.006
 3824SOL    HW122985   0.090   4.985   5.074
 3824SOL    HW222986   0.059   5.132   5.011
 3825SOL     OW22987   0.732   4.358   4.788
 3825SOL    HW122988   0.791   4.332   4.712
 3825SOL    HW222989   0.704   4.454   4.777
 3826SOL     OW22990   1.728   4.659   5.578
 3826SOL    HW122991   1.682   4.652   5.489
 3826SOL    HW222992   1.666   4.703   5.644
 3827SOL     OW22993   0.307   3.787   4.342
 3827SOL    HW122994   0.296   3.881   4.375
 3827SOL    HW222995   0.302   3.724   4.419
 3828SOL     OW22996   1.622   4.091   4.098
 3828SOL    HW122997   1.624   4.015   4.162
 3828SOL    HW222998   1.574   4.168   4.138
 3829SOL     OW22999   1.023   4.490   4.690
 3829SOL    HW123000   1.038   4.511   4.786
 3829SOL    HW223001   0.993   4.395   4.681
 3830SOL     OW23002   0.350   4.622   5.528
 3830SOL    HW123003   0.426   4.666   5.576
 3830SOL    HW223004   0.385   4.575   5.446
 3831SOL     OW23005   1.540   3.998   3.849
 3831SOL    HW123006   1.479   3.923   3.872
 3831SOL    HW223007   1.562   4.050   3.932
 3832SOL     OW23008   1.303   4.562   3.766
 3832SOL    HW123009   1.337   4.469   3.781
 3832SOL    HW223010   1.321   4.589   3.671
 3833SOL     OW23011   0.319   4.534   4.673
 3833SOL    HW123012   0.412   4.570   4.678
 3833SOL    HW223013   0.313   4.449   4.725
 3834SOL     OW23014   0.339   4.233   4.730
 3834SOL    HW123015   0.287   4.150   4.713
 3834SOL    HW223016   0.416   4.238   4.666
 3835SOL     OW23017   1.138   4.104   5.402
 3835SOL    HW123018   1.093   4.167   5.466
 3835SOL    HW223019   1.231   4.135   5.385
 3836SOL     OW23020   1.160   3.931   5.201
 3836SOL    HW123021   1.160   3.995   5.278
 3836SOL    HW223022   1.188   3.979   5.118
 3837SOL     OW23023   1.002   4.520   4.962
 3837SOL    HW123024   1.043   4.488   5.048
 3837SOL    HW223025   0.906   4.493   4.959
 3838SOL     OW23026   0.040   4.268   4.838
 3838SOL    HW123027   0.125   4.235   4.797
 3838SOL    HW223028   0.053   4.283   4.936
 3839SOL     OW23029   0.189   4.244   5.446
 3839SOL    HW123030   0.248   4.204   5.376
 3839SOL    HW223031   0.131   4.315   5.405
 3840SOL     OW23032   1.369   4.674   5.384
 3840SOL    HW123033   1.408   4.763   5.404
 3840SOL    HW223034   1.379   4.654   5.287
 3841SOL     OW23035   0.815   4.296   4.049
 3841SOL    HW123036   0.822   4.207   4.003
 3841SOL    HW223037   0.721   4.330   4.041
 3842SOL     OW23038   1.657   4.328   4.930
 3842SOL    HW123039   1.619   4.259   4.992
 3842SOL    HW223040   1.739   4.292   4.886
 3843SOL     OW23041   0.671   4.188   4.993
 3843SOL    HW123042   0.637   4.099   4.963
 3843SOL    HW223043   0.697   4.242   4.913
 3844SOL     OW23044   0.473   4.224   3.915
 3844SOL    HW123045   0.534   4.304   3.919
 3844SOL    HW223046   0.378   4.255   3.922
 3845SOL     OW23047   0.159   4.861   5.190
 3845SOL    HW123048   0.181   4.800   5.266
 3845SOL    HW223049   0.169   4.812   5.104
 3846SOL     OW23050   1.347   4.783   4.958
 3846SOL    HW123051   1.371   4.720   4.884
 3846SOL    HW223052   1.257   4.823   4.940
 3847SOL     OW23053   1.302   4.579   4.033
 3847SOL    HW123054   1.216   4.548   4.075
 3847SOL    HW223055   1.298   4.565   3.934
 3848SOL     OW23056   1.726   3.859   4.247
 3848SOL    HW123057   1.799   3.842   4.180
 3848SOL    HW223058   1.695   3.772   4.285
 3849SOL     OW23059   1.280   4.651   4.396
 3849SOL    HW123060   1.340   4.570   4.398
 3849SOL    HW223061   1.320   4.720   4.336
 3850SOL     OW23062   1.841   3.899   4.687
 3850SOL    HW123063   1.880   3.814   4.651
 3850SOL    HW223064   1.743   3.901   4.668
 3851SOL     OW23065   0.263   4.050   4.444
 3851SOL    HW123066   0.184   4.101   4.410
 3851SOL    HW223067   0.254   4.035   4.542
 3852SOL     OW23068   0.916   4.634   4.015
 3852SOL    HW123069   0.979   4.672   3.947
 3852SOL    HW223070   0.956   4.551   4.054
 3853SOL     OW23071   1.014   3.960   4.695
 3853SOL    HW123072   1.006   3.924   4.602
 3853SOL    HW223073   1.012   3.884   4.760
 3854SOL     OW23074   1.709   4.109   5.105
 3854SOL    HW123075   1.782   4.178   5.109
 3854SOL    HW223076   1.737   4.034   5.046
 3855SOL     OW23077   0.105   4.737   5.450
 3855SOL    HW123078   0.028   4.704   5.504
 3855SOL    HW223079   0.190   4.707   5.492
 3856SOL     OW23080   0.672   3.927   5.213
 3856SOL    HW123081   0.762   3.911   5.173
 3856SOL    HW223082   0.680   3.932   5.312
 3857SOL     OW23083   0.075   4.069   3.757
 3857SOL    HW123084  -0.017   4.041   3.728
 3857SOL    HW223085   0.106   4.146   3.701
 3858SOL     OW23086   1.440   4.580   5.122
 3858SOL    HW123087   1.383   4.632   5.059
 3858SOL    HW223088   1.536   4.592   5.098
 3859SOL     OW23089   0.072   3.890   4.042
 3859SOL    HW123090   0.055   3.973   3.988
 3859SOL    HW223091   0.162   3.853   4.020
 3860SOL     OW23092   1.183   5.059   3.843
 3860SOL    HW123093   1.084   5.048   3.845
 3860SOL    HW223094   1.217   5.074   3.936
 3861SOL     OW23095   0.613   4.566   5.155
 3861SOL    HW123096   0.669   4.647   5.138
 3861SOL    HW223097   0.672   4.486   5.158
 3862SOL     OW23098   0.716   4.289   5.432
 3862SOL    HW123099   0.735   4.354   5.506
 3862SOL    HW223100   0.776   4.209   5.441
 3863SOL     OW23101   1.674   4.607   4.978
 3863SOL    HW123102   1.647   4.518   4.941
 3863SOL    HW223103   1.675   4.675   4.905
 3864SOL     OW23104   1.225   4.049   4.173
 3864SOL    HW123105   1.290   3.975   4.162
 3864SOL    HW223106   1.245   4.099   4.257
 3865SOL     OW23107   0.594   4.469   4.376
 3865SOL    HW123108   0.644   4.554   4.357
 3865SOL    HW223109   0.506   4.471   4.328
 3866SOL     OW23110   1.777   4.066   5.366
 3866SOL    HW123111   1.760   4.097   5.272
 3866SOL    HW223112   1.693   4.029   5.404
 3867SOL     OW23113   1.730   4.658   5.241
 3867SOL    HW123114   1.768   4.749   5.256
 3867SOL    HW223115   1.722   4.641   5.142
 3868SOL     OW23116   0.859   4.680   4.585
 3868SOL    HW123117   0.913   4.611   4.633
 3868SOL    HW223118   0.827   4.749   4.651
 3869SOL     OW23119   1.083   4.708   3.811
 3869SOL    HW123120   1.060   4.761   3.729
 3869SOL    HW223121   1.164   4.652   3.792
 3870SOL     OW23122   0.079   4.964   4.377
 3870SOL    HW123123   0.078   4.917   4.465
 3870SOL    HW223124   0.161   4.936   4.326
 3871SOL     OW23125   1.824   3.916   4.951
 3871SOL    HW123126   1.820   3.826   4.995
 3871SOL    HW223127   1.827   3.905   4.852
 3872SOL     OW23128   0.428   4.148   4.244
 3872SOL    HW123129   0.458   4.076   4.182
 3872SOL    HW223130   0.389   4.108   4.327
 3873SOL     OW23131   0.317   4.271   5.004
 3873SOL    HW123132   0.355   4.212   5.076
 3873SOL    HW223133   0.357   4.245   4.916
 3874SOL     OW23134   1.424   3.938   4.836
 3874SOL    HW123135   1.476   3.873   4.891
 3874SOL    HW223136   1.375   4.001   4.897
 3875SOL     OW23137   1.001   3.758   4.878
 3875SOL    HW123138   0.938   3.686   4.847
 3875SOL    HW223139   1.094   3.722   4.878
 3876SOL     OW23140   1.352   3.776   3.892
 3876SOL    HW123141   1.387   3.735   3.808
 3876SOL    HW223142   1.262   3.738   3.912
 3877SOL     OW23143   1.300   4.177   4.415
 3877SOL    HW123144   1.241   4.257   4.419
 3877SOL    HW223145   1.315   4.142   4.508
 3878SOL     OW23146   1.593   3.945   4.606
 3878SOL    HW123147   1.509   3.944   4.660
 3878SOL    HW223148   1.595   4.028   4.550
 3879SOL     OW23149   0.039   4.801   4.024
 3879SOL    HW123150   0.138   4.790   4.015
 3879SOL    HW223151  -0.001   4.715   4.056
 3880SOL     OW23152   0.230   4.352   5.699
 3880SOL    HW123153   0.137   4.350   5.736
 3880SOL    HW223154   0.231   4.313   5.607
 3881SOL     OW23155   0.225   3.999   6.582
 3881SOL    HW123156   0.260   3.982   6.674
 3881SOL    HW223157   0.137   3.954   6.570
 3882SOL     OW23158   0.019   4.092   6.233
 3882SOL    HW123159  -0.063   4.135   6.272
 3882SOL    HW223160  -0.009   4.019   6.170
 3883SOL     OW23161   1.135   4.427   6.303
 3883SOL    HW123162   1.192   4.505   6.278
 3883SOL    HW223163   1.075   4.453   6.379
 3884SOL     OW23164   1.755   4.331   5.817
 3884SOL    HW123165   1.743   4.318   5.718
 3884SOL    HW223166   1.725   4.250   5.866
 3885SOL     OW23167   0.768   4.868   6.609
 3885SOL    HW123168   0.690   4.885   6.669
 3885SOL    HW223169   0.802   4.955   6.573
 3886SOL     OW23170   0.850   4.522   7.409
 3886SOL    HW123171   0.846   4.598   7.474
 3886SOL    HW223172   0.872   4.558   7.318
 3887SOL     OW23173   0.685   4.736   6.251
 3887SOL    HW123174   0.754   4.720   6.321
 3887SOL    HW223175   0.612   4.793   6.289
 3888SOL     OW23176   0.438   4.116   7.085
 3888SOL    HW123177   0.520   4.060   7.094
 3888SOL    HW223178   0.357   4.058   7.089
 3889SOL     OW23179   1.603   4.171   6.323
 3889SOL    HW123180   1.529   4.217   6.273
 3889SOL    HW223181   1.654   4.239   6.376
 3890SOL     OW23182   0.240   4.815   6.472
 3890SOL    HW123183   0.254   4.731   6.524
 3890SOL    HW223184   0.185   4.879   6.527
 3891SOL     OW23185   0.606   4.688   5.709
 3891SOL    HW123186   0.613   4.772   5.655
 3891SOL    HW223187   0.652   4.701   5.797
 3892SOL     OW23188   1.594   3.838   7.066
 3892SOL    HW123189   1.576   3.905   6.994
 3892SOL    HW223190   1.591   3.884   7.155
 3893SOL     OW23191   0.122   4.367   6.149
 3893SOL    HW123192   0.077   4.279   6.166
 3893SOL    HW223193   0.121   4.421   6.233
 3894SOL     OW23194   1.689   4.646   6.198
 3894SOL    HW123195   1.784   4.617   6.206
 3894SOL    HW223196   1.681   4.711   6.123
 3895SOL     OW23197   0.113   4.461   7.183
 3895SOL    HW123198   0.201   4.448   7.228
 3895SOL    HW223199   0.100   4.558   7.161
 3896SOL     OW23200   0.809   3.728   6.088
 3896SOL    HW123201   0.849   3.819   6.079
 3896SOL    HW223202   0.709   3.736   6.094
 3897SOL     OW23203   0.197   4.700   6.850
 3897SOL    HW123204   0.286   4.655   6.836
 3897SOL    HW223205   0.124   4.635   6.831
 3898SOL     OW23206   1.525   4.723   5.776
 3898SOL    HW123207   1.462   4.647   5.789
 3898SOL    HW223208   1.573   4.741   5.862
 3899SOL     OW23209   0.317   3.975   7.387
 3899SOL    HW123210   0.388   4.046   7.393
 3899SOL    HW223211   0.229   4.014   7.415
 3900SOL     OW23212   0.598   4.453   5.856
 3900SOL    HW123213   0.622   4.522   5.788
 3900SOL    HW223214   0.520   4.486   5.910
 3901SOL     OW23215   1.281   4.069   6.530
 3901SOL    HW123216   1.195   4.019   6.517
 3901SOL    HW223217   1.343   4.015   6.586
 3902SOL     OW23218   0.807   4.329   7.051
 3902SOL    HW123219   0.760   4.326   7.140
 3902SOL    HW223220   0.756   4.274   6.985
 3903SOL     OW23221   1.394   4.193   7.260
 3903SOL    HW123222   1.374   4.236   7.348
 3903SOL    HW223223   1.472   4.131   7.269
 3904SOL     OW23224   0.973   4.614   7.158
 3904SOL    HW123225   1.019   4.530   7.129
 3904SOL    HW223226   0.917   4.648   7.083
 3905SOL     OW23227   0.991   4.134   6.828
 3905SOL    HW123228   0.914   4.168   6.882
 3905SOL    HW223229   0.957   4.083   6.749
 3906SOL     OW23230   1.041   4.425   6.015
 3906SOL    HW123231   1.067   4.421   6.111
 3906SOL    HW223232   0.956   4.374   6.001
 3907SOL     OW23233   0.076   4.535   6.375
 3907SOL    HW123234   0.175   4.523   6.384
 3907SOL    HW223235   0.052   4.630   6.396
 3908SOL     OW23236   0.865   4.072   5.781
 3908SOL    HW123237   0.924   4.135   5.732
 3908SOL    HW223238   0.884   3.978   5.752
 3909SOL     OW23239   1.719   4.309   7.417
 3909SOL    HW123240   1.693   4.398   7.381
 3909SOL    HW223241   1.717   4.241   7.344
 3910SOL     OW23242   0.550   3.920   6.471
 3910SOL    HW123243   0.545   3.915   6.571
 3910SOL    HW223244   0.552   4.016   6.442
 3911SOL     OW23245   1.458   4.459   6.314
 3911SOL    HW123246   1.453   4.394   6.389
 3911SOL    HW223247   1.538   4.518   6.327
 3912SOL     OW23248   0.202   4.009   7.084
 3912SOL    HW123249   0.122   4.069   7.071
 3912SOL    HW223250   0.192   3.960   7.170
 3913SOL     OW23251   1.400   3.831   6.012
 3913SOL    HW123252   1.376   3.794   5.922
 3913SOL    HW223253   1.499   3.847   6.016
 3914SOL     OW23254   0.382   4.424   6.066
 3914SOL    HW123255   0.427   4.334   6.063
 3914SOL    HW223256   0.288   4.413   6.099
 3915SOL     OW23257   1.547   3.946   7.315
 3915SOL    HW123258   1.542   3.983   7.407
 3915SOL    HW223259   1.475   3.877   7.303
 3916SOL     OW23260   0.614   3.846   5.703
 3916SOL    HW123261   0.712   3.824   5.710
 3916SOL    HW223262   0.583   3.829   5.610
 3917SOL     OW23263   0.781   3.988   7.335
 3917SOL    HW123264   0.848   3.927   7.378
 3917SOL    HW223265   0.708   4.007   7.400
 3918SOL     OW23266   1.351   4.314   7.019
 3918SOL    HW123267   1.379   4.271   7.104
 3918SOL    HW223268   1.376   4.410   7.020
 3919SOL     OW23269   0.922   4.227   6.485
 3919SOL    HW123270   0.897   4.218   6.389
 3919SOL    HW223271   0.970   4.145   6.516
 3920SOL     OW23272   0.539   3.788   6.098
 3920SOL    HW123273   0.458   3.789   6.156
 3920SOL    HW223274   0.542   3.871   6.043
 3921SOL     OW23275   0.297   3.759   5.757
 3921SOL    HW123276   0.346   3.843   5.736
 3921SOL    HW223277   0.359   3.694   5.802
 3922SOL     OW23278   0.935   3.960   6.066
 3922SOL    HW123279   0.887   4.001   5.988
 3922SOL    HW223280   1.034   3.958   6.047
 3923SOL     OW23281   1.076   4.407   7.050
 3923SOL    HW123282   0.996   4.346   7.053
 3923SOL    HW223283   1.157   4.354   7.026
 3924SOL     OW23284   1.032   4.273   5.602
 3924SOL    HW123285   0.991   4.355   5.563
 3924SOL    HW223286   1.096   4.299   5.675
 3925SOL     OW23287   0.078   4.280   6.972
 3925SOL    HW123288   0.170   4.279   6.931
 3925SOL    HW223289   0.072   4.354   7.039
 3926SOL     OW23290   0.561   3.946   6.733
 3926SOL    HW123291   0.599   3.862   6.770
 3926SOL    HW223292   0.473   3.965   6.777
 3927SOL     OW23293   0.866   4.178   6.228
 3927SOL    HW123294   0.834   4.250   6.166
 3927SOL    HW223295   0.890   4.097   6.175
 3928SOL     OW23296   1.017   3.763   6.339
 3928SOL    HW123297   0.945   3.768   6.270
 3928SOL    HW223298   0.993   3.694   6.408
 3929SOL     OW23299   1.429   4.897   6.453
 3929SOL    HW123300   1.374   4.813   6.446
 3929SOL    HW223301   1.455   4.926   6.361
 3930SOL     OW23302   1.466   4.314   6.578
 3930SOL    HW123303   1.436   4.219   6.585
 3930SOL    HW223304   1.539   4.330   6.644
 3931SOL     OW23305   1.857   4.557   5.963
 3931SOL    HW123306   1.899   4.493   6.027
 3931SOL    HW223307   1.819   4.506   5.885
 3932SOL     OW23308   1.390   4.299   5.664
 3932SOL    HW123309   1.336   4.278   5.745
 3932SOL    HW223310   1.481   4.258   5.673
 3933SOL     OW23311   0.527   3.980   5.914
 3933SOL    HW123312   0.554   3.921   5.839
 3933SOL    HW223313   0.527   4.075   5.883
 3934SOL     OW23314   1.638   4.823   6.665
 3934SOL    HW123315   1.643   4.904   6.724
 3934SOL    HW223316   1.552   4.825   6.614
 3935SOL     OW23317   0.915   3.813   6.988
 3935SOL    HW123318   0.940   3.793   6.893
 3935SOL    HW223319   0.987   3.869   7.030
 3936SOL     OW23320   0.410   4.537   6.837
 3936SOL    HW123321   0.496   4.549   6.887
 3936SOL    HW223322   0.368   4.450   6.864
 3937SOL     OW23323   1.274   4.110   6.848
 3937SOL    HW123324   1.295   4.184   6.912
 3937SOL    HW223325   1.185   4.127   6.805
 3938SOL     OW23326   0.566   4.261   6.451
 3938SOL    HW123327   0.578   4.327   6.377
 3938SOL    HW223328   0.612   4.295   6.534
 3939SOL     OW23329   1.582   4.363   6.058
 3939SOL    HW123330   1.551   4.424   6.131
 3939SOL    HW223331   1.632   4.415   5.989
 3940SOL     OW23332   0.402   4.475   7.184
 3940SOL    HW123333   0.470   4.530   7.137
 3940SOL    HW223334   0.442   4.387   7.211
 3941SOL     OW23335   1.587   4.503   7.256
 3941SOL    HW123336   1.495   4.541   7.251
 3941SOL    HW223337   1.647   4.550   7.191
 3942SOL     OW23338   1.013   3.829   7.356
 3942SOL    HW123339   1.019   3.914   7.304
 3942SOL    HW223340   1.045   3.753   7.299
 3943SOL     OW23341   0.504   3.774   7.326
 3943SOL    HW123342   0.462   3.717   7.256
 3943SOL    HW223343   0.438   3.843   7.358
 3944SOL     OW23344   0.573   4.594   6.615
 3944SOL    HW123345   0.617   4.683   6.606
 3944SOL    HW223346   0.510   4.594   6.692
 3945SOL     OW23347   1.360   4.586   6.631
 3945SOL    HW123348   1.285   4.586   6.565
 3945SOL    HW223349   1.397   4.494   6.640
 3946SOL     OW23350   1.209   4.249   5.861
 3946SOL    HW123351   1.222   4.165   5.915
 3946SOL    HW223352   1.180   4.323   5.921
 3947SOL     OW23353   0.307   3.937   6.817
 3947SOL    HW123354   0.284   3.974   6.907
 3947SOL    HW223355   0.277   3.842   6.811
 3948SOL     OW23356   0.037   5.034   6.868
 3948SOL    HW123357   0.090   4.985   6.936
 3948SOL    HW223358   0.059   5.132   6.873
 3949SOL     OW23359   0.732   4.358   6.650
 3949SOL    HW123360   0.791   4.332   6.574
 3949SOL    HW223361   0.704   4.454   6.639
 3950SOL     OW23362   1.728   4.659   7.440
 3950SOL    HW123363   1.682   4.652   7.351
 3950SOL    HW223364   1.666   4.703   7.506
 3951SOL     OW23365   0.307   3.787   6.204
 3951SOL    HW123366   0.296   3.881   6.237
 3951SOL    HW223367   0.302   3.724   6.281
 3952SOL     OW23368   1.622   4.091   5.960
 3952SOL    HW123369   1.624   4.015   6.024
 3952SOL    HW223370   1.574   4.168   6.000
 3953SOL     OW23371   1.023   4.490   6.552
 3953SOL    HW123372   1.038   4.511   6.648
 3953SOL    HW223373   0.993   4.395   6.543
 3954SOL     OW23374   0.350   4.622   7.390
 3954SOL    HW123375   0.426   4.666   7.438
 3954SOL    HW223376   0.385   4.575   7.308
 3955SOL     OW23377   1.540   3.998   5.711
 3955SOL    HW123378   1.479   3.923   5.734
 3955SOL    HW223379   1.562   4.050   5.794
 3956SOL     OW23380   1.303   4.562   5.628
 3956SOL    HW123381   1.337   4.469   5.643
 3956SOL    HW223382   1.321   4.589   5.533
 3957SOL     OW23383   0.319   4.534   6.535
 3957SOL    HW123384   0.412   4.570   6.540
 3957SOL    HW223385   0.313   4.449   6.587
 3958SOL     OW23386   0.339   4.233   6.592
 3958SOL    HW123387   0.287   4.150   6.575
 3958SOL    HW223388   0.416   4.238   6.528
 3959SOL     OW23389   1.138   4.104   7.264
 3959SOL    HW123390   1.093   4.167   7.328
 3959SOL    HW223391   1.231   4.135   7.247
 3960SOL     OW23392   1.160   3.931   7.063
 3960SOL    HW123393   1.160   3.995   7.140
 3960SOL    HW223394   1.188   3.979   6.980
 3961SOL     OW23395   1.002   4.520   6.824
 3961SOL    HW123396   1.043   4.488   6.910
 3961SOL    HW223397   0.906   4.493   6.821
 3962SOL     OW23398   0.040   4.268   6.700
 3962SOL    HW123399   0.125   4.235   6.659
 3962SOL    HW223400   0.053   4.283   6.798
 3963SOL     OW23401   0.189   4.244   7.308
 3963SOL    HW123402   0.248   4.204   7.238
 3963SOL    HW223403   0.131   4.315   7.267
 3964SOL     OW23404   1.369   4.674   7.246
 3964SOL    HW123405   1.408   4.763   7.266
 3964SOL    HW223406   1.379   4.654   7.149
 3965SOL     OW23407   0.815   4.296   5.911
 3965SOL    HW123408   0.822   4.207   5.865
 3965SOL    HW223409   0.721   4.330   5.903
 3966SOL     OW23410   1.657   4.328   6.792
 3966SOL    HW123411   1.619   4.259   6.854
 3966SOL    HW223412   1.739   4.292   6.748
 3967SOL     OW23413   0.671   4.188   6.855
 3967SOL    HW123414   0.637   4.099   6.825
 3967SOL    HW223415   0.697   4.242   6.775
 3968SOL     OW23416   0.473   4.224   5.777
 3968SOL    HW123417   0.534   4.304   5.781
 3968SOL    HW223418   0.378   4.255   5.784
 3969SOL     OW23419   0.159   4.861   7.052
 3969SOL    HW123420   0.181   4.800   7.128
 3969SOL    HW223421   0.169   4.812   6.966
 3970SOL     OW23422   1.347   4.783   6.820
 3970SOL    HW123423   1.371   4.720   6.746
 3970SOL    HW223424   1.257   4.823   6.802
 3971SOL     OW23425   1.302   4.579   5.895
 3971SOL    HW123426   1.216   4.548   5.937
 3971SOL    HW223427   1.298   4.565   5.796
 3972SOL     OW23428   1.726   3.859   6.109
 3972SOL    HW123429   1.799   3.842   6.042
 3972SOL    HW223430   1.695   3.772   6.147
 3973SOL     OW23431   1.280   4.651   6.258
 3973SOL    HW123432   1.340   4.570   6.260
 3973SOL    HW223433   1.320   4.720   6.198
 3974SOL     OW23434   1.841   3.899   6.549
 3974SOL    HW123435   1.880   3.814   6.513
 3974SOL    HW223436   1.743   3.901   6.530
 3975SOL     OW23437   0.263   4.050   6.306
 3975SOL    HW123438   0.184   4.101   6.272
 3975SOL    HW223439   0.254   4.035   6.404
 3976SOL     OW23440   0.916   4.634   5.877
 3976SOL    HW123441   0.979   4.672   5.809
 3976SOL    HW223442   0.956   4.551   5.916
 3977SOL     OW23443   1.014   3.960   6.557
 3977SOL    HW123444   1.006   3.924   6.464
 3977SOL    HW223445   1.012   3.884   6.622
 3978SOL     OW23446   1.709   4.109   6.967
 3978SOL    HW123447   1.782   4.178   6.971
 3978SOL    HW223448   1.737   4.034   6.908
 3979SOL     OW23449   0.105   4.737   7.312
 3979SOL    HW123450   0.028   4.704   7.366
 3979SOL    HW223451   0.190   4.707   7.354
 3980SOL     OW23452   0.672   3.927   7.075
 3980SOL    HW123453   0.762   3.911   7.035
 3980SOL    HW223454   0.680   3.932   7.174
 3981SOL     OW23455   0.075   4.069   5.619
 3981SOL    HW123456  -0.017   4.041   5.590
 3981SOL    HW223457   0.106   4.146   5.563
 3982SOL     OW23458   1.440   4.580   6.984
 3982SOL    HW123459   1.383   4.632   6.921
 3982SOL    HW223460   1.536   4.592   6.960
 3983SOL     OW23461   0.072   3.890   5.904
 3983SOL    HW123462   0.055   3.973   5.850
 3983SOL    HW223463   0.162   3.853   5.882
 3984SOL     OW23464   1.183   5.059   5.705
 3984SOL    HW123465   1.084   5.048   5.707
 3984SOL    HW223466   1.217   5.074   5.798
 3985SOL     OW23467   0.613   4.566   7.017
 3985SOL    HW123468   0.669   4.647   7.000
 3985SOL    HW223469   0.672   4.486   7.020
 3986SOL     OW23470   0.716   4.289   7.294
 3986SOL    HW123471   0.735   4.354   7.368
 3986SOL    HW223472   0.776   4.209   7.303
 3987SOL     OW23473   1.674   4.607   6.840
 3987SOL    HW123474   1.647   4.518   6.803
 3987SOL    HW223475   1.675   4.675   6.767
 3988SOL     OW23476   1.225   4.049   6.035
 3988SOL    HW123477   1.290   3.975   6.024
 3988SOL    HW223478   1.245   4.099   6.119
 3989SOL     OW23479   0.594   4.469   6.238
 3989SOL    HW123480   0.644   4.554   6.219
 3989SOL    HW223481   0.506   4.471   6.190
 3990SOL     OW23482   1.777   4.066   7.228
 3990SOL    HW123483   1.760   4.097   7.134
 3990SOL    HW223484   1.693   4.029   7.266
 3991SOL     OW23485   1.730   4.658   7.103
 3991SOL    HW123486   1.768   4.749   7.118
 3991SOL    HW223487   1.722   4.641   7.004
 3992SOL     OW23488   0.859   4.680   6.447
 3992SOL    HW123489   0.913   4.611   6.495
 3992SOL    HW223490   0.827   4.749   6.513
 3993SOL     OW23491   1.083   4.708   5.673
 3993SOL    HW123492   1.060   4.761   5.591
 3993SOL    HW223493   1.164   4.652   5.654
 3994SOL     OW23494   0.079   4.964   6.239
 3994SOL    HW123495   0.078   4.917   6.327
 3994SOL    HW223496   0.161   4.936   6.188
 3995SOL     OW23497   1.824   3.916   6.813
 3995SOL    HW123498   1.820   3.826   6.857
 3995SOL    HW223499   1.827   3.905   6.714
 3996SOL     OW23500   0.428   4.148   6.106
 3996SOL    HW123501   0.458   4.076   6.044
 3996SOL    HW223502   0.389   4.108   6.189
 3997SOL     OW23503   0.317   4.271   6.866
 3997SOL    HW123504   0.355   4.212   6.938
 3997SOL    HW223505   0.357   4.245   6.778
 3998SOL     OW23506   1.424   3.938   6.698
 3998SOL    HW123507   1.476   3.873   6.753
 3998SOL    HW223508   1.375   4.001   6.759
 3999SOL     OW23509   1.001   3.758   6.740
 3999SOL    HW123510   0.938   3.686   6.709
 3999SOL    HW223511   1.094   3.722   6.740
 4000SOL     OW23512   1.352   3.776   5.754
 4000SOL    HW123513   1.387   3.735   5.670
 4000SOL    HW223514   1.262   3.738   5.774
 4001SOL     OW23515   1.300   4.177   6.277
 4001SOL    HW123516   1.241   4.257   6.281
 4001SOL    HW223517   1.315   4.142   6.370
 4002SOL     OW23518   1.593   3.945   6.468
 4002SOL    HW123519   1.509   3.944   6.522
 4002SOL    HW223520   1.595   4.028   6.412
 4003SOL     OW23521   0.039   4.801   5.886
 4003SOL    HW123522   0.138   4.790   5.877
 4003SOL    HW223523  -0.001   4.715   5.918
 4004SOL     OW23524   0.230   4.352   7.561
 4004SOL    HW123525   0.137   4.350   7.598
 4004SOL    HW223526   0.231   4.313   7.469
 4005SOL     OW23527   0.225   3.999   8.444
 4005SOL    HW123528   0.260   3.982   8.536
 4005SOL    HW223529   0.137   3.954   8.432
 4006SOL     OW23530   0.019   4.092   8.095
 4006SOL    HW123531  -0.063   4.135   8.134
 4006SOL    HW223532  -0.009   4.019   8.032
 4007SOL     OW23533   1.135   4.427   8.165
 4007SOL    HW123534   1.192   4.505   8.140
 4007SOL    HW223535   1.075   4.453   8.241
 4008SOL     OW23536   1.755   4.331   7.679
 4008SOL    HW123537   1.743   4.318   7.580
 4008SOL    HW223538   1.725   4.250   7.728
 4009SOL     OW23539   0.768   4.868   8.471
 4009SOL    HW123540   0.690   4.885   8.531
 4009SOL    HW223541   0.802   4.955   8.435
 4010SOL     OW23542   0.685   4.736   8.113
 4010SOL    HW123543   0.754   4.720   8.183
 4010SOL    HW223544   0.612   4.793   8.151
 4011SOL     OW23545   0.438   4.116   8.947
 4011SOL    HW123546   0.520   4.060   8.956
 4011SOL    HW223547   0.357   4.058   8.951
 4012SOL     OW23548   1.603   4.171   8.185
 4012SOL    HW123549   1.529   4.217   8.135
 4012SOL    HW223550   1.654   4.239   8.238
 4013SOL     OW23551   0.240   4.815   8.334
 4013SOL    HW123552   0.254   4.731   8.386
 4013SOL    HW223553   0.185   4.879   8.389
 4014SOL     OW23554   0.606   4.688   7.571
 4014SOL    HW123555   0.613   4.772   7.517
 4014SOL    HW223556   0.652   4.701   7.659
 4015SOL     OW23557   0.122   4.367   8.011
 4015SOL    HW123558   0.077   4.279   8.028
 4015SOL    HW223559   0.121   4.421   8.095
 4016SOL     OW23560   1.689   4.646   8.060
 4016SOL    HW123561   1.784   4.617   8.068
 4016SOL    HW223562   1.681   4.711   7.985
 4017SOL     OW23563   0.809   3.728   7.950
 4017SOL    HW123564   0.849   3.819   7.941
 4017SOL    HW223565   0.709   3.736   7.956
 4018SOL     OW23566   1.525   4.723   7.638
 4018SOL    HW123567   1.462   4.647   7.651
 4018SOL    HW223568   1.573   4.741   7.724
 4019SOL     OW23569   0.598   4.453   7.718
 4019SOL    HW123570   0.622   4.522   7.650
 4019SOL    HW223571   0.520   4.486   7.772
 4020SOL     OW23572   1.281   4.069   8.392
 4020SOL    HW123573   1.195   4.019   8.379
 4020SOL    HW223574   1.343   4.015   8.448
 4021SOL     OW23575   0.807   4.329   8.913
 4021SOL    HW123576   0.760   4.326   9.002
 4021SOL    HW223577   0.756   4.274   8.847
 4022SOL     OW23578   1.394   4.193   9.122
 4022SOL    HW123579   1.374   4.236   9.210
 4022SOL    HW223580   1.472   4.131   9.131
 4023SOL     OW23581   0.973   4.614   9.020
 4023SOL    HW123582   1.019   4.530   8.991
 4023SOL    HW223583   0.917   4.648   8.945
 4024SOL     OW23584   0.991   4.134   8.690
 4024SOL    HW123585   0.914   4.168   8.744
 4024SOL    HW223586   0.957   4.083   8.611
 4025SOL     OW23587   1.041   4.425   7.877
 4025SOL    HW123588   1.067   4.421   7.973
 4025SOL    HW223589   0.956   4.374   7.863
 4026SOL     OW23590   0.076   4.535   8.237
 4026SOL    HW123591   0.175   4.523   8.246
 4026SOL    HW223592   0.052   4.630   8.258
 4027SOL     OW23593   0.865   4.072   7.643
 4027SOL    HW123594   0.924   4.135   7.594
 4027SOL    HW223595   0.884   3.978   7.614
 4028SOL     OW23596   0.550   3.920   8.333
 4028SOL    HW123597   0.545   3.915   8.433
 4028SOL    HW223598   0.552   4.016   8.304
 4029SOL     OW23599   1.458   4.459   8.176
 4029SOL    HW123600   1.453   4.394   8.251
 4029SOL    HW223601   1.538   4.518   8.189
 4030SOL     OW23602   0.202   4.009   8.946
 4030SOL    HW123603   0.122   4.069   8.933
 4030SOL    HW223604   0.192   3.960   9.032
 4031SOL     OW23605   1.400   3.831   7.874
 4031SOL    HW123606   1.376   3.794   7.784
 4031SOL    HW223607   1.499   3.847   7.878
 4032SOL     OW23608   0.382   4.424   7.928
 4032SOL    HW123609   0.427   4.334   7.925
 4032SOL    HW223610   0.288   4.413   7.961
 4033SOL     OW23611   0.614   3.846   7.565
 4033SOL    HW123612   0.712   3.824   7.572
 4033SOL    HW223613   0.583   3.829   7.472
 4034SOL     OW23614   0.781   3.988   9.197
 4034SOL    HW123615   0.848   3.927   9.240
 4034SOL    HW223616   0.708   4.007   9.262
 4035SOL     OW23617   1.351   4.314   8.881
 4035SOL    HW123618   1.379   4.271   8.966
 4035SOL    HW223619   1.376   4.410   8.882
 4036SOL     OW23620   0.922   4.227   8.347
 4036SOL    HW123621   0.897   4.218   8.251
 4036SOL    HW223622   0.970   4.145   8.378
 4037SOL     OW23623   0.539   3.788   7.960
 4037SOL    HW123624   0.458   3.789   8.018
 4037SOL    HW223625   0.542   3.871   7.905
 4038SOL     OW23626   0.297   3.759   7.619
 4038SOL    HW123627   0.346   3.843   7.598
 4038SOL    HW223628   0.359   3.694   7.664
 4039SOL     OW23629   0.935   3.960   7.928
 4039SOL    HW123630   0.887   4.001   7.850
 4039SOL    HW223631   1.034   3.958   7.909
 4040SOL     OW23632   1.076   4.407   8.912
 4040SOL    HW123633   0.996   4.346   8.915
 4040SOL    HW223634   1.157   4.354   8.888
 4041SOL     OW23635   1.032   4.273   7.464
 4041SOL    HW123636   0.991   4.355   7.425
 4041SOL    HW223637   1.096   4.299   7.537
 4042SOL     OW23638   0.078   4.280   8.834
 4042SOL    HW123639   0.170   4.279   8.793
 4042SOL    HW223640   0.072   4.354   8.901
 4043SOL     OW23641   0.561   3.946   8.595
 4043SOL    HW123642   0.599   3.862   8.632
 4043SOL    HW223643   0.473   3.965   8.639
 4044SOL     OW23644   0.866   4.178   8.090
 4044SOL    HW123645   0.834   4.250   8.028
 4044SOL    HW223646   0.890   4.097   8.037
 4045SOL     OW23647   1.017   3.763   8.201
 4045SOL    HW123648   0.945   3.768   8.132
 4045SOL    HW223649   0.993   3.694   8.270
 4046SOL     OW23650   1.429   4.897   8.315
 4046SOL    HW123651   1.374   4.813   8.308
 4046SOL    HW223652   1.455   4.926   8.223
 4047SOL     OW23653   1.466   4.314   8.440
 4047SOL    HW123654   1.436   4.219   8.447
 4047SOL    HW223655   1.539   4.330   8.506
 4048SOL     OW23656   1.857   4.557   7.825
 4048SOL    HW123657   1.899   4.493   7.889
 4048SOL    HW223658   1.819   4.506   7.747
 4049SOL     OW23659   1.390   4.299   7.526
 4049SOL    HW123660   1.336   4.278   7.607
 4049SOL    HW223661   1.481   4.258   7.535
 4050SOL     OW23662   0.527   3.980   7.776
 4050SOL    HW123663   0.554   3.921   7.701
 4050SOL    HW223664   0.527   4.075   7.745
 4051SOL     OW23665   1.638   4.823   8.527
 4051SOL    HW123666   1.643   4.904   8.586
 4051SOL    HW223667   1.552   4.825   8.476
 4052SOL     OW23668   0.915   3.813   8.850
 4052SOL    HW123669   0.940   3.793   8.755
 4052SOL    HW223670   0.987   3.869   8.892
 4053SOL     OW23671   0.410   4.537   8.699
 4053SOL    HW123672   0.496   4.549   8.749
 4053SOL    HW223673   0.368   4.450   8.726
 4054SOL     OW23674   1.274   4.110   8.710
 4054SOL    HW123675   1.295   4.184   8.774
 4054SOL    HW223676   1.185   4.127   8.667
 4055SOL     OW23677   0.566   4.261   8.313
 4055SOL    HW123678   0.578   4.327   8.239
 4055SOL    HW223679   0.612   4.295   8.396
 4056SOL     OW23680   1.582   4.363   7.920
 4056SOL    HW123681   1.551   4.424   7.993
 4056SOL    HW223682   1.632   4.415   7.851
 4057SOL     OW23683   0.402   4.475   9.046
 4057SOL    HW123684   0.470   4.530   8.999
 4057SOL    HW223685   0.442   4.387   9.073
 4058SOL     OW23686   1.013   3.829   9.218
 4058SOL    HW123687   1.019   3.914   9.166
 4058SOL    HW223688   1.045   3.753   9.161
 4059SOL     OW23689   0.504   3.774   9.188
 4059SOL    HW123690   0.462   3.717   9.118
 4059SOL    HW223691   0.438   3.843   9.220
 4060SOL     OW23692   0.573   4.594   8.477
 4060SOL    HW123693   0.617   4.683   8.468
 4060SOL    HW223694   0.510   4.594   8.554
 4061SOL     OW23695   1.360   4.586   8.493
 4061SOL    HW123696   1.285   4.586   8.427
 4061SOL    HW223697   1.397   4.494   8.502
 4062SOL     OW23698   1.209   4.249   7.723
 4062SOL    HW123699   1.222   4.165   7.777
 4062SOL    HW223700   1.180   4.323   7.783
 4063SOL     OW23701   0.307   3.937   8.679
 4063SOL    HW123702   0.284   3.974   8.769
 4063SOL    HW223703   0.277   3.842   8.673
 4064SOL     OW23704   0.037   5.034   8.730
 4064SOL    HW123705   0.090   4.985   8.798
 4064SOL    HW223706   0.059   5.132   8.735
 4065SOL     OW23707   0.732   4.358   8.512
 4065SOL    HW123708   0.791   4.332   8.436
 4065SOL    HW223709   0.704   4.454   8.501
 4066SOL     OW23710   1.728   4.659   9.302
 4066SOL    HW123711   1.682   4.652   9.213
 4066SOL    HW223712   1.666   4.703   9.368
 4067SOL     OW23713   0.307   3.787   8.066
 4067SOL    HW123714   0.296   3.881   8.099
 4067SOL    HW223715   0.302   3.724   8.143
 4068SOL     OW23716   1.622   4.091   7.822
 4068SOL    HW123717   1.624   4.015   7.886
 4068SOL    HW223718   1.574   4.168   7.862
 4069SOL     OW23719   1.023   4.490   8.414
 4069SOL    HW123720   1.038   4.511   8.510
 4069SOL    HW223721   0.993   4.395   8.405
 4070SOL     OW23722   1.540   3.998   7.573
 4070SOL    HW123723   1.479   3.923   7.596
 4070SOL    HW223724   1.562   4.050   7.656
 4071SOL     OW23725   1.303   4.562   7.490
 4071SOL    HW123726   1.337   4.469   7.505
 4071SOL    HW223727   1.321   4.589   7.395
 4072SOL     OW23728   0.319   4.534   8.397
 4072SOL    HW123729   0.412   4.570   8.402
 4072SOL    HW223730   0.313   4.449   8.449
 4073SOL     OW23731   0.339   4.233   8.454
 4073SOL    HW123732   0.287   4.150   8.437
 4073SOL    HW223733   0.416   4.238   8.390
 4074SOL     OW23734   1.138   4.104   9.126
 4074SOL    HW123735   1.093   4.167   9.190
 4074SOL    HW223736   1.231   4.135   9.109
 4075SOL     OW23737   1.160   3.931   8.925
 4075SOL    HW123738   1.160   3.995   9.002
 4075SOL    HW223739   1.188   3.979   8.842
 4076SOL     OW23740   1.002   4.520   8.686
 4076SOL    HW123741   1.043   4.488   8.772
 4076SOL    HW223742   0.906   4.493   8.683
 4077SOL     OW23743   0.040   4.268   8.562
 4077SOL    HW123744   0.125   4.235   8.521
 4077SOL    HW223745   0.053   4.283   8.660
 4078SOL     OW23746   0.815   4.296   7.773
 4078SOL    HW123747   0.822   4.207   7.727
 4078SOL    HW223748   0.721   4.330   7.765
 4079SOL     OW23749   1.657   4.328   8.654
 4079SOL    HW123750   1.619   4.259   8.716
 4079SOL    HW223751   1.739   4.292   8.610
 4080SOL     OW23752   0.671   4.188   8.717
 4080SOL    HW123753   0.637   4.099   8.687
 4080SOL    HW223754   0.697   4.242   8.637
 4081SOL     OW23755   0.473   4.224   7.639
 4081SOL    HW123756   0.534   4.304   7.643
 4081SOL    HW223757   0.378   4.255   7.646
 4082SOL     OW23758   0.159   4.861   8.914
 4082SOL    HW123759   0.181   4.800   8.990
 4082SOL    HW223760   0.169   4.812   8.828
 4083SOL     OW23761   1.347   4.783   8.682
 4083SOL    HW123762   1.371   4.720   8.608
 4083SOL    HW223763   1.257   4.823   8.664
 4084SOL     OW23764   1.302   4.579   7.757
 4084SOL    HW123765   1.216   4.548   7.799
 4084SOL    HW223766   1.298   4.565   7.658
 4085SOL     OW23767   1.726   3.859   7.971
 4085SOL    HW123768   1.799   3.842   7.904
 4085SOL    HW223769   1.695   3.772   8.009
 4086SOL     OW23770   1.280   4.651   8.120
 4086SOL    HW123771   1.340   4.570   8.122
 4086SOL    HW223772   1.320   4.720   8.060
 4087SOL     OW23773   1.841   3.899   8.411
 4087SOL    HW123774   1.880   3.814   8.375
 4087SOL    HW223775   1.743   3.901   8.392
 4088SOL     OW23776   0.263   4.050   8.168
 4088SOL    HW123777   0.184   4.101   8.134
 4088SOL    HW223778   0.254   4.035   8.266
 4089SOL     OW23779   0.916   4.634   7.739
 4089SOL    HW123780   0.979   4.672   7.671
 4089SOL    HW223781   0.956   4.551   7.778
 4090SOL     OW23782   1.014   3.960   8.419
 4090SOL    HW123783   1.006   3.924   8.326
 4090SOL    HW223784   1.012   3.884   8.484
 4091SOL     OW23785   1.709   4.109   8.829
 4091SOL    HW123786   1.782   4.178   8.833
 4091SOL    HW223787   1.737   4.034   8.770
 4092SOL     OW23788   0.672   3.927   8.937
 4092SOL    HW123789   0.762   3.911   8.897
 4092SOL    HW223790   0.680   3.932   9.036
 4093SOL     OW23791   0.075   4.069   7.481
 4093SOL    HW123792  -0.017   4.041   7.452
 4093SOL    HW223793   0.106   4.146   7.425
 4094SOL     OW23794   0.072   3.890   7.766
 4094SOL    HW123795   0.055   3.973   7.712
 4094SOL    HW223796   0.162   3.853   7.744
 4095SOL     OW23797   1.183   5.059   7.567
 4095SOL    HW123798   1.084   5.048   7.569
 4095SOL    HW223799   1.217   5.074   7.660
 4096SOL     OW23800   0.613   4.566   8.879
 4096SOL    HW123801   0.669   4.647   8.862
 4096SOL    HW223802   0.672   4.486   8.882
 4097SOL     OW23803   0.716   4.289   9.156
 4097SOL    HW123804   0.735   4.354   9.230
 4097SOL    HW223805   0.776   4.209   9.165
 4098SOL     OW23806   1.225   4.049   7.897
 4098SOL    HW123807   1.290   3.975   7.886
 4098SOL    HW223808   1.245   4.099   7.981
 4099SOL     OW23809   0.594   4.469   8.100
 4099SOL    HW123810   0.644   4.554   8.081
 4099SOL    HW223811   0.506   4.471   8.052
 4100SOL     OW23812   0.859   4.680   8.309
 4100SOL    HW123813   0.913   4.611   8.357
 4100SOL    HW223814   0.827   4.749   8.375
 4101SOL     OW23815   1.083   4.708   7.535
 4101SOL    HW123816   1.060   4.761   7.453
 4101SOL    HW223817   1.164   4.652   7.516
 4102SOL     OW23818   0.079   4.964   8.101
 4102SOL    HW123819   0.078   4.917   8.189
 4102SOL    HW223820   0.161   4.936   8.050
 4103SOL     OW23821   1.824   3.916   8.675
 4103SOL    HW123822   1.820   3.826   8.719
 4103SOL    HW223823   1.827   3.905   8.576
 4104SOL     OW23824   0.428   4.148   7.968
 4104SOL    HW123825   0.458   4.076   7.906
 4104SOL    HW223826   0.389   4.108   8.051
 4105SOL     OW23827   0.317   4.271   8.728
 4105SOL    HW123828   0.355   4.212   8.800
 4105SOL    HW223829   0.357   4.245   8.640
 4106SOL     OW23830   1.424   3.938   8.560
 4106SOL    HW123831   1.476   3.873   8.615
 4106SOL    HW223832   1.375   4.001   8.621
 4107SOL     OW23833   1.001   3.758   8.602
 4107SOL    HW123834   0.938   3.686   8.571
 4107SOL    HW223835   1.094   3.722   8.602
 4108SOL     OW23836   1.352   3.776   7.616
 4108SOL    HW123837   1.387   3.735   7.532
 4108SOL    HW223838   1.262   3.738   7.636
 4109SOL     OW23839   1.300   4.177   8.139
 4109SOL    HW123840   1.241   4.257   8.143
 4109SOL    HW223841   1.315   4.142   8.232
 4110SOL     OW23842   1.593   3.945   8.330
 4110SOL    HW123843   1.509   3.944   8.384
 4110SOL    HW223844   1.595   4.028   8.274
 4111SOL     OW23845   0.039   4.801   7.748
 4111SOL    HW123846   0.138   4.790   7.739
 4111SOL    HW223847  -0.001   4.715   7.780
 4112SOL     OW23848   0.225   3.999  10.306
 4112SOL    HW123849   0.260   3.982  10.398
 4112SOL    HW223850   0.137   3.954  10.294
 4113SOL     OW23851   1.135   4.427  10.027
 4113SOL    HW123852   1.192   4.505  10.002
 4113SOL    HW223853   1.075   4.453  10.103
 4114SOL     OW23854   0.438   4.116  10.809
 4114SOL    HW123855   0.520   4.060  10.818
 4114SOL    HW223856   0.357   4.058  10.813
 4115SOL     OW23857   1.689   4.646   9.922
 4115SOL    HW123858   1.784   4.617   9.930
 4115SOL    HW223859   1.681   4.711   9.847
 4116SOL     OW23860   0.317   3.975  11.111
 4116SOL    HW123861   0.388   4.046  11.117
 4116SOL    HW223862   0.229   4.014  11.139
 4117SOL     OW23863   1.281   4.069  10.254
 4117SOL    HW123864   1.195   4.019  10.241
 4117SOL    HW223865   1.343   4.015  10.310
 4118SOL     OW23866   1.394   4.193  10.984
 4118SOL    HW123867   1.374   4.236  11.072
 4118SOL    HW223868   1.472   4.131  10.993
 4119SOL     OW23869   0.076   4.535  10.099
 4119SOL    HW123870   0.175   4.523  10.108
 4119SOL    HW223871   0.052   4.630  10.120
 4120SOL     OW23872   1.458   4.459  10.038
 4120SOL    HW123873   1.453   4.394  10.113
 4120SOL    HW223874   1.538   4.518  10.051
 4121SOL     OW23875   1.547   3.946  11.039
 4121SOL    HW123876   1.542   3.983  11.131
 4121SOL    HW223877   1.475   3.877  11.027
 4122SOL     OW23878   0.614   3.846   9.427
 4122SOL    HW123879   0.712   3.824   9.434
 4122SOL    HW223880   0.583   3.829   9.334
 4123SOL     OW23881   0.922   4.227  10.209
 4123SOL    HW123882   0.897   4.218  10.113
 4123SOL    HW223883   0.970   4.145  10.240
 4124SOL     OW23884   0.297   3.759   9.481
 4124SOL    HW123885   0.346   3.843   9.460
 4124SOL    HW223886   0.359   3.694   9.526
 4125SOL     OW23887   1.032   4.273   9.326
 4125SOL    HW123888   0.991   4.355   9.287
 4125SOL    HW223889   1.096   4.299   9.399
 4126SOL     OW23890   0.561   3.946  10.457
 4126SOL    HW123891   0.599   3.862  10.494
 4126SOL    HW223892   0.473   3.965  10.501
 4127SOL     OW23893   1.857   4.557   9.687
 4127SOL    HW123894   1.899   4.493   9.751
 4127SOL    HW223895   1.819   4.506   9.609
 4128SOL     OW23896   1.390   4.299   9.388
 4128SOL    HW123897   1.336   4.278   9.469
 4128SOL    HW223898   1.481   4.258   9.397
 4129SOL     OW23899   0.402   4.475  10.908
 4129SOL    HW123900   0.470   4.530  10.861
 4129SOL    HW223901   0.442   4.387  10.935
 4130SOL     OW23902   1.587   4.503  10.980
 4130SOL    HW123903   1.495   4.541  10.975
 4130SOL    HW223904   1.647   4.550  10.915
 4131SOL     OW23905   0.504   3.774  11.050
 4131SOL    HW123906   0.462   3.717  10.980
 4131SOL    HW223907   0.438   3.843  11.082
 4132SOL     OW23908   1.360   4.586  10.355
 4132SOL    HW123909   1.285   4.586  10.289
 4132SOL    HW223910   1.397   4.494  10.364
 4133SOL     OW23911   1.209   4.249   9.585
 4133SOL    HW123912   1.222   4.165   9.639
 4133SOL    HW223913   1.180   4.323   9.645
 4134SOL     OW23914   0.037   5.034  10.592
 4134SOL    HW123915   0.090   4.985  10.660
 4134SOL    HW223916   0.059   5.132  10.597
 4135SOL     OW23917   1.728   4.659  11.164
 4135SOL    HW123918   1.682   4.652  11.075
 4135SOL    HW223919   1.666   4.703  11.230
 4136SOL     OW23920   1.023   4.490  10.276
 4136SOL    HW123921   1.038   4.511  10.372
 4136SOL    HW223922   0.993   4.395  10.267
 4137SOL     OW23923   0.350   4.622  11.114
 4137SOL    HW123924   0.426   4.666  11.162
 4137SOL    HW223925   0.385   4.575  11.032
 4138SOL     OW23926   1.540   3.998   9.435
 4138SOL    HW123927   1.479   3.923   9.458
 4138SOL    HW223928   1.562   4.050   9.518
 4139SOL     OW23929   1.303   4.562   9.352
 4139SOL    HW123930   1.337   4.469   9.367
 4139SOL    HW223931   1.321   4.589   9.257
 4140SOL     OW23932   1.002   4.520  10.548
 4140SOL    HW123933   1.043   4.488  10.634
 4140SOL    HW223934   0.906   4.493  10.545
 4141SOL     OW23935   0.040   4.268  10.424
 4141SOL    HW123936   0.125   4.235  10.383
 4141SOL    HW223937   0.053   4.283  10.522
 4142SOL     OW23938   0.671   4.188  10.579
 4142SOL    HW123939   0.637   4.099  10.549
 4142SOL    HW223940   0.697   4.242  10.499
 4143SOL     OW23941   0.159   4.861  10.776
 4143SOL    HW123942   0.181   4.800  10.852
 4143SOL    HW223943   0.169   4.812  10.690
 4144SOL     OW23944   1.280   4.651   9.982
 4144SOL    HW123945   1.340   4.570   9.984
 4144SOL    HW223946   1.320   4.720   9.922
 4145SOL     OW23947   1.014   3.960  10.281
 4145SOL    HW123948   1.006   3.924  10.188
 4145SOL    HW223949   1.012   3.884  10.346
 4146SOL     OW23950   0.105   4.737  11.036
 4146SOL    HW123951   0.028   4.704  11.090
 4146SOL    HW223952   0.190   4.707  11.078
 4147SOL     OW23953   0.672   3.927  10.799
 4147SOL    HW123954   0.762   3.911  10.759
 4147SOL    HW223955   0.680   3.932  10.898
 4148SOL     OW23956   0.072   3.890   9.628
 4148SOL    HW123957   0.055   3.973   9.574
 4148SOL    HW223958   0.162   3.853   9.606
 4149SOL     OW23959   0.613   4.566  10.741
 4149SOL    HW123960   0.669   4.647  10.724
 4149SOL    HW223961   0.672   4.486  10.744
 4150SOL     OW23962   1.225   4.049   9.759
 4150SOL    HW123963   1.290   3.975   9.748
 4150SOL    HW223964   1.245   4.099   9.843
 4151SOL     OW23965   0.859   4.680  10.171
 4151SOL    HW123966   0.913   4.611  10.219
 4151SOL    HW223967   0.827   4.749  10.237
 4152SOL     OW23968   0.079   4.964   9.963
 4152SOL    HW123969   0.078   4.917  10.051
 4152SOL    HW223970   0.161   4.936   9.912
 4153SOL     OW23971   1.352   3.776   9.478
 4153SOL    HW123972   1.387   3.735   9.394
 4153SOL    HW223973   1.262   3.738   9.498
 4154SOL     OW23974   1.300   4.177  10.001
 4154SOL    HW123975   1.241   4.257  10.005
 4154SOL    HW223976   1.315   4.142  10.094
 4155SOL     OW23977   0.039   4.801   9.610
 4155SOL    HW123978   0.138   4.790   9.601
 4155SOL    HW223979  -0.001   4.715   9.642
 4156SOL     OW23980   0.230   4.352  11.285
 4156SOL    HW123981   0.137   4.350  11.322
 4156SOL    HW223982   0.231   4.313  11.193
 4157SOL     OW23983   1.135   4.427  11.889
 4157SOL    HW123984   1.192   4.505  11.864
 4157SOL    HW223985   1.075   4.453  11.965
 4158SOL     OW23986   0.850   4.522  12.995
 4158SOL    HW123987   0.846   4.598  13.060
 4158SOL    HW223988   0.872   4.558  12.904
 4159SOL     OW23989   0.606   4.688  11.295
 4159SOL    HW123990   0.613   4.772  11.241
 4159SOL    HW223991   0.652   4.701  11.383
 4160SOL     OW23992   1.594   3.838  12.652
 4160SOL    HW123993   1.576   3.905  12.580
 4160SOL    HW223994   1.591   3.884  12.741
 4161SOL     OW23995   0.122   4.367  11.735
 4161SOL    HW123996   0.077   4.279  11.752
 4161SOL    HW223997   0.121   4.421  11.819
 4162SOL     OW23998   0.598   4.453  11.442
 4162SOL    HW123999   0.622   4.522  11.374
 4162SOL    HW224000   0.520   4.486  11.496
 4163SOL     OW24001   0.807   4.329  12.637
 4163SOL    HW124002   0.760   4.326  12.726
 4163SOL    HW224003   0.756   4.274  12.571
 4164SOL     OW24004   1.041   4.425  11.601
 4164SOL    HW124005   1.067   4.421  11.697
 4164SOL    HW224006   0.956   4.374  11.587
 4165SOL     OW24007   0.865   4.072  11.367
 4165SOL    HW124008   0.924   4.135  11.318
 4165SOL    HW224009   0.884   3.978  11.338
 4166SOL     OW24010   0.202   4.009  12.670
 4166SOL    HW124011   0.122   4.069  12.657
 4166SOL    HW224012   0.192   3.960  12.756
 4167SOL     OW24013   0.382   4.424  11.652
 4167SOL    HW124014   0.427   4.334  11.649
 4167SOL    HW224015   0.288   4.413  11.685
 4168SOL     OW24016   1.547   3.946  12.901
 4168SOL    HW124017   1.542   3.983  12.993
 4168SOL    HW224018   1.475   3.877  12.889
 4169SOL     OW24019   0.614   3.846  11.289
 4169SOL    HW124020   0.712   3.824  11.296
 4169SOL    HW224021   0.583   3.829  11.196
 4170SOL     OW24022   0.781   3.988  12.921
 4170SOL    HW124023   0.848   3.927  12.964
 4170SOL    HW224024   0.708   4.007  12.986
 4171SOL     OW24025   0.922   4.227  12.071
 4171SOL    HW124026   0.897   4.218  11.975
 4171SOL    HW224027   0.970   4.145  12.102
 4172SOL     OW24028   0.935   3.960  11.652
 4172SOL    HW124029   0.887   4.001  11.574
 4172SOL    HW224030   1.034   3.958  11.633
 4173SOL     OW24031   0.561   3.946  12.319
 4173SOL    HW124032   0.599   3.862  12.356
 4173SOL    HW224033   0.473   3.965  12.363
 4174SOL     OW24034   0.866   4.178  11.814
 4174SOL    HW124035   0.834   4.250  11.752
 4174SOL    HW224036   0.890   4.097  11.761
 4175SOL     OW24037   1.857   4.557  11.549
 4175SOL    HW124038   1.899   4.493  11.613
 4175SOL    HW224039   1.819   4.506  11.471
 4176SOL     OW24040   0.527   3.980  11.500
 4176SOL    HW124041   0.554   3.921  11.425
 4176SOL    HW224042   0.527   4.075  11.469
 4177SOL     OW24043   0.566   4.261  12.037
 4177SOL    HW124044   0.578   4.327  11.963
 4177SOL    HW224045   0.612   4.295  12.120
 4178SOL     OW24046   0.732   4.358  12.236
 4178SOL    HW124047   0.791   4.332  12.160
 4178SOL    HW224048   0.704   4.454  12.225
 4179SOL     OW24049   0.307   3.787  11.790
 4179SOL    HW124050   0.296   3.881  11.823
 4179SOL    HW224051   0.302   3.724  11.867
 4180SOL     OW24052   1.622   4.091  11.546
 4180SOL    HW124053   1.624   4.015  11.610
 4180SOL    HW224054   1.574   4.168  11.586
 4181SOL     OW24055   1.023   4.490  12.138
 4181SOL    HW124056   1.038   4.511  12.234
 4181SOL    HW224057   0.993   4.395  12.129
 4182SOL     OW24058   1.540   3.998  11.297
 4182SOL    HW124059   1.479   3.923  11.320
 4182SOL    HW224060   1.562   4.050  11.380
 4183SOL     OW24061   1.002   4.520  12.410
 4183SOL    HW124062   1.043   4.488  12.496
 4183SOL    HW224063   0.906   4.493  12.407
 4184SOL     OW24064   1.369   4.674  12.832
 4184SOL    HW124065   1.408   4.763  12.852
 4184SOL    HW224066   1.379   4.654  12.735
 4185SOL     OW24067   0.815   4.296  11.497
 4185SOL    HW124068   0.822   4.207  11.451
 4185SOL    HW224069   0.721   4.330  11.489
 4186SOL     OW24070   0.671   4.188  12.441
 4186SOL    HW124071   0.637   4.099  12.411
 4186SOL    HW224072   0.697   4.242  12.361
 4187SOL     OW24073   0.473   4.224  11.363
 4187SOL    HW124074   0.534   4.304  11.367
 4187SOL    HW224075   0.378   4.255  11.370
 4188SOL     OW24076   1.726   3.859  11.695
 4188SOL    HW124077   1.799   3.842  11.628
 4188SOL    HW224078   1.695   3.772  11.733
 4189SOL     OW24079   1.280   4.651  11.844
 4189SOL    HW124080   1.340   4.570  11.846
 4189SOL    HW224081   1.320   4.720  11.784
 4190SOL     OW24082   0.916   4.634  11.463
 4190SOL    HW124083   0.979   4.672  11.395
 4190SOL    HW224084   0.956   4.551  11.502
 4191SOL     OW24085   1.014   3.960  12.143
 4191SOL    HW124086   1.006   3.924  12.050
 4191SOL    HW224087   1.012   3.884  12.208
 4192SOL     OW24088   0.075   4.069  11.205
 4192SOL    HW124089  -0.017   4.041  11.176
 4192SOL    HW224090   0.106   4.146  11.149
 4193SOL     OW24091   0.072   3.890  11.490
 4193SOL    HW124092   0.055   3.973  11.436
 4193SOL    HW224093   0.162   3.853  11.468
 4194SOL     OW24094   0.594   4.469  11.824
 4194SOL    HW124095   0.644   4.554  11.805
 4194SOL    HW224096   0.506   4.471  11.776
 4195SOL     OW24097   1.777   4.066  12.814
 4195SOL    HW124098   1.760   4.097  12.720
 4195SOL    HW224099   1.693   4.029  12.852
 4196SOL     OW24100   1.730   4.658  12.689
 4196SOL    HW124101   1.768   4.749  12.704
 4196SOL    HW224102   1.722   4.641  12.590
 4197SOL     OW24103   1.824   3.916  12.399
 4197SOL    HW124104   1.820   3.826  12.443
 4197SOL    HW224105   1.827   3.905  12.300
 4198SOL     OW24106   0.428   4.148  11.692
 4198SOL    HW124107   0.458   4.076  11.630
 4198SOL    HW224108   0.389   4.108  11.775
 4199SOL     OW24109   1.352   3.776  11.340
 4199SOL    HW124110   1.387   3.735  11.256
 4199SOL    HW224111   1.262   3.738  11.360
 4200SOL     OW24112   0.039   4.801  11.472
 4200SOL    HW124113   0.138   4.790  11.463
 4200SOL    HW224114  -0.001   4.715  11.504
 4201SOL     OW24115   0.225   3.999  14.030
 4201SOL    HW124116   0.260   3.982  14.122
 4201SOL    HW224117   0.137   3.954  14.018
 4202SOL     OW24118   0.019   4.092  13.681
 4202SOL    HW124119  -0.063   4.135  13.720
 4202SOL    HW224120  -0.009   4.019  13.618
 4203SOL     OW24121   0.768   4.868  14.057
 4203SOL    HW124122   0.690   4.885  14.117
 4203SOL    HW224123   0.802   4.955  14.021
 4204SOL     OW24124   0.685   4.736  13.699
 4204SOL    HW124125   0.754   4.720  13.769
 4204SOL    HW224126   0.612   4.793  13.737
 4205SOL     OW24127   0.122   4.367  13.597
 4205SOL    HW124128   0.077   4.279  13.614
 4205SOL    HW224129   0.121   4.421  13.681
 4206SOL     OW24130   1.281   4.069  13.978
 4206SOL    HW124131   1.195   4.019  13.965
 4206SOL    HW224132   1.343   4.015  14.034
 4207SOL     OW24133   1.394   4.193  14.708
 4207SOL    HW124134   1.374   4.236  14.796
 4207SOL    HW224135   1.472   4.131  14.717
 4208SOL     OW24136   0.991   4.134  14.276
 4208SOL    HW124137   0.914   4.168  14.330
 4208SOL    HW224138   0.957   4.083  14.197
 4209SOL     OW24139   0.865   4.072  13.229
 4209SOL    HW124140   0.924   4.135  13.180
 4209SOL    HW224141   0.884   3.978  13.200
 4210SOL     OW24142   1.719   4.309  14.865
 4210SOL    HW124143   1.693   4.398  14.829
 4210SOL    HW224144   1.717   4.241  14.792
 4211SOL     OW24145   0.202   4.009  14.532
 4211SOL    HW124146   0.122   4.069  14.519
 4211SOL    HW224147   0.192   3.960  14.618
 4212SOL     OW24148   0.614   3.846  13.151
 4212SOL    HW124149   0.712   3.824  13.158
 4212SOL    HW224150   0.583   3.829  13.058
 4213SOL     OW24151   0.781   3.988  14.783
 4213SOL    HW124152   0.848   3.927  14.826
 4213SOL    HW224153   0.708   4.007  14.848
 4214SOL     OW24154   1.076   4.407  14.498
 4214SOL    HW124155   0.996   4.346  14.501
 4214SOL    HW224156   1.157   4.354  14.474
 4215SOL     OW24157   0.561   3.946  14.181
 4215SOL    HW124158   0.599   3.862  14.218
 4215SOL    HW224159   0.473   3.965  14.225
 4216SOL     OW24160   0.410   4.537  14.285
 4216SOL    HW124161   0.496   4.549  14.335
 4216SOL    HW224162   0.368   4.450  14.312
 4217SOL     OW24163   0.566   4.261  13.899
 4217SOL    HW124164   0.578   4.327  13.825
 4217SOL    HW224165   0.612   4.295  13.982
 4218SOL     OW24166   1.013   3.829  14.804
 4218SOL    HW124167   1.019   3.914  14.752
 4218SOL    HW224168   1.045   3.753  14.747
 4219SOL     OW24169   0.504   3.774  14.774
 4219SOL    HW124170   0.462   3.717  14.704
 4219SOL    HW224171   0.438   3.843  14.806
 4220SOL     OW24172   0.573   4.594  14.063
 4220SOL    HW124173   0.617   4.683  14.054
 4220SOL    HW224174   0.510   4.594  14.140
 4221SOL     OW24175   0.307   3.937  14.265
 4221SOL    HW124176   0.284   3.974  14.355
 4221SOL    HW224177   0.277   3.842  14.259
 4222SOL     OW24178   0.732   4.358  14.098
 4222SOL    HW124179   0.791   4.332  14.022
 4222SOL    HW224180   0.704   4.454  14.087
 4223SOL     OW24181   0.319   4.534  13.983
 4223SOL    HW124182   0.412   4.570  13.988
 4223SOL    HW224183   0.313   4.449  14.035
 4224SOL     OW24184   0.339   4.233  14.040
 4224SOL    HW124185   0.287   4.150  14.023
 4224SOL    HW224186   0.416   4.238  13.976
 4225SOL     OW24187   1.138   4.104  14.712
 4225SOL    HW124188   1.093   4.167  14.776
 4225SOL    HW224189   1.231   4.135  14.695
 4226SOL     OW24190   0.815   4.296  13.359
 4226SOL    HW124191   0.822   4.207  13.313
 4226SOL    HW224192   0.721   4.330  13.351
 4227SOL     OW24193   0.671   4.188  14.303
 4227SOL    HW124194   0.637   4.099  14.273
 4227SOL    HW224195   0.697   4.242  14.223
 4228SOL     OW24196   1.841   3.899  13.997
 4228SOL    HW124197   1.880   3.814  13.961
 4228SOL    HW224198   1.743   3.901  13.978
 4229SOL     OW24199   0.105   4.737  14.760
 4229SOL    HW124200   0.028   4.704  14.814
 4229SOL    HW224201   0.190   4.707  14.802
 4230SOL     OW24202   0.672   3.927  14.523
 4230SOL    HW124203   0.762   3.911  14.483
 4230SOL    HW224204   0.680   3.932  14.622
 4231SOL     OW24205   0.613   4.566  14.465
 4231SOL    HW124206   0.669   4.647  14.448
 4231SOL    HW224207   0.672   4.486  14.468
 4232SOL     OW24208   0.079   4.964  13.687
 4232SOL    HW124209   0.078   4.917  13.775
 4232SOL    HW224210   0.161   4.936  13.636
 4233SOL     OW24211   1.824   3.916  14.261
 4233SOL    HW124212   1.820   3.826  14.305
 4233SOL    HW224213   1.827   3.905  14.162
 4234SOL     OW24214   0.317   4.271  14.314
 4234SOL    HW124215   0.355   4.212  14.386
 4234SOL    HW224216   0.357   4.245  14.226
 4235SOL     OW24217   1.594   3.838  16.377
 4235SOL    HW124218   1.576   3.905  16.305
 4235SOL    HW224219   1.591   3.884  16.466
 4236SOL     OW24220   0.197   4.700  16.161
 4236SOL    HW124221   0.286   4.655  16.147
 4236SOL    HW224222   0.124   4.635  16.142
 4237SOL     OW24223   0.598   4.453  15.166
 4237SOL    HW124224   0.622   4.522  15.098
 4237SOL    HW224225   0.520   4.486  15.220
 4238SOL     OW24226   1.041   4.425  15.325
 4238SOL    HW124227   1.067   4.421  15.421
 4238SOL    HW224228   0.956   4.374  15.311
 4239SOL     OW24229   1.400   3.831  15.322
 4239SOL    HW124230   1.376   3.794  15.232
 4239SOL    HW224231   1.499   3.847  15.326
 4240SOL     OW24232   0.382   4.424  15.376
 4240SOL    HW124233   0.427   4.334  15.373
 4240SOL    HW224234   0.288   4.413  15.409
 4241SOL     OW24235   0.614   3.846  15.013
 4241SOL    HW124236   0.712   3.824  15.020
 4241SOL    HW224237   0.583   3.829  14.920
 4242SOL     OW24238   0.922   4.227  15.795
 4242SOL    HW124239   0.897   4.218  15.699
 4242SOL    HW224240   0.970   4.145  15.826
 4243SOL     OW24241   0.539   3.788  15.408
 4243SOL    HW124242   0.458   3.789  15.466
 4243SOL    HW224243   0.542   3.871  15.353
 4244SOL     OW24244   0.297   3.759  15.067
 4244SOL    HW124245   0.346   3.843  15.046
 4244SOL    HW224246   0.359   3.694  15.112
 4245SOL     OW24247   0.078   4.280  16.283
 4245SOL    HW124248   0.170   4.279  16.242
 4245SOL    HW224249   0.072   4.354  16.350
 4246SOL     OW24250   0.561   3.946  16.044
 4246SOL    HW124251   0.599   3.862  16.081
 4246SOL    HW224252   0.473   3.965  16.088
 4247SOL     OW24253   1.390   4.299  14.974
 4247SOL    HW124254   1.336   4.278  15.055
 4247SOL    HW224255   1.481   4.258  14.983
 4248SOL     OW24256   1.638   4.823  15.976
 4248SOL    HW124257   1.643   4.904  16.035
 4248SOL    HW224258   1.552   4.825  15.925
 4249SOL     OW24259   1.274   4.110  16.159
 4249SOL    HW124260   1.295   4.184  16.223
 4249SOL    HW224261   1.185   4.127  16.116
 4250SOL     OW24262   0.504   3.774  16.637
 4250SOL    HW124263   0.462   3.717  16.567
 4250SOL    HW224264   0.438   3.843  16.669
 4251SOL     OW24265   0.307   3.937  16.128
 4251SOL    HW124266   0.284   3.974  16.218
 4251SOL    HW224267   0.277   3.842  16.122
 4252SOL     OW24268   0.339   4.233  15.903
 4252SOL    HW124269   0.287   4.150  15.886
 4252SOL    HW224270   0.416   4.238  15.839
 4253SOL     OW24271   1.160   3.931  16.374
 4253SOL    HW124272   1.160   3.995  16.451
 4253SOL    HW224273   1.188   3.979  16.291
 4254SOL     OW24274   1.302   4.579  15.205
 4254SOL    HW124275   1.216   4.548  15.247
 4254SOL    HW224276   1.298   4.565  15.106
 4255SOL     OW24277   1.726   3.859  15.419
 4255SOL    HW124278   1.799   3.842  15.352
 4255SOL    HW224279   1.695   3.772  15.457
 4256SOL     OW24280   1.841   3.899  15.860
 4256SOL    HW124281   1.880   3.814  15.824
 4256SOL    HW224282   1.743   3.901  15.841
 4257SOL     OW24283   0.916   4.634  15.187
 4257SOL    HW124284   0.979   4.672  15.119
 4257SOL    HW224285   0.956   4.551  15.226
 4258SOL     OW24286   1.674   4.607  16.151
 4258SOL    HW124287   1.647   4.518  16.114
 4258SOL    HW224288   1.675   4.675  16.078
 4259SOL     OW24289   1.824   3.916  16.124
 4259SOL    HW124290   1.820   3.826  16.168
 4259SOL    HW224291   1.827   3.905  16.025
 4260SOL     OW24292   1.424   3.938  16.009
 4260SOL    HW124293   1.476   3.873  16.064
 4260SOL    HW224294   1.375   4.001  16.070
 4261SOL     OW24295   1.593   3.945  15.778
 4261SOL    HW124296   1.509   3.944  15.832
 4261SOL    HW224297   1.595   4.028  15.722
 4262SOL     OW24298   0.039   4.801  15.196
 4262SOL    HW124299   0.138   4.790  15.187
 4262SOL    HW224300  -0.001   4.715  15.228
 4263SOL     OW24301   1.135   4.427  17.476
 4263SOL    HW124302   1.192   4.505  17.451
 4263SOL    HW224303   1.075   4.453  17.552
 4264SOL     OW24304   1.603   4.171  17.496
 4264SOL    HW124305   1.529   4.217  17.446
 4264SOL    HW224306   1.654   4.239  17.549
 4265SOL     OW24307   1.689   4.646  17.371
 4265SOL    HW124308   1.784   4.617  17.379
 4265SOL    HW224309   1.681   4.711  17.296
 4266SOL     OW24310   1.281   4.069  17.703
 4266SOL    HW124311   1.195   4.019  17.690
 4266SOL    HW224312   1.343   4.015  17.759
 4267SOL     OW24313   0.865   4.072  16.954
 4267SOL    HW124314   0.924   4.135  16.905
 4267SOL    HW224315   0.884   3.978  16.925
 4268SOL     OW24316   1.458   4.459  17.487
 4268SOL    HW124317   1.453   4.394  17.562
 4268SOL    HW224318   1.538   4.518  17.500
 4269SOL     OW24319   0.382   4.424  17.239
 4269SOL    HW124320   0.427   4.334  17.236
 4269SOL    HW224321   0.288   4.413  17.272
 4270SOL     OW24322   0.922   4.227  17.658
 4270SOL    HW124323   0.897   4.218  17.562
 4270SOL    HW224324   0.970   4.145  17.689
 4271SOL     OW24325   1.582   4.363  17.231
 4271SOL    HW124326   1.551   4.424  17.304
 4271SOL    HW224327   1.632   4.415  17.162
 4272SOL     OW24328   1.209   4.249  17.034
 4272SOL    HW124329   1.222   4.165  17.088
 4272SOL    HW224330   1.180   4.323  17.094
 4273SOL     OW24331   1.622   4.091  17.133
 4273SOL    HW124332   1.624   4.015  17.197
 4273SOL    HW224333   1.574   4.168  17.173
 4274SOL     OW24334   1.160   3.931  18.236
 4274SOL    HW124335   1.160   3.995  18.313
 4274SOL    HW224336   1.188   3.979  18.153
 4275SOL     OW24337   0.040   4.268  17.873
 4275SOL    HW124338   0.125   4.235  17.832
 4275SOL    HW224339   0.053   4.283  17.971
 4276SOL     OW24340   1.657   4.328  17.965
 4276SOL    HW124341   1.619   4.259  18.027
 4276SOL    HW224342   1.739   4.292  17.921
 4277SOL     OW24343   1.726   3.859  17.282
 4277SOL    HW124344   1.799   3.842  17.215
 4277SOL    HW224345   1.695   3.772  17.320
 4278SOL     OW24346   1.841   3.899  17.722
 4278SOL    HW124347   1.880   3.814  17.686
 4278SOL    HW224348   1.743   3.901  17.703
 4279SOL     OW24349   0.263   4.050  17.479
 4279SOL    HW124350   0.184   4.101  17.445
 4279SOL    HW224351   0.254   4.035  17.577
 4280SOL     OW24352   1.709   4.109  18.140
 4280SOL    HW124353   1.782   4.178  18.144
 4280SOL    HW224354   1.737   4.034  18.081
 4281SOL     OW24355   0.072   3.890  17.077
 4281SOL    HW124356   0.055   3.973  17.023
 4281SOL    HW224357   0.162   3.853  17.055
 4282SOL     OW24358   1.225   4.049  17.208
 4282SOL    HW124359   1.290   3.975  17.197
 4282SOL    HW224360   1.245   4.099  17.292
 4283SOL     OW24361   1.824   3.916  17.986
 4283SOL    HW124362   1.820   3.826  18.030
 4283SOL    HW224363   1.827   3.905  17.887
 4284SOL     OW24364   1.424   3.938  17.871
 4284SOL    HW124365   1.476   3.873  17.926
 4284SOL    HW224366   1.375   4.001  17.932
 4285SOL     OW24367   1.300   4.177  17.450
 4285SOL    HW124368   1.241   4.257  17.454
 4285SOL    HW224369   1.315   4.142  17.543
 4286SOL     OW24370   1.593   3.945  17.641
 4286SOL    HW124371   1.509   3.944  17.695
 4286SOL    HW224372   1.595   4.028  17.585
 4287SOL     OW24373   2.092   0.628   0.113
 4287SOL    HW124374   1.999   0.626   0.150
 4287SOL    HW224375   2.093   0.589   0.021
 4288SOL     OW24376   1.881   0.368   0.647
 4288SOL    HW124377   1.799   0.411   0.686
 4288SOL    HW224378   1.853   0.295   0.584
 4289SOL     OW24379   2.997   0.703   0.717
 4289SOL    HW124380   3.054   0.781   0.692
 4289SOL    HW224381   2.937   0.729   0.793
 4290SOL     OW24382   2.712   0.798   1.823
 4290SOL    HW124383   2.708   0.874   1.888
 4290SOL    HW224384   2.734   0.834   1.732
 4291SOL     OW24385   2.548   1.161   1.803
 4291SOL    HW124386   2.608   1.240   1.817
 4291SOL    HW224387   2.462   1.192   1.762
 4292SOL     OW24388   2.197   1.435   1.061
 4292SOL    HW124389   2.119   1.404   1.008
 4292SOL    HW224390   2.255   1.493   1.004
 4293SOL     OW24391   2.989   1.341   1.690
 4293SOL    HW124392   3.036   1.341   1.778
 4293SOL    HW224393   2.941   1.254   1.679
 4294SOL     OW24394   2.092   1.434   0.538
 4294SOL    HW124395   2.066   1.530   0.538
 4294SOL    HW224396   2.021   1.380   0.583
 4295SOL     OW24397   2.468   0.964   0.123
 4295SOL    HW124398   2.475   1.048   0.069
 4295SOL    HW224399   2.514   0.977   0.211
 4296SOL     OW24400   3.456   0.114   1.480
 4296SOL    HW124401   3.438   0.181   1.408
 4296SOL    HW224402   3.453   0.160   1.569
 4297SOL     OW24403   3.704   1.767   0.359
 4297SOL    HW124404   3.758   1.738   0.439
 4297SOL    HW224405   3.734   1.857   0.330
 4298SOL     OW24406   3.551   0.922   0.612
 4298SOL    HW124407   3.646   0.893   0.620
 4298SOL    HW224408   3.543   0.987   0.537
 4299SOL     OW24409   1.975   0.737   1.597
 4299SOL    HW124410   2.063   0.724   1.642
 4299SOL    HW224411   1.962   0.834   1.575
 4300SOL     OW24412   3.155   1.228   1.423
 4300SOL    HW124413   3.192   1.155   1.365
 4300SOL    HW224414   3.207   1.233   1.508
 4301SOL     OW24415   2.059   0.976   1.264
 4301SOL    HW124416   2.148   0.931   1.250
 4301SOL    HW224417   1.986   0.911   1.245
 4302SOL     OW24418   2.179   0.251   1.801
 4302SOL    HW124419   2.250   0.322   1.807
 4302SOL    HW224420   2.091   0.290   1.829
 4303SOL     OW24421   3.328   1.417   0.953
 4303SOL    HW124422   3.269   1.423   1.033
 4303SOL    HW224423   3.313   1.329   0.907
 4304SOL     OW24424   3.256   0.469   1.674
 4304SOL    HW124425   3.236   0.512   1.762
 4304SOL    HW224426   3.334   0.407   1.683
 4305SOL     OW24427   2.727   0.348   0.195
 4305SOL    HW124428   2.786   0.411   0.146
 4305SOL    HW224429   2.746   0.254   0.166
 4306SOL     OW24430   3.581   0.585   1.831
 4306SOL    HW124431   3.555   0.674   1.795
 4306SOL    HW224432   3.579   0.517   1.758
 4307SOL     OW24433   3.089   1.550   1.506
 4307SOL    HW124434   3.095   1.473   1.570
 4307SOL    HW224435   3.037   1.524   1.426
 4308SOL     OW24436   3.320   0.735   0.728
 4308SOL    HW124437   3.315   0.670   0.803
 4308SOL    HW224438   3.400   0.794   0.741
 4309SOL     OW24439   2.323   1.266   1.727
 4309SOL    HW124440   2.273   1.267   1.641
 4309SOL    HW224441   2.260   1.248   1.803
 4310SOL     OW24442   2.973   1.776   0.237
 4310SOL    HW124443   2.913   1.714   0.287
 4310SOL    HW224444   3.004   1.732   0.152
 4311SOL     OW24445   2.064   0.285   1.498
 4311SOL    HW124446   1.984   0.345   1.485
 4311SOL    HW224447   2.054   0.236   1.584
 4312SOL     OW24448   3.262   0.107   0.426
 4312SOL    HW124449   3.238   0.070   0.336
 4312SOL    HW224450   3.361   0.123   0.430
 4313SOL     OW24451   3.409   0.222   1.729
 4313SOL    HW124452   3.404   0.259   1.821
 4313SOL    HW224453   3.337   0.153   1.717
 4314SOL     OW24454   2.476   0.122   0.117
 4314SOL    HW124455   2.574   0.100   0.124
 4314SOL    HW224456   2.445   0.105   0.024
 4315SOL     OW24457   2.750   1.514   1.195
 4315SOL    HW124458   2.727   1.489   1.101
 4315SOL    HW224459   2.811   1.445   1.234
 4316SOL     OW24460   3.213   0.590   1.433
 4316SOL    HW124461   3.241   0.547   1.518
 4316SOL    HW224462   3.238   0.686   1.434
 4317SOL     OW24463   2.665   1.402   0.924
 4317SOL    HW124464   2.755   1.416   0.882
 4317SOL    HW224465   2.594   1.404   0.853
 4318SOL     OW24466   2.784   0.503   0.899
 4318SOL    HW124467   2.759   0.494   0.803
 4318SOL    HW224468   2.832   0.421   0.930
 4319SOL     OW24469   2.159   0.035   0.171
 4319SOL    HW124470   2.208   0.119   0.150
 4319SOL    HW224471   2.221  -0.030   0.216
 4320SOL     OW24472   2.321   1.152   0.741
 4320SOL    HW124473   2.250   1.125   0.806
 4320SOL    HW224474   2.295   1.124   0.648
 4321SOL     OW24475   1.940   0.556   1.386
 4321SOL    HW124476   2.032   0.555   1.345
 4321SOL    HW224477   1.934   0.630   1.453
 4322SOL     OW24478   3.252   0.575   0.078
 4322SOL    HW124479   3.198   0.554   0.159
 4322SOL    HW224480   3.343   0.534   0.087
 4323SOL     OW24481   2.389   0.256   0.328
 4323SOL    HW124482   2.416   0.197   0.253
 4323SOL    HW224483   2.389   0.351   0.297
 4324SOL     OW24484   3.616   1.223   1.588
 4324SOL    HW124485   3.707   1.184   1.575
 4324SOL    HW224486   3.624   1.319   1.612
 4325SOL     OW24487   2.926   1.347   1.340
 4325SOL    HW124488   2.846   1.324   1.395
 4325SOL    HW224489   3.009   1.321   1.389
 4326SOL     OW24490   2.973   1.195   1.100
 4326SOL    HW124491   2.933   1.239   1.181
 4326SOL    HW224492   2.932   1.232   1.017
 4327SOL     OW24493   2.842   1.116   1.719
 4327SOL    HW124494   2.743   1.122   1.729
 4327SOL    HW224495   2.865   1.036   1.663
 4328SOL     OW24496   2.567   1.050   0.368
 4328SOL    HW124497   2.553   1.057   0.467
 4328SOL    HW224498   2.651   0.999   0.350
 4329SOL     OW24499   2.428   0.537   0.865
 4329SOL    HW124500   2.440   0.603   0.791
 4329SOL    HW224501   2.474   0.571   0.948
 4330SOL     OW24502   3.134   1.445   1.142
 4330SOL    HW124503   3.181   1.458   1.229
 4330SOL    HW224504   3.068   1.371   1.151
 4331SOL     OW24505   2.216   1.510   1.329
 4331SOL    HW124506   2.195   1.466   1.242
 4331SOL    HW224507   2.313   1.536   1.332
 4332SOL     OW24508   3.449   0.779   1.670
 4332SOL    HW124509   3.357   0.817   1.665
 4332SOL    HW224510   3.509   0.826   1.605
 4333SOL     OW24511   2.875   0.105   1.770
 4333SOL    HW124512   2.881   0.190   1.718
 4333SOL    HW224513   2.907   0.029   1.713
 4334SOL     OW24514   2.366   0.050   1.740
 4334SOL    HW124515   2.324  -0.007   1.670
 4334SOL    HW224516   2.300   0.119   1.772
 4335SOL     OW24517   3.071   0.525   0.275
 4335SOL    HW124518   3.084   0.441   0.329
 4335SOL    HW224519   3.042   0.599   0.335
 4336SOL     OW24520   2.594   0.634   1.064
 4336SOL    HW124521   2.653   0.608   0.988
 4336SOL    HW224522   2.566   0.730   1.053
 4337SOL     OW24523   3.590   0.935   1.854
 4337SOL    HW124524   3.544   0.928   1.765
 4337SOL    HW224525   3.528   0.979   1.920
 4338SOL     OW24526   2.169   0.063   0.618
 4338SOL    HW124527   2.158   0.157   0.651
 4338SOL    HW224528   2.164   0.000   0.695
 4339SOL     OW24529   3.484   0.367   0.374
 4339SOL    HW124530   3.486   0.291   0.438
 4339SOL    HW224531   3.436   0.444   0.414
 4340SOL     OW24532   2.842   1.573   1.700
 4340SOL    HW124533   2.822   1.617   1.612
 4340SOL    HW224534   2.881   1.482   1.684
 4341SOL     OW24535   2.212   0.898   1.804
 4341SOL    HW124536   2.288   0.942   1.852
 4341SOL    HW224537   2.247   0.851   1.722
 4342SOL     OW24538   3.165   0.838   0.042
 4342SOL    HW124539   3.199   0.745   0.057
 4342SOL    HW224540   3.183   0.865  -0.053
 4343SOL     OW24541   2.930   1.333   0.849
 4343SOL    HW124542   2.937   1.249   0.794
 4343SOL    HW224543   2.992   1.402   0.813
 4344SOL     OW24544   2.181   0.810   0.949
 4344SOL    HW124545   2.274   0.846   0.954
 4344SOL    HW224546   2.175   0.725   1.001
 4345SOL     OW24547   2.201   0.509   1.006
 4345SOL    HW124548   2.149   0.426   0.989
 4345SOL    HW224549   2.278   0.514   0.942
 4346SOL     OW24550   2.366   1.568   0.910
 4346SOL    HW124551   2.432   1.642   0.919
 4346SOL    HW224552   2.410   1.489   0.868
 4347SOL     OW24553   2.051   0.520   1.722
 4347SOL    HW124554   2.110   0.480   1.652
 4347SOL    HW224555   1.993   0.591   1.681
 4348SOL     OW24556   3.231   0.950   1.660
 4348SOL    HW124557   3.270   1.039   1.680
 4348SOL    HW224558   3.241   0.930   1.563
 4349SOL     OW24559   2.114   1.564   1.744
 4349SOL    HW124560   2.084   1.621   1.820
 4349SOL    HW224561   2.107   1.467   1.770
 4350SOL     OW24562   3.209   1.059   1.234
 4350SOL    HW124563   3.233   0.996   1.160
 4350SOL    HW224564   3.119   1.099   1.216
 4351SOL     OW24565   3.164   0.855   0.309
 4351SOL    HW124566   3.078   0.824   0.351
 4351SOL    HW224567   3.160   0.841   0.210
 4352SOL     OW24568   2.550   1.662   1.716
 4352SOL    HW124569   2.494   1.743   1.725
 4352SOL    HW224570   2.602   1.666   1.630
 4353SOL     OW24571   2.765   0.086   0.133
 4353SOL    HW124572   2.816   0.087   0.047
 4353SOL    HW224573   2.821   0.044   0.204
 4354SOL     OW24574   3.142   0.927   0.672
 4354SOL    HW124575   3.202   0.846   0.674
 4354SOL    HW224576   3.182   0.996   0.612
 4355SOL     OW24577   2.692   1.273   1.422
 4355SOL    HW124578   2.687   1.306   1.517
 4355SOL    HW224579   2.606   1.292   1.376
 4356SOL     OW24580   2.125   0.326   0.720
 4356SOL    HW124581   2.046   0.377   0.686
 4356SOL    HW224582   2.116   0.311   0.818
 4357SOL     OW24583   3.056   1.612   0.031
 4357SOL    HW124584   3.062   1.519   0.068
 4357SOL    HW224585   2.997   1.612  -0.049
 4358SOL     OW24586   3.476   1.292   1.289
 4358SOL    HW124587   3.536   1.295   1.369
 4358SOL    HW224588   3.401   1.356   1.302
 4359SOL     OW24589   2.452   1.487   0.491
 4359SOL    HW124590   2.494   1.429   0.421
 4359SOL    HW224591   2.408   1.566   0.447
 4360SOL     OW24592   1.967   1.013   1.726
 4360SOL    HW124593   1.890   0.980   1.780
 4360SOL    HW224594   2.052   0.983   1.768
 4361SOL     OW24595   3.302   0.856   1.398
 4361SOL    HW124596   3.245   0.908   1.335
 4361SOL    HW224597   3.398   0.868   1.374
 4362SOL     OW24598   3.355   1.767   0.959
 4362SOL    HW124599   3.388   1.831   0.890
 4362SOL    HW224600   3.421   1.761   1.034
 4363SOL     OW24601   3.312   1.220   1.633
 4363SOL    HW124602   3.303   1.210   1.732
 4363SOL    HW224603   3.408   1.213   1.607
 4364SOL     OW24604   3.087   0.325   0.449
 4364SOL    HW124605   3.152   0.251   0.438
 4364SOL    HW224606   3.107   0.375   0.533
 4365SOL     OW24607   2.456   0.745   0.652
 4365SOL    HW124608   2.506   0.830   0.633
 4365SOL    HW224609   2.368   0.747   0.604
 4366SOL     OW24610   3.639   0.342   1.642
 4366SOL    HW124611   3.622   0.373   1.548
 4366SOL    HW224612   3.555   0.305   1.680
 4367SOL     OW24613   3.592   0.934   1.517
 4367SOL    HW124614   3.630   1.025   1.532
 4367SOL    HW224615   3.584   0.917   1.418
 4368SOL     OW24616   2.523   1.790   0.953
 4368SOL    HW124617   2.477   1.878   0.940
 4368SOL    HW224618   2.622   1.802   0.946
 4369SOL     OW24619   2.083   1.314   1.844
 4369SOL    HW124620   2.018   1.241   1.823
 4369SOL    HW224621   2.087   1.328   1.942
 4370SOL     OW24622   2.534   1.391   1.624
 4370SOL    HW124623   2.456   1.341   1.662
 4370SOL    HW224624   2.531   1.486   1.655
 4371SOL     OW24625   3.686   0.192   1.227
 4371SOL    HW124626   3.682   0.102   1.271
 4371SOL    HW224627   3.689   0.181   1.128
 4372SOL     OW24628   2.290   0.424   0.520
 4372SOL    HW124629   2.320   0.352   0.458
 4372SOL    HW224630   2.251   0.384   0.603
 4373SOL     OW24631   2.480   1.567   1.284
 4373SOL    HW124632   2.475   1.649   1.341
 4373SOL    HW224633   2.569   1.564   1.239
 4374SOL     OW24634   3.214   0.052   0.168
 4374SOL    HW124635   3.249   0.011   0.084
 4374SOL    HW224636   3.124   0.014   0.188
 4375SOL     OW24637   2.092   0.628   1.975
 4375SOL    HW124638   1.999   0.626   2.012
 4375SOL    HW224639   2.093   0.589   1.883
 4376SOL     OW24640   2.087   0.275   2.858
 4376SOL    HW124641   2.122   0.258   2.950
 4376SOL    HW224642   1.999   0.230   2.846
 4377SOL     OW24643   1.881   0.368   2.509
 4377SOL    HW124644   1.799   0.411   2.548
 4377SOL    HW224645   1.853   0.295   2.446
 4378SOL     OW24646   2.431   1.275   3.027
 4378SOL    HW124647   2.338   1.268   2.990
 4378SOL    HW224648   2.442   1.364   3.071
 4379SOL     OW24649   3.417   1.511   2.565
 4379SOL    HW124650   3.360   1.495   2.646
 4379SOL    HW224651   3.358   1.521   2.485
 4380SOL     OW24652   2.997   0.703   2.579
 4380SOL    HW124653   3.054   0.781   2.554
 4380SOL    HW224654   2.937   0.729   2.655
 4381SOL     OW24655   3.617   0.607   2.093
 4381SOL    HW124656   3.605   0.594   1.994
 4381SOL    HW224657   3.587   0.526   2.142
 4382SOL     OW24658   2.630   1.144   2.885
 4382SOL    HW124659   2.552   1.161   2.945
 4382SOL    HW224660   2.664   1.231   2.849
 4383SOL     OW24661   2.712   0.798   3.685
 4383SOL    HW124662   2.708   0.874   3.750
 4383SOL    HW224663   2.734   0.834   3.594
 4384SOL     OW24664   2.547   1.012   2.527
 4384SOL    HW124665   2.616   0.996   2.597
 4384SOL    HW224666   2.474   1.069   2.565
 4385SOL     OW24667   2.548   1.161   3.665
 4385SOL    HW124668   2.608   1.240   3.679
 4385SOL    HW224669   2.462   1.192   3.624
 4386SOL     OW24670   2.197   1.435   2.923
 4386SOL    HW124671   2.119   1.404   2.870
 4386SOL    HW224672   2.255   1.493   2.866
 4387SOL     OW24673   3.322   1.505   3.201
 4387SOL    HW124674   3.346   1.599   3.227
 4387SOL    HW224675   3.306   1.451   3.283
 4388SOL     OW24676   2.300   0.392   3.361
 4388SOL    HW124677   2.382   0.336   3.370
 4388SOL    HW224678   2.219   0.334   3.365
 4389SOL     OW24679   3.465   0.447   2.599
 4389SOL    HW124680   3.391   0.493   2.549
 4389SOL    HW224681   3.516   0.515   2.652
 4390SOL     OW24682   2.093   1.713   2.345
 4390SOL    HW124683   2.127   1.790   2.399
 4390SOL    HW224684   2.137   1.713   2.255
 4391SOL     OW24685   2.989   1.341   3.552
 4391SOL    HW124686   3.036   1.341   3.640
 4391SOL    HW224687   2.941   1.254   3.541
 4392SOL     OW24688   2.092   1.434   2.400
 4392SOL    HW124689   2.066   1.530   2.400
 4392SOL    HW224690   2.021   1.380   2.445
 4393SOL     OW24691   2.102   1.091   2.748
 4393SOL    HW124692   2.116   1.007   2.800
 4393SOL    HW224693   2.047   1.155   2.803
 4394SOL     OW24694   2.482   1.786   3.301
 4394SOL    HW124695   2.390   1.769   3.336
 4394SOL    HW224696   2.510   1.878   3.327
 4395SOL     OW24697   2.468   0.964   1.985
 4395SOL    HW124698   2.475   1.048   1.931
 4395SOL    HW224699   2.514   0.977   2.073
 4396SOL     OW24700   3.456   0.114   3.342
 4396SOL    HW124701   3.438   0.181   3.270
 4396SOL    HW224702   3.453   0.160   3.431
 4397SOL     OW24703   1.984   0.643   2.425
 4397SOL    HW124704   1.939   0.555   2.442
 4397SOL    HW224705   1.983   0.697   2.509
 4398SOL     OW24706   3.704   1.767   2.221
 4398SOL    HW124707   3.758   1.738   2.301
 4398SOL    HW224708   3.734   1.857   2.192
 4399SOL     OW24709   3.551   0.922   2.474
 4399SOL    HW124710   3.646   0.893   2.482
 4399SOL    HW224711   3.543   0.987   2.399
 4400SOL     OW24712   3.503   1.108   2.294
 4400SOL    HW124713   3.589   1.110   2.242
 4400SOL    HW224714   3.517   1.155   2.382
 4401SOL     OW24715   1.975   0.737   3.459
 4401SOL    HW124716   2.063   0.724   3.504
 4401SOL    HW224717   1.962   0.834   3.437
 4402SOL     OW24718   2.475   1.365   2.588
 4402SOL    HW124719   2.426   1.278   2.597
 4402SOL    HW224720   2.452   1.408   2.501
 4403SOL     OW24721   3.155   1.228   3.285
 4403SOL    HW124722   3.192   1.155   3.227
 4403SOL    HW224723   3.207   1.233   3.370
 4404SOL     OW24724   2.671   0.004   2.364
 4404SOL    HW124725   2.711   0.095   2.355
 4404SOL    HW224726   2.571   0.012   2.370
 4405SOL     OW24727   2.059   0.976   3.126
 4405SOL    HW124728   2.148   0.931   3.112
 4405SOL    HW224729   1.986   0.911   3.107
 4406SOL     OW24730   3.387   0.999   2.052
 4406SOL    HW124731   3.324   0.923   2.065
 4406SOL    HW224732   3.435   1.017   2.138
 4407SOL     OW24733   3.049   1.792   3.478
 4407SOL    HW124734   3.073   1.852   3.402
 4407SOL    HW224735   3.056   1.697   3.448
 4408SOL     OW24736   2.179   0.251   3.663
 4408SOL    HW124737   2.250   0.322   3.669
 4408SOL    HW224738   2.091   0.290   3.691
 4409SOL     OW24739   3.328   1.417   2.815
 4409SOL    HW124740   3.269   1.423   2.895
 4409SOL    HW224741   3.313   1.329   2.769
 4410SOL     OW24742   3.529   1.714   2.434
 4410SOL    HW124743   3.488   1.691   2.346
 4410SOL    HW224744   3.511   1.640   2.499
 4411SOL     OW24745   2.460   0.729   2.132
 4411SOL    HW124746   2.484   0.798   2.064
 4411SOL    HW224747   2.382   0.762   2.186
 4412SOL     OW24748   3.143   0.345   2.806
 4412SOL    HW124749   3.057   0.295   2.793
 4412SOL    HW224750   3.205   0.291   2.862
 4413SOL     OW24751   3.438   1.662   2.169
 4413SOL    HW124752   3.527   1.708   2.172
 4413SOL    HW224753   3.417   1.638   2.074
 4414SOL     OW24754   2.669   0.605   3.327
 4414SOL    HW124755   2.622   0.602   3.416
 4414SOL    HW224756   2.618   0.550   3.261
 4415SOL     OW24757   3.256   0.469   3.536
 4415SOL    HW124758   3.236   0.512   3.624
 4415SOL    HW224759   3.334   0.407   3.545
 4416SOL     OW24760   2.835   0.890   3.434
 4416SOL    HW124761   2.881   0.806   3.405
 4416SOL    HW224762   2.779   0.924   3.359
 4417SOL     OW24763   2.853   0.410   3.104
 4417SOL    HW124764   2.776   0.444   3.158
 4417SOL    HW224765   2.819   0.359   3.025
 4418SOL     OW24766   2.903   0.701   2.291
 4418SOL    HW124767   2.929   0.697   2.387
 4418SOL    HW224768   2.818   0.650   2.277
 4419SOL     OW24769   1.938   0.811   2.651
 4419SOL    HW124770   2.037   0.799   2.660
 4419SOL    HW224771   1.914   0.906   2.672
 4420SOL     OW24772   1.992   1.821   3.433
 4420SOL    HW124773   1.982   1.806   3.532
 4420SOL    HW224774   1.906   1.857   3.397
 4421SOL     OW24775   2.727   0.348   2.057
 4421SOL    HW124776   2.786   0.411   2.008
 4421SOL    HW224777   2.746   0.254   2.028
 4422SOL     OW24778   3.581   0.585   3.693
 4422SOL    HW124779   3.555   0.674   3.657
 4422SOL    HW224780   3.579   0.517   3.620
 4423SOL     OW24781   3.224   1.144   2.407
 4423SOL    HW124782   3.307   1.115   2.359
 4423SOL    HW224783   3.175   1.211   2.351
 4424SOL     OW24784   2.412   0.196   2.747
 4424SOL    HW124785   2.407   0.191   2.847
 4424SOL    HW224786   2.414   0.292   2.718
 4425SOL     OW24787   2.870   1.456   2.339
 4425SOL    HW124788   2.824   1.528   2.287
 4425SOL    HW224789   2.866   1.476   2.437
 4426SOL     OW24790   2.213   1.801   2.715
 4426SOL    HW124791   2.263   1.715   2.721
 4426SOL    HW224792   2.278   1.878   2.712
 4427SOL     OW24793   3.657   1.066   2.735
 4427SOL    HW124794   3.595   1.051   2.659
 4427SOL    HW224795   3.605   1.077   2.820
 4428SOL     OW24796   3.089   1.550   3.368
 4428SOL    HW124797   3.095   1.473   3.432
 4428SOL    HW224798   3.037   1.524   3.288
 4429SOL     OW24799   2.183   0.943   2.104
 4429SOL    HW124800   2.265   0.982   2.062
 4429SOL    HW224801   2.156   0.861   2.055
 4430SOL     OW24802   3.320   0.735   2.590
 4430SOL    HW124803   3.315   0.670   2.665
 4430SOL    HW224804   3.400   0.794   2.603
 4431SOL     OW24805   2.323   1.266   3.589
 4431SOL    HW124806   2.273   1.267   3.503
 4431SOL    HW224807   2.260   1.248   3.665
 4432SOL     OW24808   2.973   1.776   2.099
 4432SOL    HW124809   2.913   1.714   2.149
 4432SOL    HW224810   3.004   1.732   2.014
 4433SOL     OW24811   2.064   0.285   3.360
 4433SOL    HW124812   1.984   0.345   3.347
 4433SOL    HW224813   2.054   0.236   3.446
 4434SOL     OW24814   3.494   1.377   1.943
 4434SOL    HW124815   3.462   1.471   1.933
 4434SOL    HW224816   3.418   1.314   1.931
 4435SOL     OW24817   2.326   1.743   2.185
 4435SOL    HW124818   2.359   1.782   2.271
 4435SOL    HW224819   2.402   1.736   2.120
 4436SOL     OW24820   3.262   0.107   2.288
 4436SOL    HW124821   3.238   0.070   2.198
 4436SOL    HW224822   3.361   0.123   2.292
 4437SOL     OW24823   2.111   1.785   3.103
 4437SOL    HW124824   2.168   1.720   3.153
 4437SOL    HW224825   2.095   1.752   3.010
 4438SOL     OW24826   2.802   1.698   2.766
 4438SOL    HW124827   2.882   1.641   2.787
 4438SOL    HW224828   2.753   1.658   2.689
 4439SOL     OW24829   2.244   0.700   2.342
 4439SOL    HW124830   2.289   0.610   2.339
 4439SOL    HW224831   2.150   0.689   2.375
 4440SOL     OW24832   3.409   0.222   3.591
 4440SOL    HW124833   3.404   0.259   3.683
 4440SOL    HW224834   3.337   0.153   3.579
 4441SOL     OW24835   2.476   0.122   1.979
 4441SOL    HW124836   2.574   0.100   1.986
 4441SOL    HW224837   2.445   0.105   1.886
 4442SOL     OW24838   2.643   0.264   3.611
 4442SOL    HW124839   2.710   0.203   3.654
 4442SOL    HW224840   2.570   0.283   3.676
 4443SOL     OW24841   2.750   1.514   3.057
 4443SOL    HW124842   2.727   1.489   2.963
 4443SOL    HW224843   2.811   1.445   3.096
 4444SOL     OW24844   3.213   0.590   3.295
 4444SOL    HW124845   3.241   0.547   3.380
 4444SOL    HW224846   3.238   0.686   3.296
 4445SOL     OW24847   2.665   1.402   2.786
 4445SOL    HW124848   2.755   1.416   2.744
 4445SOL    HW224849   2.594   1.404   2.715
 4446SOL     OW24850   2.784   0.503   2.761
 4446SOL    HW124851   2.759   0.494   2.665
 4446SOL    HW224852   2.832   0.421   2.792
 4447SOL     OW24853   2.401   0.064   2.374
 4447SOL    HW124854   2.320   0.065   2.432
 4447SOL    HW224855   2.404   0.147   2.319
 4448SOL     OW24856   3.296   1.188   1.903
 4448SOL    HW124857   3.328   1.112   1.960
 4448SOL    HW224858   3.204   1.215   1.933
 4449SOL     OW24859   2.159   0.035   2.033
 4449SOL    HW124860   2.208   0.119   2.012
 4449SOL    HW224861   2.221  -0.030   2.078
 4450SOL     OW24862   2.797   0.236   2.342
 4450SOL    HW124863   2.749   0.277   2.264
 4450SOL    HW224864   2.896   0.234   2.323
 4451SOL     OW24865   2.938   0.683   3.326
 4451SOL    HW124866   2.858   0.622   3.329
 4451SOL    HW224867   3.019   0.630   3.302
 4452SOL     OW24868   3.089   1.570   2.655
 4452SOL    HW124869   3.110   1.644   2.590
 4452SOL    HW224870   3.157   1.570   2.728
 4453SOL     OW24871   2.321   1.152   2.603
 4453SOL    HW124872   2.250   1.125   2.668
 4453SOL    HW224873   2.295   1.124   2.510
 4454SOL     OW24874   3.133   1.797   2.453
 4454SOL    HW124875   3.177   1.861   2.389
 4454SOL    HW224876   3.083   1.849   2.523
 4455SOL     OW24877   2.894   0.549   1.878
 4455SOL    HW124878   2.853   0.631   1.839
 4455SOL    HW224879   2.958   0.575   1.951
 4456SOL     OW24880   1.940   0.556   3.248
 4456SOL    HW124881   2.032   0.555   3.207
 4456SOL    HW224882   1.934   0.630   3.315
 4457SOL     OW24883   2.423   0.222   3.009
 4457SOL    HW124884   2.461   0.138   3.046
 4457SOL    HW224885   2.335   0.241   3.053
 4458SOL     OW24886   2.728   0.454   2.504
 4458SOL    HW124887   2.696   0.526   2.442
 4458SOL    HW224888   2.752   0.373   2.451
 4459SOL     OW24889   2.879   0.039   2.615
 4459SOL    HW124890   2.807   0.044   2.546
 4459SOL    HW224891   2.855  -0.030   2.684
 4460SOL     OW24892   3.291   1.173   2.729
 4460SOL    HW124893   3.236   1.089   2.722
 4460SOL    HW224894   3.317   1.202   2.637
 4461SOL     OW24895   3.328   0.590   2.854
 4461SOL    HW124896   3.298   0.495   2.861
 4461SOL    HW224897   3.401   0.606   2.920
 4462SOL     OW24898   3.719   0.833   2.239
 4462SOL    HW124899   3.761   0.769   2.303
 4462SOL    HW224900   3.681   0.782   2.161
 4463SOL     OW24901   2.350   1.385   2.036
 4463SOL    HW124902   2.263   1.370   2.083
 4463SOL    HW224903   2.333   1.411   1.941
 4464SOL     OW24904   3.526   1.280   2.519
 4464SOL    HW124905   3.625   1.288   2.533
 4464SOL    HW224906   3.481   1.364   2.550
 4465SOL     OW24907   3.252   0.575   1.940
 4465SOL    HW124908   3.198   0.554   2.021
 4465SOL    HW224909   3.343   0.534   1.949
 4466SOL     OW24910   2.389   0.256   2.190
 4466SOL    HW124911   2.416   0.197   2.115
 4466SOL    HW224912   2.389   0.351   2.159
 4467SOL     OW24913   3.616   1.223   3.450
 4467SOL    HW124914   3.707   1.184   3.437
 4467SOL    HW224915   3.624   1.319   3.474
 4468SOL     OW24916   2.926   1.347   3.202
 4468SOL    HW124917   2.846   1.324   3.257
 4468SOL    HW224918   3.009   1.321   3.251
 4469SOL     OW24919   3.454   1.629   3.487
 4469SOL    HW124920   3.481   1.663   3.397
 4469SOL    HW224921   3.533   1.591   3.533
 4470SOL     OW24922   2.973   1.195   2.962
 4470SOL    HW124923   2.933   1.239   3.043
 4470SOL    HW224924   2.932   1.232   2.879
 4471SOL     OW24925   3.500   1.099   2.941
 4471SOL    HW124926   3.505   1.180   3.000
 4471SOL    HW224927   3.414   1.101   2.890
 4472SOL     OW24928   2.777   0.089   3.264
 4472SOL    HW124929   2.802   0.069   3.169
 4472SOL    HW224930   2.849   0.145   3.306
 4473SOL     OW24931   2.842   1.116   3.581
 4473SOL    HW124932   2.743   1.122   3.591
 4473SOL    HW224933   2.865   1.036   3.525
 4474SOL     OW24934   2.567   1.050   2.230
 4474SOL    HW124935   2.553   1.057   2.329
 4474SOL    HW224936   2.651   0.999   2.212
 4475SOL     OW24937   2.272   0.813   3.113
 4475SOL    HW124938   2.358   0.825   3.163
 4475SOL    HW224939   2.230   0.726   3.140
 4476SOL     OW24940   3.136   0.386   3.124
 4476SOL    HW124941   3.157   0.460   3.188
 4476SOL    HW224942   3.047   0.403   3.081
 4477SOL     OW24943   1.926   1.564   3.193
 4477SOL    HW124944   1.880   1.646   3.159
 4477SOL    HW224945   2.024   1.583   3.202
 4478SOL     OW24946   2.229   1.100   2.363
 4478SOL    HW124947   2.222   1.183   2.307
 4478SOL    HW224948   2.233   1.020   2.303
 4479SOL     OW24949   2.428   0.537   2.727
 4479SOL    HW124950   2.440   0.603   2.653
 4479SOL    HW224951   2.474   0.571   2.810
 4480SOL     OW24952   3.114   1.348   2.250
 4480SOL    HW124953   3.164   1.425   2.290
 4480SOL    HW224954   3.019   1.350   2.282
 4481SOL     OW24955   3.134   1.445   3.004
 4481SOL    HW124956   3.181   1.458   3.091
 4481SOL    HW224957   3.068   1.371   3.013
 4482SOL     OW24958   3.444   0.639   2.334
 4482SOL    HW124959   3.413   0.700   2.407
 4482SOL    HW224960   3.494   0.691   2.265
 4483SOL     OW24961   2.216   1.510   3.191
 4483SOL    HW124962   2.195   1.466   3.104
 4483SOL    HW224963   2.313   1.536   3.194
 4484SOL     OW24964   2.264   0.751   3.460
 4484SOL    HW124965   2.332   0.806   3.413
 4484SOL    HW224966   2.304   0.663   3.487
 4485SOL     OW24967   3.449   0.779   3.532
 4485SOL    HW124968   3.357   0.817   3.527
 4485SOL    HW224969   3.509   0.826   3.467
 4486SOL     OW24970   2.875   0.105   3.632
 4486SOL    HW124971   2.881   0.190   3.580
 4486SOL    HW224972   2.907   0.029   3.575
 4487SOL     OW24973   2.366   0.050   3.602
 4487SOL    HW124974   2.324  -0.007   3.532
 4487SOL    HW224975   2.300   0.119   3.634
 4488SOL     OW24976   2.435   0.870   2.891
 4488SOL    HW124977   2.479   0.959   2.882
 4488SOL    HW224978   2.372   0.870   2.968
 4489SOL     OW24979   3.222   0.862   2.907
 4489SOL    HW124980   3.147   0.862   2.841
 4489SOL    HW224981   3.259   0.770   2.916
 4490SOL     OW24982   3.071   0.525   2.137
 4490SOL    HW124983   3.084   0.441   2.191
 4490SOL    HW224984   3.042   0.599   2.197
 4491SOL     OW24985   2.169   0.213   3.093
 4491SOL    HW124986   2.146   0.250   3.183
 4491SOL    HW224987   2.139   0.118   3.087
 4492SOL     OW24988   1.899   1.310   3.144
 4492SOL    HW124989   1.952   1.261   3.212
 4492SOL    HW224990   1.921   1.408   3.149
 4493SOL     OW24991   2.594   0.634   2.926
 4493SOL    HW124992   2.653   0.608   2.850
 4493SOL    HW224993   2.566   0.730   2.915
 4494SOL     OW24994   3.590   0.935   3.716
 4494SOL    HW124995   3.544   0.928   3.627
 4494SOL    HW224996   3.528   0.979   3.782
 4495SOL     OW24997   2.169   0.063   2.480
 4495SOL    HW124998   2.158   0.157   2.513
 4495SOL    HW224999   2.164   0.000   2.557
 4496SOL     OW25000   3.484   0.367   2.236
 4496SOL    HW125001   3.486   0.291   2.300
 4496SOL    HW225002   3.436   0.444   2.276
 4497SOL     OW25003   2.885   0.766   2.828
 4497SOL    HW125004   2.900   0.787   2.924
 4497SOL    HW225005   2.855   0.671   2.819
 4498SOL     OW25006   2.842   1.573   3.562
 4498SOL    HW125007   2.822   1.617   3.474
 4498SOL    HW225008   2.881   1.482   3.546
 4499SOL     OW25009   3.721   1.518   3.467
 4499SOL    HW125010   3.735   1.545   3.372
 4499SOL    HW225011   3.804   1.540   3.520
 4500SOL     OW25012   2.212   0.898   3.666
 4500SOL    HW125013   2.288   0.942   3.714
 4500SOL    HW225014   2.247   0.851   3.584
 4501SOL     OW25015   3.402   0.274   1.987
 4501SOL    HW125016   3.341   0.199   2.010
 4501SOL    HW225017   3.424   0.326   2.070
 4502SOL     OW25018   3.165   0.838   1.904
 4502SOL    HW125019   3.199   0.745   1.919
 4502SOL    HW225020   3.183   0.865   1.809
 4503SOL     OW25021   2.930   1.333   2.711
 4503SOL    HW125022   2.937   1.249   2.656
 4503SOL    HW225023   2.992   1.402   2.675
 4504SOL     OW25024   2.181   0.810   2.811
 4504SOL    HW125025   2.274   0.846   2.816
 4504SOL    HW225026   2.175   0.725   2.863
 4505SOL     OW25027   2.201   0.509   2.868
 4505SOL    HW125028   2.149   0.426   2.851
 4505SOL    HW225029   2.278   0.514   2.804
 4506SOL     OW25030   3.000   0.380   3.540
 4506SOL    HW125031   2.955   0.443   3.604
 4506SOL    HW225032   3.093   0.411   3.523
 4507SOL     OW25033   3.022   0.207   3.339
 4507SOL    HW125034   3.022   0.271   3.416
 4507SOL    HW225035   3.050   0.255   3.256
 4508SOL     OW25036   1.870   1.326   2.062
 4508SOL    HW125037   1.777   1.347   2.031
 4508SOL    HW225038   1.880   1.227   2.075
 4509SOL     OW25039   1.950   1.801   2.789
 4509SOL    HW125040   1.908   1.715   2.762
 4509SOL    HW225041   2.044   1.804   2.755
 4510SOL     OW25042   2.366   1.568   2.772
 4510SOL    HW125043   2.432   1.642   2.781
 4510SOL    HW225044   2.410   1.489   2.730
 4511SOL     OW25045   2.864   0.796   3.100
 4511SOL    HW125046   2.905   0.764   3.186
 4511SOL    HW225047   2.768   0.769   3.097
 4512SOL     OW25048   1.902   0.544   2.976
 4512SOL    HW125049   1.987   0.511   2.935
 4512SOL    HW225050   1.915   0.559   3.074
 4513SOL     OW25051   2.051   0.520   3.584
 4513SOL    HW125052   2.110   0.480   3.514
 4513SOL    HW225053   1.993   0.591   3.543
 4514SOL     OW25054   3.231   0.950   3.522
 4514SOL    HW125055   3.270   1.039   3.542
 4514SOL    HW225056   3.241   0.930   3.425
 4515SOL     OW25057   2.677   0.572   2.187
 4515SOL    HW125058   2.684   0.483   2.141
 4515SOL    HW225059   2.583   0.606   2.179
 4516SOL     OW25060   3.519   0.604   3.068
 4516SOL    HW125061   3.481   0.535   3.130
 4516SOL    HW225062   3.601   0.568   3.024
 4517SOL     OW25063   2.114   1.564   3.606
 4517SOL    HW125064   2.084   1.621   3.682
 4517SOL    HW225065   2.107   1.467   3.632
 4518SOL     OW25066   2.533   0.464   3.131
 4518SOL    HW125067   2.499   0.375   3.101
 4518SOL    HW225068   2.559   0.518   3.051
 4519SOL     OW25069   2.792   1.678   3.327
 4519SOL    HW125070   2.768   1.660   3.232
 4519SOL    HW225071   2.822   1.772   3.337
 4520SOL     OW25072   2.335   0.500   2.053
 4520SOL    HW125073   2.396   0.580   2.057
 4520SOL    HW225074   2.240   0.531   2.060
 4521SOL     OW25075   2.021   1.137   3.328
 4521SOL    HW125076   2.043   1.076   3.404
 4521SOL    HW225077   2.031   1.088   3.242
 4522SOL     OW25078   3.209   1.059   3.096
 4522SOL    HW125079   3.233   0.996   3.022
 4522SOL    HW225080   3.119   1.099   3.078
 4523SOL     OW25081   3.164   0.855   2.171
 4523SOL    HW125082   3.078   0.824   2.213
 4523SOL    HW225083   3.160   0.841   2.072
 4524SOL     OW25084   3.621   1.747   3.016
 4524SOL    HW125085   3.682   1.777   2.943
 4524SOL    HW225086   3.583   1.658   2.994
 4525SOL     OW25087   3.114   1.731   2.990
 4525SOL    HW125088   3.198   1.736   2.936
 4525SOL    HW225089   3.091   1.635   3.008
 4526SOL     OW25090   1.945   1.258   2.884
 4526SOL    HW125091   1.940   1.257   2.984
 4526SOL    HW225092   1.862   1.217   2.846
 4527SOL     OW25093   2.550   1.662   3.578
 4527SOL    HW125094   2.494   1.743   3.587
 4527SOL    HW225095   2.602   1.666   3.492
 4528SOL     OW25096   3.588   0.135   2.385
 4528SOL    HW125097   3.661   0.118   2.318
 4528SOL    HW225098   3.557   0.048   2.423
 4529SOL     OW25099   3.250   1.573   2.339
 4529SOL    HW125100   3.317   1.585   2.265
 4529SOL    HW225101   3.210   1.662   2.362
 4530SOL     OW25102   1.992   1.794   3.713
 4530SOL    HW125103   1.951   1.720   3.766
 4530SOL    HW225104   2.056   1.845   3.771
 4531SOL     OW25105   3.142   0.927   2.534
 4531SOL    HW125106   3.202   0.846   2.536
 4531SOL    HW225107   3.182   0.996   2.474
 4532SOL     OW25108   2.692   1.273   3.284
 4532SOL    HW125109   2.687   1.306   3.379
 4532SOL    HW225110   2.606   1.292   3.238
 4533SOL     OW25111   2.534   1.616   2.016
 4533SOL    HW125112   2.543   1.626   1.917
 4533SOL    HW225113   2.494   1.527   2.037
 4534SOL     OW25114   3.512   1.720   3.256
 4534SOL    HW125115   3.565   1.730   3.172
 4534SOL    HW225116   3.485   1.810   3.290
 4535SOL     OW25117   3.703   0.175   2.825
 4535SOL    HW125118   3.742   0.090   2.789
 4535SOL    HW225119   3.605   0.177   2.806
 4536SOL     OW25120   2.125   0.326   2.582
 4536SOL    HW125121   2.046   0.377   2.548
 4536SOL    HW225122   2.116   0.311   2.680
 4537SOL     OW25123   3.056   1.612   1.893
 4537SOL    HW125124   3.062   1.519   1.930
 4537SOL    HW225125   2.997   1.612   1.813
 4538SOL     OW25126   2.684   1.002   3.234
 4538SOL    HW125127   2.724   1.001   3.142
 4538SOL    HW225128   2.694   1.094   3.274
 4539SOL     OW25129   2.778   0.910   2.153
 4539SOL    HW125130   2.841   0.948   2.085
 4539SOL    HW225131   2.818   0.827   2.192
 4540SOL     OW25132   3.366   1.607   1.906
 4540SOL    HW125133   3.274   1.644   1.913
 4540SOL    HW225134   3.404   1.627   1.816
 4541SOL     OW25135   2.234   1.288   3.352
 4541SOL    HW125136   2.221   1.381   3.318
 4541SOL    HW225137   2.150   1.236   3.339
 4542SOL     OW25138   3.476   1.292   3.151
 4542SOL    HW125139   3.536   1.295   3.231
 4542SOL    HW225140   3.401   1.356   3.164
 4543SOL     OW25141   2.901   1.098   2.558
 4543SOL    HW125142   2.831   1.051   2.612
 4543SOL    HW225143   2.960   1.030   2.515
 4544SOL     OW25144   2.876   0.236   2.833
 4544SOL    HW125145   2.868   0.200   2.740
 4544SOL    HW225146   2.874   0.160   2.898
 4545SOL     OW25147   2.452   1.487   2.353
 4545SOL    HW125148   2.494   1.429   2.283
 4545SOL    HW225149   2.408   1.566   2.309
 4546SOL     OW25150   3.571   0.385   3.243
 4546SOL    HW125151   3.644   0.454   3.247
 4546SOL    HW225152   3.599   0.310   3.184
 4547SOL     OW25153   2.117   1.348   2.152
 4547SOL    HW125154   2.021   1.349   2.125
 4547SOL    HW225155   2.129   1.401   2.236
 4548SOL     OW25156   1.967   1.013   3.588
 4548SOL    HW125157   1.890   0.980   3.642
 4548SOL    HW225158   2.052   0.983   3.630
 4549SOL     OW25159   2.534   0.203   3.351
 4549SOL    HW125160   2.624   0.187   3.311
 4549SOL    HW225161   2.542   0.208   3.450
 4550SOL     OW25162   1.937   0.345   1.895
 4550SOL    HW125163   1.845   0.317   1.866
 4550SOL    HW225164   1.968   0.422   1.839
 4551SOL     OW25165   3.302   0.856   3.260
 4551SOL    HW125166   3.245   0.908   3.197
 4551SOL    HW225167   3.398   0.868   3.236
 4552SOL     OW25168   1.934   0.166   2.180
 4552SOL    HW125169   1.917   0.249   2.126
 4552SOL    HW225170   2.024   0.129   2.158
 4553SOL     OW25171   3.045   1.335   1.981
 4553SOL    HW125172   2.946   1.324   1.983
 4553SOL    HW225173   3.079   1.350   2.074
 4554SOL     OW25174   2.475   0.842   3.293
 4554SOL    HW125175   2.531   0.923   3.276
 4554SOL    HW225176   2.534   0.762   3.296
 4555SOL     OW25177   3.355   1.767   2.821
 4555SOL    HW125178   3.388   1.831   2.752
 4555SOL    HW225179   3.421   1.761   2.896
 4556SOL     OW25180   2.578   0.565   3.570
 4556SOL    HW125181   2.597   0.630   3.644
 4556SOL    HW225182   2.638   0.485   3.579
 4557SOL     OW25183   3.312   1.220   3.495
 4557SOL    HW125184   3.303   1.210   3.594
 4557SOL    HW225185   3.408   1.213   3.469
 4558SOL     OW25186   2.252   1.741   3.422
 4558SOL    HW125187   2.161   1.782   3.420
 4558SOL    HW225188   2.245   1.647   3.454
 4559SOL     OW25189   3.536   0.883   3.116
 4559SOL    HW125190   3.509   0.794   3.079
 4559SOL    HW225191   3.537   0.951   3.043
 4560SOL     OW25192   3.087   0.325   2.311
 4560SOL    HW125193   3.152   0.251   2.300
 4560SOL    HW225194   3.107   0.375   2.395
 4561SOL     OW25195   2.456   0.745   2.514
 4561SOL    HW125196   2.506   0.830   2.495
 4561SOL    HW225197   2.368   0.747   2.466
 4562SOL     OW25198   3.639   0.342   3.504
 4562SOL    HW125199   3.622   0.373   3.410
 4562SOL    HW225200   3.555   0.305   3.542
 4563SOL     OW25201   3.592   0.934   3.379
 4563SOL    HW125202   3.630   1.025   3.394
 4563SOL    HW225203   3.584   0.917   3.280
 4564SOL     OW25204   2.721   1.374   1.878
 4564SOL    HW125205   2.675   1.389   1.966
 4564SOL    HW225206   2.765   1.459   1.848
 4565SOL     OW25207   2.523   1.790   2.815
 4565SOL    HW125208   2.477   1.878   2.802
 4565SOL    HW225209   2.622   1.802   2.808
 4566SOL     OW25210   2.721   0.956   2.723
 4566SOL    HW125211   2.775   0.887   2.771
 4566SOL    HW225212   2.689   1.025   2.789
 4567SOL     OW25213   2.945   0.984   1.949
 4567SOL    HW125214   2.922   1.037   1.867
 4567SOL    HW225215   3.026   0.928   1.930
 4568SOL     OW25216   3.723   1.569   2.713
 4568SOL    HW125217   3.652   1.557   2.643
 4568SOL    HW225218   3.724   1.490   2.773
 4569SOL     OW25219   2.083   1.314   3.706
 4569SOL    HW125220   2.018   1.241   3.685
 4569SOL    HW225221   2.087   1.328   3.804
 4570SOL     OW25222   1.941   1.240   2.515
 4570SOL    HW125223   1.940   1.193   2.603
 4570SOL    HW225224   2.023   1.212   2.464
 4571SOL     OW25225   2.534   1.391   3.486
 4571SOL    HW125226   2.456   1.341   3.524
 4571SOL    HW225227   2.531   1.486   3.517
 4572SOL     OW25228   3.686   0.192   3.089
 4572SOL    HW125229   3.682   0.102   3.133
 4572SOL    HW225230   3.689   0.181   2.990
 4573SOL     OW25231   2.290   0.424   2.382
 4573SOL    HW125232   2.320   0.352   2.320
 4573SOL    HW225233   2.251   0.384   2.465
 4574SOL     OW25234   3.567   1.487   2.966
 4574SOL    HW125235   3.474   1.462   2.939
 4574SOL    HW225236   3.593   1.437   3.048
 4575SOL     OW25237   2.179   0.547   3.142
 4575SOL    HW125238   2.217   0.488   3.214
 4575SOL    HW225239   2.219   0.521   3.054
 4576SOL     OW25240   2.674   1.586   2.549
 4576SOL    HW125241   2.706   1.596   2.455
 4576SOL    HW225242   2.595   1.524   2.551
 4577SOL     OW25243   3.286   0.214   2.974
 4577SOL    HW125244   3.338   0.149   3.029
 4577SOL    HW225245   3.237   0.277   3.035
 4578SOL     OW25246   2.863   0.034   3.016
 4578SOL    HW125247   2.800  -0.038   2.985
 4578SOL    HW225248   2.956  -0.002   3.016
 4579SOL     OW25249   2.632   1.330   2.163
 4579SOL    HW125250   2.586   1.243   2.180
 4579SOL    HW225251   2.723   1.327   2.204
 4580SOL     OW25252   2.480   1.567   3.146
 4580SOL    HW125253   2.475   1.649   3.203
 4580SOL    HW225254   2.569   1.564   3.101
 4581SOL     OW25255   3.214   0.052   2.030
 4581SOL    HW125256   3.249   0.011   1.946
 4581SOL    HW225257   3.124   0.014   2.050
 4582SOL     OW25258   3.162   0.453   2.553
 4582SOL    HW125259   3.103   0.533   2.557
 4582SOL    HW225260   3.177   0.418   2.646
 4583SOL     OW25261   3.455   0.221   2.744
 4583SOL    HW125262   3.371   0.220   2.798
 4583SOL    HW225263   3.457   0.304   2.688
 4584SOL     OW25264   1.901   1.077   2.162
 4584SOL    HW125265   2.000   1.066   2.153
 4584SOL    HW225266   1.861   0.991   2.194
 4585SOL     OW25267   2.737   1.646   2.199
 4585SOL    HW125268   2.660   1.611   2.145
 4585SOL    HW225269   2.705   1.717   2.261
 4586SOL     OW25270   2.092   0.628   3.837
 4586SOL    HW125271   1.999   0.626   3.874
 4586SOL    HW225272   2.093   0.589   3.745
 4587SOL     OW25273   2.087   0.275   4.720
 4587SOL    HW125274   2.122   0.258   4.812
 4587SOL    HW225275   1.999   0.230   4.708
 4588SOL     OW25276   1.881   0.368   4.371
 4588SOL    HW125277   1.799   0.411   4.410
 4588SOL    HW225278   1.853   0.295   4.308
 4589SOL     OW25279   2.431   1.275   4.889
 4589SOL    HW125280   2.338   1.268   4.852
 4589SOL    HW225281   2.442   1.364   4.933
 4590SOL     OW25282   3.417   1.511   4.427
 4590SOL    HW125283   3.360   1.495   4.508
 4590SOL    HW225284   3.358   1.521   4.347
 4591SOL     OW25285   2.997   0.703   4.441
 4591SOL    HW125286   3.054   0.781   4.416
 4591SOL    HW225287   2.937   0.729   4.517
 4592SOL     OW25288   3.617   0.607   3.955
 4592SOL    HW125289   3.605   0.594   3.856
 4592SOL    HW225290   3.587   0.526   4.004
 4593SOL     OW25291   2.630   1.144   4.747
 4593SOL    HW125292   2.552   1.161   4.807
 4593SOL    HW225293   2.664   1.231   4.711
 4594SOL     OW25294   2.712   0.798   5.547
 4594SOL    HW125295   2.708   0.874   5.612
 4594SOL    HW225296   2.734   0.834   5.456
 4595SOL     OW25297   2.547   1.012   4.389
 4595SOL    HW125298   2.616   0.996   4.459
 4595SOL    HW225299   2.474   1.069   4.427
 4596SOL     OW25300   2.548   1.161   5.527
 4596SOL    HW125301   2.608   1.240   5.541
 4596SOL    HW225302   2.462   1.192   5.486
 4597SOL     OW25303   2.197   1.435   4.785
 4597SOL    HW125304   2.119   1.404   4.732
 4597SOL    HW225305   2.255   1.493   4.728
 4598SOL     OW25306   3.322   1.505   5.063
 4598SOL    HW125307   3.346   1.599   5.089
 4598SOL    HW225308   3.306   1.451   5.145
 4599SOL     OW25309   2.300   0.392   5.223
 4599SOL    HW125310   2.382   0.336   5.232
 4599SOL    HW225311   2.219   0.334   5.227
 4600SOL     OW25312   3.465   0.447   4.461
 4600SOL    HW125313   3.391   0.493   4.411
 4600SOL    HW225314   3.516   0.515   4.514
 4601SOL     OW25315   2.093   1.713   4.207
 4601SOL    HW125316   2.127   1.790   4.261
 4601SOL    HW225317   2.137   1.713   4.117
 4602SOL     OW25318   2.989   1.341   5.414
 4602SOL    HW125319   3.036   1.341   5.502
 4602SOL    HW225320   2.941   1.254   5.403
 4603SOL     OW25321   2.092   1.434   4.262
 4603SOL    HW125322   2.066   1.530   4.262
 4603SOL    HW225323   2.021   1.380   4.307
 4604SOL     OW25324   2.102   1.091   4.610
 4604SOL    HW125325   2.116   1.007   4.662
 4604SOL    HW225326   2.047   1.155   4.665
 4605SOL     OW25327   2.482   1.786   5.163
 4605SOL    HW125328   2.390   1.769   5.198
 4605SOL    HW225329   2.510   1.878   5.189
 4606SOL     OW25330   2.468   0.964   3.847
 4606SOL    HW125331   2.475   1.048   3.793
 4606SOL    HW225332   2.514   0.977   3.935
 4607SOL     OW25333   3.456   0.114   5.204
 4607SOL    HW125334   3.438   0.181   5.132
 4607SOL    HW225335   3.453   0.160   5.293
 4608SOL     OW25336   1.984   0.643   4.287
 4608SOL    HW125337   1.939   0.555   4.304
 4608SOL    HW225338   1.983   0.697   4.371
 4609SOL     OW25339   3.704   1.767   4.083
 4609SOL    HW125340   3.758   1.738   4.163
 4609SOL    HW225341   3.734   1.857   4.054
 4610SOL     OW25342   1.889   1.596   3.841
 4610SOL    HW125343   1.870   1.500   3.862
 4610SOL    HW225344   1.856   1.654   3.916
 4611SOL     OW25345   3.551   0.922   4.336
 4611SOL    HW125346   3.646   0.893   4.344
 4611SOL    HW225347   3.543   0.987   4.261
 4612SOL     OW25348   3.503   1.108   4.156
 4612SOL    HW125349   3.589   1.110   4.104
 4612SOL    HW225350   3.517   1.155   4.244
 4613SOL     OW25351   1.975   0.737   5.321
 4613SOL    HW125352   2.063   0.724   5.366
 4613SOL    HW225353   1.962   0.834   5.299
 4614SOL     OW25354   2.475   1.365   4.450
 4614SOL    HW125355   2.426   1.278   4.459
 4614SOL    HW225356   2.452   1.408   4.363
 4615SOL     OW25357   3.155   1.228   5.147
 4615SOL    HW125358   3.192   1.155   5.089
 4615SOL    HW225359   3.207   1.233   5.232
 4616SOL     OW25360   2.671   0.004   4.226
 4616SOL    HW125361   2.711   0.095   4.217
 4616SOL    HW225362   2.571   0.012   4.232
 4617SOL     OW25363   2.059   0.976   4.988
 4617SOL    HW125364   2.148   0.931   4.974
 4617SOL    HW225365   1.986   0.911   4.969
 4618SOL     OW25366   3.387   0.999   3.914
 4618SOL    HW125367   3.324   0.923   3.927
 4618SOL    HW225368   3.435   1.017   4.000
 4619SOL     OW25369   3.049   1.792   5.340
 4619SOL    HW125370   3.073   1.852   5.264
 4619SOL    HW225371   3.056   1.697   5.310
 4620SOL     OW25372   2.179   0.251   5.525
 4620SOL    HW125373   2.250   0.322   5.531
 4620SOL    HW225374   2.091   0.290   5.553
 4621SOL     OW25375   3.328   1.417   4.677
 4621SOL    HW125376   3.269   1.423   4.757
 4621SOL    HW225377   3.313   1.329   4.631
 4622SOL     OW25378   3.529   1.714   4.296
 4622SOL    HW125379   3.488   1.691   4.208
 4622SOL    HW225380   3.511   1.640   4.361
 4623SOL     OW25381   2.460   0.729   3.994
 4623SOL    HW125382   2.484   0.798   3.926
 4623SOL    HW225383   2.382   0.762   4.048
 4624SOL     OW25384   3.143   0.345   4.668
 4624SOL    HW125385   3.057   0.295   4.655
 4624SOL    HW225386   3.205   0.291   4.724
 4625SOL     OW25387   3.438   1.662   4.031
 4625SOL    HW125388   3.527   1.708   4.034
 4625SOL    HW225389   3.417   1.638   3.936
 4626SOL     OW25390   2.669   0.605   5.189
 4626SOL    HW125391   2.622   0.602   5.278
 4626SOL    HW225392   2.618   0.550   5.123
 4627SOL     OW25393   3.256   0.469   5.398
 4627SOL    HW125394   3.236   0.512   5.486
 4627SOL    HW225395   3.334   0.407   5.407
 4628SOL     OW25396   2.835   0.890   5.296
 4628SOL    HW125397   2.881   0.806   5.267
 4628SOL    HW225398   2.779   0.924   5.221
 4629SOL     OW25399   2.853   0.410   4.966
 4629SOL    HW125400   2.776   0.444   5.020
 4629SOL    HW225401   2.819   0.359   4.887
 4630SOL     OW25402   2.903   0.701   4.153
 4630SOL    HW125403   2.929   0.697   4.249
 4630SOL    HW225404   2.818   0.650   4.139
 4631SOL     OW25405   1.938   0.811   4.513
 4631SOL    HW125406   2.037   0.799   4.522
 4631SOL    HW225407   1.914   0.906   4.534
 4632SOL     OW25408   1.992   1.821   5.295
 4632SOL    HW125409   1.982   1.806   5.394
 4632SOL    HW225410   1.906   1.857   5.259
 4633SOL     OW25411   2.727   0.348   3.919
 4633SOL    HW125412   2.786   0.411   3.870
 4633SOL    HW225413   2.746   0.254   3.890
 4634SOL     OW25414   3.581   0.585   5.555
 4634SOL    HW125415   3.555   0.674   5.519
 4634SOL    HW225416   3.579   0.517   5.482
 4635SOL     OW25417   3.224   1.144   4.269
 4635SOL    HW125418   3.307   1.115   4.221
 4635SOL    HW225419   3.175   1.211   4.213
 4636SOL     OW25420   2.412   0.196   4.609
 4636SOL    HW125421   2.407   0.191   4.709
 4636SOL    HW225422   2.414   0.292   4.580
 4637SOL     OW25423   2.870   1.456   4.201
 4637SOL    HW125424   2.824   1.528   4.149
 4637SOL    HW225425   2.866   1.476   4.299
 4638SOL     OW25426   2.213   1.801   4.577
 4638SOL    HW125427   2.263   1.715   4.583
 4638SOL    HW225428   2.278   1.878   4.574
 4639SOL     OW25429   3.657   1.066   4.597
 4639SOL    HW125430   3.595   1.051   4.521
 4639SOL    HW225431   3.605   1.077   4.682
 4640SOL     OW25432   3.089   1.550   5.230
 4640SOL    HW125433   3.095   1.473   5.294
 4640SOL    HW225434   3.037   1.524   5.150
 4641SOL     OW25435   2.183   0.943   3.966
 4641SOL    HW125436   2.265   0.982   3.924
 4641SOL    HW225437   2.156   0.861   3.917
 4642SOL     OW25438   3.320   0.735   4.452
 4642SOL    HW125439   3.315   0.670   4.527
 4642SOL    HW225440   3.400   0.794   4.465
 4643SOL     OW25441   2.323   1.266   5.451
 4643SOL    HW125442   2.273   1.267   5.365
 4643SOL    HW225443   2.260   1.248   5.527
 4644SOL     OW25444   2.973   1.776   3.961
 4644SOL    HW125445   2.913   1.714   4.011
 4644SOL    HW225446   3.004   1.732   3.876
 4645SOL     OW25447   2.064   0.285   5.222
 4645SOL    HW125448   1.984   0.345   5.209
 4645SOL    HW225449   2.054   0.236   5.308
 4646SOL     OW25450   3.494   1.377   3.805
 4646SOL    HW125451   3.462   1.471   3.795
 4646SOL    HW225452   3.418   1.314   3.793
 4647SOL     OW25453   2.326   1.743   4.047
 4647SOL    HW125454   2.359   1.782   4.133
 4647SOL    HW225455   2.402   1.736   3.982
 4648SOL     OW25456   3.262   0.107   4.150
 4648SOL    HW125457   3.238   0.070   4.060
 4648SOL    HW225458   3.361   0.123   4.154
 4649SOL     OW25459   2.111   1.785   4.965
 4649SOL    HW125460   2.168   1.720   5.015
 4649SOL    HW225461   2.095   1.752   4.872
 4650SOL     OW25462   2.802   1.698   4.628
 4650SOL    HW125463   2.882   1.641   4.649
 4650SOL    HW225464   2.753   1.658   4.551
 4651SOL     OW25465   2.244   0.700   4.204
 4651SOL    HW125466   2.289   0.610   4.201
 4651SOL    HW225467   2.150   0.689   4.237
 4652SOL     OW25468   3.409   0.222   5.453
 4652SOL    HW125469   3.404   0.259   5.545
 4652SOL    HW225470   3.337   0.153   5.441
 4653SOL     OW25471   2.476   0.122   3.841
 4653SOL    HW125472   2.574   0.100   3.848
 4653SOL    HW225473   2.445   0.105   3.748
 4654SOL     OW25474   2.643   0.264   5.473
 4654SOL    HW125475   2.710   0.203   5.516
 4654SOL    HW225476   2.570   0.283   5.538
 4655SOL     OW25477   2.750   1.514   4.919
 4655SOL    HW125478   2.727   1.489   4.825
 4655SOL    HW225479   2.811   1.445   4.958
 4656SOL     OW25480   3.213   0.590   5.157
 4656SOL    HW125481   3.241   0.547   5.242
 4656SOL    HW225482   3.238   0.686   5.158
 4657SOL     OW25483   2.665   1.402   4.648
 4657SOL    HW125484   2.755   1.416   4.606
 4657SOL    HW225485   2.594   1.404   4.577
 4658SOL     OW25486   2.784   0.503   4.623
 4658SOL    HW125487   2.759   0.494   4.527
 4658SOL    HW225488   2.832   0.421   4.654
 4659SOL     OW25489   2.401   0.064   4.236
 4659SOL    HW125490   2.320   0.065   4.294
 4659SOL    HW225491   2.404   0.147   4.181
 4660SOL     OW25492   3.296   1.188   3.765
 4660SOL    HW125493   3.328   1.112   3.822
 4660SOL    HW225494   3.204   1.215   3.795
 4661SOL     OW25495   2.159   0.035   3.895
 4661SOL    HW125496   2.208   0.119   3.874
 4661SOL    HW225497   2.221  -0.030   3.940
 4662SOL     OW25498   2.797   0.236   4.204
 4662SOL    HW125499   2.749   0.277   4.126
 4662SOL    HW225500   2.896   0.234   4.185
 4663SOL     OW25501   2.938   0.683   5.188
 4663SOL    HW125502   2.858   0.622   5.191
 4663SOL    HW225503   3.019   0.630   5.164
 4664SOL     OW25504   3.089   1.570   4.517
 4664SOL    HW125505   3.110   1.644   4.452
 4664SOL    HW225506   3.157   1.570   4.590
 4665SOL     OW25507   2.321   1.152   4.465
 4665SOL    HW125508   2.250   1.125   4.530
 4665SOL    HW225509   2.295   1.124   4.372
 4666SOL     OW25510   3.133   1.797   4.315
 4666SOL    HW125511   3.177   1.861   4.251
 4666SOL    HW225512   3.083   1.849   4.385
 4667SOL     OW25513   2.894   0.549   3.740
 4667SOL    HW125514   2.853   0.631   3.701
 4667SOL    HW225515   2.958   0.575   3.813
 4668SOL     OW25516   1.940   0.556   5.110
 4668SOL    HW125517   2.032   0.555   5.069
 4668SOL    HW225518   1.934   0.630   5.177
 4669SOL     OW25519   2.423   0.222   4.871
 4669SOL    HW125520   2.461   0.138   4.908
 4669SOL    HW225521   2.335   0.241   4.915
 4670SOL     OW25522   2.728   0.454   4.366
 4670SOL    HW125523   2.696   0.526   4.304
 4670SOL    HW225524   2.752   0.373   4.313
 4671SOL     OW25525   2.879   0.039   4.477
 4671SOL    HW125526   2.807   0.044   4.408
 4671SOL    HW225527   2.855  -0.030   4.546
 4672SOL     OW25528   3.291   1.173   4.591
 4672SOL    HW125529   3.236   1.089   4.584
 4672SOL    HW225530   3.317   1.202   4.499
 4673SOL     OW25531   3.328   0.590   4.716
 4673SOL    HW125532   3.298   0.495   4.723
 4673SOL    HW225533   3.401   0.606   4.782
 4674SOL     OW25534   3.719   0.833   4.101
 4674SOL    HW125535   3.761   0.769   4.165
 4674SOL    HW225536   3.681   0.782   4.023
 4675SOL     OW25537   2.350   1.385   3.898
 4675SOL    HW125538   2.263   1.370   3.945
 4675SOL    HW225539   2.333   1.411   3.803
 4676SOL     OW25540   3.526   1.280   4.381
 4676SOL    HW125541   3.625   1.288   4.395
 4676SOL    HW225542   3.481   1.364   4.412
 4677SOL     OW25543   3.252   0.575   3.802
 4677SOL    HW125544   3.198   0.554   3.883
 4677SOL    HW225545   3.343   0.534   3.811
 4678SOL     OW25546   2.389   0.256   4.052
 4678SOL    HW125547   2.416   0.197   3.977
 4678SOL    HW225548   2.389   0.351   4.021
 4679SOL     OW25549   3.616   1.223   5.312
 4679SOL    HW125550   3.707   1.184   5.299
 4679SOL    HW225551   3.624   1.319   5.336
 4680SOL     OW25552   2.926   1.347   5.064
 4680SOL    HW125553   2.846   1.324   5.119
 4680SOL    HW225554   3.009   1.321   5.113
 4681SOL     OW25555   3.454   1.629   5.349
 4681SOL    HW125556   3.481   1.663   5.259
 4681SOL    HW225557   3.533   1.591   5.395
 4682SOL     OW25558   2.973   1.195   4.824
 4682SOL    HW125559   2.933   1.239   4.905
 4682SOL    HW225560   2.932   1.232   4.741
 4683SOL     OW25561   3.500   1.099   4.803
 4683SOL    HW125562   3.505   1.180   4.862
 4683SOL    HW225563   3.414   1.101   4.752
 4684SOL     OW25564   2.777   0.089   5.126
 4684SOL    HW125565   2.802   0.069   5.031
 4684SOL    HW225566   2.849   0.145   5.168
 4685SOL     OW25567   2.842   1.116   5.443
 4685SOL    HW125568   2.743   1.122   5.453
 4685SOL    HW225569   2.865   1.036   5.387
 4686SOL     OW25570   2.567   1.050   4.092
 4686SOL    HW125571   2.553   1.057   4.191
 4686SOL    HW225572   2.651   0.999   4.074
 4687SOL     OW25573   2.272   0.813   4.975
 4687SOL    HW125574   2.358   0.825   5.025
 4687SOL    HW225575   2.230   0.726   5.002
 4688SOL     OW25576   3.136   0.386   4.986
 4688SOL    HW125577   3.157   0.460   5.050
 4688SOL    HW225578   3.047   0.403   4.943
 4689SOL     OW25579   1.926   1.564   5.055
 4689SOL    HW125580   1.880   1.646   5.021
 4689SOL    HW225581   2.024   1.583   5.064
 4690SOL     OW25582   2.229   1.100   4.225
 4690SOL    HW125583   2.222   1.183   4.169
 4690SOL    HW225584   2.233   1.020   4.165
 4691SOL     OW25585   2.428   0.537   4.589
 4691SOL    HW125586   2.440   0.603   4.515
 4691SOL    HW225587   2.474   0.571   4.672
 4692SOL     OW25588   3.114   1.348   4.112
 4692SOL    HW125589   3.164   1.425   4.152
 4692SOL    HW225590   3.019   1.350   4.144
 4693SOL     OW25591   3.134   1.445   4.866
 4693SOL    HW125592   3.181   1.458   4.953
 4693SOL    HW225593   3.068   1.371   4.875
 4694SOL     OW25594   3.444   0.639   4.196
 4694SOL    HW125595   3.413   0.700   4.269
 4694SOL    HW225596   3.494   0.691   4.127
 4695SOL     OW25597   2.216   1.510   5.053
 4695SOL    HW125598   2.195   1.466   4.966
 4695SOL    HW225599   2.313   1.536   5.056
 4696SOL     OW25600   2.264   0.751   5.322
 4696SOL    HW125601   2.332   0.806   5.275
 4696SOL    HW225602   2.304   0.663   5.349
 4697SOL     OW25603   3.449   0.779   5.394
 4697SOL    HW125604   3.357   0.817   5.389
 4697SOL    HW225605   3.509   0.826   5.329
 4698SOL     OW25606   2.875   0.105   5.494
 4698SOL    HW125607   2.881   0.190   5.442
 4698SOL    HW225608   2.907   0.029   5.437
 4699SOL     OW25609   2.366   0.050   5.464
 4699SOL    HW125610   2.324  -0.007   5.394
 4699SOL    HW225611   2.300   0.119   5.496
 4700SOL     OW25612   2.435   0.870   4.753
 4700SOL    HW125613   2.479   0.959   4.744
 4700SOL    HW225614   2.372   0.870   4.830
 4701SOL     OW25615   3.222   0.862   4.769
 4701SOL    HW125616   3.147   0.862   4.703
 4701SOL    HW225617   3.259   0.770   4.778
 4702SOL     OW25618   3.071   0.525   3.999
 4702SOL    HW125619   3.084   0.441   4.053
 4702SOL    HW225620   3.042   0.599   4.059
 4703SOL     OW25621   2.169   0.213   4.955
 4703SOL    HW125622   2.146   0.250   5.045
 4703SOL    HW225623   2.139   0.118   4.949
 4704SOL     OW25624   1.899   1.310   5.006
 4704SOL    HW125625   1.952   1.261   5.074
 4704SOL    HW225626   1.921   1.408   5.011
 4705SOL     OW25627   2.594   0.634   4.788
 4705SOL    HW125628   2.653   0.608   4.712
 4705SOL    HW225629   2.566   0.730   4.777
 4706SOL     OW25630   3.590   0.935   5.578
 4706SOL    HW125631   3.544   0.928   5.489
 4706SOL    HW225632   3.528   0.979   5.644
 4707SOL     OW25633   2.169   0.063   4.342
 4707SOL    HW125634   2.158   0.157   4.375
 4707SOL    HW225635   2.164   0.000   4.419
 4708SOL     OW25636   3.484   0.367   4.098
 4708SOL    HW125637   3.486   0.291   4.162
 4708SOL    HW225638   3.436   0.444   4.138
 4709SOL     OW25639   2.885   0.766   4.690
 4709SOL    HW125640   2.900   0.787   4.786
 4709SOL    HW225641   2.855   0.671   4.681
 4710SOL     OW25642   2.842   1.573   5.424
 4710SOL    HW125643   2.822   1.617   5.336
 4710SOL    HW225644   2.881   1.482   5.408
 4711SOL     OW25645   3.721   1.518   5.329
 4711SOL    HW125646   3.735   1.545   5.234
 4711SOL    HW225647   3.804   1.540   5.382
 4712SOL     OW25648   2.212   0.898   5.528
 4712SOL    HW125649   2.288   0.942   5.576
 4712SOL    HW225650   2.247   0.851   5.446
 4713SOL     OW25651   3.402   0.274   3.849
 4713SOL    HW125652   3.341   0.199   3.872
 4713SOL    HW225653   3.424   0.326   3.932
 4714SOL     OW25654   3.165   0.838   3.766
 4714SOL    HW125655   3.199   0.745   3.781
 4714SOL    HW225656   3.183   0.865   3.671
 4715SOL     OW25657   2.930   1.333   4.573
 4715SOL    HW125658   2.937   1.249   4.518
 4715SOL    HW225659   2.992   1.402   4.537
 4716SOL     OW25660   2.181   0.810   4.673
 4716SOL    HW125661   2.274   0.846   4.678
 4716SOL    HW225662   2.175   0.725   4.725
 4717SOL     OW25663   2.201   0.509   4.730
 4717SOL    HW125664   2.149   0.426   4.713
 4717SOL    HW225665   2.278   0.514   4.666
 4718SOL     OW25666   3.000   0.380   5.402
 4718SOL    HW125667   2.955   0.443   5.466
 4718SOL    HW225668   3.093   0.411   5.385
 4719SOL     OW25669   3.022   0.207   5.201
 4719SOL    HW125670   3.022   0.271   5.278
 4719SOL    HW225671   3.050   0.255   5.118
 4720SOL     OW25672   1.870   1.326   3.924
 4720SOL    HW125673   1.777   1.347   3.893
 4720SOL    HW225674   1.880   1.227   3.937
 4721SOL     OW25675   1.950   1.801   4.651
 4721SOL    HW125676   1.908   1.715   4.624
 4721SOL    HW225677   2.044   1.804   4.617
 4722SOL     OW25678   2.366   1.568   4.634
 4722SOL    HW125679   2.432   1.642   4.643
 4722SOL    HW225680   2.410   1.489   4.592
 4723SOL     OW25681   2.864   0.796   4.962
 4723SOL    HW125682   2.905   0.764   5.048
 4723SOL    HW225683   2.768   0.769   4.959
 4724SOL     OW25684   1.902   0.544   4.838
 4724SOL    HW125685   1.987   0.511   4.797
 4724SOL    HW225686   1.915   0.559   4.936
 4725SOL     OW25687   2.051   0.520   5.446
 4725SOL    HW125688   2.110   0.480   5.376
 4725SOL    HW225689   1.993   0.591   5.405
 4726SOL     OW25690   3.231   0.950   5.384
 4726SOL    HW125691   3.270   1.039   5.404
 4726SOL    HW225692   3.241   0.930   5.287
 4727SOL     OW25693   2.677   0.572   4.049
 4727SOL    HW125694   2.684   0.483   4.003
 4727SOL    HW225695   2.583   0.606   4.041
 4728SOL     OW25696   3.519   0.604   4.930
 4728SOL    HW125697   3.481   0.535   4.992
 4728SOL    HW225698   3.601   0.568   4.886
 4729SOL     OW25699   2.114   1.564   5.468
 4729SOL    HW125700   2.084   1.621   5.544
 4729SOL    HW225701   2.107   1.467   5.494
 4730SOL     OW25702   2.533   0.464   4.993
 4730SOL    HW125703   2.499   0.375   4.963
 4730SOL    HW225704   2.559   0.518   4.913
 4731SOL     OW25705   2.792   1.678   5.189
 4731SOL    HW125706   2.768   1.660   5.094
 4731SOL    HW225707   2.822   1.772   5.199
 4732SOL     OW25708   2.335   0.500   3.915
 4732SOL    HW125709   2.396   0.580   3.919
 4732SOL    HW225710   2.240   0.531   3.922
 4733SOL     OW25711   2.021   1.137   5.190
 4733SOL    HW125712   2.043   1.076   5.266
 4733SOL    HW225713   2.031   1.088   5.104
 4734SOL     OW25714   3.209   1.059   4.958
 4734SOL    HW125715   3.233   0.996   4.884
 4734SOL    HW225716   3.119   1.099   4.940
 4735SOL     OW25717   3.164   0.855   4.033
 4735SOL    HW125718   3.078   0.824   4.075
 4735SOL    HW225719   3.160   0.841   3.934
 4736SOL     OW25720   3.621   1.747   4.878
 4736SOL    HW125721   3.682   1.777   4.805
 4736SOL    HW225722   3.583   1.658   4.856
 4737SOL     OW25723   3.114   1.731   4.852
 4737SOL    HW125724   3.198   1.736   4.798
 4737SOL    HW225725   3.091   1.635   4.870
 4738SOL     OW25726   1.945   1.258   4.746
 4738SOL    HW125727   1.940   1.257   4.846
 4738SOL    HW225728   1.862   1.217   4.708
 4739SOL     OW25729   2.550   1.662   5.440
 4739SOL    HW125730   2.494   1.743   5.449
 4739SOL    HW225731   2.602   1.666   5.354
 4740SOL     OW25732   3.588   0.135   4.247
 4740SOL    HW125733   3.661   0.118   4.180
 4740SOL    HW225734   3.557   0.048   4.285
 4741SOL     OW25735   3.250   1.573   4.201
 4741SOL    HW125736   3.317   1.585   4.127
 4741SOL    HW225737   3.210   1.662   4.224
 4742SOL     OW25738   1.992   1.794   5.575
 4742SOL    HW125739   1.951   1.720   5.628
 4742SOL    HW225740   2.056   1.845   5.633
 4743SOL     OW25741   3.142   0.927   4.396
 4743SOL    HW125742   3.202   0.846   4.398
 4743SOL    HW225743   3.182   0.996   4.336
 4744SOL     OW25744   2.692   1.273   5.146
 4744SOL    HW125745   2.687   1.306   5.241
 4744SOL    HW225746   2.606   1.292   5.100
 4745SOL     OW25747   2.534   1.616   3.878
 4745SOL    HW125748   2.543   1.626   3.779
 4745SOL    HW225749   2.494   1.527   3.899
 4746SOL     OW25750   3.512   1.720   5.118
 4746SOL    HW125751   3.565   1.730   5.034
 4746SOL    HW225752   3.485   1.810   5.152
 4747SOL     OW25753   3.703   0.175   4.687
 4747SOL    HW125754   3.742   0.090   4.651
 4747SOL    HW225755   3.605   0.177   4.668
 4748SOL     OW25756   2.125   0.326   4.444
 4748SOL    HW125757   2.046   0.377   4.410
 4748SOL    HW225758   2.116   0.311   4.542
 4749SOL     OW25759   3.056   1.612   3.755
 4749SOL    HW125760   3.062   1.519   3.792
 4749SOL    HW225761   2.997   1.612   3.675
 4750SOL     OW25762   2.684   1.002   5.096
 4750SOL    HW125763   2.724   1.001   5.004
 4750SOL    HW225764   2.694   1.094   5.136
 4751SOL     OW25765   2.778   0.910   4.015
 4751SOL    HW125766   2.841   0.948   3.947
 4751SOL    HW225767   2.818   0.827   4.054
 4752SOL     OW25768   3.366   1.607   3.768
 4752SOL    HW125769   3.274   1.644   3.775
 4752SOL    HW225770   3.404   1.627   3.678
 4753SOL     OW25771   2.234   1.288   5.214
 4753SOL    HW125772   2.221   1.381   5.180
 4753SOL    HW225773   2.150   1.236   5.201
 4754SOL     OW25774   3.476   1.292   5.013
 4754SOL    HW125775   3.536   1.295   5.093
 4754SOL    HW225776   3.401   1.356   5.026
 4755SOL     OW25777   2.901   1.098   4.420
 4755SOL    HW125778   2.831   1.051   4.474
 4755SOL    HW225779   2.960   1.030   4.377
 4756SOL     OW25780   2.876   0.236   4.695
 4756SOL    HW125781   2.868   0.200   4.602
 4756SOL    HW225782   2.874   0.160   4.760
 4757SOL     OW25783   2.452   1.487   4.215
 4757SOL    HW125784   2.494   1.429   4.145
 4757SOL    HW225785   2.408   1.566   4.171
 4758SOL     OW25786   3.571   0.385   5.105
 4758SOL    HW125787   3.644   0.454   5.109
 4758SOL    HW225788   3.599   0.310   5.046
 4759SOL     OW25789   2.117   1.348   4.014
 4759SOL    HW125790   2.021   1.349   3.987
 4759SOL    HW225791   2.129   1.401   4.098
 4760SOL     OW25792   1.967   1.013   5.450
 4760SOL    HW125793   1.890   0.980   5.504
 4760SOL    HW225794   2.052   0.983   5.492
 4761SOL     OW25795   2.534   0.203   5.213
 4761SOL    HW125796   2.624   0.187   5.173
 4761SOL    HW225797   2.542   0.208   5.312
 4762SOL     OW25798   1.937   0.345   3.757
 4762SOL    HW125799   1.845   0.317   3.728
 4762SOL    HW225800   1.968   0.422   3.701
 4763SOL     OW25801   3.302   0.856   5.122
 4763SOL    HW125802   3.245   0.908   5.059
 4763SOL    HW225803   3.398   0.868   5.098
 4764SOL     OW25804   1.934   0.166   4.042
 4764SOL    HW125805   1.917   0.249   3.988
 4764SOL    HW225806   2.024   0.129   4.020
 4765SOL     OW25807   3.045   1.335   3.843
 4765SOL    HW125808   2.946   1.324   3.845
 4765SOL    HW225809   3.079   1.350   3.936
 4766SOL     OW25810   2.475   0.842   5.155
 4766SOL    HW125811   2.531   0.923   5.138
 4766SOL    HW225812   2.534   0.762   5.158
 4767SOL     OW25813   3.355   1.767   4.683
 4767SOL    HW125814   3.388   1.831   4.614
 4767SOL    HW225815   3.421   1.761   4.758
 4768SOL     OW25816   2.578   0.565   5.432
 4768SOL    HW125817   2.597   0.630   5.506
 4768SOL    HW225818   2.638   0.485   5.441
 4769SOL     OW25819   3.312   1.220   5.357
 4769SOL    HW125820   3.303   1.210   5.456
 4769SOL    HW225821   3.408   1.213   5.331
 4770SOL     OW25822   2.252   1.741   5.284
 4770SOL    HW125823   2.161   1.782   5.282
 4770SOL    HW225824   2.245   1.647   5.316
 4771SOL     OW25825   3.536   0.883   4.978
 4771SOL    HW125826   3.509   0.794   4.941
 4771SOL    HW225827   3.537   0.951   4.905
 4772SOL     OW25828   3.087   0.325   4.173
 4772SOL    HW125829   3.152   0.251   4.162
 4772SOL    HW225830   3.107   0.375   4.257
 4773SOL     OW25831   2.456   0.745   4.376
 4773SOL    HW125832   2.506   0.830   4.357
 4773SOL    HW225833   2.368   0.747   4.328
 4774SOL     OW25834   3.639   0.342   5.366
 4774SOL    HW125835   3.622   0.373   5.272
 4774SOL    HW225836   3.555   0.305   5.404
 4775SOL     OW25837   3.592   0.934   5.241
 4775SOL    HW125838   3.630   1.025   5.256
 4775SOL    HW225839   3.584   0.917   5.142
 4776SOL     OW25840   2.721   1.374   3.740
 4776SOL    HW125841   2.675   1.389   3.828
 4776SOL    HW225842   2.765   1.459   3.710
 4777SOL     OW25843   2.523   1.790   4.677
 4777SOL    HW125844   2.477   1.878   4.664
 4777SOL    HW225845   2.622   1.802   4.670
 4778SOL     OW25846   2.721   0.956   4.585
 4778SOL    HW125847   2.775   0.887   4.633
 4778SOL    HW225848   2.689   1.025   4.651
 4779SOL     OW25849   2.945   0.984   3.811
 4779SOL    HW125850   2.922   1.037   3.729
 4779SOL    HW225851   3.026   0.928   3.792
 4780SOL     OW25852   3.723   1.569   4.575
 4780SOL    HW125853   3.652   1.557   4.505
 4780SOL    HW225854   3.724   1.490   4.635
 4781SOL     OW25855   2.083   1.314   5.568
 4781SOL    HW125856   2.018   1.241   5.547
 4781SOL    HW225857   2.087   1.328   5.666
 4782SOL     OW25858   1.941   1.240   4.377
 4782SOL    HW125859   1.940   1.193   4.465
 4782SOL    HW225860   2.023   1.212   4.326
 4783SOL     OW25861   2.534   1.391   5.348
 4783SOL    HW125862   2.456   1.341   5.386
 4783SOL    HW225863   2.531   1.486   5.379
 4784SOL     OW25864   3.686   0.192   4.951
 4784SOL    HW125865   3.682   0.102   4.995
 4784SOL    HW225866   3.689   0.181   4.852
 4785SOL     OW25867   2.290   0.424   4.244
 4785SOL    HW125868   2.320   0.352   4.182
 4785SOL    HW225869   2.251   0.384   4.327
 4786SOL     OW25870   3.567   1.487   4.828
 4786SOL    HW125871   3.474   1.462   4.801
 4786SOL    HW225872   3.593   1.437   4.910
 4787SOL     OW25873   2.179   0.547   5.004
 4787SOL    HW125874   2.217   0.488   5.076
 4787SOL    HW225875   2.219   0.521   4.916
 4788SOL     OW25876   2.674   1.586   4.411
 4788SOL    HW125877   2.706   1.596   4.317
 4788SOL    HW225878   2.595   1.524   4.413
 4789SOL     OW25879   3.286   0.214   4.836
 4789SOL    HW125880   3.338   0.149   4.891
 4789SOL    HW225881   3.237   0.277   4.897
 4790SOL     OW25882   2.863   0.034   4.878
 4790SOL    HW125883   2.800  -0.038   4.847
 4790SOL    HW225884   2.956  -0.002   4.878
 4791SOL     OW25885   2.632   1.330   4.025
 4791SOL    HW125886   2.586   1.243   4.042
 4791SOL    HW225887   2.723   1.327   4.066
 4792SOL     OW25888   2.480   1.567   5.008
 4792SOL    HW125889   2.475   1.649   5.065
 4792SOL    HW225890   2.569   1.564   4.963
 4793SOL     OW25891   3.214   0.052   3.892
 4793SOL    HW125892   3.249   0.011   3.808
 4793SOL    HW225893   3.124   0.014   3.912
 4794SOL     OW25894   3.162   0.453   4.415
 4794SOL    HW125895   3.103   0.533   4.419
 4794SOL    HW225896   3.177   0.418   4.508
 4795SOL     OW25897   3.455   0.221   4.606
 4795SOL    HW125898   3.371   0.220   4.660
 4795SOL    HW225899   3.457   0.304   4.550
 4796SOL     OW25900   1.901   1.077   4.024
 4796SOL    HW125901   2.000   1.066   4.015
 4796SOL    HW225902   1.861   0.991   4.056
 4797SOL     OW25903   2.737   1.646   4.061
 4797SOL    HW125904   2.660   1.611   4.007
 4797SOL    HW225905   2.705   1.717   4.123
 4798SOL     OW25906   2.092   0.628   5.699
 4798SOL    HW125907   1.999   0.626   5.736
 4798SOL    HW225908   2.093   0.589   5.607
 4799SOL     OW25909   2.087   0.275   6.582
 4799SOL    HW125910   2.122   0.258   6.674
 4799SOL    HW225911   1.999   0.230   6.570
 4800SOL     OW25912   1.881   0.368   6.233
 4800SOL    HW125913   1.799   0.411   6.272
 4800SOL    HW225914   1.853   0.295   6.170
 4801SOL     OW25915   2.431   1.275   6.751
 4801SOL    HW125916   2.338   1.268   6.714
 4801SOL    HW225917   2.442   1.364   6.795
 4802SOL     OW25918   3.417   1.511   6.289
 4802SOL    HW125919   3.360   1.495   6.370
 4802SOL    HW225920   3.358   1.521   6.209
 4803SOL     OW25921   2.997   0.703   6.303
 4803SOL    HW125922   3.054   0.781   6.278
 4803SOL    HW225923   2.937   0.729   6.379
 4804SOL     OW25924   3.617   0.607   5.817
 4804SOL    HW125925   3.605   0.594   5.718
 4804SOL    HW225926   3.587   0.526   5.866
 4805SOL     OW25927   2.630   1.144   6.609
 4805SOL    HW125928   2.552   1.161   6.669
 4805SOL    HW225929   2.664   1.231   6.573
 4806SOL     OW25930   2.712   0.798   7.409
 4806SOL    HW125931   2.708   0.874   7.474
 4806SOL    HW225932   2.734   0.834   7.318
 4807SOL     OW25933   2.547   1.012   6.251
 4807SOL    HW125934   2.616   0.996   6.321
 4807SOL    HW225935   2.474   1.069   6.289
 4808SOL     OW25936   2.548   1.161   7.389
 4808SOL    HW125937   2.608   1.240   7.403
 4808SOL    HW225938   2.462   1.192   7.348
 4809SOL     OW25939   2.197   1.435   6.647
 4809SOL    HW125940   2.119   1.404   6.594
 4809SOL    HW225941   2.255   1.493   6.590
 4810SOL     OW25942   3.322   1.505   6.925
 4810SOL    HW125943   3.346   1.599   6.951
 4810SOL    HW225944   3.306   1.451   7.007
 4811SOL     OW25945   2.300   0.392   7.085
 4811SOL    HW125946   2.382   0.336   7.094
 4811SOL    HW225947   2.219   0.334   7.089
 4812SOL     OW25948   3.465   0.447   6.323
 4812SOL    HW125949   3.391   0.493   6.273
 4812SOL    HW225950   3.516   0.515   6.376
 4813SOL     OW25951   2.093   1.713   6.069
 4813SOL    HW125952   2.127   1.790   6.123
 4813SOL    HW225953   2.137   1.713   5.979
 4814SOL     OW25954   2.989   1.341   7.276
 4814SOL    HW125955   3.036   1.341   7.364
 4814SOL    HW225956   2.941   1.254   7.265
 4815SOL     OW25957   2.092   1.434   6.124
 4815SOL    HW125958   2.066   1.530   6.124
 4815SOL    HW225959   2.021   1.380   6.169
 4816SOL     OW25960   2.102   1.091   6.472
 4816SOL    HW125961   2.116   1.007   6.524
 4816SOL    HW225962   2.047   1.155   6.527
 4817SOL     OW25963   2.482   1.786   7.025
 4817SOL    HW125964   2.390   1.769   7.060
 4817SOL    HW225965   2.510   1.878   7.051
 4818SOL     OW25966   2.468   0.964   5.709
 4818SOL    HW125967   2.475   1.048   5.655
 4818SOL    HW225968   2.514   0.977   5.797
 4819SOL     OW25969   3.456   0.114   7.066
 4819SOL    HW125970   3.438   0.181   6.994
 4819SOL    HW225971   3.453   0.160   7.155
 4820SOL     OW25972   1.984   0.643   6.149
 4820SOL    HW125973   1.939   0.555   6.166
 4820SOL    HW225974   1.983   0.697   6.233
 4821SOL     OW25975   3.704   1.767   5.945
 4821SOL    HW125976   3.758   1.738   6.025
 4821SOL    HW225977   3.734   1.857   5.916
 4822SOL     OW25978   1.889   1.596   5.703
 4822SOL    HW125979   1.870   1.500   5.724
 4822SOL    HW225980   1.856   1.654   5.778
 4823SOL     OW25981   3.551   0.922   6.198
 4823SOL    HW125982   3.646   0.893   6.206
 4823SOL    HW225983   3.543   0.987   6.123
 4824SOL     OW25984   3.503   1.108   6.018
 4824SOL    HW125985   3.589   1.110   5.966
 4824SOL    HW225986   3.517   1.155   6.106
 4825SOL     OW25987   1.975   0.737   7.183
 4825SOL    HW125988   2.063   0.724   7.228
 4825SOL    HW225989   1.962   0.834   7.161
 4826SOL     OW25990   2.475   1.365   6.312
 4826SOL    HW125991   2.426   1.278   6.321
 4826SOL    HW225992   2.452   1.408   6.225
 4827SOL     OW25993   3.155   1.228   7.009
 4827SOL    HW125994   3.192   1.155   6.951
 4827SOL    HW225995   3.207   1.233   7.094
 4828SOL     OW25996   2.671   0.004   6.088
 4828SOL    HW125997   2.711   0.095   6.079
 4828SOL    HW225998   2.571   0.012   6.094
 4829SOL     OW25999   2.059   0.976   6.850
 4829SOL    HW126000   2.148   0.931   6.836
 4829SOL    HW226001   1.986   0.911   6.831
 4830SOL     OW26002   3.387   0.999   5.776
 4830SOL    HW126003   3.324   0.923   5.789
 4830SOL    HW226004   3.435   1.017   5.862
 4831SOL     OW26005   3.049   1.792   7.202
 4831SOL    HW126006   3.073   1.852   7.126
 4831SOL    HW226007   3.056   1.697   7.172
 4832SOL     OW26008   2.179   0.251   7.387
 4832SOL    HW126009   2.250   0.322   7.393
 4832SOL    HW226010   2.091   0.290   7.415
 4833SOL     OW26011   3.328   1.417   6.539
 4833SOL    HW126012   3.269   1.423   6.619
 4833SOL    HW226013   3.313   1.329   6.493
 4834SOL     OW26014   3.529   1.714   6.158
 4834SOL    HW126015   3.488   1.691   6.070
 4834SOL    HW226016   3.511   1.640   6.223
 4835SOL     OW26017   2.460   0.729   5.856
 4835SOL    HW126018   2.484   0.798   5.788
 4835SOL    HW226019   2.382   0.762   5.910
 4836SOL     OW26020   3.143   0.345   6.530
 4836SOL    HW126021   3.057   0.295   6.517
 4836SOL    HW226022   3.205   0.291   6.586
 4837SOL     OW26023   3.438   1.662   5.893
 4837SOL    HW126024   3.527   1.708   5.896
 4837SOL    HW226025   3.417   1.638   5.798
 4838SOL     OW26026   2.669   0.605   7.051
 4838SOL    HW126027   2.622   0.602   7.140
 4838SOL    HW226028   2.618   0.550   6.985
 4839SOL     OW26029   3.256   0.469   7.260
 4839SOL    HW126030   3.236   0.512   7.348
 4839SOL    HW226031   3.334   0.407   7.269
 4840SOL     OW26032   2.835   0.890   7.158
 4840SOL    HW126033   2.881   0.806   7.129
 4840SOL    HW226034   2.779   0.924   7.083
 4841SOL     OW26035   2.853   0.410   6.828
 4841SOL    HW126036   2.776   0.444   6.882
 4841SOL    HW226037   2.819   0.359   6.749
 4842SOL     OW26038   2.903   0.701   6.015
 4842SOL    HW126039   2.929   0.697   6.111
 4842SOL    HW226040   2.818   0.650   6.001
 4843SOL     OW26041   1.938   0.811   6.375
 4843SOL    HW126042   2.037   0.799   6.384
 4843SOL    HW226043   1.914   0.906   6.396
 4844SOL     OW26044   1.992   1.821   7.157
 4844SOL    HW126045   1.982   1.806   7.256
 4844SOL    HW226046   1.906   1.857   7.121
 4845SOL     OW26047   2.727   0.348   5.781
 4845SOL    HW126048   2.786   0.411   5.732
 4845SOL    HW226049   2.746   0.254   5.752
 4846SOL     OW26050   3.581   0.585   7.417
 4846SOL    HW126051   3.555   0.674   7.381
 4846SOL    HW226052   3.579   0.517   7.344
 4847SOL     OW26053   3.224   1.144   6.131
 4847SOL    HW126054   3.307   1.115   6.083
 4847SOL    HW226055   3.175   1.211   6.075
 4848SOL     OW26056   2.412   0.196   6.471
 4848SOL    HW126057   2.407   0.191   6.571
 4848SOL    HW226058   2.414   0.292   6.442
 4849SOL     OW26059   2.870   1.456   6.063
 4849SOL    HW126060   2.824   1.528   6.011
 4849SOL    HW226061   2.866   1.476   6.161
 4850SOL     OW26062   2.213   1.801   6.439
 4850SOL    HW126063   2.263   1.715   6.445
 4850SOL    HW226064   2.278   1.878   6.436
 4851SOL     OW26065   3.657   1.066   6.459
 4851SOL    HW126066   3.595   1.051   6.383
 4851SOL    HW226067   3.605   1.077   6.544
 4852SOL     OW26068   3.089   1.550   7.092
 4852SOL    HW126069   3.095   1.473   7.156
 4852SOL    HW226070   3.037   1.524   7.012
 4853SOL     OW26071   2.183   0.943   5.828
 4853SOL    HW126072   2.265   0.982   5.786
 4853SOL    HW226073   2.156   0.861   5.779
 4854SOL     OW26074   3.320   0.735   6.314
 4854SOL    HW126075   3.315   0.670   6.389
 4854SOL    HW226076   3.400   0.794   6.327
 4855SOL     OW26077   2.323   1.266   7.313
 4855SOL    HW126078   2.273   1.267   7.227
 4855SOL    HW226079   2.260   1.248   7.389
 4856SOL     OW26080   2.973   1.776   5.823
 4856SOL    HW126081   2.913   1.714   5.873
 4856SOL    HW226082   3.004   1.732   5.738
 4857SOL     OW26083   2.064   0.285   7.084
 4857SOL    HW126084   1.984   0.345   7.071
 4857SOL    HW226085   2.054   0.236   7.170
 4858SOL     OW26086   3.494   1.377   5.667
 4858SOL    HW126087   3.462   1.471   5.657
 4858SOL    HW226088   3.418   1.314   5.655
 4859SOL     OW26089   2.326   1.743   5.909
 4859SOL    HW126090   2.359   1.782   5.995
 4859SOL    HW226091   2.402   1.736   5.844
 4860SOL     OW26092   3.262   0.107   6.012
 4860SOL    HW126093   3.238   0.070   5.922
 4860SOL    HW226094   3.361   0.123   6.016
 4861SOL     OW26095   2.111   1.785   6.827
 4861SOL    HW126096   2.168   1.720   6.877
 4861SOL    HW226097   2.095   1.752   6.734
 4862SOL     OW26098   2.802   1.698   6.490
 4862SOL    HW126099   2.882   1.641   6.511
 4862SOL    HW226100   2.753   1.658   6.413
 4863SOL     OW26101   2.244   0.700   6.066
 4863SOL    HW126102   2.289   0.610   6.063
 4863SOL    HW226103   2.150   0.689   6.099
 4864SOL     OW26104   3.409   0.222   7.315
 4864SOL    HW126105   3.404   0.259   7.407
 4864SOL    HW226106   3.337   0.153   7.303
 4865SOL     OW26107   2.476   0.122   5.703
 4865SOL    HW126108   2.574   0.100   5.710
 4865SOL    HW226109   2.445   0.105   5.610
 4866SOL     OW26110   2.643   0.264   7.335
 4866SOL    HW126111   2.710   0.203   7.378
 4866SOL    HW226112   2.570   0.283   7.400
 4867SOL     OW26113   2.750   1.514   6.781
 4867SOL    HW126114   2.727   1.489   6.687
 4867SOL    HW226115   2.811   1.445   6.820
 4868SOL     OW26116   3.213   0.590   7.019
 4868SOL    HW126117   3.241   0.547   7.104
 4868SOL    HW226118   3.238   0.686   7.020
 4869SOL     OW26119   2.665   1.402   6.510
 4869SOL    HW126120   2.755   1.416   6.468
 4869SOL    HW226121   2.594   1.404   6.439
 4870SOL     OW26122   2.784   0.503   6.485
 4870SOL    HW126123   2.759   0.494   6.389
 4870SOL    HW226124   2.832   0.421   6.516
 4871SOL     OW26125   2.401   0.064   6.098
 4871SOL    HW126126   2.320   0.065   6.156
 4871SOL    HW226127   2.404   0.147   6.043
 4872SOL     OW26128   3.296   1.188   5.627
 4872SOL    HW126129   3.328   1.112   5.684
 4872SOL    HW226130   3.204   1.215   5.657
 4873SOL     OW26131   2.159   0.035   5.757
 4873SOL    HW126132   2.208   0.119   5.736
 4873SOL    HW226133   2.221  -0.030   5.802
 4874SOL     OW26134   2.797   0.236   6.066
 4874SOL    HW126135   2.749   0.277   5.988
 4874SOL    HW226136   2.896   0.234   6.047
 4875SOL     OW26137   2.938   0.683   7.050
 4875SOL    HW126138   2.858   0.622   7.053
 4875SOL    HW226139   3.019   0.630   7.026
 4876SOL     OW26140   3.089   1.570   6.379
 4876SOL    HW126141   3.110   1.644   6.314
 4876SOL    HW226142   3.157   1.570   6.452
 4877SOL     OW26143   2.321   1.152   6.327
 4877SOL    HW126144   2.250   1.125   6.392
 4877SOL    HW226145   2.295   1.124   6.234
 4878SOL     OW26146   3.133   1.797   6.177
 4878SOL    HW126147   3.177   1.861   6.113
 4878SOL    HW226148   3.083   1.849   6.247
 4879SOL     OW26149   2.894   0.549   5.602
 4879SOL    HW126150   2.853   0.631   5.563
 4879SOL    HW226151   2.958   0.575   5.675
 4880SOL     OW26152   1.940   0.556   6.972
 4880SOL    HW126153   2.032   0.555   6.931
 4880SOL    HW226154   1.934   0.630   7.039
 4881SOL     OW26155   2.423   0.222   6.733
 4881SOL    HW126156   2.461   0.138   6.770
 4881SOL    HW226157   2.335   0.241   6.777
 4882SOL     OW26158   2.728   0.454   6.228
 4882SOL    HW126159   2.696   0.526   6.166
 4882SOL    HW226160   2.752   0.373   6.175
 4883SOL     OW26161   2.879   0.039   6.339
 4883SOL    HW126162   2.807   0.044   6.270
 4883SOL    HW226163   2.855  -0.030   6.408
 4884SOL     OW26164   3.291   1.173   6.453
 4884SOL    HW126165   3.236   1.089   6.446
 4884SOL    HW226166   3.317   1.202   6.361
 4885SOL     OW26167   3.328   0.590   6.578
 4885SOL    HW126168   3.298   0.495   6.585
 4885SOL    HW226169   3.401   0.606   6.644
 4886SOL     OW26170   3.719   0.833   5.963
 4886SOL    HW126171   3.761   0.769   6.027
 4886SOL    HW226172   3.681   0.782   5.885
 4887SOL     OW26173   2.350   1.385   5.760
 4887SOL    HW126174   2.263   1.370   5.807
 4887SOL    HW226175   2.333   1.411   5.665
 4888SOL     OW26176   3.526   1.280   6.243
 4888SOL    HW126177   3.625   1.288   6.257
 4888SOL    HW226178   3.481   1.364   6.274
 4889SOL     OW26179   3.252   0.575   5.664
 4889SOL    HW126180   3.198   0.554   5.745
 4889SOL    HW226181   3.343   0.534   5.673
 4890SOL     OW26182   2.389   0.256   5.914
 4890SOL    HW126183   2.416   0.197   5.839
 4890SOL    HW226184   2.389   0.351   5.883
 4891SOL     OW26185   3.616   1.223   7.174
 4891SOL    HW126186   3.707   1.184   7.161
 4891SOL    HW226187   3.624   1.319   7.198
 4892SOL     OW26188   2.926   1.347   6.926
 4892SOL    HW126189   2.846   1.324   6.981
 4892SOL    HW226190   3.009   1.321   6.975
 4893SOL     OW26191   3.454   1.629   7.211
 4893SOL    HW126192   3.481   1.663   7.121
 4893SOL    HW226193   3.533   1.591   7.257
 4894SOL     OW26194   2.973   1.195   6.686
 4894SOL    HW126195   2.933   1.239   6.767
 4894SOL    HW226196   2.932   1.232   6.603
 4895SOL     OW26197   3.500   1.099   6.665
 4895SOL    HW126198   3.505   1.180   6.724
 4895SOL    HW226199   3.414   1.101   6.614
 4896SOL     OW26200   2.777   0.089   6.988
 4896SOL    HW126201   2.802   0.069   6.893
 4896SOL    HW226202   2.849   0.145   7.030
 4897SOL     OW26203   2.842   1.116   7.305
 4897SOL    HW126204   2.743   1.122   7.315
 4897SOL    HW226205   2.865   1.036   7.249
 4898SOL     OW26206   2.567   1.050   5.954
 4898SOL    HW126207   2.553   1.057   6.053
 4898SOL    HW226208   2.651   0.999   5.936
 4899SOL     OW26209   2.272   0.813   6.837
 4899SOL    HW126210   2.358   0.825   6.887
 4899SOL    HW226211   2.230   0.726   6.864
 4900SOL     OW26212   3.136   0.386   6.848
 4900SOL    HW126213   3.157   0.460   6.912
 4900SOL    HW226214   3.047   0.403   6.805
 4901SOL     OW26215   1.926   1.564   6.917
 4901SOL    HW126216   1.880   1.646   6.883
 4901SOL    HW226217   2.024   1.583   6.926
 4902SOL     OW26218   2.229   1.100   6.087
 4902SOL    HW126219   2.222   1.183   6.031
 4902SOL    HW226220   2.233   1.020   6.027
 4903SOL     OW26221   2.428   0.537   6.451
 4903SOL    HW126222   2.440   0.603   6.377
 4903SOL    HW226223   2.474   0.571   6.534
 4904SOL     OW26224   3.114   1.348   5.974
 4904SOL    HW126225   3.164   1.425   6.014
 4904SOL    HW226226   3.019   1.350   6.006
 4905SOL     OW26227   3.134   1.445   6.728
 4905SOL    HW126228   3.181   1.458   6.815
 4905SOL    HW226229   3.068   1.371   6.737
 4906SOL     OW26230   3.444   0.639   6.058
 4906SOL    HW126231   3.413   0.700   6.131
 4906SOL    HW226232   3.494   0.691   5.989
 4907SOL     OW26233   2.216   1.510   6.915
 4907SOL    HW126234   2.195   1.466   6.828
 4907SOL    HW226235   2.313   1.536   6.918
 4908SOL     OW26236   2.264   0.751   7.184
 4908SOL    HW126237   2.332   0.806   7.137
 4908SOL    HW226238   2.304   0.663   7.211
 4909SOL     OW26239   3.449   0.779   7.256
 4909SOL    HW126240   3.357   0.817   7.251
 4909SOL    HW226241   3.509   0.826   7.191
 4910SOL     OW26242   2.875   0.105   7.356
 4910SOL    HW126243   2.881   0.190   7.304
 4910SOL    HW226244   2.907   0.029   7.299
 4911SOL     OW26245   2.366   0.050   7.326
 4911SOL    HW126246   2.324  -0.007   7.256
 4911SOL    HW226247   2.300   0.119   7.358
 4912SOL     OW26248   2.435   0.870   6.615
 4912SOL    HW126249   2.479   0.959   6.606
 4912SOL    HW226250   2.372   0.870   6.692
 4913SOL     OW26251   3.222   0.862   6.631
 4913SOL    HW126252   3.147   0.862   6.565
 4913SOL    HW226253   3.259   0.770   6.640
 4914SOL     OW26254   3.071   0.525   5.861
 4914SOL    HW126255   3.084   0.441   5.915
 4914SOL    HW226256   3.042   0.599   5.921
 4915SOL     OW26257   2.169   0.213   6.817
 4915SOL    HW126258   2.146   0.250   6.907
 4915SOL    HW226259   2.139   0.118   6.811
 4916SOL     OW26260   1.899   1.310   6.868
 4916SOL    HW126261   1.952   1.261   6.936
 4916SOL    HW226262   1.921   1.408   6.873
 4917SOL     OW26263   2.594   0.634   6.650
 4917SOL    HW126264   2.653   0.608   6.574
 4917SOL    HW226265   2.566   0.730   6.639
 4918SOL     OW26266   3.590   0.935   7.440
 4918SOL    HW126267   3.544   0.928   7.351
 4918SOL    HW226268   3.528   0.979   7.506
 4919SOL     OW26269   2.169   0.063   6.204
 4919SOL    HW126270   2.158   0.157   6.237
 4919SOL    HW226271   2.164   0.000   6.281
 4920SOL     OW26272   3.484   0.367   5.960
 4920SOL    HW126273   3.486   0.291   6.024
 4920SOL    HW226274   3.436   0.444   6.000
 4921SOL     OW26275   2.885   0.766   6.552
 4921SOL    HW126276   2.900   0.787   6.648
 4921SOL    HW226277   2.855   0.671   6.543
 4922SOL     OW26278   2.842   1.573   7.286
 4922SOL    HW126279   2.822   1.617   7.198
 4922SOL    HW226280   2.881   1.482   7.270
 4923SOL     OW26281   3.721   1.518   7.191
 4923SOL    HW126282   3.735   1.545   7.096
 4923SOL    HW226283   3.804   1.540   7.244
 4924SOL     OW26284   2.212   0.898   7.390
 4924SOL    HW126285   2.288   0.942   7.438
 4924SOL    HW226286   2.247   0.851   7.308
 4925SOL     OW26287   3.402   0.274   5.711
 4925SOL    HW126288   3.341   0.199   5.734
 4925SOL    HW226289   3.424   0.326   5.794
 4926SOL     OW26290   3.165   0.838   5.628
 4926SOL    HW126291   3.199   0.745   5.643
 4926SOL    HW226292   3.183   0.865   5.533
 4927SOL     OW26293   2.930   1.333   6.435
 4927SOL    HW126294   2.937   1.249   6.380
 4927SOL    HW226295   2.992   1.402   6.399
 4928SOL     OW26296   2.181   0.810   6.535
 4928SOL    HW126297   2.274   0.846   6.540
 4928SOL    HW226298   2.175   0.725   6.587
 4929SOL     OW26299   2.201   0.509   6.592
 4929SOL    HW126300   2.149   0.426   6.575
 4929SOL    HW226301   2.278   0.514   6.528
 4930SOL     OW26302   3.000   0.380   7.264
 4930SOL    HW126303   2.955   0.443   7.328
 4930SOL    HW226304   3.093   0.411   7.247
 4931SOL     OW26305   3.022   0.207   7.063
 4931SOL    HW126306   3.022   0.271   7.140
 4931SOL    HW226307   3.050   0.255   6.980
 4932SOL     OW26308   1.870   1.326   5.786
 4932SOL    HW126309   1.777   1.347   5.755
 4932SOL    HW226310   1.880   1.227   5.799
 4933SOL     OW26311   1.950   1.801   6.513
 4933SOL    HW126312   1.908   1.715   6.486
 4933SOL    HW226313   2.044   1.804   6.479
 4934SOL     OW26314   2.366   1.568   6.496
 4934SOL    HW126315   2.432   1.642   6.505
 4934SOL    HW226316   2.410   1.489   6.454
 4935SOL     OW26317   2.864   0.796   6.824
 4935SOL    HW126318   2.905   0.764   6.910
 4935SOL    HW226319   2.768   0.769   6.821
 4936SOL     OW26320   1.902   0.544   6.700
 4936SOL    HW126321   1.987   0.511   6.659
 4936SOL    HW226322   1.915   0.559   6.798
 4937SOL     OW26323   2.051   0.520   7.308
 4937SOL    HW126324   2.110   0.480   7.238
 4937SOL    HW226325   1.993   0.591   7.267
 4938SOL     OW26326   3.231   0.950   7.246
 4938SOL    HW126327   3.270   1.039   7.266
 4938SOL    HW226328   3.241   0.930   7.149
 4939SOL     OW26329   2.677   0.572   5.911
 4939SOL    HW126330   2.684   0.483   5.865
 4939SOL    HW226331   2.583   0.606   5.903
 4940SOL     OW26332   3.519   0.604   6.792
 4940SOL    HW126333   3.481   0.535   6.854
 4940SOL    HW226334   3.601   0.568   6.748
 4941SOL     OW26335   2.114   1.564   7.330
 4941SOL    HW126336   2.084   1.621   7.406
 4941SOL    HW226337   2.107   1.467   7.356
 4942SOL     OW26338   2.533   0.464   6.855
 4942SOL    HW126339   2.499   0.375   6.825
 4942SOL    HW226340   2.559   0.518   6.775
 4943SOL     OW26341   2.792   1.678   7.051
 4943SOL    HW126342   2.768   1.660   6.956
 4943SOL    HW226343   2.822   1.772   7.061
 4944SOL     OW26344   2.335   0.500   5.777
 4944SOL    HW126345   2.396   0.580   5.781
 4944SOL    HW226346   2.240   0.531   5.784
 4945SOL     OW26347   2.021   1.137   7.052
 4945SOL    HW126348   2.043   1.076   7.128
 4945SOL    HW226349   2.031   1.088   6.966
 4946SOL     OW26350   3.209   1.059   6.820
 4946SOL    HW126351   3.233   0.996   6.746
 4946SOL    HW226352   3.119   1.099   6.802
 4947SOL     OW26353   3.164   0.855   5.895
 4947SOL    HW126354   3.078   0.824   5.937
 4947SOL    HW226355   3.160   0.841   5.796
 4948SOL     OW26356   3.621   1.747   6.740
 4948SOL    HW126357   3.682   1.777   6.667
 4948SOL    HW226358   3.583   1.658   6.718
 4949SOL     OW26359   3.114   1.731   6.714
 4949SOL    HW126360   3.198   1.736   6.660
 4949SOL    HW226361   3.091   1.635   6.732
 4950SOL     OW26362   1.945   1.258   6.608
 4950SOL    HW126363   1.940   1.257   6.708
 4950SOL    HW226364   1.862   1.217   6.570
 4951SOL     OW26365   2.550   1.662   7.302
 4951SOL    HW126366   2.494   1.743   7.311
 4951SOL    HW226367   2.602   1.666   7.216
 4952SOL     OW26368   3.588   0.135   6.109
 4952SOL    HW126369   3.661   0.118   6.042
 4952SOL    HW226370   3.557   0.048   6.147
 4953SOL     OW26371   3.250   1.573   6.063
 4953SOL    HW126372   3.317   1.585   5.989
 4953SOL    HW226373   3.210   1.662   6.086
 4954SOL     OW26374   1.992   1.794   7.437
 4954SOL    HW126375   1.951   1.720   7.490
 4954SOL    HW226376   2.056   1.845   7.495
 4955SOL     OW26377   3.142   0.927   6.258
 4955SOL    HW126378   3.202   0.846   6.260
 4955SOL    HW226379   3.182   0.996   6.198
 4956SOL     OW26380   2.692   1.273   7.008
 4956SOL    HW126381   2.687   1.306   7.103
 4956SOL    HW226382   2.606   1.292   6.962
 4957SOL     OW26383   2.534   1.616   5.740
 4957SOL    HW126384   2.543   1.626   5.641
 4957SOL    HW226385   2.494   1.527   5.761
 4958SOL     OW26386   3.512   1.720   6.980
 4958SOL    HW126387   3.565   1.730   6.896
 4958SOL    HW226388   3.485   1.810   7.014
 4959SOL     OW26389   3.703   0.175   6.549
 4959SOL    HW126390   3.742   0.090   6.513
 4959SOL    HW226391   3.605   0.177   6.530
 4960SOL     OW26392   2.125   0.326   6.306
 4960SOL    HW126393   2.046   0.377   6.272
 4960SOL    HW226394   2.116   0.311   6.404
 4961SOL     OW26395   3.056   1.612   5.617
 4961SOL    HW126396   3.062   1.519   5.654
 4961SOL    HW226397   2.997   1.612   5.537
 4962SOL     OW26398   2.684   1.002   6.958
 4962SOL    HW126399   2.724   1.001   6.866
 4962SOL    HW226400   2.694   1.094   6.998
 4963SOL     OW26401   2.778   0.910   5.877
 4963SOL    HW126402   2.841   0.948   5.809
 4963SOL    HW226403   2.818   0.827   5.916
 4964SOL     OW26404   3.366   1.607   5.630
 4964SOL    HW126405   3.274   1.644   5.637
 4964SOL    HW226406   3.404   1.627   5.540
 4965SOL     OW26407   2.234   1.288   7.076
 4965SOL    HW126408   2.221   1.381   7.042
 4965SOL    HW226409   2.150   1.236   7.063
 4966SOL     OW26410   3.476   1.292   6.875
 4966SOL    HW126411   3.536   1.295   6.955
 4966SOL    HW226412   3.401   1.356   6.888
 4967SOL     OW26413   2.901   1.098   6.282
 4967SOL    HW126414   2.831   1.051   6.336
 4967SOL    HW226415   2.960   1.030   6.239
 4968SOL     OW26416   2.876   0.236   6.557
 4968SOL    HW126417   2.868   0.200   6.464
 4968SOL    HW226418   2.874   0.160   6.622
 4969SOL     OW26419   2.452   1.487   6.077
 4969SOL    HW126420   2.494   1.429   6.007
 4969SOL    HW226421   2.408   1.566   6.033
 4970SOL     OW26422   3.571   0.385   6.967
 4970SOL    HW126423   3.644   0.454   6.971
 4970SOL    HW226424   3.599   0.310   6.908
 4971SOL     OW26425   2.117   1.348   5.876
 4971SOL    HW126426   2.021   1.349   5.849
 4971SOL    HW226427   2.129   1.401   5.960
 4972SOL     OW26428   1.967   1.013   7.312
 4972SOL    HW126429   1.890   0.980   7.366
 4972SOL    HW226430   2.052   0.983   7.354
 4973SOL     OW26431   2.534   0.203   7.075
 4973SOL    HW126432   2.624   0.187   7.035
 4973SOL    HW226433   2.542   0.208   7.174
 4974SOL     OW26434   1.937   0.345   5.619
 4974SOL    HW126435   1.845   0.317   5.590
 4974SOL    HW226436   1.968   0.422   5.563
 4975SOL     OW26437   3.302   0.856   6.984
 4975SOL    HW126438   3.245   0.908   6.921
 4975SOL    HW226439   3.398   0.868   6.960
 4976SOL     OW26440   1.934   0.166   5.904
 4976SOL    HW126441   1.917   0.249   5.850
 4976SOL    HW226442   2.024   0.129   5.882
 4977SOL     OW26443   3.045   1.335   5.705
 4977SOL    HW126444   2.946   1.324   5.707
 4977SOL    HW226445   3.079   1.350   5.798
 4978SOL     OW26446   2.475   0.842   7.017
 4978SOL    HW126447   2.531   0.923   7.000
 4978SOL    HW226448   2.534   0.762   7.020
 4979SOL     OW26449   3.355   1.767   6.545
 4979SOL    HW126450   3.388   1.831   6.476
 4979SOL    HW226451   3.421   1.761   6.620
 4980SOL     OW26452   2.578   0.565   7.294
 4980SOL    HW126453   2.597   0.630   7.368
 4980SOL    HW226454   2.638   0.485   7.303
 4981SOL     OW26455   3.312   1.220   7.219
 4981SOL    HW126456   3.303   1.210   7.318
 4981SOL    HW226457   3.408   1.213   7.193
 4982SOL     OW26458   2.252   1.741   7.146
 4982SOL    HW126459   2.161   1.782   7.144
 4982SOL    HW226460   2.245   1.647   7.178
 4983SOL     OW26461   3.536   0.883   6.840
 4983SOL    HW126462   3.509   0.794   6.803
 4983SOL    HW226463   3.537   0.951   6.767
 4984SOL     OW26464   3.087   0.325   6.035
 4984SOL    HW126465   3.152   0.251   6.024
 4984SOL    HW226466   3.107   0.375   6.119
 4985SOL     OW26467   2.456   0.745   6.238
 4985SOL    HW126468   2.506   0.830   6.219
 4985SOL    HW226469   2.368   0.747   6.190
 4986SOL     OW26470   3.639   0.342   7.228
 4986SOL    HW126471   3.622   0.373   7.134
 4986SOL    HW226472   3.555   0.305   7.266
 4987SOL     OW26473   3.592   0.934   7.103
 4987SOL    HW126474   3.630   1.025   7.118
 4987SOL    HW226475   3.584   0.917   7.004
 4988SOL     OW26476   2.721   1.374   5.602
 4988SOL    HW126477   2.675   1.389   5.690
 4988SOL    HW226478   2.765   1.459   5.572
 4989SOL     OW26479   2.523   1.790   6.539
 4989SOL    HW126480   2.477   1.878   6.526
 4989SOL    HW226481   2.622   1.802   6.532
 4990SOL     OW26482   2.721   0.956   6.447
 4990SOL    HW126483   2.775   0.887   6.495
 4990SOL    HW226484   2.689   1.025   6.513
 4991SOL     OW26485   2.945   0.984   5.673
 4991SOL    HW126486   2.922   1.037   5.591
 4991SOL    HW226487   3.026   0.928   5.654
 4992SOL     OW26488   3.723   1.569   6.437
 4992SOL    HW126489   3.652   1.557   6.367
 4992SOL    HW226490   3.724   1.490   6.497
 4993SOL     OW26491   2.083   1.314   7.430
 4993SOL    HW126492   2.018   1.241   7.409
 4993SOL    HW226493   2.087   1.328   7.528
 4994SOL     OW26494   1.941   1.240   6.239
 4994SOL    HW126495   1.940   1.193   6.327
 4994SOL    HW226496   2.023   1.212   6.188
 4995SOL     OW26497   2.534   1.391   7.210
 4995SOL    HW126498   2.456   1.341   7.248
 4995SOL    HW226499   2.531   1.486   7.241
 4996SOL     OW26500   3.686   0.192   6.813
 4996SOL    HW126501   3.682   0.102   6.857
 4996SOL    HW226502   3.689   0.181   6.714
 4997SOL     OW26503   2.290   0.424   6.106
 4997SOL    HW126504   2.320   0.352   6.044
 4997SOL    HW226505   2.251   0.384   6.189
 4998SOL     OW26506   3.567   1.487   6.690
 4998SOL    HW126507   3.474   1.462   6.663
 4998SOL    HW226508   3.593   1.437   6.772
 4999SOL     OW26509   2.179   0.547   6.866
 4999SOL    HW126510   2.217   0.488   6.938
 4999SOL    HW226511   2.219   0.521   6.778
 5000SOL     OW26512   2.674   1.586   6.273
 5000SOL    HW126513   2.706   1.596   6.179
 5000SOL    HW226514   2.595   1.524   6.275
 5001SOL     OW26515   3.286   0.214   6.698
 5001SOL    HW126516   3.338   0.149   6.753
 5001SOL    HW226517   3.237   0.277   6.759
 5002SOL     OW26518   2.863   0.034   6.740
 5002SOL    HW126519   2.800  -0.038   6.709
 5002SOL    HW226520   2.956  -0.002   6.740
 5003SOL     OW26521   2.632   1.330   5.887
 5003SOL    HW126522   2.586   1.243   5.904
 5003SOL    HW226523   2.723   1.327   5.928
 5004SOL     OW26524   2.480   1.567   6.870
 5004SOL    HW126525   2.475   1.649   6.927
 5004SOL    HW226526   2.569   1.564   6.825
 5005SOL     OW26527   3.214   0.052   5.754
 5005SOL    HW126528   3.249   0.011   5.670
 5005SOL    HW226529   3.124   0.014   5.774
 5006SOL     OW26530   3.162   0.453   6.277
 5006SOL    HW126531   3.103   0.533   6.281
 5006SOL    HW226532   3.177   0.418   6.370
 5007SOL     OW26533   3.455   0.221   6.468
 5007SOL    HW126534   3.371   0.220   6.522
 5007SOL    HW226535   3.457   0.304   6.412
 5008SOL     OW26536   1.901   1.077   5.886
 5008SOL    HW126537   2.000   1.066   5.877
 5008SOL    HW226538   1.861   0.991   5.918
 5009SOL     OW26539   2.737   1.646   5.923
 5009SOL    HW126540   2.660   1.611   5.869
 5009SOL    HW226541   2.705   1.717   5.985
 5010SOL     OW26542   2.092   0.628   7.561
 5010SOL    HW126543   1.999   0.626   7.598
 5010SOL    HW226544   2.093   0.589   7.469
 5011SOL     OW26545   2.087   0.275   8.444
 5011SOL    HW126546   2.122   0.258   8.536
 5011SOL    HW226547   1.999   0.230   8.432
 5012SOL     OW26548   1.881   0.368   8.095
 5012SOL    HW126549   1.799   0.411   8.134
 5012SOL    HW226550   1.853   0.295   8.032
 5013SOL     OW26551   2.431   1.275   8.613
 5013SOL    HW126552   2.338   1.268   8.576
 5013SOL    HW226553   2.442   1.364   8.657
 5014SOL     OW26554   3.417   1.511   8.151
 5014SOL    HW126555   3.360   1.495   8.232
 5014SOL    HW226556   3.358   1.521   8.071
 5015SOL     OW26557   2.997   0.703   8.165
 5015SOL    HW126558   3.054   0.781   8.140
 5015SOL    HW226559   2.937   0.729   8.241
 5016SOL     OW26560   3.617   0.607   7.679
 5016SOL    HW126561   3.605   0.594   7.580
 5016SOL    HW226562   3.587   0.526   7.728
 5017SOL     OW26563   2.630   1.144   8.471
 5017SOL    HW126564   2.552   1.161   8.531
 5017SOL    HW226565   2.664   1.231   8.435
 5018SOL     OW26566   2.547   1.012   8.113
 5018SOL    HW126567   2.616   0.996   8.183
 5018SOL    HW226568   2.474   1.069   8.151
 5019SOL     OW26569   2.548   1.161   9.251
 5019SOL    HW126570   2.608   1.240   9.265
 5019SOL    HW226571   2.462   1.192   9.210
 5020SOL     OW26572   2.197   1.435   8.509
 5020SOL    HW126573   2.119   1.404   8.456
 5020SOL    HW226574   2.255   1.493   8.452
 5021SOL     OW26575   3.322   1.505   8.787
 5021SOL    HW126576   3.346   1.599   8.813
 5021SOL    HW226577   3.306   1.451   8.869
 5022SOL     OW26578   2.300   0.392   8.947
 5022SOL    HW126579   2.382   0.336   8.956
 5022SOL    HW226580   2.219   0.334   8.951
 5023SOL     OW26581   3.465   0.447   8.185
 5023SOL    HW126582   3.391   0.493   8.135
 5023SOL    HW226583   3.516   0.515   8.238
 5024SOL     OW26584   2.093   1.713   7.931
 5024SOL    HW126585   2.127   1.790   7.985
 5024SOL    HW226586   2.137   1.713   7.841
 5025SOL     OW26587   2.989   1.341   9.138
 5025SOL    HW126588   3.036   1.341   9.226
 5025SOL    HW226589   2.941   1.254   9.127
 5026SOL     OW26590   2.092   1.434   7.986
 5026SOL    HW126591   2.066   1.530   7.986
 5026SOL    HW226592   2.021   1.380   8.031
 5027SOL     OW26593   2.102   1.091   8.334
 5027SOL    HW126594   2.116   1.007   8.386
 5027SOL    HW226595   2.047   1.155   8.389
 5028SOL     OW26596   2.482   1.786   8.887
 5028SOL    HW126597   2.390   1.769   8.922
 5028SOL    HW226598   2.510   1.878   8.913
 5029SOL     OW26599   2.468   0.964   7.571
 5029SOL    HW126600   2.475   1.048   7.517
 5029SOL    HW226601   2.514   0.977   7.659
 5030SOL     OW26602   3.456   0.114   8.928
 5030SOL    HW126603   3.438   0.181   8.856
 5030SOL    HW226604   3.453   0.160   9.017
 5031SOL     OW26605   1.984   0.643   8.011
 5031SOL    HW126606   1.939   0.555   8.028
 5031SOL    HW226607   1.983   0.697   8.095
 5032SOL     OW26608   3.704   1.767   7.807
 5032SOL    HW126609   3.758   1.738   7.887
 5032SOL    HW226610   3.734   1.857   7.778
 5033SOL     OW26611   1.889   1.596   7.565
 5033SOL    HW126612   1.870   1.500   7.586
 5033SOL    HW226613   1.856   1.654   7.640
 5034SOL     OW26614   3.551   0.922   8.060
 5034SOL    HW126615   3.646   0.893   8.068
 5034SOL    HW226616   3.543   0.987   7.985
 5035SOL     OW26617   3.503   1.108   7.880
 5035SOL    HW126618   3.589   1.110   7.828
 5035SOL    HW226619   3.517   1.155   7.968
 5036SOL     OW26620   1.975   0.737   9.045
 5036SOL    HW126621   2.063   0.724   9.090
 5036SOL    HW226622   1.962   0.834   9.023
 5037SOL     OW26623   2.475   1.365   8.174
 5037SOL    HW126624   2.426   1.278   8.183
 5037SOL    HW226625   2.452   1.408   8.087
 5038SOL     OW26626   3.155   1.228   8.871
 5038SOL    HW126627   3.192   1.155   8.813
 5038SOL    HW226628   3.207   1.233   8.956
 5039SOL     OW26629   2.671   0.004   7.950
 5039SOL    HW126630   2.711   0.095   7.941
 5039SOL    HW226631   2.571   0.012   7.956
 5040SOL     OW26632   2.059   0.976   8.712
 5040SOL    HW126633   2.148   0.931   8.698
 5040SOL    HW226634   1.986   0.911   8.693
 5041SOL     OW26635   3.387   0.999   7.638
 5041SOL    HW126636   3.324   0.923   7.651
 5041SOL    HW226637   3.435   1.017   7.724
 5042SOL     OW26638   3.049   1.792   9.064
 5042SOL    HW126639   3.073   1.852   8.988
 5042SOL    HW226640   3.056   1.697   9.034
 5043SOL     OW26641   3.328   1.417   8.401
 5043SOL    HW126642   3.269   1.423   8.481
 5043SOL    HW226643   3.313   1.329   8.355
 5044SOL     OW26644   3.529   1.714   8.020
 5044SOL    HW126645   3.488   1.691   7.932
 5044SOL    HW226646   3.511   1.640   8.085
 5045SOL     OW26647   2.460   0.729   7.718
 5045SOL    HW126648   2.484   0.798   7.650
 5045SOL    HW226649   2.382   0.762   7.772
 5046SOL     OW26650   3.143   0.345   8.392
 5046SOL    HW126651   3.057   0.295   8.379
 5046SOL    HW226652   3.205   0.291   8.448
 5047SOL     OW26653   3.438   1.662   7.755
 5047SOL    HW126654   3.527   1.708   7.758
 5047SOL    HW226655   3.417   1.638   7.660
 5048SOL     OW26656   3.256   0.469   9.122
 5048SOL    HW126657   3.236   0.512   9.210
 5048SOL    HW226658   3.334   0.407   9.131
 5049SOL     OW26659   2.853   0.410   8.690
 5049SOL    HW126660   2.776   0.444   8.744
 5049SOL    HW226661   2.819   0.359   8.611
 5050SOL     OW26662   2.903   0.701   7.877
 5050SOL    HW126663   2.929   0.697   7.973
 5050SOL    HW226664   2.818   0.650   7.863
 5051SOL     OW26665   1.938   0.811   8.237
 5051SOL    HW126666   2.037   0.799   8.246
 5051SOL    HW226667   1.914   0.906   8.258
 5052SOL     OW26668   1.992   1.821   9.019
 5052SOL    HW126669   1.982   1.806   9.118
 5052SOL    HW226670   1.906   1.857   8.983
 5053SOL     OW26671   2.727   0.348   7.643
 5053SOL    HW126672   2.786   0.411   7.594
 5053SOL    HW226673   2.746   0.254   7.614
 5054SOL     OW26674   3.581   0.585   9.279
 5054SOL    HW126675   3.555   0.674   9.243
 5054SOL    HW226676   3.579   0.517   9.206
 5055SOL     OW26677   3.224   1.144   7.993
 5055SOL    HW126678   3.307   1.115   7.945
 5055SOL    HW226679   3.175   1.211   7.937
 5056SOL     OW26680   2.412   0.196   8.333
 5056SOL    HW126681   2.407   0.191   8.433
 5056SOL    HW226682   2.414   0.292   8.304
 5057SOL     OW26683   2.870   1.456   7.925
 5057SOL    HW126684   2.824   1.528   7.873
 5057SOL    HW226685   2.866   1.476   8.023
 5058SOL     OW26686   2.213   1.801   8.301
 5058SOL    HW126687   2.263   1.715   8.307
 5058SOL    HW226688   2.278   1.878   8.298
 5059SOL     OW26689   3.657   1.066   8.321
 5059SOL    HW126690   3.595   1.051   8.245
 5059SOL    HW226691   3.605   1.077   8.406
 5060SOL     OW26692   3.089   1.550   8.954
 5060SOL    HW126693   3.095   1.473   9.018
 5060SOL    HW226694   3.037   1.524   8.874
 5061SOL     OW26695   2.183   0.943   7.690
 5061SOL    HW126696   2.265   0.982   7.648
 5061SOL    HW226697   2.156   0.861   7.641
 5062SOL     OW26698   3.320   0.735   8.176
 5062SOL    HW126699   3.315   0.670   8.251
 5062SOL    HW226700   3.400   0.794   8.189
 5063SOL     OW26701   2.323   1.266   9.175
 5063SOL    HW126702   2.273   1.267   9.089
 5063SOL    HW226703   2.260   1.248   9.251
 5064SOL     OW26704   2.973   1.776   7.685
 5064SOL    HW126705   2.913   1.714   7.735
 5064SOL    HW226706   3.004   1.732   7.600
 5065SOL     OW26707   3.494   1.377   7.529
 5065SOL    HW126708   3.462   1.471   7.519
 5065SOL    HW226709   3.418   1.314   7.517
 5066SOL     OW26710   2.326   1.743   7.771
 5066SOL    HW126711   2.359   1.782   7.857
 5066SOL    HW226712   2.402   1.736   7.706
 5067SOL     OW26713   3.262   0.107   7.874
 5067SOL    HW126714   3.238   0.070   7.784
 5067SOL    HW226715   3.361   0.123   7.878
 5068SOL     OW26716   2.111   1.785   8.689
 5068SOL    HW126717   2.168   1.720   8.739
 5068SOL    HW226718   2.095   1.752   8.596
 5069SOL     OW26719   2.802   1.698   8.352
 5069SOL    HW126720   2.882   1.641   8.373
 5069SOL    HW226721   2.753   1.658   8.275
 5070SOL     OW26722   2.244   0.700   7.928
 5070SOL    HW126723   2.289   0.610   7.925
 5070SOL    HW226724   2.150   0.689   7.961
 5071SOL     OW26725   3.409   0.222   9.177
 5071SOL    HW126726   3.404   0.259   9.269
 5071SOL    HW226727   3.337   0.153   9.165
 5072SOL     OW26728   2.476   0.122   7.565
 5072SOL    HW126729   2.574   0.100   7.572
 5072SOL    HW226730   2.445   0.105   7.472
 5073SOL     OW26731   2.643   0.264   9.197
 5073SOL    HW126732   2.710   0.203   9.240
 5073SOL    HW226733   2.570   0.283   9.262
 5074SOL     OW26734   2.750   1.514   8.643
 5074SOL    HW126735   2.727   1.489   8.549
 5074SOL    HW226736   2.811   1.445   8.682
 5075SOL     OW26737   3.213   0.590   8.881
 5075SOL    HW126738   3.241   0.547   8.966
 5075SOL    HW226739   3.238   0.686   8.882
 5076SOL     OW26740   2.665   1.402   8.372
 5076SOL    HW126741   2.755   1.416   8.330
 5076SOL    HW226742   2.594   1.404   8.301
 5077SOL     OW26743   2.784   0.503   8.347
 5077SOL    HW126744   2.759   0.494   8.251
 5077SOL    HW226745   2.832   0.421   8.378
 5078SOL     OW26746   2.401   0.064   7.960
 5078SOL    HW126747   2.320   0.065   8.018
 5078SOL    HW226748   2.404   0.147   7.905
 5079SOL     OW26749   3.296   1.188   7.489
 5079SOL    HW126750   3.328   1.112   7.546
 5079SOL    HW226751   3.204   1.215   7.519
 5080SOL     OW26752   2.159   0.035   7.619
 5080SOL    HW126753   2.208   0.119   7.598
 5080SOL    HW226754   2.221  -0.030   7.664
 5081SOL     OW26755   2.797   0.236   7.928
 5081SOL    HW126756   2.749   0.277   7.850
 5081SOL    HW226757   2.896   0.234   7.909
 5082SOL     OW26758   3.089   1.570   8.241
 5082SOL    HW126759   3.110   1.644   8.176
 5082SOL    HW226760   3.157   1.570   8.314
 5083SOL     OW26761   2.321   1.152   8.189
 5083SOL    HW126762   2.250   1.125   8.254
 5083SOL    HW226763   2.295   1.124   8.096
 5084SOL     OW26764   3.133   1.797   8.039
 5084SOL    HW126765   3.177   1.861   7.975
 5084SOL    HW226766   3.083   1.849   8.109
 5085SOL     OW26767   2.894   0.549   7.464
 5085SOL    HW126768   2.853   0.631   7.425
 5085SOL    HW226769   2.958   0.575   7.537
 5086SOL     OW26770   1.940   0.556   8.834
 5086SOL    HW126771   2.032   0.555   8.793
 5086SOL    HW226772   1.934   0.630   8.901
 5087SOL     OW26773   2.423   0.222   8.595
 5087SOL    HW126774   2.461   0.138   8.632
 5087SOL    HW226775   2.335   0.241   8.639
 5088SOL     OW26776   2.728   0.454   8.090
 5088SOL    HW126777   2.696   0.526   8.028
 5088SOL    HW226778   2.752   0.373   8.037
 5089SOL     OW26779   2.879   0.039   8.201
 5089SOL    HW126780   2.807   0.044   8.132
 5089SOL    HW226781   2.855  -0.030   8.270
 5090SOL     OW26782   3.291   1.173   8.315
 5090SOL    HW126783   3.236   1.089   8.308
 5090SOL    HW226784   3.317   1.202   8.223
 5091SOL     OW26785   3.328   0.590   8.440
 5091SOL    HW126786   3.298   0.495   8.447
 5091SOL    HW226787   3.401   0.606   8.506
 5092SOL     OW26788   3.719   0.833   7.825
 5092SOL    HW126789   3.761   0.769   7.889
 5092SOL    HW226790   3.681   0.782   7.747
 5093SOL     OW26791   2.350   1.385   7.622
 5093SOL    HW126792   2.263   1.370   7.669
 5093SOL    HW226793   2.333   1.411   7.527
 5094SOL     OW26794   3.526   1.280   8.105
 5094SOL    HW126795   3.625   1.288   8.119
 5094SOL    HW226796   3.481   1.364   8.136
 5095SOL     OW26797   3.252   0.575   7.526
 5095SOL    HW126798   3.198   0.554   7.607
 5095SOL    HW226799   3.343   0.534   7.535
 5096SOL     OW26800   2.389   0.256   7.776
 5096SOL    HW126801   2.416   0.197   7.701
 5096SOL    HW226802   2.389   0.351   7.745
 5097SOL     OW26803   3.616   1.223   9.036
 5097SOL    HW126804   3.707   1.184   9.023
 5097SOL    HW226805   3.624   1.319   9.060
 5098SOL     OW26806   2.926   1.347   8.788
 5098SOL    HW126807   2.846   1.324   8.843
 5098SOL    HW226808   3.009   1.321   8.837
 5099SOL     OW26809   3.454   1.629   9.073
 5099SOL    HW126810   3.481   1.663   8.983
 5099SOL    HW226811   3.533   1.591   9.119
 5100SOL     OW26812   2.973   1.195   8.548
 5100SOL    HW126813   2.933   1.239   8.629
 5100SOL    HW226814   2.932   1.232   8.465
 5101SOL     OW26815   3.500   1.099   8.527
 5101SOL    HW126816   3.505   1.180   8.586
 5101SOL    HW226817   3.414   1.101   8.476
 5102SOL     OW26818   2.777   0.089   8.850
 5102SOL    HW126819   2.802   0.069   8.755
 5102SOL    HW226820   2.849   0.145   8.892
 5103SOL     OW26821   2.567   1.050   7.816
 5103SOL    HW126822   2.553   1.057   7.915
 5103SOL    HW226823   2.651   0.999   7.798
 5104SOL     OW26824   2.272   0.813   8.699
 5104SOL    HW126825   2.358   0.825   8.749
 5104SOL    HW226826   2.230   0.726   8.726
 5105SOL     OW26827   3.136   0.386   8.710
 5105SOL    HW126828   3.157   0.460   8.774
 5105SOL    HW226829   3.047   0.403   8.667
 5106SOL     OW26830   1.926   1.564   8.779
 5106SOL    HW126831   1.880   1.646   8.745
 5106SOL    HW226832   2.024   1.583   8.788
 5107SOL     OW26833   2.229   1.100   7.949
 5107SOL    HW126834   2.222   1.183   7.893
 5107SOL    HW226835   2.233   1.020   7.889
 5108SOL     OW26836   2.428   0.537   8.313
 5108SOL    HW126837   2.440   0.603   8.239
 5108SOL    HW226838   2.474   0.571   8.396
 5109SOL     OW26839   3.114   1.348   7.836
 5109SOL    HW126840   3.164   1.425   7.876
 5109SOL    HW226841   3.019   1.350   7.868
 5110SOL     OW26842   3.134   1.445   8.590
 5110SOL    HW126843   3.181   1.458   8.677
 5110SOL    HW226844   3.068   1.371   8.599
 5111SOL     OW26845   3.444   0.639   7.920
 5111SOL    HW126846   3.413   0.700   7.993
 5111SOL    HW226847   3.494   0.691   7.851
 5112SOL     OW26848   2.216   1.510   8.777
 5112SOL    HW126849   2.195   1.466   8.690
 5112SOL    HW226850   2.313   1.536   8.780
 5113SOL     OW26851   3.449   0.779   9.118
 5113SOL    HW126852   3.357   0.817   9.113
 5113SOL    HW226853   3.509   0.826   9.053
 5114SOL     OW26854   2.435   0.870   8.477
 5114SOL    HW126855   2.479   0.959   8.468
 5114SOL    HW226856   2.372   0.870   8.554
 5115SOL     OW26857   3.222   0.862   8.493
 5115SOL    HW126858   3.147   0.862   8.427
 5115SOL    HW226859   3.259   0.770   8.502
 5116SOL     OW26860   3.071   0.525   7.723
 5116SOL    HW126861   3.084   0.441   7.777
 5116SOL    HW226862   3.042   0.599   7.783
 5117SOL     OW26863   2.169   0.213   8.679
 5117SOL    HW126864   2.146   0.250   8.769
 5117SOL    HW226865   2.139   0.118   8.673
 5118SOL     OW26866   1.899   1.310   8.730
 5118SOL    HW126867   1.952   1.261   8.798
 5118SOL    HW226868   1.921   1.408   8.735
 5119SOL     OW26869   2.594   0.634   8.512
 5119SOL    HW126870   2.653   0.608   8.436
 5119SOL    HW226871   2.566   0.730   8.501
 5120SOL     OW26872   3.590   0.935   9.302
 5120SOL    HW126873   3.544   0.928   9.213
 5120SOL    HW226874   3.528   0.979   9.368
 5121SOL     OW26875   2.169   0.063   8.066
 5121SOL    HW126876   2.158   0.157   8.099
 5121SOL    HW226877   2.164   0.000   8.143
 5122SOL     OW26878   3.484   0.367   7.822
 5122SOL    HW126879   3.486   0.291   7.886
 5122SOL    HW226880   3.436   0.444   7.862
 5123SOL     OW26881   2.885   0.766   8.414
 5123SOL    HW126882   2.900   0.787   8.510
 5123SOL    HW226883   2.855   0.671   8.405
 5124SOL     OW26884   2.842   1.573   9.148
 5124SOL    HW126885   2.822   1.617   9.060
 5124SOL    HW226886   2.881   1.482   9.132
 5125SOL     OW26887   3.721   1.518   9.053
 5125SOL    HW126888   3.735   1.545   8.958
 5125SOL    HW226889   3.804   1.540   9.106
 5126SOL     OW26890   3.402   0.274   7.573
 5126SOL    HW126891   3.341   0.199   7.596
 5126SOL    HW226892   3.424   0.326   7.656
 5127SOL     OW26893   3.165   0.838   7.490
 5127SOL    HW126894   3.199   0.745   7.505
 5127SOL    HW226895   3.183   0.865   7.395
 5128SOL     OW26896   2.930   1.333   8.297
 5128SOL    HW126897   2.937   1.249   8.242
 5128SOL    HW226898   2.992   1.402   8.261
 5129SOL     OW26899   2.181   0.810   8.397
 5129SOL    HW126900   2.274   0.846   8.402
 5129SOL    HW226901   2.175   0.725   8.449
 5130SOL     OW26902   2.201   0.509   8.454
 5130SOL    HW126903   2.149   0.426   8.437
 5130SOL    HW226904   2.278   0.514   8.390
 5131SOL     OW26905   3.000   0.380   9.126
 5131SOL    HW126906   2.955   0.443   9.190
 5131SOL    HW226907   3.093   0.411   9.109
 5132SOL     OW26908   3.022   0.207   8.925
 5132SOL    HW126909   3.022   0.271   9.002
 5132SOL    HW226910   3.050   0.255   8.842
 5133SOL     OW26911   1.870   1.326   7.648
 5133SOL    HW126912   1.777   1.347   7.617
 5133SOL    HW226913   1.880   1.227   7.661
 5134SOL     OW26914   1.950   1.801   8.375
 5134SOL    HW126915   1.908   1.715   8.348
 5134SOL    HW226916   2.044   1.804   8.341
 5135SOL     OW26917   2.366   1.568   8.358
 5135SOL    HW126918   2.432   1.642   8.367
 5135SOL    HW226919   2.410   1.489   8.316
 5136SOL     OW26920   2.864   0.796   8.686
 5136SOL    HW126921   2.905   0.764   8.772
 5136SOL    HW226922   2.768   0.769   8.683
 5137SOL     OW26923   1.902   0.544   8.562
 5137SOL    HW126924   1.987   0.511   8.521
 5137SOL    HW226925   1.915   0.559   8.660
 5138SOL     OW26926   3.231   0.950   9.108
 5138SOL    HW126927   3.270   1.039   9.128
 5138SOL    HW226928   3.241   0.930   9.011
 5139SOL     OW26929   2.677   0.572   7.773
 5139SOL    HW126930   2.684   0.483   7.727
 5139SOL    HW226931   2.583   0.606   7.765
 5140SOL     OW26932   3.519   0.604   8.654
 5140SOL    HW126933   3.481   0.535   8.716
 5140SOL    HW226934   3.601   0.568   8.610
 5141SOL     OW26935   2.533   0.464   8.717
 5141SOL    HW126936   2.499   0.375   8.687
 5141SOL    HW226937   2.559   0.518   8.637
 5142SOL     OW26938   2.792   1.678   8.913
 5142SOL    HW126939   2.768   1.660   8.818
 5142SOL    HW226940   2.822   1.772   8.923
 5143SOL     OW26941   2.335   0.500   7.639
 5143SOL    HW126942   2.396   0.580   7.643
 5143SOL    HW226943   2.240   0.531   7.646
 5144SOL     OW26944   2.021   1.137   8.914
 5144SOL    HW126945   2.043   1.076   8.990
 5144SOL    HW226946   2.031   1.088   8.828
 5145SOL     OW26947   3.209   1.059   8.682
 5145SOL    HW126948   3.233   0.996   8.608
 5145SOL    HW226949   3.119   1.099   8.664
 5146SOL     OW26950   3.164   0.855   7.757
 5146SOL    HW126951   3.078   0.824   7.799
 5146SOL    HW226952   3.160   0.841   7.658
 5147SOL     OW26953   3.621   1.747   8.602
 5147SOL    HW126954   3.682   1.777   8.529
 5147SOL    HW226955   3.583   1.658   8.580
 5148SOL     OW26956   3.114   1.731   8.576
 5148SOL    HW126957   3.198   1.736   8.522
 5148SOL    HW226958   3.091   1.635   8.594
 5149SOL     OW26959   1.945   1.258   8.470
 5149SOL    HW126960   1.940   1.257   8.570
 5149SOL    HW226961   1.862   1.217   8.432
 5150SOL     OW26962   2.550   1.662   9.164
 5150SOL    HW126963   2.494   1.743   9.173
 5150SOL    HW226964   2.602   1.666   9.078
 5151SOL     OW26965   3.588   0.135   7.971
 5151SOL    HW126966   3.661   0.118   7.904
 5151SOL    HW226967   3.557   0.048   8.009
 5152SOL     OW26968   3.250   1.573   7.925
 5152SOL    HW126969   3.317   1.585   7.851
 5152SOL    HW226970   3.210   1.662   7.948
 5153SOL     OW26971   3.142   0.927   8.120
 5153SOL    HW126972   3.202   0.846   8.122
 5153SOL    HW226973   3.182   0.996   8.060
 5154SOL     OW26974   2.692   1.273   8.870
 5154SOL    HW126975   2.687   1.306   8.965
 5154SOL    HW226976   2.606   1.292   8.824
 5155SOL     OW26977   2.534   1.616   7.602
 5155SOL    HW126978   2.543   1.626   7.503
 5155SOL    HW226979   2.494   1.527   7.623
 5156SOL     OW26980   3.512   1.720   8.842
 5156SOL    HW126981   3.565   1.730   8.758
 5156SOL    HW226982   3.485   1.810   8.876
 5157SOL     OW26983   3.703   0.175   8.411
 5157SOL    HW126984   3.742   0.090   8.375
 5157SOL    HW226985   3.605   0.177   8.392
 5158SOL     OW26986   2.125   0.326   8.168
 5158SOL    HW126987   2.046   0.377   8.134
 5158SOL    HW226988   2.116   0.311   8.266
 5159SOL     OW26989   3.056   1.612   7.479
 5159SOL    HW126990   3.062   1.519   7.516
 5159SOL    HW226991   2.997   1.612   7.399
 5160SOL     OW26992   2.684   1.002   8.820
 5160SOL    HW126993   2.724   1.001   8.728
 5160SOL    HW226994   2.694   1.094   8.860
 5161SOL     OW26995   2.778   0.910   7.739
 5161SOL    HW126996   2.841   0.948   7.671
 5161SOL    HW226997   2.818   0.827   7.778
 5162SOL     OW26998   3.366   1.607   7.492
 5162SOL    HW126999   3.274   1.644   7.499
 5162SOL    HW227000   3.404   1.627   7.402
 5163SOL     OW27001   2.234   1.288   8.938
 5163SOL    HW127002   2.221   1.381   8.904
 5163SOL    HW227003   2.150   1.236   8.925
 5164SOL     OW27004   3.476   1.292   8.737
 5164SOL    HW127005   3.536   1.295   8.817
 5164SOL    HW227006   3.401   1.356   8.750
 5165SOL     OW27007   2.901   1.098   8.144
 5165SOL    HW127008   2.831   1.051   8.198
 5165SOL    HW227009   2.960   1.030   8.101
 5166SOL     OW27010   2.876   0.236   8.419
 5166SOL    HW127011   2.868   0.200   8.326
 5166SOL    HW227012   2.874   0.160   8.484
 5167SOL     OW27013   2.452   1.487   7.939
 5167SOL    HW127014   2.494   1.429   7.869
 5167SOL    HW227015   2.408   1.566   7.895
 5168SOL     OW27016   3.571   0.385   8.829
 5168SOL    HW127017   3.644   0.454   8.833
 5168SOL    HW227018   3.599   0.310   8.770
 5169SOL     OW27019   2.117   1.348   7.738
 5169SOL    HW127020   2.021   1.349   7.711
 5169SOL    HW227021   2.129   1.401   7.822
 5170SOL     OW27022   2.534   0.203   8.937
 5170SOL    HW127023   2.624   0.187   8.897
 5170SOL    HW227024   2.542   0.208   9.036
 5171SOL     OW27025   1.937   0.345   7.481
 5171SOL    HW127026   1.845   0.317   7.452
 5171SOL    HW227027   1.968   0.422   7.425
 5172SOL     OW27028   3.302   0.856   8.846
 5172SOL    HW127029   3.245   0.908   8.783
 5172SOL    HW227030   3.398   0.868   8.822
 5173SOL     OW27031   1.934   0.166   7.766
 5173SOL    HW127032   1.917   0.249   7.712
 5173SOL    HW227033   2.024   0.129   7.744
 5174SOL     OW27034   3.045   1.335   7.567
 5174SOL    HW127035   2.946   1.324   7.569
 5174SOL    HW227036   3.079   1.350   7.660
 5175SOL     OW27037   2.475   0.842   8.879
 5175SOL    HW127038   2.531   0.923   8.862
 5175SOL    HW227039   2.534   0.762   8.882
 5176SOL     OW27040   3.355   1.767   8.407
 5176SOL    HW127041   3.388   1.831   8.338
 5176SOL    HW227042   3.421   1.761   8.482
 5177SOL     OW27043   3.312   1.220   9.081
 5177SOL    HW127044   3.303   1.210   9.180
 5177SOL    HW227045   3.408   1.213   9.055
 5178SOL     OW27046   2.252   1.741   9.008
 5178SOL    HW127047   2.161   1.782   9.006
 5178SOL    HW227048   2.245   1.647   9.040
 5179SOL     OW27049   3.536   0.883   8.702
 5179SOL    HW127050   3.509   0.794   8.665
 5179SOL    HW227051   3.537   0.951   8.629
 5180SOL     OW27052   3.087   0.325   7.897
 5180SOL    HW127053   3.152   0.251   7.886
 5180SOL    HW227054   3.107   0.375   7.981
 5181SOL     OW27055   2.456   0.745   8.100
 5181SOL    HW127056   2.506   0.830   8.081
 5181SOL    HW227057   2.368   0.747   8.052
 5182SOL     OW27058   3.639   0.342   9.090
 5182SOL    HW127059   3.622   0.373   8.996
 5182SOL    HW227060   3.555   0.305   9.128
 5183SOL     OW27061   3.592   0.934   8.965
 5183SOL    HW127062   3.630   1.025   8.980
 5183SOL    HW227063   3.584   0.917   8.866
 5184SOL     OW27064   2.721   1.374   7.464
 5184SOL    HW127065   2.675   1.389   7.552
 5184SOL    HW227066   2.765   1.459   7.434
 5185SOL     OW27067   2.523   1.790   8.401
 5185SOL    HW127068   2.477   1.878   8.388
 5185SOL    HW227069   2.622   1.802   8.394
 5186SOL     OW27070   2.721   0.956   8.309
 5186SOL    HW127071   2.775   0.887   8.357
 5186SOL    HW227072   2.689   1.025   8.375
 5187SOL     OW27073   2.945   0.984   7.535
 5187SOL    HW127074   2.922   1.037   7.453
 5187SOL    HW227075   3.026   0.928   7.516
 5188SOL     OW27076   3.723   1.569   8.299
 5188SOL    HW127077   3.652   1.557   8.229
 5188SOL    HW227078   3.724   1.490   8.359
 5189SOL     OW27079   1.941   1.240   8.101
 5189SOL    HW127080   1.940   1.193   8.189
 5189SOL    HW227081   2.023   1.212   8.050
 5190SOL     OW27082   2.534   1.391   9.072
 5190SOL    HW127083   2.456   1.341   9.110
 5190SOL    HW227084   2.531   1.486   9.103
 5191SOL     OW27085   3.686   0.192   8.675
 5191SOL    HW127086   3.682   0.102   8.719
 5191SOL    HW227087   3.689   0.181   8.576
 5192SOL     OW27088   2.290   0.424   7.968
 5192SOL    HW127089   2.320   0.352   7.906
 5192SOL    HW227090   2.251   0.384   8.051
 5193SOL     OW27091   3.567   1.487   8.552
 5193SOL    HW127092   3.474   1.462   8.525
 5193SOL    HW227093   3.593   1.437   8.634
 5194SOL     OW27094   2.179   0.547   8.728
 5194SOL    HW127095   2.217   0.488   8.800
 5194SOL    HW227096   2.219   0.521   8.640
 5195SOL     OW27097   2.674   1.586   8.135
 5195SOL    HW127098   2.706   1.596   8.041
 5195SOL    HW227099   2.595   1.524   8.137
 5196SOL     OW27100   3.286   0.214   8.560
 5196SOL    HW127101   3.338   0.149   8.615
 5196SOL    HW227102   3.237   0.277   8.621
 5197SOL     OW27103   2.863   0.034   8.602
 5197SOL    HW127104   2.800  -0.038   8.571
 5197SOL    HW227105   2.956  -0.002   8.602
 5198SOL     OW27106   2.632   1.330   7.749
 5198SOL    HW127107   2.586   1.243   7.766
 5198SOL    HW227108   2.723   1.327   7.790
 5199SOL     OW27109   2.480   1.567   8.732
 5199SOL    HW127110   2.475   1.649   8.789
 5199SOL    HW227111   2.569   1.564   8.687
 5200SOL     OW27112   3.214   0.052   7.616
 5200SOL    HW127113   3.249   0.011   7.532
 5200SOL    HW227114   3.124   0.014   7.636
 5201SOL     OW27115   3.162   0.453   8.139
 5201SOL    HW127116   3.103   0.533   8.143
 5201SOL    HW227117   3.177   0.418   8.232
 5202SOL     OW27118   3.455   0.221   8.330
 5202SOL    HW127119   3.371   0.220   8.384
 5202SOL    HW227120   3.457   0.304   8.274
 5203SOL     OW27121   1.901   1.077   7.748
 5203SOL    HW127122   2.000   1.066   7.739
 5203SOL    HW227123   1.861   0.991   7.780
 5204SOL     OW27124   2.737   1.646   7.785
 5204SOL    HW127125   2.660   1.611   7.731
 5204SOL    HW227126   2.705   1.717   7.847
 5205SOL     OW27127   2.087   0.275  10.306
 5205SOL    HW127128   2.122   0.258  10.398
 5205SOL    HW227129   1.999   0.230  10.294
 5206SOL     OW27130   1.881   0.368   9.957
 5206SOL    HW127131   1.799   0.411   9.996
 5206SOL    HW227132   1.853   0.295   9.894
 5207SOL     OW27133   3.417   1.511  10.013
 5207SOL    HW127134   3.360   1.495  10.094
 5207SOL    HW227135   3.358   1.521   9.933
 5208SOL     OW27136   3.617   0.607   9.541
 5208SOL    HW127137   3.605   0.594   9.442
 5208SOL    HW227138   3.587   0.526   9.590
 5209SOL     OW27139   2.712   0.798  11.133
 5209SOL    HW127140   2.708   0.874  11.198
 5209SOL    HW227141   2.734   0.834  11.042
 5210SOL     OW27142   2.548   1.161  11.113
 5210SOL    HW127143   2.608   1.240  11.127
 5210SOL    HW227144   2.462   1.192  11.072
 5211SOL     OW27145   3.704   1.767   9.669
 5211SOL    HW127146   3.758   1.738   9.749
 5211SOL    HW227147   3.734   1.857   9.640
 5212SOL     OW27148   3.503   1.108   9.742
 5212SOL    HW127149   3.589   1.110   9.690
 5212SOL    HW227150   3.517   1.155   9.830
 5213SOL     OW27151   2.475   1.365  10.036
 5213SOL    HW127152   2.426   1.278  10.045
 5213SOL    HW227153   2.452   1.408   9.949
 5214SOL     OW27154   3.387   0.999   9.500
 5214SOL    HW127155   3.324   0.923   9.513
 5214SOL    HW227156   3.435   1.017   9.586
 5215SOL     OW27157   3.049   1.792  10.926
 5215SOL    HW127158   3.073   1.852  10.850
 5215SOL    HW227159   3.056   1.697  10.896
 5216SOL     OW27160   3.328   1.417  10.263
 5216SOL    HW127161   3.269   1.423  10.343
 5216SOL    HW227162   3.313   1.329  10.217
 5217SOL     OW27163   3.529   1.714   9.882
 5217SOL    HW127164   3.488   1.691   9.794
 5217SOL    HW227165   3.511   1.640   9.947
 5218SOL     OW27166   3.438   1.662   9.617
 5218SOL    HW127167   3.527   1.708   9.620
 5218SOL    HW227168   3.417   1.638   9.522
 5219SOL     OW27169   2.669   0.605  10.775
 5219SOL    HW127170   2.622   0.602  10.864
 5219SOL    HW227171   2.618   0.550  10.709
 5220SOL     OW27172   2.853   0.410  10.552
 5220SOL    HW127173   2.776   0.444  10.606
 5220SOL    HW227174   2.819   0.359  10.473
 5221SOL     OW27175   2.727   0.348   9.505
 5221SOL    HW127176   2.786   0.411   9.456
 5221SOL    HW227177   2.746   0.254   9.476
 5222SOL     OW27178   3.581   0.585  11.141
 5222SOL    HW127179   3.555   0.674  11.105
 5222SOL    HW227180   3.579   0.517  11.068
 5223SOL     OW27181   2.412   0.196  10.195
 5223SOL    HW127182   2.407   0.191  10.295
 5223SOL    HW227183   2.414   0.292  10.166
 5224SOL     OW27184   3.657   1.066  10.183
 5224SOL    HW127185   3.595   1.051  10.107
 5224SOL    HW227186   3.605   1.077  10.268
 5225SOL     OW27187   2.323   1.266  11.037
 5225SOL    HW127188   2.273   1.267  10.951
 5225SOL    HW227189   2.260   1.248  11.113
 5226SOL     OW27190   2.973   1.776   9.547
 5226SOL    HW127191   2.913   1.714   9.597
 5226SOL    HW227192   3.004   1.732   9.462
 5227SOL     OW27193   3.494   1.377   9.391
 5227SOL    HW127194   3.462   1.471   9.381
 5227SOL    HW227195   3.418   1.314   9.379
 5228SOL     OW27196   2.802   1.698  10.214
 5228SOL    HW127197   2.882   1.641  10.235
 5228SOL    HW227198   2.753   1.658  10.137
 5229SOL     OW27199   2.784   0.503  10.209
 5229SOL    HW127200   2.759   0.494  10.113
 5229SOL    HW227201   2.832   0.421  10.240
 5230SOL     OW27202   2.401   0.064   9.822
 5230SOL    HW127203   2.320   0.065   9.880
 5230SOL    HW227204   2.404   0.147   9.767
 5231SOL     OW27205   3.296   1.188   9.351
 5231SOL    HW127206   3.328   1.112   9.408
 5231SOL    HW227207   3.204   1.215   9.381
 5232SOL     OW27208   3.089   1.570  10.103
 5232SOL    HW127209   3.110   1.644  10.038
 5232SOL    HW227210   3.157   1.570  10.176
 5233SOL     OW27211   2.321   1.152  10.051
 5233SOL    HW127212   2.250   1.125  10.116
 5233SOL    HW227213   2.295   1.124   9.958
 5234SOL     OW27214   3.133   1.797   9.901
 5234SOL    HW127215   3.177   1.861   9.837
 5234SOL    HW227216   3.083   1.849   9.971
 5235SOL     OW27217   2.894   0.549   9.326
 5235SOL    HW127218   2.853   0.631   9.287
 5235SOL    HW227219   2.958   0.575   9.399
 5236SOL     OW27220   2.423   0.222  10.457
 5236SOL    HW127221   2.461   0.138  10.494
 5236SOL    HW227222   2.335   0.241  10.501
 5237SOL     OW27223   3.291   1.173  10.177
 5237SOL    HW127224   3.236   1.089  10.170
 5237SOL    HW227225   3.317   1.202  10.085
 5238SOL     OW27226   3.328   0.590  10.302
 5238SOL    HW127227   3.298   0.495  10.309
 5238SOL    HW227228   3.401   0.606  10.368
 5239SOL     OW27229   3.719   0.833   9.687
 5239SOL    HW127230   3.761   0.769   9.751
 5239SOL    HW227231   3.681   0.782   9.609
 5240SOL     OW27232   2.350   1.385   9.484
 5240SOL    HW127233   2.263   1.370   9.531
 5240SOL    HW227234   2.333   1.411   9.389
 5241SOL     OW27235   3.526   1.280   9.967
 5241SOL    HW127236   3.625   1.288   9.981
 5241SOL    HW227237   3.481   1.364   9.998
 5242SOL     OW27238   3.252   0.575   9.388
 5242SOL    HW127239   3.198   0.554   9.469
 5242SOL    HW227240   3.343   0.534   9.397
 5243SOL     OW27241   3.500   1.099  10.389
 5243SOL    HW127242   3.505   1.180  10.448
 5243SOL    HW227243   3.414   1.101  10.338
 5244SOL     OW27244   2.272   0.813  10.561
 5244SOL    HW127245   2.358   0.825  10.611
 5244SOL    HW227246   2.230   0.726  10.588
 5245SOL     OW27247   2.229   1.100   9.811
 5245SOL    HW127248   2.222   1.183   9.755
 5245SOL    HW227249   2.233   1.020   9.751
 5246SOL     OW27250   2.428   0.537  10.175
 5246SOL    HW127251   2.440   0.603  10.101
 5246SOL    HW227252   2.474   0.571  10.258
 5247SOL     OW27253   3.134   1.445  10.452
 5247SOL    HW127254   3.181   1.458  10.539
 5247SOL    HW227255   3.068   1.371  10.461
 5248SOL     OW27256   2.264   0.751  10.908
 5248SOL    HW127257   2.332   0.806  10.861
 5248SOL    HW227258   2.304   0.663  10.935
 5249SOL     OW27259   3.449   0.779  10.980
 5249SOL    HW127260   3.357   0.817  10.975
 5249SOL    HW227261   3.509   0.826  10.915
 5250SOL     OW27262   2.435   0.870  10.339
 5250SOL    HW127263   2.479   0.959  10.330
 5250SOL    HW227264   2.372   0.870  10.416
 5251SOL     OW27265   3.071   0.525   9.585
 5251SOL    HW127266   3.084   0.441   9.639
 5251SOL    HW227267   3.042   0.599   9.645
 5252SOL     OW27268   2.594   0.634  10.374
 5252SOL    HW127269   2.653   0.608  10.298
 5252SOL    HW227270   2.566   0.730  10.363
 5253SOL     OW27271   3.484   0.367   9.684
 5253SOL    HW127272   3.486   0.291   9.748
 5253SOL    HW227273   3.436   0.444   9.724
 5254SOL     OW27274   2.885   0.766  10.276
 5254SOL    HW127275   2.900   0.787  10.372
 5254SOL    HW227276   2.855   0.671  10.267
 5255SOL     OW27277   2.212   0.898  11.114
 5255SOL    HW127278   2.288   0.942  11.162
 5255SOL    HW227279   2.247   0.851  11.032
 5256SOL     OW27280   3.402   0.274   9.435
 5256SOL    HW127281   3.341   0.199   9.458
 5256SOL    HW227282   3.424   0.326   9.518
 5257SOL     OW27283   3.165   0.838   9.352
 5257SOL    HW127284   3.199   0.745   9.367
 5257SOL    HW227285   3.183   0.865   9.257
 5258SOL     OW27286   2.930   1.333  10.159
 5258SOL    HW127287   2.937   1.249  10.104
 5258SOL    HW227288   2.992   1.402  10.123
 5259SOL     OW27289   2.201   0.509  10.316
 5259SOL    HW127290   2.149   0.426  10.299
 5259SOL    HW227291   2.278   0.514  10.252
 5260SOL     OW27292   2.677   0.572   9.635
 5260SOL    HW127293   2.684   0.483   9.589
 5260SOL    HW227294   2.583   0.606   9.627
 5261SOL     OW27295   3.519   0.604  10.516
 5261SOL    HW127296   3.481   0.535  10.578
 5261SOL    HW227297   3.601   0.568  10.472
 5262SOL     OW27298   3.588   0.135   9.833
 5262SOL    HW127299   3.661   0.118   9.766
 5262SOL    HW227300   3.557   0.048   9.871
 5263SOL     OW27301   3.250   1.573   9.787
 5263SOL    HW127302   3.317   1.585   9.713
 5263SOL    HW227303   3.210   1.662   9.810
 5264SOL     OW27304   1.992   1.794  11.161
 5264SOL    HW127305   1.951   1.720  11.214
 5264SOL    HW227306   2.056   1.845  11.219
 5265SOL     OW27307   2.692   1.273  10.732
 5265SOL    HW127308   2.687   1.306  10.827
 5265SOL    HW227309   2.606   1.292  10.686
 5266SOL     OW27310   2.534   1.616   9.464
 5266SOL    HW127311   2.543   1.626   9.365
 5266SOL    HW227312   2.494   1.527   9.485
 5267SOL     OW27313   3.056   1.612   9.341
 5267SOL    HW127314   3.062   1.519   9.378
 5267SOL    HW227315   2.997   1.612   9.261
 5268SOL     OW27316   2.684   1.002  10.682
 5268SOL    HW127317   2.724   1.001  10.590
 5268SOL    HW227318   2.694   1.094  10.722
 5269SOL     OW27319   3.366   1.607   9.354
 5269SOL    HW127320   3.274   1.644   9.361
 5269SOL    HW227321   3.404   1.627   9.264
 5270SOL     OW27322   3.476   1.292  10.599
 5270SOL    HW127323   3.536   1.295  10.679
 5270SOL    HW227324   3.401   1.356  10.612
 5271SOL     OW27325   2.876   0.236  10.281
 5271SOL    HW127326   2.868   0.200  10.188
 5271SOL    HW227327   2.874   0.160  10.346
 5272SOL     OW27328   3.571   0.385  10.691
 5272SOL    HW127329   3.644   0.454  10.695
 5272SOL    HW227330   3.599   0.310  10.632
 5273SOL     OW27331   1.967   1.013  11.036
 5273SOL    HW127332   1.890   0.980  11.090
 5273SOL    HW227333   2.052   0.983  11.078
 5274SOL     OW27334   3.302   0.856  10.708
 5274SOL    HW127335   3.245   0.908  10.645
 5274SOL    HW227336   3.398   0.868  10.684
 5275SOL     OW27337   3.045   1.335   9.429
 5275SOL    HW127338   2.946   1.324   9.431
 5275SOL    HW227339   3.079   1.350   9.522
 5276SOL     OW27340   2.475   0.842  10.741
 5276SOL    HW127341   2.531   0.923  10.724
 5276SOL    HW227342   2.534   0.762  10.744
 5277SOL     OW27343   3.355   1.767  10.269
 5277SOL    HW127344   3.388   1.831  10.200
 5277SOL    HW227345   3.421   1.761  10.344
 5278SOL     OW27346   3.536   0.883  10.564
 5278SOL    HW127347   3.509   0.794  10.527
 5278SOL    HW227348   3.537   0.951  10.491
 5279SOL     OW27349   2.456   0.745   9.962
 5279SOL    HW127350   2.506   0.830   9.943
 5279SOL    HW227351   2.368   0.747   9.914
 5280SOL     OW27352   3.639   0.342  10.952
 5280SOL    HW127353   3.622   0.373  10.858
 5280SOL    HW227354   3.555   0.305  10.990
 5281SOL     OW27355   3.592   0.934  10.827
 5281SOL    HW127356   3.630   1.025  10.842
 5281SOL    HW227357   3.584   0.917  10.728
 5282SOL     OW27358   2.721   1.374   9.326
 5282SOL    HW127359   2.675   1.389   9.414
 5282SOL    HW227360   2.765   1.459   9.296
 5283SOL     OW27361   2.721   0.956  10.171
 5283SOL    HW127362   2.775   0.887  10.219
 5283SOL    HW227363   2.689   1.025  10.237
 5284SOL     OW27364   3.723   1.569  10.161
 5284SOL    HW127365   3.652   1.557  10.091
 5284SOL    HW227366   3.724   1.490  10.221
 5285SOL     OW27367   2.290   0.424   9.830
 5285SOL    HW127368   2.320   0.352   9.768
 5285SOL    HW227369   2.251   0.384   9.913
 5286SOL     OW27370   3.567   1.487  10.414
 5286SOL    HW127371   3.474   1.462  10.387
 5286SOL    HW227372   3.593   1.437  10.496
 5287SOL     OW27373   3.286   0.214  10.422
 5287SOL    HW127374   3.338   0.149  10.477
 5287SOL    HW227375   3.237   0.277  10.483
 5288SOL     OW27376   2.863   0.034  10.464
 5288SOL    HW127377   2.800  -0.038  10.433
 5288SOL    HW227378   2.956  -0.002  10.464
 5289SOL     OW27379   2.480   1.567  10.594
 5289SOL    HW127380   2.475   1.649  10.651
 5289SOL    HW227381   2.569   1.564  10.549
 5290SOL     OW27382   2.431   1.275  12.337
 5290SOL    HW127383   2.338   1.268  12.300
 5290SOL    HW227384   2.442   1.364  12.381
 5291SOL     OW27385   2.197   1.435  12.233
 5291SOL    HW127386   2.119   1.404  12.180
 5291SOL    HW227387   2.255   1.493  12.176
 5292SOL     OW27388   2.093   1.713  11.655
 5292SOL    HW127389   2.127   1.790  11.709
 5292SOL    HW227390   2.137   1.713  11.565
 5293SOL     OW27391   2.482   1.786  12.611
 5293SOL    HW127392   2.390   1.769  12.646
 5293SOL    HW227393   2.510   1.878  12.637
 5294SOL     OW27394   3.456   0.114  12.652
 5294SOL    HW127395   3.438   0.181  12.580
 5294SOL    HW227396   3.453   0.160  12.741
 5295SOL     OW27397   2.475   1.365  11.898
 5295SOL    HW127398   2.426   1.278  11.907
 5295SOL    HW227399   2.452   1.408  11.811
 5296SOL     OW27400   2.671   0.004  11.674
 5296SOL    HW127401   2.711   0.095  11.665
 5296SOL    HW227402   2.571   0.012  11.680
 5297SOL     OW27403   3.049   1.792  12.788
 5297SOL    HW127404   3.073   1.852  12.712
 5297SOL    HW227405   3.056   1.697  12.758
 5298SOL     OW27406   2.179   0.251  12.973
 5298SOL    HW127407   2.250   0.322  12.979
 5298SOL    HW227408   2.091   0.290  13.001
 5299SOL     OW27409   3.328   1.417  12.125
 5299SOL    HW127410   3.269   1.423  12.205
 5299SOL    HW227411   3.313   1.329  12.079
 5300SOL     OW27412   3.143   0.345  12.116
 5300SOL    HW127413   3.057   0.295  12.103
 5300SOL    HW227414   3.205   0.291  12.172
 5301SOL     OW27415   3.438   1.662  11.479
 5301SOL    HW127416   3.527   1.708  11.482
 5301SOL    HW227417   3.417   1.638  11.384
 5302SOL     OW27418   2.835   0.890  12.744
 5302SOL    HW127419   2.881   0.806  12.715
 5302SOL    HW227420   2.779   0.924  12.669
 5303SOL     OW27421   3.581   0.585  13.003
 5303SOL    HW127422   3.555   0.674  12.967
 5303SOL    HW227423   3.579   0.517  12.930
 5304SOL     OW27424   3.089   1.550  12.678
 5304SOL    HW127425   3.095   1.473  12.742
 5304SOL    HW227426   3.037   1.524  12.598
 5305SOL     OW27427   2.183   0.943  11.414
 5305SOL    HW127428   2.265   0.982  11.372
 5305SOL    HW227429   2.156   0.861  11.365
 5306SOL     OW27430   2.064   0.285  12.670
 5306SOL    HW127431   1.984   0.345  12.657
 5306SOL    HW227432   2.054   0.236  12.756
 5307SOL     OW27433   3.494   1.377  11.253
 5307SOL    HW127434   3.462   1.471  11.243
 5307SOL    HW227435   3.418   1.314  11.241
 5308SOL     OW27436   3.409   0.222  12.901
 5308SOL    HW127437   3.404   0.259  12.993
 5308SOL    HW227438   3.337   0.153  12.889
 5309SOL     OW27439   2.476   0.122  11.289
 5309SOL    HW127440   2.574   0.100  11.296
 5309SOL    HW227441   2.445   0.105  11.196
 5310SOL     OW27442   3.213   0.590  12.605
 5310SOL    HW127443   3.241   0.547  12.690
 5310SOL    HW227444   3.238   0.686  12.606
 5311SOL     OW27445   2.665   1.402  12.096
 5311SOL    HW127446   2.755   1.416  12.054
 5311SOL    HW227447   2.594   1.404  12.025
 5312SOL     OW27448   2.159   0.035  11.343
 5312SOL    HW127449   2.208   0.119  11.322
 5312SOL    HW227450   2.221  -0.030  11.388
 5313SOL     OW27451   2.938   0.683  12.636
 5313SOL    HW127452   2.858   0.622  12.639
 5313SOL    HW227453   3.019   0.630  12.612
 5314SOL     OW27454   2.879   0.039  11.925
 5314SOL    HW127455   2.807   0.044  11.856
 5314SOL    HW227456   2.855  -0.030  11.994
 5315SOL     OW27457   2.389   0.256  11.500
 5315SOL    HW127458   2.416   0.197  11.425
 5315SOL    HW227459   2.389   0.351  11.469
 5316SOL     OW27460   2.272   0.813  12.423
 5316SOL    HW127461   2.358   0.825  12.473
 5316SOL    HW227462   2.230   0.726  12.450
 5317SOL     OW27463   3.136   0.386  12.434
 5317SOL    HW127464   3.157   0.460  12.498
 5317SOL    HW227465   3.047   0.403  12.391
 5318SOL     OW27466   3.114   1.348  11.560
 5318SOL    HW127467   3.164   1.425  11.600
 5318SOL    HW227468   3.019   1.350  11.592
 5319SOL     OW27469   3.134   1.445  12.314
 5319SOL    HW127470   3.181   1.458  12.401
 5319SOL    HW227471   3.068   1.371  12.323
 5320SOL     OW27472   2.216   1.510  12.501
 5320SOL    HW127473   2.195   1.466  12.414
 5320SOL    HW227474   2.313   1.536  12.504
 5321SOL     OW27475   2.264   0.751  12.770
 5321SOL    HW127476   2.332   0.806  12.723
 5321SOL    HW227477   2.304   0.663  12.797
 5322SOL     OW27478   3.449   0.779  12.842
 5322SOL    HW127479   3.357   0.817  12.837
 5322SOL    HW227480   3.509   0.826  12.777
 5323SOL     OW27481   2.366   0.050  12.912
 5323SOL    HW127482   2.324  -0.007  12.842
 5323SOL    HW227483   2.300   0.119  12.944
 5324SOL     OW27484   3.590   0.935  13.026
 5324SOL    HW127485   3.544   0.928  12.937
 5324SOL    HW227486   3.528   0.979  13.092
 5325SOL     OW27487   2.842   1.573  12.872
 5325SOL    HW127488   2.822   1.617  12.784
 5325SOL    HW227489   2.881   1.482  12.856
 5326SOL     OW27490   2.212   0.898  12.976
 5326SOL    HW127491   2.288   0.942  13.024
 5326SOL    HW227492   2.247   0.851  12.894
 5327SOL     OW27493   3.165   0.838  11.214
 5327SOL    HW127494   3.199   0.745  11.229
 5327SOL    HW227495   3.183   0.865  11.119
 5328SOL     OW27496   3.000   0.380  12.850
 5328SOL    HW127497   2.955   0.443  12.914
 5328SOL    HW227498   3.093   0.411  12.833
 5329SOL     OW27499   3.022   0.207  12.649
 5329SOL    HW127500   3.022   0.271  12.726
 5329SOL    HW227501   3.050   0.255  12.566
 5330SOL     OW27502   2.366   1.568  12.082
 5330SOL    HW127503   2.432   1.642  12.091
 5330SOL    HW227504   2.410   1.489  12.040
 5331SOL     OW27505   2.533   0.464  12.441
 5331SOL    HW127506   2.499   0.375  12.411
 5331SOL    HW227507   2.559   0.518  12.361
 5332SOL     OW27508   2.021   1.137  12.638
 5332SOL    HW127509   2.043   1.076  12.714
 5332SOL    HW227510   2.031   1.088  12.552
 5333SOL     OW27511   2.550   1.662  12.888
 5333SOL    HW127512   2.494   1.743  12.897
 5333SOL    HW227513   2.602   1.666  12.802
 5334SOL     OW27514   3.588   0.135  11.695
 5334SOL    HW127515   3.661   0.118  11.628
 5334SOL    HW227516   3.557   0.048  11.733
 5335SOL     OW27517   3.250   1.573  11.649
 5335SOL    HW127518   3.317   1.585  11.575
 5335SOL    HW227519   3.210   1.662  11.672
 5336SOL     OW27520   3.512   1.720  12.566
 5336SOL    HW127521   3.565   1.730  12.482
 5336SOL    HW227522   3.485   1.810  12.600
 5337SOL     OW27523   3.366   1.607  11.216
 5337SOL    HW127524   3.274   1.644  11.223
 5337SOL    HW227525   3.404   1.627  11.126
 5338SOL     OW27526   2.234   1.288  12.662
 5338SOL    HW127527   2.221   1.381  12.628
 5338SOL    HW227528   2.150   1.236  12.649
 5339SOL     OW27529   3.476   1.292  12.461
 5339SOL    HW127530   3.536   1.295  12.541
 5339SOL    HW227531   3.401   1.356  12.474
 5340SOL     OW27532   1.967   1.013  12.898
 5340SOL    HW127533   1.890   0.980  12.952
 5340SOL    HW227534   2.052   0.983  12.940
 5341SOL     OW27535   1.937   0.345  11.205
 5341SOL    HW127536   1.845   0.317  11.176
 5341SOL    HW227537   1.968   0.422  11.149
 5342SOL     OW27538   3.045   1.335  11.291
 5342SOL    HW127539   2.946   1.324  11.293
 5342SOL    HW227540   3.079   1.350  11.384
 5343SOL     OW27541   2.475   0.842  12.603
 5343SOL    HW127542   2.531   0.923  12.586
 5343SOL    HW227543   2.534   0.762  12.606
 5344SOL     OW27544   2.523   1.790  12.125
 5344SOL    HW127545   2.477   1.878  12.112
 5344SOL    HW227546   2.622   1.802  12.118
 5345SOL     OW27547   2.083   1.314  13.016
 5345SOL    HW127548   2.018   1.241  12.995
 5345SOL    HW227549   2.087   1.328  13.114
 5346SOL     OW27550   1.941   1.240  11.825
 5346SOL    HW127551   1.940   1.193  11.913
 5346SOL    HW227552   2.023   1.212  11.774
 5347SOL     OW27553   3.286   0.214  12.284
 5347SOL    HW127554   3.338   0.149  12.339
 5347SOL    HW227555   3.237   0.277  12.345
 5348SOL     OW27556   2.632   1.330  11.473
 5348SOL    HW127557   2.586   1.243  11.490
 5348SOL    HW227558   2.723   1.327  11.514
 5349SOL     OW27559   2.480   1.567  12.456
 5349SOL    HW127560   2.475   1.649  12.513
 5349SOL    HW227561   2.569   1.564  12.411
 5350SOL     OW27562   1.901   1.077  11.472
 5350SOL    HW127563   2.000   1.066  11.463
 5350SOL    HW227564   1.861   0.991  11.504
 5351SOL     OW27565   2.737   1.646  11.509
 5351SOL    HW127566   2.660   1.611  11.455
 5351SOL    HW227567   2.705   1.717  11.571
 5352SOL     OW27568   2.087   0.275  14.030
 5352SOL    HW127569   2.122   0.258  14.122
 5352SOL    HW227570   1.999   0.230  14.018
 5353SOL     OW27571   3.417   1.511  13.737
 5353SOL    HW127572   3.360   1.495  13.818
 5353SOL    HW227573   3.358   1.521  13.657
 5354SOL     OW27574   2.630   1.144  14.057
 5354SOL    HW127575   2.552   1.161  14.117
 5354SOL    HW227576   2.664   1.231  14.021
 5355SOL     OW27577   2.548   1.161  14.837
 5355SOL    HW127578   2.608   1.240  14.851
 5355SOL    HW227579   2.462   1.192  14.796
 5356SOL     OW27580   2.989   1.341  14.724
 5356SOL    HW127581   3.036   1.341  14.812
 5356SOL    HW227582   2.941   1.254  14.713
 5357SOL     OW27583   2.482   1.786  14.473
 5357SOL    HW127584   2.390   1.769  14.508
 5357SOL    HW227585   2.510   1.878  14.499
 5358SOL     OW27586   3.456   0.114  14.514
 5358SOL    HW127587   3.438   0.181  14.442
 5358SOL    HW227588   3.453   0.160  14.603
 5359SOL     OW27589   1.984   0.643  13.597
 5359SOL    HW127590   1.939   0.555  13.614
 5359SOL    HW227591   1.983   0.697  13.681
 5360SOL     OW27592   1.889   1.596  13.151
 5360SOL    HW127593   1.870   1.500  13.172
 5360SOL    HW227594   1.856   1.654  13.226
 5361SOL     OW27595   2.475   1.365  13.760
 5361SOL    HW127596   2.426   1.278  13.769
 5361SOL    HW227597   2.452   1.408  13.673
 5362SOL     OW27598   3.049   1.792  14.650
 5362SOL    HW127599   3.073   1.852  14.574
 5362SOL    HW227600   3.056   1.697  14.620
 5363SOL     OW27601   3.438   1.662  13.341
 5363SOL    HW127602   3.527   1.708  13.344
 5363SOL    HW227603   3.417   1.638  13.246
 5364SOL     OW27604   2.835   0.890  14.606
 5364SOL    HW127605   2.881   0.806  14.577
 5364SOL    HW227606   2.779   0.924  14.531
 5365SOL     OW27607   2.323   1.266  14.761
 5365SOL    HW127608   2.273   1.267  14.675
 5365SOL    HW227609   2.260   1.248  14.837
 5366SOL     OW27610   2.973   1.776  13.271
 5366SOL    HW127611   2.913   1.714  13.321
 5366SOL    HW227612   3.004   1.732  13.186
 5367SOL     OW27613   3.409   0.222  14.763
 5367SOL    HW127614   3.404   0.259  14.855
 5367SOL    HW227615   3.337   0.153  14.751
 5368SOL     OW27616   2.784   0.503  13.933
 5368SOL    HW127617   2.759   0.494  13.837
 5368SOL    HW227618   2.832   0.421  13.964
 5369SOL     OW27619   2.797   0.236  13.514
 5369SOL    HW127620   2.749   0.277  13.436
 5369SOL    HW227621   2.896   0.234  13.495
 5370SOL     OW27622   2.894   0.549  13.050
 5370SOL    HW127623   2.853   0.631  13.011
 5370SOL    HW227624   2.958   0.575  13.123
 5371SOL     OW27625   2.423   0.222  14.181
 5371SOL    HW127626   2.461   0.138  14.218
 5371SOL    HW227627   2.335   0.241  14.225
 5372SOL     OW27628   3.291   1.173  13.901
 5372SOL    HW127629   3.236   1.089  13.894
 5372SOL    HW227630   3.317   1.202  13.809
 5373SOL     OW27631   3.719   0.833  13.411
 5373SOL    HW127632   3.761   0.769  13.475
 5373SOL    HW227633   3.681   0.782  13.333
 5374SOL     OW27634   2.389   0.256  13.362
 5374SOL    HW127635   2.416   0.197  13.287
 5374SOL    HW227636   2.389   0.351  13.331
 5375SOL     OW27637   2.973   1.195  14.134
 5375SOL    HW127638   2.933   1.239  14.215
 5375SOL    HW227639   2.932   1.232  14.051
 5376SOL     OW27640   2.842   1.116  14.753
 5376SOL    HW127641   2.743   1.122  14.763
 5376SOL    HW227642   2.865   1.036  14.697
 5377SOL     OW27643   2.229   1.100  13.535
 5377SOL    HW127644   2.222   1.183  13.479
 5377SOL    HW227645   2.233   1.020  13.475
 5378SOL     OW27646   2.366   0.050  14.774
 5378SOL    HW127647   2.324  -0.007  14.704
 5378SOL    HW227648   2.300   0.119  14.806
 5379SOL     OW27649   3.590   0.935  14.888
 5379SOL    HW127650   3.544   0.928  14.799
 5379SOL    HW227651   3.528   0.979  14.954
 5380SOL     OW27652   2.212   0.898  14.838
 5380SOL    HW127653   2.288   0.942  14.886
 5380SOL    HW227654   2.247   0.851  14.756
 5381SOL     OW27655   2.930   1.333  13.883
 5381SOL    HW127656   2.937   1.249  13.828
 5381SOL    HW227657   2.992   1.402  13.847
 5382SOL     OW27658   2.201   0.509  14.040
 5382SOL    HW127659   2.149   0.426  14.023
 5382SOL    HW227660   2.278   0.514  13.976
 5383SOL     OW27661   3.000   0.380  14.712
 5383SOL    HW127662   2.955   0.443  14.776
 5383SOL    HW227663   3.093   0.411  14.695
 5384SOL     OW27664   2.533   0.464  14.303
 5384SOL    HW127665   2.499   0.375  14.273
 5384SOL    HW227666   2.559   0.518  14.223
 5385SOL     OW27667   2.335   0.500  13.225
 5385SOL    HW127668   2.396   0.580  13.229
 5385SOL    HW227669   2.240   0.531  13.232
 5386SOL     OW27670   3.056   1.612  13.065
 5386SOL    HW127671   3.062   1.519  13.102
 5386SOL    HW227672   2.997   1.612  12.985
 5387SOL     OW27673   2.778   0.910  13.325
 5387SOL    HW127674   2.841   0.948  13.257
 5387SOL    HW227675   2.818   0.827  13.364
 5388SOL     OW27676   2.234   1.288  14.524
 5388SOL    HW127677   2.221   1.381  14.490
 5388SOL    HW227678   2.150   1.236  14.511
 5389SOL     OW27679   2.901   1.098  13.730
 5389SOL    HW127680   2.831   1.051  13.784
 5389SOL    HW227681   2.960   1.030  13.687
 5390SOL     OW27682   1.967   1.013  14.760
 5390SOL    HW127683   1.890   0.980  14.814
 5390SOL    HW227684   2.052   0.983  14.802
 5391SOL     OW27685   2.252   1.741  14.594
 5391SOL    HW127686   2.161   1.782  14.592
 5391SOL    HW227687   2.245   1.647  14.626
 5392SOL     OW27688   2.083   1.314  14.878
 5392SOL    HW127689   2.018   1.241  14.857
 5392SOL    HW227690   2.087   1.328  14.976
 5393SOL     OW27691   1.941   1.240  13.687
 5393SOL    HW127692   1.940   1.193  13.775
 5393SOL    HW227693   2.023   1.212  13.636
 5394SOL     OW27694   2.534   1.391  14.658
 5394SOL    HW127695   2.456   1.341  14.696
 5394SOL    HW227696   2.531   1.486  14.689
 5395SOL     OW27697   2.290   0.424  13.554
 5395SOL    HW127698   2.320   0.352  13.492
 5395SOL    HW227699   2.251   0.384  13.637
 5396SOL     OW27700   2.632   1.330  13.335
 5396SOL    HW127701   2.586   1.243  13.352
 5396SOL    HW227702   2.723   1.327  13.376
 5397SOL     OW27703   3.455   0.221  13.916
 5397SOL    HW127704   3.371   0.220  13.970
 5397SOL    HW227705   3.457   0.304  13.860
 5398SOL     OW27706   2.087   0.275  15.893
 5398SOL    HW127707   2.122   0.258  15.985
 5398SOL    HW227708   1.999   0.230  15.881
 5399SOL     OW27709   2.431   1.275  16.062
 5399SOL    HW127710   2.338   1.268  16.025
 5399SOL    HW227711   2.442   1.364  16.106
 5400SOL     OW27712   3.417   1.511  15.599
 5400SOL    HW127713   3.360   1.495  15.680
 5400SOL    HW227714   3.358   1.521  15.519
 5401SOL     OW27715   2.630   1.144  15.920
 5401SOL    HW127716   2.552   1.161  15.980
 5401SOL    HW227717   2.664   1.231  15.884
 5402SOL     OW27718   2.712   0.798  16.720
 5402SOL    HW127719   2.708   0.874  16.785
 5402SOL    HW227720   2.734   0.834  16.629
 5403SOL     OW27721   2.548   1.161  16.700
 5403SOL    HW127722   2.608   1.240  16.714
 5403SOL    HW227723   2.462   1.192  16.659
 5404SOL     OW27724   2.093   1.713  15.379
 5404SOL    HW127725   2.127   1.790  15.433
 5404SOL    HW227726   2.137   1.713  15.289
 5405SOL     OW27727   2.468   0.964  15.019
 5405SOL    HW127728   2.475   1.048  14.965
 5405SOL    HW227729   2.514   0.977  15.107
 5406SOL     OW27730   3.529   1.714  15.468
 5406SOL    HW127731   3.488   1.691  15.380
 5406SOL    HW227732   3.511   1.640  15.533
 5407SOL     OW27733   3.143   0.345  15.841
 5407SOL    HW127734   3.057   0.295  15.828
 5407SOL    HW227735   3.205   0.291  15.897
 5408SOL     OW27736   3.438   1.662  15.203
 5408SOL    HW127737   3.527   1.708  15.206
 5408SOL    HW227738   3.417   1.638  15.108
 5409SOL     OW27739   2.835   0.890  16.469
 5409SOL    HW127740   2.881   0.806  16.440
 5409SOL    HW227741   2.779   0.924  16.394
 5410SOL     OW27742   2.903   0.701  15.325
 5410SOL    HW127743   2.929   0.697  15.421
 5410SOL    HW227744   2.818   0.650  15.311
 5411SOL     OW27745   1.992   1.821  16.468
 5411SOL    HW127746   1.982   1.806  16.567
 5411SOL    HW227747   1.906   1.857  16.432
 5412SOL     OW27748   3.581   0.585  16.728
 5412SOL    HW127749   3.555   0.674  16.692
 5412SOL    HW227750   3.579   0.517  16.655
 5413SOL     OW27751   2.323   1.266  16.624
 5413SOL    HW127752   2.273   1.267  16.538
 5413SOL    HW227753   2.260   1.248  16.700
 5414SOL     OW27754   2.973   1.776  15.133
 5414SOL    HW127755   2.913   1.714  15.183
 5414SOL    HW227756   3.004   1.732  15.048
 5415SOL     OW27757   2.064   0.285  16.395
 5415SOL    HW127758   1.984   0.345  16.382
 5415SOL    HW227759   2.054   0.236  16.481
 5416SOL     OW27760   3.494   1.377  14.977
 5416SOL    HW127761   3.462   1.471  14.967
 5416SOL    HW227762   3.418   1.314  14.965
 5417SOL     OW27763   2.326   1.743  15.219
 5417SOL    HW127764   2.359   1.782  15.305
 5417SOL    HW227765   2.402   1.736  15.154
 5418SOL     OW27766   2.784   0.503  15.795
 5418SOL    HW127767   2.759   0.494  15.699
 5418SOL    HW227768   2.832   0.421  15.826
 5419SOL     OW27769   2.159   0.035  15.067
 5419SOL    HW127770   2.208   0.119  15.046
 5419SOL    HW227771   2.221  -0.030  15.112
 5420SOL     OW27772   2.938   0.683  16.361
 5420SOL    HW127773   2.858   0.622  16.364
 5420SOL    HW227774   3.019   0.630  16.337
 5421SOL     OW27775   2.894   0.549  14.912
 5421SOL    HW127776   2.853   0.631  14.873
 5421SOL    HW227777   2.958   0.575  14.985
 5422SOL     OW27778   2.423   0.222  16.044
 5422SOL    HW127779   2.461   0.138  16.081
 5422SOL    HW227780   2.335   0.241  16.088
 5423SOL     OW27781   2.728   0.454  15.538
 5423SOL    HW127782   2.696   0.526  15.476
 5423SOL    HW227783   2.752   0.373  15.485
 5424SOL     OW27784   2.350   1.385  15.070
 5424SOL    HW127785   2.263   1.370  15.117
 5424SOL    HW227786   2.333   1.411  14.975
 5425SOL     OW27787   3.526   1.280  15.553
 5425SOL    HW127788   3.625   1.288  15.567
 5425SOL    HW227789   3.481   1.364  15.584
 5426SOL     OW27790   3.454   1.629  16.522
 5426SOL    HW127791   3.481   1.663  16.432
 5426SOL    HW227792   3.533   1.591  16.568
 5427SOL     OW27793   2.842   1.116  16.616
 5427SOL    HW127794   2.743   1.122  16.626
 5427SOL    HW227795   2.865   1.036  16.560
 5428SOL     OW27796   2.567   1.050  15.264
 5428SOL    HW127797   2.553   1.057  15.363
 5428SOL    HW227798   2.651   0.999  15.246
 5429SOL     OW27799   3.136   0.386  16.159
 5429SOL    HW127800   3.157   0.460  16.223
 5429SOL    HW227801   3.047   0.403  16.116
 5430SOL     OW27802   2.428   0.537  15.761
 5430SOL    HW127803   2.440   0.603  15.687
 5430SOL    HW227804   2.474   0.571  15.844
 5431SOL     OW27805   3.114   1.348  15.284
 5431SOL    HW127806   3.164   1.425  15.324
 5431SOL    HW227807   3.019   1.350  15.316
 5432SOL     OW27808   2.216   1.510  16.226
 5432SOL    HW127809   2.195   1.466  16.139
 5432SOL    HW227810   2.313   1.536  16.229
 5433SOL     OW27811   3.071   0.525  15.171
 5433SOL    HW127812   3.084   0.441  15.225
 5433SOL    HW227813   3.042   0.599  15.231
 5434SOL     OW27814   2.169   0.213  16.128
 5434SOL    HW127815   2.146   0.250  16.218
 5434SOL    HW227816   2.139   0.118  16.122
 5435SOL     OW27817   2.842   1.573  16.597
 5435SOL    HW127818   2.822   1.617  16.509
 5435SOL    HW227819   2.881   1.482  16.581
 5436SOL     OW27820   3.402   0.274  15.021
 5436SOL    HW127821   3.341   0.199  15.044
 5436SOL    HW227822   3.424   0.326  15.104
 5437SOL     OW27823   3.000   0.380  16.575
 5437SOL    HW127824   2.955   0.443  16.639
 5437SOL    HW227825   3.093   0.411  16.558
 5438SOL     OW27826   1.902   0.544  16.011
 5438SOL    HW127827   1.987   0.511  15.970
 5438SOL    HW227828   1.915   0.559  16.109
 5439SOL     OW27829   2.677   0.572  15.221
 5439SOL    HW127830   2.684   0.483  15.175
 5439SOL    HW227831   2.583   0.606  15.213
 5440SOL     OW27832   3.519   0.604  16.103
 5440SOL    HW127833   3.481   0.535  16.165
 5440SOL    HW227834   3.601   0.568  16.059
 5441SOL     OW27835   3.621   1.747  16.051
 5441SOL    HW127836   3.682   1.777  15.978
 5441SOL    HW227837   3.583   1.658  16.029
 5442SOL     OW27838   3.250   1.573  15.373
 5442SOL    HW127839   3.317   1.585  15.299
 5442SOL    HW227840   3.210   1.662  15.396
 5443SOL     OW27841   2.692   1.273  16.319
 5443SOL    HW127842   2.687   1.306  16.414
 5443SOL    HW227843   2.606   1.292  16.273
 5444SOL     OW27844   2.534   1.616  15.050
 5444SOL    HW127845   2.543   1.626  14.951
 5444SOL    HW227846   2.494   1.527  15.071
 5445SOL     OW27847   3.512   1.720  16.291
 5445SOL    HW127848   3.565   1.730  16.207
 5445SOL    HW227849   3.485   1.810  16.325
 5446SOL     OW27850   3.056   1.612  14.927
 5446SOL    HW127851   3.062   1.519  14.964
 5446SOL    HW227852   2.997   1.612  14.847
 5447SOL     OW27853   2.778   0.910  15.187
 5447SOL    HW127854   2.841   0.948  15.119
 5447SOL    HW227855   2.818   0.827  15.226
 5448SOL     OW27856   3.366   1.607  14.940
 5448SOL    HW127857   3.274   1.644  14.947
 5448SOL    HW227858   3.404   1.627  14.850
 5449SOL     OW27859   3.476   1.292  16.186
 5449SOL    HW127860   3.536   1.295  16.266
 5449SOL    HW227861   3.401   1.356  16.199
 5450SOL     OW27862   2.901   1.098  15.592
 5450SOL    HW127863   2.831   1.051  15.646
 5450SOL    HW227864   2.960   1.030  15.549
 5451SOL     OW27865   2.117   1.348  15.186
 5451SOL    HW127866   2.021   1.349  15.159
 5451SOL    HW227867   2.129   1.401  15.270
 5452SOL     OW27868   1.934   0.166  15.214
 5452SOL    HW127869   1.917   0.249  15.160
 5452SOL    HW227870   2.024   0.129  15.192
 5453SOL     OW27871   3.045   1.335  15.015
 5453SOL    HW127872   2.946   1.324  15.017
 5453SOL    HW227873   3.079   1.350  15.108
 5454SOL     OW27874   2.475   0.842  16.328
 5454SOL    HW127875   2.531   0.923  16.311
 5454SOL    HW227876   2.534   0.762  16.331
 5455SOL     OW27877   2.456   0.745  15.548
 5455SOL    HW127878   2.506   0.830  15.529
 5455SOL    HW227879   2.368   0.747  15.500
 5456SOL     OW27880   2.721   1.374  14.912
 5456SOL    HW127881   2.675   1.389  15.000
 5456SOL    HW227882   2.765   1.459  14.882
 5457SOL     OW27883   2.523   1.790  15.850
 5457SOL    HW127884   2.477   1.878  15.837
 5457SOL    HW227885   2.622   1.802  15.843
 5458SOL     OW27886   2.721   0.956  15.757
 5458SOL    HW127887   2.775   0.887  15.805
 5458SOL    HW227888   2.689   1.025  15.823
 5459SOL     OW27889   2.945   0.984  14.983
 5459SOL    HW127890   2.922   1.037  14.901
 5459SOL    HW227891   3.026   0.928  14.964
 5460SOL     OW27892   3.723   1.569  15.747
 5460SOL    HW127893   3.652   1.557  15.677
 5460SOL    HW227894   3.724   1.490  15.807
 5461SOL     OW27895   2.534   1.391  16.521
 5461SOL    HW127896   2.456   1.341  16.559
 5461SOL    HW227897   2.531   1.486  16.552
 5462SOL     OW27898   3.567   1.487  16.001
 5462SOL    HW127899   3.474   1.462  15.974
 5462SOL    HW227900   3.593   1.437  16.083
 5463SOL     OW27901   2.674   1.586  15.583
 5463SOL    HW127902   2.706   1.596  15.489
 5463SOL    HW227903   2.595   1.524  15.585
 5464SOL     OW27904   2.092   0.628  16.872
 5464SOL    HW127905   1.999   0.626  16.909
 5464SOL    HW227906   2.093   0.589  16.780
 5465SOL     OW27907   3.617   0.607  16.990
 5465SOL    HW127908   3.605   0.594  16.891
 5465SOL    HW227909   3.587   0.526  17.039
 5466SOL     OW27910   3.465   0.447  17.496
 5466SOL    HW127911   3.391   0.493  17.446
 5466SOL    HW227912   3.516   0.515  17.549
 5467SOL     OW27913   2.092   1.434  17.297
 5467SOL    HW127914   2.066   1.530  17.297
 5467SOL    HW227915   2.021   1.380  17.342
 5468SOL     OW27916   2.468   0.964  16.882
 5468SOL    HW127917   2.475   1.048  16.828
 5468SOL    HW227918   2.514   0.977  16.970
 5469SOL     OW27919   3.704   1.767  17.118
 5469SOL    HW127920   3.758   1.738  17.198
 5469SOL    HW227921   3.734   1.857  17.089
 5470SOL     OW27922   3.529   1.714  17.331
 5470SOL    HW127923   3.488   1.691  17.243
 5470SOL    HW227924   3.511   1.640  17.396
 5471SOL     OW27925   2.460   0.729  17.029
 5471SOL    HW127926   2.484   0.798  16.961
 5471SOL    HW227927   2.382   0.762  17.083
 5472SOL     OW27928   3.143   0.345  17.703
 5472SOL    HW127929   3.057   0.295  17.690
 5472SOL    HW227930   3.205   0.291  17.759
 5473SOL     OW27931   3.438   1.662  17.066
 5473SOL    HW127932   3.527   1.708  17.069
 5473SOL    HW227933   3.417   1.638  16.971
 5474SOL     OW27934   2.903   0.701  17.188
 5474SOL    HW127935   2.929   0.697  17.284
 5474SOL    HW227936   2.818   0.650  17.174
 5475SOL     OW27937   2.412   0.196  17.644
 5475SOL    HW127938   2.407   0.191  17.744
 5475SOL    HW227939   2.414   0.292  17.615
 5476SOL     OW27940   3.320   0.735  17.487
 5476SOL    HW127941   3.315   0.670  17.562
 5476SOL    HW227942   3.400   0.794  17.500
 5477SOL     OW27943   2.973   1.776  16.996
 5477SOL    HW127944   2.913   1.714  17.046
 5477SOL    HW227945   3.004   1.732  16.911
 5478SOL     OW27946   3.494   1.377  16.840
 5478SOL    HW127947   3.462   1.471  16.830
 5478SOL    HW227948   3.418   1.314  16.828
 5479SOL     OW27949   3.262   0.107  17.185
 5479SOL    HW127950   3.238   0.070  17.095
 5479SOL    HW227951   3.361   0.123  17.189
 5480SOL     OW27952   2.159   0.035  16.930
 5480SOL    HW127953   2.208   0.119  16.909
 5480SOL    HW227954   2.221  -0.030  16.975
 5481SOL     OW27955   2.321   1.152  17.500
 5481SOL    HW127956   2.250   1.125  17.565
 5481SOL    HW227957   2.295   1.124  17.407
 5482SOL     OW27958   3.133   1.797  17.350
 5482SOL    HW127959   3.177   1.861  17.286
 5482SOL    HW227960   3.083   1.849  17.420
 5483SOL     OW27961   3.291   1.173  17.626
 5483SOL    HW127962   3.236   1.089  17.619
 5483SOL    HW227963   3.317   1.202  17.534
 5484SOL     OW27964   3.719   0.833  17.136
 5484SOL    HW127965   3.761   0.769  17.200
 5484SOL    HW227966   3.681   0.782  17.058
 5485SOL     OW27967   2.389   0.256  17.087
 5485SOL    HW127968   2.416   0.197  17.012
 5485SOL    HW227969   2.389   0.351  17.056
 5486SOL     OW27970   2.272   0.813  18.010
 5486SOL    HW127971   2.358   0.825  18.060
 5486SOL    HW227972   2.230   0.726  18.037
 5487SOL     OW27973   2.229   1.100  17.260
 5487SOL    HW127974   2.222   1.183  17.204
 5487SOL    HW227975   2.233   1.020  17.200
 5488SOL     OW27976   2.428   0.537  17.624
 5488SOL    HW127977   2.440   0.603  17.550
 5488SOL    HW227978   2.474   0.571  17.707
 5489SOL     OW27979   3.134   1.445  17.901
 5489SOL    HW127980   3.181   1.458  17.988
 5489SOL    HW227981   3.068   1.371  17.910
 5490SOL     OW27982   3.444   0.639  17.231
 5490SOL    HW127983   3.413   0.700  17.304
 5490SOL    HW227984   3.494   0.691  17.162
 5491SOL     OW27985   2.594   0.634  17.823
 5491SOL    HW127986   2.653   0.608  17.747
 5491SOL    HW227987   2.566   0.730  17.812
 5492SOL     OW27988   2.169   0.063  17.377
 5492SOL    HW127989   2.158   0.157  17.410
 5492SOL    HW227990   2.164   0.000  17.454
 5493SOL     OW27991   3.484   0.367  17.133
 5493SOL    HW127992   3.486   0.291  17.197
 5493SOL    HW227993   3.436   0.444  17.173
 5494SOL     OW27994   2.181   0.810  17.708
 5494SOL    HW127995   2.274   0.846  17.713
 5494SOL    HW227996   2.175   0.725  17.760
 5495SOL     OW27997   2.201   0.509  17.765
 5495SOL    HW127998   2.149   0.426  17.748
 5495SOL    HW227999   2.278   0.514  17.701
 5496SOL     OW28000   3.022   0.207  18.236
 5496SOL    HW128001   3.022   0.271  18.313
 5496SOL    HW228002   3.050   0.255  18.153
 5497SOL     OW28003   1.902   0.544  17.873
 5497SOL    HW128004   1.987   0.511  17.832
 5497SOL    HW228005   1.915   0.559  17.971
 5498SOL     OW28006   2.677   0.572  17.084
 5498SOL    HW128007   2.684   0.483  17.038
 5498SOL    HW228008   2.583   0.606  17.076
 5499SOL     OW28009   2.533   0.464  18.028
 5499SOL    HW128010   2.499   0.375  17.998
 5499SOL    HW228011   2.559   0.518  17.948
 5500SOL     OW28012   3.250   1.573  17.236
 5500SOL    HW128013   3.317   1.585  17.162
 5500SOL    HW228014   3.210   1.662  17.259
 5501SOL     OW28015   3.142   0.927  17.431
 5501SOL    HW128016   3.202   0.846  17.433
 5501SOL    HW228017   3.182   0.996  17.371
 5502SOL     OW28018   2.125   0.326  17.479
 5502SOL    HW128019   2.046   0.377  17.445
 5502SOL    HW228020   2.116   0.311  17.577
 5503SOL     OW28021   2.778   0.910  17.050
 5503SOL    HW128022   2.841   0.948  16.982
 5503SOL    HW228023   2.818   0.827  17.089
 5504SOL     OW28024   2.117   1.348  17.049
 5504SOL    HW128025   2.021   1.349  17.022
 5504SOL    HW228026   2.129   1.401  17.133
 5505SOL     OW28027   1.937   0.345  16.792
 5505SOL    HW128028   1.845   0.317  16.763
 5505SOL    HW228029   1.968   0.422  16.736
 5506SOL     OW28030   1.934   0.166  17.077
 5506SOL    HW128031   1.917   0.249  17.023
 5506SOL    HW228032   2.024   0.129  17.055
 5507SOL     OW28033   3.045   1.335  16.878
 5507SOL    HW128034   2.946   1.324  16.880
 5507SOL    HW228035   3.079   1.350  16.971
 5508SOL     OW28036   2.456   0.745  17.411
 5508SOL    HW128037   2.506   0.830  17.392
 5508SOL    HW228038   2.368   0.747  17.363
 5509SOL     OW28039   2.721   1.374  16.775
 5509SOL    HW128040   2.675   1.389  16.863
 5509SOL    HW228041   2.765   1.459  16.745
 5510SOL     OW28042   2.523   1.790  17.712
 5510SOL    HW128043   2.477   1.878  17.699
 5510SOL    HW228044   2.622   1.802  17.705
 5511SOL     OW28045   2.721   0.956  17.620
 5511SOL    HW128046   2.775   0.887  17.668
 5511SOL    HW228047   2.689   1.025  17.686
 5512SOL     OW28048   2.945   0.984  16.846
 5512SOL    HW128049   2.922   1.037  16.764
 5512SOL    HW228050   3.026   0.928  16.827
 5513SOL     OW28051   1.941   1.240  17.412
 5513SOL    HW128052   1.940   1.193  17.500
 5513SOL    HW228053   2.023   1.212  17.361
 5514SOL     OW28054   2.290   0.424  17.279
 5514SOL    HW128055   2.320   0.352  17.217
 5514SOL    HW228056   2.251   0.384  17.362
 5515SOL     OW28057   3.286   0.214  17.871
 5515SOL    HW128058   3.338   0.149  17.926
 5515SOL    HW228059   3.237   0.277  17.932
 5516SOL     OW28060   3.162   0.453  17.450
 5516SOL    HW128061   3.103   0.533  17.454
 5516SOL    HW228062   3.177   0.418  17.543
 5517SOL     OW28063   3.455   0.221  17.641
 5517SOL    HW128064   3.371   0.220  17.695
 5517SOL    HW228065   3.457   0.304  17.585
 5518SOL     OW28066   1.881   2.230   0.647
 5518SOL    HW128067   1.799   2.273   0.686
 5518SOL    HW228068   1.853   2.157   0.584
 5519SOL     OW28069   2.431   3.137   1.165
 5519SOL    HW128070   2.338   3.130   1.128
 5519SOL    HW228071   2.442   3.226   1.209
 5520SOL     OW28072   3.417   3.373   0.703
 5520SOL    HW128073   3.360   3.357   0.784
 5520SOL    HW228074   3.358   3.383   0.623
 5521SOL     OW28075   2.997   2.565   0.717
 5521SOL    HW128076   3.054   2.643   0.692
 5521SOL    HW228077   2.937   2.591   0.793
 5522SOL     OW28078   3.617   2.469   0.231
 5522SOL    HW128079   3.605   2.456   0.132
 5522SOL    HW228080   3.587   2.388   0.280
 5523SOL     OW28081   2.630   3.006   1.023
 5523SOL    HW128082   2.552   3.023   1.083
 5523SOL    HW228083   2.664   3.093   0.987
 5524SOL     OW28084   2.712   2.660   1.823
 5524SOL    HW128085   2.708   2.736   1.888
 5524SOL    HW228086   2.734   2.696   1.732
 5525SOL     OW28087   2.547   2.874   0.665
 5525SOL    HW128088   2.616   2.858   0.735
 5525SOL    HW228089   2.474   2.931   0.703
 5526SOL     OW28090   2.548   3.023   1.803
 5526SOL    HW128091   2.608   3.102   1.817
 5526SOL    HW228092   2.462   3.054   1.762
 5527SOL     OW28093   2.197   3.297   1.061
 5527SOL    HW128094   2.119   3.266   1.008
 5527SOL    HW228095   2.255   3.355   1.004
 5528SOL     OW28096   3.322   3.367   1.339
 5528SOL    HW128097   3.346   3.461   1.365
 5528SOL    HW228098   3.306   3.313   1.421
 5529SOL     OW28099   2.300   2.254   1.499
 5529SOL    HW128100   2.382   2.198   1.508
 5529SOL    HW228101   2.219   2.196   1.503
 5530SOL     OW28102   2.093   3.575   0.483
 5530SOL    HW128103   2.127   3.652   0.537
 5530SOL    HW228104   2.137   3.575   0.393
 5531SOL     OW28105   2.989   3.203   1.690
 5531SOL    HW128106   3.036   3.203   1.778
 5531SOL    HW228107   2.941   3.116   1.679
 5532SOL     OW28108   2.092   3.296   0.538
 5532SOL    HW128109   2.066   3.392   0.538
 5532SOL    HW228110   2.021   3.242   0.583
 5533SOL     OW28111   2.102   2.953   0.886
 5533SOL    HW128112   2.116   2.869   0.938
 5533SOL    HW228113   2.047   3.017   0.941
 5534SOL     OW28114   2.482   3.648   1.439
 5534SOL    HW128115   2.390   3.631   1.474
 5534SOL    HW228116   2.510   3.740   1.465
 5535SOL     OW28117   3.704   3.629   0.359
 5535SOL    HW128118   3.758   3.600   0.439
 5535SOL    HW228119   3.734   3.719   0.330
 5536SOL     OW28120   1.889   3.458   0.117
 5536SOL    HW128121   1.870   3.362   0.138
 5536SOL    HW228122   1.856   3.516   0.192
 5537SOL     OW28123   3.551   2.784   0.612
 5537SOL    HW128124   3.646   2.755   0.620
 5537SOL    HW228125   3.543   2.849   0.537
 5538SOL     OW28126   3.503   2.970   0.432
 5538SOL    HW128127   3.589   2.972   0.380
 5538SOL    HW228128   3.517   3.017   0.520
 5539SOL     OW28129   2.475   3.227   0.726
 5539SOL    HW128130   2.426   3.140   0.735
 5539SOL    HW228131   2.452   3.270   0.639
 5540SOL     OW28132   3.155   3.090   1.423
 5540SOL    HW128133   3.192   3.017   1.365
 5540SOL    HW228134   3.207   3.095   1.508
 5541SOL     OW28135   2.059   2.838   1.264
 5541SOL    HW128136   2.148   2.793   1.250
 5541SOL    HW228137   1.986   2.773   1.245
 5542SOL     OW28138   3.387   2.861   0.190
 5542SOL    HW128139   3.324   2.785   0.203
 5542SOL    HW228140   3.435   2.879   0.276
 5543SOL     OW28141   3.328   3.279   0.953
 5543SOL    HW128142   3.269   3.285   1.033
 5543SOL    HW228143   3.313   3.191   0.907
 5544SOL     OW28144   3.529   3.576   0.572
 5544SOL    HW128145   3.488   3.553   0.484
 5544SOL    HW228146   3.511   3.502   0.637
 5545SOL     OW28147   3.438   3.524   0.307
 5545SOL    HW128148   3.527   3.570   0.310
 5545SOL    HW228149   3.417   3.500   0.212
 5546SOL     OW28150   2.669   2.467   1.465
 5546SOL    HW128151   2.622   2.464   1.554
 5546SOL    HW228152   2.618   2.412   1.399
 5547SOL     OW28153   2.835   2.752   1.572
 5547SOL    HW128154   2.881   2.668   1.543
 5547SOL    HW228155   2.779   2.786   1.497
 5548SOL     OW28156   2.903   2.563   0.429
 5548SOL    HW128157   2.929   2.559   0.525
 5548SOL    HW228158   2.818   2.512   0.415
 5549SOL     OW28159   1.992   3.683   1.571
 5549SOL    HW128160   1.982   3.668   1.670
 5549SOL    HW228161   1.906   3.719   1.535
 5550SOL     OW28162   3.581   2.447   1.831
 5550SOL    HW128163   3.555   2.536   1.795
 5550SOL    HW228164   3.579   2.379   1.758
 5551SOL     OW28165   3.224   3.006   0.545
 5551SOL    HW128166   3.307   2.977   0.497
 5551SOL    HW228167   3.175   3.073   0.489
 5552SOL     OW28168   2.213   3.663   0.853
 5552SOL    HW128169   2.263   3.577   0.859
 5552SOL    HW228170   2.278   3.740   0.850
 5553SOL     OW28171   3.657   2.928   0.873
 5553SOL    HW128172   3.595   2.913   0.797
 5553SOL    HW228173   3.605   2.939   0.958
 5554SOL     OW28174   3.089   3.412   1.506
 5554SOL    HW128175   3.095   3.335   1.570
 5554SOL    HW228176   3.037   3.386   1.426
 5555SOL     OW28177   2.323   3.128   1.727
 5555SOL    HW128178   2.273   3.129   1.641
 5555SOL    HW228179   2.260   3.110   1.803
 5556SOL     OW28180   2.973   3.638   0.237
 5556SOL    HW128181   2.913   3.576   0.287
 5556SOL    HW228182   3.004   3.594   0.152
 5557SOL     OW28183   3.494   3.239   0.081
 5557SOL    HW128184   3.462   3.333   0.071
 5557SOL    HW228185   3.418   3.176   0.069
 5558SOL     OW28186   2.326   3.605   0.323
 5558SOL    HW128187   2.359   3.644   0.409
 5558SOL    HW228188   2.402   3.598   0.258
 5559SOL     OW28189   2.111   3.647   1.241
 5559SOL    HW128190   2.168   3.582   1.291
 5559SOL    HW228191   2.095   3.614   1.148
 5560SOL     OW28192   2.802   3.560   0.904
 5560SOL    HW128193   2.882   3.503   0.925
 5560SOL    HW228194   2.753   3.520   0.827
 5561SOL     OW28195   2.244   2.562   0.480
 5561SOL    HW128196   2.289   2.472   0.477
 5561SOL    HW228197   2.150   2.551   0.513
 5562SOL     OW28198   3.409   2.084   1.729
 5562SOL    HW128199   3.404   2.121   1.821
 5562SOL    HW228200   3.337   2.015   1.717
 5563SOL     OW28201   2.476   1.984   0.117
 5563SOL    HW128202   2.574   1.962   0.124
 5563SOL    HW228203   2.445   1.967   0.024
 5564SOL     OW28204   2.643   2.126   1.749
 5564SOL    HW128205   2.710   2.065   1.792
 5564SOL    HW228206   2.570   2.145   1.814
 5565SOL     OW28207   2.750   3.376   1.195
 5565SOL    HW128208   2.727   3.351   1.101
 5565SOL    HW228209   2.811   3.307   1.234
 5566SOL     OW28210   2.401   1.926   0.512
 5566SOL    HW128211   2.320   1.927   0.570
 5566SOL    HW228212   2.404   2.009   0.457
 5567SOL     OW28213   3.296   3.050   0.041
 5567SOL    HW128214   3.328   2.974   0.098
 5567SOL    HW228215   3.204   3.077   0.071
 5568SOL     OW28216   2.797   2.098   0.480
 5568SOL    HW128217   2.749   2.139   0.402
 5568SOL    HW228218   2.896   2.096   0.461
 5569SOL     OW28219   2.321   3.014   0.741
 5569SOL    HW128220   2.250   2.987   0.806
 5569SOL    HW228221   2.295   2.986   0.648
 5570SOL     OW28222   1.940   2.418   1.386
 5570SOL    HW128223   2.032   2.417   1.345
 5570SOL    HW228224   1.934   2.492   1.453
 5571SOL     OW28225   3.291   3.035   0.867
 5571SOL    HW128226   3.236   2.951   0.860
 5571SOL    HW228227   3.317   3.064   0.775
 5572SOL     OW28228   3.328   2.452   0.992
 5572SOL    HW128229   3.298   2.357   0.999
 5572SOL    HW228230   3.401   2.468   1.058
 5573SOL     OW28231   3.719   2.695   0.377
 5573SOL    HW128232   3.761   2.631   0.441
 5573SOL    HW228233   3.681   2.644   0.299
 5574SOL     OW28234   3.526   3.142   0.657
 5574SOL    HW128235   3.625   3.150   0.671
 5574SOL    HW228236   3.481   3.226   0.688
 5575SOL     OW28237   2.389   2.118   0.328
 5575SOL    HW128238   2.416   2.059   0.253
 5575SOL    HW228239   2.389   2.213   0.297
 5576SOL     OW28240   3.616   3.085   1.588
 5576SOL    HW128241   3.707   3.046   1.575
 5576SOL    HW228242   3.624   3.181   1.612
 5577SOL     OW28243   2.926   3.209   1.340
 5577SOL    HW128244   2.846   3.186   1.395
 5577SOL    HW228245   3.009   3.183   1.389
 5578SOL     OW28246   3.454   3.491   1.625
 5578SOL    HW128247   3.481   3.525   1.535
 5578SOL    HW228248   3.533   3.453   1.671
 5579SOL     OW28249   2.842   2.978   1.719
 5579SOL    HW128250   2.743   2.984   1.729
 5579SOL    HW228251   2.865   2.898   1.663
 5580SOL     OW28252   2.272   2.675   1.251
 5580SOL    HW128253   2.358   2.687   1.301
 5580SOL    HW228254   2.230   2.588   1.278
 5581SOL     OW28255   1.926   3.426   1.331
 5581SOL    HW128256   1.880   3.508   1.297
 5581SOL    HW228257   2.024   3.445   1.340
 5582SOL     OW28258   2.229   2.962   0.501
 5582SOL    HW128259   2.222   3.045   0.445
 5582SOL    HW228260   2.233   2.882   0.441
 5583SOL     OW28261   3.114   3.210   0.388
 5583SOL    HW128262   3.164   3.287   0.428
 5583SOL    HW228263   3.019   3.212   0.420
 5584SOL     OW28264   3.134   3.307   1.142
 5584SOL    HW128265   3.181   3.320   1.229
 5584SOL    HW228266   3.068   3.233   1.151
 5585SOL     OW28267   3.444   2.501   0.472
 5585SOL    HW128268   3.413   2.562   0.545
 5585SOL    HW228269   3.494   2.553   0.403
 5586SOL     OW28270   2.216   3.372   1.329
 5586SOL    HW128271   2.195   3.328   1.242
 5586SOL    HW228272   2.313   3.398   1.332
 5587SOL     OW28273   2.264   2.613   1.598
 5587SOL    HW128274   2.332   2.668   1.551
 5587SOL    HW228275   2.304   2.525   1.625
 5588SOL     OW28276   2.875   1.967   1.770
 5588SOL    HW128277   2.881   2.052   1.718
 5588SOL    HW228278   2.907   1.891   1.713
 5589SOL     OW28279   2.366   1.912   1.740
 5589SOL    HW128280   2.324   1.855   1.670
 5589SOL    HW228281   2.300   1.981   1.772
 5590SOL     OW28282   1.899   3.172   1.282
 5590SOL    HW128283   1.952   3.123   1.350
 5590SOL    HW228284   1.921   3.270   1.287
 5591SOL     OW28285   3.484   2.229   0.374
 5591SOL    HW128286   3.486   2.153   0.438
 5591SOL    HW228287   3.436   2.306   0.414
 5592SOL     OW28288   2.842   3.435   1.700
 5592SOL    HW128289   2.822   3.479   1.612
 5592SOL    HW228290   2.881   3.344   1.684
 5593SOL     OW28291   3.721   3.380   1.605
 5593SOL    HW128292   3.735   3.407   1.510
 5593SOL    HW228293   3.804   3.402   1.658
 5594SOL     OW28294   2.212   2.760   1.804
 5594SOL    HW128295   2.288   2.804   1.852
 5594SOL    HW228296   2.247   2.713   1.722
 5595SOL     OW28297   1.950   3.663   0.927
 5595SOL    HW128298   1.908   3.577   0.900
 5595SOL    HW228299   2.044   3.666   0.893
 5596SOL     OW28300   2.366   3.430   0.910
 5596SOL    HW128301   2.432   3.504   0.919
 5596SOL    HW228302   2.410   3.351   0.868
 5597SOL     OW28303   1.902   2.406   1.114
 5597SOL    HW128304   1.987   2.373   1.073
 5597SOL    HW228305   1.915   2.421   1.212
 5598SOL     OW28306   2.114   3.426   1.744
 5598SOL    HW128307   2.084   3.483   1.820
 5598SOL    HW228308   2.107   3.329   1.770
 5599SOL     OW28309   2.533   2.326   1.269
 5599SOL    HW128310   2.499   2.237   1.239
 5599SOL    HW228311   2.559   2.380   1.189
 5600SOL     OW28312   2.792   3.540   1.465
 5600SOL    HW128313   2.768   3.522   1.370
 5600SOL    HW228314   2.822   3.634   1.475
 5601SOL     OW28315   2.335   2.362   0.191
 5601SOL    HW128316   2.396   2.442   0.195
 5601SOL    HW228317   2.240   2.393   0.198
 5602SOL     OW28318   2.021   2.999   1.466
 5602SOL    HW128319   2.043   2.938   1.542
 5602SOL    HW228320   2.031   2.950   1.380
 5603SOL     OW28321   3.621   3.609   1.154
 5603SOL    HW128322   3.682   3.639   1.081
 5603SOL    HW228323   3.583   3.520   1.132
 5604SOL     OW28324   3.114   3.593   1.128
 5604SOL    HW128325   3.198   3.598   1.074
 5604SOL    HW228326   3.091   3.497   1.146
 5605SOL     OW28327   1.945   3.120   1.022
 5605SOL    HW128328   1.940   3.119   1.122
 5605SOL    HW228329   1.862   3.079   0.984
 5606SOL     OW28330   2.550   3.524   1.716
 5606SOL    HW128331   2.494   3.605   1.725
 5606SOL    HW228332   2.602   3.528   1.630
 5607SOL     OW28333   2.765   1.948   0.133
 5607SOL    HW128334   2.816   1.949   0.047
 5607SOL    HW228335   2.821   1.906   0.204
 5608SOL     OW28336   3.250   3.435   0.477
 5608SOL    HW128337   3.317   3.447   0.403
 5608SOL    HW228338   3.210   3.524   0.500
 5609SOL     OW28339   1.992   3.656   1.851
 5609SOL    HW128340   1.951   3.582   1.904
 5609SOL    HW228341   2.056   3.707   1.909
 5610SOL     OW28342   3.142   2.789   0.672
 5610SOL    HW128343   3.202   2.708   0.674
 5610SOL    HW228344   3.182   2.858   0.612
 5611SOL     OW28345   2.692   3.135   1.422
 5611SOL    HW128346   2.687   3.168   1.517
 5611SOL    HW228347   2.606   3.154   1.376
 5612SOL     OW28348   3.512   3.582   1.394
 5612SOL    HW128349   3.565   3.592   1.310
 5612SOL    HW228350   3.485   3.672   1.428
 5613SOL     OW28351   3.056   3.474   0.031
 5613SOL    HW128352   3.062   3.381   0.068
 5613SOL    HW228353   2.997   3.474  -0.049
 5614SOL     OW28354   2.684   2.864   1.372
 5614SOL    HW128355   2.724   2.863   1.280
 5614SOL    HW228356   2.694   2.956   1.412
 5615SOL     OW28357   2.778   2.772   0.291
 5615SOL    HW128358   2.841   2.810   0.223
 5615SOL    HW228359   2.818   2.689   0.330
 5616SOL     OW28360   3.366   3.469   0.044
 5616SOL    HW128361   3.274   3.506   0.051
 5616SOL    HW228362   3.404   3.489  -0.046
 5617SOL     OW28363   2.234   3.150   1.490
 5617SOL    HW128364   2.221   3.243   1.456
 5617SOL    HW228365   2.150   3.098   1.477
 5618SOL     OW28366   3.476   3.154   1.289
 5618SOL    HW128367   3.536   3.157   1.369
 5618SOL    HW228368   3.401   3.218   1.302
 5619SOL     OW28369   1.967   2.875   1.726
 5619SOL    HW128370   1.890   2.842   1.780
 5619SOL    HW228371   2.052   2.845   1.768
 5620SOL     OW28372   3.045   3.197   0.119
 5620SOL    HW128373   2.946   3.186   0.121
 5620SOL    HW228374   3.079   3.212   0.212
 5621SOL     OW28375   2.475   2.704   1.431
 5621SOL    HW128376   2.531   2.785   1.414
 5621SOL    HW228377   2.534   2.624   1.434
 5622SOL     OW28378   3.355   3.629   0.959
 5622SOL    HW128379   3.388   3.693   0.890
 5622SOL    HW228380   3.421   3.623   1.034
 5623SOL     OW28381   2.578   2.427   1.708
 5623SOL    HW128382   2.597   2.492   1.782
 5623SOL    HW228383   2.638   2.347   1.717
 5624SOL     OW28384   3.312   3.082   1.633
 5624SOL    HW128385   3.303   3.072   1.732
 5624SOL    HW228386   3.408   3.075   1.607
 5625SOL     OW28387   2.252   3.603   1.560
 5625SOL    HW128388   2.161   3.644   1.558
 5625SOL    HW228389   2.245   3.509   1.592
 5626SOL     OW28390   3.639   2.204   1.642
 5626SOL    HW128391   3.622   2.235   1.548
 5626SOL    HW228392   3.555   2.167   1.680
 5627SOL     OW28393   3.592   2.796   1.517
 5627SOL    HW128394   3.630   2.887   1.532
 5627SOL    HW228395   3.584   2.779   1.418
 5628SOL     OW28396   2.721   3.236   0.016
 5628SOL    HW128397   2.675   3.251   0.104
 5628SOL    HW228398   2.765   3.321  -0.014
 5629SOL     OW28399   2.523   3.652   0.953
 5629SOL    HW128400   2.477   3.740   0.940
 5629SOL    HW228401   2.622   3.664   0.946
 5630SOL     OW28402   2.945   2.846   0.087
 5630SOL    HW128403   2.922   2.899   0.005
 5630SOL    HW228404   3.026   2.790   0.068
 5631SOL     OW28405   3.723   3.431   0.851
 5631SOL    HW128406   3.652   3.419   0.781
 5631SOL    HW228407   3.724   3.352   0.911
 5632SOL     OW28408   2.083   3.176   1.844
 5632SOL    HW128409   2.018   3.103   1.823
 5632SOL    HW228410   2.087   3.190   1.942
 5633SOL     OW28411   1.941   3.102   0.653
 5633SOL    HW128412   1.940   3.055   0.741
 5633SOL    HW228413   2.023   3.074   0.602
 5634SOL     OW28414   2.534   3.253   1.624
 5634SOL    HW128415   2.456   3.203   1.662
 5634SOL    HW228416   2.531   3.348   1.655
 5635SOL     OW28417   2.290   2.286   0.520
 5635SOL    HW128418   2.320   2.214   0.458
 5635SOL    HW228419   2.251   2.246   0.603
 5636SOL     OW28420   3.567   3.349   1.104
 5636SOL    HW128421   3.474   3.324   1.077
 5636SOL    HW228422   3.593   3.299   1.186
 5637SOL     OW28423   2.480   3.429   1.284
 5637SOL    HW128424   2.475   3.511   1.341
 5637SOL    HW228425   2.569   3.426   1.239
 5638SOL     OW28426   3.162   2.315   0.691
 5638SOL    HW128427   3.103   2.395   0.695
 5638SOL    HW228428   3.177   2.280   0.784
 5639SOL     OW28429   3.455   2.083   0.882
 5639SOL    HW128430   3.371   2.082   0.936
 5639SOL    HW228431   3.457   2.166   0.826
 5640SOL     OW28432   2.087   2.137   2.858
 5640SOL    HW128433   2.122   2.120   2.950
 5640SOL    HW228434   1.999   2.092   2.846
 5641SOL     OW28435   1.881   2.230   2.509
 5641SOL    HW128436   1.799   2.273   2.548
 5641SOL    HW228437   1.853   2.157   2.446
 5642SOL     OW28438   2.431   3.137   3.027
 5642SOL    HW128439   2.338   3.130   2.990
 5642SOL    HW228440   2.442   3.226   3.071
 5643SOL     OW28441   3.417   3.373   2.565
 5643SOL    HW128442   3.360   3.357   2.646
 5643SOL    HW228443   3.358   3.383   2.485
 5644SOL     OW28444   2.997   2.565   2.579
 5644SOL    HW128445   3.054   2.643   2.554
 5644SOL    HW228446   2.937   2.591   2.655
 5645SOL     OW28447   3.617   2.469   2.093
 5645SOL    HW128448   3.605   2.456   1.994
 5645SOL    HW228449   3.587   2.388   2.142
 5646SOL     OW28450   2.630   3.006   2.885
 5646SOL    HW128451   2.552   3.023   2.945
 5646SOL    HW228452   2.664   3.093   2.849
 5647SOL     OW28453   2.712   2.660   3.685
 5647SOL    HW128454   2.708   2.736   3.750
 5647SOL    HW228455   2.734   2.696   3.594
 5648SOL     OW28456   2.548   3.023   3.665
 5648SOL    HW128457   2.608   3.102   3.679
 5648SOL    HW228458   2.462   3.054   3.624
 5649SOL     OW28459   2.197   3.297   2.923
 5649SOL    HW128460   2.119   3.266   2.870
 5649SOL    HW228461   2.255   3.355   2.866
 5650SOL     OW28462   3.322   3.367   3.201
 5650SOL    HW128463   3.346   3.461   3.227
 5650SOL    HW228464   3.306   3.313   3.283
 5651SOL     OW28465   2.300   2.254   3.361
 5651SOL    HW128466   2.382   2.198   3.370
 5651SOL    HW228467   2.219   2.196   3.365
 5652SOL     OW28468   3.465   2.309   2.599
 5652SOL    HW128469   3.391   2.355   2.549
 5652SOL    HW228470   3.516   2.377   2.652
 5653SOL     OW28471   2.093   3.575   2.345
 5653SOL    HW128472   2.127   3.652   2.399
 5653SOL    HW228473   2.137   3.575   2.255
 5654SOL     OW28474   2.989   3.203   3.552
 5654SOL    HW128475   3.036   3.203   3.640
 5654SOL    HW228476   2.941   3.116   3.541
 5655SOL     OW28477   2.092   3.296   2.400
 5655SOL    HW128478   2.066   3.392   2.400
 5655SOL    HW228479   2.021   3.242   2.445
 5656SOL     OW28480   2.102   2.953   2.748
 5656SOL    HW128481   2.116   2.869   2.800
 5656SOL    HW228482   2.047   3.017   2.803
 5657SOL     OW28483   2.482   3.648   3.301
 5657SOL    HW128484   2.390   3.631   3.336
 5657SOL    HW228485   2.510   3.740   3.327
 5658SOL     OW28486   2.468   2.826   1.985
 5658SOL    HW128487   2.475   2.910   1.931
 5658SOL    HW228488   2.514   2.839   2.073
 5659SOL     OW28489   3.456   1.976   3.342
 5659SOL    HW128490   3.438   2.043   3.270
 5659SOL    HW228491   3.453   2.022   3.431
 5660SOL     OW28492   1.984   2.505   2.425
 5660SOL    HW128493   1.939   2.417   2.442
 5660SOL    HW228494   1.983   2.559   2.509
 5661SOL     OW28495   3.704   3.629   2.221
 5661SOL    HW128496   3.758   3.600   2.301
 5661SOL    HW228497   3.734   3.719   2.192
 5662SOL     OW28498   1.889   3.458   1.979
 5662SOL    HW128499   1.870   3.362   2.000
 5662SOL    HW228500   1.856   3.516   2.054
 5663SOL     OW28501   3.551   2.784   2.474
 5663SOL    HW128502   3.646   2.755   2.482
 5663SOL    HW228503   3.543   2.849   2.399
 5664SOL     OW28504   1.975   2.599   3.459
 5664SOL    HW128505   2.063   2.586   3.504
 5664SOL    HW228506   1.962   2.696   3.437
 5665SOL     OW28507   2.475   3.227   2.588
 5665SOL    HW128508   2.426   3.140   2.597
 5665SOL    HW228509   2.452   3.270   2.501
 5666SOL     OW28510   3.155   3.090   3.285
 5666SOL    HW128511   3.192   3.017   3.227
 5666SOL    HW228512   3.207   3.095   3.370
 5667SOL     OW28513   2.671   1.866   2.364
 5667SOL    HW128514   2.711   1.957   2.355
 5667SOL    HW228515   2.571   1.874   2.370
 5668SOL     OW28516   2.059   2.838   3.126
 5668SOL    HW128517   2.148   2.793   3.112
 5668SOL    HW228518   1.986   2.773   3.107
 5669SOL     OW28519   3.049   3.654   3.478
 5669SOL    HW128520   3.073   3.714   3.402
 5669SOL    HW228521   3.056   3.559   3.448
 5670SOL     OW28522   2.179   2.113   3.663
 5670SOL    HW128523   2.250   2.184   3.669
 5670SOL    HW228524   2.091   2.152   3.691
 5671SOL     OW28525   3.328   3.279   2.815
 5671SOL    HW128526   3.269   3.285   2.895
 5671SOL    HW228527   3.313   3.191   2.769
 5672SOL     OW28528   3.529   3.576   2.434
 5672SOL    HW128529   3.488   3.553   2.346
 5672SOL    HW228530   3.511   3.502   2.499
 5673SOL     OW28531   2.460   2.591   2.132
 5673SOL    HW128532   2.484   2.660   2.064
 5673SOL    HW228533   2.382   2.624   2.186
 5674SOL     OW28534   3.143   2.207   2.806
 5674SOL    HW128535   3.057   2.157   2.793
 5674SOL    HW228536   3.205   2.153   2.862
 5675SOL     OW28537   3.438   3.524   2.169
 5675SOL    HW128538   3.527   3.570   2.172
 5675SOL    HW228539   3.417   3.500   2.074
 5676SOL     OW28540   2.669   2.467   3.327
 5676SOL    HW128541   2.622   2.464   3.416
 5676SOL    HW228542   2.618   2.412   3.261
 5677SOL     OW28543   3.256   2.331   3.536
 5677SOL    HW128544   3.236   2.374   3.624
 5677SOL    HW228545   3.334   2.269   3.545
 5678SOL     OW28546   2.835   2.752   3.434
 5678SOL    HW128547   2.881   2.668   3.405
 5678SOL    HW228548   2.779   2.786   3.359
 5679SOL     OW28549   2.853   2.272   3.104
 5679SOL    HW128550   2.776   2.306   3.158
 5679SOL    HW228551   2.819   2.221   3.025
 5680SOL     OW28552   2.903   2.563   2.291
 5680SOL    HW128553   2.929   2.559   2.387
 5680SOL    HW228554   2.818   2.512   2.277
 5681SOL     OW28555   1.938   2.673   2.651
 5681SOL    HW128556   2.037   2.661   2.660
 5681SOL    HW228557   1.914   2.768   2.672
 5682SOL     OW28558   1.992   3.683   3.433
 5682SOL    HW128559   1.982   3.668   3.532
 5682SOL    HW228560   1.906   3.719   3.397
 5683SOL     OW28561   2.727   2.210   2.057
 5683SOL    HW128562   2.786   2.273   2.008
 5683SOL    HW228563   2.746   2.116   2.028
 5684SOL     OW28564   3.581   2.447   3.693
 5684SOL    HW128565   3.555   2.536   3.657
 5684SOL    HW228566   3.579   2.379   3.620
 5685SOL     OW28567   3.224   3.006   2.407
 5685SOL    HW128568   3.307   2.977   2.359
 5685SOL    HW228569   3.175   3.073   2.351
 5686SOL     OW28570   2.412   2.058   2.747
 5686SOL    HW128571   2.407   2.053   2.847
 5686SOL    HW228572   2.414   2.154   2.718
 5687SOL     OW28573   2.870   3.318   2.339
 5687SOL    HW128574   2.824   3.390   2.287
 5687SOL    HW228575   2.866   3.338   2.437
 5688SOL     OW28576   2.213   3.663   2.715
 5688SOL    HW128577   2.263   3.577   2.721
 5688SOL    HW228578   2.278   3.740   2.712
 5689SOL     OW28579   3.657   2.928   2.735
 5689SOL    HW128580   3.595   2.913   2.659
 5689SOL    HW228581   3.605   2.939   2.820
 5690SOL     OW28582   3.089   3.412   3.368
 5690SOL    HW128583   3.095   3.335   3.432
 5690SOL    HW228584   3.037   3.386   3.288
 5691SOL     OW28585   2.183   2.805   2.104
 5691SOL    HW128586   2.265   2.844   2.062
 5691SOL    HW228587   2.156   2.723   2.055
 5692SOL     OW28588   3.320   2.597   2.590
 5692SOL    HW128589   3.315   2.532   2.665
 5692SOL    HW228590   3.400   2.656   2.603
 5693SOL     OW28591   2.323   3.128   3.589
 5693SOL    HW128592   2.273   3.129   3.503
 5693SOL    HW228593   2.260   3.110   3.665
 5694SOL     OW28594   2.973   3.638   2.099
 5694SOL    HW128595   2.913   3.576   2.149
 5694SOL    HW228596   3.004   3.594   2.014
 5695SOL     OW28597   2.064   2.147   3.360
 5695SOL    HW128598   1.984   2.207   3.347
 5695SOL    HW228599   2.054   2.098   3.446
 5696SOL     OW28600   3.494   3.239   1.943
 5696SOL    HW128601   3.462   3.333   1.933
 5696SOL    HW228602   3.418   3.176   1.931
 5697SOL     OW28603   2.326   3.605   2.185
 5697SOL    HW128604   2.359   3.644   2.271
 5697SOL    HW228605   2.402   3.598   2.120
 5698SOL     OW28606   3.262   1.969   2.288
 5698SOL    HW128607   3.238   1.932   2.198
 5698SOL    HW228608   3.361   1.985   2.292
 5699SOL     OW28609   2.111   3.647   3.103
 5699SOL    HW128610   2.168   3.582   3.153
 5699SOL    HW228611   2.095   3.614   3.010
 5700SOL     OW28612   2.802   3.560   2.766
 5700SOL    HW128613   2.882   3.503   2.787
 5700SOL    HW228614   2.753   3.520   2.689
 5701SOL     OW28615   2.244   2.562   2.342
 5701SOL    HW128616   2.289   2.472   2.339
 5701SOL    HW228617   2.150   2.551   2.375
 5702SOL     OW28618   3.409   2.084   3.591
 5702SOL    HW128619   3.404   2.121   3.683
 5702SOL    HW228620   3.337   2.015   3.579
 5703SOL     OW28621   2.476   1.984   1.979
 5703SOL    HW128622   2.574   1.962   1.986
 5703SOL    HW228623   2.445   1.967   1.886
 5704SOL     OW28624   2.643   2.126   3.611
 5704SOL    HW128625   2.710   2.065   3.654
 5704SOL    HW228626   2.570   2.145   3.676
 5705SOL     OW28627   2.750   3.376   3.057
 5705SOL    HW128628   2.727   3.351   2.963
 5705SOL    HW228629   2.811   3.307   3.096
 5706SOL     OW28630   3.213   2.452   3.295
 5706SOL    HW128631   3.241   2.409   3.380
 5706SOL    HW228632   3.238   2.548   3.296
 5707SOL     OW28633   2.665   3.264   2.786
 5707SOL    HW128634   2.755   3.278   2.744
 5707SOL    HW228635   2.594   3.266   2.715
 5708SOL     OW28636   2.784   2.365   2.761
 5708SOL    HW128637   2.759   2.356   2.665
 5708SOL    HW228638   2.832   2.283   2.792
 5709SOL     OW28639   2.401   1.926   2.374
 5709SOL    HW128640   2.320   1.927   2.432
 5709SOL    HW228641   2.404   2.009   2.319
 5710SOL     OW28642   2.159   1.897   2.033
 5710SOL    HW128643   2.208   1.981   2.012
 5710SOL    HW228644   2.221   1.832   2.078
 5711SOL     OW28645   2.797   2.098   2.342
 5711SOL    HW128646   2.749   2.139   2.264
 5711SOL    HW228647   2.896   2.096   2.323
 5712SOL     OW28648   2.938   2.545   3.326
 5712SOL    HW128649   2.858   2.484   3.329
 5712SOL    HW228650   3.019   2.492   3.302
 5713SOL     OW28651   3.089   3.432   2.655
 5713SOL    HW128652   3.110   3.506   2.590
 5713SOL    HW228653   3.157   3.432   2.728
 5714SOL     OW28654   2.321   3.014   2.603
 5714SOL    HW128655   2.250   2.987   2.668
 5714SOL    HW228656   2.295   2.986   2.510
 5715SOL     OW28657   3.133   3.659   2.453
 5715SOL    HW128658   3.177   3.723   2.389
 5715SOL    HW228659   3.083   3.711   2.523
 5716SOL     OW28660   2.894   2.411   1.878
 5716SOL    HW128661   2.853   2.493   1.839
 5716SOL    HW228662   2.958   2.437   1.951
 5717SOL     OW28663   1.940   2.418   3.248
 5717SOL    HW128664   2.032   2.417   3.207
 5717SOL    HW228665   1.934   2.492   3.315
 5718SOL     OW28666   2.423   2.084   3.009
 5718SOL    HW128667   2.461   2.000   3.046
 5718SOL    HW228668   2.335   2.103   3.053
 5719SOL     OW28669   2.728   2.316   2.504
 5719SOL    HW128670   2.696   2.388   2.442
 5719SOL    HW228671   2.752   2.235   2.451
 5720SOL     OW28672   2.879   1.901   2.615
 5720SOL    HW128673   2.807   1.906   2.546
 5720SOL    HW228674   2.855   1.832   2.684
 5721SOL     OW28675   3.291   3.035   2.729
 5721SOL    HW128676   3.236   2.951   2.722
 5721SOL    HW228677   3.317   3.064   2.637
 5722SOL     OW28678   3.328   2.452   2.854
 5722SOL    HW128679   3.298   2.357   2.861
 5722SOL    HW228680   3.401   2.468   2.920
 5723SOL     OW28681   3.719   2.695   2.239
 5723SOL    HW128682   3.761   2.631   2.303
 5723SOL    HW228683   3.681   2.644   2.161
 5724SOL     OW28684   2.350   3.247   2.036
 5724SOL    HW128685   2.263   3.232   2.083
 5724SOL    HW228686   2.333   3.273   1.941
 5725SOL     OW28687   3.526   3.142   2.519
 5725SOL    HW128688   3.625   3.150   2.533
 5725SOL    HW228689   3.481   3.226   2.550
 5726SOL     OW28690   3.252   2.437   1.940
 5726SOL    HW128691   3.198   2.416   2.021
 5726SOL    HW228692   3.343   2.396   1.949
 5727SOL     OW28693   2.389   2.118   2.190
 5727SOL    HW128694   2.416   2.059   2.115
 5727SOL    HW228695   2.389   2.213   2.159
 5728SOL     OW28696   3.616   3.085   3.450
 5728SOL    HW128697   3.707   3.046   3.437
 5728SOL    HW228698   3.624   3.181   3.474
 5729SOL     OW28699   2.926   3.209   3.202
 5729SOL    HW128700   2.846   3.186   3.257
 5729SOL    HW228701   3.009   3.183   3.251
 5730SOL     OW28702   3.454   3.491   3.487
 5730SOL    HW128703   3.481   3.525   3.397
 5730SOL    HW228704   3.533   3.453   3.533
 5731SOL     OW28705   2.973   3.057   2.962
 5731SOL    HW128706   2.933   3.101   3.043
 5731SOL    HW228707   2.932   3.094   2.879
 5732SOL     OW28708   3.500   2.961   2.941
 5732SOL    HW128709   3.505   3.042   3.000
 5732SOL    HW228710   3.414   2.963   2.890
 5733SOL     OW28711   2.777   1.951   3.264
 5733SOL    HW128712   2.802   1.931   3.169
 5733SOL    HW228713   2.849   2.007   3.306
 5734SOL     OW28714   2.842   2.978   3.581
 5734SOL    HW128715   2.743   2.984   3.591
 5734SOL    HW228716   2.865   2.898   3.525
 5735SOL     OW28717   2.567   2.912   2.230
 5735SOL    HW128718   2.553   2.919   2.329
 5735SOL    HW228719   2.651   2.861   2.212
 5736SOL     OW28720   2.272   2.675   3.113
 5736SOL    HW128721   2.358   2.687   3.163
 5736SOL    HW228722   2.230   2.588   3.140
 5737SOL     OW28723   3.136   2.248   3.124
 5737SOL    HW128724   3.157   2.322   3.188
 5737SOL    HW228725   3.047   2.265   3.081
 5738SOL     OW28726   1.926   3.426   3.193
 5738SOL    HW128727   1.880   3.508   3.159
 5738SOL    HW228728   2.024   3.445   3.202
 5739SOL     OW28729   2.229   2.962   2.363
 5739SOL    HW128730   2.222   3.045   2.307
 5739SOL    HW228731   2.233   2.882   2.303
 5740SOL     OW28732   2.428   2.399   2.727
 5740SOL    HW128733   2.440   2.465   2.653
 5740SOL    HW228734   2.474   2.433   2.810
 5741SOL     OW28735   3.114   3.210   2.250
 5741SOL    HW128736   3.164   3.287   2.290
 5741SOL    HW228737   3.019   3.212   2.282
 5742SOL     OW28738   3.134   3.307   3.004
 5742SOL    HW128739   3.181   3.320   3.091
 5742SOL    HW228740   3.068   3.233   3.013
 5743SOL     OW28741   3.444   2.501   2.334
 5743SOL    HW128742   3.413   2.562   2.407
 5743SOL    HW228743   3.494   2.553   2.265
 5744SOL     OW28744   2.216   3.372   3.191
 5744SOL    HW128745   2.195   3.328   3.104
 5744SOL    HW228746   2.313   3.398   3.194
 5745SOL     OW28747   2.264   2.613   3.460
 5745SOL    HW128748   2.332   2.668   3.413
 5745SOL    HW228749   2.304   2.525   3.487
 5746SOL     OW28750   3.449   2.641   3.532
 5746SOL    HW128751   3.357   2.679   3.527
 5746SOL    HW228752   3.509   2.688   3.467
 5747SOL     OW28753   2.875   1.967   3.632
 5747SOL    HW128754   2.881   2.052   3.580
 5747SOL    HW228755   2.907   1.891   3.575
 5748SOL     OW28756   2.366   1.912   3.602
 5748SOL    HW128757   2.324   1.855   3.532
 5748SOL    HW228758   2.300   1.981   3.634
 5749SOL     OW28759   2.435   2.732   2.891
 5749SOL    HW128760   2.479   2.821   2.882
 5749SOL    HW228761   2.372   2.732   2.968
 5750SOL     OW28762   3.222   2.724   2.907
 5750SOL    HW128763   3.147   2.724   2.841
 5750SOL    HW228764   3.259   2.632   2.916
 5751SOL     OW28765   3.071   2.387   2.137
 5751SOL    HW128766   3.084   2.303   2.191
 5751SOL    HW228767   3.042   2.461   2.197
 5752SOL     OW28768   2.169   2.075   3.093
 5752SOL    HW128769   2.146   2.112   3.183
 5752SOL    HW228770   2.139   1.980   3.087
 5753SOL     OW28771   1.899   3.172   3.144
 5753SOL    HW128772   1.952   3.123   3.212
 5753SOL    HW228773   1.921   3.270   3.149
 5754SOL     OW28774   2.594   2.496   2.926
 5754SOL    HW128775   2.653   2.470   2.850
 5754SOL    HW228776   2.566   2.592   2.915
 5755SOL     OW28777   3.590   2.797   3.716
 5755SOL    HW128778   3.544   2.790   3.627
 5755SOL    HW228779   3.528   2.841   3.782
 5756SOL     OW28780   2.169   1.925   2.480
 5756SOL    HW128781   2.158   2.019   2.513
 5756SOL    HW228782   2.164   1.862   2.557
 5757SOL     OW28783   3.484   2.229   2.236
 5757SOL    HW128784   3.486   2.153   2.300
 5757SOL    HW228785   3.436   2.306   2.276
 5758SOL     OW28786   2.885   2.628   2.828
 5758SOL    HW128787   2.900   2.649   2.924
 5758SOL    HW228788   2.855   2.533   2.819
 5759SOL     OW28789   2.842   3.435   3.562
 5759SOL    HW128790   2.822   3.479   3.474
 5759SOL    HW228791   2.881   3.344   3.546
 5760SOL     OW28792   3.721   3.380   3.467
 5760SOL    HW128793   3.735   3.407   3.372
 5760SOL    HW228794   3.804   3.402   3.520
 5761SOL     OW28795   2.212   2.760   3.666
 5761SOL    HW128796   2.288   2.804   3.714
 5761SOL    HW228797   2.247   2.713   3.584
 5762SOL     OW28798   3.402   2.136   1.987
 5762SOL    HW128799   3.341   2.061   2.010
 5762SOL    HW228800   3.424   2.188   2.070
 5763SOL     OW28801   2.930   3.195   2.711
 5763SOL    HW128802   2.937   3.111   2.656
 5763SOL    HW228803   2.992   3.264   2.675
 5764SOL     OW28804   2.181   2.672   2.811
 5764SOL    HW128805   2.274   2.708   2.816
 5764SOL    HW228806   2.175   2.587   2.863
 5765SOL     OW28807   2.201   2.371   2.868
 5765SOL    HW128808   2.149   2.288   2.851
 5765SOL    HW228809   2.278   2.376   2.804
 5766SOL     OW28810   3.000   2.242   3.540
 5766SOL    HW128811   2.955   2.305   3.604
 5766SOL    HW228812   3.093   2.273   3.523
 5767SOL     OW28813   3.022   2.069   3.339
 5767SOL    HW128814   3.022   2.133   3.416
 5767SOL    HW228815   3.050   2.117   3.256
 5768SOL     OW28816   1.870   3.188   2.062
 5768SOL    HW128817   1.777   3.209   2.031
 5768SOL    HW228818   1.880   3.089   2.075
 5769SOL     OW28819   1.950   3.663   2.789
 5769SOL    HW128820   1.908   3.577   2.762
 5769SOL    HW228821   2.044   3.666   2.755
 5770SOL     OW28822   2.366   3.430   2.772
 5770SOL    HW128823   2.432   3.504   2.781
 5770SOL    HW228824   2.410   3.351   2.730
 5771SOL     OW28825   2.864   2.658   3.100
 5771SOL    HW128826   2.905   2.626   3.186
 5771SOL    HW228827   2.768   2.631   3.097
 5772SOL     OW28828   1.902   2.406   2.976
 5772SOL    HW128829   1.987   2.373   2.935
 5772SOL    HW228830   1.915   2.421   3.074
 5773SOL     OW28831   2.051   2.382   3.584
 5773SOL    HW128832   2.110   2.342   3.514
 5773SOL    HW228833   1.993   2.453   3.543
 5774SOL     OW28834   3.231   2.812   3.522
 5774SOL    HW128835   3.270   2.901   3.542
 5774SOL    HW228836   3.241   2.792   3.425
 5775SOL     OW28837   2.677   2.434   2.187
 5775SOL    HW128838   2.684   2.345   2.141
 5775SOL    HW228839   2.583   2.468   2.179
 5776SOL     OW28840   3.519   2.466   3.068
 5776SOL    HW128841   3.481   2.397   3.130
 5776SOL    HW228842   3.601   2.430   3.024
 5777SOL     OW28843   2.114   3.426   3.606
 5777SOL    HW128844   2.084   3.483   3.682
 5777SOL    HW228845   2.107   3.329   3.632
 5778SOL     OW28846   2.533   2.326   3.131
 5778SOL    HW128847   2.499   2.237   3.101
 5778SOL    HW228848   2.559   2.380   3.051
 5779SOL     OW28849   2.792   3.540   3.327
 5779SOL    HW128850   2.768   3.522   3.232
 5779SOL    HW228851   2.822   3.634   3.337
 5780SOL     OW28852   2.335   2.362   2.053
 5780SOL    HW128853   2.396   2.442   2.057
 5780SOL    HW228854   2.240   2.393   2.060
 5781SOL     OW28855   2.021   2.999   3.328
 5781SOL    HW128856   2.043   2.938   3.404
 5781SOL    HW228857   2.031   2.950   3.242
 5782SOL     OW28858   3.209   2.921   3.096
 5782SOL    HW128859   3.233   2.858   3.022
 5782SOL    HW228860   3.119   2.961   3.078
 5783SOL     OW28861   3.164   2.717   2.171
 5783SOL    HW128862   3.078   2.686   2.213
 5783SOL    HW228863   3.160   2.703   2.072
 5784SOL     OW28864   3.621   3.609   3.016
 5784SOL    HW128865   3.682   3.639   2.943
 5784SOL    HW228866   3.583   3.520   2.994
 5785SOL     OW28867   3.114   3.593   2.990
 5785SOL    HW128868   3.198   3.598   2.936
 5785SOL    HW228869   3.091   3.497   3.008
 5786SOL     OW28870   1.945   3.120   2.884
 5786SOL    HW128871   1.940   3.119   2.984
 5786SOL    HW228872   1.862   3.079   2.846
 5787SOL     OW28873   2.550   3.524   3.578
 5787SOL    HW128874   2.494   3.605   3.587
 5787SOL    HW228875   2.602   3.528   3.492
 5788SOL     OW28876   3.588   1.997   2.385
 5788SOL    HW128877   3.661   1.980   2.318
 5788SOL    HW228878   3.557   1.910   2.423
 5789SOL     OW28879   3.250   3.435   2.339
 5789SOL    HW128880   3.317   3.447   2.265
 5789SOL    HW228881   3.210   3.524   2.362
 5790SOL     OW28882   1.992   3.656   3.713
 5790SOL    HW128883   1.951   3.582   3.766
 5790SOL    HW228884   2.056   3.707   3.771
 5791SOL     OW28885   3.142   2.789   2.534
 5791SOL    HW128886   3.202   2.708   2.536
 5791SOL    HW228887   3.182   2.858   2.474
 5792SOL     OW28888   2.692   3.135   3.284
 5792SOL    HW128889   2.687   3.168   3.379
 5792SOL    HW228890   2.606   3.154   3.238
 5793SOL     OW28891   2.534   3.478   2.016
 5793SOL    HW128892   2.543   3.488   1.917
 5793SOL    HW228893   2.494   3.389   2.037
 5794SOL     OW28894   3.512   3.582   3.256
 5794SOL    HW128895   3.565   3.592   3.172
 5794SOL    HW228896   3.485   3.672   3.290
 5795SOL     OW28897   3.703   2.037   2.825
 5795SOL    HW128898   3.742   1.952   2.789
 5795SOL    HW228899   3.605   2.039   2.806
 5796SOL     OW28900   2.125   2.188   2.582
 5796SOL    HW128901   2.046   2.239   2.548
 5796SOL    HW228902   2.116   2.173   2.680
 5797SOL     OW28903   3.056   3.474   1.893
 5797SOL    HW128904   3.062   3.381   1.930
 5797SOL    HW228905   2.997   3.474   1.813
 5798SOL     OW28906   2.684   2.864   3.234
 5798SOL    HW128907   2.724   2.863   3.142
 5798SOL    HW228908   2.694   2.956   3.274
 5799SOL     OW28909   2.778   2.772   2.153
 5799SOL    HW128910   2.841   2.810   2.085
 5799SOL    HW228911   2.818   2.689   2.192
 5800SOL     OW28912   3.366   3.469   1.906
 5800SOL    HW128913   3.274   3.506   1.913
 5800SOL    HW228914   3.404   3.489   1.816
 5801SOL     OW28915   2.234   3.150   3.352
 5801SOL    HW128916   2.221   3.243   3.318
 5801SOL    HW228917   2.150   3.098   3.339
 5802SOL     OW28918   3.476   3.154   3.151
 5802SOL    HW128919   3.536   3.157   3.231
 5802SOL    HW228920   3.401   3.218   3.164
 5803SOL     OW28921   2.901   2.960   2.558
 5803SOL    HW128922   2.831   2.913   2.612
 5803SOL    HW228923   2.960   2.892   2.515
 5804SOL     OW28924   2.876   2.098   2.833
 5804SOL    HW128925   2.868   2.062   2.740
 5804SOL    HW228926   2.874   2.022   2.898
 5805SOL     OW28927   2.452   3.349   2.353
 5805SOL    HW128928   2.494   3.291   2.283
 5805SOL    HW228929   2.408   3.428   2.309
 5806SOL     OW28930   3.571   2.247   3.243
 5806SOL    HW128931   3.644   2.316   3.247
 5806SOL    HW228932   3.599   2.172   3.184
 5807SOL     OW28933   2.117   3.210   2.152
 5807SOL    HW128934   2.021   3.211   2.125
 5807SOL    HW228935   2.129   3.263   2.236
 5808SOL     OW28936   1.967   2.875   3.588
 5808SOL    HW128937   1.890   2.842   3.642
 5808SOL    HW228938   2.052   2.845   3.630
 5809SOL     OW28939   2.534   2.065   3.351
 5809SOL    HW128940   2.624   2.049   3.311
 5809SOL    HW228941   2.542   2.070   3.450
 5810SOL     OW28942   3.302   2.718   3.260
 5810SOL    HW128943   3.245   2.770   3.197
 5810SOL    HW228944   3.398   2.730   3.236
 5811SOL     OW28945   1.934   2.028   2.180
 5811SOL    HW128946   1.917   2.111   2.126
 5811SOL    HW228947   2.024   1.991   2.158
 5812SOL     OW28948   3.045   3.197   1.981
 5812SOL    HW128949   2.946   3.186   1.983
 5812SOL    HW228950   3.079   3.212   2.074
 5813SOL     OW28951   2.475   2.704   3.293
 5813SOL    HW128952   2.531   2.785   3.276
 5813SOL    HW228953   2.534   2.624   3.296
 5814SOL     OW28954   3.355   3.629   2.821
 5814SOL    HW128955   3.388   3.693   2.752
 5814SOL    HW228956   3.421   3.623   2.896
 5815SOL     OW28957   2.578   2.427   3.570
 5815SOL    HW128958   2.597   2.492   3.644
 5815SOL    HW228959   2.638   2.347   3.579
 5816SOL     OW28960   3.312   3.082   3.495
 5816SOL    HW128961   3.303   3.072   3.594
 5816SOL    HW228962   3.408   3.075   3.469
 5817SOL     OW28963   2.252   3.603   3.422
 5817SOL    HW128964   2.161   3.644   3.420
 5817SOL    HW228965   2.245   3.509   3.454
 5818SOL     OW28966   3.536   2.745   3.116
 5818SOL    HW128967   3.509   2.656   3.079
 5818SOL    HW228968   3.537   2.813   3.043
 5819SOL     OW28969   3.087   2.187   2.311
 5819SOL    HW128970   3.152   2.113   2.300
 5819SOL    HW228971   3.107   2.237   2.395
 5820SOL     OW28972   2.456   2.607   2.514
 5820SOL    HW128973   2.506   2.692   2.495
 5820SOL    HW228974   2.368   2.609   2.466
 5821SOL     OW28975   3.639   2.204   3.504
 5821SOL    HW128976   3.622   2.235   3.410
 5821SOL    HW228977   3.555   2.167   3.542
 5822SOL     OW28978   3.592   2.796   3.379
 5822SOL    HW128979   3.630   2.887   3.394
 5822SOL    HW228980   3.584   2.779   3.280
 5823SOL     OW28981   2.721   3.236   1.878
 5823SOL    HW128982   2.675   3.251   1.966
 5823SOL    HW228983   2.765   3.321   1.848
 5824SOL     OW28984   2.523   3.652   2.815
 5824SOL    HW128985   2.477   3.740   2.802
 5824SOL    HW228986   2.622   3.664   2.808
 5825SOL     OW28987   2.721   2.818   2.723
 5825SOL    HW128988   2.775   2.749   2.771
 5825SOL    HW228989   2.689   2.887   2.789
 5826SOL     OW28990   2.945   2.846   1.949
 5826SOL    HW128991   2.922   2.899   1.867
 5826SOL    HW228992   3.026   2.790   1.930
 5827SOL     OW28993   3.723   3.431   2.713
 5827SOL    HW128994   3.652   3.419   2.643
 5827SOL    HW228995   3.724   3.352   2.773
 5828SOL     OW28996   2.083   3.176   3.706
 5828SOL    HW128997   2.018   3.103   3.685
 5828SOL    HW228998   2.087   3.190   3.804
 5829SOL     OW28999   1.941   3.102   2.515
 5829SOL    HW129000   1.940   3.055   2.603
 5829SOL    HW229001   2.023   3.074   2.464
 5830SOL     OW29002   2.534   3.253   3.486
 5830SOL    HW129003   2.456   3.203   3.524
 5830SOL    HW229004   2.531   3.348   3.517
 5831SOL     OW29005   3.686   2.054   3.089
 5831SOL    HW129006   3.682   1.964   3.133
 5831SOL    HW229007   3.689   2.043   2.990
 5832SOL     OW29008   2.290   2.286   2.382
 5832SOL    HW129009   2.320   2.214   2.320
 5832SOL    HW229010   2.251   2.246   2.465
 5833SOL     OW29011   3.567   3.349   2.966
 5833SOL    HW129012   3.474   3.324   2.939
 5833SOL    HW229013   3.593   3.299   3.048
 5834SOL     OW29014   2.179   2.409   3.142
 5834SOL    HW129015   2.217   2.350   3.214
 5834SOL    HW229016   2.219   2.383   3.054
 5835SOL     OW29017   2.674   3.448   2.549
 5835SOL    HW129018   2.706   3.458   2.455
 5835SOL    HW229019   2.595   3.386   2.551
 5836SOL     OW29020   3.286   2.076   2.974
 5836SOL    HW129021   3.338   2.011   3.029
 5836SOL    HW229022   3.237   2.139   3.035
 5837SOL     OW29023   2.863   1.896   3.016
 5837SOL    HW129024   2.800   1.824   2.985
 5837SOL    HW229025   2.956   1.860   3.016
 5838SOL     OW29026   2.632   3.192   2.163
 5838SOL    HW129027   2.586   3.105   2.180
 5838SOL    HW229028   2.723   3.189   2.204
 5839SOL     OW29029   2.480   3.429   3.146
 5839SOL    HW129030   2.475   3.511   3.203
 5839SOL    HW229031   2.569   3.426   3.101
 5840SOL     OW29032   3.214   1.914   2.030
 5840SOL    HW129033   3.249   1.873   1.946
 5840SOL    HW229034   3.124   1.876   2.050
 5841SOL     OW29035   3.162   2.315   2.553
 5841SOL    HW129036   3.103   2.395   2.557
 5841SOL    HW229037   3.177   2.280   2.646
 5842SOL     OW29038   3.455   2.083   2.744
 5842SOL    HW129039   3.371   2.082   2.798
 5842SOL    HW229040   3.457   2.166   2.688
 5843SOL     OW29041   1.901   2.939   2.162
 5843SOL    HW129042   2.000   2.928   2.153
 5843SOL    HW229043   1.861   2.853   2.194
 5844SOL     OW29044   2.737   3.508   2.199
 5844SOL    HW129045   2.660   3.473   2.145
 5844SOL    HW229046   2.705   3.579   2.261
 5845SOL     OW29047   2.092   2.490   3.837
 5845SOL    HW129048   1.999   2.488   3.874
 5845SOL    HW229049   2.093   2.451   3.745
 5846SOL     OW29050   2.087   2.137   4.720
 5846SOL    HW129051   2.122   2.120   4.812
 5846SOL    HW229052   1.999   2.092   4.708
 5847SOL     OW29053   1.881   2.230   4.371
 5847SOL    HW129054   1.799   2.273   4.410
 5847SOL    HW229055   1.853   2.157   4.308
 5848SOL     OW29056   2.431   3.137   4.889
 5848SOL    HW129057   2.338   3.130   4.852
 5848SOL    HW229058   2.442   3.226   4.933
 5849SOL     OW29059   3.417   3.373   4.427
 5849SOL    HW129060   3.360   3.357   4.508
 5849SOL    HW229061   3.358   3.383   4.347
 5850SOL     OW29062   2.997   2.565   4.441
 5850SOL    HW129063   3.054   2.643   4.416
 5850SOL    HW229064   2.937   2.591   4.517
 5851SOL     OW29065   3.617   2.469   3.955
 5851SOL    HW129066   3.605   2.456   3.856
 5851SOL    HW229067   3.587   2.388   4.004
 5852SOL     OW29068   2.630   3.006   4.747
 5852SOL    HW129069   2.552   3.023   4.807
 5852SOL    HW229070   2.664   3.093   4.711
 5853SOL     OW29071   2.712   2.660   5.547
 5853SOL    HW129072   2.708   2.736   5.612
 5853SOL    HW229073   2.734   2.696   5.456
 5854SOL     OW29074   2.547   2.874   4.389
 5854SOL    HW129075   2.616   2.858   4.459
 5854SOL    HW229076   2.474   2.931   4.427
 5855SOL     OW29077   2.548   3.023   5.527
 5855SOL    HW129078   2.608   3.102   5.541
 5855SOL    HW229079   2.462   3.054   5.486
 5856SOL     OW29080   2.197   3.297   4.785
 5856SOL    HW129081   2.119   3.266   4.732
 5856SOL    HW229082   2.255   3.355   4.728
 5857SOL     OW29083   3.322   3.367   5.063
 5857SOL    HW129084   3.346   3.461   5.089
 5857SOL    HW229085   3.306   3.313   5.145
 5858SOL     OW29086   2.300   2.254   5.223
 5858SOL    HW129087   2.382   2.198   5.232
 5858SOL    HW229088   2.219   2.196   5.227
 5859SOL     OW29089   3.465   2.309   4.461
 5859SOL    HW129090   3.391   2.355   4.411
 5859SOL    HW229091   3.516   2.377   4.514
 5860SOL     OW29092   2.093   3.575   4.207
 5860SOL    HW129093   2.127   3.652   4.261
 5860SOL    HW229094   2.137   3.575   4.117
 5861SOL     OW29095   2.989   3.203   5.414
 5861SOL    HW129096   3.036   3.203   5.502
 5861SOL    HW229097   2.941   3.116   5.403
 5862SOL     OW29098   2.092   3.296   4.262
 5862SOL    HW129099   2.066   3.392   4.262
 5862SOL    HW229100   2.021   3.242   4.307
 5863SOL     OW29101   2.102   2.953   4.610
 5863SOL    HW129102   2.116   2.869   4.662
 5863SOL    HW229103   2.047   3.017   4.665
 5864SOL     OW29104   2.482   3.648   5.163
 5864SOL    HW129105   2.390   3.631   5.198
 5864SOL    HW229106   2.510   3.740   5.189
 5865SOL     OW29107   2.468   2.826   3.847
 5865SOL    HW129108   2.475   2.910   3.793
 5865SOL    HW229109   2.514   2.839   3.935
 5866SOL     OW29110   3.456   1.976   5.204
 5866SOL    HW129111   3.438   2.043   5.132
 5866SOL    HW229112   3.453   2.022   5.293
 5867SOL     OW29113   1.984   2.505   4.287
 5867SOL    HW129114   1.939   2.417   4.304
 5867SOL    HW229115   1.983   2.559   4.371
 5868SOL     OW29116   3.704   3.629   4.083
 5868SOL    HW129117   3.758   3.600   4.163
 5868SOL    HW229118   3.734   3.719   4.054
 5869SOL     OW29119   1.889   3.458   3.841
 5869SOL    HW129120   1.870   3.362   3.862
 5869SOL    HW229121   1.856   3.516   3.916
 5870SOL     OW29122   3.551   2.784   4.336
 5870SOL    HW129123   3.646   2.755   4.344
 5870SOL    HW229124   3.543   2.849   4.261
 5871SOL     OW29125   3.503   2.970   4.156
 5871SOL    HW129126   3.589   2.972   4.104
 5871SOL    HW229127   3.517   3.017   4.244
 5872SOL     OW29128   1.975   2.599   5.321
 5872SOL    HW129129   2.063   2.586   5.366
 5872SOL    HW229130   1.962   2.696   5.299
 5873SOL     OW29131   2.475   3.227   4.450
 5873SOL    HW129132   2.426   3.140   4.459
 5873SOL    HW229133   2.452   3.270   4.363
 5874SOL     OW29134   3.155   3.090   5.147
 5874SOL    HW129135   3.192   3.017   5.089
 5874SOL    HW229136   3.207   3.095   5.232
 5875SOL     OW29137   2.671   1.866   4.226
 5875SOL    HW129138   2.711   1.957   4.217
 5875SOL    HW229139   2.571   1.874   4.232
 5876SOL     OW29140   2.059   2.838   4.988
 5876SOL    HW129141   2.148   2.793   4.974
 5876SOL    HW229142   1.986   2.773   4.969
 5877SOL     OW29143   3.387   2.861   3.914
 5877SOL    HW129144   3.324   2.785   3.927
 5877SOL    HW229145   3.435   2.879   4.000
 5878SOL     OW29146   3.049   3.654   5.340
 5878SOL    HW129147   3.073   3.714   5.264
 5878SOL    HW229148   3.056   3.559   5.310
 5879SOL     OW29149   2.179   2.113   5.525
 5879SOL    HW129150   2.250   2.184   5.531
 5879SOL    HW229151   2.091   2.152   5.553
 5880SOL     OW29152   3.328   3.279   4.677
 5880SOL    HW129153   3.269   3.285   4.757
 5880SOL    HW229154   3.313   3.191   4.631
 5881SOL     OW29155   3.529   3.576   4.296
 5881SOL    HW129156   3.488   3.553   4.208
 5881SOL    HW229157   3.511   3.502   4.361
 5882SOL     OW29158   2.460   2.591   3.994
 5882SOL    HW129159   2.484   2.660   3.926
 5882SOL    HW229160   2.382   2.624   4.048
 5883SOL     OW29161   3.143   2.207   4.668
 5883SOL    HW129162   3.057   2.157   4.655
 5883SOL    HW229163   3.205   2.153   4.724
 5884SOL     OW29164   3.438   3.524   4.031
 5884SOL    HW129165   3.527   3.570   4.034
 5884SOL    HW229166   3.417   3.500   3.936
 5885SOL     OW29167   2.669   2.467   5.189
 5885SOL    HW129168   2.622   2.464   5.278
 5885SOL    HW229169   2.618   2.412   5.123
 5886SOL     OW29170   3.256   2.331   5.398
 5886SOL    HW129171   3.236   2.374   5.486
 5886SOL    HW229172   3.334   2.269   5.407
 5887SOL     OW29173   2.835   2.752   5.296
 5887SOL    HW129174   2.881   2.668   5.267
 5887SOL    HW229175   2.779   2.786   5.221
 5888SOL     OW29176   2.853   2.272   4.966
 5888SOL    HW129177   2.776   2.306   5.020
 5888SOL    HW229178   2.819   2.221   4.887
 5889SOL     OW29179   2.903   2.563   4.153
 5889SOL    HW129180   2.929   2.559   4.249
 5889SOL    HW229181   2.818   2.512   4.139
 5890SOL     OW29182   1.938   2.673   4.513
 5890SOL    HW129183   2.037   2.661   4.522
 5890SOL    HW229184   1.914   2.768   4.534
 5891SOL     OW29185   1.992   3.683   5.295
 5891SOL    HW129186   1.982   3.668   5.394
 5891SOL    HW229187   1.906   3.719   5.259
 5892SOL     OW29188   2.727   2.210   3.919
 5892SOL    HW129189   2.786   2.273   3.870
 5892SOL    HW229190   2.746   2.116   3.890
 5893SOL     OW29191   3.581   2.447   5.555
 5893SOL    HW129192   3.555   2.536   5.519
 5893SOL    HW229193   3.579   2.379   5.482
 5894SOL     OW29194   3.224   3.006   4.269
 5894SOL    HW129195   3.307   2.977   4.221
 5894SOL    HW229196   3.175   3.073   4.213
 5895SOL     OW29197   2.412   2.058   4.609
 5895SOL    HW129198   2.407   2.053   4.709
 5895SOL    HW229199   2.414   2.154   4.580
 5896SOL     OW29200   2.870   3.318   4.201
 5896SOL    HW129201   2.824   3.390   4.149
 5896SOL    HW229202   2.866   3.338   4.299
 5897SOL     OW29203   2.213   3.663   4.577
 5897SOL    HW129204   2.263   3.577   4.583
 5897SOL    HW229205   2.278   3.740   4.574
 5898SOL     OW29206   3.657   2.928   4.597
 5898SOL    HW129207   3.595   2.913   4.521
 5898SOL    HW229208   3.605   2.939   4.682
 5899SOL     OW29209   3.089   3.412   5.230
 5899SOL    HW129210   3.095   3.335   5.294
 5899SOL    HW229211   3.037   3.386   5.150
 5900SOL     OW29212   2.183   2.805   3.966
 5900SOL    HW129213   2.265   2.844   3.924
 5900SOL    HW229214   2.156   2.723   3.917
 5901SOL     OW29215   3.320   2.597   4.452
 5901SOL    HW129216   3.315   2.532   4.527
 5901SOL    HW229217   3.400   2.656   4.465
 5902SOL     OW29218   2.323   3.128   5.451
 5902SOL    HW129219   2.273   3.129   5.365
 5902SOL    HW229220   2.260   3.110   5.527
 5903SOL     OW29221   2.973   3.638   3.961
 5903SOL    HW129222   2.913   3.576   4.011
 5903SOL    HW229223   3.004   3.594   3.876
 5904SOL     OW29224   2.064   2.147   5.222
 5904SOL    HW129225   1.984   2.207   5.209
 5904SOL    HW229226   2.054   2.098   5.308
 5905SOL     OW29227   3.494   3.239   3.805
 5905SOL    HW129228   3.462   3.333   3.795
 5905SOL    HW229229   3.418   3.176   3.793
 5906SOL     OW29230   2.326   3.605   4.047
 5906SOL    HW129231   2.359   3.644   4.133
 5906SOL    HW229232   2.402   3.598   3.982
 5907SOL     OW29233   3.262   1.969   4.150
 5907SOL    HW129234   3.238   1.932   4.060
 5907SOL    HW229235   3.361   1.985   4.154
 5908SOL     OW29236   2.111   3.647   4.965
 5908SOL    HW129237   2.168   3.582   5.015
 5908SOL    HW229238   2.095   3.614   4.872
 5909SOL     OW29239   2.802   3.560   4.628
 5909SOL    HW129240   2.882   3.503   4.649
 5909SOL    HW229241   2.753   3.520   4.551
 5910SOL     OW29242   2.244   2.562   4.204
 5910SOL    HW129243   2.289   2.472   4.201
 5910SOL    HW229244   2.150   2.551   4.237
 5911SOL     OW29245   3.409   2.084   5.453
 5911SOL    HW129246   3.404   2.121   5.545
 5911SOL    HW229247   3.337   2.015   5.441
 5912SOL     OW29248   2.476   1.984   3.841
 5912SOL    HW129249   2.574   1.962   3.848
 5912SOL    HW229250   2.445   1.967   3.748
 5913SOL     OW29251   2.643   2.126   5.473
 5913SOL    HW129252   2.710   2.065   5.516
 5913SOL    HW229253   2.570   2.145   5.538
 5914SOL     OW29254   2.750   3.376   4.919
 5914SOL    HW129255   2.727   3.351   4.825
 5914SOL    HW229256   2.811   3.307   4.958
 5915SOL     OW29257   3.213   2.452   5.157
 5915SOL    HW129258   3.241   2.409   5.242
 5915SOL    HW229259   3.238   2.548   5.158
 5916SOL     OW29260   2.665   3.264   4.648
 5916SOL    HW129261   2.755   3.278   4.606
 5916SOL    HW229262   2.594   3.266   4.577
 5917SOL     OW29263   2.784   2.365   4.623
 5917SOL    HW129264   2.759   2.356   4.527
 5917SOL    HW229265   2.832   2.283   4.654
 5918SOL     OW29266   2.401   1.926   4.236
 5918SOL    HW129267   2.320   1.927   4.294
 5918SOL    HW229268   2.404   2.009   4.181
 5919SOL     OW29269   3.296   3.050   3.765
 5919SOL    HW129270   3.328   2.974   3.822
 5919SOL    HW229271   3.204   3.077   3.795
 5920SOL     OW29272   2.159   1.897   3.895
 5920SOL    HW129273   2.208   1.981   3.874
 5920SOL    HW229274   2.221   1.832   3.940
 5921SOL     OW29275   2.797   2.098   4.204
 5921SOL    HW129276   2.749   2.139   4.126
 5921SOL    HW229277   2.896   2.096   4.185
 5922SOL     OW29278   2.938   2.545   5.188
 5922SOL    HW129279   2.858   2.484   5.191
 5922SOL    HW229280   3.019   2.492   5.164
 5923SOL     OW29281   3.089   3.432   4.517
 5923SOL    HW129282   3.110   3.506   4.452
 5923SOL    HW229283   3.157   3.432   4.590
 5924SOL     OW29284   2.321   3.014   4.465
 5924SOL    HW129285   2.250   2.987   4.530
 5924SOL    HW229286   2.295   2.986   4.372
 5925SOL     OW29287   3.133   3.659   4.315
 5925SOL    HW129288   3.177   3.723   4.251
 5925SOL    HW229289   3.083   3.711   4.385
 5926SOL     OW29290   2.894   2.411   3.740
 5926SOL    HW129291   2.853   2.493   3.701
 5926SOL    HW229292   2.958   2.437   3.813
 5927SOL     OW29293   1.940   2.418   5.110
 5927SOL    HW129294   2.032   2.417   5.069
 5927SOL    HW229295   1.934   2.492   5.177
 5928SOL     OW29296   2.423   2.084   4.871
 5928SOL    HW129297   2.461   2.000   4.908
 5928SOL    HW229298   2.335   2.103   4.915
 5929SOL     OW29299   2.728   2.316   4.366
 5929SOL    HW129300   2.696   2.388   4.304
 5929SOL    HW229301   2.752   2.235   4.313
 5930SOL     OW29302   2.879   1.901   4.477
 5930SOL    HW129303   2.807   1.906   4.408
 5930SOL    HW229304   2.855   1.832   4.546
 5931SOL     OW29305   3.291   3.035   4.591
 5931SOL    HW129306   3.236   2.951   4.584
 5931SOL    HW229307   3.317   3.064   4.499
 5932SOL     OW29308   3.328   2.452   4.716
 5932SOL    HW129309   3.298   2.357   4.723
 5932SOL    HW229310   3.401   2.468   4.782
 5933SOL     OW29311   3.719   2.695   4.101
 5933SOL    HW129312   3.761   2.631   4.165
 5933SOL    HW229313   3.681   2.644   4.023
 5934SOL     OW29314   2.350   3.247   3.898
 5934SOL    HW129315   2.263   3.232   3.945
 5934SOL    HW229316   2.333   3.273   3.803
 5935SOL     OW29317   3.526   3.142   4.381
 5935SOL    HW129318   3.625   3.150   4.395
 5935SOL    HW229319   3.481   3.226   4.412
 5936SOL     OW29320   3.252   2.437   3.802
 5936SOL    HW129321   3.198   2.416   3.883
 5936SOL    HW229322   3.343   2.396   3.811
 5937SOL     OW29323   2.389   2.118   4.052
 5937SOL    HW129324   2.416   2.059   3.977
 5937SOL    HW229325   2.389   2.213   4.021
 5938SOL     OW29326   3.616   3.085   5.312
 5938SOL    HW129327   3.707   3.046   5.299
 5938SOL    HW229328   3.624   3.181   5.336
 5939SOL     OW29329   2.926   3.209   5.064
 5939SOL    HW129330   2.846   3.186   5.119
 5939SOL    HW229331   3.009   3.183   5.113
 5940SOL     OW29332   3.454   3.491   5.349
 5940SOL    HW129333   3.481   3.525   5.259
 5940SOL    HW229334   3.533   3.453   5.395
 5941SOL     OW29335   2.973   3.057   4.824
 5941SOL    HW129336   2.933   3.101   4.905
 5941SOL    HW229337   2.932   3.094   4.741
 5942SOL     OW29338   3.500   2.961   4.803
 5942SOL    HW129339   3.505   3.042   4.862
 5942SOL    HW229340   3.414   2.963   4.752
 5943SOL     OW29341   2.777   1.951   5.126
 5943SOL    HW129342   2.802   1.931   5.031
 5943SOL    HW229343   2.849   2.007   5.168
 5944SOL     OW29344   2.842   2.978   5.443
 5944SOL    HW129345   2.743   2.984   5.453
 5944SOL    HW229346   2.865   2.898   5.387
 5945SOL     OW29347   2.567   2.912   4.092
 5945SOL    HW129348   2.553   2.919   4.191
 5945SOL    HW229349   2.651   2.861   4.074
 5946SOL     OW29350   2.272   2.675   4.975
 5946SOL    HW129351   2.358   2.687   5.025
 5946SOL    HW229352   2.230   2.588   5.002
 5947SOL     OW29353   3.136   2.248   4.986
 5947SOL    HW129354   3.157   2.322   5.050
 5947SOL    HW229355   3.047   2.265   4.943
 5948SOL     OW29356   1.926   3.426   5.055
 5948SOL    HW129357   1.880   3.508   5.021
 5948SOL    HW229358   2.024   3.445   5.064
 5949SOL     OW29359   2.229   2.962   4.225
 5949SOL    HW129360   2.222   3.045   4.169
 5949SOL    HW229361   2.233   2.882   4.165
 5950SOL     OW29362   2.428   2.399   4.589
 5950SOL    HW129363   2.440   2.465   4.515
 5950SOL    HW229364   2.474   2.433   4.672
 5951SOL     OW29365   3.114   3.210   4.112
 5951SOL    HW129366   3.164   3.287   4.152
 5951SOL    HW229367   3.019   3.212   4.144
 5952SOL     OW29368   3.134   3.307   4.866
 5952SOL    HW129369   3.181   3.320   4.953
 5952SOL    HW229370   3.068   3.233   4.875
 5953SOL     OW29371   3.444   2.501   4.196
 5953SOL    HW129372   3.413   2.562   4.269
 5953SOL    HW229373   3.494   2.553   4.127
 5954SOL     OW29374   2.216   3.372   5.053
 5954SOL    HW129375   2.195   3.328   4.966
 5954SOL    HW229376   2.313   3.398   5.056
 5955SOL     OW29377   2.264   2.613   5.322
 5955SOL    HW129378   2.332   2.668   5.275
 5955SOL    HW229379   2.304   2.525   5.349
 5956SOL     OW29380   3.449   2.641   5.394
 5956SOL    HW129381   3.357   2.679   5.389
 5956SOL    HW229382   3.509   2.688   5.329
 5957SOL     OW29383   2.875   1.967   5.494
 5957SOL    HW129384   2.881   2.052   5.442
 5957SOL    HW229385   2.907   1.891   5.437
 5958SOL     OW29386   2.366   1.912   5.464
 5958SOL    HW129387   2.324   1.855   5.394
 5958SOL    HW229388   2.300   1.981   5.496
 5959SOL     OW29389   2.435   2.732   4.753
 5959SOL    HW129390   2.479   2.821   4.744
 5959SOL    HW229391   2.372   2.732   4.830
 5960SOL     OW29392   3.222   2.724   4.769
 5960SOL    HW129393   3.147   2.724   4.703
 5960SOL    HW229394   3.259   2.632   4.778
 5961SOL     OW29395   3.071   2.387   3.999
 5961SOL    HW129396   3.084   2.303   4.053
 5961SOL    HW229397   3.042   2.461   4.059
 5962SOL     OW29398   2.169   2.075   4.955
 5962SOL    HW129399   2.146   2.112   5.045
 5962SOL    HW229400   2.139   1.980   4.949
 5963SOL     OW29401   1.899   3.172   5.006
 5963SOL    HW129402   1.952   3.123   5.074
 5963SOL    HW229403   1.921   3.270   5.011
 5964SOL     OW29404   2.594   2.496   4.788
 5964SOL    HW129405   2.653   2.470   4.712
 5964SOL    HW229406   2.566   2.592   4.777
 5965SOL     OW29407   3.590   2.797   5.578
 5965SOL    HW129408   3.544   2.790   5.489
 5965SOL    HW229409   3.528   2.841   5.644
 5966SOL     OW29410   2.169   1.925   4.342
 5966SOL    HW129411   2.158   2.019   4.375
 5966SOL    HW229412   2.164   1.862   4.419
 5967SOL     OW29413   3.484   2.229   4.098
 5967SOL    HW129414   3.486   2.153   4.162
 5967SOL    HW229415   3.436   2.306   4.138
 5968SOL     OW29416   2.885   2.628   4.690
 5968SOL    HW129417   2.900   2.649   4.786
 5968SOL    HW229418   2.855   2.533   4.681
 5969SOL     OW29419   2.842   3.435   5.424
 5969SOL    HW129420   2.822   3.479   5.336
 5969SOL    HW229421   2.881   3.344   5.408
 5970SOL     OW29422   3.721   3.380   5.329
 5970SOL    HW129423   3.735   3.407   5.234
 5970SOL    HW229424   3.804   3.402   5.382
 5971SOL     OW29425   2.212   2.760   5.528
 5971SOL    HW129426   2.288   2.804   5.576
 5971SOL    HW229427   2.247   2.713   5.446
 5972SOL     OW29428   3.402   2.136   3.849
 5972SOL    HW129429   3.341   2.061   3.872
 5972SOL    HW229430   3.424   2.188   3.932
 5973SOL     OW29431   3.165   2.700   3.766
 5973SOL    HW129432   3.199   2.607   3.781
 5973SOL    HW229433   3.183   2.727   3.671
 5974SOL     OW29434   2.930   3.195   4.573
 5974SOL    HW129435   2.937   3.111   4.518
 5974SOL    HW229436   2.992   3.264   4.537
 5975SOL     OW29437   2.181   2.672   4.673
 5975SOL    HW129438   2.274   2.708   4.678
 5975SOL    HW229439   2.175   2.587   4.725
 5976SOL     OW29440   2.201   2.371   4.730
 5976SOL    HW129441   2.149   2.288   4.713
 5976SOL    HW229442   2.278   2.376   4.666
 5977SOL     OW29443   3.000   2.242   5.402
 5977SOL    HW129444   2.955   2.305   5.466
 5977SOL    HW229445   3.093   2.273   5.385
 5978SOL     OW29446   3.022   2.069   5.201
 5978SOL    HW129447   3.022   2.133   5.278
 5978SOL    HW229448   3.050   2.117   5.118
 5979SOL     OW29449   1.870   3.188   3.924
 5979SOL    HW129450   1.777   3.209   3.893
 5979SOL    HW229451   1.880   3.089   3.937
 5980SOL     OW29452   1.950   3.663   4.651
 5980SOL    HW129453   1.908   3.577   4.624
 5980SOL    HW229454   2.044   3.666   4.617
 5981SOL     OW29455   2.366   3.430   4.634
 5981SOL    HW129456   2.432   3.504   4.643
 5981SOL    HW229457   2.410   3.351   4.592
 5982SOL     OW29458   2.864   2.658   4.962
 5982SOL    HW129459   2.905   2.626   5.048
 5982SOL    HW229460   2.768   2.631   4.959
 5983SOL     OW29461   1.902   2.406   4.838
 5983SOL    HW129462   1.987   2.373   4.797
 5983SOL    HW229463   1.915   2.421   4.936
 5984SOL     OW29464   2.051   2.382   5.446
 5984SOL    HW129465   2.110   2.342   5.376
 5984SOL    HW229466   1.993   2.453   5.405
 5985SOL     OW29467   3.231   2.812   5.384
 5985SOL    HW129468   3.270   2.901   5.404
 5985SOL    HW229469   3.241   2.792   5.287
 5986SOL     OW29470   2.677   2.434   4.049
 5986SOL    HW129471   2.684   2.345   4.003
 5986SOL    HW229472   2.583   2.468   4.041
 5987SOL     OW29473   3.519   2.466   4.930
 5987SOL    HW129474   3.481   2.397   4.992
 5987SOL    HW229475   3.601   2.430   4.886
 5988SOL     OW29476   2.114   3.426   5.468
 5988SOL    HW129477   2.084   3.483   5.544
 5988SOL    HW229478   2.107   3.329   5.494
 5989SOL     OW29479   2.533   2.326   4.993
 5989SOL    HW129480   2.499   2.237   4.963
 5989SOL    HW229481   2.559   2.380   4.913
 5990SOL     OW29482   2.792   3.540   5.189
 5990SOL    HW129483   2.768   3.522   5.094
 5990SOL    HW229484   2.822   3.634   5.199
 5991SOL     OW29485   2.335   2.362   3.915
 5991SOL    HW129486   2.396   2.442   3.919
 5991SOL    HW229487   2.240   2.393   3.922
 5992SOL     OW29488   2.021   2.999   5.190
 5992SOL    HW129489   2.043   2.938   5.266
 5992SOL    HW229490   2.031   2.950   5.104
 5993SOL     OW29491   3.209   2.921   4.958
 5993SOL    HW129492   3.233   2.858   4.884
 5993SOL    HW229493   3.119   2.961   4.940
 5994SOL     OW29494   3.164   2.717   4.033
 5994SOL    HW129495   3.078   2.686   4.075
 5994SOL    HW229496   3.160   2.703   3.934
 5995SOL     OW29497   3.621   3.609   4.878
 5995SOL    HW129498   3.682   3.639   4.805
 5995SOL    HW229499   3.583   3.520   4.856
 5996SOL     OW29500   3.114   3.593   4.852
 5996SOL    HW129501   3.198   3.598   4.798
 5996SOL    HW229502   3.091   3.497   4.870
 5997SOL     OW29503   1.945   3.120   4.746
 5997SOL    HW129504   1.940   3.119   4.846
 5997SOL    HW229505   1.862   3.079   4.708
 5998SOL     OW29506   2.550   3.524   5.440
 5998SOL    HW129507   2.494   3.605   5.449
 5998SOL    HW229508   2.602   3.528   5.354
 5999SOL     OW29509   3.588   1.997   4.247
 5999SOL    HW129510   3.661   1.980   4.180
 5999SOL    HW229511   3.557   1.910   4.285
 6000SOL     OW29512   3.250   3.435   4.201
 6000SOL    HW129513   3.317   3.447   4.127
 6000SOL    HW229514   3.210   3.524   4.224
 6001SOL     OW29515   1.992   3.656   5.575
 6001SOL    HW129516   1.951   3.582   5.628
 6001SOL    HW229517   2.056   3.707   5.633
 6002SOL     OW29518   3.142   2.789   4.396
 6002SOL    HW129519   3.202   2.708   4.398
 6002SOL    HW229520   3.182   2.858   4.336
 6003SOL     OW29521   2.692   3.135   5.146
 6003SOL    HW129522   2.687   3.168   5.241
 6003SOL    HW229523   2.606   3.154   5.100
 6004SOL     OW29524   2.534   3.478   3.878
 6004SOL    HW129525   2.543   3.488   3.779
 6004SOL    HW229526   2.494   3.389   3.899
 6005SOL     OW29527   3.512   3.582   5.118
 6005SOL    HW129528   3.565   3.592   5.034
 6005SOL    HW229529   3.485   3.672   5.152
 6006SOL     OW29530   3.703   2.037   4.687
 6006SOL    HW129531   3.742   1.952   4.651
 6006SOL    HW229532   3.605   2.039   4.668
 6007SOL     OW29533   2.125   2.188   4.444
 6007SOL    HW129534   2.046   2.239   4.410
 6007SOL    HW229535   2.116   2.173   4.542
 6008SOL     OW29536   3.056   3.474   3.755
 6008SOL    HW129537   3.062   3.381   3.792
 6008SOL    HW229538   2.997   3.474   3.675
 6009SOL     OW29539   2.684   2.864   5.096
 6009SOL    HW129540   2.724   2.863   5.004
 6009SOL    HW229541   2.694   2.956   5.136
 6010SOL     OW29542   2.778   2.772   4.015
 6010SOL    HW129543   2.841   2.810   3.947
 6010SOL    HW229544   2.818   2.689   4.054
 6011SOL     OW29545   3.366   3.469   3.768
 6011SOL    HW129546   3.274   3.506   3.775
 6011SOL    HW229547   3.404   3.489   3.678
 6012SOL     OW29548   2.234   3.150   5.214
 6012SOL    HW129549   2.221   3.243   5.180
 6012SOL    HW229550   2.150   3.098   5.201
 6013SOL     OW29551   3.476   3.154   5.013
 6013SOL    HW129552   3.536   3.157   5.093
 6013SOL    HW229553   3.401   3.218   5.026
 6014SOL     OW29554   2.901   2.960   4.420
 6014SOL    HW129555   2.831   2.913   4.474
 6014SOL    HW229556   2.960   2.892   4.377
 6015SOL     OW29557   2.876   2.098   4.695
 6015SOL    HW129558   2.868   2.062   4.602
 6015SOL    HW229559   2.874   2.022   4.760
 6016SOL     OW29560   2.452   3.349   4.215
 6016SOL    HW129561   2.494   3.291   4.145
 6016SOL    HW229562   2.408   3.428   4.171
 6017SOL     OW29563   3.571   2.247   5.105
 6017SOL    HW129564   3.644   2.316   5.109
 6017SOL    HW229565   3.599   2.172   5.046
 6018SOL     OW29566   2.117   3.210   4.014
 6018SOL    HW129567   2.021   3.211   3.987
 6018SOL    HW229568   2.129   3.263   4.098
 6019SOL     OW29569   1.967   2.875   5.450
 6019SOL    HW129570   1.890   2.842   5.504
 6019SOL    HW229571   2.052   2.845   5.492
 6020SOL     OW29572   2.534   2.065   5.213
 6020SOL    HW129573   2.624   2.049   5.173
 6020SOL    HW229574   2.542   2.070   5.312
 6021SOL     OW29575   1.937   2.207   3.757
 6021SOL    HW129576   1.845   2.179   3.728
 6021SOL    HW229577   1.968   2.284   3.701
 6022SOL     OW29578   3.302   2.718   5.122
 6022SOL    HW129579   3.245   2.770   5.059
 6022SOL    HW229580   3.398   2.730   5.098
 6023SOL     OW29581   1.934   2.028   4.042
 6023SOL    HW129582   1.917   2.111   3.988
 6023SOL    HW229583   2.024   1.991   4.020
 6024SOL     OW29584   3.045   3.197   3.843
 6024SOL    HW129585   2.946   3.186   3.845
 6024SOL    HW229586   3.079   3.212   3.936
 6025SOL     OW29587   2.475   2.704   5.155
 6025SOL    HW129588   2.531   2.785   5.138
 6025SOL    HW229589   2.534   2.624   5.158
 6026SOL     OW29590   3.355   3.629   4.683
 6026SOL    HW129591   3.388   3.693   4.614
 6026SOL    HW229592   3.421   3.623   4.758
 6027SOL     OW29593   2.578   2.427   5.432
 6027SOL    HW129594   2.597   2.492   5.506
 6027SOL    HW229595   2.638   2.347   5.441
 6028SOL     OW29596   3.312   3.082   5.357
 6028SOL    HW129597   3.303   3.072   5.456
 6028SOL    HW229598   3.408   3.075   5.331
 6029SOL     OW29599   2.252   3.603   5.284
 6029SOL    HW129600   2.161   3.644   5.282
 6029SOL    HW229601   2.245   3.509   5.316
 6030SOL     OW29602   3.536   2.745   4.978
 6030SOL    HW129603   3.509   2.656   4.941
 6030SOL    HW229604   3.537   2.813   4.905
 6031SOL     OW29605   3.087   2.187   4.173
 6031SOL    HW129606   3.152   2.113   4.162
 6031SOL    HW229607   3.107   2.237   4.257
 6032SOL     OW29608   2.456   2.607   4.376
 6032SOL    HW129609   2.506   2.692   4.357
 6032SOL    HW229610   2.368   2.609   4.328
 6033SOL     OW29611   3.639   2.204   5.366
 6033SOL    HW129612   3.622   2.235   5.272
 6033SOL    HW229613   3.555   2.167   5.404
 6034SOL     OW29614   3.592   2.796   5.241
 6034SOL    HW129615   3.630   2.887   5.256
 6034SOL    HW229616   3.584   2.779   5.142
 6035SOL     OW29617   2.721   3.236   3.740
 6035SOL    HW129618   2.675   3.251   3.828
 6035SOL    HW229619   2.765   3.321   3.710
 6036SOL     OW29620   2.523   3.652   4.677
 6036SOL    HW129621   2.477   3.740   4.664
 6036SOL    HW229622   2.622   3.664   4.670
 6037SOL     OW29623   2.721   2.818   4.585
 6037SOL    HW129624   2.775   2.749   4.633
 6037SOL    HW229625   2.689   2.887   4.651
 6038SOL     OW29626   2.945   2.846   3.811
 6038SOL    HW129627   2.922   2.899   3.729
 6038SOL    HW229628   3.026   2.790   3.792
 6039SOL     OW29629   3.723   3.431   4.575
 6039SOL    HW129630   3.652   3.419   4.505
 6039SOL    HW229631   3.724   3.352   4.635
 6040SOL     OW29632   2.083   3.176   5.568
 6040SOL    HW129633   2.018   3.103   5.547
 6040SOL    HW229634   2.087   3.190   5.666
 6041SOL     OW29635   1.941   3.102   4.377
 6041SOL    HW129636   1.940   3.055   4.465
 6041SOL    HW229637   2.023   3.074   4.326
 6042SOL     OW29638   2.534   3.253   5.348
 6042SOL    HW129639   2.456   3.203   5.386
 6042SOL    HW229640   2.531   3.348   5.379
 6043SOL     OW29641   3.686   2.054   4.951
 6043SOL    HW129642   3.682   1.964   4.995
 6043SOL    HW229643   3.689   2.043   4.852
 6044SOL     OW29644   2.290   2.286   4.244
 6044SOL    HW129645   2.320   2.214   4.182
 6044SOL    HW229646   2.251   2.246   4.327
 6045SOL     OW29647   3.567   3.349   4.828
 6045SOL    HW129648   3.474   3.324   4.801
 6045SOL    HW229649   3.593   3.299   4.910
 6046SOL     OW29650   2.179   2.409   5.004
 6046SOL    HW129651   2.217   2.350   5.076
 6046SOL    HW229652   2.219   2.383   4.916
 6047SOL     OW29653   2.674   3.448   4.411
 6047SOL    HW129654   2.706   3.458   4.317
 6047SOL    HW229655   2.595   3.386   4.413
 6048SOL     OW29656   3.286   2.076   4.836
 6048SOL    HW129657   3.338   2.011   4.891
 6048SOL    HW229658   3.237   2.139   4.897
 6049SOL     OW29659   2.863   1.896   4.878
 6049SOL    HW129660   2.800   1.824   4.847
 6049SOL    HW229661   2.956   1.860   4.878
 6050SOL     OW29662   2.632   3.192   4.025
 6050SOL    HW129663   2.586   3.105   4.042
 6050SOL    HW229664   2.723   3.189   4.066
 6051SOL     OW29665   2.480   3.429   5.008
 6051SOL    HW129666   2.475   3.511   5.065
 6051SOL    HW229667   2.569   3.426   4.963
 6052SOL     OW29668   3.214   1.914   3.892
 6052SOL    HW129669   3.249   1.873   3.808
 6052SOL    HW229670   3.124   1.876   3.912
 6053SOL     OW29671   3.162   2.315   4.415
 6053SOL    HW129672   3.103   2.395   4.419
 6053SOL    HW229673   3.177   2.280   4.508
 6054SOL     OW29674   3.455   2.083   4.606
 6054SOL    HW129675   3.371   2.082   4.660
 6054SOL    HW229676   3.457   2.166   4.550
 6055SOL     OW29677   1.901   2.939   4.024
 6055SOL    HW129678   2.000   2.928   4.015
 6055SOL    HW229679   1.861   2.853   4.056
 6056SOL     OW29680   2.737   3.508   4.061
 6056SOL    HW129681   2.660   3.473   4.007
 6056SOL    HW229682   2.705   3.579   4.123
 6057SOL     OW29683   2.092   2.490   5.699
 6057SOL    HW129684   1.999   2.488   5.736
 6057SOL    HW229685   2.093   2.451   5.607
 6058SOL     OW29686   2.087   2.137   6.582
 6058SOL    HW129687   2.122   2.120   6.674
 6058SOL    HW229688   1.999   2.092   6.570
 6059SOL     OW29689   1.881   2.230   6.233
 6059SOL    HW129690   1.799   2.273   6.272
 6059SOL    HW229691   1.853   2.157   6.170
 6060SOL     OW29692   2.431   3.137   6.751
 6060SOL    HW129693   2.338   3.130   6.714
 6060SOL    HW229694   2.442   3.226   6.795
 6061SOL     OW29695   3.417   3.373   6.289
 6061SOL    HW129696   3.360   3.357   6.370
 6061SOL    HW229697   3.358   3.383   6.209
 6062SOL     OW29698   2.997   2.565   6.303
 6062SOL    HW129699   3.054   2.643   6.278
 6062SOL    HW229700   2.937   2.591   6.379
 6063SOL     OW29701   3.617   2.469   5.817
 6063SOL    HW129702   3.605   2.456   5.718
 6063SOL    HW229703   3.587   2.388   5.866
 6064SOL     OW29704   2.630   3.006   6.609
 6064SOL    HW129705   2.552   3.023   6.669
 6064SOL    HW229706   2.664   3.093   6.573
 6065SOL     OW29707   2.712   2.660   7.409
 6065SOL    HW129708   2.708   2.736   7.474
 6065SOL    HW229709   2.734   2.696   7.318
 6066SOL     OW29710   2.547   2.874   6.251
 6066SOL    HW129711   2.616   2.858   6.321
 6066SOL    HW229712   2.474   2.931   6.289
 6067SOL     OW29713   2.548   3.023   7.389
 6067SOL    HW129714   2.608   3.102   7.403
 6067SOL    HW229715   2.462   3.054   7.348
 6068SOL     OW29716   2.197   3.297   6.647
 6068SOL    HW129717   2.119   3.266   6.594
 6068SOL    HW229718   2.255   3.355   6.590
 6069SOL     OW29719   3.322   3.367   6.925
 6069SOL    HW129720   3.346   3.461   6.951
 6069SOL    HW229721   3.306   3.313   7.007
 6070SOL     OW29722   2.300   2.254   7.085
 6070SOL    HW129723   2.382   2.198   7.094
 6070SOL    HW229724   2.219   2.196   7.089
 6071SOL     OW29725   3.465   2.309   6.323
 6071SOL    HW129726   3.391   2.355   6.273
 6071SOL    HW229727   3.516   2.377   6.376
 6072SOL     OW29728   2.093   3.575   6.069
 6072SOL    HW129729   2.127   3.652   6.123
 6072SOL    HW229730   2.137   3.575   5.979
 6073SOL     OW29731   2.989   3.203   7.276
 6073SOL    HW129732   3.036   3.203   7.364
 6073SOL    HW229733   2.941   3.116   7.265
 6074SOL     OW29734   2.092   3.296   6.124
 6074SOL    HW129735   2.066   3.392   6.124
 6074SOL    HW229736   2.021   3.242   6.169
 6075SOL     OW29737   2.102   2.953   6.472
 6075SOL    HW129738   2.116   2.869   6.524
 6075SOL    HW229739   2.047   3.017   6.527
 6076SOL     OW29740   2.482   3.648   7.025
 6076SOL    HW129741   2.390   3.631   7.060
 6076SOL    HW229742   2.510   3.740   7.051
 6077SOL     OW29743   2.468   2.826   5.709
 6077SOL    HW129744   2.475   2.910   5.655
 6077SOL    HW229745   2.514   2.839   5.797
 6078SOL     OW29746   3.456   1.976   7.066
 6078SOL    HW129747   3.438   2.043   6.994
 6078SOL    HW229748   3.453   2.022   7.155
 6079SOL     OW29749   1.984   2.505   6.149
 6079SOL    HW129750   1.939   2.417   6.166
 6079SOL    HW229751   1.983   2.559   6.233
 6080SOL     OW29752   3.704   3.629   5.945
 6080SOL    HW129753   3.758   3.600   6.025
 6080SOL    HW229754   3.734   3.719   5.916
 6081SOL     OW29755   1.889   3.458   5.703
 6081SOL    HW129756   1.870   3.362   5.724
 6081SOL    HW229757   1.856   3.516   5.778
 6082SOL     OW29758   3.551   2.784   6.198
 6082SOL    HW129759   3.646   2.755   6.206
 6082SOL    HW229760   3.543   2.849   6.123
 6083SOL     OW29761   3.503   2.970   6.018
 6083SOL    HW129762   3.589   2.972   5.966
 6083SOL    HW229763   3.517   3.017   6.106
 6084SOL     OW29764   1.975   2.599   7.183
 6084SOL    HW129765   2.063   2.586   7.228
 6084SOL    HW229766   1.962   2.696   7.161
 6085SOL     OW29767   2.475   3.227   6.312
 6085SOL    HW129768   2.426   3.140   6.321
 6085SOL    HW229769   2.452   3.270   6.225
 6086SOL     OW29770   3.155   3.090   7.009
 6086SOL    HW129771   3.192   3.017   6.951
 6086SOL    HW229772   3.207   3.095   7.094
 6087SOL     OW29773   2.671   1.866   6.088
 6087SOL    HW129774   2.711   1.957   6.079
 6087SOL    HW229775   2.571   1.874   6.094
 6088SOL     OW29776   2.059   2.838   6.850
 6088SOL    HW129777   2.148   2.793   6.836
 6088SOL    HW229778   1.986   2.773   6.831
 6089SOL     OW29779   3.387   2.861   5.776
 6089SOL    HW129780   3.324   2.785   5.789
 6089SOL    HW229781   3.435   2.879   5.862
 6090SOL     OW29782   3.049   3.654   7.202
 6090SOL    HW129783   3.073   3.714   7.126
 6090SOL    HW229784   3.056   3.559   7.172
 6091SOL     OW29785   2.179   2.113   7.387
 6091SOL    HW129786   2.250   2.184   7.393
 6091SOL    HW229787   2.091   2.152   7.415
 6092SOL     OW29788   3.328   3.279   6.539
 6092SOL    HW129789   3.269   3.285   6.619
 6092SOL    HW229790   3.313   3.191   6.493
 6093SOL     OW29791   3.529   3.576   6.158
 6093SOL    HW129792   3.488   3.553   6.070
 6093SOL    HW229793   3.511   3.502   6.223
 6094SOL     OW29794   2.460   2.591   5.856
 6094SOL    HW129795   2.484   2.660   5.788
 6094SOL    HW229796   2.382   2.624   5.910
 6095SOL     OW29797   3.143   2.207   6.530
 6095SOL    HW129798   3.057   2.157   6.517
 6095SOL    HW229799   3.205   2.153   6.586
 6096SOL     OW29800   2.669   2.467   7.051
 6096SOL    HW129801   2.622   2.464   7.140
 6096SOL    HW229802   2.618   2.412   6.985
 6097SOL     OW29803   3.256   2.331   7.260
 6097SOL    HW129804   3.236   2.374   7.348
 6097SOL    HW229805   3.334   2.269   7.269
 6098SOL     OW29806   2.835   2.752   7.158
 6098SOL    HW129807   2.881   2.668   7.129
 6098SOL    HW229808   2.779   2.786   7.083
 6099SOL     OW29809   2.853   2.272   6.828
 6099SOL    HW129810   2.776   2.306   6.882
 6099SOL    HW229811   2.819   2.221   6.749
 6100SOL     OW29812   2.903   2.563   6.015
 6100SOL    HW129813   2.929   2.559   6.111
 6100SOL    HW229814   2.818   2.512   6.001
 6101SOL     OW29815   1.938   2.673   6.375
 6101SOL    HW129816   2.037   2.661   6.384
 6101SOL    HW229817   1.914   2.768   6.396
 6102SOL     OW29818   1.992   3.683   7.157
 6102SOL    HW129819   1.982   3.668   7.256
 6102SOL    HW229820   1.906   3.719   7.121
 6103SOL     OW29821   2.727   2.210   5.781
 6103SOL    HW129822   2.786   2.273   5.732
 6103SOL    HW229823   2.746   2.116   5.752
 6104SOL     OW29824   3.581   2.447   7.417
 6104SOL    HW129825   3.555   2.536   7.381
 6104SOL    HW229826   3.579   2.379   7.344
 6105SOL     OW29827   3.224   3.006   6.131
 6105SOL    HW129828   3.307   2.977   6.083
 6105SOL    HW229829   3.175   3.073   6.075
 6106SOL     OW29830   2.412   2.058   6.471
 6106SOL    HW129831   2.407   2.053   6.571
 6106SOL    HW229832   2.414   2.154   6.442
 6107SOL     OW29833   2.870   3.318   6.063
 6107SOL    HW129834   2.824   3.390   6.011
 6107SOL    HW229835   2.866   3.338   6.161
 6108SOL     OW29836   2.213   3.663   6.439
 6108SOL    HW129837   2.263   3.577   6.445
 6108SOL    HW229838   2.278   3.740   6.436
 6109SOL     OW29839   3.657   2.928   6.459
 6109SOL    HW129840   3.595   2.913   6.383
 6109SOL    HW229841   3.605   2.939   6.544
 6110SOL     OW29842   3.089   3.412   7.092
 6110SOL    HW129843   3.095   3.335   7.156
 6110SOL    HW229844   3.037   3.386   7.012
 6111SOL     OW29845   2.183   2.805   5.828
 6111SOL    HW129846   2.265   2.844   5.786
 6111SOL    HW229847   2.156   2.723   5.779
 6112SOL     OW29848   3.320   2.597   6.314
 6112SOL    HW129849   3.315   2.532   6.389
 6112SOL    HW229850   3.400   2.656   6.327
 6113SOL     OW29851   2.323   3.128   7.313
 6113SOL    HW129852   2.273   3.129   7.227
 6113SOL    HW229853   2.260   3.110   7.389
 6114SOL     OW29854   2.973   3.638   5.823
 6114SOL    HW129855   2.913   3.576   5.873
 6114SOL    HW229856   3.004   3.594   5.738
 6115SOL     OW29857   2.064   2.147   7.084
 6115SOL    HW129858   1.984   2.207   7.071
 6115SOL    HW229859   2.054   2.098   7.170
 6116SOL     OW29860   3.494   3.239   5.667
 6116SOL    HW129861   3.462   3.333   5.657
 6116SOL    HW229862   3.418   3.176   5.655
 6117SOL     OW29863   2.326   3.605   5.909
 6117SOL    HW129864   2.359   3.644   5.995
 6117SOL    HW229865   2.402   3.598   5.844
 6118SOL     OW29866   3.262   1.969   6.012
 6118SOL    HW129867   3.238   1.932   5.922
 6118SOL    HW229868   3.361   1.985   6.016
 6119SOL     OW29869   2.111   3.647   6.827
 6119SOL    HW129870   2.168   3.582   6.877
 6119SOL    HW229871   2.095   3.614   6.734
 6120SOL     OW29872   2.802   3.560   6.490
 6120SOL    HW129873   2.882   3.503   6.511
 6120SOL    HW229874   2.753   3.520   6.413
 6121SOL     OW29875   2.244   2.562   6.066
 6121SOL    HW129876   2.289   2.472   6.063
 6121SOL    HW229877   2.150   2.551   6.099
 6122SOL     OW29878   3.409   2.084   7.315
 6122SOL    HW129879   3.404   2.121   7.407
 6122SOL    HW229880   3.337   2.015   7.303
 6123SOL     OW29881   2.476   1.984   5.703
 6123SOL    HW129882   2.574   1.962   5.710
 6123SOL    HW229883   2.445   1.967   5.610
 6124SOL     OW29884   2.643   2.126   7.335
 6124SOL    HW129885   2.710   2.065   7.378
 6124SOL    HW229886   2.570   2.145   7.400
 6125SOL     OW29887   2.750   3.376   6.781
 6125SOL    HW129888   2.727   3.351   6.687
 6125SOL    HW229889   2.811   3.307   6.820
 6126SOL     OW29890   3.213   2.452   7.019
 6126SOL    HW129891   3.241   2.409   7.104
 6126SOL    HW229892   3.238   2.548   7.020
 6127SOL     OW29893   2.665   3.264   6.510
 6127SOL    HW129894   2.755   3.278   6.468
 6127SOL    HW229895   2.594   3.266   6.439
 6128SOL     OW29896   2.784   2.365   6.485
 6128SOL    HW129897   2.759   2.356   6.389
 6128SOL    HW229898   2.832   2.283   6.516
 6129SOL     OW29899   2.401   1.926   6.098
 6129SOL    HW129900   2.320   1.927   6.156
 6129SOL    HW229901   2.404   2.009   6.043
 6130SOL     OW29902   3.296   3.050   5.627
 6130SOL    HW129903   3.328   2.974   5.684
 6130SOL    HW229904   3.204   3.077   5.657
 6131SOL     OW29905   2.159   1.897   5.757
 6131SOL    HW129906   2.208   1.981   5.736
 6131SOL    HW229907   2.221   1.832   5.802
 6132SOL     OW29908   2.797   2.098   6.066
 6132SOL    HW129909   2.749   2.139   5.988
 6132SOL    HW229910   2.896   2.096   6.047
 6133SOL     OW29911   2.938   2.545   7.050
 6133SOL    HW129912   2.858   2.484   7.053
 6133SOL    HW229913   3.019   2.492   7.026
 6134SOL     OW29914   3.089   3.432   6.379
 6134SOL    HW129915   3.110   3.506   6.314
 6134SOL    HW229916   3.157   3.432   6.452
 6135SOL     OW29917   2.321   3.014   6.327
 6135SOL    HW129918   2.250   2.987   6.392
 6135SOL    HW229919   2.295   2.986   6.234
 6136SOL     OW29920   3.133   3.659   6.177
 6136SOL    HW129921   3.177   3.723   6.113
 6136SOL    HW229922   3.083   3.711   6.247
 6137SOL     OW29923   2.894   2.411   5.602
 6137SOL    HW129924   2.853   2.493   5.563
 6137SOL    HW229925   2.958   2.437   5.675
 6138SOL     OW29926   1.940   2.418   6.972
 6138SOL    HW129927   2.032   2.417   6.931
 6138SOL    HW229928   1.934   2.492   7.039
 6139SOL     OW29929   2.423   2.084   6.733
 6139SOL    HW129930   2.461   2.000   6.770
 6139SOL    HW229931   2.335   2.103   6.777
 6140SOL     OW29932   2.728   2.316   6.228
 6140SOL    HW129933   2.696   2.388   6.166
 6140SOL    HW229934   2.752   2.235   6.175
 6141SOL     OW29935   2.879   1.901   6.339
 6141SOL    HW129936   2.807   1.906   6.270
 6141SOL    HW229937   2.855   1.832   6.408
 6142SOL     OW29938   3.291   3.035   6.453
 6142SOL    HW129939   3.236   2.951   6.446
 6142SOL    HW229940   3.317   3.064   6.361
 6143SOL     OW29941   3.328   2.452   6.578
 6143SOL    HW129942   3.298   2.357   6.585
 6143SOL    HW229943   3.401   2.468   6.644
 6144SOL     OW29944   3.719   2.695   5.963
 6144SOL    HW129945   3.761   2.631   6.027
 6144SOL    HW229946   3.681   2.644   5.885
 6145SOL     OW29947   2.350   3.247   5.760
 6145SOL    HW129948   2.263   3.232   5.807
 6145SOL    HW229949   2.333   3.273   5.665
 6146SOL     OW29950   3.526   3.142   6.243
 6146SOL    HW129951   3.625   3.150   6.257
 6146SOL    HW229952   3.481   3.226   6.274
 6147SOL     OW29953   3.252   2.437   5.664
 6147SOL    HW129954   3.198   2.416   5.745
 6147SOL    HW229955   3.343   2.396   5.673
 6148SOL     OW29956   2.389   2.118   5.914
 6148SOL    HW129957   2.416   2.059   5.839
 6148SOL    HW229958   2.389   2.213   5.883
 6149SOL     OW29959   3.616   3.085   7.174
 6149SOL    HW129960   3.707   3.046   7.161
 6149SOL    HW229961   3.624   3.181   7.198
 6150SOL     OW29962   2.926   3.209   6.926
 6150SOL    HW129963   2.846   3.186   6.981
 6150SOL    HW229964   3.009   3.183   6.975
 6151SOL     OW29965   3.454   3.491   7.211
 6151SOL    HW129966   3.481   3.525   7.121
 6151SOL    HW229967   3.533   3.453   7.257
 6152SOL     OW29968   2.973   3.057   6.686
 6152SOL    HW129969   2.933   3.101   6.767
 6152SOL    HW229970   2.932   3.094   6.603
 6153SOL     OW29971   3.500   2.961   6.665
 6153SOL    HW129972   3.505   3.042   6.724
 6153SOL    HW229973   3.414   2.963   6.614
 6154SOL     OW29974   2.777   1.951   6.988
 6154SOL    HW129975   2.802   1.931   6.893
 6154SOL    HW229976   2.849   2.007   7.030
 6155SOL     OW29977   2.842   2.978   7.305
 6155SOL    HW129978   2.743   2.984   7.315
 6155SOL    HW229979   2.865   2.898   7.249
 6156SOL     OW29980   2.567   2.912   5.954
 6156SOL    HW129981   2.553   2.919   6.053
 6156SOL    HW229982   2.651   2.861   5.936
 6157SOL     OW29983   2.272   2.675   6.837
 6157SOL    HW129984   2.358   2.687   6.887
 6157SOL    HW229985   2.230   2.588   6.864
 6158SOL     OW29986   3.136   2.248   6.848
 6158SOL    HW129987   3.157   2.322   6.912
 6158SOL    HW229988   3.047   2.265   6.805
 6159SOL     OW29989   1.926   3.426   6.917
 6159SOL    HW129990   1.880   3.508   6.883
 6159SOL    HW229991   2.024   3.445   6.926
 6160SOL     OW29992   2.229   2.962   6.087
 6160SOL    HW129993   2.222   3.045   6.031
 6160SOL    HW229994   2.233   2.882   6.027
 6161SOL     OW29995   2.428   2.399   6.451
 6161SOL    HW129996   2.440   2.465   6.377
 6161SOL    HW229997   2.474   2.433   6.534
 6162SOL     OW29998   3.114   3.210   5.974
 6162SOL    HW129999   3.164   3.287   6.014
 6162SOL    HW230000   3.019   3.212   6.006
 6163SOL     OW30001   3.134   3.307   6.728
 6163SOL    HW130002   3.181   3.320   6.815
 6163SOL    HW230003   3.068   3.233   6.737
 6164SOL     OW30004   3.444   2.501   6.058
 6164SOL    HW130005   3.413   2.562   6.131
 6164SOL    HW230006   3.494   2.553   5.989
 6165SOL     OW30007   2.216   3.372   6.915
 6165SOL    HW130008   2.195   3.328   6.828
 6165SOL    HW230009   2.313   3.398   6.918
 6166SOL     OW30010   2.264   2.613   7.184
 6166SOL    HW130011   2.332   2.668   7.137
 6166SOL    HW230012   2.304   2.525   7.211
 6167SOL     OW30013   3.449   2.641   7.256
 6167SOL    HW130014   3.357   2.679   7.251
 6167SOL    HW230015   3.509   2.688   7.191
 6168SOL     OW30016   2.875   1.967   7.356
 6168SOL    HW130017   2.881   2.052   7.304
 6168SOL    HW230018   2.907   1.891   7.299
 6169SOL     OW30019   2.366   1.912   7.326
 6169SOL    HW130020   2.324   1.855   7.256
 6169SOL    HW230021   2.300   1.981   7.358
 6170SOL     OW30022   2.435   2.732   6.615
 6170SOL    HW130023   2.479   2.821   6.606
 6170SOL    HW230024   2.372   2.732   6.692
 6171SOL     OW30025   3.222   2.724   6.631
 6171SOL    HW130026   3.147   2.724   6.565
 6171SOL    HW230027   3.259   2.632   6.640
 6172SOL     OW30028   3.071   2.387   5.861
 6172SOL    HW130029   3.084   2.303   5.915
 6172SOL    HW230030   3.042   2.461   5.921
 6173SOL     OW30031   2.169   2.075   6.817
 6173SOL    HW130032   2.146   2.112   6.907
 6173SOL    HW230033   2.139   1.980   6.811
 6174SOL     OW30034   1.899   3.172   6.868
 6174SOL    HW130035   1.952   3.123   6.936
 6174SOL    HW230036   1.921   3.270   6.873
 6175SOL     OW30037   2.594   2.496   6.650
 6175SOL    HW130038   2.653   2.470   6.574
 6175SOL    HW230039   2.566   2.592   6.639
 6176SOL     OW30040   3.590   2.797   7.440
 6176SOL    HW130041   3.544   2.790   7.351
 6176SOL    HW230042   3.528   2.841   7.506
 6177SOL     OW30043   2.169   1.925   6.204
 6177SOL    HW130044   2.158   2.019   6.237
 6177SOL    HW230045   2.164   1.862   6.281
 6178SOL     OW30046   3.484   2.229   5.960
 6178SOL    HW130047   3.486   2.153   6.024
 6178SOL    HW230048   3.436   2.306   6.000
 6179SOL     OW30049   2.885   2.628   6.552
 6179SOL    HW130050   2.900   2.649   6.648
 6179SOL    HW230051   2.855   2.533   6.543
 6180SOL     OW30052   2.842   3.435   7.286
 6180SOL    HW130053   2.822   3.479   7.198
 6180SOL    HW230054   2.881   3.344   7.270
 6181SOL     OW30055   3.721   3.380   7.191
 6181SOL    HW130056   3.735   3.407   7.096
 6181SOL    HW230057   3.804   3.402   7.244
 6182SOL     OW30058   2.212   2.760   7.390
 6182SOL    HW130059   2.288   2.804   7.438
 6182SOL    HW230060   2.247   2.713   7.308
 6183SOL     OW30061   3.402   2.136   5.711
 6183SOL    HW130062   3.341   2.061   5.734
 6183SOL    HW230063   3.424   2.188   5.794
 6184SOL     OW30064   3.165   2.700   5.628
 6184SOL    HW130065   3.199   2.607   5.643
 6184SOL    HW230066   3.183   2.727   5.533
 6185SOL     OW30067   2.930   3.195   6.435
 6185SOL    HW130068   2.937   3.111   6.380
 6185SOL    HW230069   2.992   3.264   6.399
 6186SOL     OW30070   2.181   2.672   6.535
 6186SOL    HW130071   2.274   2.708   6.540
 6186SOL    HW230072   2.175   2.587   6.587
 6187SOL     OW30073   2.201   2.371   6.592
 6187SOL    HW130074   2.149   2.288   6.575
 6187SOL    HW230075   2.278   2.376   6.528
 6188SOL     OW30076   3.000   2.242   7.264
 6188SOL    HW130077   2.955   2.305   7.328
 6188SOL    HW230078   3.093   2.273   7.247
 6189SOL     OW30079   3.022   2.069   7.063
 6189SOL    HW130080   3.022   2.133   7.140
 6189SOL    HW230081   3.050   2.117   6.980
 6190SOL     OW30082   1.870   3.188   5.786
 6190SOL    HW130083   1.777   3.209   5.755
 6190SOL    HW230084   1.880   3.089   5.799
 6191SOL     OW30085   1.950   3.663   6.513
 6191SOL    HW130086   1.908   3.577   6.486
 6191SOL    HW230087   2.044   3.666   6.479
 6192SOL     OW30088   2.366   3.430   6.496
 6192SOL    HW130089   2.432   3.504   6.505
 6192SOL    HW230090   2.410   3.351   6.454
 6193SOL     OW30091   2.864   2.658   6.824
 6193SOL    HW130092   2.905   2.626   6.910
 6193SOL    HW230093   2.768   2.631   6.821
 6194SOL     OW30094   1.902   2.406   6.700
 6194SOL    HW130095   1.987   2.373   6.659
 6194SOL    HW230096   1.915   2.421   6.798
 6195SOL     OW30097   2.051   2.382   7.308
 6195SOL    HW130098   2.110   2.342   7.238
 6195SOL    HW230099   1.993   2.453   7.267
 6196SOL     OW30100   3.231   2.812   7.246
 6196SOL    HW130101   3.270   2.901   7.266
 6196SOL    HW230102   3.241   2.792   7.149
 6197SOL     OW30103   2.677   2.434   5.911
 6197SOL    HW130104   2.684   2.345   5.865
 6197SOL    HW230105   2.583   2.468   5.903
 6198SOL     OW30106   3.519   2.466   6.792
 6198SOL    HW130107   3.481   2.397   6.854
 6198SOL    HW230108   3.601   2.430   6.748
 6199SOL     OW30109   2.114   3.426   7.330
 6199SOL    HW130110   2.084   3.483   7.406
 6199SOL    HW230111   2.107   3.329   7.356
 6200SOL     OW30112   2.533   2.326   6.855
 6200SOL    HW130113   2.499   2.237   6.825
 6200SOL    HW230114   2.559   2.380   6.775
 6201SOL     OW30115   2.792   3.540   7.051
 6201SOL    HW130116   2.768   3.522   6.956
 6201SOL    HW230117   2.822   3.634   7.061
 6202SOL     OW30118   2.335   2.362   5.777
 6202SOL    HW130119   2.396   2.442   5.781
 6202SOL    HW230120   2.240   2.393   5.784
 6203SOL     OW30121   2.021   2.999   7.052
 6203SOL    HW130122   2.043   2.938   7.128
 6203SOL    HW230123   2.031   2.950   6.966
 6204SOL     OW30124   3.209   2.921   6.820
 6204SOL    HW130125   3.233   2.858   6.746
 6204SOL    HW230126   3.119   2.961   6.802
 6205SOL     OW30127   3.164   2.717   5.895
 6205SOL    HW130128   3.078   2.686   5.937
 6205SOL    HW230129   3.160   2.703   5.796
 6206SOL     OW30130   3.621   3.609   6.740
 6206SOL    HW130131   3.682   3.639   6.667
 6206SOL    HW230132   3.583   3.520   6.718
 6207SOL     OW30133   3.114   3.593   6.714
 6207SOL    HW130134   3.198   3.598   6.660
 6207SOL    HW230135   3.091   3.497   6.732
 6208SOL     OW30136   1.945   3.120   6.608
 6208SOL    HW130137   1.940   3.119   6.708
 6208SOL    HW230138   1.862   3.079   6.570
 6209SOL     OW30139   2.550   3.524   7.302
 6209SOL    HW130140   2.494   3.605   7.311
 6209SOL    HW230141   2.602   3.528   7.216
 6210SOL     OW30142   3.588   1.997   6.109
 6210SOL    HW130143   3.661   1.980   6.042
 6210SOL    HW230144   3.557   1.910   6.147
 6211SOL     OW30145   3.250   3.435   6.063
 6211SOL    HW130146   3.317   3.447   5.989
 6211SOL    HW230147   3.210   3.524   6.086
 6212SOL     OW30148   1.992   3.656   7.437
 6212SOL    HW130149   1.951   3.582   7.490
 6212SOL    HW230150   2.056   3.707   7.495
 6213SOL     OW30151   3.142   2.789   6.258
 6213SOL    HW130152   3.202   2.708   6.260
 6213SOL    HW230153   3.182   2.858   6.198
 6214SOL     OW30154   2.692   3.135   7.008
 6214SOL    HW130155   2.687   3.168   7.103
 6214SOL    HW230156   2.606   3.154   6.962
 6215SOL     OW30157   2.534   3.478   5.740
 6215SOL    HW130158   2.543   3.488   5.641
 6215SOL    HW230159   2.494   3.389   5.761
 6216SOL     OW30160   3.512   3.582   6.980
 6216SOL    HW130161   3.565   3.592   6.896
 6216SOL    HW230162   3.485   3.672   7.014
 6217SOL     OW30163   3.703   2.037   6.549
 6217SOL    HW130164   3.742   1.952   6.513
 6217SOL    HW230165   3.605   2.039   6.530
 6218SOL     OW30166   2.125   2.188   6.306
 6218SOL    HW130167   2.046   2.239   6.272
 6218SOL    HW230168   2.116   2.173   6.404
 6219SOL     OW30169   3.056   3.474   5.617
 6219SOL    HW130170   3.062   3.381   5.654
 6219SOL    HW230171   2.997   3.474   5.537
 6220SOL     OW30172   2.684   2.864   6.958
 6220SOL    HW130173   2.724   2.863   6.866
 6220SOL    HW230174   2.694   2.956   6.998
 6221SOL     OW30175   2.778   2.772   5.877
 6221SOL    HW130176   2.841   2.810   5.809
 6221SOL    HW230177   2.818   2.689   5.916
 6222SOL     OW30178   3.366   3.469   5.630
 6222SOL    HW130179   3.274   3.506   5.637
 6222SOL    HW230180   3.404   3.489   5.540
 6223SOL     OW30181   2.234   3.150   7.076
 6223SOL    HW130182   2.221   3.243   7.042
 6223SOL    HW230183   2.150   3.098   7.063
 6224SOL     OW30184   3.476   3.154   6.875
 6224SOL    HW130185   3.536   3.157   6.955
 6224SOL    HW230186   3.401   3.218   6.888
 6225SOL     OW30187   2.901   2.960   6.282
 6225SOL    HW130188   2.831   2.913   6.336
 6225SOL    HW230189   2.960   2.892   6.239
 6226SOL     OW30190   2.876   2.098   6.557
 6226SOL    HW130191   2.868   2.062   6.464
 6226SOL    HW230192   2.874   2.022   6.622
 6227SOL     OW30193   2.452   3.349   6.077
 6227SOL    HW130194   2.494   3.291   6.007
 6227SOL    HW230195   2.408   3.428   6.033
 6228SOL     OW30196   3.571   2.247   6.967
 6228SOL    HW130197   3.644   2.316   6.971
 6228SOL    HW230198   3.599   2.172   6.908
 6229SOL     OW30199   2.117   3.210   5.876
 6229SOL    HW130200   2.021   3.211   5.849
 6229SOL    HW230201   2.129   3.263   5.960
 6230SOL     OW30202   1.967   2.875   7.312
 6230SOL    HW130203   1.890   2.842   7.366
 6230SOL    HW230204   2.052   2.845   7.354
 6231SOL     OW30205   2.534   2.065   7.075
 6231SOL    HW130206   2.624   2.049   7.035
 6231SOL    HW230207   2.542   2.070   7.174
 6232SOL     OW30208   1.937   2.207   5.619
 6232SOL    HW130209   1.845   2.179   5.590
 6232SOL    HW230210   1.968   2.284   5.563
 6233SOL     OW30211   3.302   2.718   6.984
 6233SOL    HW130212   3.245   2.770   6.921
 6233SOL    HW230213   3.398   2.730   6.960
 6234SOL     OW30214   1.934   2.028   5.904
 6234SOL    HW130215   1.917   2.111   5.850
 6234SOL    HW230216   2.024   1.991   5.882
 6235SOL     OW30217   3.045   3.197   5.705
 6235SOL    HW130218   2.946   3.186   5.707
 6235SOL    HW230219   3.079   3.212   5.798
 6236SOL     OW30220   2.475   2.704   7.017
 6236SOL    HW130221   2.531   2.785   7.000
 6236SOL    HW230222   2.534   2.624   7.020
 6237SOL     OW30223   3.355   3.629   6.545
 6237SOL    HW130224   3.388   3.693   6.476
 6237SOL    HW230225   3.421   3.623   6.620
 6238SOL     OW30226   2.578   2.427   7.294
 6238SOL    HW130227   2.597   2.492   7.368
 6238SOL    HW230228   2.638   2.347   7.303
 6239SOL     OW30229   3.312   3.082   7.219
 6239SOL    HW130230   3.303   3.072   7.318
 6239SOL    HW230231   3.408   3.075   7.193
 6240SOL     OW30232   2.252   3.603   7.146
 6240SOL    HW130233   2.161   3.644   7.144
 6240SOL    HW230234   2.245   3.509   7.178
 6241SOL     OW30235   3.536   2.745   6.840
 6241SOL    HW130236   3.509   2.656   6.803
 6241SOL    HW230237   3.537   2.813   6.767
 6242SOL     OW30238   3.087   2.187   6.035
 6242SOL    HW130239   3.152   2.113   6.024
 6242SOL    HW230240   3.107   2.237   6.119
 6243SOL     OW30241   2.456   2.607   6.238
 6243SOL    HW130242   2.506   2.692   6.219
 6243SOL    HW230243   2.368   2.609   6.190
 6244SOL     OW30244   3.639   2.204   7.228
 6244SOL    HW130245   3.622   2.235   7.134
 6244SOL    HW230246   3.555   2.167   7.266
 6245SOL     OW30247   3.592   2.796   7.103
 6245SOL    HW130248   3.630   2.887   7.118
 6245SOL    HW230249   3.584   2.779   7.004
 6246SOL     OW30250   2.721   3.236   5.602
 6246SOL    HW130251   2.675   3.251   5.690
 6246SOL    HW230252   2.765   3.321   5.572
 6247SOL     OW30253   2.523   3.652   6.539
 6247SOL    HW130254   2.477   3.740   6.526
 6247SOL    HW230255   2.622   3.664   6.532
 6248SOL     OW30256   2.721   2.818   6.447
 6248SOL    HW130257   2.775   2.749   6.495
 6248SOL    HW230258   2.689   2.887   6.513
 6249SOL     OW30259   2.945   2.846   5.673
 6249SOL    HW130260   2.922   2.899   5.591
 6249SOL    HW230261   3.026   2.790   5.654
 6250SOL     OW30262   3.723   3.431   6.437
 6250SOL    HW130263   3.652   3.419   6.367
 6250SOL    HW230264   3.724   3.352   6.497
 6251SOL     OW30265   2.083   3.176   7.430
 6251SOL    HW130266   2.018   3.103   7.409
 6251SOL    HW230267   2.087   3.190   7.528
 6252SOL     OW30268   1.941   3.102   6.239
 6252SOL    HW130269   1.940   3.055   6.327
 6252SOL    HW230270   2.023   3.074   6.188
 6253SOL     OW30271   2.534   3.253   7.210
 6253SOL    HW130272   2.456   3.203   7.248
 6253SOL    HW230273   2.531   3.348   7.241
 6254SOL     OW30274   3.686   2.054   6.813
 6254SOL    HW130275   3.682   1.964   6.857
 6254SOL    HW230276   3.689   2.043   6.714
 6255SOL     OW30277   2.290   2.286   6.106
 6255SOL    HW130278   2.320   2.214   6.044
 6255SOL    HW230279   2.251   2.246   6.189
 6256SOL     OW30280   3.567   3.349   6.690
 6256SOL    HW130281   3.474   3.324   6.663
 6256SOL    HW230282   3.593   3.299   6.772
 6257SOL     OW30283   2.179   2.409   6.866
 6257SOL    HW130284   2.217   2.350   6.938
 6257SOL    HW230285   2.219   2.383   6.778
 6258SOL     OW30286   2.674   3.448   6.273
 6258SOL    HW130287   2.706   3.458   6.179
 6258SOL    HW230288   2.595   3.386   6.275
 6259SOL     OW30289   3.286   2.076   6.698
 6259SOL    HW130290   3.338   2.011   6.753
 6259SOL    HW230291   3.237   2.139   6.759
 6260SOL     OW30292   2.863   1.896   6.740
 6260SOL    HW130293   2.800   1.824   6.709
 6260SOL    HW230294   2.956   1.860   6.740
 6261SOL     OW30295   2.632   3.192   5.887
 6261SOL    HW130296   2.586   3.105   5.904
 6261SOL    HW230297   2.723   3.189   5.928
 6262SOL     OW30298   2.480   3.429   6.870
 6262SOL    HW130299   2.475   3.511   6.927
 6262SOL    HW230300   2.569   3.426   6.825
 6263SOL     OW30301   3.214   1.914   5.754
 6263SOL    HW130302   3.249   1.873   5.670
 6263SOL    HW230303   3.124   1.876   5.774
 6264SOL     OW30304   3.162   2.315   6.277
 6264SOL    HW130305   3.103   2.395   6.281
 6264SOL    HW230306   3.177   2.280   6.370
 6265SOL     OW30307   3.455   2.083   6.468
 6265SOL    HW130308   3.371   2.082   6.522
 6265SOL    HW230309   3.457   2.166   6.412
 6266SOL     OW30310   1.901   2.939   5.886
 6266SOL    HW130311   2.000   2.928   5.877
 6266SOL    HW230312   1.861   2.853   5.918
 6267SOL     OW30313   2.737   3.508   5.923
 6267SOL    HW130314   2.660   3.473   5.869
 6267SOL    HW230315   2.705   3.579   5.985
 6268SOL     OW30316   2.092   2.490   7.561
 6268SOL    HW130317   1.999   2.488   7.598
 6268SOL    HW230318   2.093   2.451   7.469
 6269SOL     OW30319   2.087   2.137   8.444
 6269SOL    HW130320   2.122   2.120   8.536
 6269SOL    HW230321   1.999   2.092   8.432
 6270SOL     OW30322   1.881   2.230   8.095
 6270SOL    HW130323   1.799   2.273   8.134
 6270SOL    HW230324   1.853   2.157   8.032
 6271SOL     OW30325   2.431   3.137   8.613
 6271SOL    HW130326   2.338   3.130   8.576
 6271SOL    HW230327   2.442   3.226   8.657
 6272SOL     OW30328   3.417   3.373   8.151
 6272SOL    HW130329   3.360   3.357   8.232
 6272SOL    HW230330   3.358   3.383   8.071
 6273SOL     OW30331   2.997   2.565   8.165
 6273SOL    HW130332   3.054   2.643   8.140
 6273SOL    HW230333   2.937   2.591   8.241
 6274SOL     OW30334   3.617   2.469   7.679
 6274SOL    HW130335   3.605   2.456   7.580
 6274SOL    HW230336   3.587   2.388   7.728
 6275SOL     OW30337   2.630   3.006   8.471
 6275SOL    HW130338   2.552   3.023   8.531
 6275SOL    HW230339   2.664   3.093   8.435
 6276SOL     OW30340   2.712   2.660   9.271
 6276SOL    HW130341   2.708   2.736   9.336
 6276SOL    HW230342   2.734   2.696   9.180
 6277SOL     OW30343   2.547   2.874   8.113
 6277SOL    HW130344   2.616   2.858   8.183
 6277SOL    HW230345   2.474   2.931   8.151
 6278SOL     OW30346   2.548   3.023   9.251
 6278SOL    HW130347   2.608   3.102   9.265
 6278SOL    HW230348   2.462   3.054   9.210
 6279SOL     OW30349   2.197   3.297   8.509
 6279SOL    HW130350   2.119   3.266   8.456
 6279SOL    HW230351   2.255   3.355   8.452
 6280SOL     OW30352   3.322   3.367   8.787
 6280SOL    HW130353   3.346   3.461   8.813
 6280SOL    HW230354   3.306   3.313   8.869
 6281SOL     OW30355   2.300   2.254   8.947
 6281SOL    HW130356   2.382   2.198   8.956
 6281SOL    HW230357   2.219   2.196   8.951
 6282SOL     OW30358   3.465   2.309   8.185
 6282SOL    HW130359   3.391   2.355   8.135
 6282SOL    HW230360   3.516   2.377   8.238
 6283SOL     OW30361   2.093   3.575   7.931
 6283SOL    HW130362   2.127   3.652   7.985
 6283SOL    HW230363   2.137   3.575   7.841
 6284SOL     OW30364   2.989   3.203   9.138
 6284SOL    HW130365   3.036   3.203   9.226
 6284SOL    HW230366   2.941   3.116   9.127
 6285SOL     OW30367   2.092   3.296   7.986
 6285SOL    HW130368   2.066   3.392   7.986
 6285SOL    HW230369   2.021   3.242   8.031
 6286SOL     OW30370   2.102   2.953   8.334
 6286SOL    HW130371   2.116   2.869   8.386
 6286SOL    HW230372   2.047   3.017   8.389
 6287SOL     OW30373   2.482   3.648   8.887
 6287SOL    HW130374   2.390   3.631   8.922
 6287SOL    HW230375   2.510   3.740   8.913
 6288SOL     OW30376   2.468   2.826   7.571
 6288SOL    HW130377   2.475   2.910   7.517
 6288SOL    HW230378   2.514   2.839   7.659
 6289SOL     OW30379   3.456   1.976   8.928
 6289SOL    HW130380   3.438   2.043   8.856
 6289SOL    HW230381   3.453   2.022   9.017
 6290SOL     OW30382   1.984   2.505   8.011
 6290SOL    HW130383   1.939   2.417   8.028
 6290SOL    HW230384   1.983   2.559   8.095
 6291SOL     OW30385   3.704   3.629   7.807
 6291SOL    HW130386   3.758   3.600   7.887
 6291SOL    HW230387   3.734   3.719   7.778
 6292SOL     OW30388   1.889   3.458   7.565
 6292SOL    HW130389   1.870   3.362   7.586
 6292SOL    HW230390   1.856   3.516   7.640
 6293SOL     OW30391   3.551   2.784   8.060
 6293SOL    HW130392   3.646   2.755   8.068
 6293SOL    HW230393   3.543   2.849   7.985
 6294SOL     OW30394   3.503   2.970   7.880
 6294SOL    HW130395   3.589   2.972   7.828
 6294SOL    HW230396   3.517   3.017   7.968
 6295SOL     OW30397   1.975   2.599   9.045
 6295SOL    HW130398   2.063   2.586   9.090
 6295SOL    HW230399   1.962   2.696   9.023
 6296SOL     OW30400   2.475   3.227   8.174
 6296SOL    HW130401   2.426   3.140   8.183
 6296SOL    HW230402   2.452   3.270   8.087
 6297SOL     OW30403   3.155   3.090   8.871
 6297SOL    HW130404   3.192   3.017   8.813
 6297SOL    HW230405   3.207   3.095   8.956
 6298SOL     OW30406   2.671   1.866   7.950
 6298SOL    HW130407   2.711   1.957   7.941
 6298SOL    HW230408   2.571   1.874   7.956
 6299SOL     OW30409   2.059   2.838   8.712
 6299SOL    HW130410   2.148   2.793   8.698
 6299SOL    HW230411   1.986   2.773   8.693
 6300SOL     OW30412   3.387   2.861   7.638
 6300SOL    HW130413   3.324   2.785   7.651
 6300SOL    HW230414   3.435   2.879   7.724
 6301SOL     OW30415   3.049   3.654   9.064
 6301SOL    HW130416   3.073   3.714   8.988
 6301SOL    HW230417   3.056   3.559   9.034
 6302SOL     OW30418   2.179   2.113   9.249
 6302SOL    HW130419   2.250   2.184   9.255
 6302SOL    HW230420   2.091   2.152   9.277
 6303SOL     OW30421   3.328   3.279   8.401
 6303SOL    HW130422   3.269   3.285   8.481
 6303SOL    HW230423   3.313   3.191   8.355
 6304SOL     OW30424   3.529   3.576   8.020
 6304SOL    HW130425   3.488   3.553   7.932
 6304SOL    HW230426   3.511   3.502   8.085
 6305SOL     OW30427   2.460   2.591   7.718
 6305SOL    HW130428   2.484   2.660   7.650
 6305SOL    HW230429   2.382   2.624   7.772
 6306SOL     OW30430   3.143   2.207   8.392
 6306SOL    HW130431   3.057   2.157   8.379
 6306SOL    HW230432   3.205   2.153   8.448
 6307SOL     OW30433   3.438   3.524   7.755
 6307SOL    HW130434   3.527   3.570   7.758
 6307SOL    HW230435   3.417   3.500   7.660
 6308SOL     OW30436   2.669   2.467   8.913
 6308SOL    HW130437   2.622   2.464   9.002
 6308SOL    HW230438   2.618   2.412   8.847
 6309SOL     OW30439   3.256   2.331   9.122
 6309SOL    HW130440   3.236   2.374   9.210
 6309SOL    HW230441   3.334   2.269   9.131
 6310SOL     OW30442   2.835   2.752   9.020
 6310SOL    HW130443   2.881   2.668   8.991
 6310SOL    HW230444   2.779   2.786   8.945
 6311SOL     OW30445   2.853   2.272   8.690
 6311SOL    HW130446   2.776   2.306   8.744
 6311SOL    HW230447   2.819   2.221   8.611
 6312SOL     OW30448   2.903   2.563   7.877
 6312SOL    HW130449   2.929   2.559   7.973
 6312SOL    HW230450   2.818   2.512   7.863
 6313SOL     OW30451   1.938   2.673   8.237
 6313SOL    HW130452   2.037   2.661   8.246
 6313SOL    HW230453   1.914   2.768   8.258
 6314SOL     OW30454   2.727   2.210   7.643
 6314SOL    HW130455   2.786   2.273   7.594
 6314SOL    HW230456   2.746   2.116   7.614
 6315SOL     OW30457   3.581   2.447   9.279
 6315SOL    HW130458   3.555   2.536   9.243
 6315SOL    HW230459   3.579   2.379   9.206
 6316SOL     OW30460   3.224   3.006   7.993
 6316SOL    HW130461   3.307   2.977   7.945
 6316SOL    HW230462   3.175   3.073   7.937
 6317SOL     OW30463   2.412   2.058   8.333
 6317SOL    HW130464   2.407   2.053   8.433
 6317SOL    HW230465   2.414   2.154   8.304
 6318SOL     OW30466   2.870   3.318   7.925
 6318SOL    HW130467   2.824   3.390   7.873
 6318SOL    HW230468   2.866   3.338   8.023
 6319SOL     OW30469   2.213   3.663   8.301
 6319SOL    HW130470   2.263   3.577   8.307
 6319SOL    HW230471   2.278   3.740   8.298
 6320SOL     OW30472   3.657   2.928   8.321
 6320SOL    HW130473   3.595   2.913   8.245
 6320SOL    HW230474   3.605   2.939   8.406
 6321SOL     OW30475   3.089   3.412   8.954
 6321SOL    HW130476   3.095   3.335   9.018
 6321SOL    HW230477   3.037   3.386   8.874
 6322SOL     OW30478   2.183   2.805   7.690
 6322SOL    HW130479   2.265   2.844   7.648
 6322SOL    HW230480   2.156   2.723   7.641
 6323SOL     OW30481   3.320   2.597   8.176
 6323SOL    HW130482   3.315   2.532   8.251
 6323SOL    HW230483   3.400   2.656   8.189
 6324SOL     OW30484   2.323   3.128   9.175
 6324SOL    HW130485   2.273   3.129   9.089
 6324SOL    HW230486   2.260   3.110   9.251
 6325SOL     OW30487   2.973   3.638   7.685
 6325SOL    HW130488   2.913   3.576   7.735
 6325SOL    HW230489   3.004   3.594   7.600
 6326SOL     OW30490   2.064   2.147   8.946
 6326SOL    HW130491   1.984   2.207   8.933
 6326SOL    HW230492   2.054   2.098   9.032
 6327SOL     OW30493   3.494   3.239   7.529
 6327SOL    HW130494   3.462   3.333   7.519
 6327SOL    HW230495   3.418   3.176   7.517
 6328SOL     OW30496   2.326   3.605   7.771
 6328SOL    HW130497   2.359   3.644   7.857
 6328SOL    HW230498   2.402   3.598   7.706
 6329SOL     OW30499   3.262   1.969   7.874
 6329SOL    HW130500   3.238   1.932   7.784
 6329SOL    HW230501   3.361   1.985   7.878
 6330SOL     OW30502   2.111   3.647   8.689
 6330SOL    HW130503   2.168   3.582   8.739
 6330SOL    HW230504   2.095   3.614   8.596
 6331SOL     OW30505   2.802   3.560   8.352
 6331SOL    HW130506   2.882   3.503   8.373
 6331SOL    HW230507   2.753   3.520   8.275
 6332SOL     OW30508   2.244   2.562   7.928
 6332SOL    HW130509   2.289   2.472   7.925
 6332SOL    HW230510   2.150   2.551   7.961
 6333SOL     OW30511   3.409   2.084   9.177
 6333SOL    HW130512   3.404   2.121   9.269
 6333SOL    HW230513   3.337   2.015   9.165
 6334SOL     OW30514   2.476   1.984   7.565
 6334SOL    HW130515   2.574   1.962   7.572
 6334SOL    HW230516   2.445   1.967   7.472
 6335SOL     OW30517   2.643   2.126   9.197
 6335SOL    HW130518   2.710   2.065   9.240
 6335SOL    HW230519   2.570   2.145   9.262
 6336SOL     OW30520   2.750   3.376   8.643
 6336SOL    HW130521   2.727   3.351   8.549
 6336SOL    HW230522   2.811   3.307   8.682
 6337SOL     OW30523   3.213   2.452   8.881
 6337SOL    HW130524   3.241   2.409   8.966
 6337SOL    HW230525   3.238   2.548   8.882
 6338SOL     OW30526   2.665   3.264   8.372
 6338SOL    HW130527   2.755   3.278   8.330
 6338SOL    HW230528   2.594   3.266   8.301
 6339SOL     OW30529   2.784   2.365   8.347
 6339SOL    HW130530   2.759   2.356   8.251
 6339SOL    HW230531   2.832   2.283   8.378
 6340SOL     OW30532   2.401   1.926   7.960
 6340SOL    HW130533   2.320   1.927   8.018
 6340SOL    HW230534   2.404   2.009   7.905
 6341SOL     OW30535   3.296   3.050   7.489
 6341SOL    HW130536   3.328   2.974   7.546
 6341SOL    HW230537   3.204   3.077   7.519
 6342SOL     OW30538   2.159   1.897   7.619
 6342SOL    HW130539   2.208   1.981   7.598
 6342SOL    HW230540   2.221   1.832   7.664
 6343SOL     OW30541   2.797   2.098   7.928
 6343SOL    HW130542   2.749   2.139   7.850
 6343SOL    HW230543   2.896   2.096   7.909
 6344SOL     OW30544   2.938   2.545   8.912
 6344SOL    HW130545   2.858   2.484   8.915
 6344SOL    HW230546   3.019   2.492   8.888
 6345SOL     OW30547   3.089   3.432   8.241
 6345SOL    HW130548   3.110   3.506   8.176
 6345SOL    HW230549   3.157   3.432   8.314
 6346SOL     OW30550   2.321   3.014   8.189
 6346SOL    HW130551   2.250   2.987   8.254
 6346SOL    HW230552   2.295   2.986   8.096
 6347SOL     OW30553   3.133   3.659   8.039
 6347SOL    HW130554   3.177   3.723   7.975
 6347SOL    HW230555   3.083   3.711   8.109
 6348SOL     OW30556   2.894   2.411   7.464
 6348SOL    HW130557   2.853   2.493   7.425
 6348SOL    HW230558   2.958   2.437   7.537
 6349SOL     OW30559   1.940   2.418   8.834
 6349SOL    HW130560   2.032   2.417   8.793
 6349SOL    HW230561   1.934   2.492   8.901
 6350SOL     OW30562   2.423   2.084   8.595
 6350SOL    HW130563   2.461   2.000   8.632
 6350SOL    HW230564   2.335   2.103   8.639
 6351SOL     OW30565   2.728   2.316   8.090
 6351SOL    HW130566   2.696   2.388   8.028
 6351SOL    HW230567   2.752   2.235   8.037
 6352SOL     OW30568   2.879   1.901   8.201
 6352SOL    HW130569   2.807   1.906   8.132
 6352SOL    HW230570   2.855   1.832   8.270
 6353SOL     OW30571   3.291   3.035   8.315
 6353SOL    HW130572   3.236   2.951   8.308
 6353SOL    HW230573   3.317   3.064   8.223
 6354SOL     OW30574   3.328   2.452   8.440
 6354SOL    HW130575   3.298   2.357   8.447
 6354SOL    HW230576   3.401   2.468   8.506
 6355SOL     OW30577   3.719   2.695   7.825
 6355SOL    HW130578   3.761   2.631   7.889
 6355SOL    HW230579   3.681   2.644   7.747
 6356SOL     OW30580   2.350   3.247   7.622
 6356SOL    HW130581   2.263   3.232   7.669
 6356SOL    HW230582   2.333   3.273   7.527
 6357SOL     OW30583   3.526   3.142   8.105
 6357SOL    HW130584   3.625   3.150   8.119
 6357SOL    HW230585   3.481   3.226   8.136
 6358SOL     OW30586   3.252   2.437   7.526
 6358SOL    HW130587   3.198   2.416   7.607
 6358SOL    HW230588   3.343   2.396   7.535
 6359SOL     OW30589   2.389   2.118   7.776
 6359SOL    HW130590   2.416   2.059   7.701
 6359SOL    HW230591   2.389   2.213   7.745
 6360SOL     OW30592   3.616   3.085   9.036
 6360SOL    HW130593   3.707   3.046   9.023
 6360SOL    HW230594   3.624   3.181   9.060
 6361SOL     OW30595   2.926   3.209   8.788
 6361SOL    HW130596   2.846   3.186   8.843
 6361SOL    HW230597   3.009   3.183   8.837
 6362SOL     OW30598   3.454   3.491   9.073
 6362SOL    HW130599   3.481   3.525   8.983
 6362SOL    HW230600   3.533   3.453   9.119
 6363SOL     OW30601   2.973   3.057   8.548
 6363SOL    HW130602   2.933   3.101   8.629
 6363SOL    HW230603   2.932   3.094   8.465
 6364SOL     OW30604   3.500   2.961   8.527
 6364SOL    HW130605   3.505   3.042   8.586
 6364SOL    HW230606   3.414   2.963   8.476
 6365SOL     OW30607   2.777   1.951   8.850
 6365SOL    HW130608   2.802   1.931   8.755
 6365SOL    HW230609   2.849   2.007   8.892
 6366SOL     OW30610   2.842   2.978   9.167
 6366SOL    HW130611   2.743   2.984   9.177
 6366SOL    HW230612   2.865   2.898   9.111
 6367SOL     OW30613   2.567   2.912   7.816
 6367SOL    HW130614   2.553   2.919   7.915
 6367SOL    HW230615   2.651   2.861   7.798
 6368SOL     OW30616   2.272   2.675   8.699
 6368SOL    HW130617   2.358   2.687   8.749
 6368SOL    HW230618   2.230   2.588   8.726
 6369SOL     OW30619   3.136   2.248   8.710
 6369SOL    HW130620   3.157   2.322   8.774
 6369SOL    HW230621   3.047   2.265   8.667
 6370SOL     OW30622   1.926   3.426   8.779
 6370SOL    HW130623   1.880   3.508   8.745
 6370SOL    HW230624   2.024   3.445   8.788
 6371SOL     OW30625   2.229   2.962   7.949
 6371SOL    HW130626   2.222   3.045   7.893
 6371SOL    HW230627   2.233   2.882   7.889
 6372SOL     OW30628   2.428   2.399   8.313
 6372SOL    HW130629   2.440   2.465   8.239
 6372SOL    HW230630   2.474   2.433   8.396
 6373SOL     OW30631   3.114   3.210   7.836
 6373SOL    HW130632   3.164   3.287   7.876
 6373SOL    HW230633   3.019   3.212   7.868
 6374SOL     OW30634   3.134   3.307   8.590
 6374SOL    HW130635   3.181   3.320   8.677
 6374SOL    HW230636   3.068   3.233   8.599
 6375SOL     OW30637   3.444   2.501   7.920
 6375SOL    HW130638   3.413   2.562   7.993
 6375SOL    HW230639   3.494   2.553   7.851
 6376SOL     OW30640   2.216   3.372   8.777
 6376SOL    HW130641   2.195   3.328   8.690
 6376SOL    HW230642   2.313   3.398   8.780
 6377SOL     OW30643   2.264   2.613   9.046
 6377SOL    HW130644   2.332   2.668   8.999
 6377SOL    HW230645   2.304   2.525   9.073
 6378SOL     OW30646   3.449   2.641   9.118
 6378SOL    HW130647   3.357   2.679   9.113
 6378SOL    HW230648   3.509   2.688   9.053
 6379SOL     OW30649   2.875   1.967   9.218
 6379SOL    HW130650   2.881   2.052   9.166
 6379SOL    HW230651   2.907   1.891   9.161
 6380SOL     OW30652   2.366   1.912   9.188
 6380SOL    HW130653   2.324   1.855   9.118
 6380SOL    HW230654   2.300   1.981   9.220
 6381SOL     OW30655   2.435   2.732   8.477
 6381SOL    HW130656   2.479   2.821   8.468
 6381SOL    HW230657   2.372   2.732   8.554
 6382SOL     OW30658   3.222   2.724   8.493
 6382SOL    HW130659   3.147   2.724   8.427
 6382SOL    HW230660   3.259   2.632   8.502
 6383SOL     OW30661   3.071   2.387   7.723
 6383SOL    HW130662   3.084   2.303   7.777
 6383SOL    HW230663   3.042   2.461   7.783
 6384SOL     OW30664   2.169   2.075   8.679
 6384SOL    HW130665   2.146   2.112   8.769
 6384SOL    HW230666   2.139   1.980   8.673
 6385SOL     OW30667   1.899   3.172   8.730
 6385SOL    HW130668   1.952   3.123   8.798
 6385SOL    HW230669   1.921   3.270   8.735
 6386SOL     OW30670   2.594   2.496   8.512
 6386SOL    HW130671   2.653   2.470   8.436
 6386SOL    HW230672   2.566   2.592   8.501
 6387SOL     OW30673   3.590   2.797   9.302
 6387SOL    HW130674   3.544   2.790   9.213
 6387SOL    HW230675   3.528   2.841   9.368
 6388SOL     OW30676   2.169   1.925   8.066
 6388SOL    HW130677   2.158   2.019   8.099
 6388SOL    HW230678   2.164   1.862   8.143
 6389SOL     OW30679   3.484   2.229   7.822
 6389SOL    HW130680   3.486   2.153   7.886
 6389SOL    HW230681   3.436   2.306   7.862
 6390SOL     OW30682   2.885   2.628   8.414
 6390SOL    HW130683   2.900   2.649   8.510
 6390SOL    HW230684   2.855   2.533   8.405
 6391SOL     OW30685   2.842   3.435   9.148
 6391SOL    HW130686   2.822   3.479   9.060
 6391SOL    HW230687   2.881   3.344   9.132
 6392SOL     OW30688   3.721   3.380   9.053
 6392SOL    HW130689   3.735   3.407   8.958
 6392SOL    HW230690   3.804   3.402   9.106
 6393SOL     OW30691   2.212   2.760   9.252
 6393SOL    HW130692   2.288   2.804   9.300
 6393SOL    HW230693   2.247   2.713   9.170
 6394SOL     OW30694   3.402   2.136   7.573
 6394SOL    HW130695   3.341   2.061   7.596
 6394SOL    HW230696   3.424   2.188   7.656
 6395SOL     OW30697   3.165   2.700   7.490
 6395SOL    HW130698   3.199   2.607   7.505
 6395SOL    HW230699   3.183   2.727   7.395
 6396SOL     OW30700   2.930   3.195   8.297
 6396SOL    HW130701   2.937   3.111   8.242
 6396SOL    HW230702   2.992   3.264   8.261
 6397SOL     OW30703   2.181   2.672   8.397
 6397SOL    HW130704   2.274   2.708   8.402
 6397SOL    HW230705   2.175   2.587   8.449
 6398SOL     OW30706   2.201   2.371   8.454
 6398SOL    HW130707   2.149   2.288   8.437
 6398SOL    HW230708   2.278   2.376   8.390
 6399SOL     OW30709   3.000   2.242   9.126
 6399SOL    HW130710   2.955   2.305   9.190
 6399SOL    HW230711   3.093   2.273   9.109
 6400SOL     OW30712   3.022   2.069   8.925
 6400SOL    HW130713   3.022   2.133   9.002
 6400SOL    HW230714   3.050   2.117   8.842
 6401SOL     OW30715   1.870   3.188   7.648
 6401SOL    HW130716   1.777   3.209   7.617
 6401SOL    HW230717   1.880   3.089   7.661
 6402SOL     OW30718   1.950   3.663   8.375
 6402SOL    HW130719   1.908   3.577   8.348
 6402SOL    HW230720   2.044   3.666   8.341
 6403SOL     OW30721   2.366   3.430   8.358
 6403SOL    HW130722   2.432   3.504   8.367
 6403SOL    HW230723   2.410   3.351   8.316
 6404SOL     OW30724   2.864   2.658   8.686
 6404SOL    HW130725   2.905   2.626   8.772
 6404SOL    HW230726   2.768   2.631   8.683
 6405SOL     OW30727   1.902   2.406   8.562
 6405SOL    HW130728   1.987   2.373   8.521
 6405SOL    HW230729   1.915   2.421   8.660
 6406SOL     OW30730   2.051   2.382   9.170
 6406SOL    HW130731   2.110   2.342   9.100
 6406SOL    HW230732   1.993   2.453   9.129
 6407SOL     OW30733   3.231   2.812   9.108
 6407SOL    HW130734   3.270   2.901   9.128
 6407SOL    HW230735   3.241   2.792   9.011
 6408SOL     OW30736   2.677   2.434   7.773
 6408SOL    HW130737   2.684   2.345   7.727
 6408SOL    HW230738   2.583   2.468   7.765
 6409SOL     OW30739   3.519   2.466   8.654
 6409SOL    HW130740   3.481   2.397   8.716
 6409SOL    HW230741   3.601   2.430   8.610
 6410SOL     OW30742   2.114   3.426   9.192
 6410SOL    HW130743   2.084   3.483   9.268
 6410SOL    HW230744   2.107   3.329   9.218
 6411SOL     OW30745   2.533   2.326   8.717
 6411SOL    HW130746   2.499   2.237   8.687
 6411SOL    HW230747   2.559   2.380   8.637
 6412SOL     OW30748   2.792   3.540   8.913
 6412SOL    HW130749   2.768   3.522   8.818
 6412SOL    HW230750   2.822   3.634   8.923
 6413SOL     OW30751   2.335   2.362   7.639
 6413SOL    HW130752   2.396   2.442   7.643
 6413SOL    HW230753   2.240   2.393   7.646
 6414SOL     OW30754   2.021   2.999   8.914
 6414SOL    HW130755   2.043   2.938   8.990
 6414SOL    HW230756   2.031   2.950   8.828
 6415SOL     OW30757   3.209   2.921   8.682
 6415SOL    HW130758   3.233   2.858   8.608
 6415SOL    HW230759   3.119   2.961   8.664
 6416SOL     OW30760   3.164   2.717   7.757
 6416SOL    HW130761   3.078   2.686   7.799
 6416SOL    HW230762   3.160   2.703   7.658
 6417SOL     OW30763   3.621   3.609   8.602
 6417SOL    HW130764   3.682   3.639   8.529
 6417SOL    HW230765   3.583   3.520   8.580
 6418SOL     OW30766   3.114   3.593   8.576
 6418SOL    HW130767   3.198   3.598   8.522
 6418SOL    HW230768   3.091   3.497   8.594
 6419SOL     OW30769   1.945   3.120   8.470
 6419SOL    HW130770   1.940   3.119   8.570
 6419SOL    HW230771   1.862   3.079   8.432
 6420SOL     OW30772   2.550   3.524   9.164
 6420SOL    HW130773   2.494   3.605   9.173
 6420SOL    HW230774   2.602   3.528   9.078
 6421SOL     OW30775   3.588   1.997   7.971
 6421SOL    HW130776   3.661   1.980   7.904
 6421SOL    HW230777   3.557   1.910   8.009
 6422SOL     OW30778   3.250   3.435   7.925
 6422SOL    HW130779   3.317   3.447   7.851
 6422SOL    HW230780   3.210   3.524   7.948
 6423SOL     OW30781   3.142   2.789   8.120
 6423SOL    HW130782   3.202   2.708   8.122
 6423SOL    HW230783   3.182   2.858   8.060
 6424SOL     OW30784   2.692   3.135   8.870
 6424SOL    HW130785   2.687   3.168   8.965
 6424SOL    HW230786   2.606   3.154   8.824
 6425SOL     OW30787   2.534   3.478   7.602
 6425SOL    HW130788   2.543   3.488   7.503
 6425SOL    HW230789   2.494   3.389   7.623
 6426SOL     OW30790   3.512   3.582   8.842
 6426SOL    HW130791   3.565   3.592   8.758
 6426SOL    HW230792   3.485   3.672   8.876
 6427SOL     OW30793   3.703   2.037   8.411
 6427SOL    HW130794   3.742   1.952   8.375
 6427SOL    HW230795   3.605   2.039   8.392
 6428SOL     OW30796   2.125   2.188   8.168
 6428SOL    HW130797   2.046   2.239   8.134
 6428SOL    HW230798   2.116   2.173   8.266
 6429SOL     OW30799   3.056   3.474   7.479
 6429SOL    HW130800   3.062   3.381   7.516
 6429SOL    HW230801   2.997   3.474   7.399
 6430SOL     OW30802   2.684   2.864   8.820
 6430SOL    HW130803   2.724   2.863   8.728
 6430SOL    HW230804   2.694   2.956   8.860
 6431SOL     OW30805   2.778   2.772   7.739
 6431SOL    HW130806   2.841   2.810   7.671
 6431SOL    HW230807   2.818   2.689   7.778
 6432SOL     OW30808   3.366   3.469   7.492
 6432SOL    HW130809   3.274   3.506   7.499
 6432SOL    HW230810   3.404   3.489   7.402
 6433SOL     OW30811   2.234   3.150   8.938
 6433SOL    HW130812   2.221   3.243   8.904
 6433SOL    HW230813   2.150   3.098   8.925
 6434SOL     OW30814   3.476   3.154   8.737
 6434SOL    HW130815   3.536   3.157   8.817
 6434SOL    HW230816   3.401   3.218   8.750
 6435SOL     OW30817   2.901   2.960   8.144
 6435SOL    HW130818   2.831   2.913   8.198
 6435SOL    HW230819   2.960   2.892   8.101
 6436SOL     OW30820   2.876   2.098   8.419
 6436SOL    HW130821   2.868   2.062   8.326
 6436SOL    HW230822   2.874   2.022   8.484
 6437SOL     OW30823   2.452   3.349   7.939
 6437SOL    HW130824   2.494   3.291   7.869
 6437SOL    HW230825   2.408   3.428   7.895
 6438SOL     OW30826   3.571   2.247   8.829
 6438SOL    HW130827   3.644   2.316   8.833
 6438SOL    HW230828   3.599   2.172   8.770
 6439SOL     OW30829   2.117   3.210   7.738
 6439SOL    HW130830   2.021   3.211   7.711
 6439SOL    HW230831   2.129   3.263   7.822
 6440SOL     OW30832   1.967   2.875   9.174
 6440SOL    HW130833   1.890   2.842   9.228
 6440SOL    HW230834   2.052   2.845   9.216
 6441SOL     OW30835   2.534   2.065   8.937
 6441SOL    HW130836   2.624   2.049   8.897
 6441SOL    HW230837   2.542   2.070   9.036
 6442SOL     OW30838   1.937   2.207   7.481
 6442SOL    HW130839   1.845   2.179   7.452
 6442SOL    HW230840   1.968   2.284   7.425
 6443SOL     OW30841   3.302   2.718   8.846
 6443SOL    HW130842   3.245   2.770   8.783
 6443SOL    HW230843   3.398   2.730   8.822
 6444SOL     OW30844   1.934   2.028   7.766
 6444SOL    HW130845   1.917   2.111   7.712
 6444SOL    HW230846   2.024   1.991   7.744
 6445SOL     OW30847   3.045   3.197   7.567
 6445SOL    HW130848   2.946   3.186   7.569
 6445SOL    HW230849   3.079   3.212   7.660
 6446SOL     OW30850   2.475   2.704   8.879
 6446SOL    HW130851   2.531   2.785   8.862
 6446SOL    HW230852   2.534   2.624   8.882
 6447SOL     OW30853   3.355   3.629   8.407
 6447SOL    HW130854   3.388   3.693   8.338
 6447SOL    HW230855   3.421   3.623   8.482
 6448SOL     OW30856   2.578   2.427   9.156
 6448SOL    HW130857   2.597   2.492   9.230
 6448SOL    HW230858   2.638   2.347   9.165
 6449SOL     OW30859   3.312   3.082   9.081
 6449SOL    HW130860   3.303   3.072   9.180
 6449SOL    HW230861   3.408   3.075   9.055
 6450SOL     OW30862   3.536   2.745   8.702
 6450SOL    HW130863   3.509   2.656   8.665
 6450SOL    HW230864   3.537   2.813   8.629
 6451SOL     OW30865   3.087   2.187   7.897
 6451SOL    HW130866   3.152   2.113   7.886
 6451SOL    HW230867   3.107   2.237   7.981
 6452SOL     OW30868   2.456   2.607   8.100
 6452SOL    HW130869   2.506   2.692   8.081
 6452SOL    HW230870   2.368   2.609   8.052
 6453SOL     OW30871   3.639   2.204   9.090
 6453SOL    HW130872   3.622   2.235   8.996
 6453SOL    HW230873   3.555   2.167   9.128
 6454SOL     OW30874   3.592   2.796   8.965
 6454SOL    HW130875   3.630   2.887   8.980
 6454SOL    HW230876   3.584   2.779   8.866
 6455SOL     OW30877   2.721   3.236   7.464
 6455SOL    HW130878   2.675   3.251   7.552
 6455SOL    HW230879   2.765   3.321   7.434
 6456SOL     OW30880   2.523   3.652   8.401
 6456SOL    HW130881   2.477   3.740   8.388
 6456SOL    HW230882   2.622   3.664   8.394
 6457SOL     OW30883   2.721   2.818   8.309
 6457SOL    HW130884   2.775   2.749   8.357
 6457SOL    HW230885   2.689   2.887   8.375
 6458SOL     OW30886   2.945   2.846   7.535
 6458SOL    HW130887   2.922   2.899   7.453
 6458SOL    HW230888   3.026   2.790   7.516
 6459SOL     OW30889   3.723   3.431   8.299
 6459SOL    HW130890   3.652   3.419   8.229
 6459SOL    HW230891   3.724   3.352   8.359
 6460SOL     OW30892   2.083   3.176   9.292
 6460SOL    HW130893   2.018   3.103   9.271
 6460SOL    HW230894   2.087   3.190   9.390
 6461SOL     OW30895   1.941   3.102   8.101
 6461SOL    HW130896   1.940   3.055   8.189
 6461SOL    HW230897   2.023   3.074   8.050
 6462SOL     OW30898   2.534   3.253   9.072
 6462SOL    HW130899   2.456   3.203   9.110
 6462SOL    HW230900   2.531   3.348   9.103
 6463SOL     OW30901   3.686   2.054   8.675
 6463SOL    HW130902   3.682   1.964   8.719
 6463SOL    HW230903   3.689   2.043   8.576
 6464SOL     OW30904   2.290   2.286   7.968
 6464SOL    HW130905   2.320   2.214   7.906
 6464SOL    HW230906   2.251   2.246   8.051
 6465SOL     OW30907   3.567   3.349   8.552
 6465SOL    HW130908   3.474   3.324   8.525
 6465SOL    HW230909   3.593   3.299   8.634
 6466SOL     OW30910   2.179   2.409   8.728
 6466SOL    HW130911   2.217   2.350   8.800
 6466SOL    HW230912   2.219   2.383   8.640
 6467SOL     OW30913   2.674   3.448   8.135
 6467SOL    HW130914   2.706   3.458   8.041
 6467SOL    HW230915   2.595   3.386   8.137
 6468SOL     OW30916   3.286   2.076   8.560
 6468SOL    HW130917   3.338   2.011   8.615
 6468SOL    HW230918   3.237   2.139   8.621
 6469SOL     OW30919   2.863   1.896   8.602
 6469SOL    HW130920   2.800   1.824   8.571
 6469SOL    HW230921   2.956   1.860   8.602
 6470SOL     OW30922   2.632   3.192   7.749
 6470SOL    HW130923   2.586   3.105   7.766
 6470SOL    HW230924   2.723   3.189   7.790
 6471SOL     OW30925   2.480   3.429   8.732
 6471SOL    HW130926   2.475   3.511   8.789
 6471SOL    HW230927   2.569   3.426   8.687
 6472SOL     OW30928   3.214   1.914   7.616
 6472SOL    HW130929   3.249   1.873   7.532
 6472SOL    HW230930   3.124   1.876   7.636
 6473SOL     OW30931   3.162   2.315   8.139
 6473SOL    HW130932   3.103   2.395   8.143
 6473SOL    HW230933   3.177   2.280   8.232
 6474SOL     OW30934   3.455   2.083   8.330
 6474SOL    HW130935   3.371   2.082   8.384
 6474SOL    HW230936   3.457   2.166   8.274
 6475SOL     OW30937   1.901   2.939   7.748
 6475SOL    HW130938   2.000   2.928   7.739
 6475SOL    HW230939   1.861   2.853   7.780
 6476SOL     OW30940   2.737   3.508   7.785
 6476SOL    HW130941   2.660   3.473   7.731
 6476SOL    HW230942   2.705   3.579   7.847
 6477SOL     OW30943   2.092   2.490   9.423
 6477SOL    HW130944   1.999   2.488   9.460
 6477SOL    HW230945   2.093   2.451   9.331
 6478SOL     OW30946   2.431   3.137  10.475
 6478SOL    HW130947   2.338   3.130  10.438
 6478SOL    HW230948   2.442   3.226  10.519
 6479SOL     OW30949   2.997   2.565  10.027
 6479SOL    HW130950   3.054   2.643  10.002
 6479SOL    HW230951   2.937   2.591  10.103
 6480SOL     OW30952   3.617   2.469   9.541
 6480SOL    HW130953   3.605   2.456   9.442
 6480SOL    HW230954   3.587   2.388   9.590
 6481SOL     OW30955   2.547   2.874   9.975
 6481SOL    HW130956   2.616   2.858  10.045
 6481SOL    HW230957   2.474   2.931  10.013
 6482SOL     OW30958   2.548   3.023  11.113
 6482SOL    HW130959   2.608   3.102  11.127
 6482SOL    HW230960   2.462   3.054  11.072
 6483SOL     OW30961   3.322   3.367  10.649
 6483SOL    HW130962   3.346   3.461  10.675
 6483SOL    HW230963   3.306   3.313  10.731
 6484SOL     OW30964   3.465   2.309  10.047
 6484SOL    HW130965   3.391   2.355   9.997
 6484SOL    HW230966   3.516   2.377  10.100
 6485SOL     OW30967   2.989   3.203  11.000
 6485SOL    HW130968   3.036   3.203  11.088
 6485SOL    HW230969   2.941   3.116  10.989
 6486SOL     OW30970   2.482   3.648  10.749
 6486SOL    HW130971   2.390   3.631  10.784
 6486SOL    HW230972   2.510   3.740  10.775
 6487SOL     OW30973   2.468   2.826   9.433
 6487SOL    HW130974   2.475   2.910   9.379
 6487SOL    HW230975   2.514   2.839   9.521
 6488SOL     OW30976   3.456   1.976  10.790
 6488SOL    HW130977   3.438   2.043  10.718
 6488SOL    HW230978   3.453   2.022  10.879
 6489SOL     OW30979   1.984   2.505   9.873
 6489SOL    HW130980   1.939   2.417   9.890
 6489SOL    HW230981   1.983   2.559   9.957
 6490SOL     OW30982   3.551   2.784   9.922
 6490SOL    HW130983   3.646   2.755   9.930
 6490SOL    HW230984   3.543   2.849   9.847
 6491SOL     OW30985   3.503   2.970   9.742
 6491SOL    HW130986   3.589   2.972   9.690
 6491SOL    HW230987   3.517   3.017   9.830
 6492SOL     OW30988   3.155   3.090  10.733
 6492SOL    HW130989   3.192   3.017  10.675
 6492SOL    HW230990   3.207   3.095  10.818
 6493SOL     OW30991   3.387   2.861   9.500
 6493SOL    HW130992   3.324   2.785   9.513
 6493SOL    HW230993   3.435   2.879   9.586
 6494SOL     OW30994   3.049   3.654  10.926
 6494SOL    HW130995   3.073   3.714  10.850
 6494SOL    HW230996   3.056   3.559  10.896
 6495SOL     OW30997   3.328   3.279  10.263
 6495SOL    HW130998   3.269   3.285  10.343
 6495SOL    HW230999   3.313   3.191  10.217
 6496SOL     OW31000   2.460   2.591   9.580
 6496SOL    HW131001   2.484   2.660   9.512
 6496SOL    HW231002   2.382   2.624   9.634
 6497SOL     OW31003   3.143   2.207  10.254
 6497SOL    HW131004   3.057   2.157  10.241
 6497SOL    HW231005   3.205   2.153  10.310
 6498SOL     OW31006   3.438   3.524   9.617
 6498SOL    HW131007   3.527   3.570   9.620
 6498SOL    HW231008   3.417   3.500   9.522
 6499SOL     OW31009   2.853   2.272  10.552
 6499SOL    HW131010   2.776   2.306  10.606
 6499SOL    HW231011   2.819   2.221  10.473
 6500SOL     OW31012   2.903   2.563   9.739
 6500SOL    HW131013   2.929   2.559   9.835
 6500SOL    HW231014   2.818   2.512   9.725
 6501SOL     OW31015   1.938   2.673  10.099
 6501SOL    HW131016   2.037   2.661  10.108
 6501SOL    HW231017   1.914   2.768  10.120
 6502SOL     OW31018   2.727   2.210   9.505
 6502SOL    HW131019   2.786   2.273   9.456
 6502SOL    HW231020   2.746   2.116   9.476
 6503SOL     OW31021   3.224   3.006   9.855
 6503SOL    HW131022   3.307   2.977   9.807
 6503SOL    HW231023   3.175   3.073   9.799
 6504SOL     OW31024   2.412   2.058  10.195
 6504SOL    HW131025   2.407   2.053  10.295
 6504SOL    HW231026   2.414   2.154  10.166
 6505SOL     OW31027   2.870   3.318   9.787
 6505SOL    HW131028   2.824   3.390   9.735
 6505SOL    HW231029   2.866   3.338   9.885
 6506SOL     OW31030   3.657   2.928  10.183
 6506SOL    HW131031   3.595   2.913  10.107
 6506SOL    HW231032   3.605   2.939  10.268
 6507SOL     OW31033   3.089   3.412  10.816
 6507SOL    HW131034   3.095   3.335  10.880
 6507SOL    HW231035   3.037   3.386  10.736
 6508SOL     OW31036   2.183   2.805   9.552
 6508SOL    HW131037   2.265   2.844   9.510
 6508SOL    HW231038   2.156   2.723   9.503
 6509SOL     OW31039   3.320   2.597  10.038
 6509SOL    HW131040   3.315   2.532  10.113
 6509SOL    HW231041   3.400   2.656  10.051
 6510SOL     OW31042   2.323   3.128  11.037
 6510SOL    HW131043   2.273   3.129  10.951
 6510SOL    HW231044   2.260   3.110  11.113
 6511SOL     OW31045   2.973   3.638   9.547
 6511SOL    HW131046   2.913   3.576   9.597
 6511SOL    HW231047   3.004   3.594   9.462
 6512SOL     OW31048   3.494   3.239   9.391
 6512SOL    HW131049   3.462   3.333   9.381
 6512SOL    HW231050   3.418   3.176   9.379
 6513SOL     OW31051   2.326   3.605   9.633
 6513SOL    HW131052   2.359   3.644   9.719
 6513SOL    HW231053   2.402   3.598   9.568
 6514SOL     OW31054   3.262   1.969   9.736
 6514SOL    HW131055   3.238   1.932   9.646
 6514SOL    HW231056   3.361   1.985   9.740
 6515SOL     OW31057   2.111   3.647  10.551
 6515SOL    HW131058   2.168   3.582  10.601
 6515SOL    HW231059   2.095   3.614  10.458
 6516SOL     OW31060   2.802   3.560  10.214
 6516SOL    HW131061   2.882   3.503  10.235
 6516SOL    HW231062   2.753   3.520  10.137
 6517SOL     OW31063   2.244   2.562   9.790
 6517SOL    HW131064   2.289   2.472   9.787
 6517SOL    HW231065   2.150   2.551   9.823
 6518SOL     OW31066   3.409   2.084  11.039
 6518SOL    HW131067   3.404   2.121  11.131
 6518SOL    HW231068   3.337   2.015  11.027
 6519SOL     OW31069   2.476   1.984   9.427
 6519SOL    HW131070   2.574   1.962   9.434
 6519SOL    HW231071   2.445   1.967   9.334
 6520SOL     OW31072   2.750   3.376  10.505
 6520SOL    HW131073   2.727   3.351  10.411
 6520SOL    HW231074   2.811   3.307  10.544
 6521SOL     OW31075   2.784   2.365  10.209
 6521SOL    HW131076   2.759   2.356  10.113
 6521SOL    HW231077   2.832   2.283  10.240
 6522SOL     OW31078   3.296   3.050   9.351
 6522SOL    HW131079   3.328   2.974   9.408
 6522SOL    HW231080   3.204   3.077   9.381
 6523SOL     OW31081   2.797   2.098   9.790
 6523SOL    HW131082   2.749   2.139   9.712
 6523SOL    HW231083   2.896   2.096   9.771
 6524SOL     OW31084   2.938   2.545  10.774
 6524SOL    HW131085   2.858   2.484  10.777
 6524SOL    HW231086   3.019   2.492  10.750
 6525SOL     OW31087   3.089   3.432  10.103
 6525SOL    HW131088   3.110   3.506  10.038
 6525SOL    HW231089   3.157   3.432  10.176
 6526SOL     OW31090   3.133   3.659   9.901
 6526SOL    HW131091   3.177   3.723   9.837
 6526SOL    HW231092   3.083   3.711   9.971
 6527SOL     OW31093   2.894   2.411   9.326
 6527SOL    HW131094   2.853   2.493   9.287
 6527SOL    HW231095   2.958   2.437   9.399
 6528SOL     OW31096   2.423   2.084  10.457
 6528SOL    HW131097   2.461   2.000  10.494
 6528SOL    HW231098   2.335   2.103  10.501
 6529SOL     OW31099   2.728   2.316   9.952
 6529SOL    HW131100   2.696   2.388   9.890
 6529SOL    HW231101   2.752   2.235   9.899
 6530SOL     OW31102   3.291   3.035  10.177
 6530SOL    HW131103   3.236   2.951  10.170
 6530SOL    HW231104   3.317   3.064  10.085
 6531SOL     OW31105   3.328   2.452  10.302
 6531SOL    HW131106   3.298   2.357  10.309
 6531SOL    HW231107   3.401   2.468  10.368
 6532SOL     OW31108   3.719   2.695   9.687
 6532SOL    HW131109   3.761   2.631   9.751
 6532SOL    HW231110   3.681   2.644   9.609
 6533SOL     OW31111   2.350   3.247   9.484
 6533SOL    HW131112   2.263   3.232   9.531
 6533SOL    HW231113   2.333   3.273   9.389
 6534SOL     OW31114   3.252   2.437   9.388
 6534SOL    HW131115   3.198   2.416   9.469
 6534SOL    HW231116   3.343   2.396   9.397
 6535SOL     OW31117   2.389   2.118   9.638
 6535SOL    HW131118   2.416   2.059   9.563
 6535SOL    HW231119   2.389   2.213   9.607
 6536SOL     OW31120   2.926   3.209  10.650
 6536SOL    HW131121   2.846   3.186  10.705
 6536SOL    HW231122   3.009   3.183  10.699
 6537SOL     OW31123   2.973   3.057  10.410
 6537SOL    HW131124   2.933   3.101  10.491
 6537SOL    HW231125   2.932   3.094  10.327
 6538SOL     OW31126   2.842   2.978  11.029
 6538SOL    HW131127   2.743   2.984  11.039
 6538SOL    HW231128   2.865   2.898  10.973
 6539SOL     OW31129   2.567   2.912   9.678
 6539SOL    HW131130   2.553   2.919   9.777
 6539SOL    HW231131   2.651   2.861   9.660
 6540SOL     OW31132   2.229   2.962   9.811
 6540SOL    HW131133   2.222   3.045   9.755
 6540SOL    HW231134   2.233   2.882   9.751
 6541SOL     OW31135   2.428   2.399  10.175
 6541SOL    HW131136   2.440   2.465  10.101
 6541SOL    HW231137   2.474   2.433  10.258
 6542SOL     OW31138   3.114   3.210   9.698
 6542SOL    HW131139   3.164   3.287   9.738
 6542SOL    HW231140   3.019   3.212   9.730
 6543SOL     OW31141   3.134   3.307  10.452
 6543SOL    HW131142   3.181   3.320  10.539
 6543SOL    HW231143   3.068   3.233  10.461
 6544SOL     OW31144   3.444   2.501   9.782
 6544SOL    HW131145   3.413   2.562   9.855
 6544SOL    HW231146   3.494   2.553   9.713
 6545SOL     OW31147   2.366   1.912  11.050
 6545SOL    HW131148   2.324   1.855  10.980
 6545SOL    HW231149   2.300   1.981  11.082
 6546SOL     OW31150   3.222   2.724  10.355
 6546SOL    HW131151   3.147   2.724  10.289
 6546SOL    HW231152   3.259   2.632  10.364
 6547SOL     OW31153   3.071   2.387   9.585
 6547SOL    HW131154   3.084   2.303   9.639
 6547SOL    HW231155   3.042   2.461   9.645
 6548SOL     OW31156   2.169   2.075  10.541
 6548SOL    HW131157   2.146   2.112  10.631
 6548SOL    HW231158   2.139   1.980  10.535
 6549SOL     OW31159   1.899   3.172  10.592
 6549SOL    HW131160   1.952   3.123  10.660
 6549SOL    HW231161   1.921   3.270  10.597
 6550SOL     OW31162   2.594   2.496  10.374
 6550SOL    HW131163   2.653   2.470  10.298
 6550SOL    HW231164   2.566   2.592  10.363
 6551SOL     OW31165   3.484   2.229   9.684
 6551SOL    HW131166   3.486   2.153   9.748
 6551SOL    HW231167   3.436   2.306   9.724
 6552SOL     OW31168   2.885   2.628  10.276
 6552SOL    HW131169   2.900   2.649  10.372
 6552SOL    HW231170   2.855   2.533  10.267
 6553SOL     OW31171   2.842   3.435  11.010
 6553SOL    HW131172   2.822   3.479  10.922
 6553SOL    HW231173   2.881   3.344  10.994
 6554SOL     OW31174   3.402   2.136   9.435
 6554SOL    HW131175   3.341   2.061   9.458
 6554SOL    HW231176   3.424   2.188   9.518
 6555SOL     OW31177   3.165   2.700   9.352
 6555SOL    HW131178   3.199   2.607   9.367
 6555SOL    HW231179   3.183   2.727   9.257
 6556SOL     OW31180   2.930   3.195  10.159
 6556SOL    HW131181   2.937   3.111  10.104
 6556SOL    HW231182   2.992   3.264  10.123
 6557SOL     OW31183   2.181   2.672  10.259
 6557SOL    HW131184   2.274   2.708  10.264
 6557SOL    HW231185   2.175   2.587  10.311
 6558SOL     OW31186   2.677   2.434   9.635
 6558SOL    HW131187   2.684   2.345   9.589
 6558SOL    HW231188   2.583   2.468   9.627
 6559SOL     OW31189   2.114   3.426  11.054
 6559SOL    HW131190   2.084   3.483  11.130
 6559SOL    HW231191   2.107   3.329  11.080
 6560SOL     OW31192   2.792   3.540  10.775
 6560SOL    HW131193   2.768   3.522  10.680
 6560SOL    HW231194   2.822   3.634  10.785
 6561SOL     OW31195   2.335   2.362   9.501
 6561SOL    HW131196   2.396   2.442   9.505
 6561SOL    HW231197   2.240   2.393   9.508
 6562SOL     OW31198   2.021   2.999  10.776
 6562SOL    HW131199   2.043   2.938  10.852
 6562SOL    HW231200   2.031   2.950  10.690
 6563SOL     OW31201   3.209   2.921  10.544
 6563SOL    HW131202   3.233   2.858  10.470
 6563SOL    HW231203   3.119   2.961  10.526
 6564SOL     OW31204   3.164   2.717   9.619
 6564SOL    HW131205   3.078   2.686   9.661
 6564SOL    HW231206   3.160   2.703   9.520
 6565SOL     OW31207   3.114   3.593  10.438
 6565SOL    HW131208   3.198   3.598  10.384
 6565SOL    HW231209   3.091   3.497  10.456
 6566SOL     OW31210   2.550   3.524  11.026
 6566SOL    HW131211   2.494   3.605  11.035
 6566SOL    HW231212   2.602   3.528  10.940
 6567SOL     OW31213   3.588   1.997   9.833
 6567SOL    HW131214   3.661   1.980   9.766
 6567SOL    HW231215   3.557   1.910   9.871
 6568SOL     OW31216   3.250   3.435   9.787
 6568SOL    HW131217   3.317   3.447   9.713
 6568SOL    HW231218   3.210   3.524   9.810
 6569SOL     OW31219   1.992   3.656  11.161
 6569SOL    HW131220   1.951   3.582  11.214
 6569SOL    HW231221   2.056   3.707  11.219
 6570SOL     OW31222   3.142   2.789   9.982
 6570SOL    HW131223   3.202   2.708   9.984
 6570SOL    HW231224   3.182   2.858   9.922
 6571SOL     OW31225   2.692   3.135  10.732
 6571SOL    HW131226   2.687   3.168  10.827
 6571SOL    HW231227   2.606   3.154  10.686
 6572SOL     OW31228   2.534   3.478   9.464
 6572SOL    HW131229   2.543   3.488   9.365
 6572SOL    HW231230   2.494   3.389   9.485
 6573SOL     OW31231   3.703   2.037  10.273
 6573SOL    HW131232   3.742   1.952  10.237
 6573SOL    HW231233   3.605   2.039  10.254
 6574SOL     OW31234   2.125   2.188  10.030
 6574SOL    HW131235   2.046   2.239   9.996
 6574SOL    HW231236   2.116   2.173  10.128
 6575SOL     OW31237   3.056   3.474   9.341
 6575SOL    HW131238   3.062   3.381   9.378
 6575SOL    HW231239   2.997   3.474   9.261
 6576SOL     OW31240   2.778   2.772   9.601
 6576SOL    HW131241   2.841   2.810   9.533
 6576SOL    HW231242   2.818   2.689   9.640
 6577SOL     OW31243   3.366   3.469   9.354
 6577SOL    HW131244   3.274   3.506   9.361
 6577SOL    HW231245   3.404   3.489   9.264
 6578SOL     OW31246   2.234   3.150  10.800
 6578SOL    HW131247   2.221   3.243  10.766
 6578SOL    HW231248   2.150   3.098  10.787
 6579SOL     OW31249   2.901   2.960  10.006
 6579SOL    HW131250   2.831   2.913  10.060
 6579SOL    HW231251   2.960   2.892   9.963
 6580SOL     OW31252   2.876   2.098  10.281
 6580SOL    HW131253   2.868   2.062  10.188
 6580SOL    HW231254   2.874   2.022  10.346
 6581SOL     OW31255   2.452   3.349   9.801
 6581SOL    HW131256   2.494   3.291   9.731
 6581SOL    HW231257   2.408   3.428   9.757
 6582SOL     OW31258   3.571   2.247  10.691
 6582SOL    HW131259   3.644   2.316  10.695
 6582SOL    HW231260   3.599   2.172  10.632
 6583SOL     OW31261   1.937   2.207   9.343
 6583SOL    HW131262   1.845   2.179   9.314
 6583SOL    HW231263   1.968   2.284   9.287
 6584SOL     OW31264   3.302   2.718  10.708
 6584SOL    HW131265   3.245   2.770  10.645
 6584SOL    HW231266   3.398   2.730  10.684
 6585SOL     OW31267   3.045   3.197   9.429
 6585SOL    HW131268   2.946   3.186   9.431
 6585SOL    HW231269   3.079   3.212   9.522
 6586SOL     OW31270   3.355   3.629  10.269
 6586SOL    HW131271   3.388   3.693  10.200
 6586SOL    HW231272   3.421   3.623  10.344
 6587SOL     OW31273   2.578   2.427  11.018
 6587SOL    HW131274   2.597   2.492  11.092
 6587SOL    HW231275   2.638   2.347  11.027
 6588SOL     OW31276   3.312   3.082  10.943
 6588SOL    HW131277   3.303   3.072  11.042
 6588SOL    HW231278   3.408   3.075  10.917
 6589SOL     OW31279   3.087   2.187   9.759
 6589SOL    HW131280   3.152   2.113   9.748
 6589SOL    HW231281   3.107   2.237   9.843
 6590SOL     OW31282   2.456   2.607   9.962
 6590SOL    HW131283   2.506   2.692   9.943
 6590SOL    HW231284   2.368   2.609   9.914
 6591SOL     OW31285   3.639   2.204  10.952
 6591SOL    HW131286   3.622   2.235  10.858
 6591SOL    HW231287   3.555   2.167  10.990
 6592SOL     OW31288   2.721   3.236   9.326
 6592SOL    HW131289   2.675   3.251   9.414
 6592SOL    HW231290   2.765   3.321   9.296
 6593SOL     OW31291   2.523   3.652  10.263
 6593SOL    HW131292   2.477   3.740  10.250
 6593SOL    HW231293   2.622   3.664  10.256
 6594SOL     OW31294   2.721   2.818  10.171
 6594SOL    HW131295   2.775   2.749  10.219
 6594SOL    HW231296   2.689   2.887  10.237
 6595SOL     OW31297   2.945   2.846   9.397
 6595SOL    HW131298   2.922   2.899   9.315
 6595SOL    HW231299   3.026   2.790   9.378
 6596SOL     OW31300   2.534   3.253  10.934
 6596SOL    HW131301   2.456   3.203  10.972
 6596SOL    HW231302   2.531   3.348  10.965
 6597SOL     OW31303   3.686   2.054  10.537
 6597SOL    HW131304   3.682   1.964  10.581
 6597SOL    HW231305   3.689   2.043  10.438
 6598SOL     OW31306   2.290   2.286   9.830
 6598SOL    HW131307   2.320   2.214   9.768
 6598SOL    HW231308   2.251   2.246   9.913
 6599SOL     OW31309   2.674   3.448   9.997
 6599SOL    HW131310   2.706   3.458   9.903
 6599SOL    HW231311   2.595   3.386   9.999
 6600SOL     OW31312   2.632   3.192   9.611
 6600SOL    HW131313   2.586   3.105   9.628
 6600SOL    HW231314   2.723   3.189   9.652
 6601SOL     OW31315   2.480   3.429  10.594
 6601SOL    HW131316   2.475   3.511  10.651
 6601SOL    HW231317   2.569   3.426  10.549
 6602SOL     OW31318   3.214   1.914   9.478
 6602SOL    HW131319   3.249   1.873   9.394
 6602SOL    HW231320   3.124   1.876   9.498
 6603SOL     OW31321   3.162   2.315  10.001
 6603SOL    HW131322   3.103   2.395  10.005
 6603SOL    HW231323   3.177   2.280  10.094
 6604SOL     OW31324   3.455   2.083  10.192
 6604SOL    HW131325   3.371   2.082  10.246
 6604SOL    HW231326   3.457   2.166  10.136
 6605SOL     OW31327   1.901   2.939   9.610
 6605SOL    HW131328   2.000   2.928   9.601
 6605SOL    HW231329   1.861   2.853   9.642
 6606SOL     OW31330   2.737   3.508   9.647
 6606SOL    HW131331   2.660   3.473   9.593
 6606SOL    HW231332   2.705   3.579   9.709
 6607SOL     OW31333   2.997   2.565  11.889
 6607SOL    HW131334   3.054   2.643  11.864
 6607SOL    HW231335   2.937   2.591  11.965
 6608SOL     OW31336   2.548   3.023  12.975
 6608SOL    HW131337   2.608   3.102  12.989
 6608SOL    HW231338   2.462   3.054  12.934
 6609SOL     OW31339   2.300   2.254  12.671
 6609SOL    HW131340   2.382   2.198  12.680
 6609SOL    HW231341   2.219   2.196  12.675
 6610SOL     OW31342   2.093   3.575  11.655
 6610SOL    HW131343   2.127   3.652  11.709
 6610SOL    HW231344   2.137   3.575  11.565
 6611SOL     OW31345   2.092   3.296  11.710
 6611SOL    HW131346   2.066   3.392  11.710
 6611SOL    HW231347   2.021   3.242  11.755
 6612SOL     OW31348   1.984   2.505  11.735
 6612SOL    HW131349   1.939   2.417  11.752
 6612SOL    HW231350   1.983   2.559  11.819
 6613SOL     OW31351   1.889   3.458  11.289
 6613SOL    HW131352   1.870   3.362  11.310
 6613SOL    HW231353   1.856   3.516  11.364
 6614SOL     OW31354   3.551   2.784  11.784
 6614SOL    HW131355   3.646   2.755  11.792
 6614SOL    HW231356   3.543   2.849  11.709
 6615SOL     OW31357   3.503   2.970  11.604
 6615SOL    HW131358   3.589   2.972  11.552
 6615SOL    HW231359   3.517   3.017  11.692
 6616SOL     OW31360   2.475   3.227  11.898
 6616SOL    HW131361   2.426   3.140  11.907
 6616SOL    HW231362   2.452   3.270  11.811
 6617SOL     OW31363   3.155   3.090  12.595
 6617SOL    HW131364   3.192   3.017  12.537
 6617SOL    HW231365   3.207   3.095  12.680
 6618SOL     OW31366   3.387   2.861  11.362
 6618SOL    HW131367   3.324   2.785  11.375
 6618SOL    HW231368   3.435   2.879  11.448
 6619SOL     OW31369   3.049   3.654  12.788
 6619SOL    HW131370   3.073   3.714  12.712
 6619SOL    HW231371   3.056   3.559  12.758
 6620SOL     OW31372   3.328   3.279  12.125
 6620SOL    HW131373   3.269   3.285  12.205
 6620SOL    HW231374   3.313   3.191  12.079
 6621SOL     OW31375   3.438   3.524  11.479
 6621SOL    HW131376   3.527   3.570  11.482
 6621SOL    HW231377   3.417   3.500  11.384
 6622SOL     OW31378   2.669   2.467  12.637
 6622SOL    HW131379   2.622   2.464  12.726
 6622SOL    HW231380   2.618   2.412  12.571
 6623SOL     OW31381   1.938   2.673  11.961
 6623SOL    HW131382   2.037   2.661  11.970
 6623SOL    HW231383   1.914   2.768  11.982
 6624SOL     OW31384   1.992   3.683  12.743
 6624SOL    HW131385   1.982   3.668  12.842
 6624SOL    HW231386   1.906   3.719  12.707
 6625SOL     OW31387   3.224   3.006  11.717
 6625SOL    HW131388   3.307   2.977  11.669
 6625SOL    HW231389   3.175   3.073  11.661
 6626SOL     OW31390   2.213   3.663  12.025
 6626SOL    HW131391   2.263   3.577  12.031
 6626SOL    HW231392   2.278   3.740  12.022
 6627SOL     OW31393   3.657   2.928  12.045
 6627SOL    HW131394   3.595   2.913  11.969
 6627SOL    HW231395   3.605   2.939  12.130
 6628SOL     OW31396   3.320   2.597  11.900
 6628SOL    HW131397   3.315   2.532  11.975
 6628SOL    HW231398   3.400   2.656  11.913
 6629SOL     OW31399   2.323   3.128  12.899
 6629SOL    HW131400   2.273   3.129  12.813
 6629SOL    HW231401   2.260   3.110  12.975
 6630SOL     OW31402   2.064   2.147  12.670
 6630SOL    HW131403   1.984   2.207  12.657
 6630SOL    HW231404   2.054   2.098  12.756
 6631SOL     OW31405   3.494   3.239  11.253
 6631SOL    HW131406   3.462   3.333  11.243
 6631SOL    HW231407   3.418   3.176  11.241
 6632SOL     OW31408   2.326   3.605  11.495
 6632SOL    HW131409   2.359   3.644  11.581
 6632SOL    HW231410   2.402   3.598  11.430
 6633SOL     OW31411   2.643   2.126  12.921
 6633SOL    HW131412   2.710   2.065  12.964
 6633SOL    HW231413   2.570   2.145  12.986
 6634SOL     OW31414   2.750   3.376  12.367
 6634SOL    HW131415   2.727   3.351  12.273
 6634SOL    HW231416   2.811   3.307  12.406
 6635SOL     OW31417   2.784   2.365  12.071
 6635SOL    HW131418   2.759   2.356  11.975
 6635SOL    HW231419   2.832   2.283  12.102
 6636SOL     OW31420   3.296   3.050  11.213
 6636SOL    HW131421   3.328   2.974  11.270
 6636SOL    HW231422   3.204   3.077  11.243
 6637SOL     OW31423   3.089   3.432  11.965
 6637SOL    HW131424   3.110   3.506  11.900
 6637SOL    HW231425   3.157   3.432  12.038
 6638SOL     OW31426   2.321   3.014  11.913
 6638SOL    HW131427   2.250   2.987  11.978
 6638SOL    HW231428   2.295   2.986  11.820
 6639SOL     OW31429   2.894   2.411  11.188
 6639SOL    HW131430   2.853   2.493  11.149
 6639SOL    HW231431   2.958   2.437  11.261
 6640SOL     OW31432   3.291   3.035  12.039
 6640SOL    HW131433   3.236   2.951  12.032
 6640SOL    HW231434   3.317   3.064  11.947
 6641SOL     OW31435   2.350   3.247  11.346
 6641SOL    HW131436   2.263   3.232  11.393
 6641SOL    HW231437   2.333   3.273  11.251
 6642SOL     OW31438   3.500   2.961  12.251
 6642SOL    HW131439   3.505   3.042  12.310
 6642SOL    HW231440   3.414   2.963  12.200
 6643SOL     OW31441   2.777   1.951  12.574
 6643SOL    HW131442   2.802   1.931  12.479
 6643SOL    HW231443   2.849   2.007  12.616
 6644SOL     OW31444   2.842   2.978  12.891
 6644SOL    HW131445   2.743   2.984  12.901
 6644SOL    HW231446   2.865   2.898  12.835
 6645SOL     OW31447   2.272   2.675  12.423
 6645SOL    HW131448   2.358   2.687  12.473
 6645SOL    HW231449   2.230   2.588  12.450
 6646SOL     OW31450   3.136   2.248  12.434
 6646SOL    HW131451   3.157   2.322  12.498
 6646SOL    HW231452   3.047   2.265  12.391
 6647SOL     OW31453   2.229   2.962  11.673
 6647SOL    HW131454   2.222   3.045  11.617
 6647SOL    HW231455   2.233   2.882  11.613
 6648SOL     OW31456   3.444   2.501  11.644
 6648SOL    HW131457   3.413   2.562  11.717
 6648SOL    HW231458   3.494   2.553  11.575
 6649SOL     OW31459   2.875   1.967  12.942
 6649SOL    HW131460   2.881   2.052  12.890
 6649SOL    HW231461   2.907   1.891  12.885
 6650SOL     OW31462   2.366   1.912  12.912
 6650SOL    HW131463   2.324   1.855  12.842
 6650SOL    HW231464   2.300   1.981  12.944
 6651SOL     OW31465   1.899   3.172  12.454
 6651SOL    HW131466   1.952   3.123  12.522
 6651SOL    HW231467   1.921   3.270  12.459
 6652SOL     OW31468   2.169   1.925  11.790
 6652SOL    HW131469   2.158   2.019  11.823
 6652SOL    HW231470   2.164   1.862  11.867
 6653SOL     OW31471   2.885   2.628  12.138
 6653SOL    HW131472   2.900   2.649  12.234
 6653SOL    HW231473   2.855   2.533  12.129
 6654SOL     OW31474   3.721   3.380  12.777
 6654SOL    HW131475   3.735   3.407  12.682
 6654SOL    HW231476   3.804   3.402  12.830
 6655SOL     OW31477   3.402   2.136  11.297
 6655SOL    HW131478   3.341   2.061  11.320
 6655SOL    HW231479   3.424   2.188  11.380
 6656SOL     OW31480   3.022   2.069  12.649
 6656SOL    HW131481   3.022   2.133  12.726
 6656SOL    HW231482   3.050   2.117  12.566
 6657SOL     OW31483   1.950   3.663  12.099
 6657SOL    HW131484   1.908   3.577  12.072
 6657SOL    HW231485   2.044   3.666  12.065
 6658SOL     OW31486   2.366   3.430  12.082
 6658SOL    HW131487   2.432   3.504  12.091
 6658SOL    HW231488   2.410   3.351  12.040
 6659SOL     OW31489   2.864   2.658  12.410
 6659SOL    HW131490   2.905   2.626  12.496
 6659SOL    HW231491   2.768   2.631  12.407
 6660SOL     OW31492   3.231   2.812  12.832
 6660SOL    HW131493   3.270   2.901  12.852
 6660SOL    HW231494   3.241   2.792  12.735
 6661SOL     OW31495   3.519   2.466  12.378
 6661SOL    HW131496   3.481   2.397  12.440
 6661SOL    HW231497   3.601   2.430  12.334
 6662SOL     OW31498   2.792   3.540  12.637
 6662SOL    HW131499   2.768   3.522  12.542
 6662SOL    HW231500   2.822   3.634  12.647
 6663SOL     OW31501   3.114   3.593  12.300
 6663SOL    HW131502   3.198   3.598  12.246
 6663SOL    HW231503   3.091   3.497  12.318
 6664SOL     OW31504   2.550   3.524  12.888
 6664SOL    HW131505   2.494   3.605  12.897
 6664SOL    HW231506   2.602   3.528  12.802
 6665SOL     OW31507   1.992   3.656  13.023
 6665SOL    HW131508   1.951   3.582  13.076
 6665SOL    HW231509   2.056   3.707  13.081
 6666SOL     OW31510   3.142   2.789  11.844
 6666SOL    HW131511   3.202   2.708  11.846
 6666SOL    HW231512   3.182   2.858  11.784
 6667SOL     OW31513   2.534   3.478  11.326
 6667SOL    HW131514   2.543   3.488  11.227
 6667SOL    HW231515   2.494   3.389  11.347
 6668SOL     OW31516   3.512   3.582  12.566
 6668SOL    HW131517   3.565   3.592  12.482
 6668SOL    HW231518   3.485   3.672  12.600
 6669SOL     OW31519   3.056   3.474  11.203
 6669SOL    HW131520   3.062   3.381  11.240
 6669SOL    HW231521   2.997   3.474  11.123
 6670SOL     OW31522   3.366   3.469  11.216
 6670SOL    HW131523   3.274   3.506  11.223
 6670SOL    HW231524   3.404   3.489  11.126
 6671SOL     OW31525   2.234   3.150  12.662
 6671SOL    HW131526   2.221   3.243  12.628
 6671SOL    HW231527   2.150   3.098  12.649
 6672SOL     OW31528   2.452   3.349  11.663
 6672SOL    HW131529   2.494   3.291  11.593
 6672SOL    HW231530   2.408   3.428  11.619
 6673SOL     OW31531   2.534   2.065  12.661
 6673SOL    HW131532   2.624   2.049  12.621
 6673SOL    HW231533   2.542   2.070  12.760
 6674SOL     OW31534   1.937   2.207  11.205
 6674SOL    HW131535   1.845   2.179  11.176
 6674SOL    HW231536   1.968   2.284  11.149
 6675SOL     OW31537   3.045   3.197  11.291
 6675SOL    HW131538   2.946   3.186  11.293
 6675SOL    HW231539   3.079   3.212  11.384
 6676SOL     OW31540   2.475   2.704  12.603
 6676SOL    HW131541   2.531   2.785  12.586
 6676SOL    HW231542   2.534   2.624  12.606
 6677SOL     OW31543   3.312   3.082  12.805
 6677SOL    HW131544   3.303   3.072  12.904
 6677SOL    HW231545   3.408   3.075  12.779
 6678SOL     OW31546   2.721   3.236  11.188
 6678SOL    HW131547   2.675   3.251  11.276
 6678SOL    HW231548   2.765   3.321  11.158
 6679SOL     OW31549   1.941   3.102  11.825
 6679SOL    HW131550   1.940   3.055  11.913
 6679SOL    HW231551   2.023   3.074  11.774
 6680SOL     OW31552   2.534   3.253  12.796
 6680SOL    HW131553   2.456   3.203  12.834
 6680SOL    HW231554   2.531   3.348  12.827
 6681SOL     OW31555   2.179   2.409  12.452
 6681SOL    HW131556   2.217   2.350  12.524
 6681SOL    HW231557   2.219   2.383  12.364
 6682SOL     OW31558   2.674   3.448  11.859
 6682SOL    HW131559   2.706   3.458  11.765
 6682SOL    HW231560   2.595   3.386  11.861
 6683SOL     OW31561   2.997   2.565  13.751
 6683SOL    HW131562   3.054   2.643  13.726
 6683SOL    HW231563   2.937   2.591  13.827
 6684SOL     OW31564   3.617   2.469  13.265
 6684SOL    HW131565   3.605   2.456  13.166
 6684SOL    HW231566   3.587   2.388  13.314
 6685SOL     OW31567   2.712   2.660  14.857
 6685SOL    HW131568   2.708   2.736  14.922
 6685SOL    HW231569   2.734   2.696  14.766
 6686SOL     OW31570   3.465   2.309  13.771
 6686SOL    HW131571   3.391   2.355  13.721
 6686SOL    HW231572   3.516   2.377  13.824
 6687SOL     OW31573   2.102   2.953  13.920
 6687SOL    HW131574   2.116   2.869  13.972
 6687SOL    HW231575   2.047   3.017  13.975
 6688SOL     OW31576   1.889   3.458  13.151
 6688SOL    HW131577   1.870   3.362  13.172
 6688SOL    HW231578   1.856   3.516  13.226
 6689SOL     OW31579   3.551   2.784  13.646
 6689SOL    HW131580   3.646   2.755  13.654
 6689SOL    HW231581   3.543   2.849  13.571
 6690SOL     OW31582   3.503   2.970  13.466
 6690SOL    HW131583   3.589   2.972  13.414
 6690SOL    HW231584   3.517   3.017  13.554
 6691SOL     OW31585   3.155   3.090  14.457
 6691SOL    HW131586   3.192   3.017  14.399
 6691SOL    HW231587   3.207   3.095  14.542
 6692SOL     OW31588   3.049   3.654  14.650
 6692SOL    HW131589   3.073   3.714  14.574
 6692SOL    HW231590   3.056   3.559  14.620
 6693SOL     OW31591   3.328   3.279  13.987
 6693SOL    HW131592   3.269   3.285  14.067
 6693SOL    HW231593   3.313   3.191  13.941
 6694SOL     OW31594   2.903   2.563  13.463
 6694SOL    HW131595   2.929   2.559  13.559
 6694SOL    HW231596   2.818   2.512  13.449
 6695SOL     OW31597   1.938   2.673  13.823
 6695SOL    HW131598   2.037   2.661  13.832
 6695SOL    HW231599   1.914   2.768  13.844
 6696SOL     OW31600   1.992   3.683  14.605
 6696SOL    HW131601   1.982   3.668  14.704
 6696SOL    HW231602   1.906   3.719  14.569
 6697SOL     OW31603   3.224   3.006  13.579
 6697SOL    HW131604   3.307   2.977  13.531
 6697SOL    HW231605   3.175   3.073  13.523
 6698SOL     OW31606   3.657   2.928  13.907
 6698SOL    HW131607   3.595   2.913  13.831
 6698SOL    HW231608   3.605   2.939  13.992
 6699SOL     OW31609   3.320   2.597  13.762
 6699SOL    HW131610   3.315   2.532  13.837
 6699SOL    HW231611   3.400   2.656  13.775
 6700SOL     OW31612   3.262   1.969  13.460
 6700SOL    HW131613   3.238   1.932  13.370
 6700SOL    HW231614   3.361   1.985  13.464
 6701SOL     OW31615   3.409   2.084  14.763
 6701SOL    HW131616   3.404   2.121  14.855
 6701SOL    HW231617   3.337   2.015  14.751
 6702SOL     OW31618   2.665   3.264  13.958
 6702SOL    HW131619   2.755   3.278  13.916
 6702SOL    HW231620   2.594   3.266  13.887
 6703SOL     OW31621   2.784   2.365  13.933
 6703SOL    HW131622   2.759   2.356  13.837
 6703SOL    HW231623   2.832   2.283  13.964
 6704SOL     OW31624   2.159   1.897  13.205
 6704SOL    HW131625   2.208   1.981  13.184
 6704SOL    HW231626   2.221   1.832  13.250
 6705SOL     OW31627   2.938   2.545  14.498
 6705SOL    HW131628   2.858   2.484  14.501
 6705SOL    HW231629   3.019   2.492  14.474
 6706SOL     OW31630   2.728   2.316  13.676
 6706SOL    HW131631   2.696   2.388  13.614
 6706SOL    HW231632   2.752   2.235  13.623
 6707SOL     OW31633   3.291   3.035  13.901
 6707SOL    HW131634   3.236   2.951  13.894
 6707SOL    HW231635   3.317   3.064  13.809
 6708SOL     OW31636   3.328   2.452  14.026
 6708SOL    HW131637   3.298   2.357  14.033
 6708SOL    HW231638   3.401   2.468  14.092
 6709SOL     OW31639   3.526   3.142  13.691
 6709SOL    HW131640   3.625   3.150  13.705
 6709SOL    HW231641   3.481   3.226  13.722
 6710SOL     OW31642   3.252   2.437  13.112
 6710SOL    HW131643   3.198   2.416  13.193
 6710SOL    HW231644   3.343   2.396  13.121
 6711SOL     OW31645   2.926   3.209  14.374
 6711SOL    HW131646   2.846   3.186  14.429
 6711SOL    HW231647   3.009   3.183  14.423
 6712SOL     OW31648   3.500   2.961  14.113
 6712SOL    HW131649   3.505   3.042  14.172
 6712SOL    HW231650   3.414   2.963  14.062
 6713SOL     OW31651   3.114   3.210  13.422
 6713SOL    HW131652   3.164   3.287  13.462
 6713SOL    HW231653   3.019   3.212  13.454
 6714SOL     OW31654   3.444   2.501  13.506
 6714SOL    HW131655   3.413   2.562  13.579
 6714SOL    HW231656   3.494   2.553  13.437
 6715SOL     OW31657   3.071   2.387  13.309
 6715SOL    HW131658   3.084   2.303  13.363
 6715SOL    HW231659   3.042   2.461  13.369
 6716SOL     OW31660   2.169   2.075  14.265
 6716SOL    HW131661   2.146   2.112  14.355
 6716SOL    HW231662   2.139   1.980  14.259
 6717SOL     OW31663   1.899   3.172  14.316
 6717SOL    HW131664   1.952   3.123  14.384
 6717SOL    HW231665   1.921   3.270  14.321
 6718SOL     OW31666   3.484   2.229  13.408
 6718SOL    HW131667   3.486   2.153  13.472
 6718SOL    HW231668   3.436   2.306  13.448
 6719SOL     OW31669   2.885   2.628  14.000
 6719SOL    HW131670   2.900   2.649  14.096
 6719SOL    HW231671   2.855   2.533  13.991
 6720SOL     OW31672   2.842   3.435  14.734
 6720SOL    HW131673   2.822   3.479  14.646
 6720SOL    HW231674   2.881   3.344  14.718
 6721SOL     OW31675   3.721   3.380  14.639
 6721SOL    HW131676   3.735   3.407  14.544
 6721SOL    HW231677   3.804   3.402  14.692
 6722SOL     OW31678   3.402   2.136  13.159
 6722SOL    HW131679   3.341   2.061  13.182
 6722SOL    HW231680   3.424   2.188  13.242
 6723SOL     OW31681   3.000   2.242  14.712
 6723SOL    HW131682   2.955   2.305  14.776
 6723SOL    HW231683   3.093   2.273  14.695
 6724SOL     OW31684   3.022   2.069  14.511
 6724SOL    HW131685   3.022   2.133  14.588
 6724SOL    HW231686   3.050   2.117  14.428
 6725SOL     OW31687   1.870   3.188  13.234
 6725SOL    HW131688   1.777   3.209  13.203
 6725SOL    HW231689   1.880   3.089  13.247
 6726SOL     OW31690   2.864   2.658  14.272
 6726SOL    HW131691   2.905   2.626  14.358
 6726SOL    HW231692   2.768   2.631  14.269
 6727SOL     OW31693   2.677   2.434  13.359
 6727SOL    HW131694   2.684   2.345  13.313
 6727SOL    HW231695   2.583   2.468  13.351
 6728SOL     OW31696   2.792   3.540  14.499
 6728SOL    HW131697   2.768   3.522  14.404
 6728SOL    HW231698   2.822   3.634  14.509
 6729SOL     OW31699   3.621   3.609  14.188
 6729SOL    HW131700   3.682   3.639  14.115
 6729SOL    HW231701   3.583   3.520  14.166
 6730SOL     OW31702   1.945   3.120  14.056
 6730SOL    HW131703   1.940   3.119  14.156
 6730SOL    HW231704   1.862   3.079  14.018
 6731SOL     OW31705   3.250   3.435  13.511
 6731SOL    HW131706   3.317   3.447  13.437
 6731SOL    HW231707   3.210   3.524  13.534
 6732SOL     OW31708   1.992   3.656  14.885
 6732SOL    HW131709   1.951   3.582  14.938
 6732SOL    HW231710   2.056   3.707  14.943
 6733SOL     OW31711   3.142   2.789  13.706
 6733SOL    HW131712   3.202   2.708  13.708
 6733SOL    HW231713   3.182   2.858  13.646
 6734SOL     OW31714   2.684   2.864  14.406
 6734SOL    HW131715   2.724   2.863  14.314
 6734SOL    HW231716   2.694   2.956  14.446
 6735SOL     OW31717   2.234   3.150  14.524
 6735SOL    HW131718   2.221   3.243  14.490
 6735SOL    HW231719   2.150   3.098  14.511
 6736SOL     OW31720   3.476   3.154  14.323
 6736SOL    HW131721   3.536   3.157  14.403
 6736SOL    HW231722   3.401   3.218  14.336
 6737SOL     OW31723   2.876   2.098  14.005
 6737SOL    HW131724   2.868   2.062  13.912
 6737SOL    HW231725   2.874   2.022  14.070
 6738SOL     OW31726   1.967   2.875  14.760
 6738SOL    HW131727   1.890   2.842  14.814
 6738SOL    HW231728   2.052   2.845  14.802
 6739SOL     OW31729   3.045   3.197  13.153
 6739SOL    HW131730   2.946   3.186  13.155
 6739SOL    HW231731   3.079   3.212  13.246
 6740SOL     OW31732   3.355   3.629  13.993
 6740SOL    HW131733   3.388   3.693  13.924
 6740SOL    HW231734   3.421   3.623  14.068
 6741SOL     OW31735   2.252   3.603  14.594
 6741SOL    HW131736   2.161   3.644  14.592
 6741SOL    HW231737   2.245   3.509  14.626
 6742SOL     OW31738   3.087   2.187  13.483
 6742SOL    HW131739   3.152   2.113  13.472
 6742SOL    HW231740   3.107   2.237  13.567
 6743SOL     OW31741   2.456   2.607  13.686
 6743SOL    HW131742   2.506   2.692  13.667
 6743SOL    HW231743   2.368   2.609  13.638
 6744SOL     OW31744   3.723   3.431  13.885
 6744SOL    HW131745   3.652   3.419  13.815
 6744SOL    HW231746   3.724   3.352  13.945
 6745SOL     OW31747   3.567   3.349  14.138
 6745SOL    HW131748   3.474   3.324  14.111
 6745SOL    HW231749   3.593   3.299  14.220
 6746SOL     OW31750   2.179   2.409  14.314
 6746SOL    HW131751   2.217   2.350  14.386
 6746SOL    HW231752   2.219   2.383  14.226
 6747SOL     OW31753   2.674   3.448  13.721
 6747SOL    HW131754   2.706   3.458  13.627
 6747SOL    HW231755   2.595   3.386  13.723
 6748SOL     OW31756   2.632   3.192  13.335
 6748SOL    HW131757   2.586   3.105  13.352
 6748SOL    HW231758   2.723   3.189  13.376
 6749SOL     OW31759   3.214   1.914  13.202
 6749SOL    HW131760   3.249   1.873  13.118
 6749SOL    HW231761   3.124   1.876  13.222
 6750SOL     OW31762   3.162   2.315  13.725
 6750SOL    HW131763   3.103   2.395  13.729
 6750SOL    HW231764   3.177   2.280  13.818
 6751SOL     OW31765   2.737   3.508  13.371
 6751SOL    HW131766   2.660   3.473  13.317
 6751SOL    HW231767   2.705   3.579  13.433
 6752SOL     OW31768   2.092   2.490  15.009
 6752SOL    HW131769   1.999   2.488  15.046
 6752SOL    HW231770   2.093   2.451  14.917
 6753SOL     OW31771   3.417   3.373  15.599
 6753SOL    HW131772   3.360   3.357  15.680
 6753SOL    HW231773   3.358   3.383  15.519
 6754SOL     OW31774   2.712   2.660  16.720
 6754SOL    HW131775   2.708   2.736  16.785
 6754SOL    HW231776   2.734   2.696  16.629
 6755SOL     OW31777   3.465   2.309  15.633
 6755SOL    HW131778   3.391   2.355  15.583
 6755SOL    HW231779   3.516   2.377  15.686
 6756SOL     OW31780   1.984   2.505  15.459
 6756SOL    HW131781   1.939   2.417  15.476
 6756SOL    HW231782   1.983   2.559  15.543
 6757SOL     OW31783   3.704   3.629  15.255
 6757SOL    HW131784   3.758   3.600  15.335
 6757SOL    HW231785   3.734   3.719  15.226
 6758SOL     OW31786   3.551   2.784  15.508
 6758SOL    HW131787   3.646   2.755  15.516
 6758SOL    HW231788   3.543   2.849  15.433
 6759SOL     OW31789   3.503   2.970  15.328
 6759SOL    HW131790   3.589   2.972  15.276
 6759SOL    HW231791   3.517   3.017  15.416
 6760SOL     OW31792   2.059   2.838  16.161
 6760SOL    HW131793   2.148   2.793  16.147
 6760SOL    HW231794   1.986   2.773  16.142
 6761SOL     OW31795   3.387   2.861  15.086
 6761SOL    HW131796   3.324   2.785  15.099
 6761SOL    HW231797   3.435   2.879  15.172
 6762SOL     OW31798   3.049   3.654  16.513
 6762SOL    HW131799   3.073   3.714  16.437
 6762SOL    HW231800   3.056   3.559  16.483
 6763SOL     OW31801   3.529   3.576  15.468
 6763SOL    HW131802   3.488   3.553  15.380
 6763SOL    HW231803   3.511   3.502  15.533
 6764SOL     OW31804   3.438   3.524  15.203
 6764SOL    HW131805   3.527   3.570  15.206
 6764SOL    HW231806   3.417   3.500  15.108
 6765SOL     OW31807   2.669   2.467  16.362
 6765SOL    HW131808   2.622   2.464  16.451
 6765SOL    HW231809   2.618   2.412  16.296
 6766SOL     OW31810   2.835   2.752  16.469
 6766SOL    HW131811   2.881   2.668  16.440
 6766SOL    HW231812   2.779   2.786  16.394
 6767SOL     OW31813   2.853   2.272  16.139
 6767SOL    HW131814   2.776   2.306  16.193
 6767SOL    HW231815   2.819   2.221  16.060
 6768SOL     OW31816   2.903   2.563  15.325
 6768SOL    HW131817   2.929   2.559  15.421
 6768SOL    HW231818   2.818   2.512  15.311
 6769SOL     OW31819   1.938   2.673  15.685
 6769SOL    HW131820   2.037   2.661  15.694
 6769SOL    HW231821   1.914   2.768  15.706
 6770SOL     OW31822   3.581   2.447  16.728
 6770SOL    HW131823   3.555   2.536  16.692
 6770SOL    HW231824   3.579   2.379  16.655
 6771SOL     OW31825   3.224   3.006  15.441
 6771SOL    HW131826   3.307   2.977  15.393
 6771SOL    HW231827   3.175   3.073  15.385
 6772SOL     OW31828   2.412   2.058  15.781
 6772SOL    HW131829   2.407   2.053  15.881
 6772SOL    HW231830   2.414   2.154  15.752
 6773SOL     OW31831   2.870   3.318  15.373
 6773SOL    HW131832   2.824   3.390  15.321
 6773SOL    HW231833   2.866   3.338  15.471
 6774SOL     OW31834   3.657   2.928  15.769
 6774SOL    HW131835   3.595   2.913  15.693
 6774SOL    HW231836   3.605   2.939  15.854
 6775SOL     OW31837   3.320   2.597  15.624
 6775SOL    HW131838   3.315   2.532  15.699
 6775SOL    HW231839   3.400   2.656  15.637
 6776SOL     OW31840   3.262   1.969  15.322
 6776SOL    HW131841   3.238   1.932  15.232
 6776SOL    HW231842   3.361   1.985  15.326
 6777SOL     OW31843   2.802   3.560  15.800
 6777SOL    HW131844   2.882   3.503  15.821
 6777SOL    HW231845   2.753   3.520  15.723
 6778SOL     OW31846   2.665   3.264  15.820
 6778SOL    HW131847   2.755   3.278  15.778
 6778SOL    HW231848   2.594   3.266  15.749
 6779SOL     OW31849   2.784   2.365  15.795
 6779SOL    HW131850   2.759   2.356  15.699
 6779SOL    HW231851   2.832   2.283  15.826
 6780SOL     OW31852   2.401   1.926  15.408
 6780SOL    HW131853   2.320   1.927  15.466
 6780SOL    HW231854   2.404   2.009  15.353
 6781SOL     OW31855   3.296   3.050  14.937
 6781SOL    HW131856   3.328   2.974  14.994
 6781SOL    HW231857   3.204   3.077  14.967
 6782SOL     OW31858   2.938   2.545  16.361
 6782SOL    HW131859   2.858   2.484  16.364
 6782SOL    HW231860   3.019   2.492  16.337
 6783SOL     OW31861   2.894   2.411  14.912
 6783SOL    HW131862   2.853   2.493  14.873
 6783SOL    HW231863   2.958   2.437  14.985
 6784SOL     OW31864   2.423   2.084  16.044
 6784SOL    HW131865   2.461   2.000  16.081
 6784SOL    HW231866   2.335   2.103  16.088
 6785SOL     OW31867   3.291   3.035  15.763
 6785SOL    HW131868   3.236   2.951  15.756
 6785SOL    HW231869   3.317   3.064  15.671
 6786SOL     OW31870   3.719   2.695  15.273
 6786SOL    HW131871   3.761   2.631  15.337
 6786SOL    HW231872   3.681   2.644  15.195
 6787SOL     OW31873   3.526   3.142  15.553
 6787SOL    HW131874   3.625   3.150  15.567
 6787SOL    HW231875   3.481   3.226  15.584
 6788SOL     OW31876   3.252   2.437  14.974
 6788SOL    HW131877   3.198   2.416  15.055
 6788SOL    HW231878   3.343   2.396  14.983
 6789SOL     OW31879   3.500   2.961  15.976
 6789SOL    HW131880   3.505   3.042  16.035
 6789SOL    HW231881   3.414   2.963  15.925
 6790SOL     OW31882   2.842   2.978  16.616
 6790SOL    HW131883   2.743   2.984  16.626
 6790SOL    HW231884   2.865   2.898  16.560
 6791SOL     OW31885   3.136   2.248  16.159
 6791SOL    HW131886   3.157   2.322  16.223
 6791SOL    HW231887   3.047   2.265  16.116
 6792SOL     OW31888   1.926   3.426  16.228
 6792SOL    HW131889   1.880   3.508  16.194
 6792SOL    HW231890   2.024   3.445  16.237
 6793SOL     OW31891   2.428   2.399  15.761
 6793SOL    HW131892   2.440   2.465  15.687
 6793SOL    HW231893   2.474   2.433  15.844
 6794SOL     OW31894   3.114   3.210  15.284
 6794SOL    HW131895   3.164   3.287  15.324
 6794SOL    HW231896   3.019   3.212  15.316
 6795SOL     OW31897   2.216   3.372  16.226
 6795SOL    HW131898   2.195   3.328  16.139
 6795SOL    HW231899   2.313   3.398  16.229
 6796SOL     OW31900   3.449   2.641  16.567
 6796SOL    HW131901   3.357   2.679  16.562
 6796SOL    HW231902   3.509   2.688  16.502
 6797SOL     OW31903   2.594   2.496  15.961
 6797SOL    HW131904   2.653   2.470  15.885
 6797SOL    HW231905   2.566   2.592  15.950
 6798SOL     OW31906   3.590   2.797  16.751
 6798SOL    HW131907   3.544   2.790  16.662
 6798SOL    HW231908   3.528   2.841  16.817
 6799SOL     OW31909   2.885   2.628  15.863
 6799SOL    HW131910   2.900   2.649  15.959
 6799SOL    HW231911   2.855   2.533  15.854
 6800SOL     OW31912   3.165   2.700  14.938
 6800SOL    HW131913   3.199   2.607  14.953
 6800SOL    HW231914   3.183   2.727  14.843
 6801SOL     OW31915   3.000   2.242  16.575
 6801SOL    HW131916   2.955   2.305  16.639
 6801SOL    HW231917   3.093   2.273  16.558
 6802SOL     OW31918   3.022   2.069  16.374
 6802SOL    HW131919   3.022   2.133  16.451
 6802SOL    HW231920   3.050   2.117  16.291
 6803SOL     OW31921   1.870   3.188  15.096
 6803SOL    HW131922   1.777   3.209  15.065
 6803SOL    HW231923   1.880   3.089  15.109
 6804SOL     OW31924   2.864   2.658  16.135
 6804SOL    HW131925   2.905   2.626  16.221
 6804SOL    HW231926   2.768   2.631  16.132
 6805SOL     OW31927   3.231   2.812  16.557
 6805SOL    HW131928   3.270   2.901  16.577
 6805SOL    HW231929   3.241   2.792  16.460
 6806SOL     OW31930   2.533   2.326  16.166
 6806SOL    HW131931   2.499   2.237  16.136
 6806SOL    HW231932   2.559   2.380  16.086
 6807SOL     OW31933   3.164   2.717  15.205
 6807SOL    HW131934   3.078   2.686  15.247
 6807SOL    HW231935   3.160   2.703  15.106
 6808SOL     OW31936   3.114   3.593  16.025
 6808SOL    HW131937   3.198   3.598  15.971
 6808SOL    HW231938   3.091   3.497  16.043
 6809SOL     OW31939   3.142   2.789  15.568
 6809SOL    HW131940   3.202   2.708  15.570
 6809SOL    HW231941   3.182   2.858  15.508
 6810SOL     OW31942   3.703   2.037  15.860
 6810SOL    HW131943   3.742   1.952  15.824
 6810SOL    HW231944   3.605   2.039  15.841
 6811SOL     OW31945   3.056   3.474  14.927
 6811SOL    HW131946   3.062   3.381  14.964
 6811SOL    HW231947   2.997   3.474  14.847
 6812SOL     OW31948   2.778   2.772  15.187
 6812SOL    HW131949   2.841   2.810  15.119
 6812SOL    HW231950   2.818   2.689  15.226
 6813SOL     OW31951   3.366   3.469  14.940
 6813SOL    HW131952   3.274   3.506  14.947
 6813SOL    HW231953   3.404   3.489  14.850
 6814SOL     OW31954   2.234   3.150  16.387
 6814SOL    HW131955   2.221   3.243  16.353
 6814SOL    HW231956   2.150   3.098  16.374
 6815SOL     OW31957   3.476   3.154  16.186
 6815SOL    HW131958   3.536   3.157  16.266
 6815SOL    HW231959   3.401   3.218  16.199
 6816SOL     OW31960   2.876   2.098  15.868
 6816SOL    HW131961   2.868   2.062  15.775
 6816SOL    HW231962   2.874   2.022  15.933
 6817SOL     OW31963   3.045   3.197  15.015
 6817SOL    HW131964   2.946   3.186  15.017
 6817SOL    HW231965   3.079   3.212  15.108
 6818SOL     OW31966   2.578   2.427  16.605
 6818SOL    HW131967   2.597   2.492  16.679
 6818SOL    HW231968   2.638   2.347  16.614
 6819SOL     OW31969   2.252   3.603  16.457
 6819SOL    HW131970   2.161   3.644  16.455
 6819SOL    HW231971   2.245   3.509  16.489
 6820SOL     OW31972   2.721   3.236  14.912
 6820SOL    HW131973   2.675   3.251  15.000
 6820SOL    HW231974   2.765   3.321  14.882
 6821SOL     OW31975   2.523   3.652  15.850
 6821SOL    HW131976   2.477   3.740  15.837
 6821SOL    HW231977   2.622   3.664  15.843
 6822SOL     OW31978   2.945   2.846  14.983
 6822SOL    HW131979   2.922   2.899  14.901
 6822SOL    HW231980   3.026   2.790  14.964
 6823SOL     OW31981   3.723   3.431  15.747
 6823SOL    HW131982   3.652   3.419  15.677
 6823SOL    HW231983   3.724   3.352  15.807
 6824SOL     OW31984   3.686   2.054  16.124
 6824SOL    HW131985   3.682   1.964  16.168
 6824SOL    HW231986   3.689   2.043  16.025
 6825SOL     OW31987   2.674   3.448  15.583
 6825SOL    HW131988   2.706   3.458  15.489
 6825SOL    HW231989   2.595   3.386  15.585
 6826SOL     OW31990   2.632   3.192  15.197
 6826SOL    HW131991   2.586   3.105  15.214
 6826SOL    HW231992   2.723   3.189  15.238
 6827SOL     OW31993   3.214   1.914  15.064
 6827SOL    HW131994   3.249   1.873  14.980
 6827SOL    HW231995   3.124   1.876  15.084
 6828SOL     OW31996   3.162   2.315  15.587
 6828SOL    HW131997   3.103   2.395  15.591
 6828SOL    HW231998   3.177   2.280  15.680
 6829SOL     OW31999   2.431   3.137  17.924
 6829SOL    HW132000   2.338   3.130  17.887
 6829SOL    HW232001   2.442   3.226  17.968
 6830SOL     OW32002   3.617   2.469  16.990
 6830SOL    HW132003   3.605   2.456  16.891
 6830SOL    HW232004   3.587   2.388  17.039
 6831SOL     OW32005   2.630   3.006  17.782
 6831SOL    HW132006   2.552   3.023  17.842
 6831SOL    HW232007   2.664   3.093  17.746
 6832SOL     OW32008   2.547   2.874  17.424
 6832SOL    HW132009   2.616   2.858  17.494
 6832SOL    HW232010   2.474   2.931  17.462
 6833SOL     OW32011   2.102   2.953  17.645
 6833SOL    HW132012   2.116   2.869  17.697
 6833SOL    HW232013   2.047   3.017  17.700
 6834SOL     OW32014   2.475   3.227  17.485
 6834SOL    HW132015   2.426   3.140  17.494
 6834SOL    HW232016   2.452   3.270  17.398
 6835SOL     OW32017   2.671   1.866  17.261
 6835SOL    HW132018   2.711   1.957  17.252
 6835SOL    HW232019   2.571   1.874  17.267
 6836SOL     OW32020   2.059   2.838  18.023
 6836SOL    HW132021   2.148   2.793  18.009
 6836SOL    HW232022   1.986   2.773  18.004
 6837SOL     OW32023   3.387   2.861  16.949
 6837SOL    HW132024   3.324   2.785  16.962
 6837SOL    HW232025   3.435   2.879  17.035
 6838SOL     OW32026   2.727   2.210  16.954
 6838SOL    HW132027   2.786   2.273  16.905
 6838SOL    HW232028   2.746   2.116  16.925
 6839SOL     OW32029   2.412   2.058  17.644
 6839SOL    HW132030   2.407   2.053  17.744
 6839SOL    HW232031   2.414   2.154  17.615
 6840SOL     OW32032   2.973   3.638  16.996
 6840SOL    HW132033   2.913   3.576  17.046
 6840SOL    HW232034   3.004   3.594  16.911
 6841SOL     OW32035   2.326   3.605  17.082
 6841SOL    HW132036   2.359   3.644  17.168
 6841SOL    HW232037   2.402   3.598  17.017
 6842SOL     OW32038   3.262   1.969  17.185
 6842SOL    HW132039   3.238   1.932  17.095
 6842SOL    HW232040   3.361   1.985  17.189
 6843SOL     OW32041   2.111   3.647  18.000
 6843SOL    HW132042   2.168   3.582  18.050
 6843SOL    HW232043   2.095   3.614  17.907
 6844SOL     OW32044   2.802   3.560  17.663
 6844SOL    HW132045   2.882   3.503  17.684
 6844SOL    HW232046   2.753   3.520  17.586
 6845SOL     OW32047   2.476   1.984  16.876
 6845SOL    HW132048   2.574   1.962  16.883
 6845SOL    HW232049   2.445   1.967  16.783
 6846SOL     OW32050   2.665   3.264  17.683
 6846SOL    HW132051   2.755   3.278  17.641
 6846SOL    HW232052   2.594   3.266  17.612
 6847SOL     OW32053   2.401   1.926  17.271
 6847SOL    HW132054   2.320   1.927  17.329
 6847SOL    HW232055   2.404   2.009  17.216
 6848SOL     OW32056   3.296   3.050  16.800
 6848SOL    HW132057   3.328   2.974  16.857
 6848SOL    HW232058   3.204   3.077  16.830
 6849SOL     OW32059   3.089   3.432  17.552
 6849SOL    HW132060   3.110   3.506  17.487
 6849SOL    HW232061   3.157   3.432  17.625
 6850SOL     OW32062   2.321   3.014  17.500
 6850SOL    HW132063   2.250   2.987  17.565
 6850SOL    HW232064   2.295   2.986  17.407
 6851SOL     OW32065   3.133   3.659  17.350
 6851SOL    HW132066   3.177   3.723  17.286
 6851SOL    HW232067   3.083   3.711  17.420
 6852SOL     OW32068   2.894   2.411  16.775
 6852SOL    HW132069   2.853   2.493  16.736
 6852SOL    HW232070   2.958   2.437  16.848
 6853SOL     OW32071   3.291   3.035  17.626
 6853SOL    HW132072   3.236   2.951  17.619
 6853SOL    HW232073   3.317   3.064  17.534
 6854SOL     OW32074   3.719   2.695  17.136
 6854SOL    HW132075   3.761   2.631  17.200
 6854SOL    HW232076   3.681   2.644  17.058
 6855SOL     OW32077   2.350   3.247  16.933
 6855SOL    HW132078   2.263   3.232  16.980
 6855SOL    HW232079   2.333   3.273  16.838
 6856SOL     OW32080   2.973   3.057  17.859
 6856SOL    HW132081   2.933   3.101  17.940
 6856SOL    HW232082   2.932   3.094  17.776
 6857SOL     OW32083   3.500   2.961  17.838
 6857SOL    HW132084   3.505   3.042  17.897
 6857SOL    HW232085   3.414   2.963  17.787
 6858SOL     OW32086   2.567   2.912  17.127
 6858SOL    HW132087   2.553   2.919  17.226
 6858SOL    HW232088   2.651   2.861  17.109
 6859SOL     OW32089   2.272   2.675  18.010
 6859SOL    HW132090   2.358   2.687  18.060
 6859SOL    HW232091   2.230   2.588  18.037
 6860SOL     OW32092   2.229   2.962  17.260
 6860SOL    HW132093   2.222   3.045  17.204
 6860SOL    HW232094   2.233   2.882  17.200
 6861SOL     OW32095   2.428   2.399  17.624
 6861SOL    HW132096   2.440   2.465  17.550
 6861SOL    HW232097   2.474   2.433  17.707
 6862SOL     OW32098   3.134   3.307  17.901
 6862SOL    HW132099   3.181   3.320  17.988
 6862SOL    HW232100   3.068   3.233  17.910
 6863SOL     OW32101   2.435   2.732  17.788
 6863SOL    HW132102   2.479   2.821  17.779
 6863SOL    HW232103   2.372   2.732  17.865
 6864SOL     OW32104   2.594   2.496  17.823
 6864SOL    HW132105   2.653   2.470  17.747
 6864SOL    HW232106   2.566   2.592  17.812
 6865SOL     OW32107   3.484   2.229  17.133
 6865SOL    HW132108   3.486   2.153  17.197
 6865SOL    HW232109   3.436   2.306  17.173
 6866SOL     OW32110   2.885   2.628  17.725
 6866SOL    HW132111   2.900   2.649  17.821
 6866SOL    HW232112   2.855   2.533  17.716
 6867SOL     OW32113   3.402   2.136  16.884
 6867SOL    HW132114   3.341   2.061  16.907
 6867SOL    HW232115   3.424   2.188  16.967
 6868SOL     OW32116   2.930   3.195  17.608
 6868SOL    HW132117   2.937   3.111  17.553
 6868SOL    HW232118   2.992   3.264  17.572
 6869SOL     OW32119   2.181   2.672  17.708
 6869SOL    HW132120   2.274   2.708  17.713
 6869SOL    HW232121   2.175   2.587  17.760
 6870SOL     OW32122   2.201   2.371  17.765
 6870SOL    HW132123   2.149   2.288  17.748
 6870SOL    HW232124   2.278   2.376  17.701
 6871SOL     OW32125   1.950   3.663  17.686
 6871SOL    HW132126   1.908   3.577  17.659
 6871SOL    HW232127   2.044   3.666  17.652
 6872SOL     OW32128   2.864   2.658  17.997
 6872SOL    HW132129   2.905   2.626  18.083
 6872SOL    HW232130   2.768   2.631  17.994
 6873SOL     OW32131   1.902   2.406  17.873
 6873SOL    HW132132   1.987   2.373  17.832
 6873SOL    HW232133   1.915   2.421  17.971
 6874SOL     OW32134   2.677   2.434  17.084
 6874SOL    HW132135   2.684   2.345  17.038
 6874SOL    HW232136   2.583   2.468  17.076
 6875SOL     OW32137   3.250   3.435  17.236
 6875SOL    HW132138   3.317   3.447  17.162
 6875SOL    HW232139   3.210   3.524  17.259
 6876SOL     OW32140   2.534   3.478  16.913
 6876SOL    HW132141   2.543   3.488  16.814
 6876SOL    HW232142   2.494   3.389  16.934
 6877SOL     OW32143   2.684   2.864  18.131
 6877SOL    HW132144   2.724   2.863  18.039
 6877SOL    HW232145   2.694   2.956  18.171
 6878SOL     OW32146   2.778   2.772  17.050
 6878SOL    HW132147   2.841   2.810  16.982
 6878SOL    HW232148   2.818   2.689  17.089
 6879SOL     OW32149   2.452   3.349  17.250
 6879SOL    HW132150   2.494   3.291  17.180
 6879SOL    HW232151   2.408   3.428  17.206
 6880SOL     OW32152   3.536   2.745  18.013
 6880SOL    HW132153   3.509   2.656  17.976
 6880SOL    HW232154   3.537   2.813  17.940
 6881SOL     OW32155   2.523   3.652  17.712
 6881SOL    HW132156   2.477   3.740  17.699
 6881SOL    HW232157   2.622   3.664  17.705
 6882SOL     OW32158   2.721   2.818  17.620
 6882SOL    HW132159   2.775   2.749  17.668
 6882SOL    HW232160   2.689   2.887  17.686
 6883SOL     OW32161   2.945   2.846  16.846
 6883SOL    HW132162   2.922   2.899  16.764
 6883SOL    HW232163   3.026   2.790  16.827
 6884SOL     OW32164   1.941   3.102  17.412
 6884SOL    HW132165   1.940   3.055  17.500
 6884SOL    HW232166   2.023   3.074  17.361
 6885SOL     OW32167   2.674   3.448  17.446
 6885SOL    HW132168   2.706   3.458  17.352
 6885SOL    HW232169   2.595   3.386  17.448
 6886SOL     OW32170   2.632   3.192  17.060
 6886SOL    HW132171   2.586   3.105  17.077
 6886SOL    HW232172   2.723   3.189  17.101
 6887SOL     OW32173   3.214   1.914  16.927
 6887SOL    HW132174   3.249   1.873  16.843
 6887SOL    HW232175   3.124   1.876  16.947
 6888SOL     OW32176   2.737   3.508  17.096
 6888SOL    HW132177   2.660   3.473  17.042
 6888SOL    HW232178   2.705   3.579  17.158
 6889SOL     OW32179   2.087   3.999   0.996
 6889SOL    HW132180   2.122   3.982   1.088
 6889SOL    HW232181   1.999   3.954   0.984
 6890SOL     OW32182   1.881   4.092   0.647
 6890SOL    HW132183   1.799   4.135   0.686
 6890SOL    HW232184   1.853   4.019   0.584
 6891SOL     OW32185   2.997   4.427   0.717
 6891SOL    HW132186   3.054   4.505   0.692
 6891SOL    HW232187   2.937   4.453   0.793
 6892SOL     OW32188   2.712   4.522   1.823
 6892SOL    HW132189   2.708   4.598   1.888
 6892SOL    HW232190   2.734   4.558   1.732
 6893SOL     OW32191   1.975   4.461   1.597
 6893SOL    HW132192   2.063   4.448   1.642
 6893SOL    HW232193   1.962   4.558   1.575
 6894SOL     OW32194   2.671   3.728   0.502
 6894SOL    HW132195   2.711   3.819   0.493
 6894SOL    HW232196   2.571   3.736   0.508
 6895SOL     OW32197   2.179   3.975   1.801
 6895SOL    HW132198   2.250   4.046   1.807
 6895SOL    HW232199   2.091   4.014   1.829
 6896SOL     OW32200   3.143   4.069   0.944
 6896SOL    HW132201   3.057   4.019   0.931
 6896SOL    HW232202   3.205   4.015   1.000
 6897SOL     OW32203   3.256   4.193   1.674
 6897SOL    HW132204   3.236   4.236   1.762
 6897SOL    HW232205   3.334   4.131   1.683
 6898SOL     OW32206   2.727   4.072   0.195
 6898SOL    HW132207   2.786   4.135   0.146
 6898SOL    HW232208   2.746   3.978   0.166
 6899SOL     OW32209   3.581   4.309   1.831
 6899SOL    HW132210   3.555   4.398   1.795
 6899SOL    HW232211   3.579   4.241   1.758
 6900SOL     OW32212   2.412   3.920   0.885
 6900SOL    HW132213   2.407   3.915   0.985
 6900SOL    HW232214   2.414   4.016   0.856
 6901SOL     OW32215   2.064   4.009   1.498
 6901SOL    HW132216   1.984   4.069   1.485
 6901SOL    HW232217   2.054   3.960   1.584
 6902SOL     OW32218   2.476   3.846   0.117
 6902SOL    HW132219   2.574   3.824   0.124
 6902SOL    HW232220   2.445   3.829   0.024
 6903SOL     OW32221   2.643   3.988   1.749
 6903SOL    HW132222   2.710   3.927   1.792
 6903SOL    HW232223   2.570   4.007   1.814
 6904SOL     OW32224   2.784   4.227   0.899
 6904SOL    HW132225   2.759   4.218   0.803
 6904SOL    HW232226   2.832   4.145   0.930
 6905SOL     OW32227   2.401   3.788   0.512
 6905SOL    HW132228   2.320   3.789   0.570
 6905SOL    HW232229   2.404   3.871   0.457
 6906SOL     OW32230   2.159   3.759   0.171
 6906SOL    HW132231   2.208   3.843   0.150
 6906SOL    HW232232   2.221   3.694   0.216
 6907SOL     OW32233   2.797   3.960   0.480
 6907SOL    HW132234   2.749   4.001   0.402
 6907SOL    HW232235   2.896   3.958   0.461
 6908SOL     OW32236   2.423   3.946   1.147
 6908SOL    HW132237   2.461   3.862   1.184
 6908SOL    HW232238   2.335   3.965   1.191
 6909SOL     OW32239   3.291   4.897   0.867
 6909SOL    HW132240   3.236   4.813   0.860
 6909SOL    HW232241   3.317   4.926   0.775
 6910SOL     OW32242   2.389   3.980   0.328
 6910SOL    HW132243   2.416   3.921   0.253
 6910SOL    HW232244   2.389   4.075   0.297
 6911SOL     OW32245   2.777   3.813   1.402
 6911SOL    HW132246   2.802   3.793   1.307
 6911SOL    HW232247   2.849   3.869   1.444
 6912SOL     OW32248   2.264   4.475   1.598
 6912SOL    HW132249   2.332   4.530   1.551
 6912SOL    HW232250   2.304   4.387   1.625
 6913SOL     OW32251   3.449   4.503   1.670
 6913SOL    HW132252   3.357   4.541   1.665
 6913SOL    HW232253   3.509   4.550   1.605
 6914SOL     OW32254   2.875   3.829   1.770
 6914SOL    HW132255   2.881   3.914   1.718
 6914SOL    HW232256   2.907   3.753   1.713
 6915SOL     OW32257   2.366   3.774   1.740
 6915SOL    HW132258   2.324   3.717   1.670
 6915SOL    HW232259   2.300   3.843   1.772
 6916SOL     OW32260   3.222   4.586   1.045
 6916SOL    HW132261   3.147   4.586   0.979
 6916SOL    HW232262   3.259   4.494   1.054
 6917SOL     OW32263   2.169   3.937   1.231
 6917SOL    HW132264   2.146   3.974   1.321
 6917SOL    HW232265   2.139   3.842   1.225
 6918SOL     OW32266   2.594   4.358   1.064
 6918SOL    HW132267   2.653   4.332   0.988
 6918SOL    HW232268   2.566   4.454   1.053
 6919SOL     OW32269   3.590   4.659   1.854
 6919SOL    HW132270   3.544   4.652   1.765
 6919SOL    HW232271   3.528   4.703   1.920
 6920SOL     OW32272   2.212   4.622   1.804
 6920SOL    HW132273   2.288   4.666   1.852
 6920SOL    HW232274   2.247   4.575   1.722
 6921SOL     OW32275   3.165   4.562   0.042
 6921SOL    HW132276   3.199   4.469   0.057
 6921SOL    HW232277   3.183   4.589  -0.053
 6922SOL     OW32278   2.201   4.233   1.006
 6922SOL    HW132279   2.149   4.150   0.989
 6922SOL    HW232280   2.278   4.238   0.942
 6923SOL     OW32281   3.000   4.104   1.678
 6923SOL    HW132282   2.955   4.167   1.742
 6923SOL    HW232283   3.093   4.135   1.661
 6924SOL     OW32284   3.022   3.931   1.477
 6924SOL    HW132285   3.022   3.995   1.554
 6924SOL    HW232286   3.050   3.979   1.394
 6925SOL     OW32287   2.864   4.520   1.238
 6925SOL    HW132288   2.905   4.488   1.324
 6925SOL    HW232289   2.768   4.493   1.235
 6926SOL     OW32290   1.902   4.268   1.114
 6926SOL    HW132291   1.987   4.235   1.073
 6926SOL    HW232292   1.915   4.283   1.212
 6927SOL     OW32293   2.051   4.244   1.722
 6927SOL    HW132294   2.110   4.204   1.652
 6927SOL    HW232295   1.993   4.315   1.681
 6928SOL     OW32296   2.533   4.188   1.269
 6928SOL    HW132297   2.499   4.099   1.239
 6928SOL    HW232298   2.559   4.242   1.189
 6929SOL     OW32299   2.021   4.861   1.466
 6929SOL    HW132300   2.043   4.800   1.542
 6929SOL    HW232301   2.031   4.812   1.380
 6930SOL     OW32302   2.765   3.810   0.133
 6930SOL    HW132303   2.816   3.811   0.047
 6930SOL    HW232304   2.821   3.768   0.204
 6931SOL     OW32305   3.588   3.859   0.523
 6931SOL    HW132306   3.661   3.842   0.456
 6931SOL    HW232307   3.557   3.772   0.561
 6932SOL     OW32308   3.142   4.651   0.672
 6932SOL    HW132309   3.202   4.570   0.674
 6932SOL    HW232310   3.182   4.720   0.612
 6933SOL     OW32311   3.703   3.899   0.963
 6933SOL    HW132312   3.742   3.814   0.927
 6933SOL    HW232313   3.605   3.901   0.944
 6934SOL     OW32314   2.876   3.960   0.971
 6934SOL    HW132315   2.868   3.924   0.878
 6934SOL    HW232316   2.874   3.884   1.036
 6935SOL     OW32317   1.967   4.737   1.726
 6935SOL    HW132318   1.890   4.704   1.780
 6935SOL    HW232319   2.052   4.707   1.768
 6936SOL     OW32320   2.534   3.927   1.489
 6936SOL    HW132321   2.624   3.911   1.449
 6936SOL    HW232322   2.542   3.932   1.588
 6937SOL     OW32323   3.302   4.580   1.398
 6937SOL    HW132324   3.245   4.632   1.335
 6937SOL    HW232325   3.398   4.592   1.374
 6938SOL     OW32326   1.934   3.890   0.318
 6938SOL    HW132327   1.917   3.973   0.264
 6938SOL    HW232328   2.024   3.853   0.296
 6939SOL     OW32329   2.578   4.289   1.708
 6939SOL    HW132330   2.597   4.354   1.782
 6939SOL    HW232331   2.638   4.209   1.717
 6940SOL     OW32332   3.536   4.607   1.254
 6940SOL    HW132333   3.509   4.518   1.217
 6940SOL    HW232334   3.537   4.675   1.181
 6941SOL     OW32335   2.456   4.469   0.652
 6941SOL    HW132336   2.506   4.554   0.633
 6941SOL    HW232337   2.368   4.471   0.604
 6942SOL     OW32338   3.592   4.658   1.517
 6942SOL    HW132339   3.630   4.749   1.532
 6942SOL    HW232340   3.584   4.641   1.418
 6943SOL     OW32341   2.945   4.708   0.087
 6943SOL    HW132342   2.922   4.761   0.005
 6943SOL    HW232343   3.026   4.652   0.068
 6944SOL     OW32344   1.941   4.964   0.653
 6944SOL    HW132345   1.940   4.917   0.741
 6944SOL    HW232346   2.023   4.936   0.602
 6945SOL     OW32347   2.863   3.758   1.154
 6945SOL    HW132348   2.800   3.686   1.123
 6945SOL    HW232349   2.956   3.722   1.154
 6946SOL     OW32350   3.214   3.776   0.168
 6946SOL    HW132351   3.249   3.735   0.084
 6946SOL    HW232352   3.124   3.738   0.188
 6947SOL     OW32353   2.092   4.352   1.975
 6947SOL    HW132354   1.999   4.350   2.012
 6947SOL    HW232355   2.093   4.313   1.883
 6948SOL     OW32356   2.087   3.999   2.858
 6948SOL    HW132357   2.122   3.982   2.950
 6948SOL    HW232358   1.999   3.954   2.846
 6949SOL     OW32359   1.881   4.092   2.509
 6949SOL    HW132360   1.799   4.135   2.548
 6949SOL    HW232361   1.853   4.019   2.446
 6950SOL     OW32362   2.997   4.427   2.579
 6950SOL    HW132363   3.054   4.505   2.554
 6950SOL    HW232364   2.937   4.453   2.655
 6951SOL     OW32365   3.617   4.331   2.093
 6951SOL    HW132366   3.605   4.318   1.994
 6951SOL    HW232367   3.587   4.250   2.142
 6952SOL     OW32368   2.630   4.868   2.885
 6952SOL    HW132369   2.552   4.885   2.945
 6952SOL    HW232370   2.664   4.955   2.849
 6953SOL     OW32371   2.712   4.522   3.685
 6953SOL    HW132372   2.708   4.598   3.750
 6953SOL    HW232373   2.734   4.558   3.594
 6954SOL     OW32374   2.547   4.736   2.527
 6954SOL    HW132375   2.616   4.720   2.597
 6954SOL    HW232376   2.474   4.793   2.565
 6955SOL     OW32377   2.300   4.116   3.361
 6955SOL    HW132378   2.382   4.060   3.370
 6955SOL    HW232379   2.219   4.058   3.365
 6956SOL     OW32380   3.465   4.171   2.599
 6956SOL    HW132381   3.391   4.217   2.549
 6956SOL    HW232382   3.516   4.239   2.652
 6957SOL     OW32383   2.102   4.815   2.748
 6957SOL    HW132384   2.116   4.731   2.800
 6957SOL    HW232385   2.047   4.879   2.803
 6958SOL     OW32386   2.468   4.688   1.985
 6958SOL    HW132387   2.475   4.772   1.931
 6958SOL    HW232388   2.514   4.701   2.073
 6959SOL     OW32389   3.456   3.838   3.342
 6959SOL    HW132390   3.438   3.905   3.270
 6959SOL    HW232391   3.453   3.884   3.431
 6960SOL     OW32392   1.984   4.367   2.425
 6960SOL    HW132393   1.939   4.279   2.442
 6960SOL    HW232394   1.983   4.421   2.509
 6961SOL     OW32395   3.551   4.646   2.474
 6961SOL    HW132396   3.646   4.617   2.482
 6961SOL    HW232397   3.543   4.711   2.399
 6962SOL     OW32398   1.975   4.461   3.459
 6962SOL    HW132399   2.063   4.448   3.504
 6962SOL    HW232400   1.962   4.558   3.437
 6963SOL     OW32401   2.671   3.728   2.364
 6963SOL    HW132402   2.711   3.819   2.355
 6963SOL    HW232403   2.571   3.736   2.370
 6964SOL     OW32404   2.059   4.700   3.126
 6964SOL    HW132405   2.148   4.655   3.112
 6964SOL    HW232406   1.986   4.635   3.107
 6965SOL     OW32407   3.387   4.723   2.052
 6965SOL    HW132408   3.324   4.647   2.065
 6965SOL    HW232409   3.435   4.741   2.138
 6966SOL     OW32410   2.179   3.975   3.663
 6966SOL    HW132411   2.250   4.046   3.669
 6966SOL    HW232412   2.091   4.014   3.691
 6967SOL     OW32413   2.460   4.453   2.132
 6967SOL    HW132414   2.484   4.522   2.064
 6967SOL    HW232415   2.382   4.486   2.186
 6968SOL     OW32416   3.143   4.069   2.806
 6968SOL    HW132417   3.057   4.019   2.793
 6968SOL    HW232418   3.205   4.015   2.862
 6969SOL     OW32419   2.669   4.329   3.327
 6969SOL    HW132420   2.622   4.326   3.416
 6969SOL    HW232421   2.618   4.274   3.261
 6970SOL     OW32422   3.256   4.193   3.536
 6970SOL    HW132423   3.236   4.236   3.624
 6970SOL    HW232424   3.334   4.131   3.545
 6971SOL     OW32425   2.835   4.614   3.434
 6971SOL    HW132426   2.881   4.530   3.405
 6971SOL    HW232427   2.779   4.648   3.359
 6972SOL     OW32428   2.853   4.134   3.104
 6972SOL    HW132429   2.776   4.168   3.158
 6972SOL    HW232430   2.819   4.083   3.025
 6973SOL     OW32431   2.903   4.425   2.291
 6973SOL    HW132432   2.929   4.421   2.387
 6973SOL    HW232433   2.818   4.374   2.277
 6974SOL     OW32434   1.938   4.535   2.651
 6974SOL    HW132435   2.037   4.523   2.660
 6974SOL    HW232436   1.914   4.630   2.672
 6975SOL     OW32437   2.727   4.072   2.057
 6975SOL    HW132438   2.786   4.135   2.008
 6975SOL    HW232439   2.746   3.978   2.028
 6976SOL     OW32440   3.581   4.309   3.693
 6976SOL    HW132441   3.555   4.398   3.657
 6976SOL    HW232442   3.579   4.241   3.620
 6977SOL     OW32443   2.412   3.920   2.747
 6977SOL    HW132444   2.407   3.915   2.847
 6977SOL    HW232445   2.414   4.016   2.718
 6978SOL     OW32446   3.320   4.459   2.590
 6978SOL    HW132447   3.315   4.394   2.665
 6978SOL    HW232448   3.400   4.518   2.603
 6979SOL     OW32449   2.064   4.009   3.360
 6979SOL    HW132450   1.984   4.069   3.347
 6979SOL    HW232451   2.054   3.960   3.446
 6980SOL     OW32452   3.262   3.831   2.288
 6980SOL    HW132453   3.238   3.794   2.198
 6980SOL    HW232454   3.361   3.847   2.292
 6981SOL     OW32455   2.244   4.424   2.342
 6981SOL    HW132456   2.289   4.334   2.339
 6981SOL    HW232457   2.150   4.413   2.375
 6982SOL     OW32458   3.409   3.946   3.591
 6982SOL    HW132459   3.404   3.983   3.683
 6982SOL    HW232460   3.337   3.877   3.579
 6983SOL     OW32461   2.476   3.846   1.979
 6983SOL    HW132462   2.574   3.824   1.986
 6983SOL    HW232463   2.445   3.829   1.886
 6984SOL     OW32464   2.643   3.988   3.611
 6984SOL    HW132465   2.710   3.927   3.654
 6984SOL    HW232466   2.570   4.007   3.676
 6985SOL     OW32467   3.213   4.314   3.295
 6985SOL    HW132468   3.241   4.271   3.380
 6985SOL    HW232469   3.238   4.410   3.296
 6986SOL     OW32470   2.784   4.227   2.761
 6986SOL    HW132471   2.759   4.218   2.665
 6986SOL    HW232472   2.832   4.145   2.792
 6987SOL     OW32473   2.401   3.788   2.374
 6987SOL    HW132474   2.320   3.789   2.432
 6987SOL    HW232475   2.404   3.871   2.319
 6988SOL     OW32476   2.159   3.759   2.033
 6988SOL    HW132477   2.208   3.843   2.012
 6988SOL    HW232478   2.221   3.694   2.078
 6989SOL     OW32479   2.797   3.960   2.342
 6989SOL    HW132480   2.749   4.001   2.264
 6989SOL    HW232481   2.896   3.958   2.323
 6990SOL     OW32482   2.938   4.407   3.326
 6990SOL    HW132483   2.858   4.346   3.329
 6990SOL    HW232484   3.019   4.354   3.302
 6991SOL     OW32485   2.894   4.273   1.878
 6991SOL    HW132486   2.853   4.355   1.839
 6991SOL    HW232487   2.958   4.299   1.951
 6992SOL     OW32488   1.940   4.280   3.248
 6992SOL    HW132489   2.032   4.279   3.207
 6992SOL    HW232490   1.934   4.354   3.315
 6993SOL     OW32491   2.423   3.946   3.009
 6993SOL    HW132492   2.461   3.862   3.046
 6993SOL    HW232493   2.335   3.965   3.053
 6994SOL     OW32494   2.728   4.178   2.504
 6994SOL    HW132495   2.696   4.250   2.442
 6994SOL    HW232496   2.752   4.097   2.451
 6995SOL     OW32497   2.879   3.763   2.615
 6995SOL    HW132498   2.807   3.768   2.546
 6995SOL    HW232499   2.855   3.694   2.684
 6996SOL     OW32500   3.291   4.897   2.729
 6996SOL    HW132501   3.236   4.813   2.722
 6996SOL    HW232502   3.317   4.926   2.637
 6997SOL     OW32503   3.328   4.314   2.854
 6997SOL    HW132504   3.298   4.219   2.861
 6997SOL    HW232505   3.401   4.330   2.920
 6998SOL     OW32506   3.719   4.557   2.239
 6998SOL    HW132507   3.761   4.493   2.303
 6998SOL    HW232508   3.681   4.506   2.161
 6999SOL     OW32509   3.252   4.299   1.940
 6999SOL    HW132510   3.198   4.278   2.021
 6999SOL    HW232511   3.343   4.258   1.949
 7000SOL     OW32512   2.389   3.980   2.190
 7000SOL    HW132513   2.416   3.921   2.115
 7000SOL    HW232514   2.389   4.075   2.159
 7001SOL     OW32515   3.500   4.823   2.941
 7001SOL    HW132516   3.505   4.904   3.000
 7001SOL    HW232517   3.414   4.825   2.890
 7002SOL     OW32518   2.777   3.813   3.264
 7002SOL    HW132519   2.802   3.793   3.169
 7002SOL    HW232520   2.849   3.869   3.306
 7003SOL     OW32521   2.272   4.537   3.113
 7003SOL    HW132522   2.358   4.549   3.163
 7003SOL    HW232523   2.230   4.450   3.140
 7004SOL     OW32524   3.136   4.110   3.124
 7004SOL    HW132525   3.157   4.184   3.188
 7004SOL    HW232526   3.047   4.127   3.081
 7005SOL     OW32527   2.428   4.261   2.727
 7005SOL    HW132528   2.440   4.327   2.653
 7005SOL    HW232529   2.474   4.295   2.810
 7006SOL     OW32530   3.444   4.363   2.334
 7006SOL    HW132531   3.413   4.424   2.407
 7006SOL    HW232532   3.494   4.415   2.265
 7007SOL     OW32533   2.264   4.475   3.460
 7007SOL    HW132534   2.332   4.530   3.413
 7007SOL    HW232535   2.304   4.387   3.487
 7008SOL     OW32536   3.449   4.503   3.532
 7008SOL    HW132537   3.357   4.541   3.527
 7008SOL    HW232538   3.509   4.550   3.467
 7009SOL     OW32539   2.875   3.829   3.632
 7009SOL    HW132540   2.881   3.914   3.580
 7009SOL    HW232541   2.907   3.753   3.575
 7010SOL     OW32542   2.366   3.774   3.602
 7010SOL    HW132543   2.324   3.717   3.532
 7010SOL    HW232544   2.300   3.843   3.634
 7011SOL     OW32545   2.435   4.594   2.891
 7011SOL    HW132546   2.479   4.683   2.882
 7011SOL    HW232547   2.372   4.594   2.968
 7012SOL     OW32548   3.222   4.586   2.907
 7012SOL    HW132549   3.147   4.586   2.841
 7012SOL    HW232550   3.259   4.494   2.916
 7013SOL     OW32551   3.071   4.249   2.137
 7013SOL    HW132552   3.084   4.165   2.191
 7013SOL    HW232553   3.042   4.323   2.197
 7014SOL     OW32554   2.169   3.937   3.093
 7014SOL    HW132555   2.146   3.974   3.183
 7014SOL    HW232556   2.139   3.842   3.087
 7015SOL     OW32557   2.594   4.358   2.926
 7015SOL    HW132558   2.653   4.332   2.850
 7015SOL    HW232559   2.566   4.454   2.915
 7016SOL     OW32560   3.590   4.659   3.716
 7016SOL    HW132561   3.544   4.652   3.627
 7016SOL    HW232562   3.528   4.703   3.782
 7017SOL     OW32563   2.169   3.787   2.480
 7017SOL    HW132564   2.158   3.881   2.513
 7017SOL    HW232565   2.164   3.724   2.557
 7018SOL     OW32566   3.484   4.091   2.236
 7018SOL    HW132567   3.486   4.015   2.300
 7018SOL    HW232568   3.436   4.168   2.276
 7019SOL     OW32569   2.885   4.490   2.828
 7019SOL    HW132570   2.900   4.511   2.924
 7019SOL    HW232571   2.855   4.395   2.819
 7020SOL     OW32572   2.212   4.622   3.666
 7020SOL    HW132573   2.288   4.666   3.714
 7020SOL    HW232574   2.247   4.575   3.584
 7021SOL     OW32575   3.165   4.562   1.904
 7021SOL    HW132576   3.199   4.469   1.919
 7021SOL    HW232577   3.183   4.589   1.809
 7022SOL     OW32578   2.181   4.534   2.811
 7022SOL    HW132579   2.274   4.570   2.816
 7022SOL    HW232580   2.175   4.449   2.863
 7023SOL     OW32581   2.201   4.233   2.868
 7023SOL    HW132582   2.149   4.150   2.851
 7023SOL    HW232583   2.278   4.238   2.804
 7024SOL     OW32584   3.000   4.104   3.540
 7024SOL    HW132585   2.955   4.167   3.604
 7024SOL    HW232586   3.093   4.135   3.523
 7025SOL     OW32587   3.022   3.931   3.339
 7025SOL    HW132588   3.022   3.995   3.416
 7025SOL    HW232589   3.050   3.979   3.256
 7026SOL     OW32590   2.864   4.520   3.100
 7026SOL    HW132591   2.905   4.488   3.186
 7026SOL    HW232592   2.768   4.493   3.097
 7027SOL     OW32593   1.902   4.268   2.976
 7027SOL    HW132594   1.987   4.235   2.935
 7027SOL    HW232595   1.915   4.283   3.074
 7028SOL     OW32596   2.051   4.244   3.584
 7028SOL    HW132597   2.110   4.204   3.514
 7028SOL    HW232598   1.993   4.315   3.543
 7029SOL     OW32599   3.231   4.674   3.522
 7029SOL    HW132600   3.270   4.763   3.542
 7029SOL    HW232601   3.241   4.654   3.425
 7030SOL     OW32602   2.677   4.296   2.187
 7030SOL    HW132603   2.684   4.207   2.141
 7030SOL    HW232604   2.583   4.330   2.179
 7031SOL     OW32605   3.519   4.328   3.068
 7031SOL    HW132606   3.481   4.259   3.130
 7031SOL    HW232607   3.601   4.292   3.024
 7032SOL     OW32608   2.533   4.188   3.131
 7032SOL    HW132609   2.499   4.099   3.101
 7032SOL    HW232610   2.559   4.242   3.051
 7033SOL     OW32611   2.335   4.224   2.053
 7033SOL    HW132612   2.396   4.304   2.057
 7033SOL    HW232613   2.240   4.255   2.060
 7034SOL     OW32614   2.021   4.861   3.328
 7034SOL    HW132615   2.043   4.800   3.404
 7034SOL    HW232616   2.031   4.812   3.242
 7035SOL     OW32617   3.209   4.783   3.096
 7035SOL    HW132618   3.233   4.720   3.022
 7035SOL    HW232619   3.119   4.823   3.078
 7036SOL     OW32620   3.164   4.579   2.171
 7036SOL    HW132621   3.078   4.548   2.213
 7036SOL    HW232622   3.160   4.565   2.072
 7037SOL     OW32623   3.588   3.859   2.385
 7037SOL    HW132624   3.661   3.842   2.318
 7037SOL    HW232625   3.557   3.772   2.423
 7038SOL     OW32626   3.142   4.651   2.534
 7038SOL    HW132627   3.202   4.570   2.536
 7038SOL    HW232628   3.182   4.720   2.474
 7039SOL     OW32629   3.703   3.899   2.825
 7039SOL    HW132630   3.742   3.814   2.789
 7039SOL    HW232631   3.605   3.901   2.806
 7040SOL     OW32632   2.125   4.050   2.582
 7040SOL    HW132633   2.046   4.101   2.548
 7040SOL    HW232634   2.116   4.035   2.680
 7041SOL     OW32635   2.778   4.634   2.153
 7041SOL    HW132636   2.841   4.672   2.085
 7041SOL    HW232637   2.818   4.551   2.192
 7042SOL     OW32638   2.876   3.960   2.833
 7042SOL    HW132639   2.868   3.924   2.740
 7042SOL    HW232640   2.874   3.884   2.898
 7043SOL     OW32641   3.571   4.109   3.243
 7043SOL    HW132642   3.644   4.178   3.247
 7043SOL    HW232643   3.599   4.034   3.184
 7044SOL     OW32644   1.967   4.737   3.588
 7044SOL    HW132645   1.890   4.704   3.642
 7044SOL    HW232646   2.052   4.707   3.630
 7045SOL     OW32647   2.534   3.927   3.351
 7045SOL    HW132648   2.624   3.911   3.311
 7045SOL    HW232649   2.542   3.932   3.450
 7046SOL     OW32650   1.937   4.069   1.895
 7046SOL    HW132651   1.845   4.041   1.866
 7046SOL    HW232652   1.968   4.146   1.839
 7047SOL     OW32653   3.302   4.580   3.260
 7047SOL    HW132654   3.245   4.632   3.197
 7047SOL    HW232655   3.398   4.592   3.236
 7048SOL     OW32656   1.934   3.890   2.180
 7048SOL    HW132657   1.917   3.973   2.126
 7048SOL    HW232658   2.024   3.853   2.158
 7049SOL     OW32659   3.045   5.059   1.981
 7049SOL    HW132660   2.946   5.048   1.983
 7049SOL    HW232661   3.079   5.074   2.074
 7050SOL     OW32662   2.475   4.566   3.293
 7050SOL    HW132663   2.531   4.647   3.276
 7050SOL    HW232664   2.534   4.486   3.296
 7051SOL     OW32665   2.578   4.289   3.570
 7051SOL    HW132666   2.597   4.354   3.644
 7051SOL    HW232667   2.638   4.209   3.579
 7052SOL     OW32668   3.536   4.607   3.116
 7052SOL    HW132669   3.509   4.518   3.079
 7052SOL    HW232670   3.537   4.675   3.043
 7053SOL     OW32671   3.087   4.049   2.311
 7053SOL    HW132672   3.152   3.975   2.300
 7053SOL    HW232673   3.107   4.099   2.395
 7054SOL     OW32674   2.456   4.469   2.514
 7054SOL    HW132675   2.506   4.554   2.495
 7054SOL    HW232676   2.368   4.471   2.466
 7055SOL     OW32677   3.639   4.066   3.504
 7055SOL    HW132678   3.622   4.097   3.410
 7055SOL    HW232679   3.555   4.029   3.542
 7056SOL     OW32680   3.592   4.658   3.379
 7056SOL    HW132681   3.630   4.749   3.394
 7056SOL    HW232682   3.584   4.641   3.280
 7057SOL     OW32683   2.721   4.680   2.723
 7057SOL    HW132684   2.775   4.611   2.771
 7057SOL    HW232685   2.689   4.749   2.789
 7058SOL     OW32686   2.945   4.708   1.949
 7058SOL    HW132687   2.922   4.761   1.867
 7058SOL    HW232688   3.026   4.652   1.930
 7059SOL     OW32689   1.941   4.964   2.515
 7059SOL    HW132690   1.940   4.917   2.603
 7059SOL    HW232691   2.023   4.936   2.464
 7060SOL     OW32692   3.686   3.916   3.089
 7060SOL    HW132693   3.682   3.826   3.133
 7060SOL    HW232694   3.689   3.905   2.990
 7061SOL     OW32695   2.290   4.148   2.382
 7061SOL    HW132696   2.320   4.076   2.320
 7061SOL    HW232697   2.251   4.108   2.465
 7062SOL     OW32698   2.179   4.271   3.142
 7062SOL    HW132699   2.217   4.212   3.214
 7062SOL    HW232700   2.219   4.245   3.054
 7063SOL     OW32701   3.286   3.938   2.974
 7063SOL    HW132702   3.338   3.873   3.029
 7063SOL    HW232703   3.237   4.001   3.035
 7064SOL     OW32704   2.863   3.758   3.016
 7064SOL    HW132705   2.800   3.686   2.985
 7064SOL    HW232706   2.956   3.722   3.016
 7065SOL     OW32707   3.162   4.177   2.553
 7065SOL    HW132708   3.103   4.257   2.557
 7065SOL    HW232709   3.177   4.142   2.646
 7066SOL     OW32710   3.455   3.945   2.744
 7066SOL    HW132711   3.371   3.944   2.798
 7066SOL    HW232712   3.457   4.028   2.688
 7067SOL     OW32713   1.901   4.801   2.162
 7067SOL    HW132714   2.000   4.790   2.153
 7067SOL    HW232715   1.861   4.715   2.194
 7068SOL     OW32716   2.092   4.352   3.837
 7068SOL    HW132717   1.999   4.350   3.874
 7068SOL    HW232718   2.093   4.313   3.745
 7069SOL     OW32719   2.087   3.999   4.720
 7069SOL    HW132720   2.122   3.982   4.812
 7069SOL    HW232721   1.999   3.954   4.708
 7070SOL     OW32722   1.881   4.092   4.371
 7070SOL    HW132723   1.799   4.135   4.410
 7070SOL    HW232724   1.853   4.019   4.308
 7071SOL     OW32725   2.997   4.427   4.441
 7071SOL    HW132726   3.054   4.505   4.416
 7071SOL    HW232727   2.937   4.453   4.517
 7072SOL     OW32728   3.617   4.331   3.955
 7072SOL    HW132729   3.605   4.318   3.856
 7072SOL    HW232730   3.587   4.250   4.004
 7073SOL     OW32731   2.630   4.868   4.747
 7073SOL    HW132732   2.552   4.885   4.807
 7073SOL    HW232733   2.664   4.955   4.711
 7074SOL     OW32734   2.712   4.522   5.547
 7074SOL    HW132735   2.708   4.598   5.612
 7074SOL    HW232736   2.734   4.558   5.456
 7075SOL     OW32737   2.547   4.736   4.389
 7075SOL    HW132738   2.616   4.720   4.459
 7075SOL    HW232739   2.474   4.793   4.427
 7076SOL     OW32740   2.300   4.116   5.223
 7076SOL    HW132741   2.382   4.060   5.232
 7076SOL    HW232742   2.219   4.058   5.227
 7077SOL     OW32743   3.465   4.171   4.461
 7077SOL    HW132744   3.391   4.217   4.411
 7077SOL    HW232745   3.516   4.239   4.514
 7078SOL     OW32746   2.102   4.815   4.610
 7078SOL    HW132747   2.116   4.731   4.662
 7078SOL    HW232748   2.047   4.879   4.665
 7079SOL     OW32749   2.468   4.688   3.847
 7079SOL    HW132750   2.475   4.772   3.793
 7079SOL    HW232751   2.514   4.701   3.935
 7080SOL     OW32752   3.456   3.838   5.204
 7080SOL    HW132753   3.438   3.905   5.132
 7080SOL    HW232754   3.453   3.884   5.293
 7081SOL     OW32755   1.984   4.367   4.287
 7081SOL    HW132756   1.939   4.279   4.304
 7081SOL    HW232757   1.983   4.421   4.371
 7082SOL     OW32758   3.551   4.646   4.336
 7082SOL    HW132759   3.646   4.617   4.344
 7082SOL    HW232760   3.543   4.711   4.261
 7083SOL     OW32761   1.975   4.461   5.321
 7083SOL    HW132762   2.063   4.448   5.366
 7083SOL    HW232763   1.962   4.558   5.299
 7084SOL     OW32764   2.671   3.728   4.226
 7084SOL    HW132765   2.711   3.819   4.217
 7084SOL    HW232766   2.571   3.736   4.232
 7085SOL     OW32767   2.059   4.700   4.988
 7085SOL    HW132768   2.148   4.655   4.974
 7085SOL    HW232769   1.986   4.635   4.969
 7086SOL     OW32770   3.387   4.723   3.914
 7086SOL    HW132771   3.324   4.647   3.927
 7086SOL    HW232772   3.435   4.741   4.000
 7087SOL     OW32773   2.179   3.975   5.525
 7087SOL    HW132774   2.250   4.046   5.531
 7087SOL    HW232775   2.091   4.014   5.553
 7088SOL     OW32776   2.460   4.453   3.994
 7088SOL    HW132777   2.484   4.522   3.926
 7088SOL    HW232778   2.382   4.486   4.048
 7089SOL     OW32779   3.143   4.069   4.668
 7089SOL    HW132780   3.057   4.019   4.655
 7089SOL    HW232781   3.205   4.015   4.724
 7090SOL     OW32782   2.669   4.329   5.189
 7090SOL    HW132783   2.622   4.326   5.278
 7090SOL    HW232784   2.618   4.274   5.123
 7091SOL     OW32785   3.256   4.193   5.398
 7091SOL    HW132786   3.236   4.236   5.486
 7091SOL    HW232787   3.334   4.131   5.407
 7092SOL     OW32788   2.835   4.614   5.296
 7092SOL    HW132789   2.881   4.530   5.267
 7092SOL    HW232790   2.779   4.648   5.221
 7093SOL     OW32791   2.853   4.134   4.966
 7093SOL    HW132792   2.776   4.168   5.020
 7093SOL    HW232793   2.819   4.083   4.887
 7094SOL     OW32794   2.903   4.425   4.153
 7094SOL    HW132795   2.929   4.421   4.249
 7094SOL    HW232796   2.818   4.374   4.139
 7095SOL     OW32797   1.938   4.535   4.513
 7095SOL    HW132798   2.037   4.523   4.522
 7095SOL    HW232799   1.914   4.630   4.534
 7096SOL     OW32800   2.727   4.072   3.919
 7096SOL    HW132801   2.786   4.135   3.870
 7096SOL    HW232802   2.746   3.978   3.890
 7097SOL     OW32803   3.581   4.309   5.555
 7097SOL    HW132804   3.555   4.398   5.519
 7097SOL    HW232805   3.579   4.241   5.482
 7098SOL     OW32806   2.412   3.920   4.609
 7098SOL    HW132807   2.407   3.915   4.709
 7098SOL    HW232808   2.414   4.016   4.580
 7099SOL     OW32809   3.320   4.459   4.452
 7099SOL    HW132810   3.315   4.394   4.527
 7099SOL    HW232811   3.400   4.518   4.465
 7100SOL     OW32812   2.064   4.009   5.222
 7100SOL    HW132813   1.984   4.069   5.209
 7100SOL    HW232814   2.054   3.960   5.308
 7101SOL     OW32815   3.262   3.831   4.150
 7101SOL    HW132816   3.238   3.794   4.060
 7101SOL    HW232817   3.361   3.847   4.154
 7102SOL     OW32818   2.244   4.424   4.204
 7102SOL    HW132819   2.289   4.334   4.201
 7102SOL    HW232820   2.150   4.413   4.237
 7103SOL     OW32821   3.409   3.946   5.453
 7103SOL    HW132822   3.404   3.983   5.545
 7103SOL    HW232823   3.337   3.877   5.441
 7104SOL     OW32824   2.476   3.846   3.841
 7104SOL    HW132825   2.574   3.824   3.848
 7104SOL    HW232826   2.445   3.829   3.748
 7105SOL     OW32827   2.643   3.988   5.473
 7105SOL    HW132828   2.710   3.927   5.516
 7105SOL    HW232829   2.570   4.007   5.538
 7106SOL     OW32830   3.213   4.314   5.157
 7106SOL    HW132831   3.241   4.271   5.242
 7106SOL    HW232832   3.238   4.410   5.158
 7107SOL     OW32833   2.784   4.227   4.623
 7107SOL    HW132834   2.759   4.218   4.527
 7107SOL    HW232835   2.832   4.145   4.654
 7108SOL     OW32836   2.401   3.788   4.236
 7108SOL    HW132837   2.320   3.789   4.294
 7108SOL    HW232838   2.404   3.871   4.181
 7109SOL     OW32839   2.159   3.759   3.895
 7109SOL    HW132840   2.208   3.843   3.874
 7109SOL    HW232841   2.221   3.694   3.940
 7110SOL     OW32842   2.797   3.960   4.204
 7110SOL    HW132843   2.749   4.001   4.126
 7110SOL    HW232844   2.896   3.958   4.185
 7111SOL     OW32845   2.938   4.407   5.188
 7111SOL    HW132846   2.858   4.346   5.191
 7111SOL    HW232847   3.019   4.354   5.164
 7112SOL     OW32848   2.894   4.273   3.740
 7112SOL    HW132849   2.853   4.355   3.701
 7112SOL    HW232850   2.958   4.299   3.813
 7113SOL     OW32851   1.940   4.280   5.110
 7113SOL    HW132852   2.032   4.279   5.069
 7113SOL    HW232853   1.934   4.354   5.177
 7114SOL     OW32854   2.423   3.946   4.871
 7114SOL    HW132855   2.461   3.862   4.908
 7114SOL    HW232856   2.335   3.965   4.915
 7115SOL     OW32857   2.728   4.178   4.366
 7115SOL    HW132858   2.696   4.250   4.304
 7115SOL    HW232859   2.752   4.097   4.313
 7116SOL     OW32860   2.879   3.763   4.477
 7116SOL    HW132861   2.807   3.768   4.408
 7116SOL    HW232862   2.855   3.694   4.546
 7117SOL     OW32863   3.291   4.897   4.591
 7117SOL    HW132864   3.236   4.813   4.584
 7117SOL    HW232865   3.317   4.926   4.499
 7118SOL     OW32866   3.328   4.314   4.716
 7118SOL    HW132867   3.298   4.219   4.723
 7118SOL    HW232868   3.401   4.330   4.782
 7119SOL     OW32869   3.719   4.557   4.101
 7119SOL    HW132870   3.761   4.493   4.165
 7119SOL    HW232871   3.681   4.506   4.023
 7120SOL     OW32872   3.252   4.299   3.802
 7120SOL    HW132873   3.198   4.278   3.883
 7120SOL    HW232874   3.343   4.258   3.811
 7121SOL     OW32875   2.389   3.980   4.052
 7121SOL    HW132876   2.416   3.921   3.977
 7121SOL    HW232877   2.389   4.075   4.021
 7122SOL     OW32878   3.500   4.823   4.803
 7122SOL    HW132879   3.505   4.904   4.862
 7122SOL    HW232880   3.414   4.825   4.752
 7123SOL     OW32881   2.777   3.813   5.126
 7123SOL    HW132882   2.802   3.793   5.031
 7123SOL    HW232883   2.849   3.869   5.168
 7124SOL     OW32884   2.272   4.537   4.975
 7124SOL    HW132885   2.358   4.549   5.025
 7124SOL    HW232886   2.230   4.450   5.002
 7125SOL     OW32887   3.136   4.110   4.986
 7125SOL    HW132888   3.157   4.184   5.050
 7125SOL    HW232889   3.047   4.127   4.943
 7126SOL     OW32890   2.428   4.261   4.589
 7126SOL    HW132891   2.440   4.327   4.515
 7126SOL    HW232892   2.474   4.295   4.672
 7127SOL     OW32893   3.444   4.363   4.196
 7127SOL    HW132894   3.413   4.424   4.269
 7127SOL    HW232895   3.494   4.415   4.127
 7128SOL     OW32896   2.264   4.475   5.322
 7128SOL    HW132897   2.332   4.530   5.275
 7128SOL    HW232898   2.304   4.387   5.349
 7129SOL     OW32899   3.449   4.503   5.394
 7129SOL    HW132900   3.357   4.541   5.389
 7129SOL    HW232901   3.509   4.550   5.329
 7130SOL     OW32902   2.875   3.829   5.494
 7130SOL    HW132903   2.881   3.914   5.442
 7130SOL    HW232904   2.907   3.753   5.437
 7131SOL     OW32905   2.366   3.774   5.464
 7131SOL    HW132906   2.324   3.717   5.394
 7131SOL    HW232907   2.300   3.843   5.496
 7132SOL     OW32908   2.435   4.594   4.753
 7132SOL    HW132909   2.479   4.683   4.744
 7132SOL    HW232910   2.372   4.594   4.830
 7133SOL     OW32911   3.222   4.586   4.769
 7133SOL    HW132912   3.147   4.586   4.703
 7133SOL    HW232913   3.259   4.494   4.778
 7134SOL     OW32914   3.071   4.249   3.999
 7134SOL    HW132915   3.084   4.165   4.053
 7134SOL    HW232916   3.042   4.323   4.059
 7135SOL     OW32917   2.169   3.937   4.955
 7135SOL    HW132918   2.146   3.974   5.045
 7135SOL    HW232919   2.139   3.842   4.949
 7136SOL     OW32920   2.594   4.358   4.788
 7136SOL    HW132921   2.653   4.332   4.712
 7136SOL    HW232922   2.566   4.454   4.777
 7137SOL     OW32923   3.590   4.659   5.578
 7137SOL    HW132924   3.544   4.652   5.489
 7137SOL    HW232925   3.528   4.703   5.644
 7138SOL     OW32926   2.169   3.787   4.342
 7138SOL    HW132927   2.158   3.881   4.375
 7138SOL    HW232928   2.164   3.724   4.419
 7139SOL     OW32929   3.484   4.091   4.098
 7139SOL    HW132930   3.486   4.015   4.162
 7139SOL    HW232931   3.436   4.168   4.138
 7140SOL     OW32932   2.885   4.490   4.690
 7140SOL    HW132933   2.900   4.511   4.786
 7140SOL    HW232934   2.855   4.395   4.681
 7141SOL     OW32935   2.212   4.622   5.528
 7141SOL    HW132936   2.288   4.666   5.576
 7141SOL    HW232937   2.247   4.575   5.446
 7142SOL     OW32938   3.402   3.998   3.849
 7142SOL    HW132939   3.341   3.923   3.872
 7142SOL    HW232940   3.424   4.050   3.932
 7143SOL     OW32941   3.165   4.562   3.766
 7143SOL    HW132942   3.199   4.469   3.781
 7143SOL    HW232943   3.183   4.589   3.671
 7144SOL     OW32944   2.181   4.534   4.673
 7144SOL    HW132945   2.274   4.570   4.678
 7144SOL    HW232946   2.175   4.449   4.725
 7145SOL     OW32947   2.201   4.233   4.730
 7145SOL    HW132948   2.149   4.150   4.713
 7145SOL    HW232949   2.278   4.238   4.666
 7146SOL     OW32950   3.000   4.104   5.402
 7146SOL    HW132951   2.955   4.167   5.466
 7146SOL    HW232952   3.093   4.135   5.385
 7147SOL     OW32953   3.022   3.931   5.201
 7147SOL    HW132954   3.022   3.995   5.278
 7147SOL    HW232955   3.050   3.979   5.118
 7148SOL     OW32956   2.864   4.520   4.962
 7148SOL    HW132957   2.905   4.488   5.048
 7148SOL    HW232958   2.768   4.493   4.959
 7149SOL     OW32959   1.902   4.268   4.838
 7149SOL    HW132960   1.987   4.235   4.797
 7149SOL    HW232961   1.915   4.283   4.936
 7150SOL     OW32962   2.051   4.244   5.446
 7150SOL    HW132963   2.110   4.204   5.376
 7150SOL    HW232964   1.993   4.315   5.405
 7151SOL     OW32965   3.231   4.674   5.384
 7151SOL    HW132966   3.270   4.763   5.404
 7151SOL    HW232967   3.241   4.654   5.287
 7152SOL     OW32968   2.677   4.296   4.049
 7152SOL    HW132969   2.684   4.207   4.003
 7152SOL    HW232970   2.583   4.330   4.041
 7153SOL     OW32971   3.519   4.328   4.930
 7153SOL    HW132972   3.481   4.259   4.992
 7153SOL    HW232973   3.601   4.292   4.886
 7154SOL     OW32974   2.533   4.188   4.993
 7154SOL    HW132975   2.499   4.099   4.963
 7154SOL    HW232976   2.559   4.242   4.913
 7155SOL     OW32977   2.335   4.224   3.915
 7155SOL    HW132978   2.396   4.304   3.919
 7155SOL    HW232979   2.240   4.255   3.922
 7156SOL     OW32980   2.021   4.861   5.190
 7156SOL    HW132981   2.043   4.800   5.266
 7156SOL    HW232982   2.031   4.812   5.104
 7157SOL     OW32983   3.209   4.783   4.958
 7157SOL    HW132984   3.233   4.720   4.884
 7157SOL    HW232985   3.119   4.823   4.940
 7158SOL     OW32986   3.164   4.579   4.033
 7158SOL    HW132987   3.078   4.548   4.075
 7158SOL    HW232988   3.160   4.565   3.934
 7159SOL     OW32989   3.588   3.859   4.247
 7159SOL    HW132990   3.661   3.842   4.180
 7159SOL    HW232991   3.557   3.772   4.285
 7160SOL     OW32992   3.142   4.651   4.396
 7160SOL    HW132993   3.202   4.570   4.398
 7160SOL    HW232994   3.182   4.720   4.336
 7161SOL     OW32995   3.703   3.899   4.687
 7161SOL    HW132996   3.742   3.814   4.651
 7161SOL    HW232997   3.605   3.901   4.668
 7162SOL     OW32998   2.125   4.050   4.444
 7162SOL    HW132999   2.046   4.101   4.410
 7162SOL    HW233000   2.116   4.035   4.542
 7163SOL     OW33001   2.778   4.634   4.015
 7163SOL    HW133002   2.841   4.672   3.947
 7163SOL    HW233003   2.818   4.551   4.054
 7164SOL     OW33004   2.876   3.960   4.695
 7164SOL    HW133005   2.868   3.924   4.602
 7164SOL    HW233006   2.874   3.884   4.760
 7165SOL     OW33007   3.571   4.109   5.105
 7165SOL    HW133008   3.644   4.178   5.109
 7165SOL    HW233009   3.599   4.034   5.046
 7166SOL     OW33010   1.967   4.737   5.450
 7166SOL    HW133011   1.890   4.704   5.504
 7166SOL    HW233012   2.052   4.707   5.492
 7167SOL     OW33013   2.534   3.927   5.213
 7167SOL    HW133014   2.624   3.911   5.173
 7167SOL    HW233015   2.542   3.932   5.312
 7168SOL     OW33016   1.937   4.069   3.757
 7168SOL    HW133017   1.845   4.041   3.728
 7168SOL    HW233018   1.968   4.146   3.701
 7169SOL     OW33019   3.302   4.580   5.122
 7169SOL    HW133020   3.245   4.632   5.059
 7169SOL    HW233021   3.398   4.592   5.098
 7170SOL     OW33022   1.934   3.890   4.042
 7170SOL    HW133023   1.917   3.973   3.988
 7170SOL    HW233024   2.024   3.853   4.020
 7171SOL     OW33025   3.045   5.059   3.843
 7171SOL    HW133026   2.946   5.048   3.845
 7171SOL    HW233027   3.079   5.074   3.936
 7172SOL     OW33028   2.475   4.566   5.155
 7172SOL    HW133029   2.531   4.647   5.138
 7172SOL    HW233030   2.534   4.486   5.158
 7173SOL     OW33031   2.578   4.289   5.432
 7173SOL    HW133032   2.597   4.354   5.506
 7173SOL    HW233033   2.638   4.209   5.441
 7174SOL     OW33034   3.536   4.607   4.978
 7174SOL    HW133035   3.509   4.518   4.941
 7174SOL    HW233036   3.537   4.675   4.905
 7175SOL     OW33037   3.087   4.049   4.173
 7175SOL    HW133038   3.152   3.975   4.162
 7175SOL    HW233039   3.107   4.099   4.257
 7176SOL     OW33040   2.456   4.469   4.376
 7176SOL    HW133041   2.506   4.554   4.357
 7176SOL    HW233042   2.368   4.471   4.328
 7177SOL     OW33043   3.639   4.066   5.366
 7177SOL    HW133044   3.622   4.097   5.272
 7177SOL    HW233045   3.555   4.029   5.404
 7178SOL     OW33046   3.592   4.658   5.241
 7178SOL    HW133047   3.630   4.749   5.256
 7178SOL    HW233048   3.584   4.641   5.142
 7179SOL     OW33049   2.721   4.680   4.585
 7179SOL    HW133050   2.775   4.611   4.633
 7179SOL    HW233051   2.689   4.749   4.651
 7180SOL     OW33052   2.945   4.708   3.811
 7180SOL    HW133053   2.922   4.761   3.729
 7180SOL    HW233054   3.026   4.652   3.792
 7181SOL     OW33055   1.941   4.964   4.377
 7181SOL    HW133056   1.940   4.917   4.465
 7181SOL    HW233057   2.023   4.936   4.326
 7182SOL     OW33058   3.686   3.916   4.951
 7182SOL    HW133059   3.682   3.826   4.995
 7182SOL    HW233060   3.689   3.905   4.852
 7183SOL     OW33061   2.290   4.148   4.244
 7183SOL    HW133062   2.320   4.076   4.182
 7183SOL    HW233063   2.251   4.108   4.327
 7184SOL     OW33064   2.179   4.271   5.004
 7184SOL    HW133065   2.217   4.212   5.076
 7184SOL    HW233066   2.219   4.245   4.916
 7185SOL     OW33067   3.286   3.938   4.836
 7185SOL    HW133068   3.338   3.873   4.891
 7185SOL    HW233069   3.237   4.001   4.897
 7186SOL     OW33070   2.863   3.758   4.878
 7186SOL    HW133071   2.800   3.686   4.847
 7186SOL    HW233072   2.956   3.722   4.878
 7187SOL     OW33073   3.214   3.776   3.892
 7187SOL    HW133074   3.249   3.735   3.808
 7187SOL    HW233075   3.124   3.738   3.912
 7188SOL     OW33076   3.162   4.177   4.415
 7188SOL    HW133077   3.103   4.257   4.419
 7188SOL    HW233078   3.177   4.142   4.508
 7189SOL     OW33079   3.455   3.945   4.606
 7189SOL    HW133080   3.371   3.944   4.660
 7189SOL    HW233081   3.457   4.028   4.550
 7190SOL     OW33082   1.901   4.801   4.024
 7190SOL    HW133083   2.000   4.790   4.015
 7190SOL    HW233084   1.861   4.715   4.056
 7191SOL     OW33085   2.092   4.352   5.699
 7191SOL    HW133086   1.999   4.350   5.736
 7191SOL    HW233087   2.093   4.313   5.607
 7192SOL     OW33088   2.087   3.999   6.582
 7192SOL    HW133089   2.122   3.982   6.674
 7192SOL    HW233090   1.999   3.954   6.570
 7193SOL     OW33091   1.881   4.092   6.233
 7193SOL    HW133092   1.799   4.135   6.272
 7193SOL    HW233093   1.853   4.019   6.170
 7194SOL     OW33094   2.997   4.427   6.303
 7194SOL    HW133095   3.054   4.505   6.278
 7194SOL    HW233096   2.937   4.453   6.379
 7195SOL     OW33097   3.617   4.331   5.817
 7195SOL    HW133098   3.605   4.318   5.718
 7195SOL    HW233099   3.587   4.250   5.866
 7196SOL     OW33100   2.630   4.868   6.609
 7196SOL    HW133101   2.552   4.885   6.669
 7196SOL    HW233102   2.664   4.955   6.573
 7197SOL     OW33103   2.712   4.522   7.409
 7197SOL    HW133104   2.708   4.598   7.474
 7197SOL    HW233105   2.734   4.558   7.318
 7198SOL     OW33106   2.547   4.736   6.251
 7198SOL    HW133107   2.616   4.720   6.321
 7198SOL    HW233108   2.474   4.793   6.289
 7199SOL     OW33109   2.300   4.116   7.085
 7199SOL    HW133110   2.382   4.060   7.094
 7199SOL    HW233111   2.219   4.058   7.089
 7200SOL     OW33112   3.465   4.171   6.323
 7200SOL    HW133113   3.391   4.217   6.273
 7200SOL    HW233114   3.516   4.239   6.376
 7201SOL     OW33115   2.102   4.815   6.472
 7201SOL    HW133116   2.116   4.731   6.524
 7201SOL    HW233117   2.047   4.879   6.527
 7202SOL     OW33118   2.468   4.688   5.709
 7202SOL    HW133119   2.475   4.772   5.655
 7202SOL    HW233120   2.514   4.701   5.797
 7203SOL     OW33121   3.456   3.838   7.066
 7203SOL    HW133122   3.438   3.905   6.994
 7203SOL    HW233123   3.453   3.884   7.155
 7204SOL     OW33124   1.984   4.367   6.149
 7204SOL    HW133125   1.939   4.279   6.166
 7204SOL    HW233126   1.983   4.421   6.233
 7205SOL     OW33127   3.551   4.646   6.198
 7205SOL    HW133128   3.646   4.617   6.206
 7205SOL    HW233129   3.543   4.711   6.123
 7206SOL     OW33130   1.975   4.461   7.183
 7206SOL    HW133131   2.063   4.448   7.228
 7206SOL    HW233132   1.962   4.558   7.161
 7207SOL     OW33133   2.671   3.728   6.088
 7207SOL    HW133134   2.711   3.819   6.079
 7207SOL    HW233135   2.571   3.736   6.094
 7208SOL     OW33136   2.059   4.700   6.850
 7208SOL    HW133137   2.148   4.655   6.836
 7208SOL    HW233138   1.986   4.635   6.831
 7209SOL     OW33139   3.387   4.723   5.776
 7209SOL    HW133140   3.324   4.647   5.789
 7209SOL    HW233141   3.435   4.741   5.862
 7210SOL     OW33142   2.179   3.975   7.387
 7210SOL    HW133143   2.250   4.046   7.393
 7210SOL    HW233144   2.091   4.014   7.415
 7211SOL     OW33145   2.460   4.453   5.856
 7211SOL    HW133146   2.484   4.522   5.788
 7211SOL    HW233147   2.382   4.486   5.910
 7212SOL     OW33148   3.143   4.069   6.530
 7212SOL    HW133149   3.057   4.019   6.517
 7212SOL    HW233150   3.205   4.015   6.586
 7213SOL     OW33151   2.669   4.329   7.051
 7213SOL    HW133152   2.622   4.326   7.140
 7213SOL    HW233153   2.618   4.274   6.985
 7214SOL     OW33154   3.256   4.193   7.260
 7214SOL    HW133155   3.236   4.236   7.348
 7214SOL    HW233156   3.334   4.131   7.269
 7215SOL     OW33157   2.835   4.614   7.158
 7215SOL    HW133158   2.881   4.530   7.129
 7215SOL    HW233159   2.779   4.648   7.083
 7216SOL     OW33160   2.853   4.134   6.828
 7216SOL    HW133161   2.776   4.168   6.882
 7216SOL    HW233162   2.819   4.083   6.749
 7217SOL     OW33163   2.903   4.425   6.015
 7217SOL    HW133164   2.929   4.421   6.111
 7217SOL    HW233165   2.818   4.374   6.001
 7218SOL     OW33166   1.938   4.535   6.375
 7218SOL    HW133167   2.037   4.523   6.384
 7218SOL    HW233168   1.914   4.630   6.396
 7219SOL     OW33169   2.727   4.072   5.781
 7219SOL    HW133170   2.786   4.135   5.732
 7219SOL    HW233171   2.746   3.978   5.752
 7220SOL     OW33172   3.581   4.309   7.417
 7220SOL    HW133173   3.555   4.398   7.381
 7220SOL    HW233174   3.579   4.241   7.344
 7221SOL     OW33175   2.412   3.920   6.471
 7221SOL    HW133176   2.407   3.915   6.571
 7221SOL    HW233177   2.414   4.016   6.442
 7222SOL     OW33178   3.320   4.459   6.314
 7222SOL    HW133179   3.315   4.394   6.389
 7222SOL    HW233180   3.400   4.518   6.327
 7223SOL     OW33181   2.064   4.009   7.084
 7223SOL    HW133182   1.984   4.069   7.071
 7223SOL    HW233183   2.054   3.960   7.170
 7224SOL     OW33184   3.262   3.831   6.012
 7224SOL    HW133185   3.238   3.794   5.922
 7224SOL    HW233186   3.361   3.847   6.016
 7225SOL     OW33187   2.244   4.424   6.066
 7225SOL    HW133188   2.289   4.334   6.063
 7225SOL    HW233189   2.150   4.413   6.099
 7226SOL     OW33190   3.409   3.946   7.315
 7226SOL    HW133191   3.404   3.983   7.407
 7226SOL    HW233192   3.337   3.877   7.303
 7227SOL     OW33193   2.476   3.846   5.703
 7227SOL    HW133194   2.574   3.824   5.710
 7227SOL    HW233195   2.445   3.829   5.610
 7228SOL     OW33196   2.643   3.988   7.335
 7228SOL    HW133197   2.710   3.927   7.378
 7228SOL    HW233198   2.570   4.007   7.400
 7229SOL     OW33199   3.213   4.314   7.019
 7229SOL    HW133200   3.241   4.271   7.104
 7229SOL    HW233201   3.238   4.410   7.020
 7230SOL     OW33202   2.784   4.227   6.485
 7230SOL    HW133203   2.759   4.218   6.389
 7230SOL    HW233204   2.832   4.145   6.516
 7231SOL     OW33205   2.401   3.788   6.098
 7231SOL    HW133206   2.320   3.789   6.156
 7231SOL    HW233207   2.404   3.871   6.043
 7232SOL     OW33208   2.159   3.759   5.757
 7232SOL    HW133209   2.208   3.843   5.736
 7232SOL    HW233210   2.221   3.694   5.802
 7233SOL     OW33211   2.797   3.960   6.066
 7233SOL    HW133212   2.749   4.001   5.988
 7233SOL    HW233213   2.896   3.958   6.047
 7234SOL     OW33214   2.938   4.407   7.050
 7234SOL    HW133215   2.858   4.346   7.053
 7234SOL    HW233216   3.019   4.354   7.026
 7235SOL     OW33217   2.894   4.273   5.602
 7235SOL    HW133218   2.853   4.355   5.563
 7235SOL    HW233219   2.958   4.299   5.675
 7236SOL     OW33220   1.940   4.280   6.972
 7236SOL    HW133221   2.032   4.279   6.931
 7236SOL    HW233222   1.934   4.354   7.039
 7237SOL     OW33223   2.423   3.946   6.733
 7237SOL    HW133224   2.461   3.862   6.770
 7237SOL    HW233225   2.335   3.965   6.777
 7238SOL     OW33226   2.728   4.178   6.228
 7238SOL    HW133227   2.696   4.250   6.166
 7238SOL    HW233228   2.752   4.097   6.175
 7239SOL     OW33229   2.879   3.763   6.339
 7239SOL    HW133230   2.807   3.768   6.270
 7239SOL    HW233231   2.855   3.694   6.408
 7240SOL     OW33232   3.291   4.897   6.453
 7240SOL    HW133233   3.236   4.813   6.446
 7240SOL    HW233234   3.317   4.926   6.361
 7241SOL     OW33235   3.328   4.314   6.578
 7241SOL    HW133236   3.298   4.219   6.585
 7241SOL    HW233237   3.401   4.330   6.644
 7242SOL     OW33238   3.719   4.557   5.963
 7242SOL    HW133239   3.761   4.493   6.027
 7242SOL    HW233240   3.681   4.506   5.885
 7243SOL     OW33241   3.252   4.299   5.664
 7243SOL    HW133242   3.198   4.278   5.745
 7243SOL    HW233243   3.343   4.258   5.673
 7244SOL     OW33244   2.389   3.980   5.914
 7244SOL    HW133245   2.416   3.921   5.839
 7244SOL    HW233246   2.389   4.075   5.883
 7245SOL     OW33247   3.500   4.823   6.665
 7245SOL    HW133248   3.505   4.904   6.724
 7245SOL    HW233249   3.414   4.825   6.614
 7246SOL     OW33250   2.777   3.813   6.988
 7246SOL    HW133251   2.802   3.793   6.893
 7246SOL    HW233252   2.849   3.869   7.030
 7247SOL     OW33253   2.272   4.537   6.837
 7247SOL    HW133254   2.358   4.549   6.887
 7247SOL    HW233255   2.230   4.450   6.864
 7248SOL     OW33256   3.136   4.110   6.848
 7248SOL    HW133257   3.157   4.184   6.912
 7248SOL    HW233258   3.047   4.127   6.805
 7249SOL     OW33259   2.428   4.261   6.451
 7249SOL    HW133260   2.440   4.327   6.377
 7249SOL    HW233261   2.474   4.295   6.534
 7250SOL     OW33262   3.444   4.363   6.058
 7250SOL    HW133263   3.413   4.424   6.131
 7250SOL    HW233264   3.494   4.415   5.989
 7251SOL     OW33265   2.264   4.475   7.184
 7251SOL    HW133266   2.332   4.530   7.137
 7251SOL    HW233267   2.304   4.387   7.211
 7252SOL     OW33268   3.449   4.503   7.256
 7252SOL    HW133269   3.357   4.541   7.251
 7252SOL    HW233270   3.509   4.550   7.191
 7253SOL     OW33271   2.875   3.829   7.356
 7253SOL    HW133272   2.881   3.914   7.304
 7253SOL    HW233273   2.907   3.753   7.299
 7254SOL     OW33274   2.366   3.774   7.326
 7254SOL    HW133275   2.324   3.717   7.256
 7254SOL    HW233276   2.300   3.843   7.358
 7255SOL     OW33277   2.435   4.594   6.615
 7255SOL    HW133278   2.479   4.683   6.606
 7255SOL    HW233279   2.372   4.594   6.692
 7256SOL     OW33280   3.222   4.586   6.631
 7256SOL    HW133281   3.147   4.586   6.565
 7256SOL    HW233282   3.259   4.494   6.640
 7257SOL     OW33283   3.071   4.249   5.861
 7257SOL    HW133284   3.084   4.165   5.915
 7257SOL    HW233285   3.042   4.323   5.921
 7258SOL     OW33286   2.169   3.937   6.817
 7258SOL    HW133287   2.146   3.974   6.907
 7258SOL    HW233288   2.139   3.842   6.811
 7259SOL     OW33289   2.594   4.358   6.650
 7259SOL    HW133290   2.653   4.332   6.574
 7259SOL    HW233291   2.566   4.454   6.639
 7260SOL     OW33292   3.590   4.659   7.440
 7260SOL    HW133293   3.544   4.652   7.351
 7260SOL    HW233294   3.528   4.703   7.506
 7261SOL     OW33295   2.169   3.787   6.204
 7261SOL    HW133296   2.158   3.881   6.237
 7261SOL    HW233297   2.164   3.724   6.281
 7262SOL     OW33298   3.484   4.091   5.960
 7262SOL    HW133299   3.486   4.015   6.024
 7262SOL    HW233300   3.436   4.168   6.000
 7263SOL     OW33301   2.885   4.490   6.552
 7263SOL    HW133302   2.900   4.511   6.648
 7263SOL    HW233303   2.855   4.395   6.543
 7264SOL     OW33304   2.212   4.622   7.390
 7264SOL    HW133305   2.288   4.666   7.438
 7264SOL    HW233306   2.247   4.575   7.308
 7265SOL     OW33307   3.402   3.998   5.711
 7265SOL    HW133308   3.341   3.923   5.734
 7265SOL    HW233309   3.424   4.050   5.794
 7266SOL     OW33310   3.165   4.562   5.628
 7266SOL    HW133311   3.199   4.469   5.643
 7266SOL    HW233312   3.183   4.589   5.533
 7267SOL     OW33313   2.181   4.534   6.535
 7267SOL    HW133314   2.274   4.570   6.540
 7267SOL    HW233315   2.175   4.449   6.587
 7268SOL     OW33316   2.201   4.233   6.592
 7268SOL    HW133317   2.149   4.150   6.575
 7268SOL    HW233318   2.278   4.238   6.528
 7269SOL     OW33319   3.000   4.104   7.264
 7269SOL    HW133320   2.955   4.167   7.328
 7269SOL    HW233321   3.093   4.135   7.247
 7270SOL     OW33322   3.022   3.931   7.063
 7270SOL    HW133323   3.022   3.995   7.140
 7270SOL    HW233324   3.050   3.979   6.980
 7271SOL     OW33325   2.864   4.520   6.824
 7271SOL    HW133326   2.905   4.488   6.910
 7271SOL    HW233327   2.768   4.493   6.821
 7272SOL     OW33328   1.902   4.268   6.700
 7272SOL    HW133329   1.987   4.235   6.659
 7272SOL    HW233330   1.915   4.283   6.798
 7273SOL     OW33331   2.051   4.244   7.308
 7273SOL    HW133332   2.110   4.204   7.238
 7273SOL    HW233333   1.993   4.315   7.267
 7274SOL     OW33334   3.231   4.674   7.246
 7274SOL    HW133335   3.270   4.763   7.266
 7274SOL    HW233336   3.241   4.654   7.149
 7275SOL     OW33337   2.677   4.296   5.911
 7275SOL    HW133338   2.684   4.207   5.865
 7275SOL    HW233339   2.583   4.330   5.903
 7276SOL     OW33340   3.519   4.328   6.792
 7276SOL    HW133341   3.481   4.259   6.854
 7276SOL    HW233342   3.601   4.292   6.748
 7277SOL     OW33343   2.533   4.188   6.855
 7277SOL    HW133344   2.499   4.099   6.825
 7277SOL    HW233345   2.559   4.242   6.775
 7278SOL     OW33346   2.335   4.224   5.777
 7278SOL    HW133347   2.396   4.304   5.781
 7278SOL    HW233348   2.240   4.255   5.784
 7279SOL     OW33349   2.021   4.861   7.052
 7279SOL    HW133350   2.043   4.800   7.128
 7279SOL    HW233351   2.031   4.812   6.966
 7280SOL     OW33352   3.209   4.783   6.820
 7280SOL    HW133353   3.233   4.720   6.746
 7280SOL    HW233354   3.119   4.823   6.802
 7281SOL     OW33355   3.164   4.579   5.895
 7281SOL    HW133356   3.078   4.548   5.937
 7281SOL    HW233357   3.160   4.565   5.796
 7282SOL     OW33358   3.588   3.859   6.109
 7282SOL    HW133359   3.661   3.842   6.042
 7282SOL    HW233360   3.557   3.772   6.147
 7283SOL     OW33361   3.142   4.651   6.258
 7283SOL    HW133362   3.202   4.570   6.260
 7283SOL    HW233363   3.182   4.720   6.198
 7284SOL     OW33364   3.703   3.899   6.549
 7284SOL    HW133365   3.742   3.814   6.513
 7284SOL    HW233366   3.605   3.901   6.530
 7285SOL     OW33367   2.125   4.050   6.306
 7285SOL    HW133368   2.046   4.101   6.272
 7285SOL    HW233369   2.116   4.035   6.404
 7286SOL     OW33370   2.778   4.634   5.877
 7286SOL    HW133371   2.841   4.672   5.809
 7286SOL    HW233372   2.818   4.551   5.916
 7287SOL     OW33373   2.876   3.960   6.557
 7287SOL    HW133374   2.868   3.924   6.464
 7287SOL    HW233375   2.874   3.884   6.622
 7288SOL     OW33376   3.571   4.109   6.967
 7288SOL    HW133377   3.644   4.178   6.971
 7288SOL    HW233378   3.599   4.034   6.908
 7289SOL     OW33379   1.967   4.737   7.312
 7289SOL    HW133380   1.890   4.704   7.366
 7289SOL    HW233381   2.052   4.707   7.354
 7290SOL     OW33382   2.534   3.927   7.075
 7290SOL    HW133383   2.624   3.911   7.035
 7290SOL    HW233384   2.542   3.932   7.174
 7291SOL     OW33385   1.937   4.069   5.619
 7291SOL    HW133386   1.845   4.041   5.590
 7291SOL    HW233387   1.968   4.146   5.563
 7292SOL     OW33388   3.302   4.580   6.984
 7292SOL    HW133389   3.245   4.632   6.921
 7292SOL    HW233390   3.398   4.592   6.960
 7293SOL     OW33391   1.934   3.890   5.904
 7293SOL    HW133392   1.917   3.973   5.850
 7293SOL    HW233393   2.024   3.853   5.882
 7294SOL     OW33394   3.045   5.059   5.705
 7294SOL    HW133395   2.946   5.048   5.707
 7294SOL    HW233396   3.079   5.074   5.798
 7295SOL     OW33397   2.475   4.566   7.017
 7295SOL    HW133398   2.531   4.647   7.000
 7295SOL    HW233399   2.534   4.486   7.020
 7296SOL     OW33400   2.578   4.289   7.294
 7296SOL    HW133401   2.597   4.354   7.368
 7296SOL    HW233402   2.638   4.209   7.303
 7297SOL     OW33403   3.536   4.607   6.840
 7297SOL    HW133404   3.509   4.518   6.803
 7297SOL    HW233405   3.537   4.675   6.767
 7298SOL     OW33406   3.087   4.049   6.035
 7298SOL    HW133407   3.152   3.975   6.024
 7298SOL    HW233408   3.107   4.099   6.119
 7299SOL     OW33409   2.456   4.469   6.238
 7299SOL    HW133410   2.506   4.554   6.219
 7299SOL    HW233411   2.368   4.471   6.190
 7300SOL     OW33412   3.639   4.066   7.228
 7300SOL    HW133413   3.622   4.097   7.134
 7300SOL    HW233414   3.555   4.029   7.266
 7301SOL     OW33415   3.592   4.658   7.103
 7301SOL    HW133416   3.630   4.749   7.118
 7301SOL    HW233417   3.584   4.641   7.004
 7302SOL     OW33418   2.721   4.680   6.447
 7302SOL    HW133419   2.775   4.611   6.495
 7302SOL    HW233420   2.689   4.749   6.513
 7303SOL     OW33421   2.945   4.708   5.673
 7303SOL    HW133422   2.922   4.761   5.591
 7303SOL    HW233423   3.026   4.652   5.654
 7304SOL     OW33424   1.941   4.964   6.239
 7304SOL    HW133425   1.940   4.917   6.327
 7304SOL    HW233426   2.023   4.936   6.188
 7305SOL     OW33427   3.686   3.916   6.813
 7305SOL    HW133428   3.682   3.826   6.857
 7305SOL    HW233429   3.689   3.905   6.714
 7306SOL     OW33430   2.290   4.148   6.106
 7306SOL    HW133431   2.320   4.076   6.044
 7306SOL    HW233432   2.251   4.108   6.189
 7307SOL     OW33433   2.179   4.271   6.866
 7307SOL    HW133434   2.217   4.212   6.938
 7307SOL    HW233435   2.219   4.245   6.778
 7308SOL     OW33436   3.286   3.938   6.698
 7308SOL    HW133437   3.338   3.873   6.753
 7308SOL    HW233438   3.237   4.001   6.759
 7309SOL     OW33439   2.863   3.758   6.740
 7309SOL    HW133440   2.800   3.686   6.709
 7309SOL    HW233441   2.956   3.722   6.740
 7310SOL     OW33442   3.214   3.776   5.754
 7310SOL    HW133443   3.249   3.735   5.670
 7310SOL    HW233444   3.124   3.738   5.774
 7311SOL     OW33445   3.162   4.177   6.277
 7311SOL    HW133446   3.103   4.257   6.281
 7311SOL    HW233447   3.177   4.142   6.370
 7312SOL     OW33448   3.455   3.945   6.468
 7312SOL    HW133449   3.371   3.944   6.522
 7312SOL    HW233450   3.457   4.028   6.412
 7313SOL     OW33451   1.901   4.801   5.886
 7313SOL    HW133452   2.000   4.790   5.877
 7313SOL    HW233453   1.861   4.715   5.918
 7314SOL     OW33454   2.092   4.352   7.561
 7314SOL    HW133455   1.999   4.350   7.598
 7314SOL    HW233456   2.093   4.313   7.469
 7315SOL     OW33457   2.087   3.999   8.444
 7315SOL    HW133458   2.122   3.982   8.536
 7315SOL    HW233459   1.999   3.954   8.432
 7316SOL     OW33460   1.881   4.092   8.095
 7316SOL    HW133461   1.799   4.135   8.134
 7316SOL    HW233462   1.853   4.019   8.032
 7317SOL     OW33463   2.997   4.427   8.165
 7317SOL    HW133464   3.054   4.505   8.140
 7317SOL    HW233465   2.937   4.453   8.241
 7318SOL     OW33466   3.617   4.331   7.679
 7318SOL    HW133467   3.605   4.318   7.580
 7318SOL    HW233468   3.587   4.250   7.728
 7319SOL     OW33469   2.630   4.868   8.471
 7319SOL    HW133470   2.552   4.885   8.531
 7319SOL    HW233471   2.664   4.955   8.435
 7320SOL     OW33472   2.547   4.736   8.113
 7320SOL    HW133473   2.616   4.720   8.183
 7320SOL    HW233474   2.474   4.793   8.151
 7321SOL     OW33475   2.300   4.116   8.947
 7321SOL    HW133476   2.382   4.060   8.956
 7321SOL    HW233477   2.219   4.058   8.951
 7322SOL     OW33478   3.465   4.171   8.185
 7322SOL    HW133479   3.391   4.217   8.135
 7322SOL    HW233480   3.516   4.239   8.238
 7323SOL     OW33481   2.102   4.815   8.334
 7323SOL    HW133482   2.116   4.731   8.386
 7323SOL    HW233483   2.047   4.879   8.389
 7324SOL     OW33484   2.468   4.688   7.571
 7324SOL    HW133485   2.475   4.772   7.517
 7324SOL    HW233486   2.514   4.701   7.659
 7325SOL     OW33487   3.456   3.838   8.928
 7325SOL    HW133488   3.438   3.905   8.856
 7325SOL    HW233489   3.453   3.884   9.017
 7326SOL     OW33490   1.984   4.367   8.011
 7326SOL    HW133491   1.939   4.279   8.028
 7326SOL    HW233492   1.983   4.421   8.095
 7327SOL     OW33493   3.551   4.646   8.060
 7327SOL    HW133494   3.646   4.617   8.068
 7327SOL    HW233495   3.543   4.711   7.985
 7328SOL     OW33496   2.671   3.728   7.950
 7328SOL    HW133497   2.711   3.819   7.941
 7328SOL    HW233498   2.571   3.736   7.956
 7329SOL     OW33499   2.059   4.700   8.712
 7329SOL    HW133500   2.148   4.655   8.698
 7329SOL    HW233501   1.986   4.635   8.693
 7330SOL     OW33502   3.387   4.723   7.638
 7330SOL    HW133503   3.324   4.647   7.651
 7330SOL    HW233504   3.435   4.741   7.724
 7331SOL     OW33505   2.179   3.975   9.249
 7331SOL    HW133506   2.250   4.046   9.255
 7331SOL    HW233507   2.091   4.014   9.277
 7332SOL     OW33508   2.460   4.453   7.718
 7332SOL    HW133509   2.484   4.522   7.650
 7332SOL    HW233510   2.382   4.486   7.772
 7333SOL     OW33511   3.143   4.069   8.392
 7333SOL    HW133512   3.057   4.019   8.379
 7333SOL    HW233513   3.205   4.015   8.448
 7334SOL     OW33514   2.669   4.329   8.913
 7334SOL    HW133515   2.622   4.326   9.002
 7334SOL    HW233516   2.618   4.274   8.847
 7335SOL     OW33517   3.256   4.193   9.122
 7335SOL    HW133518   3.236   4.236   9.210
 7335SOL    HW233519   3.334   4.131   9.131
 7336SOL     OW33520   2.835   4.614   9.020
 7336SOL    HW133521   2.881   4.530   8.991
 7336SOL    HW233522   2.779   4.648   8.945
 7337SOL     OW33523   2.853   4.134   8.690
 7337SOL    HW133524   2.776   4.168   8.744
 7337SOL    HW233525   2.819   4.083   8.611
 7338SOL     OW33526   2.903   4.425   7.877
 7338SOL    HW133527   2.929   4.421   7.973
 7338SOL    HW233528   2.818   4.374   7.863
 7339SOL     OW33529   1.938   4.535   8.237
 7339SOL    HW133530   2.037   4.523   8.246
 7339SOL    HW233531   1.914   4.630   8.258
 7340SOL     OW33532   2.727   4.072   7.643
 7340SOL    HW133533   2.786   4.135   7.594
 7340SOL    HW233534   2.746   3.978   7.614
 7341SOL     OW33535   3.581   4.309   9.279
 7341SOL    HW133536   3.555   4.398   9.243
 7341SOL    HW233537   3.579   4.241   9.206
 7342SOL     OW33538   2.412   3.920   8.333
 7342SOL    HW133539   2.407   3.915   8.433
 7342SOL    HW233540   2.414   4.016   8.304
 7343SOL     OW33541   3.320   4.459   8.176
 7343SOL    HW133542   3.315   4.394   8.251
 7343SOL    HW233543   3.400   4.518   8.189
 7344SOL     OW33544   3.262   3.831   7.874
 7344SOL    HW133545   3.238   3.794   7.784
 7344SOL    HW233546   3.361   3.847   7.878
 7345SOL     OW33547   2.244   4.424   7.928
 7345SOL    HW133548   2.289   4.334   7.925
 7345SOL    HW233549   2.150   4.413   7.961
 7346SOL     OW33550   3.409   3.946   9.177
 7346SOL    HW133551   3.404   3.983   9.269
 7346SOL    HW233552   3.337   3.877   9.165
 7347SOL     OW33553   2.476   3.846   7.565
 7347SOL    HW133554   2.574   3.824   7.572
 7347SOL    HW233555   2.445   3.829   7.472
 7348SOL     OW33556   2.643   3.988   9.197
 7348SOL    HW133557   2.710   3.927   9.240
 7348SOL    HW233558   2.570   4.007   9.262
 7349SOL     OW33559   3.213   4.314   8.881
 7349SOL    HW133560   3.241   4.271   8.966
 7349SOL    HW233561   3.238   4.410   8.882
 7350SOL     OW33562   2.784   4.227   8.347
 7350SOL    HW133563   2.759   4.218   8.251
 7350SOL    HW233564   2.832   4.145   8.378
 7351SOL     OW33565   2.401   3.788   7.960
 7351SOL    HW133566   2.320   3.789   8.018
 7351SOL    HW233567   2.404   3.871   7.905
 7352SOL     OW33568   2.159   3.759   7.619
 7352SOL    HW133569   2.208   3.843   7.598
 7352SOL    HW233570   2.221   3.694   7.664
 7353SOL     OW33571   2.797   3.960   7.928
 7353SOL    HW133572   2.749   4.001   7.850
 7353SOL    HW233573   2.896   3.958   7.909
 7354SOL     OW33574   2.938   4.407   8.912
 7354SOL    HW133575   2.858   4.346   8.915
 7354SOL    HW233576   3.019   4.354   8.888
 7355SOL     OW33577   2.894   4.273   7.464
 7355SOL    HW133578   2.853   4.355   7.425
 7355SOL    HW233579   2.958   4.299   7.537
 7356SOL     OW33580   1.940   4.280   8.834
 7356SOL    HW133581   2.032   4.279   8.793
 7356SOL    HW233582   1.934   4.354   8.901
 7357SOL     OW33583   2.423   3.946   8.595
 7357SOL    HW133584   2.461   3.862   8.632
 7357SOL    HW233585   2.335   3.965   8.639
 7358SOL     OW33586   2.728   4.178   8.090
 7358SOL    HW133587   2.696   4.250   8.028
 7358SOL    HW233588   2.752   4.097   8.037
 7359SOL     OW33589   2.879   3.763   8.201
 7359SOL    HW133590   2.807   3.768   8.132
 7359SOL    HW233591   2.855   3.694   8.270
 7360SOL     OW33592   3.291   4.897   8.315
 7360SOL    HW133593   3.236   4.813   8.308
 7360SOL    HW233594   3.317   4.926   8.223
 7361SOL     OW33595   3.328   4.314   8.440
 7361SOL    HW133596   3.298   4.219   8.447
 7361SOL    HW233597   3.401   4.330   8.506
 7362SOL     OW33598   3.719   4.557   7.825
 7362SOL    HW133599   3.761   4.493   7.889
 7362SOL    HW233600   3.681   4.506   7.747
 7363SOL     OW33601   3.252   4.299   7.526
 7363SOL    HW133602   3.198   4.278   7.607
 7363SOL    HW233603   3.343   4.258   7.535
 7364SOL     OW33604   2.389   3.980   7.776
 7364SOL    HW133605   2.416   3.921   7.701
 7364SOL    HW233606   2.389   4.075   7.745
 7365SOL     OW33607   3.500   4.823   8.527
 7365SOL    HW133608   3.505   4.904   8.586
 7365SOL    HW233609   3.414   4.825   8.476
 7366SOL     OW33610   2.777   3.813   8.850
 7366SOL    HW133611   2.802   3.793   8.755
 7366SOL    HW233612   2.849   3.869   8.892
 7367SOL     OW33613   2.272   4.537   8.699
 7367SOL    HW133614   2.358   4.549   8.749
 7367SOL    HW233615   2.230   4.450   8.726
 7368SOL     OW33616   3.136   4.110   8.710
 7368SOL    HW133617   3.157   4.184   8.774
 7368SOL    HW233618   3.047   4.127   8.667
 7369SOL     OW33619   2.428   4.261   8.313
 7369SOL    HW133620   2.440   4.327   8.239
 7369SOL    HW233621   2.474   4.295   8.396
 7370SOL     OW33622   3.444   4.363   7.920
 7370SOL    HW133623   3.413   4.424   7.993
 7370SOL    HW233624   3.494   4.415   7.851
 7371SOL     OW33625   2.264   4.475   9.046
 7371SOL    HW133626   2.332   4.530   8.999
 7371SOL    HW233627   2.304   4.387   9.073
 7372SOL     OW33628   3.449   4.503   9.118
 7372SOL    HW133629   3.357   4.541   9.113
 7372SOL    HW233630   3.509   4.550   9.053
 7373SOL     OW33631   2.875   3.829   9.218
 7373SOL    HW133632   2.881   3.914   9.166
 7373SOL    HW233633   2.907   3.753   9.161
 7374SOL     OW33634   2.366   3.774   9.188
 7374SOL    HW133635   2.324   3.717   9.118
 7374SOL    HW233636   2.300   3.843   9.220
 7375SOL     OW33637   2.435   4.594   8.477
 7375SOL    HW133638   2.479   4.683   8.468
 7375SOL    HW233639   2.372   4.594   8.554
 7376SOL     OW33640   3.222   4.586   8.493
 7376SOL    HW133641   3.147   4.586   8.427
 7376SOL    HW233642   3.259   4.494   8.502
 7377SOL     OW33643   3.071   4.249   7.723
 7377SOL    HW133644   3.084   4.165   7.777
 7377SOL    HW233645   3.042   4.323   7.783
 7378SOL     OW33646   2.169   3.937   8.679
 7378SOL    HW133647   2.146   3.974   8.769
 7378SOL    HW233648   2.139   3.842   8.673
 7379SOL     OW33649   2.594   4.358   8.512
 7379SOL    HW133650   2.653   4.332   8.436
 7379SOL    HW233651   2.566   4.454   8.501
 7380SOL     OW33652   3.590   4.659   9.302
 7380SOL    HW133653   3.544   4.652   9.213
 7380SOL    HW233654   3.528   4.703   9.368
 7381SOL     OW33655   2.169   3.787   8.066
 7381SOL    HW133656   2.158   3.881   8.099
 7381SOL    HW233657   2.164   3.724   8.143
 7382SOL     OW33658   3.484   4.091   7.822
 7382SOL    HW133659   3.486   4.015   7.886
 7382SOL    HW233660   3.436   4.168   7.862
 7383SOL     OW33661   2.885   4.490   8.414
 7383SOL    HW133662   2.900   4.511   8.510
 7383SOL    HW233663   2.855   4.395   8.405
 7384SOL     OW33664   2.212   4.622   9.252
 7384SOL    HW133665   2.288   4.666   9.300
 7384SOL    HW233666   2.247   4.575   9.170
 7385SOL     OW33667   3.402   3.998   7.573
 7385SOL    HW133668   3.341   3.923   7.596
 7385SOL    HW233669   3.424   4.050   7.656
 7386SOL     OW33670   3.165   4.562   7.490
 7386SOL    HW133671   3.199   4.469   7.505
 7386SOL    HW233672   3.183   4.589   7.395
 7387SOL     OW33673   2.181   4.534   8.397
 7387SOL    HW133674   2.274   4.570   8.402
 7387SOL    HW233675   2.175   4.449   8.449
 7388SOL     OW33676   2.201   4.233   8.454
 7388SOL    HW133677   2.149   4.150   8.437
 7388SOL    HW233678   2.278   4.238   8.390
 7389SOL     OW33679   3.000   4.104   9.126
 7389SOL    HW133680   2.955   4.167   9.190
 7389SOL    HW233681   3.093   4.135   9.109
 7390SOL     OW33682   3.022   3.931   8.925
 7390SOL    HW133683   3.022   3.995   9.002
 7390SOL    HW233684   3.050   3.979   8.842
 7391SOL     OW33685   2.864   4.520   8.686
 7391SOL    HW133686   2.905   4.488   8.772
 7391SOL    HW233687   2.768   4.493   8.683
 7392SOL     OW33688   1.902   4.268   8.562
 7392SOL    HW133689   1.987   4.235   8.521
 7392SOL    HW233690   1.915   4.283   8.660
 7393SOL     OW33691   3.231   4.674   9.108
 7393SOL    HW133692   3.270   4.763   9.128
 7393SOL    HW233693   3.241   4.654   9.011
 7394SOL     OW33694   2.677   4.296   7.773
 7394SOL    HW133695   2.684   4.207   7.727
 7394SOL    HW233696   2.583   4.330   7.765
 7395SOL     OW33697   3.519   4.328   8.654
 7395SOL    HW133698   3.481   4.259   8.716
 7395SOL    HW233699   3.601   4.292   8.610
 7396SOL     OW33700   2.533   4.188   8.717
 7396SOL    HW133701   2.499   4.099   8.687
 7396SOL    HW233702   2.559   4.242   8.637
 7397SOL     OW33703   2.335   4.224   7.639
 7397SOL    HW133704   2.396   4.304   7.643
 7397SOL    HW233705   2.240   4.255   7.646
 7398SOL     OW33706   2.021   4.861   8.914
 7398SOL    HW133707   2.043   4.800   8.990
 7398SOL    HW233708   2.031   4.812   8.828
 7399SOL     OW33709   3.209   4.783   8.682
 7399SOL    HW133710   3.233   4.720   8.608
 7399SOL    HW233711   3.119   4.823   8.664
 7400SOL     OW33712   3.164   4.579   7.757
 7400SOL    HW133713   3.078   4.548   7.799
 7400SOL    HW233714   3.160   4.565   7.658
 7401SOL     OW33715   3.588   3.859   7.971
 7401SOL    HW133716   3.661   3.842   7.904
 7401SOL    HW233717   3.557   3.772   8.009
 7402SOL     OW33718   3.142   4.651   8.120
 7402SOL    HW133719   3.202   4.570   8.122
 7402SOL    HW233720   3.182   4.720   8.060
 7403SOL     OW33721   3.703   3.899   8.411
 7403SOL    HW133722   3.742   3.814   8.375
 7403SOL    HW233723   3.605   3.901   8.392
 7404SOL     OW33724   2.125   4.050   8.168
 7404SOL    HW133725   2.046   4.101   8.134
 7404SOL    HW233726   2.116   4.035   8.266
 7405SOL     OW33727   2.778   4.634   7.739
 7405SOL    HW133728   2.841   4.672   7.671
 7405SOL    HW233729   2.818   4.551   7.778
 7406SOL     OW33730   2.876   3.960   8.419
 7406SOL    HW133731   2.868   3.924   8.326
 7406SOL    HW233732   2.874   3.884   8.484
 7407SOL     OW33733   3.571   4.109   8.829
 7407SOL    HW133734   3.644   4.178   8.833
 7407SOL    HW233735   3.599   4.034   8.770
 7408SOL     OW33736   2.534   3.927   8.937
 7408SOL    HW133737   2.624   3.911   8.897
 7408SOL    HW233738   2.542   3.932   9.036
 7409SOL     OW33739   1.937   4.069   7.481
 7409SOL    HW133740   1.845   4.041   7.452
 7409SOL    HW233741   1.968   4.146   7.425
 7410SOL     OW33742   3.302   4.580   8.846
 7410SOL    HW133743   3.245   4.632   8.783
 7410SOL    HW233744   3.398   4.592   8.822
 7411SOL     OW33745   1.934   3.890   7.766
 7411SOL    HW133746   1.917   3.973   7.712
 7411SOL    HW233747   2.024   3.853   7.744
 7412SOL     OW33748   3.045   5.059   7.567
 7412SOL    HW133749   2.946   5.048   7.569
 7412SOL    HW233750   3.079   5.074   7.660
 7413SOL     OW33751   2.475   4.566   8.879
 7413SOL    HW133752   2.531   4.647   8.862
 7413SOL    HW233753   2.534   4.486   8.882
 7414SOL     OW33754   2.578   4.289   9.156
 7414SOL    HW133755   2.597   4.354   9.230
 7414SOL    HW233756   2.638   4.209   9.165
 7415SOL     OW33757   3.536   4.607   8.702
 7415SOL    HW133758   3.509   4.518   8.665
 7415SOL    HW233759   3.537   4.675   8.629
 7416SOL     OW33760   3.087   4.049   7.897
 7416SOL    HW133761   3.152   3.975   7.886
 7416SOL    HW233762   3.107   4.099   7.981
 7417SOL     OW33763   2.456   4.469   8.100
 7417SOL    HW133764   2.506   4.554   8.081
 7417SOL    HW233765   2.368   4.471   8.052
 7418SOL     OW33766   3.639   4.066   9.090
 7418SOL    HW133767   3.622   4.097   8.996
 7418SOL    HW233768   3.555   4.029   9.128
 7419SOL     OW33769   3.592   4.658   8.965
 7419SOL    HW133770   3.630   4.749   8.980
 7419SOL    HW233771   3.584   4.641   8.866
 7420SOL     OW33772   2.721   4.680   8.309
 7420SOL    HW133773   2.775   4.611   8.357
 7420SOL    HW233774   2.689   4.749   8.375
 7421SOL     OW33775   2.945   4.708   7.535
 7421SOL    HW133776   2.922   4.761   7.453
 7421SOL    HW233777   3.026   4.652   7.516
 7422SOL     OW33778   1.941   4.964   8.101
 7422SOL    HW133779   1.940   4.917   8.189
 7422SOL    HW233780   2.023   4.936   8.050
 7423SOL     OW33781   3.686   3.916   8.675
 7423SOL    HW133782   3.682   3.826   8.719
 7423SOL    HW233783   3.689   3.905   8.576
 7424SOL     OW33784   2.290   4.148   7.968
 7424SOL    HW133785   2.320   4.076   7.906
 7424SOL    HW233786   2.251   4.108   8.051
 7425SOL     OW33787   2.179   4.271   8.728
 7425SOL    HW133788   2.217   4.212   8.800
 7425SOL    HW233789   2.219   4.245   8.640
 7426SOL     OW33790   3.286   3.938   8.560
 7426SOL    HW133791   3.338   3.873   8.615
 7426SOL    HW233792   3.237   4.001   8.621
 7427SOL     OW33793   2.863   3.758   8.602
 7427SOL    HW133794   2.800   3.686   8.571
 7427SOL    HW233795   2.956   3.722   8.602
 7428SOL     OW33796   3.214   3.776   7.616
 7428SOL    HW133797   3.249   3.735   7.532
 7428SOL    HW233798   3.124   3.738   7.636
 7429SOL     OW33799   3.162   4.177   8.139
 7429SOL    HW133800   3.103   4.257   8.143
 7429SOL    HW233801   3.177   4.142   8.232
 7430SOL     OW33802   3.455   3.945   8.330
 7430SOL    HW133803   3.371   3.944   8.384
 7430SOL    HW233804   3.457   4.028   8.274
 7431SOL     OW33805   1.901   4.801   7.748
 7431SOL    HW133806   2.000   4.790   7.739
 7431SOL    HW233807   1.861   4.715   7.780
 7432SOL     OW33808   3.617   4.331   9.541
 7432SOL    HW133809   3.605   4.318   9.442
 7432SOL    HW233810   3.587   4.250   9.590
 7433SOL     OW33811   2.630   4.868  10.333
 7433SOL    HW133812   2.552   4.885  10.393
 7433SOL    HW233813   2.664   4.955  10.297
 7434SOL     OW33814   2.547   4.736   9.975
 7434SOL    HW133815   2.616   4.720  10.045
 7434SOL    HW233816   2.474   4.793  10.013
 7435SOL     OW33817   3.465   4.171  10.047
 7435SOL    HW133818   3.391   4.217   9.997
 7435SOL    HW233819   3.516   4.239  10.100
 7436SOL     OW33820   2.671   3.728   9.812
 7436SOL    HW133821   2.711   3.819   9.803
 7436SOL    HW233822   2.571   3.736   9.818
 7437SOL     OW33823   3.387   4.723   9.500
 7437SOL    HW133824   3.324   4.647   9.513
 7437SOL    HW233825   3.435   4.741   9.586
 7438SOL     OW33826   3.143   4.069  10.254
 7438SOL    HW133827   3.057   4.019  10.241
 7438SOL    HW233828   3.205   4.015  10.310
 7439SOL     OW33829   3.256   4.193  10.984
 7439SOL    HW133830   3.236   4.236  11.072
 7439SOL    HW233831   3.334   4.131  10.993
 7440SOL     OW33832   1.938   4.535  10.099
 7440SOL    HW133833   2.037   4.523  10.108
 7440SOL    HW233834   1.914   4.630  10.120
 7441SOL     OW33835   2.727   4.072   9.505
 7441SOL    HW133836   2.786   4.135   9.456
 7441SOL    HW233837   2.746   3.978   9.476
 7442SOL     OW33838   2.412   3.920  10.195
 7442SOL    HW133839   2.407   3.915  10.295
 7442SOL    HW233840   2.414   4.016  10.166
 7443SOL     OW33841   3.320   4.459  10.038
 7443SOL    HW133842   3.315   4.394  10.113
 7443SOL    HW233843   3.400   4.518  10.051
 7444SOL     OW33844   3.409   3.946  11.039
 7444SOL    HW133845   3.404   3.983  11.131
 7444SOL    HW233846   3.337   3.877  11.027
 7445SOL     OW33847   2.476   3.846   9.427
 7445SOL    HW133848   2.574   3.824   9.434
 7445SOL    HW233849   2.445   3.829   9.334
 7446SOL     OW33850   2.797   3.960   9.790
 7446SOL    HW133851   2.749   4.001   9.712
 7446SOL    HW233852   2.896   3.958   9.771
 7447SOL     OW33853   2.894   4.273   9.326
 7447SOL    HW133854   2.853   4.355   9.287
 7447SOL    HW233855   2.958   4.299   9.399
 7448SOL     OW33856   2.423   3.946  10.457
 7448SOL    HW133857   2.461   3.862  10.494
 7448SOL    HW233858   2.335   3.965  10.501
 7449SOL     OW33859   2.879   3.763  10.063
 7449SOL    HW133860   2.807   3.768   9.994
 7449SOL    HW233861   2.855   3.694  10.132
 7450SOL     OW33862   3.719   4.557   9.687
 7450SOL    HW133863   3.761   4.493   9.751
 7450SOL    HW233864   3.681   4.506   9.609
 7451SOL     OW33865   3.252   4.299   9.388
 7451SOL    HW133866   3.198   4.278   9.469
 7451SOL    HW233867   3.343   4.258   9.397
 7452SOL     OW33868   2.777   3.813  10.712
 7452SOL    HW133869   2.802   3.793  10.617
 7452SOL    HW233870   2.849   3.869  10.754
 7453SOL     OW33871   3.136   4.110  10.572
 7453SOL    HW133872   3.157   4.184  10.636
 7453SOL    HW233873   3.047   4.127  10.529
 7454SOL     OW33874   3.444   4.363   9.782
 7454SOL    HW133875   3.413   4.424   9.855
 7454SOL    HW233876   3.494   4.415   9.713
 7455SOL     OW33877   2.169   3.937  10.541
 7455SOL    HW133878   2.146   3.974  10.631
 7455SOL    HW233879   2.139   3.842  10.535
 7456SOL     OW33880   3.484   4.091   9.684
 7456SOL    HW133881   3.486   4.015   9.748
 7456SOL    HW233882   3.436   4.168   9.724
 7457SOL     OW33883   2.212   4.622  11.114
 7457SOL    HW133884   2.288   4.666  11.162
 7457SOL    HW233885   2.247   4.575  11.032
 7458SOL     OW33886   3.402   3.998   9.435
 7458SOL    HW133887   3.341   3.923   9.458
 7458SOL    HW233888   3.424   4.050   9.518
 7459SOL     OW33889   3.000   4.104  10.988
 7459SOL    HW133890   2.955   4.167  11.052
 7459SOL    HW233891   3.093   4.135  10.971
 7460SOL     OW33892   3.022   3.931  10.787
 7460SOL    HW133893   3.022   3.995  10.864
 7460SOL    HW233894   3.050   3.979  10.704
 7461SOL     OW33895   2.864   4.520  10.548
 7461SOL    HW133896   2.905   4.488  10.634
 7461SOL    HW233897   2.768   4.493  10.545
 7462SOL     OW33898   1.902   4.268  10.424
 7462SOL    HW133899   1.987   4.235  10.383
 7462SOL    HW233900   1.915   4.283  10.522
 7463SOL     OW33901   2.677   4.296   9.635
 7463SOL    HW133902   2.684   4.207   9.589
 7463SOL    HW233903   2.583   4.330   9.627
 7464SOL     OW33904   3.571   4.109  10.691
 7464SOL    HW133905   3.644   4.178  10.695
 7464SOL    HW233906   3.599   4.034  10.632
 7465SOL     OW33907   3.536   4.607  10.564
 7465SOL    HW133908   3.509   4.518  10.527
 7465SOL    HW233909   3.537   4.675  10.491
 7466SOL     OW33910   2.721   4.680  10.171
 7466SOL    HW133911   2.775   4.611  10.219
 7466SOL    HW233912   2.689   4.749  10.237
 7467SOL     OW33913   3.286   3.938  10.422
 7467SOL    HW133914   3.338   3.873  10.477
 7467SOL    HW233915   3.237   4.001  10.483
 7468SOL     OW33916   2.863   3.758  10.464
 7468SOL    HW133917   2.800   3.686  10.433
 7468SOL    HW233918   2.956   3.722  10.464
 7469SOL     OW33919   3.214   3.776   9.478
 7469SOL    HW133920   3.249   3.735   9.394
 7469SOL    HW233921   3.124   3.738   9.498
 7470SOL     OW33922   2.092   4.352  11.285
 7470SOL    HW133923   1.999   4.350  11.322
 7470SOL    HW233924   2.093   4.313  11.193
 7471SOL     OW33925   1.881   4.092  11.819
 7471SOL    HW133926   1.799   4.135  11.858
 7471SOL    HW233927   1.853   4.019  11.756
 7472SOL     OW33928   2.997   4.427  11.889
 7472SOL    HW133929   3.054   4.505  11.864
 7472SOL    HW233930   2.937   4.453  11.965
 7473SOL     OW33931   3.617   4.331  11.403
 7473SOL    HW133932   3.605   4.318  11.304
 7473SOL    HW233933   3.587   4.250  11.452
 7474SOL     OW33934   2.712   4.522  12.995
 7474SOL    HW133935   2.708   4.598  13.060
 7474SOL    HW233936   2.734   4.558  12.904
 7475SOL     OW33937   3.465   4.171  11.909
 7475SOL    HW133938   3.391   4.217  11.859
 7475SOL    HW233939   3.516   4.239  11.962
 7476SOL     OW33940   2.102   4.815  12.058
 7476SOL    HW133941   2.116   4.731  12.110
 7476SOL    HW233942   2.047   4.879  12.113
 7477SOL     OW33943   2.468   4.688  11.295
 7477SOL    HW133944   2.475   4.772  11.241
 7477SOL    HW233945   2.514   4.701  11.383
 7478SOL     OW33946   3.456   3.838  12.652
 7478SOL    HW133947   3.438   3.905  12.580
 7478SOL    HW233948   3.453   3.884  12.741
 7479SOL     OW33949   2.671   3.728  11.674
 7479SOL    HW133950   2.711   3.819  11.665
 7479SOL    HW233951   2.571   3.736  11.680
 7480SOL     OW33952   2.059   4.700  12.436
 7480SOL    HW133953   2.148   4.655  12.422
 7480SOL    HW233954   1.986   4.635  12.417
 7481SOL     OW33955   3.387   4.723  11.362
 7481SOL    HW133956   3.324   4.647  11.375
 7481SOL    HW233957   3.435   4.741  11.448
 7482SOL     OW33958   2.669   4.329  12.637
 7482SOL    HW133959   2.622   4.326  12.726
 7482SOL    HW233960   2.618   4.274  12.571
 7483SOL     OW33961   3.256   4.193  12.846
 7483SOL    HW133962   3.236   4.236  12.934
 7483SOL    HW233963   3.334   4.131  12.855
 7484SOL     OW33964   3.262   3.831  11.598
 7484SOL    HW133965   3.238   3.794  11.508
 7484SOL    HW233966   3.361   3.847  11.602
 7485SOL     OW33967   3.409   3.946  12.901
 7485SOL    HW133968   3.404   3.983  12.993
 7485SOL    HW233969   3.337   3.877  12.889
 7486SOL     OW33970   2.643   3.988  12.921
 7486SOL    HW133971   2.710   3.927  12.964
 7486SOL    HW233972   2.570   4.007  12.986
 7487SOL     OW33973   3.213   4.314  12.605
 7487SOL    HW133974   3.241   4.271  12.690
 7487SOL    HW233975   3.238   4.410  12.606
 7488SOL     OW33976   2.159   3.759  11.343
 7488SOL    HW133977   2.208   3.843  11.322
 7488SOL    HW233978   2.221   3.694  11.388
 7489SOL     OW33979   2.938   4.407  12.636
 7489SOL    HW133980   2.858   4.346  12.639
 7489SOL    HW233981   3.019   4.354  12.612
 7490SOL     OW33982   2.894   4.273  11.188
 7490SOL    HW133983   2.853   4.355  11.149
 7490SOL    HW233984   2.958   4.299  11.261
 7491SOL     OW33985   3.252   4.299  11.250
 7491SOL    HW133986   3.198   4.278  11.331
 7491SOL    HW233987   3.343   4.258  11.259
 7492SOL     OW33988   2.777   3.813  12.574
 7492SOL    HW133989   2.802   3.793  12.479
 7492SOL    HW233990   2.849   3.869  12.616
 7493SOL     OW33991   2.272   4.537  12.423
 7493SOL    HW133992   2.358   4.549  12.473
 7493SOL    HW233993   2.230   4.450  12.450
 7494SOL     OW33994   3.136   4.110  12.434
 7494SOL    HW133995   3.157   4.184  12.498
 7494SOL    HW233996   3.047   4.127  12.391
 7495SOL     OW33997   3.449   4.503  12.842
 7495SOL    HW133998   3.357   4.541  12.837
 7495SOL    HW233999   3.509   4.550  12.777
 7496SOL     OW34000   2.875   3.829  12.942
 7496SOL    HW134001   2.881   3.914  12.890
 7496SOL    HW234002   2.907   3.753  12.885
 7497SOL     OW34003   3.222   4.586  12.217
 7497SOL    HW134004   3.147   4.586  12.151
 7497SOL    HW234005   3.259   4.494  12.226
 7498SOL     OW34006   2.594   4.358  12.236
 7498SOL    HW134007   2.653   4.332  12.160
 7498SOL    HW234008   2.566   4.454  12.225
 7499SOL     OW34009   2.169   3.787  11.790
 7499SOL    HW134010   2.158   3.881  11.823
 7499SOL    HW234011   2.164   3.724  11.867
 7500SOL     OW34012   2.212   4.622  12.976
 7500SOL    HW134013   2.288   4.666  13.024
 7500SOL    HW234014   2.247   4.575  12.894
 7501SOL     OW34015   2.181   4.534  12.121
 7501SOL    HW134016   2.274   4.570  12.126
 7501SOL    HW234017   2.175   4.449  12.173
 7502SOL     OW34018   3.000   4.104  12.850
 7502SOL    HW134019   2.955   4.167  12.914
 7502SOL    HW234020   3.093   4.135  12.833
 7503SOL     OW34021   3.022   3.931  12.649
 7503SOL    HW134022   3.022   3.995  12.726
 7503SOL    HW234023   3.050   3.979  12.566
 7504SOL     OW34024   3.231   4.674  12.832
 7504SOL    HW134025   3.270   4.763  12.852
 7504SOL    HW234026   3.241   4.654  12.735
 7505SOL     OW34027   2.021   4.861  12.638
 7505SOL    HW134028   2.043   4.800  12.714
 7505SOL    HW234029   2.031   4.812  12.552
 7506SOL     OW34030   3.164   4.579  11.481
 7506SOL    HW134031   3.078   4.548  11.523
 7506SOL    HW234032   3.160   4.565  11.382
 7507SOL     OW34033   3.571   4.109  12.553
 7507SOL    HW134034   3.644   4.178  12.557
 7507SOL    HW234035   3.599   4.034  12.494
 7508SOL     OW34036   2.534   3.927  12.661
 7508SOL    HW134037   2.624   3.911  12.621
 7508SOL    HW234038   2.542   3.932  12.760
 7509SOL     OW34039   2.578   4.289  12.880
 7509SOL    HW134040   2.597   4.354  12.954
 7509SOL    HW234041   2.638   4.209  12.889
 7510SOL     OW34042   3.639   4.066  12.814
 7510SOL    HW134043   3.622   4.097  12.720
 7510SOL    HW234044   3.555   4.029  12.852
 7511SOL     OW34045   3.592   4.658  12.689
 7511SOL    HW134046   3.630   4.749  12.704
 7511SOL    HW234047   3.584   4.641  12.590
 7512SOL     OW34048   3.686   3.916  12.399
 7512SOL    HW134049   3.682   3.826  12.443
 7512SOL    HW234050   3.689   3.905  12.300
 7513SOL     OW34051   2.863   3.758  12.326
 7513SOL    HW134052   2.800   3.686  12.295
 7513SOL    HW234053   2.956   3.722  12.326
 7514SOL     OW34054   3.455   3.945  12.054
 7514SOL    HW134055   3.371   3.944  12.108
 7514SOL    HW234056   3.457   4.028  11.998
 7515SOL     OW34057   1.901   4.801  11.472
 7515SOL    HW134058   2.000   4.790  11.463
 7515SOL    HW234059   1.861   4.715  11.504
 7516SOL     OW34060   2.087   3.999  14.030
 7516SOL    HW134061   2.122   3.982  14.122
 7516SOL    HW234062   1.999   3.954  14.018
 7517SOL     OW34063   1.881   4.092  13.681
 7517SOL    HW134064   1.799   4.135  13.720
 7517SOL    HW234065   1.853   4.019  13.618
 7518SOL     OW34066   2.300   4.116  14.533
 7518SOL    HW134067   2.382   4.060  14.542
 7518SOL    HW234068   2.219   4.058  14.537
 7519SOL     OW34069   3.551   4.646  13.646
 7519SOL    HW134070   3.646   4.617  13.654
 7519SOL    HW234071   3.543   4.711  13.571
 7520SOL     OW34072   1.975   4.461  14.631
 7520SOL    HW134073   2.063   4.448  14.676
 7520SOL    HW234074   1.962   4.558  14.609
 7521SOL     OW34075   3.387   4.723  13.224
 7521SOL    HW134076   3.324   4.647  13.237
 7521SOL    HW234077   3.435   4.741  13.310
 7522SOL     OW34078   2.179   3.975  14.835
 7522SOL    HW134079   2.250   4.046  14.841
 7522SOL    HW234080   2.091   4.014  14.863
 7523SOL     OW34081   2.669   4.329  14.499
 7523SOL    HW134082   2.622   4.326  14.588
 7523SOL    HW234083   2.618   4.274  14.433
 7524SOL     OW34084   3.256   4.193  14.708
 7524SOL    HW134085   3.236   4.236  14.796
 7524SOL    HW234086   3.334   4.131  14.717
 7525SOL     OW34087   2.853   4.134  14.276
 7525SOL    HW134088   2.776   4.168  14.330
 7525SOL    HW234089   2.819   4.083  14.197
 7526SOL     OW34090   2.903   4.425  13.463
 7526SOL    HW134091   2.929   4.421  13.559
 7526SOL    HW234092   2.818   4.374  13.449
 7527SOL     OW34093   3.409   3.946  14.763
 7527SOL    HW134094   3.404   3.983  14.855
 7527SOL    HW234095   3.337   3.877  14.751
 7528SOL     OW34096   2.784   4.227  13.933
 7528SOL    HW134097   2.759   4.218  13.837
 7528SOL    HW234098   2.832   4.145  13.964
 7529SOL     OW34099   2.894   4.273  13.050
 7529SOL    HW134100   2.853   4.355  13.011
 7529SOL    HW234101   2.958   4.299  13.123
 7530SOL     OW34102   2.423   3.946  14.181
 7530SOL    HW134103   2.461   3.862  14.218
 7530SOL    HW234104   2.335   3.965  14.225
 7531SOL     OW34105   2.879   3.763  13.787
 7531SOL    HW134106   2.807   3.768  13.718
 7531SOL    HW234107   2.855   3.694  13.856
 7532SOL     OW34108   3.291   4.897  13.901
 7532SOL    HW134109   3.236   4.813  13.894
 7532SOL    HW234110   3.317   4.926  13.809
 7533SOL     OW34111   3.252   4.299  13.112
 7533SOL    HW134112   3.198   4.278  13.193
 7533SOL    HW234113   3.343   4.258  13.121
 7534SOL     OW34114   2.777   3.813  14.436
 7534SOL    HW134115   2.802   3.793  14.341
 7534SOL    HW234116   2.849   3.869  14.478
 7535SOL     OW34117   3.136   4.110  14.296
 7535SOL    HW134118   3.157   4.184  14.360
 7535SOL    HW234119   3.047   4.127  14.253
 7536SOL     OW34120   3.444   4.363  13.506
 7536SOL    HW134121   3.413   4.424  13.579
 7536SOL    HW234122   3.494   4.415  13.437
 7537SOL     OW34123   2.366   3.774  14.774
 7537SOL    HW134124   2.324   3.717  14.704
 7537SOL    HW234125   2.300   3.843  14.806
 7538SOL     OW34126   2.169   3.937  14.265
 7538SOL    HW134127   2.146   3.974  14.355
 7538SOL    HW234128   2.139   3.842  14.259
 7539SOL     OW34129   2.594   4.358  14.098
 7539SOL    HW134130   2.653   4.332  14.022
 7539SOL    HW234131   2.566   4.454  14.087
 7540SOL     OW34132   2.212   4.622  14.838
 7540SOL    HW134133   2.288   4.666  14.886
 7540SOL    HW234134   2.247   4.575  14.756
 7541SOL     OW34135   3.165   4.562  13.076
 7541SOL    HW134136   3.199   4.469  13.091
 7541SOL    HW234137   3.183   4.589  12.981
 7542SOL     OW34138   2.181   4.534  13.983
 7542SOL    HW134139   2.274   4.570  13.988
 7542SOL    HW234140   2.175   4.449  14.035
 7543SOL     OW34141   2.201   4.233  14.040
 7543SOL    HW134142   2.149   4.150  14.023
 7543SOL    HW234143   2.278   4.238  13.976
 7544SOL     OW34144   3.022   3.931  14.511
 7544SOL    HW134145   3.022   3.995  14.588
 7544SOL    HW234146   3.050   3.979  14.428
 7545SOL     OW34147   2.864   4.520  14.272
 7545SOL    HW134148   2.905   4.488  14.358
 7545SOL    HW234149   2.768   4.493  14.269
 7546SOL     OW34150   2.051   4.244  14.756
 7546SOL    HW134151   2.110   4.204  14.686
 7546SOL    HW234152   1.993   4.315  14.715
 7547SOL     OW34153   2.533   4.188  14.303
 7547SOL    HW134154   2.499   4.099  14.273
 7547SOL    HW234155   2.559   4.242  14.223
 7548SOL     OW34156   3.164   4.579  13.343
 7548SOL    HW134157   3.078   4.548  13.385
 7548SOL    HW234158   3.160   4.565  13.244
 7549SOL     OW34159   3.142   4.651  13.706
 7549SOL    HW134160   3.202   4.570  13.708
 7549SOL    HW234161   3.182   4.720  13.646
 7550SOL     OW34162   2.778   4.634  13.325
 7550SOL    HW134163   2.841   4.672  13.257
 7550SOL    HW234164   2.818   4.551  13.364
 7551SOL     OW34165   2.876   3.960  14.005
 7551SOL    HW134166   2.868   3.924  13.912
 7551SOL    HW234167   2.874   3.884  14.070
 7552SOL     OW34168   1.937   4.069  13.067
 7552SOL    HW134169   1.845   4.041  13.038
 7552SOL    HW234170   1.968   4.146  13.011
 7553SOL     OW34171   1.934   3.890  13.352
 7553SOL    HW134172   1.917   3.973  13.298
 7553SOL    HW234173   2.024   3.853  13.330
 7554SOL     OW34174   3.087   4.049  13.483
 7554SOL    HW134175   3.152   3.975  13.472
 7554SOL    HW234176   3.107   4.099  13.567
 7555SOL     OW34177   3.639   4.066  14.676
 7555SOL    HW134178   3.622   4.097  14.582
 7555SOL    HW234179   3.555   4.029  14.714
 7556SOL     OW34180   2.945   4.708  13.121
 7556SOL    HW134181   2.922   4.761  13.039
 7556SOL    HW234182   3.026   4.652  13.102
 7557SOL     OW34183   2.179   4.271  14.314
 7557SOL    HW134184   2.217   4.212  14.386
 7557SOL    HW234185   2.219   4.245  14.226
 7558SOL     OW34186   2.092   4.352  15.009
 7558SOL    HW134187   1.999   4.350  15.046
 7558SOL    HW234188   2.093   4.313  14.917
 7559SOL     OW34189   2.087   3.999  15.893
 7559SOL    HW134190   2.122   3.982  15.985
 7559SOL    HW234191   1.999   3.954  15.881
 7560SOL     OW34192   2.712   4.522  16.720
 7560SOL    HW134193   2.708   4.598  16.785
 7560SOL    HW234194   2.734   4.558  16.629
 7561SOL     OW34195   2.102   4.815  15.782
 7561SOL    HW134196   2.116   4.731  15.834
 7561SOL    HW234197   2.047   4.879  15.837
 7562SOL     OW34198   2.468   4.688  15.019
 7562SOL    HW134199   2.475   4.772  14.965
 7562SOL    HW234200   2.514   4.701  15.107
 7563SOL     OW34201   2.460   4.453  15.166
 7563SOL    HW134202   2.484   4.522  15.098
 7563SOL    HW234203   2.382   4.486  15.220
 7564SOL     OW34204   2.669   4.329  16.362
 7564SOL    HW134205   2.622   4.326  16.451
 7564SOL    HW234206   2.618   4.274  16.296
 7565SOL     OW34207   2.853   4.134  16.139
 7565SOL    HW134208   2.776   4.168  16.193
 7565SOL    HW234209   2.819   4.083  16.060
 7566SOL     OW34210   3.262   3.831  15.322
 7566SOL    HW134211   3.238   3.794  15.232
 7566SOL    HW234212   3.361   3.847  15.326
 7567SOL     OW34213   2.784   4.227  15.795
 7567SOL    HW134214   2.759   4.218  15.699
 7567SOL    HW234215   2.832   4.145  15.826
 7568SOL     OW34216   2.159   3.759  15.067
 7568SOL    HW134217   2.208   3.843  15.046
 7568SOL    HW234218   2.221   3.694  15.112
 7569SOL     OW34219   1.940   4.280  16.283
 7569SOL    HW134220   2.032   4.279  16.242
 7569SOL    HW234221   1.934   4.354  16.350
 7570SOL     OW34222   2.728   4.178  15.538
 7570SOL    HW134223   2.696   4.250  15.476
 7570SOL    HW234224   2.752   4.097  15.485
 7571SOL     OW34225   2.879   3.763  15.649
 7571SOL    HW134226   2.807   3.768  15.580
 7571SOL    HW234227   2.855   3.694  15.718
 7572SOL     OW34228   2.389   3.980  15.224
 7572SOL    HW134229   2.416   3.921  15.149
 7572SOL    HW234230   2.389   4.075  15.193
 7573SOL     OW34231   2.777   3.813  16.299
 7573SOL    HW134232   2.802   3.793  16.204
 7573SOL    HW234233   2.849   3.869  16.341
 7574SOL     OW34234   3.136   4.110  16.159
 7574SOL    HW134235   3.157   4.184  16.223
 7574SOL    HW234236   3.047   4.127  16.116
 7575SOL     OW34237   3.449   4.503  16.567
 7575SOL    HW134238   3.357   4.541  16.562
 7575SOL    HW234239   3.509   4.550  16.502
 7576SOL     OW34240   2.435   4.594  15.926
 7576SOL    HW134241   2.479   4.683  15.917
 7576SOL    HW234242   2.372   4.594  16.003
 7577SOL     OW34243   2.594   4.358  15.961
 7577SOL    HW134244   2.653   4.332  15.885
 7577SOL    HW234245   2.566   4.454  15.950
 7578SOL     OW34246   2.169   3.787  15.514
 7578SOL    HW134247   2.158   3.881  15.547
 7578SOL    HW234248   2.164   3.724  15.591
 7579SOL     OW34249   2.885   4.490  15.863
 7579SOL    HW134250   2.900   4.511  15.959
 7579SOL    HW234251   2.855   4.395  15.854
 7580SOL     OW34252   2.212   4.622  16.701
 7580SOL    HW134253   2.288   4.666  16.749
 7580SOL    HW234254   2.247   4.575  16.619
 7581SOL     OW34255   2.864   4.520  16.135
 7581SOL    HW134256   2.905   4.488  16.221
 7581SOL    HW234257   2.768   4.493  16.132
 7582SOL     OW34258   1.902   4.268  16.011
 7582SOL    HW134259   1.987   4.235  15.970
 7582SOL    HW234260   1.915   4.283  16.109
 7583SOL     OW34261   3.231   4.674  16.557
 7583SOL    HW134262   3.270   4.763  16.577
 7583SOL    HW234263   3.241   4.654  16.460
 7584SOL     OW34264   2.533   4.188  16.166
 7584SOL    HW134265   2.499   4.099  16.136
 7584SOL    HW234266   2.559   4.242  16.086
 7585SOL     OW34267   2.335   4.224  15.087
 7585SOL    HW134268   2.396   4.304  15.091
 7585SOL    HW234269   2.240   4.255  15.094
 7586SOL     OW34270   3.588   3.859  15.419
 7586SOL    HW134271   3.661   3.842  15.352
 7586SOL    HW234272   3.557   3.772  15.457
 7587SOL     OW34273   2.125   4.050  15.616
 7587SOL    HW134274   2.046   4.101  15.582
 7587SOL    HW234275   2.116   4.035  15.714
 7588SOL     OW34276   2.876   3.960  15.868
 7588SOL    HW134277   2.868   3.924  15.775
 7588SOL    HW234278   2.874   3.884  15.933
 7589SOL     OW34279   1.937   4.069  14.929
 7589SOL    HW134280   1.845   4.041  14.900
 7589SOL    HW234281   1.968   4.146  14.873
 7590SOL     OW34282   1.934   3.890  15.214
 7590SOL    HW134283   1.917   3.973  15.160
 7590SOL    HW234284   2.024   3.853  15.192
 7591SOL     OW34285   3.045   5.059  15.015
 7591SOL    HW134286   2.946   5.048  15.017
 7591SOL    HW234287   3.079   5.074  15.108
 7592SOL     OW34288   3.592   4.658  16.414
 7592SOL    HW134289   3.630   4.749  16.429
 7592SOL    HW234290   3.584   4.641  16.315
 7593SOL     OW34291   3.286   3.938  16.009
 7593SOL    HW134292   3.338   3.873  16.064
 7593SOL    HW234293   3.237   4.001  16.070
 7594SOL     OW34294   2.863   3.758  16.051
 7594SOL    HW134295   2.800   3.686  16.020
 7594SOL    HW234296   2.956   3.722  16.051
 7595SOL     OW34297   3.214   3.776  15.064
 7595SOL    HW134298   3.249   3.735  14.980
 7595SOL    HW234299   3.124   3.738  15.084
 7596SOL     OW34300   2.087   3.999  17.755
 7596SOL    HW134301   2.122   3.982  17.847
 7596SOL    HW234302   1.999   3.954  17.743
 7597SOL     OW34303   1.881   4.092  17.406
 7597SOL    HW134304   1.799   4.135  17.445
 7597SOL    HW234305   1.853   4.019  17.343
 7598SOL     OW34306   2.468   4.688  16.882
 7598SOL    HW134307   2.475   4.772  16.828
 7598SOL    HW234308   2.514   4.701  16.970
 7599SOL     OW34309   1.984   4.367  17.322
 7599SOL    HW134310   1.939   4.279  17.339
 7599SOL    HW234311   1.983   4.421  17.406
 7600SOL     OW34312   2.671   3.728  17.261
 7600SOL    HW134313   2.711   3.819  17.252
 7600SOL    HW234314   2.571   3.736  17.267
 7601SOL     OW34315   2.059   4.700  18.023
 7601SOL    HW134316   2.148   4.655  18.009
 7601SOL    HW234317   1.986   4.635  18.004
 7602SOL     OW34318   2.412   3.920  17.644
 7602SOL    HW134319   2.407   3.915  17.744
 7602SOL    HW234320   2.414   4.016  17.615
 7603SOL     OW34321   3.320   4.459  17.487
 7603SOL    HW134322   3.315   4.394  17.562
 7603SOL    HW234323   3.400   4.518  17.500
 7604SOL     OW34324   2.244   4.424  17.239
 7604SOL    HW134325   2.289   4.334  17.236
 7604SOL    HW234326   2.150   4.413  17.272
 7605SOL     OW34327   2.784   4.227  17.658
 7605SOL    HW134328   2.759   4.218  17.562
 7605SOL    HW234329   2.832   4.145  17.689
 7606SOL     OW34330   2.401   3.788  17.271
 7606SOL    HW134331   2.320   3.789  17.329
 7606SOL    HW234332   2.404   3.871  17.216
 7607SOL     OW34333   2.797   3.960  17.239
 7607SOL    HW134334   2.749   4.001  17.161
 7607SOL    HW234335   2.896   3.958  17.220
 7608SOL     OW34336   2.894   4.273  16.775
 7608SOL    HW134337   2.853   4.355  16.736
 7608SOL    HW234338   2.958   4.299  16.848
 7609SOL     OW34339   2.879   3.763  17.512
 7609SOL    HW134340   2.807   3.768  17.443
 7609SOL    HW234341   2.855   3.694  17.581
 7610SOL     OW34342   3.444   4.363  17.231
 7610SOL    HW134343   3.413   4.424  17.304
 7610SOL    HW234344   3.494   4.415  17.162
 7611SOL     OW34345   3.071   4.249  17.034
 7611SOL    HW134346   3.084   4.165  17.088
 7611SOL    HW234347   3.042   4.323  17.094
 7612SOL     OW34348   2.169   3.937  17.990
 7612SOL    HW134349   2.146   3.974  18.080
 7612SOL    HW234350   2.139   3.842  17.984
 7613SOL     OW34351   3.165   4.562  16.801
 7613SOL    HW134352   3.199   4.469  16.816
 7613SOL    HW234353   3.183   4.589  16.706
 7614SOL     OW34354   2.201   4.233  17.765
 7614SOL    HW134355   2.149   4.150  17.748
 7614SOL    HW234356   2.278   4.238  17.701
 7615SOL     OW34357   3.022   3.931  18.236
 7615SOL    HW134358   3.022   3.995  18.313
 7615SOL    HW234359   3.050   3.979  18.153
 7616SOL     OW34360   1.902   4.268  17.873
 7616SOL    HW134361   1.987   4.235  17.832
 7616SOL    HW234362   1.915   4.283  17.971
 7617SOL     OW34363   3.164   4.579  17.068
 7617SOL    HW134364   3.078   4.548  17.110
 7617SOL    HW234365   3.160   4.565  16.969
 7618SOL     OW34366   3.588   3.859  17.282
 7618SOL    HW134367   3.661   3.842  17.215
 7618SOL    HW234368   3.557   3.772  17.320
 7619SOL     OW34369   3.703   3.899  17.722
 7619SOL    HW134370   3.742   3.814  17.686
 7619SOL    HW234371   3.605   3.901  17.703
 7620SOL     OW34372   2.125   4.050  17.479
 7620SOL    HW134373   2.046   4.101  17.445
 7620SOL    HW234374   2.116   4.035  17.577
 7621SOL     OW34375   2.778   4.634  17.050
 7621SOL    HW134376   2.841   4.672  16.982
 7621SOL    HW234377   2.818   4.551  17.089
 7622SOL     OW34378   2.876   3.960  17.730
 7622SOL    HW134379   2.868   3.924  17.637
 7622SOL    HW234380   2.874   3.884  17.795
 7623SOL     OW34381   2.456   4.469  17.411
 7623SOL    HW134382   2.506   4.554  17.392
 7623SOL    HW234383   2.368   4.471  17.363
 7624SOL     OW34384   2.945   4.708  16.846
 7624SOL    HW134385   2.922   4.761  16.764
 7624SOL    HW234386   3.026   4.652  16.827
 7625SOL     OW34387   2.290   4.148  17.279
 7625SOL    HW134388   2.320   4.076  17.217
 7625SOL    HW234389   2.251   4.108  17.362
 7626SOL     OW34390   3.949   0.275   0.996
 7626SOL    HW134391   3.984   0.258   1.088
 7626SOL    HW234392   3.861   0.230   0.984
 7627SOL     OW34393   3.743   0.368   0.647
 7627SOL    HW134394   3.661   0.411   0.686
 7627SOL    HW234395   3.715   0.295   0.584
 7628SOL     OW34396   4.492   1.144   1.023
 7628SOL    HW134397   4.414   1.161   1.083
 7628SOL    HW234398   4.526   1.231   0.987
 7629SOL     OW34399   4.574   0.798   1.823
 7629SOL    HW134400   4.570   0.874   1.888
 7629SOL    HW234401   4.596   0.834   1.732
 7630SOL     OW34402   4.409   1.012   0.665
 7630SOL    HW134403   4.478   0.996   0.735
 7630SOL    HW234404   4.336   1.069   0.703
 7631SOL     OW34405   4.410   1.161   1.803
 7631SOL    HW134406   4.470   1.240   1.817
 7631SOL    HW234407   4.324   1.192   1.762
 7632SOL     OW34408   4.059   1.435   1.061
 7632SOL    HW134409   3.981   1.404   1.008
 7632SOL    HW234410   4.117   1.493   1.004
 7633SOL     OW34411   4.162   0.392   1.499
 7633SOL    HW134412   4.244   0.336   1.508
 7633SOL    HW234413   4.081   0.334   1.503
 7634SOL     OW34414   3.955   1.713   0.483
 7634SOL    HW134415   3.989   1.790   0.537
 7634SOL    HW234416   3.999   1.713   0.393
 7635SOL     OW34417   4.344   1.786   1.439
 7635SOL    HW134418   4.252   1.769   1.474
 7635SOL    HW234419   4.372   1.878   1.465
 7636SOL     OW34420   3.837   0.737   1.597
 7636SOL    HW134421   3.925   0.724   1.642
 7636SOL    HW234422   3.824   0.834   1.575
 7637SOL     OW34423   4.337   1.365   0.726
 7637SOL    HW134424   4.288   1.278   0.735
 7637SOL    HW234425   4.314   1.408   0.639
 7638SOL     OW34426   4.533   0.004   0.502
 7638SOL    HW134427   4.573   0.095   0.493
 7638SOL    HW234428   4.433   0.012   0.508
 7639SOL     OW34429   4.041   0.251   1.801
 7639SOL    HW134430   4.112   0.322   1.807
 7639SOL    HW234431   3.953   0.290   1.829
 7640SOL     OW34432   4.322   0.729   0.270
 7640SOL    HW134433   4.346   0.798   0.202
 7640SOL    HW234434   4.244   0.762   0.324
 7641SOL     OW34435   4.531   0.605   1.465
 7641SOL    HW134436   4.484   0.602   1.554
 7641SOL    HW234437   4.480   0.550   1.399
 7642SOL     OW34438   4.697   0.890   1.572
 7642SOL    HW134439   4.743   0.806   1.543
 7642SOL    HW234440   4.641   0.924   1.497
 7643SOL     OW34441   4.715   0.410   1.242
 7643SOL    HW134442   4.638   0.444   1.296
 7643SOL    HW234443   4.681   0.359   1.163
 7644SOL     OW34444   4.274   0.196   0.885
 7644SOL    HW134445   4.269   0.191   0.985
 7644SOL    HW234446   4.276   0.292   0.856
 7645SOL     OW34447   4.185   1.266   1.727
 7645SOL    HW134448   4.135   1.267   1.641
 7645SOL    HW234449   4.122   1.248   1.803
 7646SOL     OW34450   3.926   0.285   1.498
 7646SOL    HW134451   3.846   0.345   1.485
 7646SOL    HW234452   3.916   0.236   1.584
 7647SOL     OW34453   4.527   1.402   0.924
 7647SOL    HW134454   4.617   1.416   0.882
 7647SOL    HW234455   4.456   1.404   0.853
 7648SOL     OW34456   4.646   0.503   0.899
 7648SOL    HW134457   4.621   0.494   0.803
 7648SOL    HW234458   4.694   0.421   0.930
 7649SOL     OW34459   4.659   0.236   0.480
 7649SOL    HW134460   4.611   0.277   0.402
 7649SOL    HW234461   4.758   0.234   0.461
 7650SOL     OW34462   4.183   1.152   0.741
 7650SOL    HW134463   4.112   1.125   0.806
 7650SOL    HW234464   4.157   1.124   0.648
 7651SOL     OW34465   4.590   0.454   0.642
 7651SOL    HW134466   4.558   0.526   0.580
 7651SOL    HW234467   4.614   0.373   0.589
 7652SOL     OW34468   4.741   0.039   0.753
 7652SOL    HW134469   4.669   0.044   0.684
 7652SOL    HW234470   4.717  -0.030   0.822
 7653SOL     OW34471   4.704   1.116   1.719
 7653SOL    HW134472   4.605   1.122   1.729
 7653SOL    HW234473   4.727   1.036   1.663
 7654SOL     OW34474   4.429   1.050   0.368
 7654SOL    HW134475   4.415   1.057   0.467
 7654SOL    HW234476   4.513   0.999   0.350
 7655SOL     OW34477   4.091   1.100   0.501
 7655SOL    HW134478   4.084   1.183   0.445
 7655SOL    HW234479   4.095   1.020   0.441
 7656SOL     OW34480   4.290   0.537   0.865
 7656SOL    HW134481   4.302   0.603   0.791
 7656SOL    HW234482   4.336   0.571   0.948
 7657SOL     OW34483   4.078   1.510   1.329
 7657SOL    HW134484   4.057   1.466   1.242
 7657SOL    HW234485   4.175   1.536   1.332
 7658SOL     OW34486   4.747   0.766   0.966
 7658SOL    HW134487   4.762   0.787   1.062
 7658SOL    HW234488   4.717   0.671   0.957
 7659SOL     OW34489   4.704   1.573   1.700
 7659SOL    HW134490   4.684   1.617   1.612
 7659SOL    HW234491   4.743   1.482   1.684
 7660SOL     OW34492   4.074   0.898   1.804
 7660SOL    HW134493   4.150   0.942   1.852
 7660SOL    HW234494   4.109   0.851   1.722
 7661SOL     OW34495   4.228   1.568   0.910
 7661SOL    HW134496   4.294   1.642   0.919
 7661SOL    HW234497   4.272   1.489   0.868
 7662SOL     OW34498   3.913   0.520   1.722
 7662SOL    HW134499   3.972   0.480   1.652
 7662SOL    HW234500   3.855   0.591   1.681
 7663SOL     OW34501   3.976   1.564   1.744
 7663SOL    HW134502   3.946   1.621   1.820
 7663SOL    HW234503   3.969   1.467   1.770
 7664SOL     OW34504   4.654   1.678   1.465
 7664SOL    HW134505   4.630   1.660   1.370
 7664SOL    HW234506   4.684   1.772   1.475
 7665SOL     OW34507   3.883   1.137   1.466
 7665SOL    HW134508   3.905   1.076   1.542
 7665SOL    HW234509   3.893   1.088   1.380
 7666SOL     OW34510   4.412   1.662   1.716
 7666SOL    HW134511   4.356   1.743   1.725
 7666SOL    HW234512   4.464   1.666   1.630
 7667SOL     OW34513   3.854   1.794   1.851
 7667SOL    HW134514   3.813   1.720   1.904
 7667SOL    HW234515   3.918   1.845   1.909
 7668SOL     OW34516   5.004   0.927   0.672
 7668SOL    HW134517   5.064   0.846   0.674
 7668SOL    HW234518   5.044   0.996   0.612
 7669SOL     OW34519   3.987   0.326   0.720
 7669SOL    HW134520   3.908   0.377   0.686
 7669SOL    HW234521   3.978   0.311   0.818
 7670SOL     OW34522   4.640   0.910   0.291
 7670SOL    HW134523   4.703   0.948   0.223
 7670SOL    HW234524   4.680   0.827   0.330
 7671SOL     OW34525   4.096   1.288   1.490
 7671SOL    HW134526   4.083   1.381   1.456
 7671SOL    HW234527   4.012   1.236   1.477
 7672SOL     OW34528   4.763   1.098   0.696
 7672SOL    HW134529   4.693   1.051   0.750
 7672SOL    HW234530   4.822   1.030   0.653
 7673SOL     OW34531   4.738   0.236   0.971
 7673SOL    HW134532   4.730   0.200   0.878
 7673SOL    HW234533   4.736   0.160   1.036
 7674SOL     OW34534   3.979   1.348   0.290
 7674SOL    HW134535   3.883   1.349   0.263
 7674SOL    HW234536   3.991   1.401   0.374
 7675SOL     OW34537   3.829   1.013   1.726
 7675SOL    HW134538   3.752   0.980   1.780
 7675SOL    HW234539   3.914   0.983   1.768
 7676SOL     OW34540   4.396   0.203   1.489
 7676SOL    HW134541   4.486   0.187   1.449
 7676SOL    HW234542   4.404   0.208   1.588
 7677SOL     OW34543   4.440   0.565   1.708
 7677SOL    HW134544   4.459   0.630   1.782
 7677SOL    HW234545   4.500   0.485   1.717
 7678SOL     OW34546   4.114   1.741   1.560
 7678SOL    HW134547   4.023   1.782   1.558
 7678SOL    HW234548   4.107   1.647   1.592
 7679SOL     OW34549   4.318   0.745   0.652
 7679SOL    HW134550   4.368   0.830   0.633
 7679SOL    HW234551   4.230   0.747   0.604
 7680SOL     OW34552   4.385   1.790   0.953
 7680SOL    HW134553   4.339   1.878   0.940
 7680SOL    HW234554   4.484   1.802   0.946
 7681SOL     OW34555   3.945   1.314   1.844
 7681SOL    HW134556   3.880   1.241   1.823
 7681SOL    HW234557   3.949   1.328   1.942
 7682SOL     OW34558   4.396   1.391   1.624
 7682SOL    HW134559   4.318   1.341   1.662
 7682SOL    HW234560   4.393   1.486   1.655
 7683SOL     OW34561   4.494   1.330   0.301
 7683SOL    HW134562   4.448   1.243   0.318
 7683SOL    HW234563   4.585   1.327   0.342
 7684SOL     OW34564   3.954   0.628   1.975
 7684SOL    HW134565   3.861   0.626   2.012
 7684SOL    HW234566   3.955   0.589   1.883
 7685SOL     OW34567   3.949   0.275   2.858
 7685SOL    HW134568   3.984   0.258   2.950
 7685SOL    HW234569   3.861   0.230   2.846
 7686SOL     OW34570   3.743   0.368   2.509
 7686SOL    HW134571   3.661   0.411   2.548
 7686SOL    HW234572   3.715   0.295   2.446
 7687SOL     OW34573   4.293   1.275   3.027
 7687SOL    HW134574   4.200   1.268   2.990
 7687SOL    HW234575   4.304   1.364   3.071
 7688SOL     OW34576   4.492   1.144   2.885
 7688SOL    HW134577   4.414   1.161   2.945
 7688SOL    HW234578   4.526   1.231   2.849
 7689SOL     OW34579   4.574   0.798   3.685
 7689SOL    HW134580   4.570   0.874   3.750
 7689SOL    HW234581   4.596   0.834   3.594
 7690SOL     OW34582   4.409   1.012   2.527
 7690SOL    HW134583   4.478   0.996   2.597
 7690SOL    HW234584   4.336   1.069   2.565
 7691SOL     OW34585   4.410   1.161   3.665
 7691SOL    HW134586   4.470   1.240   3.679
 7691SOL    HW234587   4.324   1.192   3.624
 7692SOL     OW34588   4.059   1.435   2.923
 7692SOL    HW134589   3.981   1.404   2.870
 7692SOL    HW234590   4.117   1.493   2.866
 7693SOL     OW34591   4.162   0.392   3.361
 7693SOL    HW134592   4.244   0.336   3.370
 7693SOL    HW234593   4.081   0.334   3.365
 7694SOL     OW34594   3.955   1.713   2.345
 7694SOL    HW134595   3.989   1.790   2.399
 7694SOL    HW234596   3.999   1.713   2.255
 7695SOL     OW34597   3.954   1.434   2.400
 7695SOL    HW134598   3.928   1.530   2.400
 7695SOL    HW234599   3.883   1.380   2.445
 7696SOL     OW34600   3.964   1.091   2.748
 7696SOL    HW134601   3.978   1.007   2.800
 7696SOL    HW234602   3.909   1.155   2.803
 7697SOL     OW34603   4.344   1.786   3.301
 7697SOL    HW134604   4.252   1.769   3.336
 7697SOL    HW234605   4.372   1.878   3.327
 7698SOL     OW34606   4.330   0.964   1.985
 7698SOL    HW134607   4.337   1.048   1.931
 7698SOL    HW234608   4.376   0.977   2.073
 7699SOL     OW34609   3.846   0.643   2.425
 7699SOL    HW134610   3.801   0.555   2.442
 7699SOL    HW234611   3.845   0.697   2.509
 7700SOL     OW34612   3.751   1.596   1.979
 7700SOL    HW134613   3.732   1.500   2.000
 7700SOL    HW234614   3.718   1.654   2.054
 7701SOL     OW34615   3.837   0.737   3.459
 7701SOL    HW134616   3.925   0.724   3.504
 7701SOL    HW234617   3.824   0.834   3.437
 7702SOL     OW34618   4.337   1.365   2.588
 7702SOL    HW134619   4.288   1.278   2.597
 7702SOL    HW234620   4.314   1.408   2.501
 7703SOL     OW34621   4.533   0.004   2.364
 7703SOL    HW134622   4.573   0.095   2.355
 7703SOL    HW234623   4.433   0.012   2.370
 7704SOL     OW34624   3.921   0.976   3.126
 7704SOL    HW134625   4.010   0.931   3.112
 7704SOL    HW234626   3.848   0.911   3.107
 7705SOL     OW34627   4.041   0.251   3.663
 7705SOL    HW134628   4.112   0.322   3.669
 7705SOL    HW234629   3.953   0.290   3.691
 7706SOL     OW34630   4.322   0.729   2.132
 7706SOL    HW134631   4.346   0.798   2.064
 7706SOL    HW234632   4.244   0.762   2.186
 7707SOL     OW34633   4.531   0.605   3.327
 7707SOL    HW134634   4.484   0.602   3.416
 7707SOL    HW234635   4.480   0.550   3.261
 7708SOL     OW34636   4.697   0.890   3.434
 7708SOL    HW134637   4.743   0.806   3.405
 7708SOL    HW234638   4.641   0.924   3.359
 7709SOL     OW34639   4.715   0.410   3.104
 7709SOL    HW134640   4.638   0.444   3.158
 7709SOL    HW234641   4.681   0.359   3.025
 7710SOL     OW34642   3.800   0.811   2.651
 7710SOL    HW134643   3.899   0.799   2.660
 7710SOL    HW234644   3.776   0.906   2.672
 7711SOL     OW34645   3.854   1.821   3.433
 7711SOL    HW134646   3.844   1.806   3.532
 7711SOL    HW234647   3.768   1.857   3.397
 7712SOL     OW34648   4.589   0.348   2.057
 7712SOL    HW134649   4.648   0.411   2.008
 7712SOL    HW234650   4.608   0.254   2.028
 7713SOL     OW34651   4.732   1.456   2.339
 7713SOL    HW134652   4.686   1.528   2.287
 7713SOL    HW234653   4.728   1.476   2.437
 7714SOL     OW34654   4.075   1.801   2.715
 7714SOL    HW134655   4.125   1.715   2.721
 7714SOL    HW234656   4.140   1.878   2.712
 7715SOL     OW34657   4.045   0.943   2.104
 7715SOL    HW134658   4.127   0.982   2.062
 7715SOL    HW234659   4.018   0.861   2.055
 7716SOL     OW34660   4.185   1.266   3.589
 7716SOL    HW134661   4.135   1.267   3.503
 7716SOL    HW234662   4.122   1.248   3.665
 7717SOL     OW34663   3.926   0.285   3.360
 7717SOL    HW134664   3.846   0.345   3.347
 7717SOL    HW234665   3.916   0.236   3.446
 7718SOL     OW34666   4.188   1.743   2.185
 7718SOL    HW134667   4.221   1.782   2.271
 7718SOL    HW234668   4.264   1.736   2.120
 7719SOL     OW34669   3.973   1.785   3.103
 7719SOL    HW134670   4.030   1.720   3.153
 7719SOL    HW234671   3.957   1.752   3.010
 7720SOL     OW34672   4.106   0.700   2.342
 7720SOL    HW134673   4.151   0.610   2.339
 7720SOL    HW234674   4.012   0.689   2.375
 7721SOL     OW34675   4.338   0.122   1.979
 7721SOL    HW134676   4.436   0.100   1.986
 7721SOL    HW234677   4.307   0.105   1.886
 7722SOL     OW34678   4.505   0.264   3.611
 7722SOL    HW134679   4.572   0.203   3.654
 7722SOL    HW234680   4.432   0.283   3.676
 7723SOL     OW34681   4.612   1.514   3.057
 7723SOL    HW134682   4.589   1.489   2.963
 7723SOL    HW234683   4.673   1.445   3.096
 7724SOL     OW34684   4.527   1.402   2.786
 7724SOL    HW134685   4.617   1.416   2.744
 7724SOL    HW234686   4.456   1.404   2.715
 7725SOL     OW34687   4.646   0.503   2.761
 7725SOL    HW134688   4.621   0.494   2.665
 7725SOL    HW234689   4.694   0.421   2.792
 7726SOL     OW34690   4.263   0.064   2.374
 7726SOL    HW134691   4.182   0.065   2.432
 7726SOL    HW234692   4.266   0.147   2.319
 7727SOL     OW34693   4.021   0.035   2.033
 7727SOL    HW134694   4.070   0.119   2.012
 7727SOL    HW234695   4.083  -0.030   2.078
 7728SOL     OW34696   4.659   0.236   2.342
 7728SOL    HW134697   4.611   0.277   2.264
 7728SOL    HW234698   4.758   0.234   2.323
 7729SOL     OW34699   4.951   1.570   2.655
 7729SOL    HW134700   4.972   1.644   2.590
 7729SOL    HW234701   5.019   1.570   2.728
 7730SOL     OW34702   4.183   1.152   2.603
 7730SOL    HW134703   4.112   1.125   2.668
 7730SOL    HW234704   4.157   1.124   2.510
 7731SOL     OW34705   4.756   0.549   1.878
 7731SOL    HW134706   4.715   0.631   1.839
 7731SOL    HW234707   4.820   0.575   1.951
 7732SOL     OW34708   3.802   0.556   3.248
 7732SOL    HW134709   3.894   0.555   3.207
 7732SOL    HW234710   3.796   0.630   3.315
 7733SOL     OW34711   4.285   0.222   3.009
 7733SOL    HW134712   4.323   0.138   3.046
 7733SOL    HW234713   4.197   0.241   3.053
 7734SOL     OW34714   4.590   0.454   2.504
 7734SOL    HW134715   4.558   0.526   2.442
 7734SOL    HW234716   4.614   0.373   2.451
 7735SOL     OW34717   4.741   0.039   2.615
 7735SOL    HW134718   4.669   0.044   2.546
 7735SOL    HW234719   4.717  -0.030   2.684
 7736SOL     OW34720   4.212   1.385   2.036
 7736SOL    HW134721   4.125   1.370   2.083
 7736SOL    HW234722   4.195   1.411   1.941
 7737SOL     OW34723   4.251   0.256   2.190
 7737SOL    HW134724   4.278   0.197   2.115
 7737SOL    HW234725   4.251   0.351   2.159
 7738SOL     OW34726   4.639   0.089   3.264
 7738SOL    HW134727   4.664   0.069   3.169
 7738SOL    HW234728   4.711   0.145   3.306
 7739SOL     OW34729   4.704   1.116   3.581
 7739SOL    HW134730   4.605   1.122   3.591
 7739SOL    HW234731   4.727   1.036   3.525
 7740SOL     OW34732   4.429   1.050   2.230
 7740SOL    HW134733   4.415   1.057   2.329
 7740SOL    HW234734   4.513   0.999   2.212
 7741SOL     OW34735   4.134   0.813   3.113
 7741SOL    HW134736   4.220   0.825   3.163
 7741SOL    HW234737   4.092   0.726   3.140
 7742SOL     OW34738   3.788   1.564   3.193
 7742SOL    HW134739   3.742   1.646   3.159
 7742SOL    HW234740   3.886   1.583   3.202
 7743SOL     OW34741   4.091   1.100   2.363
 7743SOL    HW134742   4.084   1.183   2.307
 7743SOL    HW234743   4.095   1.020   2.303
 7744SOL     OW34744   4.290   0.537   2.727
 7744SOL    HW134745   4.302   0.603   2.653
 7744SOL    HW234746   4.336   0.571   2.810
 7745SOL     OW34747   4.078   1.510   3.191
 7745SOL    HW134748   4.057   1.466   3.104
 7745SOL    HW234749   4.175   1.536   3.194
 7746SOL     OW34750   4.126   0.751   3.460
 7746SOL    HW134751   4.194   0.806   3.413
 7746SOL    HW234752   4.166   0.663   3.487
 7747SOL     OW34753   4.737   0.105   3.632
 7747SOL    HW134754   4.743   0.190   3.580
 7747SOL    HW234755   4.769   0.029   3.575
 7748SOL     OW34756   4.228   0.050   3.602
 7748SOL    HW134757   4.186  -0.007   3.532
 7748SOL    HW234758   4.162   0.119   3.634
 7749SOL     OW34759   4.297   0.870   2.891
 7749SOL    HW134760   4.341   0.959   2.882
 7749SOL    HW234761   4.234   0.870   2.968
 7750SOL     OW34762   4.933   0.525   2.137
 7750SOL    HW134763   4.946   0.441   2.191
 7750SOL    HW234764   4.904   0.599   2.197
 7751SOL     OW34765   4.031   0.213   3.093
 7751SOL    HW134766   4.008   0.250   3.183
 7751SOL    HW234767   4.001   0.118   3.087
 7752SOL     OW34768   3.761   1.310   3.144
 7752SOL    HW134769   3.814   1.261   3.212
 7752SOL    HW234770   3.783   1.408   3.149
 7753SOL     OW34771   4.456   0.634   2.926
 7753SOL    HW134772   4.515   0.608   2.850
 7753SOL    HW234773   4.428   0.730   2.915
 7754SOL     OW34774   4.031   0.063   2.480
 7754SOL    HW134775   4.020   0.157   2.513
 7754SOL    HW234776   4.026   0.000   2.557
 7755SOL     OW34777   4.747   0.766   2.828
 7755SOL    HW134778   4.762   0.787   2.924
 7755SOL    HW234779   4.717   0.671   2.819
 7756SOL     OW34780   4.704   1.573   3.562
 7756SOL    HW134781   4.684   1.617   3.474
 7756SOL    HW234782   4.743   1.482   3.546
 7757SOL     OW34783   4.074   0.898   3.666
 7757SOL    HW134784   4.150   0.942   3.714
 7757SOL    HW234785   4.109   0.851   3.584
 7758SOL     OW34786   4.043   0.810   2.811
 7758SOL    HW134787   4.136   0.846   2.816
 7758SOL    HW234788   4.037   0.725   2.863
 7759SOL     OW34789   4.063   0.509   2.868
 7759SOL    HW134790   4.011   0.426   2.851
 7759SOL    HW234791   4.140   0.514   2.804
 7760SOL     OW34792   3.732   1.326   2.062
 7760SOL    HW134793   3.639   1.347   2.031
 7760SOL    HW234794   3.742   1.227   2.075
 7761SOL     OW34795   3.812   1.801   2.789
 7761SOL    HW134796   3.770   1.715   2.762
 7761SOL    HW234797   3.906   1.804   2.755
 7762SOL     OW34798   4.228   1.568   2.772
 7762SOL    HW134799   4.294   1.642   2.781
 7762SOL    HW234800   4.272   1.489   2.730
 7763SOL     OW34801   4.726   0.796   3.100
 7763SOL    HW134802   4.767   0.764   3.186
 7763SOL    HW234803   4.630   0.769   3.097
 7764SOL     OW34804   3.764   0.544   2.976
 7764SOL    HW134805   3.849   0.511   2.935
 7764SOL    HW234806   3.777   0.559   3.074
 7765SOL     OW34807   3.913   0.520   3.584
 7765SOL    HW134808   3.972   0.480   3.514
 7765SOL    HW234809   3.855   0.591   3.543
 7766SOL     OW34810   4.539   0.572   2.187
 7766SOL    HW134811   4.546   0.483   2.141
 7766SOL    HW234812   4.445   0.606   2.179
 7767SOL     OW34813   3.976   1.564   3.606
 7767SOL    HW134814   3.946   1.621   3.682
 7767SOL    HW234815   3.969   1.467   3.632
 7768SOL     OW34816   4.395   0.464   3.131
 7768SOL    HW134817   4.361   0.375   3.101
 7768SOL    HW234818   4.421   0.518   3.051
 7769SOL     OW34819   4.654   1.678   3.327
 7769SOL    HW134820   4.630   1.660   3.232
 7769SOL    HW234821   4.684   1.772   3.337
 7770SOL     OW34822   4.197   0.500   2.053
 7770SOL    HW134823   4.258   0.580   2.057
 7770SOL    HW234824   4.102   0.531   2.060
 7771SOL     OW34825   3.883   1.137   3.328
 7771SOL    HW134826   3.905   1.076   3.404
 7771SOL    HW234827   3.893   1.088   3.242
 7772SOL     OW34828   3.807   1.258   2.884
 7772SOL    HW134829   3.802   1.257   2.984
 7772SOL    HW234830   3.724   1.217   2.846
 7773SOL     OW34831   4.412   1.662   3.578
 7773SOL    HW134832   4.356   1.743   3.587
 7773SOL    HW234833   4.464   1.666   3.492
 7774SOL     OW34834   3.854   1.794   3.713
 7774SOL    HW134835   3.813   1.720   3.766
 7774SOL    HW234836   3.918   1.845   3.771
 7775SOL     OW34837   5.004   0.927   2.534
 7775SOL    HW134838   5.064   0.846   2.536
 7775SOL    HW234839   5.044   0.996   2.474
 7776SOL     OW34840   4.554   1.273   3.284
 7776SOL    HW134841   4.549   1.306   3.379
 7776SOL    HW234842   4.468   1.292   3.238
 7777SOL     OW34843   4.396   1.616   2.016
 7777SOL    HW134844   4.405   1.626   1.917
 7777SOL    HW234845   4.356   1.527   2.037
 7778SOL     OW34846   3.987   0.326   2.582
 7778SOL    HW134847   3.908   0.377   2.548
 7778SOL    HW234848   3.978   0.311   2.680
 7779SOL     OW34849   4.546   1.002   3.234
 7779SOL    HW134850   4.586   1.001   3.142
 7779SOL    HW234851   4.556   1.094   3.274
 7780SOL     OW34852   4.640   0.910   2.153
 7780SOL    HW134853   4.703   0.948   2.085
 7780SOL    HW234854   4.680   0.827   2.192
 7781SOL     OW34855   4.096   1.288   3.352
 7781SOL    HW134856   4.083   1.381   3.318
 7781SOL    HW234857   4.012   1.236   3.339
 7782SOL     OW34858   4.763   1.098   2.558
 7782SOL    HW134859   4.693   1.051   2.612
 7782SOL    HW234860   4.822   1.030   2.515
 7783SOL     OW34861   4.738   0.236   2.833
 7783SOL    HW134862   4.730   0.200   2.740
 7783SOL    HW234863   4.736   0.160   2.898
 7784SOL     OW34864   4.314   1.487   2.353
 7784SOL    HW134865   4.356   1.429   2.283
 7784SOL    HW234866   4.270   1.566   2.309
 7785SOL     OW34867   3.979   1.348   2.152
 7785SOL    HW134868   3.883   1.349   2.125
 7785SOL    HW234869   3.991   1.401   2.236
 7786SOL     OW34870   3.829   1.013   3.588
 7786SOL    HW134871   3.752   0.980   3.642
 7786SOL    HW234872   3.914   0.983   3.630
 7787SOL     OW34873   4.396   0.203   3.351
 7787SOL    HW134874   4.486   0.187   3.311
 7787SOL    HW234875   4.404   0.208   3.450
 7788SOL     OW34876   3.799   0.345   1.895
 7788SOL    HW134877   3.707   0.317   1.866
 7788SOL    HW234878   3.830   0.422   1.839
 7789SOL     OW34879   3.796   0.166   2.180
 7789SOL    HW134880   3.779   0.249   2.126
 7789SOL    HW234881   3.886   0.129   2.158
 7790SOL     OW34882   4.337   0.842   3.293
 7790SOL    HW134883   4.393   0.923   3.276
 7790SOL    HW234884   4.396   0.762   3.296
 7791SOL     OW34885   4.440   0.565   3.570
 7791SOL    HW134886   4.459   0.630   3.644
 7791SOL    HW234887   4.500   0.485   3.579
 7792SOL     OW34888   4.114   1.741   3.422
 7792SOL    HW134889   4.023   1.782   3.420
 7792SOL    HW234890   4.107   1.647   3.454
 7793SOL     OW34891   4.949   0.325   2.311
 7793SOL    HW134892   5.014   0.251   2.300
 7793SOL    HW234893   4.969   0.375   2.395
 7794SOL     OW34894   4.318   0.745   2.514
 7794SOL    HW134895   4.368   0.830   2.495
 7794SOL    HW234896   4.230   0.747   2.466
 7795SOL     OW34897   4.583   1.374   1.878
 7795SOL    HW134898   4.537   1.389   1.966
 7795SOL    HW234899   4.627   1.459   1.848
 7796SOL     OW34900   4.385   1.790   2.815
 7796SOL    HW134901   4.339   1.878   2.802
 7796SOL    HW234902   4.484   1.802   2.808
 7797SOL     OW34903   4.583   0.956   2.723
 7797SOL    HW134904   4.637   0.887   2.771
 7797SOL    HW234905   4.551   1.025   2.789
 7798SOL     OW34906   3.945   1.314   3.706
 7798SOL    HW134907   3.880   1.241   3.685
 7798SOL    HW234908   3.949   1.328   3.804
 7799SOL     OW34909   3.803   1.240   2.515
 7799SOL    HW134910   3.802   1.193   2.603
 7799SOL    HW234911   3.885   1.212   2.464
 7800SOL     OW34912   4.396   1.391   3.486
 7800SOL    HW134913   4.318   1.341   3.524
 7800SOL    HW234914   4.393   1.486   3.517
 7801SOL     OW34915   4.152   0.424   2.382
 7801SOL    HW134916   4.182   0.352   2.320
 7801SOL    HW234917   4.113   0.384   2.465
 7802SOL     OW34918   4.041   0.547   3.142
 7802SOL    HW134919   4.079   0.488   3.214
 7802SOL    HW234920   4.081   0.521   3.054
 7803SOL     OW34921   4.536   1.586   2.549
 7803SOL    HW134922   4.568   1.596   2.455
 7803SOL    HW234923   4.457   1.524   2.551
 7804SOL     OW34924   4.725   0.034   3.016
 7804SOL    HW134925   4.662  -0.038   2.985
 7804SOL    HW234926   4.818  -0.002   3.016
 7805SOL     OW34927   4.494   1.330   2.163
 7805SOL    HW134928   4.448   1.243   2.180
 7805SOL    HW234929   4.585   1.327   2.204
 7806SOL     OW34930   4.342   1.567   3.146
 7806SOL    HW134931   4.337   1.649   3.203
 7806SOL    HW234932   4.431   1.564   3.101
 7807SOL     OW34933   3.763   1.077   2.162
 7807SOL    HW134934   3.862   1.066   2.153
 7807SOL    HW234935   3.723   0.991   2.194
 7808SOL     OW34936   4.599   1.646   2.199
 7808SOL    HW134937   4.522   1.611   2.145
 7808SOL    HW234938   4.567   1.717   2.261
 7809SOL     OW34939   3.954   0.628   3.837
 7809SOL    HW134940   3.861   0.626   3.874
 7809SOL    HW234941   3.955   0.589   3.745
 7810SOL     OW34942   3.949   0.275   4.720
 7810SOL    HW134943   3.984   0.258   4.812
 7810SOL    HW234944   3.861   0.230   4.708
 7811SOL     OW34945   3.743   0.368   4.371
 7811SOL    HW134946   3.661   0.411   4.410
 7811SOL    HW234947   3.715   0.295   4.308
 7812SOL     OW34948   4.293   1.275   4.889
 7812SOL    HW134949   4.200   1.268   4.852
 7812SOL    HW234950   4.304   1.364   4.933
 7813SOL     OW34951   4.492   1.144   4.747
 7813SOL    HW134952   4.414   1.161   4.807
 7813SOL    HW234953   4.526   1.231   4.711
 7814SOL     OW34954   4.574   0.798   5.547
 7814SOL    HW134955   4.570   0.874   5.612
 7814SOL    HW234956   4.596   0.834   5.456
 7815SOL     OW34957   4.409   1.012   4.389
 7815SOL    HW134958   4.478   0.996   4.459
 7815SOL    HW234959   4.336   1.069   4.427
 7816SOL     OW34960   4.410   1.161   5.527
 7816SOL    HW134961   4.470   1.240   5.541
 7816SOL    HW234962   4.324   1.192   5.486
 7817SOL     OW34963   4.059   1.435   4.785
 7817SOL    HW134964   3.981   1.404   4.732
 7817SOL    HW234965   4.117   1.493   4.728
 7818SOL     OW34966   4.162   0.392   5.223
 7818SOL    HW134967   4.244   0.336   5.232
 7818SOL    HW234968   4.081   0.334   5.227
 7819SOL     OW34969   3.955   1.713   4.207
 7819SOL    HW134970   3.989   1.790   4.261
 7819SOL    HW234971   3.999   1.713   4.117
 7820SOL     OW34972   3.954   1.434   4.262
 7820SOL    HW134973   3.928   1.530   4.262
 7820SOL    HW234974   3.883   1.380   4.307
 7821SOL     OW34975   3.964   1.091   4.610
 7821SOL    HW134976   3.978   1.007   4.662
 7821SOL    HW234977   3.909   1.155   4.665
 7822SOL     OW34978   4.344   1.786   5.163
 7822SOL    HW134979   4.252   1.769   5.198
 7822SOL    HW234980   4.372   1.878   5.189
 7823SOL     OW34981   4.330   0.964   3.847
 7823SOL    HW134982   4.337   1.048   3.793
 7823SOL    HW234983   4.376   0.977   3.935
 7824SOL     OW34984   3.846   0.643   4.287
 7824SOL    HW134985   3.801   0.555   4.304
 7824SOL    HW234986   3.845   0.697   4.371
 7825SOL     OW34987   3.751   1.596   3.841
 7825SOL    HW134988   3.732   1.500   3.862
 7825SOL    HW234989   3.718   1.654   3.916
 7826SOL     OW34990   3.837   0.737   5.321
 7826SOL    HW134991   3.925   0.724   5.366
 7826SOL    HW234992   3.824   0.834   5.299
 7827SOL     OW34993   4.337   1.365   4.450
 7827SOL    HW134994   4.288   1.278   4.459
 7827SOL    HW234995   4.314   1.408   4.363
 7828SOL     OW34996   4.533   0.004   4.226
 7828SOL    HW134997   4.573   0.095   4.217
 7828SOL    HW234998   4.433   0.012   4.232
 7829SOL     OW34999   3.921   0.976   4.988
 7829SOL    HW135000   4.010   0.931   4.974
 7829SOL    HW235001   3.848   0.911   4.969
 7830SOL     OW35002   4.041   0.251   5.525
 7830SOL    HW135003   4.112   0.322   5.531
 7830SOL    HW235004   3.953   0.290   5.553
 7831SOL     OW35005   4.322   0.729   3.994
 7831SOL    HW135006   4.346   0.798   3.926
 7831SOL    HW235007   4.244   0.762   4.048
 7832SOL     OW35008   4.531   0.605   5.189
 7832SOL    HW135009   4.484   0.602   5.278
 7832SOL    HW235010   4.480   0.550   5.123
 7833SOL     OW35011   4.697   0.890   5.296
 7833SOL    HW135012   4.743   0.806   5.267
 7833SOL    HW235013   4.641   0.924   5.221
 7834SOL     OW35014   4.715   0.410   4.966
 7834SOL    HW135015   4.638   0.444   5.020
 7834SOL    HW235016   4.681   0.359   4.887
 7835SOL     OW35017   3.800   0.811   4.513
 7835SOL    HW135018   3.899   0.799   4.522
 7835SOL    HW235019   3.776   0.906   4.534
 7836SOL     OW35020   3.854   1.821   5.295
 7836SOL    HW135021   3.844   1.806   5.394
 7836SOL    HW235022   3.768   1.857   5.259
 7837SOL     OW35023   4.589   0.348   3.919
 7837SOL    HW135024   4.648   0.411   3.870
 7837SOL    HW235025   4.608   0.254   3.890
 7838SOL     OW35026   4.274   0.196   4.609
 7838SOL    HW135027   4.269   0.191   4.709
 7838SOL    HW235028   4.276   0.292   4.580
 7839SOL     OW35029   4.732   1.456   4.201
 7839SOL    HW135030   4.686   1.528   4.149
 7839SOL    HW235031   4.728   1.476   4.299
 7840SOL     OW35032   4.075   1.801   4.577
 7840SOL    HW135033   4.125   1.715   4.583
 7840SOL    HW235034   4.140   1.878   4.574
 7841SOL     OW35035   4.045   0.943   3.966
 7841SOL    HW135036   4.127   0.982   3.924
 7841SOL    HW235037   4.018   0.861   3.917
 7842SOL     OW35038   4.185   1.266   5.451
 7842SOL    HW135039   4.135   1.267   5.365
 7842SOL    HW235040   4.122   1.248   5.527
 7843SOL     OW35041   3.926   0.285   5.222
 7843SOL    HW135042   3.846   0.345   5.209
 7843SOL    HW235043   3.916   0.236   5.308
 7844SOL     OW35044   4.188   1.743   4.047
 7844SOL    HW135045   4.221   1.782   4.133
 7844SOL    HW235046   4.264   1.736   3.982
 7845SOL     OW35047   3.973   1.785   4.965
 7845SOL    HW135048   4.030   1.720   5.015
 7845SOL    HW235049   3.957   1.752   4.872
 7846SOL     OW35050   4.106   0.700   4.204
 7846SOL    HW135051   4.151   0.610   4.201
 7846SOL    HW235052   4.012   0.689   4.237
 7847SOL     OW35053   4.338   0.122   3.841
 7847SOL    HW135054   4.436   0.100   3.848
 7847SOL    HW235055   4.307   0.105   3.748
 7848SOL     OW35056   4.505   0.264   5.473
 7848SOL    HW135057   4.572   0.203   5.516
 7848SOL    HW235058   4.432   0.283   5.538
 7849SOL     OW35059   4.612   1.514   4.919
 7849SOL    HW135060   4.589   1.489   4.825
 7849SOL    HW235061   4.673   1.445   4.958
 7850SOL     OW35062   4.527   1.402   4.648
 7850SOL    HW135063   4.617   1.416   4.606
 7850SOL    HW235064   4.456   1.404   4.577
 7851SOL     OW35065   4.646   0.503   4.623
 7851SOL    HW135066   4.621   0.494   4.527
 7851SOL    HW235067   4.694   0.421   4.654
 7852SOL     OW35068   4.263   0.064   4.236
 7852SOL    HW135069   4.182   0.065   4.294
 7852SOL    HW235070   4.266   0.147   4.181
 7853SOL     OW35071   4.021   0.035   3.895
 7853SOL    HW135072   4.070   0.119   3.874
 7853SOL    HW235073   4.083  -0.030   3.940
 7854SOL     OW35074   4.659   0.236   4.204
 7854SOL    HW135075   4.611   0.277   4.126
 7854SOL    HW235076   4.758   0.234   4.185
 7855SOL     OW35077   4.951   1.570   4.517
 7855SOL    HW135078   4.972   1.644   4.452
 7855SOL    HW235079   5.019   1.570   4.590
 7856SOL     OW35080   4.183   1.152   4.465
 7856SOL    HW135081   4.112   1.125   4.530
 7856SOL    HW235082   4.157   1.124   4.372
 7857SOL     OW35083   4.756   0.549   3.740
 7857SOL    HW135084   4.715   0.631   3.701
 7857SOL    HW235085   4.820   0.575   3.813
 7858SOL     OW35086   3.802   0.556   5.110
 7858SOL    HW135087   3.894   0.555   5.069
 7858SOL    HW235088   3.796   0.630   5.177
 7859SOL     OW35089   4.285   0.222   4.871
 7859SOL    HW135090   4.323   0.138   4.908
 7859SOL    HW235091   4.197   0.241   4.915
 7860SOL     OW35092   4.590   0.454   4.366
 7860SOL    HW135093   4.558   0.526   4.304
 7860SOL    HW235094   4.614   0.373   4.313
 7861SOL     OW35095   4.741   0.039   4.477
 7861SOL    HW135096   4.669   0.044   4.408
 7861SOL    HW235097   4.717  -0.030   4.546
 7862SOL     OW35098   4.212   1.385   3.898
 7862SOL    HW135099   4.125   1.370   3.945
 7862SOL    HW235100   4.195   1.411   3.803
 7863SOL     OW35101   4.251   0.256   4.052
 7863SOL    HW135102   4.278   0.197   3.977
 7863SOL    HW235103   4.251   0.351   4.021
 7864SOL     OW35104   4.639   0.089   5.126
 7864SOL    HW135105   4.664   0.069   5.031
 7864SOL    HW235106   4.711   0.145   5.168
 7865SOL     OW35107   4.704   1.116   5.443
 7865SOL    HW135108   4.605   1.122   5.453
 7865SOL    HW235109   4.727   1.036   5.387
 7866SOL     OW35110   4.429   1.050   4.092
 7866SOL    HW135111   4.415   1.057   4.191
 7866SOL    HW235112   4.513   0.999   4.074
 7867SOL     OW35113   4.134   0.813   4.975
 7867SOL    HW135114   4.220   0.825   5.025
 7867SOL    HW235115   4.092   0.726   5.002
 7868SOL     OW35116   3.788   1.564   5.055
 7868SOL    HW135117   3.742   1.646   5.021
 7868SOL    HW235118   3.886   1.583   5.064
 7869SOL     OW35119   4.091   1.100   4.225
 7869SOL    HW135120   4.084   1.183   4.169
 7869SOL    HW235121   4.095   1.020   4.165
 7870SOL     OW35122   4.290   0.537   4.589
 7870SOL    HW135123   4.302   0.603   4.515
 7870SOL    HW235124   4.336   0.571   4.672
 7871SOL     OW35125   4.078   1.510   5.053
 7871SOL    HW135126   4.057   1.466   4.966
 7871SOL    HW235127   4.175   1.536   5.056
 7872SOL     OW35128   4.126   0.751   5.322
 7872SOL    HW135129   4.194   0.806   5.275
 7872SOL    HW235130   4.166   0.663   5.349
 7873SOL     OW35131   4.737   0.105   5.494
 7873SOL    HW135132   4.743   0.190   5.442
 7873SOL    HW235133   4.769   0.029   5.437
 7874SOL     OW35134   4.228   0.050   5.464
 7874SOL    HW135135   4.186  -0.007   5.394
 7874SOL    HW235136   4.162   0.119   5.496
 7875SOL     OW35137   4.297   0.870   4.753
 7875SOL    HW135138   4.341   0.959   4.744
 7875SOL    HW235139   4.234   0.870   4.830
 7876SOL     OW35140   4.933   0.525   3.999
 7876SOL    HW135141   4.946   0.441   4.053
 7876SOL    HW235142   4.904   0.599   4.059
 7877SOL     OW35143   4.031   0.213   4.955
 7877SOL    HW135144   4.008   0.250   5.045
 7877SOL    HW235145   4.001   0.118   4.949
 7878SOL     OW35146   3.761   1.310   5.006
 7878SOL    HW135147   3.814   1.261   5.074
 7878SOL    HW235148   3.783   1.408   5.011
 7879SOL     OW35149   4.456   0.634   4.788
 7879SOL    HW135150   4.515   0.608   4.712
 7879SOL    HW235151   4.428   0.730   4.777
 7880SOL     OW35152   4.031   0.063   4.342
 7880SOL    HW135153   4.020   0.157   4.375
 7880SOL    HW235154   4.026   0.000   4.419
 7881SOL     OW35155   4.747   0.766   4.690
 7881SOL    HW135156   4.762   0.787   4.786
 7881SOL    HW235157   4.717   0.671   4.681
 7882SOL     OW35158   4.704   1.573   5.424
 7882SOL    HW135159   4.684   1.617   5.336
 7882SOL    HW235160   4.743   1.482   5.408
 7883SOL     OW35161   4.074   0.898   5.528
 7883SOL    HW135162   4.150   0.942   5.576
 7883SOL    HW235163   4.109   0.851   5.446
 7884SOL     OW35164   4.063   0.509   4.730
 7884SOL    HW135165   4.011   0.426   4.713
 7884SOL    HW235166   4.140   0.514   4.666
 7885SOL     OW35167   3.732   1.326   3.924
 7885SOL    HW135168   3.639   1.347   3.893
 7885SOL    HW235169   3.742   1.227   3.937
 7886SOL     OW35170   3.812   1.801   4.651
 7886SOL    HW135171   3.770   1.715   4.624
 7886SOL    HW235172   3.906   1.804   4.617
 7887SOL     OW35173   4.228   1.568   4.634
 7887SOL    HW135174   4.294   1.642   4.643
 7887SOL    HW235175   4.272   1.489   4.592
 7888SOL     OW35176   4.726   0.796   4.962
 7888SOL    HW135177   4.767   0.764   5.048
 7888SOL    HW235178   4.630   0.769   4.959
 7889SOL     OW35179   3.764   0.544   4.838
 7889SOL    HW135180   3.849   0.511   4.797
 7889SOL    HW235181   3.777   0.559   4.936
 7890SOL     OW35182   3.913   0.520   5.446
 7890SOL    HW135183   3.972   0.480   5.376
 7890SOL    HW235184   3.855   0.591   5.405
 7891SOL     OW35185   4.539   0.572   4.049
 7891SOL    HW135186   4.546   0.483   4.003
 7891SOL    HW235187   4.445   0.606   4.041
 7892SOL     OW35188   3.976   1.564   5.468
 7892SOL    HW135189   3.946   1.621   5.544
 7892SOL    HW235190   3.969   1.467   5.494
 7893SOL     OW35191   4.395   0.464   4.993
 7893SOL    HW135192   4.361   0.375   4.963
 7893SOL    HW235193   4.421   0.518   4.913
 7894SOL     OW35194   4.654   1.678   5.189
 7894SOL    HW135195   4.630   1.660   5.094
 7894SOL    HW235196   4.684   1.772   5.199
 7895SOL     OW35197   4.197   0.500   3.915
 7895SOL    HW135198   4.258   0.580   3.919
 7895SOL    HW235199   4.102   0.531   3.922
 7896SOL     OW35200   3.883   1.137   5.190
 7896SOL    HW135201   3.905   1.076   5.266
 7896SOL    HW235202   3.893   1.088   5.104
 7897SOL     OW35203   3.807   1.258   4.746
 7897SOL    HW135204   3.802   1.257   4.846
 7897SOL    HW235205   3.724   1.217   4.708
 7898SOL     OW35206   4.412   1.662   5.440
 7898SOL    HW135207   4.356   1.743   5.449
 7898SOL    HW235208   4.464   1.666   5.354
 7899SOL     OW35209   3.854   1.794   5.575
 7899SOL    HW135210   3.813   1.720   5.628
 7899SOL    HW235211   3.918   1.845   5.633
 7900SOL     OW35212   5.004   0.927   4.396
 7900SOL    HW135213   5.064   0.846   4.398
 7900SOL    HW235214   5.044   0.996   4.336
 7901SOL     OW35215   4.554   1.273   5.146
 7901SOL    HW135216   4.549   1.306   5.241
 7901SOL    HW235217   4.468   1.292   5.100
 7902SOL     OW35218   4.396   1.616   3.878
 7902SOL    HW135219   4.405   1.626   3.779
 7902SOL    HW235220   4.356   1.527   3.899
 7903SOL     OW35221   3.987   0.326   4.444
 7903SOL    HW135222   3.908   0.377   4.410
 7903SOL    HW235223   3.978   0.311   4.542
 7904SOL     OW35224   4.546   1.002   5.096
 7904SOL    HW135225   4.586   1.001   5.004
 7904SOL    HW235226   4.556   1.094   5.136
 7905SOL     OW35227   4.640   0.910   4.015
 7905SOL    HW135228   4.703   0.948   3.947
 7905SOL    HW235229   4.680   0.827   4.054
 7906SOL     OW35230   4.096   1.288   5.214
 7906SOL    HW135231   4.083   1.381   5.180
 7906SOL    HW235232   4.012   1.236   5.201
 7907SOL     OW35233   4.763   1.098   4.420
 7907SOL    HW135234   4.693   1.051   4.474
 7907SOL    HW235235   4.822   1.030   4.377
 7908SOL     OW35236   4.738   0.236   4.695
 7908SOL    HW135237   4.730   0.200   4.602
 7908SOL    HW235238   4.736   0.160   4.760
 7909SOL     OW35239   4.314   1.487   4.215
 7909SOL    HW135240   4.356   1.429   4.145
 7909SOL    HW235241   4.270   1.566   4.171
 7910SOL     OW35242   3.979   1.348   4.014
 7910SOL    HW135243   3.883   1.349   3.987
 7910SOL    HW235244   3.991   1.401   4.098
 7911SOL     OW35245   3.829   1.013   5.450
 7911SOL    HW135246   3.752   0.980   5.504
 7911SOL    HW235247   3.914   0.983   5.492
 7912SOL     OW35248   4.396   0.203   5.213
 7912SOL    HW135249   4.486   0.187   5.173
 7912SOL    HW235250   4.404   0.208   5.312
 7913SOL     OW35251   3.799   0.345   3.757
 7913SOL    HW135252   3.707   0.317   3.728
 7913SOL    HW235253   3.830   0.422   3.701
 7914SOL     OW35254   3.796   0.166   4.042
 7914SOL    HW135255   3.779   0.249   3.988
 7914SOL    HW235256   3.886   0.129   4.020
 7915SOL     OW35257   4.337   0.842   5.155
 7915SOL    HW135258   4.393   0.923   5.138
 7915SOL    HW235259   4.396   0.762   5.158
 7916SOL     OW35260   4.440   0.565   5.432
 7916SOL    HW135261   4.459   0.630   5.506
 7916SOL    HW235262   4.500   0.485   5.441
 7917SOL     OW35263   4.114   1.741   5.284
 7917SOL    HW135264   4.023   1.782   5.282
 7917SOL    HW235265   4.107   1.647   5.316
 7918SOL     OW35266   4.949   0.325   4.173
 7918SOL    HW135267   5.014   0.251   4.162
 7918SOL    HW235268   4.969   0.375   4.257
 7919SOL     OW35269   4.318   0.745   4.376
 7919SOL    HW135270   4.368   0.830   4.357
 7919SOL    HW235271   4.230   0.747   4.328
 7920SOL     OW35272   4.583   1.374   3.740
 7920SOL    HW135273   4.537   1.389   3.828
 7920SOL    HW235274   4.627   1.459   3.710
 7921SOL     OW35275   4.385   1.790   4.677
 7921SOL    HW135276   4.339   1.878   4.664
 7921SOL    HW235277   4.484   1.802   4.670
 7922SOL     OW35278   4.583   0.956   4.585
 7922SOL    HW135279   4.637   0.887   4.633
 7922SOL    HW235280   4.551   1.025   4.651
 7923SOL     OW35281   3.945   1.314   5.568
 7923SOL    HW135282   3.880   1.241   5.547
 7923SOL    HW235283   3.949   1.328   5.666
 7924SOL     OW35284   3.803   1.240   4.377
 7924SOL    HW135285   3.802   1.193   4.465
 7924SOL    HW235286   3.885   1.212   4.326
 7925SOL     OW35287   4.396   1.391   5.348
 7925SOL    HW135288   4.318   1.341   5.386
 7925SOL    HW235289   4.393   1.486   5.379
 7926SOL     OW35290   4.152   0.424   4.244
 7926SOL    HW135291   4.182   0.352   4.182
 7926SOL    HW235292   4.113   0.384   4.327
 7927SOL     OW35293   4.041   0.547   5.004
 7927SOL    HW135294   4.079   0.488   5.076
 7927SOL    HW235295   4.081   0.521   4.916
 7928SOL     OW35296   4.536   1.586   4.411
 7928SOL    HW135297   4.568   1.596   4.317
 7928SOL    HW235298   4.457   1.524   4.413
 7929SOL     OW35299   4.725   0.034   4.878
 7929SOL    HW135300   4.662  -0.038   4.847
 7929SOL    HW235301   4.818  -0.002   4.878
 7930SOL     OW35302   4.494   1.330   4.025
 7930SOL    HW135303   4.448   1.243   4.042
 7930SOL    HW235304   4.585   1.327   4.066
 7931SOL     OW35305   4.342   1.567   5.008
 7931SOL    HW135306   4.337   1.649   5.065
 7931SOL    HW235307   4.431   1.564   4.963
 7932SOL     OW35308   3.763   1.077   4.024
 7932SOL    HW135309   3.862   1.066   4.015
 7932SOL    HW235310   3.723   0.991   4.056
 7933SOL     OW35311   4.599   1.646   4.061
 7933SOL    HW135312   4.522   1.611   4.007
 7933SOL    HW235313   4.567   1.717   4.123
 7934SOL     OW35314   3.954   0.628   5.699
 7934SOL    HW135315   3.861   0.626   5.736
 7934SOL    HW235316   3.955   0.589   5.607
 7935SOL     OW35317   3.949   0.275   6.582
 7935SOL    HW135318   3.984   0.258   6.674
 7935SOL    HW235319   3.861   0.230   6.570
 7936SOL     OW35320   3.743   0.368   6.233
 7936SOL    HW135321   3.661   0.411   6.272
 7936SOL    HW235322   3.715   0.295   6.170
 7937SOL     OW35323   4.293   1.275   6.751
 7937SOL    HW135324   4.200   1.268   6.714
 7937SOL    HW235325   4.304   1.364   6.795
 7938SOL     OW35326   4.492   1.144   6.609
 7938SOL    HW135327   4.414   1.161   6.669
 7938SOL    HW235328   4.526   1.231   6.573
 7939SOL     OW35329   4.574   0.798   7.409
 7939SOL    HW135330   4.570   0.874   7.474
 7939SOL    HW235331   4.596   0.834   7.318
 7940SOL     OW35332   4.409   1.012   6.251
 7940SOL    HW135333   4.478   0.996   6.321
 7940SOL    HW235334   4.336   1.069   6.289
 7941SOL     OW35335   4.410   1.161   7.389
 7941SOL    HW135336   4.470   1.240   7.403
 7941SOL    HW235337   4.324   1.192   7.348
 7942SOL     OW35338   4.059   1.435   6.647
 7942SOL    HW135339   3.981   1.404   6.594
 7942SOL    HW235340   4.117   1.493   6.590
 7943SOL     OW35341   4.162   0.392   7.085
 7943SOL    HW135342   4.244   0.336   7.094
 7943SOL    HW235343   4.081   0.334   7.089
 7944SOL     OW35344   3.955   1.713   6.069
 7944SOL    HW135345   3.989   1.790   6.123
 7944SOL    HW235346   3.999   1.713   5.979
 7945SOL     OW35347   3.954   1.434   6.124
 7945SOL    HW135348   3.928   1.530   6.124
 7945SOL    HW235349   3.883   1.380   6.169
 7946SOL     OW35350   3.964   1.091   6.472
 7946SOL    HW135351   3.978   1.007   6.524
 7946SOL    HW235352   3.909   1.155   6.527
 7947SOL     OW35353   4.344   1.786   7.025
 7947SOL    HW135354   4.252   1.769   7.060
 7947SOL    HW235355   4.372   1.878   7.051
 7948SOL     OW35356   4.330   0.964   5.709
 7948SOL    HW135357   4.337   1.048   5.655
 7948SOL    HW235358   4.376   0.977   5.797
 7949SOL     OW35359   3.846   0.643   6.149
 7949SOL    HW135360   3.801   0.555   6.166
 7949SOL    HW235361   3.845   0.697   6.233
 7950SOL     OW35362   3.751   1.596   5.703
 7950SOL    HW135363   3.732   1.500   5.724
 7950SOL    HW235364   3.718   1.654   5.778
 7951SOL     OW35365   3.837   0.737   7.183
 7951SOL    HW135366   3.925   0.724   7.228
 7951SOL    HW235367   3.824   0.834   7.161
 7952SOL     OW35368   4.337   1.365   6.312
 7952SOL    HW135369   4.288   1.278   6.321
 7952SOL    HW235370   4.314   1.408   6.225
 7953SOL     OW35371   4.533   0.004   6.088
 7953SOL    HW135372   4.573   0.095   6.079
 7953SOL    HW235373   4.433   0.012   6.094
 7954SOL     OW35374   3.921   0.976   6.850
 7954SOL    HW135375   4.010   0.931   6.836
 7954SOL    HW235376   3.848   0.911   6.831
 7955SOL     OW35377   4.041   0.251   7.387
 7955SOL    HW135378   4.112   0.322   7.393
 7955SOL    HW235379   3.953   0.290   7.415
 7956SOL     OW35380   4.322   0.729   5.856
 7956SOL    HW135381   4.346   0.798   5.788
 7956SOL    HW235382   4.244   0.762   5.910
 7957SOL     OW35383   4.531   0.605   7.051
 7957SOL    HW135384   4.484   0.602   7.140
 7957SOL    HW235385   4.480   0.550   6.985
 7958SOL     OW35386   4.697   0.890   7.158
 7958SOL    HW135387   4.743   0.806   7.129
 7958SOL    HW235388   4.641   0.924   7.083
 7959SOL     OW35389   4.715   0.410   6.828
 7959SOL    HW135390   4.638   0.444   6.882
 7959SOL    HW235391   4.681   0.359   6.749
 7960SOL     OW35392   3.800   0.811   6.375
 7960SOL    HW135393   3.899   0.799   6.384
 7960SOL    HW235394   3.776   0.906   6.396
 7961SOL     OW35395   3.854   1.821   7.157
 7961SOL    HW135396   3.844   1.806   7.256
 7961SOL    HW235397   3.768   1.857   7.121
 7962SOL     OW35398   4.589   0.348   5.781
 7962SOL    HW135399   4.648   0.411   5.732
 7962SOL    HW235400   4.608   0.254   5.752
 7963SOL     OW35401   4.274   0.196   6.471
 7963SOL    HW135402   4.269   0.191   6.571
 7963SOL    HW235403   4.276   0.292   6.442
 7964SOL     OW35404   4.732   1.456   6.063
 7964SOL    HW135405   4.686   1.528   6.011
 7964SOL    HW235406   4.728   1.476   6.161
 7965SOL     OW35407   4.075   1.801   6.439
 7965SOL    HW135408   4.125   1.715   6.445
 7965SOL    HW235409   4.140   1.878   6.436
 7966SOL     OW35410   4.045   0.943   5.828
 7966SOL    HW135411   4.127   0.982   5.786
 7966SOL    HW235412   4.018   0.861   5.779
 7967SOL     OW35413   4.185   1.266   7.313
 7967SOL    HW135414   4.135   1.267   7.227
 7967SOL    HW235415   4.122   1.248   7.389
 7968SOL     OW35416   3.926   0.285   7.084
 7968SOL    HW135417   3.846   0.345   7.071
 7968SOL    HW235418   3.916   0.236   7.170
 7969SOL     OW35419   4.188   1.743   5.909
 7969SOL    HW135420   4.221   1.782   5.995
 7969SOL    HW235421   4.264   1.736   5.844
 7970SOL     OW35422   3.973   1.785   6.827
 7970SOL    HW135423   4.030   1.720   6.877
 7970SOL    HW235424   3.957   1.752   6.734
 7971SOL     OW35425   4.106   0.700   6.066
 7971SOL    HW135426   4.151   0.610   6.063
 7971SOL    HW235427   4.012   0.689   6.099
 7972SOL     OW35428   4.338   0.122   5.703
 7972SOL    HW135429   4.436   0.100   5.710
 7972SOL    HW235430   4.307   0.105   5.610
 7973SOL     OW35431   4.505   0.264   7.335
 7973SOL    HW135432   4.572   0.203   7.378
 7973SOL    HW235433   4.432   0.283   7.400
 7974SOL     OW35434   4.612   1.514   6.781
 7974SOL    HW135435   4.589   1.489   6.687
 7974SOL    HW235436   4.673   1.445   6.820
 7975SOL     OW35437   4.527   1.402   6.510
 7975SOL    HW135438   4.617   1.416   6.468
 7975SOL    HW235439   4.456   1.404   6.439
 7976SOL     OW35440   4.646   0.503   6.485
 7976SOL    HW135441   4.621   0.494   6.389
 7976SOL    HW235442   4.694   0.421   6.516
 7977SOL     OW35443   4.263   0.064   6.098
 7977SOL    HW135444   4.182   0.065   6.156
 7977SOL    HW235445   4.266   0.147   6.043
 7978SOL     OW35446   4.021   0.035   5.757
 7978SOL    HW135447   4.070   0.119   5.736
 7978SOL    HW235448   4.083  -0.030   5.802
 7979SOL     OW35449   4.659   0.236   6.066
 7979SOL    HW135450   4.611   0.277   5.988
 7979SOL    HW235451   4.758   0.234   6.047
 7980SOL     OW35452   4.951   1.570   6.379
 7980SOL    HW135453   4.972   1.644   6.314
 7980SOL    HW235454   5.019   1.570   6.452
 7981SOL     OW35455   4.183   1.152   6.327
 7981SOL    HW135456   4.112   1.125   6.392
 7981SOL    HW235457   4.157   1.124   6.234
 7982SOL     OW35458   4.756   0.549   5.602
 7982SOL    HW135459   4.715   0.631   5.563
 7982SOL    HW235460   4.820   0.575   5.675
 7983SOL     OW35461   3.802   0.556   6.972
 7983SOL    HW135462   3.894   0.555   6.931
 7983SOL    HW235463   3.796   0.630   7.039
 7984SOL     OW35464   4.285   0.222   6.733
 7984SOL    HW135465   4.323   0.138   6.770
 7984SOL    HW235466   4.197   0.241   6.777
 7985SOL     OW35467   4.590   0.454   6.228
 7985SOL    HW135468   4.558   0.526   6.166
 7985SOL    HW235469   4.614   0.373   6.175
 7986SOL     OW35470   4.741   0.039   6.339
 7986SOL    HW135471   4.669   0.044   6.270
 7986SOL    HW235472   4.717  -0.030   6.408
 7987SOL     OW35473   4.212   1.385   5.760
 7987SOL    HW135474   4.125   1.370   5.807
 7987SOL    HW235475   4.195   1.411   5.665
 7988SOL     OW35476   4.251   0.256   5.914
 7988SOL    HW135477   4.278   0.197   5.839
 7988SOL    HW235478   4.251   0.351   5.883
 7989SOL     OW35479   4.639   0.089   6.988
 7989SOL    HW135480   4.664   0.069   6.893
 7989SOL    HW235481   4.711   0.145   7.030
 7990SOL     OW35482   4.704   1.116   7.305
 7990SOL    HW135483   4.605   1.122   7.315
 7990SOL    HW235484   4.727   1.036   7.249
 7991SOL     OW35485   4.429   1.050   5.954
 7991SOL    HW135486   4.415   1.057   6.053
 7991SOL    HW235487   4.513   0.999   5.936
 7992SOL     OW35488   4.134   0.813   6.837
 7992SOL    HW135489   4.220   0.825   6.887
 7992SOL    HW235490   4.092   0.726   6.864
 7993SOL     OW35491   3.788   1.564   6.917
 7993SOL    HW135492   3.742   1.646   6.883
 7993SOL    HW235493   3.886   1.583   6.926
 7994SOL     OW35494   4.091   1.100   6.087
 7994SOL    HW135495   4.084   1.183   6.031
 7994SOL    HW235496   4.095   1.020   6.027
 7995SOL     OW35497   4.290   0.537   6.451
 7995SOL    HW135498   4.302   0.603   6.377
 7995SOL    HW235499   4.336   0.571   6.534
 7996SOL     OW35500   4.078   1.510   6.915
 7996SOL    HW135501   4.057   1.466   6.828
 7996SOL    HW235502   4.175   1.536   6.918
 7997SOL     OW35503   4.126   0.751   7.184
 7997SOL    HW135504   4.194   0.806   7.137
 7997SOL    HW235505   4.166   0.663   7.211
 7998SOL     OW35506   4.737   0.105   7.356
 7998SOL    HW135507   4.743   0.190   7.304
 7998SOL    HW235508   4.769   0.029   7.299
 7999SOL     OW35509   4.228   0.050   7.326
 7999SOL    HW135510   4.186  -0.007   7.256
 7999SOL    HW235511   4.162   0.119   7.358
 8000SOL     OW35512   4.297   0.870   6.615
 8000SOL    HW135513   4.341   0.959   6.606
 8000SOL    HW235514   4.234   0.870   6.692
 8001SOL     OW35515   4.933   0.525   5.861
 8001SOL    HW135516   4.946   0.441   5.915
 8001SOL    HW235517   4.904   0.599   5.921
 8002SOL     OW35518   4.031   0.213   6.817
 8002SOL    HW135519   4.008   0.250   6.907
 8002SOL    HW235520   4.001   0.118   6.811
 8003SOL     OW35521   3.761   1.310   6.868
 8003SOL    HW135522   3.814   1.261   6.936
 8003SOL    HW235523   3.783   1.408   6.873
 8004SOL     OW35524   4.456   0.634   6.650
 8004SOL    HW135525   4.515   0.608   6.574
 8004SOL    HW235526   4.428   0.730   6.639
 8005SOL     OW35527   4.031   0.063   6.204
 8005SOL    HW135528   4.020   0.157   6.237
 8005SOL    HW235529   4.026   0.000   6.281
 8006SOL     OW35530   4.747   0.766   6.552
 8006SOL    HW135531   4.762   0.787   6.648
 8006SOL    HW235532   4.717   0.671   6.543
 8007SOL     OW35533   4.704   1.573   7.286
 8007SOL    HW135534   4.684   1.617   7.198
 8007SOL    HW235535   4.743   1.482   7.270
 8008SOL     OW35536   4.074   0.898   7.390
 8008SOL    HW135537   4.150   0.942   7.438
 8008SOL    HW235538   4.109   0.851   7.308
 8009SOL     OW35539   4.043   0.810   6.535
 8009SOL    HW135540   4.136   0.846   6.540
 8009SOL    HW235541   4.037   0.725   6.587
 8010SOL     OW35542   4.063   0.509   6.592
 8010SOL    HW135543   4.011   0.426   6.575
 8010SOL    HW235544   4.140   0.514   6.528
 8011SOL     OW35545   3.732   1.326   5.786
 8011SOL    HW135546   3.639   1.347   5.755
 8011SOL    HW235547   3.742   1.227   5.799
 8012SOL     OW35548   3.812   1.801   6.513
 8012SOL    HW135549   3.770   1.715   6.486
 8012SOL    HW235550   3.906   1.804   6.479
 8013SOL     OW35551   4.228   1.568   6.496
 8013SOL    HW135552   4.294   1.642   6.505
 8013SOL    HW235553   4.272   1.489   6.454
 8014SOL     OW35554   4.726   0.796   6.824
 8014SOL    HW135555   4.767   0.764   6.910
 8014SOL    HW235556   4.630   0.769   6.821
 8015SOL     OW35557   3.764   0.544   6.700
 8015SOL    HW135558   3.849   0.511   6.659
 8015SOL    HW235559   3.777   0.559   6.798
 8016SOL     OW35560   3.913   0.520   7.308
 8016SOL    HW135561   3.972   0.480   7.238
 8016SOL    HW235562   3.855   0.591   7.267
 8017SOL     OW35563   4.539   0.572   5.911
 8017SOL    HW135564   4.546   0.483   5.865
 8017SOL    HW235565   4.445   0.606   5.903
 8018SOL     OW35566   3.976   1.564   7.330
 8018SOL    HW135567   3.946   1.621   7.406
 8018SOL    HW235568   3.969   1.467   7.356
 8019SOL     OW35569   4.395   0.464   6.855
 8019SOL    HW135570   4.361   0.375   6.825
 8019SOL    HW235571   4.421   0.518   6.775
 8020SOL     OW35572   4.654   1.678   7.051
 8020SOL    HW135573   4.630   1.660   6.956
 8020SOL    HW235574   4.684   1.772   7.061
 8021SOL     OW35575   4.197   0.500   5.777
 8021SOL    HW135576   4.258   0.580   5.781
 8021SOL    HW235577   4.102   0.531   5.784
 8022SOL     OW35578   3.883   1.137   7.052
 8022SOL    HW135579   3.905   1.076   7.128
 8022SOL    HW235580   3.893   1.088   6.966
 8023SOL     OW35581   3.807   1.258   6.608
 8023SOL    HW135582   3.802   1.257   6.708
 8023SOL    HW235583   3.724   1.217   6.570
 8024SOL     OW35584   4.412   1.662   7.302
 8024SOL    HW135585   4.356   1.743   7.311
 8024SOL    HW235586   4.464   1.666   7.216
 8025SOL     OW35587   3.854   1.794   7.437
 8025SOL    HW135588   3.813   1.720   7.490
 8025SOL    HW235589   3.918   1.845   7.495
 8026SOL     OW35590   5.004   0.927   6.258
 8026SOL    HW135591   5.064   0.846   6.260
 8026SOL    HW235592   5.044   0.996   6.198
 8027SOL     OW35593   4.554   1.273   7.008
 8027SOL    HW135594   4.549   1.306   7.103
 8027SOL    HW235595   4.468   1.292   6.962
 8028SOL     OW35596   4.396   1.616   5.740
 8028SOL    HW135597   4.405   1.626   5.641
 8028SOL    HW235598   4.356   1.527   5.761
 8029SOL     OW35599   3.987   0.326   6.306
 8029SOL    HW135600   3.908   0.377   6.272
 8029SOL    HW235601   3.978   0.311   6.404
 8030SOL     OW35602   4.546   1.002   6.958
 8030SOL    HW135603   4.586   1.001   6.866
 8030SOL    HW235604   4.556   1.094   6.998
 8031SOL     OW35605   4.640   0.910   5.877
 8031SOL    HW135606   4.703   0.948   5.809
 8031SOL    HW235607   4.680   0.827   5.916
 8032SOL     OW35608   4.096   1.288   7.076
 8032SOL    HW135609   4.083   1.381   7.042
 8032SOL    HW235610   4.012   1.236   7.063
 8033SOL     OW35611   4.763   1.098   6.282
 8033SOL    HW135612   4.693   1.051   6.336
 8033SOL    HW235613   4.822   1.030   6.239
 8034SOL     OW35614   4.738   0.236   6.557
 8034SOL    HW135615   4.730   0.200   6.464
 8034SOL    HW235616   4.736   0.160   6.622
 8035SOL     OW35617   4.314   1.487   6.077
 8035SOL    HW135618   4.356   1.429   6.007
 8035SOL    HW235619   4.270   1.566   6.033
 8036SOL     OW35620   3.979   1.348   5.876
 8036SOL    HW135621   3.883   1.349   5.849
 8036SOL    HW235622   3.991   1.401   5.960
 8037SOL     OW35623   3.829   1.013   7.312
 8037SOL    HW135624   3.752   0.980   7.366
 8037SOL    HW235625   3.914   0.983   7.354
 8038SOL     OW35626   4.396   0.203   7.075
 8038SOL    HW135627   4.486   0.187   7.035
 8038SOL    HW235628   4.404   0.208   7.174
 8039SOL     OW35629   3.799   0.345   5.619
 8039SOL    HW135630   3.707   0.317   5.590
 8039SOL    HW235631   3.830   0.422   5.563
 8040SOL     OW35632   3.796   0.166   5.904
 8040SOL    HW135633   3.779   0.249   5.850
 8040SOL    HW235634   3.886   0.129   5.882
 8041SOL     OW35635   4.337   0.842   7.017
 8041SOL    HW135636   4.393   0.923   7.000
 8041SOL    HW235637   4.396   0.762   7.020
 8042SOL     OW35638   4.440   0.565   7.294
 8042SOL    HW135639   4.459   0.630   7.368
 8042SOL    HW235640   4.500   0.485   7.303
 8043SOL     OW35641   4.114   1.741   7.146
 8043SOL    HW135642   4.023   1.782   7.144
 8043SOL    HW235643   4.107   1.647   7.178
 8044SOL     OW35644   4.949   0.325   6.035
 8044SOL    HW135645   5.014   0.251   6.024
 8044SOL    HW235646   4.969   0.375   6.119
 8045SOL     OW35647   4.318   0.745   6.238
 8045SOL    HW135648   4.368   0.830   6.219
 8045SOL    HW235649   4.230   0.747   6.190
 8046SOL     OW35650   4.583   1.374   5.602
 8046SOL    HW135651   4.537   1.389   5.690
 8046SOL    HW235652   4.627   1.459   5.572
 8047SOL     OW35653   4.385   1.790   6.539
 8047SOL    HW135654   4.339   1.878   6.526
 8047SOL    HW235655   4.484   1.802   6.532
 8048SOL     OW35656   4.583   0.956   6.447
 8048SOL    HW135657   4.637   0.887   6.495
 8048SOL    HW235658   4.551   1.025   6.513
 8049SOL     OW35659   3.945   1.314   7.430
 8049SOL    HW135660   3.880   1.241   7.409
 8049SOL    HW235661   3.949   1.328   7.528
 8050SOL     OW35662   3.803   1.240   6.239
 8050SOL    HW135663   3.802   1.193   6.327
 8050SOL    HW235664   3.885   1.212   6.188
 8051SOL     OW35665   4.396   1.391   7.210
 8051SOL    HW135666   4.318   1.341   7.248
 8051SOL    HW235667   4.393   1.486   7.241
 8052SOL     OW35668   4.152   0.424   6.106
 8052SOL    HW135669   4.182   0.352   6.044
 8052SOL    HW235670   4.113   0.384   6.189
 8053SOL     OW35671   4.041   0.547   6.866
 8053SOL    HW135672   4.079   0.488   6.938
 8053SOL    HW235673   4.081   0.521   6.778
 8054SOL     OW35674   4.536   1.586   6.273
 8054SOL    HW135675   4.568   1.596   6.179
 8054SOL    HW235676   4.457   1.524   6.275
 8055SOL     OW35677   4.725   0.034   6.740
 8055SOL    HW135678   4.662  -0.038   6.709
 8055SOL    HW235679   4.818  -0.002   6.740
 8056SOL     OW35680   4.494   1.330   5.887
 8056SOL    HW135681   4.448   1.243   5.904
 8056SOL    HW235682   4.585   1.327   5.928
 8057SOL     OW35683   4.342   1.567   6.870
 8057SOL    HW135684   4.337   1.649   6.927
 8057SOL    HW235685   4.431   1.564   6.825
 8058SOL     OW35686   3.763   1.077   5.886
 8058SOL    HW135687   3.862   1.066   5.877
 8058SOL    HW235688   3.723   0.991   5.918
 8059SOL     OW35689   4.599   1.646   5.923
 8059SOL    HW135690   4.522   1.611   5.869
 8059SOL    HW235691   4.567   1.717   5.985
 8060SOL     OW35692   3.954   0.628   7.561
 8060SOL    HW135693   3.861   0.626   7.598
 8060SOL    HW235694   3.955   0.589   7.469
 8061SOL     OW35695   3.949   0.275   8.444
 8061SOL    HW135696   3.984   0.258   8.536
 8061SOL    HW235697   3.861   0.230   8.432
 8062SOL     OW35698   3.743   0.368   8.095
 8062SOL    HW135699   3.661   0.411   8.134
 8062SOL    HW235700   3.715   0.295   8.032
 8063SOL     OW35701   4.293   1.275   8.613
 8063SOL    HW135702   4.200   1.268   8.576
 8063SOL    HW235703   4.304   1.364   8.657
 8064SOL     OW35704   4.492   1.144   8.471
 8064SOL    HW135705   4.414   1.161   8.531
 8064SOL    HW235706   4.526   1.231   8.435
 8065SOL     OW35707   4.574   0.798   9.271
 8065SOL    HW135708   4.570   0.874   9.336
 8065SOL    HW235709   4.596   0.834   9.180
 8066SOL     OW35710   4.409   1.012   8.113
 8066SOL    HW135711   4.478   0.996   8.183
 8066SOL    HW235712   4.336   1.069   8.151
 8067SOL     OW35713   4.410   1.161   9.251
 8067SOL    HW135714   4.470   1.240   9.265
 8067SOL    HW235715   4.324   1.192   9.210
 8068SOL     OW35716   4.059   1.435   8.509
 8068SOL    HW135717   3.981   1.404   8.456
 8068SOL    HW235718   4.117   1.493   8.452
 8069SOL     OW35719   4.162   0.392   8.947
 8069SOL    HW135720   4.244   0.336   8.956
 8069SOL    HW235721   4.081   0.334   8.951
 8070SOL     OW35722   3.955   1.713   7.931
 8070SOL    HW135723   3.989   1.790   7.985
 8070SOL    HW235724   3.999   1.713   7.841
 8071SOL     OW35725   3.954   1.434   7.986
 8071SOL    HW135726   3.928   1.530   7.986
 8071SOL    HW235727   3.883   1.380   8.031
 8072SOL     OW35728   3.964   1.091   8.334
 8072SOL    HW135729   3.978   1.007   8.386
 8072SOL    HW235730   3.909   1.155   8.389
 8073SOL     OW35731   4.344   1.786   8.887
 8073SOL    HW135732   4.252   1.769   8.922
 8073SOL    HW235733   4.372   1.878   8.913
 8074SOL     OW35734   4.330   0.964   7.571
 8074SOL    HW135735   4.337   1.048   7.517
 8074SOL    HW235736   4.376   0.977   7.659
 8075SOL     OW35737   3.846   0.643   8.011
 8075SOL    HW135738   3.801   0.555   8.028
 8075SOL    HW235739   3.845   0.697   8.095
 8076SOL     OW35740   3.751   1.596   7.565
 8076SOL    HW135741   3.732   1.500   7.586
 8076SOL    HW235742   3.718   1.654   7.640
 8077SOL     OW35743   3.837   0.737   9.045
 8077SOL    HW135744   3.925   0.724   9.090
 8077SOL    HW235745   3.824   0.834   9.023
 8078SOL     OW35746   4.337   1.365   8.174
 8078SOL    HW135747   4.288   1.278   8.183
 8078SOL    HW235748   4.314   1.408   8.087
 8079SOL     OW35749   4.533   0.004   7.950
 8079SOL    HW135750   4.573   0.095   7.941
 8079SOL    HW235751   4.433   0.012   7.956
 8080SOL     OW35752   3.921   0.976   8.712
 8080SOL    HW135753   4.010   0.931   8.698
 8080SOL    HW235754   3.848   0.911   8.693
 8081SOL     OW35755   4.041   0.251   9.249
 8081SOL    HW135756   4.112   0.322   9.255
 8081SOL    HW235757   3.953   0.290   9.277
 8082SOL     OW35758   4.322   0.729   7.718
 8082SOL    HW135759   4.346   0.798   7.650
 8082SOL    HW235760   4.244   0.762   7.772
 8083SOL     OW35761   4.531   0.605   8.913
 8083SOL    HW135762   4.484   0.602   9.002
 8083SOL    HW235763   4.480   0.550   8.847
 8084SOL     OW35764   4.697   0.890   9.020
 8084SOL    HW135765   4.743   0.806   8.991
 8084SOL    HW235766   4.641   0.924   8.945
 8085SOL     OW35767   4.715   0.410   8.690
 8085SOL    HW135768   4.638   0.444   8.744
 8085SOL    HW235769   4.681   0.359   8.611
 8086SOL     OW35770   3.800   0.811   8.237
 8086SOL    HW135771   3.899   0.799   8.246
 8086SOL    HW235772   3.776   0.906   8.258
 8087SOL     OW35773   3.854   1.821   9.019
 8087SOL    HW135774   3.844   1.806   9.118
 8087SOL    HW235775   3.768   1.857   8.983
 8088SOL     OW35776   4.589   0.348   7.643
 8088SOL    HW135777   4.648   0.411   7.594
 8088SOL    HW235778   4.608   0.254   7.614
 8089SOL     OW35779   4.274   0.196   8.333
 8089SOL    HW135780   4.269   0.191   8.433
 8089SOL    HW235781   4.276   0.292   8.304
 8090SOL     OW35782   4.732   1.456   7.925
 8090SOL    HW135783   4.686   1.528   7.873
 8090SOL    HW235784   4.728   1.476   8.023
 8091SOL     OW35785   4.075   1.801   8.301
 8091SOL    HW135786   4.125   1.715   8.307
 8091SOL    HW235787   4.140   1.878   8.298
 8092SOL     OW35788   4.045   0.943   7.690
 8092SOL    HW135789   4.127   0.982   7.648
 8092SOL    HW235790   4.018   0.861   7.641
 8093SOL     OW35791   4.185   1.266   9.175
 8093SOL    HW135792   4.135   1.267   9.089
 8093SOL    HW235793   4.122   1.248   9.251
 8094SOL     OW35794   3.926   0.285   8.946
 8094SOL    HW135795   3.846   0.345   8.933
 8094SOL    HW235796   3.916   0.236   9.032
 8095SOL     OW35797   4.188   1.743   7.771
 8095SOL    HW135798   4.221   1.782   7.857
 8095SOL    HW235799   4.264   1.736   7.706
 8096SOL     OW35800   3.973   1.785   8.689
 8096SOL    HW135801   4.030   1.720   8.739
 8096SOL    HW235802   3.957   1.752   8.596
 8097SOL     OW35803   4.106   0.700   7.928
 8097SOL    HW135804   4.151   0.610   7.925
 8097SOL    HW235805   4.012   0.689   7.961
 8098SOL     OW35806   4.338   0.122   7.565
 8098SOL    HW135807   4.436   0.100   7.572
 8098SOL    HW235808   4.307   0.105   7.472
 8099SOL     OW35809   4.612   1.514   8.643
 8099SOL    HW135810   4.589   1.489   8.549
 8099SOL    HW235811   4.673   1.445   8.682
 8100SOL     OW35812   4.527   1.402   8.372
 8100SOL    HW135813   4.617   1.416   8.330
 8100SOL    HW235814   4.456   1.404   8.301
 8101SOL     OW35815   4.646   0.503   8.347
 8101SOL    HW135816   4.621   0.494   8.251
 8101SOL    HW235817   4.694   0.421   8.378
 8102SOL     OW35818   4.263   0.064   7.960
 8102SOL    HW135819   4.182   0.065   8.018
 8102SOL    HW235820   4.266   0.147   7.905
 8103SOL     OW35821   4.021   0.035   7.619
 8103SOL    HW135822   4.070   0.119   7.598
 8103SOL    HW235823   4.083  -0.030   7.664
 8104SOL     OW35824   4.659   0.236   7.928
 8104SOL    HW135825   4.611   0.277   7.850
 8104SOL    HW235826   4.758   0.234   7.909
 8105SOL     OW35827   4.951   1.570   8.241
 8105SOL    HW135828   4.972   1.644   8.176
 8105SOL    HW235829   5.019   1.570   8.314
 8106SOL     OW35830   4.183   1.152   8.189
 8106SOL    HW135831   4.112   1.125   8.254
 8106SOL    HW235832   4.157   1.124   8.096
 8107SOL     OW35833   4.756   0.549   7.464
 8107SOL    HW135834   4.715   0.631   7.425
 8107SOL    HW235835   4.820   0.575   7.537
 8108SOL     OW35836   3.802   0.556   8.834
 8108SOL    HW135837   3.894   0.555   8.793
 8108SOL    HW235838   3.796   0.630   8.901
 8109SOL     OW35839   4.285   0.222   8.595
 8109SOL    HW135840   4.323   0.138   8.632
 8109SOL    HW235841   4.197   0.241   8.639
 8110SOL     OW35842   4.590   0.454   8.090
 8110SOL    HW135843   4.558   0.526   8.028
 8110SOL    HW235844   4.614   0.373   8.037
 8111SOL     OW35845   4.741   0.039   8.201
 8111SOL    HW135846   4.669   0.044   8.132
 8111SOL    HW235847   4.717  -0.030   8.270
 8112SOL     OW35848   4.212   1.385   7.622
 8112SOL    HW135849   4.125   1.370   7.669
 8112SOL    HW235850   4.195   1.411   7.527
 8113SOL     OW35851   4.251   0.256   7.776
 8113SOL    HW135852   4.278   0.197   7.701
 8113SOL    HW235853   4.251   0.351   7.745
 8114SOL     OW35854   4.704   1.116   9.167
 8114SOL    HW135855   4.605   1.122   9.177
 8114SOL    HW235856   4.727   1.036   9.111
 8115SOL     OW35857   4.429   1.050   7.816
 8115SOL    HW135858   4.415   1.057   7.915
 8115SOL    HW235859   4.513   0.999   7.798
 8116SOL     OW35860   4.134   0.813   8.699
 8116SOL    HW135861   4.220   0.825   8.749
 8116SOL    HW235862   4.092   0.726   8.726
 8117SOL     OW35863   3.788   1.564   8.779
 8117SOL    HW135864   3.742   1.646   8.745
 8117SOL    HW235865   3.886   1.583   8.788
 8118SOL     OW35866   4.091   1.100   7.949
 8118SOL    HW135867   4.084   1.183   7.893
 8118SOL    HW235868   4.095   1.020   7.889
 8119SOL     OW35869   4.290   0.537   8.313
 8119SOL    HW135870   4.302   0.603   8.239
 8119SOL    HW235871   4.336   0.571   8.396
 8120SOL     OW35872   4.078   1.510   8.777
 8120SOL    HW135873   4.057   1.466   8.690
 8120SOL    HW235874   4.175   1.536   8.780
 8121SOL     OW35875   4.126   0.751   9.046
 8121SOL    HW135876   4.194   0.806   8.999
 8121SOL    HW235877   4.166   0.663   9.073
 8122SOL     OW35878   4.228   0.050   9.188
 8122SOL    HW135879   4.186  -0.007   9.118
 8122SOL    HW235880   4.162   0.119   9.220
 8123SOL     OW35881   4.297   0.870   8.477
 8123SOL    HW135882   4.341   0.959   8.468
 8123SOL    HW235883   4.234   0.870   8.554
 8124SOL     OW35884   4.933   0.525   7.723
 8124SOL    HW135885   4.946   0.441   7.777
 8124SOL    HW235886   4.904   0.599   7.783
 8125SOL     OW35887   4.031   0.213   8.679
 8125SOL    HW135888   4.008   0.250   8.769
 8125SOL    HW235889   4.001   0.118   8.673
 8126SOL     OW35890   3.761   1.310   8.730
 8126SOL    HW135891   3.814   1.261   8.798
 8126SOL    HW235892   3.783   1.408   8.735
 8127SOL     OW35893   4.456   0.634   8.512
 8127SOL    HW135894   4.515   0.608   8.436
 8127SOL    HW235895   4.428   0.730   8.501
 8128SOL     OW35896   4.031   0.063   8.066
 8128SOL    HW135897   4.020   0.157   8.099
 8128SOL    HW235898   4.026   0.000   8.143
 8129SOL     OW35899   4.747   0.766   8.414
 8129SOL    HW135900   4.762   0.787   8.510
 8129SOL    HW235901   4.717   0.671   8.405
 8130SOL     OW35902   4.704   1.573   9.148
 8130SOL    HW135903   4.684   1.617   9.060
 8130SOL    HW235904   4.743   1.482   9.132
 8131SOL     OW35905   4.074   0.898   9.252
 8131SOL    HW135906   4.150   0.942   9.300
 8131SOL    HW235907   4.109   0.851   9.170
 8132SOL     OW35908   4.043   0.810   8.397
 8132SOL    HW135909   4.136   0.846   8.402
 8132SOL    HW235910   4.037   0.725   8.449
 8133SOL     OW35911   4.063   0.509   8.454
 8133SOL    HW135912   4.011   0.426   8.437
 8133SOL    HW235913   4.140   0.514   8.390
 8134SOL     OW35914   3.732   1.326   7.648
 8134SOL    HW135915   3.639   1.347   7.617
 8134SOL    HW235916   3.742   1.227   7.661
 8135SOL     OW35917   3.812   1.801   8.375
 8135SOL    HW135918   3.770   1.715   8.348
 8135SOL    HW235919   3.906   1.804   8.341
 8136SOL     OW35920   4.228   1.568   8.358
 8136SOL    HW135921   4.294   1.642   8.367
 8136SOL    HW235922   4.272   1.489   8.316
 8137SOL     OW35923   4.726   0.796   8.686
 8137SOL    HW135924   4.767   0.764   8.772
 8137SOL    HW235925   4.630   0.769   8.683
 8138SOL     OW35926   3.764   0.544   8.562
 8138SOL    HW135927   3.849   0.511   8.521
 8138SOL    HW235928   3.777   0.559   8.660
 8139SOL     OW35929   3.913   0.520   9.170
 8139SOL    HW135930   3.972   0.480   9.100
 8139SOL    HW235931   3.855   0.591   9.129
 8140SOL     OW35932   4.539   0.572   7.773
 8140SOL    HW135933   4.546   0.483   7.727
 8140SOL    HW235934   4.445   0.606   7.765
 8141SOL     OW35935   3.976   1.564   9.192
 8141SOL    HW135936   3.946   1.621   9.268
 8141SOL    HW235937   3.969   1.467   9.218
 8142SOL     OW35938   4.395   0.464   8.717
 8142SOL    HW135939   4.361   0.375   8.687
 8142SOL    HW235940   4.421   0.518   8.637
 8143SOL     OW35941   4.654   1.678   8.913
 8143SOL    HW135942   4.630   1.660   8.818
 8143SOL    HW235943   4.684   1.772   8.923
 8144SOL     OW35944   4.197   0.500   7.639
 8144SOL    HW135945   4.258   0.580   7.643
 8144SOL    HW235946   4.102   0.531   7.646
 8145SOL     OW35947   3.883   1.137   8.914
 8145SOL    HW135948   3.905   1.076   8.990
 8145SOL    HW235949   3.893   1.088   8.828
 8146SOL     OW35950   3.807   1.258   8.470
 8146SOL    HW135951   3.802   1.257   8.570
 8146SOL    HW235952   3.724   1.217   8.432
 8147SOL     OW35953   4.412   1.662   9.164
 8147SOL    HW135954   4.356   1.743   9.173
 8147SOL    HW235955   4.464   1.666   9.078
 8148SOL     OW35956   3.854   1.794   9.299
 8148SOL    HW135957   3.813   1.720   9.352
 8148SOL    HW235958   3.918   1.845   9.357
 8149SOL     OW35959   5.004   0.927   8.120
 8149SOL    HW135960   5.064   0.846   8.122
 8149SOL    HW235961   5.044   0.996   8.060
 8150SOL     OW35962   4.554   1.273   8.870
 8150SOL    HW135963   4.549   1.306   8.965
 8150SOL    HW235964   4.468   1.292   8.824
 8151SOL     OW35965   4.396   1.616   7.602
 8151SOL    HW135966   4.405   1.626   7.503
 8151SOL    HW235967   4.356   1.527   7.623
 8152SOL     OW35968   3.987   0.326   8.168
 8152SOL    HW135969   3.908   0.377   8.134
 8152SOL    HW235970   3.978   0.311   8.266
 8153SOL     OW35971   4.546   1.002   8.820
 8153SOL    HW135972   4.586   1.001   8.728
 8153SOL    HW235973   4.556   1.094   8.860
 8154SOL     OW35974   4.640   0.910   7.739
 8154SOL    HW135975   4.703   0.948   7.671
 8154SOL    HW235976   4.680   0.827   7.778
 8155SOL     OW35977   4.096   1.288   8.938
 8155SOL    HW135978   4.083   1.381   8.904
 8155SOL    HW235979   4.012   1.236   8.925
 8156SOL     OW35980   4.763   1.098   8.144
 8156SOL    HW135981   4.693   1.051   8.198
 8156SOL    HW235982   4.822   1.030   8.101
 8157SOL     OW35983   4.738   0.236   8.419
 8157SOL    HW135984   4.730   0.200   8.326
 8157SOL    HW235985   4.736   0.160   8.484
 8158SOL     OW35986   4.314   1.487   7.939
 8158SOL    HW135987   4.356   1.429   7.869
 8158SOL    HW235988   4.270   1.566   7.895
 8159SOL     OW35989   3.979   1.348   7.738
 8159SOL    HW135990   3.883   1.349   7.711
 8159SOL    HW235991   3.991   1.401   7.822
 8160SOL     OW35992   3.829   1.013   9.174
 8160SOL    HW135993   3.752   0.980   9.228
 8160SOL    HW235994   3.914   0.983   9.216
 8161SOL     OW35995   4.396   0.203   8.937
 8161SOL    HW135996   4.486   0.187   8.897
 8161SOL    HW235997   4.404   0.208   9.036
 8162SOL     OW35998   3.799   0.345   7.481
 8162SOL    HW135999   3.707   0.317   7.452
 8162SOL    HW236000   3.830   0.422   7.425
 8163SOL     OW36001   3.796   0.166   7.766
 8163SOL    HW136002   3.779   0.249   7.712
 8163SOL    HW236003   3.886   0.129   7.744
 8164SOL     OW36004   4.337   0.842   8.879
 8164SOL    HW136005   4.393   0.923   8.862
 8164SOL    HW236006   4.396   0.762   8.882
 8165SOL     OW36007   4.440   0.565   9.156
 8165SOL    HW136008   4.459   0.630   9.230
 8165SOL    HW236009   4.500   0.485   9.165
 8166SOL     OW36010   4.114   1.741   9.008
 8166SOL    HW136011   4.023   1.782   9.006
 8166SOL    HW236012   4.107   1.647   9.040
 8167SOL     OW36013   4.949   0.325   7.897
 8167SOL    HW136014   5.014   0.251   7.886
 8167SOL    HW236015   4.969   0.375   7.981
 8168SOL     OW36016   4.318   0.745   8.100
 8168SOL    HW136017   4.368   0.830   8.081
 8168SOL    HW236018   4.230   0.747   8.052
 8169SOL     OW36019   4.583   1.374   7.464
 8169SOL    HW136020   4.537   1.389   7.552
 8169SOL    HW236021   4.627   1.459   7.434
 8170SOL     OW36022   4.385   1.790   8.401
 8170SOL    HW136023   4.339   1.878   8.388
 8170SOL    HW236024   4.484   1.802   8.394
 8171SOL     OW36025   4.583   0.956   8.309
 8171SOL    HW136026   4.637   0.887   8.357
 8171SOL    HW236027   4.551   1.025   8.375
 8172SOL     OW36028   3.945   1.314   9.292
 8172SOL    HW136029   3.880   1.241   9.271
 8172SOL    HW236030   3.949   1.328   9.390
 8173SOL     OW36031   3.803   1.240   8.101
 8173SOL    HW136032   3.802   1.193   8.189
 8173SOL    HW236033   3.885   1.212   8.050
 8174SOL     OW36034   4.396   1.391   9.072
 8174SOL    HW136035   4.318   1.341   9.110
 8174SOL    HW236036   4.393   1.486   9.103
 8175SOL     OW36037   4.152   0.424   7.968
 8175SOL    HW136038   4.182   0.352   7.906
 8175SOL    HW236039   4.113   0.384   8.051
 8176SOL     OW36040   4.041   0.547   8.728
 8176SOL    HW136041   4.079   0.488   8.800
 8176SOL    HW236042   4.081   0.521   8.640
 8177SOL     OW36043   4.536   1.586   8.135
 8177SOL    HW136044   4.568   1.596   8.041
 8177SOL    HW236045   4.457   1.524   8.137
 8178SOL     OW36046   4.725   0.034   8.602
 8178SOL    HW136047   4.662  -0.038   8.571
 8178SOL    HW236048   4.818  -0.002   8.602
 8179SOL     OW36049   4.494   1.330   7.749
 8179SOL    HW136050   4.448   1.243   7.766
 8179SOL    HW236051   4.585   1.327   7.790
 8180SOL     OW36052   4.342   1.567   8.732
 8180SOL    HW136053   4.337   1.649   8.789
 8180SOL    HW236054   4.431   1.564   8.687
 8181SOL     OW36055   3.763   1.077   7.748
 8181SOL    HW136056   3.862   1.066   7.739
 8181SOL    HW236057   3.723   0.991   7.780
 8182SOL     OW36058   4.599   1.646   7.785
 8182SOL    HW136059   4.522   1.611   7.731
 8182SOL    HW236060   4.567   1.717   7.847
 8183SOL     OW36061   3.954   0.628   9.423
 8183SOL    HW136062   3.861   0.626   9.460
 8183SOL    HW236063   3.955   0.589   9.331
 8184SOL     OW36064   3.949   0.275  10.306
 8184SOL    HW136065   3.984   0.258  10.398
 8184SOL    HW236066   3.861   0.230  10.294
 8185SOL     OW36067   3.743   0.368   9.957
 8185SOL    HW136068   3.661   0.411   9.996
 8185SOL    HW236069   3.715   0.295   9.894
 8186SOL     OW36070   4.492   1.144  10.333
 8186SOL    HW136071   4.414   1.161  10.393
 8186SOL    HW236072   4.526   1.231  10.297
 8187SOL     OW36073   4.409   1.012   9.975
 8187SOL    HW136074   4.478   0.996  10.045
 8187SOL    HW236075   4.336   1.069  10.013
 8188SOL     OW36076   4.162   0.392  10.809
 8188SOL    HW136077   4.244   0.336  10.818
 8188SOL    HW236078   4.081   0.334  10.813
 8189SOL     OW36079   3.955   1.713   9.793
 8189SOL    HW136080   3.989   1.790   9.847
 8189SOL    HW236081   3.999   1.713   9.703
 8190SOL     OW36082   3.954   1.434   9.848
 8190SOL    HW136083   3.928   1.530   9.848
 8190SOL    HW236084   3.883   1.380   9.893
 8191SOL     OW36085   3.964   1.091  10.196
 8191SOL    HW136086   3.978   1.007  10.248
 8191SOL    HW236087   3.909   1.155  10.251
 8192SOL     OW36088   4.330   0.964   9.433
 8192SOL    HW136089   4.337   1.048   9.379
 8192SOL    HW236090   4.376   0.977   9.521
 8193SOL     OW36091   3.846   0.643   9.873
 8193SOL    HW136092   3.801   0.555   9.890
 8193SOL    HW236093   3.845   0.697   9.957
 8194SOL     OW36094   3.751   1.596   9.427
 8194SOL    HW136095   3.732   1.500   9.448
 8194SOL    HW236096   3.718   1.654   9.502
 8195SOL     OW36097   3.837   0.737  10.907
 8195SOL    HW136098   3.925   0.724  10.952
 8195SOL    HW236099   3.824   0.834  10.885
 8196SOL     OW36100   4.337   1.365  10.036
 8196SOL    HW136101   4.288   1.278  10.045
 8196SOL    HW236102   4.314   1.408   9.949
 8197SOL     OW36103   4.533   0.004   9.812
 8197SOL    HW136104   4.573   0.095   9.803
 8197SOL    HW236105   4.433   0.012   9.818
 8198SOL     OW36106   3.921   0.976  10.574
 8198SOL    HW136107   4.010   0.931  10.560
 8198SOL    HW236108   3.848   0.911  10.555
 8199SOL     OW36109   4.041   0.251  11.111
 8199SOL    HW136110   4.112   0.322  11.117
 8199SOL    HW236111   3.953   0.290  11.139
 8200SOL     OW36112   4.322   0.729   9.580
 8200SOL    HW136113   4.346   0.798   9.512
 8200SOL    HW236114   4.244   0.762   9.634
 8201SOL     OW36115   4.531   0.605  10.775
 8201SOL    HW136116   4.484   0.602  10.864
 8201SOL    HW236117   4.480   0.550  10.709
 8202SOL     OW36118   4.697   0.890  10.882
 8202SOL    HW136119   4.743   0.806  10.853
 8202SOL    HW236120   4.641   0.924  10.807
 8203SOL     OW36121   4.715   0.410  10.552
 8203SOL    HW136122   4.638   0.444  10.606
 8203SOL    HW236123   4.681   0.359  10.473
 8204SOL     OW36124   3.800   0.811  10.099
 8204SOL    HW136125   3.899   0.799  10.108
 8204SOL    HW236126   3.776   0.906  10.120
 8205SOL     OW36127   4.589   0.348   9.505
 8205SOL    HW136128   4.648   0.411   9.456
 8205SOL    HW236129   4.608   0.254   9.476
 8206SOL     OW36130   4.274   0.196  10.195
 8206SOL    HW136131   4.269   0.191  10.295
 8206SOL    HW236132   4.276   0.292  10.166
 8207SOL     OW36133   4.732   1.456   9.787
 8207SOL    HW136134   4.686   1.528   9.735
 8207SOL    HW236135   4.728   1.476   9.885
 8208SOL     OW36136   4.045   0.943   9.552
 8208SOL    HW136137   4.127   0.982   9.510
 8208SOL    HW236138   4.018   0.861   9.503
 8209SOL     OW36139   3.926   0.285  10.808
 8209SOL    HW136140   3.846   0.345  10.795
 8209SOL    HW236141   3.916   0.236  10.894
 8210SOL     OW36142   4.188   1.743   9.633
 8210SOL    HW136143   4.221   1.782   9.719
 8210SOL    HW236144   4.264   1.736   9.568
 8211SOL     OW36145   4.106   0.700   9.790
 8211SOL    HW136146   4.151   0.610   9.787
 8211SOL    HW236147   4.012   0.689   9.823
 8212SOL     OW36148   4.527   1.402  10.234
 8212SOL    HW136149   4.617   1.416  10.192
 8212SOL    HW236150   4.456   1.404  10.163
 8213SOL     OW36151   4.646   0.503  10.209
 8213SOL    HW136152   4.621   0.494  10.113
 8213SOL    HW236153   4.694   0.421  10.240
 8214SOL     OW36154   4.263   0.064   9.822
 8214SOL    HW136155   4.182   0.065   9.880
 8214SOL    HW236156   4.266   0.147   9.767
 8215SOL     OW36157   4.021   0.035   9.481
 8215SOL    HW136158   4.070   0.119   9.460
 8215SOL    HW236159   4.083  -0.030   9.526
 8216SOL     OW36160   4.659   0.236   9.790
 8216SOL    HW136161   4.611   0.277   9.712
 8216SOL    HW236162   4.758   0.234   9.771
 8217SOL     OW36163   4.951   1.570  10.103
 8217SOL    HW136164   4.972   1.644  10.038
 8217SOL    HW236165   5.019   1.570  10.176
 8218SOL     OW36166   4.183   1.152  10.051
 8218SOL    HW136167   4.112   1.125  10.116
 8218SOL    HW236168   4.157   1.124   9.958
 8219SOL     OW36169   4.756   0.549   9.326
 8219SOL    HW136170   4.715   0.631   9.287
 8219SOL    HW236171   4.820   0.575   9.399
 8220SOL     OW36172   3.802   0.556  10.696
 8220SOL    HW136173   3.894   0.555  10.655
 8220SOL    HW236174   3.796   0.630  10.763
 8221SOL     OW36175   4.285   0.222  10.457
 8221SOL    HW136176   4.323   0.138  10.494
 8221SOL    HW236177   4.197   0.241  10.501
 8222SOL     OW36178   4.590   0.454   9.952
 8222SOL    HW136179   4.558   0.526   9.890
 8222SOL    HW236180   4.614   0.373   9.899
 8223SOL     OW36181   4.741   0.039  10.063
 8223SOL    HW136182   4.669   0.044   9.994
 8223SOL    HW236183   4.717  -0.030  10.132
 8224SOL     OW36184   4.212   1.385   9.484
 8224SOL    HW136185   4.125   1.370   9.531
 8224SOL    HW236186   4.195   1.411   9.389
 8225SOL     OW36187   4.251   0.256   9.638
 8225SOL    HW136188   4.278   0.197   9.563
 8225SOL    HW236189   4.251   0.351   9.607
 8226SOL     OW36190   4.639   0.089  10.712
 8226SOL    HW136191   4.664   0.069  10.617
 8226SOL    HW236192   4.711   0.145  10.754
 8227SOL     OW36193   4.429   1.050   9.678
 8227SOL    HW136194   4.415   1.057   9.777
 8227SOL    HW236195   4.513   0.999   9.660
 8228SOL     OW36196   4.134   0.813  10.561
 8228SOL    HW136197   4.220   0.825  10.611
 8228SOL    HW236198   4.092   0.726  10.588
 8229SOL     OW36199   4.091   1.100   9.811
 8229SOL    HW136200   4.084   1.183   9.755
 8229SOL    HW236201   4.095   1.020   9.751
 8230SOL     OW36202   4.290   0.537  10.175
 8230SOL    HW136203   4.302   0.603  10.101
 8230SOL    HW236204   4.336   0.571  10.258
 8231SOL     OW36205   4.126   0.751  10.908
 8231SOL    HW136206   4.194   0.806  10.861
 8231SOL    HW236207   4.166   0.663  10.935
 8232SOL     OW36208   4.297   0.870  10.339
 8232SOL    HW136209   4.341   0.959  10.330
 8232SOL    HW236210   4.234   0.870  10.416
 8233SOL     OW36211   4.933   0.525   9.585
 8233SOL    HW136212   4.946   0.441   9.639
 8233SOL    HW236213   4.904   0.599   9.645
 8234SOL     OW36214   4.031   0.213  10.541
 8234SOL    HW136215   4.008   0.250  10.631
 8234SOL    HW236216   4.001   0.118  10.535
 8235SOL     OW36217   4.456   0.634  10.374
 8235SOL    HW136218   4.515   0.608  10.298
 8235SOL    HW236219   4.428   0.730  10.363
 8236SOL     OW36220   4.031   0.063   9.928
 8236SOL    HW136221   4.020   0.157   9.961
 8236SOL    HW236222   4.026   0.000  10.005
 8237SOL     OW36223   4.747   0.766  10.276
 8237SOL    HW136224   4.762   0.787  10.372
 8237SOL    HW236225   4.717   0.671  10.267
 8238SOL     OW36226   4.074   0.898  11.114
 8238SOL    HW136227   4.150   0.942  11.162
 8238SOL    HW236228   4.109   0.851  11.032
 8239SOL     OW36229   4.043   0.810  10.259
 8239SOL    HW136230   4.136   0.846  10.264
 8239SOL    HW236231   4.037   0.725  10.311
 8240SOL     OW36232   4.063   0.509  10.316
 8240SOL    HW136233   4.011   0.426  10.299
 8240SOL    HW236234   4.140   0.514  10.252
 8241SOL     OW36235   3.732   1.326   9.510
 8241SOL    HW136236   3.639   1.347   9.479
 8241SOL    HW236237   3.742   1.227   9.523
 8242SOL     OW36238   3.812   1.801  10.237
 8242SOL    HW136239   3.770   1.715  10.210
 8242SOL    HW236240   3.906   1.804  10.203
 8243SOL     OW36241   4.726   0.796  10.548
 8243SOL    HW136242   4.767   0.764  10.634
 8243SOL    HW236243   4.630   0.769  10.545
 8244SOL     OW36244   3.764   0.544  10.424
 8244SOL    HW136245   3.849   0.511  10.383
 8244SOL    HW236246   3.777   0.559  10.522
 8245SOL     OW36247   3.913   0.520  11.032
 8245SOL    HW136248   3.972   0.480  10.962
 8245SOL    HW236249   3.855   0.591  10.991
 8246SOL     OW36250   4.539   0.572   9.635
 8246SOL    HW136251   4.546   0.483   9.589
 8246SOL    HW236252   4.445   0.606   9.627
 8247SOL     OW36253   4.395   0.464  10.579
 8247SOL    HW136254   4.361   0.375  10.549
 8247SOL    HW236255   4.421   0.518  10.499
 8248SOL     OW36256   4.197   0.500   9.501
 8248SOL    HW136257   4.258   0.580   9.505
 8248SOL    HW236258   4.102   0.531   9.508
 8249SOL     OW36259   3.807   1.258  10.332
 8249SOL    HW136260   3.802   1.257  10.432
 8249SOL    HW236261   3.724   1.217  10.294
 8250SOL     OW36262   5.004   0.927   9.982
 8250SOL    HW136263   5.064   0.846   9.984
 8250SOL    HW236264   5.044   0.996   9.922
 8251SOL     OW36265   4.554   1.273  10.732
 8251SOL    HW136266   4.549   1.306  10.827
 8251SOL    HW236267   4.468   1.292  10.686
 8252SOL     OW36268   4.396   1.616   9.464
 8252SOL    HW136269   4.405   1.626   9.365
 8252SOL    HW236270   4.356   1.527   9.485
 8253SOL     OW36271   3.987   0.326  10.030
 8253SOL    HW136272   3.908   0.377   9.996
 8253SOL    HW236273   3.978   0.311  10.128
 8254SOL     OW36274   4.546   1.002  10.682
 8254SOL    HW136275   4.586   1.001  10.590
 8254SOL    HW236276   4.556   1.094  10.722
 8255SOL     OW36277   4.640   0.910   9.601
 8255SOL    HW136278   4.703   0.948   9.533
 8255SOL    HW236279   4.680   0.827   9.640
 8256SOL     OW36280   4.763   1.098  10.006
 8256SOL    HW136281   4.693   1.051  10.060
 8256SOL    HW236282   4.822   1.030   9.963
 8257SOL     OW36283   4.738   0.236  10.281
 8257SOL    HW136284   4.730   0.200  10.188
 8257SOL    HW236285   4.736   0.160  10.346
 8258SOL     OW36286   4.314   1.487   9.801
 8258SOL    HW136287   4.356   1.429   9.731
 8258SOL    HW236288   4.270   1.566   9.757
 8259SOL     OW36289   3.979   1.348   9.600
 8259SOL    HW136290   3.883   1.349   9.573
 8259SOL    HW236291   3.991   1.401   9.684
 8260SOL     OW36292   3.799   0.345   9.343
 8260SOL    HW136293   3.707   0.317   9.314
 8260SOL    HW236294   3.830   0.422   9.287
 8261SOL     OW36295   3.796   0.166   9.628
 8261SOL    HW136296   3.779   0.249   9.574
 8261SOL    HW236297   3.886   0.129   9.606
 8262SOL     OW36298   4.337   0.842  10.741
 8262SOL    HW136299   4.393   0.923  10.724
 8262SOL    HW236300   4.396   0.762  10.744
 8263SOL     OW36301   4.949   0.325   9.759
 8263SOL    HW136302   5.014   0.251   9.748
 8263SOL    HW236303   4.969   0.375   9.843
 8264SOL     OW36304   4.318   0.745   9.962
 8264SOL    HW136305   4.368   0.830   9.943
 8264SOL    HW236306   4.230   0.747   9.914
 8265SOL     OW36307   4.583   1.374   9.326
 8265SOL    HW136308   4.537   1.389   9.414
 8265SOL    HW236309   4.627   1.459   9.296
 8266SOL     OW36310   4.583   0.956  10.171
 8266SOL    HW136311   4.637   0.887  10.219
 8266SOL    HW236312   4.551   1.025  10.237
 8267SOL     OW36313   3.803   1.240   9.963
 8267SOL    HW136314   3.802   1.193  10.051
 8267SOL    HW236315   3.885   1.212   9.912
 8268SOL     OW36316   4.152   0.424   9.830
 8268SOL    HW136317   4.182   0.352   9.768
 8268SOL    HW236318   4.113   0.384   9.913
 8269SOL     OW36319   4.041   0.547  10.590
 8269SOL    HW136320   4.079   0.488  10.662
 8269SOL    HW236321   4.081   0.521  10.502
 8270SOL     OW36322   4.536   1.586   9.997
 8270SOL    HW136323   4.568   1.596   9.903
 8270SOL    HW236324   4.457   1.524   9.999
 8271SOL     OW36325   4.725   0.034  10.464
 8271SOL    HW136326   4.662  -0.038  10.433
 8271SOL    HW236327   4.818  -0.002  10.464
 8272SOL     OW36328   4.494   1.330   9.611
 8272SOL    HW136329   4.448   1.243   9.628
 8272SOL    HW236330   4.585   1.327   9.652
 8273SOL     OW36331   3.763   1.077   9.610
 8273SOL    HW136332   3.862   1.066   9.601
 8273SOL    HW236333   3.723   0.991   9.642
 8274SOL     OW36334   4.599   1.646   9.647
 8274SOL    HW136335   4.522   1.611   9.593
 8274SOL    HW236336   4.567   1.717   9.709
 8275SOL     OW36337   3.954   0.628  11.285
 8275SOL    HW136338   3.861   0.626  11.322
 8275SOL    HW236339   3.955   0.589  11.193
 8276SOL     OW36340   3.743   0.368  11.819
 8276SOL    HW136341   3.661   0.411  11.858
 8276SOL    HW236342   3.715   0.295  11.756
 8277SOL     OW36343   4.410   1.161  12.975
 8277SOL    HW136344   4.470   1.240  12.989
 8277SOL    HW236345   4.324   1.192  12.934
 8278SOL     OW36346   4.330   0.964  11.295
 8278SOL    HW136347   4.337   1.048  11.241
 8278SOL    HW236348   4.376   0.977  11.383
 8279SOL     OW36349   4.533   0.004  11.674
 8279SOL    HW136350   4.573   0.095  11.665
 8279SOL    HW236351   4.433   0.012  11.680
 8280SOL     OW36352   3.854   1.821  12.743
 8280SOL    HW136353   3.844   1.806  12.842
 8280SOL    HW236354   3.768   1.857  12.707
 8281SOL     OW36355   4.732   1.456  11.649
 8281SOL    HW136356   4.686   1.528  11.597
 8281SOL    HW236357   4.728   1.476  11.747
 8282SOL     OW36358   4.045   0.943  11.414
 8282SOL    HW136359   4.127   0.982  11.372
 8282SOL    HW236360   4.018   0.861  11.365
 8283SOL     OW36361   4.263   0.064  11.684
 8283SOL    HW136362   4.182   0.065  11.742
 8283SOL    HW236363   4.266   0.147  11.629
 8284SOL     OW36364   4.659   0.236  11.652
 8284SOL    HW136365   4.611   0.277  11.574
 8284SOL    HW236366   4.758   0.234  11.633
 8285SOL     OW36367   4.951   1.570  11.965
 8285SOL    HW136368   4.972   1.644  11.900
 8285SOL    HW236369   5.019   1.570  12.038
 8286SOL     OW36370   4.183   1.152  11.913
 8286SOL    HW136371   4.112   1.125  11.978
 8286SOL    HW236372   4.157   1.124  11.820
 8287SOL     OW36373   4.212   1.385  11.346
 8287SOL    HW136374   4.125   1.370  11.393
 8287SOL    HW236375   4.195   1.411  11.251
 8288SOL     OW36376   4.429   1.050  11.540
 8288SOL    HW136377   4.415   1.057  11.639
 8288SOL    HW236378   4.513   0.999  11.522
 8289SOL     OW36379   4.091   1.100  11.673
 8289SOL    HW136380   4.084   1.183  11.617
 8289SOL    HW236381   4.095   1.020  11.613
 8290SOL     OW36382   4.737   0.105  12.942
 8290SOL    HW136383   4.743   0.190  12.890
 8290SOL    HW236384   4.769   0.029  12.885
 8291SOL     OW36385   4.031   0.063  11.790
 8291SOL    HW136386   4.020   0.157  11.823
 8291SOL    HW236387   4.026   0.000  11.867
 8292SOL     OW36388   4.704   1.573  12.872
 8292SOL    HW136389   4.684   1.617  12.784
 8292SOL    HW236390   4.743   1.482  12.856
 8293SOL     OW36391   4.043   0.810  12.121
 8293SOL    HW136392   4.136   0.846  12.126
 8293SOL    HW236393   4.037   0.725  12.173
 8294SOL     OW36394   3.732   1.326  11.372
 8294SOL    HW136395   3.639   1.347  11.341
 8294SOL    HW236396   3.742   1.227  11.385
 8295SOL     OW36397   4.654   1.678  12.637
 8295SOL    HW136398   4.630   1.660  12.542
 8295SOL    HW236399   4.684   1.772  12.647
 8296SOL     OW36400   5.004   0.927  11.844
 8296SOL    HW136401   5.064   0.846  11.846
 8296SOL    HW236402   5.044   0.996  11.784
 8297SOL     OW36403   4.396   1.616  11.326
 8297SOL    HW136404   4.405   1.626  11.227
 8297SOL    HW236405   4.356   1.527  11.347
 8298SOL     OW36406   3.987   0.326  11.892
 8298SOL    HW136407   3.908   0.377  11.858
 8298SOL    HW236408   3.978   0.311  11.990
 8299SOL     OW36409   3.979   1.348  11.462
 8299SOL    HW136410   3.883   1.349  11.435
 8299SOL    HW236411   3.991   1.401  11.546
 8300SOL     OW36412   3.799   0.345  11.205
 8300SOL    HW136413   3.707   0.317  11.176
 8300SOL    HW236414   3.830   0.422  11.149
 8301SOL     OW36415   4.385   1.790  12.125
 8301SOL    HW136416   4.339   1.878  12.112
 8301SOL    HW236417   4.484   1.802  12.118
 8302SOL     OW36418   4.396   1.391  12.796
 8302SOL    HW136419   4.318   1.341  12.834
 8302SOL    HW236420   4.393   1.486  12.827
 8303SOL     OW36421   4.152   0.424  11.692
 8303SOL    HW136422   4.182   0.352  11.630
 8303SOL    HW236423   4.113   0.384  11.775
 8304SOL     OW36424   4.536   1.586  11.859
 8304SOL    HW136425   4.568   1.596  11.765
 8304SOL    HW236426   4.457   1.524  11.861
 8305SOL     OW36427   4.494   1.330  11.473
 8305SOL    HW136428   4.448   1.243  11.490
 8305SOL    HW236429   4.585   1.327  11.514
 8306SOL     OW36430   4.599   1.646  11.509
 8306SOL    HW136431   4.522   1.611  11.455
 8306SOL    HW236432   4.567   1.717  11.571
 8307SOL     OW36433   3.954   0.628  13.147
 8307SOL    HW136434   3.861   0.626  13.184
 8307SOL    HW236435   3.955   0.589  13.055
 8308SOL     OW36436   4.410   1.161  14.837
 8308SOL    HW136437   4.470   1.240  14.851
 8308SOL    HW236438   4.324   1.192  14.796
 8309SOL     OW36439   4.162   0.392  14.533
 8309SOL    HW136440   4.244   0.336  14.542
 8309SOL    HW236441   4.081   0.334  14.537
 8310SOL     OW36442   3.954   1.434  13.572
 8310SOL    HW136443   3.928   1.530  13.572
 8310SOL    HW236444   3.883   1.380  13.617
 8311SOL     OW36445   4.330   0.964  13.157
 8311SOL    HW136446   4.337   1.048  13.103
 8311SOL    HW236447   4.376   0.977  13.245
 8312SOL     OW36448   3.846   0.643  13.597
 8312SOL    HW136449   3.801   0.555  13.614
 8312SOL    HW236450   3.845   0.697  13.681
 8313SOL     OW36451   4.533   0.004  13.536
 8313SOL    HW136452   4.573   0.095  13.527
 8313SOL    HW236453   4.433   0.012  13.542
 8314SOL     OW36454   3.921   0.976  14.298
 8314SOL    HW136455   4.010   0.931  14.284
 8314SOL    HW236456   3.848   0.911  14.279
 8315SOL     OW36457   4.322   0.729  13.304
 8315SOL    HW136458   4.346   0.798  13.236
 8315SOL    HW236459   4.244   0.762  13.358
 8316SOL     OW36460   4.045   0.943  13.276
 8316SOL    HW136461   4.127   0.982  13.234
 8316SOL    HW236462   4.018   0.861  13.227
 8317SOL     OW36463   4.612   1.514  14.229
 8317SOL    HW136464   4.589   1.489  14.135
 8317SOL    HW236465   4.673   1.445  14.268
 8318SOL     OW36466   4.021   0.035  13.205
 8318SOL    HW136467   4.070   0.119  13.184
 8318SOL    HW236468   4.083  -0.030  13.250
 8319SOL     OW36469   4.183   1.152  13.775
 8319SOL    HW136470   4.112   1.125  13.840
 8319SOL    HW236471   4.157   1.124  13.682
 8320SOL     OW36472   4.212   1.385  13.208
 8320SOL    HW136473   4.125   1.370  13.255
 8320SOL    HW236474   4.195   1.411  13.113
 8321SOL     OW36475   4.251   0.256  13.362
 8321SOL    HW136476   4.278   0.197  13.287
 8321SOL    HW236477   4.251   0.351  13.331
 8322SOL     OW36478   4.429   1.050  13.402
 8322SOL    HW136479   4.415   1.057  13.501
 8322SOL    HW236480   4.513   0.999  13.384
 8323SOL     OW36481   4.091   1.100  13.535
 8323SOL    HW136482   4.084   1.183  13.479
 8323SOL    HW236483   4.095   1.020  13.475
 8324SOL     OW36484   4.737   0.105  14.804
 8324SOL    HW136485   4.743   0.190  14.752
 8324SOL    HW236486   4.769   0.029  14.747
 8325SOL     OW36487   4.031   0.063  13.652
 8325SOL    HW136488   4.020   0.157  13.685
 8325SOL    HW236489   4.026   0.000  13.729
 8326SOL     OW36490   4.654   1.678  14.499
 8326SOL    HW136491   4.630   1.660  14.404
 8326SOL    HW236492   4.684   1.772  14.509
 8327SOL     OW36493   4.197   0.500  13.225
 8327SOL    HW136494   4.258   0.580  13.229
 8327SOL    HW236495   4.102   0.531  13.232
 8328SOL     OW36496   4.738   0.236  14.005
 8328SOL    HW136497   4.730   0.200  13.912
 8328SOL    HW236498   4.736   0.160  14.070
 8329SOL     OW36499   3.799   0.345  13.067
 8329SOL    HW136500   3.707   0.317  13.038
 8329SOL    HW236501   3.830   0.422  13.011
 8330SOL     OW36502   3.796   0.166  13.352
 8330SOL    HW136503   3.779   0.249  13.298
 8330SOL    HW236504   3.886   0.129  13.330
 8331SOL     OW36505   4.583   1.374  13.050
 8331SOL    HW136506   4.537   1.389  13.138
 8331SOL    HW236507   4.627   1.459  13.020
 8332SOL     OW36508   4.041   0.547  14.314
 8332SOL    HW136509   4.079   0.488  14.386
 8332SOL    HW236510   4.081   0.521  14.226
 8333SOL     OW36511   3.763   1.077  13.334
 8333SOL    HW136512   3.862   1.066  13.325
 8333SOL    HW236513   3.723   0.991  13.366
 8334SOL     OW36514   4.574   0.798  16.720
 8334SOL    HW136515   4.570   0.874  16.785
 8334SOL    HW236516   4.596   0.834  16.629
 8335SOL     OW36517   4.162   0.392  16.396
 8335SOL    HW136518   4.244   0.336  16.405
 8335SOL    HW236519   4.081   0.334  16.400
 8336SOL     OW36520   3.954   1.434  15.434
 8336SOL    HW136521   3.928   1.530  15.434
 8336SOL    HW236522   3.883   1.380  15.479
 8337SOL     OW36523   3.964   1.091  15.782
 8337SOL    HW136524   3.978   1.007  15.834
 8337SOL    HW236525   3.909   1.155  15.837
 8338SOL     OW36526   3.846   0.643  15.459
 8338SOL    HW136527   3.801   0.555  15.476
 8338SOL    HW236528   3.845   0.697  15.543
 8339SOL     OW36529   4.533   0.004  15.398
 8339SOL    HW136530   4.573   0.095  15.389
 8339SOL    HW236531   4.433   0.012  15.404
 8340SOL     OW36532   3.921   0.976  16.161
 8340SOL    HW136533   4.010   0.931  16.147
 8340SOL    HW236534   3.848   0.911  16.142
 8341SOL     OW36535   4.531   0.605  16.362
 8341SOL    HW136536   4.484   0.602  16.451
 8341SOL    HW236537   4.480   0.550  16.296
 8342SOL     OW36538   4.697   0.890  16.469
 8342SOL    HW136539   4.743   0.806  16.440
 8342SOL    HW236540   4.641   0.924  16.394
 8343SOL     OW36541   3.800   0.811  15.685
 8343SOL    HW136542   3.899   0.799  15.694
 8343SOL    HW236543   3.776   0.906  15.706
 8344SOL     OW36544   4.589   0.348  15.091
 8344SOL    HW136545   4.648   0.411  15.042
 8344SOL    HW236546   4.608   0.254  15.062
 8345SOL     OW36547   3.973   1.785  16.138
 8345SOL    HW136548   4.030   1.720  16.188
 8345SOL    HW236549   3.957   1.752  16.045
 8346SOL     OW36550   4.646   0.503  15.795
 8346SOL    HW136551   4.621   0.494  15.699
 8346SOL    HW236552   4.694   0.421  15.826
 8347SOL     OW36553   4.659   0.236  15.376
 8347SOL    HW136554   4.611   0.277  15.298
 8347SOL    HW236555   4.758   0.234  15.357
 8348SOL     OW36556   4.590   0.454  15.538
 8348SOL    HW136557   4.558   0.526  15.476
 8348SOL    HW236558   4.614   0.373  15.485
 8349SOL     OW36559   4.212   1.385  15.070
 8349SOL    HW136560   4.125   1.370  15.117
 8349SOL    HW236561   4.195   1.411  14.975
 8350SOL     OW36562   4.134   0.813  16.148
 8350SOL    HW136563   4.220   0.825  16.198
 8350SOL    HW236564   4.092   0.726  16.175
 8351SOL     OW36565   4.126   0.751  16.495
 8351SOL    HW136566   4.194   0.806  16.448
 8351SOL    HW236567   4.166   0.663  16.522
 8352SOL     OW36568   4.933   0.525  15.171
 8352SOL    HW136569   4.946   0.441  15.225
 8352SOL    HW236570   4.904   0.599  15.231
 8353SOL     OW36571   4.456   0.634  15.961
 8353SOL    HW136572   4.515   0.608  15.885
 8353SOL    HW236573   4.428   0.730  15.950
 8354SOL     OW36574   4.043   0.810  15.846
 8354SOL    HW136575   4.136   0.846  15.851
 8354SOL    HW236576   4.037   0.725  15.898
 8355SOL     OW36577   4.063   0.509  15.903
 8355SOL    HW136578   4.011   0.426  15.886
 8355SOL    HW236579   4.140   0.514  15.839
 8356SOL     OW36580   3.732   1.326  15.096
 8356SOL    HW136581   3.639   1.347  15.065
 8356SOL    HW236582   3.742   1.227  15.109
 8357SOL     OW36583   3.812   1.801  15.823
 8357SOL    HW136584   3.770   1.715  15.796
 8357SOL    HW236585   3.906   1.804  15.789
 8358SOL     OW36586   3.764   0.544  16.011
 8358SOL    HW136587   3.849   0.511  15.970
 8358SOL    HW236588   3.777   0.559  16.109
 8359SOL     OW36589   3.976   1.564  16.641
 8359SOL    HW136590   3.946   1.621  16.717
 8359SOL    HW236591   3.969   1.467  16.667
 8360SOL     OW36592   3.807   1.258  15.919
 8360SOL    HW136593   3.802   1.257  16.019
 8360SOL    HW236594   3.724   1.217  15.881
 8361SOL     OW36595   3.854   1.794  16.748
 8361SOL    HW136596   3.813   1.720  16.801
 8361SOL    HW236597   3.918   1.845  16.806
 8362SOL     OW36598   3.987   0.326  15.616
 8362SOL    HW136599   3.908   0.377  15.582
 8362SOL    HW236600   3.978   0.311  15.714
 8363SOL     OW36601   4.546   1.002  16.269
 8363SOL    HW136602   4.586   1.001  16.177
 8363SOL    HW236603   4.556   1.094  16.309
 8364SOL     OW36604   4.314   1.487  15.387
 8364SOL    HW136605   4.356   1.429  15.317
 8364SOL    HW236606   4.270   1.566  15.343
 8365SOL     OW36607   3.979   1.348  15.186
 8365SOL    HW136608   3.883   1.349  15.159
 8365SOL    HW236609   3.991   1.401  15.270
 8366SOL     OW36610   4.337   0.842  16.328
 8366SOL    HW136611   4.393   0.923  16.311
 8366SOL    HW236612   4.396   0.762  16.331
 8367SOL     OW36613   4.440   0.565  16.605
 8367SOL    HW136614   4.459   0.630  16.679
 8367SOL    HW236615   4.500   0.485  16.614
 8368SOL     OW36616   4.949   0.325  15.345
 8368SOL    HW136617   5.014   0.251  15.334
 8368SOL    HW236618   4.969   0.375  15.429
 8369SOL     OW36619   3.803   1.240  15.549
 8369SOL    HW136620   3.802   1.193  15.637
 8369SOL    HW236621   3.885   1.212  15.498
 8370SOL     OW36622   4.152   0.424  15.416
 8370SOL    HW136623   4.182   0.352  15.354
 8370SOL    HW236624   4.113   0.384  15.499
 8371SOL     OW36625   4.041   0.547  16.177
 8371SOL    HW136626   4.079   0.488  16.249
 8371SOL    HW236627   4.081   0.521  16.089
 8372SOL     OW36628   4.494   1.330  15.197
 8372SOL    HW136629   4.448   1.243  15.214
 8372SOL    HW236630   4.585   1.327  15.238
 8373SOL     OW36631   3.743   0.368  17.406
 8373SOL    HW136632   3.661   0.411  17.445
 8373SOL    HW236633   3.715   0.295  17.343
 8374SOL     OW36634   3.955   1.713  17.242
 8374SOL    HW136635   3.989   1.790  17.296
 8374SOL    HW236636   3.999   1.713  17.152
 8375SOL     OW36637   4.330   0.964  16.882
 8375SOL    HW136638   4.337   1.048  16.828
 8375SOL    HW236639   4.376   0.977  16.970
 8376SOL     OW36640   3.846   0.643  17.322
 8376SOL    HW136641   3.801   0.555  17.339
 8376SOL    HW236642   3.845   0.697  17.406
 8377SOL     OW36643   3.751   1.596  16.876
 8377SOL    HW136644   3.732   1.500  16.897
 8377SOL    HW236645   3.718   1.654  16.951
 8378SOL     OW36646   4.337   1.365  17.485
 8378SOL    HW136647   4.288   1.278  17.494
 8378SOL    HW236648   4.314   1.408  17.398
 8379SOL     OW36649   4.322   0.729  17.029
 8379SOL    HW136650   4.346   0.798  16.961
 8379SOL    HW236651   4.244   0.762  17.083
 8380SOL     OW36652   4.732   1.456  17.236
 8380SOL    HW136653   4.686   1.528  17.184
 8380SOL    HW236654   4.728   1.476  17.334
 8381SOL     OW36655   3.973   1.785  18.000
 8381SOL    HW136656   4.030   1.720  18.050
 8381SOL    HW236657   3.957   1.752  17.907
 8382SOL     OW36658   4.106   0.700  17.239
 8382SOL    HW136659   4.151   0.610  17.236
 8382SOL    HW236660   4.012   0.689  17.272
 8383SOL     OW36661   4.756   0.549  16.775
 8383SOL    HW136662   4.715   0.631  16.736
 8383SOL    HW236663   4.820   0.575  16.848
 8384SOL     OW36664   4.741   0.039  17.512
 8384SOL    HW136665   4.669   0.044  17.443
 8384SOL    HW236666   4.717  -0.030  17.581
 8385SOL     OW36667   4.251   0.256  17.087
 8385SOL    HW136668   4.278   0.197  17.012
 8385SOL    HW236669   4.251   0.351  17.056
 8386SOL     OW36670   4.429   1.050  17.127
 8386SOL    HW136671   4.415   1.057  17.226
 8386SOL    HW236672   4.513   0.999  17.109
 8387SOL     OW36673   4.297   0.870  17.788
 8387SOL    HW136674   4.341   0.959  17.779
 8387SOL    HW236675   4.234   0.870  17.865
 8388SOL     OW36676   4.031   0.063  17.377
 8388SOL    HW136677   4.020   0.157  17.410
 8388SOL    HW236678   4.026   0.000  17.454
 8389SOL     OW36679   4.747   0.766  17.725
 8389SOL    HW136680   4.762   0.787  17.821
 8389SOL    HW236681   4.717   0.671  17.716
 8390SOL     OW36682   3.732   1.326  16.959
 8390SOL    HW136683   3.639   1.347  16.928
 8390SOL    HW236684   3.742   1.227  16.972
 8391SOL     OW36685   4.726   0.796  17.997
 8391SOL    HW136686   4.767   0.764  18.083
 8391SOL    HW236687   4.630   0.769  17.994
 8392SOL     OW36688   4.197   0.500  16.950
 8392SOL    HW136689   4.258   0.580  16.954
 8392SOL    HW236690   4.102   0.531  16.957
 8393SOL     OW36691   3.987   0.326  17.479
 8393SOL    HW136692   3.908   0.377  17.445
 8393SOL    HW236693   3.978   0.311  17.577
 8394SOL     OW36694   4.314   1.487  17.250
 8394SOL    HW136695   4.356   1.429  17.180
 8394SOL    HW236696   4.270   1.566  17.206
 8395SOL     OW36697   4.949   0.325  17.208
 8395SOL    HW136698   5.014   0.251  17.197
 8395SOL    HW236699   4.969   0.375  17.292
 8396SOL     OW36700   4.583   0.956  17.620
 8396SOL    HW136701   4.637   0.887  17.668
 8396SOL    HW236702   4.551   1.025  17.686
 8397SOL     OW36703   4.152   0.424  17.279
 8397SOL    HW136704   4.182   0.352  17.217
 8397SOL    HW236705   4.113   0.384  17.362
 8398SOL     OW36706   4.536   1.586  17.446
 8398SOL    HW136707   4.568   1.596  17.352
 8398SOL    HW236708   4.457   1.524  17.448
 8399SOL     OW36709   4.494   1.330  17.060
 8399SOL    HW136710   4.448   1.243  17.077
 8399SOL    HW236711   4.585   1.327  17.101
 8400SOL     OW36712   3.949   2.137   0.996
 8400SOL    HW136713   3.984   2.120   1.088
 8400SOL    HW236714   3.861   2.092   0.984
 8401SOL     OW36715   4.293   3.137   1.165
 8401SOL    HW136716   4.200   3.130   1.128
 8401SOL    HW236717   4.304   3.226   1.209
 8402SOL     OW36718   4.492   3.006   1.023
 8402SOL    HW136719   4.414   3.023   1.083
 8402SOL    HW236720   4.526   3.093   0.987
 8403SOL     OW36721   4.574   2.660   1.823
 8403SOL    HW136722   4.570   2.736   1.888
 8403SOL    HW236723   4.596   2.696   1.732
 8404SOL     OW36724   4.410   3.023   1.803
 8404SOL    HW136725   4.470   3.102   1.817
 8404SOL    HW236726   4.324   3.054   1.762
 8405SOL     OW36727   4.059   3.297   1.061
 8405SOL    HW136728   3.981   3.266   1.008
 8405SOL    HW236729   4.117   3.355   1.004
 8406SOL     OW36730   3.955   3.575   0.483
 8406SOL    HW136731   3.989   3.652   0.537
 8406SOL    HW236732   3.999   3.575   0.393
 8407SOL     OW36733   3.954   3.296   0.538
 8407SOL    HW136734   3.928   3.392   0.538
 8407SOL    HW236735   3.883   3.242   0.583
 8408SOL     OW36736   3.964   2.953   0.886
 8408SOL    HW136737   3.978   2.869   0.938
 8408SOL    HW236738   3.909   3.017   0.941
 8409SOL     OW36739   4.344   3.648   1.439
 8409SOL    HW136740   4.252   3.631   1.474
 8409SOL    HW236741   4.372   3.740   1.465
 8410SOL     OW36742   4.330   2.826   0.123
 8410SOL    HW136743   4.337   2.910   0.069
 8410SOL    HW236744   4.376   2.839   0.211
 8411SOL     OW36745   3.751   3.458   0.117
 8411SOL    HW136746   3.732   3.362   0.138
 8411SOL    HW236747   3.718   3.516   0.192
 8412SOL     OW36748   4.337   3.227   0.726
 8412SOL    HW136749   4.288   3.140   0.735
 8412SOL    HW236750   4.314   3.270   0.639
 8413SOL     OW36751   3.921   2.838   1.264
 8413SOL    HW136752   4.010   2.793   1.250
 8413SOL    HW236753   3.848   2.773   1.245
 8414SOL     OW36754   4.041   2.113   1.801
 8414SOL    HW136755   4.112   2.184   1.807
 8414SOL    HW236756   3.953   2.152   1.829
 8415SOL     OW36757   4.531   2.467   1.465
 8415SOL    HW136758   4.484   2.464   1.554
 8415SOL    HW236759   4.480   2.412   1.399
 8416SOL     OW36760   4.697   2.752   1.572
 8416SOL    HW136761   4.743   2.668   1.543
 8416SOL    HW236762   4.641   2.786   1.497
 8417SOL     OW36763   3.800   2.673   0.789
 8417SOL    HW136764   3.899   2.661   0.798
 8417SOL    HW236765   3.776   2.768   0.810
 8418SOL     OW36766   3.854   3.683   1.571
 8418SOL    HW136767   3.844   3.668   1.670
 8418SOL    HW236768   3.768   3.719   1.535
 8419SOL     OW36769   4.075   3.663   0.853
 8419SOL    HW136770   4.125   3.577   0.859
 8419SOL    HW236771   4.140   3.740   0.850
 8420SOL     OW36772   4.045   2.805   0.242
 8420SOL    HW136773   4.127   2.844   0.200
 8420SOL    HW236774   4.018   2.723   0.193
 8421SOL     OW36775   4.185   3.128   1.727
 8421SOL    HW136776   4.135   3.129   1.641
 8421SOL    HW236777   4.122   3.110   1.803
 8422SOL     OW36778   3.973   3.647   1.241
 8422SOL    HW136779   4.030   3.582   1.291
 8422SOL    HW236780   3.957   3.614   1.148
 8423SOL     OW36781   4.505   2.126   1.749
 8423SOL    HW136782   4.572   2.065   1.792
 8423SOL    HW236783   4.432   2.145   1.814
 8424SOL     OW36784   4.527   3.264   0.924
 8424SOL    HW136785   4.617   3.278   0.882
 8424SOL    HW236786   4.456   3.266   0.853
 8425SOL     OW36787   4.263   1.926   0.512
 8425SOL    HW136788   4.182   1.927   0.570
 8425SOL    HW236789   4.266   2.009   0.457
 8426SOL     OW36790   4.021   1.897   0.171
 8426SOL    HW136791   4.070   1.981   0.150
 8426SOL    HW236792   4.083   1.832   0.216
 8427SOL     OW36793   4.951   3.432   0.793
 8427SOL    HW136794   4.972   3.506   0.728
 8427SOL    HW236795   5.019   3.432   0.866
 8428SOL     OW36796   4.183   3.014   0.741
 8428SOL    HW136797   4.112   2.987   0.806
 8428SOL    HW236798   4.157   2.986   0.648
 8429SOL     OW36799   4.285   2.084   1.147
 8429SOL    HW136800   4.323   2.000   1.184
 8429SOL    HW236801   4.197   2.103   1.191
 8430SOL     OW36802   4.212   3.247   0.174
 8430SOL    HW136803   4.125   3.232   0.221
 8430SOL    HW236804   4.195   3.273   0.079
 8431SOL     OW36805   4.704   2.978   1.719
 8431SOL    HW136806   4.605   2.984   1.729
 8431SOL    HW236807   4.727   2.898   1.663
 8432SOL     OW36808   4.429   2.912   0.368
 8432SOL    HW136809   4.415   2.919   0.467
 8432SOL    HW236810   4.513   2.861   0.350
 8433SOL     OW36811   4.134   2.675   1.251
 8433SOL    HW136812   4.220   2.687   1.301
 8433SOL    HW236813   4.092   2.588   1.278
 8434SOL     OW36814   3.788   3.426   1.331
 8434SOL    HW136815   3.742   3.508   1.297
 8434SOL    HW236816   3.886   3.445   1.340
 8435SOL     OW36817   4.091   2.962   0.501
 8435SOL    HW136818   4.084   3.045   0.445
 8435SOL    HW236819   4.095   2.882   0.441
 8436SOL     OW36820   4.078   3.372   1.329
 8436SOL    HW136821   4.057   3.328   1.242
 8436SOL    HW236822   4.175   3.398   1.332
 8437SOL     OW36823   4.737   1.967   1.770
 8437SOL    HW136824   4.743   2.052   1.718
 8437SOL    HW236825   4.769   1.891   1.713
 8438SOL     OW36826   4.228   1.912   1.740
 8438SOL    HW136827   4.186   1.855   1.670
 8438SOL    HW236828   4.162   1.981   1.772
 8439SOL     OW36829   4.297   2.732   1.029
 8439SOL    HW136830   4.341   2.821   1.020
 8439SOL    HW236831   4.234   2.732   1.106
 8440SOL     OW36832   3.761   3.172   1.282
 8440SOL    HW136833   3.814   3.123   1.350
 8440SOL    HW236834   3.783   3.270   1.287
 8441SOL     OW36835   4.031   1.925   0.618
 8441SOL    HW136836   4.020   2.019   0.651
 8441SOL    HW236837   4.026   1.862   0.695
 8442SOL     OW36838   4.704   3.435   1.700
 8442SOL    HW136839   4.684   3.479   1.612
 8442SOL    HW236840   4.743   3.344   1.684
 8443SOL     OW36841   4.043   2.672   0.949
 8443SOL    HW136842   4.136   2.708   0.954
 8443SOL    HW236843   4.037   2.587   1.001
 8444SOL     OW36844   3.732   3.188   0.200
 8444SOL    HW136845   3.639   3.209   0.169
 8444SOL    HW236846   3.742   3.089   0.213
 8445SOL     OW36847   3.812   3.663   0.927
 8445SOL    HW136848   3.770   3.577   0.900
 8445SOL    HW236849   3.906   3.666   0.893
 8446SOL     OW36850   4.228   3.430   0.910
 8446SOL    HW136851   4.294   3.504   0.919
 8446SOL    HW236852   4.272   3.351   0.868
 8447SOL     OW36853   4.539   2.434   0.325
 8447SOL    HW136854   4.546   2.345   0.279
 8447SOL    HW236855   4.445   2.468   0.317
 8448SOL     OW36856   3.976   3.426   1.744
 8448SOL    HW136857   3.946   3.483   1.820
 8448SOL    HW236858   3.969   3.329   1.770
 8449SOL     OW36859   4.654   3.540   1.465
 8449SOL    HW136860   4.630   3.522   1.370
 8449SOL    HW236861   4.684   3.634   1.475
 8450SOL     OW36862   3.883   2.999   1.466
 8450SOL    HW136863   3.905   2.938   1.542
 8450SOL    HW236864   3.893   2.950   1.380
 8451SOL     OW36865   3.807   3.120   1.022
 8451SOL    HW136866   3.802   3.119   1.122
 8451SOL    HW236867   3.724   3.079   0.984
 8452SOL     OW36868   4.412   3.524   1.716
 8452SOL    HW136869   4.356   3.605   1.725
 8452SOL    HW236870   4.464   3.528   1.630
 8453SOL     OW36871   3.854   3.656   1.851
 8453SOL    HW136872   3.813   3.582   1.904
 8453SOL    HW236873   3.918   3.707   1.909
 8454SOL     OW36874   5.004   2.789   0.672
 8454SOL    HW136875   5.064   2.708   0.674
 8454SOL    HW236876   5.044   2.858   0.612
 8455SOL     OW36877   4.554   3.135   1.422
 8455SOL    HW136878   4.549   3.168   1.517
 8455SOL    HW236879   4.468   3.154   1.376
 8456SOL     OW36880   4.096   3.150   1.490
 8456SOL    HW136881   4.083   3.243   1.456
 8456SOL    HW236882   4.012   3.098   1.477
 8457SOL     OW36883   3.979   3.210   0.290
 8457SOL    HW136884   3.883   3.211   0.263
 8457SOL    HW236885   3.991   3.263   0.374
 8458SOL     OW36886   3.829   2.875   1.726
 8458SOL    HW136887   3.752   2.842   1.780
 8458SOL    HW236888   3.914   2.845   1.768
 8459SOL     OW36889   4.396   2.065   1.489
 8459SOL    HW136890   4.486   2.049   1.449
 8459SOL    HW236891   4.404   2.070   1.588
 8460SOL     OW36892   4.337   2.704   1.431
 8460SOL    HW136893   4.393   2.785   1.414
 8460SOL    HW236894   4.396   2.624   1.434
 8461SOL     OW36895   4.440   2.427   1.708
 8461SOL    HW136896   4.459   2.492   1.782
 8461SOL    HW236897   4.500   2.347   1.717
 8462SOL     OW36898   4.114   3.603   1.560
 8462SOL    HW136899   4.023   3.644   1.558
 8462SOL    HW236900   4.107   3.509   1.592
 8463SOL     OW36901   4.385   3.652   0.953
 8463SOL    HW136902   4.339   3.740   0.940
 8463SOL    HW236903   4.484   3.664   0.946
 8464SOL     OW36904   3.945   3.176   1.844
 8464SOL    HW136905   3.880   3.103   1.823
 8464SOL    HW236906   3.949   3.190   1.942
 8465SOL     OW36907   3.803   3.102   0.653
 8465SOL    HW136908   3.802   3.055   0.741
 8465SOL    HW236909   3.885   3.074   0.602
 8466SOL     OW36910   4.396   3.253   1.624
 8466SOL    HW136911   4.318   3.203   1.662
 8466SOL    HW236912   4.393   3.348   1.655
 8467SOL     OW36913   4.152   2.286   0.520
 8467SOL    HW136914   4.182   2.214   0.458
 8467SOL    HW236915   4.113   2.246   0.603
 8468SOL     OW36916   4.536   3.448   0.687
 8468SOL    HW136917   4.568   3.458   0.593
 8468SOL    HW236918   4.457   3.386   0.689
 8469SOL     OW36919   4.342   3.429   1.284
 8469SOL    HW136920   4.337   3.511   1.341
 8469SOL    HW236921   4.431   3.426   1.239
 8470SOL     OW36922   3.763   2.939   0.300
 8470SOL    HW136923   3.862   2.928   0.291
 8470SOL    HW236924   3.723   2.853   0.332
 8471SOL     OW36925   3.949   2.137   2.858
 8471SOL    HW136926   3.984   2.120   2.950
 8471SOL    HW236927   3.861   2.092   2.846
 8472SOL     OW36928   3.743   2.230   2.509
 8472SOL    HW136929   3.661   2.273   2.548
 8472SOL    HW236930   3.715   2.157   2.446
 8473SOL     OW36931   4.293   3.137   3.027
 8473SOL    HW136932   4.200   3.130   2.990
 8473SOL    HW236933   4.304   3.226   3.071
 8474SOL     OW36934   4.492   3.006   2.885
 8474SOL    HW136935   4.414   3.023   2.945
 8474SOL    HW236936   4.526   3.093   2.849
 8475SOL     OW36937   4.574   2.660   3.685
 8475SOL    HW136938   4.570   2.736   3.750
 8475SOL    HW236939   4.596   2.696   3.594
 8476SOL     OW36940   4.409   2.874   2.527
 8476SOL    HW136941   4.478   2.858   2.597
 8476SOL    HW236942   4.336   2.931   2.565
 8477SOL     OW36943   4.410   3.023   3.665
 8477SOL    HW136944   4.470   3.102   3.679
 8477SOL    HW236945   4.324   3.054   3.624
 8478SOL     OW36946   4.059   3.297   2.923
 8478SOL    HW136947   3.981   3.266   2.870
 8478SOL    HW236948   4.117   3.355   2.866
 8479SOL     OW36949   4.162   2.254   3.361
 8479SOL    HW136950   4.244   2.198   3.370
 8479SOL    HW236951   4.081   2.196   3.365
 8480SOL     OW36952   3.955   3.575   2.345
 8480SOL    HW136953   3.989   3.652   2.399
 8480SOL    HW236954   3.999   3.575   2.255
 8481SOL     OW36955   3.954   3.296   2.400
 8481SOL    HW136956   3.928   3.392   2.400
 8481SOL    HW236957   3.883   3.242   2.445
 8482SOL     OW36958   3.964   2.953   2.748
 8482SOL    HW136959   3.978   2.869   2.800
 8482SOL    HW236960   3.909   3.017   2.803
 8483SOL     OW36961   4.344   3.648   3.301
 8483SOL    HW136962   4.252   3.631   3.336
 8483SOL    HW236963   4.372   3.740   3.327
 8484SOL     OW36964   4.330   2.826   1.985
 8484SOL    HW136965   4.337   2.910   1.931
 8484SOL    HW236966   4.376   2.839   2.073
 8485SOL     OW36967   3.846   2.505   2.425
 8485SOL    HW136968   3.801   2.417   2.442
 8485SOL    HW236969   3.845   2.559   2.509
 8486SOL     OW36970   3.751   3.458   1.979
 8486SOL    HW136971   3.732   3.362   2.000
 8486SOL    HW236972   3.718   3.516   2.054
 8487SOL     OW36973   3.837   2.599   3.459
 8487SOL    HW136974   3.925   2.586   3.504
 8487SOL    HW236975   3.824   2.696   3.437
 8488SOL     OW36976   4.337   3.227   2.588
 8488SOL    HW136977   4.288   3.140   2.597
 8488SOL    HW236978   4.314   3.270   2.501
 8489SOL     OW36979   4.533   1.866   2.364
 8489SOL    HW136980   4.573   1.957   2.355
 8489SOL    HW236981   4.433   1.874   2.370
 8490SOL     OW36982   3.921   2.838   3.126
 8490SOL    HW136983   4.010   2.793   3.112
 8490SOL    HW236984   3.848   2.773   3.107
 8491SOL     OW36985   4.041   2.113   3.663
 8491SOL    HW136986   4.112   2.184   3.669
 8491SOL    HW236987   3.953   2.152   3.691
 8492SOL     OW36988   4.322   2.591   2.132
 8492SOL    HW136989   4.346   2.660   2.064
 8492SOL    HW236990   4.244   2.624   2.186
 8493SOL     OW36991   4.531   2.467   3.327
 8493SOL    HW136992   4.484   2.464   3.416
 8493SOL    HW236993   4.480   2.412   3.261
 8494SOL     OW36994   4.697   2.752   3.434
 8494SOL    HW136995   4.743   2.668   3.405
 8494SOL    HW236996   4.641   2.786   3.359
 8495SOL     OW36997   4.715   2.272   3.104
 8495SOL    HW136998   4.638   2.306   3.158
 8495SOL    HW236999   4.681   2.221   3.025
 8496SOL     OW37000   3.800   2.673   2.651
 8496SOL    HW137001   3.899   2.661   2.660
 8496SOL    HW237002   3.776   2.768   2.672
 8497SOL     OW37003   3.854   3.683   3.433
 8497SOL    HW137004   3.844   3.668   3.532
 8497SOL    HW237005   3.768   3.719   3.397
 8498SOL     OW37006   4.589   2.210   2.057
 8498SOL    HW137007   4.648   2.273   2.008
 8498SOL    HW237008   4.608   2.116   2.028
 8499SOL     OW37009   4.274   2.058   2.747
 8499SOL    HW137010   4.269   2.053   2.847
 8499SOL    HW237011   4.276   2.154   2.718
 8500SOL     OW37012   4.732   3.318   2.339
 8500SOL    HW137013   4.686   3.390   2.287
 8500SOL    HW237014   4.728   3.338   2.437
 8501SOL     OW37015   4.075   3.663   2.715
 8501SOL    HW137016   4.125   3.577   2.721
 8501SOL    HW237017   4.140   3.740   2.712
 8502SOL     OW37018   4.185   3.128   3.589
 8502SOL    HW137019   4.135   3.129   3.503
 8502SOL    HW237020   4.122   3.110   3.665
 8503SOL     OW37021   3.926   2.147   3.360
 8503SOL    HW137022   3.846   2.207   3.347
 8503SOL    HW237023   3.916   2.098   3.446
 8504SOL     OW37024   4.188   3.605   2.185
 8504SOL    HW137025   4.221   3.644   2.271
 8504SOL    HW237026   4.264   3.598   2.120
 8505SOL     OW37027   3.973   3.647   3.103
 8505SOL    HW137028   4.030   3.582   3.153
 8505SOL    HW237029   3.957   3.614   3.010
 8506SOL     OW37030   4.106   2.562   2.342
 8506SOL    HW137031   4.151   2.472   2.339
 8506SOL    HW237032   4.012   2.551   2.375
 8507SOL     OW37033   4.338   1.984   1.979
 8507SOL    HW137034   4.436   1.962   1.986
 8507SOL    HW237035   4.307   1.967   1.886
 8508SOL     OW37036   4.505   2.126   3.611
 8508SOL    HW137037   4.572   2.065   3.654
 8508SOL    HW237038   4.432   2.145   3.676
 8509SOL     OW37039   4.612   3.376   3.057
 8509SOL    HW137040   4.589   3.351   2.963
 8509SOL    HW237041   4.673   3.307   3.096
 8510SOL     OW37042   4.527   3.264   2.786
 8510SOL    HW137043   4.617   3.278   2.744
 8510SOL    HW237044   4.456   3.266   2.715
 8511SOL     OW37045   4.646   2.365   2.761
 8511SOL    HW137046   4.621   2.356   2.665
 8511SOL    HW237047   4.694   2.283   2.792
 8512SOL     OW37048   4.263   1.926   2.374
 8512SOL    HW137049   4.182   1.927   2.432
 8512SOL    HW237050   4.266   2.009   2.319
 8513SOL     OW37051   4.021   1.897   2.033
 8513SOL    HW137052   4.070   1.981   2.012
 8513SOL    HW237053   4.083   1.832   2.078
 8514SOL     OW37054   4.659   2.098   2.342
 8514SOL    HW137055   4.611   2.139   2.264
 8514SOL    HW237056   4.758   2.096   2.323
 8515SOL     OW37057   4.951   3.432   2.655
 8515SOL    HW137058   4.972   3.506   2.590
 8515SOL    HW237059   5.019   3.432   2.728
 8516SOL     OW37060   4.183   3.014   2.603
 8516SOL    HW137061   4.112   2.987   2.668
 8516SOL    HW237062   4.157   2.986   2.510
 8517SOL     OW37063   4.756   2.411   1.878
 8517SOL    HW137064   4.715   2.493   1.839
 8517SOL    HW237065   4.820   2.437   1.951
 8518SOL     OW37066   3.802   2.418   3.248
 8518SOL    HW137067   3.894   2.417   3.207
 8518SOL    HW237068   3.796   2.492   3.315
 8519SOL     OW37069   4.285   2.084   3.009
 8519SOL    HW137070   4.323   2.000   3.046
 8519SOL    HW237071   4.197   2.103   3.053
 8520SOL     OW37072   4.590   2.316   2.504
 8520SOL    HW137073   4.558   2.388   2.442
 8520SOL    HW237074   4.614   2.235   2.451
 8521SOL     OW37075   4.741   1.901   2.615
 8521SOL    HW137076   4.669   1.906   2.546
 8521SOL    HW237077   4.717   1.832   2.684
 8522SOL     OW37078   4.212   3.247   2.036
 8522SOL    HW137079   4.125   3.232   2.083
 8522SOL    HW237080   4.195   3.273   1.941
 8523SOL     OW37081   4.251   2.118   2.190
 8523SOL    HW137082   4.278   2.059   2.115
 8523SOL    HW237083   4.251   2.213   2.159
 8524SOL     OW37084   4.639   1.951   3.264
 8524SOL    HW137085   4.664   1.931   3.169
 8524SOL    HW237086   4.711   2.007   3.306
 8525SOL     OW37087   4.704   2.978   3.581
 8525SOL    HW137088   4.605   2.984   3.591
 8525SOL    HW237089   4.727   2.898   3.525
 8526SOL     OW37090   4.429   2.912   2.230
 8526SOL    HW137091   4.415   2.919   2.329
 8526SOL    HW237092   4.513   2.861   2.212
 8527SOL     OW37093   4.134   2.675   3.113
 8527SOL    HW137094   4.220   2.687   3.163
 8527SOL    HW237095   4.092   2.588   3.140
 8528SOL     OW37096   3.788   3.426   3.193
 8528SOL    HW137097   3.742   3.508   3.159
 8528SOL    HW237098   3.886   3.445   3.202
 8529SOL     OW37099   4.091   2.962   2.363
 8529SOL    HW137100   4.084   3.045   2.307
 8529SOL    HW237101   4.095   2.882   2.303
 8530SOL     OW37102   4.290   2.399   2.727
 8530SOL    HW137103   4.302   2.465   2.653
 8530SOL    HW237104   4.336   2.433   2.810
 8531SOL     OW37105   4.078   3.372   3.191
 8531SOL    HW137106   4.057   3.328   3.104
 8531SOL    HW237107   4.175   3.398   3.194
 8532SOL     OW37108   4.126   2.613   3.460
 8532SOL    HW137109   4.194   2.668   3.413
 8532SOL    HW237110   4.166   2.525   3.487
 8533SOL     OW37111   4.737   1.967   3.632
 8533SOL    HW137112   4.743   2.052   3.580
 8533SOL    HW237113   4.769   1.891   3.575
 8534SOL     OW37114   4.228   1.912   3.602
 8534SOL    HW137115   4.186   1.855   3.532
 8534SOL    HW237116   4.162   1.981   3.634
 8535SOL     OW37117   4.297   2.732   2.891
 8535SOL    HW137118   4.341   2.821   2.882
 8535SOL    HW237119   4.234   2.732   2.968
 8536SOL     OW37120   4.933   2.387   2.137
 8536SOL    HW137121   4.946   2.303   2.191
 8536SOL    HW237122   4.904   2.461   2.197
 8537SOL     OW37123   4.031   2.075   3.093
 8537SOL    HW137124   4.008   2.112   3.183
 8537SOL    HW237125   4.001   1.980   3.087
 8538SOL     OW37126   3.761   3.172   3.144
 8538SOL    HW137127   3.814   3.123   3.212
 8538SOL    HW237128   3.783   3.270   3.149
 8539SOL     OW37129   4.456   2.496   2.926
 8539SOL    HW137130   4.515   2.470   2.850
 8539SOL    HW237131   4.428   2.592   2.915
 8540SOL     OW37132   4.031   1.925   2.480
 8540SOL    HW137133   4.020   2.019   2.513
 8540SOL    HW237134   4.026   1.862   2.557
 8541SOL     OW37135   4.747   2.628   2.828
 8541SOL    HW137136   4.762   2.649   2.924
 8541SOL    HW237137   4.717   2.533   2.819
 8542SOL     OW37138   4.704   3.435   3.562
 8542SOL    HW137139   4.684   3.479   3.474
 8542SOL    HW237140   4.743   3.344   3.546
 8543SOL     OW37141   4.074   2.760   3.666
 8543SOL    HW137142   4.150   2.804   3.714
 8543SOL    HW237143   4.109   2.713   3.584
 8544SOL     OW37144   4.043   2.672   2.811
 8544SOL    HW137145   4.136   2.708   2.816
 8544SOL    HW237146   4.037   2.587   2.863
 8545SOL     OW37147   4.063   2.371   2.868
 8545SOL    HW137148   4.011   2.288   2.851
 8545SOL    HW237149   4.140   2.376   2.804
 8546SOL     OW37150   3.812   3.663   2.789
 8546SOL    HW137151   3.770   3.577   2.762
 8546SOL    HW237152   3.906   3.666   2.755
 8547SOL     OW37153   4.228   3.430   2.772
 8547SOL    HW137154   4.294   3.504   2.781
 8547SOL    HW237155   4.272   3.351   2.730
 8548SOL     OW37156   4.726   2.658   3.100
 8548SOL    HW137157   4.767   2.626   3.186
 8548SOL    HW237158   4.630   2.631   3.097
 8549SOL     OW37159   3.764   2.406   2.976
 8549SOL    HW137160   3.849   2.373   2.935
 8549SOL    HW237161   3.777   2.421   3.074
 8550SOL     OW37162   3.913   2.382   3.584
 8550SOL    HW137163   3.972   2.342   3.514
 8550SOL    HW237164   3.855   2.453   3.543
 8551SOL     OW37165   4.539   2.434   2.187
 8551SOL    HW137166   4.546   2.345   2.141
 8551SOL    HW237167   4.445   2.468   2.179
 8552SOL     OW37168   3.976   3.426   3.606
 8552SOL    HW137169   3.946   3.483   3.682
 8552SOL    HW237170   3.969   3.329   3.632
 8553SOL     OW37171   4.395   2.326   3.131
 8553SOL    HW137172   4.361   2.237   3.101
 8553SOL    HW237173   4.421   2.380   3.051
 8554SOL     OW37174   4.654   3.540   3.327
 8554SOL    HW137175   4.630   3.522   3.232
 8554SOL    HW237176   4.684   3.634   3.337
 8555SOL     OW37177   4.197   2.362   2.053
 8555SOL    HW137178   4.258   2.442   2.057
 8555SOL    HW237179   4.102   2.393   2.060
 8556SOL     OW37180   3.883   2.999   3.328
 8556SOL    HW137181   3.905   2.938   3.404
 8556SOL    HW237182   3.893   2.950   3.242
 8557SOL     OW37183   3.807   3.120   2.884
 8557SOL    HW137184   3.802   3.119   2.984
 8557SOL    HW237185   3.724   3.079   2.846
 8558SOL     OW37186   4.412   3.524   3.578
 8558SOL    HW137187   4.356   3.605   3.587
 8558SOL    HW237188   4.464   3.528   3.492
 8559SOL     OW37189   3.854   3.656   3.713
 8559SOL    HW137190   3.813   3.582   3.766
 8559SOL    HW237191   3.918   3.707   3.771
 8560SOL     OW37192   5.004   2.789   2.534
 8560SOL    HW137193   5.064   2.708   2.536
 8560SOL    HW237194   5.044   2.858   2.474
 8561SOL     OW37195   4.554   3.135   3.284
 8561SOL    HW137196   4.549   3.168   3.379
 8561SOL    HW237197   4.468   3.154   3.238
 8562SOL     OW37198   4.396   3.478   2.016
 8562SOL    HW137199   4.405   3.488   1.917
 8562SOL    HW237200   4.356   3.389   2.037
 8563SOL     OW37201   3.987   2.188   2.582
 8563SOL    HW137202   3.908   2.239   2.548
 8563SOL    HW237203   3.978   2.173   2.680
 8564SOL     OW37204   4.546   2.864   3.234
 8564SOL    HW137205   4.586   2.863   3.142
 8564SOL    HW237206   4.556   2.956   3.274
 8565SOL     OW37207   4.640   2.772   2.153
 8565SOL    HW137208   4.703   2.810   2.085
 8565SOL    HW237209   4.680   2.689   2.192
 8566SOL     OW37210   4.096   3.150   3.352
 8566SOL    HW137211   4.083   3.243   3.318
 8566SOL    HW237212   4.012   3.098   3.339
 8567SOL     OW37213   4.763   2.960   2.558
 8567SOL    HW137214   4.693   2.913   2.612
 8567SOL    HW237215   4.822   2.892   2.515
 8568SOL     OW37216   4.738   2.098   2.833
 8568SOL    HW137217   4.730   2.062   2.740
 8568SOL    HW237218   4.736   2.022   2.898
 8569SOL     OW37219   4.314   3.349   2.353
 8569SOL    HW137220   4.356   3.291   2.283
 8569SOL    HW237221   4.270   3.428   2.309
 8570SOL     OW37222   3.979   3.210   2.152
 8570SOL    HW137223   3.883   3.211   2.125
 8570SOL    HW237224   3.991   3.263   2.236
 8571SOL     OW37225   3.829   2.875   3.588
 8571SOL    HW137226   3.752   2.842   3.642
 8571SOL    HW237227   3.914   2.845   3.630
 8572SOL     OW37228   4.396   2.065   3.351
 8572SOL    HW137229   4.486   2.049   3.311
 8572SOL    HW237230   4.404   2.070   3.450
 8573SOL     OW37231   3.796   2.028   2.180
 8573SOL    HW137232   3.779   2.111   2.126
 8573SOL    HW237233   3.886   1.991   2.158
 8574SOL     OW37234   4.337   2.704   3.293
 8574SOL    HW137235   4.393   2.785   3.276
 8574SOL    HW237236   4.396   2.624   3.296
 8575SOL     OW37237   4.440   2.427   3.570
 8575SOL    HW137238   4.459   2.492   3.644
 8575SOL    HW237239   4.500   2.347   3.579
 8576SOL     OW37240   4.114   3.603   3.422
 8576SOL    HW137241   4.023   3.644   3.420
 8576SOL    HW237242   4.107   3.509   3.454
 8577SOL     OW37243   4.949   2.187   2.311
 8577SOL    HW137244   5.014   2.113   2.300
 8577SOL    HW237245   4.969   2.237   2.395
 8578SOL     OW37246   4.318   2.607   2.514
 8578SOL    HW137247   4.368   2.692   2.495
 8578SOL    HW237248   4.230   2.609   2.466
 8579SOL     OW37249   4.583   3.236   1.878
 8579SOL    HW137250   4.537   3.251   1.966
 8579SOL    HW237251   4.627   3.321   1.848
 8580SOL     OW37252   4.385   3.652   2.815
 8580SOL    HW137253   4.339   3.740   2.802
 8580SOL    HW237254   4.484   3.664   2.808
 8581SOL     OW37255   4.583   2.818   2.723
 8581SOL    HW137256   4.637   2.749   2.771
 8581SOL    HW237257   4.551   2.887   2.789
 8582SOL     OW37258   3.945   3.176   3.706
 8582SOL    HW137259   3.880   3.103   3.685
 8582SOL    HW237260   3.949   3.190   3.804
 8583SOL     OW37261   3.803   3.102   2.515
 8583SOL    HW137262   3.802   3.055   2.603
 8583SOL    HW237263   3.885   3.074   2.464
 8584SOL     OW37264   4.396   3.253   3.486
 8584SOL    HW137265   4.318   3.203   3.524
 8584SOL    HW237266   4.393   3.348   3.517
 8585SOL     OW37267   4.152   2.286   2.382
 8585SOL    HW137268   4.182   2.214   2.320
 8585SOL    HW237269   4.113   2.246   2.465
 8586SOL     OW37270   4.041   2.409   3.142
 8586SOL    HW137271   4.079   2.350   3.214
 8586SOL    HW237272   4.081   2.383   3.054
 8587SOL     OW37273   4.536   3.448   2.549
 8587SOL    HW137274   4.568   3.458   2.455
 8587SOL    HW237275   4.457   3.386   2.551
 8588SOL     OW37276   4.725   1.896   3.016
 8588SOL    HW137277   4.662   1.824   2.985
 8588SOL    HW237278   4.818   1.860   3.016
 8589SOL     OW37279   4.494   3.192   2.163
 8589SOL    HW137280   4.448   3.105   2.180
 8589SOL    HW237281   4.585   3.189   2.204
 8590SOL     OW37282   4.342   3.429   3.146
 8590SOL    HW137283   4.337   3.511   3.203
 8590SOL    HW237284   4.431   3.426   3.101
 8591SOL     OW37285   4.599   3.508   2.199
 8591SOL    HW137286   4.522   3.473   2.145
 8591SOL    HW237287   4.567   3.579   2.261
 8592SOL     OW37288   3.954   2.490   3.837
 8592SOL    HW137289   3.861   2.488   3.874
 8592SOL    HW237290   3.955   2.451   3.745
 8593SOL     OW37291   3.949   2.137   4.720
 8593SOL    HW137292   3.984   2.120   4.812
 8593SOL    HW237293   3.861   2.092   4.708
 8594SOL     OW37294   3.743   2.230   4.371
 8594SOL    HW137295   3.661   2.273   4.410
 8594SOL    HW237296   3.715   2.157   4.308
 8595SOL     OW37297   4.293   3.137   4.889
 8595SOL    HW137298   4.200   3.130   4.852
 8595SOL    HW237299   4.304   3.226   4.933
 8596SOL     OW37300   4.492   3.006   4.747
 8596SOL    HW137301   4.414   3.023   4.807
 8596SOL    HW237302   4.526   3.093   4.711
 8597SOL     OW37303   4.574   2.660   5.547
 8597SOL    HW137304   4.570   2.736   5.612
 8597SOL    HW237305   4.596   2.696   5.456
 8598SOL     OW37306   4.409   2.874   4.389
 8598SOL    HW137307   4.478   2.858   4.459
 8598SOL    HW237308   4.336   2.931   4.427
 8599SOL     OW37309   4.410   3.023   5.527
 8599SOL    HW137310   4.470   3.102   5.541
 8599SOL    HW237311   4.324   3.054   5.486
 8600SOL     OW37312   4.059   3.297   4.785
 8600SOL    HW137313   3.981   3.266   4.732
 8600SOL    HW237314   4.117   3.355   4.728
 8601SOL     OW37315   4.162   2.254   5.223
 8601SOL    HW137316   4.244   2.198   5.232
 8601SOL    HW237317   4.081   2.196   5.227
 8602SOL     OW37318   3.955   3.575   4.207
 8602SOL    HW137319   3.989   3.652   4.261
 8602SOL    HW237320   3.999   3.575   4.117
 8603SOL     OW37321   3.954   3.296   4.262
 8603SOL    HW137322   3.928   3.392   4.262
 8603SOL    HW237323   3.883   3.242   4.307
 8604SOL     OW37324   3.964   2.953   4.610
 8604SOL    HW137325   3.978   2.869   4.662
 8604SOL    HW237326   3.909   3.017   4.665
 8605SOL     OW37327   4.344   3.648   5.163
 8605SOL    HW137328   4.252   3.631   5.198
 8605SOL    HW237329   4.372   3.740   5.189
 8606SOL     OW37330   4.330   2.826   3.847
 8606SOL    HW137331   4.337   2.910   3.793
 8606SOL    HW237332   4.376   2.839   3.935
 8607SOL     OW37333   3.846   2.505   4.287
 8607SOL    HW137334   3.801   2.417   4.304
 8607SOL    HW237335   3.845   2.559   4.371
 8608SOL     OW37336   3.751   3.458   3.841
 8608SOL    HW137337   3.732   3.362   3.862
 8608SOL    HW237338   3.718   3.516   3.916
 8609SOL     OW37339   3.837   2.599   5.321
 8609SOL    HW137340   3.925   2.586   5.366
 8609SOL    HW237341   3.824   2.696   5.299
 8610SOL     OW37342   4.337   3.227   4.450
 8610SOL    HW137343   4.288   3.140   4.459
 8610SOL    HW237344   4.314   3.270   4.363
 8611SOL     OW37345   4.533   1.866   4.226
 8611SOL    HW137346   4.573   1.957   4.217
 8611SOL    HW237347   4.433   1.874   4.232
 8612SOL     OW37348   3.921   2.838   4.988
 8612SOL    HW137349   4.010   2.793   4.974
 8612SOL    HW237350   3.848   2.773   4.969
 8613SOL     OW37351   4.041   2.113   5.525
 8613SOL    HW137352   4.112   2.184   5.531
 8613SOL    HW237353   3.953   2.152   5.553
 8614SOL     OW37354   4.322   2.591   3.994
 8614SOL    HW137355   4.346   2.660   3.926
 8614SOL    HW237356   4.244   2.624   4.048
 8615SOL     OW37357   4.531   2.467   5.189
 8615SOL    HW137358   4.484   2.464   5.278
 8615SOL    HW237359   4.480   2.412   5.123
 8616SOL     OW37360   4.697   2.752   5.296
 8616SOL    HW137361   4.743   2.668   5.267
 8616SOL    HW237362   4.641   2.786   5.221
 8617SOL     OW37363   4.715   2.272   4.966
 8617SOL    HW137364   4.638   2.306   5.020
 8617SOL    HW237365   4.681   2.221   4.887
 8618SOL     OW37366   3.800   2.673   4.513
 8618SOL    HW137367   3.899   2.661   4.522
 8618SOL    HW237368   3.776   2.768   4.534
 8619SOL     OW37369   3.854   3.683   5.295
 8619SOL    HW137370   3.844   3.668   5.394
 8619SOL    HW237371   3.768   3.719   5.259
 8620SOL     OW37372   4.589   2.210   3.919
 8620SOL    HW137373   4.648   2.273   3.870
 8620SOL    HW237374   4.608   2.116   3.890
 8621SOL     OW37375   4.274   2.058   4.609
 8621SOL    HW137376   4.269   2.053   4.709
 8621SOL    HW237377   4.276   2.154   4.580
 8622SOL     OW37378   4.732   3.318   4.201
 8622SOL    HW137379   4.686   3.390   4.149
 8622SOL    HW237380   4.728   3.338   4.299
 8623SOL     OW37381   4.075   3.663   4.577
 8623SOL    HW137382   4.125   3.577   4.583
 8623SOL    HW237383   4.140   3.740   4.574
 8624SOL     OW37384   4.045   2.805   3.966
 8624SOL    HW137385   4.127   2.844   3.924
 8624SOL    HW237386   4.018   2.723   3.917
 8625SOL     OW37387   4.185   3.128   5.451
 8625SOL    HW137388   4.135   3.129   5.365
 8625SOL    HW237389   4.122   3.110   5.527
 8626SOL     OW37390   3.926   2.147   5.222
 8626SOL    HW137391   3.846   2.207   5.209
 8626SOL    HW237392   3.916   2.098   5.308
 8627SOL     OW37393   4.188   3.605   4.047
 8627SOL    HW137394   4.221   3.644   4.133
 8627SOL    HW237395   4.264   3.598   3.982
 8628SOL     OW37396   3.973   3.647   4.965
 8628SOL    HW137397   4.030   3.582   5.015
 8628SOL    HW237398   3.957   3.614   4.872
 8629SOL     OW37399   4.106   2.562   4.204
 8629SOL    HW137400   4.151   2.472   4.201
 8629SOL    HW237401   4.012   2.551   4.237
 8630SOL     OW37402   4.338   1.984   3.841
 8630SOL    HW137403   4.436   1.962   3.848
 8630SOL    HW237404   4.307   1.967   3.748
 8631SOL     OW37405   4.505   2.126   5.473
 8631SOL    HW137406   4.572   2.065   5.516
 8631SOL    HW237407   4.432   2.145   5.538
 8632SOL     OW37408   4.612   3.376   4.919
 8632SOL    HW137409   4.589   3.351   4.825
 8632SOL    HW237410   4.673   3.307   4.958
 8633SOL     OW37411   4.527   3.264   4.648
 8633SOL    HW137412   4.617   3.278   4.606
 8633SOL    HW237413   4.456   3.266   4.577
 8634SOL     OW37414   4.646   2.365   4.623
 8634SOL    HW137415   4.621   2.356   4.527
 8634SOL    HW237416   4.694   2.283   4.654
 8635SOL     OW37417   4.263   1.926   4.236
 8635SOL    HW137418   4.182   1.927   4.294
 8635SOL    HW237419   4.266   2.009   4.181
 8636SOL     OW37420   4.021   1.897   3.895
 8636SOL    HW137421   4.070   1.981   3.874
 8636SOL    HW237422   4.083   1.832   3.940
 8637SOL     OW37423   4.659   2.098   4.204
 8637SOL    HW137424   4.611   2.139   4.126
 8637SOL    HW237425   4.758   2.096   4.185
 8638SOL     OW37426   4.951   3.432   4.517
 8638SOL    HW137427   4.972   3.506   4.452
 8638SOL    HW237428   5.019   3.432   4.590
 8639SOL     OW37429   4.183   3.014   4.465
 8639SOL    HW137430   4.112   2.987   4.530
 8639SOL    HW237431   4.157   2.986   4.372
 8640SOL     OW37432   4.756   2.411   3.740
 8640SOL    HW137433   4.715   2.493   3.701
 8640SOL    HW237434   4.820   2.437   3.813
 8641SOL     OW37435   3.802   2.418   5.110
 8641SOL    HW137436   3.894   2.417   5.069
 8641SOL    HW237437   3.796   2.492   5.177
 8642SOL     OW37438   4.285   2.084   4.871
 8642SOL    HW137439   4.323   2.000   4.908
 8642SOL    HW237440   4.197   2.103   4.915
 8643SOL     OW37441   4.590   2.316   4.366
 8643SOL    HW137442   4.558   2.388   4.304
 8643SOL    HW237443   4.614   2.235   4.313
 8644SOL     OW37444   4.741   1.901   4.477
 8644SOL    HW137445   4.669   1.906   4.408
 8644SOL    HW237446   4.717   1.832   4.546
 8645SOL     OW37447   4.212   3.247   3.898
 8645SOL    HW137448   4.125   3.232   3.945
 8645SOL    HW237449   4.195   3.273   3.803
 8646SOL     OW37450   4.251   2.118   4.052
 8646SOL    HW137451   4.278   2.059   3.977
 8646SOL    HW237452   4.251   2.213   4.021
 8647SOL     OW37453   4.639   1.951   5.126
 8647SOL    HW137454   4.664   1.931   5.031
 8647SOL    HW237455   4.711   2.007   5.168
 8648SOL     OW37456   4.704   2.978   5.443
 8648SOL    HW137457   4.605   2.984   5.453
 8648SOL    HW237458   4.727   2.898   5.387
 8649SOL     OW37459   4.429   2.912   4.092
 8649SOL    HW137460   4.415   2.919   4.191
 8649SOL    HW237461   4.513   2.861   4.074
 8650SOL     OW37462   4.134   2.675   4.975
 8650SOL    HW137463   4.220   2.687   5.025
 8650SOL    HW237464   4.092   2.588   5.002
 8651SOL     OW37465   3.788   3.426   5.055
 8651SOL    HW137466   3.742   3.508   5.021
 8651SOL    HW237467   3.886   3.445   5.064
 8652SOL     OW37468   4.091   2.962   4.225
 8652SOL    HW137469   4.084   3.045   4.169
 8652SOL    HW237470   4.095   2.882   4.165
 8653SOL     OW37471   4.290   2.399   4.589
 8653SOL    HW137472   4.302   2.465   4.515
 8653SOL    HW237473   4.336   2.433   4.672
 8654SOL     OW37474   4.078   3.372   5.053
 8654SOL    HW137475   4.057   3.328   4.966
 8654SOL    HW237476   4.175   3.398   5.056
 8655SOL     OW37477   4.126   2.613   5.322
 8655SOL    HW137478   4.194   2.668   5.275
 8655SOL    HW237479   4.166   2.525   5.349
 8656SOL     OW37480   4.737   1.967   5.494
 8656SOL    HW137481   4.743   2.052   5.442
 8656SOL    HW237482   4.769   1.891   5.437
 8657SOL     OW37483   4.228   1.912   5.464
 8657SOL    HW137484   4.186   1.855   5.394
 8657SOL    HW237485   4.162   1.981   5.496
 8658SOL     OW37486   4.297   2.732   4.753
 8658SOL    HW137487   4.341   2.821   4.744
 8658SOL    HW237488   4.234   2.732   4.830
 8659SOL     OW37489   4.933   2.387   3.999
 8659SOL    HW137490   4.946   2.303   4.053
 8659SOL    HW237491   4.904   2.461   4.059
 8660SOL     OW37492   4.031   2.075   4.955
 8660SOL    HW137493   4.008   2.112   5.045
 8660SOL    HW237494   4.001   1.980   4.949
 8661SOL     OW37495   3.761   3.172   5.006
 8661SOL    HW137496   3.814   3.123   5.074
 8661SOL    HW237497   3.783   3.270   5.011
 8662SOL     OW37498   4.456   2.496   4.788
 8662SOL    HW137499   4.515   2.470   4.712
 8662SOL    HW237500   4.428   2.592   4.777
 8663SOL     OW37501   4.031   1.925   4.342
 8663SOL    HW137502   4.020   2.019   4.375
 8663SOL    HW237503   4.026   1.862   4.419
 8664SOL     OW37504   4.747   2.628   4.690
 8664SOL    HW137505   4.762   2.649   4.786
 8664SOL    HW237506   4.717   2.533   4.681
 8665SOL     OW37507   4.704   3.435   5.424
 8665SOL    HW137508   4.684   3.479   5.336
 8665SOL    HW237509   4.743   3.344   5.408
 8666SOL     OW37510   4.074   2.760   5.528
 8666SOL    HW137511   4.150   2.804   5.576
 8666SOL    HW237512   4.109   2.713   5.446
 8667SOL     OW37513   4.043   2.672   4.673
 8667SOL    HW137514   4.136   2.708   4.678
 8667SOL    HW237515   4.037   2.587   4.725
 8668SOL     OW37516   4.063   2.371   4.730
 8668SOL    HW137517   4.011   2.288   4.713
 8668SOL    HW237518   4.140   2.376   4.666
 8669SOL     OW37519   3.732   3.188   3.924
 8669SOL    HW137520   3.639   3.209   3.893
 8669SOL    HW237521   3.742   3.089   3.937
 8670SOL     OW37522   3.812   3.663   4.651
 8670SOL    HW137523   3.770   3.577   4.624
 8670SOL    HW237524   3.906   3.666   4.617
 8671SOL     OW37525   4.228   3.430   4.634
 8671SOL    HW137526   4.294   3.504   4.643
 8671SOL    HW237527   4.272   3.351   4.592
 8672SOL     OW37528   4.726   2.658   4.962
 8672SOL    HW137529   4.767   2.626   5.048
 8672SOL    HW237530   4.630   2.631   4.959
 8673SOL     OW37531   3.764   2.406   4.838
 8673SOL    HW137532   3.849   2.373   4.797
 8673SOL    HW237533   3.777   2.421   4.936
 8674SOL     OW37534   3.913   2.382   5.446
 8674SOL    HW137535   3.972   2.342   5.376
 8674SOL    HW237536   3.855   2.453   5.405
 8675SOL     OW37537   4.539   2.434   4.049
 8675SOL    HW137538   4.546   2.345   4.003
 8675SOL    HW237539   4.445   2.468   4.041
 8676SOL     OW37540   3.976   3.426   5.468
 8676SOL    HW137541   3.946   3.483   5.544
 8676SOL    HW237542   3.969   3.329   5.494
 8677SOL     OW37543   4.395   2.326   4.993
 8677SOL    HW137544   4.361   2.237   4.963
 8677SOL    HW237545   4.421   2.380   4.913
 8678SOL     OW37546   4.654   3.540   5.189
 8678SOL    HW137547   4.630   3.522   5.094
 8678SOL    HW237548   4.684   3.634   5.199
 8679SOL     OW37549   4.197   2.362   3.915
 8679SOL    HW137550   4.258   2.442   3.919
 8679SOL    HW237551   4.102   2.393   3.922
 8680SOL     OW37552   3.883   2.999   5.190
 8680SOL    HW137553   3.905   2.938   5.266
 8680SOL    HW237554   3.893   2.950   5.104
 8681SOL     OW37555   3.807   3.120   4.746
 8681SOL    HW137556   3.802   3.119   4.846
 8681SOL    HW237557   3.724   3.079   4.708
 8682SOL     OW37558   4.412   3.524   5.440
 8682SOL    HW137559   4.356   3.605   5.449
 8682SOL    HW237560   4.464   3.528   5.354
 8683SOL     OW37561   3.854   3.656   5.575
 8683SOL    HW137562   3.813   3.582   5.628
 8683SOL    HW237563   3.918   3.707   5.633
 8684SOL     OW37564   5.004   2.789   4.396
 8684SOL    HW137565   5.064   2.708   4.398
 8684SOL    HW237566   5.044   2.858   4.336
 8685SOL     OW37567   4.554   3.135   5.146
 8685SOL    HW137568   4.549   3.168   5.241
 8685SOL    HW237569   4.468   3.154   5.100
 8686SOL     OW37570   4.396   3.478   3.878
 8686SOL    HW137571   4.405   3.488   3.779
 8686SOL    HW237572   4.356   3.389   3.899
 8687SOL     OW37573   3.987   2.188   4.444
 8687SOL    HW137574   3.908   2.239   4.410
 8687SOL    HW237575   3.978   2.173   4.542
 8688SOL     OW37576   4.546   2.864   5.096
 8688SOL    HW137577   4.586   2.863   5.004
 8688SOL    HW237578   4.556   2.956   5.136
 8689SOL     OW37579   4.640   2.772   4.015
 8689SOL    HW137580   4.703   2.810   3.947
 8689SOL    HW237581   4.680   2.689   4.054
 8690SOL     OW37582   4.096   3.150   5.214
 8690SOL    HW137583   4.083   3.243   5.180
 8690SOL    HW237584   4.012   3.098   5.201
 8691SOL     OW37585   4.763   2.960   4.420
 8691SOL    HW137586   4.693   2.913   4.474
 8691SOL    HW237587   4.822   2.892   4.377
 8692SOL     OW37588   4.738   2.098   4.695
 8692SOL    HW137589   4.730   2.062   4.602
 8692SOL    HW237590   4.736   2.022   4.760
 8693SOL     OW37591   4.314   3.349   4.215
 8693SOL    HW137592   4.356   3.291   4.145
 8693SOL    HW237593   4.270   3.428   4.171
 8694SOL     OW37594   3.979   3.210   4.014
 8694SOL    HW137595   3.883   3.211   3.987
 8694SOL    HW237596   3.991   3.263   4.098
 8695SOL     OW37597   3.829   2.875   5.450
 8695SOL    HW137598   3.752   2.842   5.504
 8695SOL    HW237599   3.914   2.845   5.492
 8696SOL     OW37600   4.396   2.065   5.213
 8696SOL    HW137601   4.486   2.049   5.173
 8696SOL    HW237602   4.404   2.070   5.312
 8697SOL     OW37603   3.799   2.207   3.757
 8697SOL    HW137604   3.707   2.179   3.728
 8697SOL    HW237605   3.830   2.284   3.701
 8698SOL     OW37606   3.796   2.028   4.042
 8698SOL    HW137607   3.779   2.111   3.988
 8698SOL    HW237608   3.886   1.991   4.020
 8699SOL     OW37609   4.337   2.704   5.155
 8699SOL    HW137610   4.393   2.785   5.138
 8699SOL    HW237611   4.396   2.624   5.158
 8700SOL     OW37612   4.440   2.427   5.432
 8700SOL    HW137613   4.459   2.492   5.506
 8700SOL    HW237614   4.500   2.347   5.441
 8701SOL     OW37615   4.114   3.603   5.284
 8701SOL    HW137616   4.023   3.644   5.282
 8701SOL    HW237617   4.107   3.509   5.316
 8702SOL     OW37618   4.949   2.187   4.173
 8702SOL    HW137619   5.014   2.113   4.162
 8702SOL    HW237620   4.969   2.237   4.257
 8703SOL     OW37621   4.318   2.607   4.376
 8703SOL    HW137622   4.368   2.692   4.357
 8703SOL    HW237623   4.230   2.609   4.328
 8704SOL     OW37624   4.583   3.236   3.740
 8704SOL    HW137625   4.537   3.251   3.828
 8704SOL    HW237626   4.627   3.321   3.710
 8705SOL     OW37627   4.385   3.652   4.677
 8705SOL    HW137628   4.339   3.740   4.664
 8705SOL    HW237629   4.484   3.664   4.670
 8706SOL     OW37630   4.583   2.818   4.585
 8706SOL    HW137631   4.637   2.749   4.633
 8706SOL    HW237632   4.551   2.887   4.651
 8707SOL     OW37633   3.945   3.176   5.568
 8707SOL    HW137634   3.880   3.103   5.547
 8707SOL    HW237635   3.949   3.190   5.666
 8708SOL     OW37636   3.803   3.102   4.377
 8708SOL    HW137637   3.802   3.055   4.465
 8708SOL    HW237638   3.885   3.074   4.326
 8709SOL     OW37639   4.396   3.253   5.348
 8709SOL    HW137640   4.318   3.203   5.386
 8709SOL    HW237641   4.393   3.348   5.379
 8710SOL     OW37642   4.152   2.286   4.244
 8710SOL    HW137643   4.182   2.214   4.182
 8710SOL    HW237644   4.113   2.246   4.327
 8711SOL     OW37645   4.041   2.409   5.004
 8711SOL    HW137646   4.079   2.350   5.076
 8711SOL    HW237647   4.081   2.383   4.916
 8712SOL     OW37648   4.536   3.448   4.411
 8712SOL    HW137649   4.568   3.458   4.317
 8712SOL    HW237650   4.457   3.386   4.413
 8713SOL     OW37651   4.725   1.896   4.878
 8713SOL    HW137652   4.662   1.824   4.847
 8713SOL    HW237653   4.818   1.860   4.878
 8714SOL     OW37654   4.494   3.192   4.025
 8714SOL    HW137655   4.448   3.105   4.042
 8714SOL    HW237656   4.585   3.189   4.066
 8715SOL     OW37657   4.342   3.429   5.008
 8715SOL    HW137658   4.337   3.511   5.065
 8715SOL    HW237659   4.431   3.426   4.963
 8716SOL     OW37660   3.763   2.939   4.024
 8716SOL    HW137661   3.862   2.928   4.015
 8716SOL    HW237662   3.723   2.853   4.056
 8717SOL     OW37663   4.599   3.508   4.061
 8717SOL    HW137664   4.522   3.473   4.007
 8717SOL    HW237665   4.567   3.579   4.123
 8718SOL     OW37666   3.954   2.490   5.699
 8718SOL    HW137667   3.861   2.488   5.736
 8718SOL    HW237668   3.955   2.451   5.607
 8719SOL     OW37669   3.949   2.137   6.582
 8719SOL    HW137670   3.984   2.120   6.674
 8719SOL    HW237671   3.861   2.092   6.570
 8720SOL     OW37672   3.743   2.230   6.233
 8720SOL    HW137673   3.661   2.273   6.272
 8720SOL    HW237674   3.715   2.157   6.170
 8721SOL     OW37675   4.293   3.137   6.751
 8721SOL    HW137676   4.200   3.130   6.714
 8721SOL    HW237677   4.304   3.226   6.795
 8722SOL     OW37678   4.492   3.006   6.609
 8722SOL    HW137679   4.414   3.023   6.669
 8722SOL    HW237680   4.526   3.093   6.573
 8723SOL     OW37681   4.574   2.660   7.409
 8723SOL    HW137682   4.570   2.736   7.474
 8723SOL    HW237683   4.596   2.696   7.318
 8724SOL     OW37684   4.409   2.874   6.251
 8724SOL    HW137685   4.478   2.858   6.321
 8724SOL    HW237686   4.336   2.931   6.289
 8725SOL     OW37687   4.410   3.023   7.389
 8725SOL    HW137688   4.470   3.102   7.403
 8725SOL    HW237689   4.324   3.054   7.348
 8726SOL     OW37690   4.059   3.297   6.647
 8726SOL    HW137691   3.981   3.266   6.594
 8726SOL    HW237692   4.117   3.355   6.590
 8727SOL     OW37693   4.162   2.254   7.085
 8727SOL    HW137694   4.244   2.198   7.094
 8727SOL    HW237695   4.081   2.196   7.089
 8728SOL     OW37696   3.955   3.575   6.069
 8728SOL    HW137697   3.989   3.652   6.123
 8728SOL    HW237698   3.999   3.575   5.979
 8729SOL     OW37699   3.954   3.296   6.124
 8729SOL    HW137700   3.928   3.392   6.124
 8729SOL    HW237701   3.883   3.242   6.169
 8730SOL     OW37702   3.964   2.953   6.472
 8730SOL    HW137703   3.978   2.869   6.524
 8730SOL    HW237704   3.909   3.017   6.527
 8731SOL     OW37705   4.344   3.648   7.025
 8731SOL    HW137706   4.252   3.631   7.060
 8731SOL    HW237707   4.372   3.740   7.051
 8732SOL     OW37708   4.330   2.826   5.709
 8732SOL    HW137709   4.337   2.910   5.655
 8732SOL    HW237710   4.376   2.839   5.797
 8733SOL     OW37711   3.846   2.505   6.149
 8733SOL    HW137712   3.801   2.417   6.166
 8733SOL    HW237713   3.845   2.559   6.233
 8734SOL     OW37714   3.751   3.458   5.703
 8734SOL    HW137715   3.732   3.362   5.724
 8734SOL    HW237716   3.718   3.516   5.778
 8735SOL     OW37717   3.837   2.599   7.183
 8735SOL    HW137718   3.925   2.586   7.228
 8735SOL    HW237719   3.824   2.696   7.161
 8736SOL     OW37720   4.337   3.227   6.312
 8736SOL    HW137721   4.288   3.140   6.321
 8736SOL    HW237722   4.314   3.270   6.225
 8737SOL     OW37723   4.533   1.866   6.088
 8737SOL    HW137724   4.573   1.957   6.079
 8737SOL    HW237725   4.433   1.874   6.094
 8738SOL     OW37726   3.921   2.838   6.850
 8738SOL    HW137727   4.010   2.793   6.836
 8738SOL    HW237728   3.848   2.773   6.831
 8739SOL     OW37729   4.041   2.113   7.387
 8739SOL    HW137730   4.112   2.184   7.393
 8739SOL    HW237731   3.953   2.152   7.415
 8740SOL     OW37732   4.322   2.591   5.856
 8740SOL    HW137733   4.346   2.660   5.788
 8740SOL    HW237734   4.244   2.624   5.910
 8741SOL     OW37735   4.531   2.467   7.051
 8741SOL    HW137736   4.484   2.464   7.140
 8741SOL    HW237737   4.480   2.412   6.985
 8742SOL     OW37738   4.697   2.752   7.158
 8742SOL    HW137739   4.743   2.668   7.129
 8742SOL    HW237740   4.641   2.786   7.083
 8743SOL     OW37741   4.715   2.272   6.828
 8743SOL    HW137742   4.638   2.306   6.882
 8743SOL    HW237743   4.681   2.221   6.749
 8744SOL     OW37744   3.800   2.673   6.375
 8744SOL    HW137745   3.899   2.661   6.384
 8744SOL    HW237746   3.776   2.768   6.396
 8745SOL     OW37747   3.854   3.683   7.157
 8745SOL    HW137748   3.844   3.668   7.256
 8745SOL    HW237749   3.768   3.719   7.121
 8746SOL     OW37750   4.589   2.210   5.781
 8746SOL    HW137751   4.648   2.273   5.732
 8746SOL    HW237752   4.608   2.116   5.752
 8747SOL     OW37753   4.274   2.058   6.471
 8747SOL    HW137754   4.269   2.053   6.571
 8747SOL    HW237755   4.276   2.154   6.442
 8748SOL     OW37756   4.732   3.318   6.063
 8748SOL    HW137757   4.686   3.390   6.011
 8748SOL    HW237758   4.728   3.338   6.161
 8749SOL     OW37759   4.075   3.663   6.439
 8749SOL    HW137760   4.125   3.577   6.445
 8749SOL    HW237761   4.140   3.740   6.436
 8750SOL     OW37762   4.045   2.805   5.828
 8750SOL    HW137763   4.127   2.844   5.786
 8750SOL    HW237764   4.018   2.723   5.779
 8751SOL     OW37765   4.185   3.128   7.313
 8751SOL    HW137766   4.135   3.129   7.227
 8751SOL    HW237767   4.122   3.110   7.389
 8752SOL     OW37768   3.926   2.147   7.084
 8752SOL    HW137769   3.846   2.207   7.071
 8752SOL    HW237770   3.916   2.098   7.170
 8753SOL     OW37771   4.188   3.605   5.909
 8753SOL    HW137772   4.221   3.644   5.995
 8753SOL    HW237773   4.264   3.598   5.844
 8754SOL     OW37774   3.973   3.647   6.827
 8754SOL    HW137775   4.030   3.582   6.877
 8754SOL    HW237776   3.957   3.614   6.734
 8755SOL     OW37777   4.106   2.562   6.066
 8755SOL    HW137778   4.151   2.472   6.063
 8755SOL    HW237779   4.012   2.551   6.099
 8756SOL     OW37780   4.338   1.984   5.703
 8756SOL    HW137781   4.436   1.962   5.710
 8756SOL    HW237782   4.307   1.967   5.610
 8757SOL     OW37783   4.505   2.126   7.335
 8757SOL    HW137784   4.572   2.065   7.378
 8757SOL    HW237785   4.432   2.145   7.400
 8758SOL     OW37786   4.612   3.376   6.781
 8758SOL    HW137787   4.589   3.351   6.687
 8758SOL    HW237788   4.673   3.307   6.820
 8759SOL     OW37789   4.527   3.264   6.510
 8759SOL    HW137790   4.617   3.278   6.468
 8759SOL    HW237791   4.456   3.266   6.439
 8760SOL     OW37792   4.646   2.365   6.485
 8760SOL    HW137793   4.621   2.356   6.389
 8760SOL    HW237794   4.694   2.283   6.516
 8761SOL     OW37795   4.263   1.926   6.098
 8761SOL    HW137796   4.182   1.927   6.156
 8761SOL    HW237797   4.266   2.009   6.043
 8762SOL     OW37798   4.021   1.897   5.757
 8762SOL    HW137799   4.070   1.981   5.736
 8762SOL    HW237800   4.083   1.832   5.802
 8763SOL     OW37801   4.659   2.098   6.066
 8763SOL    HW137802   4.611   2.139   5.988
 8763SOL    HW237803   4.758   2.096   6.047
 8764SOL     OW37804   4.951   3.432   6.379
 8764SOL    HW137805   4.972   3.506   6.314
 8764SOL    HW237806   5.019   3.432   6.452
 8765SOL     OW37807   4.183   3.014   6.327
 8765SOL    HW137808   4.112   2.987   6.392
 8765SOL    HW237809   4.157   2.986   6.234
 8766SOL     OW37810   4.756   2.411   5.602
 8766SOL    HW137811   4.715   2.493   5.563
 8766SOL    HW237812   4.820   2.437   5.675
 8767SOL     OW37813   3.802   2.418   6.972
 8767SOL    HW137814   3.894   2.417   6.931
 8767SOL    HW237815   3.796   2.492   7.039
 8768SOL     OW37816   4.285   2.084   6.733
 8768SOL    HW137817   4.323   2.000   6.770
 8768SOL    HW237818   4.197   2.103   6.777
 8769SOL     OW37819   4.590   2.316   6.228
 8769SOL    HW137820   4.558   2.388   6.166
 8769SOL    HW237821   4.614   2.235   6.175
 8770SOL     OW37822   4.741   1.901   6.339
 8770SOL    HW137823   4.669   1.906   6.270
 8770SOL    HW237824   4.717   1.832   6.408
 8771SOL     OW37825   4.212   3.247   5.760
 8771SOL    HW137826   4.125   3.232   5.807
 8771SOL    HW237827   4.195   3.273   5.665
 8772SOL     OW37828   4.251   2.118   5.914
 8772SOL    HW137829   4.278   2.059   5.839
 8772SOL    HW237830   4.251   2.213   5.883
 8773SOL     OW37831   4.639   1.951   6.988
 8773SOL    HW137832   4.664   1.931   6.893
 8773SOL    HW237833   4.711   2.007   7.030
 8774SOL     OW37834   4.704   2.978   7.305
 8774SOL    HW137835   4.605   2.984   7.315
 8774SOL    HW237836   4.727   2.898   7.249
 8775SOL     OW37837   4.429   2.912   5.954
 8775SOL    HW137838   4.415   2.919   6.053
 8775SOL    HW237839   4.513   2.861   5.936
 8776SOL     OW37840   4.134   2.675   6.837
 8776SOL    HW137841   4.220   2.687   6.887
 8776SOL    HW237842   4.092   2.588   6.864
 8777SOL     OW37843   3.788   3.426   6.917
 8777SOL    HW137844   3.742   3.508   6.883
 8777SOL    HW237845   3.886   3.445   6.926
 8778SOL     OW37846   4.091   2.962   6.087
 8778SOL    HW137847   4.084   3.045   6.031
 8778SOL    HW237848   4.095   2.882   6.027
 8779SOL     OW37849   4.290   2.399   6.451
 8779SOL    HW137850   4.302   2.465   6.377
 8779SOL    HW237851   4.336   2.433   6.534
 8780SOL     OW37852   4.078   3.372   6.915
 8780SOL    HW137853   4.057   3.328   6.828
 8780SOL    HW237854   4.175   3.398   6.918
 8781SOL     OW37855   4.126   2.613   7.184
 8781SOL    HW137856   4.194   2.668   7.137
 8781SOL    HW237857   4.166   2.525   7.211
 8782SOL     OW37858   4.737   1.967   7.356
 8782SOL    HW137859   4.743   2.052   7.304
 8782SOL    HW237860   4.769   1.891   7.299
 8783SOL     OW37861   4.228   1.912   7.326
 8783SOL    HW137862   4.186   1.855   7.256
 8783SOL    HW237863   4.162   1.981   7.358
 8784SOL     OW37864   4.297   2.732   6.615
 8784SOL    HW137865   4.341   2.821   6.606
 8784SOL    HW237866   4.234   2.732   6.692
 8785SOL     OW37867   4.933   2.387   5.861
 8785SOL    HW137868   4.946   2.303   5.915
 8785SOL    HW237869   4.904   2.461   5.921
 8786SOL     OW37870   4.031   2.075   6.817
 8786SOL    HW137871   4.008   2.112   6.907
 8786SOL    HW237872   4.001   1.980   6.811
 8787SOL     OW37873   3.761   3.172   6.868
 8787SOL    HW137874   3.814   3.123   6.936
 8787SOL    HW237875   3.783   3.270   6.873
 8788SOL     OW37876   4.456   2.496   6.650
 8788SOL    HW137877   4.515   2.470   6.574
 8788SOL    HW237878   4.428   2.592   6.639
 8789SOL     OW37879   4.031   1.925   6.204
 8789SOL    HW137880   4.020   2.019   6.237
 8789SOL    HW237881   4.026   1.862   6.281
 8790SOL     OW37882   4.747   2.628   6.552
 8790SOL    HW137883   4.762   2.649   6.648
 8790SOL    HW237884   4.717   2.533   6.543
 8791SOL     OW37885   4.704   3.435   7.286
 8791SOL    HW137886   4.684   3.479   7.198
 8791SOL    HW237887   4.743   3.344   7.270
 8792SOL     OW37888   4.074   2.760   7.390
 8792SOL    HW137889   4.150   2.804   7.438
 8792SOL    HW237890   4.109   2.713   7.308
 8793SOL     OW37891   4.043   2.672   6.535
 8793SOL    HW137892   4.136   2.708   6.540
 8793SOL    HW237893   4.037   2.587   6.587
 8794SOL     OW37894   4.063   2.371   6.592
 8794SOL    HW137895   4.011   2.288   6.575
 8794SOL    HW237896   4.140   2.376   6.528
 8795SOL     OW37897   3.732   3.188   5.786
 8795SOL    HW137898   3.639   3.209   5.755
 8795SOL    HW237899   3.742   3.089   5.799
 8796SOL     OW37900   3.812   3.663   6.513
 8796SOL    HW137901   3.770   3.577   6.486
 8796SOL    HW237902   3.906   3.666   6.479
 8797SOL     OW37903   4.228   3.430   6.496
 8797SOL    HW137904   4.294   3.504   6.505
 8797SOL    HW237905   4.272   3.351   6.454
 8798SOL     OW37906   4.726   2.658   6.824
 8798SOL    HW137907   4.767   2.626   6.910
 8798SOL    HW237908   4.630   2.631   6.821
 8799SOL     OW37909   3.764   2.406   6.700
 8799SOL    HW137910   3.849   2.373   6.659
 8799SOL    HW237911   3.777   2.421   6.798
 8800SOL     OW37912   3.913   2.382   7.308
 8800SOL    HW137913   3.972   2.342   7.238
 8800SOL    HW237914   3.855   2.453   7.267
 8801SOL     OW37915   4.539   2.434   5.911
 8801SOL    HW137916   4.546   2.345   5.865
 8801SOL    HW237917   4.445   2.468   5.903
 8802SOL     OW37918   3.976   3.426   7.330
 8802SOL    HW137919   3.946   3.483   7.406
 8802SOL    HW237920   3.969   3.329   7.356
 8803SOL     OW37921   4.395   2.326   6.855
 8803SOL    HW137922   4.361   2.237   6.825
 8803SOL    HW237923   4.421   2.380   6.775
 8804SOL     OW37924   4.654   3.540   7.051
 8804SOL    HW137925   4.630   3.522   6.956
 8804SOL    HW237926   4.684   3.634   7.061
 8805SOL     OW37927   4.197   2.362   5.777
 8805SOL    HW137928   4.258   2.442   5.781
 8805SOL    HW237929   4.102   2.393   5.784
 8806SOL     OW37930   3.883   2.999   7.052
 8806SOL    HW137931   3.905   2.938   7.128
 8806SOL    HW237932   3.893   2.950   6.966
 8807SOL     OW37933   3.807   3.120   6.608
 8807SOL    HW137934   3.802   3.119   6.708
 8807SOL    HW237935   3.724   3.079   6.570
 8808SOL     OW37936   4.412   3.524   7.302
 8808SOL    HW137937   4.356   3.605   7.311
 8808SOL    HW237938   4.464   3.528   7.216
 8809SOL     OW37939   3.854   3.656   7.437
 8809SOL    HW137940   3.813   3.582   7.490
 8809SOL    HW237941   3.918   3.707   7.495
 8810SOL     OW37942   5.004   2.789   6.258
 8810SOL    HW137943   5.064   2.708   6.260
 8810SOL    HW237944   5.044   2.858   6.198
 8811SOL     OW37945   4.554   3.135   7.008
 8811SOL    HW137946   4.549   3.168   7.103
 8811SOL    HW237947   4.468   3.154   6.962
 8812SOL     OW37948   4.396   3.478   5.740
 8812SOL    HW137949   4.405   3.488   5.641
 8812SOL    HW237950   4.356   3.389   5.761
 8813SOL     OW37951   3.987   2.188   6.306
 8813SOL    HW137952   3.908   2.239   6.272
 8813SOL    HW237953   3.978   2.173   6.404
 8814SOL     OW37954   4.546   2.864   6.958
 8814SOL    HW137955   4.586   2.863   6.866
 8814SOL    HW237956   4.556   2.956   6.998
 8815SOL     OW37957   4.640   2.772   5.877
 8815SOL    HW137958   4.703   2.810   5.809
 8815SOL    HW237959   4.680   2.689   5.916
 8816SOL     OW37960   4.096   3.150   7.076
 8816SOL    HW137961   4.083   3.243   7.042
 8816SOL    HW237962   4.012   3.098   7.063
 8817SOL     OW37963   4.763   2.960   6.282
 8817SOL    HW137964   4.693   2.913   6.336
 8817SOL    HW237965   4.822   2.892   6.239
 8818SOL     OW37966   4.738   2.098   6.557
 8818SOL    HW137967   4.730   2.062   6.464
 8818SOL    HW237968   4.736   2.022   6.622
 8819SOL     OW37969   4.314   3.349   6.077
 8819SOL    HW137970   4.356   3.291   6.007
 8819SOL    HW237971   4.270   3.428   6.033
 8820SOL     OW37972   3.979   3.210   5.876
 8820SOL    HW137973   3.883   3.211   5.849
 8820SOL    HW237974   3.991   3.263   5.960
 8821SOL     OW37975   3.829   2.875   7.312
 8821SOL    HW137976   3.752   2.842   7.366
 8821SOL    HW237977   3.914   2.845   7.354
 8822SOL     OW37978   4.396   2.065   7.075
 8822SOL    HW137979   4.486   2.049   7.035
 8822SOL    HW237980   4.404   2.070   7.174
 8823SOL     OW37981   3.799   2.207   5.619
 8823SOL    HW137982   3.707   2.179   5.590
 8823SOL    HW237983   3.830   2.284   5.563
 8824SOL     OW37984   3.796   2.028   5.904
 8824SOL    HW137985   3.779   2.111   5.850
 8824SOL    HW237986   3.886   1.991   5.882
 8825SOL     OW37987   4.337   2.704   7.017
 8825SOL    HW137988   4.393   2.785   7.000
 8825SOL    HW237989   4.396   2.624   7.020
 8826SOL     OW37990   4.440   2.427   7.294
 8826SOL    HW137991   4.459   2.492   7.368
 8826SOL    HW237992   4.500   2.347   7.303
 8827SOL     OW37993   4.114   3.603   7.146
 8827SOL    HW137994   4.023   3.644   7.144
 8827SOL    HW237995   4.107   3.509   7.178
 8828SOL     OW37996   4.949   2.187   6.035
 8828SOL    HW137997   5.014   2.113   6.024
 8828SOL    HW237998   4.969   2.237   6.119
 8829SOL     OW37999   4.318   2.607   6.238
 8829SOL    HW138000   4.368   2.692   6.219
 8829SOL    HW238001   4.230   2.609   6.190
 8830SOL     OW38002   4.583   3.236   5.602
 8830SOL    HW138003   4.537   3.251   5.690
 8830SOL    HW238004   4.627   3.321   5.572
 8831SOL     OW38005   4.385   3.652   6.539
 8831SOL    HW138006   4.339   3.740   6.526
 8831SOL    HW238007   4.484   3.664   6.532
 8832SOL     OW38008   4.583   2.818   6.447
 8832SOL    HW138009   4.637   2.749   6.495
 8832SOL    HW238010   4.551   2.887   6.513
 8833SOL     OW38011   3.945   3.176   7.430
 8833SOL    HW138012   3.880   3.103   7.409
 8833SOL    HW238013   3.949   3.190   7.528
 8834SOL     OW38014   3.803   3.102   6.239
 8834SOL    HW138015   3.802   3.055   6.327
 8834SOL    HW238016   3.885   3.074   6.188
 8835SOL     OW38017   4.396   3.253   7.210
 8835SOL    HW138018   4.318   3.203   7.248
 8835SOL    HW238019   4.393   3.348   7.241
 8836SOL     OW38020   4.152   2.286   6.106
 8836SOL    HW138021   4.182   2.214   6.044
 8836SOL    HW238022   4.113   2.246   6.189
 8837SOL     OW38023   4.041   2.409   6.866
 8837SOL    HW138024   4.079   2.350   6.938
 8837SOL    HW238025   4.081   2.383   6.778
 8838SOL     OW38026   4.536   3.448   6.273
 8838SOL    HW138027   4.568   3.458   6.179
 8838SOL    HW238028   4.457   3.386   6.275
 8839SOL     OW38029   4.725   1.896   6.740
 8839SOL    HW138030   4.662   1.824   6.709
 8839SOL    HW238031   4.818   1.860   6.740
 8840SOL     OW38032   4.494   3.192   5.887
 8840SOL    HW138033   4.448   3.105   5.904
 8840SOL    HW238034   4.585   3.189   5.928
 8841SOL     OW38035   4.342   3.429   6.870
 8841SOL    HW138036   4.337   3.511   6.927
 8841SOL    HW238037   4.431   3.426   6.825
 8842SOL     OW38038   3.763   2.939   5.886
 8842SOL    HW138039   3.862   2.928   5.877
 8842SOL    HW238040   3.723   2.853   5.918
 8843SOL     OW38041   4.599   3.508   5.923
 8843SOL    HW138042   4.522   3.473   5.869
 8843SOL    HW238043   4.567   3.579   5.985
 8844SOL     OW38044   3.949   2.137   8.444
 8844SOL    HW138045   3.984   2.120   8.536
 8844SOL    HW238046   3.861   2.092   8.432
 8845SOL     OW38047   3.743   2.230   8.095
 8845SOL    HW138048   3.661   2.273   8.134
 8845SOL    HW238049   3.715   2.157   8.032
 8846SOL     OW38050   4.293   3.137   8.613
 8846SOL    HW138051   4.200   3.130   8.576
 8846SOL    HW238052   4.304   3.226   8.657
 8847SOL     OW38053   4.492   3.006   8.471
 8847SOL    HW138054   4.414   3.023   8.531
 8847SOL    HW238055   4.526   3.093   8.435
 8848SOL     OW38056   4.574   2.660   9.271
 8848SOL    HW138057   4.570   2.736   9.336
 8848SOL    HW238058   4.596   2.696   9.180
 8849SOL     OW38059   4.409   2.874   8.113
 8849SOL    HW138060   4.478   2.858   8.183
 8849SOL    HW238061   4.336   2.931   8.151
 8850SOL     OW38062   4.410   3.023   9.251
 8850SOL    HW138063   4.470   3.102   9.265
 8850SOL    HW238064   4.324   3.054   9.210
 8851SOL     OW38065   4.059   3.297   8.509
 8851SOL    HW138066   3.981   3.266   8.456
 8851SOL    HW238067   4.117   3.355   8.452
 8852SOL     OW38068   4.162   2.254   8.947
 8852SOL    HW138069   4.244   2.198   8.956
 8852SOL    HW238070   4.081   2.196   8.951
 8853SOL     OW38071   3.955   3.575   7.931
 8853SOL    HW138072   3.989   3.652   7.985
 8853SOL    HW238073   3.999   3.575   7.841
 8854SOL     OW38074   3.954   3.296   7.986
 8854SOL    HW138075   3.928   3.392   7.986
 8854SOL    HW238076   3.883   3.242   8.031
 8855SOL     OW38077   3.964   2.953   8.334
 8855SOL    HW138078   3.978   2.869   8.386
 8855SOL    HW238079   3.909   3.017   8.389
 8856SOL     OW38080   4.344   3.648   8.887
 8856SOL    HW138081   4.252   3.631   8.922
 8856SOL    HW238082   4.372   3.740   8.913
 8857SOL     OW38083   4.330   2.826   7.571
 8857SOL    HW138084   4.337   2.910   7.517
 8857SOL    HW238085   4.376   2.839   7.659
 8858SOL     OW38086   3.846   2.505   8.011
 8858SOL    HW138087   3.801   2.417   8.028
 8858SOL    HW238088   3.845   2.559   8.095
 8859SOL     OW38089   3.751   3.458   7.565
 8859SOL    HW138090   3.732   3.362   7.586
 8859SOL    HW238091   3.718   3.516   7.640
 8860SOL     OW38092   3.837   2.599   9.045
 8860SOL    HW138093   3.925   2.586   9.090
 8860SOL    HW238094   3.824   2.696   9.023
 8861SOL     OW38095   4.337   3.227   8.174
 8861SOL    HW138096   4.288   3.140   8.183
 8861SOL    HW238097   4.314   3.270   8.087
 8862SOL     OW38098   4.533   1.866   7.950
 8862SOL    HW138099   4.573   1.957   7.941
 8862SOL    HW238100   4.433   1.874   7.956
 8863SOL     OW38101   3.921   2.838   8.712
 8863SOL    HW138102   4.010   2.793   8.698
 8863SOL    HW238103   3.848   2.773   8.693
 8864SOL     OW38104   4.041   2.113   9.249
 8864SOL    HW138105   4.112   2.184   9.255
 8864SOL    HW238106   3.953   2.152   9.277
 8865SOL     OW38107   4.322   2.591   7.718
 8865SOL    HW138108   4.346   2.660   7.650
 8865SOL    HW238109   4.244   2.624   7.772
 8866SOL     OW38110   4.531   2.467   8.913
 8866SOL    HW138111   4.484   2.464   9.002
 8866SOL    HW238112   4.480   2.412   8.847
 8867SOL     OW38113   4.697   2.752   9.020
 8867SOL    HW138114   4.743   2.668   8.991
 8867SOL    HW238115   4.641   2.786   8.945
 8868SOL     OW38116   4.715   2.272   8.690
 8868SOL    HW138117   4.638   2.306   8.744
 8868SOL    HW238118   4.681   2.221   8.611
 8869SOL     OW38119   3.800   2.673   8.237
 8869SOL    HW138120   3.899   2.661   8.246
 8869SOL    HW238121   3.776   2.768   8.258
 8870SOL     OW38122   3.854   3.683   9.019
 8870SOL    HW138123   3.844   3.668   9.118
 8870SOL    HW238124   3.768   3.719   8.983
 8871SOL     OW38125   4.589   2.210   7.643
 8871SOL    HW138126   4.648   2.273   7.594
 8871SOL    HW238127   4.608   2.116   7.614
 8872SOL     OW38128   4.274   2.058   8.333
 8872SOL    HW138129   4.269   2.053   8.433
 8872SOL    HW238130   4.276   2.154   8.304
 8873SOL     OW38131   4.732   3.318   7.925
 8873SOL    HW138132   4.686   3.390   7.873
 8873SOL    HW238133   4.728   3.338   8.023
 8874SOL     OW38134   4.075   3.663   8.301
 8874SOL    HW138135   4.125   3.577   8.307
 8874SOL    HW238136   4.140   3.740   8.298
 8875SOL     OW38137   4.045   2.805   7.690
 8875SOL    HW138138   4.127   2.844   7.648
 8875SOL    HW238139   4.018   2.723   7.641
 8876SOL     OW38140   4.185   3.128   9.175
 8876SOL    HW138141   4.135   3.129   9.089
 8876SOL    HW238142   4.122   3.110   9.251
 8877SOL     OW38143   3.926   2.147   8.946
 8877SOL    HW138144   3.846   2.207   8.933
 8877SOL    HW238145   3.916   2.098   9.032
 8878SOL     OW38146   4.188   3.605   7.771
 8878SOL    HW138147   4.221   3.644   7.857
 8878SOL    HW238148   4.264   3.598   7.706
 8879SOL     OW38149   3.973   3.647   8.689
 8879SOL    HW138150   4.030   3.582   8.739
 8879SOL    HW238151   3.957   3.614   8.596
 8880SOL     OW38152   4.106   2.562   7.928
 8880SOL    HW138153   4.151   2.472   7.925
 8880SOL    HW238154   4.012   2.551   7.961
 8881SOL     OW38155   4.338   1.984   7.565
 8881SOL    HW138156   4.436   1.962   7.572
 8881SOL    HW238157   4.307   1.967   7.472
 8882SOL     OW38158   4.505   2.126   9.197
 8882SOL    HW138159   4.572   2.065   9.240
 8882SOL    HW238160   4.432   2.145   9.262
 8883SOL     OW38161   4.612   3.376   8.643
 8883SOL    HW138162   4.589   3.351   8.549
 8883SOL    HW238163   4.673   3.307   8.682
 8884SOL     OW38164   4.527   3.264   8.372
 8884SOL    HW138165   4.617   3.278   8.330
 8884SOL    HW238166   4.456   3.266   8.301
 8885SOL     OW38167   4.646   2.365   8.347
 8885SOL    HW138168   4.621   2.356   8.251
 8885SOL    HW238169   4.694   2.283   8.378
 8886SOL     OW38170   4.263   1.926   7.960
 8886SOL    HW138171   4.182   1.927   8.018
 8886SOL    HW238172   4.266   2.009   7.905
 8887SOL     OW38173   4.021   1.897   7.619
 8887SOL    HW138174   4.070   1.981   7.598
 8887SOL    HW238175   4.083   1.832   7.664
 8888SOL     OW38176   4.659   2.098   7.928
 8888SOL    HW138177   4.611   2.139   7.850
 8888SOL    HW238178   4.758   2.096   7.909
 8889SOL     OW38179   4.951   3.432   8.241
 8889SOL    HW138180   4.972   3.506   8.176
 8889SOL    HW238181   5.019   3.432   8.314
 8890SOL     OW38182   4.183   3.014   8.189
 8890SOL    HW138183   4.112   2.987   8.254
 8890SOL    HW238184   4.157   2.986   8.096
 8891SOL     OW38185   4.756   2.411   7.464
 8891SOL    HW138186   4.715   2.493   7.425
 8891SOL    HW238187   4.820   2.437   7.537
 8892SOL     OW38188   3.802   2.418   8.834
 8892SOL    HW138189   3.894   2.417   8.793
 8892SOL    HW238190   3.796   2.492   8.901
 8893SOL     OW38191   4.285   2.084   8.595
 8893SOL    HW138192   4.323   2.000   8.632
 8893SOL    HW238193   4.197   2.103   8.639
 8894SOL     OW38194   4.590   2.316   8.090
 8894SOL    HW138195   4.558   2.388   8.028
 8894SOL    HW238196   4.614   2.235   8.037
 8895SOL     OW38197   4.741   1.901   8.201
 8895SOL    HW138198   4.669   1.906   8.132
 8895SOL    HW238199   4.717   1.832   8.270
 8896SOL     OW38200   4.212   3.247   7.622
 8896SOL    HW138201   4.125   3.232   7.669
 8896SOL    HW238202   4.195   3.273   7.527
 8897SOL     OW38203   4.251   2.118   7.776
 8897SOL    HW138204   4.278   2.059   7.701
 8897SOL    HW238205   4.251   2.213   7.745
 8898SOL     OW38206   4.639   1.951   8.850
 8898SOL    HW138207   4.664   1.931   8.755
 8898SOL    HW238208   4.711   2.007   8.892
 8899SOL     OW38209   4.704   2.978   9.167
 8899SOL    HW138210   4.605   2.984   9.177
 8899SOL    HW238211   4.727   2.898   9.111
 8900SOL     OW38212   4.429   2.912   7.816
 8900SOL    HW138213   4.415   2.919   7.915
 8900SOL    HW238214   4.513   2.861   7.798
 8901SOL     OW38215   4.134   2.675   8.699
 8901SOL    HW138216   4.220   2.687   8.749
 8901SOL    HW238217   4.092   2.588   8.726
 8902SOL     OW38218   3.788   3.426   8.779
 8902SOL    HW138219   3.742   3.508   8.745
 8902SOL    HW238220   3.886   3.445   8.788
 8903SOL     OW38221   4.091   2.962   7.949
 8903SOL    HW138222   4.084   3.045   7.893
 8903SOL    HW238223   4.095   2.882   7.889
 8904SOL     OW38224   4.290   2.399   8.313
 8904SOL    HW138225   4.302   2.465   8.239
 8904SOL    HW238226   4.336   2.433   8.396
 8905SOL     OW38227   4.078   3.372   8.777
 8905SOL    HW138228   4.057   3.328   8.690
 8905SOL    HW238229   4.175   3.398   8.780
 8906SOL     OW38230   4.126   2.613   9.046
 8906SOL    HW138231   4.194   2.668   8.999
 8906SOL    HW238232   4.166   2.525   9.073
 8907SOL     OW38233   4.737   1.967   9.218
 8907SOL    HW138234   4.743   2.052   9.166
 8907SOL    HW238235   4.769   1.891   9.161
 8908SOL     OW38236   4.228   1.912   9.188
 8908SOL    HW138237   4.186   1.855   9.118
 8908SOL    HW238238   4.162   1.981   9.220
 8909SOL     OW38239   4.297   2.732   8.477
 8909SOL    HW138240   4.341   2.821   8.468
 8909SOL    HW238241   4.234   2.732   8.554
 8910SOL     OW38242   4.933   2.387   7.723
 8910SOL    HW138243   4.946   2.303   7.777
 8910SOL    HW238244   4.904   2.461   7.783
 8911SOL     OW38245   4.031   2.075   8.679
 8911SOL    HW138246   4.008   2.112   8.769
 8911SOL    HW238247   4.001   1.980   8.673
 8912SOL     OW38248   3.761   3.172   8.730
 8912SOL    HW138249   3.814   3.123   8.798
 8912SOL    HW238250   3.783   3.270   8.735
 8913SOL     OW38251   4.456   2.496   8.512
 8913SOL    HW138252   4.515   2.470   8.436
 8913SOL    HW238253   4.428   2.592   8.501
 8914SOL     OW38254   4.031   1.925   8.066
 8914SOL    HW138255   4.020   2.019   8.099
 8914SOL    HW238256   4.026   1.862   8.143
 8915SOL     OW38257   4.747   2.628   8.414
 8915SOL    HW138258   4.762   2.649   8.510
 8915SOL    HW238259   4.717   2.533   8.405
 8916SOL     OW38260   4.704   3.435   9.148
 8916SOL    HW138261   4.684   3.479   9.060
 8916SOL    HW238262   4.743   3.344   9.132
 8917SOL     OW38263   4.074   2.760   9.252
 8917SOL    HW138264   4.150   2.804   9.300
 8917SOL    HW238265   4.109   2.713   9.170
 8918SOL     OW38266   4.043   2.672   8.397
 8918SOL    HW138267   4.136   2.708   8.402
 8918SOL    HW238268   4.037   2.587   8.449
 8919SOL     OW38269   4.063   2.371   8.454
 8919SOL    HW138270   4.011   2.288   8.437
 8919SOL    HW238271   4.140   2.376   8.390
 8920SOL     OW38272   3.732   3.188   7.648
 8920SOL    HW138273   3.639   3.209   7.617
 8920SOL    HW238274   3.742   3.089   7.661
 8921SOL     OW38275   3.812   3.663   8.375
 8921SOL    HW138276   3.770   3.577   8.348
 8921SOL    HW238277   3.906   3.666   8.341
 8922SOL     OW38278   4.228   3.430   8.358
 8922SOL    HW138279   4.294   3.504   8.367
 8922SOL    HW238280   4.272   3.351   8.316
 8923SOL     OW38281   4.726   2.658   8.686
 8923SOL    HW138282   4.767   2.626   8.772
 8923SOL    HW238283   4.630   2.631   8.683
 8924SOL     OW38284   3.764   2.406   8.562
 8924SOL    HW138285   3.849   2.373   8.521
 8924SOL    HW238286   3.777   2.421   8.660
 8925SOL     OW38287   3.913   2.382   9.170
 8925SOL    HW138288   3.972   2.342   9.100
 8925SOL    HW238289   3.855   2.453   9.129
 8926SOL     OW38290   4.539   2.434   7.773
 8926SOL    HW138291   4.546   2.345   7.727
 8926SOL    HW238292   4.445   2.468   7.765
 8927SOL     OW38293   3.976   3.426   9.192
 8927SOL    HW138294   3.946   3.483   9.268
 8927SOL    HW238295   3.969   3.329   9.218
 8928SOL     OW38296   4.395   2.326   8.717
 8928SOL    HW138297   4.361   2.237   8.687
 8928SOL    HW238298   4.421   2.380   8.637
 8929SOL     OW38299   4.654   3.540   8.913
 8929SOL    HW138300   4.630   3.522   8.818
 8929SOL    HW238301   4.684   3.634   8.923
 8930SOL     OW38302   4.197   2.362   7.639
 8930SOL    HW138303   4.258   2.442   7.643
 8930SOL    HW238304   4.102   2.393   7.646
 8931SOL     OW38305   3.883   2.999   8.914
 8931SOL    HW138306   3.905   2.938   8.990
 8931SOL    HW238307   3.893   2.950   8.828
 8932SOL     OW38308   3.807   3.120   8.470
 8932SOL    HW138309   3.802   3.119   8.570
 8932SOL    HW238310   3.724   3.079   8.432
 8933SOL     OW38311   4.412   3.524   9.164
 8933SOL    HW138312   4.356   3.605   9.173
 8933SOL    HW238313   4.464   3.528   9.078
 8934SOL     OW38314   3.854   3.656   9.299
 8934SOL    HW138315   3.813   3.582   9.352
 8934SOL    HW238316   3.918   3.707   9.357
 8935SOL     OW38317   5.004   2.789   8.120
 8935SOL    HW138318   5.064   2.708   8.122
 8935SOL    HW238319   5.044   2.858   8.060
 8936SOL     OW38320   4.554   3.135   8.870
 8936SOL    HW138321   4.549   3.168   8.965
 8936SOL    HW238322   4.468   3.154   8.824
 8937SOL     OW38323   4.396   3.478   7.602
 8937SOL    HW138324   4.405   3.488   7.503
 8937SOL    HW238325   4.356   3.389   7.623
 8938SOL     OW38326   3.987   2.188   8.168
 8938SOL    HW138327   3.908   2.239   8.134
 8938SOL    HW238328   3.978   2.173   8.266
 8939SOL     OW38329   4.546   2.864   8.820
 8939SOL    HW138330   4.586   2.863   8.728
 8939SOL    HW238331   4.556   2.956   8.860
 8940SOL     OW38332   4.640   2.772   7.739
 8940SOL    HW138333   4.703   2.810   7.671
 8940SOL    HW238334   4.680   2.689   7.778
 8941SOL     OW38335   4.096   3.150   8.938
 8941SOL    HW138336   4.083   3.243   8.904
 8941SOL    HW238337   4.012   3.098   8.925
 8942SOL     OW38338   4.763   2.960   8.144
 8942SOL    HW138339   4.693   2.913   8.198
 8942SOL    HW238340   4.822   2.892   8.101
 8943SOL     OW38341   4.738   2.098   8.419
 8943SOL    HW138342   4.730   2.062   8.326
 8943SOL    HW238343   4.736   2.022   8.484
 8944SOL     OW38344   4.314   3.349   7.939
 8944SOL    HW138345   4.356   3.291   7.869
 8944SOL    HW238346   4.270   3.428   7.895
 8945SOL     OW38347   3.979   3.210   7.738
 8945SOL    HW138348   3.883   3.211   7.711
 8945SOL    HW238349   3.991   3.263   7.822
 8946SOL     OW38350   3.829   2.875   9.174
 8946SOL    HW138351   3.752   2.842   9.228
 8946SOL    HW238352   3.914   2.845   9.216
 8947SOL     OW38353   4.396   2.065   8.937
 8947SOL    HW138354   4.486   2.049   8.897
 8947SOL    HW238355   4.404   2.070   9.036
 8948SOL     OW38356   3.799   2.207   7.481
 8948SOL    HW138357   3.707   2.179   7.452
 8948SOL    HW238358   3.830   2.284   7.425
 8949SOL     OW38359   3.796   2.028   7.766
 8949SOL    HW138360   3.779   2.111   7.712
 8949SOL    HW238361   3.886   1.991   7.744
 8950SOL     OW38362   4.337   2.704   8.879
 8950SOL    HW138363   4.393   2.785   8.862
 8950SOL    HW238364   4.396   2.624   8.882
 8951SOL     OW38365   4.440   2.427   9.156
 8951SOL    HW138366   4.459   2.492   9.230
 8951SOL    HW238367   4.500   2.347   9.165
 8952SOL     OW38368   4.114   3.603   9.008
 8952SOL    HW138369   4.023   3.644   9.006
 8952SOL    HW238370   4.107   3.509   9.040
 8953SOL     OW38371   4.949   2.187   7.897
 8953SOL    HW138372   5.014   2.113   7.886
 8953SOL    HW238373   4.969   2.237   7.981
 8954SOL     OW38374   4.318   2.607   8.100
 8954SOL    HW138375   4.368   2.692   8.081
 8954SOL    HW238376   4.230   2.609   8.052
 8955SOL     OW38377   4.583   3.236   7.464
 8955SOL    HW138378   4.537   3.251   7.552
 8955SOL    HW238379   4.627   3.321   7.434
 8956SOL     OW38380   4.385   3.652   8.401
 8956SOL    HW138381   4.339   3.740   8.388
 8956SOL    HW238382   4.484   3.664   8.394
 8957SOL     OW38383   4.583   2.818   8.309
 8957SOL    HW138384   4.637   2.749   8.357
 8957SOL    HW238385   4.551   2.887   8.375
 8958SOL     OW38386   3.945   3.176   9.292
 8958SOL    HW138387   3.880   3.103   9.271
 8958SOL    HW238388   3.949   3.190   9.390
 8959SOL     OW38389   3.803   3.102   8.101
 8959SOL    HW138390   3.802   3.055   8.189
 8959SOL    HW238391   3.885   3.074   8.050
 8960SOL     OW38392   4.396   3.253   9.072
 8960SOL    HW138393   4.318   3.203   9.110
 8960SOL    HW238394   4.393   3.348   9.103
 8961SOL     OW38395   4.152   2.286   7.968
 8961SOL    HW138396   4.182   2.214   7.906
 8961SOL    HW238397   4.113   2.246   8.051
 8962SOL     OW38398   4.041   2.409   8.728
 8962SOL    HW138399   4.079   2.350   8.800
 8962SOL    HW238400   4.081   2.383   8.640
 8963SOL     OW38401   4.536   3.448   8.135
 8963SOL    HW138402   4.568   3.458   8.041
 8963SOL    HW238403   4.457   3.386   8.137
 8964SOL     OW38404   4.725   1.896   8.602
 8964SOL    HW138405   4.662   1.824   8.571
 8964SOL    HW238406   4.818   1.860   8.602
 8965SOL     OW38407   4.494   3.192   7.749
 8965SOL    HW138408   4.448   3.105   7.766
 8965SOL    HW238409   4.585   3.189   7.790
 8966SOL     OW38410   4.342   3.429   8.732
 8966SOL    HW138411   4.337   3.511   8.789
 8966SOL    HW238412   4.431   3.426   8.687
 8967SOL     OW38413   3.763   2.939   7.748
 8967SOL    HW138414   3.862   2.928   7.739
 8967SOL    HW238415   3.723   2.853   7.780
 8968SOL     OW38416   4.599   3.508   7.785
 8968SOL    HW138417   4.522   3.473   7.731
 8968SOL    HW238418   4.567   3.579   7.847
 8969SOL     OW38419   3.954   2.490   9.423
 8969SOL    HW138420   3.861   2.488   9.460
 8969SOL    HW238421   3.955   2.451   9.331
 8970SOL     OW38422   3.743   2.230   9.957
 8970SOL    HW138423   3.661   2.273   9.996
 8970SOL    HW238424   3.715   2.157   9.894
 8971SOL     OW38425   4.574   2.660  11.133
 8971SOL    HW138426   4.570   2.736  11.198
 8971SOL    HW238427   4.596   2.696  11.042
 8972SOL     OW38428   4.410   3.023  11.113
 8972SOL    HW138429   4.470   3.102  11.127
 8972SOL    HW238430   4.324   3.054  11.072
 8973SOL     OW38431   4.162   2.254  10.809
 8973SOL    HW138432   4.244   2.198  10.818
 8973SOL    HW238433   4.081   2.196  10.813
 8974SOL     OW38434   3.954   3.296   9.848
 8974SOL    HW138435   3.928   3.392   9.848
 8974SOL    HW238436   3.883   3.242   9.893
 8975SOL     OW38437   4.344   3.648  10.749
 8975SOL    HW138438   4.252   3.631  10.784
 8975SOL    HW238439   4.372   3.740  10.775
 8976SOL     OW38440   4.330   2.826   9.433
 8976SOL    HW138441   4.337   2.910   9.379
 8976SOL    HW238442   4.376   2.839   9.521
 8977SOL     OW38443   3.846   2.505   9.873
 8977SOL    HW138444   3.801   2.417   9.890
 8977SOL    HW238445   3.845   2.559   9.957
 8978SOL     OW38446   3.751   3.458   9.427
 8978SOL    HW138447   3.732   3.362   9.448
 8978SOL    HW238448   3.718   3.516   9.502
 8979SOL     OW38449   3.837   2.599  10.907
 8979SOL    HW138450   3.925   2.586  10.952
 8979SOL    HW238451   3.824   2.696  10.885
 8980SOL     OW38452   4.533   1.866   9.812
 8980SOL    HW138453   4.573   1.957   9.803
 8980SOL    HW238454   4.433   1.874   9.818
 8981SOL     OW38455   4.322   2.591   9.580
 8981SOL    HW138456   4.346   2.660   9.512
 8981SOL    HW238457   4.244   2.624   9.634
 8982SOL     OW38458   4.697   2.752  10.882
 8982SOL    HW138459   4.743   2.668  10.853
 8982SOL    HW238460   4.641   2.786  10.807
 8983SOL     OW38461   3.800   2.673  10.099
 8983SOL    HW138462   3.899   2.661  10.108
 8983SOL    HW238463   3.776   2.768  10.120
 8984SOL     OW38464   3.854   3.683  10.881
 8984SOL    HW138465   3.844   3.668  10.980
 8984SOL    HW238466   3.768   3.719  10.845
 8985SOL     OW38467   4.589   2.210   9.505
 8985SOL    HW138468   4.648   2.273   9.456
 8985SOL    HW238469   4.608   2.116   9.476
 8986SOL     OW38470   4.274   2.058  10.195
 8986SOL    HW138471   4.269   2.053  10.295
 8986SOL    HW238472   4.276   2.154  10.166
 8987SOL     OW38473   4.045   2.805   9.552
 8987SOL    HW138474   4.127   2.844   9.510
 8987SOL    HW238475   4.018   2.723   9.503
 8988SOL     OW38476   3.926   2.147  10.808
 8988SOL    HW138477   3.846   2.207  10.795
 8988SOL    HW238478   3.916   2.098  10.894
 8989SOL     OW38479   3.973   3.647  10.551
 8989SOL    HW138480   4.030   3.582  10.601
 8989SOL    HW238481   3.957   3.614  10.458
 8990SOL     OW38482   4.106   2.562   9.790
 8990SOL    HW138483   4.151   2.472   9.787
 8990SOL    HW238484   4.012   2.551   9.823
 8991SOL     OW38485   4.338   1.984   9.427
 8991SOL    HW138486   4.436   1.962   9.434
 8991SOL    HW238487   4.307   1.967   9.334
 8992SOL     OW38488   4.612   3.376  10.505
 8992SOL    HW138489   4.589   3.351  10.411
 8992SOL    HW238490   4.673   3.307  10.544
 8993SOL     OW38491   4.263   1.926   9.822
 8993SOL    HW138492   4.182   1.927   9.880
 8993SOL    HW238493   4.266   2.009   9.767
 8994SOL     OW38494   4.021   1.897   9.481
 8994SOL    HW138495   4.070   1.981   9.460
 8994SOL    HW238496   4.083   1.832   9.526
 8995SOL     OW38497   4.659   2.098   9.790
 8995SOL    HW138498   4.611   2.139   9.712
 8995SOL    HW238499   4.758   2.096   9.771
 8996SOL     OW38500   4.951   3.432  10.103
 8996SOL    HW138501   4.972   3.506  10.038
 8996SOL    HW238502   5.019   3.432  10.176
 8997SOL     OW38503   4.756   2.411   9.326
 8997SOL    HW138504   4.715   2.493   9.287
 8997SOL    HW238505   4.820   2.437   9.399
 8998SOL     OW38506   3.802   2.418  10.696
 8998SOL    HW138507   3.894   2.417  10.655
 8998SOL    HW238508   3.796   2.492  10.763
 8999SOL     OW38509   4.590   2.316   9.952
 8999SOL    HW138510   4.558   2.388   9.890
 8999SOL    HW238511   4.614   2.235   9.899
 9000SOL     OW38512   4.741   1.901  10.063
 9000SOL    HW138513   4.669   1.906   9.994
 9000SOL    HW238514   4.717   1.832  10.132
 9001SOL     OW38515   4.212   3.247   9.484
 9001SOL    HW138516   4.125   3.232   9.531
 9001SOL    HW238517   4.195   3.273   9.389
 9002SOL     OW38518   4.251   2.118   9.638
 9002SOL    HW138519   4.278   2.059   9.563
 9002SOL    HW238520   4.251   2.213   9.607
 9003SOL     OW38521   4.429   2.912   9.678
 9003SOL    HW138522   4.415   2.919   9.777
 9003SOL    HW238523   4.513   2.861   9.660
 9004SOL     OW38524   4.134   2.675  10.561
 9004SOL    HW138525   4.220   2.687  10.611
 9004SOL    HW238526   4.092   2.588  10.588
 9005SOL     OW38527   4.091   2.962   9.811
 9005SOL    HW138528   4.084   3.045   9.755
 9005SOL    HW238529   4.095   2.882   9.751
 9006SOL     OW38530   4.290   2.399  10.175
 9006SOL    HW138531   4.302   2.465  10.101
 9006SOL    HW238532   4.336   2.433  10.258
 9007SOL     OW38533   4.297   2.732  10.339
 9007SOL    HW138534   4.341   2.821  10.330
 9007SOL    HW238535   4.234   2.732  10.416
 9008SOL     OW38536   4.933   2.387   9.585
 9008SOL    HW138537   4.946   2.303   9.639
 9008SOL    HW238538   4.904   2.461   9.645
 9009SOL     OW38539   4.456   2.496  10.374
 9009SOL    HW138540   4.515   2.470  10.298
 9009SOL    HW238541   4.428   2.592  10.363
 9010SOL     OW38542   4.031   1.925   9.928
 9010SOL    HW138543   4.020   2.019   9.961
 9010SOL    HW238544   4.026   1.862  10.005
 9011SOL     OW38545   3.732   3.188   9.510
 9011SOL    HW138546   3.639   3.209   9.479
 9011SOL    HW238547   3.742   3.089   9.523
 9012SOL     OW38548   3.913   2.382  11.032
 9012SOL    HW138549   3.972   2.342  10.962
 9012SOL    HW238550   3.855   2.453  10.991
 9013SOL     OW38551   4.539   2.434   9.635
 9013SOL    HW138552   4.546   2.345   9.589
 9013SOL    HW238553   4.445   2.468   9.627
 9014SOL     OW38554   4.395   2.326  10.579
 9014SOL    HW138555   4.361   2.237  10.549
 9014SOL    HW238556   4.421   2.380  10.499
 9015SOL     OW38557   4.654   3.540  10.775
 9015SOL    HW138558   4.630   3.522  10.680
 9015SOL    HW238559   4.684   3.634  10.785
 9016SOL     OW38560   4.197   2.362   9.501
 9016SOL    HW138561   4.258   2.442   9.505
 9016SOL    HW238562   4.102   2.393   9.508
 9017SOL     OW38563   4.554   3.135  10.732
 9017SOL    HW138564   4.549   3.168  10.827
 9017SOL    HW238565   4.468   3.154  10.686
 9018SOL     OW38566   4.396   3.478   9.464
 9018SOL    HW138567   4.405   3.488   9.365
 9018SOL    HW238568   4.356   3.389   9.485
 9019SOL     OW38569   4.640   2.772   9.601
 9019SOL    HW138570   4.703   2.810   9.533
 9019SOL    HW238571   4.680   2.689   9.640
 9020SOL     OW38572   4.738   2.098  10.281
 9020SOL    HW138573   4.730   2.062  10.188
 9020SOL    HW238574   4.736   2.022  10.346
 9021SOL     OW38575   3.979   3.210   9.600
 9021SOL    HW138576   3.883   3.211   9.573
 9021SOL    HW238577   3.991   3.263   9.684
 9022SOL     OW38578   3.799   2.207   9.343
 9022SOL    HW138579   3.707   2.179   9.314
 9022SOL    HW238580   3.830   2.284   9.287
 9023SOL     OW38581   3.796   2.028   9.628
 9023SOL    HW138582   3.779   2.111   9.574
 9023SOL    HW238583   3.886   1.991   9.606
 9024SOL     OW38584   4.949   2.187   9.759
 9024SOL    HW138585   5.014   2.113   9.748
 9024SOL    HW238586   4.969   2.237   9.843
 9025SOL     OW38587   4.318   2.607   9.962
 9025SOL    HW138588   4.368   2.692   9.943
 9025SOL    HW238589   4.230   2.609   9.914
 9026SOL     OW38590   4.583   3.236   9.326
 9026SOL    HW138591   4.537   3.251   9.414
 9026SOL    HW238592   4.627   3.321   9.296
 9027SOL     OW38593   4.152   2.286   9.830
 9027SOL    HW138594   4.182   2.214   9.768
 9027SOL    HW238595   4.113   2.246   9.913
 9028SOL     OW38596   4.494   3.192   9.611
 9028SOL    HW138597   4.448   3.105   9.628
 9028SOL    HW238598   4.585   3.189   9.652
 9029SOL     OW38599   4.342   3.429  10.594
 9029SOL    HW138600   4.337   3.511  10.651
 9029SOL    HW238601   4.431   3.426  10.549
 9030SOL     OW38602   3.763   2.939   9.610
 9030SOL    HW138603   3.862   2.928   9.601
 9030SOL    HW238604   3.723   2.853   9.642
 9031SOL     OW38605   3.954   2.490  11.285
 9031SOL    HW138606   3.861   2.488  11.322
 9031SOL    HW238607   3.955   2.451  11.193
 9032SOL     OW38608   3.954   3.296  11.710
 9032SOL    HW138609   3.928   3.392  11.710
 9032SOL    HW238610   3.883   3.242  11.755
 9033SOL     OW38611   3.964   2.953  12.058
 9033SOL    HW138612   3.978   2.869  12.110
 9033SOL    HW238613   3.909   3.017  12.113
 9034SOL     OW38614   4.344   3.648  12.611
 9034SOL    HW138615   4.252   3.631  12.646
 9034SOL    HW238616   4.372   3.740  12.637
 9035SOL     OW38617   3.837   2.599  12.769
 9035SOL    HW138618   3.925   2.586  12.814
 9035SOL    HW238619   3.824   2.696  12.747
 9036SOL     OW38620   3.921   2.838  12.436
 9036SOL    HW138621   4.010   2.793  12.422
 9036SOL    HW238622   3.848   2.773  12.417
 9037SOL     OW38623   3.800   2.673  11.961
 9037SOL    HW138624   3.899   2.661  11.970
 9037SOL    HW238625   3.776   2.768  11.982
 9038SOL     OW38626   3.854   3.683  12.743
 9038SOL    HW138627   3.844   3.668  12.842
 9038SOL    HW238628   3.768   3.719  12.707
 9039SOL     OW38629   4.274   2.058  12.057
 9039SOL    HW138630   4.269   2.053  12.157
 9039SOL    HW238631   4.276   2.154  12.028
 9040SOL     OW38632   4.106   2.562  11.652
 9040SOL    HW138633   4.151   2.472  11.649
 9040SOL    HW238634   4.012   2.551  11.685
 9041SOL     OW38635   4.183   3.014  11.913
 9041SOL    HW138636   4.112   2.987  11.978
 9041SOL    HW238637   4.157   2.986  11.820
 9042SOL     OW38638   4.285   2.084  12.319
 9042SOL    HW138639   4.323   2.000  12.356
 9042SOL    HW238640   4.197   2.103  12.363
 9043SOL     OW38641   4.590   2.316  11.814
 9043SOL    HW138642   4.558   2.388  11.752
 9043SOL    HW238643   4.614   2.235  11.761
 9044SOL     OW38644   4.741   1.901  11.925
 9044SOL    HW138645   4.669   1.906  11.856
 9044SOL    HW238646   4.717   1.832  11.994
 9045SOL     OW38647   4.639   1.951  12.574
 9045SOL    HW138648   4.664   1.931  12.479
 9045SOL    HW238649   4.711   2.007  12.616
 9046SOL     OW38650   4.134   2.675  12.423
 9046SOL    HW138651   4.220   2.687  12.473
 9046SOL    HW238652   4.092   2.588  12.450
 9047SOL     OW38653   3.788   3.426  12.503
 9047SOL    HW138654   3.742   3.508  12.469
 9047SOL    HW238655   3.886   3.445  12.512
 9048SOL     OW38656   4.290   2.399  12.037
 9048SOL    HW138657   4.302   2.465  11.963
 9048SOL    HW238658   4.336   2.433  12.120
 9049SOL     OW38659   4.078   3.372  12.501
 9049SOL    HW138660   4.057   3.328  12.414
 9049SOL    HW238661   4.175   3.398  12.504
 9050SOL     OW38662   4.297   2.732  12.201
 9050SOL    HW138663   4.341   2.821  12.192
 9050SOL    HW238664   4.234   2.732  12.278
 9051SOL     OW38665   3.761   3.172  12.454
 9051SOL    HW138666   3.814   3.123  12.522
 9051SOL    HW238667   3.783   3.270  12.459
 9052SOL     OW38668   4.456   2.496  12.236
 9052SOL    HW138669   4.515   2.470  12.160
 9052SOL    HW238670   4.428   2.592  12.225
 9053SOL     OW38671   4.043   2.672  12.121
 9053SOL    HW138672   4.136   2.708  12.126
 9053SOL    HW238673   4.037   2.587  12.173
 9054SOL     OW38674   4.063   2.371  12.178
 9054SOL    HW138675   4.011   2.288  12.161
 9054SOL    HW238676   4.140   2.376  12.114
 9055SOL     OW38677   3.764   2.406  12.286
 9055SOL    HW138678   3.849   2.373  12.245
 9055SOL    HW238679   3.777   2.421  12.384
 9056SOL     OW38680   3.913   2.382  12.894
 9056SOL    HW138681   3.972   2.342  12.824
 9056SOL    HW238682   3.855   2.453  12.853
 9057SOL     OW38683   3.883   2.999  12.638
 9057SOL    HW138684   3.905   2.938  12.714
 9057SOL    HW238685   3.893   2.950  12.552
 9058SOL     OW38686   3.807   3.120  12.194
 9058SOL    HW138687   3.802   3.119  12.294
 9058SOL    HW238688   3.724   3.079  12.156
 9059SOL     OW38689   5.004   2.789  11.844
 9059SOL    HW138690   5.064   2.708  11.846
 9059SOL    HW238691   5.044   2.858  11.784
 9060SOL     OW38692   4.396   3.478  11.326
 9060SOL    HW138693   4.405   3.488  11.227
 9060SOL    HW238694   4.356   3.389  11.347
 9061SOL     OW38695   4.763   2.960  11.868
 9061SOL    HW138696   4.693   2.913  11.922
 9061SOL    HW238697   4.822   2.892  11.825
 9062SOL     OW38698   4.738   2.098  12.143
 9062SOL    HW138699   4.730   2.062  12.050
 9062SOL    HW238700   4.736   2.022  12.208
 9063SOL     OW38701   4.396   2.065  12.661
 9063SOL    HW138702   4.486   2.049  12.621
 9063SOL    HW238703   4.404   2.070  12.760
 9064SOL     OW38704   3.799   2.207  11.205
 9064SOL    HW138705   3.707   2.179  11.176
 9064SOL    HW238706   3.830   2.284  11.149
 9065SOL     OW38707   4.114   3.603  12.732
 9065SOL    HW138708   4.023   3.644  12.730
 9065SOL    HW238709   4.107   3.509  12.764
 9066SOL     OW38710   4.318   2.607  11.824
 9066SOL    HW138711   4.368   2.692  11.805
 9066SOL    HW238712   4.230   2.609  11.776
 9067SOL     OW38713   3.803   3.102  11.825
 9067SOL    HW138714   3.802   3.055  11.913
 9067SOL    HW238715   3.885   3.074  11.774
 9068SOL     OW38716   4.725   1.896  12.326
 9068SOL    HW138717   4.662   1.824  12.295
 9068SOL    HW238718   4.818   1.860  12.326
 9069SOL     OW38719   4.494   3.192  11.473
 9069SOL    HW138720   4.448   3.105  11.490
 9069SOL    HW238721   4.585   3.189  11.514
 9070SOL     OW38722   3.954   2.490  13.147
 9070SOL    HW138723   3.861   2.488  13.184
 9070SOL    HW238724   3.955   2.451  13.055
 9071SOL     OW38725   3.949   2.137  14.030
 9071SOL    HW138726   3.984   2.120  14.122
 9071SOL    HW238727   3.861   2.092  14.018
 9072SOL     OW38728   4.293   3.137  14.199
 9072SOL    HW138729   4.200   3.130  14.162
 9072SOL    HW238730   4.304   3.226  14.243
 9073SOL     OW38731   4.059   3.297  14.095
 9073SOL    HW138732   3.981   3.266  14.042
 9073SOL    HW238733   4.117   3.355  14.038
 9074SOL     OW38734   4.162   2.254  14.533
 9074SOL    HW138735   4.244   2.198  14.542
 9074SOL    HW238736   4.081   2.196  14.537
 9075SOL     OW38737   4.337   3.227  13.760
 9075SOL    HW138738   4.288   3.140  13.769
 9075SOL    HW238739   4.314   3.270  13.673
 9076SOL     OW38740   4.041   2.113  14.835
 9076SOL    HW138741   4.112   2.184  14.841
 9076SOL    HW238742   3.953   2.152  14.863
 9077SOL     OW38743   4.263   1.926  13.546
 9077SOL    HW138744   4.182   1.927  13.604
 9077SOL    HW238745   4.266   2.009  13.491
 9078SOL     OW38746   4.183   3.014  13.775
 9078SOL    HW138747   4.112   2.987  13.840
 9078SOL    HW238748   4.157   2.986  13.682
 9079SOL     OW38749   4.590   2.316  13.676
 9079SOL    HW138750   4.558   2.388  13.614
 9079SOL    HW238751   4.614   2.235  13.623
 9080SOL     OW38752   4.134   2.675  14.285
 9080SOL    HW138753   4.220   2.687  14.335
 9080SOL    HW238754   4.092   2.588  14.312
 9081SOL     OW38755   4.933   2.387  13.309
 9081SOL    HW138756   4.946   2.303  13.363
 9081SOL    HW238757   4.904   2.461  13.369
 9082SOL     OW38758   4.704   3.435  14.734
 9082SOL    HW138759   4.684   3.479  14.646
 9082SOL    HW238760   4.743   3.344  14.718
 9083SOL     OW38761   4.043   2.672  13.983
 9083SOL    HW138762   4.136   2.708  13.988
 9083SOL    HW238763   4.037   2.587  14.035
 9084SOL     OW38764   3.812   3.663  13.961
 9084SOL    HW138765   3.770   3.577  13.934
 9084SOL    HW238766   3.906   3.666  13.927
 9085SOL     OW38767   4.539   2.434  13.359
 9085SOL    HW138768   4.546   2.345  13.313
 9085SOL    HW238769   4.445   2.468  13.351
 9086SOL     OW38770   3.976   3.426  14.778
 9086SOL    HW138771   3.946   3.483  14.854
 9086SOL    HW238772   3.969   3.329  14.804
 9087SOL     OW38773   4.654   3.540  14.499
 9087SOL    HW138774   4.630   3.522  14.404
 9087SOL    HW238775   4.684   3.634  14.509
 9088SOL     OW38776   4.197   2.362  13.225
 9088SOL    HW138777   4.258   2.442  13.229
 9088SOL    HW238778   4.102   2.393  13.232
 9089SOL     OW38779   4.412   3.524  14.750
 9089SOL    HW138780   4.356   3.605  14.759
 9089SOL    HW238781   4.464   3.528  14.664
 9090SOL     OW38782   3.854   3.656  14.885
 9090SOL    HW138783   3.813   3.582  14.938
 9090SOL    HW238784   3.918   3.707  14.943
 9091SOL     OW38785   4.096   3.150  14.524
 9091SOL    HW138786   4.083   3.243  14.490
 9091SOL    HW238787   4.012   3.098  14.511
 9092SOL     OW38788   4.738   2.098  14.005
 9092SOL    HW138789   4.730   2.062  13.912
 9092SOL    HW238790   4.736   2.022  14.070
 9093SOL     OW38791   4.396   2.065  14.523
 9093SOL    HW138792   4.486   2.049  14.483
 9093SOL    HW238793   4.404   2.070  14.622
 9094SOL     OW38794   4.536   3.448  13.721
 9094SOL    HW138795   4.568   3.458  13.627
 9094SOL    HW238796   4.457   3.386  13.723
 9095SOL     OW38797   4.725   1.896  14.188
 9095SOL    HW138798   4.662   1.824  14.157
 9095SOL    HW238799   4.818   1.860  14.188
 9096SOL     OW38800   4.599   3.508  13.371
 9096SOL    HW138801   4.522   3.473  13.317
 9096SOL    HW238802   4.567   3.579  13.433
 9097SOL     OW38803   3.954   2.490  15.009
 9097SOL    HW138804   3.861   2.488  15.046
 9097SOL    HW238805   3.955   2.451  14.917
 9098SOL     OW38806   4.492   3.006  15.920
 9098SOL    HW138807   4.414   3.023  15.980
 9098SOL    HW238808   4.526   3.093  15.884
 9099SOL     OW38809   3.954   3.296  15.434
 9099SOL    HW138810   3.928   3.392  15.434
 9099SOL    HW238811   3.883   3.242  15.479
 9100SOL     OW38812   4.344   3.648  16.336
 9100SOL    HW138813   4.252   3.631  16.371
 9100SOL    HW238814   4.372   3.740  16.362
 9101SOL     OW38815   3.751   3.458  15.013
 9101SOL    HW138816   3.732   3.362  15.034
 9101SOL    HW238817   3.718   3.516  15.088
 9102SOL     OW38818   4.041   2.113  16.698
 9102SOL    HW138819   4.112   2.184  16.704
 9102SOL    HW238820   3.953   2.152  16.726
 9103SOL     OW38821   4.322   2.591  15.166
 9103SOL    HW138822   4.346   2.660  15.098
 9103SOL    HW238823   4.244   2.624  15.220
 9104SOL     OW38824   4.697   2.752  16.469
 9104SOL    HW138825   4.743   2.668  16.440
 9104SOL    HW238826   4.641   2.786  16.394
 9105SOL     OW38827   4.274   2.058  15.781
 9105SOL    HW138828   4.269   2.053  15.881
 9105SOL    HW238829   4.276   2.154  15.752
 9106SOL     OW38830   4.045   2.805  15.138
 9106SOL    HW138831   4.127   2.844  15.096
 9106SOL    HW238832   4.018   2.723  15.089
 9107SOL     OW38833   4.188   3.605  15.219
 9107SOL    HW138834   4.221   3.644  15.305
 9107SOL    HW238835   4.264   3.598  15.154
 9108SOL     OW38836   3.973   3.647  16.138
 9108SOL    HW138837   4.030   3.582  16.188
 9108SOL    HW238838   3.957   3.614  16.045
 9109SOL     OW38839   4.183   3.014  15.637
 9109SOL    HW138840   4.112   2.987  15.702
 9109SOL    HW238841   4.157   2.986  15.544
 9110SOL     OW38842   4.212   3.247  15.070
 9110SOL    HW138843   4.125   3.232  15.117
 9110SOL    HW238844   4.195   3.273  14.975
 9111SOL     OW38845   4.639   1.951  16.299
 9111SOL    HW138846   4.664   1.931  16.204
 9111SOL    HW238847   4.711   2.007  16.341
 9112SOL     OW38848   4.704   2.978  16.616
 9112SOL    HW138849   4.605   2.984  16.626
 9112SOL    HW238850   4.727   2.898  16.560
 9113SOL     OW38851   4.091   2.962  15.397
 9113SOL    HW138852   4.084   3.045  15.341
 9113SOL    HW238853   4.095   2.882  15.337
 9114SOL     OW38854   4.078   3.372  16.226
 9114SOL    HW138855   4.057   3.328  16.139
 9114SOL    HW238856   4.175   3.398  16.229
 9115SOL     OW38857   4.126   2.613  16.495
 9115SOL    HW138858   4.194   2.668  16.448
 9115SOL    HW238859   4.166   2.525  16.522
 9116SOL     OW38860   4.228   1.912  16.637
 9116SOL    HW138861   4.186   1.855  16.567
 9116SOL    HW238862   4.162   1.981  16.669
 9117SOL     OW38863   4.933   2.387  15.171
 9117SOL    HW138864   4.946   2.303  15.225
 9117SOL    HW238865   4.904   2.461  15.231
 9118SOL     OW38866   4.747   2.628  15.863
 9118SOL    HW138867   4.762   2.649  15.959
 9118SOL    HW238868   4.717   2.533  15.854
 9119SOL     OW38869   4.704   3.435  16.597
 9119SOL    HW138870   4.684   3.479  16.509
 9119SOL    HW238871   4.743   3.344  16.581
 9120SOL     OW38872   4.726   2.658  16.135
 9120SOL    HW138873   4.767   2.626  16.221
 9120SOL    HW238874   4.630   2.631  16.132
 9121SOL     OW38875   3.883   2.999  16.363
 9121SOL    HW138876   3.905   2.938  16.439
 9121SOL    HW238877   3.893   2.950  16.277
 9122SOL     OW38878   4.412   3.524  16.613
 9122SOL    HW138879   4.356   3.605  16.622
 9122SOL    HW238880   4.464   3.528  16.527
 9123SOL     OW38881   3.854   3.656  16.748
 9123SOL    HW138882   3.813   3.582  16.801
 9123SOL    HW238883   3.918   3.707  16.806
 9124SOL     OW38884   5.004   2.789  15.568
 9124SOL    HW138885   5.064   2.708  15.570
 9124SOL    HW238886   5.044   2.858  15.508
 9125SOL     OW38887   4.554   3.135  16.319
 9125SOL    HW138888   4.549   3.168  16.414
 9125SOL    HW238889   4.468   3.154  16.273
 9126SOL     OW38890   4.396   3.478  15.050
 9126SOL    HW138891   4.405   3.488  14.951
 9126SOL    HW238892   4.356   3.389  15.071
 9127SOL     OW38893   3.987   2.188  15.616
 9127SOL    HW138894   3.908   2.239  15.582
 9127SOL    HW238895   3.978   2.173  15.714
 9128SOL     OW38896   4.546   2.864  16.269
 9128SOL    HW138897   4.586   2.863  16.177
 9128SOL    HW238898   4.556   2.956  16.309
 9129SOL     OW38899   4.096   3.150  16.387
 9129SOL    HW138900   4.083   3.243  16.353
 9129SOL    HW238901   4.012   3.098  16.374
 9130SOL     OW38902   4.763   2.960  15.592
 9130SOL    HW138903   4.693   2.913  15.646
 9130SOL    HW238904   4.822   2.892  15.549
 9131SOL     OW38905   4.314   3.349  15.387
 9131SOL    HW138906   4.356   3.291  15.317
 9131SOL    HW238907   4.270   3.428  15.343
 9132SOL     OW38908   3.979   3.210  15.186
 9132SOL    HW138909   3.883   3.211  15.159
 9132SOL    HW238910   3.991   3.263  15.270
 9133SOL     OW38911   4.337   2.704  16.328
 9133SOL    HW138912   4.393   2.785  16.311
 9133SOL    HW238913   4.396   2.624  16.331
 9134SOL     OW38914   4.440   2.427  16.605
 9134SOL    HW138915   4.459   2.492  16.679
 9134SOL    HW238916   4.500   2.347  16.614
 9135SOL     OW38917   4.949   2.187  15.345
 9135SOL    HW138918   5.014   2.113  15.334
 9135SOL    HW238919   4.969   2.237  15.429
 9136SOL     OW38920   4.583   2.818  15.757
 9136SOL    HW138921   4.637   2.749  15.805
 9136SOL    HW238922   4.551   2.887  15.823
 9137SOL     OW38923   3.803   3.102  15.549
 9137SOL    HW138924   3.802   3.055  15.637
 9137SOL    HW238925   3.885   3.074  15.498
 9138SOL     OW38926   4.396   3.253  16.521
 9138SOL    HW138927   4.318   3.203  16.559
 9138SOL    HW238928   4.393   3.348  16.552
 9139SOL     OW38929   3.954   2.490  16.872
 9139SOL    HW138930   3.861   2.488  16.909
 9139SOL    HW238931   3.955   2.451  16.780
 9140SOL     OW38932   4.293   3.137  17.924
 9140SOL    HW138933   4.200   3.130  17.887
 9140SOL    HW238934   4.304   3.226  17.968
 9141SOL     OW38935   3.955   3.575  17.242
 9141SOL    HW138936   3.989   3.652  17.296
 9141SOL    HW238937   3.999   3.575  17.152
 9142SOL     OW38938   3.846   2.505  17.322
 9142SOL    HW138939   3.801   2.417  17.339
 9142SOL    HW238940   3.845   2.559  17.406
 9143SOL     OW38941   3.751   3.458  16.876
 9143SOL    HW138942   3.732   3.362  16.897
 9143SOL    HW238943   3.718   3.516  16.951
 9144SOL     OW38944   4.533   1.866  17.261
 9144SOL    HW138945   4.573   1.957  17.252
 9144SOL    HW238946   4.433   1.874  17.267
 9145SOL     OW38947   4.075   3.663  17.612
 9145SOL    HW138948   4.125   3.577  17.618
 9145SOL    HW238949   4.140   3.740  17.609
 9146SOL     OW38950   4.045   2.805  17.001
 9146SOL    HW138951   4.127   2.844  16.959
 9146SOL    HW238952   4.018   2.723  16.952
 9147SOL     OW38953   4.188   3.605  17.082
 9147SOL    HW138954   4.221   3.644  17.168
 9147SOL    HW238955   4.264   3.598  17.017
 9148SOL     OW38956   3.973   3.647  18.000
 9148SOL    HW138957   4.030   3.582  18.050
 9148SOL    HW238958   3.957   3.614  17.907
 9149SOL     OW38959   4.338   1.984  16.876
 9149SOL    HW138960   4.436   1.962  16.883
 9149SOL    HW238961   4.307   1.967  16.783
 9150SOL     OW38962   4.646   2.365  17.658
 9150SOL    HW138963   4.621   2.356  17.562
 9150SOL    HW238964   4.694   2.283  17.689
 9151SOL     OW38965   4.021   1.897  16.930
 9151SOL    HW138966   4.070   1.981  16.909
 9151SOL    HW238967   4.083   1.832  16.975
 9152SOL     OW38968   4.659   2.098  17.239
 9152SOL    HW138969   4.611   2.139  17.161
 9152SOL    HW238970   4.758   2.096  17.220
 9153SOL     OW38971   4.756   2.411  16.775
 9153SOL    HW138972   4.715   2.493  16.736
 9153SOL    HW238973   4.820   2.437  16.848
 9154SOL     OW38974   4.590   2.316  17.401
 9154SOL    HW138975   4.558   2.388  17.339
 9154SOL    HW238976   4.614   2.235  17.348
 9155SOL     OW38977   4.741   1.901  17.512
 9155SOL    HW138978   4.669   1.906  17.443
 9155SOL    HW238979   4.717   1.832  17.581
 9156SOL     OW38980   4.290   2.399  17.624
 9156SOL    HW138981   4.302   2.465  17.550
 9156SOL    HW238982   4.336   2.433  17.707
 9157SOL     OW38983   4.297   2.732  17.788
 9157SOL    HW138984   4.341   2.821  17.779
 9157SOL    HW238985   4.234   2.732  17.865
 9158SOL     OW38986   4.933   2.387  17.034
 9158SOL    HW138987   4.946   2.303  17.088
 9158SOL    HW238988   4.904   2.461  17.094
 9159SOL     OW38989   4.031   2.075  17.990
 9159SOL    HW138990   4.008   2.112  18.080
 9159SOL    HW238991   4.001   1.980  17.984
 9160SOL     OW38992   4.043   2.672  17.708
 9160SOL    HW138993   4.136   2.708  17.713
 9160SOL    HW238994   4.037   2.587  17.760
 9161SOL     OW38995   4.396   3.478  16.913
 9161SOL    HW138996   4.405   3.488  16.814
 9161SOL    HW238997   4.356   3.389  16.934
 9162SOL     OW38998   4.546   2.864  18.131
 9162SOL    HW138999   4.586   2.863  18.039
 9162SOL    HW239000   4.556   2.956  18.171
 9163SOL     OW39001   4.314   3.349  17.250
 9163SOL    HW139002   4.356   3.291  17.180
 9163SOL    HW239003   4.270   3.428  17.206
 9164SOL     OW39004   3.799   2.207  16.792
 9164SOL    HW139005   3.707   2.179  16.763
 9164SOL    HW239006   3.830   2.284  16.736
 9165SOL     OW39007   3.796   2.028  17.077
 9165SOL    HW139008   3.779   2.111  17.023
 9165SOL    HW239009   3.886   1.991  17.055
 9166SOL     OW39010   4.949   2.187  17.208
 9166SOL    HW139011   5.014   2.113  17.197
 9166SOL    HW239012   4.969   2.237  17.292
 9167SOL     OW39013   4.583   3.236  16.775
 9167SOL    HW139014   4.537   3.251  16.863
 9167SOL    HW239015   4.627   3.321  16.745
 9168SOL     OW39016   4.385   3.652  17.712
 9168SOL    HW139017   4.339   3.740  17.699
 9168SOL    HW239018   4.484   3.664  17.705
 9169SOL     OW39019   3.763   2.939  17.059
 9169SOL    HW139020   3.862   2.928  17.050
 9169SOL    HW239021   3.723   2.853  17.091
 9170SOL     OW39022   3.954   4.352   0.113
 9170SOL    HW139023   3.861   4.350   0.150
 9170SOL    HW239024   3.955   4.313   0.021
 9171SOL     OW39025   3.949   3.999   0.996
 9171SOL    HW139026   3.984   3.982   1.088
 9171SOL    HW239027   3.861   3.954   0.984
 9172SOL     OW39028   4.492   4.868   1.023
 9172SOL    HW139029   4.414   4.885   1.083
 9172SOL    HW239030   4.526   4.955   0.987
 9173SOL     OW39031   4.409   4.736   0.665
 9173SOL    HW139032   4.478   4.720   0.735
 9173SOL    HW239033   4.336   4.793   0.703
 9174SOL     OW39034   3.964   4.815   0.886
 9174SOL    HW139035   3.978   4.731   0.938
 9174SOL    HW239036   3.909   4.879   0.941
 9175SOL     OW39037   4.330   4.688   0.123
 9175SOL    HW139038   4.337   4.772   0.069
 9175SOL    HW239039   4.376   4.701   0.211
 9176SOL     OW39040   3.846   4.367   0.563
 9176SOL    HW139041   3.801   4.279   0.580
 9176SOL    HW239042   3.845   4.421   0.647
 9177SOL     OW39043   4.533   3.728   0.502
 9177SOL    HW139044   4.573   3.819   0.493
 9177SOL    HW239045   4.433   3.736   0.508
 9178SOL     OW39046   4.322   4.453   0.270
 9178SOL    HW139047   4.346   4.522   0.202
 9178SOL    HW239048   4.244   4.486   0.324
 9179SOL     OW39049   4.589   4.072   0.195
 9179SOL    HW139050   4.648   4.135   0.146
 9179SOL    HW239051   4.608   3.978   0.166
 9180SOL     OW39052   4.106   4.424   0.480
 9180SOL    HW139053   4.151   4.334   0.477
 9180SOL    HW239054   4.012   4.413   0.513
 9181SOL     OW39055   4.338   3.846   0.117
 9181SOL    HW139056   4.436   3.824   0.124
 9181SOL    HW239057   4.307   3.829   0.024
 9182SOL     OW39058   4.505   3.988   1.749
 9182SOL    HW139059   4.572   3.927   1.792
 9182SOL    HW239060   4.432   4.007   1.814
 9183SOL     OW39061   4.646   4.227   0.899
 9183SOL    HW139062   4.621   4.218   0.803
 9183SOL    HW239063   4.694   4.145   0.930
 9184SOL     OW39064   4.251   3.980   0.328
 9184SOL    HW139065   4.278   3.921   0.253
 9184SOL    HW239066   4.251   4.075   0.297
 9185SOL     OW39067   4.639   3.813   1.402
 9185SOL    HW139068   4.664   3.793   1.307
 9185SOL    HW239069   4.711   3.869   1.444
 9186SOL     OW39070   4.737   3.829   1.770
 9186SOL    HW139071   4.743   3.914   1.718
 9186SOL    HW239072   4.769   3.753   1.713
 9187SOL     OW39073   4.747   4.490   0.966
 9187SOL    HW139074   4.762   4.511   1.062
 9187SOL    HW239075   4.717   4.395   0.957
 9188SOL     OW39076   4.074   4.622   1.804
 9188SOL    HW139077   4.150   4.666   1.852
 9188SOL    HW239078   4.109   4.575   1.722
 9189SOL     OW39079   3.913   4.244   1.722
 9189SOL    HW139080   3.972   4.204   1.652
 9189SOL    HW239081   3.855   4.315   1.681
 9190SOL     OW39082   4.539   4.296   0.325
 9190SOL    HW139083   4.546   4.207   0.279
 9190SOL    HW239084   4.445   4.330   0.317
 9191SOL     OW39085   4.197   4.224   0.191
 9191SOL    HW139086   4.258   4.304   0.195
 9191SOL    HW239087   4.102   4.255   0.198
 9192SOL     OW39088   3.987   4.050   0.720
 9192SOL    HW139089   3.908   4.101   0.686
 9192SOL    HW239090   3.978   4.035   0.818
 9193SOL     OW39091   4.640   4.634   0.291
 9193SOL    HW139092   4.703   4.672   0.223
 9193SOL    HW239093   4.680   4.551   0.330
 9194SOL     OW39094   3.829   4.737   1.726
 9194SOL    HW139095   3.752   4.704   1.780
 9194SOL    HW239096   3.914   4.707   1.768
 9195SOL     OW39097   4.396   3.927   1.489
 9195SOL    HW139098   4.486   3.911   1.449
 9195SOL    HW239099   4.404   3.932   1.588
 9196SOL     OW39100   4.318   4.469   0.652
 9196SOL    HW139101   4.368   4.554   0.633
 9196SOL    HW239102   4.230   4.471   0.604
 9197SOL     OW39103   4.583   4.680   0.861
 9197SOL    HW139104   4.637   4.611   0.909
 9197SOL    HW239105   4.551   4.749   0.927
 9198SOL     OW39106   4.152   4.148   0.520
 9198SOL    HW139107   4.182   4.076   0.458
 9198SOL    HW239108   4.113   4.108   0.603
 9199SOL     OW39109   4.725   3.758   1.154
 9199SOL    HW139110   4.662   3.686   1.123
 9199SOL    HW239111   4.818   3.722   1.154
 9200SOL     OW39112   3.954   4.352   1.975
 9200SOL    HW139113   3.861   4.350   2.012
 9200SOL    HW239114   3.955   4.313   1.883
 9201SOL     OW39115   3.949   3.999   2.858
 9201SOL    HW139116   3.984   3.982   2.950
 9201SOL    HW239117   3.861   3.954   2.846
 9202SOL     OW39118   3.743   4.092   2.509
 9202SOL    HW139119   3.661   4.135   2.548
 9202SOL    HW239120   3.715   4.019   2.446
 9203SOL     OW39121   4.492   4.868   2.885
 9203SOL    HW139122   4.414   4.885   2.945
 9203SOL    HW239123   4.526   4.955   2.849
 9204SOL     OW39124   4.574   4.522   3.685
 9204SOL    HW139125   4.570   4.598   3.750
 9204SOL    HW239126   4.596   4.558   3.594
 9205SOL     OW39127   4.409   4.736   2.527
 9205SOL    HW139128   4.478   4.720   2.597
 9205SOL    HW239129   4.336   4.793   2.565
 9206SOL     OW39130   4.162   4.116   3.361
 9206SOL    HW139131   4.244   4.060   3.370
 9206SOL    HW239132   4.081   4.058   3.365
 9207SOL     OW39133   3.964   4.815   2.748
 9207SOL    HW139134   3.978   4.731   2.800
 9207SOL    HW239135   3.909   4.879   2.803
 9208SOL     OW39136   4.330   4.688   1.985
 9208SOL    HW139137   4.337   4.772   1.931
 9208SOL    HW239138   4.376   4.701   2.073
 9209SOL     OW39139   3.846   4.367   2.425
 9209SOL    HW139140   3.801   4.279   2.442
 9209SOL    HW239141   3.845   4.421   2.509
 9210SOL     OW39142   3.837   4.461   3.459
 9210SOL    HW139143   3.925   4.448   3.504
 9210SOL    HW239144   3.824   4.558   3.437
 9211SOL     OW39145   4.533   3.728   2.364
 9211SOL    HW139146   4.573   3.819   2.355
 9211SOL    HW239147   4.433   3.736   2.370
 9212SOL     OW39148   3.921   4.700   3.126
 9212SOL    HW139149   4.010   4.655   3.112
 9212SOL    HW239150   3.848   4.635   3.107
 9213SOL     OW39151   4.041   3.975   3.663
 9213SOL    HW139152   4.112   4.046   3.669
 9213SOL    HW239153   3.953   4.014   3.691
 9214SOL     OW39154   4.322   4.453   2.132
 9214SOL    HW139155   4.346   4.522   2.064
 9214SOL    HW239156   4.244   4.486   2.186
 9215SOL     OW39157   4.531   4.329   3.327
 9215SOL    HW139158   4.484   4.326   3.416
 9215SOL    HW239159   4.480   4.274   3.261
 9216SOL     OW39160   4.697   4.614   3.434
 9216SOL    HW139161   4.743   4.530   3.405
 9216SOL    HW239162   4.641   4.648   3.359
 9217SOL     OW39163   4.715   4.134   3.104
 9217SOL    HW139164   4.638   4.168   3.158
 9217SOL    HW239165   4.681   4.083   3.025
 9218SOL     OW39166   3.800   4.535   2.651
 9218SOL    HW139167   3.899   4.523   2.660
 9218SOL    HW239168   3.776   4.630   2.672
 9219SOL     OW39169   4.589   4.072   2.057
 9219SOL    HW139170   4.648   4.135   2.008
 9219SOL    HW239171   4.608   3.978   2.028
 9220SOL     OW39172   4.274   3.920   2.747
 9220SOL    HW139173   4.269   3.915   2.847
 9220SOL    HW239174   4.276   4.016   2.718
 9221SOL     OW39175   3.926   4.009   3.360
 9221SOL    HW139176   3.846   4.069   3.347
 9221SOL    HW239177   3.916   3.960   3.446
 9222SOL     OW39178   4.106   4.424   2.342
 9222SOL    HW139179   4.151   4.334   2.339
 9222SOL    HW239180   4.012   4.413   2.375
 9223SOL     OW39181   4.338   3.846   1.979
 9223SOL    HW139182   4.436   3.824   1.986
 9223SOL    HW239183   4.307   3.829   1.886
 9224SOL     OW39184   4.505   3.988   3.611
 9224SOL    HW139185   4.572   3.927   3.654
 9224SOL    HW239186   4.432   4.007   3.676
 9225SOL     OW39187   4.646   4.227   2.761
 9225SOL    HW139188   4.621   4.218   2.665
 9225SOL    HW239189   4.694   4.145   2.792
 9226SOL     OW39190   4.263   3.788   2.374
 9226SOL    HW139191   4.182   3.789   2.432
 9226SOL    HW239192   4.266   3.871   2.319
 9227SOL     OW39193   4.021   3.759   2.033
 9227SOL    HW139194   4.070   3.843   2.012
 9227SOL    HW239195   4.083   3.694   2.078
 9228SOL     OW39196   4.659   3.960   2.342
 9228SOL    HW139197   4.611   4.001   2.264
 9228SOL    HW239198   4.758   3.958   2.323
 9229SOL     OW39199   3.802   4.280   3.248
 9229SOL    HW139200   3.894   4.279   3.207
 9229SOL    HW239201   3.796   4.354   3.315
 9230SOL     OW39202   4.285   3.946   3.009
 9230SOL    HW139203   4.323   3.862   3.046
 9230SOL    HW239204   4.197   3.965   3.053
 9231SOL     OW39205   4.590   4.178   2.504
 9231SOL    HW139206   4.558   4.250   2.442
 9231SOL    HW239207   4.614   4.097   2.451
 9232SOL     OW39208   4.741   3.763   2.615
 9232SOL    HW139209   4.669   3.768   2.546
 9232SOL    HW239210   4.717   3.694   2.684
 9233SOL     OW39211   4.251   3.980   2.190
 9233SOL    HW139212   4.278   3.921   2.115
 9233SOL    HW239213   4.251   4.075   2.159
 9234SOL     OW39214   4.639   3.813   3.264
 9234SOL    HW139215   4.664   3.793   3.169
 9234SOL    HW239216   4.711   3.869   3.306
 9235SOL     OW39217   4.134   4.537   3.113
 9235SOL    HW139218   4.220   4.549   3.163
 9235SOL    HW239219   4.092   4.450   3.140
 9236SOL     OW39220   4.290   4.261   2.727
 9236SOL    HW139221   4.302   4.327   2.653
 9236SOL    HW239222   4.336   4.295   2.810
 9237SOL     OW39223   4.126   4.475   3.460
 9237SOL    HW139224   4.194   4.530   3.413
 9237SOL    HW239225   4.166   4.387   3.487
 9238SOL     OW39226   4.737   3.829   3.632
 9238SOL    HW139227   4.743   3.914   3.580
 9238SOL    HW239228   4.769   3.753   3.575
 9239SOL     OW39229   4.228   3.774   3.602
 9239SOL    HW139230   4.186   3.717   3.532
 9239SOL    HW239231   4.162   3.843   3.634
 9240SOL     OW39232   4.297   4.594   2.891
 9240SOL    HW139233   4.341   4.683   2.882
 9240SOL    HW239234   4.234   4.594   2.968
 9241SOL     OW39235   4.933   4.249   2.137
 9241SOL    HW139236   4.946   4.165   2.191
 9241SOL    HW239237   4.904   4.323   2.197
 9242SOL     OW39238   4.031   3.937   3.093
 9242SOL    HW139239   4.008   3.974   3.183
 9242SOL    HW239240   4.001   3.842   3.087
 9243SOL     OW39241   4.456   4.358   2.926
 9243SOL    HW139242   4.515   4.332   2.850
 9243SOL    HW239243   4.428   4.454   2.915
 9244SOL     OW39244   4.031   3.787   2.480
 9244SOL    HW139245   4.020   3.881   2.513
 9244SOL    HW239246   4.026   3.724   2.557
 9245SOL     OW39247   4.747   4.490   2.828
 9245SOL    HW139248   4.762   4.511   2.924
 9245SOL    HW239249   4.717   4.395   2.819
 9246SOL     OW39250   4.074   4.622   3.666
 9246SOL    HW139251   4.150   4.666   3.714
 9246SOL    HW239252   4.109   4.575   3.584
 9247SOL     OW39253   4.043   4.534   2.811
 9247SOL    HW139254   4.136   4.570   2.816
 9247SOL    HW239255   4.037   4.449   2.863
 9248SOL     OW39256   4.063   4.233   2.868
 9248SOL    HW139257   4.011   4.150   2.851
 9248SOL    HW239258   4.140   4.238   2.804
 9249SOL     OW39259   4.726   4.520   3.100
 9249SOL    HW139260   4.767   4.488   3.186
 9249SOL    HW239261   4.630   4.493   3.097
 9250SOL     OW39262   3.764   4.268   2.976
 9250SOL    HW139263   3.849   4.235   2.935
 9250SOL    HW239264   3.777   4.283   3.074
 9251SOL     OW39265   3.913   4.244   3.584
 9251SOL    HW139266   3.972   4.204   3.514
 9251SOL    HW239267   3.855   4.315   3.543
 9252SOL     OW39268   4.539   4.296   2.187
 9252SOL    HW139269   4.546   4.207   2.141
 9252SOL    HW239270   4.445   4.330   2.179
 9253SOL     OW39271   4.395   4.188   3.131
 9253SOL    HW139272   4.361   4.099   3.101
 9253SOL    HW239273   4.421   4.242   3.051
 9254SOL     OW39274   4.197   4.224   2.053
 9254SOL    HW139275   4.258   4.304   2.057
 9254SOL    HW239276   4.102   4.255   2.060
 9255SOL     OW39277   3.883   4.861   3.328
 9255SOL    HW139278   3.905   4.800   3.404
 9255SOL    HW239279   3.893   4.812   3.242
 9256SOL     OW39280   5.026   4.579   2.171
 9256SOL    HW139281   4.940   4.548   2.213
 9256SOL    HW239282   5.022   4.565   2.072
 9257SOL     OW39283   3.987   4.050   2.582
 9257SOL    HW139284   3.908   4.101   2.548
 9257SOL    HW239285   3.978   4.035   2.680
 9258SOL     OW39286   4.640   4.634   2.153
 9258SOL    HW139287   4.703   4.672   2.085
 9258SOL    HW239288   4.680   4.551   2.192
 9259SOL     OW39289   4.738   3.960   2.833
 9259SOL    HW139290   4.730   3.924   2.740
 9259SOL    HW239291   4.736   3.884   2.898
 9260SOL     OW39292   3.829   4.737   3.588
 9260SOL    HW139293   3.752   4.704   3.642
 9260SOL    HW239294   3.914   4.707   3.630
 9261SOL     OW39295   4.396   3.927   3.351
 9261SOL    HW139296   4.486   3.911   3.311
 9261SOL    HW239297   4.404   3.932   3.450
 9262SOL     OW39298   3.799   4.069   1.895
 9262SOL    HW139299   3.707   4.041   1.866
 9262SOL    HW239300   3.830   4.146   1.839
 9263SOL     OW39301   3.796   3.890   2.180
 9263SOL    HW139302   3.779   3.973   2.126
 9263SOL    HW239303   3.886   3.853   2.158
 9264SOL     OW39304   4.337   4.566   3.293
 9264SOL    HW139305   4.393   4.647   3.276
 9264SOL    HW239306   4.396   4.486   3.296
 9265SOL     OW39307   4.440   4.289   3.570
 9265SOL    HW139308   4.459   4.354   3.644
 9265SOL    HW239309   4.500   4.209   3.579
 9266SOL     OW39310   4.949   4.049   2.311
 9266SOL    HW139311   5.014   3.975   2.300
 9266SOL    HW239312   4.969   4.099   2.395
 9267SOL     OW39313   4.318   4.469   2.514
 9267SOL    HW139314   4.368   4.554   2.495
 9267SOL    HW239315   4.230   4.471   2.466
 9268SOL     OW39316   4.583   4.680   2.723
 9268SOL    HW139317   4.637   4.611   2.771
 9268SOL    HW239318   4.551   4.749   2.789
 9269SOL     OW39319   3.803   4.964   2.515
 9269SOL    HW139320   3.802   4.917   2.603
 9269SOL    HW239321   3.885   4.936   2.464
 9270SOL     OW39322   4.152   4.148   2.382
 9270SOL    HW139323   4.182   4.076   2.320
 9270SOL    HW239324   4.113   4.108   2.465
 9271SOL     OW39325   4.041   4.271   3.142
 9271SOL    HW139326   4.079   4.212   3.214
 9271SOL    HW239327   4.081   4.245   3.054
 9272SOL     OW39328   4.725   3.758   3.016
 9272SOL    HW139329   4.662   3.686   2.985
 9272SOL    HW239330   4.818   3.722   3.016
 9273SOL     OW39331   3.763   4.801   2.162
 9273SOL    HW139332   3.862   4.790   2.153
 9273SOL    HW239333   3.723   4.715   2.194
 9274SOL     OW39334   3.954   4.352   3.837
 9274SOL    HW139335   3.861   4.350   3.874
 9274SOL    HW239336   3.955   4.313   3.745
 9275SOL     OW39337   3.949   3.999   4.720
 9275SOL    HW139338   3.984   3.982   4.812
 9275SOL    HW239339   3.861   3.954   4.708
 9276SOL     OW39340   3.743   4.092   4.371
 9276SOL    HW139341   3.661   4.135   4.410
 9276SOL    HW239342   3.715   4.019   4.308
 9277SOL     OW39343   4.492   4.868   4.747
 9277SOL    HW139344   4.414   4.885   4.807
 9277SOL    HW239345   4.526   4.955   4.711
 9278SOL     OW39346   4.574   4.522   5.547
 9278SOL    HW139347   4.570   4.598   5.612
 9278SOL    HW239348   4.596   4.558   5.456
 9279SOL     OW39349   4.409   4.736   4.389
 9279SOL    HW139350   4.478   4.720   4.459
 9279SOL    HW239351   4.336   4.793   4.427
 9280SOL     OW39352   4.162   4.116   5.223
 9280SOL    HW139353   4.244   4.060   5.232
 9280SOL    HW239354   4.081   4.058   5.227
 9281SOL     OW39355   3.964   4.815   4.610
 9281SOL    HW139356   3.978   4.731   4.662
 9281SOL    HW239357   3.909   4.879   4.665
 9282SOL     OW39358   4.330   4.688   3.847
 9282SOL    HW139359   4.337   4.772   3.793
 9282SOL    HW239360   4.376   4.701   3.935
 9283SOL     OW39361   3.846   4.367   4.287
 9283SOL    HW139362   3.801   4.279   4.304
 9283SOL    HW239363   3.845   4.421   4.371
 9284SOL     OW39364   3.837   4.461   5.321
 9284SOL    HW139365   3.925   4.448   5.366
 9284SOL    HW239366   3.824   4.558   5.299
 9285SOL     OW39367   4.533   3.728   4.226
 9285SOL    HW139368   4.573   3.819   4.217
 9285SOL    HW239369   4.433   3.736   4.232
 9286SOL     OW39370   3.921   4.700   4.988
 9286SOL    HW139371   4.010   4.655   4.974
 9286SOL    HW239372   3.848   4.635   4.969
 9287SOL     OW39373   4.041   3.975   5.525
 9287SOL    HW139374   4.112   4.046   5.531
 9287SOL    HW239375   3.953   4.014   5.553
 9288SOL     OW39376   4.322   4.453   3.994
 9288SOL    HW139377   4.346   4.522   3.926
 9288SOL    HW239378   4.244   4.486   4.048
 9289SOL     OW39379   4.531   4.329   5.189
 9289SOL    HW139380   4.484   4.326   5.278
 9289SOL    HW239381   4.480   4.274   5.123
 9290SOL     OW39382   4.697   4.614   5.296
 9290SOL    HW139383   4.743   4.530   5.267
 9290SOL    HW239384   4.641   4.648   5.221
 9291SOL     OW39385   4.715   4.134   4.966
 9291SOL    HW139386   4.638   4.168   5.020
 9291SOL    HW239387   4.681   4.083   4.887
 9292SOL     OW39388   3.800   4.535   4.513
 9292SOL    HW139389   3.899   4.523   4.522
 9292SOL    HW239390   3.776   4.630   4.534
 9293SOL     OW39391   4.589   4.072   3.919
 9293SOL    HW139392   4.648   4.135   3.870
 9293SOL    HW239393   4.608   3.978   3.890
 9294SOL     OW39394   4.274   3.920   4.609
 9294SOL    HW139395   4.269   3.915   4.709
 9294SOL    HW239396   4.276   4.016   4.580
 9295SOL     OW39397   3.926   4.009   5.222
 9295SOL    HW139398   3.846   4.069   5.209
 9295SOL    HW239399   3.916   3.960   5.308
 9296SOL     OW39400   4.106   4.424   4.204
 9296SOL    HW139401   4.151   4.334   4.201
 9296SOL    HW239402   4.012   4.413   4.237
 9297SOL     OW39403   4.338   3.846   3.841
 9297SOL    HW139404   4.436   3.824   3.848
 9297SOL    HW239405   4.307   3.829   3.748
 9298SOL     OW39406   4.505   3.988   5.473
 9298SOL    HW139407   4.572   3.927   5.516
 9298SOL    HW239408   4.432   4.007   5.538
 9299SOL     OW39409   4.646   4.227   4.623
 9299SOL    HW139410   4.621   4.218   4.527
 9299SOL    HW239411   4.694   4.145   4.654
 9300SOL     OW39412   4.263   3.788   4.236
 9300SOL    HW139413   4.182   3.789   4.294
 9300SOL    HW239414   4.266   3.871   4.181
 9301SOL     OW39415   4.021   3.759   3.895
 9301SOL    HW139416   4.070   3.843   3.874
 9301SOL    HW239417   4.083   3.694   3.940
 9302SOL     OW39418   4.659   3.960   4.204
 9302SOL    HW139419   4.611   4.001   4.126
 9302SOL    HW239420   4.758   3.958   4.185
 9303SOL     OW39421   4.756   4.273   3.740
 9303SOL    HW139422   4.715   4.355   3.701
 9303SOL    HW239423   4.820   4.299   3.813
 9304SOL     OW39424   3.802   4.280   5.110
 9304SOL    HW139425   3.894   4.279   5.069
 9304SOL    HW239426   3.796   4.354   5.177
 9305SOL     OW39427   4.285   3.946   4.871
 9305SOL    HW139428   4.323   3.862   4.908
 9305SOL    HW239429   4.197   3.965   4.915
 9306SOL     OW39430   4.590   4.178   4.366
 9306SOL    HW139431   4.558   4.250   4.304
 9306SOL    HW239432   4.614   4.097   4.313
 9307SOL     OW39433   4.741   3.763   4.477
 9307SOL    HW139434   4.669   3.768   4.408
 9307SOL    HW239435   4.717   3.694   4.546
 9308SOL     OW39436   4.251   3.980   4.052
 9308SOL    HW139437   4.278   3.921   3.977
 9308SOL    HW239438   4.251   4.075   4.021
 9309SOL     OW39439   4.639   3.813   5.126
 9309SOL    HW139440   4.664   3.793   5.031
 9309SOL    HW239441   4.711   3.869   5.168
 9310SOL     OW39442   4.134   4.537   4.975
 9310SOL    HW139443   4.220   4.549   5.025
 9310SOL    HW239444   4.092   4.450   5.002
 9311SOL     OW39445   4.290   4.261   4.589
 9311SOL    HW139446   4.302   4.327   4.515
 9311SOL    HW239447   4.336   4.295   4.672
 9312SOL     OW39448   4.126   4.475   5.322
 9312SOL    HW139449   4.194   4.530   5.275
 9312SOL    HW239450   4.166   4.387   5.349
 9313SOL     OW39451   4.737   3.829   5.494
 9313SOL    HW139452   4.743   3.914   5.442
 9313SOL    HW239453   4.769   3.753   5.437
 9314SOL     OW39454   4.228   3.774   5.464
 9314SOL    HW139455   4.186   3.717   5.394
 9314SOL    HW239456   4.162   3.843   5.496
 9315SOL     OW39457   4.297   4.594   4.753
 9315SOL    HW139458   4.341   4.683   4.744
 9315SOL    HW239459   4.234   4.594   4.830
 9316SOL     OW39460   4.933   4.249   3.999
 9316SOL    HW139461   4.946   4.165   4.053
 9316SOL    HW239462   4.904   4.323   4.059
 9317SOL     OW39463   4.031   3.937   4.955
 9317SOL    HW139464   4.008   3.974   5.045
 9317SOL    HW239465   4.001   3.842   4.949
 9318SOL     OW39466   4.456   4.358   4.788
 9318SOL    HW139467   4.515   4.332   4.712
 9318SOL    HW239468   4.428   4.454   4.777
 9319SOL     OW39469   4.031   3.787   4.342
 9319SOL    HW139470   4.020   3.881   4.375
 9319SOL    HW239471   4.026   3.724   4.419
 9320SOL     OW39472   4.747   4.490   4.690
 9320SOL    HW139473   4.762   4.511   4.786
 9320SOL    HW239474   4.717   4.395   4.681
 9321SOL     OW39475   4.074   4.622   5.528
 9321SOL    HW139476   4.150   4.666   5.576
 9321SOL    HW239477   4.109   4.575   5.446
 9322SOL     OW39478   4.043   4.534   4.673
 9322SOL    HW139479   4.136   4.570   4.678
 9322SOL    HW239480   4.037   4.449   4.725
 9323SOL     OW39481   4.063   4.233   4.730
 9323SOL    HW139482   4.011   4.150   4.713
 9323SOL    HW239483   4.140   4.238   4.666
 9324SOL     OW39484   4.726   4.520   4.962
 9324SOL    HW139485   4.767   4.488   5.048
 9324SOL    HW239486   4.630   4.493   4.959
 9325SOL     OW39487   3.764   4.268   4.838
 9325SOL    HW139488   3.849   4.235   4.797
 9325SOL    HW239489   3.777   4.283   4.936
 9326SOL     OW39490   3.913   4.244   5.446
 9326SOL    HW139491   3.972   4.204   5.376
 9326SOL    HW239492   3.855   4.315   5.405
 9327SOL     OW39493   4.539   4.296   4.049
 9327SOL    HW139494   4.546   4.207   4.003
 9327SOL    HW239495   4.445   4.330   4.041
 9328SOL     OW39496   4.395   4.188   4.993
 9328SOL    HW139497   4.361   4.099   4.963
 9328SOL    HW239498   4.421   4.242   4.913
 9329SOL     OW39499   4.197   4.224   3.915
 9329SOL    HW139500   4.258   4.304   3.919
 9329SOL    HW239501   4.102   4.255   3.922
 9330SOL     OW39502   3.883   4.861   5.190
 9330SOL    HW139503   3.905   4.800   5.266
 9330SOL    HW239504   3.893   4.812   5.104
 9331SOL     OW39505   5.026   4.579   4.033
 9331SOL    HW139506   4.940   4.548   4.075
 9331SOL    HW239507   5.022   4.565   3.934
 9332SOL     OW39508   3.987   4.050   4.444
 9332SOL    HW139509   3.908   4.101   4.410
 9332SOL    HW239510   3.978   4.035   4.542
 9333SOL     OW39511   4.640   4.634   4.015
 9333SOL    HW139512   4.703   4.672   3.947
 9333SOL    HW239513   4.680   4.551   4.054
 9334SOL     OW39514   4.738   3.960   4.695
 9334SOL    HW139515   4.730   3.924   4.602
 9334SOL    HW239516   4.736   3.884   4.760
 9335SOL     OW39517   3.829   4.737   5.450
 9335SOL    HW139518   3.752   4.704   5.504
 9335SOL    HW239519   3.914   4.707   5.492
 9336SOL     OW39520   4.396   3.927   5.213
 9336SOL    HW139521   4.486   3.911   5.173
 9336SOL    HW239522   4.404   3.932   5.312
 9337SOL     OW39523   3.799   4.069   3.757
 9337SOL    HW139524   3.707   4.041   3.728
 9337SOL    HW239525   3.830   4.146   3.701
 9338SOL     OW39526   3.796   3.890   4.042
 9338SOL    HW139527   3.779   3.973   3.988
 9338SOL    HW239528   3.886   3.853   4.020
 9339SOL     OW39529   4.337   4.566   5.155
 9339SOL    HW139530   4.393   4.647   5.138
 9339SOL    HW239531   4.396   4.486   5.158
 9340SOL     OW39532   4.440   4.289   5.432
 9340SOL    HW139533   4.459   4.354   5.506
 9340SOL    HW239534   4.500   4.209   5.441
 9341SOL     OW39535   4.949   4.049   4.173
 9341SOL    HW139536   5.014   3.975   4.162
 9341SOL    HW239537   4.969   4.099   4.257
 9342SOL     OW39538   4.318   4.469   4.376
 9342SOL    HW139539   4.368   4.554   4.357
 9342SOL    HW239540   4.230   4.471   4.328
 9343SOL     OW39541   4.583   4.680   4.585
 9343SOL    HW139542   4.637   4.611   4.633
 9343SOL    HW239543   4.551   4.749   4.651
 9344SOL     OW39544   3.803   4.964   4.377
 9344SOL    HW139545   3.802   4.917   4.465
 9344SOL    HW239546   3.885   4.936   4.326
 9345SOL     OW39547   4.152   4.148   4.244
 9345SOL    HW139548   4.182   4.076   4.182
 9345SOL    HW239549   4.113   4.108   4.327
 9346SOL     OW39550   4.041   4.271   5.004
 9346SOL    HW139551   4.079   4.212   5.076
 9346SOL    HW239552   4.081   4.245   4.916
 9347SOL     OW39553   4.725   3.758   4.878
 9347SOL    HW139554   4.662   3.686   4.847
 9347SOL    HW239555   4.818   3.722   4.878
 9348SOL     OW39556   3.763   4.801   4.024
 9348SOL    HW139557   3.862   4.790   4.015
 9348SOL    HW239558   3.723   4.715   4.056
 9349SOL     OW39559   3.954   4.352   5.699
 9349SOL    HW139560   3.861   4.350   5.736
 9349SOL    HW239561   3.955   4.313   5.607
 9350SOL     OW39562   3.949   3.999   6.582
 9350SOL    HW139563   3.984   3.982   6.674
 9350SOL    HW239564   3.861   3.954   6.570
 9351SOL     OW39565   3.743   4.092   6.233
 9351SOL    HW139566   3.661   4.135   6.272
 9351SOL    HW239567   3.715   4.019   6.170
 9352SOL     OW39568   4.492   4.868   6.609
 9352SOL    HW139569   4.414   4.885   6.669
 9352SOL    HW239570   4.526   4.955   6.573
 9353SOL     OW39571   4.574   4.522   7.409
 9353SOL    HW139572   4.570   4.598   7.474
 9353SOL    HW239573   4.596   4.558   7.318
 9354SOL     OW39574   4.409   4.736   6.251
 9354SOL    HW139575   4.478   4.720   6.321
 9354SOL    HW239576   4.336   4.793   6.289
 9355SOL     OW39577   4.162   4.116   7.085
 9355SOL    HW139578   4.244   4.060   7.094
 9355SOL    HW239579   4.081   4.058   7.089
 9356SOL     OW39580   3.964   4.815   6.472
 9356SOL    HW139581   3.978   4.731   6.524
 9356SOL    HW239582   3.909   4.879   6.527
 9357SOL     OW39583   4.330   4.688   5.709
 9357SOL    HW139584   4.337   4.772   5.655
 9357SOL    HW239585   4.376   4.701   5.797
 9358SOL     OW39586   3.846   4.367   6.149
 9358SOL    HW139587   3.801   4.279   6.166
 9358SOL    HW239588   3.845   4.421   6.233
 9359SOL     OW39589   3.837   4.461   7.183
 9359SOL    HW139590   3.925   4.448   7.228
 9359SOL    HW239591   3.824   4.558   7.161
 9360SOL     OW39592   4.533   3.728   6.088
 9360SOL    HW139593   4.573   3.819   6.079
 9360SOL    HW239594   4.433   3.736   6.094
 9361SOL     OW39595   3.921   4.700   6.850
 9361SOL    HW139596   4.010   4.655   6.836
 9361SOL    HW239597   3.848   4.635   6.831
 9362SOL     OW39598   4.041   3.975   7.387
 9362SOL    HW139599   4.112   4.046   7.393
 9362SOL    HW239600   3.953   4.014   7.415
 9363SOL     OW39601   4.322   4.453   5.856
 9363SOL    HW139602   4.346   4.522   5.788
 9363SOL    HW239603   4.244   4.486   5.910
 9364SOL     OW39604   4.531   4.329   7.051
 9364SOL    HW139605   4.484   4.326   7.140
 9364SOL    HW239606   4.480   4.274   6.985
 9365SOL     OW39607   4.697   4.614   7.158
 9365SOL    HW139608   4.743   4.530   7.129
 9365SOL    HW239609   4.641   4.648   7.083
 9366SOL     OW39610   4.715   4.134   6.828
 9366SOL    HW139611   4.638   4.168   6.882
 9366SOL    HW239612   4.681   4.083   6.749
 9367SOL     OW39613   3.800   4.535   6.375
 9367SOL    HW139614   3.899   4.523   6.384
 9367SOL    HW239615   3.776   4.630   6.396
 9368SOL     OW39616   4.589   4.072   5.781
 9368SOL    HW139617   4.648   4.135   5.732
 9368SOL    HW239618   4.608   3.978   5.752
 9369SOL     OW39619   4.274   3.920   6.471
 9369SOL    HW139620   4.269   3.915   6.571
 9369SOL    HW239621   4.276   4.016   6.442
 9370SOL     OW39622   3.926   4.009   7.084
 9370SOL    HW139623   3.846   4.069   7.071
 9370SOL    HW239624   3.916   3.960   7.170
 9371SOL     OW39625   4.106   4.424   6.066
 9371SOL    HW139626   4.151   4.334   6.063
 9371SOL    HW239627   4.012   4.413   6.099
 9372SOL     OW39628   4.338   3.846   5.703
 9372SOL    HW139629   4.436   3.824   5.710
 9372SOL    HW239630   4.307   3.829   5.610
 9373SOL     OW39631   4.505   3.988   7.335
 9373SOL    HW139632   4.572   3.927   7.378
 9373SOL    HW239633   4.432   4.007   7.400
 9374SOL     OW39634   4.646   4.227   6.485
 9374SOL    HW139635   4.621   4.218   6.389
 9374SOL    HW239636   4.694   4.145   6.516
 9375SOL     OW39637   4.263   3.788   6.098
 9375SOL    HW139638   4.182   3.789   6.156
 9375SOL    HW239639   4.266   3.871   6.043
 9376SOL     OW39640   4.021   3.759   5.757
 9376SOL    HW139641   4.070   3.843   5.736
 9376SOL    HW239642   4.083   3.694   5.802
 9377SOL     OW39643   4.659   3.960   6.066
 9377SOL    HW139644   4.611   4.001   5.988
 9377SOL    HW239645   4.758   3.958   6.047
 9378SOL     OW39646   4.756   4.273   5.602
 9378SOL    HW139647   4.715   4.355   5.563
 9378SOL    HW239648   4.820   4.299   5.675
 9379SOL     OW39649   3.802   4.280   6.972
 9379SOL    HW139650   3.894   4.279   6.931
 9379SOL    HW239651   3.796   4.354   7.039
 9380SOL     OW39652   4.285   3.946   6.733
 9380SOL    HW139653   4.323   3.862   6.770
 9380SOL    HW239654   4.197   3.965   6.777
 9381SOL     OW39655   4.590   4.178   6.228
 9381SOL    HW139656   4.558   4.250   6.166
 9381SOL    HW239657   4.614   4.097   6.175
 9382SOL     OW39658   4.741   3.763   6.339
 9382SOL    HW139659   4.669   3.768   6.270
 9382SOL    HW239660   4.717   3.694   6.408
 9383SOL     OW39661   4.251   3.980   5.914
 9383SOL    HW139662   4.278   3.921   5.839
 9383SOL    HW239663   4.251   4.075   5.883
 9384SOL     OW39664   4.639   3.813   6.988
 9384SOL    HW139665   4.664   3.793   6.893
 9384SOL    HW239666   4.711   3.869   7.030
 9385SOL     OW39667   4.134   4.537   6.837
 9385SOL    HW139668   4.220   4.549   6.887
 9385SOL    HW239669   4.092   4.450   6.864
 9386SOL     OW39670   4.290   4.261   6.451
 9386SOL    HW139671   4.302   4.327   6.377
 9386SOL    HW239672   4.336   4.295   6.534
 9387SOL     OW39673   4.126   4.475   7.184
 9387SOL    HW139674   4.194   4.530   7.137
 9387SOL    HW239675   4.166   4.387   7.211
 9388SOL     OW39676   4.737   3.829   7.356
 9388SOL    HW139677   4.743   3.914   7.304
 9388SOL    HW239678   4.769   3.753   7.299
 9389SOL     OW39679   4.228   3.774   7.326
 9389SOL    HW139680   4.186   3.717   7.256
 9389SOL    HW239681   4.162   3.843   7.358
 9390SOL     OW39682   4.297   4.594   6.615
 9390SOL    HW139683   4.341   4.683   6.606
 9390SOL    HW239684   4.234   4.594   6.692
 9391SOL     OW39685   4.933   4.249   5.861
 9391SOL    HW139686   4.946   4.165   5.915
 9391SOL    HW239687   4.904   4.323   5.921
 9392SOL     OW39688   4.031   3.937   6.817
 9392SOL    HW139689   4.008   3.974   6.907
 9392SOL    HW239690   4.001   3.842   6.811
 9393SOL     OW39691   4.456   4.358   6.650
 9393SOL    HW139692   4.515   4.332   6.574
 9393SOL    HW239693   4.428   4.454   6.639
 9394SOL     OW39694   4.031   3.787   6.204
 9394SOL    HW139695   4.020   3.881   6.237
 9394SOL    HW239696   4.026   3.724   6.281
 9395SOL     OW39697   4.747   4.490   6.552
 9395SOL    HW139698   4.762   4.511   6.648
 9395SOL    HW239699   4.717   4.395   6.543
 9396SOL     OW39700   4.074   4.622   7.390
 9396SOL    HW139701   4.150   4.666   7.438
 9396SOL    HW239702   4.109   4.575   7.308
 9397SOL     OW39703   4.043   4.534   6.535
 9397SOL    HW139704   4.136   4.570   6.540
 9397SOL    HW239705   4.037   4.449   6.587
 9398SOL     OW39706   4.063   4.233   6.592
 9398SOL    HW139707   4.011   4.150   6.575
 9398SOL    HW239708   4.140   4.238   6.528
 9399SOL     OW39709   4.726   4.520   6.824
 9399SOL    HW139710   4.767   4.488   6.910
 9399SOL    HW239711   4.630   4.493   6.821
 9400SOL     OW39712   3.764   4.268   6.700
 9400SOL    HW139713   3.849   4.235   6.659
 9400SOL    HW239714   3.777   4.283   6.798
 9401SOL     OW39715   3.913   4.244   7.308
 9401SOL    HW139716   3.972   4.204   7.238
 9401SOL    HW239717   3.855   4.315   7.267
 9402SOL     OW39718   4.539   4.296   5.911
 9402SOL    HW139719   4.546   4.207   5.865
 9402SOL    HW239720   4.445   4.330   5.903
 9403SOL     OW39721   4.395   4.188   6.855
 9403SOL    HW139722   4.361   4.099   6.825
 9403SOL    HW239723   4.421   4.242   6.775
 9404SOL     OW39724   4.197   4.224   5.777
 9404SOL    HW139725   4.258   4.304   5.781
 9404SOL    HW239726   4.102   4.255   5.784
 9405SOL     OW39727   3.883   4.861   7.052
 9405SOL    HW139728   3.905   4.800   7.128
 9405SOL    HW239729   3.893   4.812   6.966
 9406SOL     OW39730   5.026   4.579   5.895
 9406SOL    HW139731   4.940   4.548   5.937
 9406SOL    HW239732   5.022   4.565   5.796
 9407SOL     OW39733   3.987   4.050   6.306
 9407SOL    HW139734   3.908   4.101   6.272
 9407SOL    HW239735   3.978   4.035   6.404
 9408SOL     OW39736   4.640   4.634   5.877
 9408SOL    HW139737   4.703   4.672   5.809
 9408SOL    HW239738   4.680   4.551   5.916
 9409SOL     OW39739   4.738   3.960   6.557
 9409SOL    HW139740   4.730   3.924   6.464
 9409SOL    HW239741   4.736   3.884   6.622
 9410SOL     OW39742   3.829   4.737   7.312
 9410SOL    HW139743   3.752   4.704   7.366
 9410SOL    HW239744   3.914   4.707   7.354
 9411SOL     OW39745   4.396   3.927   7.075
 9411SOL    HW139746   4.486   3.911   7.035
 9411SOL    HW239747   4.404   3.932   7.174
 9412SOL     OW39748   3.799   4.069   5.619
 9412SOL    HW139749   3.707   4.041   5.590
 9412SOL    HW239750   3.830   4.146   5.563
 9413SOL     OW39751   3.796   3.890   5.904
 9413SOL    HW139752   3.779   3.973   5.850
 9413SOL    HW239753   3.886   3.853   5.882
 9414SOL     OW39754   4.337   4.566   7.017
 9414SOL    HW139755   4.393   4.647   7.000
 9414SOL    HW239756   4.396   4.486   7.020
 9415SOL     OW39757   4.440   4.289   7.294
 9415SOL    HW139758   4.459   4.354   7.368
 9415SOL    HW239759   4.500   4.209   7.303
 9416SOL     OW39760   4.949   4.049   6.035
 9416SOL    HW139761   5.014   3.975   6.024
 9416SOL    HW239762   4.969   4.099   6.119
 9417SOL     OW39763   4.318   4.469   6.238
 9417SOL    HW139764   4.368   4.554   6.219
 9417SOL    HW239765   4.230   4.471   6.190
 9418SOL     OW39766   4.583   4.680   6.447
 9418SOL    HW139767   4.637   4.611   6.495
 9418SOL    HW239768   4.551   4.749   6.513
 9419SOL     OW39769   3.803   4.964   6.239
 9419SOL    HW139770   3.802   4.917   6.327
 9419SOL    HW239771   3.885   4.936   6.188
 9420SOL     OW39772   4.152   4.148   6.106
 9420SOL    HW139773   4.182   4.076   6.044
 9420SOL    HW239774   4.113   4.108   6.189
 9421SOL     OW39775   4.041   4.271   6.866
 9421SOL    HW139776   4.079   4.212   6.938
 9421SOL    HW239777   4.081   4.245   6.778
 9422SOL     OW39778   4.725   3.758   6.740
 9422SOL    HW139779   4.662   3.686   6.709
 9422SOL    HW239780   4.818   3.722   6.740
 9423SOL     OW39781   3.763   4.801   5.886
 9423SOL    HW139782   3.862   4.790   5.877
 9423SOL    HW239783   3.723   4.715   5.918
 9424SOL     OW39784   3.954   4.352   7.561
 9424SOL    HW139785   3.861   4.350   7.598
 9424SOL    HW239786   3.955   4.313   7.469
 9425SOL     OW39787   3.949   3.999   8.444
 9425SOL    HW139788   3.984   3.982   8.536
 9425SOL    HW239789   3.861   3.954   8.432
 9426SOL     OW39790   3.743   4.092   8.095
 9426SOL    HW139791   3.661   4.135   8.134
 9426SOL    HW239792   3.715   4.019   8.032
 9427SOL     OW39793   4.492   4.868   8.471
 9427SOL    HW139794   4.414   4.885   8.531
 9427SOL    HW239795   4.526   4.955   8.435
 9428SOL     OW39796   4.409   4.736   8.113
 9428SOL    HW139797   4.478   4.720   8.183
 9428SOL    HW239798   4.336   4.793   8.151
 9429SOL     OW39799   4.162   4.116   8.947
 9429SOL    HW139800   4.244   4.060   8.956
 9429SOL    HW239801   4.081   4.058   8.951
 9430SOL     OW39802   3.964   4.815   8.334
 9430SOL    HW139803   3.978   4.731   8.386
 9430SOL    HW239804   3.909   4.879   8.389
 9431SOL     OW39805   4.330   4.688   7.571
 9431SOL    HW139806   4.337   4.772   7.517
 9431SOL    HW239807   4.376   4.701   7.659
 9432SOL     OW39808   3.846   4.367   8.011
 9432SOL    HW139809   3.801   4.279   8.028
 9432SOL    HW239810   3.845   4.421   8.095
 9433SOL     OW39811   3.837   4.461   9.045
 9433SOL    HW139812   3.925   4.448   9.090
 9433SOL    HW239813   3.824   4.558   9.023
 9434SOL     OW39814   4.533   3.728   7.950
 9434SOL    HW139815   4.573   3.819   7.941
 9434SOL    HW239816   4.433   3.736   7.956
 9435SOL     OW39817   3.921   4.700   8.712
 9435SOL    HW139818   4.010   4.655   8.698
 9435SOL    HW239819   3.848   4.635   8.693
 9436SOL     OW39820   4.041   3.975   9.249
 9436SOL    HW139821   4.112   4.046   9.255
 9436SOL    HW239822   3.953   4.014   9.277
 9437SOL     OW39823   4.322   4.453   7.718
 9437SOL    HW139824   4.346   4.522   7.650
 9437SOL    HW239825   4.244   4.486   7.772
 9438SOL     OW39826   4.531   4.329   8.913
 9438SOL    HW139827   4.484   4.326   9.002
 9438SOL    HW239828   4.480   4.274   8.847
 9439SOL     OW39829   4.715   4.134   8.690
 9439SOL    HW139830   4.638   4.168   8.744
 9439SOL    HW239831   4.681   4.083   8.611
 9440SOL     OW39832   3.800   4.535   8.237
 9440SOL    HW139833   3.899   4.523   8.246
 9440SOL    HW239834   3.776   4.630   8.258
 9441SOL     OW39835   4.589   4.072   7.643
 9441SOL    HW139836   4.648   4.135   7.594
 9441SOL    HW239837   4.608   3.978   7.614
 9442SOL     OW39838   4.274   3.920   8.333
 9442SOL    HW139839   4.269   3.915   8.433
 9442SOL    HW239840   4.276   4.016   8.304
 9443SOL     OW39841   3.926   4.009   8.946
 9443SOL    HW139842   3.846   4.069   8.933
 9443SOL    HW239843   3.916   3.960   9.032
 9444SOL     OW39844   4.106   4.424   7.928
 9444SOL    HW139845   4.151   4.334   7.925
 9444SOL    HW239846   4.012   4.413   7.961
 9445SOL     OW39847   4.338   3.846   7.565
 9445SOL    HW139848   4.436   3.824   7.572
 9445SOL    HW239849   4.307   3.829   7.472
 9446SOL     OW39850   4.505   3.988   9.197
 9446SOL    HW139851   4.572   3.927   9.240
 9446SOL    HW239852   4.432   4.007   9.262
 9447SOL     OW39853   4.646   4.227   8.347
 9447SOL    HW139854   4.621   4.218   8.251
 9447SOL    HW239855   4.694   4.145   8.378
 9448SOL     OW39856   4.263   3.788   7.960
 9448SOL    HW139857   4.182   3.789   8.018
 9448SOL    HW239858   4.266   3.871   7.905
 9449SOL     OW39859   4.021   3.759   7.619
 9449SOL    HW139860   4.070   3.843   7.598
 9449SOL    HW239861   4.083   3.694   7.664
 9450SOL     OW39862   4.659   3.960   7.928
 9450SOL    HW139863   4.611   4.001   7.850
 9450SOL    HW239864   4.758   3.958   7.909
 9451SOL     OW39865   4.756   4.273   7.464
 9451SOL    HW139866   4.715   4.355   7.425
 9451SOL    HW239867   4.820   4.299   7.537
 9452SOL     OW39868   3.802   4.280   8.834
 9452SOL    HW139869   3.894   4.279   8.793
 9452SOL    HW239870   3.796   4.354   8.901
 9453SOL     OW39871   4.285   3.946   8.595
 9453SOL    HW139872   4.323   3.862   8.632
 9453SOL    HW239873   4.197   3.965   8.639
 9454SOL     OW39874   4.590   4.178   8.090
 9454SOL    HW139875   4.558   4.250   8.028
 9454SOL    HW239876   4.614   4.097   8.037
 9455SOL     OW39877   4.741   3.763   8.201
 9455SOL    HW139878   4.669   3.768   8.132
 9455SOL    HW239879   4.717   3.694   8.270
 9456SOL     OW39880   4.251   3.980   7.776
 9456SOL    HW139881   4.278   3.921   7.701
 9456SOL    HW239882   4.251   4.075   7.745
 9457SOL     OW39883   4.639   3.813   8.850
 9457SOL    HW139884   4.664   3.793   8.755
 9457SOL    HW239885   4.711   3.869   8.892
 9458SOL     OW39886   4.134   4.537   8.699
 9458SOL    HW139887   4.220   4.549   8.749
 9458SOL    HW239888   4.092   4.450   8.726
 9459SOL     OW39889   4.290   4.261   8.313
 9459SOL    HW139890   4.302   4.327   8.239
 9459SOL    HW239891   4.336   4.295   8.396
 9460SOL     OW39892   4.126   4.475   9.046
 9460SOL    HW139893   4.194   4.530   8.999
 9460SOL    HW239894   4.166   4.387   9.073
 9461SOL     OW39895   4.228   3.774   9.188
 9461SOL    HW139896   4.186   3.717   9.118
 9461SOL    HW239897   4.162   3.843   9.220
 9462SOL     OW39898   4.933   4.249   7.723
 9462SOL    HW139899   4.946   4.165   7.777
 9462SOL    HW239900   4.904   4.323   7.783
 9463SOL     OW39901   4.031   3.937   8.679
 9463SOL    HW139902   4.008   3.974   8.769
 9463SOL    HW239903   4.001   3.842   8.673
 9464SOL     OW39904   4.456   4.358   8.512
 9464SOL    HW139905   4.515   4.332   8.436
 9464SOL    HW239906   4.428   4.454   8.501
 9465SOL     OW39907   4.031   3.787   8.066
 9465SOL    HW139908   4.020   3.881   8.099
 9465SOL    HW239909   4.026   3.724   8.143
 9466SOL     OW39910   4.043   4.534   8.397
 9466SOL    HW139911   4.136   4.570   8.402
 9466SOL    HW239912   4.037   4.449   8.449
 9467SOL     OW39913   4.063   4.233   8.454
 9467SOL    HW139914   4.011   4.150   8.437
 9467SOL    HW239915   4.140   4.238   8.390
 9468SOL     OW39916   3.764   4.268   8.562
 9468SOL    HW139917   3.849   4.235   8.521
 9468SOL    HW239918   3.777   4.283   8.660
 9469SOL     OW39919   3.913   4.244   9.170
 9469SOL    HW139920   3.972   4.204   9.100
 9469SOL    HW239921   3.855   4.315   9.129
 9470SOL     OW39922   4.539   4.296   7.773
 9470SOL    HW139923   4.546   4.207   7.727
 9470SOL    HW239924   4.445   4.330   7.765
 9471SOL     OW39925   4.395   4.188   8.717
 9471SOL    HW139926   4.361   4.099   8.687
 9471SOL    HW239927   4.421   4.242   8.637
 9472SOL     OW39928   4.197   4.224   7.639
 9472SOL    HW139929   4.258   4.304   7.643
 9472SOL    HW239930   4.102   4.255   7.646
 9473SOL     OW39931   3.883   4.861   8.914
 9473SOL    HW139932   3.905   4.800   8.990
 9473SOL    HW239933   3.893   4.812   8.828
 9474SOL     OW39934   5.026   4.579   7.757
 9474SOL    HW139935   4.940   4.548   7.799
 9474SOL    HW239936   5.022   4.565   7.658
 9475SOL     OW39937   3.987   4.050   8.168
 9475SOL    HW139938   3.908   4.101   8.134
 9475SOL    HW239939   3.978   4.035   8.266
 9476SOL     OW39940   4.640   4.634   7.739
 9476SOL    HW139941   4.703   4.672   7.671
 9476SOL    HW239942   4.680   4.551   7.778
 9477SOL     OW39943   4.738   3.960   8.419
 9477SOL    HW139944   4.730   3.924   8.326
 9477SOL    HW239945   4.736   3.884   8.484
 9478SOL     OW39946   3.829   4.737   9.174
 9478SOL    HW139947   3.752   4.704   9.228
 9478SOL    HW239948   3.914   4.707   9.216
 9479SOL     OW39949   4.396   3.927   8.937
 9479SOL    HW139950   4.486   3.911   8.897
 9479SOL    HW239951   4.404   3.932   9.036
 9480SOL     OW39952   3.799   4.069   7.481
 9480SOL    HW139953   3.707   4.041   7.452
 9480SOL    HW239954   3.830   4.146   7.425
 9481SOL     OW39955   3.796   3.890   7.766
 9481SOL    HW139956   3.779   3.973   7.712
 9481SOL    HW239957   3.886   3.853   7.744
 9482SOL     OW39958   4.949   4.049   7.897
 9482SOL    HW139959   5.014   3.975   7.886
 9482SOL    HW239960   4.969   4.099   7.981
 9483SOL     OW39961   4.318   4.469   8.100
 9483SOL    HW139962   4.368   4.554   8.081
 9483SOL    HW239963   4.230   4.471   8.052
 9484SOL     OW39964   3.803   4.964   8.101
 9484SOL    HW139965   3.802   4.917   8.189
 9484SOL    HW239966   3.885   4.936   8.050
 9485SOL     OW39967   4.152   4.148   7.968
 9485SOL    HW139968   4.182   4.076   7.906
 9485SOL    HW239969   4.113   4.108   8.051
 9486SOL     OW39970   4.041   4.271   8.728
 9486SOL    HW139971   4.079   4.212   8.800
 9486SOL    HW239972   4.081   4.245   8.640
 9487SOL     OW39973   4.725   3.758   8.602
 9487SOL    HW139974   4.662   3.686   8.571
 9487SOL    HW239975   4.818   3.722   8.602
 9488SOL     OW39976   3.763   4.801   7.748
 9488SOL    HW139977   3.862   4.790   7.739
 9488SOL    HW239978   3.723   4.715   7.780
 9489SOL     OW39979   4.492   4.868  10.333
 9489SOL    HW139980   4.414   4.885  10.393
 9489SOL    HW239981   4.526   4.955  10.297
 9490SOL     OW39982   4.409   4.736   9.975
 9490SOL    HW139983   4.478   4.720  10.045
 9490SOL    HW239984   4.336   4.793  10.013
 9491SOL     OW39985   3.964   4.815  10.196
 9491SOL    HW139986   3.978   4.731  10.248
 9491SOL    HW239987   3.909   4.879  10.251
 9492SOL     OW39988   4.041   3.975  11.111
 9492SOL    HW139989   4.112   4.046  11.117
 9492SOL    HW239990   3.953   4.014  11.139
 9493SOL     OW39991   4.697   4.614  10.882
 9493SOL    HW139992   4.743   4.530  10.853
 9493SOL    HW239993   4.641   4.648  10.807
 9494SOL     OW39994   4.715   4.134  10.552
 9494SOL    HW139995   4.638   4.168  10.606
 9494SOL    HW239996   4.681   4.083  10.473
 9495SOL     OW39997   3.800   4.535  10.099
 9495SOL    HW139998   3.899   4.523  10.108
 9495SOL    HW239999   3.776   4.630  10.120
 9496SOL     OW40000   4.659   3.960   9.790
 9496SOL    HW140001   4.611   4.001   9.712
 9496SOL    HW240002   4.758   3.958   9.771
 9497SOL     OW40003   4.285   3.946  10.457
 9497SOL    HW140004   4.323   3.862  10.494
 9497SOL    HW240005   4.197   3.965  10.501
 9498SOL     OW40006   4.134   4.537  10.561
 9498SOL    HW140007   4.220   4.549  10.611
 9498SOL    HW240008   4.092   4.450  10.588
 9499SOL     OW40009   4.290   4.261  10.175
 9499SOL    HW140010   4.302   4.327  10.101
 9499SOL    HW240011   4.336   4.295  10.258
 9500SOL     OW40012   4.297   4.594  10.339
 9500SOL    HW140013   4.341   4.683  10.330
 9500SOL    HW240014   4.234   4.594  10.416
 9501SOL     OW40015   4.456   4.358  10.374
 9501SOL    HW140016   4.515   4.332  10.298
 9501SOL    HW240017   4.428   4.454  10.363
 9502SOL     OW40018   4.747   4.490  10.276
 9502SOL    HW140019   4.762   4.511  10.372
 9502SOL    HW240020   4.717   4.395  10.267
 9503SOL     OW40021   4.043   4.534  10.259
 9503SOL    HW140022   4.136   4.570  10.264
 9503SOL    HW240023   4.037   4.449  10.311
 9504SOL     OW40024   4.063   4.233  10.316
 9504SOL    HW140025   4.011   4.150  10.299
 9504SOL    HW240026   4.140   4.238  10.252
 9505SOL     OW40027   4.726   4.520  10.548
 9505SOL    HW140028   4.767   4.488  10.634
 9505SOL    HW240029   4.630   4.493  10.545
 9506SOL     OW40030   4.539   4.296   9.635
 9506SOL    HW140031   4.546   4.207   9.589
 9506SOL    HW240032   4.445   4.330   9.627
 9507SOL     OW40033   4.395   4.188  10.579
 9507SOL    HW140034   4.361   4.099  10.549
 9507SOL    HW240035   4.421   4.242  10.499
 9508SOL     OW40036   4.738   3.960  10.281
 9508SOL    HW140037   4.730   3.924  10.188
 9508SOL    HW240038   4.736   3.884  10.346
 9509SOL     OW40039   3.799   4.069   9.343
 9509SOL    HW140040   3.707   4.041   9.314
 9509SOL    HW240041   3.830   4.146   9.287
 9510SOL     OW40042   4.583   4.680  10.171
 9510SOL    HW140043   4.637   4.611  10.219
 9510SOL    HW240044   4.551   4.749  10.237
 9511SOL     OW40045   3.803   4.964   9.963
 9511SOL    HW140046   3.802   4.917  10.051
 9511SOL    HW240047   3.885   4.936   9.912
 9512SOL     OW40048   4.725   3.758  10.464
 9512SOL    HW140049   4.662   3.686  10.433
 9512SOL    HW240050   4.818   3.722  10.464
 9513SOL     OW40051   3.763   4.801   9.610
 9513SOL    HW140052   3.862   4.790   9.601
 9513SOL    HW240053   3.723   4.715   9.642
 9514SOL     OW40054   3.743   4.092  11.819
 9514SOL    HW140055   3.661   4.135  11.858
 9514SOL    HW240056   3.715   4.019  11.756
 9515SOL     OW40057   4.162   4.116  12.671
 9515SOL    HW140058   4.244   4.060  12.680
 9515SOL    HW240059   4.081   4.058  12.675
 9516SOL     OW40060   3.964   4.815  12.058
 9516SOL    HW140061   3.978   4.731  12.110
 9516SOL    HW240062   3.909   4.879  12.113
 9517SOL     OW40063   3.837   4.461  12.769
 9517SOL    HW140064   3.925   4.448  12.814
 9517SOL    HW240065   3.824   4.558  12.747
 9518SOL     OW40066   3.921   4.700  12.436
 9518SOL    HW140067   4.010   4.655  12.422
 9518SOL    HW240068   3.848   4.635  12.417
 9519SOL     OW40069   4.041   3.975  12.973
 9519SOL    HW140070   4.112   4.046  12.979
 9519SOL    HW240071   3.953   4.014  13.001
 9520SOL     OW40072   4.322   4.453  11.442
 9520SOL    HW140073   4.346   4.522  11.374
 9520SOL    HW240074   4.244   4.486  11.496
 9521SOL     OW40075   4.531   4.329  12.637
 9521SOL    HW140076   4.484   4.326  12.726
 9521SOL    HW240077   4.480   4.274  12.571
 9522SOL     OW40078   4.697   4.614  12.744
 9522SOL    HW140079   4.743   4.530  12.715
 9522SOL    HW240080   4.641   4.648  12.669
 9523SOL     OW40081   4.589   4.072  11.367
 9523SOL    HW140082   4.648   4.135  11.318
 9523SOL    HW240083   4.608   3.978  11.338
 9524SOL     OW40084   3.926   4.009  12.670
 9524SOL    HW140085   3.846   4.069  12.657
 9524SOL    HW240086   3.916   3.960  12.756
 9525SOL     OW40087   4.756   4.273  11.188
 9525SOL    HW140088   4.715   4.355  11.149
 9525SOL    HW240089   4.820   4.299  11.261
 9526SOL     OW40090   3.802   4.280  12.558
 9526SOL    HW140091   3.894   4.279  12.517
 9526SOL    HW240092   3.796   4.354  12.625
 9527SOL     OW40093   4.285   3.946  12.319
 9527SOL    HW140094   4.323   3.862  12.356
 9527SOL    HW240095   4.197   3.965  12.363
 9528SOL     OW40096   4.126   4.475  12.770
 9528SOL    HW140097   4.194   4.530  12.723
 9528SOL    HW240098   4.166   4.387  12.797
 9529SOL     OW40099   4.228   3.774  12.912
 9529SOL    HW140100   4.186   3.717  12.842
 9529SOL    HW240101   4.162   3.843  12.944
 9530SOL     OW40102   4.933   4.249  11.447
 9530SOL    HW140103   4.946   4.165  11.501
 9530SOL    HW240104   4.904   4.323  11.507
 9531SOL     OW40105   4.031   3.937  12.403
 9531SOL    HW140106   4.008   3.974  12.493
 9531SOL    HW240107   4.001   3.842  12.397
 9532SOL     OW40108   4.074   4.622  12.976
 9532SOL    HW140109   4.150   4.666  13.024
 9532SOL    HW240110   4.109   4.575  12.894
 9533SOL     OW40111   4.063   4.233  12.178
 9533SOL    HW140112   4.011   4.150  12.161
 9533SOL    HW240113   4.140   4.238  12.114
 9534SOL     OW40114   3.764   4.268  12.286
 9534SOL    HW140115   3.849   4.235  12.245
 9534SOL    HW240116   3.777   4.283  12.384
 9535SOL     OW40117   3.913   4.244  12.894
 9535SOL    HW140118   3.972   4.204  12.824
 9535SOL    HW240119   3.855   4.315  12.853
 9536SOL     OW40120   4.539   4.296  11.497
 9536SOL    HW140121   4.546   4.207  11.451
 9536SOL    HW240122   4.445   4.330  11.489
 9537SOL     OW40123   4.395   4.188  12.441
 9537SOL    HW140124   4.361   4.099  12.411
 9537SOL    HW240125   4.421   4.242  12.361
 9538SOL     OW40126   5.026   4.579  11.481
 9538SOL    HW140127   4.940   4.548  11.523
 9538SOL    HW240128   5.022   4.565  11.382
 9539SOL     OW40129   4.640   4.634  11.463
 9539SOL    HW140130   4.703   4.672  11.395
 9539SOL    HW240131   4.680   4.551  11.502
 9540SOL     OW40132   3.829   4.737  12.898
 9540SOL    HW140133   3.752   4.704  12.952
 9540SOL    HW240134   3.914   4.707  12.940
 9541SOL     OW40135   4.396   3.927  12.661
 9541SOL    HW140136   4.486   3.911  12.621
 9541SOL    HW240137   4.404   3.932  12.760
 9542SOL     OW40138   4.440   4.289  12.880
 9542SOL    HW140139   4.459   4.354  12.954
 9542SOL    HW240140   4.500   4.209  12.889
 9543SOL     OW40141   4.949   4.049  11.621
 9543SOL    HW140142   5.014   3.975  11.610
 9543SOL    HW240143   4.969   4.099  11.705
 9544SOL     OW40144   4.318   4.469  11.824
 9544SOL    HW140145   4.368   4.554  11.805
 9544SOL    HW240146   4.230   4.471  11.776
 9545SOL     OW40147   4.041   4.271  12.452
 9545SOL    HW140148   4.079   4.212  12.524
 9545SOL    HW240149   4.081   4.245  12.364
 9546SOL     OW40150   3.949   3.999  14.030
 9546SOL    HW140151   3.984   3.982  14.122
 9546SOL    HW240152   3.861   3.954  14.018
 9547SOL     OW40153   4.162   4.116  14.533
 9547SOL    HW140154   4.244   4.060  14.542
 9547SOL    HW240155   4.081   4.058  14.537
 9548SOL     OW40156   3.964   4.815  13.920
 9548SOL    HW140157   3.978   4.731  13.972
 9548SOL    HW240158   3.909   4.879  13.975
 9549SOL     OW40159   4.330   4.688  13.157
 9549SOL    HW140160   4.337   4.772  13.103
 9549SOL    HW240161   4.376   4.701  13.245
 9550SOL     OW40162   3.837   4.461  14.631
 9550SOL    HW140163   3.925   4.448  14.676
 9550SOL    HW240164   3.824   4.558  14.609
 9551SOL     OW40165   4.041   3.975  14.835
 9551SOL    HW140166   4.112   4.046  14.841
 9551SOL    HW240167   3.953   4.014  14.863
 9552SOL     OW40168   4.505   3.988  14.783
 9552SOL    HW140169   4.572   3.927  14.826
 9552SOL    HW240170   4.432   4.007  14.848
 9553SOL     OW40171   4.021   3.759  13.205
 9553SOL    HW140172   4.070   3.843  13.184
 9553SOL    HW240173   4.083   3.694  13.250
 9554SOL     OW40174   4.590   4.178  13.676
 9554SOL    HW140175   4.558   4.250  13.614
 9554SOL    HW240176   4.614   4.097  13.623
 9555SOL     OW40177   4.126   4.475  14.632
 9555SOL    HW140178   4.194   4.530  14.585
 9555SOL    HW240179   4.166   4.387  14.659
 9556SOL     OW40180   4.228   3.774  14.774
 9556SOL    HW140181   4.186   3.717  14.704
 9556SOL    HW240182   4.162   3.843  14.806
 9557SOL     OW40183   4.297   4.594  14.063
 9557SOL    HW140184   4.341   4.683  14.054
 9557SOL    HW240185   4.234   4.594  14.140
 9558SOL     OW40186   4.031   3.787  13.652
 9558SOL    HW140187   4.020   3.881  13.685
 9558SOL    HW240188   4.026   3.724  13.729
 9559SOL     OW40189   4.043   4.534  13.983
 9559SOL    HW140190   4.136   4.570  13.988
 9559SOL    HW240191   4.037   4.449  14.035
 9560SOL     OW40192   4.063   4.233  14.040
 9560SOL    HW140193   4.011   4.150  14.023
 9560SOL    HW240194   4.140   4.238  13.976
 9561SOL     OW40195   4.726   4.520  14.272
 9561SOL    HW140196   4.767   4.488  14.358
 9561SOL    HW240197   4.630   4.493  14.269
 9562SOL     OW40198   3.913   4.244  14.756
 9562SOL    HW140199   3.972   4.204  14.686
 9562SOL    HW240200   3.855   4.315  14.715
 9563SOL     OW40201   3.987   4.050  13.754
 9563SOL    HW140202   3.908   4.101  13.720
 9563SOL    HW240203   3.978   4.035  13.852
 9564SOL     OW40204   4.738   3.960  14.005
 9564SOL    HW140205   4.730   3.924  13.912
 9564SOL    HW240206   4.736   3.884  14.070
 9565SOL     OW40207   3.829   4.737  14.760
 9565SOL    HW140208   3.752   4.704  14.814
 9565SOL    HW240209   3.914   4.707  14.802
 9566SOL     OW40210   4.396   3.927  14.523
 9566SOL    HW140211   4.486   3.911  14.483
 9566SOL    HW240212   4.404   3.932  14.622
 9567SOL     OW40213   4.725   3.758  14.188
 9567SOL    HW140214   4.662   3.686  14.157
 9567SOL    HW240215   4.818   3.722  14.188
 9568SOL     OW40216   3.743   4.092  15.543
 9568SOL    HW140217   3.661   4.135  15.582
 9568SOL    HW240218   3.715   4.019  15.480
 9569SOL     OW40219   4.041   3.975  16.698
 9569SOL    HW140220   4.112   4.046  16.704
 9569SOL    HW240221   3.953   4.014  16.726
 9570SOL     OW40222   4.715   4.134  16.139
 9570SOL    HW140223   4.638   4.168  16.193
 9570SOL    HW240224   4.681   4.083  16.060
 9571SOL     OW40225   4.274   3.920  15.781
 9571SOL    HW140226   4.269   3.915  15.881
 9571SOL    HW240227   4.276   4.016  15.752
 9572SOL     OW40228   4.505   3.988  16.646
 9572SOL    HW140229   4.572   3.927  16.689
 9572SOL    HW240230   4.432   4.007  16.711
 9573SOL     OW40231   4.021   3.759  15.067
 9573SOL    HW140232   4.070   3.843  15.046
 9573SOL    HW240233   4.083   3.694  15.112
 9574SOL     OW40234   3.802   4.280  16.283
 9574SOL    HW140235   3.894   4.279  16.242
 9574SOL    HW240236   3.796   4.354  16.350
 9575SOL     OW40237   4.285   3.946  16.044
 9575SOL    HW140238   4.323   3.862  16.081
 9575SOL    HW240239   4.197   3.965  16.088
 9576SOL     OW40240   4.251   3.980  15.224
 9576SOL    HW140241   4.278   3.921  15.149
 9576SOL    HW240242   4.251   4.075  15.193
 9577SOL     OW40243   4.639   3.813  16.299
 9577SOL    HW140244   4.664   3.793  16.204
 9577SOL    HW240245   4.711   3.869  16.341
 9578SOL     OW40246   4.737   3.829  16.667
 9578SOL    HW140247   4.743   3.914  16.615
 9578SOL    HW240248   4.769   3.753  16.610
 9579SOL     OW40249   4.228   3.774  16.637
 9579SOL    HW140250   4.186   3.717  16.567
 9579SOL    HW240251   4.162   3.843  16.669
 9580SOL     OW40252   4.933   4.249  15.171
 9580SOL    HW140253   4.946   4.165  15.225
 9580SOL    HW240254   4.904   4.323  15.231
 9581SOL     OW40255   5.026   4.579  15.205
 9581SOL    HW140256   4.940   4.548  15.247
 9581SOL    HW240257   5.022   4.565  15.106
 9582SOL     OW40258   3.987   4.050  15.616
 9582SOL    HW140259   3.908   4.101  15.582
 9582SOL    HW240260   3.978   4.035  15.714
 9583SOL     OW40261   4.640   4.634  15.187
 9583SOL    HW140262   4.703   4.672  15.119
 9583SOL    HW240263   4.680   4.551  15.226
 9584SOL     OW40264   4.396   3.927  16.386
 9584SOL    HW140265   4.486   3.911  16.346
 9584SOL    HW240266   4.404   3.932  16.485
 9585SOL     OW40267   3.799   4.069  14.929
 9585SOL    HW140268   3.707   4.041  14.900
 9585SOL    HW240269   3.830   4.146  14.873
 9586SOL     OW40270   3.796   3.890  15.214
 9586SOL    HW140271   3.779   3.973  15.160
 9586SOL    HW240272   3.886   3.853  15.192
 9587SOL     OW40273   4.440   4.289  16.605
 9587SOL    HW140274   4.459   4.354  16.679
 9587SOL    HW240275   4.500   4.209  16.614
 9588SOL     OW40276   4.949   4.049  15.345
 9588SOL    HW140277   5.014   3.975  15.334
 9588SOL    HW240278   4.969   4.099  15.429
 9589SOL     OW40279   4.152   4.148  15.416
 9589SOL    HW140280   4.182   4.076  15.354
 9589SOL    HW240281   4.113   4.108  15.499
 9590SOL     OW40282   3.949   3.999  17.755
 9590SOL    HW140283   3.984   3.982  17.847
 9590SOL    HW240284   3.861   3.954  17.743
 9591SOL     OW40285   3.743   4.092  17.406
 9591SOL    HW140286   3.661   4.135  17.445
 9591SOL    HW240287   3.715   4.019  17.343
 9592SOL     OW40288   3.846   4.367  17.322
 9592SOL    HW140289   3.801   4.279  17.339
 9592SOL    HW240290   3.845   4.421  17.406
 9593SOL     OW40291   3.800   4.535  17.548
 9593SOL    HW140292   3.899   4.523  17.557
 9593SOL    HW240293   3.776   4.630  17.569
 9594SOL     OW40294   4.589   4.072  16.954
 9594SOL    HW140295   4.648   4.135  16.905
 9594SOL    HW240296   4.608   3.978  16.925
 9595SOL     OW40297   4.106   4.424  17.239
 9595SOL    HW140298   4.151   4.334  17.236
 9595SOL    HW240299   4.012   4.413  17.272
 9596SOL     OW40300   4.338   3.846  16.876
 9596SOL    HW140301   4.436   3.824  16.883
 9596SOL    HW240302   4.307   3.829  16.783
 9597SOL     OW40303   4.263   3.788  17.271
 9597SOL    HW140304   4.182   3.789  17.329
 9597SOL    HW240305   4.266   3.871  17.216
 9598SOL     OW40306   4.021   3.759  16.930
 9598SOL    HW140307   4.070   3.843  16.909
 9598SOL    HW240308   4.083   3.694  16.975
 9599SOL     OW40309   4.251   3.980  17.087
 9599SOL    HW140310   4.278   3.921  17.012
 9599SOL    HW240311   4.251   4.075  17.056
 9600SOL     OW40312   4.933   4.249  17.034
 9600SOL    HW140313   4.946   4.165  17.088
 9600SOL    HW240314   4.904   4.323  17.094
 9601SOL     OW40315   4.031   3.937  17.990
 9601SOL    HW140316   4.008   3.974  18.080
 9601SOL    HW240317   4.001   3.842  17.984
 9602SOL     OW40318   4.031   3.787  17.377
 9602SOL    HW140319   4.020   3.881  17.410
 9602SOL    HW240320   4.026   3.724  17.454
 9603SOL     OW40321   4.747   4.490  17.725
 9603SOL    HW140322   4.762   4.511  17.821
 9603SOL    HW240323   4.717   4.395  17.716
 9604SOL     OW40324   4.726   4.520  17.997
 9604SOL    HW140325   4.767   4.488  18.083
 9604SOL    HW240326   4.630   4.493  17.994
 9605SOL     OW40327   4.539   4.296  17.084
 9605SOL    HW140328   4.546   4.207  17.038
 9605SOL    HW240329   4.445   4.330  17.076
 9606SOL     OW40330   4.395   4.188  18.028
 9606SOL    HW140331   4.361   4.099  17.998
 9606SOL    HW240332   4.421   4.242  17.948
 9607SOL     OW40333   4.197   4.224  16.950
 9607SOL    HW140334   4.258   4.304  16.954
 9607SOL    HW240335   4.102   4.255  16.957
 9608SOL     OW40336   3.987   4.050  17.479
 9608SOL    HW140337   3.908   4.101  17.445
 9608SOL    HW240338   3.978   4.035  17.577
 9609SOL     OW40339   4.949   4.049  17.208
 9609SOL    HW140340   5.014   3.975  17.197
 9609SOL    HW240341   4.969   4.099  17.292
 9610SOL     OW40342   3.803   4.964  17.412
 9610SOL    HW140343   3.802   4.917  17.500
 9610SOL    HW240344   3.885   4.936  17.361
 9611SOL     OW40345   4.152   4.148  17.279
 9611SOL    HW140346   4.182   4.076  17.217
 9611SOL    HW240347   4.113   4.108  17.362
   4.80470   4.80470  18.00000
