;
;;NH3
;[ atomtypes ]
;NG331     7    14.007000    0.000  A  0.352795892384  0.29288
;HGPAM3     1     1.008000    0.000  A  0.155016376956  0.05021
;
;;NH3
;[ bondtypes ]
;NG331   HGPAM3     1   0.10140000    381162.40
;
;;NH3
;[ angletypes ]
;HGPAM3    NG331   HGPAM3     5   107.100000   347.272000   0.00000000         0.00


;
[ moleculetype ]
; Name            nrexcl
LIG               3
;
[ atoms ]
;   nr       type  resnr residue  atom   cgnr     charge       mass  typeB    chargeB      massB
; residue   1 NH3 rtp NH3  q +0.0
     1      NG331      1    NH3     N1      1     -1.125     14.007   ; qtot -1.125
     2     HGPAM3      1    NH3     H2      2      0.375      1.008   ; qtot 0.375
     3     HGPAM3      1    NH3     H3      3      0.375      1.008   ; qtot 0.375
     4     HGPAM3      1    NH3     H4      4      0.375      1.008   ; qtot 0.375

[ bonds ]
;  ai    aj funct            c0            c1            c2            c3
    1     2     1
    1     3     1
    1     4     1

[ pairs ]
;  ai    aj funct            c0            c1            c2            c3

[ angles ]
;  ai    aj    ak funct            c0            c1            c2            c3
    2     1     3     5
    2     1     4     5
    3     1     4     5

[ dihedrals ]
;  ai    aj    ak    al funct            c0            c1            c2            c3            c4            c5

